1000 SPC/Fw water molecules
 3000
    1SOL     OW    1   1.318   2.855   0.237 -0.7124  0.1004 -0.1286
    1SOL    HW1    2   1.272   2.947   0.235  3.7335 -2.1523 -0.1656
    1SOL    HW2    3   1.278   2.805   0.318  1.7130 -1.6160 -1.1119
    2SOL     OW    4   1.514   0.739   1.517  0.4194  0.0239  0.2198
    2SOL    HW1    5   1.599   0.712   1.465 -0.2147  0.9231  3.1839
    2SOL    HW2    6   1.526   0.826   1.568  0.1244 -1.3178 -0.8475
    3SOL     OW    7   0.667   0.097   2.391 -0.5757 -0.1334 -0.1461
    3SOL    HW1    8   0.675   0.194   2.421 -2.0234 -1.5745 -0.5892
    3SOL    HW2    9   0.610   0.044   2.459  1.4697  1.6021  0.1355
    4SOL     OW   10   1.589   1.673   2.991 -0.0087  0.0225 -0.2272
    4SOL    HW1   11   1.623   1.763   2.952 -0.0923 -0.3896  0.5547
    4SOL    HW2   12   1.553   1.691   3.086  1.6307  1.4970  0.7254
    5SOL     OW   13   0.798   1.264   2.028  0.7256 -0.5411 -0.6955
    5SOL    HW1   14   0.806   1.162   2.024 -0.3923  2.1880  1.0894
    5SOL    HW2   15   0.892   1.303   2.022 -1.2923  0.6980 -0.0722
    6SOL     OW   16   2.381   0.969   2.256 -0.1621 -0.3110  0.4275
    6SOL    HW1   17   2.443   0.926   2.325 -0.6406 -1.3901 -0.7224
    6SOL    HW2   18   2.348   0.896   2.192  1.1000  0.8021  0.6307
    7SOL     OW   19   0.018   0.872   1.319  0.4904  0.7248  0.2353
    7SOL    HW1   20  -0.045   0.953   1.321 -0.4340  1.1133 -3.6433
    7SOL    HW2   21   0.114   0.896   1.295 -1.0156  2.8633  1.6233
    8SOL     OW   22   2.248   2.531   1.967 -0.4523 -0.3217 -0.2470
    8SOL    HW1   23   2.236   2.555   1.868 -0.0001  1.2947 -0.2199
    8SOL    HW2   24   2.266   2.617   2.020  0.0941  2.0334  3.1913
    9SOL     OW   25   0.102   2.657   0.291  0.1122  0.1599  0.5145
    9SOL    HW1   26   0.040   2.613   0.360 -0.5690  1.2473 -3.1777
    9SOL    HW2   27   0.187   2.600   0.280 -0.3631  0.5882  2.6818
   10SOL     OW   28   0.073   2.454   2.474  0.4107  0.8967  0.0521
   10SOL    HW1   29   0.126   2.538   2.452  1.2992 -0.3906  0.2411
   10SOL    HW2   30   0.134   2.372   2.462 -0.1802 -0.3993 -3.0926
   11SOL     OW   31   0.193   1.803   0.113  0.2247  0.3826 -0.0724
   11SOL    HW1   32   0.264   1.730   0.115  0.2292  1.3582  0.2991
   11SOL    HW2   33   0.157   1.817   0.208 -0.4440  1.0253  2.4971
   12SOL     OW   34   2.322   2.948   0.455 -0.2893  0.1562  0.6797
   12SOL    HW1   35   2.400   3.010   0.430 -0.3859  0.7223  0.6506
   12SOL    HW2   36   2.304   2.891   0.371  0.4091 -0.4806  0.6656
   13SOL     OW   37   0.226   0.450   2.589  0.3325 -0.0430  0.5031
   13SOL    HW1   38   0.154   0.378   2.581  1.9458 -1.7894  3.2741
   13SOL    HW2   39   0.181   0.542   2.581  2.9945  1.4437 -0.0227
   14SOL     OW   40   1.297   0.700   1.356  0.2037 -0.0111  0.7792
   14SOL    HW1   41   1.382   0.702   1.414 -2.3801  1.2539  1.3151
   14SOL    HW2   42   1.326   0.685   1.259 -1.5482 -1.4362  1.4138
   15SOL     OW   43   0.648   1.393   2.212  0.4509 -0.4134  0.0309
   15SOL    HW1   44   0.591   1.460   2.159  0.6997 -0.4688  0.7126
   15SOL    HW2   45   0.708   1.344   2.146  0.0649  0.5110 -0.1235
   16SOL     OW   46   1.802   0.846   2.739 -0.4418 -0.0593  0.8315
   16SOL    HW1   47   1.700   0.853   2.747 -0.8099 -0.9353  0.1125
   16SOL    HW2   48   1.827   0.843   2.640  0.1846 -1.1612  1.0784
   17SOL     OW   49   0.135   2.420   2.067  0.2520  0.5485  0.4042
   17SOL    HW1   50   0.093   2.500   2.114 -2.8571 -0.3598 -1.1132
   17SOL    HW2   51   0.063   2.369   2.014  0.2158 -1.1078 -2.6538
   18SOL     OW   52   1.464   1.193   0.800  0.5846 -0.3826 -0.4142
   18SOL    HW1   53   1.494   1.095   0.796 -1.4948 -1.4856  0.8113
   18SOL    HW2   54   1.366   1.205   0.774  2.7707  1.3974  1.8585
   19SOL     OW   55   0.141   1.059   1.734 -0.3793 -0.0162 -0.2764
   19SOL    HW1   56   0.218   1.109   1.689  0.6794 -1.6649  0.1210
   19SOL    HW2   57   0.182   1.003   1.808 -0.5855 -0.7941 -0.3509
   20SOL     OW   58   1.796   2.047   2.638  0.4539 -0.2419 -0.1982
   20SOL    HW1   59   1.757   2.137   2.606 -0.3480 -0.8806 -0.6552
   20SOL    HW2   60   1.843   2.054   2.728 -1.8838 -1.4436 -1.6998
   21SOL     OW   61   1.664   1.650   1.025 -0.1177  0.1694  0.7638
   21SOL    HW1   62   1.739   1.708   1.065 -0.6776  1.6134  0.9635
   21SOL    HW2   63   1.681   1.551   1.041  0.7622  1.1479  0.3672
   22SOL     OW   64   1.932   2.262   1.413  0.3431 -0.6185  0.3272
   22SOL    HW1   65   1.845   2.226   1.452 -1.6730  0.8791  2.1487
   22SOL    HW2   66   1.912   2.310   1.324 -0.2176 -1.3478 -0.4295
   23SOL     OW   67   2.668   1.083   1.324  0.3544  0.4207  0.2423
   23SOL    HW1   68   2.669   0.985   1.354 -1.2716  1.1722  0.8552
   23SOL    HW2   69   2.625   1.092   1.232  0.8886 -0.2242  0.3400
   24SOL     OW   70   1.979   1.391   1.719 -0.2780  0.1023  0.2627
   24SOL    HW1   71   1.934   1.480   1.741  0.3657  1.9921  0.8235
   24SOL    HW2   72   2.054   1.379   1.788  0.4563 -1.2373 -0.3450
   25SOL     OW   73   1.733   2.897   2.536  0.6308  0.1173 -0.0377
   25SOL    HW1   74   1.802   2.970   2.555  0.5595 -0.9584  1.4297
   25SOL    HW2   75   1.675   2.925   2.458 -2.3861  1.5677  2.4144
   26SOL     OW   76   0.371   2.647   0.637 -0.0151  0.7046  0.0172
   26SOL    HW1   77   0.462   2.678   0.672 -1.4966  2.3849  1.3521
   26SOL    HW2   78   0.383   2.567   0.575 -1.2275 -2.7885  2.9399
   27SOL     OW   79   1.199   1.226   0.742 -0.0534  0.4518 -0.4833
   27SOL    HW1   80   1.189   1.185   0.837  2.3429 -1.3840 -3.4145
   27SOL    HW2   81   1.111   1.273   0.719 -1.7967  0.3861  0.2274
   28SOL     OW   82   1.891   2.406   1.180 -0.7394 -0.2589 -0.2315
   28SOL    HW1   83   1.971   2.414   1.117  0.5853  0.9722  2.9579
   28SOL    HW2   84   1.804   2.388   1.131 -0.9687 -1.5469  1.3076
   29SOL     OW   85   2.124   2.756   2.328  0.0179  0.5212  0.0280
   29SOL    HW1   86   2.218   2.753   2.371 -0.0887 -0.2388  0.3373
   29SOL    HW2   87   2.060   2.710   2.392  0.3729  0.7231  1.4322
   30SOL     OW   88   0.110   2.737   1.846  0.6806  0.6479  0.0833
   30SOL    HW1   89   0.016   2.701   1.866  0.3407 -0.8803 -2.9208
   30SOL    HW2   90   0.129   2.806   1.919 -0.4880  0.6510  2.0927
   31SOL     OW   91   2.949   1.757   2.320 -0.5673 -0.7276  0.2136
   31SOL    HW1   92   3.005   1.818   2.381 -1.1419 -1.1383  0.0210
   31SOL    HW2   93   3.000   1.719   2.241  0.4578 -1.5387 -2.8198
   32SOL     OW   94   1.017   2.427   2.212  1.1469  0.3335  0.4141
   32SOL    HW1   95   0.943   2.419   2.283  2.0769 -0.1246  1.2503
   32SOL    HW2   96   1.106   2.407   2.256  0.2101 -0.4258 -3.5433
   33SOL     OW   97   0.022   0.505   0.039 -0.4545  0.1755 -0.4832
   33SOL    HW1   98   0.030   0.604   0.012  0.3744  1.5256 -0.1945
   33SOL    HW2   99   0.105   0.456   0.003  0.2475  0.0875  0.0666
   34SOL     OW  100   2.741   0.156   0.073  0.7879  0.1618 -0.0241
   34SOL    HW1  101   2.806   0.097   0.125 -1.3919  1.7001 -3.3802
   34SOL    HW2  102   2.660   0.102   0.043 -0.1610  0.1892 -0.1795
   35SOL     OW  103   2.853   2.716   1.644  0.8487  0.1445  0.3185
   35SOL    HW1  104   2.883   2.685   1.736 -4.5393  0.4755 -0.1104
   35SOL    HW2  105   2.901   2.804   1.622 -0.3819  0.2562 -0.5350
   36SOL     OW  106   2.280   3.038   2.624  0.2797 -0.7384 -0.1076
   36SOL    HW1  107   2.195   2.988   2.648 -0.9053  3.0224  0.6312
   36SOL    HW2  108   2.354   2.967   2.626 -0.9266 -0.2844  0.8122
   37SOL     OW  109   1.775   2.524   0.082  0.1728  0.1973 -0.5867
   37SOL    HW1  110   1.765   2.516  -0.020 -0.3918  0.0788  1.0833
   37SOL    HW2  111   1.703   2.586   0.120  0.0043  1.9376  3.6283
   38SOL     OW  112   0.466   0.144   0.684 -0.0392  0.3036  0.1977
   38SOL    HW1  113   0.437   0.234   0.644 -2.2202 -0.6354 -2.2916
   38SOL    HW2  114   0.509   0.089   0.610 -2.6215 -4.3844  0.7201
   39SOL     OW  115   1.114   1.828   2.143  0.3799  0.2009 -0.0065
   39SOL    HW1  116   1.033   1.837   2.205 -0.6649  1.0214  0.0949
   39SOL    HW2  117   1.162   1.917   2.128 -3.4786 -0.5736  1.8274
   40SOL     OW  118   3.052   0.965   0.189 -0.5810  0.2000 -0.9373
   40SOL    HW1  119   2.965   1.005   0.223 -1.5808  1.6706  0.2846
   40SOL    HW2  120   3.094   1.028   0.118  1.9526 -0.9639 -1.0527
   41SOL     OW  121   1.618   0.035   2.083 -0.3219 -0.1215  0.2077
   41SOL    HW1  122   1.540   0.092   2.120 -0.7788  2.1507  2.6184
   41SOL    HW2  123   1.582  -0.027   2.011 -0.3524 -0.2366 -1.1122
   42SOL     OW  124   2.424   0.125   1.083 -0.1845 -0.4299  0.2995
   42SOL    HW1  125   2.519   0.130   1.046 -0.4870 -2.0792 -1.0174
   42SOL    HW2  126   2.414   0.039   1.137 -1.3268  1.5164  0.1176
   43SOL     OW  127   1.546   0.251   1.175 -0.2691 -0.0870  0.3133
   43SOL    HW1  128   1.577   0.217   1.266 -1.9859 -0.7897 -2.0550
   43SOL    HW2  129   1.560   0.179   1.104  1.9753  0.5681  1.8834
   44SOL     OW  130   0.288   0.874   3.012 -0.0766 -0.1727 -0.9040
   44SOL    HW1  131   0.376   0.826   2.993 -0.7472 -1.1093 -2.8841
   44SOL    HW2  132   0.298   0.940   3.090 -0.9295  0.1968  1.2582
   45SOL     OW  133   0.627   1.518   1.708 -0.1048  0.1603  0.0175
   45SOL    HW1  134   0.677   1.521   1.618  0.0644  0.9455  0.6939
   45SOL    HW2  135   0.621   1.421   1.743  0.0089 -0.2366 -2.2649
   46SOL     OW  136   2.249   2.237   1.701 -0.2591  0.0441  0.3349
   46SOL    HW1  137   2.217   2.140   1.698 -1.2504 -0.0381 -0.0886
   46SOL    HW2  138   2.345   2.247   1.733 -1.0170 -0.2795 -2.2561
   47SOL     OW  139   0.354   1.807   1.430  0.4682  0.2235 -0.0110
   47SOL    HW1  140   0.369   1.835   1.333 -0.8505  0.2036  0.2325
   47SOL    HW2  141   0.308   1.881   1.484 -2.6215 -0.2831  1.7228
   48SOL     OW  142   1.072   2.777   2.670  0.3111  0.0788 -1.1864
   48SOL    HW1  143   1.044   2.697   2.613  2.1937 -1.0829 -0.5345
   48SOL    HW2  144   0.988   2.821   2.707 -0.3401  1.0229  0.9306
   49SOL     OW  145   2.694   1.604   1.883  0.1143  0.0515  0.2222
   49SOL    HW1  146   2.654   1.642   1.797  2.1175  5.0016  0.5263
   49SOL    HW2  147   2.655   1.514   1.905  1.8588  1.7867  2.3057
   50SOL     OW  148   0.893   2.870   0.372 -0.0581 -0.3946  0.2941
   50SOL    HW1  149   0.955   2.887   0.451 -0.6943 -0.5004  1.3940
   50SOL    HW2  150   0.865   2.962   0.338 -1.5382 -2.3313 -1.2472
   51SOL     OW  151   1.143   0.187   0.862  0.1825  0.1458 -0.0469
   51SOL    HW1  152   1.191   0.207   0.774 -0.2225 -2.8593  1.1187
   51SOL    HW2  153   1.187   0.106   0.907 -1.3645  0.6371  4.3303
   52SOL     OW  154   0.146   0.807   0.632  0.3169 -0.1850 -0.0729
   52SOL    HW1  155   0.095   0.801   0.543 -0.0078  0.6146  0.8180
   52SOL    HW2  156   0.208   0.889   0.628 -0.4724 -0.3652 -0.0865
   53SOL     OW  157   0.999   0.166   2.788  0.0763  0.2048  0.3582
   53SOL    HW1  158   1.067   0.112   2.842 -0.2938 -2.0643  1.4769
   53SOL    HW2  159   0.956   0.106   2.716  1.6694  2.0820  1.8716
   54SOL     OW  160   2.097   0.469   2.159 -0.5722  0.5773  0.6227
   54SOL    HW1  161   2.134   0.437   2.247 -0.2508  1.0973  0.9479
   54SOL    HW2  162   2.066   0.386   2.105  0.6678 -0.4872 -0.3774
   55SOL     OW  163   2.529   0.024   0.336 -0.1539 -0.1748 -0.7296
   55SOL    HW1  164   2.602  -0.013   0.398  0.4018  0.4937 -1.0569
   55SOL    HW2  165   2.553  -0.001   0.240  0.2209  1.5721  1.1721
   56SOL     OW  166   0.821   0.362   2.186 -0.2712  0.0461 -0.6518
   56SOL    HW1  167   0.742   0.349   2.122 -0.3973 -0.6820  1.4326
   56SOL    HW2  168   0.857   0.269   2.211 -0.5304  0.9807  0.7581
   57SOL     OW  169   1.725   0.977   2.275  0.3191  0.5922 -0.1098
   57SOL    HW1  170   1.689   1.073   2.283  0.0639  0.0901  1.0827
   57SOL    HW2  171   1.774   0.970   2.186 -0.1126 -2.6390 -1.9110
   58SOL     OW  172   0.217   0.888   1.946  0.6216 -0.7102  0.4041
   58SOL    HW1  173   0.271   0.962   1.992  0.9529 -2.6283 -1.1225
   58SOL    HW2  174   0.196   0.819   2.019  0.3884 -0.3672  0.4730
   59SOL     OW  175   0.843   2.682   1.900  0.0733  0.5610 -0.0746
   59SOL    HW1  176   0.753   2.646   1.930  0.8561 -0.1678 -2.0876
   59SOL    HW2  177   0.906   2.677   1.981  0.8232 -2.2408  0.9168
   60SOL     OW  178   2.146   2.599   0.325  0.1286  0.0867 -0.6668
   60SOL    HW1  179   2.066   2.619   0.385  1.3545  0.8491 -1.3924
   60SOL    HW2  180   2.148   2.500   0.295  1.2927  0.4113  0.0487
   61SOL     OW  181   1.449   2.616   0.383 -0.1362 -0.4291 -0.1283
   61SOL    HW1  182   1.356   2.645   0.414 -1.4234  0.3551 -2.4353
   61SOL    HW2  183   1.466   2.517   0.405  1.1589 -0.1799  2.3085
   62SOL     OW  184   2.197   2.584   2.955  0.4508 -0.6498 -0.7029
   62SOL    HW1  185   2.224   2.488   2.978 -0.9286 -0.6018 -3.3204
   62SOL    HW2  186   2.127   2.617   3.023  0.6567 -2.5502 -1.4251
   63SOL     OW  187   2.614   0.928   0.598 -0.0790  0.1862 -0.3453
   63SOL    HW1  188   2.579   0.893   0.508 -2.3883 -0.6208 -0.3593
   63SOL    HW2  189   2.714   0.911   0.609 -2.0650 -0.3648  0.0260
   64SOL     OW  190   1.585   1.033   0.057 -0.1276 -0.6189 -0.5734
   64SOL    HW1  191   1.598   1.129   0.089  0.8480  1.6783 -1.2805
   64SOL    HW2  192   1.485   1.012   0.062  1.9028 -0.5743 -0.1805
   65SOL     OW  193   0.420   2.426   1.687 -0.0390 -0.0041  0.1450
   65SOL    HW1  194   0.399   2.490   1.610  0.5592 -2.4121  0.3316
   65SOL    HW2  195   0.373   2.466   1.768 -0.5299  0.2712  1.5685
   66SOL     OW  196   1.003   1.279   1.277 -0.8384 -0.1146  0.4256
   66SOL    HW1  197   1.023   1.179   1.268  0.4980  1.4849  1.1076
   66SOL    HW2  198   1.011   1.324   1.186  1.1812  3.3954  2.4113
   67SOL     OW  199   2.485   1.856   1.925  0.3963 -1.0111 -0.0541
   67SOL    HW1  200   2.537   1.833   1.841 -1.6730 -1.0354  1.2260
   67SOL    HW2  201   2.494   1.786   1.998 -1.6634  1.4574  2.0177
   68SOL     OW  202   1.201   1.693   1.756  0.8145  0.6233 -0.7597
   68SOL    HW1  203   1.192   1.626   1.678  2.1062 -1.2762  0.4572
   68SOL    HW2  204   1.129   1.677   1.827 -0.6124  2.7540  0.0376
   69SOL     OW  205   2.633   0.403   0.091  0.0334 -0.5143  0.8283
   69SOL    HW1  206   2.539   0.402   0.054 -0.4097 -1.5749 -0.1958
   69SOL    HW2  207   2.673   0.308   0.091  2.2913 -1.0124 -1.0996
   70SOL     OW  208   2.167   1.133   2.247  0.1671  0.2188 -0.8350
   70SOL    HW1  209   2.249   1.071   2.251  1.3146  0.9667  1.8858
   70SOL    HW2  210   2.113   1.116   2.333  2.5168 -2.3205  0.5024
   71SOL     OW  211   1.035   2.083   0.662  0.4802  0.8270  0.0616
   71SOL    HW1  212   1.104   2.050   0.596 -0.9002 -1.6734 -0.1169
   71SOL    HW2  213   1.081   2.150   0.725  0.5461  1.2866  0.0244
   72SOL     OW  214   2.235   1.746   0.630  0.3062 -0.1883  0.3182
   72SOL    HW1  215   2.303   1.823   0.626  2.3727  1.6455  0.3849
   72SOL    HW2  216   2.163   1.766   0.698 -1.8586 -1.3298 -2.2964
   73SOL     OW  217   1.067   0.895   0.530  0.2895  0.1043 -0.5685
   73SOL    HW1  218   0.994   0.950   0.577 -0.0008  3.4486  0.0287
   73SOL    HW2  219   1.026   0.828   0.466  2.1479  1.1388 -2.1506
   74SOL     OW  220   2.646   2.124   2.171 -0.2474 -0.4487 -0.8210
   74SOL    HW1  221   2.658   2.026   2.197 -0.2642  4.9331 -0.5519
   74SOL    HW2  222   2.667   2.142   2.073  2.3659  1.1583  0.2653
   75SOL     OW  223   1.666   1.642   1.948 -0.0639 -0.0136  0.0033
   75SOL    HW1  224   1.568   1.613   1.937 -0.6387  0.6713  2.3634
   75SOL    HW2  225   1.707   1.591   2.026 -3.3343  1.3527  1.2974
   76SOL     OW  226   1.241   1.565   1.106  0.0923 -0.4198  0.1621
   76SOL    HW1  227   1.177   1.535   1.032 -1.3645 -2.6167  0.3958
   76SOL    HW2  228   1.304   1.636   1.066 -1.9659 -0.2947  1.5457
   77SOL     OW  229   2.379   0.896   1.735  0.4767  0.0278 -0.1360
   77SOL    HW1  230   2.289   0.918   1.779 -1.9499  1.8888  0.2540
   77SOL    HW2  231   2.394   0.795   1.724 -0.3712  1.4816  2.9196
   78SOL     OW  232   1.647   0.633   0.308 -0.3485  0.0546 -0.7515
   78SOL    HW1  233   1.654   0.686   0.221 -0.8993 -0.9451 -1.7873
   78SOL    HW2  234   1.558   0.654   0.353  0.6280  1.3045 -0.9138
   79SOL     OW  235   1.013   1.657   1.951 -0.3067 -0.1285  0.1668
   79SOL    HW1  236   1.045   1.724   2.022  0.4083 -0.7073  0.4882
   79SOL    HW2  237   0.912   1.661   1.936  1.6016  0.3891 -0.7090
   80SOL     OW  238   0.987   0.354   1.442  0.0460  0.3849 -0.4543
   80SOL    HW1  239   1.007   0.454   1.432 -0.2860 -2.3106 -2.9062
   80SOL    HW2  240   1.002   0.330   1.540  3.1294 -1.1233  2.2643
   81SOL     OW  241   0.305   2.491   0.231  0.4092  0.2105 -0.1325
   81SOL    HW1  242   0.381   2.503   0.165  0.3224  0.6193  0.9334
   81SOL    HW2  243   0.349   2.471   0.322 -2.7028 -0.8225 -1.9374
   82SOL     OW  244   1.060   0.249   1.706 -0.1356  0.2935 -0.1822
   82SOL    HW1  245   1.060   0.275   1.806 -2.9222 -0.1794  0.2350
   82SOL    HW2  246   1.156   0.257   1.670  1.0088  0.0850 -1.7307
   83SOL     OW  247   0.421   2.241   0.988 -0.3008 -0.4544  0.3722
   83SOL    HW1  248   0.345   2.308   0.975  0.0364  1.1706 -1.4136
   83SOL    HW2  249   0.383   2.145   0.985 -1.3382 -0.0748  1.1522
   84SOL     OW  250   2.519   1.248   0.935  0.4444 -0.1524 -0.0819
   84SOL    HW1  251   2.524   1.168   0.998  0.3590 -0.2991 -2.5766
   84SOL    HW2  252   2.575   1.229   0.851 -3.2724 -0.0436 -0.7034
   85SOL     OW  253   2.225   1.901   1.141  0.0510  0.0653  0.2365
   85SOL    HW1  254   2.163   1.862   1.212 -0.9847 -0.5976 -1.8593
   85SOL    HW2  255   2.290   1.826   1.117  1.4507  1.2752 -2.7940
   86SOL     OW  256   1.224   2.085   2.150 -0.1338 -0.2329 -0.4527
   86SOL    HW1  257   1.154   2.142   2.101 -1.2666 -1.0306 -2.3857
   86SOL    HW2  258   1.312   2.075   2.098  0.5996  0.6671  1.4005
   87SOL     OW  259   2.265   1.292   0.862  0.0712 -0.1065 -0.4824
   87SOL    HW1  260   2.267   1.361   0.786  1.3921 -2.5065  1.9657
   87SOL    HW2  261   2.361   1.271   0.892  2.1522  0.8288  2.6973
   88SOL     OW  262   0.485   2.885   0.979  0.6789  0.5658  0.2567
   88SOL    HW1  263   0.421   2.948   0.929  3.4833 -1.8019  3.1710
   88SOL    HW2  264   0.520   2.931   1.064  1.1177  2.0061 -0.1763
   89SOL     OW  265   0.537   1.140   1.477  0.4540 -0.2593  0.2530
   89SOL    HW1  266   0.626   1.129   1.525 -0.8325  0.0230  1.3503
   89SOL    HW2  267   0.523   1.061   1.413 -0.9926  0.3670 -2.4832
   90SOL     OW  268   2.665   1.775   0.372 -0.4361 -0.5051 -0.2061
   90SOL    HW1  269   2.645   1.866   0.414 -1.2943  0.2079  2.1822
   90SOL    HW2  270   2.766   1.767   0.354  1.3002 -1.7853  0.1741
   91SOL     OW  271   0.748   1.918   0.940  0.3146 -0.2562  0.1591
   91SOL    HW1  272   0.721   2.013   0.967 -0.4360  0.4373 -0.4055
   91SOL    HW2  273   0.713   1.852   1.010 -0.1508 -0.1896  0.2379
   92SOL     OW  274   2.098   2.965   1.920  0.1485  0.2425 -0.3007
   92SOL    HW1  275   2.190   2.997   1.951  0.6845 -0.1760  0.9510
   92SOL    HW2  276   2.047   2.911   1.990 -0.1680  0.3978  0.6759
   93SOL     OW  277   0.621   1.925   2.779  0.8022 -0.2753  0.2939
   93SOL    HW1  278   0.632   1.920   2.880  0.0830  1.6122 -1.0830
   93SOL    HW2  279   0.526   1.893   2.756 -0.1119 -0.5141  0.0413
   94SOL     OW  280   2.354   3.016   2.031  0.4273 -0.0301 -0.5643
   94SOL    HW1  281   2.348   3.094   2.098  1.6938  0.2856 -0.5730
   94SOL    HW2  282   2.399   3.048   1.944 -1.1755  1.7608  0.8307
   95SOL     OW  283   1.895   0.028   1.785 -0.3245  0.0125 -0.2202
   95SOL    HW1  284   1.923   0.125   1.764  1.3108 -1.9650  0.1627
   95SOL    HW2  285   1.964  -0.025   1.837 -1.2004 -1.9030 -2.7412
   96SOL     OW  286   0.695   0.761   2.140  0.2876  0.6153 -0.1533
   96SOL    HW1  287   0.642   0.779   2.226  1.4188 -0.4867 -0.0688
   96SOL    HW2  288   0.720   0.850   2.096 -1.3081 -0.0248 -0.8120
   97SOL     OW  289   1.976   2.896   1.476  0.3245 -0.7480 -0.0254
   97SOL    HW1  290   1.887   2.939   1.502  0.2436  0.1931 -1.0684
   97SOL    HW2  291   1.961   2.804   1.432 -2.1163 -2.9585  0.5299
   98SOL     OW  292   1.715   2.182   1.560  0.7297 -0.1758 -0.3770
   98SOL    HW1  293   1.744   2.227   1.647 -3.6390 -0.5792 -1.7071
   98SOL    HW2  294   1.684   2.087   1.582 -0.8878  1.1210  0.5689
   99SOL     OW  295   0.352   0.703   1.062  0.4257 -0.4923  0.1693
   99SOL    HW1  296   0.292   0.784   1.050 -0.5187  1.1161  0.1661
   99SOL    HW2  297   0.410   0.696   0.978  0.4319 -0.3215 -0.9221
  100SOL     OW  298   2.977   1.993   1.955 -0.2169  0.5911  0.2120
  100SOL    HW1  299   2.927   1.904   1.963 -2.5095 -3.0242 -2.0505
  100SOL    HW2  300   3.040   1.999   2.035  0.3207  1.6723 -1.7983
  101SOL     OW  301   1.107   0.362   0.006 -0.2713 -0.1636 -0.2505
  101SOL    HW1  302   1.192   0.310   0.030 -2.0600  1.7554  0.3156
  101SOL    HW2  303   1.102   0.388  -0.092 -1.0986  0.7066 -1.4390
  102SOL     OW  304   2.808   0.108   1.220 -0.1332 -0.4776  0.3670
  102SOL    HW1  305   2.892   0.165   1.226  0.6957 -0.3697  0.0640
  102SOL    HW2  306   2.739   0.146   1.286  1.7964 -2.4582  2.0910
  103SOL     OW  307   0.138   2.936   2.498  0.1968 -0.1938  1.1362
  103SOL    HW1  308   0.149   3.024   2.448  1.2802  1.1056  1.6393
  103SOL    HW2  309   0.038   2.917   2.514 -0.2222 -0.9364 -0.4088
  104SOL     OW  310   0.143   2.398   1.226 -0.5164  0.3521  0.1615
  104SOL    HW1  311   0.067   2.454   1.268 -0.0952 -2.3056  1.2836
  104SOL    HW2  312   0.233   2.444   1.244 -0.4237 -0.4928 -4.4344
  105SOL     OW  313   0.501   1.538   2.039  0.1568  0.3805 -0.1807
  105SOL    HW1  314   0.452   1.454   2.009 -0.2335  0.8421  0.5604
  105SOL    HW2  315   0.440   1.618   2.018 -0.4926 -0.6336 -0.4220
  106SOL     OW  316   2.599   2.724   0.529  0.1500  0.5748 -0.3818
  106SOL    HW1  317   2.587   2.710   0.630 -2.1835 -0.7731  1.9800
  106SOL    HW2  318   2.627   2.821   0.516 -0.1790 -0.6852  1.3340
  107SOL     OW  319   0.672   1.117   0.945  0.0622 -0.5648  0.1640
  107SOL    HW1  320   0.639   1.155   1.034  1.4556  0.8076 -2.4824
  107SOL    HW2  321   0.767   1.081   0.958  1.2826 -1.5579 -0.1766
  108SOL     OW  322   2.935   1.127   2.147  0.4632  0.2123  0.2138
  108SOL    HW1  323   2.894   1.221   2.137 -0.9150 -1.9060 -0.3918
  108SOL    HW2  324   3.034   1.128   2.169  0.7438  1.5642 -1.4046
  109SOL     OW  325   2.021   2.643   0.083 -0.3015 -0.1172 -0.4013
  109SOL    HW1  326   1.927   2.604   0.077  0.4965 -1.0402  1.2227
  109SOL    HW2  327   2.063   2.627   0.174 -0.2934 -1.8376  1.6514
  110SOL     OW  328   0.229   2.159   0.037  0.1641 -0.0367 -0.8921
  110SOL    HW1  329   0.176   2.084  -0.006 -0.0230  1.5665 -1.3089
  110SOL    HW2  330   0.169   2.226   0.086 -0.9675  2.8497 -2.5415
  111SOL     OW  331   2.683   1.022   2.686 -0.0990 -0.1209 -0.0565
  111SOL    HW1  332   2.660   1.045   2.590 -4.0008  1.0979  0.6677
  111SOL    HW2  333   2.592   1.010   2.732  1.2481 -2.0429 -1.5540
  112SOL     OW  334   2.228   2.594   1.705 -0.1380  0.2308 -0.6050
  112SOL    HW1  335   2.201   2.692   1.690 -0.3956 -0.0538 -1.3470
  112SOL    HW2  336   2.165   2.528   1.658  1.8086  0.3784 -0.7775
  113SOL     OW  337   2.209   1.893   2.629 -0.7703  0.1071 -0.3655
  113SOL    HW1  338   2.225   1.794   2.651 -1.7467 -0.6276  0.1343
  113SOL    HW2  339   2.253   1.909   2.537 -0.1982  0.3737 -0.3908
  114SOL     OW  340   0.591   2.988   0.555  0.1669  0.1124 -0.2977
  114SOL    HW1  341   0.584   2.903   0.610 -0.7507 -1.2269 -2.8777
  114SOL    HW2  342   0.680   3.033   0.581 -1.3251  1.3350  1.1528
  115SOL     OW  343   0.087   1.713   2.875  0.0153  0.1031 -0.3228
  115SOL    HW1  344   0.065   1.803   2.915  0.5641  1.3659  1.2289
  115SOL    HW2  345   0.184   1.688   2.896 -0.0621 -0.7116 -0.8885
  116SOL     OW  346   2.850   1.323   1.659  0.5536 -0.2132  0.0715
  116SOL    HW1  347   2.896   1.233   1.650  1.7413 -0.7579 -0.8809
  116SOL    HW2  348   2.913   1.389   1.708 -0.7318 -1.2792  0.9395
  117SOL     OW  349   2.078   0.187   1.483 -0.4014  0.0587 -0.1241
  117SOL    HW1  350   2.121   0.105   1.442  1.9758  0.6105  1.5403
  117SOL    HW2  351   1.991   0.211   1.433  1.9427 -3.2308 -2.1524
  118SOL     OW  352   2.782   2.204   2.394 -0.4240 -0.2320 -0.1004
  118SOL    HW1  353   2.731   2.171   2.311  0.7018 -0.5258 -1.5095
  118SOL    HW2  354   2.834   2.288   2.371  1.3246  2.2930 -1.3201
  119SOL     OW  355   0.379   1.636   1.696  0.4527  0.9420  0.2930
  119SOL    HW1  356   0.375   1.700   1.618  1.8838  0.6850  1.1268
  119SOL    HW2  357   0.475   1.598   1.701  1.4500  0.2497  0.1860
  120SOL     OW  358   0.223   1.415   1.735 -0.4779 -0.4104  0.5487
  120SOL    HW1  359   0.246   1.342   1.666  3.3298  0.1644 -1.0657
  120SOL    HW2  360   0.279   1.498   1.711 -0.2818  1.6868 -1.5256
  121SOL     OW  361   1.528   0.934   0.770  0.4410 -0.3000 -0.1990
  121SOL    HW1  362   1.448   0.882   0.737 -0.9326  0.2668  1.9805
  121SOL    HW2  363   1.611   0.906   0.716 -0.4320 -0.5177 -1.2605
  122SOL     OW  364   2.436   2.335   2.686  0.1888  0.8621 -0.2320
  122SOL    HW1  365   2.385   2.407   2.633 -1.4198 -0.8164  1.2292
  122SOL    HW2  366   2.369   2.260   2.698 -1.4451  2.5764 -0.5082
  123SOL     OW  367   3.027   0.409   0.481 -0.5211 -0.1677 -0.2985
  123SOL    HW1  368   2.998   0.423   0.578  1.5927  0.4213  3.1354
  123SOL    HW2  369   2.987   0.324   0.442  0.2192  1.1040  0.3025
  124SOL     OW  370   1.630   1.287   0.143  0.1357 -0.2952 -0.4456
  124SOL    HW1  371   1.677   1.284   0.234 -1.8405 -1.1445  0.6382
  124SOL    HW2  372   1.687   1.345   0.081 -0.1688  0.9063  2.3458
  125SOL     OW  373   3.033   0.787   2.272 -0.1955 -0.2849 -0.2828
  125SOL    HW1  374   3.086   0.849   2.334  0.2116 -3.1924  0.1828
  125SOL    HW2  375   3.100   0.741   2.209 -0.9226  2.3283 -3.9402
  126SOL     OW  376   2.755   2.801   0.196  0.6129 -0.4564  0.0884
  126SOL    HW1  377   2.743   2.759   0.103 -1.6950  0.9386  1.2546
  126SOL    HW2  378   2.758   2.726   0.265  2.5238  1.9042  0.8807
  127SOL     OW  379   2.726   1.827   3.028 -0.2851 -0.1937 -0.2255
  127SOL    HW1  380   2.640   1.864   3.069  0.0801  0.4624  2.0314
  127SOL    HW2  381   2.734   1.729   3.055  0.9139 -0.2589  1.5665
  128SOL     OW  382   0.897   1.044   0.664 -0.3778  0.6636  0.1925
  128SOL    HW1  383   0.798   1.057   0.642  0.1174 -1.1118 -0.9126
  128SOL    HW2  384   0.904   1.050   0.766  2.6481 -1.5881  0.8332
  129SOL     OW  385   2.120   2.015   0.922 -1.0730  0.3083 -0.7471
  129SOL    HW1  386   2.157   1.976   1.011  2.8837 -1.0291 -0.1997
  129SOL    HW2  387   2.051   2.086   0.943 -1.2373  1.2586  2.7620
  130SOL     OW  388   1.880   0.862   0.229  0.1017 -0.3490 -0.0744
  130SOL    HW1  389   1.971   0.830   0.195 -1.0876  1.6492  1.7994
  130SOL    HW2  390   1.805   0.828   0.168  1.9003  1.0519 -3.7088
  131SOL     OW  391   0.039   1.666   2.612 -0.4044  0.2946  0.1008
  131SOL    HW1  392  -0.056   1.629   2.600 -3.0971 -0.9425 -2.0488
  131SOL    HW2  393   0.061   1.678   2.712  0.6911 -0.1906 -0.3829
  132SOL     OW  394   1.266   1.176   1.782 -0.3907 -0.2955 -0.1702
  132SOL    HW1  395   1.246   1.078   1.761 -0.5871 -1.8135  0.3499
  132SOL    HW2  396   1.181   1.231   1.766 -1.1535 -0.7151 -2.6332
  133SOL     OW  397   0.413   1.083   0.856  0.0178  0.1493 -0.2442
  133SOL    HW1  398   0.512   1.072   0.878  1.6732 -1.0166  1.0499
  133SOL    HW2  399   0.380   1.171   0.898 -0.2911 -4.3192  3.2995
  134SOL     OW  400   0.024   1.368   0.132  0.8958 -0.2208 -0.0802
  134SOL    HW1  401   0.044   1.275   0.093 -1.7967  1.2665  0.5258
  134SOL    HW2  402  -0.006   1.428   0.055  0.3891  0.1749 -1.8990
  135SOL     OW  403   1.672   0.784   0.082 -0.4586  0.5253  0.1489
  135SOL    HW1  404   1.639   0.881   0.072 -1.2347 -0.1082  1.8580
  135SOL    HW2  405   1.637   0.728   0.003  0.8968  2.1861  2.4404
  136SOL     OW  406   2.124   2.071   1.435  0.3925 -0.1473  0.0846
  136SOL    HW1  407   2.152   2.048   1.531  0.6657 -0.7293  0.1773
  136SOL    HW2  408   2.052   2.145   1.432 -0.9390  0.6673  0.9294
  137SOL     OW  409   2.289   2.431   0.679 -0.0884 -0.5716 -0.2850
  137SOL    HW1  410   2.242   2.499   0.739  2.3772  0.1912  1.2417
  137SOL    HW2  411   2.323   2.475   0.593 -2.1287  1.1276  2.4904
  138SOL     OW  412   2.374   0.304   1.769  0.3381  0.5407 -0.3370
  138SOL    HW1  413   2.398   0.205   1.765 -0.0372 -0.2484 -0.4423
  138SOL    HW2  414   2.331   0.332   1.681 -0.3189 -0.2574  0.8980
  139SOL     OW  415   2.735   2.639   2.689 -0.0952 -1.0488  0.8102
  139SOL    HW1  416   2.677   2.572   2.739 -1.4561 -1.0279 -1.0368
  139SOL    HW2  417   2.715   2.628   2.590 -0.2951  0.8720 -1.6377
  140SOL     OW  418   1.487   1.892   2.611 -0.1649 -0.3255  0.2663
  140SOL    HW1  419   1.475   1.989   2.581  1.1330  0.4238 -0.9355
  140SOL    HW2  420   1.544   1.839   2.545  1.4992  0.3087 -3.2589
  141SOL     OW  421   1.449   1.410   2.508 -0.0904  0.1375  0.4968
  141SOL    HW1  422   1.417   1.319   2.475  0.0449 -2.2461 -0.1467
  141SOL    HW2  423   1.516   1.390   2.583  0.3570 -0.4811 -0.0261
  142SOL     OW  424   2.032   2.378   2.020  0.5096 -0.0611  0.0929
  142SOL    HW1  425   2.033   2.282   1.982  2.6332 -1.3076 -0.4340
  142SOL    HW2  426   2.119   2.427   1.998  2.2361 -2.8950 -1.6737
  143SOL     OW  427   1.029   2.491   0.464 -0.1669  0.2565  0.0602
  143SOL    HW1  428   1.064   2.482   0.559 -0.6447  0.2957  3.5696
  143SOL    HW2  429   0.973   2.411   0.434  0.9625  1.7266  1.7445
  144SOL     OW  430   0.818   2.651   0.516 -0.4300  0.9015 -0.1514
  144SOL    HW1  431   0.814   2.736   0.460  0.9451 -1.7260  2.5315
  144SOL    HW2  432   0.896   2.594   0.484  0.3504 -0.6593  0.5212
  145SOL     OW  433   1.810   2.222   3.042 -0.0464 -0.0976 -0.7336
  145SOL    HW1  434   1.712   2.198   3.019 -3.5062 -0.8930 -3.9913
  145SOL    HW2  435   1.829   2.319   3.024 -0.1552 -1.4725 -0.5766
  146SOL     OW  436   1.760   2.351   0.295 -0.3778 -0.1853 -0.6542
  146SOL    HW1  437   1.770   2.415   0.216 -0.4028  0.4667 -0.4836
  146SOL    HW2  438   1.788   2.255   0.272  1.8119  1.0973  0.0901
  147SOL     OW  439   0.332   1.733   1.955 -0.2202  0.6683  0.2760
  147SOL    HW1  440   0.323   1.695   1.860 -1.5201 -0.5589 -1.0660
  147SOL    HW2  441   0.394   1.814   1.949  0.3951 -1.9592 -0.2734
  148SOL     OW  442   1.212   0.040   0.231  0.6127  0.0717 -0.2232
  148SOL    HW1  443   1.262   0.110   0.175  2.2747  2.0219 -1.0928
  148SOL    HW2  444   1.125   0.012   0.186 -1.2866 -0.9330 -1.5889
  149SOL     OW  445   0.431   2.088   0.206  0.3399 -0.0766  0.0034
  149SOL    HW1  446   0.516   2.128   0.163  0.7198 -0.2164 -0.6864
  149SOL    HW2  447   0.352   2.105   0.142 -0.0073  2.3211  0.8912
  150SOL     OW  448   0.376   2.535   1.248 -0.2129  0.4566 -0.0237
  150SOL    HW1  449   0.477   2.522   1.258  0.0164  4.2102  0.2613
  150SOL    HW2  450   0.360   2.589   1.162  0.8013  0.8463  2.9966
  151SOL     OW  451   0.347   1.652   2.916 -0.3620  0.0390  0.1357
  151SOL    HW1  452   0.387   1.576   2.859 -0.7774 -1.0477 -0.1455
  151SOL    HW2  453   0.363   1.630   3.014 -0.6542  3.5623 -0.4075
  152SOL     OW  454   2.988   1.923   0.911 -0.0218  0.0139  0.0365
  152SOL    HW1  455   3.024   1.851   0.848  0.6272 -1.1733  0.7529
  152SOL    HW2  456   2.889   1.912   0.927 -0.5240  3.4975 -2.3098
  153SOL     OW  457   1.564   2.295   0.685 -0.6127 -0.3794 -0.2970
  153SOL    HW1  458   1.642   2.235   0.660 -1.0971  1.4970  2.7733
  153SOL    HW2  459   1.488   2.233   0.716  2.5424  0.5314 -1.5941
  154SOL     OW  460   0.835   3.012   1.445 -0.1443  0.2625 -0.3509
  154SOL    HW1  461   0.857   2.912   1.443  1.0541  0.9678  1.2813
  154SOL    HW2  462   0.734   3.025   1.456  0.9260 -0.1556 -1.1607
  155SOL     OW  463   2.622   2.023   0.477  0.7540 -0.3488 -0.2479
  155SOL    HW1  464   2.706   2.072   0.508 -1.4284  1.3939 -1.3346
  155SOL    HW2  465   2.574   2.083   0.409 -3.0058  2.2026  1.1620
  156SOL     OW  466   2.503   1.983   0.099 -0.1269 -0.2270  0.1055
  156SOL    HW1  467   2.443   2.023   0.026  1.2323 -0.4088 -2.0795
  156SOL    HW2  468   2.506   2.050   0.177  2.7415  1.3779 -1.7408
  157SOL     OW  469   0.555   0.134   1.898  0.3058 -0.1735 -0.1869
  157SOL    HW1  470   0.582   0.231   1.922 -2.0121  0.0044  0.8421
  157SOL    HW2  471   0.522   0.090   1.984 -1.7503  0.5478  2.7004
  158SOL     OW  472   0.990   0.606   1.129 -1.0132  0.6973  0.0849
  158SOL    HW1  473   1.048   0.536   1.081  1.4130  0.6162 -1.0485
  158SOL    HW2  474   1.024   0.604   1.226 -1.4015  1.6868  1.2273
  159SOL     OW  475   1.875   1.030   2.924  0.5874  0.0810 -0.3328
  159SOL    HW1  476   1.848   0.961   2.852  2.3540  0.2157 -0.7404
  159SOL    HW2  477   1.794   1.044   2.982 -0.3883 -1.6917  0.1414
  160SOL     OW  478   1.298   1.740   0.503 -0.3574 -0.3458  0.2278
  160SOL    HW1  479   1.363   1.667   0.475  0.3506 -0.9129 -0.5593
  160SOL    HW2  480   1.204   1.711   0.476 -1.5943 -1.9308 -1.3540
  161SOL     OW  481   2.757   1.784   2.744  0.1134  0.0119 -0.1768
  161SOL    HW1  482   2.777   1.863   2.681 -2.2934  1.6281 -0.4836
  161SOL    HW2  483   2.750   1.817   2.840 -1.3614  0.5362 -1.4067
  162SOL     OW  484   3.015   2.225   1.139  0.5475  0.0515 -0.1676
  162SOL    HW1  485   3.087   2.286   1.178 -1.2201 -1.0142 -0.8623
  162SOL    HW2  486   3.057   2.132   1.137  1.7588  1.4154  2.4929
  163SOL     OW  487   0.589   0.847   2.622 -0.1511  0.1867  0.3826
  163SOL    HW1  488   0.666   0.899   2.661  0.8271 -0.9985 -1.9120
  163SOL    HW2  489   0.581   0.759   2.673  0.0777  1.7991  0.8271
  164SOL     OW  490   0.384   2.616   2.714  0.0395 -0.6154 -0.7457
  164SOL    HW1  491   0.326   2.586   2.792 -0.6610  0.3806  2.2089
  164SOL    HW2  492   0.360   2.711   2.685  0.4719  0.3287 -1.1194
  165SOL     OW  493   2.349   1.011   1.487  0.4147 -0.1844 -0.1079
  165SOL    HW1  494   2.368   0.965   1.577  1.1643 -0.2245  3.2888
  165SOL    HW2  495   2.398   1.100   1.480 -0.0329  0.0329 -0.4917
  166SOL     OW  496   2.054   1.828   1.349  0.1253 -0.2697 -1.2468
  166SOL    HW1  497   2.085   1.920   1.385  0.5512  0.4305 -1.2420
  166SOL    HW2  498   2.111   1.755   1.391  1.2231 -0.9788  0.0826
  167SOL     OW  499   0.042   0.771   3.051  0.0830 -0.3220  0.6563
  167SOL    HW1  500   0.002   0.830   3.124 -3.0417  1.6559  0.6124
  167SOL    HW2  501   0.138   0.804   3.037  1.4108  0.7018  0.5024
  168SOL     OW  502   2.181   0.405   2.620  0.5815 -0.2635 -0.3201
  168SOL    HW1  503   2.083   0.413   2.588 -0.0882  0.9889  4.2708
  168SOL    HW2  504   2.196   0.321   2.677  0.7956  0.5237  2.3465
  169SOL     OW  505   0.541   1.224   0.028 -0.0102  0.1028 -0.1198
  169SOL    HW1  506   0.530   1.286   0.109 -2.5475  0.1349 -0.6241
  169SOL    HW2  507   0.474   1.246  -0.047  0.9168  2.9655 -0.8981
  170SOL     OW  508   1.201   0.919   1.475 -0.2953 -0.1900  0.0059
  170SOL    HW1  509   1.229   0.833   1.427  0.0422  1.8365  0.9632
  170SOL    HW2  510   1.276   0.989   1.472  1.9563  1.6261  2.1038
  171SOL     OW  511   1.609   2.679   1.024 -0.4340 -0.0402  0.8063
  171SOL    HW1  512   1.590   2.617   1.103  2.7582  1.6842 -2.7069
  171SOL    HW2  513   1.582   2.634   0.936 -2.4487 -0.1452  0.6124
  172SOL     OW  514   0.988   0.030   2.012  0.5547 -0.9706  0.0857
  172SOL    HW1  515   0.910  -0.005   1.956 -0.1579 -0.7433  0.2025
  172SOL    HW2  516   1.071  -0.027   1.991 -2.1668 -1.0540 -0.5001
  173SOL     OW  517   0.845   2.455   0.928  0.1210 -0.0530 -0.1557
  173SOL    HW1  518   0.856   2.545   0.879 -0.5902  2.3405  0.8557
  173SOL    HW2  519   0.748   2.445   0.957 -0.7660  2.0285 -2.8651
  174SOL     OW  520   2.109   0.132   0.270 -0.9975  0.1702  0.6261
  174SOL    HW1  521   2.016   0.165   0.296  1.5890  0.6573 -1.1846
  174SOL    HW2  522   2.101   0.037   0.234  0.9223  0.4695 -0.0220
  175SOL     OW  523   0.962   1.359   0.714 -0.8948 -0.0180 -0.6029
  175SOL    HW1  524   0.971   1.461   0.704 -1.1560  0.5380 -0.1017
  175SOL    HW2  525   0.865   1.338   0.738  1.7257 -2.0815 -0.7729
  176SOL     OW  526   0.991   1.809   0.994 -0.4264  0.2555 -0.4964
  176SOL    HW1  527   1.064   1.873   1.022 -0.1015 -1.4351 -0.2592
  176SOL    HW2  528   0.909   1.857   0.959 -2.2358 -2.4381  0.2969
  177SOL     OW  529   1.266   0.909   1.106  0.4343 -0.0591  0.4766
  177SOL    HW1  530   1.284   0.810   1.085 -0.7469 -0.1588  0.1955
  177SOL    HW2  531   1.350   0.950   1.149  0.4601  0.9562 -2.6718
  178SOL     OW  532   2.294   1.480   0.668 -0.3564  0.2643 -0.4037
  178SOL    HW1  533   2.280   1.580   0.648  1.7337 -2.0164  0.2164
  178SOL    HW2  534   2.294   1.425   0.581 -0.7131  1.5050  0.7757
  179SOL     OW  535   0.959   2.780   3.000 -0.1264 -0.4515 -0.1568
  179SOL    HW1  536   0.928   2.734   3.086 -2.6712 -1.7576 -0.2364
  179SOL    HW2  537   1.045   2.739   2.962  1.4947  0.5455 -1.5981
  180SOL     OW  538   1.766   1.199   1.661 -0.2068  0.1128  0.6621
  180SOL    HW1  539   1.704   1.272   1.625  0.6280  2.2051 -0.7345
  180SOL    HW2  540   1.852   1.244   1.690 -0.6033 -2.2401 -1.8935
  181SOL     OW  541   0.787   0.967   1.584  0.3057  0.1964  0.3634
  181SOL    HW1  542   0.804   0.866   1.570  1.1928 -0.2354 -2.4219
  181SOL    HW2  543   0.850   1.001   1.657  1.0183 -0.1916  0.9522
  182SOL     OW  544   2.817   1.003   3.041 -0.3486  0.1510  0.5173
  182SOL    HW1  545   2.875   1.018   2.958  2.8151  0.7301 -0.4020
  182SOL    HW2  546   2.775   1.090   3.075  1.5207 -1.2893  0.3774
  183SOL     OW  547   1.884   0.046   2.130 -0.7749 -0.5805  0.1832
  183SOL    HW1  548   1.921  -0.048   2.126 -3.4140  1.9127  0.5355
  183SOL    HW2  549   1.783   0.046   2.110  0.4505  0.3903 -0.3403
  184SOL     OW  550   0.984   0.778   0.921  0.1006  0.0049 -0.6467
  184SOL    HW1  551   0.941   0.716   0.853  0.6178  2.3654  0.9502
  184SOL    HW2  552   0.989   0.726   1.009  0.9428 -3.0380  0.8563
  185SOL     OW  553   2.053   1.120   0.518 -0.0545 -0.7006 -0.0080
  185SOL    HW1  554   2.101   1.102   0.607  2.0967 -2.0230  1.1290
  185SOL    HW2  555   2.013   1.214   0.517  0.5466  2.5025  1.3189
  186SOL     OW  556   0.291   2.191   0.425 -0.1543  0.3560  0.9776
  186SOL    HW1  557   0.304   2.137   0.511  1.7734 -0.1346  1.7481
  186SOL    HW2  558   0.341   2.152   0.345 -1.4169  0.2504 -0.1073
  187SOL     OW  559   1.707   1.648   2.668  0.1506  0.5226  0.3908
  187SOL    HW1  560   1.700   1.695   2.578  0.2580  0.0259 -1.1079
  187SOL    HW2  561   1.706   1.717   2.741  0.0871 -1.1439 -0.8041
  188SOL     OW  562   1.362   2.898   1.414 -0.9306  0.4282  0.1140
  188SOL    HW1  563   1.343   2.999   1.418  1.7821  0.2252  1.3552
  188SOL    HW2  564   1.279   2.844   1.442 -0.0457  3.4947  0.4268
  189SOL     OW  565   2.845   1.370   2.425 -0.4308 -0.8012 -0.4734
  189SOL    HW1  566   2.830   1.457   2.479 -1.5072 -3.4125 -2.1051
  189SOL    HW2  567   2.763   1.311   2.437  0.8418 -1.4965  1.0340
  190SOL     OW  568   1.021   2.669   2.100  0.2657 -0.2740 -0.0176
  190SOL    HW1  569   1.014   2.573   2.135  1.6643  0.7157  2.0915
  190SOL    HW2  570   1.119   2.699   2.106  2.2823  0.8095  1.9382
  191SOL     OW  571   2.354   0.904   1.236  0.0052  0.1187  0.2971
  191SOL    HW1  572   2.258   0.874   1.213 -0.7211 -1.9380  0.2716
  191SOL    HW2  573   2.358   0.944   1.330 -0.6573  1.5053  1.6619
  192SOL     OW  574   1.962   0.500   1.039 -0.0225 -0.0721  0.3032
  192SOL    HW1  575   2.047   0.445   1.030  0.4106 -3.0923  2.6232
  192SOL    HW2  576   1.898   0.479   0.961 -2.4803  0.2235 -1.2145
  193SOL     OW  577   0.855   0.062   0.293 -0.0626 -0.2234 -0.0535
  193SOL    HW1  578   0.855   0.135   0.220 -0.2305 -2.9670  0.2709
  193SOL    HW2  579   0.841   0.107   0.382  0.7726 -0.4971 -1.0812
  194SOL     OW  580   1.685   2.334   0.996 -0.5923  0.5321  0.4735
  194SOL    HW1  581   1.643   2.397   0.930 -2.7965  0.3077 -2.2992
  194SOL    HW2  582   1.612   2.283   1.048 -0.4302 -0.1994  0.7815
  195SOL     OW  583   2.383   0.876   0.739 -0.1516 -0.2910 -0.1964
  195SOL    HW1  584   2.460   0.912   0.682 -1.3983 -1.9613  0.7287
  195SOL    HW2  585   2.310   0.948   0.743 -0.6898 -2.8531  2.4704
  196SOL     OW  586   0.990   2.357   1.770 -0.2378 -0.3026  0.4552
  196SOL    HW1  587   1.007   2.338   1.671 -2.1210 -1.4977 -0.6822
  196SOL    HW2  588   0.901   2.322   1.804 -0.4663 -0.1101 -1.7364
  197SOL     OW  589   2.650   0.262   2.376 -0.4216  0.3564 -0.3714
  197SOL    HW1  590   2.589   0.344   2.367  2.2368 -2.9502  0.3487
  197SOL    HW2  591   2.585   0.183   2.381 -1.1173 -0.2264 -2.8139
  198SOL     OW  592   2.139   1.504   0.268 -0.3728  0.1013  0.0669
  198SOL    HW1  593   2.218   1.522   0.206 -0.9687  0.7736 -0.5555
  198SOL    HW2  594   2.064   1.454   0.218  1.5488 -1.8792  1.2007
  199SOL     OW  595   2.400   0.621   1.730 -1.0753  0.9875  0.4734
  199SOL    HW1  596   2.367   0.595   1.823 -1.6759  0.5621 -0.4350
  199SOL    HW2  597   2.370   0.551   1.663  0.2975 -0.4930  0.3319
  200SOL     OW  598   1.792   2.863   2.961  1.0024  0.5699 -0.0505
  200SOL    HW1  599   1.735   2.928   3.016 -0.5876  0.9188 -1.7727
  200SOL    HW2  600   1.890   2.881   2.978  1.2651 -1.6883 -3.5616
  201SOL     OW  601   2.641   0.220   1.393 -0.1031 -0.4250 -0.4761
  201SOL    HW1  602   2.552   0.183   1.429 -0.1182  2.4195  0.0487
  201SOL    HW2  603   2.620   0.315   1.361 -1.9336  3.9575  0.2540
  202SOL     OW  604   2.692   2.981   0.525  0.2617 -0.3726 -0.1186
  202SOL    HW1  605   2.663   3.036   0.607 -0.2951  0.4960  1.4301
  202SOL    HW2  606   2.794   2.972   0.527  1.0723  1.7630  0.3911
  203SOL     OW  607   1.471   1.541   0.444  0.5598  0.0024 -0.1643
  203SOL    HW1  608   1.502   1.473   0.514  0.7794  1.8370  0.5268
  203SOL    HW2  609   1.541   1.615   0.431  2.6511 -1.3450 -1.5099
  204SOL     OW  610   0.159   1.748   2.174 -0.0009  0.4105  0.1584
  204SOL    HW1  611   0.128   1.846   2.171  1.9160 -0.3180 -1.5873
  204SOL    HW2  612   0.217   1.731   2.093  0.1533 -0.7576 -0.4426
  205SOL     OW  613   0.485   0.671   0.832  0.1530  0.4703  0.1469
  205SOL    HW1  614   0.558   0.599   0.840  0.1605  0.1812  0.3492
  205SOL    HW2  615   0.399   0.633   0.791  0.8812 -2.2710  0.0606
  206SOL     OW  616   0.347   0.983   2.583 -0.1559  0.4144  0.2869
  206SOL    HW1  617   0.363   1.077   2.545 -2.1655  2.9898  1.0439
  206SOL    HW2  618   0.436   0.935   2.599  0.5113 -0.4413 -0.6142
  207SOL     OW  619   1.346   2.289   1.594 -0.1609 -0.2422  0.3020
  207SOL    HW1  620   1.406   2.285   1.677 -0.3032  3.3300 -1.0440
  207SOL    HW2  621   1.281   2.213   1.598  2.1684 -0.0835  3.4414
  208SOL     OW  622   2.247   0.320   1.025  0.3252 -0.1545 -0.4470
  208SOL    HW1  623   2.314   0.252   1.063 -0.3002 -0.1309  1.6245
  208SOL    HW2  624   2.187   0.278   0.953  0.3474 -1.2678 -2.6045
  209SOL     OW  625   1.931   0.957   0.832  0.2085 -0.0455 -0.5114
  209SOL    HW1  626   1.921   0.888   0.908 -2.3756  2.1823 -1.1181
  209SOL    HW2  627   1.861   0.932   0.761 -3.4868  2.1630  1.2782
  210SOL     OW  628   2.174   1.057   0.756  0.2631  1.0557 -0.3247
  210SOL    HW1  629   2.088   1.021   0.798 -0.2833 -0.0130 -0.3680
  210SOL    HW2  630   2.198   1.143   0.805  5.1146 -0.5702  1.0690
  211SOL     OW  631   0.833   2.853   2.772  0.0911  0.6046  0.7634
  211SOL    HW1  632   0.760   2.784   2.747  3.1019 -1.2839  0.1358
  211SOL    HW2  633   0.868   2.837   2.867 -1.0274  0.8980 -0.4313
  212SOL     OW  634   1.842   1.738   0.586  0.2274 -0.1815 -0.1160
  212SOL    HW1  635   1.887   1.781   0.668  0.4138 -4.2607 -2.5188
  212SOL    HW2  636   1.914   1.721   0.516  0.9605  0.6133  0.8796
  213SOL     OW  637   2.270   2.817   0.227  0.7869  0.2371  0.1253
  213SOL    HW1  638   2.237   2.722   0.245 -1.7370  0.4401  1.0424
  213SOL    HW2  639   2.303   2.830   0.131  2.3400  1.3151 -1.1579
  214SOL     OW  640   1.273   2.357   2.291  0.6865  0.4555  0.7300
  214SOL    HW1  641   1.362   2.401   2.266  0.6257 -2.1208  1.5977
  214SOL    HW2  642   1.276   2.266   2.247  3.0576 -0.9841 -0.4168
  215SOL     OW  643   0.331   1.311   0.976 -0.1799  0.1704  0.5324
  215SOL    HW1  644   0.240   1.323   1.021  0.7726 -0.1362 -1.9226
  215SOL    HW2  645   0.357   1.397   0.927  0.6707 -1.2994 -1.5893
  216SOL     OW  646   0.088   0.095   2.340  0.2437 -0.2209  0.6169
  216SOL    HW1  647   0.097   0.166   2.267 -1.8509 -2.2388  1.9259
  216SOL    HW2  648   0.032   0.017   2.305  1.1764 -1.8324 -1.9903
  217SOL     OW  649   2.871   1.470   1.431  0.0143  0.7654 -0.1316
  217SOL    HW1  650   2.973   1.468   1.415  2.5613  2.1093 -0.3640
  217SOL    HW2  651   2.847   1.407   1.507 -0.7131  2.3456  1.6552
  218SOL     OW  652   0.681   2.364   1.696 -0.0781  0.0672 -0.0236
  218SOL    HW1  653   0.581   2.388   1.699 -0.1887 -0.3546  2.1740
  218SOL    HW2  654   0.704   2.290   1.763 -0.8951  0.4153 -1.0931
  219SOL     OW  655   2.156   1.892   2.898  0.3631 -0.1676  0.0463
  219SOL    HW1  656   2.171   1.897   2.797  0.8917  0.1897 -0.2006
  219SOL    HW2  657   2.163   1.795   2.930  0.4178  0.5882 -0.4173
  220SOL     OW  658   1.797   0.213   0.044 -0.0023  0.4644 -0.1021
  220SOL    HW1  659   1.873   0.204  -0.023 -0.7533  1.4426 -1.3188
  220SOL    HW2  660   1.750   0.302   0.025 -0.0510 -0.8970  1.8199
  221SOL     OW  661   2.813   1.063   0.293  0.0641  0.2847 -0.4291
  221SOL    HW1  662   2.789   0.966   0.271  0.1365 -0.1048  0.6038
  221SOL    HW2  663   2.782   1.125   0.217  1.2584  0.5983  1.8190
  222SOL     OW  664   1.572   1.373   0.631  0.0502 -0.0083 -0.0450
  222SOL    HW1  665   1.535   1.303   0.696 -0.9206  0.3906  0.7499
  222SOL    HW2  666   1.618   1.448   0.684 -1.5955  0.1029  0.4912
  223SOL     OW  667   0.786   0.281   2.910 -0.6569 -0.1579  0.0568
  223SOL    HW1  668   0.864   0.240   2.859  0.0651 -1.3851  0.6929
  223SOL    HW2  669   0.789   0.383   2.899  3.0035  0.4383  2.4904
  224SOL     OW  670   0.986   2.853   1.108  0.4471  0.4046  0.2785
  224SOL    HW1  671   0.989   2.949   1.143 -0.7134 -2.0440  0.3153
  224SOL    HW2  672   0.899   2.810   1.140  2.0775 -2.2568 -0.1462
  225SOL     OW  673   0.914   0.122   2.256 -0.2612 -0.1513  0.0926
  225SOL    HW1  674   0.935   0.067   2.172 -1.5875  1.1485 -0.6864
  225SOL    HW2  675   0.832   0.080   2.298  2.1765  1.4172 -2.7511
  226SOL     OW  676   1.238   1.548   0.799 -0.1283 -0.1205 -0.4852
  226SOL    HW1  677   1.312   1.615   0.782 -0.0244 -0.9183  1.3538
  226SOL    HW2  678   1.278   1.457   0.780 -0.2767 -1.0468  0.5019
  227SOL     OW  679   0.155   2.253   1.467 -0.2722 -0.0802 -0.0704
  227SOL    HW1  680   0.167   2.275   1.369  0.3022 -0.1889 -0.8961
  227SOL    HW2  681   0.188   2.158   1.483  0.1841 -1.2913  2.7025
  228SOL     OW  682   0.096   1.867   0.356  0.1986  0.0413  0.1544
  228SOL    HW1  683   0.068   1.963   0.332 -1.4798  1.2111  0.1726
  228SOL    HW2  684   0.171   1.869   0.426  1.8076 -0.0850 -1.6758
  229SOL     OW  685   2.422   0.209   2.961  0.0185  0.4243  0.3501
  229SOL    HW1  686   2.488   0.244   2.889 -2.2391  1.6677  1.1639
  229SOL    HW2  687   2.460   0.128   3.009  0.3516  1.6513 -0.1346
  230SOL     OW  688   2.552   0.826   0.356  0.2572  0.0808  0.6169
  230SOL    HW1  689   2.621   0.822   0.280 -1.4543 -1.3890 -2.7814
  230SOL    HW2  690   2.479   0.889   0.325 -1.1648  0.7864 -1.6980
  231SOL     OW  691   1.632   1.753   0.415 -0.2503  0.2844  0.4458
  231SOL    HW1  692   1.712   1.744   0.479 -2.5527  1.8135 -1.2832
  231SOL    HW2  693   1.619   1.853   0.395 -0.7973 -1.5183  0.6984
  232SOL     OW  694   1.776   1.969   0.997  0.0966  0.2214 -0.6048
  232SOL    HW1  695   1.837   2.045   0.966  1.9165  0.2829 -0.7157
  232SOL    HW2  696   1.833   1.889   1.025 -1.5568  1.8042  0.5875
  233SOL     OW  697   0.567   2.863   1.861  0.1951  0.4056 -0.0790
  233SOL    HW1  698   0.649   2.924   1.861  1.8476  3.5381  0.7581
  233SOL    HW2  699   0.550   2.845   1.761  2.9236 -0.6010  0.0526
  234SOL     OW  700   0.701   0.368   2.440 -0.4776  0.1888 -0.1856
  234SOL    HW1  701   0.747   0.380   2.350  0.7294  1.0309 -3.0540
  234SOL    HW2  702   0.755   0.423   2.507 -0.9923  0.4851 -0.1034
  235SOL     OW  703   2.565   1.051   1.874  0.2272 -0.0497  0.3981
  235SOL    HW1  704   2.652   1.003   1.902  0.3714 -0.4438 -1.2552
  235SOL    HW2  705   2.502   0.988   1.824 -1.4277 -0.0850  2.1085
  236SOL     OW  706   1.580   2.740   1.382 -0.3364  0.2081 -0.1641
  236SOL    HW1  707   1.653   2.785   1.326  2.4936 -0.4481  2.3882
  236SOL    HW2  708   1.500   2.803   1.393 -0.6054 -1.1682 -3.0747
  237SOL     OW  709   0.402   1.638   2.520  0.1346  0.2064 -0.3555
  237SOL    HW1  710   0.476   1.678   2.461 -1.4488  3.9142 -0.2783
  237SOL    HW2  711   0.322   1.607   2.466 -3.5204 -0.5243 -2.0162
  238SOL     OW  712   1.153   0.914   2.133 -1.1469 -0.0917  0.1830
  238SOL    HW1  713   1.225   0.970   2.086 -0.6652 -0.4973 -0.0722
  238SOL    HW2  714   1.094   0.866   2.066  0.4424  0.6639  1.4901
  239SOL     OW  715   0.848   1.659   2.446  0.1565  0.4977  0.2711
  239SOL    HW1  716   0.830   1.683   2.544  0.6016  0.3465  1.3022
  239SOL    HW2  717   0.882   1.740   2.393 -0.8838 -0.2476 -0.9324
  240SOL     OW  718   2.383   2.565   0.463  0.2372  0.3332  0.0491
  240SOL    HW1  719   2.300   2.601   0.416 -1.0742  0.1601 -1.6414
  240SOL    HW2  720   2.449   2.641   0.481 -0.4959  0.9945  1.4026
  241SOL     OW  721   0.324   1.061   0.136 -0.4747  0.1762 -0.1779
  241SOL    HW1  722   0.325   1.020   0.230  0.0234 -0.1489 -0.2910
  241SOL    HW2  723   0.409   1.115   0.122  0.0755  2.1278 -1.0141
  242SOL     OW  724   1.515   2.889   1.652  0.3197 -0.1832  0.0662
  242SOL    HW1  725   1.451   2.900   1.574 -0.1642  1.3478 -1.3846
  242SOL    HW2  726   1.551   2.793   1.653 -1.5599 -1.0222 -0.8419
  243SOL     OW  727   1.176   2.565   1.777 -0.7294  0.0322 -0.1012
  243SOL    HW1  728   1.123   2.652   1.780  1.7606 -1.1099  2.4712
  243SOL    HW2  729   1.109   2.488   1.780  1.6792  1.1754 -0.3861
  244SOL     OW  730   2.293   0.604   2.470  0.0764  0.4097 -0.4004
  244SOL    HW1  731   2.248   0.695   2.482  3.3913 -2.6091  1.7007
  244SOL    HW2  732   2.249   0.534   2.530 -1.2802 -1.4747 -1.7002
  245SOL     OW  733   1.501   2.205   1.146 -0.2434  0.5663  0.1340
  245SOL    HW1  734   1.495   2.243   1.241  1.2571  1.4368  3.2658
  245SOL    HW2  735   1.437   2.126   1.138  1.7449  0.8269 -1.8127
  246SOL     OW  736   1.331   0.215   0.053 -0.2333  0.2100  0.0580
  246SOL    HW1  737   1.396   0.260   0.119  1.1621 -0.5425 -0.3725
  246SOL    HW2  738   1.362   0.240  -0.043 -0.2813 -0.0214  0.0420
  247SOL     OW  739   1.731   0.310   1.885  0.3097  0.9972 -0.1193
  247SOL    HW1  740   1.810   0.320   1.823 -1.1844 -2.3056  0.4544
  247SOL    HW2  741   1.734   0.225   1.939 -3.1357 -0.5024 -1.4737
  248SOL     OW  742   0.003   2.421   1.612 -0.1820  0.2995 -0.1019
  248SOL    HW1  743   0.041   2.515   1.603 -1.0824  1.0704  0.6522
  248SOL    HW2  744   0.059   2.350   1.563 -0.6479  2.1141 -0.7388
  249SOL     OW  745   0.536   0.262   0.350 -0.1656  0.8063 -0.1139
  249SOL    HW1  746   0.436   0.279   0.372  0.1370  0.8421  0.7905
  249SOL    HW2  747   0.548   0.162   0.330 -0.0906 -1.0333 -2.1098
  250SOL     OW  748   2.358   0.173   2.190  0.0090  0.2107  0.2390
  250SOL    HW1  749   2.285   0.216   2.247  0.0007  0.3134  0.1491
  250SOL    HW2  750   2.401   0.242   2.127 -0.0218  1.8883  0.4756
  251SOL     OW  751   1.306   0.680   3.052  0.1410 -0.0216 -0.3040
  251SOL    HW1  752   1.292   0.624   3.137  2.3385  0.0797  0.2496
  251SOL    HW2  753   1.233   0.664   2.983  0.4193 -3.9893 -0.7488
  252SOL     OW  754   1.530   2.468   2.222  0.1428 -0.3786 -0.4067
  252SOL    HW1  755   1.614   2.488   2.277 -0.5411 -1.3503 -2.5171
  252SOL    HW2  756   1.518   2.538   2.149 -0.3804 -3.7462 -0.9497
  253SOL     OW  757   2.770   2.582   0.367  0.1566 -0.0921  0.1603
  253SOL    HW1  758   2.706   2.628   0.433  0.9071  0.1489 -4.0470
  253SOL    HW2  759   2.858   2.562   0.416 -0.6369  2.1471 -0.1094
  254SOL     OW  760   2.092   0.989   1.414  0.2981 -0.1317 -0.4789
  254SOL    HW1  761   2.057   1.080   1.383 -1.1575  1.8351 -1.6336
  254SOL    HW2  762   2.189   1.004   1.446 -0.4097 -1.5749 -0.9491
  255SOL     OW  763   0.893   2.747   1.441 -0.1440 -0.1874 -0.1727
  255SOL    HW1  764   0.843   2.736   1.352 -0.4951 -0.7325 -2.3340
  255SOL    HW2  765   0.846   2.689   1.510 -2.3906  0.1768  1.4874
  256SOL     OW  766   2.350   1.649   1.666 -0.3635 -0.5742 -0.0528
  256SOL    HW1  767   2.299   1.642   1.578 -1.5931  2.0235 -1.8501
  256SOL    HW2  768   2.441   1.694   1.654  0.9769 -0.5958  1.2026
  257SOL     OW  769   0.450   2.393   2.577 -0.2538  0.2819 -0.8279
  257SOL    HW1  770   0.497   2.327   2.639  1.0910  0.0797 -0.0809
  257SOL    HW2  771   0.417   2.478   2.623  0.4894 -1.6528 -0.4461
  258SOL     OW  772   0.583   2.458   0.993  0.7806  0.4613  0.2439
  258SOL    HW1  773   0.533   2.531   0.945  0.3831 -1.1909  0.2018
  258SOL    HW2  774   0.531   2.370   0.987  1.8754 -0.2174 -2.9522
  259SOL     OW  775   1.447   0.430   2.657 -0.0741  0.1725 -0.1822
  259SOL    HW1  776   1.548   0.425   2.668  1.3280 -2.0191 -1.8039
  259SOL    HW2  777   1.420   0.522   2.620 -0.7442 -0.0579  2.1885
  260SOL     OW  778   0.333   0.418   1.250  0.2864 -0.3421 -0.1349
  260SOL    HW1  779   0.405   0.489   1.261 -1.2822  0.2682  0.3901
  260SOL    HW2  780   0.335   0.381   1.154  0.9748 -1.6054 -1.3011
  261SOL     OW  781   1.191   0.078   2.344 -0.4938  0.0930 -0.0089
  261SOL    HW1  782   1.168  -0.017   2.378 -4.0829  2.9826  0.8712
  261SOL    HW2  783   1.103   0.126   2.333 -0.0430 -2.3428 -0.0012
  262SOL     OW  784   1.203   2.932   1.954  0.6240  0.1413  0.0664
  262SOL    HW1  785   1.226   2.868   2.031  2.2774 -1.4691  1.0925
  262SOL    HW2  786   1.155   2.881   1.878 -2.6253 -0.8542  1.0638
  263SOL     OW  787   0.650   2.158   0.059  0.3928 -0.6487  0.0241
  263SOL    HW1  788   0.729   2.214   0.030 -2.5563  0.6232 -2.2218
  263SOL    HW2  789   0.653   2.063   0.021  0.9451 -0.2293 -1.0452
  264SOL     OW  790   1.414   1.754   1.017 -0.7805 -0.2497  0.4176
  264SOL    HW1  791   1.509   1.719   1.034  1.2574  0.5054 -0.8733
  264SOL    HW2  792   1.400   1.761   0.916 -0.6663 -0.7982 -0.5872
  265SOL     OW  793   0.865   2.286   0.372 -0.1805 -0.7437  0.2423
  265SOL    HW1  794   0.948   2.238   0.333 -1.3014 -0.2594 -0.4996
  265SOL    HW2  795   0.803   2.213   0.404  0.5845  1.4767  0.5792
  266SOL     OW  796   2.738   0.870   1.014 -0.5990  0.3919  0.1019
  266SOL    HW1  797   2.679   0.806   0.961  1.2172  2.1854  0.1297
  266SOL    HW2  798   2.795   0.821   1.084 -2.1564 -0.7169  2.5827
  267SOL     OW  799   0.254   1.427   0.266 -0.1998 -0.3584  0.3379
  267SOL    HW1  800   0.226   1.435   0.364 -1.2136 -0.0089 -2.1098
  267SOL    HW2  801   0.170   1.404   0.211  0.3358  0.3070 -1.2655
  268SOL     OW  802   1.286   0.549   0.229 -0.0404 -0.3599  0.8531
  268SOL    HW1  803   1.185   0.542   0.241  1.3430 -0.4050 -0.4391
  268SOL    HW2  804   1.321   0.603   0.309  0.2204 -1.0387  0.4574
  269SOL     OW  805   2.567   0.689   2.177 -0.0076 -0.0702  0.4365
  269SOL    HW1  806   2.557   0.758   2.251  0.2725 -0.5473 -3.1194
  269SOL    HW2  807   2.661   0.699   2.140 -1.0197  1.1204 -1.1387
  270SOL     OW  808   2.653   1.173   0.711 -0.7007  1.0436  0.3318
  270SOL    HW1  809   2.659   1.242   0.637 -2.5019 -1.8075 -1.1076
  270SOL    HW2  810   2.625   1.086   0.666  0.9931 -0.5463  1.8595
  271SOL     OW  811   0.145   1.151   2.237  0.2952 -0.0449 -0.4311
  271SOL    HW1  812   0.214   1.116   2.169 -1.7118 -1.6135 -0.0454
  271SOL    HW2  813   0.131   1.250   2.216  1.7918 -0.5320 -0.0512
  272SOL     OW  814   2.504   2.223   1.808 -0.1179  0.0718 -0.1224
  272SOL    HW1  815   2.450   2.257   1.889  0.9355 -1.1445  0.0560
  272SOL    HW2  816   2.584   2.168   1.839 -1.4661  1.6343  1.3056
  273SOL     OW  817   0.218   2.521   2.908  0.8661 -0.6427  0.5288
  273SOL    HW1  818   0.280   2.443   2.932  2.7672 -1.2054  1.2599
  273SOL    HW2  819   0.140   2.492   2.849  0.2632 -0.5782 -3.0667
  274SOL     OW  820   0.816   2.266   0.724  0.5981  0.5929 -0.1307
  274SOL    HW1  821   0.844   2.322   0.804 -1.4444  4.7046 -0.5396
  274SOL    HW2  822   0.890   2.200   0.698 -1.1112 -1.5125  1.4105
  275SOL     OW  823   1.449   2.130   2.474 -0.4699  0.4342 -0.1797
  275SOL    HW1  824   1.485   2.149   2.380 -2.4019 -1.6361 -0.7961
  275SOL    HW2  825   1.348   2.114   2.473 -0.7663 -1.6448  1.0641
  276SOL     OW  826   2.842   1.770   2.023 -1.3783 -0.1871  0.3567
  276SOL    HW1  827   2.782   1.709   1.966  1.3668  1.7527  1.3375
  276SOL    HW2  828   2.785   1.809   2.098 -1.1235  0.4238  1.4001
  277SOL     OW  829   2.102   0.203   0.832 -0.3244  0.2318 -0.0930
  277SOL    HW1  830   2.172   0.212   0.758  2.2321  2.0959  0.5435
  277SOL    HW2  831   2.007   0.214   0.797  1.7867  0.7090 -1.0470
  278SOL     OW  832   1.423   0.056   2.501  0.6630  0.0042  0.4845
  278SOL    HW1  833   1.339   0.086   2.452  0.8937 -0.3744 -2.5051
  278SOL    HW2  834   1.398   0.017   2.592  0.9436 -0.7433 -1.1756
  279SOL     OW  835   1.182   2.686   1.022  0.1952  0.0478 -0.0645
  279SOL    HW1  836   1.194   2.605   1.083  0.8326 -0.3509  2.1282
  279SOL    HW2  837   1.110   2.750   1.059 -0.9935  0.1295 -0.8131
  280SOL     OW  838   1.241   1.096   0.498  0.2373  0.0247 -0.3576
  280SOL    HW1  839   1.177   1.016   0.506 -0.1327 -0.6080  1.1955
  280SOL    HW2  840   1.237   1.149   0.584 -1.5274 -2.3642 -2.5504
  281SOL     OW  841   2.062   1.714   0.423 -0.2659  0.1646 -0.2210
  281SOL    HW1  842   2.133   1.727   0.496 -0.7049 -0.6871  0.9615
  281SOL    HW2  843   2.089   1.635   0.363  1.3267 -2.6903 -0.6962
  282SOL     OW  844   2.809   1.404   0.553 -0.1537  0.1482  0.7780
  282SOL    HW1  845   2.718   1.448   0.538  1.4837  1.2645  1.7085
  282SOL    HW2  846   2.877   1.429   0.480 -0.8715 -0.7268  1.0227
  283SOL     OW  847   1.740   2.498   2.884  0.0138  0.0582  0.4568
  283SOL    HW1  848   1.666   2.436   2.851  0.5217  0.5324  2.5159
  283SOL    HW2  849   1.736   2.587   2.834  1.1130  1.8275  2.6787
  284SOL     OW  850   0.433   0.421   2.409 -0.4590 -0.3088 -0.4111
  284SOL    HW1  851   0.529   0.403   2.439  0.5166 -2.1119 -0.4348
  284SOL    HW2  852   0.373   0.413   2.492  1.4367  1.2934 -0.9881
  285SOL     OW  853   1.950   1.366   0.143 -0.1335 -0.6534  0.4562
  285SOL    HW1  854   1.930   1.363   0.044 -0.2052 -0.1169 -0.7272
  285SOL    HW2  855   1.952   1.269   0.179  2.6451  0.6697  1.0666
  286SOL     OW  856   1.010   1.903   1.677  0.3915  0.4482  0.2821
  286SOL    HW1  857   1.087   1.841   1.701 -0.3132 -1.1778  2.0702
  286SOL    HW2  858   1.033   1.959   1.595  1.1112  1.6584 -1.2628
  287SOL     OW  859   1.756   2.837   1.202  0.6708  0.9758  0.3120
  287SOL    HW1  860   1.709   2.799   1.120 -3.1817  1.4168  0.2631
  287SOL    HW2  861   1.789   2.932   1.182  2.7294 -0.2910  0.2501
  288SOL     OW  862   0.569   2.608   1.943 -0.3194  0.0713  0.3935
  288SOL    HW1  863   0.574   2.707   1.919  0.5685 -0.3526 -0.5797
  288SOL    HW2  864   0.472   2.577   1.930 -1.7628  0.1066  0.7161
  289SOL     OW  865   3.049   1.718   0.741  0.4559 -0.1570 -0.3116
  289SOL    HW1  866   3.003   1.628   0.760  0.9532  0.7701  0.2971
  289SOL    HW2  867   2.993   1.775   0.677  0.6973  0.9617 -1.0198
  290SOL     OW  868   0.765   2.176   1.874 -0.1986 -0.5095  0.2690
  290SOL    HW1  869   0.778   2.081   1.841 -2.3456 -0.5989 -1.2611
  290SOL    HW2  870   0.768   2.177   1.975 -0.9224 -2.1721 -2.5034
  291SOL     OW  871   1.855   0.206   0.308  0.2170  0.1679  0.3953
  291SOL    HW1  872   1.804   0.283   0.354  0.8699 -1.6519  1.0699
  291SOL    HW2  873   1.829   0.202   0.209 -0.8971 -0.2164 -0.9747
  292SOL     OW  874   0.591   0.322   1.547 -0.5147 -0.7806  0.2803
  292SOL    HW1  875   0.521   0.255   1.576 -1.9320  1.8938  0.1960
  292SOL    HW2  876   0.669   0.324   1.614 -1.6381  1.8351 -0.2323
  293SOL     OW  877   2.172   1.346   1.119 -0.4598  0.1024  0.2137
  293SOL    HW1  878   2.251   1.370   1.178  0.0106 -1.6815 -1.5415
  293SOL    HW2  879   2.200   1.326   1.022  2.5523  2.9083  3.3983
  294SOL     OW  880   0.382   0.319   2.166 -0.3349 -0.4020  0.0114
  294SOL    HW1  881   0.307   0.367   2.116  1.2461 -3.1962  2.7699
  294SOL    HW2  882   0.392   0.359   2.260  2.9182 -2.0066 -1.5949
  295SOL     OW  883   0.998   1.417   0.291 -0.4165 -0.1394  0.0468
  295SOL    HW1  884   1.072   1.350   0.269 -2.3362  2.6214  2.8330
  295SOL    HW2  885   0.935   1.365   0.353  1.1059 -2.4871  2.5599
  296SOL     OW  886   1.854   1.083   1.163 -0.2705  0.1683 -0.8968
  296SOL    HW1  887   1.854   1.127   1.071  3.3009  0.2945  4.9311
  296SOL    HW2  888   1.911   1.137   1.229  0.1346  1.1757  3.9175
  297SOL     OW  889   1.838   0.827   2.469 -0.2677  0.6726  0.5406
  297SOL    HW1  890   1.935   0.807   2.448  1.6788 -2.9003  0.7386
  297SOL    HW2  891   1.802   0.888   2.395  1.7766  1.9846  1.2407
  298SOL     OW  892   0.880   0.525   2.584  0.6102 -0.3543  0.1657
  298SOL    HW1  893   0.939   0.473   2.648  1.0917  1.5630 -1.7745
  298SOL    HW2  894   0.933   0.572   2.509  1.0252 -0.2479 -2.0801
  299SOL     OW  895   1.301   0.357   2.033  0.6775 -0.1471 -0.0270
  299SOL    HW1  896   1.203   0.343   2.007 -0.5184  0.2031  1.3002
  299SOL    HW2  897   1.305   0.416   2.117  0.8962  1.4707 -2.1512
  300SOL     OW  898   2.473   0.047   1.812  0.2660 -0.2408 -0.3697
  300SOL    HW1  899   2.457  -0.013   1.731  0.2919 -0.4383 -4.6274
  300SOL    HW2  900   2.566   0.090   1.808 -1.0718  0.3274 -0.3237
  301SOL     OW  901   1.795   0.804   1.660  0.1768 -0.8003  0.2974
  301SOL    HW1  902   1.723   0.875   1.650 -0.4643  0.6520  0.7475
  301SOL    HW2  903   1.827   0.804   1.758 -1.8467  1.0716  0.1401
  302SOL     OW  904   0.675   2.783   2.444 -0.1707 -0.6822  0.6709
  302SOL    HW1  905   0.600   2.759   2.379 -1.7463  0.1975 -0.0213
  302SOL    HW2  906   0.762   2.792   2.390  0.7192 -2.8310 -2.4908
  303SOL     OW  907   1.642   1.934   1.658  0.1181  0.1588 -0.2686
  303SOL    HW1  908   1.700   1.895   1.584 -0.8328  1.1627  0.1836
  303SOL    HW2  909   1.544   1.904   1.645 -1.0462 -1.2278  1.7897
  304SOL     OW  910   0.188   2.830   0.684  0.5826 -0.3785  0.3336
  304SOL    HW1  911   0.258   2.755   0.670  0.0420  1.6872  0.0352
  304SOL    HW2  912   0.097   2.787   0.701  1.2839 -2.0296 -0.8419
  305SOL     OW  913   1.408   0.689   0.426 -0.1281 -0.1096 -0.2096
  305SOL    HW1  914   1.409   0.789   0.407  2.1646 -0.3299  0.8513
  305SOL    HW2  915   1.395   0.670   0.526 -0.0657  0.5301 -4.1765
  306SOL     OW  916   0.384   1.610   0.115 -0.4434  0.1042 -0.2721
  306SOL    HW1  917   0.480   1.625   0.148  1.5559 -0.5190 -0.0425
  306SOL    HW2  918   0.331   1.540   0.168 -0.3086 -0.4456 -0.2294
  307SOL     OW  919   0.590   0.987   1.771 -0.0806 -0.2492 -0.3197
  307SOL    HW1  920   0.656   0.982   1.694 -2.5962 -1.0646  0.9467
  307SOL    HW2  921   0.530   0.905   1.760  1.5766 -3.1329 -0.1749
  308SOL     OW  922   0.716   0.159   1.107 -0.9602 -0.6577 -0.5856
  308SOL    HW1  923   0.650   0.194   1.037 -1.8306 -0.3363  1.8575
  308SOL    HW2  924   0.721   0.226   1.185 -0.7281  1.0327  1.1779
  309SOL     OW  925   2.102   0.763   0.114 -0.4912 -0.1219  0.0447
  309SOL    HW1  926   2.192   0.722   0.138 -1.3170 -3.1039 -0.0398
  309SOL    HW2  927   2.120   0.832   0.039  1.3896 -4.1208 -0.4546
  310SOL     OW  928   1.085   1.057   0.075 -0.1967  0.0933 -0.2938
  310SOL    HW1  929   1.053   1.105  -0.010 -2.5422  1.5004  1.9821
  310SOL    HW2  930   1.113   1.131   0.140 -2.1866  0.8313 -0.6787
  311SOL     OW  931   1.669   2.273   2.554 -0.2478  0.4636  0.2573
  311SOL    HW1  932   1.585   2.227   2.516 -1.8990 -1.0719 -1.2919
  311SOL    HW2  933   1.702   2.338   2.484 -0.7935  1.9526 -2.1797
  312SOL     OW  934   2.054   2.980   2.986  0.4572  0.2262  1.4291
  312SOL    HW1  935   2.028   3.077   2.966  0.7419 -1.9797  0.3600
  312SOL    HW2  936   2.045   2.967   3.088  0.7505  0.1446  2.8440
  313SOL     OW  937   0.383   0.402   0.633 -0.4629  0.1860 -0.3224
  313SOL    HW1  938   0.317   0.464   0.681 -3.0326 -2.0379 -2.0539
  313SOL    HW2  939   0.449   0.455   0.576  0.2253  0.4053  0.5710
  314SOL     OW  940   2.566   1.289   2.840 -0.0885  0.2274  0.1708
  314SOL    HW1  941   2.626   1.224   2.792 -0.7399 -0.9018  1.9229
  314SOL    HW2  942   2.602   1.384   2.825 -2.7312  1.8196  2.4696
  315SOL     OW  943   1.895   0.830   1.908 -0.7981  1.0436  0.3198
  315SOL    HW1  944   1.900   0.756   1.979  0.8105 -2.0401  2.9371
  315SOL    HW2  945   1.862   0.916   1.952  0.6322 -0.3168  0.6479
  316SOL     OW  946   0.002   0.860   0.860  0.8552 -0.2536  0.1956
  316SOL    HW1  947  -0.073   0.928   0.851  1.3675 -1.7527  0.3254
  316SOL    HW2  948   0.041   0.842   0.767  1.8848 -0.2699 -0.9069
  317SOL     OW  949   0.461   0.315   0.091 -0.0261 -0.1691  0.1936
  317SOL    HW1  950   0.485   0.291   0.187  1.1127 -4.2075  1.1166
  317SOL    HW2  951   0.503   0.245   0.029 -2.3734  0.9435 -1.3460
  318SOL     OW  952   2.592   2.789   1.330  0.0177 -0.3754  0.0512
  318SOL    HW1  953   2.604   2.701   1.280 -0.9803 -0.3249  2.1904
  318SOL    HW2  954   2.581   2.775   1.431 -3.1021 -0.3928  1.7158
  319SOL     OW  955   1.220   1.743   0.201  0.6914 -0.0346  0.1603
  319SOL    HW1  956   1.196   1.838   0.171  2.2150 -1.7761 -0.5141
  319SOL    HW2  957   1.159   1.718   0.278  3.4345  1.3850 -0.2289
  320SOL     OW  958   0.657   2.135   1.070 -0.1211 -0.1933  0.3362
  320SOL    HW1  959   0.659   2.136   1.172  0.1620 -0.3402  0.7448
  320SOL    HW2  960   0.570   2.180   1.041  2.2354  1.2536 -1.5973
  321SOL     OW  961   2.200   2.287   2.421 -0.1229  0.2254 -0.2171
  321SOL    HW1  962   2.118   2.309   2.363 -0.4297 -1.9734  3.1063
  321SOL    HW2  963   2.280   2.269   2.359 -0.9707 -0.2093  1.1023
  322SOL     OW  964   2.901   2.464   2.333  0.0372 -0.2797  0.4411
  322SOL    HW1  965   2.980   2.457   2.398 -1.8320 -1.9035  0.7976
  322SOL    HW2  966   2.837   2.528   2.382 -2.3891 -1.2947 -2.4408
  323SOL     OW  967   2.717   0.382   0.879 -0.2254  0.0620 -0.3863
  323SOL    HW1  968   2.800   0.399   0.821  1.3510  2.3133 -1.3509
  323SOL    HW2  969   2.633   0.405   0.825 -0.1938  1.8610  0.9606
  324SOL     OW  970   2.521   1.728   2.371 -0.1795  0.1851  0.1868
  324SOL    HW1  971   2.500   1.683   2.282 -0.4405  0.6285 -2.3369
  324SOL    HW2  972   2.510   1.662   2.448  2.4784  0.6100 -1.1113
  325SOL     OW  973   1.600   0.442   2.302  0.5054  0.2236 -0.4512
  325SOL    HW1  974   1.626   0.515   2.370 -0.7012  1.3530  2.3184
  325SOL    HW2  975   1.632   0.467   2.208 -1.0803 -2.0496 -0.5128
  326SOL     OW  976   2.859   2.142   0.564 -0.0892  0.8883 -0.1415
  326SOL    HW1  977   2.820   2.189   0.646  0.0077  0.6408  1.0505
  326SOL    HW2  978   2.941   2.194   0.534  0.7726  1.3384  2.1044
  327SOL     OW  979   2.536   3.051   0.009 -0.3515  0.0435  0.3719
  327SOL    HW1  980   2.452   2.992   0.007 -0.0464  1.3932  0.8878
  327SOL    HW2  981   2.608   3.003  -0.046 -1.1736  2.3376 -0.3378
  328SOL     OW  982   0.892   0.591   0.745  0.5026 -0.0732  0.1659
  328SOL    HW1  983   0.842   0.623   0.662  0.7313  0.1997 -0.0594
  328SOL    HW2  984   0.982   0.554   0.714  2.6023  1.4940  2.2821
  329SOL     OW  985   2.050   0.776   1.581 -0.2336  0.2262 -0.7168
  329SOL    HW1  986   1.955   0.783   1.618  0.2688 -0.6098 -0.7299
  329SOL    HW2  987   2.071   0.858   1.524  0.9154  1.5384 -2.1561
  330SOL     OW  988   1.265   0.267   0.627  0.2412 -0.1324 -0.1498
  330SOL    HW1  989   1.223   0.358   0.643 -0.5154  0.2372  0.8870
  330SOL    HW2  990   1.352   0.288   0.577 -0.4090 -0.5266 -0.1535
  331SOL     OW  991   0.519   1.926   1.931  0.1172  0.5510 -0.0783
  331SOL    HW1  992   0.597   1.925   1.866 -0.2627  1.5314  0.1135
  331SOL    HW2  993   0.483   2.019   1.956  0.7163  1.0683 -0.0630
  332SOL     OW  994   2.220   1.969   1.666  0.1772  0.2770  0.5101
  332SOL    HW1  995   2.182   1.894   1.725 -1.1447  0.8164  0.4423
  332SOL    HW2  996   2.313   1.940   1.641  0.7690 -0.3435 -0.9990
  333SOL     OW  997   2.864   3.020   0.900  0.7771 -0.3767 -0.2285
  333SOL    HW1  998   2.786   3.075   0.936 -1.6307 -0.0787  0.3482
  333SOL    HW2  999   2.907   3.072   0.824 -2.9370 -0.3923 -1.7140
  334SOL     OW 1000   2.868   1.612   1.016 -0.0611 -0.1229  0.0350
  334SOL    HW1 1001   2.963   1.614   1.056  0.7443  2.7419 -2.4561
  334SOL    HW2 1002   2.875   1.565   0.926  1.7706  1.8069 -0.4320
  335SOL     OW 1003   0.547   2.991   2.564 -0.1689  0.5399  0.0535
  335SOL    HW1 1004   0.464   2.947   2.604  0.4460 -1.7757  0.1603
  335SOL    HW2 1005   0.606   2.917   2.524  1.7426 -1.7926 -0.4175
  336SOL     OW 1006   0.114   2.672   1.581 -0.0953 -0.1580  0.3522
  336SOL    HW1 1007   0.068   2.732   1.513 -0.9806  0.6787  1.4639
  336SOL    HW2 1008   0.112   2.714   1.674 -0.2347 -0.3097  1.4080
  337SOL     OW 1009   0.899   1.885   2.296 -0.0847  0.3086 -0.4960
  337SOL    HW1 1010   0.902   1.974   2.344 -0.6031  0.2126 -2.9550
  337SOL    HW2 1011   0.814   1.878   2.238  2.9291  0.1303  0.8238
  338SOL     OW 1012   1.148   2.891   2.435  0.4311  0.2667 -0.0480
  338SOL    HW1 1013   1.239   2.849   2.411 -1.3905  0.7736  1.0745
  338SOL    HW2 1014   1.121   2.868   2.531  0.0767 -1.1654 -0.0616
  339SOL     OW 1015   3.010   1.499   2.973 -0.5897  0.4966 -0.0109
  339SOL    HW1 1016   3.016   1.423   2.903 -1.1257  2.8386  0.5016
  339SOL    HW2 1017   3.057   1.583   2.939 -0.1928 -1.4901 -0.2474
  340SOL     OW 1018   1.919   0.504   1.308  0.4072  0.0365 -0.1593
  340SOL    HW1 1019   1.930   0.504   1.206 -0.6610  1.2762  1.5441
  340SOL    HW2 1020   2.011   0.529   1.346 -1.0038  2.2916 -1.3996
  341SOL     OW 1021   1.869   1.206   0.915 -0.0017  0.2953  0.2829
  341SOL    HW1 1022   1.892   1.277   0.846  1.0183 -2.0873  1.3052
  341SOL    HW2 1023   1.891   1.113   0.879 -0.5531 -1.3734 -2.0612
  342SOL     OW 1024   2.211   2.167   2.660  0.0596  0.6095  0.0192
  342SOL    HW1 1025   2.213   2.065   2.652 -0.9127  3.3080 -0.1533
  342SOL    HW2 1026   2.205   2.202   2.564 -0.5045 -3.4538  0.2123
  343SOL     OW 1027   2.967   2.602   1.057 -0.3640 -0.8070  0.0438
  343SOL    HW1 1028   2.962   2.520   0.996  0.7278  3.1604 -2.0316
  343SOL    HW2 1029   2.962   2.570   1.154 -0.2366  0.3966  2.2271
  344SOL     OW 1030   2.574   2.703   0.799  0.1225  0.1598  0.4302
  344SOL    HW1 1031   2.505   2.753   0.856 -0.0051 -0.9578 -1.3516
  344SOL    HW2 1032   2.670   2.718   0.834  0.3303 -0.1663 -1.7627
  345SOL     OW 1033   2.478   2.168   0.300  0.6985  0.0762  0.2112
  345SOL    HW1 1034   2.377   2.158   0.318  1.5947 -0.0997 -1.7267
  345SOL    HW2 1035   2.506   2.266   0.299 -0.5060  0.6555  1.8213
  346SOL     OW 1036   1.072   2.253   2.013 -0.3294 -0.1402 -0.2354
  346SOL    HW1 1037   1.039   2.323   2.080  1.4701 -0.3304 -3.1349
  346SOL    HW2 1038   1.054   2.286   1.918  0.0152  3.0819  1.3018
  347SOL     OW 1039   1.665   1.951   2.213 -0.0927 -0.1200  0.1051
  347SOL    HW1 1040   1.631   2.045   2.234  0.9355  3.7020  0.7640
  347SOL    HW2 1041   1.644   1.929   2.116  2.3964  3.0134 -1.5536
  348SOL     OW 1042   0.431   1.859   1.172  0.9160 -0.0607  0.6067
  348SOL    HW1 1043   0.395   1.922   1.100 -0.5925 -1.6616  0.1802
  348SOL    HW2 1044   0.532   1.850   1.159  1.0840 -1.7531 -1.2038
  349SOL     OW 1045   1.593   1.391   1.579 -0.1526 -0.3583 -0.3613
  349SOL    HW1 1046   1.642   1.477   1.553  0.2041 -1.4758  1.6865
  349SOL    HW2 1047   1.509   1.379   1.520  1.7060  0.9219 -1.5103
  350SOL     OW 1048   2.225   2.173   0.620  0.0725  0.8187  0.2230
  350SOL    HW1 1049   2.126   2.163   0.643 -4.5699  1.6472 -0.0867
  350SOL    HW2 1050   2.252   2.267   0.649  2.0705  1.0577 -2.2501
  351SOL     OW 1051   0.435   0.123   1.652  0.0585  0.1087 -0.1772
  351SOL    HW1 1052   0.476   0.122   1.746 -0.3032 -1.9025 -0.0406
  351SOL    HW2 1053   0.334   0.135   1.665  5.1146  0.1022 -3.4120
  352SOL     OW 1054   0.586   1.080   0.309  0.3412  0.0812  0.1452
  352SOL    HW1 1055   0.561   1.178   0.293  1.1149  3.4053  3.2355
  352SOL    HW2 1056   0.621   1.034   0.225  0.9666  0.7533 -0.0647
  353SOL     OW 1057   0.722   1.448   2.746 -0.7002 -0.1649  0.0665
  353SOL    HW1 1058   0.755   1.543   2.730 -2.9956 -1.8424  2.2167
  353SOL    HW2 1059   0.757   1.376   2.682  0.4606 -0.8905  0.1760
  354SOL     OW 1060   1.779   2.280   1.806 -0.1537  0.7482 -0.5673
  354SOL    HW1 1061   1.802   2.377   1.780 -1.8960  0.5611  2.2583
  354SOL    HW2 1062   1.858   2.233   1.848 -0.3767  1.4515  3.2026
  355SOL     OW 1063   2.237   0.828   2.756 -0.2349 -0.8639  0.6511
  355SOL    HW1 1064   2.244   0.729   2.784 -0.9655  1.6335  2.9276
  355SOL    HW2 1065   2.202   0.833   2.660 -1.8367  2.9364 -0.6642
  356SOL     OW 1066   0.682   2.131   1.344  0.1403 -0.8065  0.3878
  356SOL    HW1 1067   0.714   2.225   1.368 -0.0300 -1.4326 -0.2330
  356SOL    HW2 1068   0.646   2.082   1.426  1.0483  0.1414 -0.5934
  357SOL     OW 1069   0.172   0.174   1.717 -0.5669  0.2076  0.2296
  357SOL    HW1 1070   0.128   0.124   1.795  3.0110 -0.0304  0.9168
  357SOL    HW2 1071   0.184   0.274   1.734  0.2776  1.1441  1.8839
  358SOL     OW 1072   2.500   1.943   1.497 -0.0477 -0.2625  0.1171
  358SOL    HW1 1073   2.511   1.875   1.421  0.4894 -1.7433  0.8507
  358SOL    HW2 1074   2.527   2.034   1.460 -0.2052  0.7864  0.6738
  359SOL     OW 1075   2.175   1.855   2.163 -0.2553 -0.2871  0.5220
  359SOL    HW1 1076   2.080   1.881   2.193  0.9547 -1.8462 -2.7678
  359SOL    HW2 1077   2.209   1.927   2.098 -2.1998 -1.8103  0.4989
  360SOL     OW 1078   1.317   2.683   0.794 -0.0681 -0.8499  1.0322
  360SOL    HW1 1079   1.269   2.687   0.885  0.4201  0.4353  0.3070
  360SOL    HW2 1080   1.325   2.776   0.752 -1.7032  1.6910 -0.9261
  361SOL     OW 1081   2.035   2.949   0.187 -0.0523  0.1947  0.1211
  361SOL    HW1 1082   1.946   2.909   0.219 -1.8115 -1.5079  0.0420
  361SOL    HW2 1083   2.115   2.889   0.213  2.8890  1.8097 -2.4497
  362SOL     OW 1084   1.760   0.702   1.408  0.0008  0.6111 -0.1356
  362SOL    HW1 1085   1.791   0.730   1.501 -1.4966  1.7001  2.2583
  362SOL    HW2 1086   1.814   0.622   1.375  3.1970  0.0189 -1.0129
  363SOL     OW 1087   1.759   1.500   2.156 -0.4139 -0.4010  0.2906
  363SOL    HW1 1088   1.681   1.519   2.219  0.8906 -0.1442 -1.4640
  363SOL    HW2 1089   1.844   1.492   2.212 -0.0633 -0.1940 -0.9344
  364SOL     OW 1090   0.577   0.593   1.520 -0.0550 -0.1043 -0.2452
  364SOL    HW1 1091   0.575   0.492   1.533 -1.6193 -1.4710 -2.0178
  364SOL    HW2 1092   0.544   0.618   1.426 -2.2024  1.1319  3.2296
  365SOL     OW 1093   0.893   0.753   2.764  0.1473  0.4951  0.2806
  365SOL    HW1 1094   0.878   0.706   2.675 -3.2423 -2.0856  0.5049
  365SOL    HW2 1095   0.878   0.854   2.753  0.0002 -2.8494  1.8908
  366SOL     OW 1096   2.267   1.167   2.663  0.4391  0.0220 -0.9475
  366SOL    HW1 1097   2.336   1.112   2.714 -0.7671 -1.3548  1.4235
  366SOL    HW2 1098   2.193   1.189   2.731 -1.7817 -1.6490 -0.0201
  367SOL     OW 1099   0.011   2.631   2.190  0.1452 -0.0826  0.1612
  367SOL    HW1 1100  -0.062   2.576   2.235 -0.1063 -2.6215  0.7795
  367SOL    HW2 1101  -0.029   2.711   2.143 -2.7862 -0.9032  0.6540
  368SOL     OW 1102   2.937   1.098   1.364 -0.3268  0.1853  0.1747
  368SOL    HW1 1103   2.839   1.105   1.336 -1.5201 -0.4423  1.3316
  368SOL    HW2 1104   2.942   1.097   1.467  0.1727 -2.9756  0.1508
  369SOL     OW 1105   0.419   2.893   2.089 -0.3519  0.1428  0.6827
  369SOL    HW1 1106   0.467   2.876   2.000  1.8313  0.2820 -0.5604
  369SOL    HW2 1107   0.446   2.985   2.127  0.6016  4.2634  0.2389
  370SOL     OW 1108   2.730   0.244   0.567  0.7226 -0.4902 -0.2541
  370SOL    HW1 1109   2.675   0.326   0.547 -1.6451 -2.3141 -0.9052
  370SOL    HW2 1110   2.683   0.180   0.631  0.2948  0.9792  2.3451
  371SOL     OW 1111   0.770   2.364   1.440 -0.1979  0.1504 -0.5575
  371SOL    HW1 1112   0.871   2.349   1.450 -1.1149 -2.9670 -0.5851
  371SOL    HW2 1113   0.724   2.365   1.531 -0.0727  1.4906  1.4370
  372SOL     OW 1114   2.176   0.277   2.362  0.0625 -0.0165 -0.4681
  372SOL    HW1 1115   2.194   0.320   2.452 -0.0659 -0.7644 -1.7045
  372SOL    HW2 1116   2.083   0.237   2.366 -2.3719  0.5877  0.8771
  373SOL     OW 1117   0.134   2.238   0.786 -0.2152 -0.4451  0.2913
  373SOL    HW1 1118   0.163   2.317   0.844  1.0602 -2.4028  0.7126
  373SOL    HW2 1119   0.046   2.207   0.824  0.6053  1.5272 -0.8780
  374SOL     OW 1120   2.868   0.321   2.229  0.0605 -0.5019 -0.1676
  374SOL    HW1 1121   2.788   0.290   2.284 -0.7698  0.9174  0.9051
  374SOL    HW2 1122   2.921   0.387   2.288 -2.0510  1.0163  1.2049
  375SOL     OW 1123   0.571   0.614   2.771  0.1278  0.1287  0.2073
  375SOL    HW1 1124   0.503   0.537   2.772 -1.0474  0.8912  1.1725
  375SOL    HW2 1125   0.660   0.580   2.808 -1.1118 -0.4133  2.1891
  376SOL     OW 1126   2.848   2.323   1.726 -0.9487  0.4411 -0.6836
  376SOL    HW1 1127   2.929   2.363   1.676 -3.0251  0.1189 -1.1175
  376SOL    HW2 1128   2.763   2.330   1.670 -2.3171  0.3395  0.8918
  377SOL     OW 1129   1.087   0.408   2.722 -0.2695 -0.0271  0.5432
  377SOL    HW1 1130   1.056   0.314   2.749 -0.2566  0.4798 -0.4617
  377SOL    HW2 1131   1.140   0.402   2.633 -0.7625  0.1041  1.2769
  378SOL     OW 1132   2.944   1.048   2.799 -0.1534 -0.6745  0.6050
  378SOL    HW1 1133   3.004   0.970   2.777  0.5757 -0.2974  3.0947
  378SOL    HW2 1134   2.856   1.041   2.748  0.5656  0.4403 -1.4371
  379SOL     OW 1135   1.374   0.663   2.537  0.9788 -0.3367  0.1520
  379SOL    HW1 1136   1.304   0.642   2.467 -2.5146 -1.9010  0.5875
  379SOL    HW2 1137   1.340   0.733   2.604  0.7805  0.4649  0.3782
  380SOL     OW 1138   0.243   2.008   1.566  0.6122 -0.3534 -0.1593
  380SOL    HW1 1139   0.305   2.060   1.629  0.1312  1.2107  1.8819
  380SOL    HW2 1140   0.151   1.999   1.614 -0.1131 -0.1208 -0.0577
  381SOL     OW 1141   3.041   1.308   2.783 -0.6099 -0.0488 -0.0423
  381SOL    HW1 1142   3.075   1.323   2.688  3.3141  1.8962 -1.3150
  381SOL    HW2 1143   3.009   1.211   2.793  0.9925 -0.8452  0.3806
  382SOL     OW 1144   1.959   2.158   0.664  0.0673 -0.4056 -0.1980
  382SOL    HW1 1145   1.875   2.112   0.628 -1.7817  0.9202 -0.5215
  382SOL    HW2 1146   1.948   2.170   0.764  1.7099 -0.1763 -3.1870
  383SOL     OW 1147   0.631   1.653   0.210  0.3460  0.0520  0.2208
  383SOL    HW1 1148   0.711   1.631   0.152 -3.9833 -1.4665  1.6809
  383SOL    HW2 1149   0.642   1.596   0.295  0.3712 -2.1884  0.8047
  384SOL     OW 1150   0.810   2.408   2.390  0.2772 -0.6162  0.1495
  384SOL    HW1 1151   0.713   2.436   2.371 -0.5307  1.0954  0.2008
  384SOL    HW2 1152   0.810   2.307   2.409 -0.1479 -1.9535  0.0174
  385SOL     OW 1153   2.399   1.963   0.632 -0.0341 -0.2369  0.6575
  385SOL    HW1 1154   2.338   2.046   0.636 -1.6221  0.1664 -3.8395
  385SOL    HW2 1155   2.485   1.983   0.580 -0.3127 -0.3040 -0.7294
  386SOL     OW 1156   2.375   0.551   0.981 -0.2772 -0.7607 -0.2506
  386SOL    HW1 1157   2.336   0.461   1.013 -0.4165  0.4634  0.0005
  386SOL    HW2 1158   2.328   0.585   0.897 -0.3300 -2.5950  0.1506
  387SOL     OW 1159   0.721   0.998   2.008 -0.0438 -0.3833  0.1140
  387SOL    HW1 1160   0.658   1.028   2.082 -2.8186  1.1388  0.3420
  387SOL    HW2 1161   0.665   0.992   1.922  0.3879 -0.7478 -1.5749
  388SOL     OW 1162   1.006   1.441   2.470  0.5566  0.3831 -0.2066
  388SOL    HW1 1163   0.931   1.509   2.456 -0.5345  3.0485  0.0142
  388SOL    HW2 1164   1.098   1.485   2.462  4.3992  2.3105  0.2930
  389SOL     OW 1165   1.015   1.276   1.755  1.0056 -0.8734 -0.3342
  389SOL    HW1 1166   0.970   1.185   1.771 -2.9039 -0.2621  1.2007
  389SOL    HW2 1167   0.983   1.318   1.667 -1.6550  1.4386 -1.2145
  390SOL     OW 1168   0.025   3.037   1.049  0.1603  0.2899  0.5038
  390SOL    HW1 1169  -0.067   3.021   1.007 -0.9548  0.8247 -0.7634
  390SOL    HW2 1170   0.073   3.111   0.997 -1.4944  0.9305 -1.3533
  391SOL     OW 1171   1.530   1.245   1.058  0.3754 -0.3044 -0.4982
  391SOL    HW1 1172   1.508   1.225   0.960  1.1164 -0.0224  2.4937
  391SOL    HW2 1173   1.611   1.305   1.073  3.1036 -2.2834  0.0717
  392SOL     OW 1174   2.888   3.035   0.205  0.7644  1.0254 -0.6119
  392SOL    HW1 1175   2.976   3.014   0.159  2.2111 -1.0201 -1.1393
  392SOL    HW2 1176   2.831   2.949   0.212 -0.0923  1.6384 -0.3844
  393SOL     OW 1177   1.562   2.133   2.973  0.6395 -0.6560 -0.5856
  393SOL    HW1 1178   1.571   2.033   2.952  0.5902  1.3555 -1.4082
  393SOL    HW2 1179   1.477   2.144   3.030  1.7964  0.9854  1.1113
  394SOL     OW 1180   0.015   2.466   2.742  0.2485  0.0469  0.4583
  394SOL    HW1 1181   0.032   2.454   2.642 -0.0855 -0.6302  1.0043
  394SOL    HW2 1182  -0.055   2.396   2.770 -1.2311  1.7031 -1.4797
  395SOL     OW 1183   0.148   0.156   0.893 -0.0325 -0.2576  0.0055
  395SOL    HW1 1184   0.197   0.237   0.932  0.0144  3.1676  0.8650
  395SOL    HW2 1185   0.216   0.084   0.864  1.8418  1.6664  0.6419
  396SOL     OW 1186   2.154   0.598   0.498  0.1535  1.2476  0.7125
  396SOL    HW1 1187   2.075   0.574   0.437  1.2451 -0.1239  0.2320
  396SOL    HW2 1188   2.241   0.561   0.458 -2.5769  1.0399  0.4411
  397SOL     OW 1189   0.117   0.700   2.552  0.0740 -0.2060 -0.1140
  397SOL    HW1 1190   0.078   0.719   2.645 -3.0874 -0.9715  1.1384
  397SOL    HW2 1191   0.115   0.788   2.500  2.1963  0.0988 -2.1647
  398SOL     OW 1192   0.578   0.135   2.987 -0.1109 -0.0495  0.3658
  398SOL    HW1 1193   0.516   0.125   2.907 -1.4951 -0.0333 -0.0534
  398SOL    HW2 1194   0.663   0.189   2.963  0.8553 -0.3257  3.4233
  399SOL     OW 1195   2.021   0.256   2.020  0.4734 -0.0712  0.1795
  399SOL    HW1 1196   1.974   0.172   2.055  0.5192 -2.7273 -0.5962
  399SOL    HW2 1197   2.022   0.254   1.919 -0.0266 -1.1822  2.4372
  400SOL     OW 1198   0.965   2.155   2.850 -0.2648 -0.0659 -0.1203
  400SOL    HW1 1199   0.986   2.180   2.754 -0.6765  0.9545  0.4925
  400SOL    HW2 1200   0.943   2.240   2.903 -2.3263  0.4383 -0.2113
  401SOL     OW 1201   0.301   1.228   2.461  0.3292  1.0220 -0.0230
  401SOL    HW1 1202   0.257   1.200   2.373 -0.5760  3.3809  1.5033
  401SOL    HW2 1203   0.231   1.275   2.516 -0.8536  0.0032 -0.4145
  402SOL     OW 1204   0.111   0.095   0.369 -0.2791 -0.3814  0.0750
  402SOL    HW1 1205   0.116  -0.005   0.391 -1.7521  2.6951  1.6869
  402SOL    HW2 1206   0.015   0.128   0.378  1.2195  0.0604 -1.8448
  403SOL     OW 1207   0.290   1.216   1.559 -0.5153 -0.1214  0.7381
  403SOL    HW1 1208   0.386   1.187   1.537  0.9373 -0.4996  1.9997
  403SOL    HW2 1209   0.228   1.210   1.478  1.3978  1.5820 -0.3578
  404SOL     OW 1210   2.278   2.507   2.554  0.6632  0.1073 -0.4244
  404SOL    HW1 1211   2.205   2.551   2.611 -1.2983 -0.9727  0.7635
  404SOL    HW2 1212   2.235   2.429   2.503  2.9626 -1.5579  2.2994
  405SOL     OW 1213   0.191   0.442   2.016 -0.8098 -0.2594  0.0725
  405SOL    HW1 1214   0.125   0.370   2.048 -1.9305 -2.3605  1.5900
  405SOL    HW2 1215   0.198   0.436   1.914  0.3834  0.0326 -1.6741
  406SOL     OW 1216   1.220   1.511   2.848  0.1282 -0.0305  0.2284
  406SOL    HW1 1217   1.293   1.577   2.817 -2.5120 -1.7029 -1.7431
  406SOL    HW2 1218   1.219   1.513   2.951 -2.3413  0.3829  1.4462
  407SOL     OW 1219   1.939   0.406   2.517  0.5084 -0.4376 -0.4188
  407SOL    HW1 1220   1.921   0.333   2.448  0.1912  0.6001 -0.2208
  407SOL    HW2 1221   1.857   0.426   2.574 -0.0027 -0.9195 -2.9195
  408SOL     OW 1222   0.451   2.720   2.297 -0.0707  0.3139 -0.4968
  408SOL    HW1 1223   0.358   2.705   2.338 -0.3475 -4.4850 -0.7945
  408SOL    HW2 1224   0.444   2.780   2.215 -1.0958 -0.1266 -0.6468
  409SOL     OW 1225   2.994   2.533   1.319  0.3330  0.6852  0.4512
  409SOL    HW1 1226   3.024   2.628   1.347 -0.0471 -0.6435  2.1062
  409SOL    HW2 1227   2.914   2.506   1.376 -0.4598  2.4480 -3.3850
  410SOL     OW 1228   2.931   1.729   0.357  0.4000 -0.1839 -0.5813
  410SOL    HW1 1229   3.018   1.780   0.343  1.1177 -5.1233 -1.0873
  410SOL    HW2 1230   2.949   1.628   0.359 -0.6390  0.2455  0.8012
  411SOL     OW 1231   2.417   0.123   1.494  0.2333  0.0579 -0.3716
  411SOL    HW1 1232   2.328   0.170   1.483  0.9269 -2.5083  2.6417
  411SOL    HW2 1233   2.402   0.028   1.530  1.3521 -1.2565 -0.9030
  412SOL     OW 1234   2.251   0.390   1.539  0.3632  0.2800 -0.8144
  412SOL    HW1 1235   2.181   0.317   1.519 -0.0452 -1.1376  1.5780
  412SOL    HW2 1236   2.229   0.471   1.482  1.6723 -1.8481 -0.0041
  413SOL     OW 1237   3.014   0.469   2.400 -0.3503  0.0872 -0.4378
  413SOL    HW1 1238   3.044   0.561   2.431  0.1002  1.6588  0.1962
  413SOL    HW2 1239   3.046   0.398   2.466  2.9101  1.5547 -2.0477
  414SOL     OW 1240   2.697   1.429   0.265  0.1554  0.2544  0.5078
  414SOL    HW1 1241   2.655   1.355   0.322 -1.3426  2.1544 -2.6729
  414SOL    HW2 1242   2.678   1.515   0.315 -0.8251 -3.1329  0.5373
  415SOL     OW 1243   0.773   2.464   0.174 -0.0883  0.2897  0.3896
  415SOL    HW1 1244   0.831   2.548   0.186  0.6149 -0.8153  0.5774
  415SOL    HW2 1245   0.789   2.401   0.252 -2.2976 -1.4897 -0.0920
  416SOL     OW 1246   1.465   2.685   2.618 -0.1917 -0.0370 -0.1181
  416SOL    HW1 1247   1.411   2.612   2.667 -2.0482 -1.9070 -1.4744
  416SOL    HW2 1248   1.554   2.707   2.662 -0.9920  0.4238  0.3375
  417SOL     OW 1249   0.264   0.979   1.254 -0.1143 -0.5475  0.4137
  417SOL    HW1 1250   0.252   0.968   1.153 -0.7383  1.4853 -2.4799
  417SOL    HW2 1251   0.360   0.962   1.283 -1.8362 -1.4436  2.6625
  418SOL     OW 1252   2.604   0.067   0.735 -0.4325 -0.4720  0.7427
  418SOL    HW1 1253   2.513   0.021   0.739 -3.6994  2.3007 -1.1278
  418SOL    HW2 1254   2.630   0.093   0.830 -0.1259 -0.6433  0.5445
  419SOL     OW 1255   0.277   0.030   0.165  0.2328 -0.3733 -0.0746
  419SOL    HW1 1256   0.218   0.070   0.239 -2.2955 -1.5290 -0.9864
  419SOL    HW2 1257   0.370   0.010   0.203 -3.1087  0.6973 -0.4968
  420SOL     OW 1258   0.122   1.191   1.335 -0.0970  0.0764 -0.3864
  420SOL    HW1 1259   0.181   1.113   1.302 -0.7004 -2.0781 -2.3304
  420SOL    HW2 1260   0.026   1.157   1.342 -0.6808 -0.6548 -0.7018
  421SOL     OW 1261   1.763   2.606   0.647 -0.6465 -0.3865 -0.0541
  421SOL    HW1 1262   1.806   2.519   0.613  2.3040 -1.8650 -0.2426
  421SOL    HW2 1263   1.674   2.585   0.691 -1.9944  1.2345 -2.8714
  422SOL     OW 1264   0.191   0.392   1.482 -0.6364 -0.0925 -0.2179
  422SOL    HW1 1265   0.254   0.389   1.401 -2.5404 -0.0002  0.5348
  422SOL    HW2 1266   0.108   0.449   1.462 -1.7552 -1.7949  1.2549
  423SOL     OW 1267   1.041   1.388   1.999  0.6125  0.1315 -0.1404
  423SOL    HW1 1268   1.044   1.346   1.906  0.1875  0.7159 -0.3720
  423SOL    HW2 1269   1.037   1.490   1.991 -2.5240  0.3073 -1.3971
  424SOL     OW 1270   1.712   2.074   0.601 -0.2883  0.3045 -0.5530
  424SOL    HW1 1271   1.676   2.050   0.509 -0.0923 -0.2645  0.2800
  424SOL    HW2 1272   1.672   2.015   0.675 -1.8985 -1.8253 -1.7132
  425SOL     OW 1273   2.849   2.877   2.051  0.1721  1.0138  0.3887
  425SOL    HW1 1274   2.749   2.867   2.074 -0.0616 -0.1877 -0.1882
  425SOL    HW2 1275   2.860   2.938   1.969 -0.1051  2.7798  0.8031
  426SOL     OW 1276   0.332   2.877   2.671  0.4129  0.2977  0.8229
  426SOL    HW1 1277   0.303   2.882   2.769  0.8402  0.2952 -0.9246
  426SOL    HW2 1278   0.252   2.902   2.612  0.6196  1.2883  0.7024
  427SOL     OW 1279   1.007   3.011   0.076  0.2855 -0.1969 -0.1472
  427SOL    HW1 1280   0.930   3.042   0.135  1.4301  1.7113 -1.8822
  427SOL    HW2 1281   0.977   2.928   0.024 -1.9473 -1.3312  0.1731
  428SOL     OW 1282   2.792   0.496   1.520 -0.2055 -0.4207  0.2488
  428SOL    HW1 1283   2.809   0.401   1.555 -2.5448 -0.4411 -1.3571
  428SOL    HW2 1284   2.727   0.492   1.440  2.0602  2.4907  2.3163
  429SOL     OW 1285   2.067   2.927   0.550  0.0166  0.9451  0.3972
  429SOL    HW1 1286   2.026   2.840   0.513 -1.0636 -1.9872  0.4355
  429SOL    HW2 1287   2.162   2.940   0.514 -1.5752 -1.6511  1.6933
  430SOL     OW 1288   1.090   1.319   2.708  0.6452 -0.5254 -0.1399
  430SOL    HW1 1289   1.141   1.392   2.759  0.3556 -2.2415 -0.1649
  430SOL    HW2 1290   1.052   1.361   2.623 -0.7878 -1.0786 -0.9887
  431SOL     OW 1291   2.743   2.259   1.180  0.1402 -0.4803 -0.4002
  431SOL    HW1 1292   2.844   2.249   1.172  0.2544  4.1772 -2.7478
  431SOL    HW2 1293   2.705   2.205   1.101  2.0551 -1.5007  0.2719
  432SOL     OW 1294   1.552   2.330   2.790  0.6800  0.1418  0.4411
  432SOL    HW1 1295   1.597   2.306   2.702 -0.1911  1.0172 -0.5197
  432SOL    HW2 1296   1.551   2.251   2.856  0.0386 -0.1690  0.7322
  433SOL     OW 1297   1.233   0.378   2.496 -0.2877 -0.2047  0.0996
  433SOL    HW1 1298   1.246   0.412   2.401 -0.4719  0.5452  2.6686
  433SOL    HW2 1299   1.318   0.373   2.552  1.9252 -0.6596  0.7311
  434SOL     OW 1300   1.279   2.742   2.134 -0.8897 -0.8109 -0.1901
  434SOL    HW1 1301   1.307   2.754   2.231  2.6744  0.1034  1.0620
  434SOL    HW2 1302   1.363   2.708   2.087  1.2022  1.5622 -0.5266
  435SOL     OW 1303   0.241   0.076   2.962  0.1353 -0.6719 -0.0890
  435SOL    HW1 1304   0.264   0.075   3.062 -2.8413 -1.0261  0.6335
  435SOL    HW2 1305   0.169   0.145   2.945 -0.6228 -1.0006 -1.3747
  436SOL     OW 1306   0.574   1.242   2.417  0.3507 -0.6305 -0.2525
  436SOL    HW1 1307   0.475   1.253   2.443  2.4751 -1.0092 -2.1051
  436SOL    HW2 1308   0.597   1.312   2.344  0.3936 -0.0777  1.7629
  437SOL     OW 1309   1.184   2.425   2.541  1.0851 -0.1692  0.1135
  437SOL    HW1 1310   1.228   2.401   2.452  2.0494 -1.3430 -0.1470
  437SOL    HW2 1311   1.111   2.496   2.527 -2.4811  0.3943  1.0839
  438SOL     OW 1312   0.600   0.860   0.671 -0.5253  0.0136  0.0630
  438SOL    HW1 1313   0.551   0.807   0.743 -0.4888  0.7092  0.0548
  438SOL    HW2 1314   0.659   0.793   0.621  1.9557  1.2342 -1.7969
  439SOL     OW 1315   2.994   1.542   2.046 -0.1589 -0.1928 -0.2996
  439SOL    HW1 1316   2.925   1.475   2.080 -4.2022  0.3509  0.4158
  439SOL    HW2 1317   2.955   1.636   2.034 -2.7594  0.6340 -0.8604
  440SOL     OW 1318   2.794   0.773   2.718  0.2442 -0.3055  0.0045
  440SOL    HW1 1319   2.753   0.708   2.652  2.2475 -1.4609 -2.1549
  440SOL    HW2 1320   2.754   0.867   2.711 -0.7758  2.5574  0.2947
  441SOL     OW 1321   0.625   1.789   1.433  0.3525 -0.2396 -0.3125
  441SOL    HW1 1322   0.524   1.781   1.431  3.2688  0.6707 -1.3796
  441SOL    HW2 1323   0.648   1.872   1.487 -2.5815  0.9418  1.4308
  442SOL     OW 1324   1.905   1.407   0.739 -0.0065 -0.0885  0.1612
  442SOL    HW1 1325   1.924   1.393   0.639  0.9567 -0.5790 -1.3481
  442SOL    HW2 1326   1.823   1.467   0.752  2.5723 -1.4173  1.4725
  443SOL     OW 1327   2.351   2.079   2.964  0.3479 -0.5534 -0.0694
  443SOL    HW1 1328   2.285   2.008   2.932 -0.4280  0.7963 -2.6749
  443SOL    HW2 1329   2.438   2.079   2.908 -0.1143 -1.5705  0.2247
  444SOL     OW 1330   1.706   1.431   2.957  0.2814 -0.2352  0.1163
  444SOL    HW1 1331   1.660   1.521   2.974  0.8623 -1.1361 -1.9622
  444SOL    HW2 1332   1.670   1.389   2.872  0.7343  0.2516 -2.1228
  445SOL     OW 1333   0.429   2.173   1.990  0.0378 -0.2772  0.8423
  445SOL    HW1 1334   0.493   2.249   2.014  1.3757 -2.4493  0.1191
  445SOL    HW2 1335   0.354   2.171   2.060 -2.0056  2.4940  0.8872
  446SOL     OW 1336   0.933   1.021   1.807 -0.8238  0.2634  0.4278
  446SOL    HW1 1337   1.025   0.977   1.794  3.7837  1.0303  2.3958
  446SOL    HW2 1338   0.884   0.985   1.888  0.7319 -0.9295 -0.5968
  447SOL     OW 1339   0.743   0.670   0.535 -0.6033  0.4618  0.6965
  447SOL    HW1 1340   0.665   0.615   0.499 -0.5565  0.1946  0.5353
  447SOL    HW2 1341   0.810   0.696   0.462 -0.1533 -1.5681 -0.8522
  448SOL     OW 1342   1.347   1.050   2.012 -0.0645  0.1057 -0.0444
  448SOL    HW1 1343   1.312   1.114   1.941 -0.1036 -0.6733  1.2689
  448SOL    HW2 1344   1.439   1.014   1.986  2.3378 -0.7622 -0.0430
  449SOL     OW 1345   0.167   1.584   2.390 -0.2931 -0.5481 -0.4855
  449SOL    HW1 1346   0.120   1.625   2.471  0.3217  1.0920  0.2858
  449SOL    HW2 1347   0.168   1.653   2.313  0.3511  2.2180  0.0673
  450SOL     OW 1348   2.171   1.397   1.914 -0.1543  0.1611 -0.6986
  450SOL    HW1 1349   2.162   1.472   1.982 -0.0891  0.8631  0.6406
  450SOL    HW2 1350   2.265   1.396   1.873  2.1479  0.5983  1.1331
  451SOL     OW 1351   2.353   1.422   1.322  0.1413  0.2724  0.3947
  451SOL    HW1 1352   2.398   1.354   1.383 -1.6132  1.6522 -0.2250
  451SOL    HW2 1353   2.412   1.446   1.242 -1.1050  1.1920  1.5788
  452SOL     OW 1354   0.784   0.983   1.310  0.2939  0.0362 -0.0993
  452SOL    HW1 1355   0.792   0.988   1.412 -2.2430 -1.5236  2.3560
  452SOL    HW2 1356   0.877   0.994   1.271 -0.4997  0.4581  2.3170
  453SOL     OW 1357   0.302   1.998   0.976 -0.3846  0.2507  0.0907
  453SOL    HW1 1358   0.217   1.996   1.033  0.4991 -0.8896 -1.3627
  453SOL    HW2 1359   0.293   1.983   0.877  2.8358 -2.9042  1.3437
  454SOL     OW 1360   1.190   1.225   0.263 -0.1823  0.2092  0.5015
  454SOL    HW1 1361   1.273   1.283   0.247 -0.4558  0.9048 -0.2528
  454SOL    HW2 1362   1.204   1.176   0.352  2.2624 -0.6950 -1.3291
  455SOL     OW 1363   1.800   0.487   0.816 -0.3560 -0.8561 -0.3520
  455SOL    HW1 1364   1.803   0.391   0.782 -0.2210  0.1051  0.2064
  455SOL    HW2 1365   1.849   0.552   0.754  0.7378 -0.3506  0.5694
  456SOL     OW 1366   1.792   2.852   0.270 -0.1213  0.1997  0.2959
  456SOL    HW1 1367   1.740   2.778   0.223  1.5622 -1.1739 -1.2446
  456SOL    HW2 1368   1.734   2.932   0.291 -1.9000 -0.3804  0.2167
  457SOL     OW 1369   2.066   1.163   2.001  0.3402  0.1875 -0.7796
  457SOL    HW1 1370   2.101   1.253   1.966  1.2019 -1.5575 -1.0536
  457SOL    HW2 1371   2.104   1.149   2.095 -0.2652  0.6248 -0.1288
  458SOL     OW 1372   2.507   0.491   2.351 -0.0745 -0.0385  0.1175
  458SOL    HW1 1373   2.419   0.529   2.391 -0.8108  0.2216 -1.6903
  458SOL    HW2 1374   2.527   0.548   2.269  0.9364 -1.4275 -0.2783
  459SOL     OW 1375   2.481   1.552   2.589 -0.2399 -0.7167  0.0340
  459SOL    HW1 1376   2.543   1.544   2.668  0.2887  3.2435 -1.5122
  459SOL    HW2 1377   2.460   1.459   2.550 -1.0188  0.6919 -2.7038
  460SOL     OW 1378   0.928   0.898   2.492 -0.3482  0.3665 -0.4459
  460SOL    HW1 1379   0.982   0.961   2.433 -1.0307  1.8717 -2.3434
  460SOL    HW2 1380   0.903   0.945   2.579 -3.5176 -0.4953  2.5938
  461SOL     OW 1381   0.077   2.342   0.170  0.0296 -0.3422 -0.1233
  461SOL    HW1 1382   0.158   2.399   0.197  2.1963  5.0397 -0.1174
  461SOL    HW2 1383  -0.006   2.401   0.156  2.1485 -1.6254 -0.9770
  462SOL     OW 1384   1.387   2.781   2.380  0.2408 -0.0493  0.4047
  462SOL    HW1 1385   1.416   2.735   2.467  0.3167  0.9816  0.6913
  462SOL    HW2 1386   1.458   2.850   2.355 -1.0522  1.8590 -4.1529
  463SOL     OW 1387   2.036   2.126   1.922 -0.0430  0.4832 -0.3646
  463SOL    HW1 1388   1.979   2.042   1.936 -0.7582  1.6463  0.8031
  463SOL    HW2 1389   2.135   2.103   1.930 -1.9059  2.7246  0.6291
  464SOL     OW 1390   2.553   2.435   0.758  0.3500  0.3684  0.0179
  464SOL    HW1 1391   2.456   2.413   0.735 -1.6140 -1.0053  0.9831
  464SOL    HW2 1392   2.565   2.534   0.779  0.7251  0.9320  1.6188
  465SOL     OW 1393   0.011   0.133   1.496 -0.6053 -0.2266 -0.4825
  465SOL    HW1 1394   0.063   0.086   1.421 -2.2397 -0.3173 -0.9526
  465SOL    HW2 1395   0.078   0.162   1.568  1.7458 -0.9642  0.4652
  466SOL     OW 1396   1.337   2.489   2.755 -0.0029  0.0769 -0.4905
  466SOL    HW1 1397   1.414   2.425   2.777 -0.1557  1.3631  1.2779
  466SOL    HW2 1398   1.276   2.455   2.680 -0.8659  0.1409  0.9679
  467SOL     OW 1399   3.057   2.093   0.257  0.1919 -0.2607  0.2947
  467SOL    HW1 1400   2.985   2.069   0.189 -0.4951 -0.2018 -1.5781
  467SOL    HW2 1401   3.087   2.189   0.240  2.0769  1.0271 -1.4128
  468SOL     OW 1402   2.054   2.317   2.826  0.5574 -0.1575  0.1381
  468SOL    HW1 1403   2.106   2.260   2.759  0.9816 -0.7247 -1.3596
  468SOL    HW2 1404   1.977   2.363   2.780 -3.5034  1.9376 -0.1286
  469SOL     OW 1405   0.872   1.865   0.705  0.4247 -0.5426 -0.2558
  469SOL    HW1 1406   0.815   1.890   0.787 -1.2162 -0.3112  0.3809
  469SOL    HW2 1407   0.930   1.945   0.679  1.6503 -1.2638  0.7774
  470SOL     OW 1408   1.957   0.669   0.680  0.0913 -0.2744  0.3703
  470SOL    HW1 1409   2.025   0.638   0.612  0.3536  1.4147 -0.3613
  470SOL    HW2 1410   1.996   0.722   0.757  2.6461 -1.0112 -0.1727
  471SOL     OW 1411   0.315   1.858   0.520 -0.0087  0.3869  0.2247
  471SOL    HW1 1412   0.395   1.858   0.456 -0.6078 -1.1220 -0.0546
  471SOL    HW2 1413   0.320   1.938   0.585 -4.1036 -0.4627 -0.3070
  472SOL     OW 1414   2.604   2.106   2.870  0.4223  0.6300  0.4686
  472SOL    HW1 1415   2.665   2.138   2.944  0.9547 -0.8707 -1.4485
  472SOL    HW2 1416   2.639   2.137   2.780  0.5983  0.3134 -2.8613
  473SOL     OW 1417   1.406   1.758   0.749  0.2166 -0.2179 -0.4777
  473SOL    HW1 1418   1.484   1.825   0.754 -1.8268 -1.0021  1.6135
  473SOL    HW2 1419   1.367   1.762   0.654 -2.7919  0.0201 -0.9445
  474SOL     OW 1420   2.829   0.462   1.122  0.4290 -0.0017 -0.5063
  474SOL    HW1 1421   2.790   0.436   1.031 -2.7323 -1.2893  0.8382
  474SOL    HW2 1422   2.893   0.390   1.155  0.3719 -0.3799  1.9516
  475SOL     OW 1423   2.872   3.025   1.832 -0.0752 -0.7333 -0.9763
  475SOL    HW1 1424   2.889   2.999   1.735  0.2835  3.0149  1.8992
  475SOL    HW2 1425   2.804   3.103   1.826 -4.5699 -0.4579 -0.4786
  476SOL     OW 1426   0.558   0.259   0.912 -0.1110  0.6097 -0.5354
  476SOL    HW1 1427   0.608   0.345   0.888  0.8427  1.0832  0.7389
  476SOL    HW2 1428   0.534   0.208   0.827  1.6596 -0.6051  0.0036
  477SOL     OW 1429   1.241   2.468   1.176 -0.4259  0.3324 -0.4987
  477SOL    HW1 1430   1.228   2.474   1.278  1.3608 -2.6390 -0.2601
  477SOL    HW2 1431   1.341   2.465   1.166 -0.8547  1.9672 -0.4607
  478SOL     OW 1432   1.204   2.648   0.094 -0.5453  0.3144 -0.1310
  478SOL    HW1 1433   1.211   2.665  -0.007  0.7786  2.1477 -2.7975
  478SOL    HW2 1434   1.258   2.719   0.143 -1.7713 -1.5372  1.3430
  479SOL     OW 1435   2.529   1.149   2.128  0.1908  0.4911  0.9842
  479SOL    HW1 1436   2.467   1.085   2.179 -0.0913  2.2670 -2.3376
  479SOL    HW2 1437   2.546   1.116   2.033  1.3975 -0.1232  1.3710
  480SOL     OW 1438   2.686   2.243   2.645  0.6141 -0.2841  0.0948
  480SOL    HW1 1439   2.716   2.227   2.548 -0.6080  0.7649 -1.4146
  480SOL    HW2 1440   2.590   2.279   2.646 -1.1832 -2.3829 -1.8568
  481SOL     OW 1441   1.610   2.636   1.630 -0.4831 -0.0502 -0.2541
  481SOL    HW1 1442   1.700   2.595   1.659 -4.3410 -0.9762  0.2089
  481SOL    HW2 1443   1.610   2.658   1.530 -3.6058 -0.1943  0.7418
  482SOL     OW 1444   1.542   2.197   2.231 -0.3139  0.3342  0.0930
  482SOL    HW1 1445   1.508   2.160   2.142  0.5166 -0.4940  0.1945
  482SOL    HW2 1446   1.550   2.299   2.225  2.9101 -3.5504  1.1472
  483SOL     OW 1447   1.196   2.678   2.888 -0.3334  0.4289 -0.7250
  483SOL    HW1 1448   1.154   2.723   2.805 -0.5724  0.6505  2.2711
  483SOL    HW2 1449   1.253   2.600   2.854 -1.0352  2.1785  0.1501
  484SOL     OW 1450   2.401   2.945   1.612  0.0007  0.1956 -0.3833
  484SOL    HW1 1451   2.311   2.900   1.632  0.4963 -0.0591  1.0946
  484SOL    HW2 1452   2.471   2.870   1.604 -3.9442 -1.6135 -0.5583
  485SOL     OW 1453   1.947   0.538   0.341 -0.4280  0.0744  0.2478
  485SOL    HW1 1454   1.906   0.619   0.295 -2.0544 -2.1852  0.5684
  485SOL    HW2 1455   1.876   0.482   0.387 -1.7619 -1.6374 -0.7436
  486SOL     OW 1456   2.374   2.718   2.426 -0.1867 -1.1741  0.4696
  486SOL    HW1 1457   2.424   2.783   2.487 -2.5879  2.2304 -0.7544
  486SOL    HW2 1458   2.344   2.632   2.474 -1.5748 -3.2630  1.1406
  487SOL     OW 1459   1.200   0.844   0.761  0.1651  0.7120 -0.1551
  487SOL    HW1 1460   1.152   0.869   0.674 -0.8519  1.8615 -1.2178
  487SOL    HW2 1461   1.130   0.831   0.834  1.0969  0.7791 -0.0761
  488SOL     OW 1462   2.672   2.900   2.360  0.3942  0.1249  0.0301
  488SOL    HW1 1463   2.642   2.881   2.264 -1.2577  0.4458 -0.6322
  488SOL    HW2 1464   2.611   2.975   2.390 -0.6742  1.8257  0.8326
  489SOL     OW 1465   1.195   2.709   0.435  0.0511  0.0304 -0.1669
  489SOL    HW1 1466   1.150   2.777   0.496 -0.7582  1.3960 -1.4309
  489SOL    HW2 1467   1.135   2.626   0.431 -1.6891 -0.9095  1.3841
  490SOL     OW 1468   1.549   0.658   2.940 -0.4927  0.7182  0.1290
  490SOL    HW1 1469   1.559   0.726   2.865  1.7068  1.5291  0.8301
  490SOL    HW2 1470   1.455   0.657   2.980  2.3240  1.0330 -3.6645
  491SOL     OW 1471   0.939   0.038   1.212  1.0024  0.0814  0.1519
  491SOL    HW1 1472   0.861   0.081   1.162 -0.6871 -1.4687 -2.1068
  491SOL    HW2 1473   0.909   0.010   1.305  0.7394 -1.1084  1.3528
  492SOL     OW 1474   1.592   2.695   0.172  0.4245  0.0576  0.4008
  492SOL    HW1 1475   1.534   2.669   0.253  1.1925 -1.7389 -3.6680
  492SOL    HW2 1476   1.528   2.754   0.119 -0.1863 -0.6948  1.9464
  493SOL     OW 1477   1.016   1.917   2.951 -0.8793 -0.4845 -0.4003
  493SOL    HW1 1478   1.043   1.851   2.878 -0.6455 -1.6473 -0.5524
  493SOL    HW2 1479   0.994   2.009   2.909 -0.2444  1.8629  1.2883
  494SOL     OW 1480   0.785   0.292   0.464  0.5019  0.3702  0.3653
  494SOL    HW1 1481   0.693   0.291   0.421  1.3598 -1.3069  0.3918
  494SOL    HW2 1482   0.839   0.368   0.425 -0.1022  0.3879 -3.4452
  495SOL     OW 1483   2.712   0.174   1.811 -0.3759 -0.8291 -0.4830
  495SOL    HW1 1484   2.756   0.208   1.725 -1.4865  0.0978  1.8077
  495SOL    HW2 1485   2.718   0.249   1.881 -2.3876  0.1138 -0.1792
  496SOL     OW 1486   2.318   1.908   2.390  0.9017  0.3785 -0.7635
  496SOL    HW1 1487   2.269   1.893   2.302  0.1041 -1.1392  0.8348
  496SOL    HW2 1488   2.403   1.852   2.386 -2.1046 -1.3844  0.8149
  497SOL     OW 1489   1.549   1.142   2.714  0.0409  0.3902 -0.2260
  497SOL    HW1 1490   1.620   1.210   2.687  0.0053 -1.7173 -0.1644
  497SOL    HW2 1491   1.477   1.181   2.775 -1.3170  0.5483 -0.8005
  498SOL     OW 1492   0.749   2.766   1.213  0.1345  0.0846  1.2152
  498SOL    HW1 1493   0.682   2.842   1.202  0.8390 -0.8380 -2.7917
  498SOL    HW2 1494   0.698   2.677   1.220  1.7060 -0.5953  2.1872
  499SOL     OW 1495   0.072   1.981   1.120 -0.3473 -0.2534 -0.1939
  499SOL    HW1 1496   0.013   1.954   1.040 -1.5975 -4.4451 -0.5573
  499SOL    HW2 1497   0.052   1.918   1.198 -1.2344  1.0664  0.6854
  500SOL     OW 1498   0.646   2.672   2.691 -0.2983  0.1235  0.0029
  500SOL    HW1 1499   0.548   2.643   2.701 -1.4798 -2.2786 -1.0290
  500SOL    HW2 1500   0.666   2.704   2.596 -2.4134 -0.2201 -0.6006
  501SOL     OW 1501   1.648   3.051   0.032 -0.5271 -0.2500 -0.1348
  501SOL    HW1 1502   1.703   3.137   0.037 -0.1346 -1.0579 -0.1538
  501SOL    HW2 1503   1.601   3.031   0.121 -1.8414 -0.3608  1.3104
  502SOL     OW 1504   2.992   0.128   0.728 -0.2949 -0.1575 -0.2443
  502SOL    HW1 1505   2.951   0.214   0.695  1.5971 -1.1941 -0.1015
  502SOL    HW2 1506   3.076   0.149   0.783  1.4433 -1.2423  1.4181
  503SOL     OW 1507   1.964   2.845   2.128 -0.1526 -0.1227 -0.5466
  503SOL    HW1 1508   2.027   2.816   2.204  1.5527 -1.1708 -0.3558
  503SOL    HW2 1509   1.870   2.814   2.154 -1.9069  0.1953  0.8100
  504SOL     OW 1510   2.419   1.437   1.817 -0.1400 -0.0951 -0.6301
  504SOL    HW1 1511   2.392   1.518   1.761 -1.3136 -1.7331  0.0601
  504SOL    HW2 1512   2.480   1.371   1.767  0.7429 -2.6110 -0.5825
  505SOL     OW 1513   1.717   2.767   2.204 -0.4510  0.0730 -0.4202
  505SOL    HW1 1514   1.669   2.839   2.258 -0.0698 -2.9885 -0.2196
  505SOL    HW2 1515   1.655   2.730   2.131  1.4969  0.4335 -1.7515
  506SOL     OW 1516   0.177   0.687   2.126 -0.3348 -0.2026  0.0093
  506SOL    HW1 1517   0.180   0.596   2.081 -1.4360  1.3178  2.6828
  506SOL    HW2 1518   0.238   0.683   2.208 -2.0588  3.2395  0.1179
  507SOL     OW 1519   1.725   0.410   0.430 -0.2270  0.1846 -0.0312
  507SOL    HW1 1520   1.690   0.495   0.383  2.7175 -5.0369 -0.5730
  507SOL    HW2 1521   1.646   0.363   0.473  1.3071  1.6183  0.1675
  508SOL     OW 1522   2.076   0.530   1.785 -0.7390  0.2767 -0.0460
  508SOL    HW1 1523   2.074   0.613   1.727 -0.5964  0.1608  1.4447
  508SOL    HW2 1524   2.152   0.536   1.853 -0.3492 -0.6150 -3.6863
  509SOL     OW 1525   0.633   1.894   3.047  0.0709 -0.1611 -0.1403
  509SOL    HW1 1526   0.719   1.856   3.089 -1.8867  0.1909  1.8614
  509SOL    HW2 1527   0.556   1.841   3.084 -0.6374 -1.4878  0.6424
  510SOL     OW 1528   0.227   0.935   0.995  0.2570 -0.0722 -0.3129
  510SOL    HW1 1529   0.141   0.915   0.943 -1.8514  2.6062  1.6908
  510SOL    HW2 1530   0.291   0.985   0.932 -1.6092 -2.0136 -2.3470
  511SOL     OW 1531   1.492   1.019   1.204 -0.2071  0.1730 -0.0753
  511SOL    HW1 1532   1.569   0.952   1.196  1.5802  1.2649  0.6004
  511SOL    HW2 1533   1.512   1.105   1.152  4.0976  0.0877  1.1598
  512SOL     OW 1534   0.326   2.076   0.676  0.3745 -0.4698 -0.0974
  512SOL    HW1 1535   0.266   2.143   0.723  0.5138  0.1941 -4.0406
  512SOL    HW2 1536   0.425   2.101   0.686 -2.5422  0.3794 -1.3470
  513SOL     OW 1537   0.225   2.423   0.963  0.3630 -0.1947 -0.1501
  513SOL    HW1 1538   0.178   2.412   1.054 -0.3569  1.3110  0.4976
  513SOL    HW2 1539   0.258   2.519   0.956 -2.5335 -1.6131  0.5029
  514SOL     OW 1540   0.592   2.117   0.661 -0.3898 -0.0510  0.2423
  514SOL    HW1 1541   0.654   2.178   0.713 -1.3813  0.9951 -0.6560
  514SOL    HW2 1542   0.636   2.083   0.575  0.1113  3.1426 -0.4048
  515SOL     OW 1543   2.943   0.287   2.992 -0.0234  0.3116 -0.4438
  515SOL    HW1 1544   2.867   0.247   3.046 -3.4841  2.1507 -0.4183
  515SOL    HW2 1545   2.988   0.365   3.039  2.2712 -0.9078  0.4665
  516SOL     OW 1546   2.156   3.034   1.323  0.0160  0.0634 -0.1728
  516SOL    HW1 1547   2.091   2.973   1.373 -2.4408  2.1332 -1.2675
  516SOL    HW2 1548   2.126   3.039   1.226 -0.0527  0.4793  0.8304
  517SOL     OW 1549   1.696   1.579   0.757 -0.7265  0.1345  0.8229
  517SOL    HW1 1550   1.739   1.648   0.694 -1.1787 -1.5849 -0.2624
  517SOL    HW2 1551   1.673   1.617   0.849  1.1421  0.1315  0.8276
  518SOL     OW 1552   1.777   2.798   0.833 -0.2495 -0.3586 -0.5143
  518SOL    HW1 1553   1.725   2.757   0.911 -0.5370 -0.4120  0.0357
  518SOL    HW2 1554   1.780   2.729   0.757 -0.1273 -0.3883 -0.4330
  519SOL     OW 1555   2.895   2.485   0.126 -0.0115  0.1493 -0.3948
  519SOL    HW1 1556   2.858   2.511   0.217  3.0125  0.7611  2.1204
  519SOL    HW2 1557   2.883   2.560   0.059 -3.4115 -0.8800 -1.0769
  520SOL     OW 1558   2.201   1.594   2.101  0.1186 -0.4295 -0.2632
  520SOL    HW1 1559   2.183   1.689   2.136  1.7566  2.0642  3.1114
  520SOL    HW2 1560   2.206   1.528   2.180 -2.2443  0.5681  0.4155
  521SOL     OW 1561   1.479   2.934   1.916  0.1237  0.1808  0.1010
  521SOL    HW1 1562   1.496   2.928   1.815 -1.5328 -0.1302  0.3356
  521SOL    HW2 1563   1.380   2.956   1.929 -0.3643 -1.1736  1.8003
  522SOL     OW 1564   0.306   2.548   1.900 -0.3546  0.7552  0.4907
  522SOL    HW1 1565   0.253   2.490   1.966  1.9589 -1.5857  0.4713
  522SOL    HW2 1566   0.244   2.623   1.868 -0.6364  1.6151  2.9995
  523SOL     OW 1567   0.584   2.378   2.091 -0.0446 -0.0004  0.1241
  523SOL    HW1 1568   0.564   2.413   2.185  0.6084 -2.1947  1.4094
  523SOL    HW2 1569   0.591   2.461   2.031 -0.0104 -0.5561  2.4937
  524SOL     OW 1570   2.213   2.133   0.354 -0.1201 -0.2532 -0.3729
  524SOL    HW1 1571   2.149   2.058   0.327 -1.4097 -1.4698 -1.3332
  524SOL    HW2 1572   2.215   2.143   0.456  1.3799 -1.4268  2.1542
  525SOL     OW 1573   2.631   0.633   2.551  0.1653 -0.0005 -0.1001
  525SOL    HW1 1574   2.602   0.571   2.475  1.7853 -0.1814 -0.9764
  525SOL    HW2 1575   2.584   0.601   2.637 -0.6692  1.3996 -0.1317
  526SOL     OW 1576   0.410   2.432   0.472 -0.0382 -0.0418 -0.4974
  526SOL    HW1 1577   0.506   2.425   0.509 -0.7412  2.8671  1.7548
  526SOL    HW2 1578   0.369   2.338   0.465  0.0912  1.4478 -1.0742
  527SOL     OW 1579   2.859   1.059   0.866 -0.4616 -0.3193  0.1469
  527SOL    HW1 1580   2.790   1.108   0.810  0.1232  0.1848 -4.0872
  527SOL    HW2 1581   2.813   0.992   0.929  0.6858 -3.4836 -1.9120
  528SOL     OW 1582   1.116   1.304   2.252 -0.5045 -0.5678  0.2008
  528SOL    HW1 1583   1.097   1.338   2.157 -2.8584 -1.3312 -1.9055
  528SOL    HW2 1584   1.064   1.364   2.315 -0.4918  3.3714 -2.6518
  529SOL     OW 1585   0.842   1.292   0.472  0.7452 -0.3690  0.1843
  529SOL    HW1 1586   0.903   1.299   0.554 -1.3017 -2.3943 -0.1264
  529SOL    HW2 1587   0.790   1.206   0.483 -0.1215  0.0307 -0.8189
  530SOL     OW 1588   1.371   0.551   1.652  0.2478 -0.3579  0.1853
  530SOL    HW1 1589   1.429   0.618   1.602 -1.6785  1.3790  0.0901
  530SOL    HW2 1590   1.428   0.491   1.711  1.0189  0.8175 -0.6004
  531SOL     OW 1591   1.101   2.208   0.270  0.1864 -0.2226  0.0830
  531SOL    HW1 1592   1.118   2.279   0.198 -1.6916  0.9766  1.0660
  531SOL    HW2 1593   1.189   2.190   0.316  2.0648  0.6022 -0.8297
  532SOL     OW 1594   2.582   0.856   2.400 -0.3288 -0.4850 -0.3323
  532SOL    HW1 1595   2.596   0.779   2.466  1.5559 -2.3959 -1.2197
  532SOL    HW2 1596   2.675   0.893   2.380  1.8868  1.1460  1.5018
  533SOL     OW 1597   0.037   0.246   2.111 -0.6190  0.3662  0.0482
  533SOL    HW1 1598  -0.056   0.269   2.148 -0.1242  3.4809 -1.1225
  533SOL    HW2 1599   0.033   0.174   2.037  1.4170 -0.5060  0.1952
  534SOL     OW 1600   2.220   0.189   2.778  0.2125  0.0799 -0.1373
  534SOL    HW1 1601   2.294   0.195   2.847  2.0426  0.9772 -0.7032
  534SOL    HW2 1602   2.243   0.111   2.716 -3.8126  1.5725  0.9796
  535SOL     OW 1603   0.242   0.386   3.008  0.0175  0.3578  0.3179
  535SOL    HW1 1604   0.310   0.355   3.078  0.6989 -0.1171 -1.1415
  535SOL    HW2 1605   0.292   0.402   2.921  1.7337 -0.2932  0.2989
  536SOL     OW 1606   1.085   2.053   1.102 -0.0277 -0.2944 -0.0742
  536SOL    HW1 1607   1.009   2.018   1.161  1.3601  0.0911  1.3933
  536SOL    HW2 1608   1.072   2.152   1.083  3.4038  1.1438  0.6934
  537SOL     OW 1609   2.767   2.521   1.470 -0.7616  0.3702  0.7470
  537SOL    HW1 1610   2.802   2.589   1.538 -0.9404  1.9921 -0.5473
  537SOL    HW2 1611   2.703   2.457   1.519  2.0648  0.1649 -0.8115
  538SOL     OW 1612   0.656   2.436   0.576  0.0818  0.0095  0.2481
  538SOL    HW1 1613   0.716   2.369   0.624 -2.2589 -0.3048 -2.6718
  538SOL    HW2 1614   0.707   2.521   0.550 -1.9473 -0.8450 -0.3358
  539SOL     OW 1615   1.824   1.273   2.454  0.4023 -0.5222  0.1857
  539SOL    HW1 1616   1.744   1.249   2.396 -0.0505  0.4073 -3.7564
  539SOL    HW2 1617   1.882   1.345   2.408  1.3881  0.1337  0.9843
  540SOL     OW 1618   1.867   0.596   2.832  0.3940 -0.5346 -0.4253
  540SOL    HW1 1619   1.898   0.587   2.929  1.0198 -0.7255  0.0543
  540SOL    HW2 1620   1.856   0.694   2.807  0.0896  0.9188 -2.6469
  541SOL     OW 1621   1.092   1.057   2.352  0.2812  0.7816  1.2086
  541SOL    HW1 1622   1.113   0.992   2.275 -0.3859  2.4561 -0.8916
  541SOL    HW2 1623   1.091   1.153   2.317 -2.1389  0.7878 -0.3336
  542SOL     OW 1624   1.441   2.543   1.818 -0.3865  0.3552 -0.2479
  542SOL    HW1 1625   1.340   2.552   1.798 -0.3965  1.2267  2.2502
  542SOL    HW2 1626   1.496   2.577   1.739 -0.0247  1.2101 -0.5761
  543SOL     OW 1627   0.529   2.755   2.978  0.6737  0.5429 -0.4207
  543SOL    HW1 1628   0.572   2.734   2.889  0.1953 -2.1316 -2.0573
  543SOL    HW2 1629   0.437   2.798   2.961 -0.4140  2.0257 -0.9052
  544SOL     OW 1630   0.062   2.004   2.184  0.4161 -0.1184 -0.1760
  544SOL    HW1 1631   0.028   2.005   2.279  2.3247  3.0771 -1.1968
  544SOL    HW2 1632   0.133   2.078   2.183  1.8394  0.1504 -2.5017
  545SOL     OW 1633   1.387   1.858   1.632  0.1894 -0.3151  0.2174
  545SOL    HW1 1634   1.355   1.871   1.536  0.0378 -3.4277 -2.6892
  545SOL    HW2 1635   1.324   1.799   1.688  0.6095  0.6415 -0.1948
  546SOL     OW 1636   2.790   0.216   2.604  0.2190 -0.2666 -0.3795
  546SOL    HW1 1637   2.753   0.242   2.512 -1.2613 -0.0296 -2.4195
  546SOL    HW2 1638   2.890   0.235   2.605  0.0053 -2.0263 -1.5579
  547SOL     OW 1639   1.603   3.001   0.777  0.2498  1.0091 -0.2241
  547SOL    HW1 1640   1.594   3.046   0.869 -0.0582  1.2689  2.9995
  547SOL    HW2 1641   1.674   2.928   0.786 -1.5855  1.0513 -1.1971
  548SOL     OW 1642   1.335   2.177   0.052 -0.5115  0.1929  0.8538
  548SOL    HW1 1643   1.275   2.094   0.060  0.8550  4.3872 -0.1800
  548SOL    HW2 1644   1.280   2.262   0.040  2.8187 -1.7876 -0.9791
  549SOL     OW 1645   1.940   0.564   0.027 -0.6694  0.4911 -0.0455
  549SOL    HW1 1646   1.990   0.481   0.060 -1.9938  0.7766  0.5689
  549SOL    HW2 1647   1.993   0.647   0.055 -3.2890  1.0426 -1.4035
  550SOL     OW 1648   2.508   1.824   0.847 -0.6020 -0.3360 -0.1397
  550SOL    HW1 1649   2.458   1.890   0.788 -1.3351  0.4398 -0.4378
  550SOL    HW2 1650   2.575   1.776   0.785  0.2145 -1.5602  0.3956
  551SOL     OW 1651   1.138   0.216   1.267  0.3086 -0.1059 -0.2997
  551SOL    HW1 1652   1.080   0.272   1.330  2.5370  0.3804 -1.2367
  551SOL    HW2 1653   1.078   0.144   1.226  1.0580  0.1032 -0.3026
  552SOL     OW 1654   0.377   1.830   2.713  0.0532  0.3277  0.1544
  552SOL    HW1 1655   0.382   1.764   2.635  1.0195  3.6982 -2.3361
  552SOL    HW2 1656   0.357   1.776   2.798 -0.0396  0.6486 -0.9284
  553SOL     OW 1657   2.509   2.384   0.031  0.1935  0.2378  0.5734
  553SOL    HW1 1658   2.411   2.362   0.013 -0.0932 -1.0483  1.1256
  553SOL    HW2 1659   2.517   2.409   0.130  0.7663  0.3358  1.1582
  554SOL     OW 1660   1.961   1.461   1.459  0.0385  0.2590  0.8053
  554SOL    HW1 1661   1.982   1.418   1.551 -2.8034 -0.9221 -4.1452
  554SOL    HW2 1662   1.873   1.514   1.468  0.1285  0.0708 -1.8812
  555SOL     OW 1663   0.551   2.473   2.340  0.3616 -0.2104 -0.3754
  555SOL    HW1 1664   0.510   2.439   2.427  3.9987  0.9530 -2.9329
  555SOL    HW2 1665   0.512   2.566   2.323  0.5996  0.0334 -0.7114
  556SOL     OW 1666   1.413   1.081   1.456  0.7243 -0.3829  0.0882
  556SOL    HW1 1667   1.446   1.060   1.361  0.2458 -1.9581 -0.6684
  556SOL    HW2 1668   1.391   1.181   1.465 -2.2818 -1.9125  0.5486
  557SOL     OW 1669   1.430   2.905   1.138  0.1653 -0.0953  0.0325
  557SOL    HW1 1670   1.453   2.814   1.101  0.5985 -0.6480 -1.5969
  557SOL    HW2 1671   1.397   2.899   1.234 -1.9463  0.4970  0.4310
  558SOL     OW 1672   0.538   0.816   2.354 -0.4108  0.4923  0.2019
  558SOL    HW1 1673   0.451   0.762   2.352  0.3071  1.0318 -1.0812
  558SOL    HW2 1674   0.568   0.824   2.452 -3.0841  1.2114 -0.3006
  559SOL     OW 1675   0.941   2.677   0.186 -0.4727  0.0771  0.4038
  559SOL    HW1 1676   0.920   2.752   0.253  1.8744  1.0908 -0.1647
  559SOL    HW2 1677   1.041   2.659   0.175  0.1654 -0.2059  2.1549
  560SOL     OW 1678   1.609   2.014   0.359  0.0935  0.2050 -0.3409
  560SOL    HW1 1679   1.686   2.044   0.299 -1.5042  0.2901 -0.2111
  560SOL    HW2 1680   1.521   2.060   0.337  0.0683  2.3963  1.0739
  561SOL     OW 1681   1.062   2.898   0.581 -0.2161 -0.6769 -0.1523
  561SOL    HW1 1682   1.122   2.979   0.559 -1.7717 -1.6909  0.6582
  561SOL    HW2 1683   1.032   2.909   0.677  1.3914 -0.4175 -0.0111
  562SOL     OW 1684   0.563   1.049   2.221 -0.1547 -0.1215 -0.4319
  562SOL    HW1 1685   0.577   1.119   2.294  1.2260 -3.1364 -2.2369
  562SOL    HW2 1686   0.551   0.963   2.275 -0.9710 -1.2605 -1.0260
  563SOL     OW 1687   1.192   2.046   2.424 -0.3636  0.0660  0.7968
  563SOL    HW1 1688   1.195   2.045   2.322 -1.1204  0.3393  0.9752
  563SOL    HW2 1689   1.194   1.948   2.455  0.8160 -0.0702 -0.4705
  564SOL     OW 1690   2.464   0.662   1.213 -0.3096  0.0237  0.1309
  564SOL    HW1 1691   2.427   0.616   1.129 -1.5012 -0.8043 -0.8556
  564SOL    HW2 1692   2.421   0.755   1.222  0.3130  0.3801  0.8160
  565SOL     OW 1693   1.423   0.949   0.352 -0.2722 -0.4496 -0.1448
  565SOL    HW1 1694   1.390   0.946   0.255  1.8720  1.0381  0.0582
  565SOL    HW2 1695   1.367   1.013   0.409 -0.4726  1.1726  0.4854
  566SOL     OW 1696   2.411   2.710   2.853  0.2967 -0.1477  0.5742
  566SOL    HW1 1697   2.484   2.638   2.853  0.4106 -0.6773 -0.0879
  566SOL    HW2 1698   2.325   2.663   2.883 -2.5661  0.8133 -1.3641
  567SOL     OW 1699   1.902   0.767   1.022  0.0714 -0.2090 -0.1115
  567SOL    HW1 1700   1.820   0.793   1.076 -0.9505  0.7941 -2.4416
  567SOL    HW2 1701   1.922   0.666   1.029 -0.0387 -0.6480  0.8451
  568SOL     OW 1702   1.169   1.066   2.621 -0.0402 -0.1150  0.3596
  568SOL    HW1 1703   1.151   1.158   2.661 -1.5967 -1.8640  0.2091
  568SOL    HW2 1704   1.148   1.061   2.521  1.4969 -2.8167 -1.1085
  569SOL     OW 1705   2.091   1.575   0.846  0.3989 -0.1813 -0.3164
  569SOL    HW1 1706   2.020   1.507   0.818 -0.9090 -3.7968 -0.5849
  569SOL    HW2 1707   2.183   1.547   0.817  0.6432  0.4561 -2.1270
  570SOL     OW 1708   2.505   2.540   2.260 -0.8941 -0.7880  0.3435
  570SOL    HW1 1709   2.443   2.613   2.294  1.8700 -0.5589 -0.1860
  570SOL    HW2 1710   2.520   2.559   2.160 -1.6067  1.6698  2.7520
  571SOL     OW 1711   3.063   1.990   1.676  0.2188 -0.3827 -0.0950
  571SOL    HW1 1712   2.987   2.009   1.609  2.7111  1.7585 -0.8542
  571SOL    HW2 1713   3.025   1.986   1.770  0.4404 -0.7568  1.5018
  572SOL     OW 1714   1.043   2.198   2.588  0.5103 -0.5387  0.1299
  572SOL    HW1 1715   1.089   2.289   2.588 -3.1691 -1.0908  0.3190
  572SOL    HW2 1716   1.102   2.133   2.535  0.7273  1.5012 -3.7944
  573SOL     OW 1717   1.532   2.299   1.396 -0.0069 -0.5721  0.4874
  573SOL    HW1 1718   1.455   2.302   1.463 -2.9784 -1.2288 -3.9348
  573SOL    HW2 1719   1.613   2.258   1.444 -2.4952  0.3645  1.5418
  574SOL     OW 1720   1.155   2.750   1.509  0.4933  0.1361  0.5023
  574SOL    HW1 1721   1.063   2.749   1.464 -1.4455  0.6518 -1.0023
  574SOL    HW2 1722   1.142   2.765   1.608 -0.8201  0.9722  0.6278
  575SOL     OW 1723   0.684   0.495   0.889 -0.2659 -0.5110  0.5172
  575SOL    HW1 1724   0.766   0.524   0.836 -1.1069 -0.2564  1.9594
  575SOL    HW2 1725   0.701   0.514   0.989 -2.1473 -0.4546  2.7498
  576SOL     OW 1726   2.155   0.606   1.401  0.2722  0.0179  0.0334
  576SOL    HW1 1727   2.124   0.668   1.477  0.2338 -0.3134  1.3897
  576SOL    HW2 1728   2.164   0.665   1.318 -1.1453  0.5337 -0.0862
  577SOL     OW 1729   1.984   0.166   2.912 -0.3810  0.1340  0.1636
  577SOL    HW1 1730   2.068   0.189   2.860  1.2839 -1.0813 -0.0020
  577SOL    HW2 1731   1.906   0.183   2.848 -1.2554  0.6102  2.1635
  578SOL     OW 1732   1.633   1.904   1.929  0.4120  0.0714 -0.6946
  578SOL    HW1 1733   1.638   1.802   1.935  1.4036  1.2930 -3.1160
  578SOL    HW2 1734   1.638   1.930   1.830 -0.9519  1.1735 -0.6668
  579SOL     OW 1735   0.828   1.593   1.010  0.6579 -0.3556  0.2876
  579SOL    HW1 1736   0.899   1.666   0.997  1.8908  0.0766  3.2141
  579SOL    HW2 1737   0.765   1.585   0.930  1.7377 -0.2518 -1.1144
  580SOL     OW 1738   1.180   0.034   2.946 -0.7004  0.7132  0.4445
  580SOL    HW1 1739   1.114  -0.007   3.013  0.7481  1.9953 -0.6928
  580SOL    HW2 1740   1.247   0.093   2.994 -5.4611  0.2901 -2.1139
  581SOL     OW 1741   1.177   0.922   1.741  0.3340  1.3962 -0.2206
  581SOL    HW1 1742   1.210   0.836   1.784 -2.0471  3.3504 -0.4920
  581SOL    HW2 1743   1.179   0.912   1.638 -3.8824  0.6686  1.5477
  582SOL     OW 1744   0.316   0.356   0.983 -0.1188  0.3990  0.5867
  582SOL    HW1 1745   0.298   0.442   0.933  0.8787 -1.2002  1.0075
  582SOL    HW2 1746   0.407   0.316   0.958 -3.5588  0.0498 -1.5713
  583SOL     OW 1747   0.767   1.909   1.789 -0.1475  0.3056  0.3092
  583SOL    HW1 1748   0.755   1.819   1.838 -1.1844  1.2913  1.3127
  583SOL    HW2 1749   0.861   1.910   1.745  3.7837 -1.4087  1.1396
  584SOL     OW 1750   2.548   2.432   0.294  0.5313 -0.7532  0.3306
  584SOL    HW1 1751   2.637   2.474   0.318 -3.2443  1.6580 -0.1208
  584SOL    HW2 1752   2.480   2.473   0.360 -0.1128  3.2122 -0.3849
  585SOL     OW 1753   2.258   0.569   2.824 -0.3872 -0.2908  0.0460
  585SOL    HW1 1754   2.257   0.519   2.913 -1.4650  1.4321  1.2490
  585SOL    HW2 1755   2.220   0.509   2.751 -1.2403 -0.2020  0.6364
  586SOL     OW 1756   0.508   1.337   0.270 -0.5045  0.1414 -0.1592
  586SOL    HW1 1757   0.560   1.399   0.333  2.1950  0.3744  0.4730
  586SOL    HW2 1758   0.410   1.368   0.276 -2.7174  1.7174 -2.4992
  587SOL     OW 1759   1.697   2.030   1.250  0.0287  0.4674 -0.4676
  587SOL    HW1 1760   1.730   1.998   1.158 -2.4019  0.8799 -1.1779
  587SOL    HW2 1761   1.625   2.100   1.238 -1.5855  0.1114  1.6431
  588SOL     OW 1762   0.509   0.639   1.262 -0.2033 -0.5108  0.0885
  588SOL    HW1 1763   0.597   0.610   1.219 -0.3717  0.2045  0.3006
  588SOL    HW2 1764   0.441   0.668   1.190  2.4944  2.8558 -1.2859
  589SOL     OW 1765   2.043   2.854   0.815 -0.0304  0.4400  0.6508
  589SOL    HW1 1766   2.059   2.890   0.721 -2.5643 -0.6033 -4.1685
  589SOL    HW2 1767   1.942   2.837   0.828  1.5488 -1.4561  1.2782
  590SOL     OW 1768   1.692   0.974   0.405  0.2354  0.3886 -0.5277
  590SOL    HW1 1769   1.759   0.934   0.339  0.4626 -1.0026 -0.2031
  590SOL    HW2 1770   1.594   0.960   0.379  0.8163  1.5606 -1.4393
  591SOL     OW 1771   2.289   2.033   1.993  0.3710 -0.5988 -0.8066
  591SOL    HW1 1772   2.369   1.977   1.961 -0.8408 -2.9516  0.7228
  591SOL    HW2 1773   2.326   2.127   2.003 -2.3143  1.6846  0.4806
  592SOL     OW 1774   1.344   1.986   1.138  0.2134 -0.1258 -0.1438
  592SOL    HW1 1775   1.373   1.901   1.089  0.0424 -0.9295  1.3351
  592SOL    HW2 1776   1.248   2.011   1.115  0.7045 -0.3311 -1.3453
  593SOL     OW 1777   0.588   2.764   0.758 -0.2373 -0.4523 -0.6786
  593SOL    HW1 1778   0.682   2.730   0.775  2.5863 -0.6783 -0.7838
  593SOL    HW2 1779   0.557   2.812   0.843 -0.9387 -1.5240 -2.5720
  594SOL     OW 1780   2.822   0.969   2.336 -0.4851 -0.5301  0.3966
  594SOL    HW1 1781   2.856   1.034   2.264 -2.1992  0.3871 -0.4930
  594SOL    HW2 1782   2.879   0.885   2.341  0.3303  0.7261 -0.0254
  595SOL     OW 1783   2.958   2.973   0.564  0.6765 -0.0014  0.0625
  595SOL    HW1 1784   3.036   2.953   0.501 -0.5519 -2.3531  1.2247
  595SOL    HW2 1785   2.981   3.058   0.616  0.7456  2.9109 -1.1070
  596SOL     OW 1786   3.043   0.557   1.436 -0.0249  0.4952 -0.0071
  596SOL    HW1 1787   3.064   0.642   1.489  0.9593  0.0290 -0.9849
  596SOL    HW2 1788   2.946   0.531   1.458  2.7459  1.8859 -0.3539
  597SOL     OW 1789   2.605   1.206   0.406  0.3372 -0.3722 -0.3976
  597SOL    HW1 1790   2.682   1.143   0.385  0.5654  0.8109 -0.1254
  597SOL    HW2 1791   2.516   1.160   0.382  0.7427 -0.2481 -0.0268
  598SOL     OW 1792   0.606   0.369   2.024 -0.4223 -0.1256 -0.1964
  598SOL    HW1 1793   0.602   0.462   1.982  1.0040  1.7585 -1.9135
  598SOL    HW2 1794   0.520   0.356   2.079 -1.1214 -1.0945 -0.4278
  599SOL     OW 1795   2.500   1.724   0.167  0.2508  0.3066 -0.1366
  599SOL    HW1 1796   2.484   1.819   0.133  0.0219 -1.0261  0.9034
  599SOL    HW2 1797   2.563   1.733   0.245  2.7638  0.5923 -0.5065
  600SOL     OW 1798   0.882   0.885   0.143  0.4910  0.1176 -0.1839
  600SOL    HW1 1799   0.962   0.942   0.117  0.4656 -0.5800  1.1535
  600SOL    HW2 1800   0.795   0.929   0.110  1.3218 -0.6145  0.7648
  601SOL     OW 1801   1.329   0.933   0.095  0.5769 -0.2569 -0.4100
  601SOL    HW1 1802   1.237   0.977   0.082 -0.6052 -3.1006  0.0273
  601SOL    HW2 1803   1.327   0.840   0.052  0.2453 -0.6210  3.2199
  602SOL     OW 1804   0.975   3.056   1.668  0.6409 -0.4255 -0.4426
  602SOL    HW1 1805   1.017   3.149   1.680 -0.7604  0.9305  0.6540
  602SOL    HW2 1806   0.929   3.050   1.576  0.8082  0.5678  0.1229
  603SOL     OW 1807   0.919   2.797   2.319 -0.1713 -0.6678 -0.0653
  603SOL    HW1 1808   0.997   2.853   2.354  0.7816  1.4846  0.5034
  603SOL    HW2 1809   0.944   2.761   2.228  1.1071 -1.8890 -1.0578
  604SOL     OW 1810   0.044   0.052   1.922  0.1779  0.1886  0.0671
  604SOL    HW1 1811   0.094  -0.026   1.968  1.6503  0.3981 -1.2479
  604SOL    HW2 1812  -0.047   0.020   1.887  0.9675  0.2357 -1.1175
  605SOL     OW 1813   2.588   2.750   1.602 -0.1781  0.1853  0.4777
  605SOL    HW1 1814   2.545   2.677   1.659  3.1104 -0.9183 -0.7879
  605SOL    HW2 1815   2.689   2.751   1.617 -0.6228  2.2582  1.7041
  606SOL     OW 1816   0.036   1.904   2.486  0.0091 -0.3025  0.1276
  606SOL    HW1 1817   0.040   1.818   2.541  0.6760 -0.9991 -2.0975
  606SOL    HW2 1818   0.108   1.968   2.521  1.1777 -1.1205 -0.4753
  607SOL     OW 1819   0.801   0.077   0.623 -0.1885  0.4781 -0.4006
  607SOL    HW1 1820   0.799   0.167   0.573 -1.9325  0.8070  0.8166
  607SOL    HW2 1821   0.830   0.090   0.720 -1.4989 -0.0478 -1.0227
  608SOL     OW 1822   1.637   1.771   2.425 -0.0783 -0.0619  0.2085
  608SOL    HW1 1823   1.605   1.685   2.377 -1.6205 -1.4279 -0.1487
  608SOL    HW2 1824   1.656   1.842   2.355 -0.8461  1.0991  0.5304
  609SOL     OW 1825   3.008   0.286   1.251  0.0283  0.1232  0.1921
  609SOL    HW1 1826   3.073   0.359   1.220  0.4735 -0.3782 -0.2979
  609SOL    HW2 1827   3.045   0.247   1.338 -1.0919 -0.5162 -2.0135
  610SOL     OW 1828   0.895   2.371   3.013  0.6108  0.0777 -0.1669
  610SOL    HW1 1829   0.845   2.407   2.931 -1.0289  1.1492  0.3477
  610SOL    HW2 1830   0.848   2.406   3.098  0.8457  2.1236  1.3220
  611SOL     OW 1831   1.931   1.362   0.474  0.4172  0.5242  0.2538
  611SOL    HW1 1832   1.967   1.418   0.398 -1.2159  0.6890  1.9542
  611SOL    HW2 1833   1.842   1.329   0.435  4.6932 -0.0282  0.7727
  612SOL     OW 1834   0.977   2.594   2.493 -0.0282  0.2021  0.3868
  612SOL    HW1 1835   0.959   2.673   2.429  0.1929  3.5175 -2.3419
  612SOL    HW2 1836   0.910   2.518   2.477  2.1671 -0.6511 -1.1798
  613SOL     OW 1837   1.152   1.986   0.109  0.6973 -0.0888 -0.2905
  613SOL    HW1 1838   1.098   2.049   0.168  1.4025  0.8842 -0.9940
  613SOL    HW2 1839   1.093   1.966   0.027  0.8365 -1.4665  0.0186
  614SOL     OW 1840   2.606   2.336   1.591  0.0823 -0.3460 -0.2373
  614SOL    HW1 1841   2.586   2.284   1.505  0.1055  1.1713 -1.1919
  614SOL    HW2 1842   2.565   2.287   1.671 -1.4506  3.5874  1.8003
  615SOL     OW 1843   2.452   1.284   0.017 -0.2006 -0.0146  0.2419
  615SOL    HW1 1844   2.486   1.292  -0.080  0.1683 -0.3623  0.4733
  615SOL    HW2 1845   2.400   1.198   0.032 -0.1520 -0.1542 -1.9865
  616SOL     OW 1846   1.612   0.032   0.523  0.8382  0.4014  0.0249
  616SOL    HW1 1847   1.591  -0.005   0.616 -0.5871 -0.8696  0.6015
  616SOL    HW2 1848   1.714   0.040   0.517  0.8165 -0.5803 -1.8071
  617SOL     OW 1849   0.453   1.478   2.735  0.0081 -0.3092 -0.0112
  617SOL    HW1 1850   0.431   1.530   2.650  0.5729  0.6513  0.8915
  617SOL    HW2 1851   0.554   1.463   2.740  0.3821 -0.8550  0.1632
  618SOL     OW 1852   0.476   0.742   1.726 -0.2354 -0.4252  0.5454
  618SOL    HW1 1853   0.374   0.729   1.725  0.5959 -0.3801  1.0126
  618SOL    HW2 1854   0.512   0.689   1.646  0.9269  1.6167  2.1816
  619SOL     OW 1855   2.801   0.955   1.975  0.3508 -0.8524 -0.3401
  619SOL    HW1 1856   2.854   1.025   2.028  2.3125  2.0153  1.2860
  619SOL    HW2 1857   2.800   0.868   2.028 -1.4869 -3.2713 -2.0156
  620SOL     OW 1858   2.128   0.941   2.977  0.3599 -0.8243  0.1919
  620SOL    HW1 1859   2.166   0.901   2.891  0.7005 -2.4269 -0.7048
  620SOL    HW2 1860   2.034   0.981   2.963 -0.3797 -0.3016 -1.5130
  621SOL     OW 1861   2.400   2.949   1.211  0.2758  0.2526  0.2022
  621SOL    HW1 1862   2.469   2.895   1.263 -1.0773 -3.6174 -0.5691
  621SOL    HW2 1863   2.321   2.973   1.272  1.8534  0.1037 -0.5001
  622SOL     OW 1864   1.666   0.523   2.052  0.5665  0.4071 -0.0216
  622SOL    HW1 1865   1.683   0.454   1.979  2.1943 -0.6501 -0.9442
  622SOL    HW2 1866   1.594   0.586   2.017  0.2128  1.3492 -0.8747
  623SOL     OW 1867   1.483   0.942   2.410 -0.1618  0.3931 -0.7231
  623SOL    HW1 1868   1.573   0.945   2.362 -1.9685 -1.9010 -1.0085
  623SOL    HW2 1869   1.490   0.967   2.508  2.5505  1.1394 -0.4263
  624SOL     OW 1870   1.880   0.061   0.533 -0.1675 -0.7998  0.6485
  624SOL    HW1 1871   1.885   0.108   0.443  2.3466  2.7719  1.8908
  624SOL    HW2 1872   1.953  -0.012   0.538 -1.2883  0.4602  2.7778
  625SOL     OW 1873   0.667   1.496   0.426  0.2434 -0.0070 -0.1129
  625SOL    HW1 1874   0.734   1.421   0.448  0.9987 -0.8876  0.0548
  625SOL    HW2 1875   0.675   1.575   0.490  0.9231  1.3684 -2.2778
  626SOL     OW 1876   1.619   1.221   2.283 -0.1136 -0.2645  0.4271
  626SOL    HW1 1877   1.622   1.251   2.185  1.0589  2.4585 -1.6042
  626SOL    HW2 1878   1.519   1.220   2.308 -0.4315 -1.0878 -0.4095
  627SOL     OW 1879   0.850   0.587   1.815 -0.2196  0.1098 -0.1611
  627SOL    HW1 1880   0.917   0.647   1.863 -1.7032 -0.6775 -1.6200
  627SOL    HW2 1881   0.756   0.596   1.857  3.4241 -1.1676 -0.3430
  628SOL     OW 1882   2.065   0.797   2.255  0.1746 -0.7911 -0.0200
  628SOL    HW1 1883   1.989   0.746   2.211 -2.0707 -0.2132  0.1096
  628SOL    HW2 1884   2.145   0.805   2.192 -1.6422  0.7892 -0.4617
  629SOL     OW 1885   0.769   1.338   2.988  0.2118  0.0278 -0.2914
  629SOL    HW1 1886   0.749   1.381   2.897 -1.6505  0.0901  1.9678
  629SOL    HW2 1887   0.687   1.290   3.028  1.0687 -1.5129  2.2718
  630SOL     OW 1888   1.337   0.496   2.263 -0.6143 -0.2752  0.2929
  630SOL    HW1 1889   1.333   0.598   2.256  0.8539 -0.0492  0.1734
  630SOL    HW2 1890   1.433   0.465   2.282  1.2681  3.6652 -1.5622
  631SOL     OW 1891   2.568   0.719   0.871  0.2932  0.5579 -0.0301
  631SOL    HW1 1892   2.519   0.647   0.923 -1.5436 -1.2479  0.9182
  631SOL    HW2 1893   2.503   0.784   0.827 -2.1216  0.1203 -0.9811
  632SOL     OW 1894   2.698   1.714   0.701 -0.7726 -0.5199  0.0424
  632SOL    HW1 1895   2.667   1.644   0.634 -1.0573  1.6401 -0.4045
  632SOL    HW2 1896   2.768   1.775   0.657 -0.9635  2.8099  1.3005
  633SOL     OW 1897   0.698   1.298   0.749 -0.0702 -0.1790 -0.1051
  633SOL    HW1 1898   0.687   1.243   0.835  1.9620  1.3127  2.3913
  633SOL    HW2 1899   0.665   1.245   0.669  0.2116 -0.8947  0.3112
  634SOL     OW 1900   1.552   2.997   0.279 -0.7018 -0.3536  1.0516
  634SOL    HW1 1901   1.470   2.936   0.270  0.8438 -0.6059 -1.1756
  634SOL    HW2 1902   1.561   3.037   0.372 -1.4661  1.1517 -2.1573
  635SOL     OW 1903   1.981   0.283   1.736  0.0455 -0.6887 -0.2745
  635SOL    HW1 1904   2.018   0.247   1.648 -0.9949 -1.1903 -1.1788
  635SOL    HW2 1905   2.015   0.379   1.752 -0.2444 -1.1230  0.4892
  636SOL     OW 1906   1.375   0.659   0.694  0.0665  0.9862 -0.1913
  636SOL    HW1 1907   1.311   0.732   0.732 -0.6721 -0.0792  1.3816
  636SOL    HW2 1908   1.445   0.647   0.767 -2.6139 -0.2964  1.8799
  637SOL     OW 1909   1.960   1.471   2.866 -0.3139 -0.7694 -0.0230
  637SOL    HW1 1910   1.954   1.511   2.772 -0.3194 -0.4741 -1.3571
  637SOL    HW2 1911   1.866   1.462   2.907  0.0792 -4.8701 -0.4478
  638SOL     OW 1912   0.872   0.007   2.613  0.6404  0.0280  0.5816
  638SOL    HW1 1913   0.844  -0.075   2.669  1.2715  0.3911 -2.6578
  638SOL    HW2 1914   0.802   0.022   2.542  1.9748  4.3536 -0.4476
  639SOL     OW 1915   1.071   2.041   1.446  0.1029 -0.5342  0.1799
  639SOL    HW1 1916   0.998   2.013   1.380  1.3559  0.3534 -1.1801
  639SOL    HW2 1917   1.159   1.992   1.424 -0.3201  2.3894 -2.2018
  640SOL     OW 1918   0.425   0.128   2.764 -0.6748 -0.2388  0.9400
  640SOL    HW1 1919   0.346   0.095   2.821  3.6793  1.9218  1.9229
  640SOL    HW2 1920   0.457   0.060   2.696 -3.3920 -0.1348  0.9975
  641SOL     OW 1921   0.342   0.671   0.315  0.6055 -0.4111 -0.0809
  641SOL    HW1 1922   0.247   0.633   0.313 -0.7115 -0.7619 -0.6371
  641SOL    HW2 1923   0.340   0.771   0.338 -1.9922 -0.3665 -1.1874
  642SOL     OW 1924   0.310   1.630   1.096  0.0524 -0.3807  0.6673
  642SOL    HW1 1925   0.356   1.718   1.120  0.2363  0.2221  1.9459
  642SOL    HW2 1926   0.344   1.592   1.007 -2.3478 -1.3685  2.0014
  643SOL     OW 1927   0.803   1.710   2.708 -0.1741 -0.0815  0.6884
  643SOL    HW1 1928   0.749   1.790   2.739 -1.8765  0.9060  0.2582
  643SOL    HW2 1929   0.899   1.728   2.739 -0.2676 -2.5583 -1.8670
  644SOL     OW 1930   1.522   2.359   0.426 -0.0300  0.1139  0.0671
  644SOL    HW1 1931   1.612   2.363   0.376  0.3598  1.0007  1.3413
  644SOL    HW2 1932   1.538   2.343   0.525 -1.0108 -0.2513  1.2460
  645SOL     OW 1933   1.024   2.301   1.505  0.0808 -0.0802  0.2064
  645SOL    HW1 1934   1.044   2.204   1.480 -0.1252  1.6889  1.6452
  645SOL    HW2 1935   1.093   2.368   1.470  1.7103  2.9585  3.3103
  646SOL     OW 1936   0.522   2.519   0.066  0.0035  0.4418  0.2765
  646SOL    HW1 1937   0.610   2.494   0.111 -2.0918  0.4471  1.4665
  646SOL    HW2 1938   0.525   2.609   0.017 -0.7123 -3.8421  2.1917
  647SOL     OW 1939   0.150   2.906   2.056 -0.0314  0.3219 -0.1819
  647SOL    HW1 1940   0.097   2.917   2.142  1.3023  0.3235 -1.5027
  647SOL    HW2 1941   0.250   2.898   2.077  0.9984  4.4877 -1.5865
  648SOL     OW 1942   2.539   1.035   1.090 -0.4208 -0.0620  0.2864
  648SOL    HW1 1943   2.612   0.968   1.063  0.7042  1.5160 -1.4085
  648SOL    HW2 1944   2.462   0.986   1.138  1.9073  1.3726 -1.7928
  649SOL     OW 1945   2.104   2.643   2.708 -0.1851 -0.2744 -0.8274
  649SOL    HW1 1946   2.132   2.614   2.802 -1.4208 -2.4469  0.8639
  649SOL    HW2 1947   2.089   2.745   2.706 -2.2602  2.6635 -1.8930
  650SOL     OW 1948   2.743   2.140   1.905  0.2209 -0.8871  0.0957
  650SOL    HW1 1949   2.814   2.070   1.924 -0.1598  3.9575 -0.0770
  650SOL    HW2 1950   2.778   2.212   1.841  0.7249 -0.0398 -0.1470
  651SOL     OW 1951   1.069   1.731   2.761 -0.0511  0.3698  0.9282
  651SOL    HW1 1952   1.125   1.767   2.683  1.4630  2.1254  0.8449
  651SOL    HW2 1953   1.116   1.649   2.798  2.0483  0.3484  1.8962
  652SOL     OW 1954   0.496   0.073   2.170  0.0730  0.0159 -0.2166
  652SOL    HW1 1955   0.442   0.160   2.171  2.2977 -2.1884  2.6994
  652SOL    HW2 1956   0.563   0.077   2.247  2.0331  1.3776 -0.4195
  653SOL     OW 1957   1.988   1.817   0.796  0.0055 -0.3247 -0.2657
  653SOL    HW1 1958   2.019   1.728   0.837 -1.4302  1.5206  2.3844
  653SOL    HW2 1959   2.037   1.896   0.840 -1.1149 -0.4746 -2.9620
  654SOL     OW 1960   2.282   2.760   2.099 -0.3781  0.0645 -0.0126
  654SOL    HW1 1961   2.228   2.764   2.185  2.7175  0.3090  2.1555
  654SOL    HW2 1962   2.305   2.857   2.079 -0.9818  0.3541  1.7737
  655SOL     OW 1963   2.381   2.118   0.922  0.3409  0.0728 -0.1850
  655SOL    HW1 1964   2.359   2.209   0.964  1.5254  0.4712  2.3008
  655SOL    HW2 1965   2.294   2.074   0.894 -2.6215 -0.8021 -0.3563
  656SOL     OW 1966   2.649   1.546   2.822  0.4340  0.5251  0.1565
  656SOL    HW1 1967   2.687   1.634   2.785  1.1787  0.0266 -0.7536
  656SOL    HW2 1968   2.677   1.540   2.920  1.8351 -0.7330  0.0806
  657SOL     OW 1969   0.086   1.216   0.642 -0.1979  0.2637 -0.3691
  657SOL    HW1 1970   0.006   1.185   0.587  2.0833 -2.0689  1.0075
  657SOL    HW2 1971   0.062   1.234   0.739  1.6852  3.4053 -3.7605
  658SOL     OW 1972   1.128   1.671   1.323  0.9547 -0.1015 -0.1292
  658SOL    HW1 1973   1.173   1.627   1.242  1.2475  1.6928 -3.9796
  658SOL    HW2 1974   1.028   1.675   1.309 -0.9745  2.0434 -0.5683
  659SOL     OW 1975   1.330   0.100   1.423 -0.0020 -0.2670 -0.0274
  659SOL    HW1 1976   1.326   0.162   1.505 -2.2093 -0.9292 -2.1151
  659SOL    HW2 1977   1.269   0.130   1.347 -0.2164 -0.6506  0.4839
  660SOL     OW 1978   2.499   0.439   0.702  0.3676 -0.3967  0.2033
  660SOL    HW1 1979   2.421   0.492   0.741  2.0728  1.5391  0.8086
  660SOL    HW2 1980   2.542   0.490   0.624 -0.1179 -1.3513  0.6194
  661SOL     OW 1981   0.521   1.872   0.342  0.5769  0.3825 -0.3811
  661SOL    HW1 1982   0.562   1.796   0.287 -2.6722  0.7280  1.7011
  661SOL    HW2 1983   0.480   1.947   0.285  0.7950  2.3035  1.1916
  662SOL     OW 1984   2.267   0.809   2.074 -0.2554  0.2086  0.4272
  662SOL    HW1 1985   2.298   0.717   2.045  0.7155  0.0305 -2.1378
  662SOL    HW2 1986   2.230   0.858   1.992  1.5806  1.3045  2.3546
  663SOL     OW 1987   1.754   1.397   1.065 -0.0664 -0.6258  0.6093
  663SOL    HW1 1988   1.792   1.323   1.004 -2.9742 -0.3193  0.8642
  663SOL    HW2 1989   1.829   1.440   1.120 -1.2987  1.1808 -0.5070
  664SOL     OW 1990   0.591   2.995   1.205 -0.3079 -0.4736 -0.1940
  664SOL    HW1 1991   0.638   3.080   1.172  1.0109  2.7056  2.5263
  664SOL    HW2 1992   0.573   3.010   1.304  0.5680 -1.2802  0.2596
  665SOL     OW 1993   1.397   0.272   2.870  0.2611 -0.8834  0.2027
  665SOL    HW1 1994   1.461   0.195   2.850 -2.7069 -3.2468 -1.3079
  665SOL    HW2 1995   1.400   0.337   2.791  1.2146 -1.2845 -2.7239
  666SOL     OW 1996   0.915   0.610   2.166 -0.7244 -0.4855  0.0335
  666SOL    HW1 1997   0.884   0.514   2.181 -0.0976  2.0213 -0.9636
  666SOL    HW2 1998   0.830   0.667   2.162 -0.3083  1.3673  0.9071
  667SOL     OW 1999   1.358   1.347   1.449  0.1838  0.1869 -0.6823
  667SOL    HW1 2000   1.291   1.410   1.493 -1.3255 -3.8056  0.7524
  667SOL    HW2 2001   1.330   1.337   1.351  0.8011  1.0777  0.1763
  668SOL     OW 2002   0.346   1.090   2.065  0.0644 -0.0906 -0.1328
  668SOL    HW1 2003   0.431   1.074   2.120 -0.0295  2.5719 -2.0916
  668SOL    HW2 2004   0.347   1.184   2.023 -3.5679 -0.0282  0.2814
  669SOL     OW 2005   2.577   2.492   2.858  0.2255 -0.1910 -0.0933
  669SOL    HW1 2006   2.532   2.429   2.791 -0.2733 -1.8621 -0.1286
  669SOL    HW2 2007   2.562   2.458   2.954 -1.3166  0.1630 -2.0841
  670SOL     OW 2008   2.594   1.267   1.713  0.6051  0.3054  0.2812
  670SOL    HW1 2009   2.693   1.292   1.696 -1.0185 -1.3274  1.1760
  670SOL    HW2 2010   2.587   1.184   1.772 -0.7488 -1.2738 -1.1699
  671SOL     OW 2011   2.891   1.870   0.586  0.1875 -0.2733  0.0565
  671SOL    HW1 2012   2.885   1.972   0.580  1.6869 -0.0371  0.6380
  671SOL    HW2 2013   2.908   1.831   0.493 -2.8936 -1.0279 -0.4778
  672SOL     OW 2014   1.582   0.953   1.907 -0.5371  0.5084 -0.2971
  672SOL    HW1 2015   1.667   0.996   1.943 -2.8198  2.1489  1.7796
  672SOL    HW2 2016   1.578   0.967   1.806 -1.1812  1.5717  1.8517
  673SOL     OW 2017   2.884   2.048   1.475 -0.0559 -0.8457  0.0334
  673SOL    HW1 2018   2.884   2.146   1.452  1.1999  0.5220 -0.1916
  673SOL    HW2 2019   2.844   1.994   1.399  1.6558 -0.4298 -0.1426
  674SOL     OW 2020   0.619   2.018   1.585 -0.2253  0.3671  0.5613
  674SOL    HW1 2021   0.677   1.983   1.662 -1.9659 -0.7862  2.4436
  674SOL    HW2 2022   0.542   2.069   1.629  2.6431 -0.7387  0.2499
  675SOL     OW 2023   2.878   0.727   1.196 -0.2648 -0.3110  0.4556
  675SOL    HW1 2024   2.966   0.758   1.237 -0.3777  1.6656 -1.9251
  675SOL    HW2 2025   2.881   0.628   1.172 -0.5642 -0.8609  2.0398
  676SOL     OW 2026   2.856   0.860   1.727  0.1542  0.5938 -0.2374
  676SOL    HW1 2027   2.842   0.896   1.822  1.2286  1.2937 -1.7106
  676SOL    HW2 2028   2.782   0.792   1.709  0.9326 -0.5037  2.6496
  677SOL     OW 2029   2.052   1.111   2.491  0.0283 -0.0708  0.4392
  677SOL    HW1 2030   1.963   1.161   2.498  1.0234 -0.5261  0.4376
  677SOL    HW2 2031   2.118   1.146   2.559  0.9114 -0.4001 -0.5542
  678SOL     OW 2032   2.494   1.462   1.099 -0.0489  0.0630  0.3785
  678SOL    HW1 2033   2.507   1.387   1.030  1.9018  1.2964  0.7779
  678SOL    HW2 2034   2.585   1.485   1.141  1.1948 -1.2628 -1.6724
  679SOL     OW 2035   0.128   2.707   0.022 -0.4195  0.0400 -0.4163
  679SOL    HW1 2036   0.158   2.628  -0.035 -1.6480 -0.9532 -1.1450
  679SOL    HW2 2037   0.116   2.675   0.118  0.5742 -0.3171 -1.2032
  680SOL     OW 2038   0.044   1.618   1.137  0.0067  0.5175  0.0755
  680SOL    HW1 2039   0.143   1.627   1.110 -0.1387  1.6167 -0.1698
  680SOL    HW2 2040   0.024   1.681   1.215 -2.7344  0.6779 -0.3395
  681SOL     OW 2041   0.884   0.109   0.878 -0.3400  0.0511 -0.2959
  681SOL    HW1 2042   0.834   0.142   0.960 -0.7677 -3.2692  0.1428
  681SOL    HW2 2043   0.976   0.155   0.882 -1.4115 -2.1474 -2.1580
  682SOL     OW 2044   2.061   2.404   1.606  0.1509  0.3537  0.0587
  682SOL    HW1 2045   2.131   2.340   1.646  1.6225  1.0510  0.4418
  682SOL    HW2 2046   2.017   2.357   1.526  2.8224 -0.3321  3.2536
  683SOL     OW 2047   2.602   1.770   1.676 -0.2904 -0.8924  0.6643
  683SOL    HW1 2048   2.571   1.846   1.615 -1.5347  1.2342 -2.4675
  683SOL    HW2 2049   2.698   1.744   1.648 -2.6186  1.0890 -2.9563
  684SOL     OW 2050   3.025   1.490   1.778  0.4941  0.0504  0.5769
  684SOL    HW1 2051   3.021   1.510   1.878  0.9928 -0.5396  0.5512
  684SOL    HW2 2052   3.121   1.462   1.757 -0.9551 -1.3805 -2.1537
  685SOL     OW 2053   1.397   1.390   0.230  0.6569  0.3016 -0.1003
  685SOL    HW1 2054   1.419   1.451   0.308  0.6291 -3.0759 -0.3028
  685SOL    HW2 2055   1.486   1.349   0.198 -0.2968 -1.6502 -1.5172
  686SOL     OW 2056   2.876   0.574   1.880  0.1464 -0.1719 -0.5707
  686SOL    HW1 2057   2.968   0.572   1.836 -2.1317 -0.1118 -0.5846
  686SOL    HW2 2058   2.799   0.607   1.822  1.3832  0.6893  0.5294
  687SOL     OW 2059   1.556   0.055   2.847 -0.3839  0.2091  0.3918
  687SOL    HW1 2060   1.487  -0.007   2.804 -0.5822 -0.3946  1.5677
  687SOL    HW2 2061   1.585   0.016   2.937 -2.7738  0.3767  1.6286
  688SOL     OW 2062   1.225   1.807   2.547 -0.1088 -0.5342 -0.3506
  688SOL    HW1 2063   1.226   1.715   2.501  2.4751  1.1241  0.1411
  688SOL    HW2 2064   1.318   1.832   2.581  2.2712  1.7940 -0.2221
  689SOL     OW 2065   2.195   1.608   1.441  0.6994  0.5993 -0.3134
  689SOL    HW1 2066   2.108   1.558   1.459  2.8260 -0.2057  0.3700
  689SOL    HW2 2067   2.260   1.546   1.390  1.7134 -1.1941  0.6514
  690SOL     OW 2068   2.321   2.134   1.260  0.3106  0.3378 -0.2407
  690SOL    HW1 2069   2.251   2.125   1.333  0.5597 -0.2208 -2.3361
  690SOL    HW2 2070   2.309   2.056   1.196 -1.2419  0.3339 -0.4745
  691SOL     OW 2071   0.237   1.653   0.675  0.1408  0.6452  0.0798
  691SOL    HW1 2072   0.271   1.728   0.614  0.5131  0.0121 -1.1042
  691SOL    HW2 2073   0.144   1.681   0.709  0.0915  0.9148  0.4867
  692SOL     OW 2074   2.726   2.950   2.907  0.2287  0.4331 -0.3785
  692SOL    HW1 2075   2.828   2.962   2.907 -4.2274 -1.3426 -0.6183
  692SOL    HW2 2076   2.689   2.993   2.823 -1.5034 -0.4867  1.9438
  693SOL     OW 2077   0.311   1.344   1.982  0.3145  0.3218 -0.3631
  693SOL    HW1 2078   0.276   1.365   1.888 -2.2196  1.7122 -0.9584
  693SOL    HW2 2079   0.242   1.374   2.051  0.3561 -0.9281 -0.9344
  694SOL     OW 2080   2.468   0.354   2.014 -0.4357 -0.5442 -0.4146
  694SOL    HW1 2081   2.569   0.365   2.015 -1.4433 -1.9478 -0.0087
  694SOL    HW2 2082   2.434   0.332   1.919  0.4121 -0.1450  0.0741
  695SOL     OW 2083   1.480   0.721   2.007  0.8830  0.8595 -0.8944
  695SOL    HW1 2084   1.440   0.739   2.100 -2.2576  0.7574  1.6233
  695SOL    HW2 2085   1.524   0.806   1.971 -0.5019  1.8619  0.3936
  696SOL     OW 2086   2.156   2.852   1.676  0.2807  0.6441 -0.1516
  696SOL    HW1 2087   2.125   2.896   1.763  1.2009 -2.5264 -0.9552
  696SOL    HW2 2088   2.084   2.875   1.606 -0.0336 -1.4594  2.2536
  697SOL     OW 2089   1.020   0.745   1.961  0.5809  0.9848  0.9896
  697SOL    HW1 2090   0.994   0.687   2.042  1.0103  1.1102 -0.1445
  697SOL    HW2 2091   1.110   0.712   1.925  2.3305 -1.3773 -0.4841
  698SOL     OW 2092   2.241   1.635   2.689  0.3302  0.1972 -0.0082
  698SOL    HW1 2093   2.331   1.602   2.652 -1.4151 -1.2715  0.7613
  698SOL    HW2 2094   2.234   1.617   2.790  1.0696  1.0116 -1.2123
  699SOL     OW 2095   2.385   1.067   0.314  0.6201  0.2635 -0.2528
  699SOL    HW1 2096   2.312   1.009   0.359 -0.0659 -0.1729 -2.5266
  699SOL    HW2 2097   2.368   1.069   0.214 -2.8104  0.1383  1.0061
  700SOL     OW 2098   1.258   3.030   0.959  0.1791 -0.0866  0.5816
  700SOL    HW1 2099   1.280   2.987   0.869 -0.0425  0.6063 -3.0556
  700SOL    HW2 2100   1.312   2.986   1.034 -2.7312 -0.0485 -1.1779
  701SOL     OW 2101   2.941   0.458   0.742  0.1805  0.1552  0.1726
  701SOL    HW1 2102   2.883   0.539   0.715 -0.3881  1.3461 -0.4758
  701SOL    HW2 2103   3.005   0.491   0.814 -2.6553 -1.7549 -2.5923
  702SOL     OW 2104   1.532   2.522   1.234  0.1079  0.2566  0.1367
  702SOL    HW1 2105   1.542   2.434   1.284 -0.6372 -0.3638  1.4421
  702SOL    HW2 2106   1.547   2.603   1.295  0.7187 -0.7084  2.5527
  703SOL     OW 2107   0.081   0.515   1.189 -0.6625  0.4300  0.0398
  703SOL    HW1 2108   0.041   0.548   1.278  0.1024 -0.9290 -4.0279
  703SOL    HW2 2109   0.180   0.496   1.203  1.2058 -0.9885 -0.6933
  704SOL     OW 2110   1.045   2.812   1.765 -0.6733  0.2151 -0.3433
  704SOL    HW1 2111   1.020   2.904   1.725 -1.5748  0.6549 -1.1658
  704SOL    HW2 2112   0.964   2.770   1.811 -1.6797  2.2238 -1.5345
  705SOL     OW 2113   0.057   1.956   3.011  0.7108 -0.0985 -0.1140
  705SOL    HW1 2114   0.110   1.896   3.078 -1.3655  1.7057 -1.6539
  705SOL    HW2 2115  -0.032   1.981   3.054  0.1138  1.7667  2.9169
  706SOL     OW 2116   0.089   0.566   0.303  0.1535  0.2002  0.9003
  706SOL    HW1 2117   0.066   0.530   0.210  1.2422  1.0172  1.6147
  706SOL    HW2 2118   0.048   0.501   0.372 -2.7572  0.6721 -1.1262
  707SOL     OW 2119   1.919   2.619   1.955 -0.1220 -0.4033 -0.1761
  707SOL    HW1 2120   1.953   2.528   1.988  0.1814 -1.0252 -0.8367
  707SOL    HW2 2121   1.949   2.698   2.010  0.3121 -0.4946  2.3844
  708SOL     OW 2122   0.563   3.019   1.477 -0.5247  0.4476 -0.6616
  708SOL    HW1 2123   0.555   2.927   1.523 -2.5797 -4.5132  0.2567
  708SOL    HW2 2124   0.512   3.086   1.535  0.3469 -1.3958  1.3144
  709SOL     OW 2125   0.208   0.715   1.743  0.2765 -0.0303 -0.1453
  709SOL    HW1 2126   0.137   0.744   1.676  0.0330  0.4345 -2.3361
  709SOL    HW2 2127   0.206   0.785   1.819 -0.1600  2.1374  2.3356
  710SOL     OW 2128   0.234   0.586   0.761  0.4992 -0.0708 -0.2754
  710SOL    HW1 2129   0.159   0.575   0.830 -4.6024  2.0648 -0.2028
  710SOL    HW2 2130   0.211   0.665   0.702 -3.3454 -1.0315  0.7932
  711SOL     OW 2131   2.363   2.295   2.022  0.0374  0.3209 -0.5103
  711SOL    HW1 2132   2.382   2.290   2.122  0.7524 -3.1364 -2.5017
  711SOL    HW2 2133   2.323   2.387   2.003 -0.3475 -2.3754 -0.5955
  712SOL     OW 2134   0.194   2.688   2.385 -0.2221  0.1770  0.5176
  712SOL    HW1 2135   0.176   2.779   2.430 -0.0821  0.4561 -0.5014
  712SOL    HW2 2136   0.131   2.673   2.305  0.2857  1.8271 -1.2929
  713SOL     OW 2137   2.315   0.224   0.659  0.3351 -0.2257 -0.1037
  713SOL    HW1 2138   2.385   0.291   0.693  2.6672  2.0418 -0.4060
  713SOL    HW2 2139   2.313   0.218   0.557 -0.1909  0.7668 -1.9287
  714SOL     OW 2140   1.687   1.378   2.664  0.1505 -0.1443 -0.4823
  714SOL    HW1 2141   1.696   1.481   2.666  0.0487 -0.3205  0.0413
  714SOL    HW2 2142   1.751   1.340   2.595 -1.9229  0.3065  0.9539
  715SOL     OW 2143   0.027   0.589   0.932  0.4926 -0.4437  0.4067
  715SOL    HW1 2144   0.043   0.563   1.030  2.1217 -1.0752  0.0497
  715SOL    HW2 2145   0.006   0.689   0.928  1.7147 -0.2667 -1.0849
  716SOL     OW 2146   0.827   0.697   1.568  0.3297 -0.1943  0.7320
  716SOL    HW1 2147   0.737   0.661   1.535 -0.5979 -2.3028  1.5228
  716SOL    HW2 2148   0.849   0.657   1.659  0.4510 -0.9163  0.6168
  717SOL     OW 2149   1.353   0.767   2.245 -0.3044 -0.6172 -0.1501
  717SOL    HW1 2150   1.401   0.826   2.313  1.8119  0.9798 -1.1011
  717SOL    HW2 2151   1.269   0.815   2.211 -1.0420 -1.2135  0.9378
  718SOL     OW 2152   1.238   0.025   0.507  0.1643  0.1267 -0.1636
  718SOL    HW1 2153   1.242   0.120   0.547  0.5243  1.9233  0.9154
  718SOL    HW2 2154   1.231   0.041   0.406 -2.9183  2.0390 -0.7162
  719SOL     OW 2155   2.980   2.727   2.739 -0.4239  0.0017  0.1095
  719SOL    HW1 2156   2.881   2.700   2.731 -3.4066  0.2326  0.6296
  719SOL    HW2 2157   3.039   2.645   2.750 -1.7498 -0.1166 -2.3789
  720SOL     OW 2158   1.472   0.359   1.821  0.1237  0.0508 -0.2030
  720SOL    HW1 2159   1.415   0.356   1.907 -0.9952  2.7496  0.3931
  720SOL    HW2 2160   1.569   0.337   1.844 -1.8931  1.0713 -2.8854
  721SOL     OW 2161   0.098   2.783   1.103 -0.2707 -0.3712 -0.2482
  721SOL    HW1 2162   0.074   2.878   1.073  0.8497 -0.1634  1.2552
  721SOL    HW2 2163   0.022   2.719   1.077  1.1065  0.0379  1.2625
  722SOL     OW 2164   0.844   1.025   2.722 -0.4450 -0.0817  0.5330
  722SOL    HW1 2165   0.820   1.108   2.668 -1.7762  0.1562  0.2079
  722SOL    HW2 2166   0.896   1.058   2.804  1.5963 -0.8547  1.3954
  723SOL     OW 2167   2.022   1.231   1.315 -0.1958 -0.5158 -0.0150
  723SOL    HW1 2168   2.082   1.260   1.238  0.8634 -0.0656  0.6666
  723SOL    HW2 2169   1.993   1.308   1.376  1.6196 -0.0840 -4.4344
  724SOL     OW 2170   0.911   1.869   0.335  0.5408  0.5210 -0.1347
  724SOL    HW1 2171   0.963   1.791   0.374 -1.8706 -1.4513  2.5090
  724SOL    HW2 2172   0.892   1.850   0.236 -1.2471  0.7074  1.8054
  725SOL     OW 2173   0.010   0.783   1.576 -0.9962  0.4028  0.3687
  725SOL    HW1 2174   0.012   0.832   1.487  1.6698 -2.0508  0.2697
  725SOL    HW2 2175  -0.069   0.818   1.631  2.2098 -1.5294  2.1168
  726SOL     OW 2176   2.346   1.039   0.041  0.2216 -0.7227 -0.5359
  726SOL    HW1 2177   2.255   1.020  -0.001 -0.3024  0.2482 -0.4541
  726SOL    HW2 2178   2.403   0.952   0.041  2.5919  1.5008  0.1142
  727SOL     OW 2179   2.146   0.852   2.500  0.7226 -0.0636 -0.1252
  727SOL    HW1 2180   2.117   0.948   2.515 -2.0018 -1.8005 -2.5275
  727SOL    HW2 2181   2.127   0.821   2.403  0.6330 -3.5815 -0.0234
  728SOL     OW 2182   1.790   1.863   1.439  0.2463  0.0988  0.1787
  728SOL    HW1 2183   1.889   1.851   1.416 -3.2462  2.4305  1.0751
  728SOL    HW2 2184   1.751   1.928   1.369 -2.2737  1.3971  2.1439
  729SOL     OW 2185   1.813   1.069   2.010 -0.2396  0.2704 -0.2554
  729SOL    HW1 2186   1.751   1.152   2.012  0.1882 -0.4115 -0.1237
  729SOL    HW2 2187   1.909   1.103   2.007 -0.5798 -4.3960 -0.9004
  730SOL     OW 2188   1.371   0.648   1.094 -0.1846 -0.1512 -1.0636
  730SOL    HW1 2189   1.357   0.550   1.120  2.9471  0.3245 -0.6382
  730SOL    HW2 2190   1.445   0.649   1.023 -1.9928 -0.5847  0.0973
  731SOL     OW 2191   0.532   0.763   2.994  0.3917  0.2592 -0.3738
  731SOL    HW1 2192   0.547   0.718   2.904 -0.8417 -0.1826 -0.3568
  731SOL    HW2 2193   0.526   0.693   3.069  0.5433  1.4655 -1.1228
  732SOL     OW 2194   0.364   0.938   0.380  1.0621 -0.3648  0.3388
  732SOL    HW1 2195   0.458   0.975   0.367  3.3298  0.9892  3.8198
  732SOL    HW2 2196   0.329   0.972   0.470  0.2070 -1.4359  0.7405
  733SOL     OW 2197   1.306   1.633   2.169 -0.3540  0.0614 -0.5356
  733SOL    HW1 2198   1.236   1.707   2.161 -1.5670  1.3502 -1.6657
  733SOL    HW2 2199   1.341   1.604   2.077  1.1146  0.3792  0.7454
  734SOL     OW 2200   0.400   2.328   2.973 -0.6029 -0.7033 -0.3942
  734SOL    HW1 2201   0.453   2.390   3.034 -0.3022 -1.0501 -0.9747
  734SOL    HW2 2202   0.344   2.256   3.019 -1.2327 -1.9750 -1.1262
  735SOL     OW 2203   2.681   0.139   0.987  0.1313 -0.1945  0.1564
  735SOL    HW1 2204   2.728   0.125   1.077  0.0516  1.0951 -0.1281
  735SOL    HW2 2205   2.693   0.236   0.954 -2.6613 -2.6986  2.9792
  736SOL     OW 2206   1.967   1.469   2.334 -0.0701  0.2002 -0.3762
  736SOL    HW1 2207   2.062   1.439   2.309 -1.5343  0.8887  0.0285
  736SOL    HW2 2208   1.973   1.525   2.420 -0.1994 -1.5961  1.6968
  737SOL     OW 2209   0.002   0.799   0.403  0.3302  0.0829 -0.7026
  737SOL    HW1 2210   0.005   0.866   0.326  1.7262  0.6332  1.6033
  737SOL    HW2 2211   0.025   0.706   0.368  0.6863 -0.2863 -1.0721
  738SOL     OW 2212   0.881   1.968   1.262  0.3574 -1.4800 -0.3568
  738SOL    HW1 2213   0.837   1.890   1.215 -0.7644  0.2116 -1.0317
  738SOL    HW2 2214   0.810   2.036   1.289  0.6388  1.5110  1.5279
  739SOL     OW 2215   1.766   2.535   2.343 -0.3634  0.7631 -0.0214
  739SOL    HW1 2216   1.807   2.552   2.437  0.1999 -0.1906  1.5403
  739SOL    HW2 2217   1.759   2.623   2.292  0.4778 -0.5571 -0.5591
  740SOL     OW 2218   2.316   2.335   1.072  0.2467 -0.8971  0.1099
  740SOL    HW1 2219   2.328   2.282   1.159 -0.9591  1.2957 -0.2457
  740SOL    HW2 2220   2.359   2.428   1.087  1.3053  0.4829  1.9858
  741SOL     OW 2221   2.332   0.623   0.157  0.0074 -0.0586 -0.0970
  741SOL    HW1 2222   2.319   0.549   0.088  1.9679  0.4178  3.9281
  741SOL    HW2 2223   2.350   0.577   0.246  0.8592  2.7129  1.9485
  742SOL     OW 2224   1.147   2.380   0.065 -0.4867 -0.0469  0.6619
  742SOL    HW1 2225   1.060   2.380   0.011  1.5196  1.3233 -0.6285
  742SOL    HW2 2226   1.173   2.477   0.081  0.5564  1.4096 -0.2741
  743SOL     OW 2227   2.560   1.400   2.043  0.0010 -0.0584  0.2934
  743SOL    HW1 2228   2.499   1.412   1.961 -1.7375 -1.3593  0.3449
  743SOL    HW2 2229   2.546   1.308   2.085  2.0522  2.7003  0.6732
  744SOL     OW 2230   2.918   0.173   0.388  0.2612 -0.0703  0.8315
  744SOL    HW1 2231   2.838   0.192   0.450 -1.3173 -2.7491 -2.5043
  744SOL    HW2 2232   2.894   0.099   0.322  0.2703 -2.0307  1.0539
  745SOL     OW 2233   2.556   1.756   1.303  0.2582  0.1102 -0.3531
  745SOL    HW1 2234   2.610   1.670   1.294  0.3578 -0.9477  0.4135
  745SOL    HW2 2235   2.492   1.755   1.224  1.8734  1.1217  0.1014
  746SOL     OW 2236   1.056   1.649   0.417 -0.5336  0.2692  0.2763
  746SOL    HW1 2237   1.030   1.639   0.516 -0.1211  0.3675  2.2469
  746SOL    HW2 2238   1.039   1.563   0.363  1.6386 -1.2403  2.5492
  747SOL     OW 2239   1.173   1.526   1.546  0.0751 -0.1317  0.0395
  747SOL    HW1 2240   1.171   1.587   1.464  1.8394 -0.8230  0.6186
  747SOL    HW2 2241   1.091   1.464   1.551  0.1009 -2.9900 -0.3230
  748SOL     OW 2242   0.282   2.873   2.933  0.5639  0.2176  0.0195
  748SOL    HW1 2243   0.222   2.812   2.990 -0.2946 -1.0077 -3.8632
  748SOL    HW2 2244   0.262   2.971   2.952 -0.8350 -1.8117  2.1853
  749SOL     OW 2245   0.226   1.055   2.820 -1.0895 -0.1961 -0.3272
  749SOL    HW1 2246   0.241   0.980   2.888  1.3229 -2.1389  0.1409
  749SOL    HW2 2247   0.258   1.027   2.727 -0.6755 -1.6986  1.7874
  750SOL     OW 2248   1.596   0.992   1.634 -0.1714  0.1818  0.3416
  750SOL    HW1 2249   1.522   1.027   1.572  0.2231 -2.4325  1.0520
  750SOL    HW2 2250   1.666   1.068   1.641 -1.6189  0.4473 -2.2095
  751SOL     OW 2251   2.885   0.886   0.590  0.1746 -0.3549  0.4783
  751SOL    HW1 2252   2.947   0.845   0.520  1.8356  2.1962  1.0457
  751SOL    HW2 2253   2.902   0.987   0.593  0.4871  1.1786  1.8692
  752SOL     OW 2254   2.820   2.754   0.891 -0.1078  0.2459 -0.2258
  752SOL    HW1 2255   2.837   2.855   0.899 -0.4900 -1.1408 -0.0756
  752SOL    HW2 2256   2.867   2.701   0.965  0.7934  2.2304  0.2276
  753SOL     OW 2257   0.646   2.519   1.253  0.5745  0.9771 -0.2019
  753SOL    HW1 2258   0.697   2.459   1.319 -0.5301 -1.8405  0.6883
  753SOL    HW2 2259   0.641   2.477   1.160  1.0620  0.0312 -0.1596
  754SOL     OW 2260   2.919   2.661   1.904  0.6940 -0.2323  0.3044
  754SOL    HW1 2261   2.886   2.742   1.958  3.5665 -1.7959  2.0481
  754SOL    HW2 2262   2.887   2.576   1.950  1.7480  1.0661  0.3449
  755SOL     OW 2263   2.476   0.812   0.026  0.3264 -0.2755 -0.1213
  755SOL    HW1 2264   2.557   0.770  -0.020  3.9133  0.0577 -0.1353
  755SOL    HW2 2265   2.431   0.736   0.079  1.2856  1.0625 -0.5514
  756SOL     OW 2266   1.825   2.099   0.219 -0.5448  0.3477 -0.3740
  756SOL    HW1 2267   1.829   2.134   0.123 -0.8209 -1.4591  3.0864
  756SOL    HW2 2268   1.904   2.038   0.244  1.9573 -1.3922 -0.8685
  757SOL     OW 2269   2.601   0.590   0.497 -0.0430  0.2075  0.7767
  757SOL    HW1 2270   2.583   0.673   0.439 -1.2207  2.2903  1.3454
  757SOL    HW2 2271   2.678   0.615   0.559 -0.3401  1.0247 -0.2123
  758SOL     OW 2272   2.146   0.939   1.869  0.0046  0.4681 -0.3181
  758SOL    HW1 2273   2.059   0.887   1.858  1.5300 -2.7932 -0.6875
  758SOL    HW2 2274   2.123   1.032   1.907 -1.2321  3.2084  1.1598
  759SOL     OW 2275   2.632   0.475   1.305 -0.1516  0.5912 -0.0286
  759SOL    HW1 2276   2.556   0.540   1.282  1.2081  0.6805 -2.3232
  759SOL    HW2 2277   2.704   0.474   1.231 -2.2879  2.9826 -0.9209
  760SOL     OW 2278   0.538   1.392   1.372 -0.6996 -0.1280 -0.8968
  760SOL    HW1 2279   0.448   1.441   1.375 -0.1659 -1.6582 -1.7547
  760SOL    HW2 2280   0.533   1.300   1.417 -0.5350 -1.0423 -0.1970
  761SOL     OW 2281   0.782   0.627   0.106 -0.2019 -0.0332 -0.2230
  761SOL    HW1 2282   0.683   0.612   0.127 -1.6201 -0.0147  1.7737
  761SOL    HW2 2283   0.809   0.725   0.119  3.3390  0.0109  2.0560
  762SOL     OW 2284   0.698   1.773   1.170  0.0935 -0.3453  0.6755
  762SOL    HW1 2285   0.736   1.685   1.135  0.0120  0.1868 -2.7489
  762SOL    HW2 2286   0.677   1.763   1.270 -2.4127 -1.5729 -0.2325
  763SOL     OW 2287   1.259   0.687   1.854  0.3573  0.8449 -1.1576
  763SOL    HW1 2288   1.282   0.631   1.772 -1.9134  0.2135 -0.9416
  763SOL    HW2 2289   1.338   0.696   1.919  1.2224  1.2227 -0.2079
  764SOL     OW 2290   2.996   2.958   2.889  0.0593  0.0596 -0.6092
  764SOL    HW1 2291   3.044   2.955   2.980  1.8218 -0.0217 -1.3828
  764SOL    HW2 2292   3.009   2.868   2.844 -0.2980  0.7194 -2.1098
  765SOL     OW 2293   0.772   3.041   1.851 -0.3208 -0.0964 -0.0723
  765SOL    HW1 2294   0.700   3.113   1.855  1.7174  2.1848 -0.8620
  765SOL    HW2 2295   0.836   3.054   1.772  1.7638 -0.2437  2.9749
  766SOL     OW 2296   2.714   1.872   2.246 -0.2984 -0.1993  0.7344
  766SOL    HW1 2297   2.634   1.831   2.295 -0.9742 -2.5440 -0.1819
  766SOL    HW2 2298   2.804   1.840   2.282  0.6382  0.5143  3.1548
  767SOL     OW 2299   1.359   1.205   2.353  0.0861 -0.2151 -0.4021
  767SOL    HW1 2300   1.358   1.105   2.367  1.3149  1.0128 -1.1334
  767SOL    HW2 2301   1.276   1.238   2.304 -1.2380  0.1824 -0.0630
  768SOL     OW 2302   1.496   1.730   0.170  0.6302  0.3298  0.4665
  768SOL    HW1 2303   1.396   1.733   0.191 -0.8858 -1.7099 -2.1051
  768SOL    HW2 2304   1.545   1.733   0.259 -0.8737 -2.3553  2.8551
  769SOL     OW 2305   0.400   1.544   0.859 -0.2415 -0.3012  0.6001
  769SOL    HW1 2306   0.343   1.584   0.784  0.5716 -2.0312  1.5665
  769SOL    HW2 2307   0.499   1.557   0.836  1.1867  2.2469  0.4968
  770SOL     OW 2308   1.645   0.634   2.486  0.1130 -0.3623 -0.1423
  770SOL    HW1 2309   1.713   0.711   2.480 -1.9285 -0.6404  1.1088
  770SOL    HW2 2310   1.551   0.670   2.502 -0.1540 -0.8558 -0.9258
  771SOL     OW 2311   2.480   0.044   2.395  0.1613  0.0440 -0.4922
  771SOL    HW1 2312   2.439   0.085   2.311 -1.5374  1.4748 -1.9565
  771SOL    HW2 2313   2.414   0.028   2.469 -1.1391 -1.8777 -2.1175
  772SOL     OW 2314   2.468   1.647   2.116 -0.0666  0.4047 -0.0113
  772SOL    HW1 2315   2.368   1.634   2.100  0.4692  1.1498  1.0206
  772SOL    HW2 2316   2.519   1.561   2.092 -2.1854  2.0976 -0.4740
  773SOL     OW 2317   0.946   1.383   1.516  0.0832 -0.2371  0.0243
  773SOL    HW1 2318   0.968   1.335   1.428 -1.6381  2.1076  3.6283
  773SOL    HW2 2319   0.868   1.447   1.500  0.9760  0.7010  0.8285
  774SOL     OW 2320   1.127   0.645   2.849  0.1187  0.0040  0.0797
  774SOL    HW1 2321   1.125   0.555   2.802  0.5258 -0.0188  3.5012
  774SOL    HW2 2322   1.039   0.696   2.833 -0.9821  2.0762 -2.5310
  775SOL     OW 2323   1.376   2.160   0.321  0.0011 -0.0552 -0.4017
  775SOL    HW1 2324   1.424   2.245   0.356 -1.2913 -1.0967 -0.2364
  775SOL    HW2 2325   1.374   2.172   0.219  0.5499 -1.2132  1.3531
  776SOL     OW 2326   2.964   1.084   1.629  0.2117  0.1894 -0.4986
  776SOL    HW1 2327   3.059   1.081   1.669 -1.6104 -2.9161 -1.3082
  776SOL    HW2 2328   2.911   1.003   1.661 -0.4395 -1.1016 -2.7250
  777SOL     OW 2329   2.437   2.277   2.279  0.5945  0.3204 -0.2377
  777SOL    HW1 2330   2.473   2.372   2.285  1.0994 -0.8497  3.4844
  777SOL    HW2 2331   2.514   2.215   2.253 -0.4863  1.6706 -2.0360
  778SOL     OW 2332   1.654   1.286   2.022 -0.2032 -0.0667  0.3290
  778SOL    HW1 2333   1.588   1.303   1.945 -1.4165  0.2479  0.0461
  778SOL    HW2 2334   1.702   1.370   2.054  0.7786 -1.3229 -1.2902
  779SOL     OW 2335   2.915   1.152   0.528  0.6740 -0.7441  0.2164
  779SOL    HW1 2336   2.870   1.241   0.549 -0.1792 -1.7991  0.2748
  779SOL    HW2 2337   2.887   1.121   0.433  0.3417  0.5560  0.0347
  780SOL     OW 2338   2.058   2.910   2.722  0.4792 -0.2111 -0.5920
  780SOL    HW1 2339   1.993   2.972   2.673  1.5320 -0.3084  0.1055
  780SOL    HW2 2340   2.054   2.928   2.823 -0.5329  0.7785  1.0031
  781SOL     OW 2341   2.714   1.544   1.227  0.0389  0.3559 -0.4040
  781SOL    HW1 2342   2.777   1.567   1.149 -0.4802 -1.1896 -1.1119
  781SOL    HW2 2343   2.772   1.510   1.304 -1.0736  2.2562  1.5360
  782SOL     OW 2344   2.892   2.280   2.817 -0.6116 -0.3231 -0.1153
  782SOL    HW1 2345   2.850   2.283   2.910 -0.9318  2.1649  0.3208
  782SOL    HW2 2346   2.819   2.270   2.746 -0.8453  0.6898 -1.0521
  783SOL     OW 2347   0.664   1.563   0.794 -0.1376 -0.1352  0.3028
  783SOL    HW1 2348   0.674   1.463   0.770  1.0064 -0.2525  2.3099
  783SOL    HW2 2349   0.673   1.622   0.711  1.9226  1.4467 -2.3041
  784SOL     OW 2350   2.299   1.350   0.433 -0.5904 -0.2030  0.1018
  784SOL    HW1 2351   2.319   1.259   0.393 -0.6487 -1.9750  1.7723
  784SOL    HW2 2352   2.237   1.398   0.367 -2.0083  1.2417  0.3819
  785SOL     OW 2353   1.932   2.711   0.455  0.2625 -0.6281 -0.1924
  785SOL    HW1 2354   1.874   2.760   0.386  0.6800 -1.2187  0.7305
  785SOL    HW2 2355   1.871   2.670   0.526  2.5632 -0.5821  1.4181
  786SOL     OW 2356   0.667   1.974   2.517 -0.1026  0.0701 -0.2849
  786SOL    HW1 2357   0.626   1.894   2.469 -0.5073  0.5077 -0.3734
  786SOL    HW2 2358   0.654   1.961   2.617 -0.2813  0.4093  3.3983
  787SOL     OW 2359   1.321   0.393   1.171  0.1060  0.0402 -0.7706
  787SOL    HW1 2360   1.413   0.347   1.171 -0.4415  1.8610 -2.0371
  787SOL    HW2 2361   1.255   0.327   1.211 -3.4923 -0.7516 -1.7377
  788SOL     OW 2362   0.643   0.975   0.061 -0.4858 -0.0053  0.0241
  788SOL    HW1 2363   0.602   0.898   0.007 -0.0645 -1.6299  4.0267
  788SOL    HW2 2364   0.610   1.066   0.027  1.4916  0.2955  0.8745
  789SOL     OW 2365   2.793   1.891   1.264 -0.2155 -0.2840  0.0213
  789SOL    HW1 2366   2.709   1.847   1.302 -3.1054 -1.0495  0.1392
  789SOL    HW2 2367   2.788   1.894   1.163  1.2385  0.3734 -1.2688
  790SOL     OW 2368   1.394   0.144   2.175  0.5824 -0.2758 -1.1576
  790SOL    HW1 2369   1.317   0.119   2.237  0.7481  3.0315  0.0937
  790SOL    HW2 2370   1.360   0.224   2.121 -2.2068 -0.8131 -0.4900
  791SOL     OW 2371   1.012   0.522   0.201  0.6851  0.3231  0.1801
  791SOL    HW1 2372   1.053   0.457   0.133  1.3736 -2.0798 -0.9318
  791SOL    HW2 2373   0.919   0.553   0.170 -0.9832  0.8825 -0.3568
  792SOL     OW 2374   1.311   0.284   1.616 -0.1050 -0.0309 -0.1476
  792SOL    HW1 2375   1.308   0.379   1.581  0.2419  1.0456 -1.4452
  792SOL    HW2 2376   1.376   0.281   1.695 -2.0577  0.6188 -0.0319
  793SOL     OW 2377   0.972   2.918   0.839 -0.5083 -0.0014 -0.6397
  793SOL    HW1 2378   0.934   3.013   0.842  0.4785  1.7231 -0.2089
  793SOL    HW2 2379   1.002   2.891   0.933  1.3098 -0.7644  0.0608
  794SOL     OW 2380   0.632   1.265   1.804 -0.3640  0.0192 -0.2402
  794SOL    HW1 2381   0.595   1.171   1.791 -0.8550 -2.7240  0.0811
  794SOL    HW2 2382   0.689   1.273   1.889 -0.3906  0.1339 -2.1935
  795SOL     OW 2383   0.130   1.414   2.176 -0.4106  0.2504 -0.5180
  795SOL    HW1 2384   0.059   1.465   2.123  0.9079  1.5622  0.3876
  795SOL    HW2 2385   0.156   1.471   2.257  1.0429 -0.5029  2.2469
  796SOL     OW 2386   1.875   1.639   1.766 -0.2775  0.5077  0.1707
  796SOL    HW1 2387   1.959   1.694   1.786  0.8640 -0.8411  0.9740
  796SOL    HW2 2388   1.804   1.652   1.838  0.9807 -1.3048 -0.7474
  797SOL     OW 2389   0.036   0.259   2.555  0.1486 -0.1356  0.1336
  797SOL    HW1 2390   0.057   0.190   2.482  3.1208 -0.3819 -1.7919
  797SOL    HW2 2391   0.024   0.210   2.646  1.0883  0.5897  0.3996
  798SOL     OW 2392   3.009   2.276   1.941 -0.3675  0.4411 -0.7486
  798SOL    HW1 2393   2.969   2.302   1.851 -0.4997 -1.2086 -1.1187
  798SOL    HW2 2394   3.011   2.174   1.948  0.4932 -0.9774  0.6611
  799SOL     OW 2395   2.761   2.277   3.063  0.0437 -0.1016 -0.2458
  799SOL    HW1 2396   2.820   2.343   3.114 -1.8311 -0.1629  0.2567
  799SOL    HW2 2397   2.663   2.306   3.077  1.2019 -0.8377 -0.2294
  800SOL     OW 2398   1.006   1.625   0.682  0.0840  0.2139 -0.5879
  800SOL    HW1 2399   0.961   1.714   0.705  0.3395 -1.3976  0.7238
  800SOL    HW2 2400   1.091   1.611   0.740  3.0705  2.2923  1.0412
  801SOL     OW 2401   2.773   0.662   0.696  0.4112 -0.1599 -0.2420
  801SOL    HW1 2402   2.823   0.747   0.667  1.7435 -1.1084  1.3451
  801SOL    HW2 2403   2.701   0.681   0.767 -0.9415  1.0063  0.9510
  802SOL     OW 2404   2.588   1.554   0.505 -0.0456  0.2032  0.0828
  802SOL    HW1 2405   2.588   1.643   0.455  0.5845  0.4285  0.3163
  802SOL    HW2 2406   2.492   1.520   0.504 -2.1923  1.6664  1.2592
  803SOL     OW 2407   1.664   1.894   2.853  0.0118  0.3607  0.0760
  803SOL    HW1 2408   1.628   1.922   2.763 -1.3979 -0.1559  0.2768
  803SOL    HW2 2409   1.758   1.934   2.866  2.4096  2.7867 -2.0876
  804SOL     OW 2410   2.043   1.935   0.263  0.2621 -0.4041  0.0887
  804SOL    HW1 2411   2.040   1.857   0.329 -0.7083  0.6313 -0.3228
  804SOL    HW2 2412   2.081   1.903   0.175  0.3167  1.4201  0.0142
  805SOL     OW 2413   2.843   1.618   2.538 -0.4227 -0.2986 -0.5277
  805SOL    HW1 2414   2.800   1.676   2.611 -0.2728 -1.3869  1.3316
  805SOL    HW2 2415   2.861   1.673   2.454  4.2073 -2.2806  0.2062
  806SOL     OW 2416   0.281   0.300   0.398  0.5152  0.1900 -0.0196
  806SOL    HW1 2417   0.276   0.341   0.491 -2.1377  0.8580  1.8677
  806SOL    HW2 2418   0.209   0.229   0.388 -0.2084  2.3580 -0.9089
  807SOL     OW 2419   2.414   1.311   2.482  0.5067  0.1361 -0.1948
  807SOL    HW1 2420   2.356   1.256   2.547 -0.8985 -0.9578  0.2974
  807SOL    HW2 2421   2.494   1.255   2.451  3.1019 -3.9274  0.9693
  808SOL     OW 2422   0.166   1.443   0.519 -0.6099 -0.0114  0.1496
  808SOL    HW1 2423   0.147   1.356   0.570  0.1036 -0.1203  1.5993
  808SOL    HW2 2424   0.198   1.518   0.581 -1.8610  2.5755 -2.7260
  809SOL     OW 2425   2.526   0.559   2.787 -0.4654  0.0667 -0.6658
  809SOL    HW1 2426   2.579   0.609   2.860  1.2698  3.4356  0.3682
  809SOL    HW2 2427   2.426   0.573   2.801  0.7289  0.2790  1.8312
  810SOL     OW 2428   0.937   0.732   0.358 -0.7121 -0.3843  0.1742
  810SOL    HW1 2429   0.979   0.648   0.318 -0.6550  0.7517 -1.1785
  810SOL    HW2 2430   0.916   0.799   0.284  0.7144 -1.5391 -1.3055
  811SOL     OW 2431   1.545   2.536   0.802 -0.2643  0.3098  0.4505
  811SOL    HW1 2432   1.455   2.583   0.789  1.5658 -2.3000 -0.9289
  811SOL    HW2 2433   1.541   2.445   0.754  1.9990 -0.3804 -0.2619
  812SOL     OW 2434   0.772   2.618   1.648 -0.4299 -0.3639  0.3626
  812SOL    HW1 2435   0.743   2.521   1.657  2.3026  0.9134  1.3107
  812SOL    HW2 2436   0.807   2.648   1.739 -0.3946 -0.1273  0.5317
  813SOL     OW 2437   1.039   0.294   1.975 -0.3062  0.3377  0.2368
  813SOL    HW1 2438   1.023   0.196   1.997  1.6745 -2.6091 -3.4246
  813SOL    HW2 2439   0.973   0.351   2.027  1.4712 -0.7384 -0.5192
  814SOL     OW 2440   1.338   2.995   2.739 -0.6125  0.0030 -0.2217
  814SOL    HW1 2441   1.274   3.031   2.810  0.1705 -1.0378 -0.7307
  814SOL    HW2 2442   1.324   2.897   2.720  0.1958 -0.0705  3.9335
  815SOL     OW 2443   0.609   0.618   1.928 -0.3161 -0.4252 -0.4410
  815SOL    HW1 2444   0.550   0.671   1.862  0.1766 -0.7212 -0.8828
  815SOL    HW2 2445   0.622   0.679   2.008  1.4467  1.0480  1.3805
  816SOL     OW 2446   2.283   0.421   3.050  0.0773  0.2604 -0.6960
  816SOL    HW1 2447   2.204   0.397   3.111  0.4066  2.1520  2.0679
  816SOL    HW2 2448   2.331   0.335   3.020 -0.0790  1.1555  0.8751
  817SOL     OW 2449   1.767   0.197   2.756 -0.1174  0.1339  0.5005
  817SOL    HW1 2450   1.742   0.288   2.719 -0.1598  2.2469  0.7708
  817SOL    HW2 2451   1.686   0.142   2.786 -1.7105  1.3520 -2.1954
  818SOL     OW 2452   2.087   0.379   0.163 -0.3182  0.3679  0.3798
  818SOL    HW1 2453   2.103   0.283   0.195 -1.2107 -2.1220 -3.7282
  818SOL    HW2 2454   2.044   0.434   0.237  0.1280 -0.8095  2.4638
  819SOL     OW 2455   2.340   1.524   0.090 -0.2381  0.3578 -0.4275
  819SOL    HW1 2456   2.408   1.596   0.116 -4.0008 -1.6952  0.0799
  819SOL    HW2 2457   2.389   1.437   0.068  0.2355 -2.7112  0.8337
  820SOL     OW 2458   2.884   2.033   0.050 -0.2766  0.5235  0.2066
  820SOL    HW1 2459   2.832   2.119   0.036 -0.7404  0.1312  4.2167
  820SOL    HW2 2460   2.824   1.954   0.021 -0.9289 -0.6934 -2.0427
  821SOL     OW 2461   0.363   2.616   1.504  0.0443 -0.0521 -0.0972
  821SOL    HW1 2462   0.266   2.637   1.529 -0.7273  1.6928  0.1717
  821SOL    HW2 2463   0.361   2.588   1.406 -1.2531 -3.1757 -1.8221
  822SOL     OW 2464   2.704   2.633   2.417  0.2151  0.2054  0.2867
  822SOL    HW1 2465   2.698   2.735   2.406 -0.2681 -1.0495 -0.1603
  822SOL    HW2 2466   2.631   2.585   2.363  0.6670 -1.6574 -1.9539
  823SOL     OW 2467   1.574   2.973   2.326  0.2655 -0.2008 -0.2003
  823SOL    HW1 2468   1.592   3.028   2.242  1.5008  3.5592  0.5412
  823SOL    HW2 2469   1.521   3.037   2.387  0.9564  1.7753 -0.0109
  824SOL     OW 2470   2.410   1.719   1.073  0.0618  0.5099  0.1348
  824SOL    HW1 2471   2.441   1.761   0.985 -1.6938  0.4318 -0.2274
  824SOL    HW2 2472   2.428   1.619   1.073 -1.5963  2.3420 -2.6120
  825SOL     OW 2473   2.835   1.966   2.556 -0.2235 -0.0721  0.4342
  825SOL    HW1 2474   2.807   2.046   2.501  0.7329 -0.5591 -0.9198
  825SOL    HW2 2475   2.936   1.963   2.543  0.5796  1.0957  0.6228
  826SOL     OW 2476   2.816   1.373   2.152  0.1229  0.3733  0.0283
  826SOL    HW1 2477   2.722   1.390   2.117 -0.2305 -0.6276  0.5759
  826SOL    HW2 2478   2.821   1.380   2.254  0.4859  1.1548  2.3791
  827SOL     OW 2479   2.490   2.544   1.744  0.5573  0.2259  0.3565
  827SOL    HW1 2480   2.523   2.465   1.688  0.4978 -1.7260 -1.3712
  827SOL    HW2 2481   2.389   2.555   1.728  1.6499  1.7035 -1.8259
  828SOL     OW 2482   2.935   2.972   1.576  0.0474  0.8142 -0.7339
  828SOL    HW1 2483   2.884   2.956   1.488  3.1312  2.0219 -2.4234
  828SOL    HW2 2484   3.000   3.048   1.559 -1.1136  0.8661  0.3568
  829SOL     OW 2485   1.923   1.891   2.254 -0.9772 -0.2257  0.1667
  829SOL    HW1 2486   1.826   1.920   2.244  1.7090  3.9464  2.2556
  829SOL    HW2 2487   1.944   1.874   2.353 -1.4805 -0.1140  2.5315
  830SOL     OW 2488   1.568   0.650   0.890  0.0526  0.2584 -0.5989
  830SOL    HW1 2489   1.645   0.585   0.873 -0.7886  2.8546 -1.1215
  830SOL    HW2 2490   1.601   0.745   0.892 -1.6705 -0.9041  0.4642
  831SOL     OW 2491   2.926   1.481   0.785 -0.1536  0.4985 -0.1442
  831SOL    HW1 2492   2.974   1.398   0.822 -0.2342  2.2297 -0.8090
  831SOL    HW2 2493   2.873   1.453   0.702 -0.0259  2.2562 -0.9523
  832SOL     OW 2494   1.504   2.284   1.822  0.3210  0.4337  0.3867
  832SOL    HW1 2495   1.479   2.383   1.833  0.0190 -0.2545  0.3615
  832SOL    HW2 2496   1.606   2.273   1.817  0.4937 -1.9524 -2.4832
  833SOL     OW 2497   3.020   2.937   2.251 -0.3219  0.4262 -0.1204
  833SOL    HW1 2498   2.948   2.924   2.179 -0.7054  0.4078 -3.0008
  833SOL    HW2 2499   2.985   2.910   2.343 -0.1203  0.1412  0.5006
  834SOL     OW 2500   1.056   1.008   1.261 -0.3520 -0.8849  0.1331
  834SOL    HW1 2501   1.093   0.983   1.353 -0.8511 -0.5687 -2.9289
  834SOL    HW2 2502   1.118   0.969   1.190 -1.3000  0.7889  2.5412
  835SOL     OW 2503   3.057   0.774   2.781  0.0357 -0.2225  0.5734
  835SOL    HW1 2504   2.956   0.762   2.760 -0.4835  0.1739  0.1709
  835SOL    HW2 2505   3.073   0.767   2.881 -2.4290  0.8513  0.4100
  836SOL     OW 2506   1.044   2.318   1.057  0.0354 -0.5161  0.1949
  836SOL    HW1 2507   0.966   2.373   1.020  1.1932 -0.8628  0.5103
  836SOL    HW2 2508   1.111   2.378   1.106  0.2011 -2.5950  3.4984
  837SOL     OW 2509   2.104   0.809   1.210  0.7524  0.1358  0.1561
  837SOL    HW1 2510   2.032   0.805   1.137  1.3287 -0.6940  0.5550
  837SOL    HW2 2511   2.070   0.874   1.281 -1.4705  0.3334 -1.0527
  838SOL     OW 2512   1.406   1.690   2.787  0.0478  0.0442  0.3221
  838SOL    HW1 2513   1.473   1.676   2.863  0.7679 -2.7646 -0.7743
  838SOL    HW2 2514   1.442   1.765   2.728 -0.4482  0.0495  0.7776
  839SOL     OW 2515   0.564   2.242   2.773  0.7131  0.2517 -0.7822
  839SOL    HW1 2516   0.590   2.145   2.775 -0.2174 -1.5877  2.7598
  839SOL    HW2 2517   0.502   2.270   2.851  0.2607  0.5926 -0.6220
  840SOL     OW 2518   0.756   2.440   2.797 -0.2281 -0.3111 -0.1341
  840SOL    HW1 2519   0.688   2.365   2.780 -0.7067 -0.7328  0.4645
  840SOL    HW2 2520   0.724   2.526   2.753 -2.4329  0.2962 -1.0599
  841SOL     OW 2521   1.907   2.019   2.885 -0.1831 -0.0929  0.0244
  841SOL    HW1 2522   2.000   1.981   2.902 -2.5554 -0.9625  0.6862
  841SOL    HW2 2523   1.896   2.099   2.948  3.5954 -0.5190  0.7096
  842SOL     OW 2524   1.536   0.878   2.764 -0.1141  0.3359  0.1634
  842SOL    HW1 2525   1.551   0.980   2.754 -1.3746 -1.0810 -0.4115
  842SOL    HW2 2526   1.438   0.854   2.752  2.4334  0.8760  0.1591
  843SOL     OW 2527   1.347   2.941   0.715 -0.4101  0.0015 -0.2337
  843SOL    HW1 2528   1.445   2.966   0.731  1.4765 -0.8645 -1.5380
  843SOL    HW2 2529   1.315   2.991   0.632 -1.6393 -1.7657  1.9747
  844SOL     OW 2530   2.479   2.858   2.634  0.6845 -0.0578 -0.2030
  844SOL    HW1 2531   2.461   2.800   2.716  0.5944  2.7753  2.2429
  844SOL    HW2 2532   2.550   2.930   2.649 -0.4568 -0.0685  0.4897
  845SOL     OW 2533   2.829   2.925   1.333  0.4933  0.2711  0.5206
  845SOL    HW1 2534   2.827   3.013   1.279 -0.9407  0.8089 -2.7700
  845SOL    HW2 2535   2.740   2.875   1.326  0.6173 -2.6739 -1.2788
  846SOL     OW 2536   0.242   2.204   2.187  0.9306 -0.2489  0.0233
  846SOL    HW1 2537   0.206   2.291   2.145  1.0785 -1.4822 -3.1401
  846SOL    HW2 2538   0.256   2.220   2.287  0.0164 -1.0447 -1.4463
  847SOL     OW 2539   1.611   0.137   1.417  0.4717 -0.8805 -0.0151
  847SOL    HW1 2540   1.511   0.119   1.424 -0.4503  0.3208 -0.4205
  847SOL    HW2 2541   1.663   0.069   1.473  0.4593  2.8326  1.3005
  848SOL     OW 2542   2.829   0.584   0.098 -0.0537 -1.0448  0.0929
  848SOL    HW1 2543   2.922   0.544   0.087  2.4528 -0.4113  1.1374
  848SOL    HW2 2544   2.756   0.511   0.104  0.9208 -1.7689 -0.2972
  849SOL     OW 2545   0.512   0.581   0.125  0.3140  0.6742 -0.1488
  849SOL    HW1 2546   0.444   0.617   0.192 -1.5895 -2.3943 -2.1555
  849SOL    HW2 2547   0.492   0.482   0.105 -2.1643  2.6427 -0.9952
  850SOL     OW 2548   0.327   2.672   1.022  0.6964 -0.0445  0.0596
  850SOL    HW1 2549   0.239   2.717   1.050  0.7227 -1.5508  3.3861
  850SOL    HW2 2550   0.393   2.747   0.998 -1.2610 -1.5079  0.1043
  851SOL     OW 2551   1.905   0.179   2.365 -0.2186  0.0668 -0.0231
  851SOL    HW1 2552   1.806   0.189   2.392  0.5149  0.2067  0.0598
  851SOL    HW2 2553   1.911   0.133   2.274 -0.5215  0.3926 -0.8984
  852SOL     OW 2554   1.537   1.555   2.297 -0.1798  0.0380 -0.5942
  852SOL    HW1 2555   1.512   1.493   2.374 -1.6039  1.8121 -0.0898
  852SOL    HW2 2556   1.454   1.584   2.244 -2.0202  4.4228 -3.1851
  853SOL     OW 2557   0.115   2.896   0.428  0.5208  0.2468  0.0911
  853SOL    HW1 2558   0.116   2.814   0.367 -0.1465 -0.7903  2.7152
  853SOL    HW2 2559   0.162   2.872   0.515 -0.0500  4.3988  0.5710
  854SOL     OW 2560   2.360   3.017   0.726  0.7212  0.1669  0.2711
  854SOL    HW1 2561   2.322   3.112   0.718 -2.0040  2.0854  0.4635
  854SOL    HW2 2562   2.344   2.971   0.636  0.1581 -0.9800  1.8208
  855SOL     OW 2563   1.369   2.125   0.755  0.8129 -0.0589 -0.7089
  855SOL    HW1 2564   1.336   2.072   0.673  0.3916 -3.0380 -0.0432
  855SOL    HW2 2565   1.291   2.179   0.794 -0.9707  2.1513  0.7913
  856SOL     OW 2566   2.374   0.485   0.388  0.2942  0.1674 -0.5898
  856SOL    HW1 2567   2.368   0.383   0.382  0.0613 -1.5022  3.1131
  856SOL    HW2 2568   2.466   0.512   0.422  0.7475 -1.3812 -2.0102
  857SOL     OW 2569   1.843   2.529   1.714  0.3646  0.6724 -0.1973
  857SOL    HW1 2570   1.871   2.576   1.802  0.5574 -1.5469 -0.0466
  857SOL    HW2 2571   1.926   2.495   1.665  2.8531 -1.3082 -2.6007
  858SOL     OW 2572   2.561   2.188   1.371 -0.1280 -0.2996  0.2839
  858SOL    HW1 2573   2.633   2.213   1.302  2.6342 -0.3178  2.0543
  858SOL    HW2 2574   2.470   2.173   1.326 -2.8559  0.0701 -0.9843
  859SOL     OW 2575   1.106   2.525   0.724 -0.8714  0.2673  0.0523
  859SOL    HW1 2576   1.026   2.575   0.762 -2.6925  1.1640 -0.0584
  859SOL    HW2 2577   1.190   2.581   0.739  0.1751 -0.2584 -1.2266
  860SOL     OW 2578   2.169   2.359   0.214  0.4137 -0.3019 -0.5440
  860SOL    HW1 2579   2.181   2.272   0.266 -1.0528  0.0592 -1.0910
  860SOL    HW2 2580   2.189   2.341   0.116  0.9736  0.9395 -0.3534
  861SOL     OW 2581   2.079   2.402   0.974  0.4118  0.1088  0.2483
  861SOL    HW1 2582   2.097   2.487   0.919  0.6895 -0.3968 -0.4680
  861SOL    HW2 2583   2.169   2.369   1.011 -2.8910 -2.7546 -0.3859
  862SOL     OW 2584   1.709   2.735   2.742 -0.0935 -0.5414  0.1843
  862SOL    HW1 2585   1.717   2.801   2.663 -1.4679 -1.5060  1.4822
  862SOL    HW2 2586   1.737   2.782   2.830 -0.2283 -1.6785  2.2766
  863SOL     OW 2587   0.522   3.062   0.298 -0.1827 -0.2622 -0.3203
  863SOL    HW1 2588   0.546   3.016   0.386 -2.3362  0.8918 -1.7272
  863SOL    HW2 2589   0.576   3.018   0.222 -0.9161  2.4915  1.7436
  864SOL     OW 2590   2.590   2.583   2.002  0.6619  0.5957 -0.2130
  864SOL    HW1 2591   2.674   2.526   2.013 -1.4978  0.5980  0.6030
  864SOL    HW2 2592   2.548   2.566   1.910 -0.9739 -1.3426 -1.8235
  865SOL     OW 2593   0.028   2.093   2.779 -0.3594  0.2384 -0.0010
  865SOL    HW1 2594   0.037   2.040   2.866  0.4729 -1.0393 -0.6233
  865SOL    HW2 2595  -0.048   2.161   2.791  0.7383 -0.5453  1.8653
  866SOL     OW 2596   2.579   0.294   2.764 -0.2551  0.8461  0.5058
  866SOL    HW1 2597   2.666   0.274   2.716 -3.4443 -1.8438 -0.0386
  866SOL    HW2 2598   2.563   0.396   2.767 -2.4400 -0.0862  0.0847
  867SOL     OW 2599   2.934   2.876   2.505 -0.1628 -0.1259  0.2706
  867SOL    HW1 2600   2.836   2.889   2.484 -2.2921  1.6685  0.4778
  867SOL    HW2 2601   2.939   2.822   2.592  2.5073 -0.2677  1.8369
  868SOL     OW 2602   0.858   2.682   0.779  0.3955  0.3670 -0.1227
  868SOL    HW1 2603   0.899   2.774   0.801  2.8916  0.7242  0.5179
  868SOL    HW2 2604   0.844   2.674   0.677  2.1163  0.4438 -0.4895
  869SOL     OW 2605   1.306   1.316   1.185  0.3591 -0.4405  0.6504
  869SOL    HW1 2606   1.278   1.411   1.159 -2.8670 -2.1286 -1.7979
  869SOL    HW2 2607   1.394   1.290   1.139  1.0650  0.2240  0.6658
  870SOL     OW 2608   1.899   1.763   1.128  0.0127  0.3908 -0.4764
  870SOL    HW1 2609   1.926   1.664   1.123 -1.0233  1.6846  1.7361
  870SOL    HW2 2610   1.942   1.811   1.206  1.4250  5.9032  0.8180
  871SOL     OW 2611   1.015   1.400   1.026 -0.2084 -0.1108 -0.6209
  871SOL    HW1 2612   1.016   1.350   0.938 -0.6390  0.1661  0.0768
  871SOL    HW2 2613   0.935   1.465   1.030 -0.1673 -0.5258  1.7774
  872SOL     OW 2614   1.152   0.501   0.716  0.2672 -0.0527  0.1701
  872SOL    HW1 2615   1.233   0.560   0.694 -0.7073  0.5784  1.4669
  872SOL    HW2 2616   1.141   0.482   0.816  2.9541 -0.1123 -1.2357
  873SOL     OW 2617   1.718   0.453   2.669 -0.0372  0.0615  0.8122
  873SOL    HW1 2618   1.772   0.502   2.743 -0.0121  0.9708  0.2276
  873SOL    HW2 2619   1.691   0.521   2.598 -0.3658 -0.4098 -3.7688
  874SOL     OW 2620   0.542   1.245   1.139 -0.3753  0.2826 -0.3146
  874SOL    HW1 2621   0.555   1.304   1.221  5.2198 -1.1609 -0.6827
  874SOL    HW2 2622   0.459   1.270   1.085  1.3215 -0.9979  1.0526
  875SOL     OW 2623   2.738   2.693   3.010 -0.4112  0.3407  0.2973
  875SOL    HW1 2624   2.699   2.621   2.950 -0.2274 -1.2562  0.9793
  875SOL    HW2 2625   2.735   2.784   2.964  0.7082  1.1142 -0.0423
  876SOL     OW 2626   0.798   0.550   2.911  0.6848  0.4088  0.6619
  876SOL    HW1 2627   0.796   0.571   3.012 -0.8303 -2.8202 -0.6689
  876SOL    HW2 2628   0.841   0.628   2.861  2.5487 -1.4155  2.5995
  877SOL     OW 2629   0.001   2.789   1.361 -0.3684 -0.4006  0.1401
  877SOL    HW1 2630   0.057   2.800   1.276  1.0079  0.1802 -1.3782
  877SOL    HW2 2631  -0.084   2.844   1.351 -0.3854  0.9971  2.2759
  878SOL     OW 2632   1.957   1.868   2.522 -0.3680  0.5856  0.4457
  878SOL    HW1 2633   1.888   1.933   2.560  0.6781  0.1909 -0.9229
  878SOL    HW2 2634   2.048   1.892   2.561  0.9082  1.4891 -1.8386
  879SOL     OW 2635   2.136   1.744   1.811 -0.6783  0.3869 -0.3839
  879SOL    HW1 2636   2.145   1.745   1.912 -0.1734 -0.3576  1.6674
  879SOL    HW2 2637   2.214   1.695   1.766 -0.1579 -0.6064  0.5299
  880SOL     OW 2638   0.935   1.043   0.934  0.2421 -0.4689 -0.7231
  880SOL    HW1 2639   1.019   1.089   0.968  0.3993 -2.8937  1.1528
  880SOL    HW2 2640   0.948   0.941   0.938  0.3012 -0.4761  0.0618
  881SOL     OW 2641   1.244   1.520   0.048  0.2672 -0.7340  0.0554
  881SOL    HW1 2642   1.228   1.609   0.095 -0.9152 -0.3156 -1.9343
  881SOL    HW2 2643   1.303   1.466   0.112 -1.3687  0.8307 -1.6315
  882SOL     OW 2644   1.841   0.028   1.153  0.4705 -0.2670 -0.0585
  882SOL    HW1 2645   1.854   0.105   1.219 -1.5015 -1.1373 -1.4925
  882SOL    HW2 2646   1.927   0.016   1.098  0.4606 -1.7486 -0.6225
  883SOL     OW 2647   1.899   0.646   2.107 -0.6434 -0.1273  0.3800
  883SOL    HW1 2648   1.808   0.600   2.095  0.8466  2.1465 -3.3428
  883SOL    HW2 2649   1.971   0.576   2.125  2.7079  1.5968  1.2194
  884SOL     OW 2650   2.684   0.695   2.958  0.1091  0.2373 -0.3000
  884SOL    HW1 2651   2.740   0.731   2.881 -1.6688 -0.6036  0.9934
  884SOL    HW2 2652   2.745   0.654   3.030 -0.8847  0.9003 -0.3861
  885SOL     OW 2653   1.150   2.273   0.815  0.1159  0.0281  0.5412
  885SOL    HW1 2654   1.141   2.365   0.771  2.3496  1.3086 -0.3240
  885SOL    HW2 2655   1.116   2.279   0.911 -1.4524 -0.6077  2.1955
  886SOL     OW 2656   1.277   0.837   2.716 -1.0998  0.0814 -0.5311
  886SOL    HW1 2657   1.212   0.781   2.771 -2.8683  1.7083  0.9412
  886SOL    HW2 2658   1.226   0.921   2.688 -1.3799 -2.5710 -1.0645
  887SOL     OW 2659   1.743   3.019   1.575 -0.3022 -0.3214 -0.4731
  887SOL    HW1 2660   1.800   3.049   1.656  1.3229 -1.9483  1.0839
  887SOL    HW2 2661   1.662   2.967   1.608 -1.0815  1.4928 -2.3076
  888SOL     OW 2662   2.846   1.669   1.617  0.1293  0.1528  0.8741
  888SOL    HW1 2663   2.910   1.632   1.686  1.9360 -1.8910 -4.5929
  888SOL    HW2 2664   2.852   1.608   1.535 -0.9623 -0.1174 -1.5260
  889SOL     OW 2665   2.993   2.730   0.681 -0.1509  0.0295  0.5933
  889SOL    HW1 2666   2.928   2.716   0.758 -0.6330  0.6607 -0.9451
  889SOL    HW2 2667   2.972   2.818   0.632 -0.9424  0.8591  1.1494
  890SOL     OW 2668   0.662   1.907   2.161 -0.2202 -0.8518  0.0720
  890SOL    HW1 2669   0.686   2.007   2.161 -1.4241  1.9698  0.6947
  890SOL    HW2 2670   0.605   1.890   2.078  0.7685 -0.3444 -1.7493
  891SOL     OW 2671   0.683   1.724   0.570  0.2603  0.4187  0.2497
  891SOL    HW1 2672   0.760   1.778   0.612 -1.0682  0.5629  0.5921
  891SOL    HW2 2673   0.623   1.785   0.516 -0.0877  1.8972 -2.5354
  892SOL     OW 2674   2.647   2.532   1.227  0.0529  0.1313 -0.4206
  892SOL    HW1 2675   2.693   2.532   1.319  2.1899 -1.7433  1.2355
  892SOL    HW2 2676   2.673   2.447   1.179 -1.1384  1.1844  0.8078
  893SOL     OW 2677   0.204   0.446   1.743  0.2574  0.1768 -0.4725
  893SOL    HW1 2678   0.208   0.421   1.642  1.4597  0.0440  0.7891
  893SOL    HW2 2679   0.211   0.547   1.751 -2.8281  0.3906  1.7167
  894SOL     OW 2680   2.736   1.846   0.995  0.0300 -0.1223 -0.0795
  894SOL    HW1 2681   2.649   1.830   0.942 -2.0153  1.0279  1.6336
  894SOL    HW2 2682   2.779   1.753   1.000  1.8142  3.1676 -1.2889
  895SOL     OW 2683   1.216   2.485   1.445 -0.2432  0.4579 -0.0150
  895SOL    HW1 2684   1.274   2.434   1.513  0.2710  0.3586  1.3209
  895SOL    HW2 2685   1.201   2.581   1.476  1.2412  0.1882  0.7198
  896SOL     OW 2686   0.744   0.322   1.322 -0.1490  0.3021 -0.2182
  896SOL    HW1 2687   0.674   0.320   1.397 -0.3470  1.8590 -2.3218
  896SOL    HW2 2688   0.837   0.326   1.364 -0.5701  0.1926 -0.7778
  897SOL     OW 2689   1.183   1.142   0.999  0.0492 -0.2922 -0.2268
  897SOL    HW1 2690   1.208   1.212   1.069  0.1812 -2.2415  0.6134
  897SOL    HW2 2691   1.219   1.049   1.023  1.8898 -0.1789  0.2052
  898SOL     OW 2692   0.802   0.338   1.712 -0.1775 -0.5214 -0.0829
  898SOL    HW1 2693   0.812   0.431   1.753  1.8039  0.1693 -1.0614
  898SOL    HW2 2694   0.890   0.287   1.708 -1.9402  0.9464  1.3947
  899SOL     OW 2695   1.489   0.368   0.209 -0.3769 -0.3889 -0.0525
  899SOL    HW1 2696   1.566   0.404   0.153  2.0821 -0.9249 -0.3948
  899SOL    HW2 2697   1.417   0.441   0.217 -2.1686  0.1912 -1.5785
  900SOL     OW 2698   1.029   0.663   2.408  1.3847  0.3354  0.1527
  900SOL    HW1 2699   0.994   0.754   2.438 -0.2293 -0.8219  3.2536
  900SOL    HW2 2700   1.003   0.645   2.311 -0.3425  0.5166 -2.0488
  901SOL     OW 2701   0.723   2.035   0.436  0.0236 -0.4156 -0.0858
  901SOL    HW1 2702   0.806   1.983   0.408 -0.4921  0.6505  1.0439
  901SOL    HW2 2703   0.643   1.988   0.394  2.0143  1.4771  0.1259
  902SOL     OW 2704   1.838   0.217   0.751  0.0963  0.0522 -0.1479
  902SOL    HW1 2705   1.850   0.161   0.666  1.0005  0.1771  0.7608
  902SOL    HW2 2706   1.768   0.172   0.807  0.3623  1.4936 -0.1070
  903SOL     OW 2707   0.048   1.355   2.515 -0.1852 -0.4524 -0.5262
  903SOL    HW1 2708   0.090   1.437   2.471  0.6215  0.0877 -0.1839
  903SOL    HW2 2709  -0.046   1.346   2.477  0.9457  2.0883 -0.0836
  904SOL     OW 2710   1.691   1.251   0.413  0.3736  0.0928  0.3598
  904SOL    HW1 2711   1.639   1.288   0.494  1.5088  3.2435  2.1955
  904SOL    HW2 2712   1.694   1.149   0.419  0.0378  2.5637 -0.0780
  905SOL     OW 2713   1.925   2.670   1.332 -0.7404  0.0018 -0.1090
  905SOL    HW1 2714   1.864   2.726   1.273  1.3211  0.0744 -2.8701
  905SOL    HW2 2715   1.926   2.575   1.296  1.5398 -1.6776  1.2756
  906SOL     OW 2716   2.187   2.622   0.850 -0.8841 -0.2159  0.2554
  906SOL    HW1 2717   2.135   2.709   0.836 -0.4030 -0.8589 -3.3182
  906SOL    HW2 2718   2.263   2.642   0.914 -0.3000 -1.2099 -1.0020
  907SOL     OW 2719   2.200   0.907   0.424 -0.1686 -0.2844 -0.3281
  907SOL    HW1 2720   2.173   0.813   0.447 -1.5955  0.4755  0.3107
  907SOL    HW2 2721   2.132   0.975   0.458  1.7858  0.3311  0.4265
  908SOL     OW 2722   1.855   0.238   1.336  0.2059 -0.3417 -0.0623
  908SOL    HW1 2723   1.864   0.339   1.327 -0.4633 -1.7313 -0.0833
  908SOL    HW2 2724   1.761   0.219   1.371  1.8142 -0.9018  2.9995
  909SOL     OW 2725   2.395   2.842   0.957  0.0273 -0.4637  0.2977
  909SOL    HW1 2726   2.369   2.906   0.882 -0.8609 -1.1832  0.5885
  909SOL    HW2 2727   2.393   2.889   1.048  0.0463 -1.7147  0.5875
  910SOL     OW 2728   2.284   0.550   1.980 -0.0222 -0.4354  0.1822
  910SOL    HW1 2729   2.207   0.531   2.046  0.6967 -0.5906 -0.3896
  910SOL    HW2 2730   2.363   0.487   1.998 -1.5615  0.4614 -1.2509
  911SOL     OW 2731   1.907   0.031   2.596 -0.0168  0.1994  0.2948
  911SOL    HW1 2732   1.854   0.093   2.659 -1.6781  0.9191  0.2800
  911SOL    HW2 2733   1.927   0.078   2.508 -2.2730  0.7406 -0.9720
  912SOL     OW 2734   0.523   0.917   1.314 -0.2041 -0.3607 -0.0632
  912SOL    HW1 2735   0.620   0.947   1.292  2.3026  1.3868 -0.5004
  912SOL    HW2 2736   0.515   0.816   1.306  0.1936 -1.6721  0.2271
  913SOL     OW 2737   2.415   2.590   1.086 -0.1699 -0.2840 -0.5487
  913SOL    HW1 2738   2.414   2.685   1.049  2.2589  2.5291 -2.4725
  913SOL    HW2 2739   2.502   2.573   1.137 -1.5156  2.8006  1.4429
  914SOL     OW 2740   1.136   0.428   0.979  0.0466  0.3303 -0.3173
  914SOL    HW1 2741   1.214   0.425   1.046  0.1639  0.6316  0.2440
  914SOL    HW2 2742   1.124   0.335   0.939 -0.5770 -0.4223 -1.1737
  915SOL     OW 2743   0.317   1.551   1.355  0.3698 -0.2362  0.3070
  915SOL    HW1 2744   0.312   1.558   1.253 -0.7198  1.9464  2.3198
  915SOL    HW2 2745   0.324   1.643   1.398  0.5052  2.9712  1.0367
  916SOL     OW 2746   1.912   2.201   0.930  0.4262  0.3888 -0.1507
  916SOL    HW1 2747   1.981   2.277   0.945 -2.0262 -2.6129  1.8794
  916SOL    HW2 2748   1.820   2.241   0.949  1.1280 -0.5792  0.0451
  917SOL     OW 2749   1.984   2.373   2.285  0.4532 -0.4569 -0.4305
  917SOL    HW1 2750   1.998   2.370   2.184  0.7595 -0.8967  1.8393
  917SOL    HW2 2751   1.900   2.427   2.304  0.0647  0.3561  0.8067
  918SOL     OW 2752   2.002   1.601   2.565 -0.0133  0.1621 -0.3090
  918SOL    HW1 2753   2.096   1.606   2.607 -0.0133 -1.0616  2.5572
  918SOL    HW2 2754   1.966   1.695   2.551  2.4511 -2.5655  0.2074
  919SOL     OW 2755   0.732   0.534   1.154  0.2647  0.1469  1.2456
  919SOL    HW1 2756   0.734   0.453   1.216  1.0106  1.6025  1.8824
  919SOL    HW2 2757   0.826   0.575   1.144 -2.3712 -0.0741 -1.1766
  920SOL     OW 2758   2.826   0.720   2.105 -0.0280  0.2329  0.4119
  920SOL    HW1 2759   2.858   0.657   2.030 -0.0416 -1.3755 -1.5849
  920SOL    HW2 2760   2.902   0.731   2.172 -2.4607 -0.4328  1.1036
  921SOL     OW 2761   2.496   1.238   1.464  0.1847 -0.6170  0.5330
  921SOL    HW1 2762   2.569   1.190   1.410 -0.6555  2.1123 -4.0735
  921SOL    HW2 2763   2.529   1.257   1.558  0.8393  1.0220 -0.5087
  922SOL     OW 2764   2.745   2.253   0.782 -0.4076  0.3808 -0.3034
  922SOL    HW1 2765   2.706   2.192   0.854  0.4266 -1.7221  1.1693
  922SOL    HW2 2766   2.671   2.324   0.767  0.1191 -2.5466  1.3720
  923SOL     OW 2767   0.043   2.288   0.532  0.0626 -0.0282 -0.0122
  923SOL    HW1 2768   0.074   2.279   0.629 -1.6546 -1.1251 -1.5953
  923SOL    HW2 2769   0.114   2.257   0.465 -3.9606 -0.6972  0.6095
  924SOL     OW 2770   0.977   1.178   2.916  0.1274 -0.5900  0.1149
  924SOL    HW1 2771   1.029   1.225   2.841 -1.0519  0.5828  1.1904
  924SOL    HW2 2772   0.903   1.238   2.953 -1.5658 -1.7278 -2.0310
  925SOL     OW 2773   3.043   1.258   0.883  0.3717 -0.3219  0.3257
  925SOL    HW1 2774   3.084   1.283   0.974  1.0739 -1.1708  0.3809
  925SOL    HW2 2775   2.977   1.180   0.892 -0.8869  0.2111 -1.5813
  926SOL     OW 2776   0.135   0.017   1.294  0.0404 -0.4855  0.5627
  926SOL    HW1 2777   0.232  -0.010   1.284 -1.0691 -2.5299 -1.8822
  926SOL    HW2 2778   0.091   0.001   1.203 -1.4415  1.4756 -1.3102
  927SOL     OW 2779   0.597   1.747   2.373 -0.0025  0.1834 -0.0077
  927SOL    HW1 2780   0.681   1.690   2.385  0.9211  0.1312  2.3299
  927SOL    HW2 2781   0.609   1.800   2.286  0.3380  3.2475 -2.2238
  928SOL     OW 2782   0.317   0.660   2.357 -0.3493 -0.2363  0.1740
  928SOL    HW1 2783   0.365   0.570   2.370 -2.2437 -2.3277  0.3484
  928SOL    HW2 2784   0.250   0.672   2.433 -1.5305  0.9670  0.2379
  929SOL     OW 2785   2.642   2.103   0.983  0.3630  0.2728  0.2981
  929SOL    HW1 2786   2.542   2.097   0.959  0.1479 -0.5738  0.0439
  929SOL    HW2 2787   2.672   2.006   0.991 -1.3676  2.8810 -1.8127
  930SOL     OW 2788   1.648   0.208   2.431  0.1041  0.6206 -0.2481
  930SOL    HW1 2789   1.567   0.161   2.468 -1.5251  0.0498  1.7651
  930SOL    HW2 2790   1.622   0.294   2.380 -0.3421  2.9283  1.9641
  931SOL     OW 2791   2.441   0.997   2.807 -0.1378  0.8187 -0.1139
  931SOL    HW1 2792   2.443   1.015   2.906  0.7772 -2.4582  0.2893
  931SOL    HW2 2793   2.371   0.925   2.784  1.0132 -1.4580 -1.2285
  932SOL     OW 2794   1.758   0.863   0.644 -0.4844 -0.5203 -0.2941
  932SOL    HW1 2795   1.741   0.905   0.552  1.2548  0.0469 -1.5697
  932SOL    HW2 2796   1.818   0.781   0.630 -0.6447 -1.3326 -1.3691
  933SOL     OW 2797   2.289   0.624   0.735  0.2503 -0.5814  0.0081
  933SOL    HW1 2798   2.235   0.606   0.651 -1.1394 -1.1851 -0.6129
  933SOL    HW2 2799   2.321   0.721   0.734 -0.0662  0.6204 -1.8099
  934SOL     OW 2800   2.643   1.178   2.380 -0.3556  0.2492  0.0520
  934SOL    HW1 2801   2.713   1.104   2.378  2.2209  1.6484  2.1457
  934SOL    HW2 2802   2.601   1.180   2.287  1.9828 -0.0552  3.2952
  935SOL     OW 2803   0.096   1.347   1.108 -0.4072  0.0544  0.2900
  935SOL    HW1 2804   0.065   1.442   1.131 -1.2673  1.0658  0.2372
  935SOL    HW2 2805   0.104   1.297   1.197 -1.7521  0.1317  0.9586
  936SOL     OW 2806   0.051   2.959   0.076 -0.2567 -0.2583  0.2549
  936SOL    HW1 2807   0.072   2.859   0.066 -0.5654 -0.6580 -1.6822
  936SOL    HW2 2808   0.135   3.006   0.110 -1.0606 -2.2649 -1.3432
  937SOL     OW 2809   2.832   2.452   2.062 -0.0533 -0.7313  0.5496
  937SOL    HW1 2810   2.841   2.451   2.163  2.3019  0.6400  0.0608
  937SOL    HW2 2811   2.883   2.377   2.015 -1.9891 -1.0933  1.7796
  938SOL     OW 2812   2.243   2.317   3.015  0.4879 -0.3088 -0.0471
  938SOL    HW1 2813   2.289   2.225   3.002 -0.3579  1.6889 -0.0425
  938SOL    HW2 2814   2.162   2.319   2.952  2.2262 -0.4453  1.7316
  939SOL     OW 2815   1.041   0.612   1.398  0.2245 -0.0792 -0.1145
  939SOL    HW1 2816   1.136   0.650   1.397 -0.8381 -0.9379 -0.4238
  939SOL    HW2 2817   0.979   0.667   1.457 -1.2075  1.4100 -0.7482
  940SOL     OW 2818   2.318   2.894   3.031 -0.7602  0.0175 -0.2492
  940SOL    HW1 2819   2.225   2.924   3.003 -1.3919  0.7587  2.4452
  940SOL    HW2 2820   2.357   2.830   2.961 -1.0262 -0.3257 -1.8155
  941SOL     OW 2821   2.588   2.842   2.101 -0.3940  0.3961 -0.5147
  941SOL    HW1 2822   2.507   2.900   2.080 -3.7617  1.2140  0.9395
  941SOL    HW2 2823   2.576   2.748   2.062  0.7947  0.8332 -0.6631
  942SOL     OW 2824   1.601   0.025   1.030 -0.4396 -1.0409 -0.3295
  942SOL    HW1 2825   1.534  -0.039   1.074 -0.2669  2.4536  2.8971
  942SOL    HW2 2826   1.693   0.027   1.076  1.3767 -0.8475 -0.0384
  943SOL     OW 2827   1.242   1.564   2.429 -0.0990  0.3574  0.1295
  943SOL    HW1 2828   1.319   1.509   2.470 -0.4402 -0.7260  2.1592
  943SOL    HW2 2829   1.263   1.581   2.330 -2.4786  4.3758  0.5202
  944SOL     OW 2830   2.667   0.814   1.346 -0.2568  0.3268  0.0738
  944SOL    HW1 2831   2.749   0.776   1.298 -0.9016 -0.2724  0.6106
  944SOL    HW2 2832   2.591   0.753   1.315 -0.7935 -0.3338  1.8745
  945SOL     OW 2833   2.624   0.018   2.694 -0.3449 -0.0469  0.0082
  945SOL    HW1 2834   2.556   0.088   2.720  1.4268 -0.3072  2.2199
  945SOL    HW2 2835   2.702   0.067   2.652 -2.1723 -0.7274 -0.8939
  946SOL     OW 2836   0.072   1.447   1.410 -0.2212  0.3241 -0.1665
  946SOL    HW1 2837   0.161   1.496   1.400  1.4235 -0.9651  0.7804
  946SOL    HW2 2838   0.088   1.347   1.395 -0.3695  1.5419 -0.1005
  947SOL     OW 2839   0.401   0.401   2.782  0.3483  0.2210 -0.0042
  947SOL    HW1 2840   0.427   0.303   2.777  2.2802  1.0810  1.5228
  947SOL    HW2 2841   0.330   0.423   2.710  3.6054  4.6650  1.1693
  948SOL     OW 2842   1.966   1.509   1.185 -0.0278 -0.2399  0.2671
  948SOL    HW1 2843   1.969   1.496   1.286 -0.5276 -1.1829 -1.5276
  948SOL    HW2 2844   2.046   1.459   1.143  1.3225  0.0573  0.9074
  949SOL     OW 2845   0.371   1.274   2.898 -0.2444 -0.3707  1.1031
  949SOL    HW1 2846   0.387   1.346   2.828 -2.5361  1.4771 -0.4887
  949SOL    HW2 2847   0.308   1.202   2.861  0.8736 -0.4690 -0.3978
  950SOL     OW 2848   0.556   2.777   1.599  0.6964  0.9709  0.0002
  950SOL    HW1 2849   0.481   2.718   1.563 -1.0673  0.2928 -1.2035
  950SOL    HW2 2850   0.639   2.717   1.612  0.3772  1.0829 -1.2344
  951SOL     OW 2851   0.844   2.140   2.414 -0.2987 -0.7151  0.3524
  951SOL    HW1 2852   0.768   2.082   2.454 -3.6390  0.5409 -2.3034
  951SOL    HW2 2853   0.916   2.160   2.484 -0.3809  1.0853 -0.5766
  952SOL     OW 2854   0.646   1.099   0.567  0.3701 -0.0506 -0.0357
  952SOL    HW1 2855   0.616   1.015   0.618  1.5335 -2.9628 -0.2001
  952SOL    HW2 2856   0.619   1.091   0.468  1.1633  0.8263 -1.5745
  953SOL     OW 2857   2.179   1.620   2.955 -0.2504  0.2163 -0.5793
  953SOL    HW1 2858   2.098   1.559   2.941 -1.5293 -1.3520  2.0052
  953SOL    HW2 2859   2.239   1.583   3.029  1.8365 -1.0664 -1.2715
  954SOL     OW 2860   1.490   0.271   0.470  0.1663  0.0706 -0.2645
  954SOL    HW1 2861   1.488   0.291   0.370  0.3623  1.1710 -1.2902
  954SOL    HW2 2862   1.529   0.176   0.479  0.0702  0.3090  1.5286
  955SOL     OW 2863   0.857   1.534   0.090 -0.2322  0.6262 -0.6949
  955SOL    HW1 2864   0.830   1.460   0.025 -3.3232 -1.8201 -1.6270
  955SOL    HW2 2865   0.916   1.492   0.163  1.0656  0.5634 -0.8041
  956SOL     OW 2866   2.742   0.369   1.996 -0.0073  0.3736  0.3254
  956SOL    HW1 2867   2.788   0.448   1.950  1.1233  1.4816  0.0601
  956SOL    HW2 2868   2.785   0.346   2.087  2.3111  0.2523 -0.9158
  957SOL     OW 2869   1.903   1.901   1.980 -0.6196 -0.2562  0.3233
  957SOL    HW1 2870   1.804   1.905   1.954 -2.1723 -2.4090 -3.4297
  957SOL    HW2 2871   1.915   1.884   2.079  0.4631  0.3809  1.1187
  958SOL     OW 2872   1.712   0.860   1.192  0.0244  0.1299  0.2905
  958SOL    HW1 2873   1.769   0.946   1.191 -4.2361  1.1719  0.9609
  958SOL    HW2 2874   1.729   0.807   1.278  2.6511  1.9751 -0.6288
  959SOL     OW 2875   1.450   2.091   2.002  0.0702 -0.6422  0.3694
  959SOL    HW1 2876   1.508   2.011   1.974  0.2720  3.0149  1.7534
  959SOL    HW2 2877   1.454   2.166   1.933 -3.3872  0.5217 -0.7713
  960SOL     OW 2878   0.799   1.250   2.568  0.4481 -0.3174  0.2267
  960SOL    HW1 2879   0.871   1.296   2.514 -0.4600  1.3001  0.5440
  960SOL    HW2 2880   0.714   1.240   2.510 -2.6563  0.3124  0.8813
  961SOL     OW 2881   2.708   1.220   0.098 -0.6505  0.1595  0.4197
  961SOL    HW1 2882   2.731   1.305   0.151 -2.5851 -1.3961  1.1690
  961SOL    HW2 2883   2.613   1.228   0.061  1.6478  1.5233 -0.9007
  962SOL     OW 2884   0.868   1.800   0.074 -0.4209  0.0150  0.5519
  962SOL    HW1 2885   0.878   1.697   0.072 -1.1575  2.0843  1.7058
  962SOL    HW2 2886   0.927   1.842   0.002 -0.5161  0.6954  1.4148
  963SOL     OW 2887   2.763   1.555   0.013 -0.2527  0.2848 -0.5648
  963SOL    HW1 2888   2.738   1.514   0.102 -1.0471 -0.4348  1.6001
  963SOL    HW2 2889   2.857   1.533  -0.022 -0.8977  0.5928  0.0140
  964SOL     OW 2890   0.741   2.166   2.154  0.7865  0.0218 -0.0583
  964SOL    HW1 2891   0.788   2.170   2.243  2.3585 -1.5654  0.7689
  964SOL    HW2 2892   0.685   2.250   2.137  2.4382  0.7363 -0.5118
  965SOL     OW 2893   1.282   1.885   1.383  0.6597 -0.1890 -0.0513
  965SOL    HW1 2894   1.324   1.925   1.299  0.3256 -0.0881  0.8627
  965SOL    HW2 2895   1.229   1.800   1.362  1.2195  0.3908  0.1649
  966SOL     OW 2896   3.002   1.467   0.373  0.1614 -0.1385  0.3663
  966SOL    HW1 2897   3.085   1.465   0.435  0.4091 -1.0604  0.2871
  966SOL    HW2 2898   3.017   1.425   0.281 -1.7109 -2.2979  0.9490
  967SOL     OW 2899   1.875   2.587   2.579 -0.4647 -0.0853  0.3312
  967SOL    HW1 2900   1.807   2.636   2.637 -1.7362  1.3800 -0.8054
  967SOL    HW2 2901   1.966   2.597   2.625 -0.2929 -0.5779 -1.0599
  968SOL     OW 2902   1.403   1.295   2.883  0.3587 -0.2989 -0.1366
  968SOL    HW1 2903   1.423   1.299   2.981  1.1236 -3.1157 -2.0663
  968SOL    HW2 2904   1.335   1.368   2.865 -0.6306  1.7135 -0.0981
  969SOL     OW 2905   0.133   0.942   2.421 -0.5898 -0.0027  0.2782
  969SOL    HW1 2906   0.126   1.021   2.358 -0.1082  3.1859  0.6682
  969SOL    HW2 2907   0.211   0.955   2.486 -1.0032  0.1732  0.2574
  970SOL     OW 2908   2.341   0.214   0.386 -0.6773 -0.0754  0.5231
  970SOL    HW1 2909   2.253   0.184   0.343  0.9191  1.8760 -0.0594
  970SOL    HW2 2910   2.420   0.152   0.366  0.5543 -1.5713 -0.3988
  971SOL     OW 2911   1.582   1.955   0.805  0.1829  0.6330  0.4044
  971SOL    HW1 2912   1.508   2.024   0.819 -1.0667  0.1625 -0.9163
  971SOL    HW2 2913   1.645   1.957   0.886 -0.5462 -2.4381  0.9194
  972SOL     OW 2914   0.230   2.040   2.616 -0.0242 -0.6515  0.1257
  972SOL    HW1 2915   0.158   2.066   2.685  2.4987  2.0034  0.0768
  972SOL    HW2 2916   0.292   1.970   2.656  0.7925  0.5396  2.3349
  973SOL     OW 2917   0.534   0.527   0.441 -0.6066  0.0324 -0.0033
  973SOL    HW1 2918   0.461   0.584   0.397  0.2921  2.9585  0.3082
  973SOL    HW2 2919   0.545   0.438   0.393 -0.5253 -0.2357  2.2238
  974SOL     OW 2920   2.680   0.654   1.708 -0.4380 -0.1236  0.0807
  974SOL    HW1 2921   2.717   0.598   1.630  1.8433  2.0860 -1.7395
  974SOL    HW2 2922   2.579   0.647   1.718  2.4936  2.4577  1.0138
  975SOL     OW 2923   0.320   3.027   0.819 -0.1055 -0.2515  0.2624
  975SOL    HW1 2924   0.272   2.957   0.761 -0.3547  0.8227 -0.6269
  975SOL    HW2 2925   0.375   3.086   0.756  1.5878 -0.1670 -1.0329
  976SOL     OW 2926   0.738   1.546   1.461  0.2000 -0.4858 -0.4501
  976SOL    HW1 2927   0.672   1.480   1.416 -0.0715  1.8678  0.5661
  976SOL    HW2 2928   0.710   1.644   1.456  1.5762  2.5458 -2.4569
  977SOL     OW 2929   1.272   2.010   0.526 -0.2318 -0.1734  0.0002
  977SOL    HW1 2930   1.311   2.060   0.446  1.3665 -0.9069  1.0602
  977SOL    HW2 2931   1.283   1.909   0.515 -0.8025 -0.8241 -1.3638
  978SOL     OW 2932   0.100   1.137   0.011 -1.1760  0.2548  0.2594
  978SOL    HW1 2933   0.106   1.135  -0.091  0.4038  2.2542  1.4410
  978SOL    HW2 2934   0.190   1.118   0.056  1.1611 -2.6273 -0.2364
  979SOL     OW 2935   1.962   1.123   0.256 -0.2222 -0.0186  0.1323
  979SOL    HW1 2936   1.926   1.030   0.234 -0.8926  0.8070  0.5815
  979SOL    HW2 2937   1.999   1.121   0.351  1.1739 -0.4456  0.2332
  980SOL     OW 2938   0.736   1.663   1.910 -0.0564  0.1327 -0.8430
  980SOL    HW1 2939   0.704   1.609   1.828  1.8072  1.7935 -1.1497
  980SOL    HW2 2940   0.676   1.635   1.986 -1.1121 -3.0137 -0.3097
  981SOL     OW 2941   2.227   1.394   2.288 -0.2898 -0.5922 -0.0908
  981SOL    HW1 2942   2.297   1.385   2.361 -0.3386 -1.9686 -1.0803
  981SOL    HW2 2943   2.207   1.297   2.261 -1.7704 -1.6611  1.9954
  982SOL     OW 2944   0.417   2.156   1.715  0.5873 -0.5975  0.0081
  982SOL    HW1 2945   0.408   2.254   1.687 -2.7028 -1.3720  0.2330
  982SOL    HW2 2946   0.413   2.157   1.817 -1.9044  1.2033  2.0084
  983SOL     OW 2947   1.525   2.688   2.025  0.0815  0.1617  0.2008
  983SOL    HW1 2948   1.521   2.784   1.988 -0.7693  1.9926  3.3169
  983SOL    HW2 2949   1.506   2.621   1.950  2.0077  3.2103  1.8532
  984SOL     OW 2950   3.045   0.144   2.790 -0.2734  0.7148 -0.3252
  984SOL    HW1 2951   3.004   0.205   2.862 -2.6945 -0.5425  2.8945
  984SOL    HW2 2952   3.030   0.047   2.817 -1.4466  1.8775 -1.5989
  985SOL     OW 2953   1.477   1.339   1.819 -0.3248 -0.0791  0.0312
  985SOL    HW1 2954   1.527   1.359   1.731 -1.5784 -0.6171 -0.9428
  985SOL    HW2 2955   1.400   1.273   1.804 -0.4694 -0.1103 -1.1390
  986SOL     OW 2956   1.684   0.461   0.022 -0.5629 -0.0991  0.0749
  986SOL    HW1 2957   1.775   0.505   0.034  1.8592 -0.7068  0.5266
  986SOL    HW2 2958   1.625   0.512  -0.044 -0.7815  1.5299  1.8176
  987SOL     OW 2959   0.256   2.252   2.453  0.0038 -0.0852  0.3241
  987SOL    HW1 2960   0.333   2.306   2.495  0.4076 -0.6174 -0.3060
  987SOL    HW2 2961   0.248   2.168   2.512  2.3659  0.4163  1.8799
  988SOL     OW 2962   2.834   0.235   1.578  0.4731  0.0180  0.2310
  988SOL    HW1 2963   2.925   0.198   1.548 -2.2804  1.6706  1.4557
  988SOL    HW2 2964   2.764   0.213   1.507 -2.1705  3.9195 -1.0687
  989SOL     OW 2965   2.064   3.053   1.007 -0.0016 -0.2054 -0.1698
  989SOL    HW1 2966   2.068   2.972   0.946  3.6719  0.5988  2.2596
  989SOL    HW2 2967   2.089   3.133   0.949 -2.1668 -1.0951 -0.5092
  990SOL     OW 2968   2.757   0.829   0.178 -0.4512  0.0699  0.4226
  990SOL    HW1 2969   2.772   0.885   0.093  1.0297  0.7218  1.3032
  990SOL    HW2 2970   2.790   0.733   0.161 -0.1918 -0.6325  2.7542
  991SOL     OW 2971   0.287   1.037   0.621  0.2410 -0.4501 -0.1501
  991SOL    HW1 2972   0.215   1.109   0.620 -2.3989  0.0962  0.9406
  991SOL    HW2 2973   0.348   1.048   0.702  0.3585 -0.3457  0.6218
  992SOL     OW 2974   1.747   1.611   1.530 -0.0210 -0.0259 -0.0625
  992SOL    HW1 2975   1.745   1.701   1.482 -0.6458 -0.4295  1.8498
  992SOL    HW2 2976   1.788   1.625   1.623  0.5210  2.4265  1.7255
  993SOL     OW 2977   2.946   2.371   0.922  0.2031  0.1923  0.2439
  993SOL    HW1 2978   2.963   2.306   0.998  0.2282  2.8170 -1.9170
  993SOL    HW2 2979   2.872   2.335   0.862  1.2941  2.0285  0.1656
  994SOL     OW 2980   3.049   1.812   1.320 -0.0108  0.0051  0.8640
  994SOL    HW1 2981   2.950   1.836   1.306 -3.2786 -0.0335 -0.3539
  994SOL    HW2 2982   3.071   1.815   1.419  0.7246 -1.0080 -1.2416
  995SOL     OW 2983   2.048   1.216   2.810  0.0335  0.2202 -0.7411
  995SOL    HW1 2984   1.981   1.149   2.849  1.4582 -0.2403  0.0545
  995SOL    HW2 2985   2.022   1.312   2.833  1.3301 -2.3450 -0.0003
  996SOL     OW 2986   1.861   2.384   0.545  0.1575  0.8308  0.5867
  996SOL    HW1 2987   1.831   2.371   0.448 -0.4302 -1.1944 -0.2844
  996SOL    HW2 2988   1.910   2.304   0.583  0.7308  1.5852 -1.0895
  997SOL     OW 2989   1.400   1.578   1.918  0.3874 -0.0290 -0.2552
  997SOL    HW1 2990   1.336   1.625   1.854  1.1308 -1.0270 -1.8871
  997SOL    HW2 2991   1.420   1.484   1.882 -0.1467  0.8166  0.1729
  998SOL     OW 2992   3.010   2.541   0.483  0.3263 -0.8600  0.0894
  998SOL    HW1 2993   3.044   2.447   0.506 -0.9281 -0.7435  1.0650
  998SOL    HW2 2994   3.012   2.600   0.566  1.4705 -2.1037 -3.6538
  999SOL     OW 2995   0.625   2.969   0.067  0.1873  0.3249  0.0634
  999SOL    HW1 2996   0.599   2.885   0.015 -0.2008 -0.0521  1.0526
  999SOL    HW2 2997   0.613   3.053   0.011  0.2816 -0.5304 -1.4659
 1000SOL     OW 2998   0.877   0.242   0.100  0.9316  0.5787  0.1518
 1000SOL    HW1 2999   0.969   0.281   0.078 -1.8692 -0.1087  2.7520
 1000SOL    HW2 3000   0.823   0.249   0.014 -0.7880 -2.7219  0.4910
   3.06390   3.06390   3.06390
