1000 SPC/Fw water molecules
 3000
    1SOL     OW    1   1.318   2.855   0.237 -0.1903  0.2700 -0.4431
    1SOL    HW1    2   1.272   2.947   0.235 -1.6033 -0.9547 -0.3163
    1SOL    HW2    3   1.278   2.805   0.318  0.7702  0.8836 -1.6969
    2SOL     OW    4   1.514   0.739   1.517  0.0920 -0.6483  0.2107
    2SOL    HW1    5   1.599   0.712   1.465  1.0925 -0.0212 -0.5346
    2SOL    HW2    6   1.526   0.826   1.568  0.9351  3.3735 -0.2210
    3SOL     OW    7   0.667   0.097   2.391  0.6423 -0.2310  0.1245
    3SOL    HW1    8   0.675   0.194   2.421  1.7046 -1.0596  1.0813
    3SOL    HW2    9   0.610   0.044   2.459  1.7063 -2.1836 -0.9028
    4SOL     OW   10   1.589   1.673   2.991  0.4542  0.7059 -0.0127
    4SOL    HW1   11   1.623   1.763   2.952 -1.9134 -1.2813  1.6010
    4SOL    HW2   12   1.553   1.691   3.086 -0.8284 -3.2010 -0.9571
    5SOL     OW   13   0.798   1.264   2.028 -0.2286 -0.8939  0.3125
    5SOL    HW1   14   0.806   1.162   2.024 -0.0049  1.9206 -0.5773
    5SOL    HW2   15   0.892   1.303   2.022 -2.1601 -3.1415  1.1925
    6SOL     OW   16   2.381   0.969   2.256 -0.0948 -0.8092  0.1205
    6SOL    HW1   17   2.443   0.926   2.325 -1.2221 -1.6626  2.5497
    6SOL    HW2   18   2.348   0.896   2.192 -0.7024  2.6969  1.3907
    7SOL     OW   19   0.018   0.872   1.319  0.8692 -0.4955  0.8683
    7SOL    HW1   20  -0.045   0.953   1.321 -2.4412  2.8120 -0.3635
    7SOL    HW2   21   0.114   0.896   1.295 -2.0827 -0.4916  1.7798
    8SOL     OW   22   2.248   2.531   1.967 -0.1437 -0.1616  0.1504
    8SOL    HW1   23   2.236   2.555   1.868 -0.0834  0.4038  1.1265
    8SOL    HW2   24   2.266   2.617   2.020  2.8625 -0.0564 -0.1482
    9SOL     OW   25   0.102   2.657   0.291  0.4779 -0.6258 -0.6538
    9SOL    HW1   26   0.040   2.613   0.360  2.1576  0.9731  1.8951
    9SOL    HW2   27   0.187   2.600   0.280  1.3759  1.0274 -0.8083
   10SOL     OW   28   0.073   2.454   2.474  0.3476 -0.3098 -0.2101
   10SOL    HW1   29   0.126   2.538   2.452  0.9802  0.4481 -2.0121
   10SOL    HW2   30   0.134   2.372   2.462  0.9140  0.4328  2.3338
   11SOL     OW   31   0.193   1.803   0.113  0.1305  0.2543 -0.3089
   11SOL    HW1   32   0.264   1.730   0.115 -2.9346  0.6694 -0.9806
   11SOL    HW2   33   0.157   1.817   0.208  2.8840  0.6652 -0.2293
   12SOL     OW   34   2.322   2.948   0.455  0.1587  0.4611  0.5623
   12SOL    HW1   35   2.400   3.010   0.430  0.5662 -1.4883 -1.6778
   12SOL    HW2   36   2.304   2.891   0.371  0.5311 -0.9306 -0.7756
   13SOL     OW   37   0.226   0.450   2.589  0.0642 -0.3269 -0.3457
   13SOL    HW1   38   0.154   0.378   2.581 -1.7127  2.4510  0.7337
   13SOL    HW2   39   0.181   0.542   2.581 -0.0880 -5.2305 -3.4989
   14SOL     OW   40   1.297   0.700   1.356  0.1267 -0.5831  0.0272
   14SOL    HW1   41   1.382   0.702   1.414 -0.7187 -0.4025 -0.0039
   14SOL    HW2   42   1.326   0.685   1.259 -0.7561 -0.2497  0.3020
   15SOL     OW   43   0.648   1.393   2.212  0.0255 -0.8338 -0.1263
   15SOL    HW1   44   0.591   1.460   2.159  1.0411 -2.3757  1.3387
   15SOL    HW2   45   0.708   1.344   2.146  0.4614 -0.2312  0.0390
   16SOL     OW   46   1.802   0.846   2.739  0.5967 -0.1092 -0.0739
   16SOL    HW1   47   1.700   0.853   2.747  0.6095 -1.3152  1.4779
   16SOL    HW2   48   1.827   0.843   2.640 -0.1046  0.1810 -0.9668
   17SOL     OW   49   0.135   2.420   2.067  0.3623  0.7753  0.0279
   17SOL    HW1   50   0.093   2.500   2.114 -2.1675 -2.2392 -0.0128
   17SOL    HW2   51   0.063   2.369   2.014  1.1868 -1.0345  1.1707
   18SOL     OW   52   1.464   1.193   0.800  0.3548 -0.2042  0.1844
   18SOL    HW1   53   1.494   1.095   0.796 -0.6590 -0.9857 -1.8350
   18SOL    HW2   54   1.366   1.205   0.774  0.7024  1.3731 -0.4593
   19SOL     OW   55   0.141   1.059   1.734  0.5112  0.2448 -0.0078
   19SOL    HW1   56   0.218   1.109   1.689 -1.3369  0.3519 -3.2239
   19SOL    HW2   57   0.182   1.003   1.808  1.6604 -0.9249 -0.4114
   20SOL     OW   58   1.796   2.047   2.638  0.0458 -0.4004 -1.1922
   20SOL    HW1   59   1.757   2.137   2.606 -0.5451  0.9647 -1.6663
   20SOL    HW2   60   1.843   2.054   2.728  0.6155  0.0761  2.0846
   21SOL     OW   61   1.664   1.650   1.025 -0.2608 -0.0904  0.3661
   21SOL    HW1   62   1.739   1.708   1.065  0.4503 -1.3210  3.1479
   21SOL    HW2   63   1.681   1.551   1.041  3.6286 -0.2319 -0.4021
   22SOL     OW   64   1.932   2.262   1.413  0.0760  0.0320  0.0700
   22SOL    HW1   65   1.845   2.226   1.452  0.0705 -3.1091 -1.1184
   22SOL    HW2   66   1.912   2.310   1.324 -0.8570  0.1910 -0.4717
   23SOL     OW   67   2.668   1.083   1.324  0.2483 -0.7187 -0.0359
   23SOL    HW1   68   2.669   0.985   1.354 -0.0899 -1.1307  2.3430
   23SOL    HW2   69   2.625   1.092   1.232 -1.9447 -0.8649 -1.0926
   24SOL     OW   70   1.979   1.391   1.719 -0.0768 -0.0154  0.8659
   24SOL    HW1   71   1.934   1.480   1.741 -1.4826 -2.0247 -1.0500
   24SOL    HW2   72   2.054   1.379   1.788 -1.2546 -1.2209 -0.1047
   25SOL     OW   73   1.733   2.897   2.536 -0.8358 -0.5828 -0.1670
   25SOL    HW1   74   1.802   2.970   2.555 -0.3812 -3.9542  0.8405
   25SOL    HW2   75   1.675   2.925   2.458 -0.2216 -0.1989 -0.0039
   26SOL     OW   76   0.371   2.647   0.637 -0.4985 -0.2806  0.1476
   26SOL    HW1   77   0.462   2.678   0.672  2.9862 -0.4905  1.7557
   26SOL    HW2   78   0.383   2.567   0.575  0.6095 -1.6328 -0.2340
   27SOL     OW   79   1.199   1.226   0.742 -0.1319  0.1395  0.0267
   27SOL    HW1   80   1.189   1.185   0.837 -1.3918  1.2821 -0.5371
   27SOL    HW2   81   1.111   1.273   0.719  0.1248  1.6671  0.0722
   28SOL     OW   82   1.891   2.406   1.180  0.7319 -0.0669 -0.3443
   28SOL    HW1   83   1.971   2.414   1.117  0.3902 -1.4572 -1.8239
   28SOL    HW2   84   1.804   2.388   1.131 -0.0699 -0.4692  1.3455
   29SOL     OW   85   2.124   2.756   2.328 -0.0168  0.4612  0.0978
   29SOL    HW1   86   2.218   2.753   2.371 -1.9028 -0.0795  3.8508
   29SOL    HW2   87   2.060   2.710   2.392  1.2616  1.8422  0.3174
   30SOL     OW   88   0.110   2.737   1.846 -0.2572  0.8249  0.9698
   30SOL    HW1   89   0.016   2.701   1.866  1.6322  1.8192  0.1937
   30SOL    HW2   90   0.129   2.806   1.919  1.9870  5.8755  0.7653
   31SOL     OW   91   2.949   1.757   2.320 -0.7253 -0.0037 -0.3629
   31SOL    HW1   92   3.005   1.818   2.381  0.8158  3.4110 -0.6145
   31SOL    HW2   93   3.000   1.719   2.241 -0.3394  1.5200  2.5145
   32SOL     OW   94   1.017   2.427   2.212  0.4697  0.2477 -0.3066
   32SOL    HW1   95   0.943   2.419   2.283  0.7521 -2.5984 -1.1134
   32SOL    HW2   96   1.106   2.407   2.256  0.8062 -0.4974 -2.3763
   33SOL     OW   97   0.022   0.505   0.039  0.2828 -0.2841 -0.4972
   33SOL    HW1   98   0.030   0.604   0.012  1.1457  0.3858 -0.4543
   33SOL    HW2   99   0.105   0.456   0.003 -0.4415 -0.2863 -0.4467
   34SOL     OW  100   2.741   0.156   0.073  0.7765 -0.0157  0.3414
   34SOL    HW1  101   2.806   0.097   0.125 -2.1632  2.5420 -1.4437
   34SOL    HW2  102   2.660   0.102   0.043 -1.0118 -2.9519 -0.6114
   35SOL     OW  103   2.853   2.716   1.644 -0.3478 -0.0385 -0.4826
   35SOL    HW1  104   2.883   2.685   1.736  0.6441 -1.8503 -2.0747
   35SOL    HW2  105   2.901   2.804   1.622  2.7531  0.8856  3.0766
   36SOL     OW  106   2.280   3.038   2.624  0.1873 -0.1352  0.1610
   36SOL    HW1  107   2.195   2.988   2.648 -1.2613  1.6787  0.9662
   36SOL    HW2  108   2.354   2.967   2.626  0.6936  0.7559  0.3329
   37SOL     OW  109   1.775   2.524   0.082  0.0617 -0.2155  0.3745
   37SOL    HW1  110   1.765   2.516  -0.020  0.3838 -1.1714 -0.5192
   37SOL    HW2  111   1.703   2.586   0.120 -2.8570 -0.1761 -1.2101
   38SOL     OW  112   0.466   0.144   0.684 -0.3736  0.3792  0.4233
   38SOL    HW1  113   0.437   0.234   0.644  1.0669 -2.2165  1.7601
   38SOL    HW2  114   0.509   0.089   0.610  1.2389  0.6811  2.3988
   39SOL     OW  115   1.114   1.828   2.143  0.0739 -0.1644 -0.0402
   39SOL    HW1  116   1.033   1.837   2.205 -4.2958  2.2237 -1.2170
   39SOL    HW2  117   1.162   1.917   2.128 -1.1383 -0.3373 -1.4627
   40SOL     OW  118   3.052   0.965   0.189  0.1501 -0.1769 -0.9941
   40SOL    HW1  119   2.965   1.005   0.223 -0.8576 -2.5123 -3.1769
   40SOL    HW2  120   3.094   1.028   0.118  1.8116  0.8619 -0.9356
   41SOL     OW  121   1.618   0.035   2.083  0.7059  0.3261 -0.0417
   41SOL    HW1  122   1.540   0.092   2.120  0.6672 -0.0357 -2.2275
   41SOL    HW2  123   1.582  -0.027   2.011 -1.5319 -0.4654 -1.0957
   42SOL     OW  124   2.424   0.125   1.083  0.0608  0.0700  0.0474
   42SOL    HW1  125   2.519   0.130   1.046 -1.2827 -1.3172 -2.9493
   42SOL    HW2  126   2.414   0.039   1.137 -1.9271  0.5581 -0.2917
   43SOL     OW  127   1.546   0.251   1.175  0.6053  0.2836  0.0635
   43SOL    HW1  128   1.577   0.217   1.266 -2.0189  0.3784 -0.5213
   43SOL    HW2  129   1.560   0.179   1.104  0.1139 -2.6578 -1.2936
   44SOL     OW  130   0.288   0.874   3.012 -0.6015 -0.0929 -0.2900
   44SOL    HW1  131   0.376   0.826   2.993 -0.3658  1.1987  0.2121
   44SOL    HW2  132   0.298   0.940   3.090  0.0929 -0.5583  0.7490
   45SOL     OW  133   0.627   1.518   1.708  0.4495 -0.2192  0.1612
   45SOL    HW1  134   0.677   1.521   1.618  0.5151 -1.4368  0.3123
   45SOL    HW2  135   0.621   1.421   1.743 -0.2333  1.0917 -1.4884
   46SOL     OW  136   2.249   2.237   1.701  0.6387 -0.4349  0.2469
   46SOL    HW1  137   2.217   2.140   1.698  1.5579 -1.0575 -0.1465
   46SOL    HW2  138   2.345   2.247   1.733  0.4699 -2.8768  0.8870
   47SOL     OW  139   0.354   1.807   1.430  0.0364  0.0852  0.5344
   47SOL    HW1  140   0.369   1.835   1.333  3.1617 -0.9892  1.3102
   47SOL    HW2  141   0.308   1.881   1.484 -0.6920 -1.5853  1.1308
   48SOL     OW  142   1.072   2.777   2.670 -0.3471  0.1901  0.8197
   48SOL    HW1  143   1.044   2.697   2.613  1.0280 -1.7366 -0.5796
   48SOL    HW2  144   0.988   2.821   2.707  1.5896  4.9760 -1.9378
   49SOL     OW  145   2.694   1.604   1.883 -0.1650  0.4562 -0.2939
   49SOL    HW1  146   2.654   1.642   1.797  0.9764  2.6051 -0.1095
   49SOL    HW2  147   2.655   1.514   1.905 -1.6532 -1.4772  1.2531
   50SOL     OW  148   0.893   2.870   0.372 -0.3385  0.1470 -0.1362
   50SOL    HW1  149   0.955   2.887   0.451  1.7050 -1.2316  3.2984
   50SOL    HW2  150   0.865   2.962   0.338 -0.2868 -1.9302 -0.6719
   51SOL     OW  151   1.143   0.187   0.862 -0.1994 -0.4870  0.1663
   51SOL    HW1  152   1.191   0.207   0.774 -0.4148 -3.2533  2.5881
   51SOL    HW2  153   1.187   0.106   0.907  1.6887 -0.2477 -1.9426
   52SOL     OW  154   0.146   0.807   0.632  0.3317  0.3396 -0.3074
   52SOL    HW1  155   0.095   0.801   0.543  0.1608  0.3848 -1.6208
   52SOL    HW2  156   0.208   0.889   0.628  0.5004 -1.0488 -0.7690
   53SOL     OW  157   0.999   0.166   2.788  0.3077 -0.1555 -0.5505
   53SOL    HW1  158   1.067   0.112   2.842  0.0332  0.5560  0.0204
   53SOL    HW2  159   0.956   0.106   2.716  0.5390 -2.1855  2.9545
   54SOL     OW  160   2.097   0.469   2.159  0.7217  0.4274 -0.3770
   54SOL    HW1  161   2.134   0.437   2.247  2.0448  0.3124 -2.5695
   54SOL    HW2  162   2.066   0.386   2.105  1.9929  0.0816  0.3326
   55SOL     OW  163   2.529   0.024   0.336  0.0152 -0.1362  0.3550
   55SOL    HW1  164   2.602  -0.013   0.398  1.6591  1.3151  0.2242
   55SOL    HW2  165   2.553  -0.001   0.240 -0.9941 -2.1300 -3.3274
   56SOL     OW  166   0.821   0.362   2.186  0.6586  0.0687  0.3018
   56SOL    HW1  167   0.742   0.349   2.122 -0.3966 -1.3738  0.7524
   56SOL    HW2  168   0.857   0.269   2.211  1.6462 -1.7436  1.0507
   57SOL     OW  169   1.725   0.977   2.275  0.5054 -0.3327  0.2082
   57SOL    HW1  170   1.689   1.073   2.283 -0.7767 -2.2024  1.6062
   57SOL    HW2  171   1.774   0.970   2.186  1.4628 -1.1106  0.6446
   58SOL     OW  172   0.217   0.888   1.946  0.3967  0.4788  0.8235
   58SOL    HW1  173   0.271   0.962   1.992  1.9131 -0.8069 -0.5541
   58SOL    HW2  174   0.196   0.819   2.019 -0.2932 -1.3839  0.0325
   59SOL     OW  175   0.843   2.682   1.900 -0.3270  0.3602 -0.1881
   59SOL    HW1  176   0.753   2.646   1.930 -1.5084  0.6816  1.2514
   59SOL    HW2  177   0.906   2.677   1.981  1.8252 -1.5485  2.7177
   60SOL     OW  178   2.146   2.599   0.325  0.3262 -0.2334 -0.1762
   60SOL    HW1  179   2.066   2.619   0.385  0.8161 -3.4262 -1.0606
   60SOL    HW2  180   2.148   2.500   0.295  0.1480  0.9976 -0.6098
   61SOL     OW  181   1.449   2.616   0.383  0.3221  0.3197 -0.4460
   61SOL    HW1  182   1.356   2.645   0.414 -1.3635  0.2832 -3.6135
   61SOL    HW2  183   1.466   2.517   0.405 -0.5997  0.7262 -1.7499
   62SOL     OW  184   2.197   2.584   2.955  0.0721  0.5111  0.1829
   62SOL    HW1  185   2.224   2.488   2.978  0.3672 -1.5531 -0.7622
   62SOL    HW2  186   2.127   2.617   3.023 -0.2733  0.7147 -1.7695
   63SOL     OW  187   2.614   0.928   0.598  0.0776 -0.0410 -0.0903
   63SOL    HW1  188   2.579   0.893   0.508  1.2799  1.1574 -1.9787
   63SOL    HW2  189   2.714   0.911   0.609 -0.0516 -1.0235 -1.8862
   64SOL     OW  190   1.585   1.033   0.057  0.4110 -0.3037  0.0649
   64SOL    HW1  191   1.598   1.129   0.089 -0.7096 -1.7524  0.8571
   64SOL    HW2  192   1.485   1.012   0.062  0.4501  0.3652 -1.4270
   65SOL     OW  193   0.420   2.426   1.687 -0.4987  0.4220 -0.5964
   65SOL    HW1  194   0.399   2.490   1.610  0.7419 -1.2319 -0.2262
   65SOL    HW2  195   0.373   2.466   1.768 -0.2063 -2.5460  0.9013
   66SOL     OW  196   1.003   1.279   1.277  0.0948 -0.4226  0.2851
   66SOL    HW1  197   1.023   1.179   1.268  0.3140 -1.5269  3.0304
   66SOL    HW2  198   1.011   1.324   1.186 -0.6995  0.2228 -1.9972
   67SOL     OW  199   2.485   1.856   1.925 -0.3153  0.6037  0.3925
   67SOL    HW1  200   2.537   1.833   1.841  1.3798 -0.2616  1.0692
   67SOL    HW2  201   2.494   1.786   1.998  1.1029  0.1261  1.1578
   68SOL     OW  202   1.201   1.693   1.756  0.3594  0.3968 -0.4111
   68SOL    HW1  203   1.192   1.626   1.678  0.3334  1.4551 -0.0824
   68SOL    HW2  204   1.129   1.677   1.827  0.3754 -0.1693 -0.7984
   69SOL     OW  205   2.633   0.403   0.091  0.1593  0.2259  0.2792
   69SOL    HW1  206   2.539   0.402   0.054 -0.2265 -3.3337 -0.5282
   69SOL    HW2  207   2.673   0.308   0.091  0.3749 -1.9262 -0.2486
   70SOL     OW  208   2.167   1.133   2.247 -0.1867 -0.3530  0.1825
   70SOL    HW1  209   2.249   1.071   2.251 -1.2234 -1.9693  0.2783
   70SOL    HW2  210   2.113   1.116   2.333 -1.3197 -0.4080 -1.6874
   71SOL     OW  211   1.035   2.083   0.662  0.5638  0.1628 -0.5464
   71SOL    HW1  212   1.104   2.050   0.596 -0.2792  1.9345 -1.3163
   71SOL    HW2  213   1.081   2.150   0.725 -2.0752 -1.8253 -2.4813
   72SOL     OW  214   2.235   1.746   0.630  0.3667  0.6966 -0.1294
   72SOL    HW1  215   2.303   1.823   0.626  1.9534 -1.0584  0.6376
   72SOL    HW2  216   2.163   1.766   0.698 -4.1080 -1.0542 -2.4186
   73SOL     OW  217   1.067   0.895   0.530  0.3314  0.3122 -0.3093
   73SOL    HW1  218   0.994   0.950   0.577  1.4477  1.1053 -2.5178
   73SOL    HW2  219   1.026   0.828   0.466 -4.0260  0.8867 -1.3575
   74SOL     OW  220   2.646   2.124   2.171  0.3020  0.3981 -0.5459
   74SOL    HW1  221   2.658   2.026   2.197 -0.0099  0.2780  1.9394
   74SOL    HW2  222   2.667   2.142   2.073  0.5780 -0.5143 -2.1614
   75SOL     OW  223   1.666   1.642   1.948 -0.1631  0.0095  0.0410
   75SOL    HW1  224   1.568   1.613   1.937  1.9272  4.2778  3.2675
   75SOL    HW2  225   1.707   1.591   2.026 -1.4591  1.9145 -0.5569
   76SOL     OW  226   1.241   1.565   1.106  0.6893  0.1798 -0.0063
   76SOL    HW1  227   1.177   1.535   1.032 -1.2689 -2.3669 -1.7890
   76SOL    HW2  228   1.304   1.636   1.066  0.8224 -0.6261  0.1867
   77SOL     OW  229   2.379   0.896   1.735 -0.0879 -0.3835 -0.2145
   77SOL    HW1  230   2.289   0.918   1.779  3.3460  0.5679 -0.3395
   77SOL    HW2  231   2.394   0.795   1.724 -1.4465 -1.3257 -1.1566
   78SOL     OW  232   1.647   0.633   0.308 -0.3102  0.4311 -0.5759
   78SOL    HW1  233   1.654   0.686   0.221  0.8410 -1.5124  2.0225
   78SOL    HW2  234   1.558   0.654   0.353  2.3427  1.1231 -0.0468
   79SOL     OW  235   1.013   1.657   1.951  0.7810  0.4633 -0.4749
   79SOL    HW1  236   1.045   1.724   2.022 -1.5142 -1.3040  0.6379
   79SOL    HW2  237   0.912   1.661   1.936 -1.5538 -4.4887  0.7021
   80SOL     OW  238   0.987   0.354   1.442 -0.3773 -0.0044  0.2769
   80SOL    HW1  239   1.007   0.454   1.432  2.2752  1.3688  1.5058
   80SOL    HW2  240   1.002   0.330   1.540 -3.8686  0.3217  1.3861
   81SOL     OW  241   0.305   2.491   0.231 -0.3441 -0.2337  0.2767
   81SOL    HW1  242   0.381   2.503   0.165 -1.6650  1.7116  4.5396
   81SOL    HW2  243   0.349   2.471   0.322  0.3169  0.1907 -0.0600
   82SOL     OW  244   1.060   0.249   1.706 -0.2032 -0.7125 -0.0582
   82SOL    HW1  245   1.060   0.275   1.806 -0.4255  0.7624  0.5970
   82SOL    HW2  246   1.156   0.257   1.670 -0.7934 -0.5740 -0.6252
   83SOL     OW  247   0.421   2.241   0.988  0.3822 -0.1254 -0.3351
   83SOL    HW1  248   0.345   2.308   0.975 -1.4428  1.0094 -2.1206
   83SOL    HW2  249   0.383   2.145   0.985  0.9217  0.2236 -0.8322
   84SOL     OW  250   2.519   1.248   0.935  0.1743 -0.4544 -0.3727
   84SOL    HW1  251   2.524   1.168   0.998 -0.1254  2.9660  1.1928
   84SOL    HW2  252   2.575   1.229   0.851  2.1862 -0.7938 -1.0876
   85SOL     OW  253   2.225   1.901   1.141 -0.8983  0.3743 -0.9786
   85SOL    HW1  254   2.163   1.862   1.212  2.3290  0.0925 -0.4897
   85SOL    HW2  255   2.290   1.826   1.117  0.3803  2.3851 -0.0682
   86SOL     OW  256   1.224   2.085   2.150 -0.2758  0.0689  0.6593
   86SOL    HW1  257   1.154   2.142   2.101  3.1300  1.5635 -1.2474
   86SOL    HW2  258   1.312   2.075   2.098  1.7936  1.0584 -0.1525
   87SOL     OW  259   2.265   1.292   0.862  0.3439  0.4869 -0.0639
   87SOL    HW1  260   2.267   1.361   0.786  0.3172  2.0758  0.7605
   87SOL    HW2  261   2.361   1.271   0.892 -1.7788 -0.2331 -1.1353
   88SOL     OW  262   0.485   2.885   0.979  0.1525 -0.0793 -0.5202
   88SOL    HW1  263   0.421   2.948   0.929 -1.6094 -0.6655  0.8956
   88SOL    HW2  264   0.520   2.931   1.064 -1.6962  1.2777 -0.9177
   89SOL     OW  265   0.537   1.140   1.477 -0.4701  0.0739 -0.0752
   89SOL    HW1  266   0.626   1.129   1.525  0.9208 -0.9839  2.9824
   89SOL    HW2  267   0.523   1.061   1.413  0.4241  0.4418  1.1653
   90SOL     OW  268   2.665   1.775   0.372 -0.0893  0.2648  0.1060
   90SOL    HW1  269   2.645   1.866   0.414  0.6559  1.1826  1.3021
   90SOL    HW2  270   2.766   1.767   0.354 -0.4957 -2.4863  0.3975
   91SOL     OW  271   0.748   1.918   0.940  0.0783  0.0994 -0.0413
   91SOL    HW1  272   0.721   2.013   0.967  0.1773 -2.8705 -0.6200
   91SOL    HW2  273   0.713   1.852   1.010  0.2100  0.8035  0.1963
   92SOL     OW  274   2.098   2.965   1.920 -0.1633 -0.1086  0.2457
   92SOL    HW1  275   2.190   2.997   1.951  1.4725 -0.4241 -0.4349
   92SOL    HW2  276   2.047   2.911   1.990  2.8185 -0.5392  0.3794
   93SOL     OW  277   0.621   1.925   2.779  0.5610 -0.3357 -0.4223
   93SOL    HW1  278   0.632   1.920   2.880 -0.6540 -0.3171 -1.2108
   93SOL    HW2  279   0.526   1.893   2.756  0.8169 -0.7815  1.6357
   94SOL     OW  280   2.354   3.016   2.031 -0.0085  0.2163  0.1248
   94SOL    HW1  281   2.348   3.094   2.098  0.5873  0.3578  0.0089
   94SOL    HW2  282   2.399   3.048   1.944 -1.6820  2.8758  1.2682
   95SOL     OW  283   1.895   0.028   1.785  0.1652  0.0029  0.1904
   95SOL    HW1  284   1.923   0.125   1.764 -1.2550  0.1104  2.7022
   95SOL    HW2  285   1.964  -0.025   1.837  1.8706 -1.6642 -2.2518
   96SOL     OW  286   0.695   0.761   2.140 -0.3623  0.2356 -0.6758
   96SOL    HW1  287   0.642   0.779   2.226 -0.4694 -1.2756  1.1899
   96SOL    HW2  288   0.720   0.850   2.096  2.1638  0.8106  0.3809
   97SOL     OW  289   1.976   2.896   1.476  0.5321 -0.0547  0.2258
   97SOL    HW1  290   1.887   2.939   1.502  1.6491  0.6850  1.2642
   97SOL    HW2  291   1.961   2.804   1.432  2.4602 -1.7092  0.3624
   98SOL     OW  292   1.715   2.182   1.560 -0.0877  0.3817  0.1742
   98SOL    HW1  293   1.744   2.227   1.647  2.9848  0.2802  0.7678
   98SOL    HW2  294   1.684   2.087   1.582 -1.3328 -1.3401 -1.2105
   99SOL     OW  295   0.352   0.703   1.062  0.0463  0.2958 -0.9644
   99SOL    HW1  296   0.292   0.784   1.050 -2.0850 -0.0246 -3.2259
   99SOL    HW2  297   0.410   0.696   0.978 -0.3276 -0.5168 -1.8471
  100SOL     OW  298   2.977   1.993   1.955  0.2864 -0.3872 -0.7261
  100SOL    HW1  299   2.927   1.904   1.963 -0.1501  0.2475  2.6000
  100SOL    HW2  300   3.040   1.999   2.035  1.8210  2.2105  0.5468
  101SOL     OW  301   1.107   0.362   0.006 -0.6437 -0.2527 -0.2559
  101SOL    HW1  302   1.192   0.310   0.030 -0.1494 -0.4281  1.5899
  101SOL    HW2  303   1.102   0.388  -0.092 -1.3453  1.0303 -1.8712
  102SOL     OW  304   2.808   0.108   1.220  0.4862 -0.0327  0.1077
  102SOL    HW1  305   2.892   0.165   1.226 -2.1109  1.5320 -0.2839
  102SOL    HW2  306   2.739   0.146   1.286  1.2930  1.7576 -0.4214
  103SOL     OW  307   0.138   2.936   2.498 -0.1969  0.5867 -0.0361
  103SOL    HW1  308   0.149   3.024   2.448  2.4456 -0.9400  0.4198
  103SOL    HW2  309   0.038   2.917   2.514 -0.9144 -0.7658 -0.4851
  104SOL     OW  310   0.143   2.398   1.226  0.5546  0.0617 -0.0979
  104SOL    HW1  311   0.067   2.454   1.268  1.0839  1.4473 -1.7626
  104SOL    HW2  312   0.233   2.444   1.244  0.3120  0.4584  0.1359
  105SOL     OW  313   0.501   1.538   2.039  0.1456 -0.0932 -0.2467
  105SOL    HW1  314   0.452   1.454   2.009  1.9876 -0.6399  1.5496
  105SOL    HW2  315   0.440   1.618   2.018 -0.2319 -1.9242  2.7793
  106SOL     OW  316   2.599   2.724   0.529  0.1976 -0.0347  0.4261
  106SOL    HW1  317   2.587   2.710   0.630  0.3484  0.1631 -1.3607
  106SOL    HW2  318   2.627   2.821   0.516 -1.4465 -0.0323  0.0031
  107SOL     OW  319   0.672   1.117   0.945 -0.1913 -0.2946 -0.3950
  107SOL    HW1  320   0.639   1.155   1.034 -2.8200  2.3445  0.1545
  107SOL    HW2  321   0.767   1.081   0.958 -0.2294 -0.8856 -2.9637
  108SOL     OW  322   2.935   1.127   2.147 -0.4079  0.3966 -0.1075
  108SOL    HW1  323   2.894   1.221   2.137  2.1036  2.3691  1.3339
  108SOL    HW2  324   3.034   1.128   2.169 -0.6239 -1.4325  0.7000
  109SOL     OW  325   2.021   2.643   0.083  0.1574  0.0601  0.6064
  109SOL    HW1  326   1.927   2.604   0.077 -2.7199 -0.6054 -3.8525
  109SOL    HW2  327   2.063   2.627   0.174 -0.3069  0.9299 -0.0388
  110SOL     OW  328   0.229   2.159   0.037 -0.2886  0.2090  0.8815
  110SOL    HW1  329   0.176   2.084  -0.006 -0.3777  0.6276 -0.7600
  110SOL    HW2  330   0.169   2.226   0.086  1.1060  0.6297  0.3782
  111SOL     OW  331   2.683   1.022   2.686 -0.2717 -0.4784 -0.1823
  111SOL    HW1  332   2.660   1.045   2.590 -1.0884 -0.6750  2.1579
  111SOL    HW2  333   2.592   1.010   2.732  2.8402  1.0124 -0.9659
  112SOL     OW  334   2.228   2.594   1.705  0.1933 -0.5381  0.0464
  112SOL    HW1  335   2.201   2.692   1.690 -0.3337  0.4043 -1.6663
  112SOL    HW2  336   2.165   2.528   1.658 -0.9701 -0.0236  0.6509
  113SOL     OW  337   2.209   1.893   2.629 -0.4647  0.3164  0.0239
  113SOL    HW1  338   2.225   1.794   2.651  3.6151 -0.9819 -0.1247
  113SOL    HW2  339   2.253   1.909   2.537  1.7106 -2.9423  0.1426
  114SOL     OW  340   0.591   2.988   0.555  0.1034 -0.0747  0.1404
  114SOL    HW1  341   0.584   2.903   0.610 -1.6245 -0.8484 -0.3393
  114SOL    HW2  342   0.680   3.033   0.581 -0.6558  2.0863 -2.0171
  115SOL     OW  343   0.087   1.713   2.875 -0.1958 -1.4043  0.9981
  115SOL    HW1  344   0.065   1.803   2.915 -0.1959  1.5505  0.9410
  115SOL    HW2  345   0.184   1.688   2.896 -0.1133  1.9863 -3.2239
  116SOL     OW  346   2.850   1.323   1.659 -0.3737  0.1488  0.1423
  116SOL    HW1  347   2.896   1.233   1.650 -1.0432 -2.6440  2.4380
  116SOL    HW2  348   2.913   1.389   1.708  0.2285  1.3558  0.2949
  117SOL     OW  349   2.078   0.187   1.483 -0.1933 -0.6323 -0.1009
  117SOL    HW1  350   2.121   0.105   1.442  1.1177 -0.5333 -1.4179
  117SOL    HW2  351   1.991   0.211   1.433  0.6376 -0.7976  2.1756
  118SOL     OW  352   2.782   2.204   2.394 -0.5631  0.0679  0.5123
  118SOL    HW1  353   2.731   2.171   2.311  2.3774 -1.2485  1.7100
  118SOL    HW2  354   2.834   2.288   2.371  0.6933 -0.0424 -0.1547
  119SOL     OW  355   0.379   1.636   1.696  0.6784  0.3922 -0.4485
  119SOL    HW1  356   0.375   1.700   1.618  0.1473  0.2744  1.4233
  119SOL    HW2  357   0.475   1.598   1.701 -2.4048 -0.1640 -0.5546
  120SOL     OW  358   0.223   1.415   1.735  0.0433  0.8105  0.8555
  120SOL    HW1  359   0.246   1.342   1.666  2.0605  1.7024 -1.3406
  120SOL    HW2  360   0.279   1.498   1.711 -1.2723  0.8876  3.6656
  121SOL     OW  361   1.528   0.934   0.770 -0.2164  0.6764 -0.1503
  121SOL    HW1  362   1.448   0.882   0.737 -0.6362 -1.4404  0.5448
  121SOL    HW2  363   1.611   0.906   0.716  0.0753 -1.5361 -2.2802
  122SOL     OW  364   2.436   2.335   2.686  0.2235 -0.3550 -0.2969
  122SOL    HW1  365   2.385   2.407   2.633  1.7950 -1.5170  0.5288
  122SOL    HW2  366   2.369   2.260   2.698  2.3362 -0.3159  1.1339
  123SOL     OW  367   3.027   0.409   0.481  0.2808 -0.5267 -0.1085
  123SOL    HW1  368   2.998   0.423   0.578  1.4743 -1.6472  1.8390
  123SOL    HW2  369   2.987   0.324   0.442 -0.5477 -0.3797 -0.1547
  124SOL     OW  370   1.630   1.287   0.143 -0.6539 -0.3330  0.1578
  124SOL    HW1  371   1.677   1.284   0.234 -3.2584 -1.5754 -0.9333
  124SOL    HW2  372   1.687   1.345   0.081  0.8340 -0.0313 -1.7075
  125SOL     OW  373   3.033   0.787   2.272 -0.3912  0.1718 -0.1899
  125SOL    HW1  374   3.086   0.849   2.334 -0.6210  0.0284  0.6099
  125SOL    HW2  375   3.100   0.741   2.209  1.5816  2.5241  0.4134
  126SOL     OW  376   2.755   2.801   0.196 -0.3824  0.0222 -0.4482
  126SOL    HW1  377   2.743   2.759   0.103  0.6264 -0.6131  1.1833
  126SOL    HW2  378   2.758   2.726   0.265  3.2177 -1.2215 -0.5528
  127SOL     OW  379   2.726   1.827   3.028 -0.4225  0.2171  0.3249
  127SOL    HW1  380   2.640   1.864   3.069 -0.5198 -1.5676 -1.3115
  127SOL    HW2  381   2.734   1.729   3.055  1.2596 -1.7222  1.0382
  128SOL     OW  382   0.897   1.044   0.664  0.2904  0.5591  0.0099
  128SOL    HW1  383   0.798   1.057   0.642 -2.1032 -2.4105  0.1465
  128SOL    HW2  384   0.904   1.050   0.766  0.3101  1.8552 -1.5920
  129SOL     OW  385   2.120   2.015   0.922  0.3158  0.4763 -0.4956
  129SOL    HW1  386   2.157   1.976   1.011  0.3647 -0.8454  2.0789
  129SOL    HW2  387   2.051   2.086   0.943  0.9735 -1.4404  1.6018
  130SOL     OW  388   1.880   0.862   0.229  0.1986  0.1307  0.6378
  130SOL    HW1  389   1.971   0.830   0.195  4.4671 -1.2000 -0.8526
  130SOL    HW2  390   1.805   0.828   0.168 -3.1744  2.0252 -0.5848
  131SOL     OW  391   0.039   1.666   2.612 -0.1111  0.2285  0.2221
  131SOL    HW1  392  -0.056   1.629   2.600  2.2759 -0.6212  0.2805
  131SOL    HW2  393   0.061   1.678   2.712 -1.3067 -0.9386  2.7063
  132SOL     OW  394   1.266   1.176   1.782 -0.1236 -0.1717  1.0459
  132SOL    HW1  395   1.246   1.078   1.761 -0.1479  0.0103  0.3422
  132SOL    HW2  396   1.181   1.231   1.766  1.8537 -2.9756  0.6303
  133SOL     OW  397   0.413   1.083   0.856  0.7646 -0.1285  0.4840
  133SOL    HW1  398   0.512   1.072   0.878  1.9451 -0.5227  2.6909
  133SOL    HW2  399   0.380   1.171   0.898 -0.2182 -0.9708  1.2132
  134SOL     OW  400   0.024   1.368   0.132 -0.2552  0.9066  0.1941
  134SOL    HW1  401   0.044   1.275   0.093  0.0117 -1.0820 -0.2384
  134SOL    HW2  402  -0.006   1.428   0.055 -0.1440 -0.7400 -1.2017
  135SOL     OW  403   1.672   0.784   0.082 -0.2899 -0.1655 -0.2905
  135SOL    HW1  404   1.639   0.881   0.072  0.2304 -0.9994  1.5733
  135SOL    HW2  405   1.637   0.728   0.003  2.1818  2.6167  1.2316
  136SOL     OW  406   2.124   2.071   1.435 -0.1217 -0.4522 -0.0600
  136SOL    HW1  407   2.152   2.048   1.531 -0.7844 -1.2558  2.0193
  136SOL    HW2  408   2.052   2.145   1.432  0.5989  1.1599 -0.4510
  137SOL     OW  409   2.289   2.431   0.679  0.0829 -0.6274 -0.7032
  137SOL    HW1  410   2.242   2.499   0.739 -1.4395 -1.7458  0.1291
  137SOL    HW2  411   2.323   2.475   0.593  2.6527 -1.4550  2.8749
  138SOL     OW  412   2.374   0.304   1.769  0.0167  0.2518  0.4880
  138SOL    HW1  413   2.398   0.205   1.765  1.1741  1.0472  3.3241
  138SOL    HW2  414   2.331   0.332   1.681 -0.8112  1.3418 -1.0744
  139SOL     OW  415   2.735   2.639   2.689  0.7527  0.3336 -0.0055
  139SOL    HW1  416   2.677   2.572   2.739  0.8874 -0.3651  0.9213
  139SOL    HW2  417   2.715   2.628   2.590  0.1221 -2.6305  1.4395
  140SOL     OW  418   1.487   1.892   2.611 -0.2257 -1.0166  0.7310
  140SOL    HW1  419   1.475   1.989   2.581  1.6815 -0.1085 -0.2964
  140SOL    HW2  420   1.544   1.839   2.545 -0.2129  0.9714 -0.1404
  141SOL     OW  421   1.449   1.410   2.508 -0.4288 -0.5224 -0.5106
  141SOL    HW1  422   1.417   1.319   2.475  0.7363 -1.0253  0.3365
  141SOL    HW2  423   1.516   1.390   2.583  0.1509 -4.4000 -0.3469
  142SOL     OW  424   2.032   2.378   2.020  0.3891 -1.1328 -0.1124
  142SOL    HW1  425   2.033   2.282   1.982 -3.6472 -1.0312 -0.3660
  142SOL    HW2  426   2.119   2.427   1.998 -3.1561 -1.8104  1.6022
  143SOL     OW  427   1.029   2.491   0.464 -0.4744 -0.2832  0.4035
  143SOL    HW1  428   1.064   2.482   0.559 -1.5471 -0.0294 -1.6684
  143SOL    HW2  429   0.973   2.411   0.434  0.1591  0.3131 -0.8227
  144SOL     OW  430   0.818   2.651   0.516  0.7434 -0.2450 -0.3662
  144SOL    HW1  431   0.814   2.736   0.460  1.6162 -1.3237 -1.1043
  144SOL    HW2  432   0.896   2.594   0.484 -1.1128 -0.5550 -1.5570
  145SOL     OW  433   1.810   2.222   3.042  0.6013 -0.0316  0.5938
  145SOL    HW1  434   1.712   2.198   3.019  1.7982  2.2586  1.8747
  145SOL    HW2  435   1.829   2.319   3.024 -1.0750 -1.7542 -1.5538
  146SOL     OW  436   1.760   2.351   0.295 -0.0050  0.2866  0.6059
  146SOL    HW1  437   1.770   2.415   0.216  3.1300  1.4769  2.1561
  146SOL    HW2  438   1.788   2.255   0.272 -1.1910 -0.2770  1.2361
  147SOL     OW  439   0.332   1.733   1.955  0.2440 -0.0067  0.3274
  147SOL    HW1  440   0.323   1.695   1.860 -0.6179  0.6059 -0.7767
  147SOL    HW2  441   0.394   1.814   1.949 -1.5561  0.4559 -1.3249
  148SOL     OW  442   1.212   0.040   0.231  0.3085 -0.3181 -0.3627
  148SOL    HW1  443   1.262   0.110   0.175 -0.1636  0.7362  1.7473
  148SOL    HW2  444   1.125   0.012   0.186  2.7520  1.6447  2.8323
  149SOL     OW  445   0.431   2.088   0.206  0.7891 -0.6519  0.7227
  149SOL    HW1  446   0.516   2.128   0.163  3.9744  1.8069 -1.3838
  149SOL    HW2  447   0.352   2.105   0.142  1.6709 -2.0378  2.3538
  150SOL     OW  448   0.376   2.535   1.248 -0.7924 -0.0252  0.0161
  150SOL    HW1  449   0.477   2.522   1.258  3.3256 -0.8965  1.6778
  150SOL    HW2  450   0.360   2.589   1.162  2.2305 -2.2617  1.5171
  151SOL     OW  451   0.347   1.652   2.916 -0.0929 -0.4987  0.1187
  151SOL    HW1  452   0.387   1.576   2.859 -0.7361 -1.0935  0.2201
  151SOL    HW2  453   0.363   1.630   3.014 -0.0082  0.5517 -0.2237
  152SOL     OW  454   2.988   1.923   0.911  0.2619  0.0406  0.3442
  152SOL    HW1  455   3.024   1.851   0.848  0.4707 -0.6108 -1.9347
  152SOL    HW2  456   2.889   1.912   0.927 -0.4405  0.8040 -0.1387
  153SOL     OW  457   1.564   2.295   0.685 -0.3490 -0.4808  0.6417
  153SOL    HW1  458   1.642   2.235   0.660 -1.5835  0.7540  2.4186
  153SOL    HW2  459   1.488   2.233   0.716 -2.4673 -0.7824  1.8306
  154SOL     OW  460   0.835   3.012   1.445 -0.1304  0.2846 -0.3577
  154SOL    HW1  461   0.857   2.912   1.443  0.8565 -1.7436 -2.0481
  154SOL    HW2  462   0.734   3.025   1.456  0.6365 -1.5438 -0.1700
  155SOL     OW  463   2.622   2.023   0.477 -0.1961 -0.3041  0.4195
  155SOL    HW1  464   2.706   2.072   0.508  0.0597  0.3336 -2.4873
  155SOL    HW2  465   2.574   2.083   0.409 -0.1636  0.3660  1.6110
  156SOL     OW  466   2.503   1.983   0.099  0.1314 -0.5167 -0.3599
  156SOL    HW1  467   2.443   2.023   0.026  0.7231  0.0867  2.2499
  156SOL    HW2  468   2.506   2.050   0.177 -2.3291  0.1135  0.7425
  157SOL     OW  469   0.555   0.134   1.898  0.0494 -0.0256  0.1580
  157SOL    HW1  470   0.582   0.231   1.922 -0.0172  2.9460 -0.7383
  157SOL    HW2  471   0.522   0.090   1.984 -1.1692 -0.0945  0.2961
  158SOL     OW  472   0.990   0.606   1.129 -0.1738 -0.4436 -0.3737
  158SOL    HW1  473   1.048   0.536   1.081  0.5716 -0.7048  1.5293
  158SOL    HW2  474   1.024   0.604   1.226  0.9808  0.9872 -1.0551
  159SOL     OW  475   1.875   1.030   2.924 -0.1044  0.8760  0.2466
  159SOL    HW1  476   1.848   0.961   2.852  2.3633  0.4052 -0.5243
  159SOL    HW2  477   1.794   1.044   2.982  0.2280  0.7649 -0.5266
  160SOL     OW  478   1.298   1.740   0.503  0.5347  0.4452 -0.1757
  160SOL    HW1  479   1.363   1.667   0.475 -0.4697  1.4581  1.8970
  160SOL    HW2  480   1.204   1.711   0.476  2.1315 -1.3846  3.1888
  161SOL     OW  481   2.757   1.784   2.744  0.1258 -0.1173  0.3911
  161SOL    HW1  482   2.777   1.863   2.681 -1.0756  1.0433 -3.0559
  161SOL    HW2  483   2.750   1.817   2.840 -0.2787  1.1234  1.9424
  162SOL     OW  484   3.015   2.225   1.139 -0.0912  0.3219  0.0654
  162SOL    HW1  485   3.087   2.286   1.178 -1.3047 -0.7750 -0.5727
  162SOL    HW2  486   3.057   2.132   1.137  0.7274 -3.5654 -0.4186
  163SOL     OW  487   0.589   0.847   2.622  0.9304  0.2178  0.2055
  163SOL    HW1  488   0.666   0.899   2.661 -2.7800  1.4448 -0.1008
  163SOL    HW2  489   0.581   0.759   2.673 -1.7977  0.2572  2.2259
  164SOL     OW  490   0.384   2.616   2.714  0.0857 -0.0866  0.2497
  164SOL    HW1  491   0.326   2.586   2.792 -0.3790 -0.0692  1.1569
  164SOL    HW2  492   0.360   2.711   2.685  1.0879 -0.4189  0.2761
  165SOL     OW  493   2.349   1.011   1.487 -0.0598 -0.3198 -0.1585
  165SOL    HW1  494   2.368   0.965   1.577  1.6815 -1.5003  2.6396
  165SOL    HW2  495   2.398   1.100   1.480 -2.0563 -0.9002 -0.8749
  166SOL     OW  496   2.054   1.828   1.349 -0.5189  0.0205  0.2113
  166SOL    HW1  497   2.085   1.920   1.385 -1.6159  0.3442  0.3105
  166SOL    HW2  498   2.111   1.755   1.391 -0.7942  0.8720 -0.2420
  167SOL     OW  499   0.042   0.771   3.051 -0.1376 -0.1104 -0.4228
  167SOL    HW1  500   0.002   0.830   3.124  2.8776 -0.7526 -0.1317
  167SOL    HW2  501   0.138   0.804   3.037 -1.6295 -1.8099  0.9001
  168SOL     OW  502   2.181   0.405   2.620  0.0361 -0.3202  1.0187
  168SOL    HW1  503   2.083   0.413   2.588  1.9791 -1.2876  0.9909
  168SOL    HW2  504   2.196   0.321   2.677 -1.3463 -2.1842 -0.3153
  169SOL     OW  505   0.541   1.224   0.028 -0.2866  0.3848 -0.6494
  169SOL    HW1  506   0.530   1.286   0.109  0.3327 -1.5303  0.6818
  169SOL    HW2  507   0.474   1.246  -0.047  4.0614  0.4378  2.0476
  170SOL     OW  508   1.201   0.919   1.475  0.1335  0.4451 -0.5152
  170SOL    HW1  509   1.229   0.833   1.427  1.5089  0.4533 -0.3082
  170SOL    HW2  510   1.276   0.989   1.472  0.6457  1.7382  1.0157
  171SOL     OW  511   1.609   2.679   1.024  0.5901 -0.2503  0.1879
  171SOL    HW1  512   1.590   2.617   1.103 -2.0597  1.3642 -0.5981
  171SOL    HW2  513   1.582   2.634   0.936 -0.4320 -0.8679  0.5836
  172SOL     OW  514   0.988   0.030   2.012 -0.0514 -0.0324 -0.1485
  172SOL    HW1  515   0.910  -0.005   1.956  1.5737  0.3279 -0.6292
  172SOL    HW2  516   1.071  -0.027   1.991 -0.8347 -0.5438 -1.6349
  173SOL     OW  517   0.845   2.455   0.928 -0.3242  0.1083 -0.1637
  173SOL    HW1  518   0.856   2.545   0.879  0.4946 -1.2277  1.9878
  173SOL    HW2  519   0.748   2.445   0.957 -1.3943 -0.8696 -1.6628
  174SOL     OW  520   2.109   0.132   0.270  0.1351  0.3526 -0.0355
  174SOL    HW1  521   2.016   0.165   0.296  1.6183 -0.7291 -2.7638
  174SOL    HW2  522   2.101   0.037   0.234  0.6685  2.4461  0.8438
  175SOL     OW  523   0.962   1.359   0.714  0.7115 -0.0118 -0.8492
  175SOL    HW1  524   0.971   1.461   0.704 -0.5708  0.6000 -0.3065
  175SOL    HW2  525   0.865   1.338   0.738  1.1513 -2.1170 -2.3173
  176SOL     OW  526   0.991   1.809   0.994 -0.1873 -0.1779  0.1198
  176SOL    HW1  527   1.064   1.873   1.022 -1.3498  0.1009  0.5555
  176SOL    HW2  528   0.909   1.857   0.959 -1.0077 -0.1773 -1.4237
  177SOL     OW  529   1.266   0.909   1.106  0.4357 -0.1152 -0.6891
  177SOL    HW1  530   1.284   0.810   1.085  0.2219 -0.3715  0.9984
  177SOL    HW2  531   1.350   0.950   1.149 -0.7289 -0.6897  2.2914
  178SOL     OW  532   2.294   1.480   0.668  0.1017 -0.0608 -0.4243
  178SOL    HW1  533   2.280   1.580   0.648 -0.4223  0.4639 -0.2454
  178SOL    HW2  534   2.294   1.425   0.581 -1.5748 -2.0635 -1.5554
  179SOL     OW  535   0.959   2.780   3.000 -0.2578  0.1101 -0.4192
  179SOL    HW1  536   0.928   2.734   3.086  1.2679  2.4667 -1.3849
  179SOL    HW2  537   1.045   2.739   2.962 -0.7353 -0.5471  0.0390
  180SOL     OW  538   1.766   1.199   1.661  0.2757  0.2933  0.2417
  180SOL    HW1  539   1.704   1.272   1.625  0.3885 -0.8490  0.8889
  180SOL    HW2  540   1.852   1.244   1.690 -0.2397 -0.1319  0.9264
  181SOL     OW  541   0.787   0.967   1.584  0.1183  0.2559  0.3161
  181SOL    HW1  542   0.804   0.866   1.570  1.3445 -0.8308 -0.3304
  181SOL    HW2  543   0.850   1.001   1.657  3.3716 -2.0445 -0.3267
  182SOL     OW  544   2.817   1.003   3.041 -0.3605 -0.0226 -0.1271
  182SOL    HW1  545   2.875   1.018   2.958  0.7637  0.3178 -1.5084
  182SOL    HW2  546   2.775   1.090   3.075 -2.2258  0.1299  0.1993
  183SOL     OW  547   1.884   0.046   2.130 -0.4617  0.0605  0.5725
  183SOL    HW1  548   1.921  -0.048   2.126  2.2807  0.6044  0.2347
  183SOL    HW2  549   1.783   0.046   2.110  0.7151 -0.5318  0.9083
  184SOL     OW  550   0.984   0.778   0.921 -0.1638  0.6281 -0.2573
  184SOL    HW1  551   0.941   0.716   0.853  2.6748  1.3554 -1.1569
  184SOL    HW2  552   0.989   0.726   1.009  0.8216  2.4404 -2.4503
  185SOL     OW  553   2.053   1.120   0.518  0.6813 -0.0309 -0.2687
  185SOL    HW1  554   2.101   1.102   0.607 -2.7640  1.8159  0.3777
  185SOL    HW2  555   2.013   1.214   0.517 -3.2481 -2.2438  2.2618
  186SOL     OW  556   0.291   2.191   0.425 -0.2294  0.4857  0.0746
  186SOL    HW1  557   0.304   2.137   0.511  2.4692 -0.4214  0.8076
  186SOL    HW2  558   0.341   2.152   0.345 -0.9130 -0.9189 -1.1401
  187SOL     OW  559   1.707   1.648   2.668  0.1284  0.1429 -0.2791
  187SOL    HW1  560   1.700   1.695   2.578  1.4244 -0.4850  0.6729
  187SOL    HW2  561   1.706   1.717   2.741 -0.1515 -0.9970  0.0999
  188SOL     OW  562   1.362   2.898   1.414 -0.1375  0.3225 -0.1133
  188SOL    HW1  563   1.343   2.999   1.418  0.8189  0.9734 -4.3665
  188SOL    HW2  564   1.279   2.844   1.442  3.1061 -0.6506  0.9058
  189SOL     OW  565   2.845   1.370   2.425 -0.5736  0.5600 -0.1789
  189SOL    HW1  566   2.830   1.457   2.479 -1.5557  1.5564 -1.2056
  189SOL    HW2  567   2.763   1.311   2.437 -2.4665 -0.3125 -1.0079
  190SOL     OW  568   1.021   2.669   2.100  0.0852 -0.1359 -0.3852
  190SOL    HW1  569   1.014   2.573   2.135  2.1160 -0.9604  1.9863
  190SOL    HW2  570   1.119   2.699   2.106  0.3265  0.4225 -1.0689
  191SOL     OW  571   2.354   0.904   1.236 -0.3813  0.0462  0.2580
  191SOL    HW1  572   2.258   0.874   1.213  1.4349 -0.3336 -1.7774
  191SOL    HW2  573   2.358   0.944   1.330 -1.0553  0.0057  1.3489
  192SOL     OW  574   1.962   0.500   1.039 -0.0202 -0.1663 -0.2062
  192SOL    HW1  575   2.047   0.445   1.030  0.0457  0.2947 -1.4470
  192SOL    HW2  576   1.898   0.479   0.961 -0.2411 -0.0959 -0.3210
  193SOL     OW  577   0.855   0.062   0.293  0.0595  0.8313 -0.2416
  193SOL    HW1  578   0.855   0.135   0.220 -0.5000  2.0910 -0.8308
  193SOL    HW2  579   0.841   0.107   0.382  1.8224 -0.9601  4.1483
  194SOL     OW  580   1.685   2.334   0.996  0.6644  0.4463  0.0386
  194SOL    HW1  581   1.643   2.397   0.930  0.6564  1.3425  0.0636
  194SOL    HW2  582   1.612   2.283   1.048 -1.3418  2.0053  0.4126
  195SOL     OW  583   2.383   0.876   0.739  0.1783 -0.7677  0.6390
  195SOL    HW1  584   2.460   0.912   0.682  1.6768 -0.6506  0.0782
  195SOL    HW2  585   2.310   0.948   0.743  1.6883 -1.7980 -1.5049
  196SOL     OW  586   0.990   2.357   1.770  0.4993  0.5709 -0.1658
  196SOL    HW1  587   1.007   2.338   1.671  0.4934  2.0625  2.1322
  196SOL    HW2  588   0.901   2.322   1.804 -1.0450  3.3286 -0.5755
  197SOL     OW  589   2.650   0.262   2.376 -0.9806  0.1410  0.6547
  197SOL    HW1  590   2.589   0.344   2.367  0.3845  2.7481  2.4837
  197SOL    HW2  591   2.585   0.183   2.381 -0.3106 -2.0367  2.5044
  198SOL     OW  592   2.139   1.504   0.268  0.5264 -0.1105  0.3613
  198SOL    HW1  593   2.218   1.522   0.206  1.1492  0.4950  1.3562
  198SOL    HW2  594   2.064   1.454   0.218  0.5093 -0.7059  2.8576
  199SOL     OW  595   2.400   0.621   1.730  0.3035  0.3985 -0.2539
  199SOL    HW1  596   2.367   0.595   1.823  1.7973  0.2095  0.1159
  199SOL    HW2  597   2.370   0.551   1.663  0.2851  0.7763 -2.5187
  200SOL     OW  598   1.792   2.863   2.961  0.2171 -0.0592  1.0309
  200SOL    HW1  599   1.735   2.928   3.016 -1.6457 -2.4175  1.5115
  200SOL    HW2  600   1.890   2.881   2.978 -1.9809  0.6578  1.5442
  201SOL     OW  601   2.641   0.220   1.393 -0.0070  0.3660  0.4182
  201SOL    HW1  602   2.552   0.183   1.429 -0.3293 -0.2894 -0.4927
  201SOL    HW2  603   2.620   0.315   1.361  1.1457 -0.6808 -3.1490
  202SOL     OW  604   2.692   2.981   0.525  0.4664  0.0845 -0.4084
  202SOL    HW1  605   2.663   3.036   0.607  2.2305  0.2511 -2.5374
  202SOL    HW2  606   2.794   2.972   0.527  1.6533  1.9465 -1.0085
  203SOL     OW  607   1.471   1.541   0.444  0.1456  0.0711 -0.1823
  203SOL    HW1  608   1.502   1.473   0.514  0.3002  1.0694 -0.6447
  203SOL    HW2  609   1.541   1.615   0.431  4.4038  0.0004  0.0850
  204SOL     OW  610   0.159   1.748   2.174  0.4306  0.0918  0.2359
  204SOL    HW1  611   0.128   1.846   2.171 -0.0940  1.2082 -0.5412
  204SOL    HW2  612   0.217   1.731   2.093 -1.4209 -0.8082 -0.6934
  205SOL     OW  613   0.485   0.671   0.832 -0.1105 -0.4041 -0.1477
  205SOL    HW1  614   0.558   0.599   0.840  1.2923  1.8729  0.7805
  205SOL    HW2  615   0.399   0.633   0.791  0.1294 -0.4737  0.6611
  206SOL     OW  616   0.347   0.983   2.583 -0.1411 -0.0950 -0.0907
  206SOL    HW1  617   0.363   1.077   2.545  0.2243  0.9055  2.2996
  206SOL    HW2  618   0.436   0.935   2.599 -1.8230 -2.7002 -0.7183
  207SOL     OW  619   1.346   2.289   1.594  0.4865  0.8454  0.5550
  207SOL    HW1  620   1.406   2.285   1.677  0.4438  0.5769  1.6471
  207SOL    HW2  621   1.281   2.213   1.598  1.0555  0.8887 -1.7323
  208SOL     OW  622   2.247   0.320   1.025  0.1269  0.4101 -0.1356
  208SOL    HW1  623   2.314   0.252   1.063  2.5866 -1.2086  1.0102
  208SOL    HW2  624   2.187   0.278   0.953 -3.0902  0.9072 -2.0533
  209SOL     OW  625   1.931   0.957   0.832 -0.1663 -0.2454 -0.1026
  209SOL    HW1  626   1.921   0.888   0.908  0.8919 -1.9191  1.0665
  209SOL    HW2  627   1.861   0.932   0.761 -0.4481  0.0664 -1.3242
  210SOL     OW  628   2.174   1.057   0.756  0.3944  0.2411 -0.4254
  210SOL    HW1  629   2.088   1.021   0.798 -0.9172 -0.5491  0.8125
  210SOL    HW2  630   2.198   1.143   0.805 -2.5941  0.9524  1.3014
  211SOL     OW  631   0.833   2.853   2.772 -0.2295  0.2368  0.6970
  211SOL    HW1  632   0.760   2.784   2.747 -0.0834  2.4077 -0.4249
  211SOL    HW2  633   0.868   2.837   2.867  0.1804  1.4996  3.8059
  212SOL     OW  634   1.842   1.738   0.586 -0.0170 -0.3156  0.2090
  212SOL    HW1  635   1.887   1.781   0.668  0.4351 -0.0730  0.6634
  212SOL    HW2  636   1.914   1.721   0.516  2.0730  0.2233  0.3871
  213SOL     OW  637   2.270   2.817   0.227 -0.1781  0.1902 -0.3132
  213SOL    HW1  638   2.237   2.722   0.245 -0.1445  0.5571  0.1219
  213SOL    HW2  639   2.303   2.830   0.131 -0.4536 -3.8109 -1.6522
  214SOL     OW  640   1.273   2.357   2.291  0.2494 -0.2324  0.1371
  214SOL    HW1  641   1.362   2.401   2.266 -1.3404 -0.0017 -0.4246
  214SOL    HW2  642   1.276   2.266   2.247  0.1407  0.0373  0.2739
  215SOL     OW  643   0.331   1.311   0.976  0.1258  0.1574  0.4222
  215SOL    HW1  644   0.240   1.323   1.021 -1.4286 -2.4739 -0.1664
  215SOL    HW2  645   0.357   1.397   0.927  1.5650  1.7800  1.3007
  216SOL     OW  646   0.088   0.095   2.340  0.6813  0.4630 -0.2654
  216SOL    HW1  647   0.097   0.166   2.267 -1.1001 -2.5346  0.8183
  216SOL    HW2  648   0.032   0.017   2.305  0.6520  1.6443  1.4087
  217SOL     OW  649   2.871   1.470   1.431  0.0191  0.0020  0.3294
  217SOL    HW1  650   2.973   1.468   1.415  1.8575  1.3365  0.0306
  217SOL    HW2  651   2.847   1.407   1.507  0.2248  0.1498  2.0176
  218SOL     OW  652   0.681   2.364   1.696 -0.0124 -0.1048  0.1368
  218SOL    HW1  653   0.581   2.388   1.699  0.2044  0.2898 -4.2797
  218SOL    HW2  654   0.704   2.290   1.763 -1.1202 -2.2398  0.9461
  219SOL     OW  655   2.156   1.892   2.898  0.0121 -0.0795 -0.0477
  219SOL    HW1  656   2.171   1.897   2.797  1.6529 -2.3207 -1.2428
  219SOL    HW2  657   2.163   1.795   2.930 -0.0326 -1.3759 -2.1377
  220SOL     OW  658   1.797   0.213   0.044  0.6525  0.3959  0.1802
  220SOL    HW1  659   1.873   0.204  -0.023 -0.3728 -0.2880 -0.2401
  220SOL    HW2  660   1.750   0.302   0.025 -0.3532 -0.4035  2.4994
  221SOL     OW  661   2.813   1.063   0.293  0.0654 -0.4542 -0.1575
  221SOL    HW1  662   2.789   0.966   0.271 -1.5664 -1.5790  0.9576
  221SOL    HW2  663   2.782   1.125   0.217 -1.5932  0.8389 -1.5690
  222SOL     OW  664   1.572   1.373   0.631 -0.4815 -0.5785 -0.0730
  222SOL    HW1  665   1.535   1.303   0.696  0.1688 -2.0133  0.2012
  222SOL    HW2  666   1.618   1.448   0.684 -0.3266  0.8751  0.7013
  223SOL     OW  667   0.786   0.281   2.910 -0.0627 -0.6631  0.3330
  223SOL    HW1  668   0.864   0.240   2.859  0.1204 -0.5006 -1.2953
  223SOL    HW2  669   0.789   0.383   2.899 -0.9454 -1.9589 -0.1015
  224SOL     OW  670   0.986   2.853   1.108  0.0089  0.0445 -0.4301
  224SOL    HW1  671   0.989   2.949   1.143 -0.1854 -0.9932  0.0419
  224SOL    HW2  672   0.899   2.810   1.140 -0.1937  0.1270  0.2420
  225SOL     OW  673   0.914   0.122   2.256  0.0779 -0.7169 -0.6897
  225SOL    HW1  674   0.935   0.067   2.172 -0.3170  1.0730 -0.0174
  225SOL    HW2  675   0.832   0.080   2.298 -1.6756 -2.1348  1.6215
  226SOL     OW  676   1.238   1.548   0.799  0.5174 -0.5105  0.3044
  226SOL    HW1  677   1.312   1.615   0.782  1.4792 -0.0798  0.9416
  226SOL    HW2  678   1.278   1.457   0.780  1.5494 -1.7591 -0.0347
  227SOL     OW  679   0.155   2.253   1.467  0.4277 -0.2315 -0.3082
  227SOL    HW1  680   0.167   2.275   1.369  2.0827 -1.6378  4.1951
  227SOL    HW2  681   0.188   2.158   1.483 -3.3298  0.2477 -0.3326
  228SOL     OW  682   0.096   1.867   0.356  0.0971 -0.1425 -0.0074
  228SOL    HW1  683   0.068   1.963   0.332 -1.2884 -1.0593 -0.4778
  228SOL    HW2  684   0.171   1.869   0.426  0.2599  0.2206  0.4876
  229SOL     OW  685   2.422   0.209   2.961  0.2764  0.4046  0.2574
  229SOL    HW1  686   2.488   0.244   2.889  1.3256 -0.2185  1.2619
  229SOL    HW2  687   2.460   0.128   3.009 -0.1762  2.1539  0.5014
  230SOL     OW  688   2.552   0.826   0.356  0.1092  0.5115  0.2277
  230SOL    HW1  689   2.621   0.822   0.280 -1.1090 -2.6889  0.3619
  230SOL    HW2  690   2.479   0.889   0.325 -0.1837 -2.4213  0.1816
  231SOL     OW  691   1.632   1.753   0.415 -0.1649  0.2193 -0.2915
  231SOL    HW1  692   1.712   1.744   0.479  0.1543  1.5912 -0.7663
  231SOL    HW2  693   1.619   1.853   0.395 -2.3327  0.7128 -0.3730
  232SOL     OW  694   1.776   1.969   0.997  0.4376 -0.1022  0.2904
  232SOL    HW1  695   1.837   2.045   0.966 -0.3126  1.4082  0.8414
  232SOL    HW2  696   1.833   1.889   1.025  1.2692 -2.2300  1.2462
  233SOL     OW  697   0.567   2.863   1.861 -0.1734 -0.7607  0.2581
  233SOL    HW1  698   0.649   2.924   1.861 -1.6415  0.0886  1.2465
  233SOL    HW2  699   0.550   2.845   1.761 -0.0586 -1.5166  0.7239
  234SOL     OW  700   0.701   0.368   2.440 -0.1840 -0.1673  0.1784
  234SOL    HW1  701   0.747   0.380   2.350  1.5920 -2.1123  0.3194
  234SOL    HW2  702   0.755   0.423   2.507  3.2718  2.5075  0.6161
  235SOL     OW  703   2.565   1.051   1.874 -0.3255  0.6904  0.0288
  235SOL    HW1  704   2.652   1.003   1.902  0.0033  2.5823 -1.1483
  235SOL    HW2  705   2.502   0.988   1.824  1.4320  2.7314  1.0014
  236SOL     OW  706   1.580   2.740   1.382  0.0439 -0.6824 -0.2122
  236SOL    HW1  707   1.653   2.785   1.326  0.3833 -0.6705  1.4816
  236SOL    HW2  708   1.500   2.803   1.393 -1.5130  0.0520 -0.1892
  237SOL     OW  709   0.402   1.638   2.520 -0.4584 -0.4036  0.5643
  237SOL    HW1  710   0.476   1.678   2.461 -0.0726  0.6305  0.0123
  237SOL    HW2  711   0.322   1.607   2.466 -3.0885  1.2284 -4.9679
  238SOL     OW  712   1.153   0.914   2.133  0.4612  0.0779  0.8808
  238SOL    HW1  713   1.225   0.970   2.086  1.9643 -1.1503  2.8552
  238SOL    HW2  714   1.094   0.866   2.066 -0.4228  1.8268 -0.1351
  239SOL     OW  715   0.848   1.659   2.446 -0.4225 -0.1333  0.8249
  239SOL    HW1  716   0.830   1.683   2.544  2.3902 -1.7287  2.5332
  239SOL    HW2  717   0.882   1.740   2.393  0.8955 -0.2397 -0.2998
  240SOL     OW  718   2.383   2.565   0.463  0.3055 -0.1497  0.1202
  240SOL    HW1  719   2.300   2.601   0.416  0.2355 -2.4996 -3.9848
  240SOL    HW2  720   2.449   2.641   0.481  1.2616  2.1477 -0.2028
  241SOL     OW  721   0.324   1.061   0.136 -0.6817  0.2676 -0.5123
  241SOL    HW1  722   0.325   1.020   0.230  0.3848  1.5961 -1.1262
  241SOL    HW2  723   0.409   1.115   0.122  1.6240  1.8460 -0.6737
  242SOL     OW  724   1.515   2.889   1.652  0.0250 -0.1988  0.0496
  242SOL    HW1  725   1.451   2.900   1.574 -0.3303  0.6208 -1.7871
  242SOL    HW2  726   1.551   2.793   1.653  0.2758 -0.7921 -0.0969
  243SOL     OW  727   1.176   2.565   1.777  0.0107  0.4209  0.1585
  243SOL    HW1  728   1.123   2.652   1.780 -2.0238 -0.4324 -1.1439
  243SOL    HW2  729   1.109   2.488   1.780  2.0353  0.4112 -0.3400
  244SOL     OW  730   2.293   0.604   2.470  0.0068  0.0856  0.6311
  244SOL    HW1  731   2.248   0.695   2.482 -1.6340 -0.7935  2.6950
  244SOL    HW2  732   2.249   0.534   2.530  2.4117  0.1890  3.8416
  245SOL     OW  733   1.501   2.205   1.146 -0.5180 -0.0504  0.5856
  245SOL    HW1  734   1.495   2.243   1.241 -2.5801  0.1752  0.0395
  245SOL    HW2  735   1.437   2.126   1.138  0.8607  0.3247 -1.4767
  246SOL     OW  736   1.331   0.215   0.053  0.1383  0.2997  0.0103
  246SOL    HW1  737   1.396   0.260   0.119  2.1166  1.5552 -0.9513
  246SOL    HW2  738   1.362   0.240  -0.043 -1.5088  0.4768 -0.3578
  247SOL     OW  739   1.731   0.310   1.885  0.0522  0.1456 -0.3472
  247SOL    HW1  740   1.810   0.320   1.823 -2.0501  4.0784 -0.3213
  247SOL    HW2  741   1.734   0.225   1.939 -1.2237  0.1043 -1.5578
  248SOL     OW  742   0.003   2.421   1.612  0.1431 -0.0543  0.0501
  248SOL    HW1  743   0.041   2.515   1.603  0.0488  1.9538 -1.2800
  248SOL    HW2  744   0.059   2.350   1.563 -0.1656  1.9314 -1.9326
  249SOL     OW  745   0.536   0.262   0.350  0.0514  0.5652 -0.3147
  249SOL    HW1  746   0.436   0.279   0.372 -2.7505 -0.7532 -0.5369
  249SOL    HW2  747   0.548   0.162   0.330  3.5512 -3.1991  1.7251
  250SOL     OW  748   2.358   0.173   2.190 -0.1897  0.4379  0.4610
  250SOL    HW1  749   2.285   0.216   2.247  1.7189  0.2545 -0.0441
  250SOL    HW2  750   2.401   0.242   2.127 -2.4102  5.0140 -2.2322
  251SOL     OW  751   1.306   0.680   3.052 -0.3443 -0.3946 -0.2670
  251SOL    HW1  752   1.292   0.624   3.137  1.7150 -2.4393 -0.9530
  251SOL    HW2  753   1.233   0.664   2.983 -1.8696  1.7182  1.2420
  252SOL     OW  754   1.530   2.468   2.222 -0.2240 -0.0168 -0.0721
  252SOL    HW1  755   1.614   2.488   2.277 -1.3585 -0.0354  2.9028
  252SOL    HW2  756   1.518   2.538   2.149 -1.3829  2.6990 -1.8584
  253SOL     OW  757   2.770   2.582   0.367 -0.6551 -0.0591 -0.0098
  253SOL    HW1  758   2.706   2.628   0.433  1.4680 -0.3545  1.5346
  253SOL    HW2  759   2.858   2.562   0.416 -3.2815 -0.3304  0.8458
  254SOL     OW  760   2.092   0.989   1.414  0.6537  0.4077 -0.7339
  254SOL    HW1  761   2.057   1.080   1.383  2.5485  0.0744  2.7115
  254SOL    HW2  762   2.189   1.004   1.446 -1.1926 -0.1921 -0.9059
  255SOL     OW  763   0.893   2.747   1.441 -0.1553 -0.4387 -0.0248
  255SOL    HW1  764   0.843   2.736   1.352  1.0558 -1.3498 -0.0217
  255SOL    HW2  765   0.846   2.689   1.510 -0.5958  0.5816  1.8395
  256SOL     OW  766   2.350   1.649   1.666  0.2642  0.1317  0.3541
  256SOL    HW1  767   2.299   1.642   1.578 -0.7334 -1.3977 -0.6634
  256SOL    HW2  768   2.441   1.694   1.654  0.6672 -2.1064  1.1188
  257SOL     OW  769   0.450   2.393   2.577 -0.2668  0.0193 -0.7035
  257SOL    HW1  770   0.497   2.327   2.639  2.7206 -0.6637  1.3541
  257SOL    HW2  771   0.417   2.478   2.623 -1.1616 -0.2229 -0.7633
  258SOL     OW  772   0.583   2.458   0.993 -0.1446 -0.0413 -0.0651
  258SOL    HW1  773   0.533   2.531   0.945 -2.2666 -0.5614  0.2400
  258SOL    HW2  774   0.531   2.370   0.987 -0.6013  1.2225 -0.5556
  259SOL     OW  775   1.447   0.430   2.657  0.5491 -0.1380 -0.1296
  259SOL    HW1  776   1.548   0.425   2.668  1.6726 -1.4231  1.7425
  259SOL    HW2  777   1.420   0.522   2.620 -2.4149 -1.7939  1.2811
  260SOL     OW  778   0.333   0.418   1.250 -0.4310  0.3180  0.3873
  260SOL    HW1  779   0.405   0.489   1.261 -1.2480 -0.5128 -2.1633
  260SOL    HW2  780   0.335   0.381   1.154 -2.1669  1.2821 -1.6396
  261SOL     OW  781   1.191   0.078   2.344 -0.2120  0.6898 -0.1887
  261SOL    HW1  782   1.168  -0.017   2.378  0.7207  2.6905  1.3102
  261SOL    HW2  783   1.103   0.126   2.333 -0.0268 -0.3809  0.5196
  262SOL     OW  784   1.203   2.932   1.954  0.2596 -0.0011 -0.2032
  262SOL    HW1  785   1.226   2.868   2.031  0.1369  0.0248 -0.3151
  262SOL    HW2  786   1.155   2.881   1.878 -0.0328 -0.7783  0.4350
  263SOL     OW  787   0.650   2.158   0.059  0.1197  0.2659 -0.1445
  263SOL    HW1  788   0.729   2.214   0.030  1.7717 -0.9178 -0.0817
  263SOL    HW2  789   0.653   2.063   0.021  0.0120  2.8654 -2.5429
  264SOL     OW  790   1.414   1.754   1.017  0.2921  0.2200 -0.1236
  264SOL    HW1  791   1.509   1.719   1.034 -1.8623  0.8864  0.8733
  264SOL    HW2  792   1.400   1.761   0.916 -2.1168  0.3279 -1.4444
  265SOL     OW  793   0.865   2.286   0.372 -0.4954 -0.0192 -0.0589
  265SOL    HW1  794   0.948   2.238   0.333  0.4138 -0.1510  0.6884
  265SOL    HW2  795   0.803   2.213   0.404 -0.3564 -1.5562  0.6684
  266SOL     OW  796   2.738   0.870   1.014 -0.1947  0.4876  0.0213
  266SOL    HW1  797   2.679   0.806   0.961  2.5866 -1.1541  2.5674
  266SOL    HW2  798   2.795   0.821   1.084 -0.0461 -1.3949  0.1746
  267SOL     OW  799   0.254   1.427   0.266  0.1281  0.4848  0.5185
  267SOL    HW1  800   0.226   1.435   0.364  0.0845  0.4065  4.8811
  267SOL    HW2  801   0.170   1.404   0.211  0.3853  0.2245 -0.0692
  268SOL     OW  802   1.286   0.549   0.229 -0.1419 -0.5847  0.1333
  268SOL    HW1  803   1.185   0.542   0.241  0.2770  0.1733 -0.7701
  268SOL    HW2  804   1.321   0.603   0.309 -1.1267  0.7098 -0.7480
  269SOL     OW  805   2.567   0.689   2.177 -0.2326  0.0315 -0.0846
  269SOL    HW1  806   2.557   0.758   2.251  1.6998  1.9084  0.7956
  269SOL    HW2  807   2.661   0.699   2.140  2.2239  1.0457 -1.1761
  270SOL     OW  808   2.653   1.173   0.711  0.5612  0.4227 -0.1599
  270SOL    HW1  809   2.659   1.242   0.637 -2.0666 -1.8973 -1.3756
  270SOL    HW2  810   2.625   1.086   0.666  0.5383  1.5969  1.4482
  271SOL     OW  811   0.145   1.151   2.237 -0.3334  0.0026 -0.1812
  271SOL    HW1  812   0.214   1.116   2.169 -1.2162 -0.9825  2.2182
  271SOL    HW2  813   0.131   1.250   2.216 -3.2502  1.9702  0.5695
  272SOL     OW  814   2.504   2.223   1.808  0.2978  0.1811 -0.2946
  272SOL    HW1  815   2.450   2.257   1.889 -0.5721 -0.8465 -3.3557
  272SOL    HW2  816   2.584   2.168   1.839  0.1802 -0.1227  2.9586
  273SOL     OW  817   0.218   2.521   2.908  1.0425 -0.0428 -0.1809
  273SOL    HW1  818   0.280   2.443   2.932  1.7369  0.3650 -1.8907
  273SOL    HW2  819   0.140   2.492   2.849  0.8792  0.8692  2.2853
  274SOL     OW  820   0.816   2.266   0.724  0.1309 -0.4459  0.3857
  274SOL    HW1  821   0.844   2.322   0.804 -0.6044 -0.5224  1.4931
  274SOL    HW2  822   0.890   2.200   0.698 -1.8061 -2.9928 -0.9212
  275SOL     OW  823   1.449   2.130   2.474 -0.3874 -0.4248  0.0334
  275SOL    HW1  824   1.485   2.149   2.380 -0.5785  0.5105 -1.6684
  275SOL    HW2  825   1.348   2.114   2.473 -0.5979 -3.2296 -1.0683
  276SOL     OW  826   2.842   1.770   2.023 -0.2902 -0.2247  0.7993
  276SOL    HW1  827   2.782   1.709   1.966 -0.8173  3.7724 -2.1433
  276SOL    HW2  828   2.785   1.809   2.098 -0.9477 -3.4733  1.3569
  277SOL     OW  829   2.102   0.203   0.832 -0.2921 -0.1480  0.5015
  277SOL    HW1  830   2.172   0.212   0.758  1.1106 -3.1573 -1.4139
  277SOL    HW2  831   2.007   0.214   0.797  0.4551 -1.5719  0.2177
  278SOL     OW  832   1.423   0.056   2.501 -0.4430 -0.2692  0.7020
  278SOL    HW1  833   1.339   0.086   2.452 -4.2664  2.1809  1.3465
  278SOL    HW2  834   1.398   0.017   2.592  1.9649  0.5238 -0.3524
  279SOL     OW  835   1.182   2.686   1.022 -0.6817 -0.3878  0.0744
  279SOL    HW1  836   1.194   2.605   1.083  1.2385  2.9617  0.3275
  279SOL    HW2  837   1.110   2.750   1.059  0.5672 -0.3464  2.0548
  280SOL     OW  838   1.241   1.096   0.498 -0.5083 -0.5178  0.0042
  280SOL    HW1  839   1.177   1.016   0.506 -0.1491 -1.0638 -0.9874
  280SOL    HW2  840   1.237   1.149   0.584  0.9077  0.2095 -2.0221
  281SOL     OW  841   2.062   1.714   0.423  0.1511 -0.2456 -0.3370
  281SOL    HW1  842   2.133   1.727   0.496 -1.7521  1.7213  1.5780
  281SOL    HW2  843   2.089   1.635   0.363 -1.2279 -2.1724  0.6823
  282SOL     OW  844   2.809   1.404   0.553  0.3344  0.1553  0.3135
  282SOL    HW1  845   2.718   1.448   0.538 -1.8411  2.2620  2.3024
  282SOL    HW2  846   2.877   1.429   0.480  0.4863 -0.3968 -0.0716
  283SOL     OW  847   1.740   2.498   2.884  0.2417 -0.0188 -0.5224
  283SOL    HW1  848   1.666   2.436   2.851  0.3469  0.2068 -1.8491
  283SOL    HW2  849   1.736   2.587   2.834  1.4565 -0.5755 -1.6723
  284SOL     OW  850   0.433   0.421   2.409  0.3086 -0.0137  0.5365
  284SOL    HW1  851   0.529   0.403   2.439 -1.8502  1.7302  2.0892
  284SOL    HW2  852   0.373   0.413   2.492  3.4413 -1.0339  1.9842
  285SOL     OW  853   1.950   1.366   0.143 -0.2652  0.3461  0.5947
  285SOL    HW1  854   1.930   1.363   0.044  0.5113  1.0379 -0.2050
  285SOL    HW2  855   1.952   1.269   0.179  0.9584  0.9843 -3.0462
  286SOL     OW  856   1.010   1.903   1.677  0.5095 -0.3576  0.3837
  286SOL    HW1  857   1.087   1.841   1.701 -0.2182 -0.1952  0.9353
  286SOL    HW2  858   1.033   1.959   1.595  0.4019 -1.3664  0.1942
  287SOL     OW  859   1.756   2.837   1.202  0.1331 -0.2797 -0.6222
  287SOL    HW1  860   1.709   2.799   1.120  2.7790 -1.2869 -2.0794
  287SOL    HW2  861   1.789   2.932   1.182 -3.6837 -1.9787 -0.9022
  288SOL     OW  862   0.569   2.608   1.943 -0.6605  0.1815 -0.3646
  288SOL    HW1  863   0.574   2.707   1.919  1.1938 -0.7483 -1.6459
  288SOL    HW2  864   0.472   2.577   1.930  2.8828  0.2250 -0.1770
  289SOL     OW  865   3.049   1.718   0.741 -0.0759  0.1250  0.1682
  289SOL    HW1  866   3.003   1.628   0.760  0.1673  1.3165 -0.6236
  289SOL    HW2  867   2.993   1.775   0.677 -0.8948  0.1029 -1.3459
  290SOL     OW  868   0.765   2.176   1.874 -0.1197 -0.1565 -0.5885
  290SOL    HW1  869   0.778   2.081   1.841  1.0303  0.7125 -1.3187
  290SOL    HW2  870   0.768   2.177   1.975  0.7229  3.7222 -0.2643
  291SOL     OW  871   1.855   0.206   0.308 -0.4841 -0.3187  0.0306
  291SOL    HW1  872   1.804   0.283   0.354  0.8241  2.9307  1.3603
  291SOL    HW2  873   1.829   0.202   0.209  1.7609  0.1116 -0.5929
  292SOL     OW  874   0.591   0.322   1.547 -0.2682  1.0456 -0.4408
  292SOL    HW1  875   0.521   0.255   1.576  0.3751 -1.7157 -1.0448
  292SOL    HW2  876   0.669   0.324   1.614  2.7389  0.5059  0.9376
  293SOL     OW  877   2.172   1.346   1.119  0.1993 -0.8984 -0.8150
  293SOL    HW1  878   2.251   1.370   1.178  1.0072 -1.2495 -0.5466
  293SOL    HW2  879   2.200   1.326   1.022 -1.8454 -2.8458 -0.9998
  294SOL     OW  880   0.382   0.319   2.166 -0.2777  0.4500  0.0719
  294SOL    HW1  881   0.307   0.367   2.116  1.2712  0.1764 -1.0472
  294SOL    HW2  882   0.392   0.359   2.260 -0.6218 -0.9334  0.3358
  295SOL     OW  883   0.998   1.417   0.291  0.5698  0.5823 -0.3631
  295SOL    HW1  884   1.072   1.350   0.269 -1.0360  0.6075 -1.0204
  295SOL    HW2  885   0.935   1.365   0.353 -0.3819 -0.7524 -2.0735
  296SOL     OW  886   1.854   1.083   1.163  0.4696 -0.2159  0.5061
  296SOL    HW1  887   1.854   1.127   1.071  0.1415  1.0837  0.6879
  296SOL    HW2  888   1.911   1.137   1.229  1.7351 -0.9549 -0.6886
  297SOL     OW  889   1.838   0.827   2.469 -0.0569  0.0034 -0.0558
  297SOL    HW1  890   1.935   0.807   2.448 -0.5940 -1.2535  2.1762
  297SOL    HW2  891   1.802   0.888   2.395 -2.1713 -2.3278  1.3634
  298SOL     OW  892   0.880   0.525   2.584 -0.1459 -0.3971 -0.1439
  298SOL    HW1  893   0.939   0.473   2.648 -1.0808 -1.0440  1.0066
  298SOL    HW2  894   0.933   0.572   2.509  0.8282 -0.8123 -1.2438
  299SOL     OW  895   1.301   0.357   2.033  0.1087  0.1046  0.6636
  299SOL    HW1  896   1.203   0.343   2.007 -2.2831 -1.7109  0.0414
  299SOL    HW2  897   1.305   0.416   2.117 -0.5275  1.5015  1.0759
  300SOL     OW  898   2.473   0.047   1.812  0.2450  0.0655 -0.1042
  300SOL    HW1  899   2.457  -0.013   1.731  1.1398  0.9781 -0.4254
  300SOL    HW2  900   2.566   0.090   1.808 -1.0707 -0.2738  2.0274
  301SOL     OW  901   1.795   0.804   1.660 -0.5479  0.5389 -0.4892
  301SOL    HW1  902   1.723   0.875   1.650 -0.9538 -0.2232 -0.0203
  301SOL    HW2  903   1.827   0.804   1.758 -1.0936  2.3117 -3.7730
  302SOL     OW  904   0.675   2.783   2.444 -0.5184  0.4721  0.1910
  302SOL    HW1  905   0.600   2.759   2.379 -0.1760  1.9135  1.4679
  302SOL    HW2  906   0.762   2.792   2.390 -0.6550 -0.2480 -0.1894
  303SOL     OW  907   1.642   1.934   1.658 -0.8165  0.0228 -0.3323
  303SOL    HW1  908   1.700   1.895   1.584 -1.3484 -2.6568  1.5492
  303SOL    HW2  909   1.544   1.904   1.645  0.2270 -1.2909 -1.4605
  304SOL     OW  910   0.188   2.830   0.684  1.1427  0.1636 -0.1322
  304SOL    HW1  911   0.258   2.755   0.670  3.2554  2.2579  2.0182
  304SOL    HW2  912   0.097   2.787   0.701  0.2851 -1.0108  3.2942
  305SOL     OW  913   1.408   0.689   0.426  0.0693  0.2146 -0.1925
  305SOL    HW1  914   1.409   0.789   0.407  4.2853  0.5424 -1.1604
  305SOL    HW2  915   1.395   0.670   0.526  0.1700 -0.3520  0.3199
  306SOL     OW  916   0.384   1.610   0.115 -0.4606  0.4381  0.1997
  306SOL    HW1  917   0.480   1.625   0.148 -0.4780  0.9141  3.5174
  306SOL    HW2  918   0.331   1.540   0.168 -0.3323 -2.9301 -1.4278
  307SOL     OW  919   0.590   0.987   1.771 -0.3448 -0.2333 -0.0949
  307SOL    HW1  920   0.656   0.982   1.694  2.4577  1.4216  0.5965
  307SOL    HW2  921   0.530   0.905   1.760 -1.2925 -3.7010 -1.5080
  308SOL     OW  922   0.716   0.159   1.107  0.4610 -0.6657 -0.1217
  308SOL    HW1  923   0.650   0.194   1.037  2.9964  1.8460  0.9242
  308SOL    HW2  924   0.721   0.226   1.185 -1.3057 -1.1313 -2.2760
  309SOL     OW  925   2.102   0.763   0.114  0.5143  0.2187 -0.0265
  309SOL    HW1  926   2.192   0.722   0.138  0.0214  0.7736 -0.7570
  309SOL    HW2  927   2.120   0.832   0.039 -0.7367  2.2145  1.1725
  310SOL     OW  928   1.085   1.057   0.075  0.2474  0.1974  0.0438
  310SOL    HW1  929   1.053   1.105  -0.010 -2.4436 -2.6578  1.3284
  310SOL    HW2  930   1.113   1.131   0.140 -0.3167  0.6747  0.3962
  311SOL     OW  931   1.669   2.273   2.554  0.0697 -0.1765  0.0713
  311SOL    HW1  932   1.585   2.227   2.516 -1.0059  1.6994  0.0286
  311SOL    HW2  933   1.702   2.338   2.484 -0.5441 -0.6160 -1.2361
  312SOL     OW  934   2.054   2.980   2.986 -0.1529 -0.3871 -0.8329
  312SOL    HW1  935   2.028   3.077   2.966  0.6912  1.1820 -1.5538
  312SOL    HW2  936   2.045   2.967   3.088 -2.1398  0.2306  0.6592
  313SOL     OW  937   0.383   0.402   0.633 -0.1222 -0.1907 -0.0707
  313SOL    HW1  938   0.317   0.464   0.681 -0.1966 -2.4715 -1.0479
  313SOL    HW2  939   0.449   0.455   0.576 -1.3009 -0.1109  3.2615
  314SOL     OW  940   2.566   1.289   2.840 -0.5155  0.1406  0.2461
  314SOL    HW1  941   2.626   1.224   2.792 -1.2490 -0.4974 -0.5131
  314SOL    HW2  942   2.602   1.384   2.825  0.8890  1.8321  1.3404
  315SOL     OW  943   1.895   0.830   1.908 -0.3460  0.2242  0.3318
  315SOL    HW1  944   1.900   0.756   1.979 -0.8209  1.8848 -0.6339
  315SOL    HW2  945   1.862   0.916   1.952  1.9591 -0.1249 -0.1948
  316SOL     OW  946   0.002   0.860   0.860 -0.4116  0.1358 -0.1450
  316SOL    HW1  947  -0.073   0.928   0.851  0.0546  1.2297 -0.8300
  316SOL    HW2  948   0.041   0.842   0.767  2.2516  1.4151 -1.0294
  317SOL     OW  949   0.461   0.315   0.091 -0.3311 -0.0951  0.5638
  317SOL    HW1  950   0.485   0.291   0.187  0.7535 -1.7040  0.3270
  317SOL    HW2  951   0.503   0.245   0.029 -2.3547  4.6215 -0.7272
  318SOL     OW  952   2.592   2.789   1.330 -0.1329  0.0062  0.1258
  318SOL    HW1  953   2.604   2.701   1.280  0.7411 -0.7704  0.6200
  318SOL    HW2  954   2.581   2.775   1.431 -2.3098  0.0780 -1.5973
  319SOL     OW  955   1.220   1.743   0.201 -0.6510 -0.0339 -0.3656
  319SOL    HW1  956   1.196   1.838   0.171  0.4669  0.9793  0.7433
  319SOL    HW2  957   1.159   1.718   0.278 -0.3981  1.0050  1.1915
  320SOL     OW  958   0.657   2.135   1.070 -0.0132 -0.3829  0.1238
  320SOL    HW1  959   0.659   2.136   1.172  1.3982  1.3512 -1.7427
  320SOL    HW2  960   0.570   2.180   1.041  0.5194 -1.3612 -0.2084
  321SOL     OW  961   2.200   2.287   2.421 -0.1546 -0.3179  0.4259
  321SOL    HW1  962   2.118   2.309   2.363  1.1757 -0.9371  0.0371
  321SOL    HW2  963   2.280   2.269   2.359 -1.3013 -0.6446  0.5252
  322SOL     OW  964   2.901   2.464   2.333 -0.6520  0.2305  0.0034
  322SOL    HW1  965   2.980   2.457   2.398 -0.9582 -0.6010  0.1971
  322SOL    HW2  966   2.837   2.528   2.382 -0.7631  0.7072  1.4316
  323SOL     OW  967   2.717   0.382   0.879  0.1708  0.2208  0.1084
  323SOL    HW1  968   2.800   0.399   0.821 -0.3295 -1.4386 -2.3195
  323SOL    HW2  969   2.633   0.405   0.825  1.0170 -1.2538  0.1504
  324SOL     OW  970   2.521   1.728   2.371 -0.1597  0.0168 -0.2935
  324SOL    HW1  971   2.500   1.683   2.282 -2.5393  0.6596 -3.9726
  324SOL    HW2  972   2.510   1.662   2.448  0.5370 -1.2102  0.0130
  325SOL     OW  973   1.600   0.442   2.302 -0.3542 -0.0247  0.4588
  325SOL    HW1  974   1.626   0.515   2.370 -1.0722 -1.6259 -0.7614
  325SOL    HW2  975   1.632   0.467   2.208 -0.3453  1.1206 -0.6265
  326SOL     OW  976   2.859   2.142   0.564  0.3090 -0.1015 -0.3319
  326SOL    HW1  977   2.820   2.189   0.646 -0.6732 -1.2521  4.4320
  326SOL    HW2  978   2.941   2.194   0.534 -1.6735  1.1115 -1.0240
  327SOL     OW  979   2.536   3.051   0.009  0.2295  0.3532  0.2253
  327SOL    HW1  980   2.452   2.992   0.007  1.6663  1.4107 -0.1201
  327SOL    HW2  981   2.608   3.003  -0.046 -0.3822  1.6985  0.7935
  328SOL     OW  982   0.892   0.591   0.745 -0.7738 -0.3497  0.0361
  328SOL    HW1  983   0.842   0.623   0.662 -2.3569 -1.0295 -0.3319
  328SOL    HW2  984   0.982   0.554   0.714 -1.8824 -0.8173 -0.8698
  329SOL     OW  985   2.050   0.776   1.581  0.6135  0.0860  0.1860
  329SOL    HW1  986   1.955   0.783   1.618  1.0800 -1.3832  0.0099
  329SOL    HW2  987   2.071   0.858   1.524 -0.0938  0.1162 -0.1724
  330SOL     OW  988   1.265   0.267   0.627 -0.1373  0.1758  0.7951
  330SOL    HW1  989   1.223   0.358   0.643 -0.0340 -0.1466 -1.3621
  330SOL    HW2  990   1.352   0.288   0.577  1.4353 -1.4981 -0.1218
  331SOL     OW  991   0.519   1.926   1.931 -0.4754 -0.4344  0.0837
  331SOL    HW1  992   0.597   1.925   1.866  0.2655  0.1747 -3.2760
  331SOL    HW2  993   0.483   2.019   1.956 -1.7793 -0.2802 -2.8039
  332SOL     OW  994   2.220   1.969   1.666 -0.8681 -0.1581  0.0922
  332SOL    HW1  995   2.182   1.894   1.725 -0.3236  1.1794  0.0893
  332SOL    HW2  996   2.313   1.940   1.641  2.4110  1.7116 -2.6856
  333SOL     OW  997   2.864   3.020   0.900 -0.5524  0.0906  0.6086
  333SOL    HW1  998   2.786   3.075   0.936  1.0552 -0.7810  0.8710
  333SOL    HW2  999   2.907   3.072   0.824  0.1118 -0.7897 -1.3575
  334SOL     OW 1000   2.868   1.612   1.016 -0.1114 -0.3881  0.6014
  334SOL    HW1 1001   2.963   1.614   1.056  0.7613 -1.7204  0.0780
  334SOL    HW2 1002   2.875   1.565   0.926 -0.1857 -2.2249 -0.2347
  335SOL     OW 1003   0.547   2.991   2.564  0.2189  0.3471  0.6400
  335SOL    HW1 1004   0.464   2.947   2.604 -2.3592 -0.3988 -1.0533
  335SOL    HW2 1005   0.606   2.917   2.524 -0.8880  1.7717  0.4330
  336SOL     OW 1006   0.114   2.672   1.581 -0.1785 -0.6171 -0.6813
  336SOL    HW1 1007   0.068   2.732   1.513 -4.6878 -0.9859 -0.0005
  336SOL    HW2 1008   0.112   2.714   1.674  0.3719  4.3405 -2.7069
  337SOL     OW 1009   0.899   1.885   2.296  0.0591  0.4727  0.4001
  337SOL    HW1 1010   0.902   1.974   2.344  0.3974  1.1350 -0.2191
  337SOL    HW2 1011   0.814   1.878   2.238  2.9535  0.4385 -2.9129
  338SOL     OW 1012   1.148   2.891   2.435 -0.3164 -0.1418 -0.1473
  338SOL    HW1 1013   1.239   2.849   2.411 -0.5728 -0.4346  0.9999
  338SOL    HW2 1014   1.121   2.868   2.531  3.7642  1.0454 -0.1936
  339SOL     OW 1015   3.010   1.499   2.973  0.4909 -0.1708  0.3347
  339SOL    HW1 1016   3.016   1.423   2.903  0.5050 -0.0530  1.5240
  339SOL    HW2 1017   3.057   1.583   2.939 -0.0446  0.2102 -2.6994
  340SOL     OW 1018   1.919   0.504   1.308  0.1129 -0.5232 -0.1169
  340SOL    HW1 1019   1.930   0.504   1.206  1.5319  0.7267  2.7715
  340SOL    HW2 1020   2.011   0.529   1.346 -0.3310 -4.6469  1.2491
  341SOL     OW 1021   1.869   1.206   0.915  0.2173  0.1897 -0.0083
  341SOL    HW1 1022   1.892   1.277   0.846 -1.5138 -1.9866  2.7572
  341SOL    HW2 1023   1.891   1.113   0.879  0.0276 -0.5006 -0.5706
  342SOL     OW 1024   2.211   2.167   2.660  0.2489 -0.1901  0.0230
  342SOL    HW1 1025   2.213   2.065   2.652 -0.9874 -0.9417  0.9041
  342SOL    HW2 1026   2.205   2.202   2.564  0.8562  0.2665 -1.4318
  343SOL     OW 1027   2.967   2.602   1.057 -0.4230  0.3595 -0.3000
  343SOL    HW1 1028   2.962   2.520   0.996  0.0961 -2.3130 -1.5558
  343SOL    HW2 1029   2.962   2.570   1.154  4.0749  0.7283  1.5168
  344SOL     OW 1030   2.574   2.703   0.799 -0.3975  0.2750  0.7135
  344SOL    HW1 1031   2.505   2.753   0.856 -2.0592  2.4784  0.3710
  344SOL    HW2 1032   2.670   2.718   0.834  2.0270 -0.5440  3.0214
  345SOL     OW 1033   2.478   2.168   0.300  0.6703 -0.2243 -0.4823
  345SOL    HW1 1034   2.377   2.158   0.318  0.1937  2.8862 -0.8729
  345SOL    HW2 1035   2.506   2.266   0.299 -0.3981  1.5395 -1.5239
  346SOL     OW 1036   1.072   2.253   2.013 -0.4166  0.3458  0.0071
  346SOL    HW1 1037   1.039   2.323   2.080  1.9415  1.2726 -0.0178
  346SOL    HW2 1038   1.054   2.286   1.918  1.6256  3.2381 -3.1981
  347SOL     OW 1039   1.665   1.951   2.213  0.2518 -0.1085  0.1729
  347SOL    HW1 1040   1.631   2.045   2.234 -3.2522  0.4907 -1.6328
  347SOL    HW2 1041   1.644   1.929   2.116  0.1664 -0.0728  2.2698
  348SOL     OW 1042   0.431   1.859   1.172  0.2067  0.1049  0.1746
  348SOL    HW1 1043   0.395   1.922   1.100 -0.1298  1.6485  0.3698
  348SOL    HW2 1044   0.532   1.850   1.159  0.2124 -1.6069  0.2922
  349SOL     OW 1045   1.593   1.391   1.579 -0.3346 -0.3686 -0.0573
  349SOL    HW1 1046   1.642   1.477   1.553  0.6759 -0.4727  0.3022
  349SOL    HW2 1047   1.509   1.379   1.520 -1.0130  1.1548 -0.6650
  350SOL     OW 1048   2.225   2.173   0.620  0.2750  0.1791 -0.2887
  350SOL    HW1 1049   2.126   2.163   0.643  1.2906 -1.3044  2.0328
  350SOL    HW2 1050   2.252   2.267   0.649 -0.7983  0.1469 -1.8447
  351SOL     OW 1051   0.435   0.123   1.652  0.1965  0.1366  0.2590
  351SOL    HW1 1052   0.476   0.122   1.746  0.5600 -1.4977 -2.7377
  351SOL    HW2 1053   0.334   0.135   1.665 -2.8033 -1.1042  0.6850
  352SOL     OW 1054   0.586   1.080   0.309 -0.6192 -0.5714 -0.2598
  352SOL    HW1 1055   0.561   1.178   0.293  1.4411  0.6399  0.2763
  352SOL    HW2 1056   0.621   1.034   0.225  2.1279  1.0217 -1.3728
  353SOL     OW 1057   0.722   1.448   2.746 -0.3049 -0.6501 -0.1010
  353SOL    HW1 1058   0.755   1.543   2.730 -1.8721  2.3828  4.2918
  353SOL    HW2 1059   0.757   1.376   2.682 -1.5436 -2.6859  1.2264
  354SOL     OW 1060   1.779   2.280   1.806  0.0110  0.1474 -0.1926
  354SOL    HW1 1061   1.802   2.377   1.780  1.1662  0.3393 -0.9292
  354SOL    HW2 1062   1.858   2.233   1.848  1.5980 -0.0458 -1.1719
  355SOL     OW 1063   2.237   0.828   2.756  0.5856  0.2304  0.5624
  355SOL    HW1 1064   2.244   0.729   2.784  3.1404 -2.4260 -1.1630
  355SOL    HW2 1065   2.202   0.833   2.660  2.2072 -2.1768  3.9352
  356SOL     OW 1066   0.682   2.131   1.344  0.4383 -0.5372  0.3562
  356SOL    HW1 1067   0.714   2.225   1.368 -1.6591  0.3232 -2.0447
  356SOL    HW2 1068   0.646   2.082   1.426  1.4389 -0.9959 -0.7633
  357SOL     OW 1069   0.172   0.174   1.717  0.0376 -0.0601 -0.2171
  357SOL    HW1 1070   0.128   0.124   1.795  3.2677  0.0790  0.0400
  357SOL    HW2 1071   0.184   0.274   1.734  0.1695  0.9890 -1.5594
  358SOL     OW 1072   2.500   1.943   1.497 -0.0718 -0.3450  0.3399
  358SOL    HW1 1073   2.511   1.875   1.421  2.0684 -0.0345 -1.0500
  358SOL    HW2 1074   2.527   2.034   1.460  0.8277 -0.2875 -1.2085
  359SOL     OW 1075   2.175   1.855   2.163 -0.1224  0.8594  0.0142
  359SOL    HW1 1076   2.080   1.881   2.193 -0.0261 -0.1302  1.9268
  359SOL    HW2 1077   2.209   1.927   2.098  0.9331  0.9976 -2.8459
  360SOL     OW 1078   1.317   2.683   0.794 -0.2902 -0.4051  0.1994
  360SOL    HW1 1079   1.269   2.687   0.885 -0.4922  3.1266 -2.1079
  360SOL    HW2 1080   1.325   2.776   0.752 -3.3914  1.2506  4.6737
  361SOL     OW 1081   2.035   2.949   0.187  0.4180  0.0503 -0.0468
  361SOL    HW1 1082   1.946   2.909   0.219  0.6108  0.4725 -0.4968
  361SOL    HW2 1083   2.115   2.889   0.213 -1.3207  0.8706 -2.0277
  362SOL     OW 1084   1.760   0.702   1.408  0.0974 -0.0247 -0.7039
  362SOL    HW1 1085   1.791   0.730   1.501 -0.6174 -1.1500 -0.5554
  362SOL    HW2 1086   1.814   0.622   1.375  2.2181 -0.3044  2.8976
  363SOL     OW 1087   1.759   1.500   2.156  0.1017 -0.0525  0.2987
  363SOL    HW1 1088   1.681   1.519   2.219 -2.3636  1.0761  0.1741
  363SOL    HW2 1089   1.844   1.492   2.212 -0.0878 -0.9237  2.5255
  364SOL     OW 1090   0.577   0.593   1.520 -0.5063 -0.3670 -0.0062
  364SOL    HW1 1091   0.575   0.492   1.533 -0.6658 -0.2025  1.5686
  364SOL    HW2 1092   0.544   0.618   1.426 -2.9061  2.5786  0.7024
  365SOL     OW 1093   0.893   0.753   2.764 -0.4221 -0.6424 -0.1371
  365SOL    HW1 1094   0.878   0.706   2.675  0.1076  1.8450 -1.3710
  365SOL    HW2 1095   0.878   0.854   2.753 -0.4353  1.9842  0.2092
  366SOL     OW 1096   2.267   1.167   2.663 -0.1869  0.0510  0.1296
  366SOL    HW1 1097   2.336   1.112   2.714  0.2282  0.2263 -0.3139
  366SOL    HW2 1098   2.193   1.189   2.731 -0.2775  0.6615 -0.0005
  367SOL     OW 1099   0.011   2.631   2.190  0.4296 -0.3178 -0.0340
  367SOL    HW1 1100  -0.062   2.576   2.235  2.4480  2.8084  0.1881
  367SOL    HW2 1101  -0.029   2.711   2.143 -0.8206 -1.1434 -0.2486
  368SOL     OW 1102   2.937   1.098   1.364 -0.2123 -0.3625 -0.5725
  368SOL    HW1 1103   2.839   1.105   1.336 -2.9415 -0.3019 -4.0495
  368SOL    HW2 1104   2.942   1.097   1.467 -0.2248 -0.1319 -2.9007
  369SOL     OW 1105   0.419   2.893   2.089  0.3805 -0.1006  0.1772
  369SOL    HW1 1106   0.467   2.876   2.000  0.9089  2.6615 -0.2942
  369SOL    HW2 1107   0.446   2.985   2.127 -1.4890 -3.5236 -0.9105
  370SOL     OW 1108   2.730   0.244   0.567 -0.1445 -0.2581  0.1048
  370SOL    HW1 1109   2.675   0.326   0.547  3.1799 -3.6716  0.1838
  370SOL    HW2 1110   2.683   0.180   0.631  0.8685  2.0297  0.1854
  371SOL     OW 1111   0.770   2.364   1.440  0.3893 -0.3000 -0.3133
  371SOL    HW1 1112   0.871   2.349   1.450 -0.1644 -0.1628 -2.9047
  371SOL    HW2 1113   0.724   2.365   1.531  0.1763  0.4277  1.8006
  372SOL     OW 1114   2.176   0.277   2.362  0.3753  0.1541 -0.1266
  372SOL    HW1 1115   2.194   0.320   2.452 -0.5857 -1.8958 -1.1268
  372SOL    HW2 1116   2.083   0.237   2.366 -1.3057 -1.9227  0.8560
  373SOL     OW 1117   0.134   2.238   0.786  0.0943 -0.3988 -0.4830
  373SOL    HW1 1118   0.163   2.317   0.844 -1.8555  0.5661 -1.5270
  373SOL    HW2 1119   0.046   2.207   0.824 -3.3840  1.5735  3.6414
  374SOL     OW 1120   2.868   0.321   2.229  0.6067  1.1253 -1.0612
  374SOL    HW1 1121   2.788   0.290   2.284 -1.5100 -0.5009 -2.5438
  374SOL    HW2 1122   2.921   0.387   2.288 -1.9874  2.1028  0.7937
  375SOL     OW 1123   0.571   0.614   2.771  0.5838 -0.0049  0.7568
  375SOL    HW1 1124   0.503   0.537   2.772  1.0369 -1.9527  1.0157
  375SOL    HW2 1125   0.660   0.580   2.808  1.0217 -3.5937  1.5605
  376SOL     OW 1126   2.848   2.323   1.726  0.1546 -0.0263  0.1390
  376SOL    HW1 1127   2.929   2.363   1.676  0.8222  1.5859  0.3690
  376SOL    HW2 1128   2.763   2.330   1.670 -1.8492  0.0077 -3.6490
  377SOL     OW 1129   1.087   0.408   2.722 -0.0643  0.1319 -0.2405
  377SOL    HW1 1130   1.056   0.314   2.749  4.4159  0.4077 -1.2124
  377SOL    HW2 1131   1.140   0.402   2.633 -0.6036 -0.6995  0.8881
  378SOL     OW 1132   2.944   1.048   2.799  0.1593  0.7021  0.6001
  378SOL    HW1 1133   3.004   0.970   2.777 -1.3369  0.8799  0.9827
  378SOL    HW2 1134   2.856   1.041   2.748  1.7600 -0.5865  0.0183
  379SOL     OW 1135   1.374   0.663   2.537  0.7638 -0.0405  0.2427
  379SOL    HW1 1136   1.304   0.642   2.467 -0.6745 -0.0940 -0.0200
  379SOL    HW2 1137   1.340   0.733   2.604  1.1874  0.8935 -1.4608
  380SOL     OW 1138   0.243   2.008   1.566  0.6766 -0.3380 -0.0775
  380SOL    HW1 1139   0.305   2.060   1.629  1.6947  1.3124 -0.9984
  380SOL    HW2 1140   0.151   1.999   1.614 -0.3236  1.1852 -0.9342
  381SOL     OW 1141   3.041   1.308   2.783 -0.7807  0.2699  0.4024
  381SOL    HW1 1142   3.075   1.323   2.688  0.3912 -1.1220  0.3915
  381SOL    HW2 1143   3.009   1.211   2.793 -0.5252  0.7254  2.5471
  382SOL     OW 1144   1.959   2.158   0.664  0.6850 -0.6453  0.1249
  382SOL    HW1 1145   1.875   2.112   0.628  1.2232 -3.6645  0.2546
  382SOL    HW2 1146   1.948   2.170   0.764 -1.8478 -1.5151  2.0744
  383SOL     OW 1147   0.631   1.653   0.210  0.4898  0.1292  0.3021
  383SOL    HW1 1148   0.711   1.631   0.152 -2.2769 -3.0030  2.2826
  383SOL    HW2 1149   0.642   1.596   0.295  0.1933 -2.1088  0.9347
  384SOL     OW 1150   0.810   2.408   2.390 -0.7355  0.0659 -0.3223
  384SOL    HW1 1151   0.713   2.436   2.371  2.7587  0.3193 -0.9264
  384SOL    HW2 1152   0.810   2.307   2.409 -0.1049  1.0645 -1.7894
  385SOL     OW 1153   2.399   1.963   0.632 -0.4045 -0.4458  0.2865
  385SOL    HW1 1154   2.338   2.046   0.636  3.0510 -0.0559  0.2976
  385SOL    HW2 1155   2.485   1.983   0.580  3.0232  0.6623 -3.7182
  386SOL     OW 1156   2.375   0.551   0.981  0.4369 -0.0390  0.3269
  386SOL    HW1 1157   2.336   0.461   1.013 -1.2247  0.8630 -0.3603
  386SOL    HW2 1158   2.328   0.585   0.897  3.4872 -0.4201  0.4715
  387SOL     OW 1159   0.721   0.998   2.008 -0.3097  0.3153  0.1947
  387SOL    HW1 1160   0.658   1.028   2.082  2.6244 -1.8062  0.8063
  387SOL    HW2 1161   0.665   0.992   1.922  1.5631  2.0252 -4.0228
  388SOL     OW 1162   1.006   1.441   2.470  0.0996 -0.0191 -0.1350
  388SOL    HW1 1163   0.931   1.509   2.456  0.9254 -1.8281  2.5229
  388SOL    HW2 1164   1.098   1.485   2.462  2.9577 -1.3741  3.5117
  389SOL     OW 1165   1.015   1.276   1.755  0.0860  0.6252  0.1167
  389SOL    HW1 1166   0.970   1.185   1.771 -0.5181  0.1212 -0.2123
  389SOL    HW2 1167   0.983   1.318   1.667  0.0874  0.4468 -4.3214
  390SOL     OW 1168   0.025   3.037   1.049 -0.1012 -0.3707  0.5342
  390SOL    HW1 1169  -0.067   3.021   1.007  0.7024 -0.3402 -0.5582
  390SOL    HW2 1170   0.073   3.111   0.997 -3.2836  2.6544  2.7219
  391SOL     OW 1171   1.530   1.245   1.058  0.0041 -0.2055 -0.0417
  391SOL    HW1 1172   1.508   1.225   0.960 -1.3132  2.9321 -0.6886
  391SOL    HW2 1173   1.611   1.305   1.073  1.4713  0.0202  0.0693
  392SOL     OW 1174   2.888   3.035   0.205 -0.5400 -0.0284 -0.5325
  392SOL    HW1 1175   2.976   3.014   0.159  0.7330  1.6120  0.1864
  392SOL    HW2 1176   2.831   2.949   0.212 -1.8884  0.3464 -0.1291
  393SOL     OW 1177   1.562   2.133   2.973  0.3941 -0.2216  0.2882
  393SOL    HW1 1178   1.571   2.033   2.952  0.3541 -2.1917  0.3789
  393SOL    HW2 1179   1.477   2.144   3.030  1.2782 -1.1014  1.4924
  394SOL     OW 1180   0.015   2.466   2.742  0.6163 -0.3346  0.2997
  394SOL    HW1 1181   0.032   2.454   2.642 -0.2743  0.0501  0.7415
  394SOL    HW2 1182  -0.055   2.396   2.770 -0.4901  1.2888 -0.6002
  395SOL     OW 1183   0.148   0.156   0.893 -0.4963  0.1254 -0.0086
  395SOL    HW1 1184   0.197   0.237   0.932  0.7697  0.4839 -1.0132
  395SOL    HW2 1185   0.216   0.084   0.864  0.1860 -1.1279 -2.4122
  396SOL     OW 1186   2.154   0.598   0.498 -0.2043  0.3643 -0.0125
  396SOL    HW1 1187   2.075   0.574   0.437  1.0202 -0.6449  1.3822
  396SOL    HW2 1188   2.241   0.561   0.458  0.4436 -1.0953  0.7071
  397SOL     OW 1189   0.117   0.700   2.552  0.6850  0.6299  0.9456
  397SOL    HW1 1190   0.078   0.719   2.645  0.2944  0.1898 -0.0836
  397SOL    HW2 1191   0.115   0.788   2.500 -3.3459  0.7706 -1.6014
  398SOL     OW 1192   0.578   0.135   2.987  0.0447 -0.1739  0.6482
  398SOL    HW1 1193   0.516   0.125   2.907  1.2119 -0.9529 -3.6169
  398SOL    HW2 1194   0.663   0.189   2.963  1.4222  1.1958  1.0584
  399SOL     OW 1195   2.021   0.256   2.020  0.5202  0.3393 -0.4391
  399SOL    HW1 1196   1.974   0.172   2.055  1.1251  2.8144  1.8102
  399SOL    HW2 1197   2.022   0.254   1.919 -1.4647 -1.4477 -1.6817
  400SOL     OW 1198   0.965   2.155   2.850 -0.5315 -0.4070 -0.6978
  400SOL    HW1 1199   0.986   2.180   2.754  0.5726  0.6736 -2.7102
  400SOL    HW2 1200   0.943   2.240   2.903 -2.3291 -0.1829  0.4770
  401SOL     OW 1201   0.301   1.228   2.461  0.7697 -0.2831  0.1655
  401SOL    HW1 1202   0.257   1.200   2.373 -2.9669  3.6045  1.1494
  401SOL    HW2 1203   0.231   1.275   2.516  0.1402  0.3958 -1.3806
  402SOL     OW 1204   0.111   0.095   0.369  0.5950 -0.1527  0.0149
  402SOL    HW1 1205   0.116  -0.005   0.391  2.2773 -1.4583 -0.8263
  402SOL    HW2 1206   0.015   0.128   0.378  3.1475 -3.0045  3.5174
  403SOL     OW 1207   0.290   1.216   1.559 -0.3915  0.0744  0.7718
  403SOL    HW1 1208   0.386   1.187   1.537  0.9628 -0.3024  2.3051
  403SOL    HW2 1209   0.228   1.210   1.478 -2.3532  0.1566  1.2091
  404SOL     OW 1210   2.278   2.507   2.554  0.1118  0.4206 -0.7108
  404SOL    HW1 1211   2.205   2.551   2.611  2.5539  0.5276  0.7729
  404SOL    HW2 1212   2.235   2.429   2.503  1.3180 -2.2677  1.1268
  405SOL     OW 1213   0.191   0.442   2.016  0.2594 -0.1812 -0.4834
  405SOL    HW1 1214   0.125   0.370   2.048  0.6207 -1.2180  2.1357
  405SOL    HW2 1215   0.198   0.436   1.914 -1.8159 -1.0750 -0.4362
  406SOL     OW 1216   1.220   1.511   2.848  0.0206  0.5414  0.0119
  406SOL    HW1 1217   1.293   1.577   2.817  1.1712 -0.6839  2.2605
  406SOL    HW2 1218   1.219   1.513   2.951 -1.7922 -0.7280  1.7870
  407SOL     OW 1219   1.939   0.406   2.517  0.8063  0.3057 -0.1146
  407SOL    HW1 1220   1.921   0.333   2.448  0.1695 -1.7388  1.3007
  407SOL    HW2 1221   1.857   0.426   2.574 -2.4356 -0.2319 -2.6066
  408SOL     OW 1222   0.451   2.720   2.297  0.2836 -0.1537  0.2868
  408SOL    HW1 1223   0.358   2.705   2.338  0.6843  0.6631 -0.3398
  408SOL    HW2 1224   0.444   2.780   2.215 -0.3877  2.2661  0.8641
  409SOL     OW 1225   2.994   2.533   1.319 -0.9230 -0.1321 -0.5915
  409SOL    HW1 1226   3.024   2.628   1.347  0.2185  2.7882  0.3955
  409SOL    HW2 1227   2.914   2.506   1.376  0.0341  0.5692 -1.8054
  410SOL     OW 1228   2.931   1.729   0.357  0.2989  0.0888 -0.0515
  410SOL    HW1 1229   3.018   1.780   0.343 -0.7906  0.8782 -3.1656
  410SOL    HW2 1230   2.949   1.628   0.359  0.9840 -0.4918 -1.1388
  411SOL     OW 1231   2.417   0.123   1.494  0.1572  0.3345 -0.3815
  411SOL    HW1 1232   2.328   0.170   1.483 -1.1849 -3.1328  2.2220
  411SOL    HW2 1233   2.402   0.028   1.530 -2.4189  0.2017  0.2639
  412SOL     OW 1234   2.251   0.390   1.539 -0.0607  0.1175 -0.1271
  412SOL    HW1 1235   2.181   0.317   1.519 -0.5160 -0.2733  1.5504
  412SOL    HW2 1236   2.229   0.471   1.482 -1.8254  0.0891 -0.3168
  413SOL     OW 1237   3.014   0.469   2.400  0.7271 -0.6382 -0.0161
  413SOL    HW1 1238   3.044   0.561   2.431 -0.7726 -2.7746  4.0843
  413SOL    HW2 1239   3.046   0.398   2.466  0.1887 -2.0269  0.7005
  414SOL     OW 1240   2.697   1.429   0.265  0.1353  0.0220  0.6967
  414SOL    HW1 1241   2.655   1.355   0.322  0.6462  1.3773 -0.0227
  414SOL    HW2 1242   2.678   1.515   0.315 -0.1218  1.3992  3.7638
  415SOL     OW 1243   0.773   2.464   0.174 -0.1929 -0.2985  0.5547
  415SOL    HW1 1244   0.831   2.548   0.186 -0.1993 -2.1737  2.3706
  415SOL    HW2 1245   0.789   2.401   0.252 -1.1778 -0.7173  0.5222
  416SOL     OW 1246   1.465   2.685   2.618 -0.2587 -0.0657  0.2397
  416SOL    HW1 1247   1.411   2.612   2.667  1.1112  0.7480  0.3715
  416SOL    HW2 1248   1.554   2.707   2.662  0.8616  0.3538  0.1007
  417SOL     OW 1249   0.264   0.979   1.254 -0.1847  0.0040  0.0978
  417SOL    HW1 1250   0.252   0.968   1.153  1.9785 -0.7363 -0.5963
  417SOL    HW2 1251   0.360   0.962   1.283  3.1095  1.0451  0.4530
  418SOL     OW 1252   2.604   0.067   0.735  0.0084 -0.0539 -0.3608
  418SOL    HW1 1253   2.513   0.021   0.739 -0.8333  1.0819  1.1638
  418SOL    HW2 1254   2.630   0.093   0.830  0.1785  3.6645 -0.4689
  419SOL     OW 1255   0.277   0.030   0.165 -0.0922  0.4774 -0.0409
  419SOL    HW1 1256   0.218   0.070   0.239  0.6793  0.5217 -0.3225
  419SOL    HW2 1257   0.370   0.010   0.203 -0.2297 -3.9432 -2.6382
  420SOL     OW 1258   0.122   1.191   1.335  0.0127  0.7757  0.3068
  420SOL    HW1 1259   0.181   1.113   1.302  0.6648  0.3417  1.3383
  420SOL    HW2 1260   0.026   1.157   1.342  1.4244 -2.4221 -2.7638
  421SOL     OW 1261   1.763   2.606   0.647 -0.2049 -0.5614  0.0772
  421SOL    HW1 1262   1.806   2.519   0.613 -0.3834  2.6895 -0.2839
  421SOL    HW2 1263   1.674   2.585   0.691  0.3265  2.3088 -2.2767
  422SOL     OW 1264   0.191   0.392   1.482  0.3046 -0.2353  0.1011
  422SOL    HW1 1265   0.254   0.389   1.401 -0.5487 -1.5231  2.1695
  422SOL    HW2 1266   0.108   0.449   1.462  2.6557 -0.1193 -0.5970
  423SOL     OW 1267   1.041   1.388   1.999  0.6129 -0.0709 -0.0667
  423SOL    HW1 1268   1.044   1.346   1.906 -0.8567  0.7774  0.6241
  423SOL    HW2 1269   1.037   1.490   1.991 -2.4698  0.0012  0.3213
  424SOL     OW 1270   1.712   2.074   0.601  0.5688  0.0299 -0.2219
  424SOL    HW1 1271   1.676   2.050   0.509 -1.3300 -0.7987 -0.9177
  424SOL    HW2 1272   1.672   2.015   0.675 -1.0568  0.2253 -0.0060
  425SOL     OW 1273   2.849   2.877   2.051  0.1541 -0.2583 -0.2296
  425SOL    HW1 1274   2.749   2.867   2.074 -2.3726 -0.2455 -0.4811
  425SOL    HW2 1275   2.860   2.938   1.969  0.6462 -0.0723 -1.0876
  426SOL     OW 1276   0.332   2.877   2.671  0.2131 -0.3542 -0.2400
  426SOL    HW1 1277   0.303   2.882   2.769  0.7476  3.3105  1.4428
  426SOL    HW2 1278   0.252   2.902   2.612  2.5283  0.9313 -0.7270
  427SOL     OW 1279   1.007   3.011   0.076  0.0945  0.2727  0.0743
  427SOL    HW1 1280   0.930   3.042   0.135  1.6437 -1.4048 -0.5029
  427SOL    HW2 1281   0.977   2.928   0.024  0.1782  1.8680 -0.8891
  428SOL     OW 1282   2.792   0.496   1.520  0.1925  0.5151 -0.5037
  428SOL    HW1 1283   2.809   0.401   1.555 -1.6663  3.1266 -0.4191
  428SOL    HW2 1284   2.727   0.492   1.440 -1.7413 -0.8791 -0.2819
  429SOL     OW 1285   2.067   2.927   0.550  0.2230 -0.0385 -1.2065
  429SOL    HW1 1286   2.026   2.840   0.513 -1.2401 -0.5868 -0.9298
  429SOL    HW2 1287   2.162   2.940   0.514  0.1947 -1.1128  1.1429
  430SOL     OW 1288   1.090   1.319   2.708 -0.5031  0.6399  0.2232
  430SOL    HW1 1289   1.141   1.392   2.759 -0.1220  1.7271  1.4137
  430SOL    HW2 1290   1.052   1.361   2.623 -0.3961  0.9411 -0.8058
  431SOL     OW 1291   2.743   2.259   1.180 -0.5066  0.0762 -0.3521
  431SOL    HW1 1292   2.844   2.249   1.172 -0.2107 -0.9010 -0.9771
  431SOL    HW2 1293   2.705   2.205   1.101  2.2364  0.8173 -0.8566
  432SOL     OW 1294   1.552   2.330   2.790 -0.2370 -0.1036 -0.3876
  432SOL    HW1 1295   1.597   2.306   2.702 -0.7898  1.9831 -1.2049
  432SOL    HW2 1296   1.551   2.251   2.856  0.7797  1.4507  2.3898
  433SOL     OW 1297   1.233   0.378   2.496 -0.2112 -0.6288 -0.0312
  433SOL    HW1 1298   1.246   0.412   2.401  1.1855 -0.4609  0.0460
  433SOL    HW2 1299   1.318   0.373   2.552 -0.9204 -0.9107  1.7713
  434SOL     OW 1300   1.279   2.742   2.134  0.0357 -0.0104 -0.4283
  434SOL    HW1 1301   1.307   2.754   2.231  1.5319 -2.5791 -1.5111
  434SOL    HW2 1302   1.363   2.708   2.087  1.5338  0.4775  0.5404
  435SOL     OW 1303   0.241   0.076   2.962  0.0311  0.4842 -0.0310
  435SOL    HW1 1304   0.264   0.075   3.062  1.2862 -2.5873  0.3861
  435SOL    HW2 1305   0.169   0.145   2.945  0.9340 -0.6616  2.0252
  436SOL     OW 1306   0.574   1.242   2.417  0.0895 -0.5209  0.1642
  436SOL    HW1 1307   0.475   1.253   2.443  0.5885  2.0258 -1.1031
  436SOL    HW2 1308   0.597   1.312   2.344 -1.3204  1.8426 -1.2098
  437SOL     OW 1309   1.184   2.425   2.541 -0.0419 -0.7291 -0.3721
  437SOL    HW1 1310   1.228   2.401   2.452 -1.7105 -2.8483 -3.5228
  437SOL    HW2 1311   1.111   2.496   2.527  1.7817  0.4345  0.0395
  438SOL     OW 1312   0.600   0.860   0.671 -0.4951 -0.0459  0.2477
  438SOL    HW1 1313   0.551   0.807   0.743  1.1980  1.2017  1.6582
  438SOL    HW2 1314   0.659   0.793   0.621 -0.6369  0.4272  1.1820
  439SOL     OW 1315   2.994   1.542   2.046  0.5908 -0.8560 -0.2077
  439SOL    HW1 1316   2.925   1.475   2.080  1.0108 -0.1253  0.2539
  439SOL    HW2 1317   2.955   1.636   2.034 -1.3730  0.0831  1.1388
  440SOL     OW 1318   2.794   0.773   2.718 -1.1089  0.2373  0.1975
  440SOL    HW1 1319   2.753   0.708   2.652  1.8441 -1.2990  1.7451
  440SOL    HW2 1320   2.754   0.867   2.711 -2.2278 -1.0435  0.3324
  441SOL     OW 1321   0.625   1.789   1.433  0.6200  0.6563 -0.5596
  441SOL    HW1 1322   0.524   1.781   1.431  0.7357 -1.9052  0.9376
  441SOL    HW2 1323   0.648   1.872   1.487  0.4326  1.4810 -4.0846
  442SOL     OW 1324   1.905   1.407   0.739 -0.2593 -0.5080  0.0528
  442SOL    HW1 1325   1.924   1.393   0.639  0.9846  0.8574 -3.2913
  442SOL    HW2 1326   1.823   1.467   0.752  0.8346 -1.1082 -5.1416
  443SOL     OW 1327   2.351   2.079   2.964 -0.4259 -0.0169 -0.3017
  443SOL    HW1 1328   2.285   2.008   2.932 -0.0634 -1.3977  2.9092
  443SOL    HW2 1329   2.438   2.079   2.908  1.8257  1.9135 -1.3097
  444SOL     OW 1330   1.706   1.431   2.957  0.5911 -1.0091 -0.0793
  444SOL    HW1 1331   1.660   1.521   2.974 -1.0525 -2.9686 -1.6878
  444SOL    HW2 1332   1.670   1.389   2.872  0.7912  1.5643 -0.8828
  445SOL     OW 1333   0.429   2.173   1.990  0.1400  0.4031 -0.2005
  445SOL    HW1 1334   0.493   2.249   2.014  0.0327 -1.1018  0.0898
  445SOL    HW2 1335   0.354   2.171   2.060  0.0346 -0.2684  1.8980
  446SOL     OW 1336   0.933   1.021   1.807  0.0548 -0.0670  0.4330
  446SOL    HW1 1337   1.025   0.977   1.794 -1.1667  3.1965  1.0143
  446SOL    HW2 1338   0.884   0.985   1.888 -1.4359 -0.7672  0.2612
  447SOL     OW 1339   0.743   0.670   0.535  0.0136 -0.3413  0.3185
  447SOL    HW1 1340   0.665   0.615   0.499 -0.2316 -1.0732  0.7648
  447SOL    HW2 1341   0.810   0.696   0.462 -0.6231 -0.4241  1.3428
  448SOL     OW 1342   1.347   1.050   2.012  0.2022  0.0238 -0.0367
  448SOL    HW1 1343   1.312   1.114   1.941 -2.7263  0.9606  0.8123
  448SOL    HW2 1344   1.439   1.014   1.986 -1.2133  0.8698 -1.2206
  449SOL     OW 1345   0.167   1.584   2.390 -0.2887  1.0371 -0.3389
  449SOL    HW1 1346   0.120   1.625   2.471  0.8468 -0.3049  1.2443
  449SOL    HW2 1347   0.168   1.653   2.313 -0.2034 -0.8562  2.4530
  450SOL     OW 1348   2.171   1.397   1.914 -0.2203 -0.2157  0.0410
  450SOL    HW1 1349   2.162   1.472   1.982  0.2071 -0.6056  0.7444
  450SOL    HW2 1350   2.265   1.396   1.873  1.0666 -0.1121  0.1376
  451SOL     OW 1351   2.353   1.422   1.322 -0.0423 -0.4442  0.4622
  451SOL    HW1 1352   2.398   1.354   1.383  0.4855  0.1549  1.8484
  451SOL    HW2 1353   2.412   1.446   1.242  2.4258  0.4443  0.0727
  452SOL     OW 1354   0.784   0.983   1.310 -0.6223  0.2648 -0.1614
  452SOL    HW1 1355   0.792   0.988   1.412  1.0057 -1.1079  1.9313
  452SOL    HW2 1356   0.877   0.994   1.271 -2.8285 -0.6818  3.0486
  453SOL     OW 1357   0.302   1.998   0.976 -0.1298 -0.6365  0.5329
  453SOL    HW1 1358   0.217   1.996   1.033  3.5214  1.8938 -0.9700
  453SOL    HW2 1359   0.293   1.983   0.877  0.8048  1.2496 -0.0646
  454SOL     OW 1360   1.190   1.225   0.263  0.6004  0.0779 -0.3376
  454SOL    HW1 1361   1.273   1.283   0.247 -0.0458  3.4398 -0.5477
  454SOL    HW2 1362   1.204   1.176   0.352 -1.5912  2.5411  0.8005
  455SOL     OW 1363   1.800   0.487   0.816 -0.3032 -0.1606  0.5589
  455SOL    HW1 1364   1.803   0.391   0.782  2.5747 -0.7046  0.1538
  455SOL    HW2 1365   1.849   0.552   0.754  0.2746 -0.3451  1.6275
  456SOL     OW 1366   1.792   2.852   0.270  0.4862 -0.0206 -0.3139
  456SOL    HW1 1367   1.740   2.778   0.223 -0.8181 -1.7019  1.6030
  456SOL    HW2 1368   1.734   2.932   0.291 -1.6992 -2.9672 -0.5433
  457SOL     OW 1369   2.066   1.163   2.001 -0.0045  0.2116  0.2871
  457SOL    HW1 1370   2.101   1.253   1.966  2.4577  2.0097  1.5228
  457SOL    HW2 1371   2.104   1.149   2.095  2.3707  1.7147 -1.9125
  458SOL     OW 1372   2.507   0.491   2.351 -0.2960  0.2903  0.1462
  458SOL    HW1 1373   2.419   0.529   2.391 -0.5267  0.2384 -0.1809
  458SOL    HW2 1374   2.527   0.548   2.269  1.2497  1.5184  3.4814
  459SOL     OW 1375   2.481   1.552   2.589  0.3951 -0.1996  0.3707
  459SOL    HW1 1376   2.543   1.544   2.668 -0.7885 -0.0716 -2.9918
  459SOL    HW2 1377   2.460   1.459   2.550 -0.0135 -1.2528 -0.4621
  460SOL     OW 1378   0.928   0.898   2.492 -0.5345  0.4021  0.1100
  460SOL    HW1 1379   0.982   0.961   2.433  0.6121  0.0894  1.2475
  460SOL    HW2 1380   0.903   0.945   2.579 -0.8764  1.1215 -0.3346
  461SOL     OW 1381   0.077   2.342   0.170  0.0429 -0.1033  0.4459
  461SOL    HW1 1382   0.158   2.399   0.197 -1.4718  2.6990  1.3815
  461SOL    HW2 1383  -0.006   2.401   0.156 -0.8439  2.4768  2.3794
  462SOL     OW 1384   1.387   2.781   2.380 -0.9288  0.0198  0.0854
  462SOL    HW1 1385   1.416   2.735   2.467 -0.4051  0.1856  0.4525
  462SOL    HW2 1386   1.458   2.850   2.355 -1.4985 -1.5893 -0.7313
  463SOL     OW 1387   2.036   2.126   1.922 -0.4524 -0.2813  0.3657
  463SOL    HW1 1388   1.979   2.042   1.936 -2.5322 -0.4754 -0.6132
  463SOL    HW2 1389   2.135   2.103   1.930  1.0782 -0.9596  1.4076
  464SOL     OW 1390   2.553   2.435   0.758 -0.1567  0.1011  0.0807
  464SOL    HW1 1391   2.456   2.413   0.735 -0.7483 -1.1156 -0.2998
  464SOL    HW2 1392   2.565   2.534   0.779  0.7656  1.0804  1.8357
  465SOL     OW 1393   0.011   0.133   1.496  0.2169 -0.3599 -0.3630
  465SOL    HW1 1394   0.063   0.086   1.421 -2.9022 -0.2990 -2.0350
  465SOL    HW2 1395   0.078   0.162   1.568 -0.1095  1.7630 -0.3593
  466SOL     OW 1396   1.337   2.489   2.755 -0.4481 -0.5959 -0.4028
  466SOL    HW1 1397   1.414   2.425   2.777 -2.0660 -0.3100  0.0549
  466SOL    HW2 1398   1.276   2.455   2.680 -0.4518 -1.5434 -0.3055
  467SOL     OW 1399   3.057   2.093   0.257 -0.3624  0.1990  0.2233
  467SOL    HW1 1400   2.985   2.069   0.189  0.3103 -3.2123 -1.0312
  467SOL    HW2 1401   3.087   2.189   0.240 -0.7855 -0.6357  3.2880
  468SOL     OW 1402   2.054   2.317   2.826 -0.2392  0.2716  0.6920
  468SOL    HW1 1403   2.106   2.260   2.759 -2.6891 -0.5512  0.5260
  468SOL    HW2 1404   1.977   2.363   2.780  1.3452  0.0274  0.2165
  469SOL     OW 1405   0.872   1.865   0.705  0.6108 -0.1411  0.0790
  469SOL    HW1 1406   0.815   1.890   0.787  0.8893  2.4818  1.9133
  469SOL    HW2 1407   0.930   1.945   0.679 -0.9891  0.0216  0.2639
  470SOL     OW 1408   1.957   0.669   0.680  0.4267 -0.1581  0.2661
  470SOL    HW1 1409   2.025   0.638   0.612  0.0207  1.2196  2.0091
  470SOL    HW2 1410   1.996   0.722   0.757  0.0602 -1.7748 -2.8689
  471SOL     OW 1411   0.315   1.858   0.520 -0.0077  0.4685 -0.3995
  471SOL    HW1 1412   0.395   1.858   0.456 -2.0626  2.4937 -1.0222
  471SOL    HW2 1413   0.320   1.938   0.585  0.0187  3.6216  0.8405
  472SOL     OW 1414   2.604   2.106   2.870 -0.7240  0.0172  0.0243
  472SOL    HW1 1415   2.665   2.138   2.944 -0.2007 -3.4087 -3.9262
  472SOL    HW2 1416   2.639   2.137   2.780 -0.8854 -0.4664  1.0659
  473SOL     OW 1417   1.406   1.758   0.749 -0.1807  0.1751  0.2232
  473SOL    HW1 1418   1.484   1.825   0.754  0.5311 -0.2894  1.2135
  473SOL    HW2 1419   1.367   1.762   0.654  0.0163  1.7485  2.2304
  474SOL     OW 1420   2.829   0.462   1.122 -0.1484  0.3913 -0.1201
  474SOL    HW1 1421   2.790   0.436   1.031  2.0298 -2.1867  0.2279
  474SOL    HW2 1422   2.893   0.390   1.155 -0.3599  1.1839 -0.7459
  475SOL     OW 1423   2.872   3.025   1.832 -0.9138  0.2960 -0.1258
  475SOL    HW1 1424   2.889   2.999   1.735  3.2255 -0.0116  0.0937
  475SOL    HW2 1425   2.804   3.103   1.826 -1.2065  2.4609  3.3440
  476SOL     OW 1426   0.558   0.259   0.912 -0.4212 -0.5432 -0.0588
  476SOL    HW1 1427   0.608   0.345   0.888 -4.2958 -1.0644  0.3834
  476SOL    HW2 1428   0.534   0.208   0.827  0.0994  3.2082 -2.4669
  477SOL     OW 1429   1.241   2.468   1.176  0.3210  0.1437 -0.5127
  477SOL    HW1 1430   1.228   2.474   1.278 -2.1832  0.0397  2.7951
  477SOL    HW2 1431   1.341   2.465   1.166  0.5613  2.5474  2.1186
  478SOL     OW 1432   1.204   2.648   0.094 -0.5532 -0.2554 -0.7240
  478SOL    HW1 1433   1.211   2.665  -0.007 -3.8940 -0.8526  1.0549
  478SOL    HW2 1434   1.258   2.719   0.143  1.6755 -0.2083  0.2841
  479SOL     OW 1435   2.529   1.149   2.128  0.7814  0.0975 -0.6098
  479SOL    HW1 1436   2.467   1.085   2.179 -2.3269  1.4787  1.2550
  479SOL    HW2 1437   2.546   1.116   2.033  0.6904 -2.6982 -1.6249
  480SOL     OW 1438   2.686   2.243   2.645  0.3199  0.3210 -0.0669
  480SOL    HW1 1439   2.716   2.227   2.548  0.2875  0.4818 -1.7449
  480SOL    HW2 1440   2.590   2.279   2.646  0.1971  2.2939  2.4333
  481SOL     OW 1441   1.610   2.636   1.630 -0.0144 -0.0487 -0.3246
  481SOL    HW1 1442   1.700   2.595   1.659 -4.2384 -0.4099  1.4831
  481SOL    HW2 1443   1.610   2.658   1.530 -1.6515 -2.7568  1.2081
  482SOL     OW 1444   1.542   2.197   2.231 -0.7437 -0.2033  0.1390
  482SOL    HW1 1445   1.508   2.160   2.142 -0.9710  1.1733  0.2191
  482SOL    HW2 1446   1.550   2.299   2.225 -0.4325 -0.6726 -1.0013
  483SOL     OW 1447   1.196   2.678   2.888  0.2685 -0.0883  0.1251
  483SOL    HW1 1448   1.154   2.723   2.805 -1.7280 -2.7791  0.9952
  483SOL    HW2 1449   1.253   2.600   2.854 -0.7085 -1.8598  1.9921
  484SOL     OW 1450   2.401   2.945   1.612  0.3584  0.4554  0.4388
  484SOL    HW1 1451   2.311   2.900   1.632 -0.6137 -1.1462  1.7015
  484SOL    HW2 1452   2.471   2.870   1.604 -0.0887  0.4664 -2.2683
  485SOL     OW 1453   1.947   0.538   0.341 -0.7162  0.0167  0.2859
  485SOL    HW1 1454   1.906   0.619   0.295 -1.2113  1.1444  0.4096
  485SOL    HW2 1455   1.876   0.482   0.387  0.9083  1.1001  1.3203
  486SOL     OW 1456   2.374   2.718   2.426 -0.6474  0.2915 -0.0059
  486SOL    HW1 1457   2.424   2.783   2.487  0.7082  1.2683 -0.8968
  486SOL    HW2 1458   2.344   2.632   2.474  1.2749 -3.7436  0.7626
  487SOL     OW 1459   1.200   0.844   0.761  0.1660 -0.4698 -0.4449
  487SOL    HW1 1460   1.152   0.869   0.674  1.4961  0.3814 -0.3050
  487SOL    HW2 1461   1.130   0.831   0.834  0.2321  1.3179  1.3048
  488SOL     OW 1462   2.672   2.900   2.360 -0.2084 -0.0019 -0.1217
  488SOL    HW1 1463   2.642   2.881   2.264 -1.5389  1.4488 -0.0294
  488SOL    HW2 1464   2.611   2.975   2.390 -0.0571  0.3575  0.0836
  489SOL     OW 1465   1.195   2.709   0.435 -0.3561 -0.1191 -0.1533
  489SOL    HW1 1466   1.150   2.777   0.496 -3.2625  0.4461 -1.5103
  489SOL    HW2 1467   1.135   2.626   0.431  1.0528 -0.0708 -0.0931
  490SOL     OW 1468   1.549   0.658   2.940 -0.0620  0.1860 -0.0272
  490SOL    HW1 1469   1.559   0.726   2.865  1.4507  0.1222  1.7924
  490SOL    HW2 1470   1.455   0.657   2.980  1.3542  0.2834  1.3329
  491SOL     OW 1471   0.939   0.038   1.212 -0.4862 -0.0938  0.4936
  491SOL    HW1 1472   0.861   0.081   1.162 -0.4985  1.2960  0.1629
  491SOL    HW2 1473   0.909   0.010   1.305  1.4588  3.2004  0.2661
  492SOL     OW 1474   1.592   2.695   0.172 -0.1753  0.1820 -0.2269
  492SOL    HW1 1475   1.534   2.669   0.253  0.3835 -0.8915  0.1390
  492SOL    HW2 1476   1.528   2.754   0.119 -0.0523 -0.9090 -1.8259
  493SOL     OW 1477   1.016   1.917   2.951  0.4701  0.0574  0.1967
  493SOL    HW1 1478   1.043   1.851   2.878  1.0519 -0.2614  1.2177
  493SOL    HW2 1479   0.994   2.009   2.909 -0.9809 -5.2931 -1.8672
  494SOL     OW 1480   0.785   0.292   0.464 -0.6498 -0.5623 -0.0916
  494SOL    HW1 1481   0.693   0.291   0.421  1.3996 -0.9682 -2.9170
  494SOL    HW2 1482   0.839   0.368   0.425  0.2983  0.4981 -0.1233
  495SOL     OW 1483   2.712   0.174   1.811 -0.5171 -0.8961  0.0505
  495SOL    HW1 1484   2.756   0.208   1.725 -0.9830  0.0718 -0.7756
  495SOL    HW2 1485   2.718   0.249   1.881 -3.1329  2.0477 -0.7332
  496SOL     OW 1486   2.318   1.908   2.390  0.3018 -0.3339  0.2241
  496SOL    HW1 1487   2.269   1.893   2.302 -2.2199 -0.0304 -0.8011
  496SOL    HW2 1488   2.403   1.852   2.386  1.6913  2.5656  0.5494
  497SOL     OW 1489   1.549   1.142   2.714 -0.0259 -0.0490 -0.1527
  497SOL    HW1 1490   1.620   1.210   2.687 -0.9906 -3.9653  1.1896
  497SOL    HW2 1491   1.477   1.181   2.775  0.0700 -2.3443  0.7540
  498SOL     OW 1492   0.749   2.766   1.213 -0.0583  0.5368 -0.2939
  498SOL    HW1 1493   0.682   2.842   1.202  0.3280  1.5663  0.1983
  498SOL    HW2 1494   0.698   2.677   1.220 -0.4725  1.0247 -1.2226
  499SOL     OW 1495   0.072   1.981   1.120 -0.3825  0.3374 -0.7233
  499SOL    HW1 1496   0.013   1.954   1.040 -1.6927  0.0079  0.0876
  499SOL    HW2 1497   0.052   1.918   1.198 -1.3638  2.3737  0.9418
  500SOL     OW 1498   0.646   2.672   2.691  0.6691  0.0166 -0.0803
  500SOL    HW1 1499   0.548   2.643   2.701 -2.3569  4.0244  1.6757
  500SOL    HW2 1500   0.666   2.704   2.596 -0.7748 -2.5407  1.1594
  501SOL     OW 1501   1.648   3.051   0.032 -0.4679  0.6105 -0.5022
  501SOL    HW1 1502   1.703   3.137   0.037 -3.4586 -2.4386 -0.4565
  501SOL    HW2 1503   1.601   3.031   0.121 -1.0474  1.3596 -1.0670
  502SOL     OW 1504   2.992   0.128   0.728 -0.3292 -0.3288 -0.0223
  502SOL    HW1 1505   2.951   0.214   0.695  0.8800 -3.5324  1.2027
  502SOL    HW2 1506   3.076   0.149   0.783  1.9385  0.3245 -0.3697
  503SOL     OW 1507   1.964   2.845   2.128  0.2354 -0.1275  0.2062
  503SOL    HW1 1508   2.027   2.816   2.204  2.0227  1.2888  0.7880
  503SOL    HW2 1509   1.870   2.814   2.154 -0.2465  0.5342 -0.6111
  504SOL     OW 1510   2.419   1.437   1.817 -0.0992 -0.3854  0.1739
  504SOL    HW1 1511   2.392   1.518   1.761  1.1684  1.0223  3.3553
  504SOL    HW2 1512   2.480   1.371   1.767  3.0652 -0.7403 -0.9603
  505SOL     OW 1513   1.717   2.767   2.204  0.6945  0.0892  0.0292
  505SOL    HW1 1514   1.669   2.839   2.258  0.0782  1.5675  1.6837
  505SOL    HW2 1515   1.655   2.730   2.131  0.2319  4.3405  1.2238
  506SOL     OW 1516   0.177   0.687   2.126  0.1088 -0.1931  0.0123
  506SOL    HW1 1517   0.180   0.596   2.081  3.5422  2.1178 -1.6383
  506SOL    HW2 1518   0.238   0.683   2.208 -0.3209 -3.3226 -1.2488
  507SOL     OW 1519   1.725   0.410   0.430 -1.0039  0.1976 -0.4991
  507SOL    HW1 1520   1.690   0.495   0.383 -1.3529  2.3844  0.6187
  507SOL    HW2 1521   1.646   0.363   0.473  0.4241 -0.9775  1.4845
  508SOL     OW 1522   2.076   0.530   1.785  0.6230  0.2365  0.3397
  508SOL    HW1 1523   2.074   0.613   1.727 -0.4606 -1.1220  1.8805
  508SOL    HW2 1524   2.152   0.536   1.853 -1.6057 -0.4671 -1.0910
  509SOL     OW 1525   0.633   1.894   3.047 -0.0310 -0.3022 -0.1154
  509SOL    HW1 1526   0.719   1.856   3.089 -1.6444  0.2107  1.1460
  509SOL    HW2 1527   0.556   1.841   3.084  3.1061  0.5261  2.3988
  510SOL     OW 1528   0.227   0.935   0.995  0.2357 -0.5284  0.3793
  510SOL    HW1 1529   0.141   0.915   0.943 -4.0134 -0.4767 -1.4563
  510SOL    HW2 1530   0.291   0.985   0.932 -0.0547  0.1193 -0.6682
  511SOL     OW 1531   1.492   1.019   1.204 -0.3879 -0.2449 -0.1481
  511SOL    HW1 1532   1.569   0.952   1.196  4.0548  1.2499  0.6900
  511SOL    HW2 1533   1.512   1.105   1.152  1.2599 -1.1710  1.4968
  512SOL     OW 1534   0.326   2.076   0.676  0.4671 -0.2083 -0.2629
  512SOL    HW1 1535   0.266   2.143   0.723 -3.2944 -1.7036 -0.2118
  512SOL    HW2 1536   0.425   2.101   0.686  1.3851 -1.2528 -1.4691
  513SOL     OW 1537   0.225   2.423   0.963  0.2776 -0.0186 -0.2056
  513SOL    HW1 1538   0.178   2.412   1.054  0.0908  0.3561  0.3589
  513SOL    HW2 1539   0.258   2.519   0.956  1.9467 -0.1647  1.0140
  514SOL     OW 1540   0.592   2.117   0.661 -0.0094 -0.3767  0.3881
  514SOL    HW1 1541   0.654   2.178   0.713 -1.0783 -1.9552 -0.1438
  514SOL    HW2 1542   0.636   2.083   0.575  0.8938 -0.4226 -1.1432
  515SOL     OW 1543   2.943   0.287   2.992 -0.0361  0.1363 -0.3174
  515SOL    HW1 1544   2.867   0.247   3.046 -2.4173  0.7216  0.7010
  515SOL    HW2 1545   2.988   0.365   3.039 -2.7595 -2.9505 -1.7567
  516SOL     OW 1546   2.156   3.034   1.323  0.1547 -0.8695 -0.3894
  516SOL    HW1 1547   2.091   2.973   1.373  3.0846  1.0611 -2.8637
  516SOL    HW2 1548   2.126   3.039   1.226 -3.2879  0.2338 -0.0181
  517SOL     OW 1549   1.696   1.579   0.757  0.1658 -0.1074 -0.0979
  517SOL    HW1 1550   1.739   1.648   0.694  0.2134  0.0236 -1.6270
  517SOL    HW2 1551   1.673   1.617   0.849  1.8794 -3.0059 -0.3551
  518SOL     OW 1552   1.777   2.798   0.833  0.1284  0.1114 -0.3937
  518SOL    HW1 1553   1.725   2.757   0.911  0.8890 -1.0850 -0.0439
  518SOL    HW2 1554   1.780   2.729   0.757 -0.0294  1.3480 -0.2247
  519SOL     OW 1555   2.895   2.485   0.126  0.1646 -0.9683  0.0775
  519SOL    HW1 1556   2.858   2.511   0.217 -1.7706  1.2549 -0.8831
  519SOL    HW2 1557   2.883   2.560   0.059  0.1371 -1.1301 -0.4379
  520SOL     OW 1558   2.201   1.594   2.101  0.4235 -0.4475 -0.7833
  520SOL    HW1 1559   2.183   1.689   2.136 -0.8823  0.9164 -1.5471
  520SOL    HW2 1560   2.206   1.528   2.180  0.7524  0.8989  0.3199
  521SOL     OW 1561   1.479   2.934   1.916 -0.1491  0.2311 -0.1158
  521SOL    HW1 1562   1.496   2.928   1.815  0.2273 -1.7476  2.7715
  521SOL    HW2 1563   1.380   2.956   1.929  1.3383 -0.1826 -0.8611
  522SOL     OW 1564   0.306   2.548   1.900  0.5052 -0.5673 -0.1161
  522SOL    HW1 1565   0.253   2.490   1.966 -1.0166  2.9034 -1.1884
  522SOL    HW2 1566   0.244   2.623   1.868 -0.3574  0.8256 -2.6243
  523SOL     OW 1567   0.584   2.378   2.091 -0.3462  0.0546  0.6465
  523SOL    HW1 1568   0.564   2.413   2.185  2.4700  2.7674  5.2386
  523SOL    HW2 1569   0.591   2.461   2.031  1.2980  2.2953 -1.7022
  524SOL     OW 1570   2.213   2.133   0.354  0.1098  0.1808  0.3746
  524SOL    HW1 1571   2.149   2.058   0.327  0.6833 -0.7379  0.6001
  524SOL    HW2 1572   2.215   2.143   0.456 -1.0549 -2.5910  0.5590
  525SOL     OW 1573   2.631   0.633   2.551  0.2674 -0.0484 -0.1173
  525SOL    HW1 1574   2.602   0.571   2.475  1.3936 -0.0918  1.5392
  525SOL    HW2 1575   2.584   0.601   2.637  0.4772 -1.5261  1.7177
  526SOL     OW 1576   0.410   2.432   0.472 -0.4410  0.3256  0.2716
  526SOL    HW1 1577   0.506   2.425   0.509 -1.9023 -1.8304  0.0099
  526SOL    HW2 1578   0.369   2.338   0.465 -1.5019  0.3269 -3.3069
  527SOL     OW 1579   2.859   1.059   0.866  0.0396  0.1869 -0.0013
  527SOL    HW1 1580   2.790   1.108   0.810 -2.0914 -1.9072  0.2968
  527SOL    HW2 1581   2.813   0.992   0.929  1.0220  0.1345  3.9791
  528SOL     OW 1582   1.116   1.304   2.252 -0.2630 -0.0227 -0.6164
  528SOL    HW1 1583   1.097   1.338   2.157  0.7005  0.8295  1.8819
  528SOL    HW2 1584   1.064   1.364   2.315  2.1025 -2.1620  1.7601
  529SOL     OW 1585   0.842   1.292   0.472 -0.2395  0.0592  0.1437
  529SOL    HW1 1586   0.903   1.299   0.554 -1.0145 -1.1945  0.7986
  529SOL    HW2 1587   0.790   1.206   0.483 -0.0270 -1.1375  0.6512
  530SOL     OW 1588   1.371   0.551   1.652 -0.0036  0.5234 -0.2427
  530SOL    HW1 1589   1.429   0.618   1.602  0.0486 -0.1217 -0.7570
  530SOL    HW2 1590   1.428   0.491   1.711 -1.6029  1.0791  2.5515
  531SOL     OW 1591   1.101   2.208   0.270  0.7424  0.1185  0.4398
  531SOL    HW1 1592   1.118   2.279   0.198 -1.7806  0.9775  2.7594
  531SOL    HW2 1593   1.189   2.190   0.316  0.2127  1.4705  1.6640
  532SOL     OW 1594   2.582   0.856   2.400  0.1176 -0.1921 -0.4935
  532SOL    HW1 1595   2.596   0.779   2.466  2.6606  0.9463  2.3141
  532SOL    HW2 1596   2.675   0.893   2.380 -0.8259  0.7318 -0.7383
  533SOL     OW 1597   0.037   0.246   2.111 -0.6739  0.1993  0.5284
  533SOL    HW1 1598  -0.056   0.269   2.148 -0.6952 -0.0070 -4.3904
  533SOL    HW2 1599   0.033   0.174   2.037  0.8515  0.2000 -1.1955
  534SOL     OW 1600   2.220   0.189   2.778 -0.0852 -0.3546  0.7703
  534SOL    HW1 1601   2.294   0.195   2.847  1.2196  0.1609  0.5399
  534SOL    HW2 1602   2.243   0.111   2.716 -0.9853 -1.2306  0.3995
  535SOL     OW 1603   0.242   0.386   3.008  0.5690  0.0595 -0.0799
  535SOL    HW1 1604   0.310   0.355   3.078 -0.1743  0.0995 -1.9202
  535SOL    HW2 1605   0.292   0.402   2.921 -3.3964 -1.6009 -0.3358
  536SOL     OW 1606   1.085   2.053   1.102  0.1875  0.2526 -0.4096
  536SOL    HW1 1607   1.009   2.018   1.161  1.0724 -2.0356 -0.4874
  536SOL    HW2 1608   1.072   2.152   1.083  0.7917 -2.7524 -2.6322
  537SOL     OW 1609   2.767   2.521   1.470  0.1419 -0.0973  0.2741
  537SOL    HW1 1610   2.802   2.589   1.538 -1.9820  1.9135  0.7761
  537SOL    HW2 1611   2.703   2.457   1.519  1.8168  1.4663 -3.7774
  538SOL     OW 1612   0.656   2.436   0.576  0.6731 -0.0507 -0.4768
  538SOL    HW1 1613   0.716   2.369   0.624 -0.5413 -1.4066  1.6624
  538SOL    HW2 1614   0.707   2.521   0.550  0.3576 -0.6305  1.5126
  539SOL     OW 1615   1.824   1.273   2.454  0.3726  0.1607  0.0799
  539SOL    HW1 1616   1.744   1.249   2.396  0.0886 -0.6942 -0.4296
  539SOL    HW2 1617   1.882   1.345   2.408  1.5654 -2.1638 -0.3593
  540SOL     OW 1618   1.867   0.596   2.832 -0.0549  0.1900 -0.0500
  540SOL    HW1 1619   1.898   0.587   2.929  0.6264  0.5919 -0.5546
  540SOL    HW2 1620   1.856   0.694   2.807 -0.9680  2.7369  3.1725
  541SOL     OW 1621   1.092   1.057   2.352  0.3971  0.4151 -0.5557
  541SOL    HW1 1622   1.113   0.992   2.275  1.3766  1.9912  0.4027
  541SOL    HW2 1623   1.091   1.153   2.317  1.3780  3.1775  0.7055
  542SOL     OW 1624   1.441   2.543   1.818 -0.4406 -0.1482  0.5743
  542SOL    HW1 1625   1.340   2.552   1.798 -2.1483 -0.6113  1.1114
  542SOL    HW2 1626   1.496   2.577   1.739 -0.0412  1.2189 -0.9568
  543SOL     OW 1627   0.529   2.755   2.978  0.1125  0.4137  0.0891
  543SOL    HW1 1628   0.572   2.734   2.889  0.9735 -1.0304  1.9989
  543SOL    HW2 1629   0.437   2.798   2.961 -0.3458 -0.8596  2.1064
  544SOL     OW 1630   0.062   2.004   2.184  0.1145 -0.2281  0.3385
  544SOL    HW1 1631   0.028   2.005   2.279  0.1836 -1.3484  2.4894
  544SOL    HW2 1632   0.133   2.078   2.183 -1.1648  1.0630 -2.3747
  545SOL     OW 1633   1.387   1.858   1.632  0.3107  0.1704 -0.8717
  545SOL    HW1 1634   1.355   1.871   1.536  1.1445  0.2812  0.2683
  545SOL    HW2 1635   1.324   1.799   1.688  2.3099  1.0074 -0.6610
  546SOL     OW 1636   2.790   0.216   2.604 -0.2557 -0.2805  0.5357
  546SOL    HW1 1637   2.753   0.242   2.512  1.0709  1.0388  0.0672
  546SOL    HW2 1638   2.890   0.235   2.605  2.6350 -2.8781  4.6025
  547SOL     OW 1639   1.603   3.001   0.777 -0.5797  0.2995 -0.4281
  547SOL    HW1 1640   1.594   3.046   0.869 -1.3259  2.3722  1.2132
  547SOL    HW2 1641   1.674   2.928   0.786  3.2314  0.3363 -1.1991
  548SOL     OW 1642   1.335   2.177   0.052 -0.2747 -0.3667 -0.1853
  548SOL    HW1 1643   1.275   2.094   0.060 -2.4706 -2.0367  0.6577
  548SOL    HW2 1644   1.280   2.262   0.040  0.3783  0.1958 -0.8453
  549SOL     OW 1645   1.940   0.564   0.027 -0.0621  0.4707 -0.7594
  549SOL    HW1 1646   1.990   0.481   0.060 -2.7417 -1.5833  1.1345
  549SOL    HW2 1647   1.993   0.647   0.055  1.4610  0.6837  1.2537
  550SOL     OW 1648   2.508   1.824   0.847 -0.3043 -0.2859 -0.0803
  550SOL    HW1 1649   2.458   1.890   0.788  0.3265 -2.0340 -1.6556
  550SOL    HW2 1650   2.575   1.776   0.785  1.6061 -2.3515  2.0306
  551SOL     OW 1651   1.138   0.216   1.267  0.0067  0.2704  0.0142
  551SOL    HW1 1652   1.080   0.272   1.330 -1.0829  1.9196  1.0311
  551SOL    HW2 1653   1.078   0.144   1.226  3.7559  3.1213 -1.7044
  552SOL     OW 1654   0.377   1.830   2.713 -0.4528 -0.5702  0.1029
  552SOL    HW1 1655   0.382   1.764   2.635  0.0024  0.0469  0.5552
  552SOL    HW2 1656   0.357   1.776   2.798 -0.0017 -0.2394 -1.7386
  553SOL     OW 1657   2.509   2.384   0.031 -0.2698 -0.2198 -0.5193
  553SOL    HW1 1658   2.411   2.362   0.013 -0.4727  1.6018  0.5836
  553SOL    HW2 1659   2.517   2.409   0.130 -0.9968 -0.3130  2.0209
  554SOL     OW 1660   1.961   1.461   1.459  0.5599  0.3605 -0.1091
  554SOL    HW1 1661   1.982   1.418   1.551  1.0291  2.6504  2.1616
  554SOL    HW2 1662   1.873   1.514   1.468  0.0238  2.3430 -2.7344
  555SOL     OW 1663   0.551   2.473   2.340  0.2262 -0.0549  0.2385
  555SOL    HW1 1664   0.510   2.439   2.427 -0.6923 -0.6430 -0.3936
  555SOL    HW2 1665   0.512   2.566   2.323 -0.5112  2.3960 -0.5866
  556SOL     OW 1666   1.413   1.081   1.456 -0.6949  0.1714  0.2223
  556SOL    HW1 1667   1.446   1.060   1.361  1.8556  0.9793  1.2754
  556SOL    HW2 1668   1.391   1.181   1.465  0.2044  3.9178  0.1002
  557SOL     OW 1669   1.430   2.905   1.138  0.0319 -0.2901 -0.8880
  557SOL    HW1 1670   1.453   2.814   1.101 -2.5960  2.1638 -3.2361
  557SOL    HW2 1671   1.397   2.899   1.234  0.0568 -2.4497 -1.7668
  558SOL     OW 1672   0.538   0.816   2.354  0.2065 -0.1145  0.1149
  558SOL    HW1 1673   0.451   0.762   2.352 -0.5515 -0.3693 -0.1283
  558SOL    HW2 1674   0.568   0.824   2.452  1.7076 -0.0949  0.8309
  559SOL     OW 1675   0.941   2.677   0.186 -0.1896  0.2152  0.3221
  559SOL    HW1 1676   0.920   2.752   0.253 -1.2837  1.0318 -0.0653
  559SOL    HW2 1677   1.041   2.659   0.175  3.2473  1.2456  1.4105
  560SOL     OW 1678   1.609   2.014   0.359 -0.3873  0.0895 -0.1256
  560SOL    HW1 1679   1.686   2.044   0.299  0.0491 -2.0274  0.0807
  560SOL    HW2 1680   1.521   2.060   0.337 -0.0176  0.7894  1.2851
  561SOL     OW 1681   1.062   2.898   0.581  0.1750 -0.4644  0.2809
  561SOL    HW1 1682   1.122   2.979   0.559  2.3319 -2.7180 -1.7960
  561SOL    HW2 1683   1.032   2.909   0.677 -0.7677 -0.2948  0.9001
  562SOL     OW 1684   0.563   1.049   2.221 -0.1015  0.2849 -0.2046
  562SOL    HW1 1685   0.577   1.119   2.294 -1.1274  1.6994  0.4208
  562SOL    HW2 1686   0.551   0.963   2.275  1.0492  0.5373 -0.7283
  563SOL     OW 1687   1.192   2.046   2.424  0.2829 -1.1328  0.4188
  563SOL    HW1 1688   1.195   2.045   2.322 -0.1595 -0.1203  0.1072
  563SOL    HW2 1689   1.194   1.948   2.455  1.1738  1.8543 -0.7324
  564SOL     OW 1690   2.464   0.662   1.213  0.2904  0.0061  0.1233
  564SOL    HW1 1691   2.427   0.616   1.129 -1.3954 -1.9353  2.1269
  564SOL    HW2 1692   2.421   0.755   1.222 -2.3810 -1.6844 -2.3086
  565SOL     OW 1693   1.423   0.949   0.352 -0.3034 -0.3782 -0.1856
  565SOL    HW1 1694   1.390   0.946   0.255  0.8882  0.6143 -0.8854
  565SOL    HW2 1695   1.367   1.013   0.409 -3.8070  0.8209  1.7032
  566SOL     OW 1696   2.411   2.710   2.853  0.0804  0.3020  0.5928
  566SOL    HW1 1697   2.484   2.638   2.853 -0.2321  0.3878  0.3962
  566SOL    HW2 1698   2.325   2.663   2.883  0.4009 -1.0194  1.6820
  567SOL     OW 1699   1.902   0.767   1.022  0.0919 -0.6266  0.1206
  567SOL    HW1 1700   1.820   0.793   1.076 -1.8010  0.3779 -0.4563
  567SOL    HW2 1701   1.922   0.666   1.029 -0.9924  2.1771 -0.5918
  568SOL     OW 1702   1.169   1.066   2.621  0.5530  0.0314  0.0388
  568SOL    HW1 1703   1.151   1.158   2.661  0.6074 -1.4514  1.1616
  568SOL    HW2 1704   1.148   1.061   2.521 -0.3914 -2.8718  1.4661
  569SOL     OW 1705   2.091   1.575   0.846 -0.8038 -0.0628 -0.8179
  569SOL    HW1 1706   2.020   1.507   0.818  0.5134  0.6237 -3.5443
  569SOL    HW2 1707   2.183   1.547   0.817  4.0957  1.4481  4.6025
  570SOL     OW 1708   2.505   2.540   2.260 -0.4083  0.1292 -0.8505
  570SOL    HW1 1709   2.443   2.613   2.294  0.7719 -1.4839  1.1547
  570SOL    HW2 1710   2.520   2.559   2.160  2.6034  2.5842 -0.4899
  571SOL     OW 1711   3.063   1.990   1.676 -0.1808  0.3452 -0.5173
  571SOL    HW1 1712   2.987   2.009   1.609  1.1948 -0.1744 -1.4259
  571SOL    HW2 1713   3.025   1.986   1.770 -0.5117 -1.5629 -1.1620
  572SOL     OW 1714   1.043   2.198   2.588  0.3065  0.4110 -0.3833
  572SOL    HW1 1715   1.089   2.289   2.588  1.3276 -1.7480 -2.1721
  572SOL    HW2 1716   1.102   2.133   2.535 -0.4448  0.5509 -0.4101
  573SOL     OW 1717   1.532   2.299   1.396 -0.2700  0.4820  0.1870
  573SOL    HW1 1718   1.455   2.302   1.463 -0.3626  0.4877  1.2682
  573SOL    HW2 1719   1.613   2.258   1.444  2.1601  2.3312  0.0862
  574SOL     OW 1720   1.155   2.750   1.509  0.3626  0.0824 -0.4386
  574SOL    HW1 1721   1.063   2.749   1.464 -1.4721 -2.0629  0.5300
  574SOL    HW2 1722   1.142   2.765   1.608 -1.2760  2.3882  1.2981
  575SOL     OW 1723   0.684   0.495   0.889  0.4971 -1.0525 -0.4433
  575SOL    HW1 1724   0.766   0.524   0.836  0.3005 -1.3159  1.9495
  575SOL    HW2 1725   0.701   0.514   0.989  1.0858  0.9926 -0.6629
  576SOL     OW 1726   2.155   0.606   1.401 -0.4849 -0.2946  0.0811
  576SOL    HW1 1727   2.124   0.668   1.477 -1.9677 -3.2594 -2.6513
  576SOL    HW2 1728   2.164   0.665   1.318 -0.7860  2.0197 -0.7567
  577SOL     OW 1729   1.984   0.166   2.912  0.9912  0.4189 -0.0292
  577SOL    HW1 1730   2.068   0.189   2.860  0.4012  2.1847 -0.4915
  577SOL    HW2 1731   1.906   0.183   2.848  1.0615  0.9021 -0.0627
  578SOL     OW 1732   1.633   1.904   1.929 -0.1982  0.3086  0.7478
  578SOL    HW1 1733   1.638   1.802   1.935 -1.4469 -1.0494 -1.8211
  578SOL    HW2 1734   1.638   1.930   1.830 -0.1738 -0.2721 -0.5590
  579SOL     OW 1735   0.828   1.593   1.010  1.0055  0.6024  0.1916
  579SOL    HW1 1736   0.899   1.666   0.997  2.0747  0.5212  0.5557
  579SOL    HW2 1737   0.765   1.585   0.930 -0.3954 -1.0635 -1.1518
  580SOL     OW 1738   1.180   0.034   2.946  0.4882  0.1412 -0.1744
  580SOL    HW1 1739   1.114  -0.007   3.013  0.0698  0.4730  1.3697
  580SOL    HW2 1740   1.247   0.093   2.994 -1.3380 -0.6658  3.4549
  581SOL     OW 1741   1.177   0.922   1.741 -0.0755  0.3108 -0.2597
  581SOL    HW1 1742   1.210   0.836   1.784  0.9817 -1.5246 -2.3595
  581SOL    HW2 1743   1.179   0.912   1.638  0.2324  0.4150 -1.3115
  582SOL     OW 1744   0.316   0.356   0.983 -0.3378  0.5742  0.0089
  582SOL    HW1 1745   0.298   0.442   0.933 -0.1714 -0.1853 -2.7558
  582SOL    HW2 1746   0.407   0.316   0.958  1.4964 -2.8495 -0.1773
  583SOL     OW 1747   0.767   1.909   1.789  0.0701  0.4173  0.8197
  583SOL    HW1 1748   0.755   1.819   1.838  0.4528  0.3627  0.0628
  583SOL    HW2 1749   0.861   1.910   1.745  1.0247  0.2375 -0.7973
  584SOL     OW 1750   2.548   2.432   0.294  0.2616 -0.6870 -0.1623
  584SOL    HW1 1751   2.637   2.474   0.318  0.5042 -2.6992  0.4972
  584SOL    HW2 1752   2.480   2.473   0.360  1.0675  2.2450 -0.1383
  585SOL     OW 1753   2.258   0.569   2.824 -0.4774  0.1639 -0.2880
  585SOL    HW1 1754   2.257   0.519   2.913 -1.5876  0.4000 -1.4414
  585SOL    HW2 1755   2.220   0.509   2.751  1.1165 -1.1964 -0.9455
  586SOL     OW 1756   0.508   1.337   0.270 -0.1447 -0.3909 -0.0080
  586SOL    HW1 1757   0.560   1.399   0.333 -0.8736  0.0012 -0.0287
  586SOL    HW2 1758   0.410   1.368   0.276  0.9325 -0.7032 -2.5511
  587SOL     OW 1759   1.697   2.030   1.250  0.1770  0.2264 -0.3283
  587SOL    HW1 1760   1.730   1.998   1.158 -2.1032  0.4491 -0.0646
  587SOL    HW2 1761   1.625   2.100   1.238 -0.7345  2.8954 -2.2403
  588SOL     OW 1762   0.509   0.639   1.262  0.0036  0.0331 -0.1133
  588SOL    HW1 1763   0.597   0.610   1.219  1.9369  1.2111 -1.5969
  588SOL    HW2 1764   0.441   0.668   1.190 -0.7629 -0.5742  1.4158
  589SOL     OW 1765   2.043   2.854   0.815  0.1963 -0.5317  0.4986
  589SOL    HW1 1766   2.059   2.890   0.721  0.9788  0.8901 -0.6281
  589SOL    HW2 1767   1.942   2.837   0.828  1.6616 -0.4050 -1.6839
  590SOL     OW 1768   1.692   0.974   0.405  0.2616  0.2503 -0.2443
  590SOL    HW1 1769   1.759   0.934   0.339 -0.8523  0.9121  2.1986
  590SOL    HW2 1770   1.594   0.960   0.379 -0.7610 -2.6305  2.7738
  591SOL     OW 1771   2.289   2.033   1.993  0.4109 -0.5298 -0.0043
  591SOL    HW1 1772   2.369   1.977   1.961 -0.0352 -3.2010 -0.4354
  591SOL    HW2 1773   2.326   2.127   2.003  0.6509  1.3748  1.1249
  592SOL     OW 1774   1.344   1.986   1.138 -0.2250 -0.5784 -0.1238
  592SOL    HW1 1775   1.373   1.901   1.089  0.4982  2.1317 -0.8397
  592SOL    HW2 1776   1.248   2.011   1.115  0.9530 -0.7478 -0.1569
  593SOL     OW 1777   0.588   2.764   0.758 -0.1341  0.3133  0.4045
  593SOL    HW1 1778   0.682   2.730   0.775  0.6059  0.3065 -0.1001
  593SOL    HW2 1779   0.557   2.812   0.843 -2.4924  1.3432  1.9958
  594SOL     OW 1780   2.822   0.969   2.336 -0.1128 -0.1548  1.4473
  594SOL    HW1 1781   2.856   1.034   2.264  1.4474  0.3843  0.6037
  594SOL    HW2 1782   2.879   0.885   2.341  0.7414 -0.4941  1.3346
  595SOL     OW 1783   2.958   2.973   0.564  0.3221  0.4341 -0.2503
  595SOL    HW1 1784   3.036   2.953   0.501  1.6986 -0.2494  0.9075
  595SOL    HW2 1785   2.981   3.058   0.616 -1.7471  0.4192  0.2963
  596SOL     OW 1786   3.043   0.557   1.436  0.4325 -0.2126  0.1759
  596SOL    HW1 1787   3.064   0.642   1.489 -2.2776 -1.6777 -1.6705
  596SOL    HW2 1788   2.946   0.531   1.458 -0.9853  0.5171  1.6239
  597SOL     OW 1789   2.605   1.206   0.406  0.4287  0.5280 -0.9059
  597SOL    HW1 1790   2.682   1.143   0.385  3.3234 -1.4816 -1.0382
  597SOL    HW2 1791   2.516   1.160   0.382 -0.5193 -1.4503 -0.9865
  598SOL     OW 1792   0.606   0.369   2.024  0.4084 -0.1318 -0.7572
  598SOL    HW1 1793   0.602   0.462   1.982  0.5149 -1.2933  2.8124
  598SOL    HW2 1794   0.520   0.356   2.079  0.9294  1.0998 -0.6218
  599SOL     OW 1795   2.500   1.724   0.167 -0.3834  0.0837  0.2323
  599SOL    HW1 1796   2.484   1.819   0.133 -0.6179  2.1783  0.7699
  599SOL    HW2 1797   2.563   1.733   0.245 -0.9835  2.1601 -3.6310
  600SOL     OW 1798   0.882   0.885   0.143  0.8666  0.0077  0.0799
  600SOL    HW1 1799   0.962   0.942   0.117  1.1849 -1.3101  0.6868
  600SOL    HW2 1800   0.795   0.929   0.110  1.1551 -0.5077  1.4562
  601SOL     OW 1801   1.329   0.933   0.095 -0.6421  0.3480 -0.7258
  601SOL    HW1 1802   1.237   0.977   0.082  2.2476 -0.1220  1.3766
  601SOL    HW2 1803   1.327   0.840   0.052  0.0363 -0.1887 -1.1040
  602SOL     OW 1804   0.975   3.056   1.668  0.0712 -0.3350 -0.2405
  602SOL    HW1 1805   1.017   3.149   1.680  0.4166  2.1930 -0.3400
  602SOL    HW2 1806   0.929   3.050   1.576 -2.2443  2.3913 -4.0293
  603SOL     OW 1807   0.919   2.797   2.319 -0.7878 -0.1472  0.3489
  603SOL    HW1 1808   0.997   2.853   2.354 -0.0345  1.1962 -0.1349
  603SOL    HW2 1809   0.944   2.761   2.228  2.0605 -2.1164 -2.3430
  604SOL     OW 1810   0.044   0.052   1.922  0.1129  0.3713  0.3346
  604SOL    HW1 1811   0.094  -0.026   1.968  1.0238 -0.8308  1.6791
  604SOL    HW2 1812  -0.047   0.020   1.887 -0.9678 -2.8207 -1.5231
  605SOL     OW 1813   2.588   2.750   1.602 -0.0955  0.8422  0.9133
  605SOL    HW1 1814   2.545   2.677   1.659  0.4226 -0.7648 -0.3822
  605SOL    HW2 1815   2.689   2.751   1.617 -2.3269  1.0998 -0.5994
  606SOL     OW 1816   0.036   1.904   2.486 -0.0762 -0.2919  0.3701
  606SOL    HW1 1817   0.040   1.818   2.541  1.0315  1.1797 -2.3437
  606SOL    HW2 1818   0.108   1.968   2.521  1.2527 -1.7217  1.9273
  607SOL     OW 1819   0.801   0.077   0.623  0.0731  0.2700  0.0033
  607SOL    HW1 1820   0.799   0.167   0.573 -1.2365  0.6169  2.4960
  607SOL    HW2 1821   0.830   0.090   0.720  1.5956 -0.9622  0.7265
  608SOL     OW 1822   1.637   1.771   2.425  0.3819 -0.6666 -0.1743
  608SOL    HW1 1823   1.605   1.685   2.377 -0.4740 -3.7162  0.3898
  608SOL    HW2 1824   1.656   1.842   2.355  0.9300  0.2972  0.4206
  609SOL     OW 1825   3.008   0.286   1.251 -0.1535  0.8902 -0.6514
  609SOL    HW1 1826   3.073   0.359   1.220  1.4499 -0.9073 -0.1250
  609SOL    HW2 1827   3.045   0.247   1.338  0.2212 -0.3879 -0.0306
  610SOL     OW 1828   0.895   2.371   3.013 -0.2251  0.4807 -0.5325
  610SOL    HW1 1829   0.845   2.407   2.931 -0.7585 -0.2130  3.3307
  610SOL    HW2 1830   0.848   2.406   3.098 -1.7611  0.8414 -0.7294
  611SOL     OW 1831   1.931   1.362   0.474  0.9276  0.2073 -0.0929
  611SOL    HW1 1832   1.967   1.418   0.398 -0.8849  4.0244 -2.7145
  611SOL    HW2 1833   1.842   1.329   0.435 -1.1604  0.8373 -2.1576
  612SOL     OW 1834   0.977   2.594   2.493 -1.1454 -0.7017 -0.2604
  612SOL    HW1 1835   0.959   2.673   2.429 -0.0996 -0.1261 -1.5985
  612SOL    HW2 1836   0.910   2.518   2.477  2.3091  0.5171 -0.6836
  613SOL     OW 1837   1.152   1.986   0.109  0.0212 -0.1848  0.3760
  613SOL    HW1 1838   1.098   2.049   0.168 -1.2583 -1.4310  2.0818
  613SOL    HW2 1839   1.093   1.966   0.027  1.7067 -1.5703  0.6465
  614SOL     OW 1840   2.606   2.336   1.591  0.0192  0.6236 -0.4859
  614SOL    HW1 1841   2.586   2.284   1.505  0.7651  0.1873  1.1647
  614SOL    HW2 1842   2.565   2.287   1.671  1.9146  1.6281 -0.3750
  615SOL     OW 1843   2.452   1.284   0.017  0.3086 -0.6698  0.5671
  615SOL    HW1 1844   2.486   1.292  -0.080  1.1510  1.5142 -1.3582
  615SOL    HW2 1845   2.400   1.198   0.032 -0.1370  1.6132  1.0701
  616SOL     OW 1846   1.612   0.032   0.523 -0.4225  0.2873 -0.3162
  616SOL    HW1 1847   1.591  -0.005   0.616 -0.1196 -0.4916  1.0537
  616SOL    HW2 1848   1.714   0.040   0.517  1.9066 -2.5114  0.0898
  617SOL     OW 1849   0.453   1.478   2.735 -0.5086  0.2783 -0.0647
  617SOL    HW1 1850   0.431   1.530   2.650 -1.1753 -1.8608 -1.7132
  617SOL    HW2 1851   0.554   1.463   2.740  1.3794  0.3702 -3.1453
  618SOL     OW 1852   0.476   0.742   1.726 -0.2444  0.3171  0.2225
  618SOL    HW1 1853   0.374   0.729   1.725  0.3724  0.9178 -0.7970
  618SOL    HW2 1854   0.512   0.689   1.646 -2.7145 -1.8030 -0.3700
  619SOL     OW 1855   2.801   0.955   1.975 -0.0106  0.4951  0.3460
  619SOL    HW1 1856   2.854   1.025   2.028 -3.2221 -0.2470  1.7820
  619SOL    HW2 1857   2.800   0.868   2.028  2.2020 -0.1273  0.9140
  620SOL     OW 1858   2.128   0.941   2.977 -0.7829  0.5021 -0.2597
  620SOL    HW1 1859   2.166   0.901   2.891 -1.6620 -1.9082  0.5318
  620SOL    HW2 1860   2.034   0.981   2.963  0.8767 -0.2987  1.1394
  621SOL     OW 1861   2.400   2.949   1.211 -0.3696 -0.1899  0.4594
  621SOL    HW1 1862   2.469   2.895   1.263 -1.9874 -2.5764 -0.3727
  621SOL    HW2 1863   2.321   2.973   1.272  0.4079  0.7364 -0.5647
  622SOL     OW 1864   1.666   0.523   2.052  0.0753  0.0503 -0.9816
  622SOL    HW1 1865   1.683   0.454   1.979 -3.0262  0.9021 -0.7964
  622SOL    HW2 1866   1.594   0.586   2.017  1.9628 -2.8781  0.6561
  623SOL     OW 1867   1.483   0.942   2.410  0.1885  0.0046 -0.3069
  623SOL    HW1 1868   1.573   0.945   2.362 -0.4939  0.8101 -2.7512
  623SOL    HW2 1869   1.490   0.967   2.508 -1.8628 -1.2381  0.7791
  624SOL     OW 1870   1.880   0.061   0.533  0.6381  0.1666 -0.1485
  624SOL    HW1 1871   1.885   0.108   0.443 -1.1585 -1.0301  2.0772
  624SOL    HW2 1872   1.953  -0.012   0.538 -0.9050 -0.0116 -1.5758
  625SOL     OW 1873   0.667   1.496   0.426 -0.3616 -0.1489  0.2139
  625SOL    HW1 1874   0.734   1.421   0.448 -1.1330  0.5963  0.9304
  625SOL    HW2 1875   0.675   1.575   0.490 -1.1591  1.2770 -2.4194
  626SOL     OW 1876   1.619   1.221   2.283  0.5875 -1.0326 -0.1061
  626SOL    HW1 1877   1.622   1.251   2.185  1.5615 -0.7783 -0.3301
  626SOL    HW2 1878   1.519   1.220   2.308 -1.7360  0.1307  1.4002
  627SOL     OW 1879   0.850   0.587   1.815  0.2270  0.2360  0.3097
  627SOL    HW1 1880   0.917   0.647   1.863  1.0952  0.1034 -2.2879
  627SOL    HW2 1881   0.756   0.596   1.857 -0.0212  3.2023  1.1019
  628SOL     OW 1882   2.065   0.797   2.255 -0.5619 -0.1179  0.8683
  628SOL    HW1 1883   1.989   0.746   2.211  1.4565 -1.8550  1.9449
  628SOL    HW2 1884   2.145   0.805   2.192  2.6129  0.2494 -0.9747
  629SOL     OW 1885   0.769   1.338   2.988 -0.0583 -0.0890  0.5964
  629SOL    HW1 1886   0.749   1.381   2.897 -1.9640 -1.2312 -2.5733
  629SOL    HW2 1887   0.687   1.290   3.028 -3.7384 -1.7405 -1.4001
  630SOL     OW 1888   1.337   0.496   2.263  0.5530 -0.6338  0.0545
  630SOL    HW1 1889   1.333   0.598   2.256 -0.0263 -1.8169 -3.7863
  630SOL    HW2 1890   1.433   0.465   2.282 -1.9976  1.2453 -1.1369
  631SOL     OW 1891   2.568   0.719   0.871 -0.0179 -0.0143 -0.1046
  631SOL    HW1 1892   2.519   0.647   0.923 -0.4516 -1.1236  2.4804
  631SOL    HW2 1893   2.503   0.784   0.827 -2.5904  4.8200 -0.7505
  632SOL     OW 1894   2.698   1.714   0.701  0.0366  0.2643 -0.6273
  632SOL    HW1 1895   2.667   1.644   0.634  0.7002 -0.1773  0.2150
  632SOL    HW2 1896   2.768   1.775   0.657  0.5539  0.0491 -1.7581
  633SOL     OW 1897   0.698   1.298   0.749 -0.6073 -0.2091 -0.0900
  633SOL    HW1 1898   0.687   1.243   0.835  2.7587  0.7294 -2.7145
  633SOL    HW2 1899   0.665   1.245   0.669  3.6459 -6.4504  0.0443
  634SOL     OW 1900   1.552   2.997   0.279 -0.0040 -0.3618 -0.9197
  634SOL    HW1 1901   1.470   2.936   0.270  2.5205  0.1162 -0.1513
  634SOL    HW2 1902   1.561   3.037   0.372  1.1416 -2.6392  1.1616
  635SOL     OW 1903   1.981   0.283   1.736 -0.6784 -0.0541 -0.3845
  635SOL    HW1 1904   2.018   0.247   1.648  1.2323  0.0002  0.2588
  635SOL    HW2 1905   2.015   0.379   1.752  1.2866 -0.5822 -0.2215
  636SOL     OW 1906   1.375   0.659   0.694 -0.2401 -0.0062 -0.4448
  636SOL    HW1 1907   1.311   0.732   0.732 -1.7127 -0.5727  1.8428
  636SOL    HW2 1908   1.445   0.647   0.767 -0.6372 -2.3750  3.3737
  637SOL     OW 1909   1.960   1.471   2.866 -0.3147  0.3440 -0.1845
  637SOL    HW1 1910   1.954   1.511   2.772 -1.5339 -1.6398 -1.7531
  637SOL    HW2 1911   1.866   1.462   2.907  0.7575  3.5462  1.2563
  638SOL     OW 1912   0.872   0.007   2.613  0.0168 -0.3786  0.3636
  638SOL    HW1 1913   0.844  -0.075   2.669  1.3486  0.9371 -1.4601
  638SOL    HW2 1914   0.802   0.022   2.542 -0.6239 -0.5338 -2.4486
  639SOL     OW 1915   1.071   2.041   1.446  0.3221  0.0352  0.2918
  639SOL    HW1 1916   0.998   2.013   1.380 -0.5672  0.7407 -1.2279
  639SOL    HW2 1917   1.159   1.992   1.424 -2.7373 -0.1974  0.8186
  640SOL     OW 1918   0.425   0.128   2.764  0.3879 -0.3658 -0.4290
  640SOL    HW1 1919   0.346   0.095   2.821 -1.7454 -0.8512  2.3197
  640SOL    HW2 1920   0.457   0.060   2.696 -1.0686  0.6195 -2.7377
  641SOL     OW 1921   0.342   0.671   0.315 -0.0299 -0.2345  0.3162
  641SOL    HW1 1922   0.247   0.633   0.313 -0.2670 -0.0774 -0.3924
  641SOL    HW2 1923   0.340   0.771   0.338  2.5485  1.0660  2.3898
  642SOL     OW 1924   0.310   1.630   1.096 -0.0191 -0.1174 -1.0311
  642SOL    HW1 1925   0.356   1.718   1.120 -1.0145 -2.1528 -0.7186
  642SOL    HW2 1926   0.344   1.592   1.007  0.4483  0.6046  1.6332
  643SOL     OW 1927   0.803   1.710   2.708  0.2972 -0.7208 -0.2116
  643SOL    HW1 1928   0.749   1.790   2.739  0.6677 -0.0889 -3.0591
  643SOL    HW2 1929   0.899   1.728   2.739 -3.5063  1.8903  0.7050
  644SOL     OW 1930   1.522   2.359   0.426  0.1202  0.4896 -0.1513
  644SOL    HW1 1931   1.612   2.363   0.376  2.0856  0.6986 -1.3201
  644SOL    HW2 1932   1.538   2.343   0.525 -0.1281  0.2160  1.3349
  645SOL     OW 1933   1.024   2.301   1.505  0.3723 -0.1920  0.2344
  645SOL    HW1 1934   1.044   2.204   1.480  0.6918 -0.1473 -1.4888
  645SOL    HW2 1935   1.093   2.368   1.470 -0.3755 -0.8490  0.0792
  646SOL     OW 1936   0.522   2.519   0.066 -0.3777  0.2423  0.1124
  646SOL    HW1 1937   0.610   2.494   0.111 -0.2636  0.9123  0.7921
  646SOL    HW2 1938   0.525   2.609   0.017 -3.2260 -1.5488  0.7000
  647SOL     OW 1939   0.150   2.906   2.056 -0.3906 -0.2017  0.7501
  647SOL    HW1 1940   0.097   2.917   2.142  0.1748 -1.4404 -1.1735
  647SOL    HW2 1941   0.250   2.898   2.077 -1.1032 -1.0720 -1.9274
  648SOL     OW 1942   2.539   1.035   1.090  0.2138  0.3817 -0.0111
  648SOL    HW1 1943   2.612   0.968   1.063  1.9586  0.3692 -0.1804
  648SOL    HW2 1944   2.462   0.986   1.138 -0.3126  3.3908 -0.0306
  649SOL     OW 1945   2.104   2.643   2.708 -0.0620 -0.0731  0.1052
  649SOL    HW1 1946   2.132   2.614   2.802 -0.8159 -0.6175 -2.5474
  649SOL    HW2 1947   2.089   2.745   2.706 -3.5732 -0.2531  1.2296
  650SOL     OW 1948   2.743   2.140   1.905  0.6048  0.0253 -0.7474
  650SOL    HW1 1949   2.814   2.070   1.924  0.4366  0.6559 -1.4812
  650SOL    HW2 1950   2.778   2.212   1.841  1.8672  2.1409  0.5471
  651SOL     OW 1951   1.069   1.731   2.761  0.5528 -0.1868  0.3675
  651SOL    HW1 1952   1.125   1.767   2.683 -2.1613 -0.6592  1.2511
  651SOL    HW2 1953   1.116   1.649   2.798  1.4266 -2.4879 -0.3420
  652SOL     OW 1954   0.496   0.073   2.170  0.6965 -0.8889  0.2906
  652SOL    HW1 1955   0.442   0.160   2.171 -0.4965  1.4690 -1.9378
  652SOL    HW2 1956   0.563   0.077   2.247  0.0231  0.3679 -2.1457
  653SOL     OW 1957   1.988   1.817   0.796 -0.1379  0.3638 -0.5679
  653SOL    HW1 1958   2.019   1.728   0.837  0.3514 -2.0925 -2.2295
  653SOL    HW2 1959   2.037   1.896   0.840  2.4211  0.9852 -0.6650
  654SOL     OW 1960   2.282   2.760   2.099  0.2459  0.9112 -0.3622
  654SOL    HW1 1961   2.228   2.764   2.185 -2.1582 -0.7853  2.4011
  654SOL    HW2 1962   2.305   2.857   2.079  0.7264  1.2294 -1.4219
  655SOL     OW 1963   2.381   2.118   0.922 -0.6640  0.1185 -0.3831
  655SOL    HW1 1964   2.359   2.209   0.964  1.1792 -1.6206  1.0261
  655SOL    HW2 1965   2.294   2.074   0.894 -3.3647  0.0857  0.3476
  656SOL     OW 1966   2.649   1.546   2.822 -0.9193  0.2410  0.3637
  656SOL    HW1 1967   2.687   1.634   2.785  0.5055 -2.6247  2.8900
  656SOL    HW2 1968   2.677   1.540   2.920  0.7093  1.3261  2.1363
  657SOL     OW 1969   0.086   1.216   0.642 -0.0816  0.0434 -0.3856
  657SOL    HW1 1970   0.006   1.185   0.587  0.6683  1.2324  1.7504
  657SOL    HW2 1971   0.062   1.234   0.739  0.3322 -1.7609  2.5818
  658SOL     OW 1972   1.128   1.671   1.323  0.2875 -0.0761  0.1656
  658SOL    HW1 1973   1.173   1.627   1.242 -1.5668  0.2080  2.5111
  658SOL    HW2 1974   1.028   1.675   1.309  0.0941 -0.5696  2.8008
  659SOL     OW 1975   1.330   0.100   1.423 -0.4195 -0.1556  0.0699
  659SOL    HW1 1976   1.326   0.162   1.505 -0.0299 -0.8861  1.8353
  659SOL    HW2 1977   1.269   0.130   1.347  0.6329 -1.3044  1.4101
  660SOL     OW 1978   2.499   0.439   0.702 -0.5414 -0.1045  0.5805
  660SOL    HW1 1979   2.421   0.492   0.741 -1.8765  0.9982 -2.7789
  660SOL    HW2 1980   2.542   0.490   0.624  0.3341 -2.4731 -1.9685
  661SOL     OW 1981   0.521   1.872   0.342  0.1217  0.2766 -0.0186
  661SOL    HW1 1982   0.562   1.796   0.287  1.9701  0.9799 -2.1414
  661SOL    HW2 1983   0.480   1.947   0.285  2.5318 -0.7553 -0.2323
  662SOL     OW 1984   2.267   0.809   2.074 -0.2377  0.3662 -0.0988
  662SOL    HW1 1985   2.298   0.717   2.045 -1.4785  1.8689 -0.1114
  662SOL    HW2 1986   2.230   0.858   1.992  0.0727 -0.7731  1.3555
  663SOL     OW 1987   1.754   1.397   1.065 -0.4638 -0.0725  0.3400
  663SOL    HW1 1988   1.792   1.323   1.004  2.7270 -0.1984 -0.0484
  663SOL    HW2 1989   1.829   1.440   1.120 -3.3600 -1.2739 -1.1703
  664SOL     OW 1990   0.591   2.995   1.205  0.0374  0.6137 -0.6043
  664SOL    HW1 1991   0.638   3.080   1.172  0.4428  0.5805  0.8005
  664SOL    HW2 1992   0.573   3.010   1.304  2.5503  0.1592 -1.0330
  665SOL     OW 1993   1.397   0.272   2.870  0.1531  0.1575 -0.1243
  665SOL    HW1 1994   1.461   0.195   2.850  0.8197  0.4355  0.4795
  665SOL    HW2 1995   1.400   0.337   2.791 -0.9359  1.0490 -1.3504
  666SOL     OW 1996   0.915   0.610   2.166  0.0412 -0.1143  0.4076
  666SOL    HW1 1997   0.884   0.514   2.181  0.2968  1.9049 -1.9841
  666SOL    HW2 1998   0.830   0.667   2.162 -1.3783  2.4667  0.8861
  667SOL     OW 1999   1.358   1.347   1.449 -0.0744  0.6755  0.2625
  667SOL    HW1 2000   1.291   1.410   1.493  3.5512 -1.8127 -2.4074
  667SOL    HW2 2001   1.330   1.337   1.351  1.9972  0.4644  0.5189
  668SOL     OW 2002   0.346   1.090   2.065 -0.1263  0.1751  0.2615
  668SOL    HW1 2003   0.431   1.074   2.120 -0.7822  1.5957  0.8458
  668SOL    HW2 2004   0.347   1.184   2.023 -0.4343  1.6847  0.3363
  669SOL     OW 2005   2.577   2.492   2.858 -0.1859 -0.1160  0.1304
  669SOL    HW1 2006   2.532   2.429   2.791 -0.6753 -1.8211 -0.2062
  669SOL    HW2 2007   2.562   2.458   2.954  0.4931  0.1924  1.3742
  670SOL     OW 2008   2.594   1.267   1.713  0.4119  0.4278  0.6832
  670SOL    HW1 2009   2.693   1.292   1.696 -2.2218  3.0511 -3.6135
  670SOL    HW2 2010   2.587   1.184   1.772 -1.2061  3.4560  1.9074
  671SOL     OW 2011   2.891   1.870   0.586  0.0177  0.2621 -0.2782
  671SOL    HW1 2012   2.885   1.972   0.580  0.2660  1.7517 -0.7108
  671SOL    HW2 2013   2.908   1.831   0.493 -1.1984 -0.3809 -0.6093
  672SOL     OW 2014   1.582   0.953   1.907  0.2749  0.3835  0.1190
  672SOL    HW1 2015   1.667   0.996   1.943 -1.9714  0.2375  4.1951
  672SOL    HW2 2016   1.578   0.967   1.806  1.2573 -0.5507 -0.6547
  673SOL     OW 2017   2.884   2.048   1.475  0.0358 -0.8639  0.1081
  673SOL    HW1 2018   2.884   2.146   1.452  0.7186  0.0238  0.0831
  673SOL    HW2 2019   2.844   1.994   1.399  0.7427  1.6447  0.3881
  674SOL     OW 2020   0.619   2.018   1.585  0.2389 -0.2468 -0.2739
  674SOL    HW1 2021   0.677   1.983   1.662 -0.1220 -1.8953 -1.8525
  674SOL    HW2 2022   0.542   2.069   1.629 -0.9064  0.4680 -1.9084
  675SOL     OW 2023   2.878   0.727   1.196 -0.7942  0.0977  0.1741
  675SOL    HW1 2024   2.966   0.758   1.237  0.4376  0.9799  1.3112
  675SOL    HW2 2025   2.881   0.628   1.172 -1.1544 -0.6212  2.2220
  676SOL     OW 2026   2.856   0.860   1.727 -0.4426 -0.2322  0.1345
  676SOL    HW1 2027   2.842   0.896   1.822 -2.0260 -1.7006  4.8535
  676SOL    HW2 2028   2.782   0.792   1.709 -2.0014  0.2778 -0.5282
  677SOL     OW 2029   2.052   1.111   2.491 -0.2982  0.0708  0.2334
  677SOL    HW1 2030   1.963   1.161   2.498 -0.7602  2.0631 -3.5764
  677SOL    HW2 2031   2.118   1.146   2.559 -0.8849  0.5829 -1.6417
  678SOL     OW 2032   2.494   1.462   1.099 -0.2630 -0.2591  0.0829
  678SOL    HW1 2033   2.507   1.387   1.030 -1.6919  1.8543 -0.8580
  678SOL    HW2 2034   2.585   1.485   1.141  1.3844  2.0752 -1.7431
  679SOL     OW 2035   0.128   2.707   0.022 -0.1847 -0.1513 -0.1050
  679SOL    HW1 2036   0.158   2.628  -0.035 -0.4896  0.3789  1.0397
  679SOL    HW2 2037   0.116   2.675   0.118  0.9975 -1.5837 -1.0845
  680SOL     OW 2038   0.044   1.618   1.137  0.4367 -0.0985  0.2186
  680SOL    HW1 2039   0.143   1.627   1.110 -0.6577  0.4775  1.4957
  680SOL    HW2 2040   0.024   1.681   1.215  0.9394  1.0199  2.2298
  681SOL     OW 2041   0.884   0.109   0.878  0.0627 -0.1093  0.1657
  681SOL    HW1 2042   0.834   0.142   0.960  0.3992  1.4466 -0.3469
  681SOL    HW2 2043   0.976   0.155   0.882  2.2684 -0.3988  1.2387
  682SOL     OW 2044   2.061   2.404   1.606 -0.3802  0.4159  0.4782
  682SOL    HW1 2045   2.131   2.340   1.646 -1.0113  1.3292 -0.5882
  682SOL    HW2 2046   2.017   2.357   1.526  1.5690 -2.9208  1.6670
  683SOL     OW 2047   2.602   1.770   1.676  0.1488  1.0142 -0.1594
  683SOL    HW1 2048   2.571   1.846   1.615  0.8120  0.9976  0.0792
  683SOL    HW2 2049   2.698   1.744   1.648  1.0809  1.6062  0.5128
  684SOL     OW 2050   3.025   1.490   1.778 -0.2627 -0.6084  0.7955
  684SOL    HW1 2051   3.021   1.510   1.878 -0.0774 -0.5814  0.3194
  684SOL    HW2 2052   3.121   1.462   1.757 -3.8207  0.4471  1.2139
  685SOL     OW 2053   1.397   1.390   0.230 -0.2668  0.3594  0.5076
  685SOL    HW1 2054   1.419   1.451   0.308  1.7609  1.3268  1.1234
  685SOL    HW2 2055   1.486   1.349   0.198 -3.2793  1.1788  1.0249
  686SOL     OW 2056   2.876   0.574   1.880  0.4282 -0.4243  0.2475
  686SOL    HW1 2057   2.968   0.572   1.836  2.0353  0.1793 -0.5652
  686SOL    HW2 2058   2.799   0.607   1.822  0.1127  0.5919 -0.9812
  687SOL     OW 2059   1.556   0.055   2.847  0.0772  0.6866  0.2876
  687SOL    HW1 2060   1.487  -0.007   2.804 -1.8760 -0.8352  1.6736
  687SOL    HW2 2061   1.585   0.016   2.937  1.4525  2.4291  3.0244
  688SOL     OW 2062   1.225   1.807   2.547 -0.0580  0.1131 -0.8285
  688SOL    HW1 2063   1.226   1.715   2.501  1.8337  0.1645  0.5624
  688SOL    HW2 2064   1.318   1.832   2.581 -3.2340  1.1849  0.5156
  689SOL     OW 2065   2.195   1.608   1.441 -0.1114 -0.2014 -0.4132
  689SOL    HW1 2066   2.108   1.558   1.459 -0.9941  4.2213  0.8602
  689SOL    HW2 2067   2.260   1.546   1.390  0.4883  1.4871  0.4206
  690SOL     OW 2068   2.321   2.134   1.260  0.7635  0.3078  0.0437
  690SOL    HW1 2069   2.251   2.125   1.333 -0.3451  0.5289  0.8114
  690SOL    HW2 2070   2.309   2.056   1.196 -2.8903  0.7616  1.1419
  691SOL     OW 2071   0.237   1.653   0.675 -0.4594 -0.5052  0.3421
  691SOL    HW1 2072   0.271   1.728   0.614  2.1089  1.2215 -1.9218
  691SOL    HW2 2073   0.144   1.681   0.709 -0.2306  2.1329 -2.8741
  692SOL     OW 2074   2.726   2.950   2.907 -0.0410 -0.3532 -0.2179
  692SOL    HW1 2075   2.828   2.962   2.907  2.6829  0.4993 -0.7157
  692SOL    HW2 2076   2.689   2.993   2.823 -1.1715  1.0394  1.5446
  693SOL     OW 2077   0.311   1.344   1.982 -0.3512 -0.1340  0.2342
  693SOL    HW1 2078   0.276   1.365   1.888 -0.3631  1.1676 -2.9769
  693SOL    HW2 2079   0.242   1.374   2.051 -0.4248  0.2543 -1.4953
  694SOL     OW 2080   2.468   0.354   2.014 -0.5872 -0.0477 -0.2790
  694SOL    HW1 2081   2.569   0.365   2.015 -2.3719 -1.0914 -0.4435
  694SOL    HW2 2082   2.434   0.332   1.919 -0.7385 -1.2012  0.6449
  695SOL     OW 2083   1.480   0.721   2.007  0.1693  0.0995  0.0205
  695SOL    HW1 2084   1.440   0.739   2.100  0.7964 -2.6499 -1.9520
  695SOL    HW2 2085   1.524   0.806   1.971  0.2611 -0.1012 -1.4363
  696SOL     OW 2086   2.156   2.852   1.676  0.0559 -0.1457 -0.5440
  696SOL    HW1 2087   2.125   2.896   1.763 -2.6454 -0.9303  2.7022
  696SOL    HW2 2088   2.084   2.875   1.606 -0.4950 -0.8132 -0.6523
  697SOL     OW 2089   1.020   0.745   1.961 -0.5398 -0.6488 -0.2730
  697SOL    HW1 2090   0.994   0.687   2.042 -1.2659 -0.4636  0.0739
  697SOL    HW2 2091   1.110   0.712   1.925  0.8222 -1.4263  2.4248
  698SOL     OW 2092   2.241   1.635   2.689  0.3380  0.2163  0.1815
  698SOL    HW1 2093   2.331   1.602   2.652 -0.7759 -1.4550  0.8044
  698SOL    HW2 2094   2.234   1.617   2.790  0.7797 -0.7349  1.0816
  699SOL     OW 2095   2.385   1.067   0.314  0.0048  0.3113 -0.4172
  699SOL    HW1 2096   2.312   1.009   0.359  1.4259  0.9536 -0.0815
  699SOL    HW2 2097   2.368   1.069   0.214 -0.3448  2.6687  0.6037
  700SOL     OW 2098   1.258   3.030   0.959 -0.5231  0.2644  0.1004
  700SOL    HW1 2099   1.280   2.987   0.869  2.6596  0.2648 -0.8994
  700SOL    HW2 2100   1.312   2.986   1.034 -1.4703  1.0724  1.7584
  701SOL     OW 2101   2.941   0.458   0.742 -0.1954 -0.0322 -1.0775
  701SOL    HW1 2102   2.883   0.539   0.715  0.5793 -0.1500  0.7074
  701SOL    HW2 2103   3.005   0.491   0.814 -0.6202  1.1507 -2.6066
  702SOL     OW 2104   1.532   2.522   1.234  0.0194 -0.0604 -0.0015
  702SOL    HW1 2105   1.542   2.434   1.284  0.3726 -0.4732 -2.4250
  702SOL    HW2 2106   1.547   2.603   1.295  2.1793 -0.1007 -1.0615
  703SOL     OW 2107   0.081   0.515   1.189  0.0522  0.3078 -0.1865
  703SOL    HW1 2108   0.041   0.548   1.278 -1.5839  3.0722  3.5260
  703SOL    HW2 2109   0.180   0.496   1.203 -0.9130 -1.0850 -0.3102
  704SOL     OW 2110   1.045   2.812   1.765 -0.6202 -0.2172 -0.6494
  704SOL    HW1 2111   1.020   2.904   1.725  0.8057  0.4020  0.7273
  704SOL    HW2 2112   0.964   2.770   1.811  2.3427 -1.0804 -0.2807
  705SOL     OW 2113   0.057   1.956   3.011 -0.1026  0.2231 -0.2044
  705SOL    HW1 2114   0.110   1.896   3.078 -0.0542  1.0917 -0.5082
  705SOL    HW2 2115  -0.032   1.981   3.054 -0.3921  0.1099  0.1108
  706SOL     OW 2116   0.089   0.566   0.303 -0.2713  0.8722 -0.3823
  706SOL    HW1 2117   0.066   0.530   0.210  2.7302 -1.9956 -0.0451
  706SOL    HW2 2118   0.048   0.501   0.372  0.8727  0.4836  3.6516
  707SOL     OW 2119   1.919   2.619   1.955 -0.6290  0.6921 -0.2821
  707SOL    HW1 2120   1.953   2.528   1.988  1.4706  1.2199 -0.9671
  707SOL    HW2 2121   1.949   2.698   2.010 -1.6419 -0.0718 -1.8220
  708SOL     OW 2122   0.563   3.019   1.477  0.0432  0.5107 -0.6162
  708SOL    HW1 2123   0.555   2.927   1.523  1.1186  1.2033  0.0616
  708SOL    HW2 2124   0.512   3.086   1.535  0.7296  2.3699  0.4861
  709SOL     OW 2125   0.208   0.715   1.743  0.0868 -0.4114 -0.1790
  709SOL    HW1 2126   0.137   0.744   1.676 -1.2636  1.9633  0.8752
  709SOL    HW2 2127   0.206   0.785   1.819  0.4298 -3.5937 -1.5479
  710SOL     OW 2128   0.234   0.586   0.761 -0.4738  0.3114 -0.0190
  710SOL    HW1 2129   0.159   0.575   0.830  3.4518 -1.1146  1.7566
  710SOL    HW2 2130   0.211   0.665   0.702  3.4131  0.5202 -2.7967
  711SOL     OW 2131   2.363   2.295   2.022 -0.1783  0.2100  0.3739
  711SOL    HW1 2132   2.382   2.290   2.122 -0.2246 -0.0022 -0.3383
  711SOL    HW2 2133   2.323   2.387   2.003  0.4886  2.6585 -1.5726
  712SOL     OW 2134   0.194   2.688   2.385  0.1504  0.3827 -0.3343
  712SOL    HW1 2135   0.176   2.779   2.430 -1.5672  0.7760  1.2711
  712SOL    HW2 2136   0.131   2.673   2.305 -0.1344  0.6623 -2.3709
  713SOL     OW 2137   2.315   0.224   0.659 -0.3435  0.3950  0.0031
  713SOL    HW1 2138   2.385   0.291   0.693  0.2258  1.5839 -1.5618
  713SOL    HW2 2139   2.313   0.218   0.557  1.8527  2.0403 -0.2814
  714SOL     OW 2140   1.687   1.378   2.664  0.1880 -0.8088 -0.2643
  714SOL    HW1 2141   1.696   1.481   2.666  1.9141  4.3864  0.0749
  714SOL    HW2 2142   1.751   1.340   2.595  0.0346  1.5715 -0.0798
  715SOL     OW 2143   0.027   0.589   0.932  0.3575  0.1992 -0.2060
  715SOL    HW1 2144   0.043   0.563   1.030  0.7806 -0.4371 -3.4425
  715SOL    HW2 2145   0.006   0.689   0.928  2.1405  3.0755 -0.3859
  716SOL     OW 2146   0.827   0.697   1.568  0.2287  0.0634 -0.0182
  716SOL    HW1 2147   0.737   0.661   1.535 -3.4559 -0.6650  0.5295
  716SOL    HW2 2148   0.849   0.657   1.659 -2.8507 -4.4887 -3.1656
  717SOL     OW 2149   1.353   0.767   2.245 -0.4729  0.2163 -0.0211
  717SOL    HW1 2150   1.401   0.826   2.313 -2.1109 -1.0771  0.7334
  717SOL    HW2 2151   1.269   0.815   2.211 -1.6021 -0.7900  1.7870
  718SOL     OW 2152   1.238   0.025   0.507 -0.0026 -0.5826 -0.0389
  718SOL    HW1 2153   1.242   0.120   0.547 -2.5590 -0.9008 -3.3414
  718SOL    HW2 2154   1.231   0.041   0.406 -1.0009 -1.3071 -0.5771
  719SOL     OW 2155   2.980   2.727   2.739 -0.6728 -0.7226 -0.3387
  719SOL    HW1 2156   2.881   2.700   2.731  1.5059 -1.4307 -0.6608
  719SOL    HW2 2157   3.039   2.645   2.750  0.3447  1.5042 -0.8395
  720SOL     OW 2158   1.472   0.359   1.821  0.3758 -0.1392 -0.1545
  720SOL    HW1 2159   1.415   0.356   1.907  2.0476  0.7969  0.2595
  720SOL    HW2 2160   1.569   0.337   1.844  1.9131 -0.0044  4.3113
  721SOL     OW 2161   0.098   2.783   1.103 -0.3151 -0.1740 -0.4043
  721SOL    HW1 2162   0.074   2.878   1.073 -0.3676  1.9074  0.8328
  721SOL    HW2 2163   0.022   2.719   1.077  0.2934 -1.5558  2.2240
  722SOL     OW 2164   0.844   1.025   2.722  0.1586 -0.1985  0.2843
  722SOL    HW1 2165   0.820   1.108   2.668  0.2365  1.5775  0.5318
  722SOL    HW2 2166   0.896   1.058   2.804 -0.4549 -1.5461  0.2464
  723SOL     OW 2167   2.022   1.231   1.315  0.2200 -0.1262  0.3865
  723SOL    HW1 2168   2.082   1.260   1.238  1.8662 -0.8811 -0.0265
  723SOL    HW2 2169   1.993   1.308   1.376 -1.0133  0.8209  2.8264
  724SOL     OW 2170   0.911   1.869   0.335 -0.0192  0.5865  0.4817
  724SOL    HW1 2171   0.963   1.791   0.374 -0.2555  0.0134 -0.7513
  724SOL    HW2 2172   0.892   1.850   0.236  2.9862 -1.2335 -3.4645
  725SOL     OW 2173   0.010   0.783   1.576 -0.4215 -0.1839 -1.1251
  725SOL    HW1 2174   0.012   0.832   1.487 -1.4744  1.7046 -0.2949
  725SOL    HW2 2175  -0.069   0.818   1.631 -1.9084  0.9958 -1.4884
  726SOL     OW 2176   2.346   1.039   0.041 -0.3962  0.1663 -0.2875
  726SOL    HW1 2177   2.255   1.020  -0.001  0.1245  3.0922  3.7438
  726SOL    HW2 2178   2.403   0.952   0.041  0.6507  0.2336  1.8641
  727SOL     OW 2179   2.146   0.852   2.500  0.1766 -0.0895  0.6736
  727SOL    HW1 2180   2.117   0.948   2.515  2.5747 -1.6304 -1.5558
  727SOL    HW2 2181   2.127   0.821   2.403 -1.0568 -1.3132  1.7561
  728SOL     OW 2182   1.790   1.863   1.439 -0.2974  0.3944  0.4598
  728SOL    HW1 2183   1.889   1.851   1.416 -1.3118 -2.5956  0.4916
  728SOL    HW2 2184   1.751   1.928   1.369  0.6303  1.4103  0.8593
  729SOL     OW 2185   1.813   1.069   2.010  0.1927  0.4379  0.3789
  729SOL    HW1 2186   1.751   1.152   2.012  1.9303  0.4826  1.4834
  729SOL    HW2 2187   1.909   1.103   2.007 -0.2372 -0.2098  3.4787
  730SOL     OW 2188   1.371   0.648   1.094  0.8155  0.1691 -0.8871
  730SOL    HW1 2189   1.357   0.550   1.120 -1.4227  0.4518  1.2036
  730SOL    HW2 2190   1.445   0.649   1.023 -0.0114 -1.7045 -2.4536
  731SOL     OW 2191   0.532   0.763   2.994 -0.2115  0.1644  0.3266
  731SOL    HW1 2192   0.547   0.718   2.904  0.1998 -0.3228 -0.7926
  731SOL    HW2 2193   0.526   0.693   3.069 -0.8220  1.6464 -2.0847
  732SOL     OW 2194   0.364   0.938   0.380 -0.4246 -0.1515  0.8018
  732SOL    HW1 2195   0.458   0.975   0.367 -0.9250  0.9302 -0.8097
  732SOL    HW2 2196   0.329   0.972   0.470  1.7479  1.2572  0.2788
  733SOL     OW 2197   1.306   1.633   2.169  0.2010 -0.4066  0.2688
  733SOL    HW1 2198   1.236   1.707   2.161 -1.1556  2.2270  0.5392
  733SOL    HW2 2199   1.341   1.604   2.077 -2.1750 -0.3861 -0.6571
  734SOL     OW 2200   0.400   2.328   2.973 -0.4828 -0.0094  0.0889
  734SOL    HW1 2201   0.453   2.390   3.034 -1.0698 -0.8571  1.0146
  734SOL    HW2 2202   0.344   2.256   3.019  2.4156 -4.0830  0.2756
  735SOL     OW 2203   2.681   0.139   0.987  0.0301  0.7862 -0.4179
  735SOL    HW1 2204   2.728   0.125   1.077 -2.4268  1.2706 -0.1722
  735SOL    HW2 2205   2.693   0.236   0.954  0.5981  0.5447 -0.5590
  736SOL     OW 2206   1.967   1.469   2.334 -0.2714  0.4910 -0.2308
  736SOL    HW1 2207   2.062   1.439   2.309  1.0888 -1.4102 -0.0383
  736SOL    HW2 2208   1.973   1.525   2.420  2.2848 -1.4020 -2.7919
  737SOL     OW 2209   0.002   0.799   0.403 -0.0754 -0.2457 -0.1949
  737SOL    HW1 2210   0.005   0.866   0.326  3.7159 -1.7057  0.2607
  737SOL    HW2 2211   0.025   0.706   0.368 -2.1222  1.5309 -1.0848
  738SOL     OW 2212   0.881   1.968   1.262 -0.4932 -0.0679  0.0008
  738SOL    HW1 2213   0.837   1.890   1.215 -1.5487 -1.0006 -1.0548
  738SOL    HW2 2214   0.810   2.036   1.289  0.3900 -1.1964  2.0593
  739SOL     OW 2215   1.766   2.535   2.343 -0.0367 -0.0699 -0.2596
  739SOL    HW1 2216   1.807   2.552   2.437 -2.6524  0.5558 -0.9028
  739SOL    HW2 2217   1.759   2.623   2.292 -3.5239 -0.7163 -1.0373
  740SOL     OW 2218   2.316   2.335   1.072 -0.4528  0.0642  0.4444
  740SOL    HW1 2219   2.328   2.282   1.159 -0.8503 -1.8914  1.9470
  740SOL    HW2 2220   2.359   2.428   1.087  0.7170  0.7991 -0.7200
  741SOL     OW 2221   2.332   0.623   0.157 -0.6576 -0.6142  0.2688
  741SOL    HW1 2222   2.319   0.549   0.088  0.1241 -0.3933  2.1140
  741SOL    HW2 2223   2.350   0.577   0.246 -0.6928 -0.1123  0.3777
  742SOL     OW 2224   1.147   2.380   0.065  0.4209  0.0583 -0.2622
  742SOL    HW1 2225   1.060   2.380   0.011 -1.2837 -1.8565 -0.4379
  742SOL    HW2 2226   1.173   2.477   0.081 -1.6005 -4.0433  0.9216
  743SOL     OW 2227   2.560   1.400   2.043 -0.4404  0.0761 -0.8741
  743SOL    HW1 2228   2.499   1.412   1.961 -1.8516  0.0879 -3.8778
  743SOL    HW2 2229   2.546   1.308   2.085 -1.7949  2.4420  0.7377
  744SOL     OW 2230   2.918   0.173   0.388  0.3826  0.1050 -0.0455
  744SOL    HW1 2231   2.838   0.192   0.450 -0.6036 -0.3958  0.1361
  744SOL    HW2 2232   2.894   0.099   0.322  0.0149 -0.4624 -3.9548
  745SOL     OW 2233   2.556   1.756   1.303  0.1253 -0.6650  0.1161
  745SOL    HW1 2234   2.610   1.670   1.294  2.1931  0.8622 -0.0504
  745SOL    HW2 2235   2.492   1.755   1.224  1.9441 -0.1336 -1.5506
  746SOL     OW 2236   1.056   1.649   0.417  0.3388 -0.0166 -0.4625
  746SOL    HW1 2237   1.030   1.639   0.516  1.2464 -0.7799 -1.3427
  746SOL    HW2 2238   1.039   1.563   0.363 -1.4061  0.0342  1.0543
  747SOL     OW 2239   1.173   1.526   1.546 -0.6269  0.0034  0.0429
  747SOL    HW1 2240   1.171   1.587   1.464  0.9782 -0.2921  1.3836
  747SOL    HW2 2241   1.091   1.464   1.551  0.4226  0.6683 -0.5402
  748SOL     OW 2242   0.282   2.873   2.933  0.6656 -0.4720 -0.1754
  748SOL    HW1 2243   0.222   2.812   2.990 -0.9660  0.6281  1.4794
  748SOL    HW2 2244   0.262   2.971   2.952  1.0730 -1.6239  2.1892
  749SOL     OW 2245   0.226   1.055   2.820 -0.0026  0.1639  0.6941
  749SOL    HW1 2246   0.241   0.980   2.888  1.7954 -0.8126 -2.5392
  749SOL    HW2 2247   0.258   1.027   2.727 -3.7384  1.9502 -1.6108
  750SOL     OW 2248   1.596   0.992   1.634 -0.9349  0.3874 -0.6261
  750SOL    HW1 2249   1.522   1.027   1.572  1.1747 -0.0549 -1.7057
  750SOL    HW2 2250   1.666   1.068   1.641 -0.3753 -0.7979 -1.0300
  751SOL     OW 2251   2.885   0.886   0.590 -0.2999  0.0433 -0.0108
  751SOL    HW1 2252   2.947   0.845   0.520  0.5682 -1.9373  1.1029
  751SOL    HW2 2253   2.902   0.987   0.593 -1.6633 -0.1688  1.2491
  752SOL     OW 2254   2.820   2.754   0.891  0.2248 -0.6982  0.4524
  752SOL    HW1 2255   2.837   2.855   0.899 -1.4510  0.1655  0.6014
  752SOL    HW2 2256   2.867   2.701   0.965 -0.6984  2.6863 -2.5090
  753SOL     OW 2257   0.646   2.519   1.253  0.1410 -0.0807 -0.0472
  753SOL    HW1 2258   0.697   2.459   1.319  0.4989 -0.3314 -0.6497
  753SOL    HW2 2259   0.641   2.477   1.160  1.2679  3.5309 -1.4729
  754SOL     OW 2260   2.919   2.661   1.904 -0.1815  0.0720 -0.6365
  754SOL    HW1 2261   2.886   2.742   1.958 -0.4858  0.7313 -0.4194
  754SOL    HW2 2262   2.887   2.576   1.950  0.8054  1.5446  1.0119
  755SOL     OW 2263   2.476   0.812   0.026  0.3480  0.2997 -0.2784
  755SOL    HW1 2264   2.557   0.770  -0.020  1.0084 -0.1418  0.3047
  755SOL    HW2 2265   2.431   0.736   0.079 -1.6061  1.2814  0.3449
  756SOL     OW 2266   1.825   2.099   0.219 -0.2174 -0.0986  0.1106
  756SOL    HW1 2267   1.829   2.134   0.123  0.7581 -1.4883 -0.3789
  756SOL    HW2 2268   1.904   2.038   0.244  2.5362  0.6736  1.2222
  757SOL     OW 2269   2.601   0.590   0.497 -0.2809  0.1683 -0.3066
  757SOL    HW1 2270   2.583   0.673   0.439 -0.0424  0.9348 -0.1521
  757SOL    HW2 2271   2.678   0.615   0.559 -0.9924  0.4483  0.4057
  758SOL     OW 2272   2.146   0.939   1.869  0.4017  0.0016 -0.8133
  758SOL    HW1 2273   2.059   0.887   1.858 -0.4421  2.5842  2.7011
  758SOL    HW2 2274   2.123   1.032   1.907 -1.6070  0.1619  0.2912
  759SOL     OW 2275   2.632   0.475   1.305  0.2681  0.3112 -0.1019
  759SOL    HW1 2276   2.556   0.540   1.282  0.6095 -2.0931  1.7182
  759SOL    HW2 2277   2.704   0.474   1.231  1.6425 -2.2339 -2.4380
  760SOL     OW 2278   0.538   1.392   1.372  0.3186  0.3094  0.1289
  760SOL    HW1 2279   0.448   1.441   1.375  0.1928 -0.3446  0.0224
  760SOL    HW2 2280   0.533   1.300   1.417 -1.8574 -0.3602  0.7562
  761SOL     OW 2281   0.782   0.627   0.106 -0.4940 -0.8760  0.3127
  761SOL    HW1 2282   0.683   0.612   0.127 -2.4079  1.5623  0.9685
  761SOL    HW2 2283   0.809   0.725   0.119 -0.7496 -2.8031  0.0115
  762SOL     OW 2284   0.698   1.773   1.170 -0.1359 -0.2713 -0.5027
  762SOL    HW1 2285   0.736   1.685   1.135  1.9628 -1.4528  0.2929
  762SOL    HW2 2286   0.677   1.763   1.270  0.8837  3.3908 -0.5049
  763SOL     OW 2287   1.259   0.687   1.854 -0.6486 -0.1605 -0.1489
  763SOL    HW1 2288   1.282   0.631   1.772  1.2415  1.3586 -0.9336
  763SOL    HW2 2289   1.338   0.696   1.919 -0.3081  0.7763 -1.1357
  764SOL     OW 2290   2.996   2.958   2.889  0.0649 -0.2904 -0.2073
  764SOL    HW1 2291   3.044   2.955   2.980  1.9560 -1.1698 -0.1223
  764SOL    HW2 2292   3.009   2.868   2.844  2.1613 -0.2653 -0.3512
  765SOL     OW 2293   0.772   3.041   1.851  0.2595  0.2190  0.1811
  765SOL    HW1 2294   0.700   3.113   1.855 -2.2721 -1.5543  3.0097
  765SOL    HW2 2295   0.836   3.054   1.772 -0.5584 -0.8660 -1.2378
  766SOL     OW 2296   2.714   1.872   2.246  0.0624 -0.5018 -0.4272
  766SOL    HW1 2297   2.634   1.831   2.295  1.3177 -0.8258  3.4394
  766SOL    HW2 2298   2.804   1.840   2.282  0.7540 -0.3257  1.3735
  767SOL     OW 2299   1.359   1.205   2.353  0.0001 -0.4544 -0.3648
  767SOL    HW1 2300   1.358   1.105   2.367 -2.4525  0.4531 -0.3556
  767SOL    HW2 2301   1.276   1.238   2.304 -0.5472 -2.7243  0.0590
  768SOL     OW 2302   1.496   1.730   0.170  0.8343  0.2434  0.4044
  768SOL    HW1 2303   1.396   1.733   0.191  0.3309  0.0542  0.2116
  768SOL    HW2 2304   1.545   1.733   0.259  3.1011  0.1944 -0.7369
  769SOL     OW 2305   0.400   1.544   0.859  0.1643  0.2488 -0.2366
  769SOL    HW1 2306   0.343   1.584   0.784 -1.1455 -0.8283 -0.8642
  769SOL    HW2 2307   0.499   1.557   0.836  1.2238 -0.3955 -0.6124
  770SOL     OW 2308   1.645   0.634   2.486  0.3865 -0.6169 -0.5149
  770SOL    HW1 2309   1.713   0.711   2.480  0.6727  2.0781  2.4514
  770SOL    HW2 2310   1.551   0.670   2.502  0.9271  2.0562  1.1663
  771SOL     OW 2311   2.480   0.044   2.395 -0.3211  0.4177  0.3691
  771SOL    HW1 2312   2.439   0.085   2.311 -1.7391 -1.1094 -0.4682
  771SOL    HW2 2313   2.414   0.028   2.469 -0.7332 -2.1559 -1.7119
  772SOL     OW 2314   2.468   1.647   2.116  0.3057 -0.4394 -0.1722
  772SOL    HW1 2315   2.368   1.634   2.100 -0.2986 -0.9572 -0.1778
  772SOL    HW2 2316   2.519   1.561   2.092 -1.0151  2.7548 -3.8727
  773SOL     OW 2317   0.946   1.383   1.516  0.2790 -0.1179  0.2451
  773SOL    HW1 2318   0.968   1.335   1.428  1.9806 -1.6827 -2.4644
  773SOL    HW2 2319   0.868   1.447   1.500  0.8487  1.2228  0.1477
  774SOL     OW 2320   1.127   0.645   2.849  0.2398  0.7343 -0.2317
  774SOL    HW1 2321   1.125   0.555   2.802 -1.2550  0.2900  0.2473
  774SOL    HW2 2322   1.039   0.696   2.833  1.1665  0.0848  1.3819
  775SOL     OW 2323   1.376   2.160   0.321 -0.3979  0.0244  0.2162
  775SOL    HW1 2324   1.424   2.245   0.356  1.1323  0.1495 -1.4774
  775SOL    HW2 2325   1.374   2.172   0.219  0.1383  0.1198  1.3548
  776SOL     OW 2326   2.964   1.084   1.629  0.3239  0.2774  0.0340
  776SOL    HW1 2327   3.059   1.081   1.669  0.5708  1.0475  0.8783
  776SOL    HW2 2328   2.911   1.003   1.661 -0.3542  0.3689 -0.4004
  777SOL     OW 2329   2.437   2.277   2.279  0.7210  0.2392  0.1456
  777SOL    HW1 2330   2.473   2.372   2.285  0.0905  3.3760  2.4125
  777SOL    HW2 2331   2.514   2.215   2.253  1.4459 -0.2431  0.7310
  778SOL     OW 2332   1.654   1.286   2.022 -0.1538  0.1221  0.2148
  778SOL    HW1 2333   1.588   1.303   1.945  1.1476  0.3213 -1.8892
  778SOL    HW2 2334   1.702   1.370   2.054 -0.9555 -2.3990 -1.7044
  779SOL     OW 2335   2.915   1.152   0.528 -0.1161 -0.0009 -0.1437
  779SOL    HW1 2336   2.870   1.241   0.549 -3.7507  0.4844 -0.1753
  779SOL    HW2 2337   2.887   1.121   0.433  1.2779  1.2881  0.4605
  780SOL     OW 2338   2.058   2.910   2.722  0.9872  0.7662  0.0612
  780SOL    HW1 2339   1.993   2.972   2.673 -1.1689 -0.8732  0.5585
  780SOL    HW2 2340   2.054   2.928   2.823  0.6598 -1.6053 -1.3163
  781SOL     OW 2341   2.714   1.544   1.227  0.2658 -0.1554 -0.2177
  781SOL    HW1 2342   2.777   1.567   1.149 -2.3162  1.4242  0.7029
  781SOL    HW2 2343   2.772   1.510   1.304 -2.5121 -0.2399  1.0501
  782SOL     OW 2344   2.892   2.280   2.817  0.2008 -0.1279 -0.2400
  782SOL    HW1 2345   2.850   2.283   2.910 -1.9210 -2.9986  0.4076
  782SOL    HW2 2346   2.819   2.270   2.746  2.0571  1.4103 -3.1694
  783SOL     OW 2347   0.664   1.563   0.794  0.3892  0.4520  0.4374
  783SOL    HW1 2348   0.674   1.463   0.770 -1.5724  0.9911  0.1509
  783SOL    HW2 2349   0.673   1.622   0.711 -0.4111  0.3190  0.9631
  784SOL     OW 2350   2.299   1.350   0.433  0.4163  0.5867 -0.3918
  784SOL    HW1 2351   2.319   1.259   0.393 -0.1075 -0.6142 -0.5294
  784SOL    HW2 2352   2.237   1.398   0.367  0.9870 -0.3351 -0.4224
  785SOL     OW 2353   1.932   2.711   0.455 -0.5990  0.8854 -0.3819
  785SOL    HW1 2354   1.874   2.760   0.386 -1.2417 -1.6251  3.3069
  785SOL    HW2 2355   1.871   2.670   0.526  0.9709 -0.4586 -0.9650
  786SOL     OW 2356   0.667   1.974   2.517 -0.8600 -0.3460  0.1739
  786SOL    HW1 2357   0.626   1.894   2.469 -1.2959  1.8494 -0.2535
  786SOL    HW2 2358   0.654   1.961   2.617  0.0561 -0.5640 -0.8602
  787SOL     OW 2359   1.321   0.393   1.171 -0.3463  0.3422 -0.2475
  787SOL    HW1 2360   1.413   0.347   1.171  3.2929  1.2831 -0.5364
  787SOL    HW2 2361   1.255   0.327   1.211  2.1490 -2.3750  2.3869
  788SOL     OW 2362   0.643   0.975   0.061  0.3988  0.4345  0.0163
  788SOL    HW1 2363   0.602   0.898   0.007 -2.0090  1.4191  0.0161
  788SOL    HW2 2364   0.610   1.066   0.027 -0.7262  0.0966  1.5247
  789SOL     OW 2365   2.793   1.891   1.264  0.3355  0.0041  0.1026
  789SOL    HW1 2366   2.709   1.847   1.302 -0.3475  2.2876 -0.4099
  789SOL    HW2 2367   2.788   1.894   1.163 -1.1078 -2.3486 -1.2216
  790SOL     OW 2368   1.394   0.144   2.175  0.1021 -0.3697  0.0968
  790SOL    HW1 2369   1.317   0.119   2.237  2.9994  1.8321  2.1525
  790SOL    HW2 2370   1.360   0.224   2.121  2.8257 -0.2193  0.5214
  791SOL     OW 2371   1.012   0.522   0.201  0.0685  0.0323  0.0622
  791SOL    HW1 2372   1.053   0.457   0.133 -0.0080 -2.7535 -1.8762
  791SOL    HW2 2373   0.919   0.553   0.170 -1.0456 -0.4654 -0.4583
  792SOL     OW 2374   1.311   0.284   1.616 -0.0769 -0.8364 -0.0830
  792SOL    HW1 2375   1.308   0.379   1.581  1.4814  0.0043  1.6799
  792SOL    HW2 2376   1.376   0.281   1.695 -1.7788 -0.2597  2.1175
  793SOL     OW 2377   0.972   2.918   0.839 -0.2650  0.0840 -0.4706
  793SOL    HW1 2378   0.934   3.013   0.842  1.5509 -0.0277  0.0970
  793SOL    HW2 2379   1.002   2.891   0.933 -0.8792  2.0540  0.2817
  794SOL     OW 2380   0.632   1.265   1.804 -0.2686  0.2958 -0.6517
  794SOL    HW1 2381   0.595   1.171   1.791 -0.1477  1.6281 -1.4385
  794SOL    HW2 2382   0.689   1.273   1.889 -1.5479 -1.1619 -2.6792
  795SOL     OW 2383   0.130   1.414   2.176  0.0659  0.2495  0.3995
  795SOL    HW1 2384   0.059   1.465   2.123  1.7011  3.7263 -0.1734
  795SOL    HW2 2385   0.156   1.471   2.257 -0.8885 -1.5045 -0.7527
  796SOL     OW 2386   1.875   1.639   1.766  0.3413 -0.2632  0.2526
  796SOL    HW1 2387   1.959   1.694   1.786  0.3287 -4.6656 -0.9394
  796SOL    HW2 2388   1.804   1.652   1.838 -1.2817  0.2621  0.9599
  797SOL     OW 2389   0.036   0.259   2.555  0.4800  0.2037  0.2875
  797SOL    HW1 2390   0.057   0.190   2.482 -0.5295 -1.6057  2.5002
  797SOL    HW2 2391   0.024   0.210   2.646 -2.2450 -0.0465 -0.0152
  798SOL     OW 2392   3.009   2.276   1.941 -0.0646  0.5677 -0.5359
  798SOL    HW1 2393   2.969   2.302   1.851 -0.3683 -1.4977 -0.9753
  798SOL    HW2 2394   3.011   2.174   1.948  1.0375 -0.6349 -0.2181
  799SOL     OW 2395   2.761   2.277   3.063 -0.4354  0.2729 -0.4629
  799SOL    HW1 2396   2.820   2.343   3.114  0.9981 -0.7753 -0.4029
  799SOL    HW2 2397   2.663   2.306   3.077 -3.1399  0.3242  1.5930
  800SOL     OW 2398   1.006   1.625   0.682  0.5678 -0.1699 -0.0636
  800SOL    HW1 2399   0.961   1.714   0.705 -0.1813 -1.0911  0.7350
  800SOL    HW2 2400   1.091   1.611   0.740 -0.9218 -0.3626 -1.8073
  801SOL     OW 2401   2.773   0.662   0.696 -0.0839 -0.2399 -0.2165
  801SOL    HW1 2402   2.823   0.747   0.667 -1.4304  0.2682  0.7581
  801SOL    HW2 2403   2.701   0.681   0.767 -1.0850  0.4385 -2.5055
  802SOL     OW 2404   2.588   1.554   0.505  0.1853  0.3840 -0.0625
  802SOL    HW1 2405   2.588   1.643   0.455  0.3709  0.0166  1.6607
  802SOL    HW2 2406   2.492   1.520   0.504 -1.0677 -1.5388  4.4832
  803SOL     OW 2407   1.664   1.894   2.853  0.4946  0.2762 -0.0984
  803SOL    HW1 2408   1.628   1.922   2.763  0.3783 -0.6634  1.5851
  803SOL    HW2 2409   1.758   1.934   2.866 -1.1056  3.4188  0.3666
  804SOL     OW 2410   2.043   1.935   0.263  0.9067  0.8416 -0.2536
  804SOL    HW1 2411   2.040   1.857   0.329 -1.2881  2.0580 -0.9782
  804SOL    HW2 2412   2.081   1.903   0.175 -1.1196 -1.8465 -0.6751
  805SOL     OW 2413   2.843   1.618   2.538  0.4582 -0.0544  0.5312
  805SOL    HW1 2414   2.800   1.676   2.611  2.2862 -0.8886  2.3988
  805SOL    HW2 2415   2.861   1.673   2.454 -2.0167 -0.7224  0.7447
  806SOL     OW 2416   0.281   0.300   0.398 -0.4841  0.4522 -0.6819
  806SOL    HW1 2417   0.276   0.341   0.491  0.7573  1.0376 -1.2105
  806SOL    HW2 2418   0.209   0.229   0.388 -1.8608 -2.3421 -0.0571
  807SOL     OW 2419   2.414   1.311   2.482  0.0076  0.3564  0.6382
  807SOL    HW1 2420   2.356   1.256   2.547 -1.1050 -0.2202 -0.5164
  807SOL    HW2 2421   2.494   1.255   2.451  0.3391 -0.8374  0.8419
  808SOL     OW 2422   0.166   1.443   0.519 -0.2293 -0.0743  0.1904
  808SOL    HW1 2423   0.147   1.356   0.570  0.3563  1.6765  2.8787
  808SOL    HW2 2424   0.198   1.518   0.581 -1.7615  1.4067 -0.2962
  809SOL     OW 2425   2.526   0.559   2.787  0.3902  0.3770  0.0109
  809SOL    HW1 2426   2.579   0.609   2.860  0.5914  2.9115 -0.1889
  809SOL    HW2 2427   2.426   0.573   2.801 -1.2036  0.6166 -0.3410
  810SOL     OW 2428   0.937   0.732   0.358 -0.1843  0.0157  0.6682
  810SOL    HW1 2429   0.979   0.648   0.318 -2.0433 -1.1472 -0.5243
  810SOL    HW2 2430   0.916   0.799   0.284 -2.0266  0.9542 -0.9074
  811SOL     OW 2431   1.545   2.536   0.802 -0.0278 -0.1514  0.1610
  811SOL    HW1 2432   1.455   2.583   0.789 -0.4233  1.0139 -1.3928
  811SOL    HW2 2433   1.541   2.445   0.754  0.7589 -0.7745 -2.4051
  812SOL     OW 2434   0.772   2.618   1.648  0.0350 -0.1701 -0.0046
  812SOL    HW1 2435   0.743   2.521   1.657 -0.2988 -0.4276  0.1644
  812SOL    HW2 2436   0.807   2.648   1.739 -1.5300 -0.9801 -0.0219
  813SOL     OW 2437   1.039   0.294   1.975 -0.0288  0.7015 -0.2594
  813SOL    HW1 2438   1.023   0.196   1.997 -1.5652 -0.2300 -0.1661
  813SOL    HW2 2439   0.973   0.351   2.027 -0.6046  0.0942  0.8772
  814SOL     OW 2440   1.338   2.995   2.739 -0.1179  0.0384 -0.3861
  814SOL    HW1 2441   1.274   3.031   2.810 -0.8400 -3.7048 -1.7848
  814SOL    HW2 2442   1.324   2.897   2.720 -1.8545  0.5273 -1.4263
  815SOL     OW 2443   0.609   0.618   1.928  0.1729 -0.1199 -1.0489
  815SOL    HW1 2444   0.550   0.671   1.862  1.6900  1.6297  1.3847
  815SOL    HW2 2445   0.622   0.679   2.008 -0.9170  0.9284  0.2488
  816SOL     OW 2446   2.283   0.421   3.050 -0.2255  0.6653 -0.0471
  816SOL    HW1 2447   2.204   0.397   3.111  1.1485  0.2099  0.3873
  816SOL    HW2 2448   2.331   0.335   3.020  2.9261  1.1991  1.2020
  817SOL     OW 2449   1.767   0.197   2.756  0.7913 -0.6075  0.2141
  817SOL    HW1 2450   1.742   0.288   2.719  1.9529  3.2545  1.5415
  817SOL    HW2 2451   1.686   0.142   2.786 -1.3442  0.4753  0.0178
  818SOL     OW 2452   2.087   0.379   0.163 -0.2033 -0.1372  0.1960
  818SOL    HW1 2453   2.103   0.283   0.195  0.8576 -2.8422 -0.9618
  818SOL    HW2 2454   2.044   0.434   0.237 -0.4907 -2.3639  3.0878
  819SOL     OW 2455   2.340   1.524   0.090 -0.1531 -0.0898 -0.2522
  819SOL    HW1 2456   2.408   1.596   0.116  0.9245 -1.8938  0.3230
  819SOL    HW2 2457   2.389   1.437   0.068 -1.1468 -0.0032  2.7146
  820SOL     OW 2458   2.884   2.033   0.050  0.1723  0.2670  0.6855
  820SOL    HW1 2459   2.832   2.119   0.036  1.5277 -0.5356 -0.0205
  820SOL    HW2 2460   2.824   1.954   0.021 -0.1356 -1.1466 -0.9114
  821SOL     OW 2461   0.363   2.616   1.504 -0.8653  0.0402  0.1954
  821SOL    HW1 2462   0.266   2.637   1.529 -0.2445 -3.6435  1.4771
  821SOL    HW2 2463   0.361   2.588   1.406 -0.3160 -1.9287  0.2481
  822SOL     OW 2464   2.704   2.633   2.417  0.3189  0.0513  0.7082
  822SOL    HW1 2465   2.698   2.735   2.406  1.1938  0.8479  0.5384
  822SOL    HW2 2466   2.631   2.585   2.363 -3.2461 -2.7973 -0.5659
  823SOL     OW 2467   1.574   2.973   2.326 -0.4464  1.3524 -0.3823
  823SOL    HW1 2468   1.592   3.028   2.242 -0.6817 -2.8959 -1.6162
  823SOL    HW2 2469   1.521   3.037   2.387 -0.7814 -2.8569 -0.3232
  824SOL     OW 2470   2.410   1.719   1.073 -0.5651 -0.0883 -0.1572
  824SOL    HW1 2471   2.441   1.761   0.985 -1.7543  2.0522 -1.5177
  824SOL    HW2 2472   2.428   1.619   1.073  0.6754 -0.9886  1.1963
  825SOL     OW 2473   2.835   1.966   2.556 -0.2771  0.5007  0.1140
  825SOL    HW1 2474   2.807   2.046   2.501  1.9344 -0.9941  0.0188
  825SOL    HW2 2475   2.936   1.963   2.543 -1.5759  1.1862  1.6459
  826SOL     OW 2476   2.816   1.373   2.152 -0.1434 -0.1334 -0.4182
  826SOL    HW1 2477   2.722   1.390   2.117 -1.8750 -1.4354  1.1342
  826SOL    HW2 2478   2.821   1.380   2.254 -1.7945  1.3324  1.2168
  827SOL     OW 2479   2.490   2.544   1.744 -0.3113  1.1601  0.4339
  827SOL    HW1 2480   2.523   2.465   1.688  0.4609 -1.4517 -0.7375
  827SOL    HW2 2481   2.389   2.555   1.728 -1.9405  1.4359  0.7116
  828SOL     OW 2482   2.935   2.972   1.576  0.0104  0.1114  0.0738
  828SOL    HW1 2483   2.884   2.956   1.488  0.8741 -0.9432  0.5803
  828SOL    HW2 2484   3.000   3.048   1.559  1.6367 -0.9581 -1.1212
  829SOL     OW 2485   1.923   1.891   2.254  0.8462  0.0695  0.4970
  829SOL    HW1 2486   1.826   1.920   2.244 -0.9053  1.1059  1.1105
  829SOL    HW2 2487   1.944   1.874   2.353  1.8981 -4.5780  0.9182
  830SOL     OW 2488   1.568   0.650   0.890 -0.2750  0.0510  0.1477
  830SOL    HW1 2489   1.645   0.585   0.873  1.0055  1.0139 -0.5128
  830SOL    HW2 2490   1.601   0.745   0.892  1.3833 -0.9593 -0.2846
  831SOL     OW 2491   2.926   1.481   0.785 -0.4122 -0.6562  0.3228
  831SOL    HW1 2492   2.974   1.398   0.822  1.6709  0.9997 -0.0812
  831SOL    HW2 2493   2.873   1.453   0.702  1.3978  2.1391  0.0826
  832SOL     OW 2494   1.504   2.284   1.822  0.5797 -0.0408 -0.5165
  832SOL    HW1 2495   1.479   2.383   1.833 -1.4510  0.9814  2.0144
  832SOL    HW2 2496   1.606   2.273   1.817 -1.6858 -1.4159 -1.1713
  833SOL     OW 2497   3.020   2.937   2.251  0.0855  0.0348  0.2153
  833SOL    HW1 2498   2.948   2.924   2.179  2.3596  2.0591 -0.0019
  833SOL    HW2 2499   2.985   2.910   2.343 -3.1856  0.0214  1.9059
  834SOL     OW 2500   1.056   1.008   1.261 -0.4243 -0.3778 -0.3214
  834SOL    HW1 2501   1.093   0.983   1.353 -1.3932 -0.2550  1.8995
  834SOL    HW2 2502   1.118   0.969   1.190  0.6111  0.9976 -2.4569
  835SOL     OW 2503   3.057   0.774   2.781  0.0212 -0.0818 -0.2387
  835SOL    HW1 2504   2.956   0.762   2.760 -2.3863 -0.1868  0.8867
  835SOL    HW2 2505   3.073   0.767   2.881  1.2405 -1.6538 -2.6028
  836SOL     OW 2506   1.044   2.318   1.057 -0.1818 -0.1503 -0.3252
  836SOL    HW1 2507   0.966   2.373   1.020 -2.0139 -2.0434 -0.2469
  836SOL    HW2 2508   1.111   2.378   1.106 -1.7991 -1.1882 -0.3697
  837SOL     OW 2509   2.104   0.809   1.210  0.6427  0.1505  0.4690
  837SOL    HW1 2510   2.032   0.805   1.137  2.0425 -1.2926  0.3965
  837SOL    HW2 2511   2.070   0.874   1.281  1.2679  0.9184  1.2258
  838SOL     OW 2512   1.406   1.690   2.787 -0.2049  0.6247 -0.4853
  838SOL    HW1 2513   1.473   1.676   2.863 -0.4674  0.7502  2.2989
  838SOL    HW2 2514   1.442   1.765   2.728  1.8956 -0.3535  0.3646
  839SOL     OW 2515   0.564   2.242   2.773 -0.7062 -0.1734  0.0515
  839SOL    HW1 2516   0.590   2.145   2.775  0.8955 -1.3394 -1.5181
  839SOL    HW2 2517   0.502   2.270   2.851  1.1146 -1.0315  1.7753
  840SOL     OW 2518   0.756   2.440   2.797  0.0172  0.1294  0.3720
  840SOL    HW1 2519   0.688   2.365   2.780  0.6804  1.6531 -1.2026
  840SOL    HW2 2520   0.724   2.526   2.753 -3.9368  1.6235  0.2252
  841SOL     OW 2521   1.907   2.019   2.885 -0.6051 -0.4657  0.4528
  841SOL    HW1 2522   2.000   1.981   2.902 -1.6975 -0.0583  0.6758
  841SOL    HW2 2523   1.896   2.099   2.948  0.7546 -2.2281  0.9140
  842SOL     OW 2524   1.536   0.878   2.764 -0.4132  0.3381 -0.1742
  842SOL    HW1 2525   1.551   0.980   2.754  2.0504  2.0103 -2.5365
  842SOL    HW2 2526   1.438   0.854   2.752  0.5263 -2.9630  1.9444
  843SOL     OW 2527   1.347   2.941   0.715 -0.0071  0.1538  0.3212
  843SOL    HW1 2528   1.445   2.966   0.731  1.6466  0.7453 -0.3874
  843SOL    HW2 2529   1.315   2.991   0.632 -0.5495  1.7873  0.0722
  844SOL     OW 2530   2.479   2.858   2.634  0.9371 -0.4541 -0.4768
  844SOL    HW1 2531   2.461   2.800   2.716  0.7610 -1.2083  1.6170
  844SOL    HW2 2532   2.550   2.930   2.649 -0.8863 -0.2680  0.0595
  845SOL     OW 2533   2.829   2.925   1.333 -0.5980 -0.0431  0.5732
  845SOL    HW1 2534   2.827   3.013   1.279 -0.0176 -0.0212  1.4464
  845SOL    HW2 2535   2.740   2.875   1.326 -0.8093  1.4038  2.0632
  846SOL     OW 2536   0.242   2.204   2.187  0.2519  0.1188 -0.0245
  846SOL    HW1 2537   0.206   2.291   2.145 -2.7974 -1.3622 -1.4004
  846SOL    HW2 2538   0.256   2.220   2.287 -0.5759  1.2871  2.2658
  847SOL     OW 2539   1.611   0.137   1.417 -0.5450 -0.2547 -0.5141
  847SOL    HW1 2540   1.511   0.119   1.424  0.8280 -1.6772 -0.3472
  847SOL    HW2 2541   1.663   0.069   1.473 -1.4572  1.9434 -2.2215
  848SOL     OW 2542   2.829   0.584   0.098  0.0427 -0.3591 -0.2751
  848SOL    HW1 2543   2.922   0.544   0.087 -1.5605  2.2316  0.6384
  848SOL    HW2 2544   2.756   0.511   0.104 -0.2704 -0.3515  1.3555
  849SOL     OW 2545   0.512   0.581   0.125  0.4714  0.4943  0.3102
  849SOL    HW1 2546   0.444   0.617   0.192 -0.1762 -0.4436 -1.6358
  849SOL    HW2 2547   0.492   0.482   0.105 -1.0160  1.8292 -0.7896
  850SOL     OW 2548   0.327   2.672   1.022  0.2288 -0.0672  0.0881
  850SOL    HW1 2549   0.239   2.717   1.050 -1.3074 -2.0765  2.5594
  850SOL    HW2 2550   0.393   2.747   0.998  0.0508  1.8783 -1.4267
  851SOL     OW 2551   1.905   0.179   2.365 -0.6019 -0.8079  0.5384
  851SOL    HW1 2552   1.806   0.189   2.392  3.3212 -0.2780  0.9228
  851SOL    HW2 2553   1.911   0.133   2.274  0.7678 -2.5882  0.5826
  852SOL     OW 2554   1.537   1.555   2.297  0.5651  0.0044 -0.0299
  852SOL    HW1 2555   1.512   1.493   2.374  0.8376  4.0714 -0.0634
  852SOL    HW2 2556   1.454   1.584   2.244  3.3860 -0.3745  0.6446
  853SOL     OW 2557   0.115   2.896   0.428 -0.0162  0.4508  0.4716
  853SOL    HW1 2558   0.116   2.814   0.367 -2.3262 -0.3171  0.9842
  853SOL    HW2 2559   0.162   2.872   0.515  0.8643 -1.4430 -0.4601
  854SOL     OW 2560   2.360   3.017   0.726  0.2135  0.0085 -0.3165
  854SOL    HW1 2561   2.322   3.112   0.718  0.4381  0.9530  1.0895
  854SOL    HW2 2562   2.344   2.971   0.636 -0.2255 -1.5993  0.6613
  855SOL     OW 2563   1.369   2.125   0.755  0.3966  0.4058 -0.1270
  855SOL    HW1 2564   1.336   2.072   0.673  2.5857  0.6562  1.9480
  855SOL    HW2 2565   1.291   2.179   0.794  1.9950  0.0204 -1.4377
  856SOL     OW 2566   2.374   0.485   0.388 -0.3069 -0.0196  0.5307
  856SOL    HW1 2567   2.368   0.383   0.382  1.6479 -1.0411  0.2505
  856SOL    HW2 2568   2.466   0.512   0.422  0.0038  0.7040 -0.5732
  857SOL     OW 2569   1.843   2.529   1.714 -0.2597 -0.9284  0.3838
  857SOL    HW1 2570   1.871   2.576   1.802 -0.5456 -3.3182  1.7229
  857SOL    HW2 2571   1.926   2.495   1.665 -1.5984  2.4759 -2.0227
  858SOL     OW 2572   2.561   2.188   1.371  0.0413 -0.1361 -0.0600
  858SOL    HW1 2573   2.633   2.213   1.302 -0.4785 -2.7847 -2.9754
  858SOL    HW2 2574   2.470   2.173   1.326  1.3335 -0.2582  0.5055
  859SOL     OW 2575   1.106   2.525   0.724 -0.0995 -0.2006 -0.0436
  859SOL    HW1 2576   1.026   2.575   0.762 -4.9840 -1.6017 -0.4239
  859SOL    HW2 2577   1.190   2.581   0.739 -0.2423  0.6567 -1.2173
  860SOL     OW 2578   2.169   2.359   0.214 -0.3406 -0.0862  0.7044
  860SOL    HW1 2579   2.181   2.272   0.266 -1.3610  0.6104 -2.9295
  860SOL    HW2 2580   2.189   2.341   0.116  2.4683 -0.7133  0.3528
  861SOL     OW 2581   2.079   2.402   0.974  0.1300  0.0005  0.0805
  861SOL    HW1 2582   2.097   2.487   0.919 -1.4184 -2.0367  6.4585
  861SOL    HW2 2583   2.169   2.369   1.011 -2.8620  2.2336  4.4199
  862SOL     OW 2584   1.709   2.735   2.742  0.3484  0.7258  0.1635
  862SOL    HW1 2585   1.717   2.801   2.663 -2.1972  1.0621 -1.5718
  862SOL    HW2 2586   1.737   2.782   2.830 -1.1392 -0.2553  1.6312
  863SOL     OW 2587   0.522   3.062   0.298 -0.4966 -0.5840 -0.1027
  863SOL    HW1 2588   0.546   3.016   0.386 -0.1501 -0.2076  1.4529
  863SOL    HW2 2589   0.576   3.018   0.222 -1.1826 -0.9567  3.1961
  864SOL     OW 2590   2.590   2.583   2.002 -0.3517 -0.0820 -0.0811
  864SOL    HW1 2591   2.674   2.526   2.013  0.2312  0.8952 -0.1341
  864SOL    HW2 2592   2.548   2.566   1.910  1.8384 -0.4359 -0.5042
  865SOL     OW 2593   0.028   2.093   2.779 -0.3470 -0.2319  0.3559
  865SOL    HW1 2594   0.037   2.040   2.866 -0.6124 -2.8985 -1.4930
  865SOL    HW2 2595  -0.048   2.161   2.791  2.1957 -0.3584 -0.7122
  866SOL     OW 2596   2.579   0.294   2.764  0.3483 -0.4727  0.2107
  866SOL    HW1 2597   2.666   0.274   2.716 -2.5932 -2.4821  1.8555
  866SOL    HW2 2598   2.563   0.396   2.767 -0.6064 -1.4591 -0.2888
  867SOL     OW 2599   2.934   2.876   2.505  0.1980  0.1520  0.0829
  867SOL    HW1 2600   2.836   2.889   2.484  2.5503 -2.4764 -2.4082
  867SOL    HW2 2601   2.939   2.822   2.592  2.7756 -0.7813  0.5093
  868SOL     OW 2602   0.858   2.682   0.779  0.0218  0.3887  0.1857
  868SOL    HW1 2603   0.899   2.774   0.801 -3.2461 -0.3338  1.9283
  868SOL    HW2 2604   0.844   2.674   0.677 -4.2760  0.4834  0.2695
  869SOL     OW 2605   1.306   1.316   1.185 -0.5291  0.1069 -0.1260
  869SOL    HW1 2606   1.278   1.411   1.159  2.3326  1.8465 -1.1115
  869SOL    HW2 2607   1.394   1.290   1.139 -0.1927 -0.2926 -2.6740
  870SOL     OW 2608   1.899   1.763   1.128  0.1010 -0.9584  0.2857
  870SOL    HW1 2609   1.926   1.664   1.123 -0.0617 -1.4296  0.2194
  870SOL    HW2 2610   1.942   1.811   1.206 -1.8844 -1.1695  0.0176
  871SOL     OW 2611   1.015   1.400   1.026 -0.3275 -0.4433 -0.2751
  871SOL    HW1 2612   1.016   1.350   0.938  2.0470  0.3360 -1.5045
  871SOL    HW2 2613   0.935   1.465   1.030  0.3159 -2.6105  0.5731
  872SOL     OW 2614   1.152   0.501   0.716  0.2494  0.0355 -0.3658
  872SOL    HW1 2615   1.233   0.560   0.694 -0.8674 -0.9212  1.1503
  872SOL    HW2 2616   1.141   0.482   0.816 -1.6713 -0.2655  1.5659
  873SOL     OW 2617   1.718   0.453   2.669  0.1137 -0.4457  0.6077
  873SOL    HW1 2618   1.772   0.502   2.743  2.1351 -1.4145  2.1930
  873SOL    HW2 2619   1.691   0.521   2.598  1.3879 -1.4499 -1.0506
  874SOL     OW 2620   0.542   1.245   1.139 -0.0147  0.2628 -0.0398
  874SOL    HW1 2621   0.555   1.304   1.221  1.1199  2.7548  0.5659
  874SOL    HW2 2622   0.459   1.270   1.085  1.5611 -0.3139 -0.9264
  875SOL     OW 2623   2.738   2.693   3.010  0.4234  0.0649  0.0593
  875SOL    HW1 2624   2.699   2.621   2.950 -1.4550  1.5727 -2.1696
  875SOL    HW2 2625   2.735   2.784   2.964 -2.2179  0.0814  1.2352
  876SOL     OW 2626   0.798   0.550   2.911  0.0128 -0.2201  0.2521
  876SOL    HW1 2627   0.796   0.571   3.012 -0.0984 -0.6316  1.6993
  876SOL    HW2 2628   0.841   0.628   2.861 -0.4904  2.0712 -2.8308
  877SOL     OW 2629   0.001   2.789   1.361  0.0968  0.7762  0.3727
  877SOL    HW1 2630   0.057   2.800   1.276 -2.8825  2.0432  1.0093
  877SOL    HW2 2631  -0.084   2.844   1.351  2.3254  0.0212  1.1142
  878SOL     OW 2632   1.957   1.868   2.522  0.1614 -0.2117 -0.3796
  878SOL    HW1 2633   1.888   1.933   2.560 -1.4680  3.0212  1.0163
  878SOL    HW2 2634   2.048   1.892   2.561  1.9369  1.2582  0.1156
  879SOL     OW 2635   2.136   1.744   1.811 -0.2096 -0.4429 -0.3108
  879SOL    HW1 2636   2.145   1.745   1.912 -2.7123  1.2446  0.2014
  879SOL    HW2 2637   2.214   1.695   1.766  0.2139 -1.4020  0.6345
  880SOL     OW 2638   0.935   1.043   0.934 -0.9567  0.6580  0.2574
  880SOL    HW1 2639   1.019   1.089   0.968  0.2993 -1.4846  0.8569
  880SOL    HW2 2640   0.948   0.941   0.938  0.0999 -1.1739 -0.1059
  881SOL     OW 2641   1.244   1.520   0.048 -0.0799 -0.4302  0.1362
  881SOL    HW1 2642   1.228   1.609   0.095 -0.1121 -2.1510  0.1207
  881SOL    HW2 2643   1.303   1.466   0.112  2.8269 -1.7939  2.8675
  882SOL     OW 2644   1.841   0.028   1.153  0.5261  0.4589 -0.2189
  882SOL    HW1 2645   1.854   0.105   1.219 -1.1594 -1.3998 -1.8413
  882SOL    HW2 2646   1.927   0.016   1.098  1.0007 -0.0448 -1.3229
  883SOL     OW 2647   1.899   0.646   2.107  0.4144  0.8600 -0.3505
  883SOL    HW1 2648   1.808   0.600   2.095 -1.9645 -0.8540  3.9735
  883SOL    HW2 2649   1.971   0.576   2.125 -2.1713 -2.0776  0.2556
  884SOL     OW 2650   2.684   0.695   2.958  0.4723 -0.1885  0.0504
  884SOL    HW1 2651   2.740   0.731   2.881 -0.9101  1.1234 -1.3557
  884SOL    HW2 2652   2.745   0.654   3.030  1.4695  0.8675 -1.7604
  885SOL     OW 2653   1.150   2.273   0.815 -0.5029  0.0817  0.5777
  885SOL    HW1 2654   1.141   2.365   0.771 -0.4763  0.5082 -2.3701
  885SOL    HW2 2655   1.116   2.279   0.911  0.2487 -0.9819  3.8555
  886SOL     OW 2656   1.277   0.837   2.716  0.0820  0.0650 -0.1950
  886SOL    HW1 2657   1.212   0.781   2.771 -0.7819 -1.8304  0.9421
  886SOL    HW2 2658   1.226   0.921   2.688  1.9544 -1.8762 -1.4680
  887SOL     OW 2659   1.743   3.019   1.575  0.0615  0.0433  0.3489
  887SOL    HW1 2660   1.800   3.049   1.656 -1.6041  0.7432 -0.7076
  887SOL    HW2 2661   1.662   2.967   1.608  1.1121  0.9764 -3.4452
  888SOL     OW 2662   2.846   1.669   1.617  0.1010  0.3355  1.2273
  888SOL    HW1 2663   2.910   1.632   1.686 -1.3982  0.1786  2.0043
  888SOL    HW2 2664   2.852   1.608   1.535  2.5171  1.2909 -0.9408
  889SOL     OW 2665   2.993   2.730   0.681  0.2570  0.2979 -0.3006
  889SOL    HW1 2666   2.928   2.716   0.758 -1.4061  0.2263  0.7514
  889SOL    HW2 2667   2.972   2.818   0.632 -1.1255 -4.3233  0.0055
  890SOL     OW 2668   0.662   1.907   2.161  0.5299  0.3804  0.5657
  890SOL    HW1 2669   0.686   2.007   2.161 -0.0897 -1.7144  0.6992
  890SOL    HW2 2670   0.605   1.890   2.078 -1.1929 -1.4672 -0.0571
  891SOL     OW 2671   0.683   1.724   0.570 -0.2390  0.9534 -0.2566
  891SOL    HW1 2672   0.760   1.778   0.612 -0.3629 -0.0682 -1.0768
  891SOL    HW2 2673   0.623   1.785   0.516  1.9785 -2.0971 -0.8036
  892SOL     OW 2674   2.647   2.532   1.227  0.0718 -0.3546 -0.5425
  892SOL    HW1 2675   2.693   2.532   1.319  0.0223  0.2265  1.3777
  892SOL    HW2 2676   2.673   2.447   1.179 -0.1731  0.5942 -0.7794
  893SOL     OW 2677   0.204   0.446   1.743  0.1970  0.5923 -0.7305
  893SOL    HW1 2678   0.208   0.421   1.642  3.7237 -2.4449 -4.8395
  893SOL    HW2 2679   0.211   0.547   1.751  0.9744  1.0002 -3.0891
  894SOL     OW 2680   2.736   1.846   0.995  0.1748  0.0260 -0.9208
  894SOL    HW1 2681   2.649   1.830   0.942 -0.0829 -0.0186 -0.3400
  894SOL    HW2 2682   2.779   1.753   1.000  0.0674 -1.2926  1.6599
  895SOL     OW 2683   1.216   2.485   1.445 -0.1173  0.2733  0.4056
  895SOL    HW1 2684   1.274   2.434   1.513 -0.2306 -1.7326 -1.2528
  895SOL    HW2 2685   1.201   2.581   1.476 -0.1213  0.1051 -0.6555
  896SOL     OW 2686   0.744   0.322   1.322  0.6342  0.0643 -0.1313
  896SOL    HW1 2687   0.674   0.320   1.397  0.3887 -0.0583  0.5346
  896SOL    HW2 2688   0.837   0.326   1.364 -2.6675 -0.9921  3.0814
  897SOL     OW 2689   1.183   1.142   0.999 -0.7062  0.5429  0.7310
  897SOL    HW1 2690   1.208   1.212   1.069 -0.5868  0.8830  0.7905
  897SOL    HW2 2691   1.219   1.049   1.023 -0.7683 -0.7486 -2.3275
  898SOL     OW 2692   0.802   0.338   1.712 -0.1748  0.1279  0.6093
  898SOL    HW1 2693   0.812   0.431   1.753 -2.4372  3.7385  1.3058
  898SOL    HW2 2694   0.890   0.287   1.708 -3.6579  1.3505 -0.8535
  899SOL     OW 2695   1.489   0.368   0.209 -0.1610 -0.7288 -0.1573
  899SOL    HW1 2696   1.566   0.404   0.153 -0.3246  0.9699  0.7093
  899SOL    HW2 2697   1.417   0.441   0.217 -1.0976 -0.2699 -1.5574
  900SOL     OW 2698   1.029   0.663   2.408 -0.1742  0.0529 -0.0736
  900SOL    HW1 2699   0.994   0.754   2.438 -0.3658 -1.6182 -1.1639
  900SOL    HW2 2700   1.003   0.645   2.311 -1.8584  0.8295 -0.4518
  901SOL     OW 2701   0.723   2.035   0.436  0.1518  0.0498 -0.0257
  901SOL    HW1 2702   0.806   1.983   0.408  0.3388 -0.9192  1.8047
  901SOL    HW2 2703   0.643   1.988   0.394  0.6777  2.9806  0.2915
  902SOL     OW 2704   1.838   0.217   0.751  0.4784 -0.7980  0.3844
  902SOL    HW1 2705   1.850   0.161   0.666  0.3130 -2.3877 -0.5721
  902SOL    HW2 2706   1.768   0.172   0.807 -2.7539 -0.7221  1.6166
  903SOL     OW 2707   0.048   1.355   2.515  0.1065  0.2126  0.2402
  903SOL    HW1 2708   0.090   1.437   2.471  0.5220  0.4307 -2.3400
  903SOL    HW2 2709  -0.046   1.346   2.477 -1.1955 -0.8674 -3.9375
  904SOL     OW 2710   1.691   1.251   0.413 -0.0863 -0.3669 -0.0097
  904SOL    HW1 2711   1.639   1.288   0.494 -0.1588  2.0314  1.3363
  904SOL    HW2 2712   1.694   1.149   0.419 -3.6296 -0.0540  0.3846
  905SOL     OW 2713   1.925   2.670   1.332  0.0142  0.3797 -0.2303
  905SOL    HW1 2714   1.864   2.726   1.273 -1.1289 -0.5039 -0.2055
  905SOL    HW2 2715   1.926   2.575   1.296  0.7218  2.2403 -3.4159
  906SOL     OW 2716   2.187   2.622   0.850  0.1276  0.1412 -0.3722
  906SOL    HW1 2717   2.135   2.709   0.836 -0.8595 -1.3822 -0.8250
  906SOL    HW2 2718   2.263   2.642   0.914  0.2263 -0.3693 -2.7638
  907SOL     OW 2719   2.200   0.907   0.424 -0.3521  0.2451  0.0424
  907SOL    HW1 2720   2.173   0.813   0.447 -0.9333 -0.8665  1.9984
  907SOL    HW2 2721   2.132   0.975   0.458  1.8280  0.0761  1.0874
  908SOL     OW 2722   1.855   0.238   1.336 -0.1241  0.1055 -0.2814
  908SOL    HW1 2723   1.864   0.339   1.327  2.0966 -1.2025  0.7444
  908SOL    HW2 2724   1.761   0.219   1.371  1.2019  2.8072  1.5527
  909SOL     OW 2725   2.395   2.842   0.957 -0.5095  0.1381  0.3213
  909SOL    HW1 2726   2.369   2.906   0.882  0.5255  0.0296  1.3780
  909SOL    HW2 2727   2.393   2.889   1.048  0.0377 -0.2234 -0.0003
  910SOL     OW 2728   2.284   0.550   1.980 -0.0497 -0.6739  0.0943
  910SOL    HW1 2729   2.207   0.531   2.046 -1.7405 -1.4314 -1.5076
  910SOL    HW2 2730   2.363   0.487   1.998 -1.8019  0.3595  0.8627
  911SOL     OW 2731   1.907   0.031   2.596  0.5466  0.3271 -0.0675
  911SOL    HW1 2732   1.854   0.093   2.659 -1.2850 -0.8239  1.3227
  911SOL    HW2 2733   1.927   0.078   2.508 -1.5084 -0.0429  0.3208
  912SOL     OW 2734   0.523   0.917   1.314  0.2060  0.4640 -0.1838
  912SOL    HW1 2735   0.620   0.947   1.292 -1.8033  1.1400 -0.9385
  912SOL    HW2 2736   0.515   0.816   1.306 -1.9302  2.7347 -0.3080
  913SOL     OW 2737   2.415   2.590   1.086  0.5418  0.5528 -0.2853
  913SOL    HW1 2738   2.414   2.685   1.049  1.4129 -1.2329 -1.9192
  913SOL    HW2 2739   2.502   2.573   1.137  3.9137 -0.2336 -1.0858
  914SOL     OW 2740   1.136   0.428   0.979  0.2121  0.4822  0.4832
  914SOL    HW1 2741   1.214   0.425   1.046  0.4039 -0.6389 -0.1366
  914SOL    HW2 2742   1.124   0.335   0.939  0.1640  0.3427  0.0925
  915SOL     OW 2743   0.317   1.551   1.355 -0.7803  0.1869 -0.3492
  915SOL    HW1 2744   0.312   1.558   1.253 -0.2937 -0.3824  0.5534
  915SOL    HW2 2745   0.324   1.643   1.398 -0.6267  0.7554 -3.1619
  916SOL     OW 2746   1.912   2.201   0.930 -0.1736  0.6051  0.2644
  916SOL    HW1 2747   1.981   2.277   0.945 -1.1258  1.6157  0.9247
  916SOL    HW2 2748   1.820   2.241   0.949 -2.0333  0.9914  1.3486
  917SOL     OW 2749   1.984   2.373   2.285 -0.4287  0.4469  0.6258
  917SOL    HW1 2750   1.998   2.370   2.184  0.2248  0.2690  1.2277
  917SOL    HW2 2751   1.900   2.427   2.304  0.2597  1.9517  2.5890
  918SOL     OW 2752   2.002   1.601   2.565  0.5580 -0.1494  0.3428
  918SOL    HW1 2753   2.096   1.606   2.607  1.2842  0.9466 -4.0495
  918SOL    HW2 2754   1.966   1.695   2.551  1.1548  0.8026 -4.7608
  919SOL     OW 2755   0.732   0.534   1.154 -0.7496 -0.1019 -0.4343
  919SOL    HW1 2756   0.734   0.453   1.216  1.0339 -1.0635 -1.1470
  919SOL    HW2 2757   0.826   0.575   1.144 -2.6675 -2.6687 -0.7429
  920SOL     OW 2758   2.826   0.720   2.105  0.1546 -0.1088  0.9095
  920SOL    HW1 2759   2.858   0.657   2.030 -0.0728 -1.0959  0.6897
  920SOL    HW2 2760   2.902   0.731   2.172  2.8688  0.5031  0.2522
  921SOL     OW 2761   2.496   1.238   1.464 -0.6328  0.3553  0.0802
  921SOL    HW1 2762   2.569   1.190   1.410 -0.1003 -0.9013  0.9273
  921SOL    HW2 2763   2.529   1.257   1.558 -2.7743 -0.6634  0.5377
  922SOL     OW 2764   2.745   2.253   0.782  0.2748 -0.1096 -0.2745
  922SOL    HW1 2765   2.706   2.192   0.854 -1.1377  1.2206  0.8284
  922SOL    HW2 2766   2.671   2.324   0.767  0.0137  0.7002  1.9947
  923SOL     OW 2767   0.043   2.288   0.532 -0.3059  0.1374  0.0298
  923SOL    HW1 2768   0.074   2.279   0.629  2.7543  3.2524  0.0655
  923SOL    HW2 2769   0.114   2.257   0.465 -0.5739  2.0776 -2.1451
  924SOL     OW 2770   0.977   1.178   2.916  0.3845 -0.0330 -0.1145
  924SOL    HW1 2771   1.029   1.225   2.841 -0.0851 -0.9237 -3.1656
  924SOL    HW2 2772   0.903   1.238   2.953  2.1119  0.8272  0.3007
  925SOL     OW 2773   3.043   1.258   0.883 -0.7380  0.3822  0.5515
  925SOL    HW1 2774   3.084   1.283   0.974 -0.2387  1.4514 -1.1524
  925SOL    HW2 2775   2.977   1.180   0.892  1.1814 -1.0235 -0.6621
  926SOL     OW 2776   0.135   0.017   1.294  0.7158  0.1663  0.2953
  926SOL    HW1 2777   0.232  -0.010   1.284  0.3159  0.2553 -0.5382
  926SOL    HW2 2778   0.091   0.001   1.203 -0.1770 -0.2292  0.8940
  927SOL     OW 2779   0.597   1.747   2.373 -0.5300  0.2941  0.4960
  927SOL    HW1 2780   0.681   1.690   2.385 -0.2584 -2.7939 -2.3050
  927SOL    HW2 2781   0.609   1.800   2.286  0.4266 -0.6640  1.9343
  928SOL     OW 2782   0.317   0.660   2.357 -0.1420 -0.1781  0.2084
  928SOL    HW1 2783   0.365   0.570   2.370 -2.8140  1.7387  0.2332
  928SOL    HW2 2784   0.250   0.672   2.433 -2.1483  0.3126  0.3000
  929SOL     OW 2785   2.642   2.103   0.983 -0.1735 -0.0983  0.2580
  929SOL    HW1 2786   2.542   2.097   0.959 -0.1196 -0.8448  1.4897
  929SOL    HW2 2787   2.672   2.006   0.991  0.1226  0.3965  0.5829
  930SOL     OW 2788   1.648   0.208   2.431 -0.3165 -0.4436  0.4422
  930SOL    HW1 2789   1.567   0.161   2.468  0.3731 -1.3899 -1.1499
  930SOL    HW2 2790   1.622   0.294   2.380 -3.0802  1.1823 -1.9156
  931SOL     OW 2791   2.441   0.997   2.807 -0.0789 -0.4049  0.0474
  931SOL    HW1 2792   2.443   1.015   2.906  1.0618  1.0688 -0.9094
  931SOL    HW2 2793   2.371   0.925   2.784 -0.0996 -2.2379 -0.2743
  932SOL     OW 2794   1.758   0.863   0.644 -0.2962 -0.4497 -0.2073
  932SOL    HW1 2795   1.741   0.905   0.552 -0.3996  0.7925 -0.4367
  932SOL    HW2 2796   1.818   0.781   0.630  1.1158  2.7369 -0.8639
  933SOL     OW 2797   2.289   0.624   0.735 -0.5913  0.5711 -0.0675
  933SOL    HW1 2798   2.235   0.606   0.651  1.7089 -1.0944 -0.1201
  933SOL    HW2 2799   2.321   0.721   0.734  0.3521 -0.7796 -0.2408
  934SOL     OW 2800   2.643   1.178   2.380 -0.0847  0.1292 -0.3495
  934SOL    HW1 2801   2.713   1.104   2.378 -0.8829  2.3851 -0.0974
  934SOL    HW2 2802   2.601   1.180   2.287  1.8527  0.8627 -0.2435
  935SOL     OW 2803   0.096   1.347   1.108 -0.1395  0.3885  0.3251
  935SOL    HW1 2804   0.065   1.442   1.131 -0.2238  0.3006 -0.1266
  935SOL    HW2 2805   0.104   1.297   1.197 -0.4123  0.9209  0.2366
  936SOL     OW 2806   0.051   2.959   0.076  0.6243 -0.3206 -0.1327
  936SOL    HW1 2807   0.072   2.859   0.066 -0.6621  2.4412 -0.2630
  936SOL    HW2 2808   0.135   3.006   0.110 -1.5463  1.1262 -1.9744
  937SOL     OW 2809   2.832   2.452   2.062  0.6092 -0.1775 -0.3541
  937SOL    HW1 2810   2.841   2.451   2.163 -1.2616 -0.8833  0.9616
  937SOL    HW2 2811   2.883   2.377   2.015 -0.6132 -0.9121  0.9830
  938SOL     OW 2812   2.243   2.317   3.015 -0.7133 -0.3078  0.0044
  938SOL    HW1 2813   2.289   2.225   3.002 -2.3970  2.7150  3.0594
  938SOL    HW2 2814   2.162   2.319   2.952 -1.5984  0.5386  2.4326
  939SOL     OW 2815   1.041   0.612   1.398  0.0613 -0.1208 -0.3740
  939SOL    HW1 2816   1.136   0.650   1.397  1.1158  0.0546  0.7902
  939SOL    HW2 2817   0.979   0.667   1.457  0.6233  0.5937  1.2994
  940SOL     OW 2818   2.318   2.894   3.031  0.0103 -0.4392 -0.2666
  940SOL    HW1 2819   2.225   2.924   3.003 -0.4198  2.3334 -1.3600
  940SOL    HW2 2820   2.357   2.830   2.961  0.2231 -0.4441  0.8348
  941SOL     OW 2821   2.588   2.842   2.101 -0.3616  0.1297 -0.2606
  941SOL    HW1 2822   2.507   2.900   2.080  1.0202 -2.0484  0.3594
  941SOL    HW2 2823   2.576   2.748   2.062  2.4966 -0.8211 -2.6698
  942SOL     OW 2824   1.601   0.025   1.030  0.8242  0.2298 -0.0389
  942SOL    HW1 2825   1.534  -0.039   1.074  2.0221 -1.8408  1.4511
  942SOL    HW2 2826   1.693   0.027   1.076 -0.7182 -0.5453  0.0236
  943SOL     OW 2827   1.242   1.564   2.429  0.5638  0.2346 -0.0153
  943SOL    HW1 2828   1.319   1.509   2.470 -0.1182  0.1922 -0.1134
  943SOL    HW2 2829   1.263   1.581   2.330 -0.1102  0.7856  0.8276
  944SOL     OW 2830   2.667   0.814   1.346  0.7379 -0.4040  0.4521
  944SOL    HW1 2831   2.749   0.776   1.298  1.2490  0.4132  1.4879
  944SOL    HW2 2832   2.591   0.753   1.315  1.4324 -0.7824 -1.1028
  945SOL     OW 2833   2.624   0.018   2.694  0.2251  0.4230 -0.8341
  945SOL    HW1 2834   2.556   0.088   2.720 -1.9661  0.1295  0.5242
  945SOL    HW2 2835   2.702   0.067   2.652  1.5928  0.5115  1.6138
  946SOL     OW 2836   0.072   1.447   1.410 -0.1861  0.1664 -0.1859
  946SOL    HW1 2837   0.161   1.496   1.400  1.8144  1.2163 -0.0919
  946SOL    HW2 2838   0.088   1.347   1.395 -0.6437  0.3615  0.7734
  947SOL     OW 2839   0.401   0.401   2.782  0.1951  0.6622 -0.3942
  947SOL    HW1 2840   0.427   0.303   2.777 -1.7219  1.6757  0.3498
  947SOL    HW2 2841   0.330   0.423   2.710 -1.1010  0.1118 -0.4530
  948SOL     OW 2842   1.966   1.509   1.185 -0.1020 -0.2216  0.4080
  948SOL    HW1 2843   1.969   1.496   1.286  0.5350 -1.6005  0.5721
  948SOL    HW2 2844   2.046   1.459   1.143  1.4961  0.0250  2.1849
  949SOL     OW 2845   0.371   1.274   2.898 -0.0063 -0.0282 -0.6308
  949SOL    HW1 2846   0.387   1.346   2.828  4.2123 -0.1945  2.0230
  949SOL    HW2 2847   0.308   1.202   2.861 -0.3554 -1.6849 -0.0369
  950SOL     OW 2848   0.556   2.777   1.599  0.2141 -0.0113 -0.1665
  950SOL    HW1 2849   0.481   2.718   1.563 -0.2822 -0.9630  3.8279
  950SOL    HW2 2850   0.639   2.717   1.612  2.9439 -1.5821 -3.0707
  951SOL     OW 2851   0.844   2.140   2.414  0.2278 -0.3946 -0.3165
  951SOL    HW1 2852   0.768   2.082   2.454 -0.1804  2.9061 -0.0897
  951SOL    HW2 2853   0.916   2.160   2.484 -1.3571  1.1469  0.4871
  952SOL     OW 2854   0.646   1.099   0.567 -0.5171 -0.0893 -0.1934
  952SOL    HW1 2855   0.616   1.015   0.618 -2.5455 -1.0097 -2.1894
  952SOL    HW2 2856   0.619   1.091   0.468  0.4820 -1.9496  0.5078
  953SOL     OW 2857   2.179   1.620   2.955  0.6990 -0.2355  0.6545
  953SOL    HW1 2858   2.098   1.559   2.941  0.0156 -0.3417 -2.2302
  953SOL    HW2 2859   2.239   1.583   3.029  1.4222 -3.0359 -2.1328
  954SOL     OW 2860   1.490   0.271   0.470  0.3889  0.4685  0.0301
  954SOL    HW1 2861   1.488   0.291   0.370  1.6913 -0.9254 -1.4635
  954SOL    HW2 2862   1.529   0.176   0.479  0.0508 -3.1226 -0.1018
  955SOL     OW 2863   0.857   1.534   0.090 -0.3902 -0.3956  0.2094
  955SOL    HW1 2864   0.830   1.460   0.025 -1.9911 -0.7235 -0.8939
  955SOL    HW2 2865   0.916   1.492   0.163 -0.9935 -1.6109  0.8328
  956SOL     OW 2866   2.742   0.369   1.996 -0.4950  0.0411  0.2788
  956SOL    HW1 2867   2.788   0.448   1.950 -0.4185 -0.5645 -2.5231
  956SOL    HW2 2868   2.785   0.346   2.087 -0.0762 -0.1500  2.6492
  957SOL     OW 2869   1.903   1.901   1.980 -0.1957  0.3545 -0.2093
  957SOL    HW1 2870   1.804   1.905   1.954 -2.0631 -1.9191  1.0677
  957SOL    HW2 2871   1.915   1.884   2.079 -0.6148 -1.3839 -0.0576
  958SOL     OW 2872   1.712   0.860   1.192 -0.4904  0.1732 -0.0796
  958SOL    HW1 2873   1.769   0.946   1.191 -2.2517 -0.6787  1.4931
  958SOL    HW2 2874   1.729   0.807   1.278 -0.8925 -1.7893  0.1649
  959SOL     OW 2875   1.450   2.091   2.002  0.3735  0.0037  0.0753
  959SOL    HW1 2876   1.508   2.011   1.974  1.1084  0.2846 -2.0288
  959SOL    HW2 2877   1.454   2.166   1.933  0.5534  1.1676 -0.1824
  960SOL     OW 2878   0.799   1.250   2.568  0.3935  0.1783  0.3643
  960SOL    HW1 2879   0.871   1.296   2.514  0.2018 -1.1441 -0.7020
  960SOL    HW2 2880   0.714   1.240   2.510  0.1974  0.0590 -1.6471
  961SOL     OW 2881   2.708   1.220   0.098  0.1163 -0.2838 -0.5168
  961SOL    HW1 2882   2.731   1.305   0.151 -0.2438  2.5528 -2.9963
  961SOL    HW2 2883   2.613   1.228   0.061  0.6098  0.5679 -2.1830
  962SOL     OW 2884   0.868   1.800   0.074 -0.0480 -0.1357  0.1035
  962SOL    HW1 2885   0.878   1.697   0.072 -1.5779 -2.1024 -0.0443
  962SOL    HW2 2886   0.927   1.842   0.002 -0.2993 -4.4000 -0.3720
  963SOL     OW 2887   2.763   1.555   0.013 -0.0943  0.0807 -0.5863
  963SOL    HW1 2888   2.738   1.514   0.102 -2.5572 -0.9523  1.7933
  963SOL    HW2 2889   2.857   1.533  -0.022 -1.7105  1.6795 -0.2706
  964SOL     OW 2890   0.741   2.166   2.154 -0.3226  0.0239  0.7268
  964SOL    HW1 2891   0.788   2.170   2.243  0.5551  0.9109  1.8052
  964SOL    HW2 2892   0.685   2.250   2.137 -1.6499 -1.1891  1.8222
  965SOL     OW 2893   1.282   1.885   1.383  0.5623  0.6966  0.2219
  965SOL    HW1 2894   1.324   1.925   1.299  0.4007 -0.1065  1.1915
  965SOL    HW2 2895   1.229   1.800   1.362 -0.6664 -0.6277  0.3972
  966SOL     OW 2896   3.002   1.467   0.373  0.2649 -0.4262  0.1160
  966SOL    HW1 2897   3.085   1.465   0.435  1.3307 -1.3505 -0.2822
  966SOL    HW2 2898   3.017   1.425   0.281  1.2702 -0.0909  2.2291
  967SOL     OW 2899   1.875   2.587   2.579  0.5732 -0.1116 -0.0641
  967SOL    HW1 2900   1.807   2.636   2.637  0.5106  1.9387  0.5300
  967SOL    HW2 2901   1.966   2.597   2.625  2.4211 -0.9880 -0.1167
  968SOL     OW 2902   1.403   1.295   2.883 -0.2143  0.0808  0.3153
  968SOL    HW1 2903   1.423   1.299   2.981  2.2331  0.7448 -0.8322
  968SOL    HW2 2904   1.335   1.368   2.865 -0.1092  2.7674 -2.4226
  969SOL     OW 2905   0.133   0.942   2.421 -0.2155  0.0019 -0.8156
  969SOL    HW1 2906   0.126   1.021   2.358  0.1473 -0.3464 -0.8364
  969SOL    HW2 2907   0.211   0.955   2.486 -0.6640 -0.1916  1.1638
  970SOL     OW 2908   2.341   0.214   0.386  0.4540 -0.5231  0.4442
  970SOL    HW1 2909   2.253   0.184   0.343  2.4063  2.1166  1.9863
  970SOL    HW2 2910   2.420   0.152   0.366  1.9696  2.8108 -3.0303
  971SOL     OW 2911   1.582   1.955   0.805 -0.6370 -0.3452 -0.0241
  971SOL    HW1 2912   1.508   2.024   0.819  0.5564  1.9896 -1.0735
  971SOL    HW2 2913   1.645   1.957   0.886 -0.3042 -0.9674  0.6148
  972SOL     OW 2914   0.230   2.040   2.616  0.2328  0.5925 -0.0321
  972SOL    HW1 2915   0.158   2.066   2.685  2.0588 -0.7629  1.4584
  972SOL    HW2 2916   0.292   1.970   2.656  1.4089 -2.3698 -2.1212
  973SOL     OW 2917   0.534   0.527   0.441 -0.8752 -0.7065 -0.3948
  973SOL    HW1 2918   0.461   0.584   0.397  0.9248 -2.8730  1.6418
  973SOL    HW2 2919   0.545   0.438   0.393  1.4411 -0.3990 -0.7138
  974SOL     OW 2920   2.680   0.654   1.708 -0.0680  0.1144 -0.0431
  974SOL    HW1 2921   2.717   0.598   1.630 -0.4350  0.0882 -0.9108
  974SOL    HW2 2922   2.579   0.647   1.718  1.5346 -2.9714 -1.6800
  975SOL     OW 2923   0.320   3.027   0.819  0.0033 -0.2513 -0.6257
  975SOL    HW1 2924   0.272   2.957   0.761 -1.4311  1.1526 -0.6436
  975SOL    HW2 2925   0.375   3.086   0.756  1.5773  2.1526 -0.8169
  976SOL     OW 2926   0.738   1.546   1.461 -0.8974 -0.6971  0.1486
  976SOL    HW1 2927   0.672   1.480   1.416  1.5745  2.9376  4.3965
  976SOL    HW2 2928   0.710   1.644   1.456 -1.7387 -1.2446 -1.8727
  977SOL     OW 2929   1.272   2.010   0.526  0.0870 -0.5976 -0.1969
  977SOL    HW1 2930   1.311   2.060   0.446 -0.4071  1.5107 -1.4567
  977SOL    HW2 2931   1.283   1.909   0.515 -1.4425 -0.1128  0.5872
  978SOL     OW 2932   0.100   1.137   0.011 -0.4188  0.1476  0.1046
  978SOL    HW1 2933   0.106   1.135  -0.091  1.1131 -1.5400  1.3600
  978SOL    HW2 2934   0.190   1.118   0.056  0.0985  0.7305  1.8269
  979SOL     OW 2935   1.962   1.123   0.256 -0.0946  0.1714  0.2663
  979SOL    HW1 2936   1.926   1.030   0.234 -1.4974 -0.4529  1.9263
  979SOL    HW2 2937   1.999   1.121   0.351 -0.0456  3.5278 -1.0210
  980SOL     OW 2938   0.736   1.663   1.910 -0.1944 -0.0699  0.7927
  980SOL    HW1 2939   0.704   1.609   1.828  0.9735  1.1577 -1.1777
  980SOL    HW2 2940   0.676   1.635   1.986 -3.2065  1.2082  2.6300
  981SOL     OW 2941   2.227   1.394   2.288  0.6257 -0.2993  0.0813
  981SOL    HW1 2942   2.297   1.385   2.361  1.0235  0.5829 -1.3029
  981SOL    HW2 2943   2.207   1.297   2.261 -1.7351 -1.7317  2.8862
  982SOL     OW 2944   0.417   2.156   1.715 -0.3261 -0.2193 -0.1594
  982SOL    HW1 2945   0.408   2.254   1.687  0.0127  0.2797  0.3336
  982SOL    HW2 2946   0.413   2.157   1.817  0.0125 -1.0560  3.0126
  983SOL     OW 2947   1.525   2.688   2.025 -0.4845  0.0882 -0.5635
  983SOL    HW1 2948   1.521   2.784   1.988 -2.0614 -0.4107 -0.4788
  983SOL    HW2 2949   1.506   2.621   1.950  1.0700  2.3349  2.0285
  984SOL     OW 2950   3.045   0.144   2.790 -0.8346 -0.0711  0.4292
  984SOL    HW1 2951   3.004   0.205   2.862  0.4191  0.2653 -0.8100
  984SOL    HW2 2952   3.030   0.047   2.817 -0.0323  0.3593 -1.1512
  985SOL     OW 2953   1.477   1.339   1.819 -0.1903  0.0623 -0.2406
  985SOL    HW1 2954   1.527   1.359   1.731  1.7189  0.6473  0.5410
  985SOL    HW2 2955   1.400   1.273   1.804  0.8876  0.2353 -1.0722
  986SOL     OW 2956   1.684   0.461   0.022 -0.0037 -0.8424  0.0301
  986SOL    HW1 2957   1.775   0.505   0.034 -2.2350 -0.6362 -1.0162
  986SOL    HW2 2958   1.625   0.512  -0.044  0.4946 -0.9865  1.0780
  987SOL     OW 2959   0.256   2.252   2.453  0.2936 -0.4520  0.3108
  987SOL    HW1 2960   0.333   2.306   2.495 -0.2897  1.3777  0.6603
  987SOL    HW2 2961   0.248   2.168   2.512 -1.9661  1.8533  2.7084
  988SOL     OW 2962   2.834   0.235   1.578 -0.0518 -0.2699 -0.2071
  988SOL    HW1 2963   2.925   0.198   1.548  0.6079 -0.0159  0.8582
  988SOL    HW2 2964   2.764   0.213   1.507  1.0785  3.6908 -1.3824
  989SOL     OW 2965   2.064   3.053   1.007  0.3662 -0.0750 -0.0123
  989SOL    HW1 2966   2.068   2.972   0.946 -1.7118 -0.5961  0.8671
  989SOL    HW2 2967   2.089   3.133   0.949  0.8371  1.6586  1.2274
  990SOL     OW 2968   2.757   0.829   0.178 -0.1132  0.9927 -0.3023
  990SOL    HW1 2969   2.772   0.885   0.093 -2.0266  0.9351  0.5677
  990SOL    HW2 2970   2.790   0.733   0.161  0.1168  3.0854  0.5476
  991SOL     OW 2971   0.287   1.037   0.621 -0.5378 -0.0650 -0.5830
  991SOL    HW1 2972   0.215   1.109   0.620 -0.9707 -0.8313 -3.6032
  991SOL    HW2 2973   0.348   1.048   0.702 -0.4348  0.3913 -0.5310
  992SOL     OW 2974   1.747   1.611   1.530  0.6214 -0.2834 -0.2451
  992SOL    HW1 2975   1.745   1.701   1.482  1.9769  0.5363 -0.5100
  992SOL    HW2 2976   1.788   1.625   1.623 -3.0885  1.1501 -3.6675
  993SOL     OW 2977   2.946   2.371   0.922 -0.2495 -0.1310 -0.2879
  993SOL    HW1 2978   2.963   2.306   0.998  2.6647 -0.3799  1.2977
  993SOL    HW2 2979   2.872   2.335   0.862 -1.5042 -1.2482 -1.6675
  994SOL     OW 2980   3.049   1.812   1.320  0.0062  0.4716  0.4328
  994SOL    HW1 2981   2.950   1.836   1.306  0.1857  0.1326 -0.3994
  994SOL    HW2 2982   3.071   1.815   1.419 -0.9850  1.8734 -2.1121
  995SOL     OW 2983   2.048   1.216   2.810 -0.1057  0.1538  0.0889
  995SOL    HW1 2984   1.981   1.149   2.849  0.5598 -1.8044  1.2007
  995SOL    HW2 2985   2.022   1.312   2.833  0.2035 -0.1307 -0.4144
  996SOL     OW 2986   1.861   2.384   0.545 -0.2142 -0.9302  0.0834
  996SOL    HW1 2987   1.831   2.371   0.448 -0.3074 -1.6378  0.4002
  996SOL    HW2 2988   1.910   2.304   0.583 -1.6718 -1.0599 -2.2255
  997SOL     OW 2989   1.400   1.578   1.918  0.2536 -0.1271  0.2501
  997SOL    HW1 2990   1.336   1.625   1.854  0.5842  2.4700 -0.9163
  997SOL    HW2 2991   1.420   1.484   1.882  2.9804 -2.2510 -1.1062
  998SOL     OW 2992   3.010   2.541   0.483 -0.9510  0.7364 -0.2265
  998SOL    HW1 2993   3.044   2.447   0.506 -1.6503  0.7796  0.2184
  998SOL    HW2 2994   3.012   2.600   0.566 -0.0641 -0.4554 -2.0556
  999SOL     OW 2995   0.625   2.969   0.067 -0.3621 -0.4211  0.1118
  999SOL    HW1 2996   0.599   2.885   0.015 -0.1588 -2.5046 -2.0788
  999SOL    HW2 2997   0.613   3.053   0.011  2.0961 -0.1829 -0.0345
 1000SOL     OW 2998   0.877   0.242   0.100 -0.9076  0.2620 -0.5877
 1000SOL    HW1 2999   0.969   0.281   0.078 -0.4977  2.1526  1.4101
 1000SOL    HW2 3000   0.823   0.249   0.014 -1.4909  0.9559  0.4693
   3.06390   3.06390   3.06390
