1000 SPC/Fw water molecules
 3000
    1SOL     OW    1   1.537   3.417   0.308  0.0155  0.0723  0.2886
    1SOL    HW1    2   1.490   3.507   0.293 -2.2294  2.2622  0.7722
    1SOL    HW2    3   1.490   3.366   0.385  2.7278 -1.5094 -0.3997
    2SOL     OW    4   1.810   0.854   1.780 -0.4860  0.1824  0.2330
    2SOL    HW1    5   1.897   0.830   1.728  0.4803  1.4872 -1.5027
    2SOL    HW2    6   1.821   0.935   1.844 -1.9202  0.0082 -1.0063
    3SOL     OW    7   0.772   0.096   2.840  0.1280 -0.2798  0.0356
    3SOL    HW1    8   0.778   0.195   2.866 -0.3285 -1.7701 -0.7415
    3SOL    HW2    9   0.722   0.039   2.909  2.4102 -0.8206  2.1495
    4SOL     OW   10   1.889   2.022   3.511  0.4830  0.2806  0.2956
    4SOL    HW1   11   1.929   2.113   3.481 -0.7759  0.6366  0.4261
    4SOL    HW2   12   1.847   2.035   3.604  0.1508 -0.2902  1.1111
    5SOL     OW   13   0.949   1.496   2.420  0.0748 -0.0706  0.0721
    5SOL    HW1   14   0.965   1.395   2.437 -2.7700 -2.5670  2.1828
    5SOL    HW2   15   1.040   1.544   2.413 -0.6246 -0.1015  1.7095
    6SOL     OW   16   2.806   1.162   2.638  0.1549  0.5244 -0.0342
    6SOL    HW1   17   2.865   1.108   2.702 -2.9729  1.4420 -0.8808
    6SOL    HW2   18   2.760   1.099   2.572  3.3091  0.9707 -0.5945
    7SOL     OW   19   0.006   1.046   1.585  0.2026 -0.2901 -0.2892
    7SOL    HW1   20  -0.041   1.134   1.611 -0.7943  1.8018 -1.8703
    7SOL    HW2   21   0.097   1.060   1.541  1.9148  1.1525  0.1259
    8SOL     OW   22   2.681   3.017   2.347 -0.0965 -0.1515 -0.0130
    8SOL    HW1   23   2.667   3.037   2.247 -0.4118  0.0222  1.0899
    8SOL    HW2   24   2.693   3.104   2.401  1.6282  0.6473 -0.0335
    9SOL     OW   25   0.120   3.151   0.387  0.2582  0.4733 -0.0065
    9SOL    HW1   26   0.056   3.111   0.456 -0.2386  0.0539 -0.9298
    9SOL    HW2   27   0.202   3.090   0.370 -2.6035 -0.0963 -0.6765
   10SOL     OW   28   0.104   2.889   2.963  0.4315  0.5175  0.7736
   10SOL    HW1   29   0.148   2.973   2.922 -0.2304 -3.2139  2.1545
   10SOL    HW2   30   0.163   2.806   2.947  2.5362  0.1866  1.5583
   11SOL     OW   31   0.204   2.152   0.141 -0.0151 -0.0694 -0.3896
   11SOL    HW1   32   0.280   2.082   0.148 -0.2991 -0.9369  3.9483
   11SOL    HW2   33   0.162   2.164   0.235 -2.0916  1.1664 -2.0563
   12SOL     OW   34   2.742   3.496   0.511  0.4172 -0.2868  0.1338
   12SOL    HW1   35   2.826   3.551   0.490 -0.7933  1.5728  1.6338
   12SOL    HW2   36   2.721   3.439   0.428  0.0285 -0.6468  0.8223
   13SOL     OW   37   0.296   0.534   3.082  0.5079 -0.7874  0.4239
   13SOL    HW1   38   0.214   0.471   3.077 -1.4136  0.6561 -0.7377
   13SOL    HW2   39   0.263   0.631   3.078 -2.8103 -0.1817 -0.4715
   14SOL     OW   40   1.568   0.857   1.625  0.6485  0.0574  0.6021
   14SOL    HW1   41   1.652   0.850   1.683 -2.2287  0.4192  1.0140
   14SOL    HW2   42   1.593   0.841   1.527  3.1245  1.4402  0.3462
   15SOL     OW   43   0.756   1.633   2.604  0.3497  0.0180  0.7793
   15SOL    HW1   44   0.702   1.702   2.550 -1.6720  0.6898 -0.2828
   15SOL    HW2   45   0.831   1.595   2.545  1.3163  0.0585 -2.2676
   16SOL     OW   46   2.109   1.009   3.283  0.2245  0.6392 -0.4274
   16SOL    HW1   47   2.008   1.018   3.298 -0.0072  1.2872  0.0740
   16SOL    HW2   48   2.128   1.013   3.180  0.3810  0.5374  1.2013
   17SOL     OW   49   0.164   2.849   2.467 -0.1116 -0.9621 -0.0089
   17SOL    HW1   50   0.125   2.929   2.518  0.3084 -0.2549  0.2370
   17SOL    HW2   51   0.096   2.813   2.400  0.0533 -3.3846  1.1726
   18SOL     OW   52   1.755   1.402   1.008  0.4662  0.3922 -0.2624
   18SOL    HW1   53   1.795   1.310   0.982 -1.3072 -0.2308  0.1165
   18SOL    HW2   54   1.656   1.411   0.979 -0.5175  0.0072  0.7607
   19SOL     OW   55   0.162   1.288   1.982 -0.8108  0.5570 -0.6480
   19SOL    HW1   56   0.238   1.344   1.941 -1.8533 -0.8086  0.6949
   19SOL    HW2   57   0.201   1.239   2.066  0.9816  1.7643 -1.7624
   20SOL     OW   58   2.127   2.447   3.134  0.7203 -0.0699 -0.0966
   20SOL    HW1   59   2.100   2.533   3.084  0.0538 -1.1351 -0.5659
   20SOL    HW2   60   2.165   2.461   3.229  2.2297 -2.7058 -1.3996
   21SOL     OW   61   1.981   1.923   1.221  0.3341 -0.2661  0.4518
   21SOL    HW1   62   2.052   1.988   1.259  1.9280 -0.2033  1.8020
   21SOL    HW2   63   2.009   1.826   1.239 -1.7366  0.8261  0.9748
   22SOL     OW   64   2.322   2.660   1.655 -0.3584  0.1636  0.2718
   22SOL    HW1   65   2.233   2.612   1.676  0.6203  0.0246 -0.1502
   22SOL    HW2   66   2.313   2.716   1.568 -1.2766  0.7004  4.1776
   23SOL     OW   67   3.119   1.285   1.555  1.0271 -0.1671  0.1504
   23SOL    HW1   68   3.146   1.190   1.580 -1.9611  0.6070 -0.3251
   23SOL    HW2   69   3.080   1.288   1.459 -1.0074 -0.0075  0.9647
   24SOL     OW   70   2.369   1.709   1.998  0.1630 -0.0154 -0.8215
   24SOL    HW1   71   2.306   1.783   2.030 -0.0885  0.6522 -2.8488
   24SOL    HW2   72   2.436   1.684   2.073  1.5508  1.7277 -1.1008
   25SOL     OW   73   2.057   3.438   3.039 -0.1833 -0.2969  0.3758
   25SOL    HW1   74   2.127   3.514   3.051  1.5820  2.2226 -3.4732
   25SOL    HW2   75   1.998   3.458   2.958 -2.1681  0.7693  2.4859
   26SOL     OW   76   0.434   3.164   0.754  0.6669 -0.5072 -0.6425
   26SOL    HW1   77   0.520   3.197   0.800 -0.7039  0.7054 -0.9763
   26SOL    HW2   78   0.453   3.088   0.685 -0.5702 -0.4813  0.6525
   27SOL     OW   79   1.416   1.450   0.888 -0.6603 -0.2716 -0.2193
   27SOL    HW1   80   1.407   1.403   0.979 -0.8036 -1.4049  0.1661
   27SOL    HW2   81   1.327   1.488   0.856  0.4713 -1.8860  1.2797
   28SOL     OW   82   2.268   2.813   1.402 -0.7505 -0.0763  0.2527
   28SOL    HW1   83   2.346   2.820   1.333 -2.0155 -2.1084  0.3891
   28SOL    HW2   84   2.172   2.805   1.359 -0.6947  2.2955  1.6076
   29SOL     OW   85   2.559   3.276   2.739 -0.1615 -0.1334  0.3188
   29SOL    HW1   86   2.641   3.249   2.795 -0.2799  0.4996 -0.3502
   29SOL    HW2   87   2.474   3.243   2.788 -0.9560  0.9574 -1.0216
   30SOL     OW   88   0.111   3.246   2.196 -0.1363 -0.0710  0.1420
   30SOL    HW1   89   0.013   3.219   2.210  1.4770 -0.7830 -0.9561
   30SOL    HW2   90   0.126   3.334   2.248  1.0801  1.7347  0.5859
   31SOL     OW   91   3.496   2.110   2.784 -0.6536  0.0590  0.3682
   31SOL    HW1   92   3.566   2.157   2.843  0.0564 -0.6784 -2.9436
   31SOL    HW2   93   3.536   2.074   2.696 -1.9361 -0.8050 -0.9338
   32SOL     OW   94   1.211   2.909   2.636 -0.0256  0.6032  0.2160
   32SOL    HW1   95   1.134   2.893   2.702  2.5728 -1.9434  0.9186
   32SOL    HW2   96   1.300   2.877   2.674  0.3303 -0.4906  1.6956
   33SOL     OW   97   0.027   0.595   0.019  0.0637 -0.3786 -0.2971
   33SOL    HW1   98   0.048   0.690  -0.013  0.4526 -0.1343 -0.8118
   33SOL    HW2   99   0.109   0.536   0.006 -0.1272  0.4477 -0.1999
   34SOL     OW  100   3.216   0.197   0.099  0.2970 -0.6271 -0.3894
   34SOL    HW1  101   3.291   0.144   0.144 -1.9707  2.0294  0.1328
   34SOL    HW2  102   3.147   0.138   0.050 -0.4704 -1.8900  0.9271
   35SOL     OW  103   3.355   3.214   1.946 -0.3299  0.3807 -0.5302
   35SOL    HW1  104   3.394   3.186   2.037  0.4504  0.1076  0.1725
   35SOL    HW2  105   3.397   3.305   1.917 -1.0399 -1.3624  1.9475
   36SOL     OW  106   2.684   3.603   3.167  0.3588 -0.1486 -0.1773
   36SOL    HW1  107   2.598   3.551   3.186 -2.5474 -0.3844  0.7047
   36SOL    HW2  108   2.756   3.533   3.143 -0.7066 -1.7061  0.7866
   37SOL     OW  109   2.110   3.025   0.099 -0.0000  0.0844  0.5968
   37SOL    HW1  110   2.091   3.005   0.001  0.7131  1.0343 -0.3992
   37SOL    HW2  111   2.038   3.083   0.146  0.3506  0.5561 -2.1745
   38SOL     OW  112   0.543   0.206   0.819  0.6025 -0.1232  0.9737
   38SOL    HW1  113   0.505   0.292   0.774 -0.4889  5.2991  0.5133
   38SOL    HW2  114   0.606   0.160   0.750 -2.0707 -1.4609  0.6333
   39SOL     OW  115   1.298   2.147   2.530  0.1854 -0.0242  0.6683
   39SOL    HW1  116   1.218   2.149   2.595  0.7271  3.7264  0.4155
   39SOL    HW2  117   1.339   2.240   2.510  0.0540  4.3920 -1.7189
   40SOL     OW  118   3.625   1.144   0.223  0.2159 -0.2603 -0.0429
   40SOL    HW1  119   3.537   1.173   0.270 -0.3265 -1.7579 -0.3224
   40SOL    HW2  120   3.663   1.218   0.163  4.3305 -0.7326 -1.8270
   41SOL     OW  121   1.934   0.067   2.509  0.1987  0.5286  0.0081
   41SOL    HW1  122   1.846   0.115   2.535  1.1626  0.6309 -0.5542
   41SOL    HW2  123   1.918   0.004   2.428 -2.4500 -0.5172  0.5165
   42SOL     OW  124   2.876   0.145   1.296  0.6050  0.2370  0.5453
   42SOL    HW1  125   2.973   0.149   1.259 -0.7190  0.5164 -1.8860
   42SOL    HW2  126   2.860   0.055   1.344  1.3784 -1.1832 -3.1252
   43SOL     OW  127   1.821   0.289   1.395  0.2862  0.6853  0.4556
   43SOL    HW1  128   1.878   0.267   1.479  0.6395  0.9986 -0.8442
   43SOL    HW2  129   1.839   0.219   1.320 -0.5435 -1.0941  1.4008
   44SOL     OW  130   0.354   1.043   3.583 -0.0688  0.1626 -0.0713
   44SOL    HW1  131   0.440   0.989   3.571  1.7496 -0.7326 -0.4444
   44SOL    HW2  132   0.357   1.108   3.662  1.6922  2.9920 -0.3823
   45SOL     OW  133   0.749   1.782   2.028 -0.0415  0.0818  0.1984
   45SOL    HW1  134   0.782   1.769   1.931 -0.4599 -2.6951 -2.1379
   45SOL    HW2  135   0.746   1.696   2.082  0.6015 -0.7140  0.6211
   46SOL     OW  136   2.628   2.669   2.013 -0.2955 -0.0594 -0.5059
   46SOL    HW1  137   2.583   2.582   2.051 -0.9002 -1.3761 -1.2996
   46SOL    HW2  138   2.731   2.678   2.026  0.3616 -1.3009  2.1758
   47SOL     OW  139   0.434   2.149   1.675  0.3901 -0.2063 -0.0463
   47SOL    HW1  140   0.438   2.174   1.574  0.0872  2.0519 -0.8414
   47SOL    HW2  141   0.389   2.220   1.734  1.5144  2.8386  1.4119
   48SOL     OW  142   1.288   3.265   3.162 -0.5034  0.1839 -0.4083
   48SOL    HW1  143   1.261   3.187   3.099 -0.1279  1.4659  1.5033
   48SOL    HW2  144   1.205   3.310   3.199  2.1252  0.3451 -4.1042
   49SOL     OW  145   3.225   1.968   2.222  0.2776 -0.3430 -0.3494
   49SOL    HW1  146   3.189   2.021   2.141  0.6338  1.2812  2.1569
   49SOL    HW2  147   3.221   1.866   2.206  1.7836  1.3237 -3.9447
   50SOL     OW  148   1.072   3.393   0.413 -0.3040 -0.0636 -0.3057
   50SOL    HW1  149   1.135   3.414   0.492  0.3121 -1.8512  2.7857
   50SOL    HW2  150   1.043   3.485   0.372 -3.9178  0.1017 -2.1986
   51SOL     OW  151   1.351   0.217   1.070 -0.0281 -0.3697 -0.0418
   51SOL    HW1  152   1.402   0.250   0.988  1.3497 -2.2649 -1.7633
   51SOL    HW2  153   1.391   0.129   1.104  1.2686 -0.4004  0.1932
   52SOL     OW  154   0.186   0.969   0.750 -0.3554  0.3765 -0.0853
   52SOL    HW1  155   0.144   0.957   0.656 -1.9845  0.7685 -0.7914
   52SOL    HW2  156   0.243   1.054   0.750 -0.0682  0.2772 -1.6524
   53SOL     OW  157   1.173   0.203   3.304 -0.6366 -0.2108  0.3482
   53SOL    HW1  158   1.246   0.155   3.358 -0.8202  0.7194 -0.0092
   53SOL    HW2  159   1.133   0.139   3.235 -0.5385  1.0850  2.0425
   54SOL     OW  160   2.495   0.585   2.523  0.2732  0.1470  0.8271
   54SOL    HW1  161   2.530   0.592   2.619  3.7590 -0.4115 -0.1129
   54SOL    HW2  162   2.461   0.489   2.506 -0.9075 -3.8370  0.4162
   55SOL     OW  163   2.973   0.016   0.435  0.3865  0.2510  0.1895
   55SOL    HW1  164   3.049  -0.012   0.500 -0.6437 -0.6852  0.2062
   55SOL    HW2  165   3.007   0.011   0.337 -1.0624  1.2632 -0.7284
   56SOL     OW  166   0.943   0.429   2.616 -0.3125  0.4713 -0.2152
   56SOL    HW1  167   0.870   0.419   2.546  2.1848 -1.4272 -2.3599
   56SOL    HW2  168   1.001   0.344   2.616  0.8779 -0.7350  0.5820
   57SOL     OW  169   2.035   1.166   2.720 -0.1313  0.2422  0.6690
   57SOL    HW1  170   2.003   1.264   2.721  2.5784  3.0562 -1.6382
   57SOL    HW2  171   2.092   1.149   2.636  0.1553 -0.3884 -0.9824
   58SOL     OW  172   0.284   1.034   2.300 -0.4474  0.4273 -0.0857
   58SOL    HW1  173   0.323   1.120   2.340  1.8408  1.4689  0.8512
   58SOL    HW2  174   0.270   0.969   2.380  0.4256  0.1160 -0.7139
   59SOL     OW  175   1.028   3.177   2.227  0.5812 -0.2687 -0.6772
   59SOL    HW1  176   0.929   3.170   2.256 -2.8274  2.3358 -1.3763
   59SOL    HW2  177   1.084   3.169   2.313 -0.6698 -1.9366 -2.0574
   60SOL     OW  178   2.558   3.073   0.366 -0.5908 -0.2266 -0.3646
   60SOL    HW1  179   2.476   3.093   0.424 -2.6489 -1.4092 -0.0802
   60SOL    HW2  180   2.567   2.974   0.338 -0.8621  2.2609 -0.3148
   61SOL     OW  181   1.707   3.120   0.425 -0.6728  0.2032  0.5619
   61SOL    HW1  182   1.621   3.163   0.462  0.3452  1.8472 -1.3446
   61SOL    HW2  183   1.721   3.023   0.456  1.5221  1.8324 -1.3418
   62SOL     OW  184   2.604   3.056   3.505  0.4066  0.1836  0.7918
   62SOL    HW1  185   2.622   2.956   3.518  0.3704  1.7281  1.3566
   62SOL    HW2  186   2.535   3.087   3.575  0.6749 -3.3846  0.8385
   63SOL     OW  187   3.075   1.102   0.724  0.2373 -0.0378 -0.2803
   63SOL    HW1  188   3.062   1.084   0.623 -3.5103  1.3319  0.9397
   63SOL    HW2  189   3.175   1.088   0.750 -0.2114  0.7433 -3.5419
   64SOL     OW  190   1.872   1.187   0.093 -0.2531 -0.0177  0.2121
   64SOL    HW1  191   1.884   1.285   0.118 -1.0678  0.4000 -0.5221
   64SOL    HW2  192   1.772   1.162   0.093  1.8485  0.6577  1.3854
   65SOL     OW  193   0.515   2.887   2.014  0.4713 -0.1571  0.1858
   65SOL    HW1  194   0.496   2.946   1.929  1.7595 -0.5242  0.3896
   65SOL    HW2  195   0.458   2.927   2.090  1.4143  1.5900  0.2837
   66SOL     OW  196   1.185   1.501   1.535  0.4527  0.2540  0.1466
   66SOL    HW1  197   1.216   1.404   1.529  1.5240  1.3388  0.4363
   66SOL    HW2  198   1.194   1.550   1.444 -1.8576 -0.4816  1.4267
   67SOL     OW  199   2.937   2.213   2.310 -0.6258 -0.4278 -0.1266
   67SOL    HW1  200   3.005   2.200   2.232 -0.6784 -1.1292 -2.2954
   67SOL    HW2  201   2.938   2.137   2.379 -4.4726  0.1910  0.3247
   68SOL     OW  202   1.405   2.020   2.064  0.3636 -0.5881  0.3783
   68SOL    HW1  203   1.402   1.951   1.989  1.5928  1.4490  1.7602
   68SOL    HW2  204   1.352   1.991   2.147 -0.2184 -1.5437  0.3776
   69SOL     OW  205   3.167   0.479   0.090 -0.1277  0.2076 -0.1700
   69SOL    HW1  206   3.077   0.489   0.038 -4.0563 -1.2637 -1.0010
   69SOL    HW2  207   3.190   0.379   0.104 -1.0130 -0.3844  3.5031
   70SOL     OW  208   2.568   1.360   2.661 -0.4491 -0.1780  0.3051
   70SOL    HW1  209   2.650   1.298   2.658 -0.8364  1.3831  0.4739
   70SOL    HW2  210   2.517   1.343   2.749 -0.6284 -3.5990  3.2984
   71SOL     OW  211   1.234   2.490   0.811 -0.3830  0.1777 -0.4795
   71SOL    HW1  212   1.301   2.448   0.745  0.8548 -1.6892  1.3296
   71SOL    HW2  213   1.282   2.562   0.867 -1.9071 -1.2814  0.6802
   72SOL     OW  214   2.650   2.075   0.725  0.5478 -0.0389 -0.7040
   72SOL    HW1  215   2.717   2.153   0.731 -1.1015 -0.0364  1.6104
   72SOL    HW2  216   2.595   2.062   0.810 -1.0753  3.6122  0.0635
   73SOL     OW  217   1.262   1.084   0.650  0.2588  0.0105  0.3266
   73SOL    HW1  218   1.189   1.137   0.697  2.3519 -1.0868 -1.0510
   73SOL    HW2  219   1.222   1.011   0.591 -2.5788 -0.7585 -2.6016
   74SOL     OW  220   3.119   2.505   2.581 -0.2753  0.5706 -0.5215
   74SOL    HW1  221   3.145   2.406   2.603  0.4553  2.5951  1.5481
   74SOL    HW2  222   3.133   2.533   2.483  0.5747  0.2664 -0.1838
   75SOL     OW  223   1.986   1.940   2.314  0.1961 -0.3139 -0.5011
   75SOL    HW1  224   1.891   1.910   2.289  0.0483 -1.0947  2.3036
   75SOL    HW2  225   2.021   1.882   2.391  4.2974  2.1643 -1.5364
   76SOL     OW  226   1.448   1.835   1.329 -0.2675  0.3453  0.7903
   76SOL    HW1  227   1.368   1.788   1.281 -0.7360  0.8176 -1.1919
   76SOL    HW2  228   1.495   1.900   1.262 -3.0883  0.6917  1.3748
   77SOL     OW  229   2.769   1.050   2.003 -0.0419  0.5476  0.6506
   77SOL    HW1  230   2.697   1.083   2.067  0.5444  1.9169  1.6887
   77SOL    HW2  231   2.789   0.949   2.012 -0.0399 -1.4576  0.9897
   78SOL     OW  232   1.957   0.742   0.359 -0.2707 -0.0996  1.0594
   78SOL    HW1  233   1.976   0.803   0.278 -1.7536  0.2562 -1.0886
   78SOL    HW2  234   1.865   0.764   0.402  0.3530 -0.1039  3.3378
   79SOL     OW  235   1.225   1.944   2.317 -0.2259  0.5598 -0.2649
   79SOL    HW1  236   1.249   2.006   2.396 -0.7523  1.7228 -1.9313
   79SOL    HW2  237   1.128   1.953   2.284 -1.6839 -2.5651  0.4338
   80SOL     OW  238   1.155   0.443   1.673 -0.5442 -0.8012  0.4410
   80SOL    HW1  239   1.179   0.543   1.666 -1.2666  1.3533  2.0636
   80SOL    HW2  240   1.161   0.414   1.770 -0.0943 -0.9816  0.5372
   81SOL     OW  241   0.350   2.962   0.288  0.1364 -0.4043  0.0324
   81SOL    HW1  242   0.420   2.967   0.211  2.0295  1.4779  1.0527
   81SOL    HW2  243   0.400   2.935   0.374  1.4147 -1.7861 -0.0106
   82SOL     OW  244   1.250   0.314   2.021 -0.6565  0.4311 -0.0762
   82SOL    HW1  245   1.252   0.336   2.122  0.8487 -1.2381  2.2684
   82SOL    HW2  246   1.343   0.327   1.981  1.5812 -0.2747 -2.0506
   83SOL     OW  247   0.508   2.642   1.173  0.6936  0.0647  0.2205
   83SOL    HW1  248   0.437   2.713   1.154 -0.9794 -2.5829 -2.2439
   83SOL    HW2  249   0.463   2.550   1.188 -3.1055 -1.5764  1.0908
   84SOL     OW  250   2.939   1.435   1.112 -0.1435 -0.0183  0.0133
   84SOL    HW1  251   2.959   1.362   1.181  0.2539 -1.7556  0.5140
   84SOL    HW2  252   2.995   1.418   1.028  3.2757  1.2487  0.1586
   85SOL     OW  253   2.633   2.238   1.336 -0.3346  0.1661 -0.4017
   85SOL    HW1  254   2.579   2.202   1.415  1.7496  2.4545 -3.2522
   85SOL    HW2  255   2.706   2.169   1.314 -2.3643  1.5508 -0.0168
   86SOL     OW  256   1.439   2.509   2.546 -0.3943  0.3677  0.0312
   86SOL    HW1  257   1.370   2.568   2.501  0.3601  1.0192 -0.1137
   86SOL    HW2  258   1.532   2.505   2.501  1.1566 -0.4246 -2.0354
   87SOL     OW  259   2.686   1.518   1.012  0.3634  0.5191  0.5525
   87SOL    HW1  260   2.696   1.585   0.934  1.1510 -0.3230 -0.0545
   87SOL    HW2  261   2.776   1.487   1.051 -1.4234  0.6160  1.8284
   88SOL     OW  262   0.546   3.415   1.146  0.2338 -0.2459 -0.2173
   88SOL    HW1  263   0.485   3.482   1.097 -0.4926  0.8748  0.4886
   88SOL    HW2  264   0.594   3.456   1.227  3.1480  0.8130 -0.5272
   89SOL     OW  265   0.652   1.366   1.768 -0.4078  0.1627  0.0581
   89SOL    HW1  266   0.752   1.362   1.795  0.6224  0.0006 -0.5950
   89SOL    HW2  267   0.631   1.301   1.689  0.7362 -2.9983  0.6270
   90SOL     OW  268   3.162   2.106   0.436  0.0135  1.1133  0.4193
   90SOL    HW1  269   3.137   2.201   0.465  0.9370  5.8291  2.7173
   90SOL    HW2  270   3.265   2.096   0.427 -1.1227 -2.3433 -1.2156
   91SOL     OW  271   0.899   2.271   1.142 -0.1208 -0.4294  0.3557
   91SOL    HW1  272   0.857   2.364   1.154 -1.4176 -1.9611  1.7498
   91SOL    HW2  273   0.861   2.206   1.213  1.9650  3.6745 -0.0905
   92SOL     OW  274   2.509   3.519   2.256 -0.1877  0.1252 -0.0596
   92SOL    HW1  275   2.600   3.553   2.292  1.5125 -0.3712  3.1552
   92SOL    HW2  276   2.440   3.492   2.329 -0.1984 -1.2063 -1.4407
   93SOL     OW  277   0.715   2.282   3.291 -0.0265 -0.0364  0.4589
   93SOL    HW1  278   0.743   2.276   3.390 -1.5118  2.4495  0.1824
   93SOL    HW2  279   0.621   2.246   3.275 -1.9172 -1.9606  3.8494
   94SOL     OW  280   2.787   3.595   2.404  0.0589 -0.3251 -0.8013
   94SOL    HW1  281   2.787   3.668   2.477 -0.5776 -1.8697  2.2258
   94SOL    HW2  282   2.835   3.625   2.319 -0.0687  0.2412  0.2011
   95SOL     OW  283   2.249   0.046   2.071 -0.1111 -0.0662 -0.4563
   95SOL    HW1  284   2.265   0.149   2.069 -1.3490 -1.0789  1.6589
   95SOL    HW2  285   2.318  -0.009   2.123  0.3854  2.3372  1.5994
   96SOL     OW  286   0.813   0.897   2.523 -0.0467 -0.0336  0.3698
   96SOL    HW1  287   0.760   0.911   2.611  0.4670  0.2886  0.9166
   96SOL    HW2  288   0.819   0.985   2.470 -0.2362 -2.6136 -1.5210
   97SOL     OW  289   2.353   3.446   1.731 -0.3086  0.6698 -0.5368
   97SOL    HW1  290   2.267   3.484   1.773 -0.9388 -0.5202  2.8663
   97SOL    HW2  291   2.336   3.359   1.680  0.9962  0.5076  3.7168
   98SOL     OW  292   1.994   2.608   1.869  0.7497  0.1788  0.0615
   98SOL    HW1  293   2.021   2.659   1.956  1.6041  1.0456 -2.1240
   98SOL    HW2  294   1.981   2.507   1.887 -2.1643  2.2213 -2.5035
   99SOL     OW  295   0.441   0.843   1.267  0.2099  0.2648  0.0370
   99SOL    HW1  296   0.385   0.930   1.255  1.7555  0.4684  1.0491
   99SOL    HW2  297   0.495   0.828   1.181  4.0489 -1.7205 -2.4932
  100SOL     OW  298   3.496   2.353   2.312  0.3914 -0.6013  0.2849
  100SOL    HW1  299   3.449   2.264   2.333  1.6106  1.7697 -0.6549
  100SOL    HW2  300   3.576   2.365   2.376  0.3177  1.3806 -0.5794
  101SOL     OW  301   1.283   0.404   0.043 -0.0618 -0.4518  0.5184
  101SOL    HW1  302   1.379   0.370   0.052 -0.4331  1.1730 -1.1075
  101SOL    HW2  303   1.266   0.452  -0.049 -2.0999  0.7054 -3.4963
  102SOL     OW  304   3.317   0.141   1.465 -0.7270 -0.0931  0.3290
  102SOL    HW1  305   3.401   0.201   1.464  1.2501 -4.2649  0.1613
  102SOL    HW2  306   3.250   0.174   1.537 -0.0082  1.5772 -1.5046
  103SOL     OW  307   0.176   3.480   2.990  0.4820  0.8787  0.2036
  103SOL    HW1  308   0.192   3.573   2.947 -0.4230  0.4773 -0.0511
  103SOL    HW2  309   0.077   3.466   3.012  1.3636  0.3901  1.4008
  104SOL     OW  310   0.180   2.853   1.416  0.5122  0.2974 -0.1006
  104SOL    HW1  311   0.103   2.912   1.449  0.5887 -1.5832 -0.2594
  104SOL    HW2  312   0.271   2.895   1.441 -0.9390  1.5705  0.1867
  105SOL     OW  313   0.588   1.787   2.405  0.0950  0.0039 -0.2658
  105SOL    HW1  314   0.535   1.704   2.375 -1.2295 -2.3315  0.2459
  105SOL    HW2  315   0.536   1.871   2.376  0.7266 -2.4567 -0.7015
  106SOL     OW  316   3.125   3.252   0.642 -0.2456  0.9494  0.1093
  106SOL    HW1  317   3.107   3.227   0.741  3.5160  1.2187  0.4746
  106SOL    HW2  318   3.144   3.352   0.635 -1.1119  1.5824  1.3441
  107SOL     OW  319   0.804   1.350   1.097  0.7226  0.1721 -0.7298
  107SOL    HW1  320   0.760   1.358   1.190 -2.0067  1.1472  1.3559
  107SOL    HW2  321   0.887   1.289   1.102 -2.4217 -3.3033  3.1478
  108SOL     OW  322   3.446   1.327   2.554 -0.1116 -0.2761 -0.3311
  108SOL    HW1  323   3.405   1.423   2.559 -0.3725 -1.9227 -1.4385
  108SOL    HW2  324   3.550   1.326   2.551  1.0953 -1.3343  2.0670
  109SOL     OW  325   2.417   3.109   0.091 -0.3375  0.6680 -0.6407
  109SOL    HW1  326   2.316   3.084   0.090  2.4941 -1.6888  1.2084
  109SOL    HW2  327   2.460   3.101   0.185 -0.1368 -0.1350 -1.9426
  110SOL     OW  328   0.291   2.572   0.080 -0.6888  0.1575  0.2939
  110SOL    HW1  329   0.244   2.493   0.034 -0.1526  0.5872 -2.1776
  110SOL    HW2  330   0.225   2.639   0.124 -2.1226  1.6409  1.3148
  111SOL     OW  331   3.160   1.133   3.203  0.0745 -0.1202 -0.3897
  111SOL    HW1  332   3.149   1.174   3.108 -0.7182  0.0415  2.7704
  111SOL    HW2  333   3.066   1.125   3.244  0.5454 -2.2179 -2.2912
  112SOL     OW  334   2.641   3.091   2.073 -0.6076 -0.2785  0.2335
  112SOL    HW1  335   2.626   3.190   2.048 -0.0773  3.2087 -2.2581
  112SOL    HW2  336   2.574   3.026   2.030  2.1048  2.5875  1.7064
  113SOL     OW  337   2.594   2.226   3.127 -0.2192  0.1939  0.7664
  113SOL    HW1  338   2.604   2.130   3.163 -2.9092  0.7656 -2.5324
  113SOL    HW2  339   2.642   2.231   3.037  1.1054  0.5688 -1.1568
  114SOL     OW  340   0.757   3.606   0.661  0.0217 -0.1694  0.2789
  114SOL    HW1  341   0.747   3.517   0.713  1.2007  0.1641  0.9083
  114SOL    HW2  342   0.837   3.658   0.697  0.9410  1.4253  0.2416
  115SOL     OW  343   0.143   1.997   3.418  0.0556 -0.4406  0.2098
  115SOL    HW1  344   0.118   2.088   3.464  3.5699  0.8581 -0.7538
  115SOL    HW2  345   0.242   1.976   3.433 -0.7044 -0.5699  1.2485
  116SOL     OW  346   3.385   1.575   1.966 -0.0854  0.8700 -0.2855
  116SOL    HW1  347   3.424   1.482   1.949 -2.1550  4.6257  1.6831
  116SOL    HW2  348   3.453   1.634   2.017 -0.1698  0.6008 -0.7210
  117SOL     OW  349   2.461   0.247   1.744 -0.1788  0.4091  0.3787
  117SOL    HW1  350   2.502   0.159   1.708  0.3994 -0.0812  0.0561
  117SOL    HW2  351   2.370   0.272   1.701 -1.5000 -0.7076  0.8982
  118SOL     OW  352   3.250   2.588   2.846 -0.4520  0.3950 -0.1602
  118SOL    HW1  353   3.200   2.554   2.762 -5.2263 -0.1719 -3.3412
  118SOL    HW2  354   3.323   2.656   2.819 -1.1567 -1.5321 -0.2819
  119SOL     OW  355   0.455   1.901   2.023  0.6501 -0.0345 -0.6501
  119SOL    HW1  356   0.444   1.962   1.938  1.8461 -0.2158 -4.7130
  119SOL    HW2  357   0.549   1.861   2.025 -1.6589 -0.0149  1.0817
  120SOL     OW  358   0.269   1.675   2.064 -0.1212 -0.8187 -0.2000
  120SOL    HW1  359   0.294   1.601   1.994  0.6888  0.6715 -1.7705
  120SOL    HW2  360   0.332   1.756   2.050 -1.9975  0.1763 -0.3850
  121SOL     OW  361   1.835   1.150   0.909 -0.2654  0.3410 -0.2435
  121SOL    HW1  362   1.759   1.085   0.883 -1.5840  0.2801  0.6077
  121SOL    HW2  363   1.924   1.119   0.867 -0.8946  0.3828  0.9589
  122SOL     OW  364   2.908   2.752   3.168  1.0732 -0.4690 -0.3401
  122SOL    HW1  365   2.851   2.827   3.123 -0.0334  1.3551 -2.3841
  122SOL    HW2  366   2.842   2.680   3.202 -0.3465 -0.0109  0.7020
  123SOL     OW  367   3.547   0.502   0.541 -0.7505  0.3471  0.3464
  123SOL    HW1  368   3.521   0.515   0.640 -0.1454 -3.1883  3.3029
  123SOL    HW2  369   3.532   0.405   0.507  0.3091  1.9194  0.0068
  124SOL     OW  370   1.908   1.480   0.190  0.4505  0.5188 -0.4103
  124SOL    HW1  371   1.948   1.475   0.286 -0.3505 -1.0917  1.1080
  124SOL    HW2  372   1.970   1.538   0.131 -0.2073  2.1334 -0.5274
  125SOL     OW  373   3.610   0.947   2.713 -0.1577  0.1273  0.6903
  125SOL    HW1  374   3.671   0.978   2.791  1.1544 -2.6234  0.4269
  125SOL    HW2  375   3.667   0.899   2.641 -0.1313  2.4133  1.7156
  126SOL     OW  376   3.268   3.323   0.203  0.3285  0.0743 -0.1699
  126SOL    HW1  377   3.262   3.284   0.108 -1.1902  1.3778 -0.7771
  126SOL    HW2  378   3.265   3.247   0.273 -2.1124 -0.2607  0.2481
  127SOL     OW  379   3.263   2.155   3.616 -0.2758 -0.3066  0.3480
  127SOL    HW1  380   3.166   2.184   3.638 -0.6045 -1.2864 -0.2901
  127SOL    HW2  381   3.274   2.053   3.630  1.7938 -0.3567 -1.1518
  128SOL     OW  382   1.057   1.213   0.779  0.2328  0.1236  0.0064
  128SOL    HW1  383   0.961   1.234   0.749  0.3014  0.3460  2.8146
  128SOL    HW2  384   1.066   1.218   0.882 -0.6385 -0.1335 -1.0898
  129SOL     OW  385   2.481   2.347   1.123  0.5659  0.4389  0.2817
  129SOL    HW1  386   2.536   2.308   1.201 -0.7552  1.2569 -2.1138
  129SOL    HW2  387   2.437   2.437   1.150 -0.5934 -2.4608  1.2023
  130SOL     OW  388   2.218   1.062   0.240  0.4172 -0.1749 -0.4190
  130SOL    HW1  389   2.309   1.020   0.216  1.1854  0.4259 -2.1319
  130SOL    HW2  390   2.137   1.011   0.202  1.4737 -2.6585  0.6110
  131SOL     OW  391   0.063   1.976   3.095 -0.6414 -0.6060 -0.5527
  131SOL    HW1  392  -0.033   1.943   3.079  1.1831  0.9274  4.0312
  131SOL    HW2  393   0.092   1.975   3.194 -2.0271 -0.5595 -0.3407
  132SOL     OW  394   1.499   1.373   2.125 -0.1510  0.0581 -0.0274
  132SOL    HW1  395   1.489   1.283   2.075  2.4245 -0.4758 -1.2547
  132SOL    HW2  396   1.409   1.425   2.119  2.8624 -0.2467  1.3826
  133SOL     OW  397   0.476   1.288   1.001  0.3033 -0.2026 -0.1243
  133SOL    HW1  398   0.578   1.279   1.007 -2.3397 -1.4149 -0.0359
  133SOL    HW2  399   0.443   1.373   1.049  0.0188  3.1260 -3.3977
  134SOL     OW  400   0.055   1.620   0.156  0.3951  0.5349  0.1016
  134SOL    HW1  401   0.057   1.521   0.131  1.5329  0.8617  1.6227
  134SOL    HW2  402   0.013   1.675   0.080  0.1180 -0.3790  0.2399
  135SOL     OW  403   1.985   0.930   0.118 -0.7505  0.7653 -0.0578
  135SOL    HW1  404   1.942   1.023   0.111 -1.7137 -0.7639  0.0051
  135SOL    HW2  405   1.948   0.865   0.048  0.9097  0.8291 -0.0280
  136SOL     OW  406   2.537   2.435   1.689 -0.3391  0.6136 -0.0433
  136SOL    HW1  407   2.567   2.418   1.786  2.3153  1.0007  1.2126
  136SOL    HW2  408   2.471   2.515   1.682  0.1903 -0.6892 -0.1421
  137SOL     OW  409   2.699   2.903   0.822 -0.0599  0.6872 -0.4699
  137SOL    HW1  410   2.680   2.983   0.884 -1.3462 -0.8812 -1.9431
  137SOL    HW2  411   2.736   2.934   0.731 -1.1683  0.0272  1.1433
  138SOL     OW  412   2.826   0.362   2.106  0.4313 -0.3879 -0.2908
  138SOL    HW1  413   2.852   0.263   2.097  2.5211  0.5849 -3.8525
  138SOL    HW2  414   2.771   0.394   2.025  2.7558  0.2523  0.6203
  139SOL     OW  415   3.267   3.108   3.191 -0.2276  0.2437  0.6801
  139SOL    HW1  416   3.195   3.061   3.249  1.1506 -0.3623  0.9348
  139SOL    HW2  417   3.243   3.097   3.090 -0.7256  0.9986 -0.2218
  140SOL     OW  418   1.739   2.215   3.083  0.2370 -0.0597 -0.1753
  140SOL    HW1  419   1.743   2.316   3.062 -2.7665  2.2941 -0.0821
  140SOL    HW2  420   1.795   2.160   3.016 -1.0543 -0.9685  0.3766
  141SOL     OW  421   1.713   1.667   2.930  0.3201 -0.3445  0.2521
  141SOL    HW1  422   1.671   1.585   2.885 -1.5792  0.5870  0.7390
  141SOL    HW2  423   1.754   1.638   3.021 -2.6829  1.0201 -0.0559
  142SOL     OW  424   2.433   2.795   2.406 -0.0792  0.5829 -0.0381
  142SOL    HW1  425   2.431   2.700   2.364 -0.3417  2.4487  1.8729
  142SOL    HW2  426   2.523   2.844   2.394 -0.7813 -0.6632 -1.3090
  143SOL     OW  427   1.187   2.989   0.579  0.1629 -0.0272 -0.3398
  143SOL    HW1  428   1.246   2.963   0.659  1.0416 -2.2725  0.7529
  143SOL    HW2  429   1.149   2.911   0.525 -0.6716  0.1122 -0.7202
  144SOL     OW  430   0.984   3.161   0.659  0.0016  1.1833 -0.5283
  144SOL    HW1  431   0.971   3.235   0.589 -2.1782  0.6678  0.8721
  144SOL    HW2  432   1.066   3.104   0.634  0.3235  0.1686 -0.7690
  145SOL     OW  433   2.128   2.623   3.589 -0.5567 -0.5974  0.7112
  145SOL    HW1  434   2.026   2.611   3.576 -0.9866  0.7736 -0.7441
  145SOL    HW2  435   2.159   2.723   3.584 -0.9402 -2.3301  2.3540
  146SOL     OW  436   2.072   2.785   0.358 -0.6143 -0.5764  0.0876
  146SOL    HW1  437   2.089   2.855   0.284 -0.3536 -0.0924  1.5333
  146SOL    HW2  438   2.094   2.688   0.332  2.7378  1.7779  1.2621
  147SOL     OW  439   0.436   2.003   2.296 -0.1186  0.1504  0.4864
  147SOL    HW1  440   0.427   1.970   2.199 -0.2145  1.9618  1.3468
  147SOL    HW2  441   0.474   2.099   2.298 -0.1315  0.4943  0.6442
  148SOL     OW  442   1.422   0.030   0.261  0.1713  0.2906  0.0072
  148SOL    HW1  443   1.464   0.119   0.228 -1.2900 -0.2817 -1.8370
  148SOL    HW2  444   1.343  -0.003   0.203 -0.6042  0.1184  0.0568
  149SOL     OW  445   0.554   2.455   0.219  0.5986  0.5212  0.8563
  149SOL    HW1  446   0.638   2.478   0.165 -1.3549  0.2249 -2.1319
  149SOL    HW2  447   0.469   2.487   0.171  0.2134 -1.8145  0.2730
  150SOL     OW  448   0.456   3.002   1.455  0.7956 -0.2244  0.7631
  150SOL    HW1  449   0.559   2.987   1.458  0.8021 -2.8625 -1.1127
  150SOL    HW2  450   0.437   3.069   1.379 -1.1448  0.2991  1.6248
  151SOL     OW  451   0.420   1.954   3.450 -0.0992 -0.3502  0.2421
  151SOL    HW1  452   0.468   1.877   3.402 -2.3696 -1.2159  1.2249
  151SOL    HW2  453   0.433   1.947   3.552  0.9744 -0.1738 -1.3070
  152SOL     OW  454   3.542   2.275   1.089 -0.1747 -0.5025 -0.0688
  152SOL    HW1  455   3.578   2.220   1.009 -1.2198  1.7793 -0.8861
  152SOL    HW2  456   3.439   2.269   1.099 -1.7554 -1.2551 -0.2722
  153SOL     OW  457   1.830   2.731   0.781  0.7905 -0.2392  0.3223
  153SOL    HW1  458   1.924   2.689   0.775  0.1544  1.1686  1.2601
  153SOL    HW2  459   1.763   2.658   0.809  0.4181  0.7699  1.5302
  154SOL     OW  460   0.990   3.564   1.714 -0.1064  0.3356  0.3728
  154SOL    HW1  461   1.021   3.466   1.709 -1.2917 -0.2329 -0.1378
  154SOL    HW2  462   0.888   3.568   1.720  1.5618  1.0054 -3.1899
  155SOL     OW  463   3.113   2.393   0.519 -0.0027  0.5474 -0.1171
  155SOL    HW1  464   3.190   2.448   0.562 -2.2569 -0.1245  0.4261
  155SOL    HW2  465   3.062   2.451   0.452  1.0608 -2.6263  3.7168
  156SOL     OW  466   2.945   2.374   0.114 -0.1593  0.5656  0.1360
  156SOL    HW1  467   2.902   2.422   0.033 -2.3583 -1.0941 -0.9830
  156SOL    HW2  468   2.948   2.440   0.194 -0.2104 -0.3255  2.6641
  157SOL     OW  469   0.618   0.188   2.276 -0.0683  0.4503 -0.1344
  157SOL    HW1  470   0.656   0.277   2.314  1.5160  0.3224 -0.2345
  157SOL    HW2  471   0.574   0.135   2.354 -0.7512  1.0881  1.4289
  158SOL     OW  472   1.168   0.713   1.343 -0.3406  0.0363 -0.3288
  158SOL    HW1  473   1.234   0.655   1.290  2.0883  1.2284 -1.6853
  158SOL    HW2  474   1.203   0.713   1.440 -0.8895  0.3482 -0.4648
  159SOL     OW  475   2.291   1.192   3.454  0.2873  0.0081 -0.0547
  159SOL    HW1  476   2.236   1.130   3.392  3.0562  1.8210 -1.5895
  159SOL    HW2  477   2.230   1.217   3.535 -2.7150  0.7361 -2.9579
  160SOL     OW  478   1.547   2.054   0.634 -0.3140  0.2182  0.4816
  160SOL    HW1  479   1.617   1.986   0.602  2.6236 -1.9696  1.7413
  160SOL    HW2  480   1.454   2.026   0.599  0.0228  1.2356  1.9155
  161SOL     OW  481   3.280   2.065   3.230  0.0872 -0.0196 -0.4434
  161SOL    HW1  482   3.279   2.144   3.164  3.1174  1.3203  1.1228
  161SOL    HW2  483   3.287   2.101   3.327  0.7680  1.7930 -2.0095
  162SOL     OW  484   3.599   2.658   1.317  0.0875  0.3713 -0.4221
  162SOL    HW1  485   3.674   2.716   1.361 -0.0094  0.3823 -1.5582
  162SOL    HW2  486   3.630   2.559   1.319 -1.8985  1.2939 -0.3151
  163SOL     OW  487   0.681   0.977   3.083  0.0731 -0.0452 -0.0689
  163SOL    HW1  488   0.770   1.024   3.109 -1.3535 -0.0540 -0.0950
  163SOL    HW2  489   0.669   0.893   3.142 -1.6951  0.8481  0.3580
  164SOL     OW  490   0.443   3.087   3.215 -0.0201 -0.6456  0.2880
  164SOL    HW1  491   0.383   3.056   3.292  1.1812  0.2167 -0.0542
  164SOL    HW2  492   0.426   3.186   3.190 -1.4328 -0.0450  3.0874
  165SOL     OW  493   2.764   1.191   1.726 -0.5099  0.1770  0.2918
  165SOL    HW1  494   2.778   1.143   1.816 -0.6274 -0.3084  1.5259
  165SOL    HW2  495   2.820   1.278   1.722 -0.3776  0.8750 -2.3436
  166SOL     OW  496   2.486   2.173   1.579  0.5640 -0.0716 -0.1090
  166SOL    HW1  497   2.502   2.263   1.624  2.2834  0.6725 -2.3458
  166SOL    HW2  498   2.525   2.096   1.634 -1.8713 -1.0554 -1.2037
  167SOL     OW  499   0.091   0.922   3.584  0.2436  0.5171 -0.4375
  167SOL    HW1  500   0.043   0.967   3.664  0.1783 -2.1559 -0.6192
  167SOL    HW2  501   0.188   0.956   3.582  1.1847 -2.1534  0.2994
  168SOL     OW  502   2.588   0.511   3.120 -0.2571  0.1506 -0.1404
  168SOL    HW1  503   2.500   0.508   3.069 -2.5304  2.1383  0.4724
  168SOL    HW2  504   2.604   0.423   3.171  0.1887 -0.5369  0.3803
  169SOL     OW  505   0.633   1.449   0.020  0.2481  0.4403 -0.3569
  169SOL    HW1  506   0.606   1.504   0.103  0.1947  1.7857 -0.5769
  169SOL    HW2  507   0.567   1.454  -0.057 -0.1665 -1.1270  0.4577
  170SOL     OW  508   1.446   1.074   1.752  0.1314  0.0891 -0.1219
  170SOL    HW1  509   1.483   0.991   1.705 -0.8342 -1.4984  0.3447
  170SOL    HW2  510   1.514   1.151   1.746 -0.0814 -1.7981  0.2310
  171SOL     OW  511   1.901   3.192   1.240  0.2769  0.0029  0.0113
  171SOL    HW1  512   1.875   3.138   1.324 -1.5083  2.4430 -3.6010
  171SOL    HW2  513   1.871   3.153   1.150 -1.3518  0.0919  1.3368
  172SOL     OW  514   1.189   0.077   2.358 -0.4668  0.2078 -0.3774
  172SOL    HW1  515   1.106   0.046   2.305 -2.8127 -0.7368  2.7217
  172SOL    HW2  516   1.265   0.006   2.350  1.7929 -2.4066 -0.1932
  173SOL     OW  517   0.965   2.982   1.155  0.4123 -0.4847 -0.8247
  173SOL    HW1  518   0.977   3.064   1.093 -1.5125  0.3161  5.4831
  173SOL    HW2  519   0.867   2.952   1.152 -3.9350  1.5237 -2.1782
  174SOL     OW  520   2.492   0.167   0.306  0.5144 -0.2627  0.4663
  174SOL    HW1  521   2.395   0.191   0.334  0.6413  0.5084 -1.6238
  174SOL    HW2  522   2.498   0.073   0.266 -1.0204 -2.6000 -2.2129
  175SOL     OW  523   1.116   1.630   0.812  0.1525  0.9034 -0.7131
  175SOL    HW1  524   1.145   1.729   0.817 -0.3495 -0.9020  2.8982
  175SOL    HW2  525   1.027   1.616   0.861  2.0135 -0.0927 -1.9954
  176SOL     OW  526   1.140   2.152   1.187 -0.7936 -0.4704  0.9005
  176SOL    HW1  527   1.222   2.212   1.214 -3.0090 -0.6588 -3.2756
  176SOL    HW2  528   1.056   2.204   1.159  0.1314 -1.9035  1.8408
  177SOL     OW  529   1.524   1.128   1.329 -0.7345 -0.5264 -0.1004
  177SOL    HW1  530   1.537   1.025   1.317  0.2259  0.4833  1.5599
  177SOL    HW2  531   1.606   1.168   1.377 -0.0986  1.1765 -1.3026
  178SOL     OW  532   2.731   1.719   0.776 -0.6222 -0.2801  0.7937
  178SOL    HW1  533   2.712   1.820   0.763  0.0033 -0.4494  2.5643
  178SOL    HW2  534   2.713   1.669   0.689 -0.8488  0.4753 -2.6074
  179SOL     OW  535   1.169   3.324   3.552 -0.1651 -0.1538 -0.2029
  179SOL    HW1  536   1.129   3.276   3.634 -1.4437  1.5543  0.7158
  179SOL    HW2  537   1.256   3.282   3.518  1.9815  0.1591 -0.2165
  180SOL     OW  538   2.033   1.402   1.929  0.1692  0.4338 -0.5020
  180SOL    HW1  539   1.974   1.483   1.904  1.5271 -2.9953  0.1328
  180SOL    HW2  540   2.132   1.432   1.942  3.6002 -2.4185 -1.0145
  181SOL     OW  541   0.956   1.134   1.848  0.3591  0.4726 -0.3772
  181SOL    HW1  542   0.941   1.034   1.863 -0.2647  0.9791 -0.8203
  181SOL    HW2  543   1.015   1.175   1.923 -0.4458  0.8539  0.3636
  182SOL     OW  544   3.331   1.202   0.035 -0.5915  0.1394 -0.1309
  182SOL    HW1  545   3.394   1.215  -0.047  0.9521 -1.2664  1.3748
  182SOL    HW2  546   3.281   1.284   0.068  0.5447  0.9598 -3.3507
  183SOL     OW  547   2.245   0.094   2.566 -0.1245  0.1425 -0.1309
  183SOL    HW1  548   2.282   0.000   2.555  2.2034 -0.9758 -1.1880
  183SOL    HW2  549   2.144   0.097   2.550  1.9148 -0.4353  0.8604
  184SOL     OW  550   1.151   0.928   1.082  0.0694  0.0132  0.4305
  184SOL    HW1  551   1.108   0.866   1.011  0.9361 -2.6909  2.0687
  184SOL    HW2  552   1.159   0.879   1.172  1.9286 -1.2146  0.0232
  185SOL     OW  553   2.418   1.334   0.603 -0.0758  0.3148 -0.0167
  185SOL    HW1  554   2.458   1.312   0.694 -0.0873  4.0099  2.1632
  185SOL    HW2  555   2.364   1.421   0.606  0.6689 -0.3997 -0.7197
  186SOL     OW  556   0.343   2.613   0.527  0.2333  0.9935  0.7838
  186SOL    HW1  557   0.361   2.552   0.608  1.3545  2.1250 -2.1935
  186SOL    HW2  558   0.376   2.570   0.437 -1.4489 -0.6539 -0.9253
  187SOL     OW  559   2.014   1.923   3.199 -0.4296 -0.6454 -0.8447
  187SOL    HW1  560   2.007   1.984   3.114 -0.5853  1.4801  1.2707
  187SOL    HW2  561   1.992   1.976   3.285 -1.0295  0.0368 -0.4481
  188SOL     OW  562   1.585   3.464   1.662 -0.2974  0.6761 -0.1163
  188SOL    HW1  563   1.554   3.561   1.668 -0.6698 -1.3402  0.1618
  188SOL    HW2  564   1.512   3.397   1.686  0.3332 -1.4356 -1.1574
  189SOL     OW  565   3.367   1.655   2.871 -0.3304 -0.2589 -0.2052
  189SOL    HW1  566   3.380   1.744   2.922 -0.3961 -0.1889  2.7086
  189SOL    HW2  567   3.289   1.601   2.913 -0.0425  1.2210  1.4402
  190SOL     OW  568   1.202   3.162   2.505 -0.2010  0.0312 -0.4619
  190SOL    HW1  569   1.201   3.069   2.547  0.6100  0.4923  1.4108
  190SOL    HW2  570   1.299   3.200   2.501  1.2873 -1.3254  1.3597
  191SOL     OW  571   2.793   1.039   1.461  0.0176  0.0944  0.1243
  191SOL    HW1  572   2.694   1.012   1.446 -3.1669  1.0233 -1.3612
  191SOL    HW2  573   2.803   1.095   1.547 -1.2713  3.9134 -0.1258
  192SOL     OW  574   2.328   0.621   1.276 -0.8882  0.2061  0.2116
  192SOL    HW1  575   2.423   0.583   1.262 -0.3529  1.6648 -4.6690
  192SOL    HW2  576   2.258   0.571   1.217  2.2820 -1.1473  1.2194
  193SOL     OW  577   1.025   0.060   0.286 -0.0794  0.1622 -0.1474
  193SOL    HW1  578   1.029   0.134   0.215  0.7452  1.3485 -1.8432
  193SOL    HW2  579   0.981   0.097   0.371 -0.5999 -2.3680  0.3272
  194SOL     OW  580   1.985   2.760   1.173 -0.1624 -0.4358 -0.0714
  194SOL    HW1  581   1.939   2.831   1.113 -0.5067  0.4863  0.1129
  194SOL    HW2  582   1.916   2.713   1.234 -2.2562  1.1815 -0.1008
  195SOL     OW  583   2.823   1.004   0.864  0.0158  0.1848  0.2506
  195SOL    HW1  584   2.903   1.045   0.813 -2.2387 -0.5318 -0.0864
  195SOL    HW2  585   2.749   1.074   0.879  0.0088  1.3715 -1.7211
  196SOL     OW  586   1.184   2.812   2.091 -0.2373  0.1406  0.4033
  196SOL    HW1  587   1.203   2.776   1.997  2.1240  1.7629  3.5401
  196SOL    HW2  588   1.084   2.827   2.116 -0.0415 -2.5726  0.6606
  197SOL     OW  589   3.142   0.342   2.819  0.2836  0.1283 -0.5862
  197SOL    HW1  590   3.084   0.426   2.811  0.8743 -1.6390  0.9422
  197SOL    HW2  591   3.079   0.260   2.813  2.6536  0.6786  1.1748
  198SOL     OW  592   2.559   1.773   0.339  1.0271  0.1388  0.2699
  198SOL    HW1  593   2.637   1.795   0.277  1.4592  0.0094  2.9469
  198SOL    HW2  594   2.487   1.715   0.295  0.8609 -0.7928 -0.6053
  199SOL     OW  595   2.796   0.772   2.054  0.2247  0.0099 -0.1000
  199SOL    HW1  596   2.772   0.732   2.148  1.9199 -1.4120  1.9074
  199SOL    HW2  597   2.783   0.700   1.981 -1.1030  0.1512 -0.8663
  200SOL     OW  598   2.108   3.404   3.502 -0.2574 -0.4131  0.0069
  200SOL    HW1  599   2.057   3.469   3.565 -0.4746  1.7852  0.7623
  200SOL    HW2  600   2.209   3.407   3.522 -1.1845 -2.0145 -1.0447
  201SOL     OW  601   3.143   0.265   1.673  0.9670  0.0721  0.0563
  201SOL    HW1  602   3.060   0.219   1.710 -1.6269  1.5520  0.6517
  201SOL    HW2  603   3.113   0.355   1.632 -1.1460  1.4835  1.6754
  202SOL     OW  604   3.215   3.553   0.638 -0.0519 -0.6040  0.1761
  202SOL    HW1  605   3.181   3.620   0.708  0.8242 -2.3794 -1.4590
  202SOL    HW2  606   3.317   3.541   0.646 -1.9728  0.2215 -0.3953
  203SOL     OW  607   1.747   1.839   0.545  0.1221  0.0211  0.1847
  203SOL    HW1  608   1.774   1.769   0.616 -0.4158 -2.6898  1.2139
  203SOL    HW2  609   1.815   1.918   0.537 -2.2083  3.2167  0.4101
  204SOL     OW  610   0.162   2.072   2.580  0.2457 -0.0325 -0.2366
  204SOL    HW1  611   0.140   2.170   2.557 -0.0962 -3.2552  0.6944
  204SOL    HW2  612   0.225   2.030   2.508 -1.5152  0.8645  1.7711
  205SOL     OW  613   0.572   0.784   1.014  0.2172  0.6336 -0.3630
  205SOL    HW1  614   0.655   0.722   1.022  0.2759 -2.6244  2.3436
  205SOL    HW2  615   0.492   0.739   0.966 -2.3719  0.8171  0.0755
  206SOL     OW  616   0.434   1.171   3.065  0.1244  0.3200  0.1874
  206SOL    HW1  617   0.454   1.256   3.010 -1.5279  0.4898  0.2994
  206SOL    HW2  618   0.517   1.109   3.075 -0.2647 -0.8492 -3.0704
  207SOL     OW  619   1.602   2.725   1.790 -0.4634  0.1911  0.0344
  207SOL    HW1  620   1.639   2.739   1.885  0.3381  2.0485 -0.5058
  207SOL    HW2  621   1.556   2.632   1.782 -1.0890  1.7733  2.0190
  208SOL     OW  622   2.690   0.366   1.196 -0.3079  0.7110  0.1255
  208SOL    HW1  623   2.751   0.299   1.245 -0.5996  0.5911 -0.3653
  208SOL    HW2  624   2.634   0.325   1.120  0.2351  2.2220  0.4096
  209SOL     OW  625   2.256   1.169   0.993 -0.0199 -0.0802 -0.3821
  209SOL    HW1  626   2.245   1.102   1.071  0.1484  0.1265  0.4301
  209SOL    HW2  627   2.192   1.140   0.916  1.7283  1.5824  1.6699
  210SOL     OW  628   2.514   1.272   0.876 -0.1787  0.1792 -0.3720
  210SOL    HW1  629   2.434   1.239   0.933  1.9022 -1.7724 -0.9653
  210SOL    HW2  630   2.565   1.346   0.927  0.8846  1.4786 -0.7677
  211SOL     OW  631   1.054   3.360   3.274  0.5857 -1.0203 -0.6221
  211SOL    HW1  632   0.978   3.294   3.249  0.6031  0.8523  0.6371
  211SOL    HW2  633   1.082   3.355   3.372  2.6496 -2.3213 -1.4671
  212SOL     OW  634   2.178   2.048   0.738 -0.3733 -0.5744  0.1420
  212SOL    HW1  635   2.222   2.103   0.812  1.4115  0.8695  0.3918
  212SOL    HW2  636   2.246   2.030   0.663  3.2955  0.6416 -0.0478
  213SOL     OW  637   2.685   3.349   0.268 -0.3981  0.5030  0.0998
  213SOL    HW1  638   2.660   3.251   0.289  0.7688  0.6820 -0.5345
  213SOL    HW2  639   2.734   3.362   0.177  1.6687  0.5071 -0.2760
  214SOL     OW  640   1.465   2.797   2.729  0.3746 -0.8789  0.2296
  214SOL    HW1  641   1.562   2.832   2.712 -1.6082 -0.6708 -0.7433
  214SOL    HW2  642   1.463   2.703   2.683 -2.0724  0.2475 -3.4344
  215SOL     OW  643   0.397   1.531   1.151 -0.2200 -0.1024  0.4074
  215SOL    HW1  644   0.303   1.539   1.191  1.5840 -1.3899 -1.0072
  215SOL    HW2  645   0.427   1.621   1.111 -1.0702  0.9566 -2.2975
  216SOL     OW  646   0.127   0.104   2.830  0.0194 -0.0067  0.0906
  216SOL    HW1  647   0.182   0.168   2.769  0.4317  1.3866 -0.5866
  216SOL    HW2  648   0.064   0.042   2.775  1.0298 -2.0848  1.7894
  217SOL     OW  649   3.417   1.765   1.725  0.7589 -0.2799  0.0626
  217SOL    HW1  650   3.513   1.750   1.692 -0.3875  0.5402 -0.0907
  217SOL    HW2  651   3.393   1.700   1.802  0.8416  0.8748 -0.0721
  218SOL     OW  652   0.810   2.813   2.021  0.3091 -0.3310 -0.2575
  218SOL    HW1  653   0.713   2.845   2.025 -0.0055 -1.0023  2.2964
  218SOL    HW2  654   0.829   2.736   2.086  1.2033 -0.1087  0.9368
  219SOL     OW  655   2.523   2.261   3.429 -0.5957 -0.2674 -0.5332
  219SOL    HW1  656   2.546   2.257   3.328  2.9020  0.7287  1.0890
  219SOL    HW2  657   2.541   2.170   3.477  2.3096 -2.0367 -0.1948
  220SOL     OW  658   2.146   0.255   0.069 -0.2070  0.1914 -0.3241
  220SOL    HW1  659   2.218   0.233  -0.002 -0.6724  0.6883  1.2243
  220SOL    HW2  660   2.109   0.348   0.048 -2.3287 -1.3367  0.4721
  221SOL     OW  661   3.355   1.248   0.365  0.6913  0.2460  0.1497
  221SOL    HW1  662   3.330   1.154   0.332  0.8970 -0.1558 -0.0588
  221SOL    HW2  663   3.320   1.317   0.298 -3.6075  0.9517  0.9586
  222SOL     OW  664   1.855   1.647   0.763 -0.2566  0.4884 -0.4180
  222SOL    HW1  665   1.832   1.575   0.833  1.7363  0.3916 -0.4578
  222SOL    HW2  666   1.924   1.713   0.803 -0.8345 -0.7002  0.7601
  223SOL     OW  667   0.944   0.307   3.463 -0.1385 -0.2784 -0.5931
  223SOL    HW1  668   1.018   0.266   3.404 -0.8766  0.4898 -2.9479
  223SOL    HW2  669   0.931   0.405   3.435 -1.4529  1.1218  2.0096
  224SOL     OW  670   1.174   3.387   1.340  0.5744 -0.0859 -0.1594
  224SOL    HW1  671   1.167   3.487   1.363 -1.5614 -2.0216  1.0575
  224SOL    HW2  672   1.094   3.335   1.381 -0.9041  0.3517  0.9089
  225SOL     OW  673   1.071   0.170   2.615  0.1647 -0.1302  0.4332
  225SOL    HW1  674   1.113   0.127   2.531  2.3822  1.1214  1.9334
  225SOL    HW2  675   1.010   0.099   2.661  2.4398  1.1908 -2.1999
  226SOL     OW  676   1.484   1.851   0.944 -0.3408 -0.1692  0.2353
  226SOL    HW1  677   1.559   1.922   0.948 -0.1934 -0.2019 -1.3598
  226SOL    HW2  678   1.531   1.759   0.931 -2.9744  0.2367 -0.9731
  227SOL     OW  679   0.188   2.676   1.733  0.3383 -0.2853 -0.9498
  227SOL    HW1  680   0.207   2.693   1.631 -0.7518  0.3438 -0.1158
  227SOL    HW2  681   0.221   2.583   1.761 -3.6110 -0.8165 -1.5625
  228SOL     OW  682   0.097   2.209   0.402 -0.1153 -0.0338  0.0697
  228SOL    HW1  683   0.068   2.301   0.366  0.6642  0.8374  1.3573
  228SOL    HW2  684   0.164   2.218   0.478  2.3639  0.2898  1.5536
  229SOL     OW  685   2.860   0.277   3.491  1.1557  0.3973 -0.1185
  229SOL    HW1  686   2.926   0.305   3.417 -0.1874  2.0513 -0.8847
  229SOL    HW2  687   2.896   0.198   3.546 -1.0056  2.3535 -0.2806
  230SOL     OW  688   3.064   1.018   0.449 -0.4377 -0.3870  0.4226
  230SOL    HW1  689   3.136   1.008   0.375  2.5407 -1.5325 -0.3651
  230SOL    HW2  690   2.984   1.069   0.407  0.3987  1.1765  1.7766
  231SOL     OW  691   1.930   2.084   0.550  0.1796  0.4470  0.2010
  231SOL    HW1  692   2.010   2.071   0.614  0.3886  1.5792 -2.2122
  231SOL    HW2  693   1.929   2.181   0.513  0.4053  2.4940 -1.6374
  232SOL     OW  694   2.102   2.369   1.204 -0.1566  0.2550 -0.0836
  232SOL    HW1  695   2.155   2.445   1.163 -1.6674 -1.3733 -0.4544
  232SOL    HW2  696   2.150   2.279   1.191 -1.1570  2.9653  1.5477
  233SOL     OW  697   0.687   3.377   2.188  0.2610 -0.4648 -0.3473
  233SOL    HW1  698   0.741   3.464   2.198  2.1602 -0.4848  0.5375
  233SOL    HW2  699   0.674   3.364   2.086  1.9286 -0.5885  1.6810
  234SOL     OW  700   0.801   0.420   2.865 -0.0636  0.1640  0.1368
  234SOL    HW1  701   0.855   0.424   2.777  0.9049 -0.5177 -0.3219
  234SOL    HW2  702   0.857   0.465   2.940 -0.3632  0.3475 -0.3190
  235SOL     OW  703   3.077   1.252   2.280  0.2091 -0.2822  0.6299
  235SOL    HW1  704   3.167   1.209   2.307 -1.5083 -1.2867 -1.5061
  235SOL    HW2  705   3.020   1.188   2.222  0.4760  0.9036 -1.0657
  236SOL     OW  706   1.922   3.256   1.629  0.5062  0.0321 -0.5193
  236SOL    HW1  707   1.993   3.291   1.563 -1.3801  1.6480  0.2213
  236SOL    HW2  708   1.854   3.331   1.651 -1.6069  2.2698  0.8440
  237SOL     OW  709   0.504   1.989   3.009 -0.0849  0.0364 -0.4733
  237SOL    HW1  710   0.578   2.033   2.954 -0.2557  0.2391 -0.1562
  237SOL    HW2  711   0.428   1.949   2.951  0.2134  1.6269 -1.9014
  238SOL     OW  712   1.397   1.112   2.543  0.0413  0.0330 -0.3057
  238SOL    HW1  713   1.458   1.164   2.479  3.2293  0.6333  0.7739
  238SOL    HW2  714   1.335   1.047   2.492 -0.2610 -1.9151 -2.3826
  239SOL     OW  715   0.990   1.987   2.921  0.0470 -0.2715  0.6102
  239SOL    HW1  716   0.982   2.020   3.018  0.5197  1.0278  0.2757
  239SOL    HW2  717   1.020   2.061   2.856 -0.0103 -0.4073  1.7811
  240SOL     OW  718   2.804   3.037   0.555  0.2523  0.1023 -0.3505
  240SOL    HW1  719   2.724   3.063   0.495  0.9674 -2.5243 -0.9821
  240SOL    HW2  720   2.860   3.121   0.581 -0.7526  0.3241 -1.6802
  241SOL     OW  721   0.382   1.218   0.161 -0.1875 -0.2484 -0.6396
  241SOL    HW1  722   0.382   1.184   0.259  1.1733  1.0151  1.7525
  241SOL    HW2  723   0.454   1.291   0.146 -3.7464  0.9144 -0.1352
  242SOL     OW  724   1.800   3.430   1.962  0.2612 -0.0722 -0.3142
  242SOL    HW1  725   1.729   3.449   1.888 -0.3821 -1.0650 -0.8395
  242SOL    HW2  726   1.826   3.331   1.964 -0.9157  1.8535  1.7561
  243SOL     OW  727   1.426   3.041   2.132  0.6086 -0.4464  0.0252
  243SOL    HW1  728   1.378   3.131   2.119 -0.1579  1.0340  1.1380
  243SOL    HW2  729   1.357   2.962   2.128 -0.2666 -0.5656  2.3165
  244SOL     OW  730   2.744   0.671   2.942  0.0731 -0.0582  0.2100
  244SOL    HW1  731   2.715   0.771   2.944  2.3168  1.8992 -1.4349
  244SOL    HW2  732   2.696   0.613   3.011 -1.2544 -1.3471  1.4810
  245SOL     OW  733   1.791   2.645   1.356  0.6885 -0.5995  0.2020
  245SOL    HW1  734   1.812   2.665   1.454  1.2452  0.1294 -0.6416
  245SOL    HW2  735   1.736   2.558   1.350 -1.7090  0.8376 -1.5344
  246SOL     OW  736   1.546   0.309   0.028  0.2458 -0.0785  0.2355
  246SOL    HW1  737   1.614   0.337   0.099  1.2004 -2.0128  1.2814
  246SOL    HW2  738   1.591   0.308  -0.063  0.5164  0.0334 -1.8717
  247SOL     OW  739   2.008   0.408   2.251 -0.3184  0.1867  0.0601
  247SOL    HW1  740   2.083   0.411   2.179  0.7191  1.7765  0.0776
  247SOL    HW2  741   2.010   0.327   2.316 -2.4971 -1.2621 -0.9656
  248SOL     OW  742   0.015   2.818   1.904 -0.0310  0.2579  0.1612
  248SOL    HW1  743   0.057   2.913   1.909 -0.8041 -0.2917  0.0402
  248SOL    HW2  744   0.065   2.753   1.842 -0.7851 -0.0736 -0.3051
  249SOL     OW  745   0.645   0.286   0.445  0.2171 -0.0415  0.1790
  249SOL    HW1  746   0.545   0.304   0.456  0.2674  0.4450 -1.1427
  249SOL    HW2  747   0.657   0.193   0.404 -0.7595  1.0486 -0.6915
  250SOL     OW  748   2.819   0.208   2.607  0.7629 -0.4356  0.4614
  250SOL    HW1  749   2.742   0.243   2.664  2.4269  1.9809 -2.4738
  250SOL    HW2  750   2.852   0.275   2.537 -1.5504 -4.1546  0.3089
  251SOL     OW  751   1.575   0.795   3.627 -0.1062 -0.2009  0.3880
  251SOL    HW1  752   1.563   0.743   3.716 -0.2449  2.1562 -1.6942
  251SOL    HW2  753   1.500   0.779   3.559  0.4708  0.8053  0.5145
  252SOL     OW  754   1.849   2.921   2.653  0.9875  0.8396 -0.1500
  252SOL    HW1  755   1.936   2.949   2.704 -0.2417  1.2304 -0.6476
  252SOL    HW2  756   1.822   2.992   2.582 -0.0978 -2.2479  0.4846
  253SOL     OW  757   3.280   3.095   0.439  0.0751 -0.0324 -0.0859
  253SOL    HW1  758   3.217   3.140   0.506  0.9874  0.0535 -0.6305
  253SOL    HW2  759   3.371   3.074   0.482 -0.3358  1.1554  2.4254
  254SOL     OW  760   2.494   1.171   1.659  0.1657  0.5176 -0.1197
  254SOL    HW1  761   2.455   1.261   1.629  0.7423  2.1292 -0.8247
  254SOL    HW2  762   2.593   1.185   1.683  2.0273 -1.7328 -0.1258
  255SOL     OW  763   1.053   3.286   1.718  0.2837 -0.2433  0.0801
  255SOL    HW1  764   1.001   3.274   1.630  1.6502  0.8809 -0.2760
  255SOL    HW2  765   1.010   3.224   1.787 -0.8090  0.4979  1.0366
  256SOL     OW  766   2.778   1.953   1.990  0.0543 -0.4085 -0.0518
  256SOL    HW1  767   2.723   1.943   1.903 -1.4826  3.2107 -0.3958
  256SOL    HW2  768   2.868   2.001   1.976  0.0951 -1.5633  0.3624
  257SOL     OW  769   0.534   2.842   3.066 -0.6393  0.2496  0.4276
  257SOL    HW1  770   0.582   2.783   3.135  0.7541  1.6771 -0.6703
  257SOL    HW2  771   0.491   2.927   3.105 -1.2159  0.4002  1.0491
  258SOL     OW  772   0.691   2.917   1.172  0.2259 -0.3658 -0.0103
  258SOL    HW1  773   0.623   2.991   1.144  2.1854  1.5314 -1.8586
  258SOL    HW2  774   0.648   2.821   1.167 -0.7770 -0.3396 -0.8632
  259SOL     OW  775   1.708   0.515   3.155 -0.1842  0.6298 -0.8137
  259SOL    HW1  776   1.806   0.513   3.183 -0.0740 -2.2513  1.2564
  259SOL    HW2  777   1.682   0.607   3.118 -0.6088 -0.2614 -1.5531
  260SOL     OW  778   0.373   0.406   1.540  0.1491 -0.3880 -0.1226
  260SOL    HW1  779   0.470   0.443   1.551  1.8428  0.3512 -1.3124
  260SOL    HW2  780   0.358   0.368   1.443  3.1209  1.2139 -0.4713
  261SOL     OW  781   1.457   0.046   2.782  0.8115  0.3447 -0.5799
  261SOL    HW1  782   1.421  -0.051   2.794  1.1307 -0.0688  0.0797
  261SOL    HW2  783   1.379   0.114   2.784 -1.1236 -1.3934  0.0943
  262SOL     OW  784   1.407   3.470   2.306 -0.2837  0.5677  0.0899
  262SOL    HW1  785   1.428   3.405   2.384 -1.1940 -1.7013 -1.1649
  262SOL    HW2  786   1.363   3.423   2.226  1.0200  0.5699 -1.5955
  263SOL     OW  787   0.775   2.522   0.053 -0.2610  0.0704 -0.1651
  263SOL    HW1  788   0.850   2.591   0.032 -0.0778  1.3016 -0.1039
  263SOL    HW2  789   0.789   2.432   0.005 -1.8331  2.1377 -1.1750
  264SOL     OW  790   1.685   2.094   1.199  0.3285 -0.4065  0.0816
  264SOL    HW1  791   1.772   2.045   1.229  0.8609 -1.8056  1.5873
  264SOL    HW2  792   1.677   2.093   1.098 -2.3996 -1.6607 -0.1498
  265SOL     OW  793   1.079   2.760   0.435 -0.0120  0.1024  0.1155
  265SOL    HW1  794   1.156   2.701   0.397 -2.4459  1.7638  1.4293
  265SOL    HW2  795   1.006   2.698   0.475  1.7537 -1.8244 -2.8719
  266SOL     OW  796   3.228   1.043   1.209 -0.0105  0.5050 -0.1328
  266SOL    HW1  797   3.176   0.979   1.149  1.9404  2.9255  0.0540
  266SOL    HW2  798   3.282   0.996   1.283  0.0791  0.3263  2.7162
  267SOL     OW  799   0.293   1.689   0.328 -0.3819 -0.1234  0.2990
  267SOL    HW1  800   0.256   1.704   0.423 -1.5465  0.7393 -1.9613
  267SOL    HW2  801   0.215   1.671   0.263 -0.2306  0.9649 -1.2626
  268SOL     OW  802   1.552   0.650   0.268 -0.3458 -0.0926 -0.1579
  268SOL    HW1  803   1.450   0.643   0.285  0.0023 -0.8983  0.3531
  268SOL    HW2  804   1.590   0.713   0.340  0.0796  1.9435 -1.9761
  269SOL     OW  805   3.033   0.814   2.613 -0.3644 -0.5901  0.1814
  269SOL    HW1  806   3.044   0.886   2.685 -0.7488  3.0878  0.0685
  269SOL    HW2  807   3.110   0.829   2.545 -1.6986 -0.9338 -1.7787
  270SOL     OW  808   3.088   1.373   0.865  0.4593 -0.4154  0.1496
  270SOL    HW1  809   3.087   1.449   0.793  1.7248 -0.0922  0.3169
  270SOL    HW2  810   3.069   1.283   0.816 -1.3808 -1.2082 -0.1836
  271SOL     OW  811   0.230   1.385   2.651  0.1689 -0.1021 -0.1832
  271SOL    HW1  812   0.288   1.349   2.575 -2.5014  0.2816  0.4078
  271SOL    HW2  813   0.201   1.481   2.627  1.6510 -0.1350 -1.5807
  272SOL     OW  814   2.963   2.673   2.126  0.3713  1.0109 -0.3925
  272SOL    HW1  815   2.907   2.701   2.208 -0.0527 -1.0288  2.3421
  272SOL    HW2  816   3.046   2.620   2.158 -1.3876 -0.2385 -0.0943
  273SOL     OW  817   0.256   2.971   3.434 -0.1563  0.0176 -0.1265
  273SOL    HW1  818   0.319   2.893   3.457 -1.2020 -0.5407  1.8113
  273SOL    HW2  819   0.175   2.943   3.378 -1.3069 -0.4743  0.8573
  274SOL     OW  820   0.966   2.620   0.871 -0.6134 -0.4127 -0.5501
  274SOL    HW1  821   0.983   2.659   0.965 -1.1826  2.1737  1.8888
  274SOL    HW2  822   1.052   2.573   0.834  1.0405 -1.9840  0.5938
  275SOL     OW  823   1.713   2.509   2.933 -0.5643  0.3366 -0.6143
  275SOL    HW1  824   1.749   2.551   2.846 -0.8200  1.2100 -1.8284
  275SOL    HW2  825   1.610   2.493   2.930  0.5378 -2.2928  0.3511
  276SOL     OW  826   3.370   2.106   2.413 -0.1672 -0.0609  0.1863
  276SOL    HW1  827   3.314   2.050   2.347  1.7496 -0.4494  2.2506
  276SOL    HW2  828   3.311   2.140   2.489 -3.0681 -2.3020 -1.1017
  277SOL     OW  829   2.552   0.231   0.985 -0.2014 -0.2630  0.3715
  277SOL    HW1  830   2.625   0.228   0.911  0.8835  0.2299  1.9862
  277SOL    HW2  831   2.457   0.243   0.946  1.1223  2.7405 -0.1230
  278SOL     OW  832   1.677   0.006   2.957  0.6131  0.7498  0.5884
  278SOL    HW1  833   1.597   0.031   2.897  1.9613  2.7065 -1.4948
  278SOL    HW2  834   1.649  -0.004   3.056  0.0851  0.3539  1.6982
  279SOL     OW  835   1.377   3.190   1.209 -0.1494 -0.1621  0.4483
  279SOL    HW1  836   1.375   3.101   1.261 -1.9146 -1.7209  1.3741
  279SOL    HW2  837   1.313   3.261   1.249 -1.2673  1.5206 -0.4773
  280SOL     OW  838   1.454   1.283   0.569 -0.3080 -0.1450 -0.0352
  280SOL    HW1  839   1.389   1.205   0.590 -2.3910 -0.6658 -0.3399
  280SOL    HW2  840   1.470   1.335   0.657 -0.6659  1.4055 -3.0300
  281SOL     OW  841   2.435   2.021   0.541  0.0263 -0.0599  0.1324
  281SOL    HW1  842   2.513   2.043   0.605  0.3511 -1.9161 -0.1898
  281SOL    HW2  843   2.464   1.944   0.477  1.4136  0.9768  2.8394
  282SOL     OW  844   3.350   1.686   0.656  0.3659 -0.3290 -0.2703
  282SOL    HW1  845   3.256   1.716   0.626  0.1505 -0.4073 -1.1804
  282SOL    HW2  846   3.423   1.705   0.588 -3.4442  2.6301 -2.6387
  283SOL     OW  847   2.046   2.983   3.452  0.2033 -0.2341  0.0801
  283SOL    HW1  848   1.978   2.920   3.406  1.9890  0.3504 -1.5145
  283SOL    HW2  849   2.069   3.065   3.393 -0.3370 -0.6489  0.4363
  284SOL     OW  850   0.496   0.502   2.844  0.4420 -0.5581 -0.2730
  284SOL    HW1  851   0.594   0.476   2.863  3.1103  1.2946  0.3491
  284SOL    HW2  852   0.440   0.500   2.932 -1.9081 -1.6574  0.2909
  285SOL     OW  853   2.363   1.615   0.224 -0.3082 -0.1179 -0.5105
  285SOL    HW1  854   2.336   1.629   0.125 -2.3486 -0.5949  0.3908
  285SOL    HW2  855   2.345   1.519   0.254  2.4856  3.9134 -2.3311
  286SOL     OW  856   1.179   2.277   1.960  0.1118 -0.2534  0.5826
  286SOL    HW1  857   1.249   2.207   1.987 -0.1922  1.2451 -2.8190
  286SOL    HW2  858   1.207   2.326   1.872  0.8844 -1.1338  0.1670
  287SOL     OW  859   2.082   3.348   1.411 -0.3359  0.3672 -0.5715
  287SOL    HW1  860   2.023   3.303   1.339 -0.2449  2.2339  1.3893
  287SOL    HW2  861   2.116   3.440   1.380 -2.2957  2.3387 -2.9338
  288SOL     OW  862   0.648   3.107   2.280  0.1419  0.3569 -0.0939
  288SOL    HW1  863   0.668   3.205   2.260 -2.9641 -0.2057 -4.2806
  288SOL    HW2  864   0.548   3.083   2.265  2.4788  1.2052  0.8665
  289SOL     OW  865   3.601   2.083   0.867  0.1515 -0.1223  0.5928
  289SOL    HW1  866   3.558   1.991   0.882 -1.0558  0.3813 -2.7844
  289SOL    HW2  867   3.543   2.142   0.805 -0.1701 -2.0200 -0.2292
  290SOL     OW  868   0.859   2.567   2.206 -0.0335 -0.2713 -0.2851
  290SOL    HW1  869   0.893   2.476   2.170 -0.1409 -0.1501  3.4765
  290SOL    HW2  870   0.861   2.570   2.308  0.9224  0.1557 -0.7178
  291SOL     OW  871   2.216   0.236   0.351  0.4093  0.0332 -0.0623
  291SOL    HW1  872   2.174   0.323   0.390 -0.0461 -0.9209 -3.0524
  291SOL    HW2  873   2.190   0.230   0.252 -2.5816 -1.7944 -1.7838
  292SOL     OW  874   0.725   0.388   1.835  0.1437 -0.0627 -0.3781
  292SOL    HW1  875   0.645   0.328   1.864  1.2458  1.2510 -0.2379
  292SOL    HW2  876   0.805   0.378   1.899  0.0076 -2.1018 -0.6726
  293SOL     OW  877   2.570   1.592   1.313 -0.1985  0.2742 -0.4492
  293SOL    HW1  878   2.658   1.623   1.358  3.2606 -0.2086 -1.5133
  293SOL    HW2  879   2.583   1.560   1.215 -0.3209 -0.9298 -0.9627
  294SOL     OW  880   0.470   0.381   2.584  0.5058 -0.4272  0.4127
  294SOL    HW1  881   0.390   0.416   2.532  1.5669 -1.9686  0.1079
  294SOL    HW2  882   0.470   0.422   2.678  1.7604  2.0434  1.9543
  295SOL     OW  883   1.194   1.697   0.362  0.2291  0.8638 -0.5183
  295SOL    HW1  884   1.264   1.625   0.341 -1.0808 -2.4708 -0.1421
  295SOL    HW2  885   1.124   1.653   0.424 -1.6514 -0.4663 -2.1980
  296SOL     OW  886   2.188   1.287   1.379  0.2498 -0.2509 -0.2711
  296SOL    HW1  887   2.187   1.332   1.285 -1.2289 -0.0958 -0.2338
  296SOL    HW2  888   2.255   1.336   1.441 -2.1226  0.7511  0.9920
  297SOL     OW  889   2.129   0.981   2.915  0.1361 -0.4960 -0.2305
  297SOL    HW1  890   2.231   0.978   2.904 -3.6006 -0.5551  1.3847
  297SOL    HW2  891   2.092   1.052   2.851 -0.9430  0.2369 -0.8279
  298SOL     OW  892   1.053   0.602   3.055 -0.1903 -0.1243 -0.3595
  298SOL    HW1  893   1.113   0.555   3.123  1.4368 -0.3930  2.3684
  298SOL    HW2  894   1.101   0.651   2.977  1.3961  2.6915  0.8844
  299SOL     OW  895   1.562   0.420   2.409  0.1981  0.2838  0.0486
  299SOL    HW1  896   1.465   0.406   2.379  0.5350 -2.9728  3.2762
  299SOL    HW2  897   1.569   0.485   2.488 -1.6737 -1.6229 -1.0110
  300SOL     OW  898   2.937   0.049   2.153  0.1078  0.9122 -0.5578
  300SOL    HW1  899   2.921  -0.018   2.077  1.9708 -0.0879  0.8920
  300SOL    HW2  900   3.032   0.089   2.149 -1.1470  1.0204  4.0312
  301SOL     OW  901   2.154   0.988   1.978 -0.3158 -0.0297  0.7200
  301SOL    HW1  902   2.075   1.051   1.962 -2.9627 -0.7800 -1.1697
  301SOL    HW2  903   2.178   0.988   2.078 -1.8360 -2.1503  0.7036
  302SOL     OW  904   0.802   3.313   2.915 -0.0322  0.0383 -0.2250
  302SOL    HW1  905   0.729   3.284   2.848 -1.2250 -0.6359  3.4765
  302SOL    HW2  906   0.894   3.317   2.867  0.7678 -0.4061  1.5615
  303SOL     OW  907   1.937   2.267   1.971 -0.2075 -0.2381  0.1333
  303SOL    HW1  908   1.996   2.253   1.889  2.0761 -0.3511  0.0163
  303SOL    HW2  909   1.839   2.250   1.949 -1.4673 -0.4305 -0.2415
  304SOL     OW  910   0.240   3.355   0.814  0.2457  0.3217  0.2327
  304SOL    HW1  911   0.308   3.285   0.785 -0.2263  3.4399 -0.7656
  304SOL    HW2  912   0.151   3.310   0.841 -2.3200 -0.2907 -0.1421
  305SOL     OW  913   1.670   0.820   0.472  0.0983  0.1396 -0.3052
  305SOL    HW1  914   1.680   0.921   0.453 -1.5057  1.8952 -2.0648
  305SOL    HW2  915   1.647   0.801   0.570 -3.5637  1.8098  0.4190
  306SOL     OW  916   0.441   1.935   0.152 -0.8445 -0.5491  0.3928
  306SOL    HW1  917   0.536   1.955   0.190 -0.9942 -1.1893 -0.5715
  306SOL    HW2  918   0.390   1.861   0.203  2.8820  0.4108  0.4609
  307SOL     OW  919   0.665   1.192   2.115 -0.2275 -0.2721  1.1185
  307SOL    HW1  920   0.666   1.228   2.017  0.1647  0.8354  1.0509
  307SOL    HW2  921   0.633   1.093   2.111 -1.7781 -1.7592 -1.8815
  308SOL     OW  922   0.830   0.201   1.341  0.3877 -0.0081 -0.1819
  308SOL    HW1  923   0.776   0.238   1.262 -0.3395  0.5349 -1.7216
  308SOL    HW2  924   0.845   0.274   1.411 -0.9265  0.5094 -3.2756
  309SOL     OW  925   2.488   0.913   0.115 -0.5453 -1.2576 -0.2783
  309SOL    HW1  926   2.577   0.866   0.134  3.6465 -0.3357  1.9611
  309SOL    HW2  927   2.508   0.985   0.045  0.1094 -2.1791  0.4557
  310SOL     OW  928   1.372   1.257   0.098 -0.2709  0.3708  0.1175
  310SOL    HW1  929   1.306   1.287   0.025 -0.8364  1.2543  1.0914
  310SOL    HW2  930   1.374   1.330   0.171 -1.3890  1.6669  1.8719
  311SOL     OW  931   2.038   2.692   2.986 -0.7749  0.3596  0.3293
  311SOL    HW1  932   1.961   2.663   2.921 -1.2475 -2.2126  0.8926
  311SOL    HW2  933   2.094   2.766   2.935 -0.5623  0.1213 -1.1877
  312SOL     OW  934   2.439   3.539   3.538 -0.2106  0.1556  0.3215
  312SOL    HW1  935   2.410   3.636   3.519 -2.6191 -1.8028  2.6296
  312SOL    HW2  936   2.451   3.528   3.639  1.3587  1.0726  0.0650
  313SOL     OW  937   0.436   0.479   0.704 -0.0173 -0.5036 -0.1801
  313SOL    HW1  938   0.382   0.535   0.771  0.9125 -1.7048 -0.0681
  313SOL    HW2  939   0.506   0.535   0.651 -1.0435  1.8159 -0.7860
  314SOL     OW  940   3.034   1.553   3.439 -0.3640 -0.3829 -0.1304
  314SOL    HW1  941   3.059   1.489   3.361  1.2014 -0.6750  1.9669
  314SOL    HW2  942   3.077   1.645   3.423 -0.6858 -1.9284  0.1829
  315SOL     OW  943   2.220   1.001   2.272 -0.5821 -0.4409 -0.0154
  315SOL    HW1  944   2.230   0.927   2.343 -0.4719 -3.4426 -0.0879
  315SOL    HW2  945   2.190   1.090   2.314  0.1242 -1.4059  0.8501
  316SOL     OW  946   0.058   1.033   1.039  0.9762 -0.0724 -0.2623
  316SOL    HW1  947  -0.023   1.096   1.039  2.1854 -2.0013  0.0289
  316SOL    HW2  948   0.090   1.017   0.942  0.8947 -0.3389 -3.9685
  317SOL     OW  949   0.483   0.345   0.100 -0.6311  0.6640 -0.0162
  317SOL    HW1  950   0.470   0.316   0.199 -3.1841  0.3563 -1.3996
  317SOL    HW2  951   0.559   0.291   0.055  1.9072  3.6371 -0.3877
  318SOL     OW  952   3.101   3.322   1.596  0.2364 -0.9922 -0.1577
  318SOL    HW1  953   3.095   3.238   1.538 -1.8227  1.4585 -1.7220
  318SOL    HW2  954   3.080   3.303   1.696  0.7484 -0.5993  1.5075
  319SOL     OW  955   1.452   2.072   0.230 -0.0395  0.2202  0.4871
  319SOL    HW1  956   1.420   2.164   0.198 -0.0733  1.1058 -0.6991
  319SOL    HW2  957   1.403   2.046   0.316 -0.5937 -1.0620  1.7651
  320SOL     OW  958   0.764   2.505   1.244  0.2733  0.1925 -0.0369
  320SOL    HW1  959   0.782   2.525   1.343  0.3450 -3.2594  1.5029
  320SOL    HW2  960   0.684   2.562   1.213  1.8538 -0.7502  0.0640
  321SOL     OW  961   2.594   2.713   2.897  0.2884  0.2562 -0.0661
  321SOL    HW1  962   2.510   2.738   2.844 -2.2617 -1.5418 -2.9608
  321SOL    HW2  963   2.670   2.695   2.830  1.1711  2.0206  1.0164
  322SOL     OW  964   3.455   2.946   2.753  0.5984 -0.1239  0.3632
  322SOL    HW1  965   3.510   2.917   2.836  1.7336  0.2625 -1.7308
  322SOL    HW2  966   3.376   3.001   2.792 -1.0738  1.1927  0.2276
  323SOL     OW  967   3.239   0.419   1.020 -0.6348 -0.0184 -0.3347
  323SOL    HW1  968   3.318   0.464   0.972 -0.7182  5.1108 -1.9592
  323SOL    HW2  969   3.150   0.448   0.976  2.8913 -0.0743  0.7682
  324SOL     OW  970   2.970   2.091   2.763 -0.0742  0.4781  0.3216
  324SOL    HW1  971   2.952   2.051   2.669 -2.7608 -0.2346  0.6527
  324SOL    HW2  972   2.956   2.019   2.836  0.0459  3.9134  0.4128
  325SOL     OW  973   1.923   0.529   2.747 -0.0733 -0.4752  0.1244
  325SOL    HW1  974   1.936   0.600   2.820  1.3163 -2.1497  0.3570
  325SOL    HW2  975   1.958   0.555   2.655 -0.0313  0.5412 -3.2055
  326SOL     OW  976   3.369   2.541   0.682  0.9412  0.0375 -0.6171
  326SOL    HW1  977   3.333   2.585   0.768  2.6031 -0.7803 -1.0468
  326SOL    HW2  978   3.452   2.593   0.650  0.4978  0.8154  0.6936
  327SOL     OW  979   3.024   0.003   3.625  0.3498 -0.7720 -0.2471
  327SOL    HW1  980   2.951  -0.070   3.639  0.6804 -0.4516 -1.0361
  327SOL    HW2  981   3.098  -0.033   3.565 -1.1379  2.9186 -0.2203
  328SOL     OW  982   1.034   0.731   0.894  0.6801 -0.3443  0.4191
  328SOL    HW1  983   0.984   0.755   0.808 -1.3922  0.0454  0.7294
  328SOL    HW2  984   1.123   0.688   0.869  2.1639  1.5084 -1.7229
  329SOL     OW  985   2.412   0.944   1.836  0.7775 -0.6111 -0.4800
  329SOL    HW1  986   2.327   0.963   1.892  1.6245 -0.5821 -0.7734
  329SOL    HW2  987   2.439   1.025   1.778  0.4300 -0.5197  0.7147
  330SOL     OW  988   1.547   0.290   0.711 -0.5136 -0.0546 -0.3215
  330SOL    HW1  989   1.508   0.385   0.726  0.1532 -2.0588  1.3142
  330SOL    HW2  990   1.638   0.304   0.666  3.9063  2.3876  0.5879
  331SOL     OW  991   0.613   2.307   2.308  0.2185  0.0248  0.3401
  331SOL    HW1  992   0.687   2.319   2.235 -0.5420  0.9832 -1.9287
  331SOL    HW2  993   0.570   2.394   2.343  1.4143  0.4963 -4.1275
  332SOL     OW  994   2.621   2.334   1.976  0.3823 -0.6304 -0.0749
  332SOL    HW1  995   2.584   2.260   2.039  2.4704  1.5626 -0.2206
  332SOL    HW2  996   2.725   2.328   1.981  0.8760  0.1929 -0.5479
  333SOL     OW  997   3.408   3.593   1.080  0.4278 -0.2510 -0.5712
  333SOL    HW1  998   3.334   3.651   1.124 -1.9167  1.6834 -0.3872
  333SOL    HW2  999   3.450   3.643   1.002 -1.0896  3.4620 -0.0182
  334SOL     OW 1000   3.389   1.902   1.223 -0.2827  0.8958 -0.2783
  334SOL    HW1 1001   3.484   1.906   1.265 -0.3695 -0.7384  0.6413
  334SOL    HW2 1002   3.394   1.858   1.130  2.6041 -0.9997  1.6759
  335SOL     OW 1003   0.641   3.532   3.027 -0.2927  0.1664  0.5770
  335SOL    HW1 1004   0.557   3.493   3.068 -0.8137 -0.1997  2.5217
  335SOL    HW2 1005   0.701   3.457   2.988 -0.9202  0.8675  1.6939
  336SOL     OW 1006   0.186   3.169   1.867  0.0065 -0.2305  0.6422
  336SOL    HW1 1007   0.123   3.207   1.795  4.6440  0.6665  2.1421
  336SOL    HW2 1008   0.162   3.205   1.961  0.5647 -1.2814 -1.2788
  337SOL     OW 1009   1.030   2.213   2.722 -0.8971  0.3379  0.2199
  337SOL    HW1 1010   1.041   2.295   2.783 -2.4321  1.2197  0.6468
  337SOL    HW2 1011   0.948   2.224   2.660  0.8306  0.2840  1.3430
  338SOL     OW 1012   1.376   3.395   2.863 -0.9674 -0.2139 -0.1513
  338SOL    HW1 1013   1.470   3.358   2.843 -0.1409  0.4552  2.3399
  338SOL    HW2 1014   1.351   3.378   2.962 -1.2726 -2.4451  0.9947
  339SOL     OW 1015   3.591   1.755   3.547  0.6182 -0.6421 -0.6155
  339SOL    HW1 1016   3.584   1.689   3.468 -0.0702 -0.8211  0.7784
  339SOL    HW2 1017   3.643   1.839   3.520 -2.0227 -0.9020  0.2672
  340SOL     OW 1018   2.294   0.643   1.570  0.2078  0.4983  0.3543
  340SOL    HW1 1019   2.312   0.634   1.469  1.9842  0.6991  1.2129
  340SOL    HW2 1020   2.383   0.656   1.621 -1.0307 -1.0950  0.4316
  341SOL     OW 1021   2.214   1.441   1.106 -0.6304 -0.3115  0.3874
  341SOL    HW1 1022   2.249   1.509   1.038  1.6106 -1.4961  0.5603
  341SOL    HW2 1023   2.221   1.346   1.067  0.5568  0.0330 -2.4352
  342SOL     OW 1024   2.591   2.571   3.148  0.3119 -0.1394 -0.1758
  342SOL    HW1 1025   2.599   2.470   3.135 -0.8761  1.0086 -2.3451
  342SOL    HW2 1026   2.596   2.616   3.056  1.4800  0.4289 -0.5418
  343SOL     OW 1027   3.524   3.100   1.250 -0.4127 -0.1803  0.4631
  343SOL    HW1 1028   3.508   3.012   1.199  2.2099  2.7585 -1.2272
  343SOL    HW2 1029   3.543   3.080   1.348 -2.0029  0.4192  0.0330
  344SOL     OW 1030   3.082   3.196   0.971  0.0833  0.3545  0.0491
  344SOL    HW1 1031   3.007   3.229   1.034 -0.8530  1.0110 -2.9022
  344SOL    HW2 1032   3.175   3.230   1.000 -0.0041  1.6610  0.7526
  345SOL     OW 1033   2.928   2.569   0.351 -0.2168  0.5959  0.1035
  345SOL    HW1 1034   2.826   2.557   0.362  1.9576 -3.1922 -1.0349
  345SOL    HW2 1035   2.955   2.668   0.343  0.1486 -2.1753  0.1015
  346SOL     OW 1036   1.269   2.698   2.416 -0.6102 -0.2071 -0.4042
  346SOL    HW1 1037   1.236   2.774   2.479 -2.1341 -1.7847 -1.3250
  346SOL    HW2 1038   1.250   2.720   2.317 -1.2833 -3.0633  0.5238
  347SOL     OW 1039   1.999   2.277   2.653 -0.1664  0.5831 -1.3551
  347SOL    HW1 1040   1.970   2.375   2.676 -1.4456 -0.9924 -1.0672
  347SOL    HW2 1041   1.991   2.260   2.552 -0.3395 -1.7529  3.1012
  348SOL     OW 1042   0.472   2.194   1.378  0.3473  0.0209 -0.7574
  348SOL    HW1 1043   0.427   2.270   1.326  1.3594 -1.5113 -0.1024
  348SOL    HW2 1044   0.574   2.201   1.365  0.6773  0.1076 -0.7758
  349SOL     OW 1045   1.870   1.617   1.855  0.3585 -0.0578 -0.5573
  349SOL    HW1 1046   1.923   1.698   1.820 -2.6171 -1.3924  3.6390
  349SOL    HW2 1047   1.785   1.600   1.801 -0.3522  2.0490 -1.1543
  350SOL     OW 1048   2.621   2.573   0.708 -0.0911 -0.2036  0.0174
  350SOL    HW1 1049   2.524   2.557   0.737  2.6415 -4.5333 -0.4546
  350SOL    HW2 1050   2.652   2.662   0.751 -0.3258  0.5132  0.0571
  351SOL     OW 1051   0.511   0.184   1.987 -0.1302 -0.5424 -0.4456
  351SOL    HW1 1052   0.547   0.178   2.083 -2.8115  3.0578  0.6870
  351SOL    HW2 1053   0.409   0.170   1.990  1.8190 -1.9110  2.5423
  352SOL     OW 1054   0.671   1.294   0.380  0.4927  0.1398  0.0568
  352SOL    HW1 1055   0.635   1.388   0.362  0.9142 -0.6984 -0.8186
  352SOL    HW2 1056   0.720   1.252   0.300 -0.8803 -0.1390  1.3217
  353SOL     OW 1057   0.860   1.677   3.268 -0.0721 -0.1802 -0.1061
  353SOL    HW1 1058   0.905   1.765   3.238 -2.2314  2.5679 -2.8463
  353SOL    HW2 1059   0.877   1.594   3.208 -0.7534  1.2612 -0.0359
  354SOL     OW 1060   2.068   2.728   2.135  0.0490 -0.1579  0.0909
  354SOL    HW1 1061   2.099   2.823   2.108  1.2930  2.3336 -1.4200
  354SOL    HW2 1062   2.141   2.679   2.191 -1.1036  0.7439  0.5072
  355SOL     OW 1063   2.672   0.963   3.304  0.5268  0.0116  0.1305
  355SOL    HW1 1064   2.676   0.864   3.333  0.8953  2.4974 -0.1015
  355SOL    HW2 1065   2.631   0.972   3.209 -0.8320 -0.7392  0.0595
  356SOL     OW 1066   0.831   2.528   1.575 -0.3755  0.4271  0.4148
  356SOL    HW1 1067   0.872   2.617   1.609  0.5111 -0.1939 -0.3331
  356SOL    HW2 1068   0.777   2.483   1.649 -1.3972 -0.7809 -0.9667
  357SOL     OW 1069   0.194   0.180   2.048 -0.4702  0.8758  0.0397
  357SOL    HW1 1070   0.146   0.138   2.129  0.7584 -0.5404 -0.1620
  357SOL    HW2 1071   0.188   0.284   2.042 -1.2027 -0.5965 -1.4787
  358SOL     OW 1072   3.023   2.309   1.762 -0.5059  0.5367 -0.9299
  358SOL    HW1 1073   3.022   2.242   1.684  1.8611  3.9598  0.5337
  358SOL    HW2 1074   3.021   2.406   1.727 -0.5329  1.1211  2.9270
  359SOL     OW 1075   2.566   2.189   2.595 -0.3599  0.1172  0.1537
  359SOL    HW1 1076   2.478   2.213   2.640  0.3538 -2.6678 -2.5486
  359SOL    HW2 1077   2.599   2.268   2.535  2.2204  0.4326 -1.2524
  360SOL     OW 1078   1.548   3.192   0.985  0.1070  0.5356 -0.1426
  360SOL    HW1 1079   1.487   3.188   1.067 -0.7660 -1.2664  1.9089
  360SOL    HW2 1080   1.567   3.289   0.956  1.3136  2.1580 -0.0814
  361SOL     OW 1081   2.459   3.493   0.192 -0.1364 -0.0477  0.2108
  361SOL    HW1 1082   2.375   3.441   0.221  2.5062  1.0799 -0.0800
  361SOL    HW2 1083   2.546   3.449   0.223 -1.5976  1.3778  0.7028
  362SOL     OW 1084   2.100   0.845   1.668 -0.0062  0.0498  0.1306
  362SOL    HW1 1085   2.139   0.881   1.756 -0.6847 -0.4375 -0.4563
  362SOL    HW2 1086   2.157   0.767   1.634  2.7813  1.7110  0.9871
  363SOL     OW 1087   2.050   1.765   2.560 -0.3211  0.6074  0.0688
  363SOL    HW1 1088   1.973   1.791   2.622 -2.9285  1.0669 -0.7460
  363SOL    HW2 1089   2.140   1.765   2.612  2.3753 -0.7414  3.0203
  364SOL     OW 1090   0.691   0.698   1.791  0.7699 -0.4830  0.1040
  364SOL    HW1 1091   0.692   0.597   1.804  1.1544  1.9639  0.0006
  364SOL    HW2 1092   0.657   0.725   1.698 -1.0720 -1.9182 -2.3370
  365SOL     OW 1093   1.099   0.881   3.283 -0.2816  0.4039  0.6560
  365SOL    HW1 1094   1.074   0.844   3.190  1.1014  1.3582  0.4639
  365SOL    HW2 1095   1.075   0.982   3.290  1.3259 -1.3305 -0.4636
  366SOL     OW 1096   2.647   1.355   3.145 -0.1346  0.5579 -0.2080
  366SOL    HW1 1097   2.722   1.309   3.199 -1.8940 -1.3895 -1.9724
  366SOL    HW2 1098   2.577   1.389   3.212  1.4295 -1.7043  0.4719
  367SOL     OW 1099   0.020   3.081   2.618 -0.0706 -0.1838 -0.1600
  367SOL    HW1 1100  -0.054   3.030   2.669 -1.9840  1.9093  0.1642
  367SOL    HW2 1101  -0.022   3.147   2.549 -0.9704  1.8295  0.3450
  368SOL     OW 1102   3.533   1.294   1.649 -0.3717  0.0070 -0.6497
  368SOL    HW1 1103   3.440   1.315   1.611 -1.4310  0.4437  2.0763
  368SOL    HW2 1104   3.529   1.290   1.752  3.1480 -0.6842  1.3968
  369SOL     OW 1105   0.476   3.466   2.516 -0.0820  0.0557  0.5174
  369SOL    HW1 1106   0.528   3.434   2.432 -3.5043 -0.0388 -0.9679
  369SOL    HW2 1107   0.507   3.557   2.550 -2.4749  0.8217  1.8933
  370SOL     OW 1108   3.253   0.285   0.636  0.0709  0.0834  0.1379
  370SOL    HW1 1109   3.195   0.368   0.614  0.8306 -0.5159  1.5817
  370SOL    HW2 1110   3.207   0.219   0.701 -1.5259 -0.3164  1.1114
  371SOL     OW 1111   0.924   2.757   1.716 -0.0155 -0.2339 -0.2318
  371SOL    HW1 1112   1.025   2.746   1.731 -1.3455 -1.1708  1.5286
  371SOL    HW2 1113   0.872   2.775   1.803 -0.0852  2.1580 -0.9001
  372SOL     OW 1114   2.630   0.311   2.782  0.3907 -0.4153 -0.9222
  372SOL    HW1 1115   2.648   0.386   2.854  3.4438 -1.5356  0.8124
  372SOL    HW2 1116   2.529   0.286   2.794 -2.3222 -0.3306  1.7458
  373SOL     OW 1117   0.195   2.643   0.926 -0.2577 -0.4082  0.7547
  373SOL    HW1 1118   0.236   2.707   0.998 -0.4851 -1.4298 -2.1620
  373SOL    HW2 1119   0.114   2.597   0.969 -0.9010  0.8288 -0.1658
  374SOL     OW 1120   3.397   0.395   2.638  0.1235  0.2566 -0.2223
  374SOL    HW1 1121   3.312   0.366   2.688 -0.9430 -1.9299 -2.3003
  374SOL    HW2 1122   3.459   0.436   2.708  0.6379 -3.1144  1.0578
  375SOL     OW 1123   0.696   0.722   3.303  0.4206  0.4450  0.0124
  375SOL    HW1 1124   0.635   0.639   3.289 -0.5379 -0.1486  0.3075
  375SOL    HW2 1125   0.785   0.698   3.346 -1.9991  0.0938  1.5352
  376SOL     OW 1126   3.404   2.748   2.049  0.3657  0.0725  0.6796
  376SOL    HW1 1127   3.490   2.757   1.993  0.5421 -1.4236 -0.2746
  376SOL    HW2 1128   3.318   2.771   1.997 -0.6414 -0.2718 -0.1951
  377SOL     OW 1129   1.256   0.483   3.220  0.3199 -0.9805 -0.3892
  377SOL    HW1 1130   1.229   0.389   3.249 -0.3745 -0.3401 -1.3003
  377SOL    HW2 1131   1.323   0.480   3.143 -0.3100  2.8731  0.2924
  378SOL     OW 1132   3.529   1.274   3.355  0.1008 -0.3069  0.3701
  378SOL    HW1 1133   3.614   1.220   3.329 -1.7326  0.4140  1.7615
  378SOL    HW2 1134   3.445   1.230   3.311 -0.8669  0.2671  0.1711
  379SOL     OW 1135   1.635   0.773   3.038  0.3903 -0.0043  0.0689
  379SOL    HW1 1136   1.570   0.758   2.957  1.6632  0.5660  4.4538
  379SOL    HW2 1137   1.601   0.847   3.102 -1.3208 -0.3452  1.7108
  380SOL     OW 1138   0.282   2.406   1.866  0.3155 -0.1897 -0.3748
  380SOL    HW1 1139   0.343   2.463   1.928  3.5010  0.0952  1.2390
  380SOL    HW2 1140   0.188   2.402   1.905 -0.9933  0.0959 -3.0871
  381SOL     OW 1141   3.604   1.579   3.316  0.1850 -0.0024  0.3573
  381SOL    HW1 1142   3.640   1.594   3.221 -2.0987  0.6343 -1.2494
  381SOL    HW2 1143   3.573   1.480   3.328 -0.8139 -0.3111  1.1424
  382SOL     OW 1144   2.319   2.558   0.793  0.4033  0.4677  0.5463
  382SOL    HW1 1145   2.235   2.508   0.756 -1.7946 -0.6839 -2.8577
  382SOL    HW2 1146   2.307   2.566   0.896  0.2943  2.6603  0.4175
  383SOL     OW 1147   0.722   1.978   0.264 -0.2537 -0.4847 -0.0710
  383SOL    HW1 1148   0.806   1.992   0.207  0.8818 -2.8874 -0.0561
  383SOL    HW2 1149   0.745   1.908   0.336  3.0595  1.6766  1.1994
  384SOL     OW 1150   0.972   2.862   2.845  0.5304 -0.1770 -0.0456
  384SOL    HW1 1151   0.877   2.891   2.816  0.6809 -0.1745 -1.9359
  384SOL    HW2 1152   0.969   2.761   2.865 -0.9660  2.1668 -1.3087
  385SOL     OW 1153   2.831   2.312   0.742 -0.0779 -0.5214 -0.2065
  385SOL    HW1 1154   2.770   2.397   0.738  0.5333 -0.5412  0.5527
  385SOL    HW2 1155   2.917   2.323   0.686 -0.1301 -1.2163  2.6734
  386SOL     OW 1156   2.821   0.649   1.158  0.5728  0.7180 -0.2522
  386SOL    HW1 1157   2.787   0.555   1.185 -0.3095  2.1902  0.2245
  386SOL    HW2 1158   2.784   0.680   1.066  1.6481  0.7109  1.1965
  387SOL     OW 1159   0.779   1.152   2.383 -0.4801 -0.4842  0.0283
  387SOL    HW1 1160   0.718   1.185   2.458  0.3626 -0.2537 -3.1449
  387SOL    HW2 1161   0.736   1.171   2.292  1.0085 -1.2661  0.0170
  388SOL     OW 1162   1.230   1.745   2.918  0.0441 -0.2573 -0.1137
  388SOL    HW1 1163   1.147   1.804   2.914 -0.1540 -0.3019 -0.7295
  388SOL    HW2 1164   1.319   1.795   2.911  0.8399  0.2651 -1.5461
  389SOL     OW 1165   1.235   1.475   2.092  0.5204 -0.2620  0.4189
  389SOL    HW1 1166   1.189   1.383   2.091  0.6938 -1.2747  1.9242
  389SOL    HW2 1167   1.210   1.535   2.012 -2.5162  2.5596  1.1274
  390SOL     OW 1168   0.035   3.605   1.225 -0.2526  0.3191  0.1060
  390SOL    HW1 1169  -0.061   3.592   1.189  0.6059  4.2990 -1.2622
  390SOL    HW2 1170   0.088   3.670   1.167  0.6196  1.2402 -0.9527
  391SOL     OW 1171   1.809   1.480   1.281  0.1444 -0.3083 -0.0219
  391SOL    HW1 1172   1.787   1.451   1.185 -1.3287 -3.3771 -1.5943
  391SOL    HW2 1173   1.894   1.537   1.293 -0.7097  0.2787 -1.3508
  392SOL     OW 1174   3.405   3.618   0.237 -0.4728 -0.2422  0.4838
  392SOL    HW1 1175   3.494   3.598   0.190 -2.0344  1.2983  0.0495
  392SOL    HW2 1176   3.348   3.532   0.246 -0.8120 -0.3528 -0.2814
  393SOL     OW 1177   1.850   2.572   3.533 -0.6339  0.1566 -0.3423
  393SOL    HW1 1178   1.856   2.472   3.505 -1.1851 -0.5285  0.0781
  393SOL    HW2 1179   1.773   2.580   3.603  1.7672  2.0356 -0.4509
  394SOL     OW 1180   0.034   2.894   3.265  0.5146  0.2700 -0.5290
  394SOL    HW1 1181   0.052   2.888   3.163 -1.0471 -1.2578  0.0096
  394SOL    HW2 1182  -0.039   2.825   3.290  0.8463  1.4951 -2.3458
  395SOL     OW 1183   0.173   0.156   1.053  0.0183 -0.3303  0.0869
  395SOL    HW1 1184   0.224   0.239   1.088 -2.7315 -0.3530  2.2929
  395SOL    HW2 1185   0.239   0.084   1.023 -1.0660  1.8419  1.4717
  396SOL     OW 1186   2.586   0.678   0.578  0.6971  0.0252 -0.2279
  396SOL    HW1 1187   2.501   0.646   0.527 -0.0229 -0.6758  4.0312
  396SOL    HW2 1188   2.670   0.636   0.537 -0.9413 -1.3628  0.3092
  397SOL     OW 1189   0.184   0.828   3.053  0.6821 -0.3224  0.1546
  397SOL    HW1 1190   0.130   0.844   3.140 -0.9485  1.0747 -0.1184
  397SOL    HW2 1191   0.178   0.912   2.993  0.5464 -2.2746  0.6470
  398SOL     OW 1192   0.699   0.170   3.555 -0.1809  0.6785  0.2272
  398SOL    HW1 1193   0.631   0.172   3.477 -0.8430  0.1658 -3.0491
  398SOL    HW2 1194   0.790   0.213   3.532  1.1304 -1.9351 -0.8118
  399SOL     OW 1195   2.411   0.323   2.476  0.1979  0.1904 -0.1207
  399SOL    HW1 1196   2.352   0.246   2.512 -1.1398 -1.2874  0.0332
  399SOL    HW2 1197   2.448   0.299   2.381  1.5500 -1.1140  1.4072
  400SOL     OW 1198   1.154   2.554   3.401 -0.2915 -0.5868 -0.0577
  400SOL    HW1 1199   1.168   2.571   3.300 -0.2964 -0.7137 -1.2474
  400SOL    HW2 1200   1.128   2.642   3.450 -1.5333 -0.7047 -1.2672
  401SOL     OW 1201   0.392   1.427   2.887  0.1113  0.1401 -0.1636
  401SOL    HW1 1202   0.339   1.407   2.801  1.5721 -0.8371  0.3099
  401SOL    HW2 1203   0.332   1.479   2.953 -1.2703  0.3397 -3.1860
  402SOL     OW 1204   0.142   0.085   0.449  0.5304 -0.2077 -0.0409
  402SOL    HW1 1205   0.139  -0.007   0.497  1.8228 -0.8020 -1.3301
  402SOL    HW2 1206   0.051   0.133   0.460 -0.2756  1.9487 -2.5271
  403SOL     OW 1207   0.369   1.426   1.844 -0.6143 -0.4200  0.0869
  403SOL    HW1 1208   0.471   1.413   1.834 -1.8552  2.5423  0.2762
  403SOL    HW2 1209   0.322   1.437   1.753 -1.3608 -1.3009 -0.6078
  404SOL     OW 1210   2.691   2.958   3.052  0.3326 -0.5233  0.0233
  404SOL    HW1 1211   2.628   3.004   3.118 -0.7400  2.4000 -1.2845
  404SOL    HW2 1212   2.642   2.880   3.004  0.8743  1.5175 -1.4057
  405SOL     OW 1213   0.248   0.504   2.410 -0.8150 -0.4614 -0.0424
  405SOL    HW1 1214   0.177   0.435   2.435  4.1642 -0.5970 -2.1361
  405SOL    HW2 1215   0.254   0.513   2.308  2.6138  0.0561 -1.1890
  406SOL     OW 1216   1.472   1.793   3.399  0.3618  0.7752  0.0340
  406SOL    HW1 1217   1.543   1.858   3.365  0.7444 -2.2391  1.4878
  406SOL    HW2 1218   1.467   1.798   3.501 -0.8535 -4.1381 -3.1042
  407SOL     OW 1219   2.363   0.485   2.954 -0.2001  0.1063  0.8030
  407SOL    HW1 1220   2.333   0.392   2.921  2.2620 -1.4781 -0.3786
  407SOL    HW2 1221   2.285   0.554   2.949  2.7872  1.6187 -1.1328
  408SOL     OW 1222   0.513   3.215   2.730 -0.3862 -0.0004  1.0830
  408SOL    HW1 1223   0.419   3.189   2.766 -1.9346  1.4102  2.0716
  408SOL    HW2 1224   0.507   3.291   2.661 -0.9565  1.1743 -1.6848
  409SOL     OW 1225   3.572   3.025   1.522 -0.2208  0.1786 -0.1340
  409SOL    HW1 1226   3.597   3.116   1.563  1.7523  1.1360  2.0374
  409SOL    HW2 1227   3.500   2.978   1.579 -0.9689 -0.9017 -1.6590
  410SOL     OW 1228   3.477   2.053   0.461  1.0309 -0.1866 -0.0046
  410SOL    HW1 1229   3.560   2.103   0.425  1.7318 -2.3522  2.2657
  410SOL    HW2 1230   3.495   1.952   0.460  2.0669 -0.2791 -0.4770
  411SOL     OW 1231   2.913   0.143   1.809  1.0897  0.2995  0.3591
  411SOL    HW1 1232   2.821   0.189   1.795  1.8946  1.3271 -2.2064
  411SOL    HW2 1233   2.902   0.049   1.850 -0.0489  1.4549  0.2691
  412SOL     OW 1234   2.645   0.455   1.842 -0.1756 -0.1723 -0.4713
  412SOL    HW1 1235   2.580   0.381   1.811 -0.0494  1.5434 -2.3017
  412SOL    HW2 1236   2.615   0.545   1.804 -0.2249 -0.5980 -0.6458
  413SOL     OW 1237   3.559   0.500   2.845 -0.8235 -0.2142 -0.2329
  413SOL    HW1 1238   3.581   0.601   2.863 -0.8351 -2.6657  1.9959
  413SOL    HW2 1239   3.595   0.442   2.923 -1.9633  0.5990 -1.1596
  414SOL     OW 1240   3.179   1.646   0.349 -0.4585  0.0839 -0.4975
  414SOL    HW1 1241   3.137   1.564   0.395 -0.4936  2.7065  0.3817
  414SOL    HW2 1242   3.150   1.730   0.401 -2.0400  0.6720  1.4784
  415SOL     OW 1243   0.960   2.952   0.180 -0.2696  0.2496  0.0651
  415SOL    HW1 1244   1.001   3.046   0.179  0.1111  0.8091 -0.2263
  415SOL    HW2 1245   0.977   2.905   0.271  2.6567 -0.9392  1.9309
  416SOL     OW 1246   1.725   3.156   3.066 -0.2086 -0.0516 -0.2950
  416SOL    HW1 1247   1.677   3.088   3.126 -1.5868 -2.5024 -1.1029
  416SOL    HW2 1248   1.819   3.187   3.101 -0.2068 -0.7116 -0.2189
  417SOL     OW 1249   0.305   1.173   1.462 -0.0307  0.1175 -0.3947
  417SOL    HW1 1250   0.290   1.143   1.363  2.2848  5.1108  1.6874
  417SOL    HW2 1251   0.398   1.151   1.499 -1.5163 -1.2680 -2.2697
  418SOL     OW 1252   3.105   0.098   0.820 -0.0941  0.0090  0.0272
  418SOL    HW1 1253   3.012   0.057   0.818 -2.7074  1.6989 -1.7423
  418SOL    HW2 1254   3.132   0.125   0.917  1.4408  0.2714  1.3766
  419SOL     OW 1255   0.311   0.020   0.224  0.2048 -0.0303  0.1897
  419SOL    HW1 1256   0.251   0.054   0.300 -0.2569 -0.7647 -0.4012
  419SOL    HW2 1257   0.409   0.004   0.254  0.2158  0.5270 -0.0013
  420SOL     OW 1258   0.141   1.406   1.546 -0.1590  0.6578 -0.3586
  420SOL    HW1 1259   0.200   1.329   1.512  0.4581 -1.2680 -1.5073
  420SOL    HW2 1260   0.053   1.368   1.584  0.2081  2.6341 -5.0199
  421SOL     OW 1261   2.090   3.074   0.779 -0.1846  0.1912  0.0157
  421SOL    HW1 1262   2.123   2.990   0.731 -0.8602 -1.8330  0.9967
  421SOL    HW2 1263   2.003   3.057   0.831 -0.0158 -0.8986 -1.0086
  422SOL     OW 1264   0.219   0.458   1.781 -0.3086  0.7930 -0.6446
  422SOL    HW1 1265   0.282   0.439   1.702  0.1446  0.5046 -1.2149
  422SOL    HW2 1266   0.149   0.526   1.754 -0.6076 -3.4880 -0.8219
  423SOL     OW 1267   1.213   1.623   2.368  0.1512  0.2557 -0.0984
  423SOL    HW1 1268   1.232   1.574   2.279 -0.8441 -1.4113 -2.8539
  423SOL    HW2 1269   1.218   1.725   2.358  2.5123 -0.1426  0.4522
  424SOL     OW 1270   2.048   2.452   0.715 -0.1806  0.5547 -1.0515
  424SOL    HW1 1271   2.013   2.427   0.622 -1.1373 -1.4799 -0.1999
  424SOL    HW2 1272   1.994   2.406   0.791  1.2178  0.0108 -0.9495
  425SOL     OW 1273   3.362   3.383   2.397 -0.2172  0.6602  0.6006
  425SOL    HW1 1274   3.268   3.375   2.439 -3.3938  2.7228 -1.2069
  425SOL    HW2 1275   3.376   3.467   2.340  1.3092  0.3353  2.0290
  426SOL     OW 1276   0.388   3.392   3.176  0.2653 -0.1722  0.1163
  426SOL    HW1 1277   0.356   3.398   3.273  0.9046 -2.9922 -1.9981
  426SOL    HW2 1278   0.316   3.429   3.114  0.1647 -2.9049 -2.6142
  427SOL     OW 1279   1.218   3.580   0.093  0.0029  0.9599  0.7908
  427SOL    HW1 1280   1.139   3.617   0.148  3.6768  0.6491  3.8597
  427SOL    HW2 1281   1.188   3.501   0.034 -0.2104 -0.6437 -2.1043
  428SOL     OW 1282   3.318   0.581   1.795 -0.0483  0.6883 -0.3899
  428SOL    HW1 1283   3.334   0.484   1.826 -1.3997 -2.3477  5.0117
  428SOL    HW2 1284   3.255   0.581   1.714 -0.6776  0.6765 -0.7073
  429SOL     OW 1285   2.437   3.467   0.631 -0.1233 -0.5392  0.4615
  429SOL    HW1 1286   2.394   3.383   0.588  3.0481  0.4291 -0.1273
  429SOL    HW2 1287   2.533   3.484   0.598 -1.6797  1.8201  0.7633
  430SOL     OW 1288   1.286   1.610   3.218  0.2181 -0.9968 -0.0083
  430SOL    HW1 1289   1.346   1.671   3.277  0.7025  2.4229  0.1721
  430SOL    HW2 1290   1.269   1.653   3.125  1.4043 -2.2704 -1.2955
  431SOL     OW 1291   3.221   2.640   1.393  0.4241 -0.3240 -0.3629
  431SOL    HW1 1292   3.321   2.666   1.381  0.3913 -2.1374  0.2225
  431SOL    HW2 1293   3.189   2.601   1.303  1.6070  2.0339  0.5454
  432SOL     OW 1294   1.861   2.789   3.312  0.1030 -0.2123 -0.2658
  432SOL    HW1 1295   1.898   2.755   3.222 -0.9505 -0.1563 -0.5853
  432SOL    HW2 1296   1.850   2.715   3.384  0.6327 -1.4261  2.5032
  433SOL     OW 1297   1.434   0.469   3.012 -0.3019  0.4131 -0.0826
  433SOL    HW1 1298   1.425   0.501   2.913  2.6415  0.6462 -2.4058
  433SOL    HW2 1299   1.530   0.469   3.052 -1.8011 -0.2110  0.5797
  434SOL     OW 1300   1.488   3.264   2.510 -0.0534  0.1969  0.5401
  434SOL    HW1 1301   1.518   3.280   2.609  1.4007 -0.5013 -0.8674
  434SOL    HW2 1302   1.573   3.227   2.462 -0.4259 -1.6645 -1.2775
  435SOL     OW 1303   0.316   0.050   3.527 -0.0412 -0.7046 -0.4296
  435SOL    HW1 1304   0.335   0.050   3.629 -1.1429  2.4245  0.4197
  435SOL    HW2 1305   0.233   0.109   3.505 -2.5648 -2.3228 -3.3043
  436SOL     OW 1306   0.701   1.484   2.845  0.6719 -0.5208 -0.1055
  436SOL    HW1 1307   0.600   1.480   2.866  0.3486 -1.6373 -1.9900
  436SOL    HW2 1308   0.724   1.550   2.770  2.1861 -0.3748  0.7323
  437SOL     OW 1309   1.376   2.860   2.994 -0.2655 -0.3553 -1.0775
  437SOL    HW1 1310   1.419   2.840   2.902 -1.7567  0.8820 -0.7218
  437SOL    HW2 1311   1.316   2.943   2.991 -0.6264 -2.4633  0.3633
  438SOL     OW 1312   0.708   1.018   0.784 -0.3874  0.2466  0.0294
  438SOL    HW1 1313   0.655   0.977   0.863  2.3017  1.2297  0.9041
  438SOL    HW2 1314   0.772   0.947   0.745  0.9775  2.9036  2.4142
  439SOL     OW 1315   3.563   1.751   2.465  0.2209 -0.5227  0.0407
  439SOL    HW1 1316   3.489   1.694   2.507  1.4688  1.0675 -2.3765
  439SOL    HW2 1317   3.537   1.851   2.453 -2.1960 -0.1889  2.9776
  440SOL     OW 1318   3.337   0.921   3.242 -0.3317  0.1776  0.9373
  440SOL    HW1 1319   3.312   0.848   3.175 -1.7776 -0.2120 -2.3941
  440SOL    HW2 1320   3.278   1.004   3.235 -2.1915 -0.3359  0.3284
  441SOL     OW 1321   0.734   2.133   1.682 -0.7105  0.1386 -0.3048
  441SOL    HW1 1322   0.631   2.124   1.680 -1.7640 -0.6565  1.9516
  441SOL    HW2 1323   0.757   2.224   1.728 -1.6636  1.1616 -0.6770
  442SOL     OW 1324   2.276   1.696   0.870 -0.2151  0.0425  0.0896
  442SOL    HW1 1325   2.280   1.651   0.778  0.3501  1.1692  0.7798
  442SOL    HW2 1326   2.187   1.744   0.886 -0.4331  1.9498 -0.0716
  443SOL     OW 1327   2.830   2.503   3.508  0.8254  0.1102  0.4270
  443SOL    HW1 1328   2.772   2.431   3.462 -1.6114 -0.3403  0.2764
  443SOL    HW2 1329   2.924   2.511   3.466  0.3962  2.0462  0.2837
  444SOL     OW 1330   2.033   1.713   3.476  0.2830 -0.5020  0.6929
  444SOL    HW1 1331   1.983   1.801   3.498 -0.5195 -0.9932 -1.4575
  444SOL    HW2 1332   2.014   1.677   3.382 -1.9141  1.9890 -2.5254
  445SOL     OW 1333   0.493   2.557   2.357 -0.2548  0.4440 -0.4897
  445SOL    HW1 1334   0.562   2.629   2.385 -3.4015  0.5967  0.0781
  445SOL    HW2 1335   0.410   2.561   2.420  0.3206 -0.4766  0.3965
  446SOL     OW 1336   1.133   1.211   2.083  0.8094  0.2529 -0.0654
  446SOL    HW1 1337   1.219   1.159   2.063  0.9407 -0.9315 -0.5289
  446SOL    HW2 1338   1.082   1.171   2.164 -0.4190  0.2804  2.4343
  447SOL     OW 1339   0.873   0.797   0.652 -0.1053  0.0167 -0.2059
  447SOL    HW1 1340   0.795   0.740   0.615 -0.7822  1.1968 -0.5725
  447SOL    HW2 1341   0.947   0.817   0.584 -2.1034 -1.5003 -2.5148
  448SOL     OW 1342   1.578   1.229   2.359 -0.2139  0.6926 -0.3933
  448SOL    HW1 1343   1.543   1.292   2.286 -1.6216  0.1536  1.4984
  448SOL    HW2 1344   1.670   1.189   2.334  1.4324  0.4903 -0.6616
  449SOL     OW 1345   0.193   1.890   2.841  0.2511  0.5916 -0.3966
  449SOL    HW1 1346   0.157   1.931   2.929 -3.0014 -0.0140  0.8931
  449SOL    HW2 1347   0.186   1.959   2.765 -1.1233 -1.7829 -0.6674
  450SOL     OW 1348   2.583   1.651   2.242 -0.1845 -0.7843 -0.5554
  450SOL    HW1 1349   2.575   1.717   2.322 -0.1107 -0.4051 -3.1252
  450SOL    HW2 1350   2.678   1.650   2.199  2.1484 -1.8033  0.4959
  451SOL     OW 1351   2.781   1.710   1.599 -0.0125 -0.0914  0.9179
  451SOL    HW1 1352   2.816   1.628   1.651 -0.5776  2.0905  0.4197
  451SOL    HW2 1353   2.834   1.727   1.512 -0.5483 -2.7731  0.9589
  452SOL     OW 1354   0.891   1.154   1.579  0.5379 -0.3091  0.0002
  452SOL    HW1 1355   0.916   1.150   1.678  0.6710  0.1064 -1.9483
  452SOL    HW2 1356   0.976   1.176   1.523 -1.0850 -0.4390 -1.4705
  453SOL     OW 1357   0.337   2.388   1.202  0.5639 -0.6078  0.2824
  453SOL    HW1 1358   0.245   2.392   1.248  2.4126 -2.2472 -1.6108
  453SOL    HW2 1359   0.340   2.366   1.101  3.6036 -1.2667 -2.1871
  454SOL     OW 1360   1.411   1.476   0.334  0.0220 -0.5931  0.6218
  454SOL    HW1 1361   1.494   1.535   0.319  0.0691  0.1605 -0.3904
  454SOL    HW2 1362   1.427   1.412   0.413  0.2084  3.6745  1.8675
  455SOL     OW 1363   2.112   0.529   0.958  0.1551  0.5261  0.2551
  455SOL    HW1 1364   2.122   0.431   0.927  2.0907  4.1744  0.1956
  455SOL    HW2 1365   2.144   0.598   0.888  0.9111  0.2224 -2.4208
  456SOL     OW 1366   2.141   3.351   0.302 -0.5356  0.3967  1.1149
  456SOL    HW1 1367   2.066   3.282   0.279  1.3393  0.8393 -0.9361
  456SOL    HW2 1368   2.111   3.451   0.293  1.3886 -1.2205  0.5238
  457SOL     OW 1369   2.443   1.351   2.382 -0.1389 -0.5694  0.0424
  457SOL    HW1 1370   2.475   1.434   2.328  1.5997 -1.2784  0.5188
  457SOL    HW2 1371   2.483   1.350   2.476 -1.1426 -0.6217 -1.5016
  458SOL     OW 1372   2.979   0.600   2.799 -0.3482 -0.0648  0.3573
  458SOL    HW1 1373   2.892   0.624   2.849  1.1500  0.4606 -1.0355
  458SOL    HW2 1374   2.994   0.667   2.722  0.8468  1.6826  1.0164
  459SOL     OW 1375   2.891   1.839   3.041  0.2283  0.4059 -0.2218
  459SOL    HW1 1376   2.968   1.851   3.108  0.3655 -0.4004 -0.8858
  459SOL    HW2 1377   2.887   1.743   3.004 -0.6889  1.4289  0.3805
  460SOL     OW 1378   1.157   1.056   2.948  0.2360 -0.2268 -0.3560
  460SOL    HW1 1379   1.181   1.123   2.871 -3.4552 -1.1113  2.1501
  460SOL    HW2 1380   1.189   1.094   3.039 -0.0852 -1.2227  0.9696
  461SOL     OW 1381   0.108   2.747   0.213 -0.4958 -0.6260  0.4269
  461SOL    HW1 1382   0.178   2.813   0.250 -0.1691  0.8481 -1.2484
  461SOL    HW2 1383   0.020   2.795   0.189 -0.6583 -2.4435 -0.3926
  462SOL     OW 1384   1.641   3.297   2.816 -0.2693  0.1195  0.2828
  462SOL    HW1 1385   1.663   3.238   2.898  0.1630  1.6385 -2.1808
  462SOL    HW2 1386   1.715   3.366   2.799  0.7656 -0.5623 -0.1273
  463SOL     OW 1387   2.465   2.509   2.302  0.0891 -0.2242  0.9697
  463SOL    HW1 1388   2.397   2.432   2.307 -0.4094 -2.4963 -1.7543
  463SOL    HW2 1389   2.559   2.474   2.323  1.2573 -1.4717 -0.9532
  464SOL     OW 1390   3.055   2.893   0.918  0.0644 -0.2830  0.4315
  464SOL    HW1 1391   2.956   2.870   0.899  1.1959 -0.9737  0.4624
  464SOL    HW2 1392   3.073   2.993   0.931 -0.9197 -2.9553 -1.1312
  465SOL     OW 1393   0.006   0.165   1.710 -0.1596 -0.6733 -0.2116
  465SOL    HW1 1394   0.046   0.109   1.634  0.0693 -0.1839  0.0886
  465SOL    HW2 1395   0.079   0.193   1.777 -0.7379  2.7840  0.5512
  466SOL     OW 1396   1.622   2.959   3.244 -0.5883  0.6387 -0.3746
  466SOL    HW1 1397   1.703   2.903   3.275  1.1227 -1.7525  2.4971
  466SOL    HW2 1398   1.549   2.910   3.189  1.2458 -0.3455 -1.0037
  467SOL     OW 1399   0.009   2.453   0.298 -0.1716  0.4686  0.1647
  467SOL    HW1 1400  -0.059   2.427   0.225 -0.0950 -3.5820  2.4740
  467SOL    HW2 1401   0.041   2.550   0.284  0.0786  0.0652 -0.1000
  468SOL     OW 1402   2.457   2.715   3.342 -0.3349  0.1515 -0.3367
  468SOL    HW1 1403   2.512   2.665   3.270  0.6655 -0.6664  1.8053
  468SOL    HW2 1404   2.377   2.765   3.298 -1.4288 -0.1747  1.6067
  469SOL     OW 1405   1.027   2.208   0.846  0.4211  0.3267 -0.7255
  469SOL    HW1 1406   0.976   2.226   0.934 -0.7995  0.5648 -1.1170
  469SOL    HW2 1407   1.083   2.289   0.815  1.3001  2.5923  1.5071
  470SOL     OW 1408   2.306   0.815   0.782  0.3545  0.0516  0.0221
  470SOL    HW1 1409   2.373   0.773   0.715  0.6922  1.0564  0.0425
  470SOL    HW2 1410   2.340   0.833   0.879  2.2786  1.8215  1.7543
  471SOL     OW 1411   0.369   2.202   0.628  0.6890  0.0317 -0.0691
  471SOL    HW1 1412   0.445   2.201   0.559  0.3760 -1.8546 -1.4716
  471SOL    HW2 1413   0.369   2.293   0.679  0.1080  2.0423  2.2418
  472SOL     OW 1414   3.087   2.523   3.403 -0.2243 -0.2999  0.6207
  472SOL    HW1 1415   3.150   2.561   3.475 -0.0139  5.0617  1.3101
  472SOL    HW2 1416   3.118   2.547   3.308  0.1501  1.5218 -1.2376
  473SOL     OW 1417   1.687   2.096   0.913 -0.4042  0.4665  0.4802
  473SOL    HW1 1418   1.765   2.163   0.908 -0.5506 -1.2925 -1.0337
  473SOL    HW2 1419   1.644   2.088   0.820  0.2873 -2.4878 -1.3644
  474SOL     OW 1420   3.340   0.538   1.381  0.5233 -0.6403 -0.0538
  474SOL    HW1 1421   3.324   0.519   1.280 -1.6878 -1.3060  0.5062
  474SOL    HW2 1422   3.412   0.476   1.419  1.1070  1.1332 -1.9820
  475SOL     OW 1423   3.425   3.616   2.177  0.9670 -0.5780 -0.1585
  475SOL    HW1 1424   3.429   3.572   2.085  0.2199 -1.6444 -0.9783
  475SOL    HW2 1425   3.356   3.692   2.171 -2.7215 -0.4726 -0.0123
  476SOL     OW 1426   0.653   0.338   1.084 -0.4005 -0.2255  0.3061
  476SOL    HW1 1427   0.708   0.423   1.064 -1.3321 -1.9075 -0.1108
  476SOL    HW2 1428   0.635   0.286   0.996 -0.8954  2.2226 -1.4694
  477SOL     OW 1429   1.409   2.912   1.365 -0.6510 -0.0796 -0.2689
  477SOL    HW1 1430   1.399   2.907   1.468 -1.1545 -1.2737  4.1776
  477SOL    HW2 1431   1.508   2.888   1.345 -0.1447  1.9708  0.4185
  478SOL     OW 1432   1.383   3.169   0.113  0.4398 -0.1739  0.3318
  478SOL    HW1 1433   1.403   3.177   0.012  3.6392 -0.0180  1.2644
  478SOL    HW2 1434   1.444   3.230   0.169  0.0369  3.4132 -2.1301
  479SOL     OW 1435   2.996   1.367   2.530  0.9297 -1.1593 -0.2196
  479SOL    HW1 1436   2.921   1.306   2.566 -0.6292 -0.6114 -1.8092
  479SOL    HW2 1437   3.031   1.336   2.438 -1.7090 -0.7949 -0.3372
  480SOL     OW 1438   3.171   2.633   3.146 -0.1927  0.5321  0.4855
  480SOL    HW1 1439   3.198   2.619   3.047  0.4489  1.7024  0.5575
  480SOL    HW2 1440   3.082   2.684   3.150 -0.4776  2.0211  0.4849
  481SOL     OW 1441   1.898   3.117   1.948  0.3242 -0.2887 -0.3200
  481SOL    HW1 1442   1.980   3.073   1.993 -0.9542 -1.6274 -1.6675
  481SOL    HW2 1443   1.909   3.130   1.845 -1.5175 -0.2206  1.2217
  482SOL     OW 1444   1.815   2.636   2.681  0.2645 -0.0191  0.3117
  482SOL    HW1 1445   1.783   2.595   2.593  0.1285 -1.0932  2.8085
  482SOL    HW2 1446   1.836   2.736   2.672  2.1727 -2.4011 -0.5759
  483SOL     OW 1447   1.414   3.185   3.441  0.1894  0.2249  0.8171
  483SOL    HW1 1448   1.379   3.220   3.350 -1.1718 -1.0250  0.0099
  483SOL    HW2 1449   1.490   3.116   3.418 -1.3300  0.2552  0.4982
  484SOL     OW 1450   2.880   3.494   1.948  0.3179  0.6708 -0.1296
  484SOL    HW1 1451   2.787   3.452   1.961 -0.4791 -1.8604 -1.2002
  484SOL    HW2 1452   2.948   3.418   1.933  1.4064 -0.5109  1.5163
  485SOL     OW 1453   2.344   0.614   0.410  0.6351 -0.1620  0.2997
  485SOL    HW1 1454   2.318   0.705   0.368  2.3357 -0.5101 -1.5728
  485SOL    HW2 1455   2.260   0.561   0.438  0.4551  1.1478  2.1051
  486SOL     OW 1456   2.771   3.190   2.902  0.1710  0.0929  0.0928
  486SOL    HW1 1457   2.815   3.262   2.962 -0.0890 -0.9116  0.2266
  486SOL    HW2 1458   2.744   3.105   2.951  0.8267  0.5217 -0.1622
  487SOL     OW 1459   1.439   0.991   0.849 -0.0362  0.5393 -0.3446
  487SOL    HW1 1460   1.384   1.033   0.774 -0.8017 -1.4829 -0.6349
  487SOL    HW2 1461   1.382   0.991   0.936  0.1613 -0.5455 -1.4014
  488SOL     OW 1462   3.147   3.414   2.767  0.3856  0.8193 -0.1136
  488SOL    HW1 1463   3.126   3.393   2.669  0.5136 -0.0903  1.4557
  488SOL    HW2 1464   3.109   3.508   2.787 -3.2155  0.6222  3.5091
  489SOL     OW 1465   1.402   3.241   0.524  0.2597 -0.1982  0.0543
  489SOL    HW1 1466   1.358   3.315   0.580  5.1092  1.5685 -1.2728
  489SOL    HW2 1467   1.338   3.159   0.522  2.3276 -0.6047 -1.8336
  490SOL     OW 1468   1.847   0.782   3.544  0.3474 -0.6191  0.1755
  490SOL    HW1 1469   1.861   0.831   3.454 -1.7698 -1.9454 -2.3636
  490SOL    HW2 1470   1.749   0.783   3.578 -1.3777  1.4362  0.1517
  491SOL     OW 1471   1.072   0.052   1.442  0.7174 -0.0091 -0.2306
  491SOL    HW1 1472   0.988   0.097   1.400 -2.7194  1.1429  2.1415
  491SOL    HW2 1473   1.054   0.015   1.536 -2.1141 -1.8230 -0.2743
  492SOL     OW 1474   1.907   3.201   0.237 -0.0404  0.0301  0.6835
  492SOL    HW1 1475   1.838   3.173   0.308 -0.6928 -1.2137 -0.8816
  492SOL    HW2 1476   1.852   3.264   0.174  0.1123 -0.3548  0.7682
  493SOL     OW 1477   1.202   2.302   3.518  0.3546 -0.2320 -0.8905
  493SOL    HW1 1478   1.220   2.237   3.440  0.3616  3.4820 -0.8967
  493SOL    HW2 1479   1.181   2.394   3.480  1.3511  0.8938 -1.7929
  494SOL     OW 1480   0.881   0.330   0.593 -0.4777 -0.9937 -0.0523
  494SOL    HW1 1481   0.792   0.314   0.543 -1.1570  0.0232  1.7611
  494SOL    HW2 1482   0.928   0.417   0.559 -3.2804 -0.0087  0.9592
  495SOL     OW 1483   3.246   0.202   2.149  0.3278 -0.4418  0.1221
  495SOL    HW1 1484   3.267   0.246   2.058  0.1003 -1.9538  2.1701
  495SOL    HW2 1485   3.243   0.275   2.223 -0.9044  0.3097 -2.3355
  496SOL     OW 1486   2.720   2.235   2.872 -0.2310 -0.4555 -0.4988
  496SOL    HW1 1487   2.660   2.219   2.789  1.9352 -0.5885  0.6377
  496SOL    HW2 1488   2.814   2.201   2.847  2.5516 -1.5178 -1.2775
  497SOL     OW 1489   1.837   1.384   3.191 -1.4120 -0.6344  0.3255
  497SOL    HW1 1490   1.919   1.445   3.174 -0.9542  0.6377 -3.7417
  497SOL    HW2 1491   1.775   1.423   3.264 -4.1818  1.6236  0.3399
  498SOL     OW 1492   0.896   3.270   1.491  0.2356 -0.0316  0.4325
  498SOL    HW1 1493   0.824   3.336   1.456 -1.5716  1.8443 -0.6228
  498SOL    HW2 1494   0.860   3.174   1.492  0.0259  2.8139 -1.8654
  499SOL     OW 1495   0.067   2.356   1.299  0.2972  0.3630 -0.0956
  499SOL    HW1 1496   0.019   2.324   1.214  0.0276 -0.1613 -1.0953
  499SOL    HW2 1497   0.044   2.289   1.373  1.9597 -0.1776 -3.1880
  500SOL     OW 1498   0.826   3.180   3.165  0.3555  0.5156 -0.0285
  500SOL    HW1 1499   0.733   3.139   3.186 -2.7840  0.3409  1.8621
  500SOL    HW2 1500   0.827   3.226   3.072  0.7818 -2.3833  1.0820
  501SOL     OW 1501   1.976   3.617   0.049 -0.4122 -0.2485 -0.8423
  501SOL    HW1 1502   2.030   3.705   0.059  1.3549 -0.4923 -1.4564
  501SOL    HW2 1503   1.918   3.595   0.131 -0.8044  1.1116 -0.3869
  502SOL     OW 1504   3.554   0.132   0.881 -0.0968  0.0327 -0.4479
  502SOL    HW1 1505   3.517   0.222   0.844 -0.5208 -1.9035  2.2371
  502SOL    HW2 1506   3.642   0.147   0.934 -1.4036 -0.1558  0.8053
  503SOL     OW 1507   2.323   3.446   2.545 -0.1984 -0.1375 -0.1744
  503SOL    HW1 1508   2.398   3.405   2.601 -0.3678  1.1441 -1.2406
  503SOL    HW2 1509   2.237   3.390   2.557 -0.5145  3.5682  1.4069
  504SOL     OW 1510   2.850   1.701   2.137 -0.3900 -0.0525 -0.3537
  504SOL    HW1 1511   2.826   1.790   2.092 -0.7762  0.2869  1.3674
  504SOL    HW2 1512   2.920   1.644   2.087  0.4723  0.8354 -1.2872
  505SOL     OW 1513   2.022   3.284   2.617  0.2096  0.0482 -0.0239
  505SOL    HW1 1514   1.975   3.351   2.680  0.0941  0.2188 -0.2030
  505SOL    HW2 1515   1.962   3.260   2.536 -0.4916  0.2249 -0.5858
  506SOL     OW 1516   0.247   0.816   2.532 -0.1451  0.2480 -0.0724
  506SOL    HW1 1517   0.243   0.721   2.493 -0.5575  1.8357  0.3697
  506SOL    HW2 1518   0.308   0.810   2.614  0.7867 -0.0145  0.1809
  507SOL     OW 1519   2.080   0.497   0.448 -0.3249 -0.4974  0.4432
  507SOL    HW1 1520   2.039   0.582   0.410 -1.9575 -3.2573  1.9180
  507SOL    HW2 1521   2.012   0.453   0.512  0.6436 -0.6245  2.1626
  508SOL     OW 1522   2.448   0.562   2.130  0.5846 -0.4766  0.6941
  508SOL    HW1 1523   2.429   0.645   2.072  3.1722 -0.2914 -1.3550
  508SOL    HW2 1524   2.531   0.576   2.192 -2.3545  0.5134 -1.6515
  509SOL     OW 1525   0.788   2.250   3.587 -0.3995  0.0813  0.5112
  509SOL    HW1 1526   0.870   2.204   3.631  1.1466 -0.3411 -0.0695
  509SOL    HW2 1527   0.704   2.215   3.638 -2.4305 -0.7641 -0.4773
  510SOL     OW 1528   0.293   1.089   1.190  0.4035  0.6475  0.2009
  510SOL    HW1 1529   0.207   1.066   1.139 -0.1210 -1.0152  1.7761
  510SOL    HW2 1530   0.354   1.142   1.126  0.3135 -1.0244  0.5542
  511SOL     OW 1531   1.768   1.224   1.437  0.6639  0.2601 -0.3089
  511SOL    HW1 1532   1.849   1.161   1.432  1.8887 -1.8401  0.1946
  511SOL    HW2 1533   1.783   1.315   1.393  0.6524  2.5174  1.4908
  512SOL     OW 1534   0.406   2.457   0.757  0.0528 -0.2259 -0.1269
  512SOL    HW1 1535   0.349   2.515   0.818 -0.4686  0.3997  0.0616
  512SOL    HW2 1536   0.506   2.476   0.767 -0.4334  0.1373  0.6574
  513SOL     OW 1537   0.293   2.823   1.141  0.3101  0.1458  0.2407
  513SOL    HW1 1538   0.245   2.822   1.233  0.2958  0.6065  0.2875
  513SOL    HW2 1539   0.303   2.920   1.107 -1.0086  0.1514  0.0704
  514SOL     OW 1540   0.704   2.505   0.761  0.8064 -0.1649  0.9417
  514SOL    HW1 1541   0.772   2.550   0.824  1.9761 -2.8259  2.6935
  514SOL    HW2 1542   0.750   2.467   0.676 -1.2017  1.7534 -0.4298
  515SOL     OW 1543   3.514   0.360   3.516 -0.8482  0.2487  0.3755
  515SOL    HW1 1544   3.425   0.335   3.563 -2.6142  0.1366  0.6749
  515SOL    HW2 1545   3.564   0.441   3.561 -0.1766 -0.4736 -0.8115
  516SOL     OW 1546   2.540   3.596   1.585  0.9670 -0.3260 -0.0894
  516SOL    HW1 1547   2.482   3.533   1.640  0.5297  0.7836  0.0881
  516SOL    HW2 1548   2.507   3.596   1.487 -2.5493 -0.8534  1.9835
  517SOL     OW 1549   2.039   1.842   0.890 -0.2361 -0.3032  0.0171
  517SOL    HW1 1550   2.076   1.917   0.830 -1.8179  0.8848  0.0227
  517SOL    HW2 1551   2.009   1.875   0.984  1.4467  4.1744 -1.8327
  518SOL     OW 1552   2.123   3.321   0.963  0.5468  0.1299 -0.1206
  518SOL    HW1 1553   2.088   3.283   1.054 -0.1526  1.5221  1.7213
  518SOL    HW2 1554   2.120   3.248   0.891 -3.1977  0.4148  2.5084
  519SOL     OW 1555   3.426   2.933   0.140  0.0534 -0.4425 -0.3340
  519SOL    HW1 1556   3.387   2.959   0.233  0.8746  1.4130 -1.0331
  519SOL    HW2 1557   3.447   3.017   0.080 -0.5273  0.8113 -1.5298
  520SOL     OW 1558   2.654   1.926   2.524 -0.5923 -0.1370 -0.1581
  520SOL    HW1 1559   2.619   2.018   2.554 -1.2920 -3.4290  0.5961
  520SOL    HW2 1560   2.621   1.852   2.586 -0.1485  0.0830 -0.4007
  521SOL     OW 1561   1.743   3.449   2.251  0.1791  0.5547 -0.3656
  521SOL    HW1 1562   1.766   3.452   2.150 -0.6682  1.8661 -1.0516
  521SOL    HW2 1563   1.647   3.485   2.267  0.4968 -1.9268 -0.1208
  522SOL     OW 1564   0.365   3.034   2.227 -0.0440 -0.1215 -0.2290
  522SOL    HW1 1565   0.322   2.973   2.299 -1.4470  1.8088  2.8496
  522SOL    HW2 1566   0.297   3.107   2.202 -0.4202  2.1316 -0.3385
  523SOL     OW 1567   0.691   2.821   2.506 -0.0776  0.6675  0.2831
  523SOL    HW1 1568   0.688   2.864   2.600  0.9700  1.0926  0.3240
  523SOL    HW2 1569   0.698   2.897   2.437 -0.4378  0.5356 -1.1712
  524SOL     OW 1570   2.646   2.542   0.427 -0.0559  0.4845 -0.3177
  524SOL    HW1 1571   2.579   2.472   0.393  0.8185 -1.0972  0.1512
  524SOL    HW2 1572   2.631   2.562   0.527  0.9883  1.8838 -0.5927
  525SOL     OW 1573   3.120   0.762   3.032 -0.7095 -0.2169 -0.0989
  525SOL    HW1 1574   3.092   0.697   2.956  1.6184  1.5264  0.4942
  525SOL    HW2 1575   3.076   0.733   3.120  1.4215  0.3258 -3.1024
  526SOL     OW 1576   0.489   2.885   0.524  0.5223 -0.0959  0.1272
  526SOL    HW1 1577   0.583   2.887   0.567 -2.2123 -0.4370 -0.8110
  526SOL    HW2 1578   0.443   2.795   0.541  2.3753 -1.1642  0.9146
  527SOL     OW 1579   3.404   1.271   1.072  0.6086 -0.1881  0.0282
  527SOL    HW1 1580   3.334   1.311   1.007 -0.7660  2.2473  1.4227
  527SOL    HW2 1581   3.358   1.201   1.132 -1.3703  0.4276 -3.5708
  528SOL     OW 1582   1.326   1.548   2.690 -0.4211  0.4234  0.1386
  528SOL    HW1 1583   1.295   1.573   2.594  0.3893 -0.8313  0.7203
  528SOL    HW2 1584   1.283   1.613   2.757 -1.7451 -0.4686  0.7240
  529SOL     OW 1585   1.003   1.585   0.545 -0.6678 -0.2976  0.5821
  529SOL    HW1 1586   1.053   1.597   0.635  1.5737  0.7798  1.3448
  529SOL    HW2 1587   0.974   1.485   0.540  0.3425 -4.0071 -1.3665
  530SOL     OW 1588   1.629   0.641   1.980 -0.2887 -0.4095  0.1501
  530SOL    HW1 1589   1.695   0.691   1.921 -1.5912  2.2767  0.6540
  530SOL    HW2 1590   1.676   0.574   2.043 -0.4934 -0.9616  1.7816
  531SOL     OW 1591   1.300   2.624   0.303 -0.0305  0.3128 -0.0962
  531SOL    HW1 1592   1.308   2.702   0.237  0.5275  0.6473  1.9760
  531SOL    HW2 1593   1.385   2.619   0.361  0.3555 -1.3687 -0.4745
  532SOL     OW 1594   3.092   0.984   2.818  0.7699  0.2068  0.1290
  532SOL    HW1 1595   3.106   0.928   2.903 -0.4381 -0.6183 -1.2514
  532SOL    HW2 1596   3.175   1.045   2.803  1.1230  1.3481  1.8351
  533SOL     OW 1597   0.045   0.317   2.471  0.2303  0.0624  0.3577
  533SOL    HW1 1598  -0.045   0.334   2.519  1.0132  0.4442 -0.9489
  533SOL    HW2 1599   0.042   0.239   2.403 -1.4237 -3.0293 -3.8040
  534SOL     OW 1600   2.633   0.235   3.277 -0.1893  0.7329  0.1325
  534SOL    HW1 1601   2.706   0.248   3.348 -1.9712  0.1852 -1.2246
  534SOL    HW2 1602   2.646   0.145   3.230  2.0435  0.2224  0.0883
  535SOL     OW 1603   0.257   0.437   3.598 -0.2680 -0.1547 -0.0990
  535SOL    HW1 1604   0.335   0.404   3.657  0.5010  0.4861  2.0273
  535SOL    HW2 1605   0.288   0.451   3.500  0.3984  2.6009  1.8651
  536SOL     OW 1606   1.288   2.418   1.327  0.1297  0.1199  0.3971
  536SOL    HW1 1607   1.209   2.403   1.391 -0.8943 -0.3126 -0.4778
  536SOL    HW2 1608   1.282   2.510   1.277 -0.2957 -0.8167 -0.4296
  537SOL     OW 1609   3.256   2.987   1.723 -0.3351 -0.0417 -0.4189
  537SOL    HW1 1610   3.290   3.057   1.790  2.7049  0.9972 -1.9509
  537SOL    HW2 1611   3.196   2.918   1.773 -0.0580 -1.1292  0.1287
  538SOL     OW 1612   0.752   2.897   0.652 -0.2906  0.1737 -0.6553
  538SOL    HW1 1613   0.788   2.816   0.706  0.1120 -1.5178  1.8403
  538SOL    HW2 1614   0.811   2.982   0.657 -0.4455 -2.6383  1.7597
  539SOL     OW 1615   2.149   1.524   2.899  0.1154 -0.1583 -0.2120
  539SOL    HW1 1616   2.077   1.490   2.833  0.9738 -0.0994  3.1533
  539SOL    HW2 1617   2.204   1.602   2.863  3.2273 -1.7889 -1.4884
  540SOL     OW 1618   2.196   0.721   3.372 -0.3067 -0.4535  0.3203
  540SOL    HW1 1619   2.248   0.703   3.460 -3.0934 -1.4856  1.1863
  540SOL    HW2 1620   2.178   0.821   3.352 -2.0558 -1.4240  0.1987
  541SOL     OW 1621   1.295   1.274   2.782 -0.6668  0.0993  1.1616
  541SOL    HW1 1622   1.331   1.213   2.708 -0.0542  1.2454 -2.9550
  541SOL    HW2 1623   1.299   1.373   2.753  0.8919  2.6057 -1.7516
  542SOL     OW 1624   1.716   3.017   2.165  0.5758  0.1686 -0.1042
  542SOL    HW1 1625   1.615   3.020   2.152  0.2633  0.9471  0.5956
  542SOL    HW2 1626   1.768   3.051   2.083  2.0329  1.6422  1.4202
  543SOL     OW 1627   0.584   3.299   3.566  0.6854  0.6177 -0.8353
  543SOL    HW1 1628   0.643   3.285   3.482  0.2336 -0.3359 -1.5092
  543SOL    HW2 1629   0.490   3.331   3.537 -0.2203  0.6746 -1.6759
  544SOL     OW 1630   0.068   2.391   2.523 -0.6220 -0.0766 -0.1372
  544SOL    HW1 1631   0.011   2.386   2.609  0.3741 -3.5460 -0.6624
  544SOL    HW2 1632   0.135   2.469   2.540 -1.2088 -1.6258 -1.8820
  545SOL     OW 1633   1.655   2.205   1.909  0.2477 -0.5943  0.0573
  545SOL    HW1 1634   1.614   2.219   1.814 -0.6863  0.3727 -3.5676
  545SOL    HW2 1635   1.589   2.157   1.975  2.2165 -1.0944  4.6010
  546SOL     OW 1636   3.253   0.281   3.074 -0.3023 -0.4198  0.2005
  546SOL    HW1 1637   3.217   0.304   2.981  0.0128 -0.7555 -1.3858
  546SOL    HW2 1638   3.351   0.316   3.081 -0.6455  1.3920 -1.2075
  547SOL     OW 1639   1.894   3.549   0.937 -0.3177  0.0967 -0.0116
  547SOL    HW1 1640   1.890   3.590   1.032 -0.9239 -0.1422  2.0774
  547SOL    HW2 1641   1.968   3.477   0.936 -1.9643  0.0482 -0.6076
  548SOL     OW 1642   1.599   2.569   0.102 -0.0726 -0.4717 -0.5153
  548SOL    HW1 1643   1.546   2.481   0.102  2.3182 -1.5574 -1.3745
  548SOL    HW2 1644   1.541   2.651   0.079  1.6717 -0.2888 -1.0898
  549SOL     OW 1645   2.328   0.673   0.031 -0.3275  0.4772  0.2080
  549SOL    HW1 1646   2.382   0.593   0.069  0.6185  0.8913 -4.0061
  549SOL    HW2 1647   2.374   0.762   0.054 -2.1329  2.8666  1.0105
  550SOL     OW 1648   3.019   2.149   1.003 -0.2615  0.1363  0.0166
  550SOL    HW1 1649   2.945   2.207   0.963 -0.0931  2.1481 -1.1069
  550SOL    HW2 1650   3.084   2.123   0.929 -1.8212  0.7049  0.4704
  551SOL     OW 1651   1.337   0.289   1.507 -0.2137 -0.2669  0.4573
  551SOL    HW1 1652   1.273   0.343   1.565  0.1163 -0.7663  1.5182
  551SOL    HW2 1653   1.282   0.219   1.453 -2.1941  0.9377 -0.1225
  552SOL     OW 1654   0.448   2.159   3.229  0.2977  0.0187  0.5322
  552SOL    HW1 1655   0.467   2.101   3.146 -1.2577  0.2642  1.1590
  552SOL    HW2 1656   0.430   2.100   3.312 -0.8635  1.6302 -0.7760
  553SOL     OW 1657   2.990   2.847   0.022 -0.3421  0.1998 -0.9035
  553SOL    HW1 1658   2.899   2.804  -0.002  1.5076  2.6883  0.2624
  553SOL    HW2 1659   2.991   2.869   0.123  0.6864  2.2279 -1.4334
  554SOL     OW 1660   2.325   1.726   1.713  0.1461 -0.2025  0.1101
  554SOL    HW1 1661   2.352   1.695   1.807 -0.6122 -0.5645  0.1268
  554SOL    HW2 1662   2.238   1.781   1.722 -1.7567  1.3023  1.4780
  555SOL     OW 1663   0.661   2.941   2.771 -0.2624  0.1217 -0.0015
  555SOL    HW1 1664   0.617   2.900   2.854 -2.1852  1.2966  1.3784
  555SOL    HW2 1665   0.616   3.032   2.752  0.1185 -2.8148  1.0152
  556SOL     OW 1666   1.663   1.263   1.726 -0.1612 -0.0043 -0.2278
  556SOL    HW1 1667   1.700   1.244   1.632 -0.5352  2.1244 -2.3275
  556SOL    HW2 1668   1.646   1.364   1.741  0.7509 -1.7306 -0.1764
  557SOL     OW 1669   1.718   3.464   1.363 -0.6776  0.2740 -0.1796
  557SOL    HW1 1670   1.737   3.368   1.327 -2.2734  0.6746 -1.0569
  557SOL    HW2 1671   1.671   3.463   1.455  0.5434 -0.8020  0.0709
  558SOL     OW 1672   0.631   0.975   2.764 -0.7766 -0.6652 -0.2556
  558SOL    HW1 1673   0.555   0.907   2.756 -1.2703 -3.1579  1.1172
  558SOL    HW2 1674   0.665   0.975   2.861 -0.8414  0.4656 -2.7070
  559SOL     OW 1675   1.112   3.205   0.178 -0.6914  0.2409 -0.4031
  559SOL    HW1 1676   1.093   3.265   0.260 -2.1973  0.9652 -0.6460
  559SOL    HW2 1677   1.212   3.186   0.162  2.1740  2.2128  0.2972
  560SOL     OW 1678   1.933   2.386   0.445 -0.2580  0.4916 -0.5295
  560SOL    HW1 1679   2.002   2.423   0.379 -0.0575 -3.6756 -0.4795
  560SOL    HW2 1680   1.842   2.433   0.435  1.3851 -0.2800 -2.1814
  561SOL     OW 1681   1.269   3.447   0.668 -0.1966  0.0851 -0.0248
  561SOL    HW1 1682   1.332   3.527   0.660 -1.3338  1.0013 -3.2356
  561SOL    HW2 1683   1.225   3.451   0.761 -1.2143  3.3625 -1.3505
  562SOL     OW 1684   0.626   1.232   2.613  0.1242  0.5039  0.1842
  562SOL    HW1 1685   0.658   1.303   2.682  1.8199 -0.3408 -1.0072
  562SOL    HW2 1686   0.626   1.143   2.666  1.0437 -1.0280 -1.3574
  563SOL     OW 1687   1.434   2.433   2.892  0.3573 -1.2688  0.1013
  563SOL    HW1 1688   1.424   2.427   2.790 -1.9162  1.2589  1.1512
  563SOL    HW2 1689   1.428   2.339   2.933 -1.4303 -2.9596 -0.5981
  564SOL     OW 1690   2.920   0.777   1.426 -0.1607 -0.8556  0.0150
  564SOL    HW1 1691   2.884   0.733   1.341 -1.9926 -0.6926 -1.7255
  564SOL    HW2 1692   2.878   0.871   1.439  2.4133  1.8177  2.5369
  565SOL     OW 1693   1.710   1.110   0.399  0.5792  0.1985  0.2836
  565SOL    HW1 1694   1.682   1.100   0.300 -0.3098  2.2180 -2.6952
  565SOL    HW2 1695   1.647   1.171   0.454  1.9007  0.8893  2.2459
  566SOL     OW 1696   2.847   3.216   3.409 -0.5880  0.2365  0.3097
  566SOL    HW1 1697   2.921   3.146   3.395  1.4793 -1.6204 -1.2380
  566SOL    HW2 1698   2.761   3.165   3.430 -1.2511 -0.2766 -0.0867
  567SOL     OW 1699   2.229   0.910   1.214  0.2013  0.1203  0.1944
  567SOL    HW1 1700   2.158   0.948   1.279  0.6493  1.4726  1.2564
  567SOL    HW2 1701   2.259   0.816   1.241 -0.3010 -0.7674  0.8911
  568SOL     OW 1702   1.349   1.246   3.080 -0.5176  0.5175 -0.5869
  568SOL    HW1 1703   1.343   1.334   3.135 -0.4490  2.1574 -3.2627
  568SOL    HW2 1704   1.342   1.257   2.978 -0.0716 -0.3584  1.3731
  569SOL     OW 1705   2.475   1.910   0.946 -0.6174 -0.6712  0.2546
  569SOL    HW1 1706   2.405   1.841   0.915  2.5626  2.3176  1.3131
  569SOL    HW2 1707   2.555   1.866   0.996 -1.0597  2.8563 -1.0786
  570SOL     OW 1708   2.977   3.011   2.684 -0.6749 -0.0783  0.1947
  570SOL    HW1 1709   2.900   3.070   2.722  0.8604 -1.3906  1.3479
  570SOL    HW2 1710   2.993   3.035   2.586  0.5533 -2.1102  1.6480
  571SOL     OW 1711   0.006   2.411   1.955  0.0095 -0.3763  0.4783
  571SOL    HW1 1712  -0.066   2.414   1.882 -0.3774 -3.0421  0.0216
  571SOL    HW2 1713  -0.038   2.395   2.047  2.1957  1.3183  1.3046
  572SOL     OW 1714   1.244   2.602   3.031  0.0503  0.5628 -0.2980
  572SOL    HW1 1715   1.285   2.697   3.038  1.5916  0.9268  0.2151
  572SOL    HW2 1716   1.315   2.537   2.994 -0.2707  0.5980 -0.7860
  573SOL     OW 1717   1.834   2.711   1.630  0.2877  0.0911  0.3819
  573SOL    HW1 1718   1.745   2.722   1.681 -0.6973  2.2732  2.1651
  573SOL    HW2 1719   1.905   2.680   1.697 -1.0881 -1.1177 -0.1766
  574SOL     OW 1720   1.353   3.265   1.779 -0.8203 -0.1679  0.0016
  574SOL    HW1 1721   1.259   3.271   1.735 -1.8600  0.6791 -0.1833
  574SOL    HW2 1722   1.347   3.285   1.880  1.5206 -3.0649  0.9480
  575SOL     OW 1723   0.806   0.618   1.069  0.1270  0.4703 -0.2120
  575SOL    HW1 1724   0.882   0.651   1.009 -1.5732  0.0404  0.4502
  575SOL    HW2 1725   0.829   0.631   1.169  0.0400 -0.7849 -0.5810
  576SOL     OW 1726   2.541   0.720   1.721 -0.6617 -0.4070  0.2562
  576SOL    HW1 1727   2.495   0.796   1.772 -1.2230  0.6065 -3.0621
  576SOL    HW2 1728   2.603   0.761   1.648  1.4071  0.3786 -2.2479
  577SOL     OW 1729   2.352   0.168   3.449  0.1096  0.0489 -0.0825
  577SOL    HW1 1730   2.432   0.203   3.393 -0.8009  0.4485 -2.1638
  577SOL    HW2 1731   2.268   0.181   3.392  1.0221  0.1562  1.6691
  578SOL     OW 1732   1.987   2.220   2.332 -0.4733 -0.2139  0.0687
  578SOL    HW1 1733   1.983   2.118   2.330 -1.9146 -0.2737 -0.1838
  578SOL    HW2 1734   1.963   2.256   2.238 -3.0517  1.4515  1.1911
  579SOL     OW 1735   1.024   1.898   1.181  0.4020 -0.0264 -0.3626
  579SOL    HW1 1736   1.075   1.986   1.181 -1.8915 -2.1144 -0.3997
  579SOL    HW2 1737   0.954   1.890   1.105  0.0889 -1.8382 -1.0663
  580SOL     OW 1738   1.383   0.065   3.470  0.7213 -0.7267  0.9632
  580SOL    HW1 1739   1.330   0.016   3.545  3.9954  0.2635 -0.3769
  580SOL    HW2 1740   1.451   0.136   3.505  2.4907 -0.7963  0.2829
  581SOL     OW 1741   1.363   1.069   2.031  0.5495 -0.0911 -0.0901
  581SOL    HW1 1742   1.404   0.992   2.086  0.5772  0.3911 -2.9172
  581SOL    HW2 1743   1.390   1.063   1.932  2.2869  0.1871 -2.3584
  582SOL     OW 1744   0.363   0.386   1.125 -0.3312  0.0273  0.2884
  582SOL    HW1 1745   0.346   0.479   1.082 -0.8730 -2.4476  0.4889
  582SOL    HW2 1746   0.462   0.360   1.119 -2.6560 -1.3673  0.8917
  583SOL     OW 1747   0.935   2.307   2.097  0.3610 -0.1540 -0.4789
  583SOL    HW1 1748   0.915   2.211   2.130  0.2291 -0.0474 -1.0031
  583SOL    HW2 1749   1.017   2.306   2.036 -1.2082 -0.4002  0.0898
  584SOL     OW 1750   2.995   2.893   0.361  0.2165  0.0532 -0.1448
  584SOL    HW1 1751   3.085   2.938   0.384  0.1709 -1.2092 -0.3859
  584SOL    HW2 1752   2.925   2.930   0.428 -1.4644 -0.8148  0.9670
  585SOL     OW 1753   2.696   0.677   3.352  0.6042  0.0784 -0.2680
  585SOL    HW1 1754   2.684   0.627   3.441 -2.7438  0.0241  2.7739
  585SOL    HW2 1755   2.653   0.622   3.276  0.6707 -0.9085  2.8072
  586SOL     OW 1756   0.572   1.560   0.316  0.0547  0.2267 -0.3534
  586SOL    HW1 1757   0.632   1.632   0.359 -0.2507 -1.4305 -1.3463
  586SOL    HW2 1758   0.475   1.597   0.322 -2.7096  1.7880  1.1612
  587SOL     OW 1759   2.064   2.420   1.502  0.1792  0.8183 -0.4644
  587SOL    HW1 1760   2.080   2.390   1.404 -2.7852 -1.3673  1.3220
  587SOL    HW2 1761   1.988   2.492   1.510 -1.1305 -0.0669  1.9262
  588SOL     OW 1762   0.620   0.770   1.496  0.8316 -0.0929  0.0983
  588SOL    HW1 1763   0.709   0.744   1.451  1.1279 -0.9392 -0.1946
  588SOL    HW2 1764   0.548   0.796   1.428  0.7372 -3.2020  0.1553
  589SOL     OW 1765   2.417   3.415   0.959  0.6433  0.5701  0.3635
  589SOL    HW1 1766   2.437   3.439   0.860  0.2556  1.8549  0.2076
  589SOL    HW2 1767   2.318   3.385   0.966 -0.5107  0.1763  1.6063
  590SOL     OW 1768   2.026   1.170   0.472  0.0125 -0.8687 -0.2310
  590SOL    HW1 1769   2.096   1.140   0.403  2.6295 -0.1527  2.1057
  590SOL    HW2 1770   1.930   1.141   0.449  3.7997  1.0219  0.7507
  591SOL     OW 1771   2.728   2.410   2.370  0.3378  0.2765  0.3132
  591SOL    HW1 1772   2.805   2.345   2.346  2.7114 -0.0881 -0.2184
  591SOL    HW2 1773   2.771   2.502   2.381 -0.3073  2.3365  2.8794
  592SOL     OW 1774   1.570   2.329   1.376 -0.0327  0.3972  0.0710
  592SOL    HW1 1775   1.611   2.257   1.316 -2.1845  1.2359  0.5570
  592SOL    HW2 1776   1.476   2.360   1.348  2.1734  0.7221 -3.0687
  593SOL     OW 1777   0.659   3.267   0.917 -0.1101 -0.0618 -0.9932
  593SOL    HW1 1778   0.761   3.252   0.928  1.4894 -0.6979  1.2184
  593SOL    HW2 1779   0.625   3.321   0.999 -1.0923  0.4027  1.2640
  594SOL     OW 1780   3.344   1.154   2.757 -0.2542 -0.0479  0.0600
  594SOL    HW1 1781   3.367   1.219   2.681 -2.9729 -0.2796 -0.4835
  594SOL    HW2 1782   3.415   1.079   2.769  0.0858 -1.3586 -0.5466
  595SOL     OW 1783   3.517   3.529   0.707  0.0669 -0.2451 -0.0927
  595SOL    HW1 1784   3.594   3.512   0.641 -0.7023  2.5550 -0.0297
  595SOL    HW2 1785   3.537   3.616   0.760  1.5669 -0.7334 -0.3465
  596SOL     OW 1786   0.003   0.658   1.689  0.5964  0.4916 -0.3252
  596SOL    HW1 1787   0.023   0.745   1.741  0.6077  0.7890  1.6883
  596SOL    HW2 1788  -0.093   0.624   1.711  4.7323  2.0524 -2.1441
  597SOL     OW 1789   3.087   1.411   0.459  0.1035  0.6496  0.1463
  597SOL    HW1 1790   3.158   1.335   0.459  1.2742  1.7325 -0.1120
  597SOL    HW2 1791   2.993   1.373   0.440 -1.8151 -0.2488 -0.6978
  598SOL     OW 1792   0.704   0.432   2.434  1.0309  0.6305  0.6610
  598SOL    HW1 1793   0.697   0.523   2.387  1.0889 -1.5649 -2.1688
  598SOL    HW2 1794   0.618   0.415   2.488 -0.9433 -2.7955 -3.1269
  599SOL     OW 1795   2.961   2.071   0.215  0.1002  0.1566 -0.1285
  599SOL    HW1 1796   2.941   2.166   0.181  0.7753 -1.2338 -0.3948
  599SOL    HW2 1797   3.028   2.079   0.294 -1.6548  0.9008  0.2520
  600SOL     OW 1798   0.994   1.003   0.186 -0.2240 -0.0850 -0.7725
  600SOL    HW1 1799   1.084   1.046   0.155 -1.7500  1.0729 -0.5340
  600SOL    HW2 1800   0.915   1.065   0.165  0.0216  3.1719 -1.0690
  601SOL     OW 1801   1.607   1.093   0.124 -0.6265 -0.1487  0.3530
  601SOL    HW1 1802   1.521   1.148   0.115 -3.4866  1.0823 -0.1807
  601SOL    HW2 1803   1.596   1.001   0.081 -3.4333  0.9345  1.9819
  602SOL     OW 1804   1.177   3.590   1.970  0.1387 -0.5981  0.2351
  602SOL    HW1 1805   1.214   3.685   1.985 -1.3045  0.0337  0.5690
  602SOL    HW2 1806   1.114   3.586   1.887  0.4303 -1.3902  2.3473
  603SOL     OW 1807   1.116   3.284   2.775 -0.1005  0.0720  0.1803
  603SOL    HW1 1808   1.198   3.342   2.797  1.2812 -1.9835 -0.7001
  603SOL    HW2 1809   1.121   3.254   2.677  3.4329 -0.1647  0.3450
  604SOL     OW 1810   0.035   0.079   2.301  0.4413  0.3496  0.1768
  604SOL    HW1 1811   0.083   0.003   2.353 -2.7107  1.4850  0.4834
  604SOL    HW2 1812  -0.052   0.048   2.257  0.3310 -1.2704  2.7988
  605SOL     OW 1813   3.067   3.252   1.908  0.3978 -0.4735  0.1481
  605SOL    HW1 1814   3.020   3.180   1.961 -1.6481  0.3480  2.6734
  605SOL    HW2 1815   3.170   3.247   1.920 -0.0063  0.3502  0.1702
  606SOL     OW 1816   0.056   2.210   2.952  0.0731  0.0398 -0.3465
  606SOL    HW1 1817   0.061   2.124   3.007 -0.8610 -1.4882 -2.9009
  606SOL    HW2 1818   0.117   2.284   2.992 -1.0936  0.2935 -2.1764
  607SOL     OW 1819   0.956   0.126   0.768 -0.4568  0.4452 -0.1015
  607SOL    HW1 1820   0.937   0.207   0.708  0.7888 -0.0941  0.0523
  607SOL    HW2 1821   0.999   0.148   0.858  1.3400 -0.4447  0.6925
  608SOL     OW 1822   1.893   2.086   2.881 -0.0784  0.0755 -0.1158
  608SOL    HW1 1823   1.879   1.993   2.838 -2.2427 -1.9835 -2.8628
  608SOL    HW2 1824   1.940   2.150   2.814  0.9052 -2.3084 -1.7751
  609SOL     OW 1825   3.547   0.361   1.478  0.3295 -0.9968  0.1672
  609SOL    HW1 1826   3.618   0.431   1.446 -1.3311  1.7724 -0.6986
  609SOL    HW2 1827   3.587   0.308   1.555 -0.1701 -2.7091 -1.6960
  610SOL     OW 1828   1.060   2.827   3.587 -0.5732  0.0036  0.6518
  610SOL    HW1 1829   1.013   2.853   3.501  0.3196  0.0606 -2.9739
  610SOL    HW2 1830   1.015   2.875   3.668 -0.0077  1.5606 -0.3916
  611SOL     OW 1831   2.248   1.577   0.583 -0.3761  0.1387  0.7578
  611SOL    HW1 1832   2.286   1.640   0.510 -1.1267  0.6830 -0.7548
  611SOL    HW2 1833   2.158   1.547   0.539 -1.3469  0.7527  0.8270
  612SOL     OW 1834   1.172   3.070   2.954 -0.4719  0.5626 -0.0090
  612SOL    HW1 1835   1.153   3.152   2.893  1.4544 -0.0381 -1.6015
  612SOL    HW2 1836   1.101   2.996   2.943  1.9337  1.2735  1.0170
  613SOL     OW 1837   1.360   2.353   0.129  0.5005 -0.9015 -0.1230
  613SOL    HW1 1838   1.306   2.419   0.187 -0.5354 -0.5187  1.4780
  613SOL    HW2 1839   1.303   2.333   0.045  0.4910  3.1757 -1.7633
  614SOL     OW 1840   3.075   2.779   1.869  0.0915 -0.3137 -0.0862
  614SOL    HW1 1841   3.061   2.725   1.784  1.5465  0.2770 -2.3074
  614SOL    HW2 1842   3.038   2.733   1.954 -3.6040 -1.9590 -0.0936
  615SOL     OW 1843   2.938   1.494   0.054 -0.0212 -0.0789  0.2156
  615SOL    HW1 1844   2.964   1.524  -0.041  0.2404 -0.3724  1.3646
  615SOL    HW2 1845   2.885   1.407   0.056 -1.9136  1.8554 -0.4988
  616SOL     OW 1846   1.921   0.049   0.629 -0.3224  0.5077  0.6545
  616SOL    HW1 1847   1.887   0.004   0.716 -1.0053 -0.8678 -0.5550
  616SOL    HW2 1848   2.024   0.043   0.625  0.1997  1.1441  0.0898
  617SOL     OW 1849   0.564   1.743   3.267  0.2746 -0.1792 -0.3255
  617SOL    HW1 1850   0.546   1.799   3.182 -1.0456 -1.8541  1.9119
  617SOL    HW2 1851   0.663   1.715   3.273 -3.2739  0.7715 -0.3872
  618SOL     OW 1852   0.569   0.852   2.076 -0.3050  0.1946  0.7951
  618SOL    HW1 1853   0.466   0.850   2.072  1.5399 -0.5691  2.3533
  618SOL    HW2 1854   0.605   0.811   1.989 -0.6225 -0.8843 -0.6925
  619SOL     OW 1855   3.314   1.132   2.367 -0.1532  0.3150  0.0118
  619SOL    HW1 1856   3.357   1.201   2.431 -0.2049 -1.9136 -1.2224
  619SOL    HW2 1857   3.309   1.040   2.409  0.6793 -0.2040 -0.2623
  620SOL     OW 1858   2.548   1.098   3.545  0.0535  0.1055  0.5669
  620SOL    HW1 1859   2.597   1.052   3.468  0.8757 -0.8318  0.4276
  620SOL    HW2 1860   2.458   1.139   3.516  0.1116 -0.2464  1.7679
  621SOL     OW 1861   2.847   3.524   1.437  0.0461 -0.0620  0.1058
  621SOL    HW1 1862   2.924   3.484   1.492 -1.7482 -0.5202 -0.8519
  621SOL    HW2 1863   2.762   3.537   1.493 -1.3826  0.3151 -0.1330
  622SOL     OW 1864   1.999   0.650   2.428 -0.3580 -0.5527 -0.6081
  622SOL    HW1 1865   1.999   0.569   2.363  1.4456 -0.7052 -1.2606
  622SOL    HW2 1866   1.916   0.707   2.403  1.0569  0.8534  1.5387
  623SOL     OW 1867   1.780   1.092   2.819  0.0003  0.1429 -0.4680
  623SOL    HW1 1868   1.874   1.112   2.777  2.1126 -1.6612 -0.4576
  623SOL    HW2 1869   1.776   1.115   2.921 -0.5801 -0.8700 -0.1884
  624SOL     OW 1870   2.216   0.056   0.626  0.0676 -0.1706  0.1711
  624SOL    HW1 1871   2.229   0.105   0.537  0.1467  0.0799 -1.8944
  624SOL    HW2 1872   2.286  -0.019   0.640 -1.2334 -1.5022 -0.3742
  625SOL     OW 1873   0.801   1.793   0.467  0.2438 -0.2211  0.0638
  625SOL    HW1 1874   0.869   1.717   0.482  0.6514 -0.8047 -1.3777
  625SOL    HW2 1875   0.807   1.864   0.541  0.5979  1.5776 -1.7994
  626SOL     OW 1876   1.931   1.420   2.697 -1.2964 -0.6064 -0.6414
  626SOL    HW1 1877   1.944   1.455   2.602  1.5880  4.4452 -3.8278
  626SOL    HW2 1878   1.832   1.442   2.724 -1.4350 -2.4567  0.1591
  627SOL     OW 1879   0.952   0.645   2.153  0.0914  0.0914  0.6953
  627SOL    HW1 1880   1.031   0.693   2.199 -0.5367  1.2402  2.4425
  627SOL    HW2 1881   0.863   0.661   2.203  3.3275 -0.2769 -2.0144
  628SOL     OW 1882   2.460   0.969   2.661  0.0228 -0.0744  0.6615
  628SOL    HW1 1883   2.381   0.920   2.615 -1.2580 -0.8818  1.9532
  628SOL    HW2 1884   2.540   0.978   2.597  2.5193  3.3899  0.9929
  629SOL     OW 1885   0.910   1.603   3.545  0.2146  0.5616  0.3630
  629SOL    HW1 1886   0.894   1.634   3.448  0.3486  0.5923  0.0540
  629SOL    HW2 1887   0.828   1.555   3.586 -2.1304 -0.4034  0.4247
  630SOL     OW 1888   1.610   0.587   2.640  0.7387  0.0104  0.4129
  630SOL    HW1 1889   1.599   0.689   2.634 -0.1363 -3.4792 -3.8134
  630SOL    HW2 1890   1.699   0.556   2.683  0.6877  0.8709 -0.2157
  631SOL     OW 1891   3.050   0.870   1.033 -0.9119 -0.3828 -0.1298
  631SOL    HW1 1892   3.008   0.792   1.087  0.9810  0.3412  2.4800
  631SOL    HW2 1893   2.977   0.926   0.983  1.7510  3.7829  0.4224
  632SOL     OW 1894   3.199   2.083   0.807 -1.0274  0.1303 -0.0956
  632SOL    HW1 1895   3.188   2.005   0.742 -1.1175  0.2693  1.0581
  632SOL    HW2 1896   3.276   2.146   0.776 -0.9791  0.9288 -1.8984
  633SOL     OW 1897   0.830   1.535   0.888 -0.3723  0.3031  0.1853
  633SOL    HW1 1898   0.821   1.478   0.973  0.8103 -0.8285 -0.5433
  633SOL    HW2 1899   0.806   1.481   0.802 -0.5289  0.2107 -4.1118
  634SOL     OW 1900   1.812   3.562   0.299  0.0169  0.3511  0.0398
  634SOL    HW1 1901   1.724   3.509   0.294 -3.7771  1.9503 -2.1246
  634SOL    HW2 1902   1.835   3.595   0.395  0.9009  0.7623 -0.1342
  635SOL     OW 1903   2.330   0.318   2.044  0.3025  0.4466 -0.7292
  635SOL    HW1 1904   2.367   0.303   1.950  1.3507  1.0684  1.0557
  635SOL    HW2 1905   2.368   0.405   2.084  0.4943  5.8291 -1.6399
  636SOL     OW 1906   1.600   0.778   0.800  0.2048  0.1967 -0.1541
  636SOL    HW1 1907   1.543   0.860   0.822  0.2170 -1.1731  0.6273
  636SOL    HW2 1908   1.669   0.770   0.875  0.4915  1.9255 -0.1601
  637SOL     OW 1909   2.319   1.714   3.442  0.2996  0.5579 -0.3637
  637SOL    HW1 1910   2.326   1.767   3.353  0.3291 -0.1596 -3.5807
  637SOL    HW2 1911   2.221   1.711   3.475 -0.1103 -1.2198 -1.5325
  638SOL     OW 1912   1.059   0.005   3.135 -0.2755  0.1205  0.7010
  638SOL    HW1 1913   1.060  -0.091   3.176  2.3647  1.3278 -0.1572
  638SOL    HW2 1914   0.992   0.008   3.055 -0.1356 -0.6698  1.2568
  639SOL     OW 1915   1.273   2.404   1.707  0.5774  0.4211  0.3782
  639SOL    HW1 1916   1.199   2.395   1.637 -0.4597 -0.1906  0.9132
  639SOL    HW2 1917   1.352   2.342   1.685 -0.5654  1.6426 -0.1172
  640SOL     OW 1918   0.513   0.164   3.347  0.5125 -0.4804 -0.0694
  640SOL    HW1 1919   0.438   0.123   3.404 -0.1982  1.2589  0.0206
  640SOL    HW2 1920   0.533   0.110   3.261  3.5283  0.9197 -2.3757
  641SOL     OW 1921   0.431   0.787   0.359 -0.2182 -0.5490  0.2464
  641SOL    HW1 1922   0.334   0.750   0.362 -0.9519  2.5060  1.0838
  641SOL    HW2 1923   0.432   0.889   0.378  1.1189 -1.7078  3.3402
  642SOL     OW 1924   0.362   1.935   1.320 -0.4996 -0.2702 -0.1000
  642SOL    HW1 1925   0.399   2.029   1.336  2.2444 -0.2781 -0.5981
  642SOL    HW2 1926   0.398   1.894   1.232  3.5130 -2.1970 -1.6696
  643SOL     OW 1927   0.967   2.074   3.185 -0.2983  0.2276 -0.1855
  643SOL    HW1 1928   0.897   2.141   3.222  0.0657 -1.7737 -0.7696
  643SOL    HW2 1929   1.060   2.099   3.224  2.7967  0.1088 -1.4903
  644SOL     OW 1930   1.812   2.809   0.495  0.2000 -0.2053 -0.2719
  644SOL    HW1 1931   1.904   2.810   0.449  0.6203 -2.8510  0.9460
  644SOL    HW2 1932   1.819   2.797   0.596 -0.2719  1.7058 -1.6181
  645SOL     OW 1933   1.205   2.717   1.791  0.3189 -0.3136  0.9330
  645SOL    HW1 1934   1.226   2.619   1.770  0.0679  0.6564 -0.9751
  645SOL    HW2 1935   1.266   2.785   1.744 -1.0687  0.4547 -2.0150
  646SOL     OW 1936   0.606   2.978   0.042  0.2321 -0.5371  0.0027
  646SOL    HW1 1937   0.699   2.957   0.086  1.8650 -2.7777 -0.5088
  646SOL    HW2 1938   0.593   3.076   0.013 -1.5202  0.6082 -1.5260
  647SOL     OW 1939   0.154   3.512   2.464  0.2432  0.2127  0.3511
  647SOL    HW1 1940   0.098   3.509   2.550  0.3920 -0.9281 -1.3080
  647SOL    HW2 1941   0.254   3.494   2.485  1.7731  0.2042 -1.2331
  648SOL     OW 1942   3.011   1.210   1.295 -0.3622 -0.3292 -0.4913
  648SOL    HW1 1943   3.091   1.153   1.266  0.3089  0.1773 -0.4713
  648SOL    HW2 1944   2.938   1.154   1.339 -1.5406 -0.4236 -1.4899
  649SOL     OW 1945   2.517   3.112   3.231  0.4420  0.2015 -0.0913
  649SOL    HW1 1946   2.544   3.082   3.326  1.1196  0.6294  2.2520
  649SOL    HW2 1947   2.504   3.215   3.223  1.7636  1.4001 -0.5871
  650SOL     OW 1948   3.253   2.565   2.241  0.5156  0.4306 -0.1288
  650SOL    HW1 1949   3.310   2.480   2.262  0.6110  0.4024  0.2902
  650SOL    HW2 1950   3.296   2.627   2.172  0.7509  1.0275 -0.8895
  651SOL     OW 1951   1.245   2.111   3.279  0.2304  0.2655 -0.1100
  651SOL    HW1 1952   1.306   2.147   3.203 -0.1193  0.3287  1.0161
  651SOL    HW2 1953   1.290   2.028   3.323 -0.5906 -3.2343  0.0464
  652SOL     OW 1954   0.568   0.090   2.592 -0.0841 -0.3468  0.3226
  652SOL    HW1 1955   0.533   0.187   2.590 -0.6910  0.8007  1.4950
  652SOL    HW2 1956   0.644   0.084   2.662 -0.9831  0.7473 -0.0793
  653SOL     OW 1957   2.345   2.156   0.948 -0.3905  0.0734 -0.1713
  653SOL    HW1 1958   2.393   2.066   0.954 -1.5972  1.9976  0.6338
  653SOL    HW2 1959   2.392   2.230   1.001 -1.1052  0.1253  0.2163
  654SOL     OW 1960   2.702   3.284   2.499 -0.1498 -0.5381 -1.1750
  654SOL    HW1 1961   2.646   3.287   2.585  2.9157  1.5333 -0.5575
  654SOL    HW2 1962   2.721   3.382   2.474  3.1245  0.2376  2.8794
  655SOL     OW 1963   2.850   2.526   1.118 -0.1882  0.1912  0.1397
  655SOL    HW1 1964   2.808   2.614   1.153  1.0378 -2.0046 -0.2821
  655SOL    HW2 1965   2.779   2.467   1.073  2.9212  1.3575 -1.2812
  656SOL     OW 1966   3.170   1.793   3.395 -0.0763 -0.0882 -0.0733
  656SOL    HW1 1967   3.203   1.866   3.331 -2.7494 -1.5563  2.2345
  656SOL    HW2 1968   3.211   1.806   3.488 -2.3114  1.7180 -2.6795
  657SOL     OW 1969   0.080   1.447   0.762 -0.3310  0.3056  0.5669
  657SOL    HW1 1970   0.005   1.395   0.715  2.4554  0.5862 -0.2352
  657SOL    HW2 1971   0.055   1.482   0.856  0.7131  1.3094  0.3869
  658SOL     OW 1972   1.366   1.960   1.570  0.1033  0.5923  0.0846
  658SOL    HW1 1973   1.409   1.918   1.487 -2.0667  2.4149 -1.4370
  658SOL    HW2 1974   1.264   1.959   1.563 -1.3840  0.5770 -0.0547
  659SOL     OW 1975   1.493   0.111   1.686  0.0706 -0.7408 -0.0092
  659SOL    HW1 1976   1.508   0.166   1.773  2.2290  0.1691  0.3614
  659SOL    HW2 1977   1.442   0.162   1.611 -2.7010 -0.3469  2.5634
  660SOL     OW 1978   2.980   0.527   0.826  0.7947  0.0991 -0.0612
  660SOL    HW1 1979   2.901   0.586   0.858 -2.4996 -0.7000  0.0602
  660SOL    HW2 1980   3.023   0.564   0.741  1.0732 -0.9093 -2.6518
  661SOL     OW 1981   0.621   2.250   0.410 -0.4315  0.3695 -0.4692
  661SOL    HW1 1982   0.650   2.163   0.364  1.5653 -5.1080  0.7211
  661SOL    HW2 1983   0.597   2.327   0.346  1.3102 -1.3708 -1.2912
  662SOL     OW 1984   2.665   0.992   2.461  0.4407 -0.4766  0.2950
  662SOL    HW1 1985   2.708   0.900   2.439  0.0984  1.0826  0.9211
  662SOL    HW2 1986   2.619   1.031   2.378 -2.3368  0.6034  1.5228
  663SOL     OW 1987   2.099   1.663   1.269  0.2374 -0.0026 -0.0708
  663SOL    HW1 1988   2.133   1.584   1.210 -0.3541 -0.4214  0.1005
  663SOL    HW2 1989   2.179   1.710   1.315  1.0109  1.4016  0.0146
  664SOL     OW 1990   0.686   3.560   1.413  0.1392  0.9686  0.0444
  664SOL    HW1 1991   0.737   3.647   1.386 -0.6533 -1.3019 -1.6027
  664SOL    HW2 1992   0.683   3.555   1.515 -3.4779  1.5237  0.2392
  665SOL     OW 1993   1.650   0.289   3.405  0.3818 -0.5517  0.1754
  665SOL    HW1 1994   1.723   0.217   3.392  0.6859 -1.8306 -1.1054
  665SOL    HW2 1995   1.649   0.354   3.325  0.3925 -0.5381  0.0876
  666SOL     OW 1996   1.062   0.720   2.601 -0.0100  0.5224 -0.1599
  666SOL    HW1 1997   1.028   0.624   2.614  2.2498  2.6038 -1.5951
  666SOL    HW2 1998   0.981   0.779   2.580  1.4533  0.2828  2.2894
  667SOL     OW 1999   1.618   1.567   1.719 -0.2221  0.2377 -0.2787
  667SOL    HW1 2000   1.546   1.625   1.764 -0.3666 -2.1404  1.7025
  667SOL    HW2 2001   1.607   1.578   1.617 -0.6926  1.1613  3.0874
  668SOL     OW 2002   0.399   1.302   2.442 -0.2762  0.7132  0.3105
  668SOL    HW1 2003   0.480   1.277   2.500 -0.7448  0.8203 -1.8528
  668SOL    HW2 2004   0.405   1.393   2.396  1.6802  0.0070 -2.7704
  669SOL     OW 2005   3.051   2.985   3.378  0.0523 -0.5583  0.1728
  669SOL    HW1 2006   3.017   2.914   3.311 -0.3073  0.5793 -0.2119
  669SOL    HW2 2007   3.054   2.951   3.476  1.0895 -1.0953  2.3187
  670SOL     OW 2008   3.071   1.528   2.012  0.6711 -0.0666  0.7767
  670SOL    HW1 2009   3.167   1.558   1.991  1.6469  2.9653  0.6146
  670SOL    HW2 2010   3.071   1.451   2.081 -1.4841  1.5594 -1.2609
  671SOL     OW 2011   3.425   2.233   0.700 -0.0614  0.2457  0.2313
  671SOL    HW1 2012   3.414   2.335   0.695  0.6201 -0.4211  0.6773
  671SOL    HW2 2013   3.443   2.190   0.609 -0.8635 -1.9304 -0.1783
  672SOL     OW 2014   1.839   1.122   2.247  0.0612 -0.6389  0.5874
  672SOL    HW1 2015   1.929   1.150   2.291 -0.1136 -1.1614  1.2400
  672SOL    HW2 2016   1.847   1.132   2.143 -0.5873 -1.1394  0.3364
  673SOL     OW 2017   3.427   2.414   1.764 -0.5548  0.5042 -0.7028
  673SOL    HW1 2018   3.360   2.493   1.773  0.0190 -0.5326  0.9635
  673SOL    HW2 2019   3.396   2.347   1.691  1.0357  1.7499 -0.8948
  674SOL     OW 2020   0.713   2.428   1.831 -0.3252 -0.0890 -0.1401
  674SOL    HW1 2021   0.784   2.417   1.907 -1.7300 -0.4968 -1.4764
  674SOL    HW2 2022   0.630   2.471   1.873 -3.5937  1.8632  0.1908
  675SOL     OW 2023   3.392   0.904   1.431  0.3890  0.5311  0.0508
  675SOL    HW1 2024   3.476   0.943   1.476 -0.6868  0.3872  1.7382
  675SOL    HW2 2025   3.395   0.801   1.424 -3.4387 -1.3436  0.0235
  676SOL     OW 2026   3.422   1.043   2.063  0.0203  0.2834 -0.2259
  676SOL    HW1 2027   3.398   1.071   2.161 -2.2367 -0.9173  2.0284
  676SOL    HW2 2028   3.368   0.959   2.039  1.5403 -0.6839  1.6526
  677SOL     OW 2029   2.430   1.335   2.909  0.4608  0.4915  0.0221
  677SOL    HW1 2030   2.336   1.378   2.919 -1.6348 -0.5308 -0.0130
  677SOL    HW2 2031   2.491   1.354   2.990  2.0566  0.7260 -1.1054
  678SOL     OW 2032   2.922   1.720   1.348  0.0370  0.0329 -0.1130
  678SOL    HW1 2033   2.933   1.647   1.277  1.6789 -1.6291 -1.7432
  678SOL    HW2 2034   3.014   1.754   1.381 -0.9834  0.8890 -0.5497
  679SOL     OW 2035   0.179   3.203   0.021  0.0773  0.4154 -0.0326
  679SOL    HW1 2036   0.199   3.124  -0.043 -3.0517 -1.9434 -1.8781
  679SOL    HW2 2037   0.183   3.171   0.120  1.7979  2.1334 -1.0313
  680SOL     OW 2038   0.069   1.926   1.346  0.1574  0.8926 -0.6537
  680SOL    HW1 2039   0.169   1.933   1.326 -1.9559  0.8778  0.8976
  680SOL    HW2 2040   0.034   2.005   1.402 -1.3055 -4.2258  1.1129
  681SOL     OW 2041   1.080   0.147   1.032 -0.2053 -0.1629  0.2824
  681SOL    HW1 2042   1.027   0.162   1.119  0.5836  0.0580  2.0058
  681SOL    HW2 2043   1.175   0.184   1.050 -0.7485 -1.1921 -1.6704
  682SOL     OW 2044   2.413   2.825   1.910  0.5037  0.2581  0.4988
  682SOL    HW1 2045   2.496   2.777   1.948  0.6631 -0.3557  0.4017
  682SOL    HW2 2046   2.390   2.778   1.821 -2.5215 -0.0357  1.8132
  683SOL     OW 2047   3.129   2.110   1.983  0.2516  0.3247 -0.1418
  683SOL    HW1 2048   3.096   2.188   1.926  0.5622  0.7839  1.2634
  683SOL    HW2 2049   3.216   2.075   1.943  0.8551 -1.2787 -0.9786
  684SOL     OW 2050   3.595   1.711   2.122  0.2056 -0.1613  0.4138
  684SOL    HW1 2051   3.591   1.721   2.224 -2.2894  2.5236 -0.4459
  684SOL    HW2 2052   3.694   1.701   2.093  0.0643  0.9223 -0.5891
  685SOL     OW 2053   1.637   1.643   0.294  0.3907  0.1719  0.2587
  685SOL    HW1 2054   1.667   1.712   0.364 -0.4089 -2.4346 -0.9151
  685SOL    HW2 2055   1.720   1.597   0.255  1.2091  1.3502 -2.8033
  686SOL     OW 2056   3.367   0.709   2.264 -0.0257 -0.3838 -0.0090
  686SOL    HW1 2057   3.468   0.689   2.252 -1.6619 -2.0412 -0.4983
  686SOL    HW2 2058   3.315   0.731   2.178  0.1065  0.1653  0.3447
  687SOL     OW 2059   1.849   0.065   3.390 -0.0699 -0.9357  0.2031
  687SOL    HW1 2060   1.782   0.005   3.338  1.8077  0.2210  2.8085
  687SOL    HW2 2061   1.880   0.023   3.479 -0.9928 -0.1997 -1.0947
  688SOL     OW 2062   1.452   2.153   3.046 -0.1414  0.0063 -0.3112
  688SOL    HW1 2063   1.448   2.061   2.998  2.2904  0.1000  0.7572
  688SOL    HW2 2064   1.548   2.177   3.074  0.2631 -0.4338  0.1764
  689SOL     OW 2065   2.604   1.914   1.717 -0.1172 -0.3355 -0.3168
  689SOL    HW1 2066   2.512   1.866   1.729  1.4655  0.5788  1.4166
  689SOL    HW2 2067   2.670   1.851   1.670  1.8621  1.2865 -0.4303
  690SOL     OW 2068   2.742   2.520   1.484 -0.1229 -0.0201 -0.4602
  690SOL    HW1 2069   2.683   2.498   1.565 -1.3819 -0.1575  1.0960
  690SOL    HW2 2070   2.741   2.440   1.419 -0.4869  0.9791 -1.9308
  691SOL     OW 2071   0.243   1.969   0.787 -0.0936  0.4162 -0.7143
  691SOL    HW1 2072   0.291   2.041   0.732 -0.4726 -0.4105 -1.3196
  691SOL    HW2 2073   0.154   2.008   0.823 -0.3551  1.2078  1.1191
  692SOL     OW 2074   3.227   3.544   3.449  0.1931 -0.3965  0.1101
  692SOL    HW1 2075   3.330   3.548   3.461  1.5535  0.3776  0.7350
  692SOL    HW2 2076   3.206   3.593   3.362 -1.0762 -0.3687  0.4534
  693SOL     OW 2077   0.363   1.582   2.343  0.2055 -0.1687 -0.2262
  693SOL    HW1 2078   0.330   1.611   2.250  0.8883 -0.6755  0.0073
  693SOL    HW2 2079   0.300   1.617   2.417  5.2975 -0.5914 -2.2807
  694SOL     OW 2080   2.922   0.417   2.366  0.1799 -0.5255  0.2081
  694SOL    HW1 2081   3.024   0.421   2.374 -0.5786  2.4914  3.6652
  694SOL    HW2 2082   2.890   0.387   2.273  0.2982  0.4182  1.8592
  695SOL     OW 2083   1.718   0.880   2.365  0.3514 -0.2591 -0.1323
  695SOL    HW1 2084   1.684   0.897   2.460  0.0571  0.8664 -1.3847
  695SOL    HW2 2085   1.767   0.961   2.328 -0.5337  1.1444 -1.7050
  696SOL     OW 2086   2.592   3.385   1.997 -0.2932 -0.0614  0.5945
  696SOL    HW1 2087   2.556   3.431   2.082  2.5626  1.2868  0.1990
  696SOL    HW2 2088   2.526   3.403   1.921  0.0762 -0.7291 -1.1518
  697SOL     OW 2089   1.249   0.893   2.377 -0.3579 -0.6400  0.0769
  697SOL    HW1 2090   1.216   0.822   2.444 -0.9562 -0.9515 -0.2391
  697SOL    HW2 2091   1.327   0.857   2.320 -1.2088  1.5653 -1.5999
  698SOL     OW 2092   2.628   1.954   3.212 -0.0438 -0.4124 -0.8204
  698SOL    HW1 2093   2.708   1.914   3.160 -0.9311  0.9101 -0.8400
  698SOL    HW2 2094   2.625   1.925   3.311 -1.8693  1.4482  3.3052
  699SOL     OW 2095   2.830   1.274   0.372 -0.2181  0.3884 -0.1768
  699SOL    HW1 2096   2.748   1.232   0.416  0.1747  1.6077  1.4927
  699SOL    HW2 2097   2.822   1.265   0.270 -0.6310  2.9186  1.8389
  700SOL     OW 2098   1.473   3.606   1.131  0.8410 -0.0841  0.0415
  700SOL    HW1 2099   1.518   3.563   1.049  1.2461 -0.7728 -0.0249
  700SOL    HW2 2100   1.517   3.573   1.220  1.0295 -2.1528  2.0419
  701SOL     OW 2101   3.452   0.575   0.881 -0.1760 -0.4848  0.3688
  701SOL    HW1 2102   3.393   0.660   0.876 -1.7545  0.8487 -0.9896
  701SOL    HW2 2103   3.537   0.598   0.935  2.5380 -2.1024  0.3004
  702SOL     OW 2104   1.842   3.049   1.465  0.2611 -0.2422  0.0755
  702SOL    HW1 2105   1.845   2.951   1.501  1.5884  0.1127 -0.9455
  702SOL    HW2 2106   1.867   3.121   1.533  0.1001 -0.0197  2.4757
  703SOL     OW 2107   0.084   0.600   1.417 -0.2580 -0.3869  0.0918
  703SOL    HW1 2108   0.054   0.630   1.510  1.0381 -0.2718  0.0402
  703SOL    HW2 2109   0.188   0.609   1.412  0.1080 -1.0038  0.4217
  704SOL     OW 2110   1.256   3.345   2.085 -0.2109 -0.1044  0.5303
  704SOL    HW1 2111   1.229   3.433   2.040  1.3400  1.2100 -2.8178
  704SOL    HW2 2112   1.174   3.295   2.122  0.8021 -0.9028 -0.3702
  705SOL     OW 2113   0.068   2.309   3.589 -0.1196 -0.4093  0.0577
  705SOL    HW1 2114   0.119   2.252   3.657 -1.0654 -0.4021  0.6841
  705SOL    HW2 2115  -0.025   2.336   3.623  2.1258  0.2552 -1.4057
  706SOL     OW 2116   0.073   0.677   0.379  0.2838 -0.1011 -0.4384
  706SOL    HW1 2117   0.067   0.642   0.281 -0.1982 -2.4329  0.0335
  706SOL    HW2 2118   0.023   0.612   0.441  1.8256 -1.8103 -0.2381
  707SOL     OW 2119   2.315   3.034   2.285  0.3543 -0.5273  0.3589
  707SOL    HW1 2120   2.349   2.943   2.322  1.0978  1.2061  0.7593
  707SOL    HW2 2121   2.366   3.117   2.321 -1.4288 -0.7537  2.3129
  708SOL     OW 2122   0.696   3.543   1.736  0.3868 -0.0606 -0.0179
  708SOL    HW1 2123   0.693   3.452   1.784  1.2373  0.4976 -1.8398
  708SOL    HW2 2124   0.643   3.612   1.793  2.1466  0.6304 -0.9125
  709SOL     OW 2125   0.277   0.864   2.071 -0.0512 -0.1516  0.5007
  709SOL    HW1 2126   0.207   0.885   1.999 -1.5399  2.4165  0.5897
  709SOL    HW2 2127   0.269   0.930   2.150 -0.1562  1.0272 -0.3904
  710SOL     OW 2128   0.292   0.693   0.909 -0.6838  0.0688  0.0547
  710SOL    HW1 2129   0.215   0.686   0.978  0.4603 -0.0233  0.0554
  710SOL    HW2 2130   0.276   0.775   0.850  3.1316 -2.3112 -2.5678
  711SOL     OW 2131   2.798   2.749   2.387  0.3931  0.1612 -0.0703
  711SOL    HW1 2132   2.816   2.738   2.488  2.8741  0.2809  2.8586
  711SOL    HW2 2133   2.760   2.842   2.372 -0.7981  1.0180  1.2740
  712SOL     OW 2134   0.213   3.162   2.815  0.0982 -0.0057  0.2655
  712SOL    HW1 2135   0.189   3.252   2.860 -0.4741 -2.4394 -1.5811
  712SOL    HW2 2136   0.145   3.132   2.746 -1.3188 -0.9769  1.0114
  713SOL     OW 2137   2.755   0.232   0.771  0.3243 -0.0539 -0.1099
  713SOL    HW1 2138   2.820   0.303   0.809 -1.9543  1.1413 -0.4845
  713SOL    HW2 2139   2.737   0.242   0.670  0.4283 -3.1902  1.5003
  714SOL     OW 2140   2.016   1.648   3.183  0.7135 -0.0932  0.4585
  714SOL    HW1 2141   2.014   1.750   3.188  3.2911  0.3703 -3.6010
  714SOL    HW2 2142   2.074   1.619   3.103  0.7322 -1.6200  2.1433
  715SOL     OW 2143   0.066   0.705   1.094 -0.1307 -0.0188  0.2175
  715SOL    HW1 2144   0.056   0.666   1.190  0.1441 -0.2293  2.4286
  715SOL    HW2 2145   0.051   0.807   1.095 -0.4334 -1.3319  0.0108
  716SOL     OW 2146   0.926   0.827   1.882 -0.1923 -0.4870 -0.0094
  716SOL    HW1 2147   0.839   0.793   1.839 -1.4097 -1.7466 -0.4805
  716SOL    HW2 2148   0.946   0.775   1.968 -0.0008 -1.3016 -1.8427
  717SOL     OW 2149   1.625   0.944   2.628  0.3559  0.1286  0.5028
  717SOL    HW1 2150   1.681   0.995   2.697 -0.0310 -1.0220  1.7462
  717SOL    HW2 2151   1.538   0.995   2.609 -0.9739  2.2684 -0.7890
  718SOL     OW 2152   1.455   0.029   0.616  0.1183 -0.3211  0.5686
  718SOL    HW1 2153   1.488   0.120   0.652 -0.0892 -0.7334  0.5565
  718SOL    HW2 2154   1.454   0.042   0.514  1.0926  1.4538 -0.4910
  719SOL     OW 2155   3.511   3.238   3.220  0.1437 -0.1710 -0.6269
  719SOL    HW1 2156   3.418   3.198   3.212 -0.0375 -1.1097  2.3187
  719SOL    HW2 2157   3.581   3.168   3.248  2.0463  0.1862 -2.8425
  720SOL     OW 2158   1.730   0.451   2.168 -0.0683  0.2286 -0.0770
  720SOL    HW1 2159   1.672   0.437   2.252 -1.7042  0.7266  2.5802
  720SOL    HW2 2160   1.828   0.432   2.193 -1.7631  0.5450  0.5693
  721SOL     OW 2161   0.127   3.301   1.277 -0.1019 -0.3106 -0.3866
  721SOL    HW1 2162   0.100   3.398   1.253 -2.1668 -0.0609  1.3815
  721SOL    HW2 2163   0.046   3.238   1.260 -1.2011 -0.0748 -1.0414
  722SOL     OW 2164   1.023   1.214   3.263 -0.2594 -0.5319  0.1253
  722SOL    HW1 2165   0.982   1.281   3.197  1.6094 -0.3028 -1.8649
  722SOL    HW2 2166   1.050   1.262   3.350  0.1855 -1.0554  0.5614
  723SOL     OW 2167   2.399   1.449   1.537  0.0737 -0.2130  0.0788
  723SOL    HW1 2168   2.459   1.482   1.459 -0.8090  0.1773  0.9742
  723SOL    HW2 2169   2.370   1.524   1.602  2.5507  0.4863  0.5431
  724SOL     OW 2170   1.068   2.208   0.406 -0.2022 -0.3915  0.3061
  724SOL    HW1 2171   1.126   2.132   0.448 -1.3770 -0.3394  0.7438
  724SOL    HW2 2172   1.051   2.192   0.305  2.0674  3.3874 -3.0395
  725SOL     OW 2173   0.021   0.908   1.832 -1.0636 -0.4949  0.5120
  725SOL    HW1 2174   0.010   0.955   1.741  0.3259 -0.4803 -1.5927
  725SOL    HW2 2175  -0.046   0.949   1.900  0.1896 -0.9418  1.5918
  726SOL     OW 2176   2.811   1.219   0.072 -0.7578  0.0476 -0.3913
  726SOL    HW1 2177   2.715   1.208   0.038 -1.0516  1.3877  1.1105
  726SOL    HW2 2178   2.857   1.128   0.073 -0.4557 -1.2637 -1.3505
  727SOL     OW 2179   2.585   1.006   2.968 -0.4546  0.9008  0.1464
  727SOL    HW1 2180   2.588   1.109   2.986 -2.6560 -0.9926 -0.8931
  727SOL    HW2 2181   2.549   0.980   2.874 -1.5379 -0.2723  0.5542
  728SOL     OW 2182   2.117   2.245   1.726 -0.2981 -0.0501  0.0585
  728SOL    HW1 2183   2.219   2.226   1.720 -3.1651 -0.8137 -1.8040
  728SOL    HW2 2184   2.089   2.301   1.644 -0.8433  2.1359  0.8510
  729SOL     OW 2185   2.158   1.262   2.383  0.6456 -0.4556 -0.3066
  729SOL    HW1 2186   2.096   1.344   2.401  1.8611  3.2816  0.1555
  729SOL    HW2 2187   2.255   1.292   2.382 -0.9655  0.5164 -3.9217
  730SOL     OW 2188   1.635   0.786   1.312  0.6283  0.3208 -0.5015
  730SOL    HW1 2189   1.616   0.686   1.328  2.1435 -1.8885  0.5302
  730SOL    HW2 2190   1.699   0.793   1.232  1.0956 -0.9708  0.5504
  731SOL     OW 2191   0.612   0.895   3.583  0.2749  0.5271 -0.2067
  731SOL    HW1 2192   0.641   0.857   3.493  0.5747 -0.3413  0.7376
  731SOL    HW2 2193   0.617   0.828   3.660  0.7918 -1.4740 -0.7447
  732SOL     OW 2194   0.445   1.134   0.438 -0.5375  0.0737  0.1231
  732SOL    HW1 2195   0.530   1.192   0.425  0.5361 -2.1836  0.5337
  732SOL    HW2 2196   0.402   1.152   0.530  1.9713  0.3485 -1.2085
  733SOL     OW 2197   1.573   1.919   2.603 -0.2154  0.1981 -0.0591
  733SOL    HW1 2198   1.503   1.993   2.587  1.1223 -0.0705  0.8196
  733SOL    HW2 2199   1.606   1.874   2.514 -1.0210 -1.4146 -0.7170
  734SOL     OW 2200   0.484   2.762   3.521 -0.8083 -0.5864 -0.0830
  734SOL    HW1 2201   0.532   2.837   3.573  1.8966 -0.2259 -0.2998
  734SOL    HW2 2202   0.435   2.691   3.577 -1.4176 -1.9997  2.0699
  735SOL     OW 2203   3.216   0.148   1.189 -0.1452  0.4029  0.1260
  735SOL    HW1 2204   3.248   0.140   1.286 -0.2647  1.3295  0.0926
  735SOL    HW2 2205   3.226   0.242   1.148  1.6262 -0.0064  1.8500
  736SOL     OW 2206   2.314   1.738   2.796 -0.3631 -0.0587 -0.0207
  736SOL    HW1 2207   2.408   1.710   2.762 -1.4129  0.4472  0.4000
  736SOL    HW2 2208   2.325   1.804   2.874  0.4389 -0.4683  0.0654
  737SOL     OW 2209   0.063   0.939   0.482 -0.0935 -0.4121  0.6912
  737SOL    HW1 2210   0.052   1.006   0.406 -0.6137  0.4291  2.0173
  737SOL    HW2 2211   0.068   0.843   0.444 -1.4570  0.3978  0.8092
  738SOL     OW 2212   1.060   2.374   1.499  0.8146 -0.2713 -0.8638
  738SOL    HW1 2213   1.023   2.289   1.454  0.4673 -1.1724 -2.0166
  738SOL    HW2 2214   0.983   2.440   1.518  2.6031  0.0256  2.1576
  739SOL     OW 2215   2.138   3.028   2.778 -0.0097 -0.0455 -0.3205
  739SOL    HW1 2216   2.166   3.048   2.875 -0.2140 -0.4071  0.5019
  739SOL    HW2 2217   2.114   3.114   2.728  0.3467  0.1708  0.2035
  740SOL     OW 2218   2.715   2.748   1.255  0.1430  0.1908 -0.5353
  740SOL    HW1 2219   2.719   2.699   1.346 -1.6810  1.4730 -2.2352
  740SOL    HW2 2220   2.754   2.843   1.266 -0.8500 -0.7111  0.9477
  741SOL     OW 2221   2.736   0.740   0.131 -0.0742  0.5596  0.5561
  741SOL    HW1 2222   2.732   0.663   0.062  1.4924  3.1207 -1.9216
  741SOL    HW2 2223   2.762   0.698   0.223  1.9847 -2.8472  1.4927
  742SOL     OW 2224   1.311   2.824   0.117  0.3851 -0.8292  0.3447
  742SOL    HW1 2225   1.234   2.818   0.049 -0.4994  1.6102 -1.8413
  742SOL    HW2 2226   1.341   2.922   0.129  3.1298  0.1816 -0.0044
  743SOL     OW 2227   3.047   1.638   2.447 -0.2854  0.2256  0.2327
  743SOL    HW1 2228   2.996   1.655   2.358  0.2742 -0.0879 -2.5504
  743SOL    HW2 2229   3.030   1.545   2.484  1.5095  0.3336  0.6128
  744SOL     OW 2230   3.475   0.194   0.470  0.1467  0.0867  0.0098
  744SOL    HW1 2231   3.397   0.213   0.532 -0.9898 -1.1230  1.7130
  744SOL    HW2 2232   3.449   0.125   0.398  2.6868  0.2196  1.2370
  745SOL     OW 2233   3.055   2.104   1.534  0.5515  0.0176  0.8312
  745SOL    HW1 2234   3.090   2.006   1.521 -0.0682 -0.2953 -0.5186
  745SOL    HW2 2235   2.980   2.116   1.463 -0.1989  0.4405 -0.4241
  746SOL     OW 2236   1.277   1.940   0.513  0.1881  0.1902  0.1614
  746SOL    HW1 2237   1.252   1.924   0.612  0.9418  0.1792 -0.2923
  746SOL    HW2 2238   1.256   1.861   0.451 -0.8677  2.0610 -0.2925
  747SOL     OW 2239   1.378   1.824   1.831  0.1692  0.9599  0.4336
  747SOL    HW1 2240   1.398   1.874   1.742 -1.3235  0.9354  2.1244
  747SOL    HW2 2241   1.303   1.754   1.819  0.2062 -1.4243  3.5860
  748SOL     OW 2242   0.322   3.399   3.469  0.1099  0.1070 -0.2135
  748SOL    HW1 2243   0.264   3.339   3.531 -0.7979 -0.9509  0.3130
  748SOL    HW2 2244   0.316   3.499   3.493 -0.9534 -2.0051  0.9580
  749SOL     OW 2245   0.298   1.243   3.334  0.4096  0.2745  0.0477
  749SOL    HW1 2246   0.313   1.170   3.407  0.8953  2.0673 -1.3274
  749SOL    HW2 2247   0.335   1.215   3.242  0.9842  0.2760 -0.1311
  750SOL     OW 2248   1.894   1.165   1.934  0.4068  0.0690 -0.5239
  750SOL    HW1 2249   1.817   1.192   1.873  0.0590  1.6809  0.1242
  750SOL    HW2 2250   1.956   1.246   1.940  0.8810  0.5298 -1.2062
  751SOL     OW 2251   3.404   1.054   0.727  0.3522  0.1606  0.1581
  751SOL    HW1 2252   3.474   1.002   0.670  0.7573 -0.4412  1.9319
  751SOL    HW2 2253   3.417   1.155   0.714  0.3474 -2.3718 -1.8523
  752SOL     OW 2254   3.336   3.290   1.074 -0.0542  0.1687 -0.0917
  752SOL    HW1 2255   3.353   3.392   1.082 -3.6733 -2.5801 -0.6844
  752SOL    HW2 2256   3.389   3.236   1.144  1.2736 -0.2503  0.6742
  753SOL     OW 2257   0.816   2.993   1.490 -0.3230  0.4195 -0.1801
  753SOL    HW1 2258   0.850   2.926   1.562  2.2947 -0.2500 -0.4683
  753SOL    HW2 2259   0.835   2.961   1.392  2.2073 -1.4517 -1.1852
  754SOL     OW 2260   3.472   3.172   2.254 -0.3560  0.1666 -0.6573
  754SOL    HW1 2261   3.438   3.252   2.308  0.1106 -1.1601 -0.7575
  754SOL    HW2 2262   3.436   3.085   2.296 -1.2803  2.5923  1.2155
  755SOL     OW 2263   2.915   0.958   0.025 -0.0607  0.3401 -0.2042
  755SOL    HW1 2264   2.999   0.915  -0.014  1.3961  2.0765  2.9541
  755SOL    HW2 2265   2.855   0.883   0.063  0.1226 -3.1056 -1.9992
  756SOL     OW 2266   2.143   2.517   0.266 -0.0562 -0.0559  0.1964
  756SOL    HW1 2267   2.143   2.535   0.164  0.5404  1.8545  2.7623
  756SOL    HW2 2268   2.220   2.457   0.300  1.5512 -0.1194  0.4301
  757SOL     OW 2269   3.099   0.642   0.597 -0.1065  0.2751  0.3245
  757SOL    HW1 2270   3.071   0.738   0.567  0.0956  2.2540 -0.0437
  757SOL    HW2 2271   3.202   0.642   0.605  0.7872 -0.8426  0.0261
  758SOL     OW 2272   2.529   1.108   2.248  0.2162  0.1084 -0.8382
  758SOL    HW1 2273   2.443   1.057   2.218 -0.1287 -2.2885 -0.0118
  758SOL    HW2 2274   2.503   1.200   2.285  1.0798  0.9881  2.5111
  759SOL     OW 2275   3.137   0.581   1.562 -0.3649  0.0436  0.1748
  759SOL    HW1 2276   3.061   0.639   1.525  1.1500  2.6623  1.3399
  759SOL    HW2 2277   3.213   0.566   1.495 -0.7190  0.4614 -0.4750
  760SOL     OW 2278   0.664   1.716   1.688 -0.0864 -0.2850  0.4507
  760SOL    HW1 2279   0.573   1.759   1.664 -0.4269  2.2089  1.9992
  760SOL    HW2 2280   0.656   1.616   1.712  0.8292 -0.2269 -1.9645
  761SOL     OW 2281   0.938   0.738   0.110  0.1017 -0.4324 -0.0066
  761SOL    HW1 2282   0.839   0.717   0.130  0.5665  3.4509  1.0037
  761SOL    HW2 2283   0.962   0.834   0.140 -1.0549  1.2808 -0.6773
  762SOL     OW 2284   0.836   2.101   1.365 -1.0047 -0.3258  0.3278
  762SOL    HW1 2285   0.885   2.016   1.336  2.8820 -3.9753 -0.4743
  762SOL    HW2 2286   0.809   2.098   1.465 -0.1910  0.2569  2.7406
  763SOL     OW 2287   1.489   0.826   2.191 -0.3072 -0.1708  0.2658
  763SOL    HW1 2288   1.517   0.757   2.119  0.9256 -1.8483 -1.6031
  763SOL    HW2 2289   1.563   0.840   2.262  0.9117 -2.3941 -0.8788
  764SOL     OW 2290   3.518   3.531   3.452  0.1075 -0.3793 -0.4092
  764SOL    HW1 2291   3.565   3.524   3.543 -2.6299 -1.1557 -1.3498
  764SOL    HW2 2292   3.538   3.445   3.397 -1.3487 -1.2831  0.4861
  765SOL     OW 2293   0.838   0.047   2.187 -0.1425  0.1000  0.1147
  765SOL    HW1 2294   0.755   0.095   2.223 -2.4582 -0.3233  1.7913
  765SOL    HW2 2295   0.883   0.102   2.111  0.6384 -2.5772  0.9876
  766SOL     OW 2296   3.215   2.226   2.658 -0.0903  0.3232 -0.0585
  766SOL    HW1 2297   3.128   2.184   2.696 -0.9652 -0.1882  1.3538
  766SOL    HW2 2298   3.303   2.203   2.707 -1.0295 -0.2488 -0.5751
  767SOL     OW 2299   1.603   1.462   2.787 -0.0261 -0.1119 -0.7712
  767SOL    HW1 2300   1.599   1.359   2.804 -1.7164 -3.4593  0.1812
  767SOL    HW2 2301   1.516   1.497   2.743  0.7812  1.7557 -3.3483
  768SOL     OW 2302   1.745   2.068   0.164 -0.4285  0.0778  0.4109
  768SOL    HW1 2303   1.643   2.064   0.182  0.8193 -1.9325  0.9299
  768SOL    HW2 2304   1.794   2.069   0.255 -0.6552  0.3956  1.3794
  769SOL     OW 2305   0.470   1.818   1.054  0.3605 -0.2582  0.6953
  769SOL    HW1 2306   0.411   1.854   0.978 -0.6523  0.7640  0.9526
  769SOL    HW2 2307   0.570   1.826   1.026  1.2210  1.2029 -1.6570
  770SOL     OW 2308   1.947   0.739   2.937 -0.3579 -0.0749  0.0092
  770SOL    HW1 2309   2.008   0.823   2.927 -0.6088  1.5353  2.0329
  770SOL    HW2 2310   1.852   0.765   2.969  0.5363  0.2212  1.7047
  771SOL     OW 2311   2.968   0.106   2.818  0.1670  0.2007  0.3425
  771SOL    HW1 2312   2.919   0.149   2.737 -0.2119 -0.8511 -1.3794
  771SOL    HW2 2313   2.904   0.084   2.897 -1.5940  1.4582 -0.7988
  772SOL     OW 2314   2.925   1.973   2.506 -0.0070  0.2432  0.2956
  772SOL    HW1 2315   2.824   1.957   2.501 -4.1080  0.9325 -0.8028
  772SOL    HW2 2316   2.980   1.888   2.483 -0.0208 -3.9878 -3.1689
  773SOL     OW 2317   1.156   1.664   1.767 -0.6565  0.0929 -0.3216
  773SOL    HW1 2318   1.167   1.597   1.690 -0.3285  0.1859  0.3975
  773SOL    HW2 2319   1.072   1.721   1.754  2.8663 -2.6793  0.0118
  774SOL     OW 2320   1.330   0.744   3.357  0.0476 -0.1413  0.1508
  774SOL    HW1 2321   1.318   0.650   3.315  0.4653 -2.0367  0.6923
  774SOL    HW2 2322   1.246   0.801   3.343 -1.2230  2.3930  0.8032
  775SOL     OW 2323   1.672   2.575   0.403 -0.8187 -0.2361 -0.4233
  775SOL    HW1 2324   1.706   2.667   0.432 -0.9098  0.7650 -0.6531
  775SOL    HW2 2325   1.658   2.582   0.301 -2.9893  0.9704 -2.8889
  776SOL     OW 2326   3.525   1.290   1.927 -0.7645 -0.9121 -0.4389
  776SOL    HW1 2327   3.625   1.299   1.949  0.8908  0.8542  2.6356
  776SOL    HW2 2328   3.482   1.208   1.970 -0.4443 -0.1707 -0.7353
  777SOL     OW 2329   2.875   2.718   2.657 -0.8851 -0.3153  0.0976
  777SOL    HW1 2330   2.916   2.809   2.682  0.4046  4.2191  0.0702
  777SOL    HW2 2331   2.947   2.644   2.653  0.6382  3.5115  1.7227
  778SOL     OW 2332   1.976   1.516   2.439  0.0079 -0.0785 -0.5695
  778SOL    HW1 2333   1.914   1.527   2.356  0.1851 -1.2532  1.8184
  778SOL    HW2 2334   2.012   1.605   2.475 -1.2729  2.4000  1.1663
  779SOL     OW 2335   3.448   1.330   0.636  0.1749 -0.3310 -0.4069
  779SOL    HW1 2336   3.407   1.422   0.655 -3.1266 -2.1472 -0.9219
  779SOL    HW2 2337   3.426   1.299   0.539  0.0123 -0.2779 -1.4997
  780SOL     OW 2338   2.454   3.465   3.255  0.2161 -0.6817 -0.1879
  780SOL    HW1 2339   2.373   3.504   3.205 -0.9038  0.5865  0.8245
  780SOL    HW2 2340   2.447   3.478   3.356  1.4335 -0.0319 -0.9949
  781SOL     OW 2341   3.186   1.838   1.439  0.0437  0.0534  0.1243
  781SOL    HW1 2342   3.253   1.863   1.365 -0.6863 -0.2291  1.9485
  781SOL    HW2 2343   3.239   1.803   1.521  1.9112  1.6393  0.2563
  782SOL     OW 2344   3.427   2.675   3.346  0.2786  0.0587 -0.1306
  782SOL    HW1 2345   3.383   2.703   3.435  1.8199  0.4261 -1.1931
  782SOL    HW2 2346   3.358   2.665   3.270 -2.2775  0.4442 -0.2109
  783SOL     OW 2347   0.807   1.821   0.935  0.0695  1.0748 -0.3326
  783SOL    HW1 2348   0.800   1.720   0.914  0.0820  0.5036 -0.3470
  783SOL    HW2 2349   0.811   1.879   0.851 -0.5577  1.7815  0.4721
  784SOL     OW 2350   2.688   1.608   0.528  0.1448  0.2395  0.4217
  784SOL    HW1 2351   2.713   1.519   0.481 -2.0541  0.6119  0.8554
  784SOL    HW2 2352   2.642   1.670   0.458 -0.7646  0.9592 -0.5123
  785SOL     OW 2353   2.299   3.234   0.506 -0.1953 -0.1314 -0.1521
  785SOL    HW1 2354   2.243   3.274   0.430  0.5693  2.2352  0.2812
  785SOL    HW2 2355   2.237   3.185   0.573  0.2479 -0.6797  0.5547
  786SOL     OW 2356   0.810   2.344   3.007 -0.4997  0.0013  0.1398
  786SOL    HW1 2357   0.767   2.267   2.953 -0.1205 -3.2488  0.2023
  786SOL    HW2 2358   0.782   2.334   3.106  0.2093 -2.4027  0.8360
  787SOL     OW 2359   1.568   0.465   1.356 -0.0408 -0.1929 -0.2553
  787SOL    HW1 2360   1.660   0.420   1.358  0.1422 -1.0023 -0.8091
  787SOL    HW2 2361   1.503   0.409   1.412 -3.3712  0.3365 -0.0173
  788SOL     OW 2362   0.769   1.170   0.096 -0.3715  0.0550  0.3321
  788SOL    HW1 2363   0.720   1.093   0.046 -0.6528 -0.6892 -1.7999
  788SOL    HW2 2364   0.745   1.262   0.056 -0.3059  1.3378 -0.9375
  789SOL     OW 2365   3.329   2.232   1.522  0.0760  0.4279 -0.3730
  789SOL    HW1 2366   3.243   2.185   1.554 -0.1670 -2.1484 -1.7651
  789SOL    HW2 2367   3.318   2.274   1.428  2.2080 -0.7741 -2.4344
  790SOL     OW 2368   1.676   0.156   2.582 -0.3541  0.4340  0.1941
  790SOL    HW1 2369   1.601   0.119   2.644 -1.9765  2.6552  1.9469
  790SOL    HW2 2370   1.637   0.236   2.530  0.2433  1.6089  0.9228
  791SOL     OW 2371   1.174   0.630   0.239  0.4916 -0.0115 -0.1230
  791SOL    HW1 2372   1.211   0.545   0.192 -0.3209 -0.4663 -1.2494
  791SOL    HW2 2373   1.090   0.665   0.192 -1.6427  1.1771  1.4520
  792SOL     OW 2374   1.526   0.349   1.943 -0.1734 -0.8057 -0.2837
  792SOL    HW1 2375   1.532   0.449   1.915 -3.0599 -1.9075  0.9225
  792SOL    HW2 2376   1.591   0.330   2.023  0.7014  2.3632  2.7384
  793SOL     OW 2377   1.151   3.480   0.973 -0.0772  0.4931  0.3627
  793SOL    HW1 2378   1.109   3.575   0.977 -1.0242  0.1010 -0.7977
  793SOL    HW2 2379   1.216   3.466   1.052 -0.3563 -2.2690 -0.0497
  794SOL     OW 2380   0.768   1.526   2.179 -0.0298  0.1814 -0.0240
  794SOL    HW1 2381   0.721   1.435   2.169 -1.1582 -0.8431 -3.9624
  794SOL    HW2 2382   0.827   1.531   2.265 -2.4665  0.2465 -0.3114
  795SOL     OW 2383   0.166   1.656   2.586 -0.0893 -0.0970  0.2946
  795SOL    HW1 2384   0.079   1.687   2.540  0.0405 -3.4706  0.7002
  795SOL    HW2 2385   0.191   1.720   2.663  1.3469 -2.6555 -3.7545
  796SOL     OW 2386   2.200   1.933   2.063 -0.1457 -0.3680  0.1880
  796SOL    HW1 2387   2.269   2.009   2.076 -0.3853 -0.4219 -0.2068
  796SOL    HW2 2388   2.127   1.931   2.136 -2.7852  1.5622 -1.0054
  797SOL     OW 2389   0.043   0.322   3.049  0.2707 -0.2827  0.0939
  797SOL    HW1 2390   0.068   0.244   2.987  0.1798  0.8203 -0.4825
  797SOL    HW2 2391   0.017   0.289   3.141 -1.2796 -0.5906 -0.6150
  798SOL     OW 2392   3.610   2.715   2.310  0.7401  0.1807  0.0523
  798SOL    HW1 2393   3.584   2.733   2.209  1.0363 -1.1015  1.3354
  798SOL    HW2 2394   3.603   2.613   2.332  1.7695  1.9900 -2.3621
  799SOL     OW 2395   3.261   2.736   3.599 -0.3196  0.0078 -0.4527
  799SOL    HW1 2396   3.322   2.794   3.659 -1.5267 -0.1407 -1.1322
  799SOL    HW2 2397   3.163   2.767   3.615 -1.8615 -3.5240  0.1443
  800SOL     OW 2398   1.235   1.895   0.826  0.0869  0.1124 -0.6563
  800SOL    HW1 2399   1.189   1.983   0.854  0.5879  1.4637  0.0464
  800SOL    HW2 2400   1.327   1.882   0.871 -2.4043 -0.1702 -0.3507
  801SOL     OW 2401   3.296   0.809   0.862 -0.1851  0.6017 -0.1441
  801SOL    HW1 2402   3.336   0.896   0.825 -0.5337 -0.6083 -1.8979
  801SOL    HW2 2403   3.213   0.822   0.922 -0.7491  1.1585 -0.2969
  802SOL     OW 2404   3.093   1.853   0.531 -0.1232 -0.3736  0.2142
  802SOL    HW1 2405   3.109   1.949   0.499  0.5805  0.2092  0.8741
  802SOL    HW2 2406   2.993   1.841   0.553  0.2438  0.9394  0.4589
  803SOL     OW 2407   2.004   2.257   3.398 -0.3721  0.3220  0.1621
  803SOL    HW1 2408   1.976   2.275   3.300 -1.5175  0.2993  1.9309
  803SOL    HW2 2409   2.095   2.303   3.413 -0.1559 -1.4897 -1.9160
  804SOL     OW 2410   2.374   2.301   0.345 -0.1954  0.9167  0.1690
  804SOL    HW1 2411   2.371   2.239   0.429  1.0399 -0.2084  1.1574
  804SOL    HW2 2412   2.407   2.247   0.262  0.0655  0.3823  0.1225
  805SOL     OW 2413   3.420   1.924   3.010  0.1039 -0.1899  0.0760
  805SOL    HW1 2414   3.365   1.963   3.087 -0.0418 -0.1632 -0.3656
  805SOL    HW2 2415   3.428   1.990   2.932  1.7896  1.8671 -2.2752
  806SOL     OW 2416   0.377   0.326   0.473 -0.3922  0.1308  0.0922
  806SOL    HW1 2417   0.378   0.381   0.561 -2.6449  0.9753 -0.8627
  806SOL    HW2 2418   0.298   0.260   0.468  0.7864  2.0952 -1.9852
  807SOL     OW 2419   2.882   1.567   2.957  0.3152 -0.2659 -0.3753
  807SOL    HW1 2420   2.813   1.506   3.006 -0.9086  2.4039  0.7108
  807SOL    HW2 2421   2.960   1.513   2.918  3.2355 -1.1693 -0.1335
  808SOL     OW 2422   0.159   1.707   0.604 -0.3663  0.1311 -0.8142
  808SOL    HW1 2423   0.141   1.619   0.656 -2.7393  0.1670 -0.6881
  808SOL    HW2 2424   0.189   1.786   0.662  0.9321 -2.4575  2.2986
  809SOL     OW 2425   2.992   0.643   3.343  0.8004 -0.0539  0.3862
  809SOL    HW1 2426   3.046   0.703   3.407  0.4263  0.9471 -2.4279
  809SOL    HW2 2427   2.891   0.663   3.346  1.6535  1.3457 -0.9182
  810SOL     OW 2428   1.077   0.853   0.441  0.1022  0.2598 -0.5827
  810SOL    HW1 2429   1.121   0.767   0.403  2.2606  0.6452 -1.0125
  810SOL    HW2 2430   1.036   0.912   0.367 -1.0319  0.7170 -0.3029
  811SOL     OW 2431   1.833   3.001   0.935 -0.1093 -0.2619  0.1087
  811SOL    HW1 2432   1.744   3.052   0.938  1.7055 -1.4128  0.5471
  811SOL    HW2 2433   1.822   2.912   0.882 -0.1631 -0.4258  0.6390
  812SOL     OW 2434   0.911   3.121   1.948  0.5608  0.0082  0.7635
  812SOL    HW1 2435   0.880   3.023   1.954  2.2772 -1.9408  0.8585
  812SOL    HW2 2436   0.960   3.148   2.035  3.0353  0.4661  0.1247
  813SOL     OW 2437   1.267   0.342   2.305  0.2765 -0.2373  0.4592
  813SOL    HW1 2438   1.248   0.246   2.333 -0.7965 -2.8063  1.7257
  813SOL    HW2 2439   1.204   0.409   2.354  1.6180 -1.7502 -0.3078
  814SOL     OW 2440   1.564   3.585   3.247 -0.3398  0.0921 -0.6288
  814SOL    HW1 2441   1.506   3.634   3.317 -2.7585 -0.5798  0.3002
  814SOL    HW2 2442   1.535   3.487   3.230 -1.6968 -1.1015 -0.0614
  815SOL     OW 2443   0.728   0.715   2.304 -0.3254  0.2883  0.0584
  815SOL    HW1 2444   0.665   0.762   2.238 -2.6054 -3.5990 -0.1301
  815SOL    HW2 2445   0.747   0.779   2.381 -1.0139  2.0057  0.3389
  816SOL     OW 2446   2.687   0.509   3.598 -0.1305  0.6126 -0.0605
  816SOL    HW1 2447   2.615   0.480   3.666 -0.8613 -0.2418 -1.8242
  816SOL    HW2 2448   2.749   0.432   3.570 -2.6469  2.2466  1.4355
  817SOL     OW 2449   2.104   0.211   3.306  0.5995 -0.2699 -0.4896
  817SOL    HW1 2450   2.090   0.309   3.280 -0.3870 -2.4633 -0.7125
  817SOL    HW2 2451   2.020   0.162   3.337 -4.3661  0.5485 -1.1468
  818SOL     OW 2452   2.477   0.461   0.186  0.4162  0.3032  1.1566
  818SOL    HW1 2453   2.493   0.361   0.210 -2.8758  2.3915 -0.2502
  818SOL    HW2 2454   2.446   0.512   0.271 -0.8811 -2.9158  2.1165
  819SOL     OW 2455   2.782   1.818   0.152 -0.1789 -0.0258 -0.0346
  819SOL    HW1 2456   2.841   1.899   0.174  0.3969 -1.0381  0.1065
  819SOL    HW2 2457   2.839   1.734   0.136 -0.7617 -1.3949 -3.5483
  820SOL     OW 2458   3.450   2.375   0.050  0.5798  0.3181  0.1749
  820SOL    HW1 2459   3.395   2.462   0.034 -0.5387  0.7415 -1.3515
  820SOL    HW2 2460   3.390   2.293   0.030  0.7043  0.2741  0.6781
  821SOL     OW 2461   0.455   3.090   1.802 -0.2534 -0.4701  0.4829
  821SOL    HW1 2462   0.361   3.124   1.823 -0.4604  1.2635  3.4651
  821SOL    HW2 2463   0.456   3.065   1.702  3.9175 -1.8800  2.3369
  822SOL     OW 2464   3.219   3.117   2.830 -0.1171  0.1943  0.1405
  822SOL    HW1 2465   3.212   3.218   2.820 -0.9565 -0.3016 -2.9797
  822SOL    HW2 2466   3.140   3.067   2.785  0.3303 -1.2824 -1.2606
  823SOL     OW 2467   1.856   3.513   2.787 -0.5841 -0.3665  0.4216
  823SOL    HW1 2468   1.883   3.581   2.715 -2.1556 -1.1918  1.8612
  823SOL    HW2 2469   1.801   3.567   2.855 -3.5381  1.5744 -0.9403
  824SOL     OW 2470   2.862   2.052   1.271 -0.3766 -0.6036  0.5200
  824SOL    HW1 2471   2.909   2.080   1.184 -1.6086 -4.2258 -2.9977
  824SOL    HW2 2472   2.861   1.949   1.283 -0.5047  3.8202 -1.4443
  825SOL     OW 2473   3.318   2.275   3.049  0.4372  0.1847 -1.0007
  825SOL    HW1 2474   3.269   2.350   2.995  2.0184  0.3044  0.2737
  825SOL    HW2 2475   3.420   2.297   3.035  0.1771 -2.9076 -2.2019
  826SOL     OW 2476   3.353   1.612   2.590 -0.1667 -0.0098  0.3063
  826SOL    HW1 2477   3.258   1.626   2.553  2.5471 -2.4625 -0.0619
  826SOL    HW2 2478   3.359   1.625   2.692  1.4467 -0.1855 -1.8615
  827SOL     OW 2479   2.934   3.044   2.047 -0.5166  0.9765  0.1461
  827SOL    HW1 2480   2.960   2.951   2.005  1.2732  1.4512  1.0052
  827SOL    HW2 2481   2.832   3.051   2.064 -1.1988 -0.9653  1.8451
  828SOL     OW 2482   3.466   3.505   1.868  0.2781 -0.6362 -0.2257
  828SOL    HW1 2483   3.425   3.489   1.775  1.6110 -0.8124  0.7036
  828SOL    HW2 2484   3.543   3.573   1.858  1.4748  2.1819 -0.5948
  829SOL     OW 2485   2.326   2.242   2.724 -0.1399 -0.2006  0.2544
  829SOL    HW1 2486   2.230   2.259   2.692 -0.2191 -1.9187  0.3577
  829SOL    HW2 2487   2.333   2.247   2.827 -1.4230 -0.3291  2.0578
  830SOL     OW 2488   1.832   0.775   1.053 -0.0521  0.5542 -0.4176
  830SOL    HW1 2489   1.888   0.688   1.043  0.5508 -1.6390 -1.9488
  830SOL    HW2 2490   1.895   0.857   1.070  0.8523  0.1464  0.4098
  831SOL     OW 2491   3.467   1.773   0.924  0.3906 -0.3223 -0.4145
  831SOL    HW1 2492   3.523   1.694   0.960  2.3783  0.4346  2.0301
  831SOL    HW2 2493   3.423   1.745   0.834  3.2955 -2.3657  1.0669
  832SOL     OW 2494   1.793   2.728   2.204 -0.4177  0.5624 -0.2187
  832SOL    HW1 2495   1.760   2.825   2.196  0.1851  0.8250  1.2210
  832SOL    HW2 2496   1.892   2.724   2.175 -1.4566 -0.3128  1.3285
  833SOL     OW 2497   3.603   3.514   2.692 -0.5259 -0.1841  0.0635
  833SOL    HW1 2498   3.520   3.508   2.630  1.4928  0.1512 -0.2430
  833SOL    HW2 2499   3.589   3.474   2.786  3.0778  0.2814 -0.1706
  834SOL     OW 2500   1.281   1.221   1.512 -0.4323 -0.5202 -0.0012
  834SOL    HW1 2501   1.307   1.182   1.604  1.0360  0.8932  1.6823
  834SOL    HW2 2502   1.354   1.194   1.442  0.4606 -2.3228 -2.5218
  835SOL     OW 2503   0.014   0.887   3.293 -0.3036 -0.2380 -0.4352
  835SOL    HW1 2504  -0.089   0.893   3.279 -1.9664  0.9981  0.2170
  835SOL    HW2 2505   0.039   0.892   3.393  0.4456 -3.4000  1.2677
  836SOL     OW 2506   1.221   2.782   1.199  0.5700 -0.0204 -0.2583
  836SOL    HW1 2507   1.132   2.837   1.196 -0.6766  1.4615  0.1192
  836SOL    HW2 2508   1.283   2.821   1.271  1.6594  0.5885 -0.5365
  837SOL     OW 2509   2.521   0.978   1.462 -0.2258  0.1286 -0.1748
  837SOL    HW1 2510   2.440   0.970   1.398  2.8663  2.3140  3.5401
  837SOL    HW2 2511   2.495   1.040   1.541  0.2385 -0.4891  2.2838
  838SOL     OW 2512   1.674   1.988   3.323  0.2430 -0.0243  0.5390
  838SOL    HW1 2513   1.751   1.995   3.392 -0.4784 -0.6393 -2.0809
  838SOL    HW2 2514   1.693   2.058   3.249  1.3717 -1.1520  1.9569
  839SOL     OW 2515   0.658   2.710   3.295 -0.3342 -0.0699  0.0380
  839SOL    HW1 2516   0.682   2.610   3.288 -0.1797 -0.6651  0.6123
  839SOL    HW2 2517   0.598   2.734   3.375 -0.2253  0.2683  1.1046
  840SOL     OW 2518   0.901   2.880   3.342  0.0979  0.2442 -0.4717
  840SOL    HW1 2519   0.817   2.823   3.324  0.1771 -0.3616  0.1448
  840SOL    HW2 2520   0.906   2.961   3.279 -1.2195 -1.1094  3.2740
  841SOL     OW 2521   2.234   2.415   3.423 -0.0789 -0.2498  0.3999
  841SOL    HW1 2522   2.329   2.377   3.437  3.2111 -0.0638  2.2291
  841SOL    HW2 2523   2.214   2.488   3.492 -1.3345 -0.5773 -0.0573
  842SOL     OW 2524   1.821   1.035   3.299  0.4350 -0.3418 -0.0989
  842SOL    HW1 2525   1.831   1.139   3.293 -1.2806 -0.5942  1.1590
  842SOL    HW2 2526   1.728   1.000   3.269 -0.5193  1.2742  1.4476
  843SOL     OW 2527   1.608   3.493   0.912  0.0082  0.4454 -0.9765
  843SOL    HW1 2528   1.709   3.512   0.919 -1.6852  0.2918  1.1334
  843SOL    HW2 2529   1.571   3.527   0.822  0.9982  0.0873 -0.3429
  844SOL     OW 2530   2.896   3.388   3.142 -0.1161  0.1145 -0.0651
  844SOL    HW1 2531   2.875   3.334   3.227  1.6632  2.0742 -0.9547
  844SOL    HW2 2532   2.994   3.423   3.135 -0.9863  1.0570 -1.0507
  845SOL     OW 2533   3.376   3.454   1.605 -0.3106  0.0870  0.0160
  845SOL    HW1 2534   3.376   3.541   1.549  0.3006  1.9245 -2.3988
  845SOL    HW2 2535   3.283   3.409   1.605  1.0865  2.4221  2.2671
  846SOL     OW 2536   0.250   2.610   2.591  0.8720 -0.4360 -0.2914
  846SOL    HW1 2537   0.227   2.700   2.549  0.8827  0.2099 -0.0244
  846SOL    HW2 2538   0.275   2.623   2.690  0.9513  0.4499 -0.1644
  847SOL     OW 2539   1.976   0.177   1.697 -0.2568 -0.3844  0.2142
  847SOL    HW1 2540   1.882   0.203   1.731 -1.8030 -0.1214 -2.1865
  847SOL    HW2 2541   2.012   0.099   1.755 -0.1564  0.6106  1.5797
  848SOL     OW 2542   3.326   0.706   0.098  0.1791  0.1614  0.1748
  848SOL    HW1 2543   3.426   0.683   0.093 -1.1532  2.4795 -2.4805
  848SOL    HW2 2544   3.268   0.623   0.114  0.5023 -0.2914  1.5894
  849SOL     OW 2545   0.612   0.702   0.154 -0.0683  0.7791 -0.2936
  849SOL    HW1 2546   0.545   0.740   0.222  2.0749  0.6712  0.0824
  849SOL    HW2 2547   0.586   0.606   0.125  0.0390 -1.5336  0.1680
  850SOL     OW 2548   0.393   3.183   1.249 -0.2141 -0.0342  0.3988
  850SOL    HW1 2549   0.296   3.216   1.253  0.7436 -2.5279 -0.0294
  850SOL    HW2 2550   0.450   3.256   1.203 -0.1155  0.8212 -0.0583
  851SOL     OW 2551   2.272   0.233   2.842 -0.2413  0.2264 -0.0893
  851SOL    HW1 2552   2.176   0.254   2.863 -0.7347 -1.7949  0.9237
  851SOL    HW2 2553   2.279   0.182   2.752  0.5642  3.0546  0.2271
  852SOL     OW 2554   1.823   1.837   2.740  0.1352 -0.2510  0.1299
  852SOL    HW1 2555   1.796   1.771   2.812  0.3140 -1.8392 -1.1319
  852SOL    HW2 2556   1.739   1.871   2.688  1.3024 -6.3701 -4.6283
  853SOL     OW 2557   0.113   3.452   0.555  0.1202  0.2615  0.2147
  853SOL    HW1 2558   0.111   3.372   0.488  0.6402  0.8387 -1.9525
  853SOL    HW2 2559   0.169   3.426   0.637 -1.0775  0.5346 -0.4014
  854SOL     OW 2560   2.856   3.612   0.808  0.1853 -0.0554  0.5863
  854SOL    HW1 2561   2.805   3.701   0.802  1.6866  0.0852  0.7980
  854SOL    HW2 2562   2.814   3.547   0.740 -0.1809 -1.3022 -2.5486
  855SOL     OW 2563   1.651   2.520   0.865  0.0224 -0.6597 -0.0860
  855SOL    HW1 2564   1.611   2.465   0.789  2.3961  1.9441  0.7863
  855SOL    HW2 2565   1.578   2.564   0.923 -1.6619  0.4766 -2.8117
  856SOL     OW 2566   2.805   0.551   0.437 -0.0839 -0.0927  0.0662
  856SOL    HW1 2567   2.783   0.450   0.440  2.1120  1.1326 -0.1412
  856SOL    HW2 2568   2.903   0.567   0.466 -3.1195  0.1818 -2.3167
  857SOL     OW 2569   2.179   2.967   2.055  0.0001  0.5925  0.5690
  857SOL    HW1 2570   2.221   3.001   2.143 -1.2130 -1.7995 -2.0844
  857SOL    HW2 2571   2.251   2.932   1.993  0.1954  1.8545 -0.2160
  858SOL     OW 2572   3.032   2.615   1.615  0.0114 -0.2462 -0.7002
  858SOL    HW1 2573   3.102   2.632   1.543 -2.5057 -0.2433  1.6088
  858SOL    HW2 2574   2.938   2.597   1.576 -0.0728 -2.0222 -0.1270
  859SOL     OW 2575   1.360   2.993   0.882  0.1449  0.1404 -0.2967
  859SOL    HW1 2576   1.273   3.027   0.929  0.1319 -1.9543  0.9228
  859SOL    HW2 2577   1.438   3.057   0.907 -1.7900  0.4896  0.8160
  860SOL     OW 2578   2.587   2.804   0.271  0.0928 -0.0617  0.6111
  860SOL    HW1 2579   2.607   2.718   0.324  1.7658 -1.2341  0.1848
  860SOL    HW2 2580   2.589   2.784   0.169  2.4237 -0.4192 -0.3943
  861SOL     OW 2581   2.470   2.774   1.096  0.0227  0.1520 -0.0330
  861SOL    HW1 2582   2.492   2.826   1.009  2.5738 -0.7657 -3.0114
  861SOL    HW2 2583   2.554   2.761   1.154  2.0617  1.2576  1.3514
  862SOL     OW 2584   2.080   3.256   3.248 -0.1890  0.5763  0.5334
  862SOL    HW1 2585   2.067   3.320   3.169  0.8827 -1.7069  0.4177
  862SOL    HW2 2586   2.087   3.308   3.336 -1.9496 -1.6074 -1.0222
  863SOL     OW 2587   0.651   0.023   0.354 -0.4454  0.7403 -0.1937
  863SOL    HW1 2588   0.685  -0.025   0.438 -2.1562 -0.0858  0.8201
  863SOL    HW2 2589   0.684  -0.019   0.266 -1.1438  0.7958 -0.8433
  864SOL     OW 2590   3.071   3.080   2.395  0.3033 -0.4978 -0.1621
  864SOL    HW1 2591   3.160   3.029   2.389  0.1611 -0.7116 -1.0926
  864SOL    HW2 2592   3.015   3.066   2.309  1.5717 -3.4593 -1.5457
  865SOL     OW 2593   0.016   2.429   3.313  0.0233 -0.5601 -0.3210
  865SOL    HW1 2594   0.037   2.387   3.404 -4.0423 -2.6244  1.3559
  865SOL    HW2 2595  -0.052   2.506   3.323  2.1337 -0.8595 -0.8184
  866SOL     OW 2596   3.040   0.356   3.295 -0.1924 -0.5511  0.0173
  866SOL    HW1 2597   3.112   0.334   3.225  1.4353 -0.8826  0.7105
  866SOL    HW2 2598   3.028   0.458   3.303  0.5508 -1.4020  1.1284
  867SOL     OW 2599   3.544   3.438   3.029  0.3372 -0.2530 -0.0506
  867SOL    HW1 2600   3.463   3.501   3.035 -0.3112  0.0468  1.7890
  867SOL    HW2 2601   3.528   3.359   3.094 -2.2699  1.4001  1.1012
  868SOL     OW 2602   0.980   3.222   0.942 -0.4553  0.2015  0.4279
  868SOL    HW1 2603   1.033   3.309   0.959 -0.3239 -2.2594  1.7584
  868SOL    HW2 2604   0.981   3.198   0.842 -1.6797  0.5985  1.1688
  869SOL     OW 2605   1.584   1.592   1.440 -0.0458 -0.0956 -0.2255
  869SOL    HW1 2606   1.542   1.679   1.403  0.0703 -1.4706  1.0635
  869SOL    HW2 2607   1.658   1.553   1.383  0.1834 -1.3691  0.0387
  870SOL     OW 2608   2.238   2.058   1.341  0.1033  0.4743  0.4423
  870SOL    HW1 2609   2.272   1.960   1.345  2.1246 -3.4763  1.2100
  870SOL    HW2 2610   2.289   2.125   1.401 -0.3527  1.1073 -2.1132
  871SOL     OW 2611   1.212   1.694   1.221 -0.4148  0.0799 -0.4145
  871SOL    HW1 2612   1.206   1.633   1.137  1.3580  1.8627 -0.8395
  871SOL    HW2 2613   1.139   1.767   1.218 -1.0552 -0.5225 -1.7566
  872SOL     OW 2614   1.345   0.625   0.884 -0.1995 -0.3461 -0.3832
  872SOL    HW1 2615   1.426   0.673   0.844 -0.6913 -2.0819  1.8744
  872SOL    HW2 2616   1.349   0.610   0.987 -1.7932 -1.1607  0.4017
  873SOL     OW 2617   2.030   0.542   3.219 -0.9780 -0.5656  0.6152
  873SOL    HW1 2618   2.091   0.598   3.282 -2.5136  0.8784 -0.5672
  873SOL    HW2 2619   2.026   0.587   3.126 -0.5771 -0.4806  1.2824
  874SOL     OW 2620   0.620   1.442   1.350  0.0525 -0.1502 -0.6434
  874SOL    HW1 2621   0.651   1.525   1.406 -0.2656 -1.8131 -3.4264
  874SOL    HW2 2622   0.536   1.462   1.291 -0.8825  0.4437 -0.2384
  875SOL     OW 2623   3.252   3.235   3.563 -0.3897 -0.6555 -0.0273
  875SOL    HW1 2624   3.236   3.163   3.491 -1.3727  1.4199  1.1767
  875SOL    HW2 2625   3.243   3.331   3.525  1.0659 -0.6458  0.8056
  876SOL     OW 2626   0.943   0.665   3.440 -0.3411 -0.3117 -0.1255
  876SOL    HW1 2627   0.945   0.685   3.542  0.6260  3.0793  1.3104
  876SOL    HW2 2628   1.003   0.731   3.388  1.4973  1.9133 -1.4153
  877SOL     OW 2629   3.630   3.279   1.617  0.1172  0.6484 -0.1138
  877SOL    HW1 2630   3.695   3.317   1.547 -2.9119 -0.5891  0.4061
  877SOL    HW2 2631   3.546   3.339   1.622 -1.3777 -0.3228 -0.5297
  878SOL     OW 2632   2.322   2.240   3.008 -0.2816  0.0040  0.2838
  878SOL    HW1 2633   2.253   2.306   3.046 -1.0933 -1.6324  0.7647
  878SOL    HW2 2634   2.412   2.249   3.058 -1.0884  0.7961  1.7408
  879SOL     OW 2635   2.580   2.063   2.155 -0.7098 -0.1384 -0.4912
  879SOL    HW1 2636   2.603   2.056   2.256  1.2636 -0.4169 -0.8026
  879SOL    HW2 2637   2.649   2.016   2.094 -2.9078  1.0787  3.1856
  880SOL     OW 2638   1.115   1.206   1.058 -0.5517 -0.1143  0.0252
  880SOL    HW1 2639   1.198   1.252   1.100  3.8091 -0.3594  0.9254
  880SOL    HW2 2640   1.120   1.105   1.075 -2.2070  0.0330  0.7137
  881SOL     OW 2641   1.483   1.819   0.062 -0.0697 -0.5615  0.7489
  881SOL    HW1 2642   1.470   1.911   0.110  0.4835 -0.1963 -1.4225
  881SOL    HW2 2643   1.527   1.755   0.129 -1.2426  1.3282 -0.1749
  882SOL     OW 2644   2.179   3.630   1.331  0.5295  0.4051 -0.5058
  882SOL    HW1 2645   2.190   3.700   1.406 -1.0495  1.3060 -1.0322
  882SOL    HW2 2646   2.263   3.623   1.272 -0.2427  0.1794 -2.5855
  883SOL     OW 2647   2.255   0.791   2.481  0.1928 -0.5008  0.1691
  883SOL    HW1 2648   2.164   0.744   2.470  3.9231  1.2418 -2.2352
  883SOL    HW2 2649   2.332   0.723   2.483 -1.3893  0.6281 -2.1490
  884SOL     OW 2650   3.162   0.820   3.526 -0.3661 -0.3685  0.2698
  884SOL    HW1 2651   3.221   0.865   3.453  0.2199 -1.5414 -1.2409
  884SOL    HW2 2652   3.221   0.785   3.603 -0.3921  1.3162  2.1256
  885SOL     OW 2653   1.363   2.700   0.965 -0.3694 -0.6410  0.7500
  885SOL    HW1 2654   1.379   2.793   0.921  0.5199  0.8972 -1.0060
  885SOL    HW2 2655   1.317   2.715   1.055 -1.1277  3.0026 -0.7492
  886SOL     OW 2656   1.525   0.977   3.196 -0.3940 -0.1560  0.1964
  886SOL    HW1 2657   1.459   0.921   3.251  1.2570  1.0573 -0.7674
  886SOL    HW2 2658   1.473   1.059   3.162  1.1946 -1.4676 -2.1490
  887SOL     OW 2659   2.055   3.608   1.879  0.0819 -0.2027 -0.6455
  887SOL    HW1 2660   2.123   3.637   1.950  4.2974  1.9148 -2.3941
  887SOL    HW2 2661   1.979   3.551   1.916  1.9761 -0.9561 -0.2860
  888SOL     OW 2662   3.364   1.989   1.897 -0.0395 -0.0655 -0.6038
  888SOL    HW1 2663   3.443   1.989   1.964  1.7243  2.0794  2.5297
  888SOL    HW2 2664   3.376   1.914   1.826  0.1128  0.5579 -0.4353
  889SOL     OW 2665   3.559   3.267   0.825  0.4220  0.6764 -0.3222
  889SOL    HW1 2666   3.491   3.246   0.900  0.9567 -2.3574 -1.1829
  889SOL    HW2 2667   3.537   3.357   0.779  0.2701 -0.1235 -0.6661
  890SOL     OW 2668   0.791   2.286   2.572  0.0415  0.0482 -0.5365
  890SOL    HW1 2669   0.804   2.389   2.565  2.8172 -3.5589 -1.2626
  890SOL    HW2 2670   0.730   2.258   2.492  3.0401  1.2226 -0.3008
  891SOL     OW 2671   0.837   2.031   0.683 -0.4628 -0.1051 -0.4639
  891SOL    HW1 2672   0.913   2.081   0.732  1.6414  1.2412  0.7166
  891SOL    HW2 2673   0.771   2.098   0.637 -1.0579  1.6393 -0.2630
  892SOL     OW 2674   3.113   3.047   1.456  0.3794 -0.5782  0.5319
  892SOL    HW1 2675   3.153   3.015   1.546  1.7380  1.2825 -0.3938
  892SOL    HW2 2676   3.161   3.003   1.374  2.2552 -1.3450 -0.9731
  893SOL     OW 2677   0.254   0.559   2.080 -0.5589  0.0534 -0.1628
  893SOL    HW1 2678   0.249   0.523   1.982 -1.8537  1.3849 -1.7733
  893SOL    HW2 2679   0.261   0.661   2.082  0.2438 -1.2908  0.1416
  894SOL     OW 2680   3.247   2.184   1.165 -0.0716  0.1695 -0.3013
  894SOL    HW1 2681   3.159   2.170   1.115 -0.3688 -0.6850 -2.8823
  894SOL    HW2 2682   3.278   2.087   1.189 -1.5484  1.4402 -1.8294
  895SOL     OW 2683   1.415   2.915   1.672  0.0052 -0.1536 -0.3868
  895SOL    HW1 2684   1.489   2.858   1.716 -0.9623 -0.0693  0.6426
  895SOL    HW2 2685   1.410   3.011   1.710 -2.4624  0.9127  3.0156
  896SOL     OW 2686   0.886   0.402   1.563 -0.2033 -0.3253  0.2918
  896SOL    HW1 2687   0.823   0.399   1.645 -1.1067  0.6242 -0.2734
  896SOL    HW2 2688   0.983   0.418   1.593 -0.5516  0.9480 -0.3729
  897SOL     OW 2689   1.405   1.337   1.156 -0.4169 -0.0110 -0.1081
  897SOL    HW1 2690   1.415   1.420   1.216 -0.1440 -2.3477 -1.8275
  897SOL    HW2 2691   1.451   1.254   1.197 -2.1445 -0.8039 -0.0235
  898SOL     OW 2692   0.953   0.377   2.024 -0.5887  0.6120 -0.1169
  898SOL    HW1 2693   0.941   0.463   2.080  0.9370  1.6690  4.2623
  898SOL    HW2 2694   1.049   0.338   2.024 -0.2092  3.0481  0.9804
  899SOL     OW 2695   1.725   0.420   0.239  0.1130 -0.3128  0.0779
  899SOL    HW1 2696   1.820   0.452   0.210 -1.1800 -1.5125  1.7766
  899SOL    HW2 2697   1.663   0.501   0.255 -0.9896 -2.2305  1.6543
  900SOL     OW 2698   1.216   0.785   2.844 -0.2317 -0.3190  0.6603
  900SOL    HW1 2699   1.196   0.881   2.876 -0.3607 -1.5832  0.3616
  900SOL    HW2 2700   1.171   0.767   2.752  1.8256 -1.0771 -0.4491
  901SOL     OW 2701   0.855   2.395   0.534  0.1405  0.3866  0.5788
  901SOL    HW1 2702   0.941   2.348   0.502  1.0061  1.2135  0.7768
  901SOL    HW2 2703   0.774   2.354   0.484 -1.5832 -0.8091  3.7464
  902SOL     OW 2704   2.154   0.232   0.848  0.3377 -0.1792 -0.0195
  902SOL    HW1 2705   2.184   0.171   0.770  3.0896 -0.4177 -2.0902
  902SOL    HW2 2706   2.082   0.181   0.903  0.8155  0.3938  0.0013
  903SOL     OW 2707   0.050   1.617   3.008 -0.4043 -0.5161  0.5382
  903SOL    HW1 2708   0.103   1.695   2.965  4.0149  0.8042 -1.3512
  903SOL    HW2 2709  -0.037   1.602   2.953 -0.2695  0.1878 -0.4296
  904SOL     OW 2710   1.992   1.460   0.479 -0.2163 -0.2123  0.9765
  904SOL    HW1 2711   1.935   1.494   0.557  1.8738 -2.9241  0.3457
  904SOL    HW2 2712   2.013   1.359   0.487  0.2917  1.6364  0.1306
  905SOL     OW 2713   2.282   3.232   1.570  0.4520  0.3291  0.0702
  905SOL    HW1 2714   2.216   3.269   1.499  1.3636  0.8924  2.1619
  905SOL    HW2 2715   2.301   3.132   1.554 -3.4172  1.6555 -1.8547
  906SOL     OW 2716   2.640   3.123   0.986  0.4944 -0.4539  0.1160
  906SOL    HW1 2717   2.577   3.205   0.981  0.9611  1.6179  1.2227
  906SOL    HW2 2718   2.692   3.122   1.076  0.2019 -2.5217  0.6692
  907SOL     OW 2719   2.601   1.157   0.480 -0.0748 -0.3829 -0.3314
  907SOL    HW1 2720   2.569   1.060   0.494  0.1159 -0.1166 -1.7352
  907SOL    HW2 2721   2.536   1.224   0.523  1.5275  2.5781 -0.2632
  908SOL     OW 2722   2.215   0.301   1.614 -0.7287  0.1568  0.0053
  908SOL    HW1 2723   2.205   0.402   1.600 -0.2843  0.9745 -1.3073
  908SOL    HW2 2724   2.125   0.262   1.645 -0.9188 -1.0895  0.3606
  909SOL     OW 2725   2.856   3.344   1.191  0.4716 -0.3679  0.0927
  909SOL    HW1 2726   2.833   3.401   1.107  0.4588  2.7184  0.7928
  909SOL    HW2 2727   2.852   3.401   1.278 -0.6559 -0.1180 -1.9932
  910SOL     OW 2728   2.697   0.635   2.326  0.2339 -0.6499  0.2482
  910SOL    HW1 2729   2.622   0.630   2.396  0.5767  0.7648 -1.7295
  910SOL    HW2 2730   2.777   0.574   2.348 -2.4541 -2.1060 -3.4536
  911SOL     OW 2731   2.222   0.022   3.099 -0.2848 -0.2390 -0.1211
  911SOL    HW1 2732   2.188   0.085   3.174  0.7335 -1.3450  0.1230
  911SOL    HW2 2733   2.264   0.074   3.022 -0.3256 -1.8628  0.1548
  912SOL     OW 2734   0.616   1.084   1.550  0.4834  0.0464  0.0376
  912SOL    HW1 2735   0.714   1.114   1.546  0.6046 -2.7444 -2.8154
  912SOL    HW2 2736   0.607   0.982   1.539  0.3574 -3.4078  1.0117
  913SOL     OW 2737   2.851   3.066   1.288  0.0247 -0.4433  0.2969
  913SOL    HW1 2738   2.848   3.165   1.259  1.9587  1.9123  3.1915
  913SOL    HW2 2739   2.926   3.053   1.357  1.3752 -0.1068  0.9917
  914SOL     OW 2740   1.356   0.539   1.184 -0.1876 -0.5905  0.2237
  914SOL    HW1 2741   1.443   0.523   1.237  1.1285 -1.1286  3.1277
  914SOL    HW2 2742   1.320   0.448   1.150  0.3264 -0.5157 -2.3895
  915SOL     OW 2743   0.391   1.857   1.605  0.0053 -0.3759 -0.2729
  915SOL    HW1 2744   0.376   1.860   1.503  2.3269  0.5518 -0.5971
  915SOL    HW2 2745   0.397   1.951   1.649 -3.1484  0.5293 -1.4858
  916SOL     OW 2746   2.233   2.617   1.095  0.2109  0.4001  0.5670
  916SOL    HW1 2747   2.318   2.675   1.100  2.6721 -0.9877 -1.4100
  916SOL    HW2 2748   2.152   2.673   1.121 -1.0304  0.1727 -1.4634
  917SOL     OW 2749   2.354   2.809   2.707  0.1145  0.5413 -0.2342
  917SOL    HW1 2750   2.370   2.798   2.606  0.0023  1.3364 -0.9029
  917SOL    HW2 2751   2.279   2.878   2.723 -0.6109  1.1594 -1.0901
  918SOL     OW 2752   2.376   1.931   3.015  0.2985 -0.1650 -0.2009
  918SOL    HW1 2753   2.458   1.927   3.079 -2.3949 -0.2534 -1.9195
  918SOL    HW2 2754   2.341   2.028   3.006  1.6336  0.5260 -1.3539
  919SOL     OW 2755   0.887   0.642   1.355  0.3006  0.7939  0.1292
  919SOL    HW1 2756   0.883   0.565   1.423 -0.1205  0.8645 -0.5914
  919SOL    HW2 2757   0.983   0.679   1.347  1.8327  2.0788 -0.9610
  920SOL     OW 2758   3.321   0.879   2.483  0.0549  0.0904 -0.1909
  920SOL    HW1 2759   3.338   0.817   2.402 -0.3551  1.3159  1.2452
  920SOL    HW2 2760   3.387   0.860   2.558 -0.6243 -1.7056  1.6581
  921SOL     OW 2761   2.942   1.436   1.719 -0.1621 -0.0671  0.4144
  921SOL    HW1 2762   3.014   1.396   1.656 -1.8747  2.3227  1.9237
  921SOL    HW2 2763   2.986   1.472   1.805  2.5983  1.1150  1.3347
  922SOL     OW 2764   3.256   2.688   0.955  0.0575  0.1315  0.2118
  922SOL    HW1 2765   3.214   2.624   1.024  1.2826 -0.6544 -1.9981
  922SOL    HW2 2766   3.184   2.760   0.939  2.0537 -1.4261 -0.2753
  923SOL     OW 2767   0.045   2.722   0.652 -0.1104  0.1319 -0.2859
  923SOL    HW1 2768   0.086   2.708   0.747 -3.7129  1.9363 -0.0762
  923SOL    HW2 2769   0.112   2.694   0.575  0.8485 -0.8843 -0.8107
  924SOL     OW 2770   1.121   1.413   3.500  0.4624  0.4973 -0.2067
  924SOL    HW1 2771   1.188   1.463   3.438  2.3602 -1.9095  0.7110
  924SOL    HW2 2772   1.047   1.476   3.534  2.8689  0.2707  1.8071
  925SOL     OW 2773   3.605   1.531   1.033 -0.7970  0.0478  0.0346
  925SOL    HW1 2774   3.662   1.557   1.115  1.6114 -0.3999  0.9129
  925SOL    HW2 2775   3.543   1.452   1.056 -2.1544 -0.6763  1.2223
  926SOL     OW 2776   0.122   0.029   1.495  0.0545 -0.0952 -0.3227
  926SOL    HW1 2777   0.225   0.011   1.489 -3.4093 -2.5332 -1.0022
  926SOL    HW2 2778   0.082   0.006   1.402 -0.7830  1.2818  0.1565
  927SOL     OW 2779   0.718   2.110   2.841 -0.0431  0.0540  0.3150
  927SOL    HW1 2780   0.798   2.046   2.854  1.0572  0.9468 -1.0789
  927SOL    HW2 2781   0.723   2.156   2.749  0.9484 -2.3537 -0.4501
  928SOL     OW 2782   0.412   0.780   2.776 -0.5180 -0.0920 -0.3372
  928SOL    HW1 2783   0.451   0.685   2.791  0.2909 -2.3650  1.3337
  928SOL    HW2 2784   0.352   0.804   2.857  0.2890  0.8661 -3.5546
  929SOL     OW 2785   3.132   2.501   1.150  0.0321  0.0448 -0.2211
  929SOL    HW1 2786   3.031   2.509   1.137 -0.3283  0.2453  0.7179
  929SOL    HW2 2787   3.160   2.401   1.149 -1.3619 -0.4484 -0.2695
  930SOL     OW 2788   2.010   0.289   2.881 -0.2274 -0.3966  0.0969
  930SOL    HW1 2789   1.931   0.237   2.927  0.1489 -1.7391  0.2539
  930SOL    HW2 2790   1.977   0.373   2.830 -1.2001  0.8525 -2.2142
  931SOL     OW 2791   2.902   1.129   3.326 -1.0183 -0.0470 -0.0606
  931SOL    HW1 2792   2.916   1.145   3.428  0.6898  1.0564 -0.2584
  931SOL    HW2 2793   2.819   1.070   3.310  1.1569 -4.9011 -2.2253
  932SOL     OW 2794   2.112   1.049   0.762  0.0959  0.3645  0.1399
  932SOL    HW1 2795   2.094   1.091   0.671  0.8144 -0.9729 -0.1063
  932SOL    HW2 2796   2.165   0.962   0.753  1.6866 -0.9426 -0.8058
  933SOL     OW 2797   2.747   0.732   0.867  0.8178 -0.3801 -0.3967
  933SOL    HW1 2798   2.692   0.708   0.782 -0.1665  0.3363  0.1942
  933SOL    HW2 2799   2.775   0.830   0.864  1.3428  1.0298  1.1312
  934SOL     OW 2800   3.114   1.395   2.823  0.1530  0.4344  0.0282
  934SOL    HW1 2801   3.189   1.322   2.826 -0.2785 -0.8132 -0.5861
  934SOL    HW2 2802   3.079   1.397   2.726 -1.6708 -0.1381  1.3514
  935SOL     OW 2803   0.129   1.589   1.286  0.0568 -0.1062  0.1647
  935SOL    HW1 2804   0.099   1.684   1.313 -3.0168 -1.7954  1.4505
  935SOL    HW2 2805   0.123   1.530   1.371 -0.5868  0.5356 -1.2272
  936SOL     OW 2806   0.038   3.500   0.080  0.5026  0.1590 -0.1358
  936SOL    HW1 2807   0.059   3.399   0.081 -1.9403 -0.0245 -0.9905
  936SOL    HW2 2808   0.115   3.551   0.126 -1.5163  4.0165  2.8573
  937SOL     OW 2809   3.359   2.936   2.402  0.1801  0.5994 -0.3873
  937SOL    HW1 2810   3.373   2.930   2.505  0.2238 -0.5222 -0.4417
  937SOL    HW2 2811   3.393   2.855   2.350 -0.4507 -0.6921 -3.2953
  938SOL     OW 2812   2.644   2.748   3.540 -0.3311  0.2029 -0.2482
  938SOL    HW1 2813   2.704   2.665   3.544  3.8432 -1.6250  2.8982
  938SOL    HW2 2814   2.564   2.730   3.478 -0.9081 -0.5111  0.9050
  939SOL     OW 2815   1.233   0.712   1.658  0.0887  0.2243  0.4799
  939SOL    HW1 2816   1.331   0.748   1.668 -1.4703  1.0675  0.5160
  939SOL    HW2 2817   1.163   0.771   1.707  1.7086  2.4398 -0.3783
  940SOL     OW 2818   2.779   3.413   3.621  0.1678 -0.0645  0.3336
  940SOL    HW1 2819   2.689   3.455   3.591  2.0924  0.4375  0.1239
  940SOL    HW2 2820   2.814   3.343   3.553  2.5784 -1.5788 -0.2722
  941SOL     OW 2821   3.089   3.343   2.498  0.3320 -0.4795  0.6818
  941SOL    HW1 2822   3.006   3.397   2.468  1.4281  0.2172 -0.3197
  941SOL    HW2 2823   3.084   3.247   2.464  2.0351 -0.0357 -3.4732
  942SOL     OW 2824   1.905   0.017   1.227  0.7601 -0.1220 -0.0351
  942SOL    HW1 2825   1.840  -0.049   1.272  1.2762 -0.8351 -2.2738
  942SOL    HW2 2826   2.002   0.010   1.262  2.2477 -1.2250 -1.2728
  943SOL     OW 2827   1.483   1.865   2.880  0.1069 -0.0985 -0.1739
  943SOL    HW1 2828   1.558   1.807   2.924  0.9069  2.0905  1.7692
  943SOL    HW2 2829   1.511   1.888   2.784 -1.4456  3.6228 -0.4066
  944SOL     OW 2830   3.180   1.017   1.579  0.4595  0.2358 -0.8844
  944SOL    HW1 2831   3.259   0.972   1.528  1.4335 -1.8473  0.8945
  944SOL    HW2 2832   3.106   0.945   1.583 -2.2414  0.0838 -0.6460
  945SOL     OW 2833   3.157   0.051   3.214 -0.0632  0.5410  0.0257
  945SOL    HW1 2834   3.068   0.095   3.244  1.5642 -0.8252 -4.1118
  945SOL    HW2 2835   3.208   0.123   3.157 -0.2299  0.3828  0.3933
  946SOL     OW 2836   0.056   1.691   1.641 -0.8037  0.0005 -0.0628
  946SOL    HW1 2837   0.139   1.753   1.643 -1.9136  1.1196  1.2554
  946SOL    HW2 2838   0.084   1.594   1.620 -1.0714  0.3080 -1.1480
  947SOL     OW 2839   0.515   0.480   3.272 -0.4409 -0.4133  0.2375
  947SOL    HW1 2840   0.524   0.380   3.295  1.7474 -0.3763  0.4854
  947SOL    HW2 2841   0.440   0.499   3.203 -2.8641  4.4593  1.7121
  948SOL     OW 2842   2.334   1.779   1.396 -0.3294  0.0923  0.0924
  948SOL    HW1 2843   2.336   1.772   1.499 -0.3505  2.0969  0.0511
  948SOL    HW2 2844   2.415   1.729   1.356  0.4655 -1.2374 -0.1192
  949SOL     OW 2845   0.455   1.484   3.438  0.1928 -0.3468 -0.4922
  949SOL    HW1 2846   0.467   1.563   3.372 -0.6383 -0.1424  1.3762
  949SOL    HW2 2847   0.393   1.410   3.400  0.5800 -1.4323  1.0208
  950SOL     OW 2848   0.682   3.286   1.874  0.0304 -0.4664  0.0079
  950SOL    HW1 2849   0.605   3.223   1.849 -3.7908  2.0206  0.8393
  950SOL    HW2 2850   0.767   3.231   1.898  2.3482 -2.2526 -2.7844
  951SOL     OW 2851   0.980   2.558   2.900  0.3088  0.4798  0.1064
  951SOL    HW1 2852   0.912   2.496   2.945  2.2982 -0.8178 -0.6246
  951SOL    HW2 2853   1.066   2.569   2.954 -1.1218  2.5894 -1.3830
  952SOL     OW 2854   0.779   1.268   0.678  0.2132  0.1225 -0.2947
  952SOL    HW1 2855   0.750   1.181   0.722  0.8251 -0.4661 -2.0867
  952SOL    HW2 2856   0.743   1.279   0.582  1.4288  0.8792  1.2952
  953SOL     OW 2857   2.603   1.863   3.486 -0.6963  0.2092  0.1116
  953SOL    HW1 2858   2.517   1.806   3.495 -0.2126 -2.1301 -3.4132
  953SOL    HW2 2859   2.666   1.852   3.568  1.5896 -0.0435  1.5966
  954SOL     OW 2860   1.792   0.298   0.554 -0.0977 -0.1390  0.6618
  954SOL    HW1 2861   1.774   0.306   0.453  0.7653  1.2556 -0.3575
  954SOL    HW2 2862   1.837   0.207   0.573 -0.6166  0.0156  1.3562
  955SOL     OW 2863   1.030   1.845   0.120  0.1991 -0.5818 -0.5769
  955SOL    HW1 2864   0.999   1.775   0.052 -0.7068 -1.1304 -1.4731
  955SOL    HW2 2865   1.088   1.801   0.194  0.7777 -2.7919  1.2133
  956SOL     OW 2866   3.263   0.429   2.362  0.2411 -0.9710 -0.1707
  956SOL    HW1 2867   3.286   0.524   2.328  0.0047  0.1557  0.0599
  956SOL    HW2 2868   3.306   0.408   2.453  0.8877 -0.6411  2.6051
  957SOL     OW 2869   2.289   2.283   2.329 -0.1309 -0.5563  0.2936
  957SOL    HW1 2870   2.187   2.274   2.332 -1.5864  1.2106  0.0282
  957SOL    HW2 2871   2.340   2.207   2.378 -0.4769  0.0783 -0.2066
  958SOL     OW 2872   2.046   1.031   1.428  0.6562  0.1776 -0.2291
  958SOL    HW1 2873   2.097   1.119   1.420 -1.7513 -0.8198 -0.3722
  958SOL    HW2 2874   2.061   0.982   1.518 -1.0018 -1.2469  0.4644
  959SOL     OW 2875   1.707   2.519   2.416 -0.0578  0.7268 -0.2658
  959SOL    HW1 2876   1.743   2.426   2.387  0.5232  0.3644  0.9388
  959SOL    HW2 2877   1.719   2.594   2.346 -0.3195 -0.1877  0.9208
  960SOL     OW 2878   0.923   1.452   3.055 -0.2720 -0.2461 -0.1543
  960SOL    HW1 2879   1.012   1.473   3.004  1.5868  4.1744  0.1781
  960SOL    HW2 2880   0.843   1.457   2.990 -0.2015 -1.0464 -2.2453
  961SOL     OW 2881   3.215   1.431   0.163 -0.1922 -0.1088 -0.0964
  961SOL    HW1 2882   3.228   1.518   0.220  0.7022 -1.1966 -3.2356
  961SOL    HW2 2883   3.123   1.436   0.115  2.0240 -1.4473  0.3126
  962SOL     OW 2884   1.021   2.127   0.091 -0.7497  0.2288  0.1750
  962SOL    HW1 2885   1.026   2.025   0.091 -0.0544 -0.3768  0.1704
  962SOL    HW2 2886   1.093   2.172   0.033 -1.8170  0.9297  1.9165
  963SOL     OW 2887   3.295   1.824   0.005  0.4811  0.2307  0.5148
  963SOL    HW1 2888   3.253   1.780   0.090 -0.1912  0.7961 -0.0302
  963SOL    HW2 2889   3.392   1.799  -0.019 -1.6514  0.2335  3.1259
  964SOL     OW 2890   0.826   2.574   2.545 -1.0219  0.4049 -0.0799
  964SOL    HW1 2891   0.891   2.590   2.623 -0.7510 -1.2479 -0.4845
  964SOL    HW2 2892   0.786   2.665   2.518  0.3425  3.7966  0.3700
  965SOL     OW 2893   1.487   2.220   1.637  0.3085 -0.5249 -0.6664
  965SOL    HW1 2894   1.531   2.261   1.555  0.8673  2.4325 -0.5687
  965SOL    HW2 2895   1.446   2.127   1.617  0.7314  0.5755  2.4724
  966SOL     OW 2896   3.557   1.757   0.461  0.2802 -0.2639 -0.3916
  966SOL    HW1 2897   3.644   1.747   0.516  3.0612 -0.0085  1.2357
  966SOL    HW2 2898   3.564   1.719   0.364  0.4004  2.0999  1.0860
  967SOL     OW 2899   2.239   3.096   3.052 -0.2957 -0.0259 -0.3000
  967SOL    HW1 2900   2.176   3.146   3.116 -2.8225  4.2099  0.2079
  967SOL    HW2 2901   2.330   3.082   3.099  1.5198 -0.7752  0.2266
  968SOL     OW 2902   1.702   1.518   3.388  0.8824 -0.5166 -0.1003
  968SOL    HW1 2903   1.747   1.527   3.482  1.4544  1.1908  1.1468
  968SOL    HW2 2904   1.627   1.588   3.383  1.6729  0.7958 -1.4042
  969SOL     OW 2905   0.192   1.079   2.879 -0.3140  0.1784  0.4357
  969SOL    HW1 2906   0.189   1.154   2.806  0.6704 -2.2697  0.9725
  969SOL    HW2 2907   0.263   1.101   2.951 -1.0621  1.3323 -1.0635
  970SOL     OW 2908   2.756   0.246   0.464  0.2492 -0.0230  0.2590
  970SOL    HW1 2909   2.668   0.225   0.416 -1.4252  1.5900  0.2488
  970SOL    HW2 2910   2.832   0.177   0.451 -0.5362  0.1227 -0.1082
  971SOL     OW 2911   1.873   2.343   0.927  0.3823  0.7126 -0.4427
  971SOL    HW1 2912   1.798   2.412   0.914 -0.1378 -0.4447  0.4373
  971SOL    HW2 2913   1.917   2.352   1.020 -0.4136 -1.9808 -1.8068
  972SOL     OW 2914   0.227   2.389   3.113 -0.6819  0.4906 -0.0232
  972SOL    HW1 2915   0.153   2.405   3.181  0.8413 -3.0214  0.5807
  972SOL    HW2 2916   0.302   2.329   3.151 -1.7504  3.4264 -0.5274
  973SOL     OW 2917   0.603   0.625   0.518 -0.6522 -0.2482  0.3566
  973SOL    HW1 2918   0.538   0.684   0.464  0.2815  0.0349 -0.7136
  973SOL    HW2 2919   0.631   0.539   0.467  0.8021 -0.6884  1.4720
  974SOL     OW 2920   3.255   0.755   2.014 -0.1791  0.1383 -0.4576
  974SOL    HW1 2921   3.288   0.690   1.942  1.5900  0.0590  0.5474
  974SOL    HW2 2922   3.152   0.771   2.010  1.5997  3.2882 -2.5789
  975SOL     OW 2923   0.366   3.613   0.958  0.0016 -0.2206 -0.0409
  975SOL    HW1 2924   0.329   3.537   0.899  2.1090 -0.4338 -2.0321
  975SOL    HW2 2925   0.426   3.675   0.902  0.2271  1.4955 -2.6498
  976SOL     OW 2926   0.896   1.866   1.708 -0.5309  0.3811  0.0277
  976SOL    HW1 2927   0.817   1.801   1.692  0.1721  0.0251  0.8582
  976SOL    HW2 2928   0.868   1.966   1.709  0.1534 -0.1723 -1.0275
  977SOL     OW 2929   1.533   2.384   0.651 -0.2747 -0.3145  0.1571
  977SOL    HW1 2930   1.565   2.433   0.566 -0.4401  1.5391  0.8253
  977SOL    HW2 2931   1.536   2.281   0.641  3.6615 -0.9440 -0.0480
  978SOL     OW 2932   0.093   1.341   0.045  0.4283 -0.2986 -0.3542
  978SOL    HW1 2933   0.072   1.350  -0.056  2.8966 -2.7433 -0.5509
  978SOL    HW2 2934   0.191   1.314   0.065  0.6644 -2.6293 -0.4940
  979SOL     OW 2935   2.314   1.354   0.310  0.1478  0.5134 -0.0204
  979SOL    HW1 2936   2.276   1.264   0.277 -0.6432 -1.6066 -1.0175
  979SOL    HW2 2937   2.353   1.342   0.407 -2.4919 -2.6413  0.2793
  980SOL     OW 2938   0.903   1.971   2.200 -0.1277 -0.6111  0.4397
  980SOL    HW1 2939   0.863   1.908   2.128 -2.0952  1.2484 -1.3036
  980SOL    HW2 2940   0.853   1.951   2.290  2.2940  1.0346  0.3840
  981SOL     OW 2941   2.600   1.655   2.707  0.1253  0.0828  0.5349
  981SOL    HW1 2942   2.679   1.661   2.774 -2.1322 -0.6258 -0.9931
  981SOL    HW2 2943   2.593   1.554   2.681 -1.7225  0.7337 -0.1311
  982SOL     OW 2944   0.478   2.571   2.017  0.3087 -0.4074 -0.4175
  982SOL    HW1 2945   0.477   2.673   1.999 -1.5673  1.0969  0.9157
  982SOL    HW2 2946   0.478   2.557   2.119 -0.5473 -1.6696  0.6629
  983SOL     OW 2947   1.811   3.215   2.392 -0.2534 -0.0876 -0.2531
  983SOL    HW1 2948   1.792   3.305   2.347  0.8515 -1.4650 -3.5908
  983SOL    HW2 2949   1.797   3.138   2.325  1.2590  1.7369  0.2992
  984SOL     OW 2950   3.608   0.199   3.310  0.7064  0.0002  0.3071
  984SOL    HW1 2951   3.580   0.265   3.383  1.4518  2.2850  2.2761
  984SOL    HW2 2952   3.580   0.104   3.337 -0.1100 -0.4509 -1.4146
  985SOL     OW 2953   1.746   1.599   2.126  0.2606 -0.3359 -0.2097
  985SOL    HW1 2954   1.799   1.607   2.037 -2.6999 -0.2728  1.5205
  985SOL    HW2 2955   1.674   1.526   2.126 -0.1799 -0.0817 -0.7149
  986SOL     OW 2956   2.055   0.531   0.011  0.3826 -0.5065  0.2296
  986SOL    HW1 2957   2.146   0.581   0.020 -0.1725  0.1406  1.7280
  986SOL    HW2 2958   1.982   0.585  -0.038 -2.6642 -0.0369  0.9789
  987SOL     OW 2959   0.296   2.670   2.944 -0.2864 -0.1319  0.2132
  987SOL    HW1 2960   0.383   2.714   2.980  1.2373 -0.0376  1.0327
  987SOL    HW2 2961   0.282   2.580   2.992 -1.9279 -2.0183  1.0708
  988SOL     OW 2962   3.355   0.301   1.846 -0.3421  0.1880 -0.3813
  988SOL    HW1 2963   3.443   0.253   1.819 -0.4158  0.2569  1.2081
  988SOL    HW2 2964   3.278   0.277   1.784  1.4252  1.4697 -1.4528
  989SOL     OW 2965   2.429   3.624   1.178 -0.1881 -0.2809  0.1121
  989SOL    HW1 2966   2.438   3.546   1.110 -2.4971  0.8258  1.3403
  989SOL    HW2 2967   2.488   3.702   1.141  1.6274 -0.9054  1.8798
  990SOL     OW 2968   3.283   1.009   0.231 -0.2865 -0.0686  0.3792
  990SOL    HW1 2969   3.298   1.074   0.153  1.4673 -0.9349  0.5216
  990SOL    HW2 2970   3.303   0.912   0.202 -1.2627 -2.1423 -0.8031
  991SOL     OW 2971   0.336   1.218   0.735 -0.2117 -0.2408  0.4290
  991SOL    HW1 2972   0.264   1.292   0.730  0.5424 -1.4576  2.8072
  991SOL    HW2 2973   0.390   1.227   0.822  0.9974  2.1457  1.0200
  992SOL     OW 2974   2.110   1.890   1.788  0.5663 -0.2545  0.4919
  992SOL    HW1 2975   2.079   1.980   1.746  0.4216  0.4279 -0.7433
  992SOL    HW2 2976   2.139   1.906   1.886  0.5772 -1.4392  0.7652
  993SOL     OW 2977   3.472   2.836   1.137 -0.2603 -0.3813 -0.6735
  993SOL    HW1 2978   3.511   2.768   1.205  0.4275  0.1189  2.2211
  993SOL    HW2 2979   3.406   2.790   1.073 -1.0537  0.2891  1.5240
  994SOL     OW 2980   3.611   2.162   1.511 -0.0877  0.2997 -0.6212
  994SOL    HW1 2981   3.509   2.181   1.515 -2.3926  0.8798 -0.2143
  994SOL    HW2 2982   3.651   2.169   1.607  0.9822  0.5192 -0.9581
  995SOL     OW 2983   2.433   1.418   3.318  0.0276 -0.4670  0.7512
  995SOL    HW1 2984   2.383   1.339   3.362 -0.6422 -0.5202  2.6316
  995SOL    HW2 2985   2.406   1.509   3.357  2.9281 -1.2727 -1.0938
  996SOL     OW 2986   2.150   2.833   0.634  0.0624 -0.4174  0.4531
  996SOL    HW1 2987   2.127   2.819   0.535 -1.1150 -1.5418 -1.4042
  996SOL    HW2 2988   2.209   2.759   0.674 -1.2729 -0.4816  0.4281
  997SOL     OW 2989   1.715   1.853   2.259  0.4541 -0.2087 -0.3700
  997SOL    HW1 2990   1.647   1.908   2.205 -2.2142  0.0399  0.8102
  997SOL    HW2 2991   1.729   1.761   2.215 -0.5097 -3.1922  0.9064
  998SOL     OW 2992   3.583   3.036   0.589  0.4904  1.1723  0.0247
  998SOL    HW1 2993   3.604   2.940   0.617 -3.4414  1.8671 -1.2852
  998SOL    HW2 2994   3.580   3.100   0.671  1.3833 -1.4374  2.1051
  999SOL     OW 2995   0.723   3.561   0.096  0.0078  0.3674 -0.2672
  999SOL    HW1 2996   0.692   3.476   0.050 -0.6894 -4.8378 -0.0535
  999SOL    HW2 2997   0.723   3.644   0.034  0.6418 -1.7187 -0.6658
 1000SOL     OW 2998   1.045   0.256   0.089  0.1527  0.3110 -0.2742
 1000SOL    HW1 2999   1.138   0.300   0.082 -0.3076  0.5316 -0.3051
 1000SOL    HW2 3000   1.002   0.265  -0.004 -1.9248  1.4435 -1.4683
   3.63593   3.63593   3.63593
