1000 SPC/Fw water molecules
 3000
    1SOL     OW    1   1.318   2.855   0.237  0.0680 -0.0291 -0.3764
    1SOL    HW1    2   1.272   2.947   0.235 -0.4159 -0.8380  2.2998
    1SOL    HW2    3   1.278   2.805   0.318 -0.8987 -1.1563 -2.7296
    2SOL     OW    4   1.514   0.739   1.517 -0.0378 -0.6845  0.1349
    2SOL    HW1    5   1.599   0.712   1.465  0.0728 -0.8997  1.8379
    2SOL    HW2    6   1.526   0.826   1.568 -0.6828  1.0397  0.8012
    3SOL     OW    7   0.667   0.097   2.391 -0.7186  0.1103 -0.0458
    3SOL    HW1    8   0.675   0.194   2.421 -1.3469 -1.4893  1.2647
    3SOL    HW2    9   0.610   0.044   2.459  0.5008  1.4999  1.4050
    4SOL     OW   10   1.589   1.673   2.991 -0.4812 -0.0827 -0.3584
    4SOL    HW1   11   1.623   1.763   2.952 -1.1386 -2.7317 -2.8088
    4SOL    HW2   12   1.553   1.691   3.086  1.9805 -2.6064 -2.7000
    5SOL     OW   13   0.798   1.264   2.028 -0.4527 -0.2900 -0.4617
    5SOL    HW1   14   0.806   1.162   2.024  1.1049 -0.8439  2.0692
    5SOL    HW2   15   0.892   1.303   2.022  0.6404  3.8241 -3.0886
    6SOL     OW   16   2.381   0.969   2.256 -0.5279  0.4348 -0.1746
    6SOL    HW1   17   2.443   0.926   2.325  4.0082 -0.0514  2.5970
    6SOL    HW2   18   2.348   0.896   2.192 -0.5240  0.0615 -0.7519
    7SOL     OW   19   0.018   0.872   1.319  0.3284  0.1653  0.0221
    7SOL    HW1   20  -0.045   0.953   1.321 -2.9885  0.9719  1.0807
    7SOL    HW2   21   0.114   0.896   1.295 -0.7342  0.4713 -2.1789
    8SOL     OW   22   2.248   2.531   1.967  0.4893  0.5255  0.6504
    8SOL    HW1   23   2.236   2.555   1.868 -0.0080 -0.0349  3.0910
    8SOL    HW2   24   2.266   2.617   2.020  4.8056  0.8441  1.3169
    9SOL     OW   25   0.102   2.657   0.291  0.1148  0.0144 -0.0503
    9SOL    HW1   26   0.040   2.613   0.360  2.0235 -0.6592  2.4540
    9SOL    HW2   27   0.187   2.600   0.280 -1.6628 -1.2108  1.8930
   10SOL     OW   28   0.073   2.454   2.474  0.2495  0.4700  0.2723
   10SOL    HW1   29   0.126   2.538   2.452 -0.4922  3.3367  1.1843
   10SOL    HW2   30   0.134   2.372   2.462 -0.5344  0.0801  0.1913
   11SOL     OW   31   0.193   1.803   0.113 -0.3985 -0.5829  0.0092
   11SOL    HW1   32   0.264   1.730   0.115  1.7126  0.0988  3.0811
   11SOL    HW2   33   0.157   1.817   0.208 -1.7335  1.3206 -3.5206
   12SOL     OW   34   2.322   2.948   0.455  0.3032  0.0474 -0.7425
   12SOL    HW1   35   2.400   3.010   0.430  2.1261  0.5257  1.1441
   12SOL    HW2   36   2.304   2.891   0.371  2.8909  1.6184 -0.3856
   13SOL     OW   37   0.226   0.450   2.589 -0.4077 -0.1212  0.3102
   13SOL    HW1   38   0.154   0.378   2.581  1.8200  1.1224  1.3030
   13SOL    HW2   39   0.181   0.542   2.581  0.0097  0.9549  1.2066
   14SOL     OW   40   1.297   0.700   1.356 -0.7001 -0.3607  0.6587
   14SOL    HW1   41   1.382   0.702   1.414  3.1766 -0.4124 -1.5921
   14SOL    HW2   42   1.326   0.685   1.259  3.1556 -2.1784  0.4999
   15SOL     OW   43   0.648   1.393   2.212  0.0230 -0.3415  0.3141
   15SOL    HW1   44   0.591   1.460   2.159 -0.1948  0.6677  1.3250
   15SOL    HW2   45   0.708   1.344   2.146 -0.3549  0.3313  0.8978
   16SOL     OW   46   1.802   0.846   2.739  0.3308 -0.2769  0.4346
   16SOL    HW1   47   1.700   0.853   2.747  2.2088  1.1089 -1.8594
   16SOL    HW2   48   1.827   0.843   2.640  0.4043 -0.7046 -0.5797
   17SOL     OW   49   0.135   2.420   2.067 -0.3835 -0.5620  0.4995
   17SOL    HW1   50   0.093   2.500   2.114  0.3939  1.2904 -0.0055
   17SOL    HW2   51   0.063   2.369   2.014  1.6877  0.3125 -0.8330
   18SOL     OW   52   1.464   1.193   0.800 -0.0032 -0.8069 -0.9083
   18SOL    HW1   53   1.494   1.095   0.796  1.0852 -1.7363 -3.5684
   18SOL    HW2   54   1.366   1.205   0.774  1.1559  1.3112 -0.4173
   19SOL     OW   55   0.141   1.059   1.734  0.3720 -0.6676 -0.0092
   19SOL    HW1   56   0.218   1.109   1.689 -0.8562 -0.9885 -3.0324
   19SOL    HW2   57   0.182   1.003   1.808  0.8595 -0.3377 -0.3279
   20SOL     OW   58   1.796   2.047   2.638 -0.0255  0.7204 -0.3565
   20SOL    HW1   59   1.757   2.137   2.606 -0.5579  1.2867 -0.2255
   20SOL    HW2   60   1.843   2.054   2.728 -2.6851 -0.0803  0.7685
   21SOL     OW   61   1.664   1.650   1.025 -0.0155 -0.3415  0.4721
   21SOL    HW1   62   1.739   1.708   1.065 -1.3624 -1.4615  1.0332
   21SOL    HW2   63   1.681   1.551   1.041 -2.2754  0.1700  1.1169
   22SOL     OW   64   1.932   2.262   1.413 -0.5962 -0.6614  0.1805
   22SOL    HW1   65   1.845   2.226   1.452 -1.4713  0.3675 -0.7326
   22SOL    HW2   66   1.912   2.310   1.324 -0.3064 -0.5244  0.7321
   23SOL     OW   67   2.668   1.083   1.324 -0.1982 -0.1555 -0.1865
   23SOL    HW1   68   2.669   0.985   1.354  0.7196  0.1693  0.9726
   23SOL    HW2   69   2.625   1.092   1.232  0.8345  1.3813  0.2036
   24SOL     OW   70   1.979   1.391   1.719  0.0229 -0.2768  0.4139
   24SOL    HW1   71   1.934   1.480   1.741  4.2304  1.5971 -0.0645
   24SOL    HW2   72   2.054   1.379   1.788 -1.4234  2.4323  0.0543
   25SOL     OW   73   1.733   2.897   2.536  0.5189  0.1864  0.4596
   25SOL    HW1   74   1.802   2.970   2.555  1.8451 -0.7600  2.7981
   25SOL    HW2   75   1.675   2.925   2.458  0.5700  0.6826  1.2903
   26SOL     OW   76   0.371   2.647   0.637  0.0471 -0.8890  0.0245
   26SOL    HW1   77   0.462   2.678   0.672 -0.2140  2.6577 -0.9223
   26SOL    HW2   78   0.383   2.567   0.575 -4.5487 -2.2464  0.2420
   27SOL     OW   79   1.199   1.226   0.742 -0.5869 -0.3492  0.4257
   27SOL    HW1   80   1.189   1.185   0.837  0.4659 -2.1670  0.3198
   27SOL    HW2   81   1.111   1.273   0.719 -1.5463  0.9458 -0.3450
   28SOL     OW   82   1.891   2.406   1.180  0.3159 -0.2864 -0.0870
   28SOL    HW1   83   1.971   2.414   1.117  3.6098 -2.5861 -0.9810
   28SOL    HW2   84   1.804   2.388   1.131  0.3191 -1.7453  0.8156
   29SOL     OW   85   2.124   2.756   2.328 -0.1789  0.7650  0.1067
   29SOL    HW1   86   2.218   2.753   2.371  1.5322  1.6164 -0.4329
   29SOL    HW2   87   2.060   2.710   2.392 -1.5893 -0.9921  0.4507
   30SOL     OW   88   0.110   2.737   1.846  0.0232  0.1620 -0.7350
   30SOL    HW1   89   0.016   2.701   1.866 -1.2601  2.3634 -1.7410
   30SOL    HW2   90   0.129   2.806   1.919  1.1738 -0.9713  0.7591
   31SOL     OW   91   2.949   1.757   2.320  0.1827  0.1639  0.3301
   31SOL    HW1   92   3.005   1.818   2.381  0.4669  1.3261 -0.8371
   31SOL    HW2   93   3.000   1.719   2.241  0.7237  1.3210  1.5556
   32SOL     OW   94   1.017   2.427   2.212  0.3666 -0.0409 -0.8340
   32SOL    HW1   95   0.943   2.419   2.283 -0.3439 -1.0783 -0.7423
   32SOL    HW2   96   1.106   2.407   2.256  3.3004  0.1232  1.6688
   33SOL     OW   97   0.022   0.505   0.039 -0.7654 -0.3023  0.1509
   33SOL    HW1   98   0.030   0.604   0.012 -0.6656  3.3817 -0.9583
   33SOL    HW2   99   0.105   0.456   0.003  0.2811  1.9113  0.1820
   34SOL     OW  100   2.741   0.156   0.073 -0.1158 -0.1875  0.6400
   34SOL    HW1  101   2.806   0.097   0.125  2.0337 -0.9865 -1.2880
   34SOL    HW2  102   2.660   0.102   0.043 -2.5130 -1.2658 -1.1861
   35SOL     OW  103   2.853   2.716   1.644  0.1430  0.3173 -0.3690
   35SOL    HW1  104   2.883   2.685   1.736  2.3104 -0.7131 -0.0282
   35SOL    HW2  105   2.901   2.804   1.622  1.2818  1.1918  0.2108
   36SOL     OW  106   2.280   3.038   2.624  0.3105 -0.0724 -0.2490
   36SOL    HW1  107   2.195   2.988   2.648 -2.7826 -0.8203 -0.6085
   36SOL    HW2  108   2.354   2.967   2.626  4.5128 -0.3074 -1.3607
   37SOL     OW  109   1.775   2.524   0.082 -0.4982  0.1019  0.2624
   37SOL    HW1  110   1.765   2.516  -0.020 -1.8340 -1.5880 -2.7476
   37SOL    HW2  111   1.703   2.586   0.120 -1.5680 -1.9950  0.3771
   38SOL     OW  112   0.466   0.144   0.684  0.2255  0.0331 -0.0988
   38SOL    HW1  113   0.437   0.234   0.644 -0.6368 -0.2806 -0.0957
   38SOL    HW2  114   0.509   0.089   0.610 -1.0255 -0.0026  0.0980
   39SOL     OW  115   1.114   1.828   2.143 -0.0721 -0.0086  0.0225
   39SOL    HW1  116   1.033   1.837   2.205 -0.2911 -1.2310  1.3115
   39SOL    HW2  117   1.162   1.917   2.128 -3.2941  0.2928 -0.8197
   40SOL     OW  118   3.052   0.965   0.189  0.1061 -0.0858  0.5886
   40SOL    HW1  119   2.965   1.005   0.223  0.8674 -3.5121  0.1962
   40SOL    HW2  120   3.094   1.028   0.118  1.0788  1.1618  0.7564
   41SOL     OW  121   1.618   0.035   2.083 -0.1326  0.0677 -0.1334
   41SOL    HW1  122   1.540   0.092   2.120 -3.2009  0.6316  0.1320
   41SOL    HW2  123   1.582  -0.027   2.011  4.7275  0.1753  2.0957
   42SOL     OW  124   2.424   0.125   1.083 -0.3899  0.1131 -0.9272
   42SOL    HW1  125   2.519   0.130   1.046 -1.7080 -1.5812  2.3246
   42SOL    HW2  126   2.414   0.039   1.137 -0.0589 -0.3980 -1.8614
   43SOL     OW  127   1.546   0.251   1.175  0.2867  0.3033  0.0022
   43SOL    HW1  128   1.577   0.217   1.266 -1.8121  0.3687  0.3445
   43SOL    HW2  129   1.560   0.179   1.104 -0.5831  1.6421 -0.6222
   44SOL     OW  130   0.288   0.874   3.012 -0.9865 -0.1432  0.2569
   44SOL    HW1  131   0.376   0.826   2.993  0.3726 -0.1256  0.6875
   44SOL    HW2  132   0.298   0.940   3.090 -1.0842  2.1133 -1.1742
   45SOL     OW  133   0.627   1.518   1.708  0.1717  0.0098  0.3652
   45SOL    HW1  134   0.677   1.521   1.618  0.6722 -1.4021  1.0846
   45SOL    HW2  135   0.621   1.421   1.743 -0.6159  2.4491  1.8247
   46SOL     OW  136   2.249   2.237   1.701  0.0945  0.3511  0.2724
   46SOL    HW1  137   2.217   2.140   1.698 -0.7944  0.0306  0.9422
   46SOL    HW2  138   2.345   2.247   1.733 -0.1113  1.7325  0.6458
   47SOL     OW  139   0.354   1.807   1.430 -0.0935  0.1361  0.6892
   47SOL    HW1  140   0.369   1.835   1.333 -1.5767  0.0304 -1.2938
   47SOL    HW2  141   0.308   1.881   1.484  0.3299 -0.1525 -1.0474
   48SOL     OW  142   1.072   2.777   2.670 -0.1902 -0.4897  0.4331
   48SOL    HW1  143   1.044   2.697   2.613 -2.2373  0.2162 -1.0734
   48SOL    HW2  144   0.988   2.821   2.707  1.0599 -2.0976  0.1263
   49SOL     OW  145   2.694   1.604   1.883 -0.0004  0.5155 -0.4289
   49SOL    HW1  146   2.654   1.642   1.797  0.4694  0.7634 -0.5995
   49SOL    HW2  147   2.655   1.514   1.905  2.0140 -1.7548 -0.5717
   50SOL     OW  148   0.893   2.870   0.372 -0.2474 -0.2788  0.6592
   50SOL    HW1  149   0.955   2.887   0.451 -2.0147  2.7865  0.0571
   50SOL    HW2  150   0.865   2.962   0.338 -0.5160  1.8375  0.4447
   51SOL     OW  151   1.143   0.187   0.862 -0.0437  0.0973  0.3199
   51SOL    HW1  152   1.191   0.207   0.774  2.2477  0.4377  0.4157
   51SOL    HW2  153   1.187   0.106   0.907 -1.5794  0.1945  0.4492
   52SOL     OW  154   0.146   0.807   0.632 -0.0329 -0.3066 -0.2156
   52SOL    HW1  155   0.095   0.801   0.543 -0.8867  0.8009  0.9274
   52SOL    HW2  156   0.208   0.889   0.628  0.8837 -0.2575  1.6389
   53SOL     OW  157   0.999   0.166   2.788 -0.0423 -0.3186  0.1099
   53SOL    HW1  158   1.067   0.112   2.842  0.1068  1.7652  2.7014
   53SOL    HW2  159   0.956   0.106   2.716  0.4426  1.1577  2.5601
   54SOL     OW  160   2.097   0.469   2.159  0.2527  0.0177  0.4053
   54SOL    HW1  161   2.134   0.437   2.247 -0.4575 -0.4737  0.2003
   54SOL    HW2  162   2.066   0.386   2.105 -0.2928 -0.9291 -2.5790
   55SOL     OW  163   2.529   0.024   0.336 -0.0841 -0.3991 -0.1847
   55SOL    HW1  164   2.602  -0.013   0.398  0.2320 -0.3377 -0.0985
   55SOL    HW2  165   2.553  -0.001   0.240 -2.9500 -2.2656 -0.0547
   56SOL     OW  166   0.821   0.362   2.186 -0.1366 -0.3365 -0.1300
   56SOL    HW1  167   0.742   0.349   2.122  2.6013 -0.2127  1.1597
   56SOL    HW2  168   0.857   0.269   2.211  0.6938  2.5882  1.3165
   57SOL     OW  169   1.725   0.977   2.275  0.0922 -0.0865 -0.5583
   57SOL    HW1  170   1.689   1.073   2.283  2.3243 -0.7576 -2.1694
   57SOL    HW2  171   1.774   0.970   2.186 -1.6960  2.4945  0.4207
   58SOL     OW  172   0.217   0.888   1.946 -0.0855  0.2798 -0.5434
   58SOL    HW1  173   0.271   0.962   1.992  1.1905  0.6606 -1.0522
   58SOL    HW2  174   0.196   0.819   2.019 -1.8392 -2.6162 -1.3621
   59SOL     OW  175   0.843   2.682   1.900 -0.0605  0.2338 -0.5470
   59SOL    HW1  176   0.753   2.646   1.930 -1.6808 -1.1594  1.5855
   59SOL    HW2  177   0.906   2.677   1.981  1.1677 -1.9213  1.0105
   60SOL     OW  178   2.146   2.599   0.325  0.4180 -0.4975  0.1901
   60SOL    HW1  179   2.066   2.619   0.385  0.5195  0.1465  2.6714
   60SOL    HW2  180   2.148   2.500   0.295 -1.9240  0.2970  0.1964
   61SOL     OW  181   1.449   2.616   0.383  0.6516  0.6075  0.2047
   61SOL    HW1  182   1.356   2.645   0.414  0.7277  1.1200  1.4348
   61SOL    HW2  183   1.466   2.517   0.405  0.8789 -0.4136 -2.7742
   62SOL     OW  184   2.197   2.584   2.955  0.1113 -1.0881 -0.3498
   62SOL    HW1  185   2.224   2.488   2.978 -0.7769  0.3898 -0.4188
   62SOL    HW2  186   2.127   2.617   3.023 -0.0383 -1.1731 -0.2379
   63SOL     OW  187   2.614   0.928   0.598  0.5645  0.1301  0.1650
   63SOL    HW1  188   2.579   0.893   0.508 -1.2211 -0.7449  2.4820
   63SOL    HW2  189   2.714   0.911   0.609 -2.2387 -0.7017  0.4351
   64SOL     OW  190   1.585   1.033   0.057  0.3192 -0.4270  0.5987
   64SOL    HW1  191   1.598   1.129   0.089  1.1311 -1.0759  0.4871
   64SOL    HW2  192   1.485   1.012   0.062  0.5999 -1.1709 -0.6326
   65SOL     OW  193   0.420   2.426   1.687  0.1130 -0.3625 -0.2144
   65SOL    HW1  194   0.399   2.490   1.610  2.5201  0.2826 -1.0235
   65SOL    HW2  195   0.373   2.466   1.768 -1.2256 -1.5896 -1.1363
   66SOL     OW  196   1.003   1.279   1.277  0.1908  0.0497  0.8359
   66SOL    HW1  197   1.023   1.179   1.268 -0.1302 -2.2403 -0.8580
   66SOL    HW2  198   1.011   1.324   1.186 -1.8121  1.5272 -1.3530
   67SOL     OW  199   2.485   1.856   1.925  0.0522  0.5995 -0.1826
   67SOL    HW1  200   2.537   1.833   1.841 -2.4068  2.3227  1.0602
   67SOL    HW2  201   2.494   1.786   1.998  2.5725 -0.0813  1.7023
   68SOL     OW  202   1.201   1.693   1.756 -0.0480 -0.0229  0.0559
   68SOL    HW1  203   1.192   1.626   1.678  0.1813  1.5876 -0.7581
   68SOL    HW2  204   1.129   1.677   1.827  1.4694 -1.1317  0.9082
   69SOL     OW  205   2.633   0.403   0.091  0.2753  0.4587 -0.1666
   69SOL    HW1  206   2.539   0.402   0.054 -0.3645  0.2768  0.1090
   69SOL    HW2  207   2.673   0.308   0.091 -1.8168  1.6433  0.9428
   70SOL     OW  208   2.167   1.133   2.247  0.2532 -0.3011  0.4032
   70SOL    HW1  209   2.249   1.071   2.251 -2.8093  1.4595  0.0029
   70SOL    HW2  210   2.113   1.116   2.333  3.7739 -3.2370  2.2030
   71SOL     OW  211   1.035   2.083   0.662  0.1189  0.3564  0.6683
   71SOL    HW1  212   1.104   2.050   0.596 -1.1076 -0.2349 -0.4414
   71SOL    HW2  213   1.081   2.150   0.725 -0.3176  0.6753  0.2166
   72SOL     OW  214   2.235   1.746   0.630 -0.4025 -0.2874  0.1812
   72SOL    HW1  215   2.303   1.823   0.626  1.1376  1.5468  0.3884
   72SOL    HW2  216   2.163   1.766   0.698  0.7162 -2.6869 -1.6591
   73SOL     OW  217   1.067   0.895   0.530 -0.3336 -0.6799  0.2539
   73SOL    HW1  218   0.994   0.950   0.577  2.1286 -0.5675 -1.2522
   73SOL    HW2  219   1.026   0.828   0.466  1.3451  2.4308 -0.4200
   74SOL     OW  220   2.646   2.124   2.171 -0.8012 -0.4761  0.6114
   74SOL    HW1  221   2.658   2.026   2.197 -1.0740  2.3568  0.9649
   74SOL    HW2  222   2.667   2.142   2.073 -1.9685  1.4947  1.7428
   75SOL     OW  223   1.666   1.642   1.948  0.3307  0.0836 -0.7596
   75SOL    HW1  224   1.568   1.613   1.937 -0.7437  0.6915  1.4666
   75SOL    HW2  225   1.707   1.591   2.026  0.6095 -0.3267  5.0855
   76SOL     OW  226   1.241   1.565   1.106  0.1961 -0.2015 -0.7030
   76SOL    HW1  227   1.177   1.535   1.032  0.9535 -1.1975 -0.4777
   76SOL    HW2  228   1.304   1.636   1.066 -0.2904 -0.2536 -4.0349
   77SOL     OW  229   2.379   0.896   1.735  0.0731  0.3130 -0.5199
   77SOL    HW1  230   2.289   0.918   1.779  0.9613  1.1453 -0.4347
   77SOL    HW2  231   2.394   0.795   1.724 -1.3683  2.1801  0.5024
   78SOL     OW  232   1.647   0.633   0.308 -0.1357 -0.6709 -0.1096
   78SOL    HW1  233   1.654   0.686   0.221  0.9061  0.9733 -1.0405
   78SOL    HW2  234   1.558   0.654   0.353  1.8982 -2.3102 -2.1174
   79SOL     OW  235   1.013   1.657   1.951 -1.3513 -0.0971  0.6045
   79SOL    HW1  236   1.045   1.724   2.022  2.1151 -1.1914 -1.2629
   79SOL    HW2  237   0.912   1.661   1.936  1.2687  0.8375 -2.7579
   80SOL     OW  238   0.987   0.354   1.442  0.2614  0.0712  0.1142
   80SOL    HW1  239   1.007   0.454   1.432 -1.3970  0.7393 -1.2722
   80SOL    HW2  240   1.002   0.330   1.540  0.2006  1.0474 -1.1819
   81SOL     OW  241   0.305   2.491   0.231  0.5408 -0.0576 -0.1618
   81SOL    HW1  242   0.381   2.503   0.165 -1.9943 -0.7654 -1.3944
   81SOL    HW2  243   0.349   2.471   0.322 -0.0266  0.0660  0.4849
   82SOL     OW  244   1.060   0.249   1.706 -0.2364  0.2671  0.4104
   82SOL    HW1  245   1.060   0.275   1.806  1.5260  0.6541 -1.7482
   82SOL    HW2  246   1.156   0.257   1.670  1.6658  1.4311  0.1774
   83SOL     OW  247   0.421   2.241   0.988 -0.3221  0.3254 -0.0571
   83SOL    HW1  248   0.345   2.308   0.975 -0.2159  1.0768  1.3901
   83SOL    HW2  249   0.383   2.145   0.985  4.6190 -3.7513  1.9124
   84SOL     OW  250   2.519   1.248   0.935  0.2995 -0.1246 -0.1680
   84SOL    HW1  251   2.524   1.168   0.998 -0.1794  0.9797  2.0663
   84SOL    HW2  252   2.575   1.229   0.851  0.4586  0.4519 -0.3647
   85SOL     OW  253   2.225   1.901   1.141  0.5765  0.7141  0.2716
   85SOL    HW1  254   2.163   1.862   1.212 -1.5055 -0.1438 -0.0940
   85SOL    HW2  255   2.290   1.826   1.117  0.2216  0.0761  1.9787
   86SOL     OW  256   1.224   2.085   2.150  0.0809  0.1558  0.5123
   86SOL    HW1  257   1.154   2.142   2.101  0.2018  0.7844  0.1990
   86SOL    HW2  258   1.312   2.075   2.098 -0.1295  0.4462 -2.1114
   87SOL     OW  259   2.265   1.292   0.862  0.1228  1.3135 -0.0815
   87SOL    HW1  260   2.267   1.361   0.786 -2.3290  0.4385  0.5692
   87SOL    HW2  261   2.361   1.271   0.892  0.2468  0.2147  0.0022
   88SOL     OW  262   0.485   2.885   0.979  0.6250 -0.0671 -0.8020
   88SOL    HW1  263   0.421   2.948   0.929  1.8756  1.4779  2.3819
   88SOL    HW2  264   0.520   2.931   1.064 -0.8686 -0.8606 -0.2434
   89SOL     OW  265   0.537   1.140   1.477 -0.2800 -0.1576  0.2806
   89SOL    HW1  266   0.626   1.129   1.525 -0.7305  1.8802  1.6307
   89SOL    HW2  267   0.523   1.061   1.413 -2.1576  0.2316 -0.2207
   90SOL     OW  268   2.665   1.775   0.372  0.6373 -0.1426  0.1428
   90SOL    HW1  269   2.645   1.866   0.414 -1.7179  1.2665 -0.6347
   90SOL    HW2  270   2.766   1.767   0.354 -0.4381  2.0446  1.3125
   91SOL     OW  271   0.748   1.918   0.940  0.0433 -0.0057  0.3907
   91SOL    HW1  272   0.721   2.013   0.967 -1.6056 -0.0396  0.8142
   91SOL    HW2  273   0.713   1.852   1.010  0.0532 -1.0686 -2.3899
   92SOL     OW  274   2.098   2.965   1.920 -0.4953  0.2333  0.9124
   92SOL    HW1  275   2.190   2.997   1.951  1.5128  0.9529  1.0320
   92SOL    HW2  276   2.047   2.911   1.990 -2.4045  0.4900  1.9034
   93SOL     OW  277   0.621   1.925   2.779 -0.3470 -0.0065  0.2568
   93SOL    HW1  278   0.632   1.920   2.880 -0.2191 -0.8058  0.0526
   93SOL    HW2  279   0.526   1.893   2.756  1.8219 -0.1134  0.1611
   94SOL     OW  280   2.354   3.016   2.031 -0.2473 -0.6714 -0.0127
   94SOL    HW1  281   2.348   3.094   2.098  1.8677 -1.3091  0.9178
   94SOL    HW2  282   2.399   3.048   1.944 -0.2931  1.1264  1.0423
   95SOL     OW  283   1.895   0.028   1.785  0.4321 -0.4048 -0.0609
   95SOL    HW1  284   1.923   0.125   1.764  4.4667 -0.1587 -2.1905
   95SOL    HW2  285   1.964  -0.025   1.837  0.2582 -0.4863 -1.6145
   96SOL     OW  286   0.695   0.761   2.140 -0.2768 -0.0788 -0.6128
   96SOL    HW1  287   0.642   0.779   2.226 -1.3985  1.0843  1.5035
   96SOL    HW2  288   0.720   0.850   2.096  3.9635  3.1224 -1.2972
   97SOL     OW  289   1.976   2.896   1.476 -0.3668  0.3537 -0.3608
   97SOL    HW1  290   1.887   2.939   1.502 -0.3819  3.0418  0.9626
   97SOL    HW2  291   1.961   2.804   1.432 -1.6994  2.3919  4.1622
   98SOL     OW  292   1.715   2.182   1.560 -0.5869 -1.1119  0.2131
   98SOL    HW1  293   1.744   2.227   1.647 -0.6399 -3.0380 -1.8473
   98SOL    HW2  294   1.684   2.087   1.582  0.5338 -0.9844  1.1840
   99SOL     OW  295   0.352   0.703   1.062 -0.4933  0.4699  0.3610
   99SOL    HW1  296   0.292   0.784   1.050 -0.9442 -0.9541  1.5263
   99SOL    HW2  297   0.410   0.696   0.978  0.3608  2.1763 -0.5451
  100SOL     OW  298   2.977   1.993   1.955  0.0810  0.1995  0.5508
  100SOL    HW1  299   2.927   1.904   1.963 -1.4002  0.4447 -1.3926
  100SOL    HW2  300   3.040   1.999   2.035 -0.6393 -0.4657 -0.7289
  101SOL     OW  301   1.107   0.362   0.006  0.0444 -0.2900  0.5300
  101SOL    HW1  302   1.192   0.310   0.030  1.2233  2.2137  1.8531
  101SOL    HW2  303   1.102   0.388  -0.092 -0.8487  2.6223 -0.7708
  102SOL     OW  304   2.808   0.108   1.220 -0.2469  0.5530 -0.9001
  102SOL    HW1  305   2.892   0.165   1.226  0.1248  1.1344 -0.1093
  102SOL    HW2  306   2.739   0.146   1.286 -3.1043  0.1419 -0.2910
  103SOL     OW  307   0.138   2.936   2.498 -0.0238  0.3856  0.4830
  103SOL    HW1  308   0.149   3.024   2.448  0.8278 -1.1134  0.9051
  103SOL    HW2  309   0.038   2.917   2.514  0.3976  0.2323  2.0141
  104SOL     OW  310   0.143   2.398   1.226 -0.6204  0.4472 -0.0520
  104SOL    HW1  311   0.067   2.454   1.268 -0.8083  1.2877  0.2253
  104SOL    HW2  312   0.233   2.444   1.244  0.5157  1.1270 -0.4902
  105SOL     OW  313   0.501   1.538   2.039  0.5509 -0.4560  0.0758
  105SOL    HW1  314   0.452   1.454   2.009 -1.0270  0.7277 -1.1606
  105SOL    HW2  315   0.440   1.618   2.018 -1.9879 -1.0348  2.8588
  106SOL     OW  316   2.599   2.724   0.529 -0.0024  0.0023  0.7746
  106SOL    HW1  317   2.587   2.710   0.630  0.5682 -0.8881  2.0338
  106SOL    HW2  318   2.627   2.821   0.516  1.1853  0.9458  2.8291
  107SOL     OW  319   0.672   1.117   0.945  0.3785 -0.3861 -0.8698
  107SOL    HW1  320   0.639   1.155   1.034 -1.1921 -1.1165  1.4537
  107SOL    HW2  321   0.767   1.081   0.958  0.0451 -1.7708 -1.7650
  108SOL     OW  322   2.935   1.127   2.147 -0.1189 -0.1851  0.4417
  108SOL    HW1  323   2.894   1.221   2.137 -1.7883  0.2637 -0.4337
  108SOL    HW2  324   3.034   1.128   2.169  0.9209  0.4281  1.6075
  109SOL     OW  325   2.021   2.643   0.083 -0.1641  0.1599  0.6585
  109SOL    HW1  326   1.927   2.604   0.077 -3.1619  0.3181  0.9479
  109SOL    HW2  327   2.063   2.627   0.174 -3.5407  1.7030 -0.3230
  110SOL     OW  328   0.229   2.159   0.037  0.7712 -0.6014  0.1168
  110SOL    HW1  329   0.176   2.084  -0.006  1.6018  1.1453 -2.4693
  110SOL    HW2  330   0.169   2.226   0.086 -0.2485  1.6327  1.7570
  111SOL     OW  331   2.683   1.022   2.686  0.0520  0.1374 -0.3371
  111SOL    HW1  332   2.660   1.045   2.590  2.9114  0.1213  1.0792
  111SOL    HW2  333   2.592   1.010   2.732 -1.4105 -0.1095 -0.6402
  112SOL     OW  334   2.228   2.594   1.705 -0.4484  0.0325  0.1022
  112SOL    HW1  335   2.201   2.692   1.690 -2.1245 -2.0259  3.0504
  112SOL    HW2  336   2.165   2.528   1.658 -0.8347  0.7642 -0.9537
  113SOL     OW  337   2.209   1.893   2.629  0.0774 -0.3700 -0.0502
  113SOL    HW1  338   2.225   1.794   2.651  0.6025  0.5920 -0.3154
  113SOL    HW2  339   2.253   1.909   2.537 -2.9669  2.1281  2.1377
  114SOL     OW  340   0.591   2.988   0.555 -0.4560  0.0755 -0.0368
  114SOL    HW1  341   0.584   2.903   0.610 -0.3841 -1.5258  0.9804
  114SOL    HW2  342   0.680   3.033   0.581 -0.1379  0.0861 -1.5213
  115SOL     OW  343   0.087   1.713   2.875  0.0436 -0.1499 -0.1311
  115SOL    HW1  344   0.065   1.803   2.915  0.4458 -3.1866 -1.9746
  115SOL    HW2  345   0.184   1.688   2.896 -3.3761 -0.5399 -0.1997
  116SOL     OW  346   2.850   1.323   1.659 -0.4678 -0.2258  0.6879
  116SOL    HW1  347   2.896   1.233   1.650 -1.2263 -1.1875 -0.1869
  116SOL    HW2  348   2.913   1.389   1.708  1.0190 -0.7482  2.0595
  117SOL     OW  349   2.078   0.187   1.483  0.0170  0.4482  0.3028
  117SOL    HW1  350   2.121   0.105   1.442 -0.9685 -0.5232  0.8938
  117SOL    HW2  351   1.991   0.211   1.433  0.5264  1.0967  0.9559
  118SOL     OW  352   2.782   2.204   2.394 -0.3427  0.4707 -0.0389
  118SOL    HW1  353   2.731   2.171   2.311 -1.7676  0.4115 -2.9950
  118SOL    HW2  354   2.834   2.288   2.371  0.1431 -0.2458 -1.0501
  119SOL     OW  355   0.379   1.636   1.696  0.2536 -0.1146  0.0224
  119SOL    HW1  356   0.375   1.700   1.618  2.2362  0.0825 -0.1407
  119SOL    HW2  357   0.475   1.598   1.701  0.9224 -3.4260 -0.1717
  120SOL     OW  358   0.223   1.415   1.735  0.2555 -0.4540  0.0795
  120SOL    HW1  359   0.246   1.342   1.666  1.7982 -0.5772 -0.5587
  120SOL    HW2  360   0.279   1.498   1.711  0.6954  1.8579 -1.3304
  121SOL     OW  361   1.528   0.934   0.770 -0.2625  0.3308  0.2279
  121SOL    HW1  362   1.448   0.882   0.737  1.1198  0.6949 -1.6124
  121SOL    HW2  363   1.611   0.906   0.716 -3.0381  0.9287 -1.6813
  122SOL     OW  364   2.436   2.335   2.686 -0.3057 -0.0213  0.7778
  122SOL    HW1  365   2.385   2.407   2.633 -2.0371  0.5637 -0.1722
  122SOL    HW2  366   2.369   2.260   2.698 -1.3387  0.0239 -0.7831
  123SOL     OW  367   3.027   0.409   0.481  0.1218  0.0030  0.3215
  123SOL    HW1  368   2.998   0.423   0.578 -0.8320 -1.1208 -3.2107
  123SOL    HW2  369   2.987   0.324   0.442  1.8157 -1.0646  3.2196
  124SOL     OW  370   1.630   1.287   0.143  0.1479 -0.3516  0.2727
  124SOL    HW1  371   1.677   1.284   0.234  0.8973  0.6674 -1.6256
  124SOL    HW2  372   1.687   1.345   0.081 -0.0663 -2.0021 -2.2166
  125SOL     OW  373   3.033   0.787   2.272  0.4645 -0.5479 -0.3292
  125SOL    HW1  374   3.086   0.849   2.334 -1.5606  3.7833 -0.2835
  125SOL    HW2  375   3.100   0.741   2.209  1.1455  1.9355 -2.9433
  126SOL     OW  376   2.755   2.801   0.196  0.3886  0.8928  0.0663
  126SOL    HW1  377   2.743   2.759   0.103 -4.6748 -2.9324  1.2265
  126SOL    HW2  378   2.758   2.726   0.265  0.7349 -0.9291 -2.0278
  127SOL     OW  379   2.726   1.827   3.028 -0.0807  0.2109  0.2690
  127SOL    HW1  380   2.640   1.864   3.069  1.2957 -0.8375 -0.3711
  127SOL    HW2  381   2.734   1.729   3.055 -0.3028 -2.3395  1.7209
  128SOL     OW  382   0.897   1.044   0.664  0.1956  0.4713  0.0498
  128SOL    HW1  383   0.798   1.057   0.642  0.7071  0.1369  0.2548
  128SOL    HW2  384   0.904   1.050   0.766 -2.2237 -1.6806  1.8661
  129SOL     OW  385   2.120   2.015   0.922  0.0587  0.0582 -0.3487
  129SOL    HW1  386   2.157   1.976   1.011  0.7839  0.1069  0.3220
  129SOL    HW2  387   2.051   2.086   0.943 -1.9483  0.0249 -1.0357
  130SOL     OW  388   1.880   0.862   0.229  0.7216 -0.1826  0.0073
  130SOL    HW1  389   1.971   0.830   0.195  1.8110  1.1092  0.6528
  130SOL    HW2  390   1.805   0.828   0.168 -1.2865  1.0003  1.5126
  131SOL     OW  391   0.039   1.666   2.612 -0.0462 -0.2133 -0.6030
  131SOL    HW1  392  -0.056   1.629   2.600  2.1917 -0.9888 -1.7509
  131SOL    HW2  393   0.061   1.678   2.712 -0.2174 -0.3384  1.1320
  132SOL     OW  394   1.266   1.176   1.782 -0.4326  0.3406  0.4686
  132SOL    HW1  395   1.246   1.078   1.761 -2.2095  1.2761  0.9034
  132SOL    HW2  396   1.181   1.231   1.766 -1.8678  1.1524 -2.8399
  133SOL     OW  397   0.413   1.083   0.856  0.4790 -0.2542 -0.5963
  133SOL    HW1  398   0.512   1.072   0.878 -1.9722 -1.3036  2.3979
  133SOL    HW2  399   0.380   1.171   0.898 -1.0614 -1.6975  3.4143
  134SOL     OW  400   0.024   1.368   0.132 -0.5004  0.4768  0.6112
  134SOL    HW1  401   0.044   1.275   0.093  2.7676 -2.0946  0.4274
  134SOL    HW2  402  -0.006   1.428   0.055  1.2674 -2.9671  0.4046
  135SOL     OW  403   1.672   0.784   0.082  0.1403 -0.6491 -0.8759
  135SOL    HW1  404   1.639   0.881   0.072  0.2115 -2.5215 -0.1460
  135SOL    HW2  405   1.637   0.728   0.003 -2.1263 -1.7635 -1.5990
  136SOL     OW  406   2.124   2.071   1.435  0.1561  0.1286 -0.0802
  136SOL    HW1  407   2.152   2.048   1.531 -1.3055  0.2911 -0.0138
  136SOL    HW2  408   2.052   2.145   1.432 -1.4269 -0.4400 -2.2522
  137SOL     OW  409   2.289   2.431   0.679  1.2160 -0.0797 -0.0847
  137SOL    HW1  410   2.242   2.499   0.739  2.6320 -1.6407  2.3722
  137SOL    HW2  411   2.323   2.475   0.593  0.7454 -1.1693 -0.3029
  138SOL     OW  412   2.374   0.304   1.769 -0.1274  0.1310 -0.5208
  138SOL    HW1  413   2.398   0.205   1.765  1.7959 -0.9403 -1.4067
  138SOL    HW2  414   2.331   0.332   1.681 -1.4219 -0.2793  0.8646
  139SOL     OW  415   2.735   2.639   2.689 -0.7404  0.6008 -0.5914
  139SOL    HW1  416   2.677   2.572   2.739  2.2574  0.7578  1.5035
  139SOL    HW2  417   2.715   2.628   2.590  0.4038 -3.0142  0.3562
  140SOL     OW  418   1.487   1.892   2.611  0.4705 -0.0834  0.4553
  140SOL    HW1  419   1.475   1.989   2.581  0.1112  0.2676 -0.7198
  140SOL    HW2  420   1.544   1.839   2.545 -2.1069  1.5249  0.5944
  141SOL     OW  421   1.449   1.410   2.508 -0.0948  0.2122  0.1550
  141SOL    HW1  422   1.417   1.319   2.475  1.4671 -3.1302 -1.3450
  141SOL    HW2  423   1.516   1.390   2.583 -0.6933 -2.6858 -0.7396
  142SOL     OW  424   2.032   2.378   2.020 -0.0898 -0.1220 -0.2033
  142SOL    HW1  425   2.033   2.282   1.982  1.3297  0.7559  0.5415
  142SOL    HW2  426   2.119   2.427   1.998 -3.0697  1.1422 -2.7307
  143SOL     OW  427   1.029   2.491   0.464  0.1537 -0.4658  0.6460
  143SOL    HW1  428   1.064   2.482   0.559  0.5657  0.3354  1.6908
  143SOL    HW2  429   0.973   2.411   0.434 -1.7314 -0.1362  0.9434
  144SOL     OW  430   0.818   2.651   0.516  0.4063 -0.0543 -0.3271
  144SOL    HW1  431   0.814   2.736   0.460 -0.7421  5.1372 -1.3569
  144SOL    HW2  432   0.896   2.594   0.484 -1.1198  0.6084 -0.6085
  145SOL     OW  433   1.810   2.222   3.042  0.8356 -0.4131  1.1486
  145SOL    HW1  434   1.712   2.198   3.019 -1.2137 -0.0920 -0.7790
  145SOL    HW2  435   1.829   2.319   3.024  1.0045 -0.7932 -0.5243
  146SOL     OW  436   1.760   2.351   0.295  0.0415  0.0572  0.2161
  146SOL    HW1  437   1.770   2.415   0.216  0.9295 -0.9547 -0.0005
  146SOL    HW2  438   1.788   2.255   0.272  2.5706  0.1765 -1.0655
  147SOL     OW  439   0.332   1.733   1.955 -0.1934 -0.2063  0.8397
  147SOL    HW1  440   0.323   1.695   1.860 -1.6897  1.9754 -0.6882
  147SOL    HW2  441   0.394   1.814   1.949 -0.2826 -0.4585 -1.4164
  148SOL     OW  442   1.212   0.040   0.231 -0.4368 -0.0934 -0.8767
  148SOL    HW1  443   1.262   0.110   0.175  2.4510  0.0376 -1.1407
  148SOL    HW2  444   1.125   0.012   0.186 -2.0196 -0.2517 -0.1350
  149SOL     OW  445   0.431   2.088   0.206 -0.0855 -0.5032  0.3857
  149SOL    HW1  446   0.516   2.128   0.163 -1.6973  1.4891  1.5768
  149SOL    HW2  447   0.352   2.105   0.142  1.2122  1.4653 -1.9294
  150SOL     OW  448   0.376   2.535   1.248 -0.1742  0.0732 -0.1752
  150SOL    HW1  449   0.477   2.522   1.258 -0.8325 -4.2849 -0.5299
  150SOL    HW2  450   0.360   2.589   1.162 -0.7480  0.3547  1.7959
  151SOL     OW  451   0.347   1.652   2.916  0.1082 -0.0154  0.0511
  151SOL    HW1  452   0.387   1.576   2.859  0.2359 -1.3478 -0.0523
  151SOL    HW2  453   0.363   1.630   3.014  0.3463 -1.2505  0.3842
  152SOL     OW  454   2.988   1.923   0.911  0.3692  0.1360 -0.2508
  152SOL    HW1  455   3.024   1.851   0.848  1.1077  2.6051  2.0394
  152SOL    HW2  456   2.889   1.912   0.927 -0.3885  0.8025 -2.3105
  153SOL     OW  457   1.564   2.295   0.685 -0.1839 -0.4014  0.0066
  153SOL    HW1  458   1.642   2.235   0.660  0.4571  1.5907  0.9011
  153SOL    HW2  459   1.488   2.233   0.716  0.8027 -2.9381 -1.0807
  154SOL     OW  460   0.835   3.012   1.445  0.5258 -0.2263 -0.3860
  154SOL    HW1  461   0.857   2.912   1.443  0.3517  0.1786  1.5164
  154SOL    HW2  462   0.734   3.025   1.456  0.4306  0.0847 -0.4299
  155SOL     OW  463   2.622   2.023   0.477 -0.3018  0.2734 -0.2044
  155SOL    HW1  464   2.706   2.072   0.508 -0.1866  3.9309  1.1087
  155SOL    HW2  465   2.574   2.083   0.409 -1.1829 -0.1213  0.9874
  156SOL     OW  466   2.503   1.983   0.099  0.0695  0.1388 -0.2712
  156SOL    HW1  467   2.443   2.023   0.026  0.5981  1.3660  1.3905
  156SOL    HW2  468   2.506   2.050   0.177  0.5958  0.1839  0.4841
  157SOL     OW  469   0.555   0.134   1.898 -0.4054 -0.8185  0.2472
  157SOL    HW1  470   0.582   0.231   1.922  0.3746  2.0280  1.1494
  157SOL    HW2  471   0.522   0.090   1.984 -0.3809  0.5182  0.4167
  158SOL     OW  472   0.990   0.606   1.129 -0.4705 -0.3892 -0.0617
  158SOL    HW1  473   1.048   0.536   1.081  3.5652  0.3208  1.1182
  158SOL    HW2  474   1.024   0.604   1.226  1.1012  0.2439 -1.7312
  159SOL     OW  475   1.875   1.030   2.924 -0.0601  0.6477 -0.4474
  159SOL    HW1  476   1.848   0.961   2.852  1.0748 -1.1849 -1.1695
  159SOL    HW2  477   1.794   1.044   2.982 -0.2553  0.9526  2.6345
  160SOL     OW  478   1.298   1.740   0.503  1.1562  0.5532  0.0633
  160SOL    HW1  479   1.363   1.667   0.475  2.0190  0.6002 -0.4175
  160SOL    HW2  480   1.204   1.711   0.476 -1.3285  1.1518 -0.1551
  161SOL     OW  481   2.757   1.784   2.744  0.2011 -0.7563 -0.6550
  161SOL    HW1  482   2.777   1.863   2.681  1.4399  2.4515  1.2424
  161SOL    HW2  483   2.750   1.817   2.840  1.5989 -1.7177  2.2716
  162SOL     OW  484   3.015   2.225   1.139 -0.1614  0.0490  0.3359
  162SOL    HW1  485   3.087   2.286   1.178  2.2818 -2.5091 -0.6713
  162SOL    HW2  486   3.057   2.132   1.137  0.2446  0.7282 -1.5240
  163SOL     OW  487   0.589   0.847   2.622  0.2289  0.2494  0.0305
  163SOL    HW1  488   0.666   0.899   2.661 -0.3635 -0.6315 -0.8627
  163SOL    HW2  489   0.581   0.759   2.673 -0.5215 -1.3834  1.0665
  164SOL     OW  490   0.384   2.616   2.714  1.0368 -0.6076 -0.9719
  164SOL    HW1  491   0.326   2.586   2.792  2.6913 -0.9745  1.6059
  164SOL    HW2  492   0.360   2.711   2.685 -0.0388 -0.1751  1.0070
  165SOL     OW  493   2.349   1.011   1.487  0.3186 -0.3041  0.2094
  165SOL    HW1  494   2.368   0.965   1.577 -1.2882  1.6809 -1.0689
  165SOL    HW2  495   2.398   1.100   1.480  0.8716 -2.7041  0.1462
  166SOL     OW  496   2.054   1.828   1.349 -0.5307  0.0795  0.3191
  166SOL    HW1  497   2.085   1.920   1.385  0.7021 -2.5359 -1.4509
  166SOL    HW2  498   2.111   1.755   1.391 -1.1315 -1.3895 -1.5178
  167SOL     OW  499   0.042   0.771   3.051 -0.1197  0.1191  0.1900
  167SOL    HW1  500   0.002   0.830   3.124  0.3500  1.9838  1.9280
  167SOL    HW2  501   0.138   0.804   3.037 -2.0448 -0.7281 -2.4296
  168SOL     OW  502   2.181   0.405   2.620 -0.9052  0.0319 -0.9251
  168SOL    HW1  503   2.083   0.413   2.588 -2.3190 -2.4313  0.9828
  168SOL    HW2  504   2.196   0.321   2.677 -0.8161  0.4755  0.1579
  169SOL     OW  505   0.541   1.224   0.028 -0.2541 -0.0992 -0.6009
  169SOL    HW1  506   0.530   1.286   0.109  0.6580  1.9279  0.4200
  169SOL    HW2  507   0.474   1.246  -0.047 -0.8984 -0.3600  3.7635
  170SOL     OW  508   1.201   0.919   1.475  0.0625  0.2598  0.2131
  170SOL    HW1  509   1.229   0.833   1.427 -0.7459  1.9103  5.6513
  170SOL    HW2  510   1.276   0.989   1.472 -1.3946  1.4868 -0.5576
  171SOL     OW  511   1.609   2.679   1.024  0.3249  0.2361  0.1705
  171SOL    HW1  512   1.590   2.617   1.103  1.4826  1.4441  1.4725
  171SOL    HW2  513   1.582   2.634   0.936  0.3552 -1.7860 -0.4319
  172SOL     OW  514   0.988   0.030   2.012 -0.1137 -0.7424 -0.5210
  172SOL    HW1  515   0.910  -0.005   1.956  1.0400 -0.8676  0.1839
  172SOL    HW2  516   1.071  -0.027   1.991 -0.5693  0.9174 -2.1229
  173SOL     OW  517   0.845   2.455   0.928 -0.5244 -0.1232  0.6131
  173SOL    HW1  518   0.856   2.545   0.879  1.5884  0.7086 -0.5046
  173SOL    HW2  519   0.748   2.445   0.957 -4.4334 -1.8284 -0.6782
  174SOL     OW  520   2.109   0.132   0.270 -0.0433 -0.5311  0.4918
  174SOL    HW1  521   2.016   0.165   0.296 -1.8611 -1.5998  1.3493
  174SOL    HW2  522   2.101   0.037   0.234 -1.8233  0.3376 -1.6026
  175SOL     OW  523   0.962   1.359   0.714  0.1208 -0.1392  0.1810
  175SOL    HW1  524   0.971   1.461   0.704  0.8005 -0.3689  0.4259
  175SOL    HW2  525   0.865   1.338   0.738  0.8657 -0.7062 -2.7185
  176SOL     OW  526   0.991   1.809   0.994  0.3058 -0.7828 -0.2906
  176SOL    HW1  527   1.064   1.873   1.022  0.2253 -1.0083 -0.5633
  176SOL    HW2  528   0.909   1.857   0.959  0.4553 -0.4757 -2.7185
  177SOL     OW  529   1.266   0.909   1.106 -0.6322  0.3162 -0.0828
  177SOL    HW1  530   1.284   0.810   1.085 -1.6914  0.9837 -2.0312
  177SOL    HW2  531   1.350   0.950   1.149  0.2231 -1.2007  0.8466
  178SOL     OW  532   2.294   1.480   0.668  0.7223  0.6230  0.0295
  178SOL    HW1  533   2.280   1.580   0.648 -0.0728 -0.8132  0.0892
  178SOL    HW2  534   2.294   1.425   0.581 -0.7350 -0.0691  0.1270
  179SOL     OW  535   0.959   2.780   3.000 -0.3659  0.4276 -0.5057
  179SOL    HW1  536   0.928   2.734   3.086  0.4988 -1.5065 -0.4337
  179SOL    HW2  537   1.045   2.739   2.962  0.8019  1.9350  1.1701
  180SOL     OW  538   1.766   1.199   1.661  0.2256 -0.1098 -0.5002
  180SOL    HW1  539   1.704   1.272   1.625  2.9541 -1.2134 -1.1295
  180SOL    HW2  540   1.852   1.244   1.690  1.2063 -0.3333  3.1830
  181SOL     OW  541   0.787   0.967   1.584 -0.1186  0.0685 -0.1204
  181SOL    HW1  542   0.804   0.866   1.570 -1.3925 -2.2149 -2.4127
  181SOL    HW2  543   0.850   1.001   1.657  1.3294  0.2410 -1.2099
  182SOL     OW  544   2.817   1.003   3.041  0.1371 -0.0699  0.1231
  182SOL    HW1  545   2.875   1.018   2.958 -2.5568  2.5029 -1.4132
  182SOL    HW2  546   2.775   1.090   3.075  2.0594 -0.9637  1.1342
  183SOL     OW  547   1.884   0.046   2.130  0.0075 -0.0259  0.2011
  183SOL    HW1  548   1.921  -0.048   2.126 -1.7888 -0.4490 -0.0306
  183SOL    HW2  549   1.783   0.046   2.110 -0.6972  0.0878  0.3965
  184SOL     OW  550   0.984   0.778   0.921  0.0145  0.0678  0.1943
  184SOL    HW1  551   0.941   0.716   0.853 -1.1259  0.5297 -0.8252
  184SOL    HW2  552   0.989   0.726   1.009 -2.4573 -2.7824  0.6312
  185SOL     OW  553   2.053   1.120   0.518  0.3883 -0.0167 -0.2159
  185SOL    HW1  554   2.101   1.102   0.607  0.2806  0.0161  0.9155
  185SOL    HW2  555   2.013   1.214   0.517  2.8474  3.2921  0.9822
  186SOL     OW  556   0.291   2.191   0.425 -0.5696  0.2655 -0.8315
  186SOL    HW1  557   0.304   2.137   0.511  0.0690  1.0085 -2.4104
  186SOL    HW2  558   0.341   2.152   0.345 -1.7988 -0.4527  0.0641
  187SOL     OW  559   1.707   1.648   2.668  0.2469 -0.3240 -0.7689
  187SOL    HW1  560   1.700   1.695   2.578 -1.1204 -2.2484 -0.0447
  187SOL    HW2  561   1.706   1.717   2.741 -0.5742 -0.0360  0.5047
  188SOL     OW  562   1.362   2.898   1.414  0.2818 -0.1284 -0.2227
  188SOL    HW1  563   1.343   2.999   1.418  0.7754 -0.1770  1.3017
  188SOL    HW2  564   1.279   2.844   1.442  1.2391 -0.4059 -1.1167
  189SOL     OW  565   2.845   1.370   2.425  0.7095  0.3221  0.5865
  189SOL    HW1  566   2.830   1.457   2.479  0.0104  0.1443 -1.2338
  189SOL    HW2  567   2.763   1.311   2.437 -0.8320 -1.8165  0.6476
  190SOL     OW  568   1.021   2.669   2.100 -0.4216  0.2496 -0.9074
  190SOL    HW1  569   1.014   2.573   2.135 -1.1691  2.3443 -0.0504
  190SOL    HW2  570   1.119   2.699   2.106 -1.5154  0.7144  0.1359
  191SOL     OW  571   2.354   0.904   1.236  0.2651  0.3819 -0.4354
  191SOL    HW1  572   2.258   0.874   1.213  0.3751  0.8985  0.2812
  191SOL    HW2  573   2.358   0.944   1.330  1.1298 -1.8827 -2.8920
  192SOL     OW  574   1.962   0.500   1.039 -0.3061 -0.5818  0.4126
  192SOL    HW1  575   2.047   0.445   1.030  1.4521 -0.1467  0.7790
  192SOL    HW2  576   1.898   0.479   0.961  2.4945 -0.9777  0.4891
  193SOL     OW  577   0.855   0.062   0.293  0.1064 -0.7239 -0.1852
  193SOL    HW1  578   0.855   0.135   0.220 -0.8161  1.3058  0.6870
  193SOL    HW2  579   0.841   0.107   0.382  0.1136 -0.0325 -1.4013
  194SOL     OW  580   1.685   2.334   0.996 -0.1799  0.2276 -0.7964
  194SOL    HW1  581   1.643   2.397   0.930  0.0176  1.4958  0.0167
  194SOL    HW2  582   1.612   2.283   1.048 -1.4702  1.8159 -1.0853
  195SOL     OW  583   2.383   0.876   0.739 -0.2582  0.1807 -0.7579
  195SOL    HW1  584   2.460   0.912   0.682  3.0085  0.5601 -2.4410
  195SOL    HW2  585   2.310   0.948   0.743  2.1341  0.9250 -2.1060
  196SOL     OW  586   0.990   2.357   1.770  0.7072 -0.7022  0.0651
  196SOL    HW1  587   1.007   2.338   1.671 -1.2522  1.0006 -2.6787
  196SOL    HW2  588   0.901   2.322   1.804 -0.8783 -0.3945  2.0201
  197SOL     OW  589   2.650   0.262   2.376  0.6035 -0.3631 -0.4201
  197SOL    HW1  590   2.589   0.344   2.367 -2.3616 -0.5062 -1.0483
  197SOL    HW2  591   2.585   0.183   2.381  0.7602  1.9223 -0.1009
  198SOL     OW  592   2.139   1.504   0.268  0.3490 -0.1320  0.3456
  198SOL    HW1  593   2.218   1.522   0.206 -3.3665 -1.1907 -0.0349
  198SOL    HW2  594   2.064   1.454   0.218 -0.9317 -1.7243  0.6569
  199SOL     OW  595   2.400   0.621   1.730 -0.5906 -0.4670  0.2770
  199SOL    HW1  596   2.367   0.595   1.823  3.3236  1.0018 -0.4079
  199SOL    HW2  597   2.370   0.551   1.663 -0.5276 -1.1620 -0.1297
  200SOL     OW  598   1.792   2.863   2.961  0.1995 -0.2593  0.7563
  200SOL    HW1  599   1.735   2.928   3.016 -0.1204  0.5754 -4.3199
  200SOL    HW2  600   1.890   2.881   2.978 -2.8035  0.9971  0.7712
  201SOL     OW  601   2.641   0.220   1.393  0.2927  0.3178  0.1055
  201SOL    HW1  602   2.552   0.183   1.429  0.2553  2.0231 -1.8817
  201SOL    HW2  603   2.620   0.315   1.361  0.5132  2.0009  0.3394
  202SOL     OW  604   2.692   2.981   0.525 -0.0176 -0.1085  0.0226
  202SOL    HW1  605   2.663   3.036   0.607  0.0042 -0.7579 -2.3938
  202SOL    HW2  606   2.794   2.972   0.527  0.5330  2.6965 -0.0720
  203SOL     OW  607   1.471   1.541   0.444  0.1033  0.1323  0.7848
  203SOL    HW1  608   1.502   1.473   0.514 -2.4262  0.5078  0.2231
  203SOL    HW2  609   1.541   1.615   0.431 -2.2237  0.5984  3.9746
  204SOL     OW  610   0.159   1.748   2.174 -0.4470  0.0779 -0.5259
  204SOL    HW1  611   0.128   1.846   2.171  0.3272  1.9004  0.0516
  204SOL    HW2  612   0.217   1.731   2.093 -1.5287 -0.1717 -2.4501
  205SOL     OW  613   0.485   0.671   0.832  0.2405  0.2253 -0.5217
  205SOL    HW1  614   0.558   0.599   0.840  0.8674 -1.8232  0.4996
  205SOL    HW2  615   0.399   0.633   0.791  0.9181  2.0917 -3.8326
  206SOL     OW  616   0.347   0.983   2.583 -0.1358  0.6949  0.6433
  206SOL    HW1  617   0.363   1.077   2.545  1.0313 -0.1191 -0.8137
  206SOL    HW2  618   0.436   0.935   2.599  1.0125  1.3466 -0.9135
  207SOL     OW  619   1.346   2.289   1.594 -0.0131  0.0153  0.5881
  207SOL    HW1  620   1.406   2.285   1.677 -0.9422 -0.8272  1.0187
  207SOL    HW2  621   1.281   2.213   1.598 -1.1987  1.4189  2.3125
  208SOL     OW  622   2.247   0.320   1.025  0.2594 -0.0429  0.4776
  208SOL    HW1  623   2.314   0.252   1.063  2.2525 -2.6627 -0.4349
  208SOL    HW2  624   2.187   0.278   0.953 -0.0917 -1.6712  0.4547
  209SOL     OW  625   1.931   0.957   0.832 -0.4778 -0.1072  0.2200
  209SOL    HW1  626   1.921   0.888   0.908 -0.4914  0.6192 -2.7076
  209SOL    HW2  627   1.861   0.932   0.761  3.6314 -0.9885 -1.1489
  210SOL     OW  628   2.174   1.057   0.756  0.0170 -0.4953  0.4284
  210SOL    HW1  629   2.088   1.021   0.798 -1.4464 -0.3455  1.3926
  210SOL    HW2  630   2.198   1.143   0.805  0.0233 -1.1471 -0.2279
  211SOL     OW  631   0.833   2.853   2.772  0.2170 -0.2843 -0.3292
  211SOL    HW1  632   0.760   2.784   2.747 -1.2460  1.6257  3.2196
  211SOL    HW2  633   0.868   2.837   2.867  0.0561  1.4021  1.7266
  212SOL     OW  634   1.842   1.738   0.586 -0.7744  0.2170  0.2325
  212SOL    HW1  635   1.887   1.781   0.668  0.1104  1.0741  0.4202
  212SOL    HW2  636   1.914   1.721   0.516 -2.2659 -0.0980 -0.5137
  213SOL     OW  637   2.270   2.817   0.227  0.4260  0.0248  0.0057
  213SOL    HW1  638   2.237   2.722   0.245  0.0781 -2.2484  0.0414
  213SOL    HW2  639   2.303   2.830   0.131 -2.3369 -1.0273 -0.9728
  214SOL     OW  640   1.273   2.357   2.291  0.5005  0.4394 -0.0539
  214SOL    HW1  641   1.362   2.401   2.266 -0.7812  2.9742  1.1450
  214SOL    HW2  642   1.276   2.266   2.247  1.3733  1.3193 -1.2542
  215SOL     OW  643   0.331   1.311   0.976 -0.3714 -0.2055 -0.0596
  215SOL    HW1  644   0.240   1.323   1.021  0.3902 -1.9922  1.7196
  215SOL    HW2  645   0.357   1.397   0.927 -0.7467 -0.7390 -2.7341
  216SOL     OW  646   0.088   0.095   2.340  0.6012  0.2979 -0.5561
  216SOL    HW1  647   0.097   0.166   2.267  0.7695  2.3950 -1.7600
  216SOL    HW2  648   0.032   0.017   2.305  0.9759  1.0768 -0.5357
  217SOL     OW  649   2.871   1.470   1.431  0.1792 -0.1986  0.4571
  217SOL    HW1  650   2.973   1.468   1.415  3.5328 -1.1623 -2.0334
  217SOL    HW2  651   2.847   1.407   1.507 -2.5980  2.7682  2.1347
  218SOL     OW  652   0.681   2.364   1.696 -0.2640  0.0116 -0.1358
  218SOL    HW1  653   0.581   2.388   1.699  0.0949 -0.0502  1.4472
  218SOL    HW2  654   0.704   2.290   1.763  0.8137  0.3589  0.1258
  219SOL     OW  655   2.156   1.892   2.898  0.4518 -0.0418 -0.1369
  219SOL    HW1  656   2.171   1.897   2.797 -1.8804 -1.6378  0.9456
  219SOL    HW2  657   2.163   1.795   2.930 -2.6178 -2.1569  0.2894
  220SOL     OW  658   1.797   0.213   0.044  0.7112 -0.0338  0.0751
  220SOL    HW1  659   1.873   0.204  -0.023 -0.7397 -0.7817 -0.8060
  220SOL    HW2  660   1.750   0.302   0.025 -1.9571  0.6557 -1.5732
  221SOL     OW  661   2.813   1.063   0.293  0.3812  0.3150 -0.9283
  221SOL    HW1  662   2.789   0.966   0.271  1.0160 -0.7449 -0.2185
  221SOL    HW2  663   2.782   1.125   0.217  1.2697  0.1333  0.0074
  222SOL     OW  664   1.572   1.373   0.631  0.4249 -0.3012  0.1487
  222SOL    HW1  665   1.535   1.303   0.696  0.4458  0.4581 -1.2129
  222SOL    HW2  666   1.618   1.448   0.684  0.3998  1.0483 -3.3024
  223SOL     OW  667   0.786   0.281   2.910  0.1222  0.4087  0.3467
  223SOL    HW1  668   0.864   0.240   2.859  1.8801  2.4961  1.4688
  223SOL    HW2  669   0.789   0.383   2.899  0.3833 -1.1193  0.0619
  224SOL     OW  670   0.986   2.853   1.108 -0.2187 -0.1630 -0.3411
  224SOL    HW1  671   0.989   2.949   1.143  1.3918  2.6213 -0.8109
  224SOL    HW2  672   0.899   2.810   1.140 -1.6520 -0.6061  2.1210
  225SOL     OW  673   0.914   0.122   2.256  0.2891 -0.4417 -0.0544
  225SOL    HW1  674   0.935   0.067   2.172  3.3549 -2.0010 -0.2905
  225SOL    HW2  675   0.832   0.080   2.298  0.7567 -1.0333  0.5293
  226SOL     OW  676   1.238   1.548   0.799 -0.4400  0.1736  0.6174
  226SOL    HW1  677   1.312   1.615   0.782  0.4983 -0.5277 -1.3115
  226SOL    HW2  678   1.278   1.457   0.780 -0.5974 -1.4540 -1.6410
  227SOL     OW  679   0.155   2.253   1.467 -0.0882 -0.6503  0.0203
  227SOL    HW1  680   0.167   2.275   1.369 -2.0582  0.7811 -0.0002
  227SOL    HW2  681   0.188   2.158   1.483 -1.7766  0.9369 -0.8052
  228SOL     OW  682   0.096   1.867   0.356 -0.1051  0.5406 -0.6121
  228SOL    HW1  683   0.068   1.963   0.332  3.5923 -1.4202  2.6151
  228SOL    HW2  684   0.171   1.869   0.426  1.2354 -0.3916  0.9793
  229SOL     OW  685   2.422   0.209   2.961 -0.1784 -0.0919  0.4355
  229SOL    HW1  686   2.488   0.244   2.889  0.4291 -0.9374 -0.1443
  229SOL    HW2  687   2.460   0.128   3.009  1.3029 -4.6231 -0.4862
  230SOL     OW  688   2.552   0.826   0.356  0.1443  0.2230  0.0261
  230SOL    HW1  689   2.621   0.822   0.280  1.0238  1.2400 -0.5707
  230SOL    HW2  690   2.479   0.889   0.325 -4.2288 -0.0200  0.6606
  231SOL     OW  691   1.632   1.753   0.415  0.7501 -0.3291 -0.0293
  231SOL    HW1  692   1.712   1.744   0.479 -2.5586 -0.2381 -1.2736
  231SOL    HW2  693   1.619   1.853   0.395 -3.3761  2.9815 -0.9218
  232SOL     OW  694   1.776   1.969   0.997  0.1420 -0.4167  0.8513
  232SOL    HW1  695   1.837   2.045   0.966  1.3426  0.3220 -1.2559
  232SOL    HW2  696   1.833   1.889   1.025 -2.6420  1.4124 -1.1967
  233SOL     OW  697   0.567   2.863   1.861  0.2755  0.1794 -0.0138
  233SOL    HW1  698   0.649   2.924   1.861  1.2724 -1.3942 -0.4245
  233SOL    HW2  699   0.550   2.845   1.761  0.9535  1.3750 -2.3472
  234SOL     OW  700   0.701   0.368   2.440 -0.4985 -0.0494 -0.2624
  234SOL    HW1  701   0.747   0.380   2.350  2.6575  1.1943  0.6962
  234SOL    HW2  702   0.755   0.423   2.507 -1.1918 -0.9153 -1.4785
  235SOL     OW  703   2.565   1.051   1.874 -0.1920  0.2581  0.2418
  235SOL    HW1  704   2.652   1.003   1.902 -1.4421  3.0560 -1.4937
  235SOL    HW2  705   2.502   0.988   1.824  2.0970  1.7961  0.8219
  236SOL     OW  706   1.580   2.740   1.382 -0.0456  0.1940 -0.4730
  236SOL    HW1  707   1.653   2.785   1.326 -0.9940  0.3955  1.8317
  236SOL    HW2  708   1.500   2.803   1.393 -1.7924  1.2296  0.1786
  237SOL     OW  709   0.402   1.638   2.520 -0.0742  0.1867  0.5239
  237SOL    HW1  710   0.476   1.678   2.461 -0.5084 -0.6493 -0.3652
  237SOL    HW2  711   0.322   1.607   2.466 -0.4285  1.5808 -2.7955
  238SOL     OW  712   1.153   0.914   2.133  0.3649 -0.2255  0.4396
  238SOL    HW1  713   1.225   0.970   2.086  0.6740  0.1378 -0.0294
  238SOL    HW2  714   1.094   0.866   2.066  0.7516 -2.0763  3.4815
  239SOL     OW  715   0.848   1.659   2.446  0.5966  0.4086  0.7895
  239SOL    HW1  716   0.830   1.683   2.544 -3.0681 -1.2088  1.9064
  239SOL    HW2  717   0.882   1.740   2.393 -1.7770 -0.4166  1.0193
  240SOL     OW  718   2.383   2.565   0.463  0.1796 -0.1137 -0.0547
  240SOL    HW1  719   2.300   2.601   0.416  1.9228  1.2055  1.1364
  240SOL    HW2  720   2.449   2.641   0.481 -1.8270  1.9128  1.1351
  241SOL     OW  721   0.324   1.061   0.136 -0.1127  0.2256  0.2672
  241SOL    HW1  722   0.325   1.020   0.230 -0.1525  1.1391 -3.8787
  241SOL    HW2  723   0.409   1.115   0.122  0.7191  3.1002  0.2579
  242SOL     OW  724   1.515   2.889   1.652  0.4771  0.0725 -0.2803
  242SOL    HW1  725   1.451   2.900   1.574  1.5035 -1.2359 -1.3884
  242SOL    HW2  726   1.551   2.793   1.653  1.3043 -0.4402 -2.4551
  243SOL     OW  727   1.176   2.565   1.777  0.3585  0.2897 -0.2035
  243SOL    HW1  728   1.123   2.652   1.780  1.5047  0.9710  2.3782
  243SOL    HW2  729   1.109   2.488   1.780  0.8913  3.3276  1.1735
  244SOL     OW  730   2.293   0.604   2.470  0.5314 -0.5599  0.6763
  244SOL    HW1  731   2.248   0.695   2.482 -0.1383  0.5149  1.0119
  244SOL    HW2  732   2.249   0.534   2.530 -3.3204 -0.5176  2.5711
  245SOL     OW  733   1.501   2.205   1.146  0.5258 -0.4679  0.2767
  245SOL    HW1  734   1.495   2.243   1.241  2.4477  2.3516  0.4403
  245SOL    HW2  735   1.437   2.126   1.138 -0.2596  1.3179 -0.2076
  246SOL     OW  736   1.331   0.215   0.053  0.1702  0.4170  0.1697
  246SOL    HW1  737   1.396   0.260   0.119 -0.8515  2.2358 -0.8305
  246SOL    HW2  738   1.362   0.240  -0.043 -3.8870  0.0034  0.0839
  247SOL     OW  739   1.731   0.310   1.885  0.4655 -0.1502  0.4469
  247SOL    HW1  740   1.810   0.320   1.823  0.6722 -0.7847  3.5132
  247SOL    HW2  741   1.734   0.225   1.939  1.8731 -2.4669  3.1252
  248SOL     OW  742   0.003   2.421   1.612  0.0128 -0.2759  1.0617
  248SOL    HW1  743   0.041   2.515   1.603  0.8693  0.5151 -1.7755
  248SOL    HW2  744   0.059   2.350   1.563  3.4751  0.5104  2.3217
  249SOL     OW  745   0.536   0.262   0.350 -0.5639  0.3614  0.2193
  249SOL    HW1  746   0.436   0.279   0.372 -0.5364 -0.6276  0.0686
  249SOL    HW2  747   0.548   0.162   0.330 -3.0681 -1.2419  0.3577
  250SOL     OW  748   2.358   0.173   2.190 -0.6250 -0.5525  0.5952
  250SOL    HW1  749   2.285   0.216   2.247  0.7784 -0.8091  1.5749
  250SOL    HW2  750   2.401   0.242   2.127  0.5376 -2.3001 -1.0838
  251SOL     OW  751   1.306   0.680   3.052  0.1988  0.2027  0.0124
  251SOL    HW1  752   1.292   0.624   3.137  0.6774 -4.0464  1.2684
  251SOL    HW2  753   1.233   0.664   2.983 -0.0166 -2.6442 -3.9518
  252SOL     OW  754   1.530   2.468   2.222 -0.2881 -0.0454  1.0219
  252SOL    HW1  755   1.614   2.488   2.277  0.8674  0.3824 -1.9555
  252SOL    HW2  756   1.518   2.538   2.149  1.1866  1.3152 -4.1817
  253SOL     OW  757   2.770   2.582   0.367  0.6695 -0.5446 -0.1503
  253SOL    HW1  758   2.706   2.628   0.433  0.2127 -0.1883 -1.7069
  253SOL    HW2  759   2.858   2.562   0.416 -0.6554  0.1376  0.0146
  254SOL     OW  760   2.092   0.989   1.414 -0.3738  0.0130  0.1043
  254SOL    HW1  761   2.057   1.080   1.383 -0.7861 -1.1016 -0.7571
  254SOL    HW2  762   2.189   1.004   1.446 -0.9240 -0.8294 -1.4052
  255SOL     OW  763   0.893   2.747   1.441  0.9572 -0.3449 -0.0060
  255SOL    HW1  764   0.843   2.736   1.352 -1.3356  2.9844 -0.2966
  255SOL    HW2  765   0.846   2.689   1.510 -2.3276  1.0056 -1.3077
  256SOL     OW  766   2.350   1.649   1.666  0.4504 -0.5384  0.2911
  256SOL    HW1  767   2.299   1.642   1.578 -1.7649  0.8974  2.2621
  256SOL    HW2  768   2.441   1.694   1.654 -1.2775  0.5280  0.4229
  257SOL     OW  769   0.450   2.393   2.577 -0.8932  0.6179 -0.1412
  257SOL    HW1  770   0.497   2.327   2.639 -0.9800  2.5072 -0.1381
  257SOL    HW2  771   0.417   2.478   2.623  0.6893 -0.7123 -2.1314
  258SOL     OW  772   0.583   2.458   0.993 -0.0396  0.3616  0.6649
  258SOL    HW1  773   0.533   2.531   0.945 -0.1940 -1.1528  1.5568
  258SOL    HW2  774   0.531   2.370   0.987 -1.6926  1.4456 -2.6766
  259SOL     OW  775   1.447   0.430   2.657 -0.0138 -0.3553 -0.1033
  259SOL    HW1  776   1.548   0.425   2.668  0.6160 -0.2779  2.8063
  259SOL    HW2  777   1.420   0.522   2.620  2.5538  2.6127  0.1853
  260SOL     OW  778   0.333   0.418   1.250  0.6373 -0.0025  0.3299
  260SOL    HW1  779   0.405   0.489   1.261 -0.4590  0.0079  0.4054
  260SOL    HW2  780   0.335   0.381   1.154  2.7445 -0.4146  0.1222
  261SOL     OW  781   1.191   0.078   2.344  0.1912  0.6506 -0.0992
  261SOL    HW1  782   1.168  -0.017   2.378 -0.4421  2.1468 -1.2370
  261SOL    HW2  783   1.103   0.126   2.333 -2.5496 -1.9552  4.4535
  262SOL     OW  784   1.203   2.932   1.954  0.2465 -0.3466 -0.0808
  262SOL    HW1  785   1.226   2.868   2.031 -1.2775  1.2413 -0.9722
  262SOL    HW2  786   1.155   2.881   1.878  0.3321 -0.3086  0.5824
  263SOL     OW  787   0.650   2.158   0.059  0.4275 -0.3913  0.1174
  263SOL    HW1  788   0.729   2.214   0.030 -1.9275 -1.7027  1.4497
  263SOL    HW2  789   0.653   2.063   0.021  0.1306 -0.4325  0.1560
  264SOL     OW  790   1.414   1.754   1.017  0.1615  0.3997 -0.5999
  264SOL    HW1  791   1.509   1.719   1.034 -0.4887 -3.3045 -2.6798
  264SOL    HW2  792   1.400   1.761   0.916 -1.3319 -0.2038  1.4043
  265SOL     OW  793   0.865   2.286   0.372 -0.4653  0.2307  0.3560
  265SOL    HW1  794   0.948   2.238   0.333 -0.8416  1.0895  0.8375
  265SOL    HW2  795   0.803   2.213   0.404 -0.5465  0.7417 -0.1975
  266SOL     OW  796   2.738   0.870   1.014  0.1135 -0.1641  0.1688
  266SOL    HW1  797   2.679   0.806   0.961  2.8384 -1.0546  2.4580
  266SOL    HW2  798   2.795   0.821   1.084  1.3694 -2.5468  2.2467
  267SOL     OW  799   0.254   1.427   0.266  0.4723 -0.0723 -0.2123
  267SOL    HW1  800   0.226   1.435   0.364 -3.1637  1.0451  1.7027
  267SOL    HW2  801   0.170   1.404   0.211 -1.1079  0.1129 -0.3144
  268SOL     OW  802   1.286   0.549   0.229  0.3635  0.0768  0.7460
  268SOL    HW1  803   1.185   0.542   0.241 -0.0118  0.7618  1.9054
  268SOL    HW2  804   1.321   0.603   0.309 -0.3530  1.0085  0.4624
  269SOL     OW  805   2.567   0.689   2.177 -0.0779 -0.7833  0.3399
  269SOL    HW1  806   2.557   0.758   2.251 -1.1713  1.4984  0.2417
  269SOL    HW2  807   2.661   0.699   2.140 -2.0843 -1.5231 -0.6621
  270SOL     OW  808   2.653   1.173   0.711  0.5922  0.0975 -0.6761
  270SOL    HW1  809   2.659   1.242   0.637  1.4626 -1.1484  0.3663
  270SOL    HW2  810   2.625   1.086   0.666 -1.6703  0.5905 -0.3200
  271SOL     OW  811   0.145   1.151   2.237 -0.4348 -0.3336  0.5570
  271SOL    HW1  812   0.214   1.116   2.169  2.4849 -1.4147 -0.1463
  271SOL    HW2  813   0.131   1.250   2.216  1.4318 -1.1865 -0.1633
  272SOL     OW  814   2.504   2.223   1.808  0.0701  0.4598  0.1982
  272SOL    HW1  815   2.450   2.257   1.889  3.4138 -1.0077  0.2882
  272SOL    HW2  816   2.584   2.168   1.839  2.0388 -0.0262  3.8359
  273SOL     OW  817   0.218   2.521   2.908  0.6241  0.0683 -0.0510
  273SOL    HW1  818   0.280   2.443   2.932 -0.2449 -1.3440  0.6846
  273SOL    HW2  819   0.140   2.492   2.849 -1.9129  1.1391  0.5047
  274SOL     OW  820   0.816   2.266   0.724  0.0284  0.1486 -0.2425
  274SOL    HW1  821   0.844   2.322   0.804 -1.2224  0.5051 -1.5744
  274SOL    HW2  822   0.890   2.200   0.698 -0.4824  2.1317  1.2236
  275SOL     OW  823   1.449   2.130   2.474  0.0809 -0.1469  0.2937
  275SOL    HW1  824   1.485   2.149   2.380 -1.2224 -1.6022 -1.6178
  275SOL    HW2  825   1.348   2.114   2.473  0.9146  3.4270  1.3277
  276SOL     OW  826   2.842   1.770   2.023 -0.2360  0.0955  0.0465
  276SOL    HW1  827   2.782   1.709   1.966 -1.6454 -2.7683 -0.7768
  276SOL    HW2  828   2.785   1.809   2.098  0.2757 -1.5925 -0.2558
  277SOL     OW  829   2.102   0.203   0.832  0.5765  0.6671  0.2934
  277SOL    HW1  830   2.172   0.212   0.758 -0.6854 -0.7717 -3.2128
  277SOL    HW2  831   2.007   0.214   0.797 -2.2012 -1.6449 -0.9603
  278SOL     OW  832   1.423   0.056   2.501 -0.0265 -0.3492  0.0633
  278SOL    HW1  833   1.339   0.086   2.452  0.8124  0.1827 -1.1495
  278SOL    HW2  834   1.398   0.017   2.592  0.4656  0.8951 -0.2081
  279SOL     OW  835   1.182   2.686   1.022  0.0208  0.7150  0.2665
  279SOL    HW1  836   1.194   2.605   1.083 -3.9186 -0.6629 -0.1167
  279SOL    HW2  837   1.110   2.750   1.059 -0.3979  0.2330  0.7690
  280SOL     OW  838   1.241   1.096   0.498 -0.2658  0.1517  0.4317
  280SOL    HW1  839   1.177   1.016   0.506  0.2594 -2.8028 -0.7305
  280SOL    HW2  840   1.237   1.149   0.584 -0.5862 -0.4727 -1.1539
  281SOL     OW  841   2.062   1.714   0.423  0.0164 -0.7823  0.4323
  281SOL    HW1  842   2.133   1.727   0.496  0.7055 -2.1192  1.6035
  281SOL    HW2  843   2.089   1.635   0.363 -0.6640 -2.5616 -1.0749
  282SOL     OW  844   2.809   1.404   0.553  0.5254 -0.2865 -0.0834
  282SOL    HW1  845   2.718   1.448   0.538 -1.5798 -0.5847  0.4086
  282SOL    HW2  846   2.877   1.429   0.480  2.9170  0.2355 -2.3930
  283SOL     OW  847   1.740   2.498   2.884  0.4134 -0.0848  0.1101
  283SOL    HW1  848   1.666   2.436   2.851 -1.2868  1.0600 -2.8412
  283SOL    HW2  849   1.736   2.587   2.834  1.7407  1.1804 -0.4686
  284SOL     OW  850   0.433   0.421   2.409  0.1824 -0.3690 -0.0354
  284SOL    HW1  851   0.529   0.403   2.439 -1.2965  0.8069  1.4874
  284SOL    HW2  852   0.373   0.413   2.492  0.9994 -0.3938  1.1960
  285SOL     OW  853   1.950   1.366   0.143 -0.0020  0.3398 -0.2444
  285SOL    HW1  854   1.930   1.363   0.044 -2.3240 -1.5046 -0.6088
  285SOL    HW2  855   1.952   1.269   0.179  1.5559  2.2215  3.1410
  286SOL     OW  856   1.010   1.903   1.677  0.2847  0.2025 -0.3915
  286SOL    HW1  857   1.087   1.841   1.701  1.1474 -0.8617  2.3625
  286SOL    HW2  858   1.033   1.959   1.595 -0.3645  0.1385  3.0071
  287SOL     OW  859   1.756   2.837   1.202 -0.4543 -0.4258 -0.3872
  287SOL    HW1  860   1.709   2.799   1.120  0.3974  0.1457 -1.4016
  287SOL    HW2  861   1.789   2.932   1.182 -0.1290  0.5156 -2.2133
  288SOL     OW  862   0.569   2.608   1.943 -0.1521  0.0312  0.1188
  288SOL    HW1  863   0.574   2.707   1.919  1.0337  2.9873  4.7815
  288SOL    HW2  864   0.472   2.577   1.930  0.5870  1.4474  0.3155
  289SOL     OW  865   3.049   1.718   0.741 -0.2179 -0.4510 -0.6346
  289SOL    HW1  866   3.003   1.628   0.760 -1.6036  1.5200 -0.1227
  289SOL    HW2  867   2.993   1.775   0.677  0.1076 -3.3301  0.7567
  290SOL     OW  868   0.765   2.176   1.874 -0.8297  0.8171 -0.1241
  290SOL    HW1  869   0.778   2.081   1.841 -0.6734 -0.3377  1.3288
  290SOL    HW2  870   0.768   2.177   1.975 -2.5382  3.1798  1.7239
  291SOL     OW  871   1.855   0.206   0.308 -0.4820 -0.2541  0.2849
  291SOL    HW1  872   1.804   0.283   0.354 -0.1578 -1.1572 -1.9757
  291SOL    HW2  873   1.829   0.202   0.209  0.2913  0.6417  1.2823
  292SOL     OW  874   0.591   0.322   1.547  0.0228 -0.3805 -0.4846
  292SOL    HW1  875   0.521   0.255   1.576  1.1895  0.9814 -1.2184
  292SOL    HW2  876   0.669   0.324   1.614  0.5539  1.1403 -0.8661
  293SOL     OW  877   2.172   1.346   1.119  0.2720  0.0575  0.0646
  293SOL    HW1  878   2.251   1.370   1.178  0.3665  0.1995 -0.3044
  293SOL    HW2  879   2.200   1.326   1.022  1.1934 -0.1052 -1.2426
  294SOL     OW  880   0.382   0.319   2.166  0.1428  0.4138 -0.1553
  294SOL    HW1  881   0.307   0.367   2.116 -1.4625 -0.1239 -0.1912
  294SOL    HW2  882   0.392   0.359   2.260 -0.6893 -3.7050  0.5996
  295SOL     OW  883   0.998   1.417   0.291  0.3363  0.0071 -0.3503
  295SOL    HW1  884   1.072   1.350   0.269 -3.4523 -3.1052 -2.0317
  295SOL    HW2  885   0.935   1.365   0.353  1.3458  1.4954 -3.1077
  296SOL     OW  886   1.854   1.083   1.163  0.0349 -0.0489  0.0182
  296SOL    HW1  887   1.854   1.127   1.071  1.4765  0.8147 -0.2837
  296SOL    HW2  888   1.911   1.137   1.229  2.8538 -1.0068  0.6909
  297SOL     OW  889   1.838   0.827   2.469  0.6513 -0.3816  0.5624
  297SOL    HW1  890   1.935   0.807   2.448  1.0876 -0.7142 -3.2415
  297SOL    HW2  891   1.802   0.888   2.395  0.6004 -0.9185 -0.8956
  298SOL     OW  892   0.880   0.525   2.584 -0.7721  0.2904 -0.4533
  298SOL    HW1  893   0.939   0.473   2.648 -3.6972  2.4548 -1.0393
  298SOL    HW2  894   0.933   0.572   2.509 -0.1122  0.4656 -0.8294
  299SOL     OW  895   1.301   0.357   2.033 -0.5228 -0.0008  0.2178
  299SOL    HW1  896   1.203   0.343   2.007 -1.6165 -0.2901 -0.2454
  299SOL    HW2  897   1.305   0.416   2.117  1.6433  3.2793  0.3201
  300SOL     OW  898   2.473   0.047   1.812  0.3310 -0.0980 -0.5969
  300SOL    HW1  899   2.457  -0.013   1.731  0.8080 -0.6940  1.5808
  300SOL    HW2  900   2.566   0.090   1.808 -0.0692 -0.5608  1.3192
  301SOL     OW  901   1.795   0.804   1.660 -0.1223 -0.1866  0.0258
  301SOL    HW1  902   1.723   0.875   1.650  2.2769 -0.3247  0.9391
  301SOL    HW2  903   1.827   0.804   1.758 -1.4895 -3.0189 -0.6877
  302SOL     OW  904   0.675   2.783   2.444  0.0291  0.2674 -0.7402
  302SOL    HW1  905   0.600   2.759   2.379 -1.2054 -3.1616 -0.3696
  302SOL    HW2  906   0.762   2.792   2.390 -3.7206  1.8493  0.4321
  303SOL     OW  907   1.642   1.934   1.658 -0.3035  0.1337 -0.0938
  303SOL    HW1  908   1.700   1.895   1.584  1.2788  2.3086 -1.1973
  303SOL    HW2  909   1.544   1.904   1.645  0.5391  1.3442 -0.7706
  304SOL     OW  910   0.188   2.830   0.684  0.1003  0.2205  0.0877
  304SOL    HW1  911   0.258   2.755   0.670  1.3311  1.3118  2.5924
  304SOL    HW2  912   0.097   2.787   0.701  0.1789  0.2647 -1.7568
  305SOL     OW  913   1.408   0.689   0.426 -0.6766 -0.0441 -0.2886
  305SOL    HW1  914   1.409   0.789   0.407  2.8708  0.0127 -1.2615
  305SOL    HW2  915   1.395   0.670   0.526 -0.3478 -0.4813  0.1601
  306SOL     OW  916   0.384   1.610   0.115 -0.2114 -0.3119  0.2176
  306SOL    HW1  917   0.480   1.625   0.148 -0.7764  0.8773  0.7144
  306SOL    HW2  918   0.331   1.540   0.168 -0.8295  2.6487  0.4974
  307SOL     OW  919   0.590   0.987   1.771  0.0695 -0.1997  0.6321
  307SOL    HW1  920   0.656   0.982   1.694 -0.6789 -0.7208 -0.4631
  307SOL    HW2  921   0.530   0.905   1.760  0.8738  2.9185 -1.4763
  308SOL     OW  922   0.716   0.159   1.107 -0.4089 -0.0692  0.4074
  308SOL    HW1  923   0.650   0.194   1.037 -0.5412 -1.2511 -0.1539
  308SOL    HW2  924   0.721   0.226   1.185  1.6345 -0.3083 -2.3069
  309SOL     OW  925   2.102   0.763   0.114 -0.0669  0.0923 -0.0375
  309SOL    HW1  926   2.192   0.722   0.138  1.7100  0.0710  0.7849
  309SOL    HW2  927   2.120   0.832   0.039 -0.3330 -1.9933 -3.5954
  310SOL     OW  928   1.085   1.057   0.075 -0.1824  0.1280 -0.4457
  310SOL    HW1  929   1.053   1.105  -0.010  1.1351 -1.1261 -1.9838
  310SOL    HW2  930   1.113   1.131   0.140  1.8907 -1.8619 -0.8594
  311SOL     OW  931   1.669   2.273   2.554 -0.0436 -0.0799 -0.3173
  311SOL    HW1  932   1.585   2.227   2.516 -2.1245 -1.8160 -0.4337
  311SOL    HW2  933   1.702   2.338   2.484  2.4893 -1.0540  1.3698
  312SOL     OW  934   2.054   2.980   2.986 -0.3004 -0.1171  0.5603
  312SOL    HW1  935   2.028   3.077   2.966  2.3436  1.9468  1.4215
  312SOL    HW2  936   2.045   2.967   3.088  2.7842  0.0359 -2.5063
  313SOL     OW  937   0.383   0.402   0.633  0.1129  0.0273 -0.5040
  313SOL    HW1  938   0.317   0.464   0.681  1.8529 -1.4122  0.6289
  313SOL    HW2  939   0.449   0.455   0.576 -0.9243  1.1360  1.7696
  314SOL     OW  940   2.566   1.289   2.840 -0.7273 -0.2837 -0.5608
  314SOL    HW1  941   2.626   1.224   2.792 -1.3784 -0.2299 -1.1176
  314SOL    HW2  942   2.602   1.384   2.825  0.4958  0.2282 -0.1573
  315SOL     OW  943   1.895   0.830   1.908 -0.1897 -0.1141 -0.6286
  315SOL    HW1  944   1.900   0.756   1.979  1.1921  0.6469 -0.0270
  315SOL    HW2  945   1.862   0.916   1.952  1.0794  0.5813  1.0513
  316SOL     OW  946   0.002   0.860   0.860  0.0756  0.5851 -1.5923
  316SOL    HW1  947  -0.073   0.928   0.851  0.4406  3.0901 -2.2862
  316SOL    HW2  948   0.041   0.842   0.767  0.5343 -0.2983 -1.0890
  317SOL     OW  949   0.461   0.315   0.091  0.0920  0.0668 -0.4281
  317SOL    HW1  950   0.485   0.291   0.187 -2.4022 -0.5361  1.5294
  317SOL    HW2  951   0.503   0.245   0.029 -0.5127  2.8389  2.6463
  318SOL     OW  952   2.592   2.789   1.330 -0.3762  0.6542 -0.7137
  318SOL    HW1  953   2.604   2.701   1.280 -0.7809  1.4135 -0.3003
  318SOL    HW2  954   2.581   2.775   1.431 -1.6145 -1.7449  0.7712
  319SOL     OW  955   1.220   1.743   0.201 -0.0825  0.4518  0.5890
  319SOL    HW1  956   1.196   1.838   0.171  0.9189 -3.3184  2.1438
  319SOL    HW2  957   1.159   1.718   0.278  1.9947  0.5624 -0.9612
  320SOL     OW  958   0.657   2.135   1.070  0.2553  0.9577  0.7147
  320SOL    HW1  959   0.659   2.136   1.172 -1.7883 -1.4585  0.5773
  320SOL    HW2  960   0.570   2.180   1.041  1.4544 -1.5763  0.7407
  321SOL     OW  961   2.200   2.287   2.421  0.2366  0.0309 -0.0526
  321SOL    HW1  962   2.118   2.309   2.363  1.8632 -0.6624  3.2477
  321SOL    HW2  963   2.280   2.269   2.359  2.4494  0.7091 -3.0073
  322SOL     OW  964   2.901   2.464   2.333  0.5097  0.2234 -0.1949
  322SOL    HW1  965   2.980   2.457   2.398  1.5365 -4.3763  0.0815
  322SOL    HW2  966   2.837   2.528   2.382  0.9206 -2.9267 -1.0701
  323SOL     OW  967   2.717   0.382   0.879  0.3194 -0.4786  0.7199
  323SOL    HW1  968   2.800   0.399   0.821  0.4986  2.4435  1.5772
  323SOL    HW2  969   2.633   0.405   0.825  0.4155 -0.0837  0.0457
  324SOL     OW  970   2.521   1.728   2.371  0.0621  0.4920 -0.0853
  324SOL    HW1  971   2.500   1.683   2.282  0.5667  0.9058 -0.8905
  324SOL    HW2  972   2.510   1.662   2.448  0.4488  4.3451 -1.3101
  325SOL     OW  973   1.600   0.442   2.302 -0.2149 -0.1632 -0.0059
  325SOL    HW1  974   1.626   0.515   2.370 -2.1817 -0.8653 -1.1835
  325SOL    HW2  975   1.632   0.467   2.208  1.8153 -0.0817  0.5909
  326SOL     OW  976   2.859   2.142   0.564 -0.0008  0.2652 -0.3011
  326SOL    HW1  977   2.820   2.189   0.646 -2.9106  1.9891  1.1757
  326SOL    HW2  978   2.941   2.194   0.534  2.7298  3.1258  0.7223
  327SOL     OW  979   2.536   3.051   0.009 -0.0073  0.0133 -0.0757
  327SOL    HW1  980   2.452   2.992   0.007  0.0901  0.2326 -1.2659
  327SOL    HW2  981   2.608   3.003  -0.046 -1.0854  1.5868 -1.6231
  328SOL     OW  982   0.892   0.591   0.745 -0.1949  0.5524 -0.1096
  328SOL    HW1  983   0.842   0.623   0.662  1.2896 -0.4178 -2.8734
  328SOL    HW2  984   0.982   0.554   0.714  1.9810 -1.6084  1.2829
  329SOL     OW  985   2.050   0.776   1.581  0.0289  0.2503 -0.5305
  329SOL    HW1  986   1.955   0.783   1.618  0.4686 -1.2738  0.9677
  329SOL    HW2  987   2.071   0.858   1.524 -0.5409  2.2060 -1.6277
  330SOL     OW  988   1.265   0.267   0.627  0.4507 -0.5063 -0.5159
  330SOL    HW1  989   1.223   0.358   0.643  0.8657  1.2977  0.1524
  330SOL    HW2  990   1.352   0.288   0.577 -1.1672 -2.2242 -0.5640
  331SOL     OW  991   0.519   1.926   1.931 -0.8126  0.0992 -0.0286
  331SOL    HW1  992   0.597   1.925   1.866 -2.6528 -3.1266 -0.3876
  331SOL    HW2  993   0.483   2.019   1.956 -0.0988  2.0269 -0.3775
  332SOL     OW  994   2.220   1.969   1.666 -0.2126 -0.4717 -0.2562
  332SOL    HW1  995   2.182   1.894   1.725  0.1587  0.9968 -1.2736
  332SOL    HW2  996   2.313   1.940   1.641 -3.0107 -0.3738  0.1460
  333SOL     OW  997   2.864   3.020   0.900  0.8603  0.0946  0.1655
  333SOL    HW1  998   2.786   3.075   0.936  0.9774  0.8128 -0.9658
  333SOL    HW2  999   2.907   3.072   0.824 -2.2666 -1.4448  0.9181
  334SOL     OW 1000   2.868   1.612   1.016  0.2279  0.0469 -0.0605
  334SOL    HW1 1001   2.963   1.614   1.056 -1.6471  1.3869 -0.2325
  334SOL    HW2 1002   2.875   1.565   0.926 -1.5355 -1.3446 -0.0837
  335SOL     OW 1003   0.547   2.991   2.564  0.1080  0.2473 -0.3884
  335SOL    HW1 1004   0.464   2.947   2.604 -1.3701 -0.0753  1.7118
  335SOL    HW2 1005   0.606   2.917   2.524 -0.3731  0.1762 -0.8013
  336SOL     OW 1006   0.114   2.672   1.581  0.0482 -0.4036 -0.5428
  336SOL    HW1 1007   0.068   2.732   1.513  2.0863  1.2286 -0.2294
  336SOL    HW2 1008   0.112   2.714   1.674  1.0089 -0.8066  1.8102
  337SOL     OW 1009   0.899   1.885   2.296  0.1730 -0.5866 -0.0402
  337SOL    HW1 1010   0.902   1.974   2.344  0.7866  0.8946 -2.3517
  337SOL    HW2 1011   0.814   1.878   2.238  0.8727 -2.3969 -0.2762
  338SOL     OW 1012   1.148   2.891   2.435 -0.5148  0.0984 -0.0112
  338SOL    HW1 1013   1.239   2.849   2.411 -2.2795  0.4745  2.1287
  338SOL    HW2 1014   1.121   2.868   2.531  1.0635 -1.0246 -0.6961
  339SOL     OW 1015   3.010   1.499   2.973 -0.0595 -0.0899  0.1764
  339SOL    HW1 1016   3.016   1.423   2.903  0.7529 -0.3827  0.0277
  339SOL    HW2 1017   3.057   1.583   2.939  0.2723  1.4307  2.7004
  340SOL     OW 1018   1.919   0.504   1.308 -0.1860  0.3832  0.0911
  340SOL    HW1 1019   1.930   0.504   1.206 -1.2898  1.4167  1.9219
  340SOL    HW2 1020   2.011   0.529   1.346  0.6425 -0.7232  1.2082
  341SOL     OW 1021   1.869   1.206   0.915  0.5807 -0.6941 -0.2566
  341SOL    HW1 1022   1.892   1.277   0.846  1.5839  0.4491 -3.1565
  341SOL    HW2 1023   1.891   1.113   0.879  1.7273  2.3746 -0.9269
  342SOL     OW 1024   2.211   2.167   2.660  0.4662  0.4237 -0.8541
  342SOL    HW1 1025   2.213   2.065   2.652  2.5255 -0.4253 -1.1854
  342SOL    HW2 1026   2.205   2.202   2.564  0.3390 -1.5367  0.1728
  343SOL     OW 1027   2.967   2.602   1.057  0.4206 -0.3306 -0.2488
  343SOL    HW1 1028   2.962   2.520   0.996  3.5234 -0.1407 -2.3829
  343SOL    HW2 1029   2.962   2.570   1.154 -1.0779 -0.4432 -1.4751
  344SOL     OW 1030   2.574   2.703   0.799 -0.0138  0.4324 -0.1082
  344SOL    HW1 1031   2.505   2.753   0.856  2.2525 -0.9733 -0.1843
  344SOL    HW2 1032   2.670   2.718   0.834 -0.3332 -1.6660  2.2042
  345SOL     OW 1033   2.478   2.168   0.300 -0.2861 -0.1705  0.1446
  345SOL    HW1 1034   2.377   2.158   0.318 -0.7726 -0.9695  0.1249
  345SOL    HW2 1035   2.506   2.266   0.299  0.7055 -1.2968 -0.5897
  346SOL     OW 1036   1.072   2.253   2.013  0.4329 -0.5676  0.2780
  346SOL    HW1 1037   1.039   2.323   2.080  0.2255 -1.8953 -0.9795
  346SOL    HW2 1038   1.054   2.286   1.918 -1.5953 -1.5957  0.7263
  347SOL     OW 1039   1.665   1.951   2.213 -0.2969 -0.4284  0.3024
  347SOL    HW1 1040   1.631   2.045   2.234  3.2454  1.6570  0.3033
  347SOL    HW2 1041   1.644   1.929   2.116  0.1344  1.3091 -1.0982
  348SOL     OW 1042   0.431   1.859   1.172 -0.1053 -0.1928 -0.5240
  348SOL    HW1 1043   0.395   1.922   1.100 -0.1000 -1.0869 -0.9459
  348SOL    HW2 1044   0.532   1.850   1.159  1.1311  1.3859 -0.0633
  349SOL     OW 1045   1.593   1.391   1.579 -0.0438 -0.1403 -0.5384
  349SOL    HW1 1046   1.642   1.477   1.553  1.6450 -3.7469  1.5282
  349SOL    HW2 1047   1.509   1.379   1.520  0.9718 -1.3703 -0.2159
  350SOL     OW 1048   2.225   2.173   0.620 -0.1585 -0.0844 -0.1706
  350SOL    HW1 1049   2.126   2.163   0.643 -1.3858 -0.4810  2.6694
  350SOL    HW2 1050   2.252   2.267   0.649  1.6378 -0.0786 -3.1851
  351SOL     OW 1051   0.435   0.123   1.652  0.0525 -0.3557 -0.6130
  351SOL    HW1 1052   0.476   0.122   1.746 -0.9181  2.7371  0.4854
  351SOL    HW2 1053   0.334   0.135   1.665 -0.3101 -0.0645  1.0409
  352SOL     OW 1054   0.586   1.080   0.309 -0.6179 -0.2390 -0.2115
  352SOL    HW1 1055   0.561   1.178   0.293 -0.4530 -0.6002  0.5883
  352SOL    HW2 1056   0.621   1.034   0.225 -0.4129  0.7513  0.0949
  353SOL     OW 1057   0.722   1.448   2.746 -0.4410 -0.3016 -0.4935
  353SOL    HW1 1058   0.755   1.543   2.730  2.1872  0.1227  1.4833
  353SOL    HW2 1059   0.757   1.376   2.682  2.4678 -0.0899 -0.6173
  354SOL     OW 1060   1.779   2.280   1.806 -0.3693  0.0016 -0.2488
  354SOL    HW1 1061   1.802   2.377   1.780 -0.2572 -1.7084  1.1348
  354SOL    HW2 1062   1.858   2.233   1.848  2.0687 -0.7163 -2.2529
  355SOL     OW 1063   2.237   0.828   2.756  0.2171  0.2238 -0.0694
  355SOL    HW1 1064   2.244   0.729   2.784 -0.8314 -3.7090 -3.0955
  355SOL    HW2 1065   2.202   0.833   2.660  1.5622 -0.5690  1.7786
  356SOL     OW 1066   0.682   2.131   1.344 -0.0337  0.6171  0.3440
  356SOL    HW1 1067   0.714   2.225   1.368  1.6341  0.7065  0.5352
  356SOL    HW2 1068   0.646   2.082   1.426  1.0021 -0.2323  0.9090
  357SOL     OW 1069   0.172   0.174   1.717  0.2943  0.8478 -0.1666
  357SOL    HW1 1070   0.128   0.124   1.795 -0.3011 -1.8251 -0.7033
  357SOL    HW2 1071   0.184   0.274   1.734  0.6780 -1.4202 -1.2877
  358SOL     OW 1072   2.500   1.943   1.497  0.3903  0.0844 -0.0001
  358SOL    HW1 1073   2.511   1.875   1.421  2.3339 -3.3840  0.5929
  358SOL    HW2 1074   2.527   2.034   1.460 -1.2942 -1.5982  1.6197
  359SOL     OW 1075   2.175   1.855   2.163  0.7903  0.8104 -0.3753
  359SOL    HW1 1076   2.080   1.881   2.193 -0.7230  0.9347 -1.0157
  359SOL    HW2 1077   2.209   1.927   2.098  1.6851 -0.3357  2.2894
  360SOL     OW 1078   1.317   2.683   0.794 -0.5996  0.1001  0.1122
  360SOL    HW1 1079   1.269   2.687   0.885 -0.7222 -0.5308  3.8909
  360SOL    HW2 1080   1.325   2.776   0.752 -0.4757 -1.0737  1.0049
  361SOL     OW 1081   2.035   2.949   0.187  0.2188  0.4005 -0.4421
  361SOL    HW1 1082   1.946   2.909   0.219  0.1866  0.9782 -0.7025
  361SOL    HW2 1083   2.115   2.889   0.213 -0.2017  2.1695 -2.8565
  362SOL     OW 1084   1.760   0.702   1.408  0.3127  0.0413 -0.8280
  362SOL    HW1 1085   1.791   0.730   1.501  0.9338  1.7382 -2.8101
  362SOL    HW2 1086   1.814   0.622   1.375  2.0485  2.1468  1.7481
  363SOL     OW 1087   1.759   1.500   2.156 -0.4137 -0.2653 -0.0172
  363SOL    HW1 1088   1.681   1.519   2.219 -0.0422  1.9158 -2.3061
  363SOL    HW2 1089   1.844   1.492   2.212  0.5031  3.6171  2.8715
  364SOL     OW 1090   0.577   0.593   1.520 -0.6032 -0.0179  0.3388
  364SOL    HW1 1091   0.575   0.492   1.533  0.9350 -0.1563  0.2398
  364SOL    HW2 1092   0.544   0.618   1.426  2.2755  0.2739  2.1517
  365SOL     OW 1093   0.893   0.753   2.764 -0.1110 -0.0334  1.1658
  365SOL    HW1 1094   0.878   0.706   2.675  0.1748 -0.3502 -0.8052
  365SOL    HW2 1095   0.878   0.854   2.753 -0.8664 -0.0045 -0.4963
  366SOL     OW 1096   2.267   1.167   2.663  0.6239 -0.0134  0.5037
  366SOL    HW1 1097   2.336   1.112   2.714 -1.2838  0.5573 -1.5608
  366SOL    HW2 1098   2.193   1.189   2.731  0.0166  2.0036 -2.4056
  367SOL     OW 1099   0.011   2.631   2.190  0.0297  0.5804  0.0315
  367SOL    HW1 1100  -0.062   2.576   2.235 -0.4782 -2.1096  1.0949
  367SOL    HW2 1101  -0.029   2.711   2.143  0.6546  0.3545  2.3834
  368SOL     OW 1102   2.937   1.098   1.364  0.1456 -0.2771 -0.1645
  368SOL    HW1 1103   2.839   1.105   1.336  0.8817 -1.4738 -1.5760
  368SOL    HW2 1104   2.942   1.097   1.467  2.6575  0.6051 -0.3022
  369SOL     OW 1105   0.419   2.893   2.089 -0.3114  0.2139 -0.1808
  369SOL    HW1 1106   0.467   2.876   2.000  0.9747  1.4099 -2.5438
  369SOL    HW2 1107   0.446   2.985   2.127 -1.3493  0.7562 -0.9143
  370SOL     OW 1108   2.730   0.244   0.567  0.6836 -0.1541  0.2938
  370SOL    HW1 1109   2.675   0.326   0.547 -0.5346  0.8052 -0.2742
  370SOL    HW2 1110   2.683   0.180   0.631  2.4444  1.8034 -0.1146
  371SOL     OW 1111   0.770   2.364   1.440 -0.4009 -0.2134 -0.2862
  371SOL    HW1 1112   0.871   2.349   1.450  0.4083  0.7976  2.9618
  371SOL    HW2 1113   0.724   2.365   1.531  3.2370  0.3778 -2.0712
  372SOL     OW 1114   2.176   0.277   2.362  0.0889  0.8422  0.1475
  372SOL    HW1 1115   2.194   0.320   2.452  0.5945 -2.0887  0.0856
  372SOL    HW2 1116   2.083   0.237   2.366 -0.8529 -1.3314 -0.2110
  373SOL     OW 1117   0.134   2.238   0.786 -0.4082  0.0938 -0.0527
  373SOL    HW1 1118   0.163   2.317   0.844  2.0781 -0.8514  1.4677
  373SOL    HW2 1119   0.046   2.207   0.824 -2.9900 -1.1001 -0.2949
  374SOL     OW 1120   2.868   0.321   2.229 -0.5456  0.6616  0.0352
  374SOL    HW1 1121   2.788   0.290   2.284 -1.1472  0.8419  1.3294
  374SOL    HW2 1122   2.921   0.387   2.288  0.7408 -0.8670  0.0868
  375SOL     OW 1123   0.571   0.614   2.771  0.4250 -0.0812 -0.2942
  375SOL    HW1 1124   0.503   0.537   2.772 -0.6734  3.1724  0.4704
  375SOL    HW2 1125   0.660   0.580   2.808  1.3630  0.3425  1.2262
  376SOL     OW 1126   2.848   2.323   1.726 -0.4951  1.1009  0.0872
  376SOL    HW1 1127   2.929   2.363   1.676  0.4197  0.3244 -1.3132
  376SOL    HW2 1128   2.763   2.330   1.670 -0.4448 -2.0970 -0.5620
  377SOL     OW 1129   1.087   0.408   2.722 -0.4169 -1.2042 -0.1686
  377SOL    HW1 1130   1.056   0.314   2.749 -1.3089 -0.4911 -0.3421
  377SOL    HW2 1131   1.140   0.402   2.633 -0.4667  1.3428 -0.7374
  378SOL     OW 1132   2.944   1.048   2.799 -0.3458  0.4911  0.3448
  378SOL    HW1 1133   3.004   0.970   2.777  1.1811 -0.7439  0.7255
  378SOL    HW2 1134   2.856   1.041   2.748  2.6220  1.0696  1.7687
  379SOL     OW 1135   1.374   0.663   2.537 -0.3574  0.4513  0.2785
  379SOL    HW1 1136   1.304   0.642   2.467  0.8470 -0.9882 -1.3506
  379SOL    HW2 1137   1.340   0.733   2.604  0.7002  2.2767 -0.0523
  380SOL     OW 1138   0.243   2.008   1.566  0.1888  0.2328 -0.2432
  380SOL    HW1 1139   0.305   2.060   1.629 -2.5242  0.3281 -0.2168
  380SOL    HW2 1140   0.151   1.999   1.614 -0.8509  0.4125 -1.6444
  381SOL     OW 1141   3.041   1.308   2.783  0.2343 -0.3870 -0.3523
  381SOL    HW1 1142   3.075   1.323   2.688 -2.4516 -0.6445  0.8282
  381SOL    HW2 1143   3.009   1.211   2.793  0.3446 -0.4964  0.1179
  382SOL     OW 1144   1.959   2.158   0.664  0.0191  0.1855  0.0006
  382SOL    HW1 1145   1.875   2.112   0.628 -1.7970  0.2700  0.3211
  382SOL    HW2 1146   1.948   2.170   0.764  2.6023 -3.1017  0.1654
  383SOL     OW 1147   0.631   1.653   0.210 -0.3584 -0.3029  0.0236
  383SOL    HW1 1148   0.711   1.631   0.152 -2.3735 -0.7104 -0.3110
  383SOL    HW2 1149   0.642   1.596   0.295 -0.3205 -1.1978  0.9183
  384SOL     OW 1150   0.810   2.408   2.390  0.5593  0.4026  0.1784
  384SOL    HW1 1151   0.713   2.436   2.371 -0.4404  5.8574  0.9828
  384SOL    HW2 1152   0.810   2.307   2.409 -1.4965  1.1391  0.1181
  385SOL     OW 1153   2.399   1.963   0.632  0.4283  0.1956 -0.1291
  385SOL    HW1 1154   2.338   2.046   0.636  0.5208  4.1251 -0.1479
  385SOL    HW2 1155   2.485   1.983   0.580 -3.2686  0.0698  1.1710
  386SOL     OW 1156   2.375   0.551   0.981 -0.4008 -0.6529 -0.2776
  386SOL    HW1 1157   2.336   0.461   1.013 -1.2051 -1.4323 -3.0972
  386SOL    HW2 1158   2.328   0.585   0.897  0.7196 -0.4092 -0.1007
  387SOL     OW 1159   0.721   0.998   2.008  0.0698  1.0730  0.0615
  387SOL    HW1 1160   0.658   1.028   2.082  0.3390 -0.7104  1.5340
  387SOL    HW2 1161   0.665   0.992   1.922 -1.1048 -2.0423  0.8436
  388SOL     OW 1162   1.006   1.441   2.470 -0.4548 -0.2352 -0.3494
  388SOL    HW1 1163   0.931   1.509   2.456  1.1108  3.8431 -1.2181
  388SOL    HW2 1164   1.098   1.485   2.462  0.7828  2.3234 -1.1562
  389SOL     OW 1165   1.015   1.276   1.755 -0.5752 -0.1838 -0.1257
  389SOL    HW1 1166   0.970   1.185   1.771 -0.7022  1.5029  0.5125
  389SOL    HW2 1167   0.983   1.318   1.667  2.0314  1.0708  1.3608
  390SOL     OW 1168   0.025   3.037   1.049 -0.4649 -0.3985 -0.1463
  390SOL    HW1 1169  -0.067   3.021   1.007 -0.0214  2.9858 -0.4935
  390SOL    HW2 1170   0.073   3.111   0.997 -1.1100 -1.8842 -1.2575
  391SOL     OW 1171   1.530   1.245   1.058 -0.5765  0.5539  0.4164
  391SOL    HW1 1172   1.508   1.225   0.960 -0.6489  1.0537 -4.6879
  391SOL    HW2 1173   1.611   1.305   1.073  0.7697  1.0448 -2.5847
  392SOL     OW 1174   2.888   3.035   0.205  0.1091 -0.5712 -0.0196
  392SOL    HW1 1175   2.976   3.014   0.159 -0.7170 -2.3636  2.0399
  392SOL    HW2 1176   2.831   2.949   0.212  0.5218  0.8460  2.0612
  393SOL     OW 1177   1.562   2.133   2.973 -0.1155 -0.2892 -0.5067
  393SOL    HW1 1178   1.571   2.033   2.952  2.3177 -0.6697 -1.6256
  393SOL    HW2 1179   1.477   2.144   3.030  3.0148  0.8837 -0.4975
  394SOL     OW 1180   0.015   2.466   2.742  0.4714 -0.0466  0.2372
  394SOL    HW1 1181   0.032   2.454   2.642 -2.0294  0.1254  0.0017
  394SOL    HW2 1182  -0.055   2.396   2.770 -2.7758 -0.1465 -0.0430
  395SOL     OW 1183   0.148   0.156   0.893 -0.7026  0.1500 -0.2554
  395SOL    HW1 1184   0.197   0.237   0.932 -2.1110 -1.5540 -0.4631
  395SOL    HW2 1185   0.216   0.084   0.864  0.5437  2.9092  1.2506
  396SOL     OW 1186   2.154   0.598   0.498 -0.0712 -0.1356 -0.2774
  396SOL    HW1 1187   2.075   0.574   0.437  1.7625  0.0039 -1.3516
  396SOL    HW2 1188   2.241   0.561   0.458  2.8643  1.4606 -0.7708
  397SOL     OW 1189   0.117   0.700   2.552 -0.0932  0.7885 -0.6617
  397SOL    HW1 1190   0.078   0.719   2.645 -0.1556  1.0585  0.5412
  397SOL    HW2 1191   0.115   0.788   2.500  1.8378  0.6674 -0.4091
  398SOL     OW 1192   0.578   0.135   2.987  0.4763 -0.6364  0.3717
  398SOL    HW1 1193   0.516   0.125   2.907 -0.7504  0.7449  1.8153
  398SOL    HW2 1194   0.663   0.189   2.963  0.4383 -0.4690  0.0543
  399SOL     OW 1195   2.021   0.256   2.020 -0.5975 -0.4743 -0.0422
  399SOL    HW1 1196   1.974   0.172   2.055  1.4443 -0.0033 -0.2086
  399SOL    HW2 1197   2.022   0.254   1.919 -1.4588 -0.4382 -2.0374
  400SOL     OW 1198   0.965   2.155   2.850  0.4760 -0.0903 -0.3376
  400SOL    HW1 1199   0.986   2.180   2.754  0.9494  0.1208 -0.0043
  400SOL    HW2 1200   0.943   2.240   2.903 -0.2848 -1.9192 -1.5101
  401SOL     OW 1201   0.301   1.228   2.461 -0.1784 -0.0021  0.0350
  401SOL    HW1 1202   0.257   1.200   2.373  1.6547  0.1721  0.0533
  401SOL    HW2 1203   0.231   1.275   2.516  1.0644 -3.1944  0.6865
  402SOL     OW 1204   0.111   0.095   0.369 -0.2176  0.1176 -0.4608
  402SOL    HW1 1205   0.116  -0.005   0.391 -0.4097 -3.2411 -1.2096
  402SOL    HW2 1206   0.015   0.128   0.378 -0.4433 -1.3520 -0.6514
  403SOL     OW 1207   0.290   1.216   1.559  0.4029 -0.1147  0.8489
  403SOL    HW1 1208   0.386   1.187   1.537 -0.1391  0.9381 -0.2805
  403SOL    HW2 1209   0.228   1.210   1.478  0.3493  1.0606 -0.2609
  404SOL     OW 1210   2.278   2.507   2.554  0.2462 -0.4000  0.5068
  404SOL    HW1 1211   2.205   2.551   2.611 -2.0409  0.2410  3.4458
  404SOL    HW2 1212   2.235   2.429   2.503  1.2397 -1.3273 -3.2605
  405SOL     OW 1213   0.191   0.442   2.016 -0.1182  0.1284  0.3520
  405SOL    HW1 1214   0.125   0.370   2.048 -1.7296 -0.9678 -1.2246
  405SOL    HW2 1215   0.198   0.436   1.914  0.0831 -1.1773  2.8159
  406SOL     OW 1216   1.220   1.511   2.848  0.5809 -0.9227  0.0155
  406SOL    HW1 1217   1.293   1.577   2.817  0.9124 -1.7995  0.6178
  406SOL    HW2 1218   1.219   1.513   2.951 -0.7119 -1.6508 -2.0688
  407SOL     OW 1219   1.939   0.406   2.517 -0.0362 -0.2330 -0.3777
  407SOL    HW1 1220   1.921   0.333   2.448  0.4588  3.0885 -1.3642
  407SOL    HW2 1221   1.857   0.426   2.574 -2.1570  1.6674  0.3455
  408SOL     OW 1222   0.451   2.720   2.297  0.1199 -0.1737  0.2313
  408SOL    HW1 1223   0.358   2.705   2.338  1.4581  0.7208  1.0901
  408SOL    HW2 1224   0.444   2.780   2.215  0.6981 -0.9222  2.3964
  409SOL     OW 1225   2.994   2.533   1.319 -0.7578 -0.6350 -0.6528
  409SOL    HW1 1226   3.024   2.628   1.347  0.6043  0.3635  2.2315
  409SOL    HW2 1227   2.914   2.506   1.376 -0.0403  0.1390 -2.7163
  410SOL     OW 1228   2.931   1.729   0.357  0.8185  0.0747  0.2804
  410SOL    HW1 1229   3.018   1.780   0.343 -0.8953 -1.8275  0.0146
  410SOL    HW2 1230   2.949   1.628   0.359 -2.0349 -3.1846  0.3646
  411SOL     OW 1231   2.417   0.123   1.494 -0.7084  0.5103  0.0875
  411SOL    HW1 1232   2.328   0.170   1.483  2.5264 -1.7616 -1.5860
  411SOL    HW2 1233   2.402   0.028   1.530  0.2991  0.0500 -1.1845
  412SOL     OW 1234   2.251   0.390   1.539 -0.1412  0.2415 -0.1290
  412SOL    HW1 1235   2.181   0.317   1.519 -0.9616 -1.0507 -1.8881
  412SOL    HW2 1236   2.229   0.471   1.482  0.6601 -0.4092 -2.6872
  413SOL     OW 1237   3.014   0.469   2.400  0.2154 -0.0146 -0.0171
  413SOL    HW1 1238   3.044   0.561   2.431  0.0236 -0.5647  2.6354
  413SOL    HW2 1239   3.046   0.398   2.466 -0.1362  0.3305  0.4884
  414SOL     OW 1240   2.697   1.429   0.265  0.5255 -0.2065  0.1692
  414SOL    HW1 1241   2.655   1.355   0.322 -0.7339  0.1213 -0.5046
  414SOL    HW2 1242   2.678   1.515   0.315 -1.0015  0.2591 -0.8838
  415SOL     OW 1243   0.773   2.464   0.174  0.1842  0.1735  0.5853
  415SOL    HW1 1244   0.831   2.548   0.186  1.6555 -1.0243  0.3523
  415SOL    HW2 1245   0.789   2.401   0.252  2.2553 -0.5146 -0.1079
  416SOL     OW 1246   1.465   2.685   2.618 -0.6397 -0.2477  0.1607
  416SOL    HW1 1247   1.411   2.612   2.667 -0.0572  2.5563 -0.4762
  416SOL    HW2 1248   1.554   2.707   2.662 -2.4573  0.3264 -2.9680
  417SOL     OW 1249   0.264   0.979   1.254 -0.4621  0.0982  0.2432
  417SOL    HW1 1250   0.252   0.968   1.153  0.0606  0.7594  0.3235
  417SOL    HW2 1251   0.360   0.962   1.283  0.8464 -1.7575  0.7575
  418SOL     OW 1252   2.604   0.067   0.735  0.5463  0.3114 -0.7760
  418SOL    HW1 1253   2.513   0.021   0.739 -0.8592  1.0858  0.9669
  418SOL    HW2 1254   2.630   0.093   0.830  0.2942  2.0825 -1.2048
  419SOL     OW 1255   0.277   0.030   0.165 -0.1874 -0.0169  0.1580
  419SOL    HW1 1256   0.218   0.070   0.239 -1.5210  0.1618 -2.8617
  419SOL    HW2 1257   0.370   0.010   0.203 -1.3670 -1.6901  0.6744
  420SOL     OW 1258   0.122   1.191   1.335 -0.3968 -0.1093 -0.2949
  420SOL    HW1 1259   0.181   1.113   1.302 -1.8848  1.0513  2.6684
  420SOL    HW2 1260   0.026   1.157   1.342  0.5440  1.4412 -0.9545
  421SOL     OW 1261   1.763   2.606   0.647  0.1024 -0.4916 -0.8729
  421SOL    HW1 1262   1.806   2.519   0.613 -0.8739 -2.7718 -0.2045
  421SOL    HW2 1263   1.674   2.585   0.691  1.9244  0.1110  0.0397
  422SOL     OW 1264   0.191   0.392   1.482  0.0212 -0.2668 -0.5799
  422SOL    HW1 1265   0.254   0.389   1.401 -1.4809 -0.6033 -0.1592
  422SOL    HW2 1266   0.108   0.449   1.462 -0.3979 -0.3159 -2.4501
  423SOL     OW 1267   1.041   1.388   1.999 -0.4121  0.1458 -0.2894
  423SOL    HW1 1268   1.044   1.346   1.906  0.3370 -1.7883  4.0374
  423SOL    HW2 1269   1.037   1.490   1.991  0.5345 -1.3436  0.4512
  424SOL     OW 1270   1.712   2.074   0.601 -0.2069 -0.5085 -0.3664
  424SOL    HW1 1271   1.676   2.050   0.509 -0.1626 -0.3137  1.1391
  424SOL    HW2 1272   1.672   2.015   0.675  0.4631 -0.3827  0.3793
  425SOL     OW 1273   2.849   2.877   2.051 -0.2328 -0.1928 -0.3346
  425SOL    HW1 1274   2.749   2.867   2.074 -0.3856 -2.5832  0.3680
  425SOL    HW2 1275   2.860   2.938   1.969 -2.3254 -1.8678  0.0698
  426SOL     OW 1276   0.332   2.877   2.671  0.7075  0.3938 -0.2633
  426SOL    HW1 1277   0.303   2.882   2.769 -0.6154 -1.2475 -0.6637
  426SOL    HW2 1278   0.252   2.902   2.612  1.7722 -1.9110  0.0758
  427SOL     OW 1279   1.007   3.011   0.076 -0.7632 -0.1438  0.1786
  427SOL    HW1 1280   0.930   3.042   0.135 -3.4006 -0.2151  0.3521
  427SOL    HW2 1281   0.977   2.928   0.024  0.1073  1.2904  0.5225
  428SOL     OW 1282   2.792   0.496   1.520  0.3516  0.0616  0.8242
  428SOL    HW1 1283   2.809   0.401   1.555 -0.5902  1.1599 -0.3054
  428SOL    HW2 1284   2.727   0.492   1.440  0.7050  0.4596 -1.5020
  429SOL     OW 1285   2.067   2.927   0.550  0.4567  0.1918  0.1761
  429SOL    HW1 1286   2.026   2.840   0.513 -1.0893  1.0579  2.0278
  429SOL    HW2 1287   2.162   2.940   0.514  0.9549  0.8548 -0.8652
  430SOL     OW 1288   1.090   1.319   2.708 -0.3670 -0.1347 -0.1174
  430SOL    HW1 1289   1.141   1.392   2.759  0.3823  0.0063 -3.9459
  430SOL    HW2 1290   1.052   1.361   2.623  0.9497 -1.6373 -1.1229
  431SOL     OW 1291   2.743   2.259   1.180  0.4435 -0.7201 -0.0827
  431SOL    HW1 1292   2.844   2.249   1.172  1.2801  2.0682  0.1198
  431SOL    HW2 1293   2.705   2.205   1.101 -0.3584  2.1299  2.1615
  432SOL     OW 1294   1.552   2.330   2.790  0.3575  0.4086 -0.4814
  432SOL    HW1 1295   1.597   2.306   2.702  1.5835 -1.0743  2.4820
  432SOL    HW2 1296   1.551   2.251   2.856  2.6432 -0.0021  0.9689
  433SOL     OW 1297   1.233   0.378   2.496 -0.1102 -0.1956 -0.1560
  433SOL    HW1 1298   1.246   0.412   2.401 -0.8553 -1.2965  0.6794
  433SOL    HW2 1299   1.318   0.373   2.552  1.6026  1.9371  2.0567
  434SOL     OW 1300   1.279   2.742   2.134 -0.0259  0.7356 -0.4260
  434SOL    HW1 1301   1.307   2.754   2.231  0.8750 -1.1465  0.3354
  434SOL    HW2 1302   1.363   2.708   2.087 -1.0915  1.6779  2.2275
  435SOL     OW 1303   0.241   0.076   2.962  0.5164 -0.5999 -0.0324
  435SOL    HW1 1304   0.264   0.075   3.062  2.6391  0.9785 -2.7730
  435SOL    HW2 1305   0.169   0.145   2.945 -0.0164  0.7682  1.7499
  436SOL     OW 1306   0.574   1.242   2.417  0.0452 -0.1830 -0.3469
  436SOL    HW1 1307   0.475   1.253   2.443 -0.0489 -1.9814 -2.4659
  436SOL    HW2 1308   0.597   1.312   2.344 -0.2836  4.1406  0.3464
  437SOL     OW 1309   1.184   2.425   2.541  0.4619  0.4275 -0.1152
  437SOL    HW1 1310   1.228   2.401   2.452 -0.7826  0.5353  0.7758
  437SOL    HW2 1311   1.111   2.496   2.527  1.0919  0.3743 -2.1738
  438SOL     OW 1312   0.600   0.860   0.671  0.0355 -0.2505  0.4366
  438SOL    HW1 1313   0.551   0.807   0.743  4.3479 -0.2842  1.1142
  438SOL    HW2 1314   0.659   0.793   0.621  1.1992  0.4283  0.0600
  439SOL     OW 1315   2.994   1.542   2.046  0.2009  0.1360 -0.1601
  439SOL    HW1 1316   2.925   1.475   2.080  0.0714 -2.0899 -0.7828
  439SOL    HW2 1317   2.955   1.636   2.034 -0.5821  0.3613 -1.4733
  440SOL     OW 1318   2.794   0.773   2.718 -0.1271  0.0118  0.0194
  440SOL    HW1 1319   2.753   0.708   2.652  0.6009 -2.1887  0.8846
  440SOL    HW2 1320   2.754   0.867   2.711  0.4026 -0.6479 -1.0083
  441SOL     OW 1321   0.625   1.789   1.433  0.7758 -0.5763 -0.3182
  441SOL    HW1 1322   0.524   1.781   1.431  0.5801  1.8744 -1.1634
  441SOL    HW2 1323   0.648   1.872   1.487 -0.3064 -1.3820 -0.0464
  442SOL     OW 1324   1.905   1.407   0.739  0.7514  0.5130  0.2769
  442SOL    HW1 1325   1.924   1.393   0.639  1.6316  3.4193 -1.2262
  442SOL    HW2 1326   1.823   1.467   0.752  0.4388 -1.5804  1.0131
  443SOL     OW 1327   2.351   2.079   2.964 -0.0430  0.0907 -0.1413
  443SOL    HW1 1328   2.285   2.008   2.932  0.4107 -1.8473  0.4886
  443SOL    HW2 1329   2.438   2.079   2.908  1.7060 -1.9873 -1.3523
  444SOL     OW 1330   1.706   1.431   2.957 -0.1479  0.4701 -0.0488
  444SOL    HW1 1331   1.660   1.521   2.974  1.3868  1.7474  4.4015
  444SOL    HW2 1332   1.670   1.389   2.872  0.9382  0.6107  0.6655
  445SOL     OW 1333   0.429   2.173   1.990 -0.3658  0.0485 -0.2905
  445SOL    HW1 1334   0.493   2.249   2.014  0.6123  0.0792 -3.2735
  445SOL    HW2 1335   0.354   2.171   2.060 -0.8134 -1.4818  0.4801
  446SOL     OW 1336   0.933   1.021   1.807 -0.6987  0.1219 -0.0128
  446SOL    HW1 1337   1.025   0.977   1.794  0.8383  1.1224 -1.4002
  446SOL    HW2 1338   0.884   0.985   1.888  1.7782  1.7435  1.6579
  447SOL     OW 1339   0.743   0.670   0.535 -0.0555  0.6933  0.1455
  447SOL    HW1 1340   0.665   0.615   0.499  0.2502 -1.6520  0.7080
  447SOL    HW2 1341   0.810   0.696   0.462 -3.7286 -0.6056  0.5402
  448SOL     OW 1342   1.347   1.050   2.012  0.0203 -0.0533  0.1446
  448SOL    HW1 1343   1.312   1.114   1.941  1.5373  1.1484  1.1292
  448SOL    HW2 1344   1.439   1.014   1.986 -2.5390  0.7020 -1.4579
  449SOL     OW 1345   0.167   1.584   2.390 -0.1141 -0.1424 -0.2795
  449SOL    HW1 1346   0.120   1.625   2.471  3.1064 -0.3701  0.3579
  449SOL    HW2 1347   0.168   1.653   2.313  1.7935  2.8920  0.8367
  450SOL     OW 1348   2.171   1.397   1.914 -0.0287  0.0142  0.1950
  450SOL    HW1 1349   2.162   1.472   1.982 -0.7766  0.8210  2.2811
  450SOL    HW2 1350   2.265   1.396   1.873 -0.7331 -2.1556  0.3311
  451SOL     OW 1351   2.353   1.422   1.322  1.0693 -0.7736 -0.1192
  451SOL    HW1 1352   2.398   1.354   1.383  1.7630 -3.7965  1.0382
  451SOL    HW2 1353   2.412   1.446   1.242  0.5348 -0.3096  1.5792
  452SOL     OW 1354   0.784   0.983   1.310  0.3832  0.4227  0.3997
  452SOL    HW1 1355   0.792   0.988   1.412  2.0554 -1.5759  0.9093
  452SOL    HW2 1356   0.877   0.994   1.271 -0.0637  0.3810  1.9149
  453SOL     OW 1357   0.302   1.998   0.976 -0.0755  0.0604  0.4109
  453SOL    HW1 1358   0.217   1.996   1.033  2.3873 -1.1333 -0.4669
  453SOL    HW2 1359   0.293   1.983   0.877 -2.2973  1.0852  1.6525
  454SOL     OW 1360   1.190   1.225   0.263  0.2993  0.7770 -0.3647
  454SOL    HW1 1361   1.273   1.283   0.247  1.2213  0.3440  0.5180
  454SOL    HW2 1362   1.204   1.176   0.352 -2.6245 -0.5138 -0.4175
  455SOL     OW 1363   1.800   0.487   0.816  0.1978  0.6695  0.5292
  455SOL    HW1 1364   1.803   0.391   0.782 -1.7851 -2.0728  1.6221
  455SOL    HW2 1365   1.849   0.552   0.754 -0.3790  0.2084  0.4123
  456SOL     OW 1366   1.792   2.852   0.270  0.2856  0.9019 -0.1810
  456SOL    HW1 1367   1.740   2.778   0.223 -0.4498 -1.6780  0.6616
  456SOL    HW2 1368   1.734   2.932   0.291 -1.0933  1.4064 -0.8404
  457SOL     OW 1369   2.066   1.163   2.001  0.0049 -0.5752 -0.0438
  457SOL    HW1 1370   2.101   1.253   1.966 -2.6548  0.6575  1.8851
  457SOL    HW2 1371   2.104   1.149   2.095 -1.9706 -1.3043 -0.7801
  458SOL     OW 1372   2.507   0.491   2.351 -0.1934  0.2096  0.1530
  458SOL    HW1 1373   2.419   0.529   2.391 -1.2802 -0.4991  2.9380
  458SOL    HW2 1374   2.527   0.548   2.269  0.7882 -0.3098 -0.4252
  459SOL     OW 1375   2.481   1.552   2.589  0.6635  0.6069 -0.6887
  459SOL    HW1 1376   2.543   1.544   2.668  0.8517  2.4347  1.7192
  459SOL    HW2 1377   2.460   1.459   2.550 -0.1902  0.6435  2.0455
  460SOL     OW 1378   0.928   0.898   2.492  0.0435 -0.4869  0.0719
  460SOL    HW1 1379   0.982   0.961   2.433  1.6303 -0.2434  0.8579
  460SOL    HW2 1380   0.903   0.945   2.579  0.4137  0.3120 -0.9635
  461SOL     OW 1381   0.077   2.342   0.170  0.3777 -0.1037  0.2672
  461SOL    HW1 1382   0.158   2.399   0.197 -1.8902 -0.2425 -0.4141
  461SOL    HW2 1383  -0.006   2.401   0.156  0.3860  0.3371 -0.2204
  462SOL     OW 1384   1.387   2.781   2.380 -0.5474 -0.0296 -0.4769
  462SOL    HW1 1385   1.416   2.735   2.467 -0.5954  0.1551  0.0875
  462SOL    HW2 1386   1.458   2.850   2.355 -2.8975 -2.5794 -0.6829
  463SOL     OW 1387   2.036   2.126   1.922  0.1629  0.3177 -0.0929
  463SOL    HW1 1388   1.979   2.042   1.936 -0.4754 -1.6162 -0.2031
  463SOL    HW2 1389   2.135   2.103   1.930 -0.7395  0.8229  2.0590
  464SOL     OW 1390   2.553   2.435   0.758 -0.8820  0.3205 -0.0128
  464SOL    HW1 1391   2.456   2.413   0.735 -0.5869 -1.4359  0.7297
  464SOL    HW2 1392   2.565   2.534   0.779 -0.2480  0.4571  0.7391
  465SOL     OW 1393   0.011   0.133   1.496 -0.4251  0.1138 -0.2395
  465SOL    HW1 1394   0.063   0.086   1.421 -4.2110 -0.6808  0.4529
  465SOL    HW2 1395   0.078   0.162   1.568 -2.7218 -2.0899 -1.1436
  466SOL     OW 1396   1.337   2.489   2.755 -0.6324  0.3841  0.5741
  466SOL    HW1 1397   1.414   2.425   2.777 -0.0412  0.1234 -1.2364
  466SOL    HW2 1398   1.276   2.455   2.680  0.4943 -1.5711 -2.4288
  467SOL     OW 1399   3.057   2.093   0.257 -0.3885  0.6047  0.5296
  467SOL    HW1 1400   2.985   2.069   0.189  1.2537 -0.4808 -1.6982
  467SOL    HW2 1401   3.087   2.189   0.240  1.1096  1.7421 -1.9185
  468SOL     OW 1402   2.054   2.317   2.826 -0.0844 -0.2570 -0.8415
  468SOL    HW1 1403   2.106   2.260   2.759 -2.7884  0.9406  1.0417
  468SOL    HW2 1404   1.977   2.363   2.780 -0.0541  2.5340  1.5666
  469SOL     OW 1405   0.872   1.865   0.705 -0.3504  0.1764 -0.4860
  469SOL    HW1 1406   0.815   1.890   0.787  1.7251  1.9320 -0.3254
  469SOL    HW2 1407   0.930   1.945   0.679 -3.0490  2.0552 -1.0829
  470SOL     OW 1408   1.957   0.669   0.680  0.3934 -0.1254 -0.2661
  470SOL    HW1 1409   2.025   0.638   0.612  0.6877  2.0193  1.6658
  470SOL    HW2 1410   1.996   0.722   0.757 -0.9300 -0.6966 -1.2190
  471SOL     OW 1411   0.315   1.858   0.520 -0.4435  0.5206 -0.6268
  471SOL    HW1 1412   0.395   1.858   0.456 -0.4297 -1.4939 -1.2476
  471SOL    HW2 1413   0.320   1.938   0.585  0.4234  0.2715 -2.4183
  472SOL     OW 1414   2.604   2.106   2.870  0.0926  0.0625 -0.3116
  472SOL    HW1 1415   2.665   2.138   2.944 -2.1905 -2.6669 -1.9968
  472SOL    HW2 1416   2.639   2.137   2.780 -2.4638  0.7231  1.4545
  473SOL     OW 1417   1.406   1.758   0.749 -0.1585  0.2602 -0.1579
  473SOL    HW1 1418   1.484   1.825   0.754  0.8682 -1.1683 -0.5107
  473SOL    HW2 1419   1.367   1.762   0.654  1.6002 -0.2543  1.7192
  474SOL     OW 1420   2.829   0.462   1.122  0.2633 -0.7297 -0.1093
  474SOL    HW1 1421   2.790   0.436   1.031  1.9426  1.3041 -1.4763
  474SOL    HW2 1422   2.893   0.390   1.155  0.9281 -1.6931 -2.7730
  475SOL     OW 1423   2.872   3.025   1.832 -0.3369 -0.4119  0.2925
  475SOL    HW1 1424   2.889   2.999   1.735 -2.9841  2.8907 -1.6532
  475SOL    HW2 1425   2.804   3.103   1.826 -2.9417  1.7792 -2.1751
  476SOL     OW 1426   0.558   0.259   0.912 -0.3618  0.0010 -0.6210
  476SOL    HW1 1427   0.608   0.345   0.888 -0.4767  1.4057  1.9331
  476SOL    HW2 1428   0.534   0.208   0.827 -1.0311 -1.2409 -3.1584
  477SOL     OW 1429   1.241   2.468   1.176 -0.4442 -0.5262 -0.6309
  477SOL    HW1 1430   1.228   2.474   1.278  1.4117  0.2032  0.3211
  477SOL    HW2 1431   1.341   2.465   1.166 -0.5775 -0.7809 -2.6808
  478SOL     OW 1432   1.204   2.648   0.094  0.0892  0.5117 -0.2896
  478SOL    HW1 1433   1.211   2.665  -0.007  2.3339 -0.7885 -2.6456
  478SOL    HW2 1434   1.258   2.719   0.143  2.1304  0.3957  1.1757
  479SOL     OW 1435   2.529   1.149   2.128 -0.0008  0.3958  0.4283
  479SOL    HW1 1436   2.467   1.085   2.179 -0.6412 -0.9091 -1.5364
  479SOL    HW2 1437   2.546   1.116   2.033  0.3159  2.1234  1.7777
  480SOL     OW 1438   2.686   2.243   2.645  0.5694  0.3234  0.3232
  480SOL    HW1 1439   2.716   2.227   2.548 -1.5401  1.2183  1.0471
  480SOL    HW2 1440   2.590   2.279   2.646 -2.0299  0.8759 -0.1403
  481SOL     OW 1441   1.610   2.636   1.630  0.8496  0.0807 -0.6237
  481SOL    HW1 1442   1.700   2.595   1.659 -0.7017  0.6381  2.2560
  481SOL    HW2 1443   1.610   2.658   1.530  1.9805 -1.3703  0.0952
  482SOL     OW 1444   1.542   2.197   2.231  0.4776  0.1986 -0.0564
  482SOL    HW1 1445   1.508   2.160   2.142  1.0304  1.8599 -0.2004
  482SOL    HW2 1446   1.550   2.299   2.225  1.3811  0.1866  2.2413
  483SOL     OW 1447   1.196   2.678   2.888  0.5364  0.3838 -0.1219
  483SOL    HW1 1448   1.154   2.723   2.805  1.8077  1.1028 -0.2842
  483SOL    HW2 1449   1.253   2.600   2.854 -2.3283 -0.3797 -1.8114
  484SOL     OW 1450   2.401   2.945   1.612 -0.4806  0.2659  0.0910
  484SOL    HW1 1451   2.311   2.900   1.632 -0.2362  0.1856 -3.0903
  484SOL    HW2 1452   2.471   2.870   1.604 -0.5455  2.2625 -1.2958
  485SOL     OW 1453   1.947   0.538   0.341 -0.0887 -0.6828  0.6041
  485SOL    HW1 1454   1.906   0.619   0.295 -1.9315 -1.1534 -1.0199
  485SOL    HW2 1455   1.876   0.482   0.387  0.1260  0.6774  0.3950
  486SOL     OW 1456   2.374   2.718   2.426  0.4367 -0.5525 -0.1205
  486SOL    HW1 1457   2.424   2.783   2.487  4.0709 -0.1696 -0.4347
  486SOL    HW2 1458   2.344   2.632   2.474  3.3500 -0.4035 -1.3611
  487SOL     OW 1459   1.200   0.844   0.761  0.2685 -0.2496 -0.1673
  487SOL    HW1 1460   1.152   0.869   0.674  3.2225  0.8612  0.5776
  487SOL    HW2 1461   1.130   0.831   0.834  1.5981 -3.8502  3.3251
  488SOL     OW 1462   2.672   2.900   2.360  0.3973  0.2990  0.3408
  488SOL    HW1 1463   2.642   2.881   2.264 -2.3528 -3.8502  3.2600
  488SOL    HW2 1464   2.611   2.975   2.390  2.7000  0.3999  0.6336
  489SOL     OW 1465   1.195   2.709   0.435 -0.6846  0.2497 -0.1263
  489SOL    HW1 1466   1.150   2.777   0.496 -0.7999 -0.6555  0.4884
  489SOL    HW2 1467   1.135   2.626   0.431 -2.2532  2.0586 -0.5730
  490SOL     OW 1468   1.549   0.658   2.940  0.1031  0.8061  0.2913
  490SOL    HW1 1469   1.559   0.726   2.865  2.0002  0.6115  0.3067
  490SOL    HW2 1470   1.455   0.657   2.980  0.2633  0.6818  3.8264
  491SOL     OW 1471   0.939   0.038   1.212 -0.1212  0.3870 -0.4369
  491SOL    HW1 1472   0.861   0.081   1.162 -3.5655  0.2557  4.2501
  491SOL    HW2 1473   0.909   0.010   1.305 -2.2733  1.7652  5.0855
  492SOL     OW 1474   1.592   2.695   0.172 -0.5190  0.6329 -0.4114
  492SOL    HW1 1475   1.534   2.669   0.253  0.7130  0.0223 -0.5337
  492SOL    HW2 1476   1.528   2.754   0.119  2.4070 -1.6499  0.4408
  493SOL     OW 1477   1.016   1.917   2.951  0.8362  0.0183 -0.8534
  493SOL    HW1 1478   1.043   1.851   2.878 -0.4987  0.2533  1.9270
  493SOL    HW2 1479   0.994   2.009   2.909 -2.6332 -1.0728 -0.7206
  494SOL     OW 1480   0.785   0.292   0.464 -0.5839  0.0273 -0.2896
  494SOL    HW1 1481   0.693   0.291   0.421  0.5501  0.5016  0.3592
  494SOL    HW2 1482   0.839   0.368   0.425  1.3015 -0.1498  2.6503
  495SOL     OW 1483   2.712   0.174   1.811 -0.2280  0.4422  0.8268
  495SOL    HW1 1484   2.756   0.208   1.725  1.4473  0.7766  0.9442
  495SOL    HW2 1485   2.718   0.249   1.881  1.0834 -0.6211 -0.9851
  496SOL     OW 1486   2.318   1.908   2.390 -0.6843 -0.3797  0.4969
  496SOL    HW1 1487   2.269   1.893   2.302  0.6732 -1.3749  0.6155
  496SOL    HW2 1488   2.403   1.852   2.386 -0.9763  0.9983  1.0858
  497SOL     OW 1489   1.549   1.142   2.714  0.4818 -0.1604 -0.4504
  497SOL    HW1 1490   1.620   1.210   2.687 -2.4589  1.0235  2.5793
  497SOL    HW2 1491   1.477   1.181   2.775  0.7703  0.3406  1.0415
  498SOL     OW 1492   0.749   2.766   1.213 -0.1690 -0.5190 -0.2777
  498SOL    HW1 1493   0.682   2.842   1.202 -0.3677  2.0247  0.9342
  498SOL    HW2 1494   0.698   2.677   1.220 -1.8112 -0.3181 -3.0372
  499SOL     OW 1495   0.072   1.981   1.120 -0.2013  0.0285 -0.3495
  499SOL    HW1 1496   0.013   1.954   1.040 -2.0316 -0.5701 -2.1599
  499SOL    HW2 1497   0.052   1.918   1.198  0.2400 -1.2264 -1.2972
  500SOL     OW 1498   0.646   2.672   2.691  0.1044  0.1294  0.1120
  500SOL    HW1 1499   0.548   2.643   2.701  0.8011  0.7147  0.3142
  500SOL    HW2 1500   0.666   2.704   2.596 -0.8290  0.0679 -1.3681
  501SOL     OW 1501   1.648   3.051   0.032  0.7333 -0.5799  0.3385
  501SOL    HW1 1502   1.703   3.137   0.037 -2.7154  0.9341  0.1740
  501SOL    HW2 1503   1.601   3.031   0.121  1.7184 -1.7239  1.8019
  502SOL     OW 1504   2.992   0.128   0.728 -0.0492  0.0470  0.2189
  502SOL    HW1 1505   2.951   0.214   0.695  1.2262  0.2461 -0.1544
  502SOL    HW2 1506   3.076   0.149   0.783 -2.4278  1.8099  0.6160
  503SOL     OW 1507   1.964   2.845   2.128  0.6214  0.0891 -0.4015
  503SOL    HW1 1508   2.027   2.816   2.204 -1.7067 -0.9265  0.7078
  503SOL    HW2 1509   1.870   2.814   2.154  3.2163  0.6947 -1.6852
  504SOL     OW 1510   2.419   1.437   1.817 -0.1373  0.4907  0.0655
  504SOL    HW1 1511   2.392   1.518   1.761  0.9258 -1.5892  1.6463
  504SOL    HW2 1512   2.480   1.371   1.767  2.2247 -1.8948 -0.6428
  505SOL     OW 1513   1.717   2.767   2.204 -0.0053  0.2103 -0.2341
  505SOL    HW1 1514   1.669   2.839   2.258  1.2427 -0.7573  1.9444
  505SOL    HW2 1515   1.655   2.730   2.131  2.1200  1.2844 -0.1230
  506SOL     OW 1516   0.177   0.687   2.126 -0.6075 -0.8214  0.0795
  506SOL    HW1 1517   0.180   0.596   2.081 -0.9255  1.7073 -3.4177
  506SOL    HW2 1518   0.238   0.683   2.208  3.6278 -1.8928  1.0075
  507SOL     OW 1519   1.725   0.410   0.430  0.0558 -0.0242 -0.0772
  507SOL    HW1 1520   1.690   0.495   0.383  1.6756  1.5480 -2.0244
  507SOL    HW2 1521   1.646   0.363   0.473  0.7654  0.7015 -0.9364
  508SOL     OW 1522   2.076   0.530   1.785 -0.1538 -0.0281 -0.1402
  508SOL    HW1 1523   2.074   0.613   1.727 -1.1908 -0.1691  2.8304
  508SOL    HW2 1524   2.152   0.536   1.853  4.5128 -2.1978 -1.1524
  509SOL     OW 1525   0.633   1.894   3.047  0.1674  0.2723 -0.4789
  509SOL    HW1 1526   0.719   1.856   3.089 -0.3826  0.9684 -0.1992
  509SOL    HW2 1527   0.556   1.841   3.084  2.6371 -0.6802  0.9104
  510SOL     OW 1528   0.227   0.935   0.995  0.0574 -0.1792  0.0843
  510SOL    HW1 1529   0.141   0.915   0.943  0.5011 -0.9409  1.0892
  510SOL    HW2 1530   0.291   0.985   0.932 -0.4742  1.8360  0.8025
  511SOL     OW 1531   1.492   1.019   1.204 -0.1032 -0.5363  0.2192
  511SOL    HW1 1532   1.569   0.952   1.196  4.0422  1.0510 -0.0086
  511SOL    HW2 1533   1.512   1.105   1.152 -0.7310  0.7642 -0.8443
  512SOL     OW 1534   0.326   2.076   0.676 -0.4514  0.3329  0.1108
  512SOL    HW1 1535   0.266   2.143   0.723  4.3246  2.1670 -0.8250
  512SOL    HW2 1536   0.425   2.101   0.686 -0.4391  0.8339  0.4651
  513SOL     OW 1537   0.225   2.423   0.963  0.2811  0.1950 -0.5421
  513SOL    HW1 1538   0.178   2.412   1.054 -2.6303  0.6792 -0.2548
  513SOL    HW2 1539   0.258   2.519   0.956  0.0597  0.1738 -0.0674
  514SOL     OW 1540   0.592   2.117   0.661 -0.2174 -0.2861 -0.1493
  514SOL    HW1 1541   0.654   2.178   0.713  0.7061  0.8227  0.6220
  514SOL    HW2 1542   0.636   2.083   0.575  2.7065  1.6120  0.7596
  515SOL     OW 1543   2.943   0.287   2.992  0.3597  0.4366  0.7245
  515SOL    HW1 1544   2.867   0.247   3.046 -0.3598 -1.5161  0.0574
  515SOL    HW2 1545   2.988   0.365   3.039 -1.7609  0.5031  1.4930
  516SOL     OW 1546   2.156   3.034   1.323 -0.1631  0.8496  0.2869
  516SOL    HW1 1547   2.091   2.973   1.373  2.7065 -0.6406 -0.1508
  516SOL    HW2 1548   2.126   3.039   1.226  0.5588 -1.6088 -1.5933
  517SOL     OW 1549   1.696   1.579   0.757  0.4523  0.5365 -0.2588
  517SOL    HW1 1550   1.739   1.648   0.694  0.3815 -0.1924  2.5360
  517SOL    HW2 1551   1.673   1.617   0.849  0.4701 -1.5212  1.1364
  518SOL     OW 1552   1.777   2.798   0.833  0.2192  0.5442 -0.4594
  518SOL    HW1 1553   1.725   2.757   0.911 -0.6520  0.6033 -0.5941
  518SOL    HW2 1554   1.780   2.729   0.757  0.3490 -1.6399  1.0731
  519SOL     OW 1555   2.895   2.485   0.126  0.1628  0.0873 -0.7914
  519SOL    HW1 1556   2.858   2.511   0.217  0.9628 -0.8267  0.6083
  519SOL    HW2 1557   2.883   2.560   0.059  0.6635  1.7237 -0.8460
  520SOL     OW 1558   2.201   1.594   2.101  0.6616  0.4680 -0.3849
  520SOL    HW1 1559   2.183   1.689   2.136  0.4359 -1.8827  2.2017
  520SOL    HW2 1560   2.206   1.528   2.180 -0.8238 -1.8546  0.3228
  521SOL     OW 1561   1.479   2.934   1.916  0.3055  0.2987  0.2917
  521SOL    HW1 1562   1.496   2.928   1.815  0.8022  0.4216 -1.2354
  521SOL    HW2 1563   1.380   2.956   1.929 -1.1009 -0.7073 -0.6656
  522SOL     OW 1564   0.306   2.548   1.900 -0.3714  0.2247  0.3564
  522SOL    HW1 1565   0.253   2.490   1.966  2.0107  1.4742 -1.0342
  522SOL    HW2 1566   0.244   2.623   1.868 -0.4280 -0.0028  1.8299
  523SOL     OW 1567   0.584   2.378   2.091 -0.0750 -0.5649  0.1243
  523SOL    HW1 1568   0.564   2.413   2.185  0.5731 -0.2425 -0.4524
  523SOL    HW2 1569   0.591   2.461   2.031  0.4739  1.6413  1.0311
  524SOL     OW 1570   2.213   2.133   0.354  0.3111  0.2938 -0.7198
  524SOL    HW1 1571   2.149   2.058   0.327 -0.9636 -0.2175  2.4499
  524SOL    HW2 1572   2.215   2.143   0.456 -2.1718  1.8360 -0.6181
  525SOL     OW 1573   2.631   0.633   2.551 -0.2038 -0.4679  0.0560
  525SOL    HW1 1574   2.602   0.571   2.475 -1.5921 -0.1782 -1.0865
  525SOL    HW2 1575   2.584   0.601   2.637  1.5381 -2.6858  0.6768
  526SOL     OW 1576   0.410   2.432   0.472  0.0682  0.1349 -0.0615
  526SOL    HW1 1577   0.506   2.425   0.509 -1.6578 -1.2558  1.3118
  526SOL    HW2 1578   0.369   2.338   0.465  1.1966  1.8201 -0.0057
  527SOL     OW 1579   2.859   1.059   0.866 -0.1334 -0.2740  1.0532
  527SOL    HW1 1580   2.790   1.108   0.810  2.1610  1.0229 -0.6026
  527SOL    HW2 1581   2.813   0.992   0.929  0.0690 -0.7409 -2.5981
  528SOL     OW 1582   1.116   1.304   2.252  0.3282  0.0480  0.3219
  528SOL    HW1 1583   1.097   1.338   2.157  2.1667  1.3038  1.2513
  528SOL    HW2 1584   1.064   1.364   2.315 -0.2495 -0.6589  0.3712
  529SOL     OW 1585   0.842   1.292   0.472  0.0383  0.7168 -0.3698
  529SOL    HW1 1586   0.903   1.299   0.554  0.7932 -1.4985 -0.0079
  529SOL    HW2 1587   0.790   1.206   0.483 -1.3248 -1.7190  1.7495
  530SOL     OW 1588   1.371   0.551   1.652 -0.6874 -0.4861 -0.1080
  530SOL    HW1 1589   1.429   0.618   1.602  1.2677  0.4923 -0.2840
  530SOL    HW2 1590   1.428   0.491   1.711  2.8936 -0.2582 -0.3844
  531SOL     OW 1591   1.101   2.208   0.270 -0.5634  0.6628  0.3507
  531SOL    HW1 1592   1.118   2.279   0.198  3.8616 -2.1765 -1.8048
  531SOL    HW2 1593   1.189   2.190   0.316  0.3946 -1.3548 -2.6385
  532SOL     OW 1594   2.582   0.856   2.400 -1.3726 -0.2184 -0.0504
  532SOL    HW1 1595   2.596   0.779   2.466 -0.9374  0.8723 -0.9930
  532SOL    HW2 1596   2.675   0.893   2.380  1.9643  0.3420  1.1333
  533SOL     OW 1597   0.037   0.246   2.111 -0.2583 -0.1647  0.6895
  533SOL    HW1 1598  -0.056   0.269   2.148  0.0092 -0.9105 -1.2217
  533SOL    HW2 1599   0.033   0.174   2.037 -1.0235  0.7287 -0.8000
  534SOL     OW 1600   2.220   0.189   2.778  0.7879 -0.3666  0.6999
  534SOL    HW1 1601   2.294   0.195   2.847  1.0325  1.5947 -1.3837
  534SOL    HW2 1602   2.243   0.111   2.716  1.8826  0.5101  3.5372
  535SOL     OW 1603   0.242   0.386   3.008 -0.2220 -0.5034  0.4798
  535SOL    HW1 1604   0.310   0.355   3.078 -1.3722  1.0126 -0.3059
  535SOL    HW2 1605   0.292   0.402   2.921 -0.5856 -0.5285  1.2275
  536SOL     OW 1606   1.085   2.053   1.102  0.2938 -0.2424 -0.0154
  536SOL    HW1 1607   1.009   2.018   1.161  0.9457  0.8745 -1.3033
  536SOL    HW2 1608   1.072   2.152   1.083  0.6693 -3.7513  2.5905
  537SOL     OW 1609   2.767   2.521   1.470  0.0302  0.0337  0.6829
  537SOL    HW1 1610   2.802   2.589   1.538 -1.4854  0.2205 -2.9462
  537SOL    HW2 1611   2.703   2.457   1.519  2.6200  3.7659 -4.6455
  538SOL     OW 1612   0.656   2.436   0.576 -0.1643  0.3519  0.0107
  538SOL    HW1 1613   0.716   2.369   0.624 -0.3740  1.7626  0.7955
  538SOL    HW2 1614   0.707   2.521   0.550 -0.6648  0.6141  1.2876
  539SOL     OW 1615   1.824   1.273   2.454  0.7465  0.4283 -0.4554
  539SOL    HW1 1616   1.744   1.249   2.396 -0.6765  0.7527  0.8499
  539SOL    HW2 1617   1.882   1.345   2.408 -0.0713  2.1971 -0.1669
  540SOL     OW 1618   1.867   0.596   2.832  0.1509 -0.4374  0.1926
  540SOL    HW1 1619   1.898   0.587   2.929 -0.9097 -0.4362  2.4275
  540SOL    HW2 1620   1.856   0.694   2.807  2.8283 -1.0792 -2.1918
  541SOL     OW 1621   1.092   1.057   2.352 -0.5955 -0.3749  0.3306
  541SOL    HW1 1622   1.113   0.992   2.275 -1.1438  1.1077 -4.4587
  541SOL    HW2 1623   1.091   1.153   2.317  0.4674 -1.5004 -1.6860
  542SOL     OW 1624   1.441   2.543   1.818  0.1141 -0.0160  0.2308
  542SOL    HW1 1625   1.340   2.552   1.798 -1.2405  0.5452 -0.4046
  542SOL    HW2 1626   1.496   2.577   1.739 -0.5490 -3.6693  1.5290
  543SOL     OW 1627   0.529   2.755   2.978 -0.0402 -0.7435  0.2090
  543SOL    HW1 1628   0.572   2.734   2.889 -0.1796  1.7860  2.2682
  543SOL    HW2 1629   0.437   2.798   2.961  0.3270 -1.6712  0.2659
  544SOL     OW 1630   0.062   2.004   2.184 -0.8307 -0.7315  0.1725
  544SOL    HW1 1631   0.028   2.005   2.279 -2.5028  0.2236 -0.4983
  544SOL    HW2 1632   0.133   2.078   2.183 -0.1811  2.2241  2.2587
  545SOL     OW 1633   1.387   1.858   1.632  0.5423 -0.3943 -0.3270
  545SOL    HW1 1634   1.355   1.871   1.536  0.2631 -0.0308 -0.1669
  545SOL    HW2 1635   1.324   1.799   1.688 -1.0477 -2.5700  1.1102
  546SOL     OW 1636   2.790   0.216   2.604  0.2106 -0.3366  0.4399
  546SOL    HW1 1637   2.753   0.242   2.512 -0.2025  2.1578 -0.3536
  546SOL    HW2 1638   2.890   0.235   2.605  1.7828  0.6849  1.1099
  547SOL     OW 1639   1.603   3.001   0.777  0.5412 -0.5410  0.2687
  547SOL    HW1 1640   1.594   3.046   0.869 -1.7123 -0.0480 -0.3181
  547SOL    HW2 1641   1.674   2.928   0.786 -0.9510 -2.1174  1.2040
  548SOL     OW 1642   1.335   2.177   0.052  0.0145  0.1470 -0.0006
  548SOL    HW1 1643   1.275   2.094   0.060  0.1380 -0.7195  1.4863
  548SOL    HW2 1644   1.280   2.262   0.040  1.3549 -1.2027  0.7817
  549SOL     OW 1645   1.940   0.564   0.027  0.4039  0.4675 -0.2748
  549SOL    HW1 1646   1.990   0.481   0.060 -0.1424  0.2783  3.8359
  549SOL    HW2 1647   1.993   0.647   0.055 -2.5139  1.0035 -0.3191
  550SOL     OW 1648   2.508   1.824   0.847 -0.1046 -0.6851  0.9124
  550SOL    HW1 1649   2.458   1.890   0.788 -0.5225 -0.4134 -0.7676
  550SOL    HW2 1650   2.575   1.776   0.785 -0.0670  0.2652  0.7199
  551SOL     OW 1651   1.138   0.216   1.267  0.1964 -0.3649  0.0058
  551SOL    HW1 1652   1.080   0.272   1.330  0.6237  1.0376 -1.2298
  551SOL    HW2 1653   1.078   0.144   1.226 -1.0954 -0.2628 -0.0134
  552SOL     OW 1654   0.377   1.830   2.713  0.4752  0.0470 -0.1301
  552SOL    HW1 1655   0.382   1.764   2.635 -0.8611 -1.5796  0.1810
  552SOL    HW2 1656   0.357   1.776   2.798  0.0049  1.8346 -0.0825
  553SOL     OW 1657   2.509   2.384   0.031  0.1990  0.2528 -0.2913
  553SOL    HW1 1658   2.411   2.362   0.013  0.0233 -0.6842  0.2710
  553SOL    HW2 1659   2.517   2.409   0.130 -1.1179 -1.0053 -1.3755
  554SOL     OW 1660   1.961   1.461   1.459 -0.3850 -0.2846 -0.1629
  554SOL    HW1 1661   1.982   1.418   1.551  1.3097 -0.2703 -2.0178
  554SOL    HW2 1662   1.873   1.514   1.468 -1.3072  2.9614  1.2983
  555SOL     OW 1663   0.551   2.473   2.340  0.6875  0.2983 -0.0178
  555SOL    HW1 1664   0.510   2.439   2.427  1.8957 -0.1402  0.9594
  555SOL    HW2 1665   0.512   2.566   2.323  0.0973 -0.7321  0.3001
  556SOL     OW 1666   1.413   1.081   1.456 -0.2429  0.2403  0.2719
  556SOL    HW1 1667   1.446   1.060   1.361  0.5831 -0.0380 -1.0902
  556SOL    HW2 1668   1.391   1.181   1.465 -1.1666 -0.8480  1.0683
  557SOL     OW 1669   1.430   2.905   1.138  0.1118 -0.1430  0.5691
  557SOL    HW1 1670   1.453   2.814   1.101 -1.9742 -0.4790  0.9217
  557SOL    HW2 1671   1.397   2.899   1.234 -1.8312 -0.4567 -0.6204
  558SOL     OW 1672   0.538   0.816   2.354  0.0425 -0.2766 -0.2206
  558SOL    HW1 1673   0.451   0.762   2.352  2.1534 -0.4660  3.1756
  558SOL    HW2 1674   0.568   0.824   2.452 -0.7207  1.6294  0.8006
  559SOL     OW 1675   0.941   2.677   0.186 -0.3075  0.4872 -0.1692
  559SOL    HW1 1676   0.920   2.752   0.253  2.1521 -0.3311 -1.1806
  559SOL    HW2 1677   1.041   2.659   0.175 -0.7499  1.1769 -2.7207
  560SOL     OW 1678   1.609   2.014   0.359  0.2571  0.3378  0.4560
  560SOL    HW1 1679   1.686   2.044   0.299  1.5638 -0.5529 -1.2486
  560SOL    HW2 1680   1.521   2.060   0.337 -1.1198  0.8490 -1.7945
  561SOL     OW 1681   1.062   2.898   0.581 -0.0613 -0.2585 -0.1090
  561SOL    HW1 1682   1.122   2.979   0.559  1.0051 -0.6287  0.9232
  561SOL    HW2 1683   1.032   2.909   0.677  2.8603  1.6687  1.6075
  562SOL     OW 1684   0.563   1.049   2.221  0.1549  0.1088 -0.2970
  562SOL    HW1 1685   0.577   1.119   2.294  2.2657  1.2338  0.9508
  562SOL    HW2 1686   0.551   0.963   2.275  0.5173 -0.4607  0.8829
  563SOL     OW 1687   1.192   2.046   2.424 -0.9865  0.7089  0.0577
  563SOL    HW1 1688   1.195   2.045   2.322  1.5205 -0.3790 -3.4150
  563SOL    HW2 1689   1.194   1.948   2.455  0.6331 -0.9228  2.1940
  564SOL     OW 1690   2.464   0.662   1.213 -0.3005  0.0853  0.2864
  564SOL    HW1 1691   2.427   0.616   1.129 -0.0802  1.3929 -2.3420
  564SOL    HW2 1692   2.421   0.755   1.222  1.4436  0.0206 -0.5538
  565SOL     OW 1693   1.423   0.949   0.352 -0.7099 -0.4810  0.2700
  565SOL    HW1 1694   1.390   0.946   0.255  0.1032 -0.5583  0.7059
  565SOL    HW2 1695   1.367   1.013   0.409  1.5295  2.4427  1.8079
  566SOL     OW 1696   2.411   2.710   2.853  0.1481  0.2088  0.5704
  566SOL    HW1 1697   2.484   2.638   2.853  2.0320  0.1385 -0.4902
  566SOL    HW2 1698   2.325   2.663   2.883  0.4867 -0.5744  1.8930
  567SOL     OW 1699   1.902   0.767   1.022  0.7303  0.1509  0.3245
  567SOL    HW1 1700   1.820   0.793   1.076  1.5078  0.5046  0.2176
  567SOL    HW2 1701   1.922   0.666   1.029 -1.1469 -1.6592 -0.3975
  568SOL     OW 1702   1.169   1.066   2.621 -0.1549 -0.0549 -0.2954
  568SOL    HW1 1703   1.151   1.158   2.661  0.1157  0.1158 -0.3108
  568SOL    HW2 1704   1.148   1.061   2.521 -1.1021 -1.2062 -0.2101
  569SOL     OW 1705   2.091   1.575   0.846 -0.4269 -0.7016  0.3680
  569SOL    HW1 1706   2.020   1.507   0.818 -0.1640 -0.1484  1.1460
  569SOL    HW2 1707   2.183   1.547   0.817  2.1484  1.7819 -0.1182
  570SOL     OW 1708   2.505   2.540   2.260 -0.2953  0.1096  0.0848
  570SOL    HW1 1709   2.443   2.613   2.294 -0.6783  1.1144  0.1942
  570SOL    HW2 1710   2.520   2.559   2.160 -1.5641 -3.3045  1.5745
  571SOL     OW 1711   3.063   1.990   1.676  0.4234  0.1092  0.6216
  571SOL    HW1 1712   2.987   2.009   1.609 -0.1338  0.3410  2.9421
  571SOL    HW2 1713   3.025   1.986   1.770  0.7565 -1.9223 -1.5917
  572SOL     OW 1714   1.043   2.198   2.588 -1.0771 -0.0709  0.2749
  572SOL    HW1 1715   1.089   2.289   2.588  0.3633 -0.0612 -1.1707
  572SOL    HW2 1716   1.102   2.133   2.535 -0.0677 -0.0932  2.6972
  573SOL     OW 1717   1.532   2.299   1.396  0.2264 -0.2326 -0.5561
  573SOL    HW1 1718   1.455   2.302   1.463 -0.1691  0.8806  3.8603
  573SOL    HW2 1719   1.613   2.258   1.444 -0.3989 -2.6093  4.2996
  574SOL     OW 1720   1.155   2.750   1.509 -0.2391 -0.4193 -0.1136
  574SOL    HW1 1721   1.063   2.749   1.464  1.3573  1.5686 -4.9045
  574SOL    HW2 1722   1.142   2.765   1.608 -2.6608 -3.6466 -1.8289
  575SOL     OW 1723   0.684   0.495   0.889 -0.4429 -0.5215 -0.0432
  575SOL    HW1 1724   0.766   0.524   0.836  0.5155  1.1332 -0.7563
  575SOL    HW2 1725   0.701   0.514   0.989 -2.2354 -1.1869  3.8653
  576SOL     OW 1726   2.155   0.606   1.401  0.2992 -0.0063  0.4756
  576SOL    HW1 1727   2.124   0.668   1.477 -0.5506 -0.4820 -2.4941
  576SOL    HW2 1728   2.164   0.665   1.318  0.9800 -0.9397  0.1479
  577SOL     OW 1729   1.984   0.166   2.912 -0.7218  0.0479  0.0605
  577SOL    HW1 1730   2.068   0.189   2.860 -2.5259 -0.0313 -1.1307
  577SOL    HW2 1731   1.906   0.183   2.848  2.7098  1.8531 -0.3010
  578SOL     OW 1732   1.633   1.904   1.929  0.6356 -0.6471  0.2837
  578SOL    HW1 1733   1.638   1.802   1.935  1.6951  0.0916 -0.4382
  578SOL    HW2 1734   1.638   1.930   1.830 -0.4724 -0.6847  0.5730
  579SOL     OW 1735   0.828   1.593   1.010  0.5764 -0.3638 -0.1825
  579SOL    HW1 1736   0.899   1.666   0.997 -0.6239 -2.8324  2.3196
  579SOL    HW2 1737   0.765   1.585   0.930 -0.7723 -1.2156  0.1623
  580SOL     OW 1738   1.180   0.034   2.946 -0.9984 -0.4431  0.1096
  580SOL    HW1 1739   1.114  -0.007   3.013 -2.7434  3.8241 -1.7025
  580SOL    HW2 1740   1.247   0.093   2.994 -3.1405  1.0961  0.2265
  581SOL     OW 1741   1.177   0.922   1.741 -0.3979 -0.2520 -0.1899
  581SOL    HW1 1742   1.210   0.836   1.784  0.2930 -0.2793  2.8501
  581SOL    HW2 1743   1.179   0.912   1.638  0.6730 -0.0246  0.0830
  582SOL     OW 1744   0.316   0.356   0.983 -0.3399  0.0918  0.0364
  582SOL    HW1 1745   0.298   0.442   0.933  0.2521 -1.1686  0.1553
  582SOL    HW2 1746   0.407   0.316   0.958 -1.5298 -0.0176  0.3749
  583SOL     OW 1747   0.767   1.909   1.789  0.0081  0.1321 -0.2198
  583SOL    HW1 1748   0.755   1.819   1.838 -0.8232  2.5491  3.1446
  583SOL    HW2 1749   0.861   1.910   1.745  0.8300  2.3142 -0.8071
  584SOL     OW 1750   2.548   2.432   0.294  0.2606  0.9034 -0.6687
  584SOL    HW1 1751   2.637   2.474   0.318  1.2308  2.4621  1.6043
  584SOL    HW2 1752   2.480   2.473   0.360  1.4633  0.2577 -0.1215
  585SOL     OW 1753   2.258   0.569   2.824 -0.5682  0.0427  0.0707
  585SOL    HW1 1754   2.257   0.519   2.913 -2.2446 -0.3899  0.1719
  585SOL    HW2 1755   2.220   0.509   2.751  0.2901  0.9193 -1.3436
  586SOL     OW 1756   0.508   1.337   0.270  0.8318 -0.4865 -0.0826
  586SOL    HW1 1757   0.560   1.399   0.333 -0.0711 -0.4111  1.4200
  586SOL    HW2 1758   0.410   1.368   0.276  0.2248  0.4080 -1.0893
  587SOL     OW 1759   1.697   2.030   1.250  0.5717 -0.1632  0.1188
  587SOL    HW1 1760   1.730   1.998   1.158 -1.0528  1.7497 -0.7179
  587SOL    HW2 1761   1.625   2.100   1.238 -0.4769 -2.9032  0.4145
  588SOL     OW 1762   0.509   0.639   1.262  0.2589  0.2572 -0.2272
  588SOL    HW1 1763   0.597   0.610   1.219  1.0895 -1.6626 -0.5887
  588SOL    HW2 1764   0.441   0.668   1.190 -1.6450 -2.7283 -0.2248
  589SOL     OW 1765   2.043   2.854   0.815 -0.4820  0.5087  0.0110
  589SOL    HW1 1766   2.059   2.890   0.721  0.9146 -0.7054 -4.3199
  589SOL    HW2 1767   1.942   2.837   0.828  1.7589 -0.5087  0.7529
  590SOL     OW 1768   1.692   0.974   0.405 -0.6446  0.4010 -0.0927
  590SOL    HW1 1769   1.759   0.934   0.339  1.1195  0.2950 -0.4451
  590SOL    HW2 1770   1.594   0.960   0.379 -2.6149  2.0642  0.4881
  591SOL     OW 1771   2.289   2.033   1.993  0.1321 -0.2826 -0.0344
  591SOL    HW1 1772   2.369   1.977   1.961 -0.0214  2.5038  1.6916
  591SOL    HW2 1773   2.326   2.127   2.003 -0.2882 -0.3421  0.0409
  592SOL     OW 1774   1.344   1.986   1.138  0.0809 -0.3283  0.2009
  592SOL    HW1 1775   1.373   1.901   1.089 -2.2959  2.2658  0.0741
  592SOL    HW2 1776   1.248   2.011   1.115  3.7342 -1.3450  1.7040
  593SOL     OW 1777   0.588   2.764   0.758  0.7914  0.6861  0.0185
  593SOL    HW1 1778   0.682   2.730   0.775 -0.9436  1.0111  1.0671
  593SOL    HW2 1779   0.557   2.812   0.843 -0.1808 -1.0498 -1.1040
  594SOL     OW 1780   2.822   0.969   2.336 -0.0210 -0.0054  0.3850
  594SOL    HW1 1781   2.856   1.034   2.264  1.5186  0.1393 -0.6975
  594SOL    HW2 1782   2.879   0.885   2.341 -1.7331  3.8627 -1.2080
  595SOL     OW 1783   2.958   2.973   0.564 -0.4370  0.0187 -0.2754
  595SOL    HW1 1784   3.036   2.953   0.501  0.4152 -0.4750  1.6513
  595SOL    HW2 1785   2.981   3.058   0.616 -1.5626 -1.4481 -1.7477
  596SOL     OW 1786   3.043   0.557   1.436 -0.2379 -0.0350 -0.4369
  596SOL    HW1 1787   3.064   0.642   1.489 -1.1045 -0.1602 -0.6779
  596SOL    HW2 1788   2.946   0.531   1.458 -2.2579  0.2352 -0.5771
  597SOL     OW 1789   2.605   1.206   0.406  0.4228 -0.2514  0.1116
  597SOL    HW1 1790   2.682   1.143   0.385  1.5738 -0.1153  0.0122
  597SOL    HW2 1791   2.516   1.160   0.382 -0.1118  0.3994 -0.3748
  598SOL     OW 1792   0.606   0.369   2.024  0.5892  0.2054  1.0985
  598SOL    HW1 1793   0.602   0.462   1.982  1.0730 -2.0043 -1.2985
  598SOL    HW2 1794   0.520   0.356   2.079  0.7095 -1.4392 -0.1199
  599SOL     OW 1795   2.500   1.724   0.167 -0.5022  0.3578 -0.1205
  599SOL    HW1 1796   2.484   1.819   0.133 -1.8688  3.0355 -0.8557
  599SOL    HW2 1797   2.563   1.733   0.245 -1.5806  0.6640  2.0567
  600SOL     OW 1798   0.882   0.885   0.143  0.1064  0.1214 -0.0103
  600SOL    HW1 1799   0.962   0.942   0.117 -0.9884  1.2090  0.4679
  600SOL    HW2 1800   0.795   0.929   0.110  2.8258 -1.2545 -0.2822
  601SOL     OW 1801   1.329   0.933   0.095 -0.6662  0.0168 -0.4732
  601SOL    HW1 1802   1.237   0.977   0.082  1.3882  0.8232 -0.9980
  601SOL    HW2 1803   1.327   0.840   0.052  1.7786  0.4142 -1.0868
  602SOL     OW 1804   0.975   3.056   1.668  0.0423  0.2208 -0.4179
  602SOL    HW1 1805   1.017   3.149   1.680 -2.5479  0.1700 -0.2376
  602SOL    HW2 1806   0.929   3.050   1.576  1.0424  3.3096  1.7433
  603SOL     OW 1807   0.919   2.797   2.319  0.2964  0.1002 -0.2848
  603SOL    HW1 1808   0.997   2.853   2.354 -1.5298  0.5487  1.6546
  603SOL    HW2 1809   0.944   2.761   2.228  1.2053 -0.7633 -0.2478
  604SOL     OW 1810   0.044   0.052   1.922 -0.2026  0.5263 -0.2159
  604SOL    HW1 1811   0.094  -0.026   1.968 -1.8902 -1.8156 -2.5819
  604SOL    HW2 1812  -0.047   0.020   1.887 -0.0156  2.1402  1.5355
  605SOL     OW 1813   2.588   2.750   1.602  0.0749 -0.1586  0.1722
  605SOL    HW1 1814   2.545   2.677   1.659 -3.0365  0.7155  0.4804
  605SOL    HW2 1815   2.689   2.751   1.617  0.3500  1.7185  0.0662
  606SOL     OW 1816   0.036   1.904   2.486  0.2015  0.2551  0.2818
  606SOL    HW1 1817   0.040   1.818   2.541 -1.4464  2.4205 -1.1056
  606SOL    HW2 1818   0.108   1.968   2.521  0.7901 -2.2909  1.9214
  607SOL     OW 1819   0.801   0.077   0.623  0.2860  0.0973  0.7848
  607SOL    HW1 1820   0.799   0.167   0.573  0.4207  1.1160 -0.5551
  607SOL    HW2 1821   0.830   0.090   0.720  0.3409  0.7739  1.5514
  608SOL     OW 1822   1.637   1.771   2.425 -0.1828  0.4303  0.0960
  608SOL    HW1 1823   1.605   1.685   2.377  0.0102 -1.1242  0.3648
  608SOL    HW2 1824   1.656   1.842   2.355 -0.3893  0.8093  0.1938
  609SOL     OW 1825   3.008   0.286   1.251 -0.3559 -0.1836  0.5315
  609SOL    HW1 1826   3.073   0.359   1.220 -1.6201  0.5424 -1.3959
  609SOL    HW2 1827   3.045   0.247   1.338 -0.5105  1.7887  2.6473
  610SOL     OW 1828   0.895   2.371   3.013 -1.0285 -0.8163  0.0128
  610SOL    HW1 1829   0.845   2.407   2.931 -1.2480  2.2345 -2.6477
  610SOL    HW2 1830   0.848   2.406   3.098 -0.0073  0.2084  4.1227
  611SOL     OW 1831   1.931   1.362   0.474  0.3009  0.3115  0.5137
  611SOL    HW1 1832   1.967   1.418   0.398 -0.4151  3.5039 -3.1832
  611SOL    HW2 1833   1.842   1.329   0.435 -1.9356  1.1416 -0.7305
  612SOL     OW 1834   0.977   2.594   2.493  0.3008  0.0062  0.3346
  612SOL    HW1 1835   0.959   2.673   2.429 -0.6461 -1.5348 -0.3952
  612SOL    HW2 1836   0.910   2.518   2.477  3.4664 -0.2684 -2.7109
  613SOL     OW 1837   1.152   1.986   0.109 -0.5096  0.3914 -0.2575
  613SOL    HW1 1838   1.098   2.049   0.168  0.2412 -0.4665 -2.2522
  613SOL    HW2 1839   1.093   1.966   0.027 -1.1355 -0.9594 -0.2934
  614SOL     OW 1840   2.606   2.336   1.591 -0.5548 -0.6975  0.1327
  614SOL    HW1 1841   2.586   2.284   1.505  4.3023 -1.8629 -0.1441
  614SOL    HW2 1842   2.565   2.287   1.671  1.6307 -2.8736 -1.8782
  615SOL     OW 1843   2.452   1.284   0.017 -0.0514  0.3527 -0.8159
  615SOL    HW1 1844   2.486   1.292  -0.080  1.1015 -0.3213  1.2314
  615SOL    HW2 1845   2.400   1.198   0.032 -0.1051 -0.4365  2.6122
  616SOL     OW 1846   1.612   0.032   0.523  0.0067 -0.2782  0.1854
  616SOL    HW1 1847   1.591  -0.005   0.616 -1.6405  0.9177  0.2207
  616SOL    HW2 1848   1.714   0.040   0.517  1.4095 -3.2225 -1.0540
  617SOL     OW 1849   0.453   1.478   2.735 -0.2698 -0.1749 -0.1875
  617SOL    HW1 1850   0.431   1.530   2.650  1.5311  0.5434  1.6780
  617SOL    HW2 1851   0.554   1.463   2.740 -0.0917  0.8890 -1.1304
  618SOL     OW 1852   0.476   0.742   1.726  0.1728  0.0346  0.5345
  618SOL    HW1 1853   0.374   0.729   1.725  2.3625 -1.8052 -0.6690
  618SOL    HW2 1854   0.512   0.689   1.646 -0.0685  3.1524 -1.7047
  619SOL     OW 1855   2.801   0.955   1.975  0.9894 -0.2100  0.1543
  619SOL    HW1 1856   2.854   1.025   2.028 -1.3490  2.0876  3.6012
  619SOL    HW2 1857   2.800   0.868   2.028 -0.9510 -0.2364 -1.0303
  620SOL     OW 1858   2.128   0.941   2.977 -0.0580  0.0297 -0.3656
  620SOL    HW1 1859   2.166   0.901   2.891 -0.9223  0.8767  0.2352
  620SOL    HW2 1860   2.034   0.981   2.963  1.5961  0.7564 -0.2563
  621SOL     OW 1861   2.400   2.949   1.211  0.1074 -0.7462  0.7806
  621SOL    HW1 1862   2.469   2.895   1.263  0.2794 -0.4472 -1.4967
  621SOL    HW2 1863   2.321   2.973   1.272 -0.6721  1.2665  1.2069
  622SOL     OW 1864   1.666   0.523   2.052 -0.0073 -0.2917 -0.1417
  622SOL    HW1 1865   1.683   0.454   1.979  0.3333  1.3684  2.9449
  622SOL    HW2 1866   1.594   0.586   2.017  1.1257  0.2272 -1.2675
  623SOL     OW 1867   1.483   0.942   2.410 -0.0538  0.3101 -0.9650
  623SOL    HW1 1868   1.573   0.945   2.362  1.5702  0.5856 -1.2516
  623SOL    HW2 1869   1.490   0.967   2.508  1.6670  0.4653  0.3001
  624SOL     OW 1870   1.880   0.061   0.533 -0.7768 -0.3668 -0.4039
  624SOL    HW1 1871   1.885   0.108   0.443  0.7021  1.4529 -1.1489
  624SOL    HW2 1872   1.953  -0.012   0.538 -0.9806 -1.6520  2.8975
  625SOL     OW 1873   0.667   1.496   0.426  0.0093  0.0835 -0.6017
  625SOL    HW1 1874   0.734   1.421   0.448 -0.9108  3.6668  3.2726
  625SOL    HW2 1875   0.675   1.575   0.490  1.1207 -0.3264 -1.0276
  626SOL     OW 1876   1.619   1.221   2.283  0.2248  0.1652 -0.5183
  626SOL    HW1 1877   1.622   1.251   2.185 -1.6137 -2.9395 -0.6496
  626SOL    HW2 1878   1.519   1.220   2.308 -0.5836  0.5979 -2.7979
  627SOL     OW 1879   0.850   0.587   1.815  0.6230 -0.1901  0.4207
  627SOL    HW1 1880   0.917   0.647   1.863  3.0518  2.4902 -1.3873
  627SOL    HW2 1881   0.756   0.596   1.857 -2.1437 -0.3448 -3.0666
  628SOL     OW 1882   2.065   0.797   2.255  0.1779 -0.0911 -0.1134
  628SOL    HW1 1883   1.989   0.746   2.211 -1.0044  1.3308 -0.7880
  628SOL    HW2 1884   2.145   0.805   2.192  2.5659  1.6433  0.1009
  629SOL     OW 1885   0.769   1.338   2.988 -0.1072  0.5113  0.0588
  629SOL    HW1 1886   0.749   1.381   2.897 -1.6799 -2.3418  0.8189
  629SOL    HW2 1887   0.687   1.290   3.028 -1.1506 -0.4906  0.0894
  630SOL     OW 1888   1.337   0.496   2.263  0.3534 -0.0328  0.2699
  630SOL    HW1 1889   1.333   0.598   2.256  0.7199 -0.0853 -0.7918
  630SOL    HW2 1890   1.433   0.465   2.282 -0.4692 -1.0360  1.4298
  631SOL     OW 1891   2.568   0.719   0.871  0.1842  0.0574 -0.5013
  631SOL    HW1 1892   2.519   0.647   0.923  0.5424 -2.1531  0.2526
  631SOL    HW2 1893   2.503   0.784   0.827  3.2391 -0.8325 -0.5185
  632SOL     OW 1894   2.698   1.714   0.701  0.7667 -1.0001  1.2221
  632SOL    HW1 1895   2.667   1.644   0.634 -1.0091 -0.4657 -0.5449
  632SOL    HW2 1896   2.768   1.775   0.657  0.9850 -1.2072 -0.1968
  633SOL     OW 1897   0.698   1.298   0.749  0.3337  0.3896  0.1339
  633SOL    HW1 1898   0.687   1.243   0.835  0.0420 -0.0822  1.8242
  633SOL    HW2 1899   0.665   1.245   0.669 -1.2545 -2.3961 -0.8052
  634SOL     OW 1900   1.552   2.997   0.279 -0.7639  0.2602 -0.3055
  634SOL    HW1 1901   1.470   2.936   0.270 -1.0662  0.0509  2.1839
  634SOL    HW2 1902   1.561   3.037   0.372  0.6149  0.8441 -0.1429
  635SOL     OW 1903   1.981   0.283   1.736 -0.0275  0.0468  0.0011
  635SOL    HW1 1904   2.018   0.247   1.648 -0.1259  1.8870 -0.2279
  635SOL    HW2 1905   2.015   0.379   1.752 -0.1110 -1.5430  0.5577
  636SOL     OW 1906   1.375   0.659   0.694  0.5897  0.3614 -0.4036
  636SOL    HW1 1907   1.311   0.732   0.732 -1.1845 -1.2904 -0.1045
  636SOL    HW2 1908   1.445   0.647   0.767 -0.0405 -2.2335  0.9996
  637SOL     OW 1909   1.960   1.471   2.866 -0.4981  0.5681 -0.5752
  637SOL    HW1 1910   1.954   1.511   2.772  1.5032 -0.5719  0.1911
  637SOL    HW2 1911   1.866   1.462   2.907  1.1314  0.5581 -1.0558
  638SOL     OW 1912   0.872   0.007   2.613 -0.2501 -0.1359 -0.3334
  638SOL    HW1 1913   0.844  -0.075   2.669 -1.9680  1.6949  3.1113
  638SOL    HW2 1914   0.802   0.022   2.542 -0.0902  0.1294  1.8205
  639SOL     OW 1915   1.071   2.041   1.446 -0.0518  0.2291  0.6212
  639SOL    HW1 1916   0.998   2.013   1.380 -0.4297 -1.1766  0.6346
  639SOL    HW2 1917   1.159   1.992   1.424  3.2002  2.2877 -0.4203
  640SOL     OW 1918   0.425   0.128   2.764 -0.6016  0.3625 -0.2894
  640SOL    HW1 1919   0.346   0.095   2.821  0.2146 -3.4563  0.0280
  640SOL    HW2 1920   0.457   0.060   2.696  3.2307 -2.0220 -0.6845
  641SOL     OW 1921   0.342   0.671   0.315 -0.2909  0.2799 -0.5955
  641SOL    HW1 1922   0.247   0.633   0.313  1.2207  0.3498 -0.2279
  641SOL    HW2 1923   0.340   0.771   0.338 -1.7793  1.6442 -0.2669
  642SOL     OW 1924   0.310   1.630   1.096  0.3577  0.8225 -0.0347
  642SOL    HW1 1925   0.356   1.718   1.120 -1.5290 -1.5953 -1.1829
  642SOL    HW2 1926   0.344   1.592   1.007 -0.0156 -1.5227  2.1752
  643SOL     OW 1927   0.803   1.710   2.708 -0.4594  0.0181 -0.6811
  643SOL    HW1 1928   0.749   1.790   2.739 -0.2906  1.5651 -0.1874
  643SOL    HW2 1929   0.899   1.728   2.739 -1.4872 -2.1531 -1.4509
  644SOL     OW 1930   1.522   2.359   0.426 -0.3558 -0.0785 -0.3804
  644SOL    HW1 1931   1.612   2.363   0.376 -1.5846 -2.0595  1.0771
  644SOL    HW2 1932   1.538   2.343   0.525  0.7659 -1.0786  0.4457
  645SOL     OW 1933   1.024   2.301   1.505 -0.1812  0.1687 -0.3842
  645SOL    HW1 1934   1.044   2.204   1.480  1.2464 -0.1263 -2.0067
  645SOL    HW2 1935   1.093   2.368   1.470  0.1009  2.6759 -0.9600
  646SOL     OW 1936   0.522   2.519   0.066 -0.1755 -0.5352 -0.0374
  646SOL    HW1 1937   0.610   2.494   0.111  1.0415 -0.0533  1.7973
  646SOL    HW2 1938   0.525   2.609   0.017  0.2137  0.7409 -1.3941
  647SOL     OW 1939   0.150   2.906   2.056  0.2398 -0.7890  0.1212
  647SOL    HW1 1940   0.097   2.917   2.142  0.2665 -0.3931  0.5412
  647SOL    HW2 1941   0.250   2.898   2.077 -1.5321 -0.5420  1.5294
  648SOL     OW 1942   2.539   1.035   1.090 -0.6137 -0.1592  0.0689
  648SOL    HW1 1943   2.612   0.968   1.063 -0.4132  2.1889  0.8131
  648SOL    HW2 1944   2.462   0.986   1.138 -1.4406  0.2940 -0.0196
  649SOL     OW 1945   2.104   2.643   2.708 -0.5971  0.2245  0.0691
  649SOL    HW1 1946   2.132   2.614   2.802 -1.9204 -0.5455 -0.4616
  649SOL    HW2 1947   2.089   2.745   2.706 -1.2109 -1.1522  1.4541
  650SOL     OW 1948   2.743   2.140   1.905  0.0831  0.1005 -0.2018
  650SOL    HW1 1949   2.814   2.070   1.924  0.0231 -1.1106  3.3600
  650SOL    HW2 1950   2.778   2.212   1.841  0.9879  1.6758  1.4494
  651SOL     OW 1951   1.069   1.731   2.761  0.1383  0.0225 -0.4327
  651SOL    HW1 1952   1.125   1.767   2.683 -0.6466  0.2357  0.5623
  651SOL    HW2 1953   1.116   1.649   2.798 -0.8998  0.1765  1.1435
  652SOL     OW 1954   0.496   0.073   2.170 -0.1726  0.0117 -0.2350
  652SOL    HW1 1955   0.442   0.160   2.171 -1.4084 -0.6826  2.6837
  652SOL    HW2 1956   0.563   0.077   2.247 -0.1297 -0.8578 -2.4958
  653SOL     OW 1957   1.988   1.817   0.796  1.0750 -0.1501 -0.1710
  653SOL    HW1 1958   2.019   1.728   0.837 -0.4575 -0.2645  1.0199
  653SOL    HW2 1959   2.037   1.896   0.840 -3.1565 -1.8634 -1.2112
  654SOL     OW 1960   2.282   2.760   2.099 -0.4901 -0.8135  0.0942
  654SOL    HW1 1961   2.228   2.764   2.185  2.2512  0.1822 -0.1929
  654SOL    HW2 1962   2.305   2.857   2.079  1.8186 -3.7965  0.1232
  655SOL     OW 1963   2.381   2.118   0.922  0.1304 -0.2763  0.6457
  655SOL    HW1 1964   2.359   2.209   0.964 -0.3880  0.4447  1.6467
  655SOL    HW2 1965   2.294   2.074   0.894 -0.4458 -1.9316  0.9770
  656SOL     OW 1966   2.649   1.546   2.822  0.2489  1.1254 -0.3852
  656SOL    HW1 1967   2.687   1.634   2.785 -0.8314  0.3520 -0.1768
  656SOL    HW2 1968   2.677   1.540   2.920  0.3855  1.7307 -2.8774
  657SOL     OW 1969   0.086   1.216   0.642 -0.1567 -0.3088 -0.1106
  657SOL    HW1 1970   0.006   1.185   0.587  0.1009  0.5979 -0.6906
  657SOL    HW2 1971   0.062   1.234   0.739  2.0787 -1.4082  1.2783
  658SOL     OW 1972   1.128   1.671   1.323 -0.6963  0.0021  0.0240
  658SOL    HW1 1973   1.173   1.627   1.242 -0.0472 -2.4435  1.4937
  658SOL    HW2 1974   1.028   1.675   1.309  1.4637  0.8767  3.6984
  659SOL     OW 1975   1.330   0.100   1.423  0.4580  0.2349  0.1215
  659SOL    HW1 1976   1.326   0.162   1.505 -3.3204  2.9487 -1.8502
  659SOL    HW2 1977   1.269   0.130   1.347  2.1521 -1.1569 -2.1606
  660SOL     OW 1978   2.499   0.439   0.702 -0.1655  0.2183 -0.5324
  660SOL    HW1 1979   2.421   0.492   0.741 -0.8121  1.1363 -0.2682
  660SOL    HW2 1980   2.542   0.490   0.624 -0.4679 -1.1155 -1.8502
  661SOL     OW 1981   0.521   1.872   0.342 -0.2393 -0.2494 -0.0512
  661SOL    HW1 1982   0.562   1.796   0.287 -0.8806 -0.3790  1.8332
  661SOL    HW2 1983   0.480   1.947   0.285 -2.7080 -0.2129 -0.3372
  662SOL     OW 1984   2.267   0.809   2.074  0.4895 -0.1310 -0.7339
  662SOL    HW1 1985   2.298   0.717   2.045  1.2354  1.9473  2.2784
  662SOL    HW2 1986   2.230   0.858   1.992  0.7787  2.0182 -1.7559
  663SOL     OW 1987   1.754   1.397   1.065 -0.2021 -0.9574  0.2915
  663SOL    HW1 1988   1.792   1.323   1.004  2.2601  0.7634 -2.3338
  663SOL    HW2 1989   1.829   1.440   1.120  1.5642 -1.2585 -1.0670
  664SOL     OW 1990   0.591   2.995   1.205  0.5423 -0.0088  0.6338
  664SOL    HW1 1991   0.638   3.080   1.172  0.5127 -0.0662  2.1287
  664SOL    HW2 1992   0.573   3.010   1.304  2.6071  1.7697 -2.2598
  665SOL     OW 1993   1.397   0.272   2.870  0.2898  0.1329  0.2405
  665SOL    HW1 1994   1.461   0.195   2.850  2.2254 -0.5647  1.1148
  665SOL    HW2 1995   1.400   0.337   2.791  0.8648 -0.3874  1.1007
  666SOL     OW 1996   0.915   0.610   2.166  0.0969  0.0840  0.1557
  666SOL    HW1 1997   0.884   0.514   2.181 -0.0161 -0.2665  0.2379
  666SOL    HW2 1998   0.830   0.667   2.162  0.8113 -0.6935  1.2723
  667SOL     OW 1999   1.358   1.347   1.449  0.0442 -0.3965 -0.6113
  667SOL    HW1 2000   1.291   1.410   1.493 -0.2785  4.2247  1.5050
  667SOL    HW2 2001   1.330   1.337   1.351  2.4239 -0.7619  0.8913
  668SOL     OW 2002   0.346   1.090   2.065  0.2014  0.3621  0.9701
  668SOL    HW1 2003   0.431   1.074   2.120  0.3292 -1.9573 -0.0318
  668SOL    HW2 2004   0.347   1.184   2.023  1.5005  2.3768 -0.5894
  669SOL     OW 2005   2.577   2.492   2.858 -0.9276 -0.1040  0.3305
  669SOL    HW1 2006   2.532   2.429   2.791  2.5121  0.9713 -0.8452
  669SOL    HW2 2007   2.562   2.458   2.954  0.4448  1.6120  0.1256
  670SOL     OW 2008   2.594   1.267   1.713  0.6332  0.2290 -0.4056
  670SOL    HW1 2009   2.693   1.292   1.696 -2.4286 -1.1683 -1.3366
  670SOL    HW2 2010   2.587   1.184   1.772  3.3774  3.0355 -0.5917
  671SOL     OW 2011   2.891   1.870   0.586 -0.0098  0.6354  0.6141
  671SOL    HW1 2012   2.885   1.972   0.580 -1.8848  0.0359  0.3367
  671SOL    HW2 2013   2.908   1.831   0.493  1.5567  0.8421 -1.2585
  672SOL     OW 2014   1.582   0.953   1.907 -0.0650 -0.3384  0.6639
  672SOL    HW1 2015   1.667   0.996   1.943  0.6378  4.3340 -0.3789
  672SOL    HW2 2016   1.578   0.967   1.806 -1.1965  3.4323 -1.8147
  673SOL     OW 2017   2.884   2.048   1.475  0.0061  0.0283  0.1433
  673SOL    HW1 2018   2.884   2.146   1.452 -0.7172 -0.7595  0.8452
  673SOL    HW2 2019   2.844   1.994   1.399  1.0406 -1.0381  0.3815
  674SOL     OW 2020   0.619   2.018   1.585  0.6712 -0.9146 -0.0757
  674SOL    HW1 2021   0.677   1.983   1.662  0.5079  0.3489 -1.0777
  674SOL    HW2 2022   0.542   2.069   1.629 -0.9450 -1.0154 -1.4317
  675SOL     OW 2023   2.878   0.727   1.196  0.0232  0.0321  0.2240
  675SOL    HW1 2024   2.966   0.758   1.237  0.3395 -0.5369 -0.4039
  675SOL    HW2 2025   2.881   0.628   1.172 -0.3142 -1.3795  0.1424
  676SOL     OW 2026   2.856   0.860   1.727  0.1740 -0.4786  0.7774
  676SOL    HW1 2027   2.842   0.896   1.822  0.4729 -0.4049 -1.1742
  676SOL    HW2 2028   2.782   0.792   1.709  0.3884  2.2564  0.1613
  677SOL     OW 2029   2.052   1.111   2.491  0.5110 -0.4859 -0.0122
  677SOL    HW1 2030   1.963   1.161   2.498  3.2779  1.9907 -2.8488
  677SOL    HW2 2031   2.118   1.146   2.559  0.0346  0.7645  3.0316
  678SOL     OW 2032   2.494   1.462   1.099 -0.0340  0.3989  0.5375
  678SOL    HW1 2033   2.507   1.387   1.030 -2.4977  1.7082  0.0459
  678SOL    HW2 2034   2.585   1.485   1.141  0.9041  0.5869  2.1192
  679SOL     OW 2035   0.128   2.707   0.022  0.1204 -0.0462  0.8741
  679SOL    HW1 2036   0.158   2.628  -0.035 -2.2347  2.6281 -0.4847
  679SOL    HW2 2037   0.116   2.675   0.118  0.6983 -0.0569 -2.2259
  680SOL     OW 2038   0.044   1.618   1.137  0.2205 -0.2357 -0.3517
  680SOL    HW1 2039   0.143   1.627   1.110  1.0229 -1.3033 -0.8762
  680SOL    HW2 2040   0.024   1.681   1.215  3.1481  3.5551 -2.1217
  681SOL     OW 2041   0.884   0.109   0.878 -0.1652  0.2956 -0.0601
  681SOL    HW1 2042   0.834   0.142   0.960  0.9956 -2.9170  0.1613
  681SOL    HW2 2043   0.976   0.155   0.882 -0.9916 -1.1795 -1.6030
  682SOL     OW 2044   2.061   2.404   1.606 -0.6423 -0.5793  0.2249
  682SOL    HW1 2045   2.131   2.340   1.646 -1.2928 -4.2249  1.8979
  682SOL    HW2 2046   2.017   2.357   1.526  0.4528  0.8946  0.8447
  683SOL     OW 2047   2.602   1.770   1.676 -0.9258 -0.2583 -0.1570
  683SOL    HW1 2048   2.571   1.846   1.615 -1.9638 -0.8861 -0.0858
  683SOL    HW2 2049   2.698   1.744   1.648 -0.7475  0.2060  1.4011
  684SOL     OW 2050   3.025   1.490   1.778  0.1459  0.3078 -0.3176
  684SOL    HW1 2051   3.021   1.510   1.878  0.4214 -0.7232 -0.7633
  684SOL    HW2 2052   3.121   1.462   1.757  0.6173 -1.8943  0.9781
  685SOL     OW 2053   1.397   1.390   0.230 -0.2163 -0.2050 -0.4267
  685SOL    HW1 2054   1.419   1.451   0.308  0.9275 -1.0015  1.6504
  685SOL    HW2 2055   1.486   1.349   0.198 -1.0707  0.5318  3.3206
  686SOL     OW 2056   2.876   0.574   1.880 -0.3861 -0.0827  0.5171
  686SOL    HW1 2057   2.968   0.572   1.836 -0.0300 -0.2801  0.6183
  686SOL    HW2 2058   2.799   0.607   1.822 -3.0017  1.4598  0.8648
  687SOL     OW 2059   1.556   0.055   2.847  0.0544  0.2600  0.3865
  687SOL    HW1 2060   1.487  -0.007   2.804 -0.6169  2.8829 -1.3067
  687SOL    HW2 2061   1.585   0.016   2.937 -1.7833  1.1895 -2.0764
  688SOL     OW 2062   1.225   1.807   2.547  0.3347  0.3498 -0.0803
  688SOL    HW1 2063   1.226   1.715   2.501 -0.8151 -1.5552  2.9893
  688SOL    HW2 2064   1.318   1.832   2.581 -0.1499  0.8834 -0.5117
  689SOL     OW 2065   2.195   1.608   1.441  0.3166  0.1045 -0.3995
  689SOL    HW1 2066   2.108   1.558   1.459  1.8378 -0.3276  0.1448
  689SOL    HW2 2067   2.260   1.546   1.390 -3.3317 -2.6710  2.1335
  690SOL     OW 2068   2.321   2.134   1.260 -0.5833 -0.2636  0.0971
  690SOL    HW1 2069   2.251   2.125   1.333  0.2262  2.2699  1.2565
  690SOL    HW2 2070   2.309   2.056   1.196  0.3133  0.2623 -0.9226
  691SOL     OW 2071   0.237   1.653   0.675  0.2497  0.0414 -0.0590
  691SOL    HW1 2072   0.271   1.728   0.614 -2.1836  0.5848 -1.0525
  691SOL    HW2 2073   0.144   1.681   0.709 -0.6575 -2.8162 -1.9555
  692SOL     OW 2074   2.726   2.950   2.907 -0.1967  0.4432  0.0280
  692SOL    HW1 2075   2.828   2.962   2.907  1.9348 -1.0062  1.4673
  692SOL    HW2 2076   2.689   2.993   2.823  2.1484 -1.2521  1.6852
  693SOL     OW 2077   0.311   1.344   1.982  0.1154 -0.5993 -0.2943
  693SOL    HW1 2078   0.276   1.365   1.888 -1.2805 -1.6554 -2.2400
  693SOL    HW2 2079   0.242   1.374   2.051 -1.9060  1.5063 -0.0495
  694SOL     OW 2080   2.468   0.354   2.014  0.0383 -0.0051 -0.6451
  694SOL    HW1 2081   2.569   0.365   2.015  0.0850  0.7441  0.1543
  694SOL    HW2 2082   2.434   0.332   1.919  1.0442  4.0810  1.6967
  695SOL     OW 2083   1.480   0.721   2.007 -0.6362 -0.3130 -0.7650
  695SOL    HW1 2084   1.440   0.739   2.100 -0.5683 -1.8948  0.8009
  695SOL    HW2 2085   1.524   0.806   1.971  0.9106 -0.0100 -2.7454
  696SOL     OW 2086   2.156   2.852   1.676 -0.2310  0.2017 -0.2841
  696SOL    HW1 2087   2.125   2.896   1.763  1.1370  0.2029  1.7592
  696SOL    HW2 2088   2.084   2.875   1.606  0.5079  1.1206  0.5564
  697SOL     OW 2089   1.020   0.745   1.961 -0.0669 -0.0614 -0.2484
  697SOL    HW1 2090   0.994   0.687   2.042  0.1068 -1.0148 -1.5764
  697SOL    HW2 2091   1.110   0.712   1.925  0.6674 -2.4016  0.0997
  698SOL     OW 2092   2.241   1.635   2.689 -0.6843  0.2887  0.0844
  698SOL    HW1 2093   2.331   1.602   2.652 -0.8990 -0.5359  0.4879
  698SOL    HW2 2094   2.234   1.617   2.790  1.8716  1.9163  0.2514
  699SOL     OW 2095   2.385   1.067   0.314 -0.6049 -0.1585  0.0130
  699SOL    HW1 2096   2.312   1.009   0.359 -2.0695 -0.5146 -0.6564
  699SOL    HW2 2097   2.368   1.069   0.214  1.6320 -1.8237  1.1644
  700SOL     OW 2098   1.258   3.030   0.959 -0.1128 -0.1830 -0.0162
  700SOL    HW1 2099   1.280   2.987   0.869  0.1659  0.8767 -1.1685
  700SOL    HW2 2100   1.312   2.986   1.034 -2.7803 -0.5113 -0.1465
  701SOL     OW 2101   2.941   0.458   0.742 -0.1277  0.0381  0.0527
  701SOL    HW1 2102   2.883   0.539   0.715  1.8967  0.8695  0.4564
  701SOL    HW2 2103   3.005   0.491   0.814 -2.4091  0.6391  1.0031
  702SOL     OW 2104   1.532   2.522   1.234  0.1675  0.1753  0.3804
  702SOL    HW1 2105   1.542   2.434   1.284  2.5228 -1.8198  0.0136
  702SOL    HW2 2106   1.547   2.603   1.295 -0.1863  3.5366 -0.5815
  703SOL     OW 2107   0.081   0.515   1.189  0.3484  0.3158 -0.5311
  703SOL    HW1 2108   0.041   0.548   1.278  0.2879 -1.3572  3.7424
  703SOL    HW2 2109   0.180   0.496   1.203  0.0980  0.4340 -1.7945
  704SOL     OW 2110   1.045   2.812   1.765 -0.2747 -0.2924 -0.3401
  704SOL    HW1 2111   1.020   2.904   1.725  0.4631  0.4720 -0.0299
  704SOL    HW2 2112   0.964   2.770   1.811  1.2118 -1.5568 -0.1703
  705SOL     OW 2113   0.057   1.956   3.011  0.4755  0.4668 -0.8315
  705SOL    HW1 2114   0.110   1.896   3.078  0.8868 -0.4218 -0.9667
  705SOL    HW2 2115  -0.032   1.981   3.054 -1.8098 -2.1419 -0.2504
  706SOL     OW 2116   0.089   0.566   0.303 -0.0358 -0.1884  0.6803
  706SOL    HW1 2117   0.066   0.530   0.210 -2.2275 -1.7986  0.0813
  706SOL    HW2 2118   0.048   0.501   0.372 -0.9550 -4.4283 -1.9099
  707SOL     OW 2119   1.919   2.619   1.955 -0.7864  1.1394  0.2197
  707SOL    HW1 2120   1.953   2.528   1.988 -0.8875 -0.9322 -1.3391
  707SOL    HW2 2121   1.949   2.698   2.010 -2.8035  1.1763 -1.2194
  708SOL     OW 2122   0.563   3.019   1.477  0.6043  0.0571 -0.2374
  708SOL    HW1 2123   0.555   2.927   1.523  1.5908  0.2359 -1.3050
  708SOL    HW2 2124   0.512   3.086   1.535  3.5488 -0.7001  0.1448
  709SOL     OW 2125   0.208   0.715   1.743 -0.0710  0.1607 -0.5689
  709SOL    HW1 2126   0.137   0.744   1.676 -1.5700 -0.4412 -0.4404
  709SOL    HW2 2127   0.206   0.785   1.819 -0.3354  1.8108  0.1767
  710SOL     OW 2128   0.234   0.586   0.761 -0.3853 -0.2589  0.0115
  710SOL    HW1 2129   0.159   0.575   0.830  1.7126 -2.4119 -0.6595
  710SOL    HW2 2130   0.211   0.665   0.702  0.1484 -2.4951 -0.3284
  711SOL     OW 2131   2.363   2.295   2.022  0.1257  0.0242  0.4994
  711SOL    HW1 2132   2.382   2.290   2.122  1.1623 -0.6874 -1.1028
  711SOL    HW2 2133   2.323   2.387   2.003 -0.2865 -0.4587 -0.6611
  712SOL     OW 2134   0.194   2.688   2.385  0.0584  0.2865  0.7196
  712SOL    HW1 2135   0.176   2.779   2.430  0.7312  0.3427 -1.2122
  712SOL    HW2 2136   0.131   2.673   2.305  0.0209  1.5391  0.4390
  713SOL     OW 2137   2.315   0.224   0.659 -0.0371  0.3179  0.2278
  713SOL    HW1 2138   2.385   0.291   0.693 -0.3905 -3.0743 -1.0149
  713SOL    HW2 2139   2.313   0.218   0.557  0.0360  1.1283 -0.3215
  714SOL     OW 2140   1.687   1.378   2.664  0.3952  0.1277  0.4814
  714SOL    HW1 2141   1.696   1.481   2.666  1.0143 -0.6224 -1.8942
  714SOL    HW2 2142   1.751   1.340   2.595 -0.7982 -1.0039  0.5697
  715SOL     OW 2143   0.027   0.589   0.932 -0.2953  0.0488  0.1819
  715SOL    HW1 2144   0.043   0.563   1.030 -0.9682 -3.0526 -0.4948
  715SOL    HW2 2145   0.006   0.689   0.928 -2.7656 -2.9895  1.6385
  716SOL     OW 2146   0.827   0.697   1.568  0.0814 -0.2352 -0.3160
  716SOL    HW1 2147   0.737   0.661   1.535  1.7480  0.8003 -2.8052
  716SOL    HW2 2148   0.849   0.657   1.659  0.3621  1.1949  0.4881
  717SOL     OW 2149   1.353   0.767   2.245 -0.3207  0.1189  0.2143
  717SOL    HW1 2150   1.401   0.826   2.313 -0.5625  2.4096 -1.8967
  717SOL    HW2 2151   1.269   0.815   2.211  1.4030 -1.1525  1.8280
  718SOL     OW 2152   1.238   0.025   0.507 -0.1930  0.5285  0.6534
  718SOL    HW1 2153   1.242   0.120   0.547 -3.0335  0.0567 -2.7363
  718SOL    HW2 2154   1.231   0.041   0.406 -1.1845  1.5828 -2.3250
  719SOL     OW 2155   2.980   2.727   2.739  0.0172  0.6600 -0.2040
  719SOL    HW1 2156   2.881   2.700   2.731 -2.6923  0.5187 -1.2789
  719SOL    HW2 2157   3.039   2.645   2.750 -2.9885  0.2710 -0.7471
  720SOL     OW 2158   1.472   0.359   1.821 -0.3563  0.4356  0.6527
  720SOL    HW1 2159   1.415   0.356   1.907  1.4425 -1.7336  1.0593
  720SOL    HW2 2160   1.569   0.337   1.844 -0.2150  1.0308  2.7435
  721SOL     OW 2161   0.098   2.783   1.103 -0.4373 -0.0364  0.3387
  721SOL    HW1 2162   0.074   2.878   1.073 -0.0661  2.3791 -2.0521
  721SOL    HW2 2163   0.022   2.719   1.077  0.9338 -1.1208  0.1971
  722SOL     OW 2164   0.844   1.025   2.722  0.2721  0.1334  0.2365
  722SOL    HW1 2165   0.820   1.108   2.668 -0.9136  1.5927 -0.3391
  722SOL    HW2 2166   0.896   1.058   2.804  1.6290 -0.9643  0.4480
  723SOL     OW 2167   2.022   1.231   1.315 -0.3468 -0.3560  0.6313
  723SOL    HW1 2168   2.082   1.260   1.238 -1.1779  0.3832  1.7687
  723SOL    HW2 2169   1.993   1.308   1.376 -0.0474 -0.7733  0.9712
  724SOL     OW 2170   0.911   1.869   0.335 -0.2337 -0.4846 -0.0484
  724SOL    HW1 2171   0.963   1.791   0.374  2.2015  0.5350 -0.4116
  724SOL    HW2 2172   0.892   1.850   0.236 -0.6010  0.7455  1.3611
  725SOL     OW 2173   0.010   0.783   1.576  0.0043  0.1522  0.5111
  725SOL    HW1 2174   0.012   0.832   1.487 -0.4183  1.8994 -1.5760
  725SOL    HW2 2175  -0.069   0.818   1.631  0.4633 -1.3870 -1.1229
  726SOL     OW 2176   2.346   1.039   0.041 -0.3382 -0.1005  0.5915
  726SOL    HW1 2177   2.255   1.020  -0.001  2.7131 -0.6206  0.7131
  726SOL    HW2 2178   2.403   0.952   0.041 -0.7923  0.6878  0.8607
  727SOL     OW 2179   2.146   0.852   2.500  0.8574 -0.5683  0.1441
  727SOL    HW1 2180   2.117   0.948   2.515 -0.6731  3.4402 -3.1344
  727SOL    HW2 2181   2.127   0.821   2.403  2.0337 -1.7735  2.2607
  728SOL     OW 2182   1.790   1.863   1.439 -0.0448 -0.0850  0.6552
  728SOL    HW1 2183   1.889   1.851   1.416  0.4606 -1.5227  2.6704
  728SOL    HW2 2184   1.751   1.928   1.369 -0.8178  0.3193  2.1015
  729SOL     OW 2185   1.813   1.069   2.010  0.3993  0.4640  0.1505
  729SOL    HW1 2186   1.751   1.152   2.012  2.4054  2.5464  0.1959
  729SOL    HW2 2187   1.909   1.103   2.007 -2.1485  2.2747  1.1650
  730SOL     OW 2188   1.371   0.648   1.094 -0.1072  0.3293  0.3784
  730SOL    HW1 2189   1.357   0.550   1.120  1.3747 -0.9501  1.5115
  730SOL    HW2 2190   1.445   0.649   1.023  1.5186 -0.5721  2.0858
  731SOL     OW 2191   0.532   0.763   2.994 -0.0830 -0.0184  0.8668
  731SOL    HW1 2192   0.547   0.718   2.904 -0.1417  1.3653  2.4728
  731SOL    HW2 2193   0.526   0.693   3.069  0.7346 -2.3875 -1.4143
  732SOL     OW 2194   0.364   0.938   0.380  0.2751  0.3864  0.1974
  732SOL    HW1 2195   0.458   0.975   0.367  3.0163  0.1234  3.2098
  732SOL    HW2 2196   0.329   0.972   0.470  2.9073 -0.6871  0.4477
  733SOL     OW 2197   1.306   1.633   2.169 -0.3494  0.3890 -0.0008
  733SOL    HW1 2198   1.236   1.707   2.161  1.0427  0.2490  2.7911
  733SOL    HW2 2199   1.341   1.604   2.077  1.9141 -1.1515 -2.5474
  734SOL     OW 2200   0.400   2.328   2.973 -0.6627 -0.4978  0.9018
  734SOL    HW1 2201   0.453   2.390   3.034  1.7484 -0.3010 -3.8476
  734SOL    HW2 2202   0.344   2.256   3.019 -0.7632 -0.5842  1.2730
  735SOL     OW 2203   2.681   0.139   0.987 -0.4721 -0.0819  0.0976
  735SOL    HW1 2204   2.728   0.125   1.077  2.0213 -0.0129 -0.8829
  735SOL    HW2 2205   2.693   0.236   0.954 -0.8471 -0.1424  0.5367
  736SOL     OW 2206   1.967   1.469   2.334  0.1811 -0.1225 -0.1230
  736SOL    HW1 2207   2.062   1.439   2.309 -2.3347  0.0490 -0.4441
  736SOL    HW2 2208   1.973   1.525   2.420 -1.7300  0.6753 -0.4002
  737SOL     OW 2209   0.002   0.799   0.403  0.0220 -0.7502 -0.3268
  737SOL    HW1 2210   0.005   0.866   0.326 -1.8640  1.9264 -1.1682
  737SOL    HW2 2211   0.025   0.706   0.368 -0.0465 -1.6445 -1.8589
  738SOL     OW 2212   0.881   1.968   1.262  0.4995 -0.3257  0.1596
  738SOL    HW1 2213   0.837   1.890   1.215 -1.2565  0.2688  1.3394
  738SOL    HW2 2214   0.810   2.036   1.289  0.7858 -2.3336  1.6625
  739SOL     OW 2215   1.766   2.535   2.343 -0.4691 -1.0071 -0.0406
  739SOL    HW1 2216   1.807   2.552   2.437 -1.4861 -1.3077 -2.9491
  739SOL    HW2 2217   1.759   2.623   2.292 -1.0981  3.5645 -0.4476
  740SOL     OW 2218   2.316   2.335   1.072  0.1845  0.0147  0.6172
  740SOL    HW1 2219   2.328   2.282   1.159 -3.9406  0.7838  2.6663
  740SOL    HW2 2220   2.359   2.428   1.087  0.0159  1.2013  0.1656
  741SOL     OW 2221   2.332   0.623   0.157  0.2198  0.2314  0.8831
  741SOL    HW1 2222   2.319   0.549   0.088 -1.6165  1.0717 -0.8085
  741SOL    HW2 2223   2.350   0.577   0.246 -0.9173  2.6330  0.0892
  742SOL     OW 2224   1.147   2.380   0.065 -0.4908 -0.2927 -0.8791
  742SOL    HW1 2225   1.060   2.380   0.011  1.1976 -0.5665 -1.3283
  742SOL    HW2 2226   1.173   2.477   0.081  2.4919 -1.4574  0.3655
  743SOL     OW 2227   2.560   1.400   2.043 -0.1410  0.0698  0.1325
  743SOL    HW1 2228   2.499   1.412   1.961 -1.8775 -0.0767 -0.4589
  743SOL    HW2 2229   2.546   1.308   2.085  0.2226 -0.2318 -0.0320
  744SOL     OW 2230   2.918   0.173   0.388  0.5418 -0.3270  0.3429
  744SOL    HW1 2231   2.838   0.192   0.450 -1.4248 -1.1840 -0.8795
  744SOL    HW2 2232   2.894   0.099   0.322  0.1743  0.8476  1.8836
  745SOL     OW 2233   2.556   1.756   1.303 -0.0802  0.0357 -0.0809
  745SOL    HW1 2234   2.610   1.670   1.294  1.4055 -0.6905  0.9496
  745SOL    HW2 2235   2.492   1.755   1.224 -0.0811  1.3315 -1.7847
  746SOL     OW 2236   1.056   1.649   0.417 -0.4312 -0.2085  0.4330
  746SOL    HW1 2237   1.030   1.639   0.516  2.2107  5.4111  1.4446
  746SOL    HW2 2238   1.039   1.563   0.363 -1.9169 -0.2359  0.1095
  747SOL     OW 2239   1.173   1.526   1.546 -0.0175  0.2830  0.0558
  747SOL    HW1 2240   1.171   1.587   1.464  1.9337  1.1385 -0.0198
  747SOL    HW2 2241   1.091   1.464   1.551 -0.3135 -2.7019  0.8579
  748SOL     OW 2242   0.282   2.873   2.933 -0.5978 -0.1617 -0.8238
  748SOL    HW1 2243   0.222   2.812   2.990 -0.6661 -0.6203  0.8629
  748SOL    HW2 2244   0.262   2.971   2.952 -1.6599 -0.1431 -1.0734
  749SOL     OW 2245   0.226   1.055   2.820 -0.0031  0.1080 -0.7769
  749SOL    HW1 2246   0.241   0.980   2.888  1.8480  2.0830 -0.4880
  749SOL    HW2 2247   0.258   1.027   2.727  1.8907  2.9349  1.0067
  750SOL     OW 2248   1.596   0.992   1.634 -0.4934  0.0234  0.1198
  750SOL    HW1 2249   1.522   1.027   1.572 -0.6213  2.9585 -1.6604
  750SOL    HW2 2250   1.666   1.068   1.641  1.5456 -0.4565  0.4279
  751SOL     OW 2251   2.885   0.886   0.590 -0.3391 -0.8249  0.0146
  751SOL    HW1 2252   2.947   0.845   0.520  2.1859 -0.7347  0.7242
  751SOL    HW2 2253   2.902   0.987   0.593 -3.1317  1.2530  0.6946
  752SOL     OW 2254   2.820   2.754   0.891 -0.8430  0.6234  0.0130
  752SOL    HW1 2255   2.837   2.855   0.899 -0.2128  0.5239  0.2814
  752SOL    HW2 2256   2.867   2.701   0.965  0.4481  1.5507  0.2342
  753SOL     OW 2257   0.646   2.519   1.253 -0.2918  0.7876 -0.3160
  753SOL    HW1 2258   0.697   2.459   1.319  1.3897 -1.3094 -1.6248
  753SOL    HW2 2259   0.641   2.477   1.160  0.2614 -0.7254 -0.7706
  754SOL     OW 2260   2.919   2.661   1.904  0.1335  0.1049 -0.0636
  754SOL    HW1 2261   2.886   2.742   1.958 -1.4327  0.2338 -0.6365
  754SOL    HW2 2262   2.887   2.576   1.950  1.6773  1.5804  0.0046
  755SOL     OW 2263   2.476   0.812   0.026 -0.3927 -0.6026  0.4015
  755SOL    HW1 2264   2.557   0.770  -0.020  0.3106 -2.9452  2.3383
  755SOL    HW2 2265   2.431   0.736   0.079 -2.3938 -1.7146 -0.5139
  756SOL     OW 2266   1.825   2.099   0.219 -0.6410  0.4662  0.3054
  756SOL    HW1 2267   1.829   2.134   0.123  1.1735 -0.2308  0.2502
  756SOL    HW2 2268   1.904   2.038   0.244 -0.9266 -0.7222  0.8955
  757SOL     OW 2269   2.601   0.590   0.497  0.3601 -0.3540  0.4659
  757SOL    HW1 2270   2.583   0.673   0.439 -0.5897 -1.0095  0.3695
  757SOL    HW2 2271   2.678   0.615   0.559  0.2504 -0.7544  1.4556
  758SOL     OW 2272   2.146   0.939   1.869  0.2251  0.5455 -0.5871
  758SOL    HW1 2273   2.059   0.887   1.858  0.9532  0.4499  0.9588
  758SOL    HW2 2274   2.123   1.032   1.907  3.1481 -1.9044  2.0962
  759SOL     OW 2275   2.632   0.475   1.305 -0.2067  0.0729  0.2833
  759SOL    HW1 2276   2.556   0.540   1.282 -1.9224  1.1419  2.3543
  759SOL    HW2 2277   2.704   0.474   1.231 -0.4357 -0.5844 -2.2529
  760SOL     OW 2278   0.538   1.392   1.372 -0.3193 -0.6164 -0.1134
  760SOL    HW1 2279   0.448   1.441   1.375 -2.5053 -0.7817  0.6933
  760SOL    HW2 2280   0.533   1.300   1.417 -2.1644  0.8907 -0.5959
  761SOL     OW 2281   0.782   0.627   0.106  0.4956 -0.0527 -0.7591
  761SOL    HW1 2282   0.683   0.612   0.127  2.1024 -2.1663  3.0827
  761SOL    HW2 2283   0.809   0.725   0.119  0.2207  0.2294  1.7633
  762SOL     OW 2284   0.698   1.773   1.170 -0.5389 -0.7077 -0.6783
  762SOL    HW1 2285   0.736   1.685   1.135  0.2713 -1.0951  0.6504
  762SOL    HW2 2286   0.677   1.763   1.270 -1.0674  1.1258  0.3677
  763SOL     OW 2287   1.259   0.687   1.854  0.0877  0.8405 -0.2814
  763SOL    HW1 2288   1.282   0.631   1.772  1.7313 -1.6499  2.9014
  763SOL    HW2 2289   1.338   0.696   1.919 -0.5205  0.1287  0.0079
  764SOL     OW 2290   2.996   2.958   2.889 -0.0760  0.3342 -0.0110
  764SOL    HW1 2291   3.044   2.955   2.980  0.7013  1.1969  0.3442
  764SOL    HW2 2292   3.009   2.868   2.844 -1.3886  1.6360  0.4373
  765SOL     OW 2293   0.772   3.041   1.851 -0.2680  0.3824 -0.1481
  765SOL    HW1 2294   0.700   3.113   1.855 -0.1549 -0.2808  3.2538
  765SOL    HW2 2295   0.836   3.054   1.772 -3.3006  1.0415  0.1265
  766SOL     OW 2296   2.714   1.872   2.246 -0.2062  0.2622  0.1677
  766SOL    HW1 2297   2.634   1.831   2.295 -2.4325 -0.6927  0.0985
  766SOL    HW2 2298   2.804   1.840   2.282  0.1710  0.9075 -0.0217
  767SOL     OW 2299   1.359   1.205   2.353  0.2526 -0.6072  0.5312
  767SOL    HW1 2300   1.358   1.105   2.367 -0.2118  0.9768  1.0456
  767SOL    HW2 2301   1.276   1.238   2.304  2.3075 -3.0364  2.6817
  768SOL     OW 2302   1.496   1.730   0.170 -0.4271  0.7092  0.0567
  768SOL    HW1 2303   1.396   1.733   0.191 -0.3452  2.0825  1.3216
  768SOL    HW2 2304   1.545   1.733   0.259  1.6679  0.3746  0.2294
  769SOL     OW 2305   0.400   1.544   0.859 -0.5103 -0.6544  0.4663
  769SOL    HW1 2306   0.343   1.584   0.784  1.0027  4.1646 -1.1647
  769SOL    HW2 2307   0.499   1.557   0.836  0.1167  0.6729 -0.1739
  770SOL     OW 2308   1.645   0.634   2.486  0.0262  0.0648 -0.1035
  770SOL    HW1 2309   1.713   0.711   2.480  1.3015  1.6188  1.6266
  770SOL    HW2 2310   1.551   0.670   2.502 -1.4162 -1.9488  2.1074
  771SOL     OW 2311   2.480   0.044   2.395  0.4024  0.3938 -0.3058
  771SOL    HW1 2312   2.439   0.085   2.311 -0.0912 -1.3551  1.3817
  771SOL    HW2 2313   2.414   0.028   2.469 -2.5130 -0.7493  1.5646
  772SOL     OW 2314   2.468   1.647   2.116  0.4455  0.2855 -0.5059
  772SOL    HW1 2315   2.368   1.634   2.100  3.8774  0.5655  0.1503
  772SOL    HW2 2316   2.519   1.561   2.092 -0.9201 -1.0018 -1.3016
  773SOL     OW 2317   0.946   1.383   1.516 -0.0615  0.2075  0.1357
  773SOL    HW1 2318   0.968   1.335   1.428 -2.4325 -0.4298 -0.6577
  773SOL    HW2 2319   0.868   1.447   1.500  0.6360  2.6507 -0.2495
  774SOL     OW 2320   1.127   0.645   2.849 -0.0560  0.2214  0.2436
  774SOL    HW1 2321   1.125   0.555   2.802 -0.3883  2.3142 -0.1136
  774SOL    HW2 2322   1.039   0.696   2.833  1.9474  0.1407  1.8079
  775SOL     OW 2323   1.376   2.160   0.321  0.4214  0.0267 -0.1064
  775SOL    HW1 2324   1.424   2.245   0.356  0.9788  0.2410 -0.7600
  775SOL    HW2 2325   1.374   2.172   0.219  0.3601  0.5943  0.1079
  776SOL     OW 2326   2.964   1.084   1.629 -0.4478  0.2930  0.6235
  776SOL    HW1 2327   3.059   1.081   1.669 -1.4123  2.9800 -0.0538
  776SOL    HW2 2328   2.911   1.003   1.661  0.0999  2.9487 -2.8113
  777SOL     OW 2329   2.437   2.277   2.279 -0.2278  0.5039 -0.1619
  777SOL    HW1 2330   2.473   2.372   2.285 -1.0758 -0.7546  1.1212
  777SOL    HW2 2331   2.514   2.215   2.253  1.2974  0.5406  0.2611
  778SOL     OW 2332   1.654   1.286   2.022  0.6952  0.3352  0.1132
  778SOL    HW1 2333   1.588   1.303   1.945  1.8972  1.7373 -2.1339
  778SOL    HW2 2334   1.702   1.370   2.054  0.0317  0.6280 -1.8357
  779SOL     OW 2335   2.915   1.152   0.528  0.3269  0.0332 -0.3029
  779SOL    HW1 2336   2.870   1.241   0.549 -1.1045  0.3810  0.9192
  779SOL    HW2 2337   2.887   1.121   0.433  3.2143  0.1556 -0.0012
  780SOL     OW 2338   2.058   2.910   2.722  0.3501 -0.2260  0.5256
  780SOL    HW1 2339   1.993   2.972   2.673 -0.4817 -1.0423 -0.3819
  780SOL    HW2 2340   2.054   2.928   2.823 -0.4117 -1.8052  1.7530
  781SOL     OW 2341   2.714   1.544   1.227  0.2360  0.3064 -0.1132
  781SOL    HW1 2342   2.777   1.567   1.149  2.5538 -2.3167 -0.9910
  781SOL    HW2 2343   2.772   1.510   1.304  0.4623  2.1639 -0.2342
  782SOL     OW 2344   2.892   2.280   2.817  0.2239 -0.1189 -0.1528
  782SOL    HW1 2345   2.850   2.283   2.910  0.4867  0.9008  3.5372
  782SOL    HW2 2346   2.819   2.270   2.746  0.6556 -0.3215  0.2987
  783SOL     OW 2347   0.664   1.563   0.794 -0.1400  0.7798  0.5694
  783SOL    HW1 2348   0.674   1.463   0.770 -1.3562 -0.1515  1.7526
  783SOL    HW2 2349   0.673   1.622   0.711  0.8306  1.1509 -3.3138
  784SOL     OW 2350   2.299   1.350   0.433  0.1036  0.0062  0.5619
  784SOL    HW1 2351   2.319   1.259   0.393 -0.9502  0.9526 -0.1937
  784SOL    HW2 2352   2.237   1.398   0.367 -0.3417  1.0188  1.6993
  785SOL     OW 2353   1.932   2.711   0.455  0.0091 -0.5654  0.5891
  785SOL    HW1 2354   1.874   2.760   0.386  3.0568  0.9315 -0.4481
  785SOL    HW2 2355   1.871   2.670   0.526 -0.7646 -1.8857  0.0132
  786SOL     OW 2356   0.667   1.974   2.517  0.4687  0.0027  0.2598
  786SOL    HW1 2357   0.626   1.894   2.469  1.1123  0.4943  0.8474
  786SOL    HW2 2358   0.654   1.961   2.617  1.7982 -0.7310 -0.2277
  787SOL     OW 2359   1.321   0.393   1.171  0.0854 -0.1965 -0.7376
  787SOL    HW1 2360   1.413   0.347   1.171  2.2396  0.4469 -1.7903
  787SOL    HW2 2361   1.255   0.327   1.211  0.0037  0.4740 -1.2823
  788SOL     OW 2362   0.643   0.975   0.061 -0.5504 -0.0774 -0.3906
  788SOL    HW1 2363   0.602   0.898   0.007 -1.3683  0.9526 -1.4673
  788SOL    HW2 2364   0.610   1.066   0.027  0.3311  2.7492 -1.8090
  789SOL     OW 2365   2.793   1.891   1.264  0.5687  0.4212  0.6379
  789SOL    HW1 2366   2.709   1.847   1.302  2.2294 -0.9704 -0.4071
  789SOL    HW2 2367   2.788   1.894   1.163 -3.1933 -1.0586 -1.7307
  790SOL     OW 2368   1.394   0.144   2.175  0.6090 -0.2516  0.3112
  790SOL    HW1 2369   1.317   0.119   2.237  1.2361  0.0414 -1.9263
  790SOL    HW2 2370   1.360   0.224   2.121  3.2583  1.0427  0.4153
  791SOL     OW 2371   1.012   0.522   0.201 -0.1209 -0.1168 -0.3862
  791SOL    HW1 2372   1.053   0.457   0.133 -2.2140  2.5845 -1.2820
  791SOL    HW2 2373   0.919   0.553   0.170 -2.5216 -1.3749  1.9169
  792SOL     OW 2374   1.311   0.284   1.616  0.1700 -0.5147  0.0194
  792SOL    HW1 2375   1.308   0.379   1.581 -0.4063  1.3149 -2.5320
  792SOL    HW2 2376   1.376   0.281   1.695  2.3880  0.2480  0.7149
  793SOL     OW 2377   0.972   2.918   0.839  1.0559 -0.3765 -0.6424
  793SOL    HW1 2378   0.934   3.013   0.842 -0.8183  2.7081  0.8571
  793SOL    HW2 2379   1.002   2.891   0.933  0.3133  3.0802 -0.7912
  794SOL     OW 2380   0.632   1.265   1.804 -0.8207  0.0292  0.2991
  794SOL    HW1 2381   0.595   1.171   1.791  2.7854 -0.8771  0.1160
  794SOL    HW2 2382   0.689   1.273   1.889  2.0976 -0.0540 -0.2742
  795SOL     OW 2383   0.130   1.414   2.176  0.1240 -0.0131  0.1710
  795SOL    HW1 2384   0.059   1.465   2.123  0.2903  0.3293  1.2159
  795SOL    HW2 2385   0.156   1.471   2.257  0.1227  1.5983  0.7508
  796SOL     OW 2386   1.875   1.639   1.766 -0.1175 -0.3633  0.0757
  796SOL    HW1 2387   1.959   1.694   1.786  0.3687 -0.5173  1.2806
  796SOL    HW2 2388   1.804   1.652   1.838 -3.0350  1.2344 -1.9544
  797SOL     OW 2389   0.036   0.259   2.555 -0.9544  0.3061 -0.0543
  797SOL    HW1 2390   0.057   0.190   2.482  1.2076  2.1486 -1.6477
  797SOL    HW2 2391   0.024   0.210   2.646 -1.6056 -1.5391  2.2832
  798SOL     OW 2392   3.009   2.276   1.941  0.1452  0.5381 -0.6465
  798SOL    HW1 2393   2.969   2.302   1.851 -0.8515  1.4731  0.1134
  798SOL    HW2 2394   3.011   2.174   1.948 -0.9717  1.6120 -0.6059
  799SOL     OW 2395   2.761   2.277   3.063  0.0464 -0.4450 -0.7604
  799SOL    HW1 2396   2.820   2.343   3.114  1.2610 -0.7866 -1.9746
  799SOL    HW2 2397   2.663   2.306   3.077  1.9064  0.6223 -4.5036
  800SOL     OW 2398   1.006   1.625   0.682 -0.4629  0.0654  0.0002
  800SOL    HW1 2399   0.961   1.714   0.705 -1.8284  0.1695  1.4810
  800SOL    HW2 2400   1.091   1.611   0.740 -0.4040  1.4913  0.0335
  801SOL     OW 2401   2.773   0.662   0.696 -0.4180  0.0256  0.0233
  801SOL    HW1 2402   2.823   0.747   0.667 -0.4972 -0.6287  0.2919
  801SOL    HW2 2403   2.701   0.681   0.767 -2.5417  0.0615 -1.6456
  802SOL     OW 2404   2.588   1.554   0.505 -0.0310 -0.2806 -0.1504
  802SOL    HW1 2405   2.588   1.643   0.455  1.9405 -0.3152 -0.4516
  802SOL    HW2 2406   2.492   1.520   0.504 -0.4774  1.0690 -1.6236
  803SOL     OW 2407   1.664   1.894   2.853  0.0735 -0.2043  0.4289
  803SOL    HW1 2408   1.628   1.922   2.763 -0.1115  0.4978  2.4403
  803SOL    HW2 2409   1.758   1.934   2.866 -3.0335  0.5121 -2.1054
  804SOL     OW 2410   2.043   1.935   0.263  0.7329  0.2281 -0.1500
  804SOL    HW1 2411   2.040   1.857   0.329 -0.0235 -0.5680  0.9854
  804SOL    HW2 2412   2.081   1.903   0.175  0.0343  1.6843 -0.5269
  805SOL     OW 2413   2.843   1.618   2.538  0.2930 -0.2968  0.6504
  805SOL    HW1 2414   2.800   1.676   2.611  2.9254 -0.8503 -0.2233
  805SOL    HW2 2415   2.861   1.673   2.454 -0.3320  1.1178 -1.3418
  806SOL     OW 2416   0.281   0.300   0.398 -0.0002  0.0543  0.3691
  806SOL    HW1 2417   0.276   0.341   0.491 -0.3242  0.1930  1.0683
  806SOL    HW2 2418   0.209   0.229   0.388  0.9515 -0.9014  1.2923
  807SOL     OW 2419   2.414   1.311   2.482  0.4286  0.8127 -0.5127
  807SOL    HW1 2420   2.356   1.256   2.547  0.4070  0.0521 -0.7706
  807SOL    HW2 2421   2.494   1.255   2.451 -0.1008  0.7412  0.4714
  808SOL     OW 2422   0.166   1.443   0.519 -0.5343 -0.0049  0.1486
  808SOL    HW1 2423   0.147   1.356   0.570 -0.1892 -0.9317  1.3750
  808SOL    HW2 2424   0.198   1.518   0.581  1.9348  0.7588 -0.1230
  809SOL     OW 2425   2.526   0.559   2.787 -0.0842 -0.1203 -0.1946
  809SOL    HW1 2426   2.579   0.609   2.860  4.1930 -2.1132 -1.6982
  809SOL    HW2 2427   2.426   0.573   2.801 -1.9716  1.8201 -2.1675
  810SOL     OW 2428   0.937   0.732   0.358 -0.4571 -0.9117 -0.5444
  810SOL    HW1 2429   0.979   0.648   0.318  1.2266  1.6641 -2.0718
  810SOL    HW2 2430   0.916   0.799   0.284 -0.4230  3.0496 -1.1348
  811SOL     OW 2431   1.545   2.536   0.802 -0.4725  0.5973  0.8023
  811SOL    HW1 2432   1.455   2.583   0.789 -0.8653  1.6591  1.5340
  811SOL    HW2 2433   1.541   2.445   0.754 -0.3684 -0.1559  1.2388
  812SOL     OW 2434   0.772   2.618   1.648  0.0465  0.1733  0.0187
  812SOL    HW1 2435   0.743   2.521   1.657 -3.5051  1.9355 -0.6189
  812SOL    HW2 2436   0.807   2.648   1.739 -3.5438 -1.3565 -3.3208
  813SOL     OW 2437   1.039   0.294   1.975 -0.0288 -0.1100  0.0541
  813SOL    HW1 2438   1.023   0.196   1.997 -0.2282 -0.2006  1.1903
  813SOL    HW2 2439   0.973   0.351   2.027  0.8157 -0.5598  3.0745
  814SOL     OW 2440   1.338   2.995   2.739 -0.2962  0.2368  0.1414
  814SOL    HW1 2441   1.274   3.031   2.810  1.2348  2.8600 -1.9263
  814SOL    HW2 2442   1.324   2.897   2.720  1.2550 -1.6158 -0.3100
  815SOL     OW 2443   0.609   0.618   1.928  0.4145  0.1973  0.0245
  815SOL    HW1 2444   0.550   0.671   1.862 -0.7750 -3.1052 -1.3909
  815SOL    HW2 2445   0.622   0.679   2.008 -3.2028  0.4728  1.0140
  816SOL     OW 2446   2.283   0.421   3.050 -0.1517  0.2636 -0.3119
  816SOL    HW1 2447   2.204   0.397   3.111 -3.4604 -0.7625  1.3524
  816SOL    HW2 2448   2.331   0.335   3.020 -1.8270  0.7855 -0.0526
  817SOL     OW 2449   1.767   0.197   2.756 -0.0143 -0.0701  0.1956
  817SOL    HW1 2450   1.742   0.288   2.719  3.7739  0.5502 -0.2115
  817SOL    HW2 2451   1.686   0.142   2.786  0.5901 -1.1424 -0.4834
  818SOL     OW 2452   2.087   0.379   0.163  0.0472 -0.1549  0.2365
  818SOL    HW1 2453   2.103   0.283   0.195 -1.4313 -2.2248  0.5213
  818SOL    HW2 2454   2.044   0.434   0.237  1.3836  0.9495  0.6943
  819SOL     OW 2455   2.340   1.524   0.090 -0.1737 -0.0336 -0.0254
  819SOL    HW1 2456   2.408   1.596   0.116 -0.5831  1.2202  1.8871
  819SOL    HW2 2457   2.389   1.437   0.068  0.1739  0.1717 -0.4454
  820SOL     OW 2458   2.884   2.033   0.050  0.3658 -0.1999  0.4463
  820SOL    HW1 2459   2.832   2.119   0.036 -0.2196  0.4140 -0.2934
  820SOL    HW2 2460   2.824   1.954   0.021 -1.2552 -0.2686  0.6757
  821SOL     OW 2461   0.363   2.616   1.504  0.0907 -0.3402  0.0852
  821SOL    HW1 2462   0.266   2.637   1.529  0.7154  0.7314  2.3595
  821SOL    HW2 2463   0.361   2.588   1.406  1.1937  0.3225  2.0893
  822SOL     OW 2464   2.704   2.633   2.417  0.0084 -0.0596  0.7766
  822SOL    HW1 2465   2.698   2.735   2.406 -0.5785 -2.0165 -0.3777
  822SOL    HW2 2466   2.631   2.585   2.363 -2.2191 -0.2064  3.1199
  823SOL     OW 2467   1.574   2.973   2.326 -0.0615  0.2440 -0.3028
  823SOL    HW1 2468   1.592   3.028   2.242 -1.3079 -1.6639  0.8276
  823SOL    HW2 2469   1.521   3.037   2.387  0.9258 -0.2076  1.0064
  824SOL     OW 2470   2.410   1.719   1.073  0.5201 -0.8226 -0.0348
  824SOL    HW1 2471   2.441   1.761   0.985 -1.3635  0.2671  2.5999
  824SOL    HW2 2472   2.428   1.619   1.073 -3.3071  1.0768 -0.8711
  825SOL     OW 2473   2.835   1.966   2.556  0.2653 -1.0220  0.3450
  825SOL    HW1 2474   2.807   2.046   2.501 -0.2381  1.3607  1.5568
  825SOL    HW2 2475   2.936   1.963   2.543  0.5373  0.3572 -1.6942
  826SOL     OW 2476   2.816   1.373   2.152 -0.0444 -0.1979 -0.3245
  826SOL    HW1 2477   2.722   1.390   2.117  0.9683  1.3363  1.1843
  826SOL    HW2 2478   2.821   1.380   2.254  0.2806  0.2195  2.3397
  827SOL     OW 2479   2.490   2.544   1.744  0.4164 -0.2849  0.0533
  827SOL    HW1 2480   2.523   2.465   1.688  1.1003 -2.0928  0.3176
  827SOL    HW2 2481   2.389   2.555   1.728  1.1358  0.1933  0.7564
  828SOL     OW 2482   2.935   2.972   1.576  0.1573  0.0781 -0.0676
  828SOL    HW1 2483   2.884   2.956   1.488 -0.3893 -1.0492 -0.3883
  828SOL    HW2 2484   3.000   3.048   1.559  2.2094  1.7536  2.3090
  829SOL     OW 2485   1.923   1.891   2.254  0.9724  0.1633 -0.1597
  829SOL    HW1 2486   1.826   1.920   2.244 -1.0587 -0.2091 -0.7782
  829SOL    HW2 2487   1.944   1.874   2.353  1.0772  3.5969  0.7332
  830SOL     OW 2488   1.568   0.650   0.890 -0.0644  1.0777  0.5214
  830SOL    HW1 2489   1.645   0.585   0.873  1.1386  0.9881  0.2149
  830SOL    HW2 2490   1.601   0.745   0.892  1.4982 -0.4420  0.3250
  831SOL     OW 2491   2.926   1.481   0.785 -0.1382 -0.1269 -0.4604
  831SOL    HW1 2492   2.974   1.398   0.822  1.4951 -0.5922 -1.2542
  831SOL    HW2 2493   2.873   1.453   0.702  1.3273  1.3747 -1.1587
  832SOL     OW 2494   1.504   2.284   1.822 -0.4178 -0.8180  0.1336
  832SOL    HW1 2495   1.479   2.383   1.833 -0.5925  1.2927 -4.5357
  832SOL    HW2 2496   1.606   2.273   1.817 -0.0233 -0.3595 -1.9206
  833SOL     OW 2497   3.020   2.937   2.251  0.1006  0.0357 -0.2702
  833SOL    HW1 2498   2.948   2.924   2.179 -3.3049 -1.7635 -2.7120
  833SOL    HW2 2499   2.985   2.910   2.343 -0.6190  0.0196 -0.0366
  834SOL     OW 2500   1.056   1.008   1.261  0.2852  0.1221 -0.4229
  834SOL    HW1 2501   1.093   0.983   1.353 -0.6812  0.2662 -0.8225
  834SOL    HW2 2502   1.118   0.969   1.190 -1.3552  0.9733 -0.7904
  835SOL     OW 2503   3.057   0.774   2.781  0.0369 -0.1200  0.1837
  835SOL    HW1 2504   2.956   0.762   2.760  0.3488 -2.1463  1.3729
  835SOL    HW2 2505   3.073   0.767   2.881  0.6504 -0.3923 -1.7640
  836SOL     OW 2506   1.044   2.318   1.057  0.5503 -0.9903 -0.9055
  836SOL    HW1 2507   0.966   2.373   1.020  0.9112 -0.0155 -0.1146
  836SOL    HW2 2508   1.111   2.378   1.106 -0.4171 -0.6773 -2.7919
  837SOL     OW 2509   2.104   0.809   1.210  0.3783 -0.0204  0.1819
  837SOL    HW1 2510   2.032   0.805   1.137  0.8306 -1.4290 -2.4016
  837SOL    HW2 2511   2.070   0.874   1.281 -0.2292  0.2814  3.2215
  838SOL     OW 2512   1.406   1.690   2.787 -0.3032  0.2436  0.1717
  838SOL    HW1 2513   1.473   1.676   2.863  1.7484  0.3016 -0.6054
  838SOL    HW2 2514   1.442   1.765   2.728  0.6551 -0.6313 -0.7752
  839SOL     OW 2515   0.564   2.242   2.773  0.4220  0.8473  0.5070
  839SOL    HW1 2516   0.590   2.145   2.775 -0.7705  1.7246 -1.9534
  839SOL    HW2 2517   0.502   2.270   2.851 -2.3862 -0.9562 -0.5684
  840SOL     OW 2518   0.756   2.440   2.797  0.1607  1.2874 -0.0276
  840SOL    HW1 2519   0.688   2.365   2.780 -0.7088  0.5639 -3.3664
  840SOL    HW2 2520   0.724   2.526   2.753  3.1883  2.7796 -1.4650
  841SOL     OW 2521   1.907   2.019   2.885  0.5021 -0.7965 -0.3031
  841SOL    HW1 2522   2.000   1.981   2.902  0.8325 -1.3760 -0.7852
  841SOL    HW2 2523   1.896   2.099   2.948  0.5909 -1.1865 -1.9038
  842SOL     OW 2524   1.536   0.878   2.764  0.1273 -0.2110  0.2952
  842SOL    HW1 2525   1.551   0.980   2.754  0.6144 -1.9415 -0.1638
  842SOL    HW2 2526   1.438   0.854   2.752 -1.4302 -1.4645 -0.7479
  843SOL     OW 2527   1.347   2.941   0.715 -0.7835 -0.1950  0.5611
  843SOL    HW1 2528   1.445   2.966   0.731  0.0018 -2.1108  1.9963
  843SOL    HW2 2529   1.315   2.991   0.632  1.4106 -0.5354 -0.3122
  844SOL     OW 2530   2.479   2.858   2.634 -0.2050 -0.1765  0.2708
  844SOL    HW1 2531   2.461   2.800   2.716 -0.3123  0.5399 -2.1060
  844SOL    HW2 2532   2.550   2.930   2.649 -0.3655  0.0808  0.5215
  845SOL     OW 2533   2.829   2.925   1.333  0.1136 -0.6001 -0.3436
  845SOL    HW1 2534   2.827   3.013   1.279  2.7842  0.3819  1.0261
  845SOL    HW2 2535   2.740   2.875   1.326 -1.4428 -2.0452 -0.0918
  846SOL     OW 2536   0.242   2.204   2.187 -0.1604  0.4365  0.5141
  846SOL    HW1 2537   0.206   2.291   2.145 -1.8673  1.6830 -3.7670
  846SOL    HW2 2538   0.256   2.220   2.287 -1.7489  0.9041 -0.5771
  847SOL     OW 2539   1.611   0.137   1.417  0.0646  0.8166 -0.2906
  847SOL    HW1 2540   1.511   0.119   1.424  1.4758  1.4057 -1.6444
  847SOL    HW2 2541   1.663   0.069   1.473 -1.4695  2.2491 -0.0818
  848SOL     OW 2542   2.829   0.584   0.098 -0.5192  0.8785  0.5945
  848SOL    HW1 2543   2.922   0.544   0.087  3.6351  0.2169 -0.9986
  848SOL    HW2 2544   2.756   0.511   0.104  0.0451 -0.1357 -1.0057
  849SOL     OW 2545   0.512   0.581   0.125 -0.1860 -0.2636 -0.3017
  849SOL    HW1 2546   0.444   0.617   0.192  0.6556  1.2642  0.6093
  849SOL    HW2 2547   0.492   0.482   0.105 -1.8186  0.5589  0.0347
  850SOL     OW 2548   0.327   2.672   1.022 -0.7206  0.0969  0.3886
  850SOL    HW1 2549   0.239   2.717   1.050 -1.9784  0.3660 -0.3142
  850SOL    HW2 2550   0.393   2.747   0.998 -0.8609 -1.6336 -3.4817
  851SOL     OW 2551   1.905   0.179   2.365  0.4080  0.6197  0.1962
  851SOL    HW1 2552   1.806   0.189   2.392  0.1143 -0.2655 -0.9115
  851SOL    HW2 2553   1.911   0.133   2.274  0.1977 -1.7795  0.1769
  852SOL     OW 2554   1.537   1.555   2.297 -0.2154 -0.2342  0.0081
  852SOL    HW1 2555   1.512   1.493   2.374 -2.8308 -0.0485  1.5459
  852SOL    HW2 2556   1.454   1.584   2.244  0.1520  0.5340  0.6896
  853SOL     OW 2557   0.115   2.896   0.428  0.0417 -0.2171 -0.1249
  853SOL    HW1 2558   0.116   2.814   0.367 -0.3103  2.1664  2.0239
  853SOL    HW2 2559   0.162   2.872   0.515 -0.2940  0.7168  1.2330
  854SOL     OW 2560   2.360   3.017   0.726  0.6425 -0.3764 -0.5319
  854SOL    HW1 2561   2.322   3.112   0.718  3.8721  0.8017 -0.6922
  854SOL    HW2 2562   2.344   2.971   0.636  1.7502 -1.0513  1.2262
  855SOL     OW 2563   1.369   2.125   0.755 -0.2649 -0.0381 -0.5069
  855SOL    HW1 2564   1.336   2.072   0.673 -1.5214 -0.1412  0.7388
  855SOL    HW2 2565   1.291   2.179   0.794  0.0546  1.2767 -0.3377
  856SOL     OW 2566   2.374   0.485   0.388 -0.5911 -0.0563  0.0806
  856SOL    HW1 2567   2.368   0.383   0.382 -2.8308  0.8501 -1.9356
  856SOL    HW2 2568   2.466   0.512   0.422  1.9903  1.0164 -4.0349
  857SOL     OW 2569   1.843   2.529   1.714  0.1991 -0.2560  0.0702
  857SOL    HW1 2570   1.871   2.576   1.802  1.8475  1.3240  4.4673
  857SOL    HW2 2571   1.926   2.495   1.665 -0.6799  0.4863  0.6294
  858SOL     OW 2572   2.561   2.188   1.371 -0.2459 -0.0258  0.0953
  858SOL    HW1 2573   2.633   2.213   1.302  3.4032  0.7511  1.2265
  858SOL    HW2 2574   2.470   2.173   1.326 -1.0076  0.7487  1.0489
  859SOL     OW 2575   1.106   2.525   0.724  0.5567 -0.0172  0.1276
  859SOL    HW1 2576   1.026   2.575   0.762 -1.4464  1.0922 -0.8258
  859SOL    HW2 2577   1.190   2.581   0.739 -1.3305  1.6898 -1.6018
  860SOL     OW 2578   2.169   2.359   0.214  0.0799 -0.5723  1.0395
  860SOL    HW1 2579   2.181   2.272   0.266 -0.8800 -1.3426 -1.6878
  860SOL    HW2 2580   2.189   2.341   0.116 -3.0976  0.4216  1.1503
  861SOL     OW 2581   2.079   2.402   0.974 -0.0281 -0.1029 -0.1982
  861SOL    HW1 2582   2.097   2.487   0.919  1.5393 -0.5891 -1.5442
  861SOL    HW2 2583   2.169   2.369   1.011  1.0355  3.7702  2.2873
  862SOL     OW 2584   1.709   2.735   2.742  0.4473 -0.0071 -0.2874
  862SOL    HW1 2585   1.717   2.801   2.663 -0.5800 -0.3829 -1.4546
  862SOL    HW2 2586   1.737   2.782   2.830  2.7332  2.6687 -1.1173
  863SOL     OW 2587   0.522   3.062   0.298  0.1700 -0.3324 -0.1041
  863SOL    HW1 2588   0.546   3.016   0.386  0.1534 -0.1982  2.0466
  863SOL    HW2 2589   0.576   3.018   0.222  1.1239 -0.2757 -0.9367
  864SOL     OW 2590   2.590   2.583   2.002 -1.2031  0.8411 -0.3726
  864SOL    HW1 2591   2.674   2.526   2.013  2.3265 -1.2575 -4.0016
  864SOL    HW2 2592   2.548   2.566   1.910  0.4910 -1.3297  1.7036
  865SOL     OW 2593   0.028   2.093   2.779 -0.1125  0.7695  0.7537
  865SOL    HW1 2594   0.037   2.040   2.866  0.8461 -2.4183 -0.5109
  865SOL    HW2 2595  -0.048   2.161   2.791 -1.8678 -1.4776  0.2868
  866SOL     OW 2596   2.579   0.294   2.764 -0.1746 -0.4373 -0.2862
  866SOL    HW1 2597   2.666   0.274   2.716  2.6250 -2.1810  3.3552
  866SOL    HW2 2598   2.563   0.396   2.767  0.1669  1.7334  1.1525
  867SOL     OW 2599   2.934   2.876   2.505  0.1161  0.3061 -0.6561
  867SOL    HW1 2600   2.836   2.889   2.484  0.0197 -2.3410  0.2999
  867SOL    HW2 2601   2.939   2.822   2.592 -0.8262 -2.6534  0.3820
  868SOL     OW 2602   0.858   2.682   0.779 -0.5861 -0.6118 -0.5444
  868SOL    HW1 2603   0.899   2.774   0.801 -3.6281 -0.0399  0.5536
  868SOL    HW2 2604   0.844   2.674   0.677  1.4773 -1.1190  1.2956
  869SOL     OW 2605   1.306   1.316   1.185  0.1817  0.2937 -0.4893
  869SOL    HW1 2606   1.278   1.411   1.159  2.4469 -0.7192  0.2463
  869SOL    HW2 2607   1.394   1.290   1.139 -0.2681 -1.0604 -2.4394
  870SOL     OW 2608   1.899   1.763   1.128 -0.2934  0.0784  0.0773
  870SOL    HW1 2609   1.926   1.664   1.123  4.2500 -0.3923 -0.2752
  870SOL    HW2 2610   1.942   1.811   1.206 -1.4169 -3.4734  0.1062
  871SOL     OW 2611   1.015   1.400   1.026 -0.4354 -0.3398 -0.1488
  871SOL    HW1 2612   1.016   1.350   0.938 -0.7638  0.0010  1.3017
  871SOL    HW2 2613   0.935   1.465   1.030  2.2882  0.1261  0.2865
  872SOL     OW 2614   1.152   0.501   0.716  0.8077 -0.2376 -0.0752
  872SOL    HW1 2615   1.233   0.560   0.694  0.9158  0.4209  0.1419
  872SOL    HW2 2616   1.141   0.482   0.816 -1.4973 -1.1270 -0.3568
  873SOL     OW 2617   1.718   0.453   2.669  0.2950  0.2185  0.7258
  873SOL    HW1 2618   1.772   0.502   2.743 -0.5627 -1.4818  2.0327
  873SOL    HW2 2619   1.691   0.521   2.598  0.5325 -0.8212  1.6997
  874SOL     OW 2620   0.542   1.245   1.139 -0.1805  0.3189 -0.2518
  874SOL    HW1 2621   0.555   1.304   1.221  0.5320  0.1136 -0.9033
  874SOL    HW2 2622   0.459   1.270   1.085 -1.2932  1.1835  0.2046
  875SOL     OW 2623   2.738   2.693   3.010  0.0617  0.3113  0.2404
  875SOL    HW1 2624   2.699   2.621   2.950  0.3086  0.1681 -0.0210
  875SOL    HW2 2625   2.735   2.784   2.964 -0.3496 -1.9352  1.7772
  876SOL     OW 2626   0.798   0.550   2.911  0.2410 -0.2348 -0.4182
  876SOL    HW1 2627   0.796   0.571   3.012  0.1318  0.6865 -0.6919
  876SOL    HW2 2628   0.841   0.628   2.861 -0.3011  0.7655 -0.4439
  877SOL     OW 2629   0.001   2.789   1.361  0.3099  0.1327 -0.1724
  877SOL    HW1 2630   0.057   2.800   1.276 -0.6669  1.7612  0.0882
  877SOL    HW2 2631  -0.084   2.844   1.351  2.9339 -1.3706 -1.5415
  878SOL     OW 2632   1.957   1.868   2.522 -0.7234 -0.0985 -0.5307
  878SOL    HW1 2633   1.888   1.933   2.560 -0.3738 -0.0432  0.2906
  878SOL    HW2 2634   2.048   1.892   2.561 -0.6794  0.2536  0.2557
  879SOL     OW 2635   2.136   1.744   1.811  0.2282 -0.7660 -0.7711
  879SOL    HW1 2636   2.145   1.745   1.912  1.0334 -0.3081  1.1013
  879SOL    HW2 2637   2.214   1.695   1.766  1.8962 -1.3391 -2.3539
  880SOL     OW 2638   0.935   1.043   0.934  0.2859 -0.7687  0.0060
  880SOL    HW1 2639   1.019   1.089   0.968  0.5343  0.3050 -0.0483
  880SOL    HW2 2640   0.948   0.941   0.938 -2.9627  0.3016 -3.4934
  881SOL     OW 2641   1.244   1.520   0.048  0.2676 -0.3392 -0.0044
  881SOL    HW1 2642   1.228   1.609   0.095  0.8350  0.0366 -0.7855
  881SOL    HW2 2643   1.303   1.466   0.112 -0.6172  1.2662  0.1952
  882SOL     OW 2644   1.841   0.028   1.153  0.1861 -0.9022  0.6500
  882SOL    HW1 2645   1.854   0.105   1.219 -2.4215  0.6706 -0.2076
  882SOL    HW2 2646   1.927   0.016   1.098 -0.2480 -0.1838  2.3492
  883SOL     OW 2647   1.899   0.646   2.107 -0.6532 -0.1625 -0.1662
  883SOL    HW1 2648   1.808   0.600   2.095 -0.3593  0.6146 -0.9021
  883SOL    HW2 2649   1.971   0.576   2.125 -0.9602  2.0390 -0.0650
  884SOL     OW 2650   2.684   0.695   2.958 -0.1900  0.2829  0.0035
  884SOL    HW1 2651   2.740   0.731   2.881  2.8616 -0.3918 -2.2420
  884SOL    HW2 2652   2.745   0.654   3.030 -0.6120  4.8099  2.2627
  885SOL     OW 2653   1.150   2.273   0.815  0.0438 -0.6061  0.4116
  885SOL    HW1 2654   1.141   2.365   0.771  0.8967 -0.0992 -1.0771
  885SOL    HW2 2655   1.116   2.279   0.911 -0.7104 -0.6927 -0.4434
  886SOL     OW 2656   1.277   0.837   2.716 -0.6023  0.5409  0.1839
  886SOL    HW1 2657   1.212   0.781   2.771  1.3865  0.6839  1.0680
  886SOL    HW2 2658   1.226   0.921   2.688  0.9730  0.2722  1.6696
  887SOL     OW 2659   1.743   3.019   1.575  0.6888 -0.1496 -0.3488
  887SOL    HW1 2660   1.800   3.049   1.656  2.2685  0.3694  1.1553
  887SOL    HW2 2661   1.662   2.967   1.608 -0.0536  1.3459 -1.0807
  888SOL     OW 2662   2.846   1.669   1.617  0.4345  0.0296 -0.2127
  888SOL    HW1 2663   2.910   1.632   1.686 -0.7982  0.9307 -2.5612
  888SOL    HW2 2664   2.852   1.608   1.535 -0.6682 -1.0942 -1.0244
  889SOL     OW 2665   2.993   2.730   0.681  0.6056 -0.2292  0.5557
  889SOL    HW1 2666   2.928   2.716   0.758  0.6962 -3.3277 -0.4402
  889SOL    HW2 2667   2.972   2.818   0.632  0.2461 -0.6663  0.8590
  890SOL     OW 2668   0.662   1.907   2.161  0.7270  0.3220  0.2103
  890SOL    HW1 2669   0.686   2.007   2.161 -1.1709 -1.3548 -1.1826
  890SOL    HW2 2670   0.605   1.890   2.078 -1.8135 -1.1718  0.0184
  891SOL     OW 2671   0.683   1.724   0.570 -0.3895  0.1311  0.1364
  891SOL    HW1 2672   0.760   1.778   0.612  0.2923 -0.0349 -0.9667
  891SOL    HW2 2673   0.623   1.785   0.516 -2.1329 -0.9377 -2.3806
  892SOL     OW 2674   2.647   2.532   1.227 -0.0651 -0.0544 -0.0228
  892SOL    HW1 2675   2.693   2.532   1.319  0.7836  0.0189 -2.0887
  892SOL    HW2 2676   2.673   2.447   1.179  1.5666 -1.3551  0.8863
  893SOL     OW 2677   0.204   0.446   1.743  0.4450 -0.4310 -0.8983
  893SOL    HW1 2678   0.208   0.421   1.642  1.0009  0.3281  0.4746
  893SOL    HW2 2679   0.211   0.547   1.751  0.2209 -1.5185 -0.8591
  894SOL     OW 2680   2.736   1.846   0.995 -0.0994  0.8156  0.4436
  894SOL    HW1 2681   2.649   1.830   0.942  0.0071 -0.7377  0.1126
  894SOL    HW2 2682   2.779   1.753   1.000 -0.1412 -0.5834  2.1814
  895SOL     OW 2683   1.216   2.485   1.445  0.1945 -0.3212 -0.2128
  895SOL    HW1 2684   1.274   2.434   1.513 -0.4814 -1.3831  0.6377
  895SOL    HW2 2685   1.201   2.581   1.476 -2.0706 -0.5275  3.3274
  896SOL     OW 2686   0.744   0.322   1.322 -0.1065 -0.1408 -0.8669
  896SOL    HW1 2687   0.674   0.320   1.397  0.7427 -0.9308 -1.6318
  896SOL    HW2 2688   0.837   0.326   1.364 -1.8406  2.9728  1.2336
  897SOL     OW 2689   1.183   1.142   0.999  0.5649 -0.2775  0.3163
  897SOL    HW1 2690   1.208   1.212   1.069 -0.7217 -0.0707  0.0794
  897SOL    HW2 2691   1.219   1.049   1.023  2.4653  0.5964  1.4515
  898SOL     OW 2692   0.802   0.338   1.712  0.1431 -0.6036 -0.0007
  898SOL    HW1 2693   0.812   0.431   1.753 -3.0860  1.7391 -1.9309
  898SOL    HW2 2694   0.890   0.287   1.708  1.4477  2.4096 -1.0146
  899SOL     OW 2695   1.489   0.368   0.209 -0.0674 -0.6287  0.0906
  899SOL    HW1 2696   1.566   0.404   0.153 -1.1094 -0.6007 -0.7134
  899SOL    HW2 2697   1.417   0.441   0.217 -1.9980 -0.6082  0.3155
  900SOL     OW 2698   1.029   0.663   2.408 -0.3162  0.0801 -0.3319
  900SOL    HW1 2699   0.994   0.754   2.438  1.2852 -0.9165 -0.7812
  900SOL    HW2 2700   1.003   0.645   2.311  1.0855  1.9950 -0.4195
  901SOL     OW 2701   0.723   2.035   0.436  0.0069 -0.1618  0.4238
  901SOL    HW1 2702   0.806   1.983   0.408 -0.7793  1.8719  2.5387
  901SOL    HW2 2703   0.643   1.988   0.394 -1.5583  0.0404 -1.2830
  902SOL     OW 2704   1.838   0.217   0.751 -0.3795  0.0975  0.4160
  902SOL    HW1 2705   1.850   0.161   0.666 -0.9974  2.3249  0.3045
  902SOL    HW2 2706   1.768   0.172   0.807  3.0291 -0.7377 -4.9045
  903SOL     OW 2707   0.048   1.355   2.515  0.3088  0.3684 -0.6134
  903SOL    HW1 2708   0.090   1.437   2.471  0.7828 -2.2951  0.1825
  903SOL    HW2 2709  -0.046   1.346   2.477 -0.5523 -1.5270  1.4600
  904SOL     OW 2710   1.691   1.251   0.413  0.1441  0.0201  0.0586
  904SOL    HW1 2711   1.639   1.288   0.494  1.8475  1.0220 -1.2935
  904SOL    HW2 2712   1.694   1.149   0.419 -0.6632 -1.7172  0.1436
  905SOL     OW 2713   1.925   2.670   1.332 -0.1748 -0.4778  0.3722
  905SOL    HW1 2714   1.864   2.726   1.273  1.6488 -0.7046 -0.1893
  905SOL    HW2 2715   1.926   2.575   1.296  1.7593 -1.1408 -0.1741
  906SOL     OW 2716   2.187   2.622   0.850 -0.0692 -0.3314  0.1593
  906SOL    HW1 2717   2.135   2.709   0.836 -0.3701  1.6205  3.6945
  906SOL    HW2 2718   2.263   2.642   0.914 -0.3520 -0.6763 -0.3032
  907SOL     OW 2719   2.200   0.907   0.424 -0.2155 -0.2794 -0.1787
  907SOL    HW1 2720   2.173   0.813   0.447 -1.7961  2.6497  1.6513
  907SOL    HW2 2721   2.132   0.975   0.458 -1.9550 -1.8160 -2.0072
  908SOL     OW 2722   1.855   0.238   1.336  0.1860  0.4743 -0.2994
  908SOL    HW1 2723   1.864   0.339   1.327  1.3726  1.2390 -1.3720
  908SOL    HW2 2724   1.761   0.219   1.371  0.2412 -0.2806 -0.1768
  909SOL     OW 2725   2.395   2.842   0.957 -0.0565 -1.0001  0.3280
  909SOL    HW1 2726   2.369   2.906   0.882  2.8722  0.4573 -1.1505
  909SOL    HW2 2727   2.393   2.889   1.048 -0.3298  0.0608  0.4691
  910SOL     OW 2728   2.284   0.550   1.980  0.1006  0.8537 -0.3957
  910SOL    HW1 2729   2.207   0.531   2.046 -0.2347 -0.8695 -1.5047
  910SOL    HW2 2730   2.363   0.487   1.998 -0.9636 -1.7749 -1.0519
  911SOL     OW 2731   1.907   0.031   2.596 -0.3118 -0.0411 -0.3956
  911SOL    HW1 2732   1.854   0.093   2.659  2.2967  3.3321  2.1174
  911SOL    HW2 2733   1.927   0.078   2.508  0.9835  1.7116 -0.7449
  912SOL     OW 2734   0.523   0.917   1.314  0.3644  0.1203  0.0505
  912SOL    HW1 2735   0.620   0.947   1.292  1.2262 -0.6144 -1.0689
  912SOL    HW2 2736   0.515   0.816   1.306 -3.8189  1.9234  1.1909
  913SOL     OW 2737   2.415   2.590   1.086  0.5613 -0.3540  0.0461
  913SOL    HW1 2738   2.414   2.685   1.049 -4.9338  1.2761  1.6059
  913SOL    HW2 2739   2.502   2.573   1.137  1.3194  3.9710  0.1376
  914SOL     OW 2740   1.136   0.428   0.979 -0.2267 -0.1567 -0.5400
  914SOL    HW1 2741   1.214   0.425   1.046 -0.9829  2.1707  0.6867
  914SOL    HW2 2742   1.124   0.335   0.939 -0.2904 -0.1652 -0.4382
  915SOL     OW 2743   0.317   1.551   1.355  0.6260 -0.2236 -0.2113
  915SOL    HW1 2744   0.312   1.558   1.253  0.8478 -1.1305  0.4348
  915SOL    HW2 2745   0.324   1.643   1.398 -1.0548 -0.1160  1.5662
  916SOL     OW 2746   1.912   2.201   0.930  0.2878  0.1446 -0.2921
  916SOL    HW1 2747   1.981   2.277   0.945 -0.0144 -1.8313 -0.2667
  916SOL    HW2 2748   1.820   2.241   0.949 -1.1591  0.4566  0.9970
  917SOL     OW 2749   1.984   2.373   2.285 -0.2680 -0.6887 -0.3277
  917SOL    HW1 2750   1.998   2.370   2.184  0.2391 -1.3156  1.6835
  917SOL    HW2 2751   1.900   2.427   2.304  0.2648 -1.1610  2.7636
  918SOL     OW 2752   2.002   1.601   2.565  0.0837  0.2719 -0.4693
  918SOL    HW1 2753   2.096   1.606   2.607  4.4107  0.5800 -1.7432
  918SOL    HW2 2754   1.966   1.695   2.551 -0.1156  2.2767  0.4819
  919SOL     OW 2755   0.732   0.534   1.154 -0.1064  0.1694 -0.0867
  919SOL    HW1 2756   0.734   0.453   1.216  0.1577  0.8943  0.2408
  919SOL    HW2 2757   0.826   0.575   1.144 -0.0412 -1.5564  0.5039
  920SOL     OW 2758   2.826   0.720   2.105 -0.0803  0.0888  0.2564
  920SOL    HW1 2759   2.858   0.657   2.030 -0.8603  0.9702  1.6241
  920SOL    HW2 2760   2.902   0.731   2.172 -2.3984  1.6433  0.1000
  921SOL     OW 2761   2.496   1.238   1.464 -0.5382 -0.1319 -0.0234
  921SOL    HW1 2762   2.569   1.190   1.410 -0.8711  2.8183  0.4390
  921SOL    HW2 2763   2.529   1.257   1.558  0.4513 -0.2706  1.1032
  922SOL     OW 2764   2.745   2.253   0.782 -0.1968  0.4801 -0.1759
  922SOL    HW1 2765   2.706   2.192   0.854 -0.3557 -0.7590 -2.5054
  922SOL    HW2 2766   2.671   2.324   0.767  0.2067  2.0871  1.0861
  923SOL     OW 2767   0.043   2.288   0.532  0.2912  0.0669 -0.2553
  923SOL    HW1 2768   0.074   2.279   0.629 -1.8751 -0.3566  0.9009
  923SOL    HW2 2769   0.114   2.257   0.465 -1.2985  0.9267 -1.4372
  924SOL     OW 2770   0.977   1.178   2.916 -0.0206 -0.0504 -0.4690
  924SOL    HW1 2771   1.029   1.225   2.841 -0.8309 -0.0363  1.0605
  924SOL    HW2 2772   0.903   1.238   2.953  1.5182  2.8765  1.5891
  925SOL     OW 2773   3.043   1.258   0.883 -0.2837 -0.6606 -0.2994
  925SOL    HW1 2774   3.084   1.283   0.974  2.5210  0.9472 -1.5317
  925SOL    HW2 2775   2.977   1.180   0.892 -2.9227  0.3891 -0.7474
  926SOL     OW 2776   0.135   0.017   1.294  0.1583  0.0918 -0.4098
  926SOL    HW1 2777   0.232  -0.010   1.284 -2.8909 -0.4750 -0.2074
  926SOL    HW2 2778   0.091   0.001   1.203  1.3672 -1.1869  1.7637
  927SOL     OW 2779   0.597   1.747   2.373  1.1411 -0.4049  0.3962
  927SOL    HW1 2780   0.681   1.690   2.385  0.3842  1.8870  0.0414
  927SOL    HW2 2781   0.609   1.800   2.286 -0.6755  2.5818  0.5137
  928SOL     OW 2782   0.317   0.660   2.357  0.2824  0.1297  0.3608
  928SOL    HW1 2783   0.365   0.570   2.370  0.3783 -3.1616  1.4570
  928SOL    HW2 2784   0.250   0.672   2.433  2.3618  0.1959  0.1448
  929SOL     OW 2785   2.642   2.103   0.983  0.5730 -0.8456  0.1087
  929SOL    HW1 2786   2.542   2.097   0.959  1.3121  1.9966  0.1280
  929SOL    HW2 2787   2.672   2.006   0.991  0.7397 -1.8787 -1.4009
  930SOL     OW 2788   1.648   0.208   2.431  0.5284 -0.8503  0.1444
  930SOL    HW1 2789   1.567   0.161   2.468 -0.0981 -1.5363 -0.7129
  930SOL    HW2 2790   1.622   0.294   2.380 -0.8342  0.7690 -2.5329
  931SOL     OW 2791   2.441   0.997   2.807 -0.6931  0.0208 -0.0576
  931SOL    HW1 2792   2.443   1.015   2.906 -3.7166  1.8370 -0.7668
  931SOL    HW2 2793   2.371   0.925   2.784 -0.9896  0.9064 -0.5048
  932SOL     OW 2794   1.758   0.863   0.644  0.1895 -0.0894  0.4514
  932SOL    HW1 2795   1.741   0.905   0.552  1.0487 -1.3335 -0.1513
  932SOL    HW2 2796   1.818   0.781   0.630  0.6347 -0.2441  1.1111
  933SOL     OW 2797   2.289   0.624   0.735 -0.1021  0.2197 -0.4742
  933SOL    HW1 2798   2.235   0.606   0.651  1.3183 -1.8822 -0.3047
  933SOL    HW2 2799   2.321   0.721   0.734 -0.7022  1.1295  1.4018
  934SOL     OW 2800   2.643   1.178   2.380 -0.0493 -0.4209 -0.0113
  934SOL    HW1 2801   2.713   1.104   2.378  0.6277 -0.0851  1.4986
  934SOL    HW2 2802   2.601   1.180   2.287 -1.0282  0.2456  2.9590
  935SOL     OW 2803   0.096   1.347   1.108 -0.0235 -0.1925  0.0434
  935SOL    HW1 2804   0.065   1.442   1.131  0.7180 -3.1730  0.9970
  935SOL    HW2 2805   0.104   1.297   1.197 -1.6897  1.8076 -1.2083
  936SOL     OW 2806   0.051   2.959   0.076 -0.4416 -0.4173  0.1496
  936SOL    HW1 2807   0.072   2.859   0.066 -0.1777 -0.3500  3.3866
  936SOL    HW2 2808   0.135   3.006   0.110 -2.2666  1.0804 -0.1585
  937SOL     OW 2809   2.832   2.452   2.062 -0.1560 -0.1162  0.3162
  937SOL    HW1 2810   2.841   2.451   2.163 -1.0238 -1.5054  1.2693
  937SOL    HW2 2811   2.883   2.377   2.015 -0.3013  1.1369  0.0732
  938SOL     OW 2812   2.243   2.317   3.015 -0.4230  0.4802 -0.0392
  938SOL    HW1 2813   2.289   2.225   3.002 -1.6778  0.7401  2.4878
  938SOL    HW2 2814   2.162   2.319   2.952  0.9520 -1.3714  1.5153
  939SOL     OW 2815   1.041   0.612   1.398  0.0903  0.3169 -0.3317
  939SOL    HW1 2816   1.136   0.650   1.397 -1.8814 -2.9338 -1.5884
  939SOL    HW2 2817   0.979   0.667   1.457  0.0484  0.8353 -2.1314
  940SOL     OW 2818   2.318   2.894   3.031  0.4856  0.7473 -0.5227
  940SOL    HW1 2819   2.225   2.924   3.003 -0.9119  0.7266  0.0175
  940SOL    HW2 2820   2.357   2.830   2.961  0.9962  1.7594 -0.9413
  941SOL     OW 2821   2.588   2.842   2.101 -0.0031 -0.4417  0.2859
  941SOL    HW1 2822   2.507   2.900   2.080 -1.4176  0.4551 -0.7668
  941SOL    HW2 2823   2.576   2.748   2.062 -1.7287  0.7604  0.2889
  942SOL     OW 2824   1.601   0.025   1.030  0.1888 -0.4595 -0.4107
  942SOL    HW1 2825   1.534  -0.039   1.074 -0.8515  4.1100 -1.6360
  942SOL    HW2 2826   1.693   0.027   1.076  0.0750  1.0394  0.7513
  943SOL     OW 2827   1.242   1.564   2.429  0.0964 -0.0076 -0.4063
  943SOL    HW1 2828   1.319   1.509   2.470 -0.5359 -0.3600 -0.0038
  943SOL    HW2 2829   1.263   1.581   2.330  1.7295  1.0308 -1.3534
  944SOL     OW 2830   2.667   0.814   1.346 -0.0873 -0.0490 -0.3154
  944SOL    HW1 2831   2.749   0.776   1.298 -1.4980  2.3299 -1.5744
  944SOL    HW2 2832   2.591   0.753   1.315 -0.6896  1.1068 -0.0126
  945SOL     OW 2833   2.624   0.018   2.694  0.4770  0.4254 -0.2227
  945SOL    HW1 2834   2.556   0.088   2.720  0.7543 -0.8572 -1.3966
  945SOL    HW2 2835   2.702   0.067   2.652  0.2178 -0.7741  1.2340
  946SOL     OW 2836   0.072   1.447   1.410 -0.6485  0.6683  0.0013
  946SOL    HW1 2837   0.161   1.496   1.400  0.7762 -3.0576  2.6238
  946SOL    HW2 2838   0.088   1.347   1.395 -1.3177  2.0631 -1.2552
  947SOL     OW 2839   0.401   0.401   2.782  0.2034  0.4112  0.1773
  947SOL    HW1 2840   0.427   0.303   2.777 -0.0230 -0.9040 -1.1301
  947SOL    HW2 2841   0.330   0.423   2.710  0.5427 -1.3094 -2.9520
  948SOL     OW 2842   1.966   1.509   1.185 -0.1939 -0.1783  0.1573
  948SOL    HW1 2843   1.969   1.496   1.286 -1.2118 -1.9394  2.7501
  948SOL    HW2 2844   2.046   1.459   1.143 -0.2538 -0.1575 -0.0736
  949SOL     OW 2845   0.371   1.274   2.898 -0.0852  0.4647  0.2152
  949SOL    HW1 2846   0.387   1.346   2.828 -2.0941  2.0710  0.0605
  949SOL    HW2 2847   0.308   1.202   2.861  1.5815  1.1025  3.3139
  950SOL     OW 2848   0.556   2.777   1.599 -0.9597  0.6602  0.4808
  950SOL    HW1 2849   0.481   2.718   1.563  1.0250  0.7911 -0.1371
  950SOL    HW2 2850   0.639   2.717   1.612 -3.2624 -0.0509  2.0212
  951SOL     OW 2851   0.844   2.140   2.414  0.1674  0.4043  0.1019
  951SOL    HW1 2852   0.768   2.082   2.454  2.0781  1.3810  0.6194
  951SOL    HW2 2853   0.916   2.160   2.484  0.0185 -3.3664 -0.8658
  952SOL     OW 2854   0.646   1.099   0.567 -0.8827  0.0373 -1.1860
  952SOL    HW1 2855   0.616   1.015   0.618  3.0371 -0.6739  0.5819
  952SOL    HW2 2856   0.619   1.091   0.468 -0.4277  0.2669  0.1690
  953SOL     OW 2857   2.179   1.620   2.955 -0.4537  0.4556  0.3641
  953SOL    HW1 2858   2.098   1.559   2.941  3.8018  1.3736 -0.7099
  953SOL    HW2 2859   2.239   1.583   3.029  1.5252  0.4345 -1.0279
  954SOL     OW 2860   1.490   0.271   0.470 -0.3469  0.0534  0.2037
  954SOL    HW1 2861   1.488   0.291   0.370 -1.4559  1.4958 -1.2826
  954SOL    HW2 2862   1.529   0.176   0.479  4.1248 -1.9852  2.9121
  955SOL     OW 2863   0.857   1.534   0.090 -0.1221  0.1592 -0.0207
  955SOL    HW1 2864   0.830   1.460   0.025  1.7842  1.9514  0.8348
  955SOL    HW2 2865   0.916   1.492   0.163 -0.3657  1.2714 -3.1042
  956SOL     OW 2866   2.742   0.369   1.996 -0.5258 -0.4933 -1.0479
  956SOL    HW1 2867   2.788   0.448   1.950 -0.6988 -0.1859 -0.5784
  956SOL    HW2 2868   2.785   0.346   2.087 -0.5152  1.4358 -1.2696
  957SOL     OW 2869   1.903   1.901   1.980 -0.9674  0.0943 -0.0548
  957SOL    HW1 2870   1.804   1.905   1.954 -1.8182 -1.9090 -0.4619
  957SOL    HW2 2871   1.915   1.884   2.079 -1.7897 -2.2037  1.7718
  958SOL     OW 2872   1.712   0.860   1.192 -0.2834 -0.2411  0.0161
  958SOL    HW1 2873   1.769   0.946   1.191  0.5310 -0.9789  1.0572
  958SOL    HW2 2874   1.729   0.807   1.278 -1.5877 -1.9079 -0.9673
  959SOL     OW 2875   1.450   2.091   2.002 -0.2304 -0.1484  0.5583
  959SOL    HW1 2876   1.508   2.011   1.974 -0.7694  1.4110 -0.0299
  959SOL    HW2 2877   1.454   2.166   1.933 -1.6590 -0.1119 -2.8565
  960SOL     OW 2878   0.799   1.250   2.568  0.5346  0.2455  0.0737
  960SOL    HW1 2879   0.871   1.296   2.514  2.1963 -0.1114  1.3449
  960SOL    HW2 2880   0.714   1.240   2.510  1.4902  0.0796 -0.3022
  961SOL     OW 2881   2.708   1.220   0.098 -0.0873 -0.4715  0.1093
  961SOL    HW1 2882   2.731   1.305   0.151  1.8081  1.2596 -1.6834
  961SOL    HW2 2883   2.613   1.228   0.061 -0.0015  0.7658  0.7412
  962SOL     OW 2884   0.868   1.800   0.074 -0.1074  0.5339 -0.2057
  962SOL    HW1 2885   0.878   1.697   0.072  0.7419 -0.0523  0.8224
  962SOL    HW2 2886   0.927   1.842   0.002 -0.9351 -0.0681  0.8715
  963SOL     OW 2887   2.763   1.555   0.013 -0.2340 -0.6908  0.1328
  963SOL    HW1 2888   2.738   1.514   0.102 -0.9433 -0.6466  1.0656
  963SOL    HW2 2889   2.857   1.533  -0.022 -0.4952  2.1039 -0.2908
  964SOL     OW 2890   0.741   2.166   2.154  0.1176 -0.1830 -0.2095
  964SOL    HW1 2891   0.788   2.170   2.243  2.1820 -1.2758 -0.6750
  964SOL    HW2 2892   0.685   2.250   2.137 -0.3317 -0.0432  2.7402
  965SOL     OW 2893   1.282   1.885   1.383  0.1806 -0.4867  0.1416
  965SOL    HW1 2894   1.324   1.925   1.299 -0.5951 -1.0315  2.0835
  965SOL    HW2 2895   1.229   1.800   1.362 -0.1355  0.7068  1.5772
  966SOL     OW 2896   3.002   1.467   0.373 -0.1196 -0.2203 -0.2876
  966SOL    HW1 2897   3.085   1.465   0.435 -0.4902  1.0480  2.8962
  966SOL    HW2 2898   3.017   1.425   0.281  0.0477 -0.9429  0.1647
  967SOL     OW 2899   1.875   2.587   2.579 -0.1672  0.0709 -1.1925
  967SOL    HW1 2900   1.807   2.636   2.637  0.3697  0.6251 -1.1077
  967SOL    HW2 2901   1.966   2.597   2.625 -1.1500  1.1338  1.7305
  968SOL     OW 2902   1.403   1.295   2.883  0.0165  0.6082  0.4015
  968SOL    HW1 2903   1.423   1.299   2.981 -3.6144 -0.8693 -3.3444
  968SOL    HW2 2904   1.335   1.368   2.865  0.7743  0.0024 -0.4754
  969SOL     OW 2905   0.133   0.942   2.421  0.2288 -0.3015 -1.1627
  969SOL    HW1 2906   0.126   1.021   2.358  0.8520 -1.7270 -0.5296
  969SOL    HW2 2907   0.211   0.955   2.486 -0.2543 -1.8580 -1.1810
  970SOL     OW 2908   2.341   0.214   0.386  0.2332  0.2677 -0.1481
  970SOL    HW1 2909   2.253   0.184   0.343 -0.9043 -0.5819 -0.4250
  970SOL    HW2 2910   2.420   0.152   0.366 -1.4754 -0.9466  1.4417
  971SOL     OW 2911   1.582   1.955   0.805  0.0116  0.0582  0.1728
  971SOL    HW1 2912   1.508   2.024   0.819 -3.0289  0.0608 -1.1192
  971SOL    HW2 2913   1.645   1.957   0.886  0.7548  0.4885 -0.0794
  972SOL     OW 2914   0.230   2.040   2.616 -0.1327 -0.5129 -0.0304
  972SOL    HW1 2915   0.158   2.066   2.685  2.1163  1.4738 -0.2076
  972SOL    HW2 2916   0.292   1.970   2.656 -2.3448  0.3918  0.6598
  973SOL     OW 2917   0.534   0.527   0.441 -0.4456 -0.0419  0.3093
  973SOL    HW1 2918   0.461   0.584   0.397 -1.9154 -2.1759  0.8863
  973SOL    HW2 2919   0.545   0.438   0.393  3.2801  0.2928 -1.5232
  974SOL     OW 2920   2.680   0.654   1.708 -0.0048  0.3795 -0.0236
  974SOL    HW1 2921   2.717   0.598   1.630 -0.7565 -1.9825 -0.7086
  974SOL    HW2 2922   2.579   0.647   1.718  2.2430  2.4902 -1.7796
  975SOL     OW 2923   0.320   3.027   0.819  0.7980  0.6195 -0.0780
  975SOL    HW1 2924   0.272   2.957   0.761 -1.2318 -1.3276 -0.7187
  975SOL    HW2 2925   0.375   3.086   0.756  2.2227  0.0823  0.0373
  976SOL     OW 2926   0.738   1.546   1.461  0.2780  0.0431  0.5511
  976SOL    HW1 2927   0.672   1.480   1.416 -2.0554  1.1543 -1.1845
  976SOL    HW2 2928   0.710   1.644   1.456  0.8987 -0.9877  3.0316
  977SOL     OW 2929   1.272   2.010   0.526 -0.0665  1.2111 -0.3723
  977SOL    HW1 2930   1.311   2.060   0.446 -0.5079 -1.6550  2.0001
  977SOL    HW2 2931   1.283   1.909   0.515  0.9078 -1.6746  0.8615
  978SOL     OW 2932   0.100   1.137   0.011 -0.2991  0.7359  0.4056
  978SOL    HW1 2933   0.106   1.135  -0.091  1.1757  2.6759 -2.3539
  978SOL    HW2 2934   0.190   1.118   0.056  0.8206  0.7564  1.5991
  979SOL     OW 2935   1.962   1.123   0.256  0.1884  0.5241  0.1101
  979SOL    HW1 2936   1.926   1.030   0.234 -1.6413  1.3873  1.9594
  979SOL    HW2 2937   1.999   1.121   0.351 -0.0113  1.0477  0.7152
  980SOL     OW 2938   0.736   1.663   1.910 -0.1796 -0.1222  0.2335
  980SOL    HW1 2939   0.704   1.609   1.828 -1.5329 -3.5121 -1.8797
  980SOL    HW2 2940   0.676   1.635   1.986  0.1347 -0.3797 -2.2173
  981SOL     OW 2941   2.227   1.394   2.288  0.1852  0.5478  0.2565
  981SOL    HW1 2942   2.297   1.385   2.361 -0.5989  1.4250  0.0968
  981SOL    HW2 2943   2.207   1.297   2.261 -0.8153  0.6573 -0.7858
  982SOL     OW 2944   0.417   2.156   1.715  0.6618 -0.0587 -0.6270
  982SOL    HW1 2945   0.408   2.254   1.687  0.4204 -1.8066  0.7489
  982SOL    HW2 2946   0.413   2.157   1.817 -1.4453 -1.0756  0.0877
  983SOL     OW 2947   1.525   2.688   2.025 -0.1826  0.0255  0.2477
  983SOL    HW1 2948   1.521   2.784   1.988 -1.2205 -1.6575 -1.1084
  983SOL    HW2 2949   1.506   2.621   1.950 -1.8501  1.0819  1.4258
  984SOL     OW 2950   3.045   0.144   2.790 -0.3366  0.5245 -1.0026
  984SOL    HW1 2951   3.004   0.205   2.862  1.5201  0.9506  1.0916
  984SOL    HW2 2952   3.030   0.047   2.817 -0.0709 -0.9971  0.2977
  985SOL     OW 2953   1.477   1.339   1.819 -0.0226  0.0895 -0.4434
  985SOL    HW1 2954   1.527   1.359   1.731  1.4292 -1.5624 -0.7918
  985SOL    HW2 2955   1.400   1.273   1.804  1.4488 -1.0573  0.6629
  986SOL     OW 2956   1.684   0.461   0.022  0.2737  0.5272 -0.0240
  986SOL    HW1 2957   1.775   0.505   0.034  1.6341 -1.7888  0.0634
  986SOL    HW2 2958   1.625   0.512  -0.044 -0.9094  0.5578 -1.1609
  987SOL     OW 2959   0.256   2.252   2.453  0.1824  0.1665 -0.0757
  987SOL    HW1 2960   0.333   2.306   2.495 -3.5879 -0.1064  0.5110
  987SOL    HW2 2961   0.248   2.168   2.512 -0.4314 -0.7815  0.9912
  988SOL     OW 2962   2.834   0.235   1.578 -0.2523 -0.0152 -0.1975
  988SOL    HW1 2963   2.925   0.198   1.548  1.2825  0.9704  3.0910
  988SOL    HW2 2964   2.764   0.213   1.507  4.9330 -3.6069  0.5829
  989SOL     OW 2965   2.064   3.053   1.007  0.1904 -0.3116  0.0512
  989SOL    HW1 2966   2.068   2.972   0.946  0.7643  0.3987  0.1510
  989SOL    HW2 2967   2.089   3.133   0.949  1.6864  0.0531  1.2743
  990SOL     OW 2968   2.757   0.829   0.178  0.4870  0.1087  0.0634
  990SOL    HW1 2969   2.772   0.885   0.093  3.6730 -0.0597  0.0729
  990SOL    HW2 2970   2.790   0.733   0.161 -0.6526  1.2055  0.1716
  991SOL     OW 2971   0.287   1.037   0.621 -0.1211 -0.4907 -0.3689
  991SOL    HW1 2972   0.215   1.109   0.620 -0.2001 -0.5113 -1.3597
  991SOL    HW2 2973   0.348   1.048   0.702 -2.1419  0.1081 -0.0124
  992SOL     OW 2974   1.747   1.611   1.530 -0.5495  0.0092  0.0370
  992SOL    HW1 2975   1.745   1.701   1.482  0.0152  2.3889  1.0087
  992SOL    HW2 2976   1.788   1.625   1.623 -1.2742  0.9013  0.7995
  993SOL     OW 2977   2.946   2.371   0.922 -0.4060  0.1556  0.0879
  993SOL    HW1 2978   2.963   2.306   0.998  2.0982 -0.1859  0.7057
  993SOL    HW2 2979   2.872   2.335   0.862 -0.5742  1.2148 -1.8599
  994SOL     OW 2980   3.049   1.812   1.320 -0.0945  0.2904 -0.1165
  994SOL    HW1 2981   2.950   1.836   1.306  0.0929 -0.5146 -3.2520
  994SOL    HW2 2982   3.071   1.815   1.419 -4.0506 -1.0652 -2.3852
  995SOL     OW 2983   2.048   1.216   2.810  0.2765  0.1178  0.1924
  995SOL    HW1 2984   1.981   1.149   2.849 -2.2693 -1.4966 -2.0133
  995SOL    HW2 2985   2.022   1.312   2.833 -0.7067  0.0553 -1.1254
  996SOL     OW 2986   1.861   2.384   0.545  0.0365 -0.4953  0.7714
  996SOL    HW1 2987   1.831   2.371   0.448 -2.1263  0.6711  0.2599
  996SOL    HW2 2988   1.910   2.304   0.583  0.6680 -0.6511 -2.9505
  997SOL     OW 2989   1.400   1.578   1.918 -0.0792  0.5513  0.5580
  997SOL    HW1 2990   1.336   1.625   1.854 -0.8609 -1.0902  1.5915
  997SOL    HW2 2991   1.420   1.484   1.882  2.1686  1.5372  1.3849
  998SOL     OW 2992   3.010   2.541   0.483 -0.3033 -0.0219  0.0936
  998SOL    HW1 2993   3.044   2.447   0.506  1.2930  0.1333 -0.6475
  998SOL    HW2 2994   3.012   2.600   0.566 -1.8868  2.6339 -2.0887
  999SOL     OW 2995   0.625   2.969   0.067 -1.0173  0.0286 -0.2971
  999SOL    HW1 2996   0.599   2.885   0.015  0.7665 -0.1990 -1.2776
  999SOL    HW2 2997   0.613   3.053   0.011  0.8865  1.3933 -2.2279
 1000SOL     OW 2998   0.877   0.242   0.100 -0.2644 -0.6534 -0.0200
 1000SOL    HW1 2999   0.969   0.281   0.078 -2.3877 -0.4803  0.7335
 1000SOL    HW2 3000   0.823   0.249   0.014 -2.4638 -0.5783  0.8737
   3.06390   3.06390   3.06390
