1000 SPC/Fw water molecules
3000
    1SOL  OW       1   0.452   2.107   0.891  0.4205  0.4143 -0.5885
    1SOL  HW1      2   0.386   2.180   0.861 -2.4803  0.9229  0.3183
    1SOL  HW2      3   0.404   2.016   0.909 -2.8562 -1.7144 -0.2924
    2SOL  OW       4   2.373   0.925   0.610 -0.3472 -0.0982  0.2301
    2SOL  HW1      5   2.453   0.992   0.622 -0.0138 -1.0414  1.7489
    2SOL  HW2      6   2.297   0.951   0.670  0.1852 -1.0978 -2.1945
    3SOL  OW       7   0.383   2.502   1.003 -0.3317  0.0784 -0.0939
    3SOL  HW1      8   0.404   2.462   1.097  0.9775  0.2910  0.8021
    3SOL  HW2      9   0.301   2.561   1.008 -1.9500 -0.6650  0.4382
    4SOL  OW      10   2.126   2.019   2.432  0.5028 -0.1691 -0.0021
    4SOL  HW1     11   2.129   2.027   2.332  2.3670 -1.1709  0.8810
    4SOL  HW2     12   2.031   2.029   2.464 -0.3505 -1.3009  1.5783
    5SOL  OW      13   0.489   1.520   2.470 -0.3244 -0.6716 -0.1760
    5SOL  HW1     14   0.454   1.429   2.454  1.2326  4.4306  0.0004
    5SOL  HW2     15   0.592   1.526   2.458  1.9927 -2.5437  0.2117
    6SOL  OW      16   2.053   0.367   2.651 -0.4383 -0.5037 -0.4109
    6SOL  HW1     17   2.126   0.306   2.614  0.1415 -0.5342 -0.9445
    6SOL  HW2     18   2.022   0.436   2.582  2.1393  2.8230  0.0093
    7SOL  OW      19   2.481   0.520   0.672  0.4092  0.1093 -0.2266
    7SOL  HW1     20   2.396   0.535   0.726 -2.0892  0.8786 -1.2640
    7SOL  HW2     21   2.517   0.422   0.695 -0.7884 -3.4781 -0.2135
    8SOL  OW      22   0.013   2.634   2.071  0.1364  0.0737  0.3630
    8SOL  HW1     23   3.041   2.560   2.059 -1.1572 -2.0229 -0.3851
    8SOL  HW2     24   0.029   2.689   1.984  1.8568  2.0517 -3.8781
    9SOL  OW      25   1.120   2.083   1.043 -0.1887  0.3720  0.4314
    9SOL  HW1     26   1.106   2.104   0.944 -0.7672  0.8143  0.5956
    9SOL  HW2     27   1.040   2.114   1.099 -2.4390 -0.7424 -0.8477
   10SOL  OW      28   0.465   1.952   1.809 -0.4792 -0.1600 -0.3239
   10SOL  HW1     29   0.470   2.020   1.735  0.0271  1.1916  0.8347
   10SOL  HW2     30   0.390   1.978   1.877 -0.0980 -1.7173  0.5258
   11SOL  OW      31   0.176   1.922   1.142 -0.5246 -0.1276  0.1574
   11SOL  HW1     32   0.197   1.981   1.223  1.6403 -0.2934 -1.4957
   11SOL  HW2     33   0.122   1.973   1.069  0.2300 -0.7691  2.0648
   12SOL  OW      34   2.033   2.616   0.329  0.4742 -0.0030  0.4736
   12SOL  HW1     35   1.971   2.698   0.313 -1.8258  0.5427  2.7906
   12SOL  HW2     36   2.094   2.632   0.407  0.2099  1.2148 -0.5813
   13SOL  OW      37   2.998   2.591   1.594  0.2524 -0.6606 -0.2270
   13SOL  HW1     38   3.089   2.629   1.617 -3.3670  0.6536 -3.0370
   13SOL  HW2     39   2.964   2.513   1.653 -1.0078 -1.8676 -1.0317
   14SOL  OW      40   1.194   0.937   1.605  0.5387  0.2789 -0.5387
   14SOL  HW1     41   1.260   0.858   1.606 -0.2111 -1.9628 -1.6171
   14SOL  HW2     42   1.142   0.943   1.688  1.6903 -0.8476  0.7792
   15SOL  OW      43   2.749   1.548   3.066  0.4074 -0.4222 -0.3858
   15SOL  HW1     44   2.816   1.548   0.044 -0.9470 -0.4108  0.1824
   15SOL  HW2     45   2.667   1.491   3.084 -0.4012 -1.4116 -0.3961
   16SOL  OW      46   0.095   2.705   2.350 -0.1895 -0.6571 -0.0841
   16SOL  HW1     47   0.104   2.746   2.259  0.5579 -2.3676  0.3748
   16SOL  HW2     48   0.045   2.618   2.342  2.9963  2.3764  0.6693
   17SOL  OW      49   2.879   2.925   1.854 -0.0663  0.5293 -0.9095
   17SOL  HW1     50   2.885   3.028   1.862  0.3916  1.6754  0.5910
   17SOL  HW2     51   2.827   2.891   1.937  0.9471 -1.0850  1.3356
   18SOL  OW      52   0.757   1.530   1.524 -0.2223  0.1475  0.3445
   18SOL  HW1     53   0.698   1.531   1.608  2.7366 -1.6470  0.7113
   18SOL  HW2     54   0.838   1.591   1.536 -0.1623 -0.8645 -0.7415
   19SOL  OW      55   2.582   1.696   1.335 -0.1877 -0.6194 -0.7451
   19SOL  HW1     56   2.503   1.763   1.330 -0.3067  0.4930 -0.3078
   19SOL  HW2     57   2.666   1.740   1.374  0.5598 -0.7481 -0.1339
   20SOL  OW      58   1.834   2.571   2.756  0.4689  0.2195  0.3592
   20SOL  HW1     59   1.767   2.598   2.685 -1.3999  2.2902  0.7018
   20SOL  HW2     60   1.788   2.519   2.827  0.3453  1.8135 -1.6771
   21SOL  OW      61   1.167   1.356   0.900 -0.3081  0.0574 -0.1703
   21SOL  HW1     62   1.067   1.367   0.897  3.0767 -0.3344 -0.8024
   21SOL  HW2     63   1.200   1.262   0.888  1.9995  2.8715  0.3201
   22SOL  OW      64   2.483   0.141   0.281 -0.7631  0.4124  0.1751
   22SOL  HW1     65   2.570   0.103   0.321 -0.5568  0.7935 -1.0035
   22SOL  HW2     66   2.458   0.234   0.316  0.2209 -0.1609 -1.7365
   23SOL  OW      67   2.464   1.828   0.569 -0.6610  0.1573  0.2556
   23SOL  HW1     68   2.554   1.872   0.586  1.0105  1.3252 -0.5728
   23SOL  HW2     69   2.391   1.885   0.620 -3.2473  1.5062  0.7013
   24SOL  OW      70   2.504   0.432   1.664 -0.0503  0.6424  0.2999
   24SOL  HW1     71   2.557   0.493   1.724 -1.2028 -1.6842 -1.5826
   24SOL  HW2     72   2.528   0.336   1.688 -0.9162  0.7910 -1.7370
   25SOL  OW      73   1.048   0.435   2.417 -0.0777  0.0029 -0.2742
   25SOL  HW1     74   1.048   0.370   2.339 -0.4067 -0.1034  1.3489
   25SOL  HW2     75   1.090   0.523   2.388 -0.8135 -3.0218  0.7989
   26SOL  OW      76   0.431   3.032   0.558  0.3849 -0.6339 -0.3179
   26SOL  HW1     77   0.425   0.033   0.590  0.0052  1.9417  1.4069
   26SOL  HW2     78   0.366   2.977   0.609 -0.0373  3.1432 -1.4053
   27SOL  OW      79   2.980   0.668   1.051  0.0694  0.1065 -0.1398
   27SOL  HW1     80   3.041   0.594   1.086  2.5424  1.2648 -2.0728
   27SOL  HW2     81   3.039   0.743   1.011 -0.4582  0.9377 -0.1876
   28SOL  OW      82   2.366   2.743   1.128  0.1416  0.3955 -0.2170
   28SOL  HW1     83   2.376   2.741   1.025  0.9093 -0.8064  0.4856
   28SOL  HW2     84   2.396   2.833   1.166  0.8335  1.8187 -0.1143
   29SOL  OW      85   2.910   2.554   0.358  0.8533  0.2488  0.2865
   29SOL  HW1     86   2.968   2.528   0.436 -2.5710  1.8663 -3.9481
   29SOL  HW2     87   2.809   2.543   0.388 -0.2891 -1.5148 -1.1943
   30SOL  OW      88   2.741   2.811   1.047  0.3248  0.3246 -0.0668
   30SOL  HW1     89   2.754   2.723   0.992  2.5400 -0.8065 -1.7718
   30SOL  HW2     90   2.713   2.791   1.144  0.2079  0.1159  4.5225
   31SOL  OW      91   2.647   1.033   2.543  0.1277  0.0730  0.2883
   31SOL  HW1     92   2.733   0.987   2.582  1.7196 -0.5768  1.2507
   31SOL  HW2     93   2.568   0.969   2.556  0.1938 -1.1972 -2.0794
   32SOL  OW      94   1.006   2.668   2.272 -0.3399  0.0560 -0.5620
   32SOL  HW1     95   1.036   2.579   2.226 -0.9124 -0.4916 -3.6860
   32SOL  HW2     96   0.943   2.716   2.203 -0.9400 -1.2619 -0.1401
   33SOL  OW      97   0.147   2.683   0.447 -0.1257  0.0521 -0.1075
   33SOL  HW1     98   0.205   2.638   0.377  0.5276 -1.8431  0.2322
   33SOL  HW2     99   0.074   2.741   0.402 -0.2258  0.9825  0.1113
   34SOL  OW     100   2.763   2.579   0.929 -0.0979 -0.1414  0.2821
   34SOL  HW1    101   2.688   2.508   0.937 -0.4046 -0.5627 -0.3978
   34SOL  HW2    102   2.856   2.536   0.925  0.9668 -1.1473  1.4705
   35SOL  OW     103   2.139   0.212   2.137 -0.2257 -0.3484 -0.0148
   35SOL  HW1    104   2.039   0.208   2.132 -0.1954 -1.6534  0.3966
   35SOL  HW2    105   2.175   0.300   2.180 -1.9483  3.0104  0.8102
   36SOL  OW     106   1.931   0.524   2.459  0.2107 -0.6152 -0.5117
   36SOL  HW1    107   1.887   0.527   2.363  0.4656 -1.6528 -0.7163
   36SOL  HW2    108   2.018   0.578   2.466 -2.4061 -1.2421  0.1255
   37SOL  OW     109   2.497   1.327   0.503  0.2187  0.3878  0.3604
   37SOL  HW1    110   2.494   1.282   0.409 -1.1092 -1.4612 -1.2886
   37SOL  HW2    111   2.474   1.428   0.491 -0.2510  4.5352 -1.2821
   38SOL  OW     112   0.647   2.985   2.675 -0.2158  0.4453 -0.0349
   38SOL  HW1    113   0.562   3.013   2.629  3.3317  0.1344  0.9583
   38SOL  HW2    114   0.628   2.942   2.767  0.3005 -1.5315 -0.0594
   39SOL  OW     115   1.598   1.734   2.424 -0.0875  0.3255 -0.4543
   39SOL  HW1    116   1.509   1.694   2.402  0.7688 -0.6803 -0.4571
   39SOL  HW2    117   1.665   1.657   2.416 -0.6953 -2.0197  1.3409
   40SOL  OW     118   2.431   0.410   0.266 -0.2409 -0.3956 -0.3271
   40SOL  HW1    119   2.420   0.449   0.172 -0.8689  1.4914 -0.7768
   40SOL  HW2    120   2.501   0.461   0.318  2.4074  1.9698 -0.2469
   41SOL  OW     121   2.200   0.035   2.322  0.0420  0.1976 -0.0633
   41SOL  HW1    122   2.195   0.110   2.249 -0.3082  0.5396  0.3569
   41SOL  HW2    123   2.139   0.052   2.404  0.5254 -0.1555  0.1089
   42SOL  OW     124   2.237   1.976   0.644 -0.6986 -0.0146 -0.3075
   42SOL  HW1    125   2.153   1.929   0.620  2.8398  1.8198  2.1336
   42SOL  HW2    126   2.228   2.079   0.637  1.1088  0.6011  0.4918
   43SOL  OW     127   0.214   2.308   0.580 -0.9515  0.1849 -0.3125
   43SOL  HW1    128   0.235   2.295   0.676  1.2201  0.0594 -2.5517
   43SOL  HW2    129   0.272   2.249   0.524  0.5312  0.9231  1.1921
   44SOL  OW     130   1.157   2.444   0.378  0.2709 -0.3862  0.7947
   44SOL  HW1    131   1.070   2.421   0.329 -0.8343  0.7306 -2.0571
   44SOL  HW2    132   1.204   2.363   0.416 -2.5574  3.3296  0.4395
   45SOL  OW     133   0.443   0.611   2.095  0.3879 -0.6337  0.7992
   45SOL  HW1    134   0.393   0.661   2.021 -0.9695  0.1418  0.8956
   45SOL  HW2    135   0.418   0.512   2.092 -0.9007  1.7766 -1.1541
   46SOL  OW     136   1.550   2.425   2.520  0.2245 -0.5519 -0.4519
   46SOL  HW1    137   1.505   2.426   2.613 -1.3124 -1.1412  1.7738
   46SOL  HW2    138   1.611   2.510   2.509  2.0095  1.3188  0.5472
   47SOL  OW     139   0.970   2.043   2.603 -0.0785 -0.4126  0.6153
   47SOL  HW1    140   0.873   2.047   2.572  0.5142  2.3904  0.8007
   47SOL  HW2    141   0.984   1.992   2.691  2.2127  2.4499  1.3358
   48SOL  OW     142   1.744   0.593   1.916  0.3400  0.3664 -0.0832
   48SOL  HW1    143   1.751   0.664   1.985 -1.0308 -0.8360 -1.8402
   48SOL  HW2    144   1.654   0.548   1.924 -0.8730  1.1663 -0.2805
   49SOL  OW     145   2.264   1.033   1.717 -0.6752 -0.2593  0.2111
   49SOL  HW1    146   2.318   1.094   1.651  0.5221 -0.3133  1.0682
   49SOL  HW2    147   2.165   1.051   1.698  1.2739  2.9738 -1.2738
   50SOL  OW     148   1.173   2.352   1.774  0.0699  0.1398  0.0675
   50SOL  HW1    149   1.171   2.449   1.802 -1.6997  0.6443  2.6469
   50SOL  HW2    150   1.114   2.297   1.835  1.0277  1.3434 -0.0337
   51SOL  OW     151   1.959   1.213   1.877  0.3274  0.4598 -0.2764
   51SOL  HW1    152   2.002   1.260   1.797 -0.0312 -0.2733 -2.3086
   51SOL  HW2    153   1.956   1.116   1.865  0.3691  1.0222  3.9301
   52SOL  OW     154   2.684   3.004   3.037 -0.3426  0.7151 -0.1398
   52SOL  HW1    155   2.627   3.041   2.963  0.7273 -0.3249 -0.1308
   52SOL  HW2    156   2.624   2.955   0.006  0.9135 -2.5847 -0.0532
   53SOL  OW     157   2.993   0.030   2.599  0.1959 -0.6153 -0.1416
   53SOL  HW1    158   2.888   0.031   2.605  0.9902  1.3373 -0.3157
   53SOL  HW2    159   3.030   3.034   2.596  1.0978 -0.1213 -1.2028
   54SOL  OW     160   1.861   0.328   2.133 -0.0995 -0.1080  0.2686
   54SOL  HW1    161   1.888   0.347   2.039  1.1611 -2.2393  1.2403
   54SOL  HW2    162   1.832   0.410   2.189  1.4483 -2.9505  0.1210
   55SOL  OW     163   2.458   2.638   1.549  0.1698 -0.6852 -0.3471
   55SOL  HW1    164   2.524   2.713   1.518  1.3593 -0.7484 -0.9179
   55SOL  HW2    165   2.428   2.655   1.647 -1.0000 -1.9185 -1.5277
   56SOL  OW     166   0.593   1.484   1.734 -0.3996  0.1643 -0.2931
   56SOL  HW1    167   0.537   1.414   1.683  2.2792  0.4060 -1.7592
   56SOL  HW2    168   0.539   1.568   1.747  0.2471 -2.5764 -1.2121
   57SOL  OW     169   2.419   2.824   2.587  0.3609 -0.0469 -0.5140
   57SOL  HW1    170   2.357   2.843   2.669  0.1160  1.4441  1.9381
   57SOL  HW2    171   2.446   2.728   2.582 -0.5852  2.9527 -0.5799
   58SOL  OW     172   0.015   1.537   1.421  0.5842  0.5679 -0.3708
   58SOL  HW1    173   3.024   1.584   1.437  1.3586  1.3065 -1.3523
   58SOL  HW2    174   0.000   1.439   1.428  2.9271 -0.4903 -1.3993
   59SOL  OW     175   3.067   1.345   1.791 -0.0546 -0.1680 -0.2121
   59SOL  HW1    176   0.064   1.294   1.797 -0.6801 -0.8731  2.3497
   59SOL  HW2    177   3.002   1.284   1.846 -1.2772 -0.5098  3.0210
   60SOL  OW     178   0.991   1.556   0.531  0.3829  0.4141  0.0022
   60SOL  HW1    179   0.942   1.473   0.565  0.7702 -1.2254  0.0799
   60SOL  HW2    180   1.070   1.578   0.595  1.6399 -0.3965  1.4283
   61SOL  OW     181   1.624   0.500   2.830 -0.5611  0.7855  0.2032
   61SOL  HW1    182   1.666   0.535   2.741  0.2899  0.4368 -1.0085
   61SOL  HW2    183   1.551   0.569   2.865 -0.9947 -0.0224 -0.9838
   62SOL  OW     184   0.051   2.035   2.968  0.6061 -0.1385 -0.3660
   62SOL  HW1    185   0.018   2.121   3.007  0.7144 -2.3941 -0.1756
   62SOL  HW2    186   0.104   2.044   2.879 -1.2218  0.1721 -1.7861
   63SOL  OW     187   2.505   0.639   0.028  0.1735  0.2253 -0.4388
   63SOL  HW1    188   2.536   0.697   0.106  0.6964 -1.1352  0.2656
   63SOL  HW2    189   2.400   0.648   0.011 -0.4879  2.7942 -1.8403
   64SOL  OW     190   1.577   2.136   2.124 -0.3423  0.6282  0.2149
   64SOL  HW1    191   1.515   2.144   2.200 -0.7197  1.8765 -0.6569
   64SOL  HW2    192   1.569   2.040   2.088 -0.1807 -2.5577 -2.6049
   65SOL  OW     193   0.671   1.124   1.768  0.1902 -0.0311 -0.0807
   65SOL  HW1    194   0.672   1.022   1.780 -0.5113 -2.3702  1.5228
   65SOL  HW2    195   0.698   1.162   1.678 -1.0809 -1.2548  0.3368
   66SOL  OW     196   0.244   3.094   0.847 -0.2032  0.6715  0.0390
   66SOL  HW1    197   0.227   0.058   0.928 -2.1407  0.9690  1.2635
   66SOL  HW2    198   0.302   3.015   0.872 -0.9916  0.5737  1.3286
   67SOL  OW     199   1.984   1.862   0.561 -0.2923  0.1003 -0.4170
   67SOL  HW1    200   1.930   1.829   0.642 -2.2633  0.4531 -0.0645
   67SOL  HW2    201   1.980   1.792   0.485 -0.6931 -2.2623  2.6610
   68SOL  OW     202   1.833   3.043   1.074 -0.1378 -0.3565  0.0755
   68SOL  HW1    203   1.874   3.024   1.167  1.5648 -1.4014  1.1202
   68SOL  HW2    204   1.733   3.064   1.086  1.9057 -1.2234  2.1828
   69SOL  OW     205   2.477   2.750   2.873 -0.0675 -0.1943 -0.3079
   69SOL  HW1    206   2.554   2.696   2.825 -0.7080 -1.9578  0.4062
   69SOL  HW2    207   2.507   2.789   2.962 -0.2556 -2.7976  0.2236
   70SOL  OW     208   3.049   1.769   2.737 -0.7947 -0.2000 -0.2372
   70SOL  HW1    209   2.986   1.842   2.757  0.8601 -2.5430 -0.2511
   70SOL  HW2    210   3.041   1.687   2.800  3.1979 -2.6640  1.0282
   71SOL  OW     211   0.551   1.096   1.415 -0.3394  0.0876 -0.2022
   71SOL  HW1    212   0.628   1.146   1.460  0.3951  0.8166  2.6421
   71SOL  HW2    213   0.570   1.076   1.315  0.8523  0.5041  0.9749
   72SOL  OW     214   2.473   2.087   1.712 -0.0323 -0.6084  0.1348
   72SOL  HW1    215   2.510   1.992   1.697  0.8384 -2.1970 -0.9119
   72SOL  HW2    216   2.455   2.095   1.812  0.9737  1.4601 -0.5600
   73SOL  OW     217   1.786   0.403   3.026  0.1163 -0.5259 -0.2086
   73SOL  HW1    218   1.716   0.440   2.962 -0.7991 -0.4688 -0.4235
   73SOL  HW2    219   1.756   0.311   3.058 -1.1101 -0.3180 -0.4013
   74SOL  OW     220   0.340   2.651   2.445  0.2797  0.3811  0.5493
   74SOL  HW1    221   0.249   2.683   2.415  1.4963  1.5857 -1.4322
   74SOL  HW2    222   0.365   2.572   2.391  1.5053  0.3743 -1.5681
   75SOL  OW     223   2.292   2.741   2.301  0.1602  0.4593 -0.3596
   75SOL  HW1    224   2.342   2.828   2.327 -0.0866 -0.5370  1.5435
   75SOL  HW2    225   2.351   2.696   2.230  1.4248  1.6418  0.2418
   76SOL  OW     226   0.423   1.333   1.490  0.2627 -0.0296  0.3462
   76SOL  HW1    227   0.450   1.399   1.419 -2.0540 -1.5327  0.6705
   76SOL  HW2    228   0.466   1.244   1.470 -1.3034  1.4659  1.3112
   77SOL  OW     229   1.998   1.290   1.287  0.1455 -0.2962 -0.4890
   77SOL  HW1    230   1.898   1.301   1.262 -1.0178 -2.5875 -1.7246
   77SOL  HW2    231   2.057   1.302   1.198 -1.0291 -0.5815 -1.7753
   78SOL  OW     232   1.354   1.441   1.069 -0.1167 -0.3107 -0.0351
   78SOL  HW1    233   1.348   1.390   1.156  0.4936  1.1492  2.1485
   78SOL  HW2    234   1.295   1.402   0.996  0.6226 -0.8216 -2.8758
   79SOL  OW     235   2.128   2.231   1.131  0.2290 -0.1232 -0.1751
   79SOL  HW1    236   2.194   2.301   1.095 -0.6971  0.6161  0.1435
   79SOL  HW2    237   2.132   2.222   1.234 -0.4960 -2.7238  2.2508
   80SOL  OW     238   1.069   0.512   1.588  0.2921  0.3362  0.2755
   80SOL  HW1    239   0.996   0.538   1.662 -0.8214  2.9927  2.2271
   80SOL  HW2    240   1.120   0.436   1.621 -0.4956  3.8288 -0.8830
   81SOL  OW     241   1.409   1.321   0.103 -0.3172 -0.2455  0.0795
   81SOL  HW1    242   1.337   1.342   0.032 -2.3896  0.7639 -3.6670
   81SOL  HW2    243   1.389   1.377   0.186  0.0079  2.0446  1.8013
   82SOL  OW     244   1.046   0.244   2.217 -0.2540 -0.5675  0.2282
   82SOL  HW1    245   1.146   0.233   2.194  1.6520  1.7405 -2.0176
   82SOL  HW2    246   1.008   0.160   2.258 -2.6979 -0.8186 -0.0370
   83SOL  OW     247   0.546   2.946   1.154  0.0853  0.4672  0.4596
   83SOL  HW1    248   0.636   2.896   1.129  2.7686 -1.5356 -1.1559
   83SOL  HW2    249   0.559   3.002   1.235 -0.9447 -3.4003 -1.0341
   84SOL  OW     250   1.874   1.135   0.319  0.3154  0.2688  0.0629
   84SOL  HW1    251   1.791   1.099   0.363  0.2265 -1.0128 -0.2339
   84SOL  HW2    252   1.945   1.065   0.339 -0.9657 -1.7299  0.5982
   85SOL  OW     253   2.752   1.031   0.998  0.1031  0.4605 -0.1666
   85SOL  HW1    254   2.827   1.049   0.933 -1.9129  2.0911 -0.3373
   85SOL  HW2    255   2.757   0.935   1.038  2.7006  0.0584  3.1156
   86SOL  OW     256   1.431   2.218   2.387  0.2564  0.2809  0.1199
   86SOL  HW1    257   1.398   2.150   2.459  0.3201 -4.0558  0.8822
   86SOL  HW2    258   1.470   2.305   2.428  2.2374 -0.1805  0.5024
   87SOL  OW     259   2.427   0.872   1.557  0.1922  0.2188  0.4425
   87SOL  HW1    260   2.373   0.933   1.619 -2.3472  1.1465  0.9194
   87SOL  HW2    261   2.368   0.810   1.503 -0.3105  1.4822 -2.5190
   88SOL  OW     262   3.005   0.461   1.697  0.0402 -0.5226 -0.3439
   88SOL  HW1    263   3.018   0.515   1.611  1.9292  0.9315 -0.6574
   88SOL  HW2    264   2.909   0.426   1.692  1.7640 -0.0594  0.9436
   89SOL  OW     265   0.182   0.637   2.347  0.5778  0.2320 -0.0028
   89SOL  HW1    266   0.282   0.644   2.334  3.0233  0.9253  1.9579
   89SOL  HW2    267   0.150   0.589   2.433  1.6050  0.3304  0.6911
   90SOL  OW     268   0.089   1.656   1.167 -0.1272 -0.4025 -0.1037
   90SOL  HW1    269   0.076   1.626   1.262 -1.4590 -0.4517 -0.2838
   90SOL  HW2    270   0.140   1.748   1.165 -0.3210  0.5858  0.8468
   91SOL  OW     271   1.676   1.932   1.284  0.2599  0.0490 -0.0395
   91SOL  HW1    272   1.696   1.857   1.347 -0.6097  0.8465  0.4027
   91SOL  HW2    273   1.675   1.904   1.187  0.9545  1.3896  1.5931
   92SOL  OW     274   0.754   2.442   2.330 -0.0480  0.0928  0.0136
   92SOL  HW1    275   0.790   2.389   2.409 -0.6965  4.0529 -1.5576
   92SOL  HW2    276   0.694   2.521   2.353 -1.2166  0.2057 -1.6751
   93SOL  OW     277   1.234   1.024   2.621 -0.0568 -0.4463 -0.2212
   93SOL  HW1    278   1.219   1.075   2.711 -1.1186  0.1852 -1.2699
   93SOL  HW2    279   1.165   0.947   2.613 -0.6540 -0.1217 -0.1807
   94SOL  OW     280   2.836   0.501   1.928  0.3687  0.4279 -0.1484
   94SOL  HW1    281   2.881   0.474   1.841 -2.7280  2.2737  3.0880
   94SOL  HW2    282   2.801   0.416   1.976 -0.0204  0.7017 -0.3892
   95SOL  OW     283   1.724   2.216   1.785  0.1373  0.1535 -0.0002
   95SOL  HW1    284   1.779   2.145   1.733 -1.2433 -3.0216 -0.5548
   95SOL  HW2    285   1.628   2.184   1.787 -0.7889 -1.2646  2.0134
   96SOL  OW     286   2.920   0.232   2.269  0.4830 -0.5424  1.0603
   96SOL  HW1    287   2.880   0.243   2.173  0.8591  0.4151  0.3467
   96SOL  HW2    288   2.916   0.320   2.322 -2.6001  0.7238 -2.0166
   97SOL  OW     289   1.607   0.805   0.358  0.3487 -0.0112  0.3478
   97SOL  HW1    290   1.637   0.755   0.272 -1.2297  0.6187  0.8667
   97SOL  HW2    291   1.661   0.776   0.440  2.0140  1.4306  0.3074
   98SOL  OW     292   1.114   2.622   0.587 -0.4745 -0.4412 -0.1263
   98SOL  HW1    293   1.127   2.563   0.504 -0.4269  1.3683  0.0245
   98SOL  HW2    294   1.027   2.678   0.580 -3.4474 -0.3879  1.0420
   99SOL  OW     295   2.207   0.966   0.835  0.2692 -0.2011  0.1989
   99SOL  HW1    296   2.282   0.925   0.892  1.6026 -0.8316  0.1154
   99SOL  HW2    297   2.118   0.905   0.837 -0.7246  0.2644 -1.7401
  100SOL  OW     298   1.970   1.572   0.758 -0.1192  0.2178 -0.2903
  100SOL  HW1    299   2.041   1.620   0.813 -0.7669  1.1221  1.0609
  100SOL  HW2    300   1.895   1.534   0.822  0.4488  1.8936  0.2500
  101SOL  OW     301   2.959   2.717   2.782  0.1072  0.0713 -0.5952
  101SOL  HW1    302   2.953   2.778   2.865  0.9529  0.6065  1.2574
  101SOL  HW2    303   3.013   2.638   2.805 -3.1566  3.4327  2.1830
  102SOL  OW     304   2.201   2.911   1.329  0.2588 -0.0234  0.3906
  102SOL  HW1    305   2.291   2.937   1.286  1.9436  0.5724 -0.8988
  102SOL  HW2    306   2.205   2.821   1.385  0.5151 -2.1616  2.8559
  103SOL  OW     307   3.010   2.803   0.338 -0.0596  0.1974 -0.2823
  103SOL  HW1    308   2.989   2.708   0.303  1.8346  0.0448  0.9104
  103SOL  HW2    309   2.943   2.873   0.306 -0.2212  0.9908  1.5765
  104SOL  OW     310   2.558   0.083   1.414  0.1233  0.0353 -0.2929
  104SOL  HW1    311   2.646   0.137   1.436  2.9947 -0.5334  3.3830
  104SOL  HW2    312   2.508   0.063   1.502  3.2290  2.2427  0.9793
  105SOL  OW     313   1.610   1.893   2.837 -0.0410  0.3114 -0.4424
  105SOL  HW1    314   1.612   1.905   2.738 -0.5397  0.0798  3.0185
  105SOL  HW2    315   1.617   1.791   2.856 -0.0818 -1.3985 -0.2287
  106SOL  OW     316   0.294   2.889   0.159 -0.2504 -0.4046 -0.0690
  106SOL  HW1    317   0.385   2.906   0.119  0.9677 -2.4169 -0.2788
  106SOL  HW2    318   0.286   2.796   0.185  0.8509  1.7710 -0.3168
  107SOL  OW     319   1.643   2.145   1.070  0.3871  0.4006 -0.2708
  107SOL  HW1    320   1.610   2.245   1.079 -2.1697  3.9816 -1.2197
  107SOL  HW2    321   1.715   2.122   1.142  1.0228 -0.3498  1.4729
  108SOL  OW     322   2.704   1.192   1.225 -0.4685  0.0631 -0.4187
  108SOL  HW1    323   2.603   1.188   1.238  1.7150  0.8031  0.0394
  108SOL  HW2    324   2.732   1.125   1.153 -0.8079 -0.4846 -2.8730
  109SOL  OW     325   1.002   2.280   0.040 -0.4835 -0.0038  0.0530
  109SOL  HW1    326   1.101   2.257   0.046 -0.5345  1.1090 -0.2534
  109SOL  HW2    327   0.972   2.308   0.131  1.0559  0.0888  0.1937
  110SOL  OW     328   1.223   1.828   0.248  0.5926 -0.0577 -0.1326
  110SOL  HW1    329   1.196   1.732   0.255  1.6457  0.1116 -1.1996
  110SOL  HW2    330   1.159   1.874   0.183  1.4807 -0.1137  0.1005
  111SOL  OW     331   0.037   1.400   2.583 -0.1137  0.2095  0.4494
  111SOL  HW1    332   0.086   1.418   2.670 -0.3746 -1.0043 -0.8380
  111SOL  HW2    333   3.094   1.485   2.545 -0.4845 -0.1053  1.0219
  112SOL  OW     334   1.576   3.089   1.093 -0.0485  0.5579  0.2402
  112SOL  HW1    335   1.530   3.057   1.007 -2.2625  0.6333 -2.6488
  112SOL  HW2    336   1.547   3.037   1.170 -1.4511 -3.1050 -1.1344
  113SOL  OW     337   0.217   1.806   2.653  0.1895  0.0766 -0.0757
  113SOL  HW1    338   0.120   1.779   2.676  1.1819  0.0065  1.8508
  113SOL  HW2    339   0.237   1.901   2.678  2.2675 -0.8710  1.9341
  114SOL  OW     340   0.494   0.243   1.110 -0.5078  0.4232  0.2669
  114SOL  HW1    341   0.530   0.332   1.149 -0.5011 -0.5424 -0.2455
  114SOL  HW2    342   0.467   0.269   1.014 -1.3108 -1.6475 -0.0452
  115SOL  OW     343   0.854   1.232   1.107 -0.3962  0.5856  0.3875
  115SOL  HW1    344   0.931   1.275   1.166  3.7165  1.7933 -1.1840
  115SOL  HW2    345   0.856   1.267   1.010  0.4987 -1.6051 -1.2059
  116SOL  OW     346   0.116   0.342   2.756 -0.7373  0.4192  0.2099
  116SOL  HW1    347   0.050   0.266   2.779 -2.7932 -1.7343  1.0528
  116SOL  HW2    348   0.124   0.412   2.831  0.4058 -1.2121 -0.3198
  117SOL  OW     349   2.762   0.023   2.330  0.0588  0.3318  0.3470
  117SOL  HW1    350   2.742   0.025   2.431  0.1331  0.3494  2.3006
  117SOL  HW2    351   2.822   0.100   2.305  0.2927 -0.3115 -0.3934
  118SOL  OW     352   1.134   2.875   2.389  0.1331 -0.3145  0.0643
  118SOL  HW1    353   1.197   2.867   2.469  0.3635 -0.6980 -1.4008
  118SOL  HW2    354   1.102   2.782   2.362  0.5226  0.7368 -0.8758
  119SOL  OW     355   1.107   1.108   2.278  0.3544  0.3605 -0.0057
  119SOL  HW1    356   1.129   1.008   2.257  2.1958  0.1724  0.7694
  119SOL  HW2    357   1.191   1.153   2.317 -0.4577  0.9433  1.2461
  120SOL  OW     358   2.751   0.268   2.035 -0.1195  0.1794 -0.3626
  120SOL  HW1    359   2.786   0.208   1.963 -2.9351 -0.0812  0.5372
  120SOL  HW2    360   2.675   0.220   2.084 -0.4454 -0.1588  2.7878
  121SOL  OW     361   1.550   1.178   1.080  0.2604 -0.3405 -0.4361
  121SOL  HW1    362   1.456   1.187   1.125  1.3127 -1.6978  1.6080
  121SOL  HW2    363   1.533   1.165   0.981 -0.0073  2.1229 -0.7460
  122SOL  OW     364   0.487   2.123   1.555  0.0597  0.5380  0.2281
  122SOL  HW1    365   0.392   2.101   1.522 -0.0029  0.1236 -0.6476
  122SOL  HW2    366   0.549   2.054   1.517 -0.6141 -0.9561 -0.1995
  123SOL  OW     367   2.515   2.269   0.124 -0.1613 -0.0281 -0.3228
  123SOL  HW1    368   2.591   2.201   0.132  0.4214 -0.6417  1.3549
  123SOL  HW2    369   2.457   2.272   0.209  0.4778 -2.2152 -1.1847
  124SOL  OW     370   1.892   1.216   3.039  0.2886 -0.0884  0.3044
  124SOL  HW1    371   1.955   1.281   2.987 -0.7046  4.2428  0.4421
  124SOL  HW2    372   1.854   1.256   0.031  1.4915  0.7786 -0.5187
  125SOL  OW     373   2.768   0.319   1.698  0.3071  0.4539 -0.7451
  125SOL  HW1    374   2.684   0.264   1.724 -1.0757 -1.9881 -4.0852
  125SOL  HW2    375   2.805   0.277   1.609  3.9145 -0.2447 -0.9984
  126SOL  OW     376   0.240   3.089   0.329 -0.4991 -0.3254 -0.0508
  126SOL  HW1    377   0.257   3.015   0.259 -0.9825 -0.1450  0.4007
  126SOL  HW2    378   0.263   3.054   0.425 -0.6185  1.1501 -1.2671
  127SOL  OW     379   2.261   3.047   2.715 -0.2414 -0.0923 -0.0591
  127SOL  HW1    380   2.234   3.080   2.810  1.9247  0.9208 -2.4259
  127SOL  HW2    381   2.184   3.003   2.666  1.7482  1.9352  3.8194
  128SOL  OW     382   0.316   1.219   0.761  0.1373  0.3994 -0.2864
  128SOL  HW1    383   0.383   1.265   0.824  1.5734 -0.2161 -1.9048
  128SOL  HW2    384   0.367   1.139   0.721 -1.5945 -0.5083  1.3232
  129SOL  OW     385   2.885   2.029   1.090 -0.7842  0.9065  0.6302
  129SOL  HW1    386   2.958   2.012   1.025 -0.7803 -0.2424 -0.3212
  129SOL  HW2    387   2.840   1.939   1.092  2.5336  2.1150 -1.8902
  130SOL  OW     388   0.447   1.122   0.299  0.1144 -0.2503  0.2069
  130SOL  HW1    389   0.382   1.202   0.282  1.4681 -0.6880  0.6127
  130SOL  HW2    390   0.526   1.130   0.235  0.0260  1.5447  0.9422
  131SOL  OW     391   0.943   1.523   2.540 -0.1646 -0.0387 -0.1275
  131SOL  HW1    392   0.931   1.558   2.634 -1.1979  0.2112 -2.4521
  131SOL  HW2    393   0.863   1.554   2.486 -2.2272  0.6631  2.0290
  132SOL  OW     394   1.727   1.245   2.010  0.0824  0.1466  0.2366
  132SOL  HW1    395   1.824   1.252   1.992 -0.0493  0.6455 -0.4024
  132SOL  HW2    396   1.684   1.232   1.921  2.0283 -1.0785  0.3462
  133SOL  OW     397   2.443   1.578   1.535  0.5875 -0.5641  0.2765
  133SOL  HW1    398   2.503   1.630   1.470  0.3546 -2.1237 -1.2105
  133SOL  HW2    399   2.498   1.523   1.599 -0.6268  1.2723  1.1089
  134SOL  OW     400   2.382   1.805   0.056 -0.5506  0.6866 -0.5217
  134SOL  HW1    401   2.317   1.735   0.090 -1.7167 -2.4804 -0.2407
  134SOL  HW2    402   2.409   1.866   0.130 -1.5426  0.8709 -1.8898
  135SOL  OW     403   2.201   0.932   2.387  0.3169  0.0550  0.1208
  135SOL  HW1    404   2.103   0.943   2.411 -4.2355  0.7031 -0.0332
  135SOL  HW2    405   2.233   1.018   2.340  1.5963  1.7011 -2.6854
  136SOL  OW     406   1.437   1.708   0.695 -0.1298 -0.0184  0.0328
  136SOL  HW1    407   1.472   1.801   0.667  0.2508 -0.9646  1.6597
  136SOL  HW2    408   1.487   1.683   0.779 -0.0191  1.4696  1.5109
  137SOL  OW     409   2.656   2.556   0.440 -0.5736 -0.0106  0.2397
  137SOL  HW1    410   2.658   2.612   0.525 -2.4634  2.0191 -2.8901
  137SOL  HW2    411   2.619   2.460   0.459  1.3639 -3.3551  0.7234
  138SOL  OW     412   2.924   2.922   2.246 -0.4552 -0.5005 -0.3239
  138SOL  HW1    413   2.858   2.989   2.285 -0.0854  1.8602 -2.3131
  138SOL  HW2    414   3.012   2.970   2.218  2.0945  0.8426 -2.8717
  139SOL  OW     415   2.592   0.167   2.910 -0.7027 -0.3605 -0.1415
  139SOL  HW1    416   2.561   0.078   2.864  1.3116 -1.8551 -1.8926
  139SOL  HW2    417   2.539   0.191   2.997  1.5575 -1.2454 -0.5023
  140SOL  OW     418   2.716   1.906   1.914  0.2743  0.2129 -0.0909
  140SOL  HW1    419   2.813   1.920   1.889 -1.5693  1.0803  1.9593
  140SOL  HW2    420   2.662   1.894   1.828  0.7321  1.6218 -4.1357
  141SOL  OW     421   0.057   1.721   0.189 -0.6139  0.2584  0.1471
  141SOL  HW1    422   0.098   1.716   0.281 -1.0506  2.0746 -2.2905
  141SOL  HW2    423   0.103   1.802   0.141  0.0963 -0.6602 -1.8482
  142SOL  OW     424   0.327   0.369   2.039 -0.2137 -0.2752  0.1098
  142SOL  HW1    425   0.231   0.386   1.998  0.9746 -0.0923  1.2932
  142SOL  HW2    426   0.316   0.308   2.122 -2.4479 -0.3049  0.6084
  143SOL  OW     427   1.426   1.539   0.278  0.3278 -0.2400 -0.1013
  143SOL  HW1    428   1.489   1.603   0.232 -1.4470 -0.8688  0.2447
  143SOL  HW2    429   1.474   1.512   0.365  2.6870 -1.5129  0.2676
  144SOL  OW     430   1.689   2.522   0.413 -0.2934 -0.4017 -0.2405
  144SOL  HW1    431   1.609   2.463   0.412  1.8169  3.6946  2.5876
  144SOL  HW2    432   1.767   2.485   0.356 -2.1535  0.8574 -0.0365
  145SOL  OW     433   0.911   2.869   1.667  0.0707 -0.5151  0.4175
  145SOL  HW1    434   0.888   2.831   1.759 -0.8869  1.5246 -0.4354
  145SOL  HW2    435   0.940   2.969   1.676 -0.8737  0.3895 -0.4418
  146SOL  OW     436   2.115   2.084   2.796  0.2764  1.0685  0.6883
  146SOL  HW1    437   2.177   2.144   2.739  1.9726  2.4802 -0.8400
  146SOL  HW2    438   2.171   2.050   2.873 -1.8688  1.9233 -0.6056
  147SOL  OW     439   2.757   2.211   1.682 -0.6600  0.0446 -0.0128
  147SOL  HW1    440   2.781   2.256   1.593 -0.5986  0.3405  0.3645
  147SOL  HW2    441   2.663   2.174   1.691 -0.3004 -0.6838 -0.0242
  148SOL  OW     442   1.722   2.439   2.955  0.0478  0.4011  0.0701
  148SOL  HW1    443   1.799   2.372   2.968 -1.4325  1.5583 -0.7716
  148SOL  HW2    444   1.681   2.462   3.046  1.5445  0.5616 -1.2951
  149SOL  OW     445   1.447   2.381   0.989 -0.3339 -0.0503  0.2394
  149SOL  HW1    446   1.474   2.356   0.893  3.1768  0.2820 -3.0761
  149SOL  HW2    447   1.388   2.309   1.038  0.8754 -1.8246  0.3064
  150SOL  OW     448   0.850   2.719   0.626 -0.2130  0.1714  0.2700
  150SOL  HW1    449   0.758   2.682   0.603  2.5372 -1.9813 -1.0876
  150SOL  HW2    450   0.880   2.802   0.572  0.2775  0.6497  2.3736
  151SOL  OW     451   2.326   1.879   0.876 -0.0371 -0.2512  0.2770
  151SOL  HW1    452   2.304   1.930   0.792  0.1385  1.9784 -0.4745
  151SOL  HW2    453   2.261   1.910   0.948  2.2110 -0.0989 -3.3227
  152SOL  OW     454   0.810   1.962   0.784 -0.0825 -0.0670  0.2212
  152SOL  HW1    455   0.899   1.915   0.801  1.3595 -2.6055 -1.0764
  152SOL  HW2    456   0.799   2.057   0.822  0.8359 -1.1163 -0.6561
  153SOL  OW     457   1.696   1.842   0.387  0.1599  0.1498  1.0233
  153SOL  HW1    458   1.767   1.768   0.374 -0.3178 -3.1867 -0.4430
  153SOL  HW2    459   1.614   1.824   0.325 -0.7043  0.4660  3.3664
  154SOL  OW     460   0.402   1.422   2.117  0.0088  0.0601  0.0188
  154SOL  HW1    461   0.342   1.488   2.066  0.2347 -0.0089 -1.2068
  154SOL  HW2    462   0.355   1.387   2.205  0.9668 -2.7712 -0.3958
  155SOL  OW     463   0.546   2.212   0.055 -0.5076  0.1129 -0.2275
  155SOL  HW1    464   0.602   2.291   0.079 -0.8893  0.1403 -1.0888
  155SOL  HW2    465   0.580   2.124   0.100  1.6861 -1.9718  0.9059
  156SOL  OW     466   3.067   2.128   0.524 -0.1706 -0.6130 -0.5515
  156SOL  HW1    467   0.009   2.220   0.547 -0.8115  1.1795  0.0865
  156SOL  HW2    468   2.967   2.136   0.496  1.2701  1.9075 -0.5908
  157SOL  OW     469   2.028   2.849   1.002 -0.2171  0.1134  0.3715
  157SOL  HW1    470   2.054   2.791   1.085 -0.7592 -1.1693  1.2117
  157SOL  HW2    471   1.959   2.919   1.019 -0.0655  1.7965 -0.3633
  158SOL  OW     472   0.432   1.697   1.789  0.4048  0.4417 -0.0954
  158SOL  HW1    473   0.371   1.674   1.867  0.6495  0.2919 -1.2924
  158SOL  HW2    474   0.454   1.798   1.786 -2.3722  1.4336  0.0858
  159SOL  OW     475   0.335   1.743   2.401  0.3418  0.0834 -0.3666
  159SOL  HW1    476   0.386   1.653   2.402 -2.9450  0.2306  1.2015
  159SOL  HW2    477   0.292   1.764   2.494  0.1354  0.4218  0.9073
  160SOL  OW     478   2.097   0.989   0.413 -0.0813  0.1699 -0.2743
  160SOL  HW1    479   2.132   0.910   0.352 -0.1752 -0.2740 -0.5498
  160SOL  HW2    480   2.065   0.955   0.501 -0.2090  0.7922 -5.7914
  161SOL  OW     481   1.027   2.166   1.969  0.0375  0.0243 -0.7487
  161SOL  HW1    482   0.981   2.199   2.057 -0.8272 -2.4796  1.1655
  161SOL  HW2    483   0.963   2.111   1.912 -1.7121  1.2879  0.6164
  162SOL  OW     484   0.462   1.528   1.305  0.2923  0.5329  0.1241
  162SOL  HW1    485   0.556   1.551   1.268 -0.3783 -0.8423 -3.9640
  162SOL  HW2    486   0.428   1.600   1.369 -1.2545  2.6813  0.3825
  163SOL  OW     487   1.997   1.218   2.585 -0.6574  0.1254 -0.2709
  163SOL  HW1    488   2.074   1.198   2.648  2.8044 -1.0179 -0.8536
  163SOL  HW2    489   2.017   1.302   2.526 -1.5842  0.5378 -1.2807
  164SOL  OW     490   2.889   0.543   2.965 -0.0445  0.8836  0.5339
  164SOL  HW1    491   2.857   0.451   2.946  0.9085  0.2844 -2.1591
  164SOL  HW2    492   2.850   0.572   3.054  0.1302  0.6793  2.2085
  165SOL  OW     493   1.956   0.888   0.615 -0.0690 -0.4248  0.2100
  165SOL  HW1    494   1.985   0.846   0.706  3.7664  0.6273  0.3686
  165SOL  HW2    495   1.936   0.987   0.621 -0.2574  0.4830  0.2624
  166SOL  OW     496   1.878   1.359   0.203 -0.2342 -0.6293 -0.3788
  166SOL  HW1    497   1.875   1.272   0.259  2.1949 -1.5871 -0.1377
  166SOL  HW2    498   1.962   1.411   0.228 -0.7864  0.3096  0.9214
  167SOL  OW     499   2.697   2.249   2.464 -0.0378 -0.1987  0.2964
  167SOL  HW1    500   2.780   2.246   2.524 -0.1111 -0.3288 -0.0564
  167SOL  HW2    501   2.624   2.195   2.509  1.3449  1.1408 -1.1895
  168SOL  OW     502   2.278   3.066   0.275 -0.0349 -0.0250 -0.1386
  168SOL  HW1    503   2.356   0.035   0.277 -2.1326 -0.0141  0.0880
  168SOL  HW2    504   2.255   3.031   0.179 -2.0038 -2.9618 -2.8692
  169SOL  OW     505   2.726   1.440   1.065  0.6215 -0.1823  0.3605
  169SOL  HW1    506   2.814   1.496   1.068  0.7684 -0.7711 -0.7065
  169SOL  HW2    507   2.731   1.373   1.139  1.0372 -0.8721 -1.8317
  170SOL  OW     508   0.216   1.486   1.610 -0.1765  0.5624 -0.2071
  170SOL  HW1    509   0.281   1.437   1.551 -2.6783  2.8957 -1.9608
  170SOL  HW2    510   0.150   1.527   1.544 -0.6007 -0.1458  0.6275
  171SOL  OW     511   1.496   2.748   2.921 -0.7497  0.0409 -0.4230
  171SOL  HW1    512   1.419   2.777   2.979  0.6307 -1.4462 -0.7781
  171SOL  HW2    513   1.505   2.648   2.930  2.4216  1.2916  1.4883
  172SOL  OW     514   0.687   0.315   1.915 -0.0540  0.5180  0.0601
  172SOL  HW1    515   0.599   0.358   1.887 -0.1916 -0.0338  1.0596
  172SOL  HW2    516   0.670   0.249   1.986  1.4159 -2.3784  0.1750
  173SOL  OW     517   1.228   0.655   1.163 -0.3073  0.5022 -0.2723
  173SOL  HW1    518   1.144   0.632   1.210  1.3456  0.3325  2.3830
  173SOL  HW2    519   1.246   0.749   1.134 -0.9554  1.8843 -0.9852
  174SOL  OW     520   2.233   2.922   1.673 -0.1945 -0.3739  0.3841
  174SOL  HW1    521   2.151   2.985   1.657  2.2785  1.4117  0.0862
  174SOL  HW2    522   2.230   2.834   1.626 -1.0058 -0.7996  0.6362
  175SOL  OW     523   2.946   1.066   0.825 -0.2505 -0.2356 -0.1208
  175SOL  HW1    524   3.044   1.059   0.866  1.3685 -5.0713  1.4717
  175SOL  HW2    525   2.940   1.125   0.741 -4.0819  1.5868 -0.8856
  176SOL  OW     526   1.538   1.131   0.804 -0.1148 -0.2040 -0.5880
  176SOL  HW1    527   1.567   1.035   0.782 -0.0756 -0.7599 -0.6849
  176SOL  HW2    528   1.571   1.191   0.726  1.0581  1.0202  0.6777
  177SOL  OW     529   1.451   0.837   1.748 -0.3975  0.4209  0.2953
  177SOL  HW1    530   1.406   0.761   1.695 -0.2102 -1.6337 -1.6136
  177SOL  HW2    531   1.491   0.907   1.687 -1.4258  1.6303  0.6927
  178SOL  OW     532   1.969   2.810   1.794 -0.1704  0.4954 -0.4688
  178SOL  HW1    533   1.976   2.876   1.718 -0.7763 -2.4678  0.5590
  178SOL  HW2    534   1.876   2.774   1.793 -2.8038 -0.5346  2.1435
  179SOL  OW     535   1.819   2.078   0.335 -0.0928  0.0459 -0.1370
  179SOL  HW1    536   1.864   2.112   0.418 -1.5221  1.2962  1.1651
  179SOL  HW2    537   1.773   1.987   0.356 -2.7301 -1.5787  0.2846
  180SOL  OW     538   2.284   1.393   0.874 -0.0778  0.1203 -0.2403
  180SOL  HW1    539   2.350   1.318   0.897  0.3759 -1.0077 -0.6141
  180SOL  HW2    540   2.232   1.368   0.788  0.1111  0.8056 -0.2244
  181SOL  OW     541   0.065   0.139   1.997 -0.0794 -0.6435  0.4276
  181SOL  HW1    542   0.080   0.239   1.977 -1.1207  1.6362  1.3993
  181SOL  HW2    543   0.100   0.076   1.928 -1.7213 -1.7476 -0.4326
  182SOL  OW     544   2.771   0.321   2.628  0.3627  0.0648 -0.2222
  182SOL  HW1    545   2.852   0.357   2.574 -1.8380 -1.6966 -1.4264
  182SOL  HW2    546   2.689   0.357   2.581  2.1564  0.0803 -1.2960
  183SOL  OW     547   1.364   2.924   1.704  0.3198  0.2941 -0.1210
  183SOL  HW1    548   1.433   2.863   1.662 -1.6323  1.8718  0.5046
  183SOL  HW2    549   1.336   2.891   1.792  0.0782  0.0512 -0.1409
  184SOL  OW     550   1.280   0.621   2.627 -0.6917  0.5528 -0.0441
  184SOL  HW1    551   1.200   0.636   2.685  1.4556 -1.8543 -0.2005
  184SOL  HW2    552   1.339   0.700   2.607 -1.4391 -0.2562 -1.4390
  185SOL  OW     553   2.557   1.109   0.658  0.1147 -0.5819  0.9270
  185SOL  HW1    554   2.650   1.062   0.645 -1.1193 -2.6857  0.8417
  185SOL  HW2    555   2.548   1.188   0.598 -0.8511 -1.6827  1.5244
  186SOL  OW     556   2.587   2.396   0.990  0.3068 -0.4653  1.1986
  186SOL  HW1    557   2.627   2.307   1.013 -1.8002  0.9614 -0.7949
  186SOL  HW2    558   2.565   2.440   1.080 -0.6050  1.3751 -0.3665
  187SOL  OW     559   2.668   1.070   2.271 -0.2253 -0.5951 -0.3019
  187SOL  HW1    560   2.761   1.113   2.264  3.4214  1.4532  0.4204
  187SOL  HW2    561   2.651   1.055   2.371 -0.8579  1.6618  2.2273
  188SOL  OW     562   1.277   0.950   0.142 -0.3090 -0.1152  0.2378
  188SOL  HW1    563   1.257   0.852   0.114 -0.9298  1.9084 -0.7969
  188SOL  HW2    564   1.373   0.979   0.120 -0.4364 -2.1687 -0.9499
  189SOL  OW     565   2.943   1.531   2.879 -0.5191 -0.0350  0.0061
  189SOL  HW1    566   2.870   1.568   2.936  0.0572 -0.4307  1.0317
  189SOL  HW2    567   2.907   1.472   2.807  1.7265  0.3822 -0.9224
  190SOL  OW     568   1.732   0.117   2.277 -0.1026 -0.0308 -0.4906
  190SOL  HW1    569   1.642   0.141   2.319 -0.4715  0.6981 -1.8420
  190SOL  HW2    570   1.765   0.186   2.208 -0.8733  1.6831  1.6291
  191SOL  OW     571   2.850   0.517   0.397  0.2068  0.1768 -0.0627
  191SOL  HW1    572   2.826   0.431   0.353  1.4027  0.5642 -2.9515
  191SOL  HW2    573   2.927   0.555   0.339  1.2898  0.2329 -0.7947
  192SOL  OW     574   1.850   0.171   2.728  0.2746 -0.0826  0.0960
  192SOL  HW1    575   1.758   0.218   2.746 -1.9239  3.3782 -0.9103
  192SOL  HW2    576   1.920   0.246   2.720  0.4642  0.5461  1.1952
  193SOL  OW     577   1.272   0.009   1.147 -0.5859  0.9464 -0.2979
  193SOL  HW1    578   1.206   3.029   1.125  1.0757  2.8566 -1.8177
  193SOL  HW2    579   1.347   3.062   1.200 -0.8085 -1.5784 -0.3555
  194SOL  OW     580   2.499   2.873   0.058  0.1516  0.3612  0.1017
  194SOL  HW1    581   2.513   2.823   0.146 -1.8899  1.4872 -0.9378
  194SOL  HW2    582   2.403   2.890   0.035  0.6495  2.2009 -0.2391
  195SOL  OW     583   1.925   2.854   0.189 -0.6443  0.1037  0.1180
  195SOL  HW1    584   1.832   2.809   0.190  1.9665  1.9699 -3.0986
  195SOL  HW2    585   1.969   2.819   0.101  1.3056 -3.1991  0.4265
  196SOL  OW     586   1.062   1.802   0.846  0.3830  0.7126  0.2243
  196SOL  HW1    587   1.124   1.844   0.915 -1.1049  0.1777  0.1499
  196SOL  HW2    588   1.116   1.761   0.770 -1.4736 -2.7582 -1.7525
  197SOL  OW     589   0.053   0.140   2.399 -0.3956  0.2474  0.0459
  197SOL  HW1    590   0.012   0.100   2.485 -0.3737 -1.2753  2.3766
  197SOL  HW2    591   3.069   0.178   2.346  0.7429 -1.7520 -0.5411
  198SOL  OW     592   3.020   0.986   2.108  0.2229 -0.0638 -0.4801
  198SOL  HW1    593   2.985   0.888   2.097  2.5937 -0.1264 -1.1853
  198SOL  HW2    594   3.004   1.036   2.197  1.1239  0.7510 -0.3313
  199SOL  OW     595   2.228   1.437   1.937 -0.4443 -0.1618 -0.1254
  199SOL  HW1    596   2.194   1.400   1.849 -1.3049  0.7868  0.6559
  199SOL  HW2    597   2.186   1.523   1.967  0.6969 -0.7519 -0.5823
  200SOL  OW     598   1.799   3.083   0.512  0.0908 -0.3228 -0.1136
  200SOL  HW1    599   1.829   3.091   0.415  1.9630 -0.6028  1.0071
  200SOL  HW2    600   1.875   3.093   0.576  0.6207  0.3370  1.0470
  201SOL  OW     601   2.212   0.652   0.017  0.1608  0.4423  0.0699
  201SOL  HW1    602   2.160   0.567   3.083  0.4901 -2.5386  1.4758
  201SOL  HW2    603   2.168   0.723   3.058 -2.0741 -3.0114 -0.8537
  202SOL  OW     604   0.709   0.224   0.545 -0.1617  0.4661  0.4744
  202SOL  HW1    605   0.741   0.206   0.640  0.7774 -0.0508  1.8160
  202SOL  HW2    606   0.679   0.138   0.499 -2.0465  2.9763 -0.2828
  203SOL  OW     607   1.506   0.886   1.382  0.3581  0.1347  0.5049
  203SOL  HW1    608   1.408   0.919   1.361 -0.8586 -1.5127  1.2976
  203SOL  HW2    609   1.502   0.786   1.384 -1.5791  0.3516  2.4100
  204SOL  OW     610   0.570   1.410   0.030  0.1630 -0.2536 -0.0449
  204SOL  HW1    611   0.478   1.440   3.090  0.5302 -0.2262 -0.3864
  204SOL  HW2    612   0.623   1.482   0.082 -1.7346  2.1256  0.3898
  205SOL  OW     613   0.755   0.488   0.672 -0.2940 -0.3007  0.3702
  205SOL  HW1    614   0.821   0.487   0.748  0.2202  1.0127  0.7327
  205SOL  HW2    615   0.773   0.413   0.605 -0.4242  0.0518 -3.7347
  206SOL  OW     616   0.299   2.944   2.891 -0.6731 -0.5331  0.2636
  206SOL  HW1    617   0.255   3.024   2.928  1.6936 -1.3304 -1.2433
  206SOL  HW2    618   0.259   2.929   2.795  1.1547  0.8873 -1.6222
  207SOL  OW     619   0.387   1.603   0.293  0.6971 -0.3422 -0.3132
  207SOL  HW1    620   0.480   1.612   0.336 -0.5921  0.5313 -0.5025
  207SOL  HW2    621   0.314   1.656   0.338  0.1201  0.3553  0.6361
  208SOL  OW     622   1.448   0.704   2.908 -0.1525  0.0077 -0.4243
  208SOL  HW1    623   1.478   0.804   2.907  1.3820  0.2156  2.1244
  208SOL  HW2    624   1.471   0.654   2.993  0.6816  0.8005 -0.6186
  209SOL  OW     625   2.114   1.092   1.452 -0.3250 -0.1753  0.5817
  209SOL  HW1    626   2.076   1.178   1.405  0.3096 -2.7248 -0.4069
  209SOL  HW2    627   2.099   1.013   1.390  1.4401  0.8613 -0.9528
  210SOL  OW     628   1.816   0.717   3.008  0.0768  0.4106  0.0589
  210SOL  HW1    629   1.808   0.735   2.907 -1.3160  1.0318 -1.9579
  210SOL  HW2    630   1.809   0.616   3.024  0.4511 -1.1277 -0.4366
  211SOL  OW     631   0.478   0.057   2.286 -0.9960  0.1559  0.3186
  211SOL  HW1    632   0.403   0.001   2.245  0.4735  0.0953  1.2550
  211SOL  HW2    633   0.475   0.048   2.386  3.1898  0.9157 -0.6975
  212SOL  OW     634   2.081   2.029   0.083  0.6811 -0.1587  0.1087
  212SOL  HW1    635   1.982   2.056   0.062 -2.3157  0.3508  2.6167
  212SOL  HW2    636   2.136   2.019   3.093 -2.3349  0.0324 -0.1672
  213SOL  OW     637   2.795   2.138   0.458 -0.1679 -0.3236 -0.5815
  213SOL  HW1    638   2.773   2.084   0.375  0.3644  1.6398  0.7515
  213SOL  HW2    639   2.716   2.201   0.478 -0.3282 -1.5676  1.2377
  214SOL  OW     640   1.846   1.993   1.694  0.5078 -0.2110  0.1012
  214SOL  HW1    641   1.759   1.949   1.713  2.3298  1.9820 -0.2895
  214SOL  HW2    642   1.922   1.935   1.737  0.4117  0.3338 -1.9547
  215SOL  OW     643   0.199   1.239   0.071 -0.2372  0.4453  0.6143
  215SOL  HW1    644   0.231   1.286   3.088 -1.8138 -0.2647 -0.4360
  215SOL  HW2    645   0.229   1.282   0.157 -1.0290  0.4394  0.4963
  216SOL  OW     646   0.631   0.856   2.585 -0.4856 -0.5318 -0.1523
  216SOL  HW1    647   0.577   0.869   2.502  0.2728 -0.7939  2.4085
  216SOL  HW2    648   0.576   0.880   2.664 -0.3554  3.7757 -3.6300
  217SOL  OW     649   0.779   0.861   1.787  0.6302  0.4646  0.7711
  217SOL  HW1    650   0.875   0.880   1.805 -1.9196 -0.1856  0.1460
  217SOL  HW2    651   0.738   0.803   1.860 -1.8204  0.0084  0.1926
  218SOL  OW     652   1.825   1.910   2.417  0.5331  0.4113  0.1789
  218SOL  HW1    653   1.845   1.937   2.513 -0.5795 -2.8335  1.5298
  218SOL  HW2    654   1.726   1.879   2.412 -1.1955 -0.8762  0.4873
  219SOL  OW     655   2.707   2.090   0.026 -0.0258 -0.2979 -0.2876
  219SOL  HW1    656   2.784   2.158   0.009 -1.1175 -0.7060 -0.5167
  219SOL  HW2    657   2.671   2.056   3.031  2.2014 -0.0296 -1.1895
  220SOL  OW     658   1.495   0.577   0.063 -0.3147 -0.5080 -0.2040
  220SOL  HW1    659   1.580   0.622   0.096 -0.8221 -1.3378 -0.6577
  220SOL  HW2    660   1.468   0.495   0.114 -1.0071  1.2386  0.1350
  221SOL  OW     661   2.771   0.954   0.659 -0.0874 -0.3221  0.3241
  221SOL  HW1    662   2.842   0.985   0.729 -2.0951  0.2888  0.4516
  221SOL  HW2    663   2.736   0.863   0.689 -0.2678  2.2647  0.0494
  222SOL  OW     664   2.793   2.185   2.219 -0.4844 -0.1308  0.4118
  222SOL  HW1    665   2.726   2.166   2.149  0.7670  3.1290  0.7095
  222SOL  HW2    666   2.742   2.203   2.306 -0.8276  1.0615  0.0591
  223SOL  OW     667   0.781   2.864   0.241  0.4038  0.1066 -0.3267
  223SOL  HW1    668   0.800   2.965   0.250 -1.3388 -4.1324  1.8054
  223SOL  HW2    669   0.854   2.824   0.178  0.9690  1.8105  1.9935
  224SOL  OW     670   0.858   2.141   1.145  0.1982  0.3046  0.0085
  224SOL  HW1    671   0.874   2.227   1.198 -1.8386  0.1463 -0.1266
  224SOL  HW2    672   0.809   2.162   1.059  1.3432 -0.6038  2.1393
  225SOL  OW     673   0.871   0.595   2.177  0.0049  0.3868  0.4764
  225SOL  HW1    674   0.942   0.644   2.234 -3.4606 -0.2589 -1.4161
  225SOL  HW2    675   0.818   0.532   2.237  1.1427  1.0033  2.0442
  226SOL  OW     676   0.267   1.449   1.143 -0.0834 -0.3535 -0.2607
  226SOL  HW1    677   0.343   1.491   1.201 -0.4300 -0.2459  1.2990
  226SOL  HW2    678   0.192   1.516   1.147  0.4381 -0.7324  0.1085
  227SOL  OW     679   3.083   2.056   1.573  0.2517  0.6543  0.2752
  227SOL  HW1    680   3.026   2.056   1.487 -1.5333  1.8071 -1.3445
  227SOL  HW2    681   0.064   1.991   1.567 -1.5233  2.8013  1.8131
  228SOL  OW     682   1.525   2.207   0.060  0.0015 -0.2382  0.0395
  228SOL  HW1    683   1.444   2.218   0.004 -1.8502 -1.2629 -0.8074
  228SOL  HW2    684   1.572   2.300   0.074 -0.2697  3.1967  1.4570
  229SOL  OW     685   2.455   0.324   2.345  0.0478 -0.6025  0.2648
  229SOL  HW1    686   2.505   0.257   2.287 -0.9400  0.1875 -0.5052
  229SOL  HW2    687   2.517   0.392   2.393  4.0787 -0.3743  2.0812
  230SOL  OW     688   2.411   0.893   2.596  0.4318 -0.1337 -0.3003
  230SOL  HW1    689   2.378   0.917   2.690  0.8365 -1.2896 -0.9161
  230SOL  HW2    690   2.334   0.903   2.533 -0.9754 -1.7566 -0.6316
  231SOL  OW     691   2.131   2.475   3.021  0.0179 -0.0927 -0.4159
  231SOL  HW1    692   2.062   2.405   2.996 -1.3535  0.2910  0.4571
  231SOL  HW2    693   2.197   2.480   2.943 -0.7979 -0.7683  0.3168
  232SOL  OW     694   2.174   1.631   0.924 -0.5126  0.2435  0.1684
  232SOL  HW1    695   2.242   1.709   0.901 -0.0910  2.3254 -1.9284
  232SOL  HW2    696   2.217   1.539   0.914  0.3065 -0.1042  0.2449
  233SOL  OW     697   2.074   0.860   1.282 -0.8195 -0.3908  0.0453
  233SOL  HW1    698   2.006   0.789   1.253  0.5388  1.5703 -0.7673
  233SOL  HW2    699   2.167   0.820   1.307  2.3735  1.8462  3.8119
  234SOL  OW     700   0.865   1.240   2.404  0.6359 -0.1912 -0.1241
  234SOL  HW1    701   0.944   1.187   2.372  0.0748  1.8401 -0.8178
  234SOL  HW2    702   0.895   1.337   2.417  0.9956 -1.3486 -1.4638
  235SOL  OW     703   0.212   0.789   1.937 -0.6886  0.1922 -0.2735
  235SOL  HW1    704   0.151   0.728   1.985 -0.2567  0.3213 -1.7648
  235SOL  HW2    705   0.195   0.793   1.839 -2.3141 -1.6769 -0.8050
  236SOL  OW     706   1.229   0.691   0.084 -0.2858  0.3287  0.4358
  236SOL  HW1    707   1.154   0.661   0.143 -0.2152 -0.8841  0.2604
  236SOL  HW2    708   1.315   0.637   0.094  1.3968 -1.4797 -0.4920
  237SOL  OW     709   0.605   1.808   2.927 -0.1382  0.2034 -0.1221
  237SOL  HW1    710   0.522   1.796   2.986 -2.0893  0.7350  1.2909
  237SOL  HW2    711   0.642   1.715   2.914 -1.1736  0.7207  0.9292
  238SOL  OW     712   1.751   1.617   2.077 -0.0662 -0.0140 -0.2786
  238SOL  HW1    713   1.712   1.551   2.146  0.6943 -1.7790  0.7710
  238SOL  HW2    714   1.775   1.574   1.990 -0.7603  1.6738 -0.2201
  239SOL  OW     715   0.175   1.671   0.444  0.1666  0.0643  0.6058
  239SOL  HW1    716   0.086   1.676   0.497 -0.4274  0.0540  2.4416
  239SOL  HW2    717   0.247   1.656   0.514  0.8272  1.8172 -1.5515
  240SOL  OW     718   0.675   3.085   0.411  0.7890 -0.5479 -0.0939
  240SOL  HW1    719   0.615   3.006   0.431 -0.2828  0.6088 -1.4774
  240SOL  HW2    720   0.649   0.030   0.320 -0.5192 -1.9027  1.1890
  241SOL  OW     721   0.186   0.506   2.997 -0.0182  0.1838  0.4925
  241SOL  HW1    722   0.106   0.556   2.965 -1.6073 -1.1781  2.9228
  241SOL  HW2    723   0.237   0.546   3.077  0.8363  0.8025  0.4887
  242SOL  OW     724   1.905   0.026   0.267 -0.1389  0.3149  0.1214
  242SOL  HW1    725   1.931   3.029   0.233  2.3097 -2.3780 -0.0489
  242SOL  HW2    726   1.971   0.098   0.247  0.3134 -0.7025 -3.5582
  243SOL  OW     727   1.480   0.481   2.470  0.3422 -0.2620 -0.5206
  243SOL  HW1    728   1.442   0.491   2.377  0.3157  0.1916 -1.8275
  243SOL  HW2    729   1.414   0.518   2.541 -0.3273 -0.0223 -0.0321
  244SOL  OW     730   2.167   0.049   2.957 -0.0382  0.0131  0.1427
  244SOL  HW1    731   2.067   0.033   2.952 -0.0798 -1.3149 -0.8511
  244SOL  HW2    732   2.187   0.132   3.011  1.6858 -0.7889 -0.6030
  245SOL  OW     733   2.189   0.156   0.503  0.3754 -0.1570 -0.0318
  245SOL  HW1    734   2.200   0.254   0.471  0.0756  2.1090 -0.4960
  245SOL  HW2    735   2.212   0.088   0.429 -1.0565 -3.1724 -0.7112
  246SOL  OW     736   1.927   0.068   2.466 -0.4135  0.1223 -0.5527
  246SOL  HW1    737   1.888   0.092   2.558 -0.1353 -0.7914 -0.2475
  246SOL  HW2    738   1.878   0.106   2.389  1.4845 -0.9863  1.6090
  247SOL  OW     739   1.434   0.830   2.581  0.1554  0.3084 -1.2289
  247SOL  HW1    740   1.506   0.866   2.522 -2.5657  1.3288 -0.2263
  247SOL  HW2    741   1.366   0.903   2.601  0.6294  0.4422 -1.8477
  248SOL  OW     742   2.633   2.839   1.517  0.4021  0.3478 -0.2952
  248SOL  HW1    743   2.656   2.801   1.427 -0.9427 -0.9343  2.3047
  248SOL  HW2    744   2.719   2.846   1.571  0.7228  1.0811  1.8438
  249SOL  OW     745   0.331   0.228   0.251 -0.2004 -0.2678 -0.3837
  249SOL  HW1    746   0.286   0.137   0.273 -2.0462 -0.7073 -0.8206
  249SOL  HW2    747   0.368   0.273   0.332 -1.1426 -1.4734 -0.2457
  250SOL  OW     748   1.424   0.570   2.221 -0.4839  0.5764 -0.2206
  250SOL  HW1    749   1.433   0.674   2.207 -0.4364 -0.0906 -3.8288
  250SOL  HW2    750   1.443   0.513   2.138 -0.6569 -2.1813  0.3597
  251SOL  OW     751   1.026   0.381   0.125  0.0840 -0.1698  0.1406
  251SOL  HW1    752   0.988   0.432   0.046  2.9504  0.7389  1.6981
  251SOL  HW2    753   0.959   0.380   0.205 -2.2922  2.3955  1.5166
  252SOL  OW     754   1.245   1.000   1.335 -0.4917 -0.1003 -0.1165
  252SOL  HW1    755   1.188   0.973   1.414  1.2999  2.6184 -2.9727
  252SOL  HW2    756   1.198   0.966   1.252 -2.4364 -3.3090  3.0100
  253SOL  OW     757   3.041   0.374   0.770  0.4036 -0.1140  0.2355
  253SOL  HW1    758   0.022   0.409   0.819 -1.6655 -1.0823 -1.7156
  253SOL  HW2    759   2.986   0.447   0.722 -1.9222  0.4349  1.1717
  254SOL  OW     760   2.471   1.178   2.099  0.4038 -0.4322 -0.0512
  254SOL  HW1    761   2.544   1.147   2.160 -0.0657  3.4004  0.3552
  254SOL  HW2    762   2.498   1.261   2.043 -1.1925  1.2781  0.8498
  255SOL  OW     763   1.290   1.923   1.574  0.4223  0.3104  0.4273
  255SOL  HW1    764   1.214   1.968   1.626 -0.3950 -0.4123  0.7815
  255SOL  HW2    765   1.324   1.840   1.620  3.5308 -1.8568 -0.0019
  256SOL  OW     766   1.435   2.425   1.678 -0.2559 -0.3925  0.2453
  256SOL  HW1    767   1.458   2.508   1.735  1.5719  1.1003  2.2786
  256SOL  HW2    768   1.330   2.409   1.669 -2.7325  0.7753 -2.0010
  257SOL  OW     769   0.632   1.898   1.475  0.2887  0.0985  0.1990
  257SOL  HW1    770   0.678   1.886   1.561 -1.0516 -1.7209 -1.7587
  257SOL  HW2    771   0.704   1.892   1.399 -0.7915  0.1864 -3.6185
  258SOL  OW     772   2.420   2.976   2.373 -0.2515  0.5920 -0.8843
  258SOL  HW1    773   2.407   2.932   2.468 -0.7587 -0.9144  2.5526
  258SOL  HW2    774   2.348   3.043   2.356  3.0560  0.0895  1.1298
  259SOL  OW     775   0.894   0.071   2.628  0.7820 -0.2772  0.3952
  259SOL  HW1    776   0.806   0.018   2.639  0.4313 -0.7028 -2.2823
  259SOL  HW2    777   0.882   0.171   2.643  1.5973  0.7622 -1.7465
  260SOL  OW     778   1.184   1.594   0.717  0.3347 -0.1036  0.3923
  260SOL  HW1    779   1.191   1.524   0.792 -1.2738 -0.6775  0.2845
  260SOL  HW2    780   1.275   1.643   0.698 -2.4791  1.1115  0.1884
  261SOL  OW     781   1.296   0.177   2.164 -0.0002  0.0478 -0.3661
  261SOL  HW1    782   1.379   0.195   2.224  2.9262  1.2769  2.2563
  261SOL  HW2    783   1.325   0.203   2.071 -1.8002  2.6221  0.4310
  262SOL  OW     784   3.065   2.474   2.360  0.7072  0.3158 -0.1558
  262SOL  HW1    785   0.011   2.400   2.416 -1.0174 -2.9866  1.0962
  262SOL  HW2    786   3.018   2.439   2.272 -0.4564  0.9357  2.3042
  263SOL  OW     787   2.125   1.441   0.285  0.3797 -0.2705  0.2106
  263SOL  HW1    788   2.160   1.347   0.272 -0.0528 -1.2331 -0.4541
  263SOL  HW2    789   2.149   1.473   0.378  0.8591 -0.4421 -1.5488
  264SOL  OW     790   1.513   2.600   1.904 -0.1447  0.1213 -0.1270
  264SOL  HW1    791   1.544   2.524   1.965 -1.6168 -0.5641  0.1267
  264SOL  HW2    792   1.498   2.681   1.959  0.0221 -1.8770 -2.9751
  265SOL  OW     793   1.366   0.095   1.704  0.6564  0.3825 -0.1471
  265SOL  HW1    794   1.364   3.090   1.708 -1.6451  0.2613  0.2894
  265SOL  HW2    795   1.383   0.128   1.607 -0.6616  2.1419 -0.3694
  266SOL  OW     796   2.531   2.941   0.688 -0.2657  0.2666  0.3327
  266SOL  HW1    797   2.477   2.927   0.600 -0.9209 -2.2990 -1.1640
  266SOL  HW2    798   2.594   2.866   0.693 -0.6797  2.1255  0.1642
  267SOL  OW     799   0.135   2.141   0.276 -0.4247 -0.2045  0.0176
  267SOL  HW1    800   0.052   2.106   0.323 -0.6320  1.9425  0.7469
  267SOL  HW2    801   0.220   2.144   0.336  0.9693 -1.4765  1.0869
  268SOL  OW     802   1.925   2.818   2.820  0.5540  0.0737 -0.5170
  268SOL  HW1    803   1.967   2.863   2.738  0.2326 -1.1930  3.3385
  268SOL  HW2    804   1.887   2.730   2.791  1.5640  2.5768  0.2919
  269SOL  OW     805   2.040   0.443   2.926 -0.4229  0.3018  0.3735
  269SOL  HW1    806   2.033   0.424   2.827 -2.3283  0.1338 -1.0303
  269SOL  HW2    807   1.952   0.419   2.972  0.7312 -1.6173  1.2960
  270SOL  OW     808   2.037   2.198   0.853 -0.3967  0.6182  0.0088
  270SOL  HW1    809   2.081   2.219   0.943  1.4965 -2.1516 -0.9388
  270SOL  HW2    810   2.107   2.219   0.784 -2.1137 -0.7297 -2.6479
  271SOL  OW     811   0.387   2.194   2.366  0.2082  0.1932  0.4990
  271SOL  HW1    812   0.421   2.131   2.437 -2.0759  0.2750 -3.2447
  271SOL  HW2    813   0.305   2.154   2.322 -1.7049  0.4147  0.7129
  272SOL  OW     814   0.844   1.193   2.806 -0.4689 -0.9382  0.2428
  272SOL  HW1    815   0.834   1.155   2.717  1.4781  0.0031  0.5641
  272SOL  HW2    816   0.755   1.210   2.850  2.0154  1.3029  1.6207
  273SOL  OW     817   0.857   2.237   2.173  0.2052 -0.5255 -0.2560
  273SOL  HW1    818   0.792   2.181   2.124  0.8267  0.4157  0.6895
  273SOL  HW2    819   0.811   2.323   2.214 -0.8468 -1.4627 -0.5128
  274SOL  OW     820   0.447   1.292   1.009  0.5315  0.4765  0.7497
  274SOL  HW1    821   0.489   1.227   1.078  0.8970 -0.2736  1.3180
  274SOL  HW2    822   0.369   1.347   1.051  1.1078  0.8450 -1.7788
  275SOL  OW     823   1.694   2.187   2.622  0.3630  0.6245 -0.3048
  275SOL  HW1    824   1.640   2.265   2.585  0.2729 -0.6738  1.0582
  275SOL  HW2    825   1.642   2.100   2.619 -0.2130  0.0464  0.6951
  276SOL  OW     826   0.217   1.238   1.758  0.3915 -0.4004 -0.2591
  276SOL  HW1    827   0.217   1.332   1.712 -2.9642  5.9032 -0.7998
  276SOL  HW2    828   0.306   1.211   1.801  4.2240 -3.1311 -1.2630
  277SOL  OW     829   2.906   2.239   3.038  0.4537  0.1389 -0.1235
  277SOL  HW1    830   2.892   2.281   2.945 -0.3904 -0.9741 -1.4642
  277SOL  HW2    831   2.901   2.309   0.015  0.4507 -2.5654 -1.3430
  278SOL  OW     832   2.119   2.950   2.137 -0.6818 -0.1555  0.2030
  278SOL  HW1    833   2.128   3.018   2.212 -1.3342 -2.0538  0.1803
  278SOL  HW2    834   2.135   2.854   2.172 -0.8531 -2.1805  1.3665
  279SOL  OW     835   0.854   2.732   1.889  0.2204  0.4989 -0.4004
  279SOL  HW1    836   0.895   2.638   1.897 -1.8376 -0.9514  0.5738
  279SOL  HW2    837   0.845   2.779   1.979  1.7722  0.9212  0.5681
  280SOL  OW     838   0.117   1.318   0.517  0.2416  0.0138  0.4685
  280SOL  HW1    839   0.032   1.266   0.505  2.3401  0.6290  0.6008
  280SOL  HW2    840   0.186   1.262   0.567  3.9257 -0.1551  2.3750
  281SOL  OW     841   1.560   2.241   0.333  0.0999 -0.2129  0.3800
  281SOL  HW1    842   1.657   2.220   0.358 -3.2062 -1.1455  1.4459
  281SOL  HW2    843   1.541   2.220   0.237  2.1213 -2.7583  0.8823
  282SOL  OW     844   2.130   1.658   2.411  0.3899 -0.1839  0.1295
  282SOL  HW1    845   2.211   1.726   2.407  0.4834  1.4948 -1.0490
  282SOL  HW2    846   2.055   1.687   2.351  0.7724 -1.3021 -1.5219
  283SOL  OW     847   0.558   1.146   0.566  0.0229  0.0478  0.0211
  283SOL  HW1    848   0.527   1.072   0.628 -0.9261  2.2415  0.6627
  283SOL  HW2    849   0.523   1.139   0.474  1.9524  1.8365 -2.4574
  284SOL  OW     850   1.065   2.174   0.797 -0.0634  0.5905  0.2667
  284SOL  HW1    851   1.042   2.127   0.710  0.6473  1.7690 -0.7969
  284SOL  HW2    852   1.044   2.275   0.790  1.1709  0.2412 -1.1713
  285SOL  OW     853   0.688   2.466   0.098 -0.0627 -0.1352  0.2752
  285SOL  HW1    854   0.645   2.532   0.164 -1.0546 -0.0862  2.1851
  285SOL  HW2    855   0.725   2.517   0.011  1.8555 -0.5630  0.0178
  286SOL  OW     856   1.210   1.488   2.544 -0.0046 -0.1272 -0.1201
  286SOL  HW1    857   1.247   1.556   2.483 -0.1758 -3.8403  2.6936
  286SOL  HW2    858   1.109   1.495   2.552 -0.3510 -2.3280  1.0953
  287SOL  OW     859   2.469   2.177   2.945 -0.1805 -0.3740  0.3840
  287SOL  HW1    860   2.492   2.243   2.871  0.5752  1.5113 -1.1630
  287SOL  HW2    861   2.488   2.218   3.038  0.3283  0.0147  1.3749
  288SOL  OW     862   0.114   0.299   0.560 -0.6938 -0.3551  0.4879
  288SOL  HW1    863   0.036   0.319   0.626  1.1185  0.3281  0.2514
  288SOL  HW2    864   0.076   0.246   0.484 -1.4783  1.4139  0.6918
  289SOL  OW     865   1.329   2.701   1.015 -0.1065  0.4636 -0.2100
  289SOL  HW1    866   1.352   2.708   0.919 -1.5131  2.4186  0.8934
  289SOL  HW2    867   1.405   2.668   1.074 -0.5636  0.9093  0.7628
  290SOL  OW     868   0.946   1.464   0.154  0.3051  0.0382  0.3085
  290SOL  HW1    869   0.947   1.440   0.054 -0.3584 -1.7208  0.8734
  290SOL  HW2    870   1.034   1.503   0.185  0.1061  0.1082 -1.5087
  291SOL  OW     871   2.412   0.348   2.800  0.2077 -0.0125  0.3940
  291SOL  HW1    872   2.482   0.282   2.827 -0.0975  1.4349 -0.3918
  291SOL  HW2    873   2.361   0.315   2.716  1.0656 -2.0278  0.7491
  292SOL  OW     874   2.275   0.484   0.850  0.4573 -0.2243 -0.2011
  292SOL  HW1    875   2.290   0.383   0.839  0.8971  1.1146  0.5192
  292SOL  HW2    876   2.195   0.518   0.797 -4.5452  0.0487 -3.7429
  293SOL  OW     877   1.771   1.717   0.095  0.3676  0.3809 -0.2854
  293SOL  HW1    878   1.717   1.799   0.072  1.7610 -0.7952 -0.0628
  293SOL  HW2    879   1.718   1.633   0.072  0.0093  1.5704 -0.2555
  294SOL  OW     880   0.670   0.547   2.915 -0.4426 -0.2767 -0.0232
  294SOL  HW1    881   0.636   0.595   2.992 -0.1814 -1.6664 -0.8037
  294SOL  HW2    882   0.617   0.463   2.900  3.2225 -0.6866  0.9612
  295SOL  OW     883   1.653   1.472   0.085  0.1635 -0.2144  0.3118
  295SOL  HW1    884   1.734   1.432   0.137  0.0514  0.9246 -1.3404
  295SOL  HW2    885   1.574   1.410   0.090  1.4346  1.0081  1.6318
  296SOL  OW     886   1.077   1.298   1.274 -0.1169 -0.2812  0.3819
  296SOL  HW1    887   1.180   1.296   1.275  1.4636  2.5485 -0.9045
  296SOL  HW2    888   1.049   1.377   1.216 -1.2888 -0.1333  1.3935
  297SOL  OW     889   0.400   0.004   2.564 -0.6187  0.1452 -0.3087
  297SOL  HW1    890   0.394   0.089   2.623  1.4077  1.0818  1.7808
  297SOL  HW2    891   0.329   3.029   2.586  1.5882  1.5462 -0.7550
  298SOL  OW     892   0.492   0.409   2.451 -0.0486 -0.0562  0.2570
  298SOL  HW1    893   0.412   0.364   2.404 -1.0402  2.0207  1.8244
  298SOL  HW2    894   0.486   0.510   2.450  0.6511  0.3206 -0.9347
  299SOL  OW     895   1.147   0.050   2.714 -0.5156 -0.0381  0.2273
  299SOL  HW1    896   1.051   0.033   2.698  1.1589  0.2054 -1.2142
  299SOL  HW2    897   1.170   0.144   2.679  0.6665  1.7630  1.2960
  300SOL  OW     898   1.519   0.284   1.028 -0.9186  0.2848  0.1719
  300SOL  HW1    899   1.533   0.191   1.065  0.3872  1.7134 -0.6481
  300SOL  HW2    900   1.469   0.343   1.089  3.8395 -1.4026 -4.1659
  301SOL  OW     901   1.687   0.174   0.142  0.5325 -0.0452 -0.0437
  301SOL  HW1    902   1.630   0.116   0.080 -0.9288  0.8484  0.2968
  301SOL  HW2    903   1.762   0.123   0.185 -0.2168  0.3189 -1.1243
  302SOL  OW     904   0.785   2.756   2.606 -0.8298 -0.1789 -0.4363
  302SOL  HW1    905   0.753   2.850   2.627 -0.2732  0.2570 -0.8512
  302SOL  HW2    906   0.732   2.720   2.532  2.5506 -0.5331  0.4013
  303SOL  OW     907   1.811   2.741   1.385  0.0630 -0.2186 -0.3854
  303SOL  HW1    908   1.862   2.649   1.391 -0.2516 -1.8586  0.8364
  303SOL  HW2    909   1.709   2.722   1.389 -1.9436  0.6987  1.3509
  304SOL  OW     910   1.173   1.009   0.610  0.0012 -0.2002  0.0699
  304SOL  HW1    911   1.101   1.014   0.539  0.5767 -1.4583  2.1482
  304SOL  HW2    912   1.197   0.911   0.630 -0.4202  0.2316  0.8553
  305SOL  OW     913   0.863   2.314   2.551 -0.0875 -0.1644 -0.5845
  305SOL  HW1    914   0.922   2.241   2.597  2.6048  0.5241  0.4036
  305SOL  HW2    915   0.908   2.406   2.540 -2.6300 -1.7828  2.1306
  306SOL  OW     916   1.007   2.041   0.528  0.0490 -0.0255 -0.3288
  306SOL  HW1    917   1.109   2.019   0.514  1.3717  0.0846  0.6782
  306SOL  HW2    918   0.959   1.953   0.524  0.4247 -0.9859 -0.6479
  307SOL  OW     919   2.850   1.181   1.456 -0.0001 -0.7360  0.3579
  307SOL  HW1    920   2.945   1.209   1.435 -0.0126 -0.1271 -0.1270
  307SOL  HW2    921   2.798   1.174   1.368  1.1040  0.6527  1.3056
  308SOL  OW     922   0.311   0.526   0.140 -0.4011  0.2198 -0.3812
  308SOL  HW1    923   0.309   0.522   0.241 -1.2962 -0.1500 -1.3816
  308SOL  HW2    924   0.408   0.536   0.106  1.4059  1.8720 -0.7633
  309SOL  OW     925   2.608   0.503   2.481  0.0089  0.0295  0.1419
  309SOL  HW1    926   2.556   0.529   2.567 -0.4123 -0.5708  2.3617
  309SOL  HW2    927   2.690   0.559   2.473 -2.9643 -0.0693  0.7702
  310SOL  OW     928   1.196   2.231   2.743 -0.1020 -0.0668  0.2166
  310SOL  HW1    929   1.105   2.233   2.792  0.6742 -0.3254 -0.2013
  310SOL  HW2    930   1.271   2.204   2.805 -2.0087  1.0644 -1.8514
  311SOL  OW     931   1.313   2.527   0.168 -0.0351 -0.4071  0.1202
  311SOL  HW1    932   1.322   2.625   0.195 -1.2033 -0.1585  0.2081
  311SOL  HW2    933   1.265   2.482   0.246  0.3618 -1.7530 -1.2322
  312SOL  OW     934   2.489   2.688   0.280 -0.7070 -0.3309 -0.5410
  312SOL  HW1    935   2.567   2.649   0.333 -0.0857  2.1042 -3.0621
  312SOL  HW2    936   2.413   2.617   0.251 -1.8166 -2.1601  1.8551
  313SOL  OW     937   0.645   0.742   0.350 -0.2075 -0.2680  0.1543
  313SOL  HW1    938   0.666   0.649   0.319 -0.1644  0.9184 -1.0673
  313SOL  HW2    939   0.695   0.807   0.290 -1.4569  1.6828  0.1143
  314SOL  OW     940   0.154   0.911   2.411  0.1684  0.0627 -0.2238
  314SOL  HW1    941   0.168   0.814   2.385 -0.5214 -0.2071  0.8008
  314SOL  HW2    942   0.158   0.973   2.327  0.0396  1.6345 -0.3417
  315SOL  OW     943   0.079   0.402   1.916  0.3626 -0.1941  0.0260
  315SOL  HW1    944   0.079   0.484   1.979 -0.8002 -2.1855 -1.6309
  315SOL  HW2    945   0.033   0.428   1.832 -1.6119  0.9825 -0.3935
  316SOL  OW     946   0.050   0.816   0.890 -0.0202 -0.1233  0.1045
  316SOL  HW1    947   0.022   0.819   0.793 -0.0881  1.3060  2.0054
  316SOL  HW2    948   0.077   0.916   0.912  2.2333  1.3046 -1.6652
  317SOL  OW     949   0.613   0.895   0.947 -0.0164  0.2676 -0.0119
  317SOL  HW1    950   0.701   0.867   0.907 -2.7928 -1.2365  2.6558
  317SOL  HW2    951   0.581   0.825   1.015 -2.6340 -0.8217  1.6740
  318SOL  OW     952   0.227   2.347   1.471 -0.4898 -0.4831 -0.1038
  318SOL  HW1    953   0.303   2.406   1.506 -0.7978 -1.4891 -0.5794
  318SOL  HW2    954   0.159   2.341   1.548 -1.4366  0.3868 -0.9306
  319SOL  OW     955   1.764   1.493   2.413  0.1644  0.1632  0.0835
  319SOL  HW1    956   1.860   1.472   2.397 -1.4720  1.8766  2.1523
  319SOL  HW2    957   1.708   1.457   2.338  2.1860  0.3125 -0.5557
  320SOL  OW     958   1.559   1.531   0.511  0.2354 -0.1800  0.0782
  320SOL  HW1    959   1.657   1.556   0.509  0.0264  0.4933 -0.2098
  320SOL  HW2    960   1.502   1.586   0.571  0.7546 -0.5518 -0.7637
  321SOL  OW     961   2.907   2.184   2.595  0.4875  0.0175  0.3068
  321SOL  HW1    962   2.996   2.195   2.547 -3.2308 -0.5421 -0.0797
  321SOL  HW2    963   2.903   2.105   2.663  2.3875 -0.3989  0.6333
  322SOL  OW     964   0.471   1.989   2.774 -0.0607 -0.0942 -0.1755
  322SOL  HW1    965   0.499   2.078   2.812  0.1056 -4.1636 -0.2906
  322SOL  HW2    966   0.506   1.911   2.827 -1.6580  1.2853  3.5233
  323SOL  OW     967   2.540   0.277   0.749  0.3819 -0.3394 -0.3097
  323SOL  HW1    968   2.596   0.204   0.704 -1.0036 -0.8440  1.9140
  323SOL  HW2    969   2.441   0.258   0.759  0.3136  2.4002 -0.3523
  324SOL  OW     970   0.741   1.574   2.376 -0.2393  0.2385 -0.1308
  324SOL  HW1    971   0.705   1.533   2.292 -0.2034  1.1331 -2.1736
  324SOL  HW2    972   0.746   1.675   2.357  0.5311 -1.5185  1.1232
  325SOL  OW     973   0.877   0.379   2.632  0.2571 -0.4298  0.1005
  325SOL  HW1    974   0.936   0.399   2.555 -1.6781 -0.6839  3.5061
  325SOL  HW2    975   0.815   0.460   2.645 -3.8489 -0.5540  1.6409
  326SOL  OW     976   0.789   2.852   1.094 -0.1182 -0.2378  0.2734
  326SOL  HW1    977   0.852   2.848   1.175 -2.0831 -0.7667 -0.6762
  326SOL  HW2    978   0.820   2.789   1.022 -1.7440  1.2510  0.9261
  327SOL  OW     979   1.035   2.844   2.722  0.8968  0.2495  0.0257
  327SOL  HW1    980   0.960   2.822   2.659 -3.1025 -0.9793  0.0448
  327SOL  HW2    981   1.126   2.825   2.678 -0.5558 -0.4266 -0.4738
  328SOL  OW     982   1.503   1.812   0.202 -0.2326 -0.4433 -0.3039
  328SOL  HW1    983   1.536   1.869   0.125  1.2761  1.4772 -0.1496
  328SOL  HW2    984   1.400   1.816   0.213 -1.2938  0.8699  1.3130
  329SOL  OW     985   1.418   0.195   1.465 -0.4860  0.2761 -0.1365
  329SOL  HW1    986   1.348   0.224   1.401  2.3235 -1.2540  1.6615
  329SOL  HW2    987   1.509   0.227   1.440 -0.9087  0.7238 -0.2729
  330SOL  OW     988   0.889   0.115   3.016  0.3704 -0.1797  0.3846
  330SOL  HW1    989   0.937   0.180   2.957 -0.3942 -1.9778  0.3123
  330SOL  HW2    990   0.886   0.017   2.980  0.0571 -1.3810 -1.0671
  331SOL  OW     991   2.408   1.738   2.119 -0.4266 -0.2388 -0.5438
  331SOL  HW1    992   2.421   1.790   2.206  1.0518 -1.7505 -0.5823
  331SOL  HW2    993   2.476   1.661   2.120  1.5862  1.3859  1.2261
  332SOL  OW     994   1.645   1.878   2.026 -0.0714 -0.0140  0.5774
  332SOL  HW1    995   1.672   1.779   2.050  1.3738 -4.2359  0.1546
  332SOL  HW2    996   1.638   1.899   1.923 -2.3555 -1.1170 -0.2388
  333SOL  OW     997   0.566   0.090   1.313  0.3655 -0.2757  0.4022
  333SOL  HW1    998   0.563   0.166   1.382 -2.5918 -1.1680  0.3219
  333SOL  HW2    999   0.566   0.133   1.215 -1.1925  3.2684 -2.6470
  334SOL  OW    1000   1.890   1.630   1.623 -0.0920  0.4586 -0.3219
  334SOL  HW1   1001   1.939   1.681   1.695  1.0802 -0.1440 -1.3269
  334SOL  HW2   1002   1.956   1.573   1.569 -1.1747  0.6203 -1.1794
  335SOL  OW    1003   1.115   1.662   1.993  0.8316 -0.0269 -0.3589
  335SOL  HW1   1004   1.106   1.614   2.081  1.5103 -1.0056  1.1892
  335SOL  HW2   1005   1.191   1.724   1.995 -0.1479 -2.5074 -0.4518
  336SOL  OW    1006   0.267   2.898   1.169  0.1293 -0.2771 -0.6491
  336SOL  HW1   1007   0.366   2.907   1.185  0.0600 -0.1963  1.7479
  336SOL  HW2   1008   0.222   2.986   1.147  2.0440 -0.3824 -0.0004
  337SOL  OW    1009   0.886   1.629   2.778 -0.3527 -0.4885 -0.4126
  337SOL  HW1   1010   0.912   1.726   2.809  0.6385  4.7901  0.6336
  337SOL  HW2   1011   0.786   1.615   2.796  0.3456  0.7825  0.0618
  338SOL  OW    1012   2.825   0.299   2.889 -0.1632  0.6059 -0.1589
  338SOL  HW1   1013   2.743   0.254   2.925 -0.0120  0.9606 -2.4498
  338SOL  HW2   1014   2.798   0.319   2.794  0.8471 -0.8891  3.2108
  339SOL  OW    1015   2.710   1.012   3.047 -0.2401  0.0454 -0.4752
  339SOL  HW1   1016   2.690   1.085   2.981 -2.0721  0.4405 -2.1155
  339SOL  HW2   1017   2.678   1.048   0.043  0.6390 -0.4532 -0.0070
  340SOL  OW    1018   2.704   2.687   1.283  0.2574 -0.0482 -0.5418
  340SOL  HW1   1019   2.630   2.622   1.250 -1.7515  1.5017  1.2417
  340SOL  HW2   1020   2.790   2.639   1.314  0.5076  1.0526  2.6069
  341SOL  OW    1021   1.293   1.679   1.151 -0.1803  0.0290 -0.2233
  341SOL  HW1   1022   1.310   1.592   1.100 -4.6907  0.7297  0.8224
  341SOL  HW2   1023   1.304   1.757   1.083  0.3150  0.7784  2.5512
  342SOL  OW    1024   0.677   1.156   0.145  0.0078 -0.1297 -0.1226
  342SOL  HW1   1025   0.765   1.167   0.201  2.9945 -0.5172  2.9488
  342SOL  HW2   1026   0.645   1.248   0.108 -3.2225  2.9341  0.7560
  343SOL  OW    1027   1.805   2.724   0.728 -0.1569 -0.5218 -0.1155
  343SOL  HW1   1028   1.897   2.772   0.718  2.9955  0.3851  0.0956
  343SOL  HW2   1029   1.750   2.779   0.791  1.4988 -0.0308 -0.5774
  344SOL  OW    1030   1.504   1.988   0.883 -0.0845 -0.3638  0.3903
  344SOL  HW1   1031   1.516   2.023   0.789 -4.1256  0.2784 -1.7820
  344SOL  HW2   1032   1.559   2.039   0.953  4.2637  1.6377 -0.6432
  345SOL  OW    1033   2.733   1.931   0.650  0.0492  0.2229 -0.1988
  345SOL  HW1   1034   2.756   2.007   0.584 -0.0079 -0.9615 -1.4060
  345SOL  HW2   1035   2.678   1.966   0.730  2.1602  0.2935 -0.9144
  346SOL  OW    1036   1.787   2.522   2.214 -0.0656  0.2156  0.3530
  346SOL  HW1   1037   1.814   2.461   2.291 -0.1611  0.3200 -0.9789
  346SOL  HW2   1038   1.773   2.620   2.244  0.1644  1.0081 -1.1208
  347SOL  OW    1039   1.076   2.118   2.345  0.1957  0.0256  0.0852
  347SOL  HW1   1040   1.053   2.116   2.443  0.8442  1.2018 -0.4879
  347SOL  HW2   1041   0.996   2.146   2.289 -0.3097 -0.8277 -0.9479
  348SOL  OW    1042   0.640   1.757   0.897  0.1716 -0.2752  0.5174
  348SOL  HW1   1043   0.683   1.837   0.850  1.2295 -1.6529 -0.2230
  348SOL  HW2   1044   0.550   1.780   0.940 -0.9179 -0.1360 -0.9763
  349SOL  OW    1045   2.048   2.475   1.596 -0.6088 -0.4224 -0.5303
  349SOL  HW1   1046   2.081   2.497   1.693 -1.1806  0.5059  2.8809
  349SOL  HW2   1047   1.951   2.452   1.606  1.3886 -0.5239  2.6553
  350SOL  OW    1048   2.586   2.302   0.490  0.4286  0.4663  0.6380
  350SOL  HW1   1049   2.561   2.324   0.585  1.7674  2.4286 -1.7808
  350SOL  HW2   1050   2.500   2.277   0.432  0.3493 -0.5833 -2.7661
  351SOL  OW    1051   1.984   0.103   0.920  0.4870 -0.9460  0.4025
  351SOL  HW1   1052   1.915   0.047   0.966  0.3610  1.1994  0.3331
  351SOL  HW2   1053   2.035   0.159   0.990  1.0468 -0.2523 -0.6179
  352SOL  OW    1054   0.915   1.272   0.574  0.3634  0.3954 -0.3892
  352SOL  HW1   1055   0.876   1.188   0.620 -1.1365 -1.6300 -0.1306
  352SOL  HW2   1056   0.921   1.272   0.471  0.7303 -1.3985  0.9721
  353SOL  OW    1057   0.433   1.742   1.498  0.1450  0.2907  0.0838
  353SOL  HW1   1058   0.427   1.702   1.591 -0.1464 -1.8416  0.4978
  353SOL  HW2   1059   0.517   1.801   1.482 -1.7534  1.2534 -3.0411
  354SOL  OW    1060   1.482   2.805   2.066  0.1295  0.0998 -0.0804
  354SOL  HW1   1061   1.404   2.866   2.090 -0.3612  0.6976  1.4871
  354SOL  HW2   1062   1.570   2.852   2.085  1.2915 -1.7898  0.3305
  355SOL  OW    1063   0.941   2.944   0.500 -0.1837 -0.0008  0.2397
  355SOL  HW1   1064   1.008   2.935   0.425 -2.0640 -1.3314  1.9068
  355SOL  HW2   1065   0.860   2.995   0.465  2.1711 -0.4333  0.3404
  356SOL  OW    1066   1.302   2.675   1.392 -0.4814  0.1568 -0.5446
  356SOL  HW1   1067   1.268   2.764   1.370  0.0198 -0.6735 -0.0306
  356SOL  HW2   1068   1.276   2.644   1.487  2.1915 -0.8471 -0.2694
  357SOL  OW    1069   2.376   2.298   1.933 -0.2137 -0.2017 -0.2190
  357SOL  HW1   1070   2.285   2.291   1.881 -0.1055  0.1639  1.1983
  357SOL  HW2   1071   2.368   2.252   2.026 -1.2594  0.6299 -0.5120
  358SOL  OW    1072   1.563   1.594   0.966 -0.0170  0.1130  0.8687
  358SOL  HW1   1073   1.630   1.527   0.932  1.6962 -1.1864  0.9708
  358SOL  HW2   1074   1.484   1.552   1.013  0.7499  0.9775 -2.1608
  359SOL  OW    1075   2.558   2.496   1.909 -0.3113 -0.5812 -0.2316
  359SOL  HW1   1076   2.509   2.572   1.862  1.2478 -0.6080  1.8962
  359SOL  HW2   1077   2.501   2.409   1.918  0.3206 -0.1768 -1.3942
  360SOL  OW    1078   1.352   0.322   0.780  0.1225 -0.1682 -0.3023
  360SOL  HW1   1079   1.374   0.402   0.837  1.1012 -2.0007  1.0890
  360SOL  HW2   1080   1.354   0.239   0.843 -0.1176  1.0417 -0.5317
  361SOL  OW    1081   2.252   2.557   0.181  0.5329 -0.1656 -0.1682
  361SOL  HW1   1082   2.227   2.526   0.091  1.2804  2.6474  3.1968
  361SOL  HW2   1083   2.168   2.589   0.229  1.5680  0.2741 -1.4735
  362SOL  OW    1084   0.504   0.303   0.839 -0.0698  0.1730 -0.0767
  362SOL  HW1   1085   0.449   0.251   0.766 -1.5950  1.0857  1.0775
  362SOL  HW2   1086   0.600   0.263   0.848 -1.6330  0.3683  0.7480
  363SOL  OW    1087   1.234   0.799   1.928 -0.1795 -0.4865  0.2714
  363SOL  HW1   1088   1.216   0.700   1.948  1.1465  1.1532  0.5510
  363SOL  HW2   1089   1.321   0.811   1.880 -2.6748  1.1232 -0.8189
  364SOL  OW    1090   0.035   2.778   1.846  0.5122  0.3417 -0.5207
  364SOL  HW1   1091   0.070   2.759   1.751  2.0627  3.4464 -0.2533
  364SOL  HW2   1092   3.034   2.795   1.852  1.1643  0.3317 -0.8427
  365SOL  OW    1093   1.227   1.918   3.005 -0.5978  0.5264  0.1147
  365SOL  HW1   1094   1.272   1.825   3.013  2.9156 -2.2478 -1.4728
  365SOL  HW2   1095   1.145   1.927   3.058  1.5187 -0.0202  2.2902
  366SOL  OW    1096   2.737   0.721   2.808  0.5796  0.3599  0.6834
  366SOL  HW1   1097   2.795   0.664   2.869 -2.3592  2.9357  0.6173
  366SOL  HW2   1098   2.664   0.766   2.868  0.8957  1.0265  1.8167
  367SOL  OW    1099   1.275   2.486   2.897 -0.3592  0.2039  0.3297
  367SOL  HW1   1100   1.219   2.560   2.939  1.6541 -0.4623 -0.4641
  367SOL  HW2   1101   1.257   2.492   2.795  3.3923 -2.3610 -1.6419
  368SOL  OW    1102   2.253   2.427   2.218 -0.0445 -0.8835  0.9479
  368SOL  HW1   1103   2.329   2.489   2.183 -0.0056  2.7436 -3.3592
  368SOL  HW2   1104   2.229   2.448   2.314  1.2528  2.3921 -1.7496
  369SOL  OW    1105   0.728   2.475   1.092 -0.2448 -0.2636 -0.1012
  369SOL  HW1   1106   0.764   2.544   1.023 -0.7882 -0.6815  0.2113
  369SOL  HW2   1107   0.802   2.450   1.161 -0.8733 -1.0172  0.4032
  370SOL  OW    1108   2.705   2.728   0.681  0.2599  0.1791 -0.0444
  370SOL  HW1   1109   2.790   2.763   0.636 -1.7825 -0.4626  0.8839
  370SOL  HW2   1110   2.713   2.685   0.770  1.8613  1.5464 -1.0316
  371SOL  OW    1111   1.337   1.826   1.995 -0.2945 -0.3309 -0.1929
  371SOL  HW1   1112   1.344   1.921   1.955 -1.4197 -1.5461  2.5792
  371SOL  HW2   1113   1.308   1.827   2.091 -1.0683  0.3669 -0.7264
  372SOL  OW    1114   1.667   2.670   2.565 -0.6157  0.3920  0.4912
  372SOL  HW1   1115   1.620   2.741   2.624 -1.6197 -0.5492 -1.0516
  372SOL  HW2   1116   1.698   2.718   2.479 -2.2082 -2.5556 -2.0586
  373SOL  OW    1117   0.097   2.251   2.097  0.6171 -0.1688 -0.0725
  373SOL  HW1   1118   0.162   2.285   2.028 -0.9988 -1.2928  2.5468
  373SOL  HW2   1119   0.003   2.299   2.095 -2.2501 -1.7646 -0.3375
  374SOL  OW    1120   2.844   1.386   2.126  0.0525 -0.1981  0.2598
  374SOL  HW1   1121   2.863   1.314   2.063  0.8758  3.1394  0.8169
  374SOL  HW2   1122   2.745   1.411   2.129 -1.0785  2.0151  2.1407
  375SOL  OW    1123   0.265   2.327   2.673  0.3917  0.1603  0.6167
  375SOL  HW1   1124   0.229   2.349   2.763 -0.3723 -1.1848  1.3543
  375SOL  HW2   1125   0.343   2.387   2.656 -3.2221  0.3806  0.4842
  376SOL  OW    1126   2.710   0.815   2.194 -0.3009 -0.0886 -0.3603
  376SOL  HW1   1127   2.630   0.780   2.142 -1.0252 -2.3836 -3.2015
  376SOL  HW2   1128   2.694   0.910   2.230 -0.4258 -1.3373  0.1879
  377SOL  OW    1129   0.919   0.764   2.795  0.4515  0.4967 -0.0450
  377SOL  HW1   1130   1.001   0.732   2.850 -2.4018  2.2003 -0.7614
  377SOL  HW2   1131   0.877   0.687   2.739 -2.1144  2.6022 -1.1805
  378SOL  OW    1132   0.220   2.078   2.753 -0.5094  0.0717 -0.6357
  378SOL  HW1   1133   0.230   2.173   2.721 -1.0808  1.3080 -0.3773
  378SOL  HW2   1134   0.307   2.030   2.770 -2.0672 -0.0238  2.6467
  379SOL  OW    1135   1.628   0.867   1.945 -0.2949  0.0367  0.1735
  379SOL  HW1   1136   1.556   0.851   1.874 -0.9950  0.2886 -0.5786
  379SOL  HW2   1137   1.711   0.923   1.915  2.9561 -0.8252 -1.4871
  380SOL  OW    1138   0.335   1.875   0.606 -0.5865 -0.2688  0.1295
  380SOL  HW1   1139   0.250   1.910   0.652 -0.0028  3.0372 -0.3743
  380SOL  HW2   1140   0.343   1.774   0.612 -0.2710  1.8181  1.2982
  381SOL  OW    1141   2.768   1.671   0.347  0.4389 -0.1039  0.2061
  381SOL  HW1   1142   2.769   1.660   0.449 -1.4265  0.7817  1.5159
  381SOL  HW2   1143   2.744   1.763   0.316  0.8470 -1.6133  0.2127
  382SOL  OW    1144   1.617   1.077   0.388  0.5853 -0.0102 -0.2184
  382SOL  HW1   1145   1.621   0.973   0.390 -1.2507 -0.8634  4.0773
  382SOL  HW2   1146   1.580   1.113   0.298 -1.7070  0.5423  3.2153
  383SOL  OW    1147   1.527   1.080   0.117 -0.0731  0.2341  0.1585
  383SOL  HW1   1148   1.484   1.174   0.118 -1.6040 -0.7121  1.1255
  383SOL  HW2   1149   1.567   1.053   0.030 -0.2021  0.5258 -1.4867
  384SOL  OW    1150   0.466   2.511   1.460 -0.6161  0.0253 -0.2669
  384SOL  HW1   1151   0.500   2.609   1.464 -0.6746  1.9795 -2.5902
  384SOL  HW2   1152   0.493   2.469   1.370  2.1301  1.6977 -0.2088
  385SOL  OW    1153   2.032   2.504   2.086  0.0063 -0.2729  0.2224
  385SOL  HW1   1154   2.109   2.463   2.136 -0.5560 -0.7587 -1.2410
  385SOL  HW2   1155   1.952   2.538   2.144 -1.3197  1.6115  1.1291
  386SOL  OW    1156   2.371   2.881   0.466 -0.4434  0.3128 -0.5542
  386SOL  HW1   1157   2.329   2.962   0.415 -0.3193  6.1322  0.0939
  386SOL  HW2   1158   2.417   2.818   0.403  0.3128  1.1779 -0.2448
  387SOL  OW    1159   0.516   0.670   1.051  0.3747  0.6847 -0.0988
  387SOL  HW1   1160   0.474   0.638   0.960  0.3379  0.3732  0.6620
  387SOL  HW2   1161   0.553   0.589   1.100 -0.0983 -1.1835  1.7561
  388SOL  OW    1162   0.862   0.294   0.318 -0.0261 -0.8304  0.6820
  388SOL  HW1   1163   0.864   0.208   0.264  1.0297 -1.0062 -2.1102
  388SOL  HW2   1164   0.810   0.279   0.407 -0.0636 -0.8935 -0.0221
  389SOL  OW    1165   0.929   2.452   1.541  0.4400  0.2424 -0.4168
  389SOL  HW1   1166   0.891   2.400   1.618  1.9461  3.1458 -2.4782
  389SOL  HW2   1167   1.012   2.502   1.572  0.0840  1.6740  0.8636
  390SOL  OW    1168   2.812   2.561   1.962 -0.3213  0.0547  0.4414
  390SOL  HW1   1169   2.722   2.519   1.947 -3.2437  1.9054 -0.1616
  390SOL  HW2   1170   2.801   2.657   1.995 -0.1957  0.3417 -0.4088
  391SOL  OW    1171   1.831   1.598   1.193  0.1138 -0.0764  0.5461
  391SOL  HW1   1172   1.796   1.674   1.129 -1.0358  2.2942 -2.3930
  391SOL  HW2   1173   1.788   1.509   1.173 -1.2725 -1.1507  2.4414
  392SOL  OW    1174   0.581   0.322   1.473 -0.6022  0.6630 -0.0292
  392SOL  HW1   1175   0.643   0.319   1.553 -3.1322  0.2166  0.7951
  392SOL  HW2   1176   0.557   0.421   1.454 -1.0660 -1.3232  0.2852
  393SOL  OW    1177   1.022   2.444   0.765  0.1044 -0.0224 -0.1530
  393SOL  HW1   1178   1.067   2.511   0.701  0.1914  1.6432  2.1877
  393SOL  HW2   1179   1.058   2.466   0.861 -0.5179  1.8205  1.0563
  394SOL  OW    1180   1.277   0.057   2.942  0.3839  0.0854 -0.0773
  394SOL  HW1   1181   1.214   0.069   2.858  0.0129  3.1508 -2.7705
  394SOL  HW2   1182   1.256   0.130   3.008 -3.8795 -1.0864  1.0814
  395SOL  OW    1183   0.248   0.297   1.219 -0.0365 -0.1280 -0.0738
  395SOL  HW1   1184   0.254   0.304   1.318  0.9510  0.5897 -1.2742
  395SOL  HW2   1185   0.334   0.260   1.179  1.8465 -0.5400  0.5504
  396SOL  OW    1186   2.877   2.447   0.113 -0.4537  0.4843 -0.1042
  396SOL  HW1   1187   2.777   2.453   0.097 -0.5993 -0.8982  0.9521
  396SOL  HW2   1188   2.905   2.491   0.202  0.9928  1.1315  1.5356
  397SOL  OW    1189   2.141   1.688   2.041  0.6374  0.0642 -0.2947
  397SOL  HW1   1190   2.065   1.692   2.103  1.6690  0.6218 -3.9371
  397SOL  HW2   1191   2.229   1.712   2.083 -0.9552 -1.8557  0.2707
  398SOL  OW    1192   0.868   2.948   2.914 -0.1152 -0.4190  0.0370
  398SOL  HW1   1193   0.937   2.943   2.838  0.0898 -1.4856 -0.4874
  398SOL  HW2   1194   0.782   2.902   2.892  2.1359 -1.0848  1.0798
  399SOL  OW    1195   1.933   0.652   1.720 -0.2262  0.2478  0.7635
  399SOL  HW1   1196   1.896   0.703   1.636 -2.4013 -0.7601 -1.4807
  399SOL  HW2   1197   1.856   0.634   1.787  0.3321  0.3517 -2.2209
  400SOL  OW    1198   0.836   1.672   1.932 -0.1637 -0.1211  0.0263
  400SOL  HW1   1199   0.935   1.661   1.963  1.4255 -1.5131  0.7294
  400SOL  HW2   1200   0.788   1.584   1.915 -0.0500  1.1448 -0.1579
  401SOL  OW    1201   2.499   2.933   2.127  0.0042  0.3465  0.2197
  401SOL  HW1   1202   2.420   2.919   2.062 -2.0073  1.2363  0.3197
  401SOL  HW2   1203   2.473   2.946   2.223  0.7520  0.1099  1.6969
  402SOL  OW    1204   1.135   2.981   0.311 -0.1424  0.6228  0.6310
  402SOL  HW1   1205   1.187   2.900   0.272  2.1383  0.0487 -0.1898
  402SOL  HW2   1206   1.205   3.045   0.340 -0.2820 -1.2190 -2.4795
  403SOL  OW    1207   2.911   1.658   1.582  0.9291 -0.0587 -0.1932
  403SOL  HW1   1208   2.884   1.563   1.613  2.3336  1.6543 -1.2655
  403SOL  HW2   1209   2.999   1.689   1.624 -1.1046  1.0662 -1.5587
  404SOL  OW    1210   1.891   2.012   2.662  0.0103 -0.1057 -0.5450
  404SOL  HW1   1211   1.828   2.087   2.643  1.6520 -1.7202  0.1359
  404SOL  HW2   1212   1.959   2.031   2.735 -3.9128  1.1922 -2.7913
  405SOL  OW    1213   2.770   2.322   1.418  0.5158 -0.0632  0.2871
  405SOL  HW1   1214   2.839   2.381   1.372 -1.8416 -3.0446  1.7226
  405SOL  HW2   1215   2.671   2.350   1.395 -2.0737  1.6451 -0.8187
  406SOL  OW    1216   2.517   1.593   0.220  0.0483  0.3127  0.5158
  406SOL  HW1   1217   2.473   1.594   0.311 -1.9964 -2.9235 -0.7411
  406SOL  HW2   1218   2.618   1.626   0.231  3.3466  0.4552 -0.6462
  407SOL  OW    1219   1.005   0.320   2.867 -0.2129 -0.4098  0.3118
  407SOL  HW1   1220   0.965   0.336   2.771 -1.7599  1.6284 -2.1202
  407SOL  HW2   1221   1.105   0.353   2.876  1.5519 -0.0838  0.2196
  408SOL  OW    1222   0.307   2.884   2.091 -0.1527 -0.1085 -0.2773
  408SOL  HW1   1223   0.289   2.785   2.101 -1.9800 -0.4098  2.5669
  408SOL  HW2   1224   0.243   2.944   2.141  1.8875 -1.8650 -0.6385
  409SOL  OW    1225   1.084   2.081   1.682  0.4807 -0.5388 -0.3174
  409SOL  HW1   1226   0.991   2.056   1.704  0.9975 -0.7479 -1.4429
  409SOL  HW2   1227   1.089   2.175   1.645  0.7046  0.4836 -3.2105
  410SOL  OW    1228   0.887   1.791   0.456 -0.0318  0.1890  0.3807
  410SOL  HW1   1229   0.927   1.706   0.486 -0.6029  1.9575  1.9462
  410SOL  HW2   1230   0.796   1.800   0.505  0.4635  0.5822  4.0040
  411SOL  OW    1231   2.921   0.374   1.249 -0.1490  0.3613  0.3885
  411SOL  HW1   1232   2.999   0.393   1.186 -1.6529 -0.9824  0.5477
  411SOL  HW2   1233   2.904   0.460   1.303 -0.0888 -0.0308 -0.5736
  412SOL  OW    1234   1.841   0.728   1.471  0.0433 -0.2786  0.3974
  412SOL  HW1   1235   1.875   0.705   1.379 -1.0744 -0.0567  0.5197
  412SOL  HW2   1236   1.822   0.825   1.477  0.0741 -0.9142 -3.2074
  413SOL  OW    1237   1.993   0.341   1.166  0.7117 -0.2635 -0.0805
  413SOL  HW1   1238   2.070   0.275   1.148 -1.5017 -1.2918  0.0859
  413SOL  HW2   1239   1.919   0.297   1.219  0.8883  0.0690 -0.5180
  414SOL  OW    1240   2.941   0.872   3.083  0.1562 -0.1417  0.2301
  414SOL  HW1   1241   3.035   0.906   3.076  1.5057  1.2554  0.2491
  414SOL  HW2   1242   2.868   0.936   3.063  3.4315 -0.0475  0.3217
  415SOL  OW    1243   2.473   2.154   1.307 -0.0390 -0.5733 -0.4659
  415SOL  HW1   1244   2.418   2.071   1.325  2.3745 -0.7377  1.6942
  415SOL  HW2   1245   2.472   2.216   1.392 -4.6299 -0.9755  0.6358
  416SOL  OW    1246   1.902   0.035   2.952  0.5103 -0.0067  0.7177
  416SOL  HW1   1247   1.828   3.065   2.984 -0.0813 -0.8078 -1.2044
  416SOL  HW2   1248   1.873   0.075   2.864  0.0706 -0.7484  0.4601
  417SOL  OW    1249   0.548   0.610   1.425 -0.3297 -0.0691  0.2771
  417SOL  HW1   1250   0.624   0.672   1.455 -2.8884 -1.0756 -1.4846
  417SOL  HW2   1251   0.470   0.670   1.385 -2.3659  2.5302 -0.5317
  418SOL  OW    1252   2.217   0.662   0.520  0.3395 -0.6303 -0.0465
  418SOL  HW1   1253   2.206   0.690   0.424 -0.9599  1.4864  0.6951
  418SOL  HW2   1254   2.265   0.729   0.573 -0.8243 -1.7790 -1.7522
  419SOL  OW    1255   0.579   0.104   0.202  0.0539  0.3230  0.2312
  419SOL  HW1   1256   0.631   0.171   0.147 -0.8658  0.8598 -1.5419
  419SOL  HW2   1257   0.481   0.139   0.209 -2.5375  0.1166 -0.4512
  420SOL  OW    1258   0.366   0.995   2.041  0.0048  0.0132  0.4274
  420SOL  HW1   1259   0.379   1.087   1.988  2.3026  4.9081 -1.8792
  420SOL  HW2   1260   0.314   0.930   1.982  0.9451 -2.1784 -1.0963
  421SOL  OW    1261   3.031   2.505   0.826  0.3556  0.4404  0.1411
  421SOL  HW1   1262   3.027   2.498   0.725  2.2629  0.7818 -0.4278
  421SOL  HW2   1263   3.050   2.603   0.845  0.0274 -1.1550 -0.5681
  422SOL  OW    1264   2.962   2.946   0.996 -1.1139  0.0485 -0.4952
  422SOL  HW1   1265   2.880   2.887   1.001 -0.4301  2.1434  1.4854
  422SOL  HW2   1266   2.972   2.994   1.088 -0.6249  0.1002 -3.7803
  423SOL  OW    1267   0.754   2.380   0.713  0.5066  0.0638  0.0650
  423SOL  HW1   1268   0.764   2.328   0.625 -5.1533 -0.2521  0.4703
  423SOL  HW2   1269   0.836   2.443   0.724  1.2515  1.7270  1.2399
  424SOL  OW    1270   1.591   2.615   1.103 -0.3661 -0.0213  0.3742
  424SOL  HW1   1271   1.533   2.538   1.081 -1.0321  3.5419  1.2178
  424SOL  HW2   1272   1.615   2.619   1.199  0.6926  0.6987 -3.4115
  425SOL  OW    1273   2.557   0.133   2.185 -0.0388 -0.2055  0.2329
  425SOL  HW1   1274   2.494   0.077   2.134  1.5061  2.7126 -1.4356
  425SOL  HW2   1275   2.622   0.072   2.242  1.3711 -1.6325  0.6315
  426SOL  OW    1276   3.009   2.516   2.975  0.0517 -0.4372 -0.3882
  426SOL  HW1   1277   2.990   2.497   3.078  2.0312 -2.0041  4.2219
  426SOL  HW2   1278   2.944   2.460   2.925  1.8282 -1.6789  0.3463
  427SOL  OW    1279   0.998   1.884   2.823 -0.6472 -0.0237  0.0906
  427SOL  HW1   1280   0.934   1.950   2.859  1.8129  0.5561 -2.8615
  427SOL  HW2   1281   1.089   1.884   2.871  1.7076 -0.3074  0.3342
  428SOL  OW    1282   1.681   0.266   1.460  0.7973  0.1532 -0.1295
  428SOL  HW1   1283   1.768   0.222   1.437  0.5609 -0.2500  1.1731
  428SOL  HW2   1284   1.700   0.355   1.511 -2.4120  1.5416  1.0177
  429SOL  OW    1285   1.340   2.671   0.730 -0.4337  0.1146 -0.2466
  429SOL  HW1   1286   1.424   2.680   0.674 -0.2374 -1.8457  1.9156
  429SOL  HW2   1287   1.251   2.664   0.673 -2.0673  0.7845 -1.8419
  430SOL  OW    1288   1.242   1.397   3.000 -0.5569 -0.2734  0.7671
  430SOL  HW1   1289   1.303   1.394   2.914 -0.4199  0.9362 -0.4328
  430SOL  HW2   1290   1.142   1.398   2.977 -1.3795  0.3946  2.1099
  431SOL  OW    1291   2.202   0.416   0.408 -0.0111 -0.2287 -0.4779
  431SOL  HW1   1292   2.287   0.405   0.359 -1.5072 -0.7039  0.5137
  431SOL  HW2   1293   2.200   0.505   0.458  1.5308  1.6051  1.7593
  432SOL  OW    1294   0.905   2.475   1.977 -0.1715 -0.2095 -0.1119
  432SOL  HW1   1295   0.876   2.398   1.914  0.3827  1.7101  0.8123
  432SOL  HW2   1296   0.988   2.454   2.034  1.0611  0.1574 -1.0400
  433SOL  OW    1297   0.140   0.606   1.431  0.0779  0.2869 -0.0386
  433SOL  HW1   1298   0.159   0.508   1.455 -1.9755  0.3219 -1.2348
  433SOL  HW2   1299   0.213   0.645   1.370 -0.8883  0.8308 -0.5542
  434SOL  OW    1300   1.333   2.318   2.119  0.4172 -0.1212 -0.4895
  434SOL  HW1   1301   1.433   2.343   2.096  0.8469  4.4238 -1.0061
  434SOL  HW2   1302   1.328   2.299   2.220 -0.1911  0.2890  0.2194
  435SOL  OW    1303   2.442   0.264   0.020  0.4377  0.1611 -0.1651
  435SOL  HW1   1304   2.347   0.301   0.007  0.8450 -0.5507  0.8014
  435SOL  HW2   1305   2.460   0.235   0.121  1.1366 -2.5470  1.5773
  436SOL  OW    1306   0.396   1.241   2.480 -0.3635  0.3205 -0.0507
  436SOL  HW1   1307   0.474   1.209   2.419  2.5167 -0.1259 -1.0814
  436SOL  HW2   1308   0.324   1.278   2.427  0.4945 -1.1560 -0.1309
  437SOL  OW    1309   1.973   1.762   2.790  0.1000 -0.3224 -0.7630
  437SOL  HW1   1310   2.044   1.714   2.738 -1.9942  0.2915  1.2778
  437SOL  HW2   1311   1.954   1.850   2.747  1.2922 -2.6693 -2.8212
  438SOL  OW    1312   2.802   0.193   1.062  0.0363 -0.4122  0.5940
  438SOL  HW1   1313   2.860   0.254   1.122 -0.3675  0.2259  0.2258
  438SOL  HW2   1314   2.846   0.181   0.971 -0.5360  0.6611  1.2712
  439SOL  OW    1315   0.004   1.852   1.965 -0.5977  0.4414 -0.4935
  439SOL  HW1   1316   3.036   1.906   1.911  0.0862 -2.5039  1.6335
  439SOL  HW2   1317   0.004   1.754   1.930  0.9932 -3.0275 -0.4052
  440SOL  OW    1318   0.717   1.606   0.201  0.0006  0.4370 -0.5099
  440SOL  HW1   1319   0.802   1.548   0.187 -0.5710  1.4617  2.3938
  440SOL  HW2   1320   0.693   1.611   0.302 -0.9634  2.5941  3.2937
  441SOL  OW    1321   0.212   1.931   1.516  0.5387  0.5270  0.0360
  441SOL  HW1   1322   0.289   1.860   1.516  2.1846 -1.7681 -1.4714
  441SOL  HW2   1323   0.222   2.002   1.440 -2.7375 -0.2212  0.0070
  442SOL  OW    1324   0.453   0.956   0.726  0.0188 -0.0968  0.0166
  442SOL  HW1   1325   0.504   0.929   0.811  2.0033  0.3852  2.1464
  442SOL  HW2   1326   0.376   0.892   0.707 -0.3419  0.2460 -0.0902
  443SOL  OW    1327   2.774   1.843   1.449  0.2659 -0.2511  0.5622
  443SOL  HW1   1328   2.817   1.934   1.431 -2.1543 -0.1910 -0.5241
  443SOL  HW2   1329   2.838   1.783   1.494  0.1323  1.3585 -0.0690
  444SOL  OW    1330   1.734   2.699   1.737 -0.5221 -0.1700  0.0889
  444SOL  HW1   1331   1.665   2.694   1.809 -0.9891 -2.0234  2.0697
  444SOL  HW2   1332   1.743   2.610   1.691 -2.4606 -1.2525  0.4560
  445SOL  OW    1333   2.962   0.004   1.461  0.0450  0.1487 -0.4586
  445SOL  HW1   1334   2.947   3.000   1.480 -0.7129  2.0554 -0.6904
  445SOL  HW2   1335   2.964   0.055   1.547  1.2422 -2.4193 -3.7537
  446SOL  OW    1336   1.589   1.928   1.756 -0.2579 -0.0787  0.2071
  446SOL  HW1   1337   1.521   2.005   1.740  0.1774  0.2284 -1.6218
  446SOL  HW2   1338   1.547   1.844   1.715  1.6914  1.2631 -0.3725
  447SOL  OW    1339   2.888   0.154   0.814  0.1527  0.4853  0.5064
  447SOL  HW1   1340   2.945   0.242   0.798  1.8170  1.2175  0.8948
  447SOL  HW2   1341   2.949   0.074   0.802 -1.8877  1.3465  0.0534
  448SOL  OW    1342   0.970   1.522   2.196 -0.3602 -0.2500  0.1152
  448SOL  HW1   1343   0.866   1.509   2.190 -0.4698 -0.1012  0.0256
  448SOL  HW2   1344   0.988   1.583   2.278 -0.8228 -4.0403 -0.5032
  449SOL  OW    1345   0.531   0.318   2.915 -0.1579  0.0176  0.2204
  449SOL  HW1   1346   0.489   0.283   2.823 -0.3750 -2.3100 -1.5129
  449SOL  HW2   1347   0.467   0.289   2.991  0.6985  0.9601 -4.9954
  450SOL  OW    1348   2.348   0.980   1.989 -0.2680 -0.2861  0.4885
  450SOL  HW1   1349   2.334   0.995   1.890  1.9225  1.4851  3.6736
  450SOL  HW2   1350   2.391   1.062   2.025 -2.8377 -2.7599 -1.4217
  451SOL  OW    1351   2.084   2.229   1.390  0.0309  0.2299 -0.5585
  451SOL  HW1   1352   2.154   2.207   1.464 -1.5206 -0.3906 -0.4267
  451SOL  HW2   1353   2.001   2.173   1.394 -0.9468  1.7332  2.3034
  452SOL  OW    1354   0.006   1.259   1.407 -0.6782 -0.7591 -0.6739
  452SOL  HW1   1355   0.047   1.178   1.456  1.7500 -1.5010  0.5865
  452SOL  HW2   1356   0.037   1.265   1.313 -0.1975 -2.2665  0.6637
  453SOL  OW    1357   2.835   1.393   1.656  0.0906 -0.0160  0.5420
  453SOL  HW1   1358   2.922   1.381   1.707  0.7164 -0.3814 -0.0009
  453SOL  HW2   1359   2.831   1.328   1.577 -0.4610 -0.9237 -0.8989
  454SOL  OW    1360   2.482   1.414   0.032 -0.0685  0.1221  0.1057
  454SOL  HW1   1361   2.486   1.494   0.096 -1.2564  0.2766  2.8882
  454SOL  HW2   1362   2.389   1.397   3.083 -0.7785  1.0987  0.5617
  455SOL  OW    1363   1.221   0.246   0.015  0.3484  0.0300 -0.2774
  455SOL  HW1   1364   1.139   0.292   0.054  0.0419  0.7542 -1.9401
  455SOL  HW2   1365   1.300   0.283   0.075  0.0829  0.3200  0.6468
  456SOL  OW    1366   1.573   2.176   0.669  0.4577 -0.1366  0.3324
  456SOL  HW1   1367   1.664   2.222   0.673 -3.0427  0.6494  2.7227
  456SOL  HW2   1368   1.496   2.246   0.694 -0.0597  0.2885 -1.4330
  457SOL  OW    1369   0.136   1.333   2.857  0.2826  0.6669  0.1487
  457SOL  HW1   1370   0.086   1.382   2.930 -2.1996 -0.8857 -0.0181
  457SOL  HW2   1371   0.084   1.246   2.833 -1.7000 -1.0844  2.8948
  458SOL  OW    1372   1.494   0.471   1.978  0.3037  0.0978 -0.1942
  458SOL  HW1   1373   1.399   0.502   1.956  0.7652 -0.8244  0.9084
  458SOL  HW2   1374   1.486   0.370   1.976 -0.3286  1.1969  0.1509
  459SOL  OW    1375   0.627   1.959   0.141 -0.4574 -0.2886  0.0050
  459SOL  HW1   1376   0.555   1.892   0.110 -1.6289  0.0940  2.0141
  459SOL  HW2   1377   0.715   1.913   0.164  1.4240 -0.4700  1.1178
  460SOL  OW    1378   0.973   0.670   0.410  0.3625 -0.0229 -0.1010
  460SOL  HW1   1379   0.983   0.568   0.434 -0.2602 -1.7995 -1.7760
  460SOL  HW2   1380   0.969   0.683   0.311 -0.2841 -0.9658  0.5026
  461SOL  OW    1381   0.965   3.035   0.920 -0.4101 -0.1798 -0.0621
  461SOL  HW1   1382   1.033   2.977   0.966 -0.9239  2.7514  1.0656
  461SOL  HW2   1383   0.930   0.011   0.985 -0.3915  2.0626  1.9147
  462SOL  OW    1384   0.289   2.628   2.103  0.8115 -0.1089 -0.0044
  462SOL  HW1   1385   0.341   2.558   2.158 -1.3934 -0.5673 -1.4123
  462SOL  HW2   1386   0.186   2.604   2.100 -0.1624 -0.3312 -0.4721
  463SOL  OW    1387   2.345   0.196   1.947 -0.5025  0.7550  0.0719
  463SOL  HW1   1388   2.299   0.177   2.031  0.0983  0.4033 -0.6346
  463SOL  HW2   1389   2.314   0.278   1.904  0.2066 -0.4199  0.9139
  464SOL  OW    1390   2.541   2.988   0.958  0.2263  0.5437 -0.0603
  464SOL  HW1   1391   2.528   2.999   0.858 -0.6924 -0.1000 -0.0348
  464SOL  HW2   1392   2.611   2.919   0.977 -1.4227  5.0264 -1.5847
  465SOL  OW    1393   2.883   0.936   1.582  0.0480 -0.2217 -0.2236
  465SOL  HW1   1394   2.796   0.898   1.626  0.7004  1.2029 -1.5278
  465SOL  HW2   1395   2.865   1.032   1.545 -0.0534  1.4395  0.6611
  466SOL  OW    1396   1.251   1.958   0.484  0.3635  0.1367 -0.5021
  466SOL  HW1   1397   1.239   1.927   0.391  2.3040 -0.0083  0.0181
  466SOL  HW2   1398   1.341   1.926   0.509  0.1339  0.4758 -3.4461
  467SOL  OW    1399   0.988   1.015   2.951 -0.0178 -0.0057  0.7061
  467SOL  HW1   1400   0.933   1.096   2.912 -0.9218  0.2202 -2.1936
  467SOL  HW2   1401   0.949   0.929   2.914 -1.2772 -0.6922 -1.5656
  468SOL  OW    1402   1.842   1.195   0.963  0.0953  0.4138 -0.6939
  468SOL  HW1   1403   1.930   1.184   1.014  2.0493 -0.8630  0.7173
  468SOL  HW2   1404   1.760   1.206   1.024  0.0948 -0.4373  0.9468
  469SOL  OW    1405   0.930   1.129   1.962 -0.6842 -0.3767  0.3984
  469SOL  HW1   1406   0.829   1.117   1.959 -0.6644  1.9260  2.4920
  469SOL  HW2   1407   0.964   1.167   2.050  1.3665  0.6724 -1.7795
  470SOL  OW    1408   1.934   1.700   0.298 -0.8920  0.2567 -0.0895
  470SOL  HW1   1409   1.869   1.713   0.217  1.2347 -2.2171 -2.4629
  470SOL  HW2   1410   2.029   1.703   0.265 -0.5295  2.3326 -0.1590
  471SOL  OW    1411   0.062   1.925   0.678 -0.6769  0.3816  0.2089
  471SOL  HW1   1412   0.024   1.839   0.644  2.2662 -0.0186  0.0380
  471SOL  HW2   1413   0.036   2.003   0.617 -1.4441 -0.1880 -3.1753
  472SOL  OW    1414   0.169   1.945   0.104  0.1058  0.1764 -0.1033
  472SOL  HW1   1415   0.133   1.968   0.011 -1.9815 -1.6448 -0.0716
  472SOL  HW2   1416   0.156   2.025   0.170 -0.4055  2.5735  0.3010
  473SOL  OW    1417   0.662   2.091   2.038  0.5075 -0.0447  0.0263
  473SOL  HW1   1418   0.642   1.993   2.061  1.3375  1.1878  0.0248
  473SOL  HW2   1419   0.594   2.130   1.970 -0.1924 -0.3558 -1.7676
  474SOL  OW    1420   2.239   1.157   2.250  0.5085 -0.0405  0.7463
  474SOL  HW1   1421   2.311   1.137   2.185 -1.2434 -0.0814  2.3145
  474SOL  HW2   1422   2.177   1.225   2.208 -2.0618  0.6275  3.0775
  475SOL  OW    1423   2.555   1.294   2.643  0.0097 -0.1356  0.4143
  475SOL  HW1   1424   2.590   1.215   2.593  2.3292  0.5187 -1.1436
  475SOL  HW2   1425   2.463   1.317   2.604  3.6219  0.3732  0.7225
  476SOL  OW    1426   0.189   0.775   0.168 -0.0087 -0.4914 -0.1757
  476SOL  HW1   1427   0.251   0.829   0.228 -0.0333  3.0149 -0.6462
  476SOL  HW2   1428   0.219   0.680   0.149 -2.1244  2.9896 -0.2115
  477SOL  OW    1429   1.469   0.067   2.619  0.1327  0.8439  0.1139
  477SOL  HW1   1430   1.369   0.097   2.620  1.6467  1.5473  0.0237
  477SOL  HW2   1431   1.524   0.117   2.687 -0.0468  2.4961 -0.1701
  478SOL  OW    1432   1.392   2.371   0.706 -0.2568  1.0313  0.2503
  478SOL  HW1   1433   1.341   2.325   0.633  1.5144 -0.3453  1.5961
  478SOL  HW2   1434   1.375   2.471   0.714  2.4147 -1.8475  0.1954
  479SOL  OW    1435   2.248   2.428   2.501 -0.2045  0.8748 -0.3224
  479SOL  HW1   1436   2.271   2.337   2.549  0.0019 -0.3744 -0.0275
  479SOL  HW2   1437   2.150   2.446   2.519 -1.1020 -0.7074 -0.1799
  480SOL  OW    1438   2.616   2.480   0.021 -0.2975 -0.0183  0.1769
  480SOL  HW1   1439   2.570   2.394   0.062 -0.9406 -1.5665  0.0731
  480SOL  HW2   1440   2.576   2.569   0.053 -1.0575  0.7226 -0.3770
  481SOL  OW    1441   1.358   1.244   1.280 -0.1920 -0.1540  0.0428
  481SOL  HW1   1442   1.432   1.285   1.342  0.7172 -1.2453  0.1360
  481SOL  HW2   1443   1.338   1.146   1.298 -1.6310  2.1868 -1.9194
  482SOL  OW    1444   2.266   1.046   1.156  0.0173 -0.0964  0.5979
  482SOL  HW1   1445   2.195   0.979   1.179  2.1604  2.4812 -0.8213
  482SOL  HW2   1446   2.330   1.009   1.087 -0.0344 -0.6001  2.0660
  483SOL  OW    1447   1.346   1.675   3.019  0.1869  0.6883 -0.1042
  483SOL  HW1   1448   1.289   1.592   3.013  1.9889  2.9265 -1.2149
  483SOL  HW2   1449   1.435   1.674   2.970 -0.0023  1.7341  1.5846
  484SOL  OW    1450   2.257   0.615   2.072  0.5039 -0.1529 -0.2965
  484SOL  HW1   1451   2.263   0.554   1.988 -0.6867  0.2411  1.7467
  484SOL  HW2   1452   2.269   0.562   2.157 -0.0869 -0.2019 -2.8773
  485SOL  OW    1453   0.066   2.261   2.474 -0.1401 -0.5045 -1.0631
  485SOL  HW1   1454   0.139   2.282   2.542 -0.9836 -0.2892  2.2956
  485SOL  HW2   1455   0.093   2.187   2.414  1.1376 -1.8428  1.2163
  486SOL  OW    1456   2.817   1.383   2.644 -0.0733 -0.1351  0.0558
  486SOL  HW1   1457   2.879   1.302   2.637  4.8991  1.5742  0.7006
  486SOL  HW2   1458   2.725   1.344   2.625 -0.3619  0.1394 -0.4682
  487SOL  OW    1459   0.070   1.536   3.059 -0.4016  0.1048 -0.0254
  487SOL  HW1   1460   0.068   1.579   0.059  0.0226 -1.2908 -0.9496
  487SOL  HW2   1461   3.072   1.535   3.018  1.5857  0.2359  2.3442
  488SOL  OW    1462   2.573   0.898   1.290 -0.1993  0.1255 -0.1224
  488SOL  HW1   1463   2.509   0.854   1.354  4.2680  2.1183 -2.5293
  488SOL  HW2   1464   2.546   0.994   1.272  0.5265 -1.2560 -0.2356
  489SOL  OW    1465   0.796   2.242   0.478 -0.7193 -0.1249  0.3345
  489SOL  HW1   1466   0.730   2.168   0.453 -0.9345  0.8291  0.7626
  489SOL  HW2   1467   0.880   2.196   0.507 -2.5887  0.5802 -1.6905
  490SOL  OW    1468   2.463   1.589   2.422 -0.0186 -0.0894 -0.1814
  490SOL  HW1   1469   2.406   1.673   2.444  1.1349 -2.0527 -0.1767
  490SOL  HW2   1470   2.409   1.507   2.443 -0.5782  1.5629  2.3707
  491SOL  OW    1471   0.434   0.376   1.791  0.0106 -0.4423 -0.4590
  491SOL  HW1   1472   0.377   0.363   1.873 -0.3635  1.9188  0.8887
  491SOL  HW2   1473   0.416   0.469   1.739 -0.5537  2.2884 -3.0728
  492SOL  OW    1474   2.122   1.211   0.735 -0.2891 -0.5230  0.0397
  492SOL  HW1   1475   2.159   1.132   0.789 -1.9848 -0.6486 -0.4558
  492SOL  HW2   1476   2.030   1.183   0.702  0.2434  3.4047  1.0663
  493SOL  OW    1477   1.942   2.264   2.982  0.1016 -0.0655 -0.0213
  493SOL  HW1   1478   1.998   2.224   2.908  0.9585  2.2571  0.5271
  493SOL  HW2   1479   1.906   2.201   3.053 -0.1326  2.1481  0.3406
  494SOL  OW    1480   0.968   0.523   0.859 -0.3080  0.2342  0.1683
  494SOL  HW1   1481   0.984   0.426   0.824 -1.3026  0.1553 -0.6922
  494SOL  HW2   1482   1.013   0.592   0.796 -1.0951  3.3350 -1.3702
  495SOL  OW    1483   1.599   0.600   0.899 -0.3490  0.1953  0.1607
  495SOL  HW1   1484   1.499   0.582   0.906 -0.3492  0.4656  1.7700
  495SOL  HW2   1485   1.650   0.514   0.885  0.1384  1.9933  0.3200
  496SOL  OW    1486   0.266   2.314   0.080  0.0534  0.2201 -0.0041
  496SOL  HW1   1487   0.217   2.273   0.156 -0.0634  1.8104 -0.0099
  496SOL  HW2   1488   0.365   2.283   0.074  3.1499 -1.0292  0.2104
  497SOL  OW    1489   1.038   0.933   1.815  0.1737 -0.0884  0.0476
  497SOL  HW1   1490   1.111   0.891   1.870 -0.7005  1.3777  1.3093
  497SOL  HW2   1491   0.997   1.013   1.866  0.1696 -0.2948  1.8231
  498SOL  OW    1492   0.693   2.190   0.912  0.3018  0.1121  0.1327
  498SOL  HW1   1493   0.700   2.277   0.857  2.7880  2.6840 -0.3799
  498SOL  HW2   1494   0.600   2.151   0.907 -1.7604  0.3727  1.4580
  499SOL  OW    1495   0.159   1.076   2.192  0.3525  0.3238 -0.7425
  499SOL  HW1   1496   0.067   1.053   2.148  0.3239  1.5670 -1.1635
  499SOL  HW2   1497   0.234   1.041   2.137 -0.3083  1.8774 -0.5056
  500SOL  OW    1498   1.272   2.765   2.608  0.0581 -0.4687  0.3704
  500SOL  HW1   1499   1.279   2.663   2.620 -1.0848  1.0086  0.6406
  500SOL  HW2   1500   1.363   2.806   2.634 -0.8652 -0.9574 -2.2880
  501SOL  OW    1501   1.572   2.695   0.582 -0.6714  0.3772  0.0864
  501SOL  HW1   1502   1.622   2.635   0.518 -2.0223  2.3064 -1.8261
  501SOL  HW2   1503   1.629   2.700   0.667 -0.5146  0.7822 -0.5050
  502SOL  OW    1504   2.897   0.570   0.651 -0.0682 -0.5716  0.0151
  502SOL  HW1   1505   2.819   0.629   0.690  1.4115  1.8322  1.1974
  502SOL  HW2   1506   2.877   0.537   0.555 -0.5190 -2.3637  0.0293
  503SOL  OW    1507   0.741   2.071   2.471  0.4157  0.3659  0.0953
  503SOL  HW1   1508   0.652   2.030   2.505  0.0026 -1.3216 -0.2616
  503SOL  HW2   1509   0.739   2.172   2.479 -4.3632 -1.3486  1.1709
  504SOL  OW    1510   1.734   1.690   1.413  0.4966  0.3233  0.2784
  504SOL  HW1   1511   1.775   1.636   1.334  0.7239 -0.4129 -0.8558
  504SOL  HW2   1512   1.797   1.671   1.495  1.2938 -0.1114 -0.5323
  505SOL  OW    1513   2.047   2.735   2.389 -0.6255  0.3569  0.1095
  505SOL  HW1   1514   2.043   2.658   2.458 -1.2446 -0.0991 -1.1716
  505SOL  HW2   1515   2.144   2.736   2.358 -0.9142 -1.3078  2.3447
  506SOL  OW    1516   2.794   0.219   1.429 -0.2989  0.1079 -0.3420
  506SOL  HW1   1517   2.852   0.141   1.441 -3.6335  2.3280 -2.0344
  506SOL  HW2   1518   2.833   0.285   1.364  0.5597 -1.0761  1.5821
  507SOL  OW    1519   1.863   1.145   0.694  0.0965 -0.0925  0.2732
  507SOL  HW1   1520   1.801   1.196   0.636  1.4424  1.7278  2.1499
  507SOL  HW2   1521   1.826   1.145   0.794 -2.7986  0.6364  3.3292
  508SOL  OW    1522   1.470   3.028   0.855  0.0132 -0.1868  0.4075
  508SOL  HW1   1523   1.490   2.998   0.760 -0.0803 -2.6763 -1.0340
  508SOL  HW2   1524   1.390   3.092   0.856 -0.4934  0.1968 -2.1020
  509SOL  OW    1525   1.828   2.120   0.077  0.3765  0.2716  0.6180
  509SOL  HW1   1526   1.763   2.055   0.038  1.0214  1.9363  1.7179
  509SOL  HW2   1527   1.811   2.110   0.179 -1.8283 -0.8526  1.4599
  510SOL  OW    1528   2.294   2.235   1.593  0.6019 -0.3433 -0.0912
  510SOL  HW1   1529   2.224   2.275   1.654  0.5521  0.6407  0.0441
  510SOL  HW2   1530   2.363   2.179   1.646 -0.7828 -1.6929 -0.1559
  511SOL  OW    1531   2.120   1.255   1.055 -0.4846 -0.2244 -0.1296
  511SOL  HW1   1532   2.174   1.179   1.095 -1.9575  0.2057  1.6504
  511SOL  HW2   1533   2.167   1.301   0.979  2.3526  0.7762  0.6217
  512SOL  OW    1534   0.083   1.475   0.744  0.3988 -0.2052  0.0329
  512SOL  HW1   1535   3.095   1.430   0.783  0.6865 -0.8427  0.8099
  512SOL  HW2   1536   0.108   1.427   0.660 -0.4172  1.8839  2.7459
  513SOL  OW    1537   1.487   3.033   1.374  0.0572  0.4680  0.4575
  513SOL  HW1   1538   1.542   2.961   1.423  1.1130 -0.1313 -0.5239
  513SOL  HW2   1539   1.478   0.011   1.447  0.1726  1.6711  2.4428
  514SOL  OW    1540   1.218   0.236   1.286 -0.4049 -0.2206  0.0552
  514SOL  HW1   1541   1.250   0.165   1.222 -1.7399  0.5496  1.1399
  514SOL  HW2   1542   1.134   0.200   1.337  0.7961 -0.4108 -0.3562
  515SOL  OW    1543   0.857   0.869   0.840 -0.3794  0.0106 -0.0510
  515SOL  HW1   1544   0.911   0.794   0.792 -0.9750  2.5298 -0.5566
  515SOL  HW2   1545   0.829   0.937   0.769 -1.0305 -2.1203 -2.1424
  516SOL  OW    1546   1.704   0.280   0.490 -0.5463 -0.0974  0.2216
  516SOL  HW1   1547   1.733   0.186   0.499  1.6169 -2.1692  0.1255
  516SOL  HW2   1548   1.602   0.291   0.493 -0.3373 -0.3171  1.9955
  517SOL  OW    1549   1.816   2.320   0.738 -0.5484  0.3919  0.3494
  517SOL  HW1   1550   1.797   2.409   0.789 -0.0990  0.1041  1.2984
  517SOL  HW2   1551   1.888   2.255   0.776 -0.1568 -1.3127 -0.3511
  518SOL  OW    1552   1.444   0.329   0.171  0.8007  0.2479  0.2056
  518SOL  HW1   1553   1.399   0.348   0.259 -0.9040 -1.0319 -4.3086
  518SOL  HW2   1554   1.522   0.264   0.181 -0.5135 -0.0609 -2.7612
  519SOL  OW    1555   1.067   0.705   0.689 -0.1460 -0.0330  0.1314
  519SOL  HW1   1556   1.028   0.682   0.595 -0.6660  0.7085 -0.9907
  519SOL  HW2   1557   1.166   0.723   0.677 -3.0878  0.6921  1.3039
  520SOL  OW    1558   2.053   1.805   1.797 -0.5776 -0.2113 -0.5167
  520SOL  HW1   1559   2.059   1.753   1.885 -0.5232  1.4913 -1.7601
  520SOL  HW2   1560   2.132   1.777   1.734 -1.7987 -0.5873  1.6667
  521SOL  OW    1561   2.109   2.583   1.839 -0.1074 -0.1086 -0.1797
  521SOL  HW1   1562   2.083   2.543   1.927  2.3925  2.0697 -1.6156
  521SOL  HW2   1563   2.064   2.676   1.827 -1.2952  1.1559 -0.4493
  522SOL  OW    1564   0.377   0.613   1.674 -0.0878 -0.5916 -0.1457
  522SOL  HW1   1565   0.436   0.634   1.596 -0.0551 -1.6146 -2.5964
  522SOL  HW2   1566   0.298   0.684   1.679 -0.9253  2.9231  1.0172
  523SOL  OW    1567   0.562   2.774   2.109 -0.6023  0.6300 -0.1360
  523SOL  HW1   1568   0.467   2.802   2.125  1.4141 -2.1212  0.5873
  523SOL  HW2   1569   0.567   2.681   2.056  1.0591 -0.8866 -0.8440
  524SOL  OW    1570   1.614   2.799   0.887  0.3260 -0.1876  0.1446
  524SOL  HW1   1571   1.623   2.744   0.973 -2.8540 -1.2773 -0.3819
  524SOL  HW2   1572   1.555   2.884   0.892  0.9461  0.8069 -0.2522
  525SOL  OW    1573   2.984   1.648   2.486 -0.4356 -0.2032  0.6064
  525SOL  HW1   1574   2.882   1.638   2.499  1.3958 -1.8623  2.2171
  525SOL  HW2   1575   3.017   1.733   2.534  3.8689  0.7489  1.6078
  526SOL  OW    1576   0.523   2.383   1.234 -0.0778  0.1104  0.1933
  526SOL  HW1   1577   0.596   2.420   1.167  1.3638  0.0763 -1.2337
  526SOL  HW2   1578   0.524   2.281   1.232  0.1752 -1.1705 -2.1671
  527SOL  OW    1579   1.329   0.582   0.891  0.2237 -0.0359 -0.0236
  527SOL  HW1   1580   1.270   0.625   0.826  4.1074  1.2938  1.1285
  527SOL  HW2   1581   1.295   0.590   0.989 -1.8858 -1.3396  1.5951
  528SOL  OW    1582   1.613   1.487   2.673  0.4269 -0.0732 -0.4674
  528SOL  HW1   1583   1.642   1.537   2.589 -1.2897 -0.7472  0.4674
  528SOL  HW2   1584   1.663   1.392   2.684  0.6473 -1.9731 -1.1540
  529SOL  OW    1585   0.649   1.473   0.869 -0.1933 -0.1811 -0.1488
  529SOL  HW1   1586   0.603   1.420   0.939 -0.2145  2.2461 -0.1638
  529SOL  HW2   1587   0.662   1.571   0.897  0.1820 -0.8402 -0.3325
  530SOL  OW    1588   0.882   0.605   1.769 -0.0596 -0.1225 -0.4459
  530SOL  HW1   1589   0.837   0.692   1.759 -2.7983  0.2125 -1.3764
  530SOL  HW2   1590   0.916   0.589   1.862 -1.6818  0.2920  0.0400
  531SOL  OW    1591   1.767   0.797   2.755  0.0857 -0.0862  0.2733
  531SOL  HW1   1592   1.740   0.894   2.746 -0.8400 -0.7735  0.6202
  531SOL  HW2   1593   1.718   0.732   2.694  0.3194 -0.0745 -1.3838
  532SOL  OW    1594   1.570   2.612   1.363  0.1996  0.2495  0.1281
  532SOL  HW1   1595   1.571   2.522   1.413 -2.0698  0.6624 -1.2094
  532SOL  HW2   1596   1.474   2.649   1.381 -0.6999 -0.7200 -1.0592
  533SOL  OW    1597   0.487   3.029   1.514  0.1618 -0.0160 -0.0080
  533SOL  HW1   1598   0.514   3.089   1.437 -2.3670 -2.2530  0.0093
  533SOL  HW2   1599   0.479   3.091   1.594  0.2710 -2.1774  3.7199
  534SOL  OW    1600   0.455   2.553   2.679  0.4950  0.4477 -0.1786
  534SOL  HW1   1601   0.414   2.583   2.591 -2.4110 -0.1601 -0.9800
  534SOL  HW2   1602   0.403   2.598   2.755 -1.1200 -0.3260  0.6253
  535SOL  OW    1603   0.945   0.695   0.159  0.0250  0.0162  0.0565
  535SOL  HW1   1604   0.957   0.635   0.073 -0.1679 -1.0055 -1.0090
  535SOL  HW2   1605   0.896   0.779   0.137  0.0904 -0.7902  2.4756
  536SOL  OW    1606   0.820   2.688   1.487  0.2064 -0.0998  0.2036
  536SOL  HW1   1607   0.855   2.595   1.509  0.4089  1.5876 -0.0319
  536SOL  HW2   1608   0.847   2.752   1.559  1.0253  1.0961 -0.8877
  537SOL  OW    1609   2.199   0.157   1.145  0.1785 -0.3663 -0.1259
  537SOL  HW1   1610   2.234   0.076   1.094  1.1244  0.0347  0.1423
  537SOL  HW2   1611   2.268   0.195   1.206 -0.5904  1.1654 -1.2098
  538SOL  OW    1612   1.024   1.994   0.071 -0.1777 -0.2181  0.0106
  538SOL  HW1   1613   1.005   2.094   0.054  0.5780  1.6619 -0.6148
  538SOL  HW2   1614   0.946   1.954   0.120  1.2123 -0.3829  0.6091
  539SOL  OW    1615   2.649   2.512   2.329  0.4051 -0.5964 -0.4054
  539SOL  HW1   1616   2.709   2.591   2.355 -0.9079  2.6161 -0.3768
  539SOL  HW2   1617   2.670   2.427   2.375 -0.0796 -1.4350 -0.7024
  540SOL  OW    1618   2.081   0.859   2.976 -0.4006  0.0270  0.5823
  540SOL  HW1   1619   1.984   0.835   2.960 -1.1468  1.8481  0.6321
  540SOL  HW2   1620   2.084   0.931   3.045  0.9670 -1.0508  2.0349
  541SOL  OW    1621   1.949   2.998   1.612  0.5233  0.4790  0.0167
  541SOL  HW1   1622   1.875   3.049   1.659  0.9029 -2.0420 -1.0650
  541SOL  HW2   1623   1.947   2.985   1.511  1.8282  0.5982 -2.3281
  542SOL  OW    1624   1.558   1.945   2.583 -0.0473 -0.0023  0.0942
  542SOL  HW1   1625   1.571   1.875   2.506  1.1387 -0.4053 -0.5004
  542SOL  HW2   1626   1.462   1.985   2.577  1.2727  1.5742  2.5353
  543SOL  OW    1627   0.732   0.146   0.823 -0.4161 -0.0231 -0.3971
  543SOL  HW1   1628   0.790   0.167   0.908  1.4359 -0.6426  0.1355
  543SOL  HW2   1629   0.721   0.045   0.811  0.3854  0.8543 -2.4087
  544SOL  OW    1630   0.779   1.842   2.325  0.1675  0.2788  0.2619
  544SOL  HW1   1631   0.750   1.917   2.390 -0.4379  0.2293 -0.0686
  544SOL  HW2   1632   0.719   1.850   2.244  1.0344 -0.0755  1.8616
  545SOL  OW    1633   1.393   1.694   1.661 -0.3563  0.1120  0.4550
  545SOL  HW1   1634   1.400   1.650   1.568  1.4321 -2.4573  0.6625
  545SOL  HW2   1635   1.348   1.625   1.722 -0.9686  1.2617 -1.3442
  546SOL  OW    1636   2.117   0.851   2.060 -0.1217  0.3552 -0.0450
  546SOL  HW1   1637   2.139   0.751   2.062  1.0155 -0.9375 -0.3695
  546SOL  HW2   1638   2.202   0.908   2.039  0.7328  0.7188 -0.1613
  547SOL  OW    1639   2.870   3.005   0.191  0.8024  0.0837  0.7447
  547SOL  HW1   1640   2.795   3.009   0.122 -0.9168  0.3008 -0.1702
  547SOL  HW2   1641   2.963   2.990   0.151 -0.3383  0.5723  3.7701
  548SOL  OW    1642   1.517   2.863   2.662 -0.3970 -0.0832  0.3231
  548SOL  HW1   1643   1.528   2.962   2.646  0.1682  1.9105 -3.5199
  548SOL  HW2   1644   1.511   2.833   2.758  1.6793 -2.1244 -0.1392
  549SOL  OW    1645   0.010   0.653   2.870  0.2834  0.5319  0.3369
  549SOL  HW1   1646   3.020   0.628   2.917 -0.0647  0.0404  0.3979
  549SOL  HW2   1647   3.085   0.717   2.796 -0.2093  0.5693 -0.1523
  550SOL  OW    1648   0.084   2.453   1.253  0.8445  0.6403 -0.0825
  550SOL  HW1   1649   0.138   2.523   1.201 -0.7387 -3.9961  0.2722
  550SOL  HW2   1650   0.137   2.437   1.342 -0.4883 -0.2556  1.7171
  551SOL  OW    1651   0.864   0.143   1.067  0.1163  0.2508 -0.2641
  551SOL  HW1   1652   0.878   0.243   1.079  1.1923  0.0582 -1.4881
  551SOL  HW2   1653   0.842   0.100   1.162 -1.7449 -1.4782 -0.5701
  552SOL  OW    1654   1.631   1.267   0.592  0.2804 -0.4292 -0.0721
  552SOL  HW1   1655   1.615   1.194   0.525 -1.0532  0.9933  2.4298
  552SOL  HW2   1656   1.608   1.360   0.555  0.6278  0.0568 -0.2664
  553SOL  OW    1657   2.565   2.405   2.798 -0.1614  0.1349  0.1935
  553SOL  HW1   1658   2.582   2.445   2.890 -0.3925  1.0497 -1.4577
  553SOL  HW2   1659   2.524   2.471   2.733  0.5139 -1.4440  0.6486
  554SOL  OW    1660   2.137   2.183   1.853 -0.1808 -0.6123 -0.0305
  554SOL  HW1   1661   2.044   2.215   1.888 -0.8229 -0.3496  1.3535
  554SOL  HW2   1662   2.157   2.086   1.877  2.7343  2.6221 -0.7219
  555SOL  OW    1663   0.777   1.821   1.692  0.1706 -0.5881 -0.0237
  555SOL  HW1   1664   0.774   1.793   1.790  0.7147  1.0335 -0.5580
  555SOL  HW2   1665   0.844   1.762   1.643 -3.2707  0.0026 -0.9776
  556SOL  OW    1666   1.301   0.663   1.594  0.3625  0.2163 -0.2804
  556SOL  HW1   1667   1.201   0.631   1.605 -1.1570  2.7610 -0.4486
  556SOL  HW2   1668   1.354   0.624   1.518  0.6649 -0.4668  0.2434
  557SOL  OW    1669   1.268   2.987   2.167 -0.0606  0.2468 -0.0363
  557SOL  HW1   1670   1.265   3.090   2.171 -1.7134  1.4903  0.0021
  557SOL  HW2   1671   1.220   2.946   2.250  0.7529 -1.7975 -2.0744
  558SOL  OW    1672   0.230   0.343   1.494  0.0698 -0.5499  0.3907
  558SOL  HW1   1673   0.208   0.250   1.515 -0.0929  2.0639 -3.5565
  558SOL  HW2   1674   0.315   0.375   1.532 -3.5431 -1.6288  0.6500
  559SOL  OW    1675   0.921   2.778   0.034 -0.2953 -0.2100  1.0287
  559SOL  HW1   1676   0.917   2.855   3.062 -0.1887 -0.6636 -0.8260
  559SOL  HW2   1677   0.876   2.695   3.094 -2.5551 -0.3584 -0.6067
  560SOL  OW    1678   2.905   1.988   2.820  0.0330 -0.3971 -0.1558
  560SOL  HW1   1679   2.979   2.018   2.888  1.6981 -1.2898  1.7630
  560SOL  HW2   1680   2.815   1.961   2.861  1.1113 -1.9319 -0.0981
  561SOL  OW    1681   1.564   2.946   0.299  0.0297  0.4611 -0.2956
  561SOL  HW1   1682   1.530   3.042   0.286 -0.6037  2.2061  0.2709
  561SOL  HW2   1683   1.623   2.936   0.384  0.9149 -0.8611  1.1142
  562SOL  OW    1684   1.643   1.400   2.200 -0.2411  0.0920  0.3284
  562SOL  HW1   1685   1.539   1.416   2.191  2.3106  1.2843 -2.1794
  562SOL  HW2   1686   1.683   1.340   2.127  2.8176 -1.6199  1.5380
  563SOL  OW    1687   0.629   2.543   1.986  0.2237  0.2048 -0.0677
  563SOL  HW1   1688   0.581   2.463   1.939  0.0233  0.2096 -0.6539
  563SOL  HW2   1689   0.731   2.531   1.993 -1.5931  0.8521  0.9526
  564SOL  OW    1690   2.127   1.328   1.703  0.0490  0.0842 -0.0950
  564SOL  HW1   1691   2.212   1.280   1.673  2.4592 -0.8424 -0.6047
  564SOL  HW2   1692   2.105   1.398   1.631  1.5722  1.4403 -1.0914
  565SOL  OW    1693   2.353   2.242   0.373  0.3453 -0.4866  0.3691
  565SOL  HW1   1694   2.287   2.277   0.442 -0.9644  0.4479  0.3687
  565SOL  HW2   1695   2.318   2.152   0.343  2.1393  0.5016 -3.3124
  566SOL  OW    1696   0.556   2.767   1.486  0.7446 -0.4153 -0.6685
  566SOL  HW1   1697   0.539   2.868   1.497  1.9943  0.1176  2.8481
  566SOL  HW2   1698   0.653   2.745   1.464 -1.4525  2.1290 -0.8986
  567SOL  OW    1699   0.743   2.969   0.800  0.2380 -0.2795 -0.0723
  567SOL  HW1   1700   0.828   2.995   0.856  1.6736  2.1544  1.7466
  567SOL  HW2   1701   0.765   2.932   0.708  0.1023 -0.9032 -0.9642
  568SOL  OW    1702   2.006   0.785   0.854 -0.0055 -0.1692  0.4726
  568SOL  HW1   1703   1.949   0.768   0.938  2.3009  1.0597 -0.8993
  568SOL  HW2   1704   2.017   0.699   0.802 -1.5230  1.6762 -0.3545
  569SOL  OW    1705   2.220   0.774   0.273  0.1140 -0.6835 -0.3825
  569SOL  HW1   1706   2.313   0.816   0.297 -1.1428  0.7125 -0.2678
  569SOL  HW2   1707   2.223   0.722   0.184  0.9314  0.7031 -2.1971
  570SOL  OW    1708   2.100   2.600   0.870 -1.0256 -0.8216 -0.1454
  570SOL  HW1   1709   2.111   2.647   0.962  1.9511  0.1247  0.9365
  570SOL  HW2   1710   2.006   2.555   0.870 -1.9318 -0.2626  1.0554
  571SOL  OW    1711   1.939   2.966   1.317  0.1297 -0.2517  0.0019
  571SOL  HW1   1712   1.883   2.878   1.323  0.0715 -1.5679  1.1941
  571SOL  HW2   1713   2.039   2.942   1.316 -0.1543 -0.3828  0.2968
  572SOL  OW    1714   1.213   2.481   2.622  0.7803 -0.7750  0.0543
  572SOL  HW1   1715   1.140   2.515   2.560 -1.7159 -0.6017  0.5592
  572SOL  HW2   1716   1.201   2.384   2.641 -0.5613  4.0938 -0.4419
  573SOL  OW    1717   1.137   2.678   1.615  0.1039 -0.0833  0.0007
  573SOL  HW1   1718   1.173   2.652   1.707 -0.6315  1.2482 -1.2686
  573SOL  HW2   1719   1.088   2.764   1.610  1.8494 -1.4770 -0.2094
  574SOL  OW    1720   1.380   0.045   0.417  0.3747 -0.3047  0.4134
  574SOL  HW1   1721   1.370   0.149   0.429  0.2058  2.7741  0.9517
  574SOL  HW2   1722   1.421   0.001   0.500 -3.1172  0.1413  1.4280
  575SOL  OW    1723   2.968   0.619   1.437  0.2762 -0.0915 -0.4514
  575SOL  HW1   1724   3.073   0.630   1.424  0.1958  2.6685  1.6367
  575SOL  HW2   1725   2.932   0.679   1.364  3.0213  0.2365  1.1626
  576SOL  OW    1726   1.831   2.016   0.889  0.1022  0.2166  0.3874
  576SOL  HW1   1727   1.789   2.091   0.945 -0.9107 -2.3017  0.5699
  576SOL  HW2   1728   1.918   2.055   0.847 -0.6034  0.8993  0.5046
  577SOL  OW    1729   2.014   0.307   0.239 -0.1760 -0.2036  0.7774
  577SOL  HW1   1730   1.931   0.362   0.212  1.3208  0.4398  0.8566
  577SOL  HW2   1731   2.067   0.359   0.313 -0.8700 -0.8579 -2.9854
  578SOL  OW    1732   1.938   1.723   2.237  0.1942 -0.3269  0.1801
  578SOL  HW1   1733   1.884   1.789   2.289 -1.6867 -1.6691 -0.1456
  578SOL  HW2   1734   1.872   1.681   2.171  1.9631 -0.5497  0.4963
  579SOL  OW    1735   0.734   1.577   1.255  0.0903  0.3041  0.2445
  579SOL  HW1   1736   0.742   1.564   1.356  0.6660  0.5139 -0.1122
  579SOL  HW2   1737   0.827   1.610   1.236  1.6460 -0.4880 -0.7599
  580SOL  OW    1738   1.715   0.151   1.922 -0.2462 -0.6001 -0.1962
  580SOL  HW1   1739   1.767   0.238   1.891  1.1988  2.1837 -2.3461
  580SOL  HW2   1740   1.771   0.071   1.943  0.7700 -1.6034  0.5464
  581SOL  OW    1741   1.208   0.499   1.934  0.4836  0.1581 -0.1476
  581SOL  HW1   1742   1.234   0.440   1.854  0.8624  1.9567 -1.1679
  581SOL  HW2   1743   1.118   0.480   1.968  3.1249 -1.9031  0.4146
  582SOL  OW    1744   0.865   0.794   1.296 -0.1535 -0.4769 -0.2538
  582SOL  HW1   1745   0.803   0.830   1.372 -3.0653 -0.2923  3.7120
  582SOL  HW2   1746   0.877   0.856   1.217  1.5777 -2.0604  0.6243
  583SOL  OW    1747   0.806   2.060   1.827 -0.2716  0.1463  0.0187
  583SOL  HW1   1748   0.780   1.988   1.767  1.5693  1.7845  1.4020
  583SOL  HW2   1749   0.751   2.060   1.912  0.3111  0.8105 -1.1256
  584SOL  OW    1750   0.016   0.153   0.355  0.4766  0.9090 -0.1792
  584SOL  HW1   1751   0.078   0.080   0.331 -0.2698  2.4905 -0.5351
  584SOL  HW2   1752   3.085   0.205   0.273  0.3323  2.2666  1.4973
  585SOL  OW    1753   0.030   0.859   2.681 -0.0409 -0.1487 -0.4111
  585SOL  HW1   1754   0.081   0.880   2.598  2.1410  0.2585 -0.6902
  585SOL  HW2   1755   0.032   0.939   2.749  1.1730 -0.1607  2.3636
  586SOL  OW    1756   0.279   1.365   0.301 -0.0224  0.4477 -0.0225
  586SOL  HW1   1757   0.206   1.356   0.374 -0.6097  2.5117 -0.4088
  586SOL  HW2   1758   0.318   1.456   0.300 -2.1012 -2.7563  0.3730
  587SOL  OW    1759   1.809   2.551   0.923 -0.0207  0.3034 -0.1964
  587SOL  HW1   1760   1.740   2.583   0.991  1.3478  0.1010  0.0425
  587SOL  HW2   1761   1.814   2.619   0.847  0.0235 -1.9960  2.9836
  588SOL  OW    1762   0.979   1.676   1.571 -0.0072 -0.1312 -0.0399
  588SOL  HW1   1763   1.028   1.702   1.486 -0.6367  2.5772 -0.9225
  588SOL  HW2   1764   1.044   1.628   1.635  0.6082  1.7134  0.5724
  589SOL  OW    1765   0.473   2.676   0.794 -0.0231 -0.4536  0.0287
  589SOL  HW1   1766   0.502   2.608   0.863 -1.9042  1.4088  0.8968
  589SOL  HW2   1767   0.472   2.773   0.826 -0.8431 -0.1393  2.2498
  590SOL  OW    1768   1.783   0.754   1.008  0.6475  0.4537  0.2684
  590SOL  HW1   1769   1.716   0.691   0.964  0.7835  1.9193 -0.3550
  590SOL  HW2   1770   1.745   0.819   1.077  1.6144  0.8036  1.4710
  591SOL  OW    1771   2.708   1.870   2.497 -0.0129 -0.2987 -0.1386
  591SOL  HW1   1772   2.724   1.769   2.508  0.4381 -1.4650  1.0883
  591SOL  HW2   1773   2.797   1.921   2.480 -0.9865  1.8206  0.5436
  592SOL  OW    1774   2.095   0.382   1.421 -0.3370 -0.3862  0.0778
  592SOL  HW1   1775   2.192   0.411   1.430  1.0025 -0.6619 -0.9547
  592SOL  HW2   1776   2.058   0.403   1.332 -0.0307 -0.1809  1.7891
  593SOL  OW    1777   1.571   0.818   0.751  0.5224 -0.2955  0.2131
  593SOL  HW1   1778   1.576   0.744   0.819  0.3557 -1.9795  1.2133
  593SOL  HW2   1779   1.630   0.799   0.670  2.6783  0.9290  0.0048
  594SOL  OW    1780   0.631   0.997   2.104  0.5935 -0.3176 -0.3596
  594SOL  HW1   1781   0.682   0.928   2.053  0.0617  1.6342 -2.7569
  594SOL  HW2   1782   0.532   0.993   2.093 -0.1774 -1.4911  1.8194
  595SOL  OW    1783   0.273   2.877   1.458 -0.1004 -0.0365  0.3684
  595SOL  HW1   1784   0.270   2.895   1.360 -1.7217  0.3133  3.3192
  595SOL  HW2   1785   0.365   2.904   1.491  0.1669  1.2631 -1.6578
  596SOL  OW    1786   0.572   0.617   0.077 -0.1620  0.3258 -0.1381
  596SOL  HW1   1787   0.587   0.712   0.108  1.2712 -0.9231  0.3938
  596SOL  HW2   1788   0.619   0.552   0.141 -0.1248  0.8358 -0.2006
  597SOL  OW    1789   1.758   2.436   1.630 -0.0874 -0.0750  0.1169
  597SOL  HW1   1790   1.714   2.399   1.542 -1.1331  1.3747 -0.1161
  597SOL  HW2   1791   1.739   2.369   1.701 -1.1145 -1.7065  1.0873
  598SOL  OW    1792   0.160   2.068   2.284  0.1498  0.2874 -0.3027
  598SOL  HW1   1793   0.110   1.983   2.268 -0.2636  2.6512  0.0057
  598SOL  HW2   1794   0.134   2.137   2.213 -0.9265 -1.3640 -0.1215
  599SOL  OW    1795   2.887   2.069   1.366 -0.0089  0.0315 -0.3332
  599SOL  HW1   1796   2.894   2.033   1.272  1.0179  0.8451 -0.8769
  599SOL  HW2   1797   2.833   2.158   1.384 -1.6492  1.7078  3.9217
  600SOL  OW    1798   0.258   0.793   2.904  0.2115  0.0678  0.5731
  600SOL  HW1   1799   0.178   0.731   2.885 -1.3670  0.3232 -2.4096
  600SOL  HW2   1800   0.276   0.822   3.001 -1.9061  3.8793  1.4448
  601SOL  OW    1801   2.317   1.344   2.479  0.3902 -0.3452  0.4658
  601SOL  HW1   1802   2.302   1.270   2.416 -1.1010  3.8889  3.4878
  601SOL  HW2   1803   2.249   1.358   2.554  2.9123  0.1401  1.3725
  602SOL  OW    1804   0.772   1.398   1.904 -0.0637  0.0456  0.0326
  602SOL  HW1   1805   0.854   1.347   1.861  0.8152 -0.3647 -1.3842
  602SOL  HW2   1806   0.702   1.419   1.835  0.5653 -1.8503  2.3487
  603SOL  OW    1807   1.108   2.705   2.959 -0.4857 -0.0131  0.1921
  603SOL  HW1   1808   1.077   2.703   2.863  2.2854 -0.1663  3.7739
  603SOL  HW2   1809   1.036   2.720   3.027 -0.5896  1.4931  0.1025
  604SOL  OW    1810   1.089   2.409   2.175  0.5390  0.0574 -0.1523
  604SOL  HW1   1811   1.030   2.356   2.235  0.4976  1.8007 -0.8137
  604SOL  HW2   1812   1.173   2.366   2.134  0.5694  0.7346 -0.3191
  605SOL  OW    1813   2.565   0.285   1.038 -0.2832  0.0146  0.0406
  605SOL  HW1   1814   2.653   0.232   1.044  0.6706 -0.7793  0.7440
  605SOL  HW2   1815   2.542   0.311   0.942  3.3543 -0.7912 -0.1469
  606SOL  OW    1816   0.231   1.997   1.978  0.1292  0.0823 -0.0165
  606SOL  HW1   1817   0.188   2.081   2.023 -0.4108  2.3649  0.2878
  606SOL  HW2   1818   0.156   1.935   1.960 -0.8759  2.3879 -0.3573
  607SOL  OW    1819   2.045   1.399   2.898 -0.5058 -0.1412 -0.0304
  607SOL  HW1   1820   2.095   1.429   2.816 -0.9421 -0.3979  0.2685
  607SOL  HW2   1821   2.011   1.486   2.944  1.5922 -0.5757 -1.2813
  608SOL  OW    1822   1.102   2.543   1.007  0.1536  0.0509 -0.2155
  608SOL  HW1   1823   1.093   2.501   1.098  2.1286  0.5785  1.2064
  608SOL  HW2   1824   1.185   2.601   0.999  0.9250  0.9982 -0.6739
  609SOL  OW    1825   0.552   0.645   0.592  0.7669 -0.3423 -0.2812
  609SOL  HW1   1826   0.632   0.598   0.637  0.3893  0.9010  0.3779
  609SOL  HW2   1827   0.574   0.667   0.498 -1.6751  0.9381  0.0104
  610SOL  OW    1828   1.353   1.444   2.762 -0.1726  0.5481  0.0409
  610SOL  HW1   1829   1.441   1.463   2.716 -0.2264 -1.3094  0.6257
  610SOL  HW2   1830   1.278   1.470   2.699 -2.2329  0.7604 -0.1689
  611SOL  OW    1831   2.552   2.059   2.615  0.9968  0.1866  0.3727
  611SOL  HW1   1832   2.598   1.998   2.553 -1.1911  1.2291  0.8131
  611SOL  HW2   1833   2.578   2.049   2.714  0.7521  0.0751  3.4270
  612SOL  OW    1834   2.049   2.750   3.054 -0.3592 -0.6015 -0.0054
  612SOL  HW1   1835   1.997   2.793   2.980 -1.0207  1.2433 -1.5019
  612SOL  HW2   1836   2.055   2.653   3.045 -0.6980  2.8749  1.9819
  613SOL  OW    1837   2.046   1.319   2.113  0.5622 -0.1138 -0.5329
  613SOL  HW1   1838   2.020   1.235   2.055  1.5729  0.7675 -3.1126
  613SOL  HW2   1839   2.103   1.375   2.056 -0.6908 -3.2126  0.6143
  614SOL  OW    1840   2.103   2.640   1.156  0.3952  0.4206  0.3643
  614SOL  HW1   1841   2.049   2.600   1.233  0.9733  2.2576  0.0392
  614SOL  HW2   1842   2.194   2.675   1.179  0.0993 -0.5839 -1.1884
  615SOL  OW    1843   2.170   1.653   0.127  0.4565 -0.1559  0.1839
  615SOL  HW1   1844   2.107   1.653   0.050  1.3068  1.0699  2.5159
  615SOL  HW2   1845   2.168   1.565   0.178 -2.0157  2.6310  2.1802
  616SOL  OW    1846   1.017   0.159   1.479 -0.0011 -0.3523  0.1809
  616SOL  HW1   1847   0.964   0.095   1.422  0.0199 -0.2246 -1.0397
  616SOL  HW2   1848   0.968   0.248   1.483  0.1172  0.2992 -1.0611
  617SOL  OW    1849   0.342   2.585   0.261 -0.0476  0.4830  0.4492
  617SOL  HW1   1850   0.431   2.599   0.298 -2.3027 -0.0623  2.1039
  617SOL  HW2   1851   0.337   2.503   0.199  1.6554  1.2201 -0.2357
  618SOL  OW    1852   2.833   0.841   1.331  0.0492 -0.2859 -0.0751
  618SOL  HW1   1853   2.858   0.881   1.420 -0.2929 -1.8261 -1.6829
  618SOL  HW2   1854   2.734   0.853   1.307 -0.0821 -1.0066 -2.0935
  619SOL  OW    1855   0.431   1.797   0.082 -0.4301  0.2804 -1.0363
  619SOL  HW1   1856   0.342   1.841   0.067  1.8069 -3.5402 -0.2157
  619SOL  HW2   1857   0.426   1.701   0.111 -0.7899  1.0840  0.6826
  620SOL  OW    1858   2.302   2.186   2.606  0.3241  0.1326  0.1838
  620SOL  HW1   1859   2.261   2.127   2.531  0.3608 -0.4705 -0.9052
  620SOL  HW2   1860   2.397   2.156   2.626 -1.3549 -0.8940 -0.5433
  621SOL  OW    1861   2.381   0.634   1.072  0.1077 -0.0761 -0.3912
  621SOL  HW1   1862   2.477   0.602   1.097  3.0405  2.2686 -0.4387
  621SOL  HW2   1863   2.341   0.575   0.996  1.5725  0.2392 -1.4061
  622SOL  OW    1864   2.188   0.324   0.013  0.1251 -0.2822  0.8222
  622SOL  HW1   1865   2.133   0.352   3.025 -0.8695 -0.4338  0.3517
  622SOL  HW2   1866   2.127   0.299   0.093 -0.2205 -0.9579  1.3044
  623SOL  OW    1867   0.732   0.607   2.642 -0.5160  0.2197 -0.1626
  623SOL  HW1   1868   0.701   0.695   2.595 -0.4368 -1.1223 -0.4902
  623SOL  HW2   1869   0.666   0.586   2.721  0.5615 -1.6931  0.2158
  624SOL  OW    1870   1.570   1.213   2.393  0.2164  0.2456 -0.2340
  624SOL  HW1   1871   1.607   1.282   2.328  1.7281 -1.9650  0.1186
  624SOL  HW2   1872   1.471   1.226   2.415  2.1227  0.1277 -1.1373
  625SOL  OW    1873   1.266   1.102   0.848 -0.4345  0.8692  0.8660
  625SOL  HW1   1874   1.365   1.120   0.845 -3.2302  1.3456  0.2711
  625SOL  HW2   1875   1.223   1.067   0.761 -1.8974  1.8357  0.1040
  626SOL  OW    1876   2.060   1.974   2.157  0.1632  0.3087  0.0028
  626SOL  HW1   1877   1.979   2.032   2.160  1.4237 -1.2986 -0.2232
  626SOL  HW2   1878   2.033   1.874   2.148  0.1834  1.6152 -0.4351
  627SOL  OW    1879   0.053   1.680   1.718 -0.2664 -0.3940  0.1616
  627SOL  HW1   1880   0.118   1.593   1.712 -0.5195 -2.5927 -1.9216
  627SOL  HW2   1881   0.111   1.764   1.712  0.6009  2.0119 -2.0005
  628SOL  OW    1882   2.437   1.187   1.289 -0.2752  0.1140 -0.4563
  628SOL  HW1   1883   2.367   1.138   1.231  0.9472  0.6972 -0.8758
  628SOL  HW2   1884   2.455   1.283   1.274  0.9874  0.7100 -1.6684
  629SOL  OW    1885   2.585   0.571   0.404  0.3000 -0.4328 -0.1659
  629SOL  HW1   1886   2.541   0.554   0.498  1.0260 -2.8849  0.7220
  629SOL  HW2   1887   2.687   0.564   0.402 -2.0319  1.0105 -0.5457
  630SOL  OW    1888   1.774   1.491   1.836  0.1822 -0.2968  0.0199
  630SOL  HW1   1889   1.730   1.401   1.812 -2.8144 -2.6048 -1.3450
  630SOL  HW2   1890   1.817   1.519   1.753 -2.6856 -0.8587  2.8919
  631SOL  OW    1891   1.928   0.605   1.208  0.1355 -0.2199  0.0474
  631SOL  HW1   1892   1.863   0.638   1.137  0.4823  2.0285 -0.5008
  631SOL  HW2   1893   1.962   0.511   1.186 -2.6567  1.7676  2.0218
  632SOL  OW    1894   1.915   2.286   1.950 -0.1829  0.0024  0.1060
  632SOL  HW1   1895   1.821   2.297   1.911  2.8002  0.9578  1.6999
  632SOL  HW2   1896   1.950   2.375   1.982  0.5892 -0.7118  0.0519
  633SOL  OW    1897   0.177   0.534   0.419  0.3174 -0.2356  0.6100
  633SOL  HW1   1898   0.136   0.441   0.450 -0.9947 -2.8106  1.3364
  633SOL  HW2   1899   0.196   0.597   0.494  0.2669  0.3071 -2.9500
  634SOL  OW    1900   1.743   1.809   1.041 -0.7957  0.1979 -0.3599
  634SOL  HW1   1901   1.658   1.765   0.998 -0.7998 -1.6926  0.5208
  634SOL  HW2   1902   1.786   1.880   0.981 -0.0488  0.8263 -2.3442
  635SOL  OW    1903   2.364   1.839   1.279  0.4041  0.1129 -0.1193
  635SOL  HW1   1904   2.277   1.882   1.307 -0.9299  0.2384 -1.6685
  635SOL  HW2   1905   2.356   1.820   1.178  0.6726 -2.2965 -0.9309
  636SOL  OW    1906   0.615   1.107   1.141 -0.3679 -0.3631  0.5517
  636SOL  HW1   1907   0.703   1.153   1.138  0.8524 -1.4778 -2.0010
  636SOL  HW2   1908   0.604   1.040   1.062 -0.5884  1.4385 -1.2148
  637SOL  OW    1909   2.439   1.193   0.892 -0.6521  0.0131 -0.4261
  637SOL  HW1   1910   2.486   1.141   0.967  0.5686  0.2894  0.1518
  637SOL  HW2   1911   2.481   1.175   0.803 -1.8228  1.4025  3.4880
  638SOL  OW    1912   2.904   0.109   1.869 -0.2678 -0.5779 -0.4428
  638SOL  HW1   1913   2.934   0.146   1.780  2.4647 -0.9747  2.1926
  638SOL  HW2   1914   2.982   0.111   1.933 -0.9747  1.0333 -0.9599
  639SOL  OW    1915   0.240   2.362   1.891  0.1407  0.1580 -0.0503
  639SOL  HW1   1916   0.176   2.321   1.820  1.1018  0.8133  2.1863
  639SOL  HW2   1917   0.262   2.460   1.862  0.5744 -1.2800 -0.7292
  640SOL  OW    1918   0.025   2.957   0.081 -0.0019 -0.2530  0.1482
  640SOL  HW1   1919   0.054   3.010   3.095 -0.1495 -0.6547  2.3339
  640SOL  HW2   1920   0.111   2.932   0.131 -1.4852  0.8853  1.1230
  641SOL  OW    1921   2.913   1.244   2.968  0.2660 -0.1634 -0.2108
  641SOL  HW1   1922   2.814   1.253   2.944 -1.0253 -1.0278  2.3397
  641SOL  HW2   1923   2.923   1.281   3.064 -0.2553  0.2008  1.1086
  642SOL  OW    1924   2.247   1.734   1.622 -0.1778  0.6612  0.6959
  642SOL  HW1   1925   2.313   1.664   1.585 -2.7655  1.0928  0.5432
  642SOL  HW2   1926   2.211   1.798   1.548  0.7599 -0.4528  0.8262
  643SOL  OW    1927   0.635   2.684   2.396 -0.0439  0.0420 -0.0312
  643SOL  HW1   1928   0.629   2.722   2.302 -0.9454  0.4056 -0.0595
  643SOL  HW2   1929   0.542   2.674   2.431  0.7611  0.1289  0.8260
  644SOL  OW    1930   0.931   0.536   3.023  0.3278  0.5727 -0.0409
  644SOL  HW1   1931   0.976   0.456   2.972 -0.9168 -0.5016 -1.2194
  644SOL  HW2   1932   0.848   0.552   2.969  0.4283 -1.0990  1.3027
  645SOL  OW    1933   0.825   2.838   2.129 -0.1981  0.0709 -0.6833
  645SOL  HW1   1934   0.842   2.939   2.144 -1.0195  0.1350 -0.7161
  645SOL  HW2   1935   0.726   2.817   2.128  0.4201 -1.4086  0.5976
  646SOL  OW    1936   1.601   0.231   2.791  0.2102  0.3059  0.6481
  646SOL  HW1   1937   1.573   0.175   2.872  0.0418  1.4014  1.9540
  646SOL  HW2   1938   1.571   0.327   2.799  0.2863 -0.8614 -0.2556
  647SOL  OW    1939   0.320   2.645   2.879 -0.0665  0.0894 -0.4865
  647SOL  HW1   1940   0.265   2.568   2.915  1.9821  2.1529 -0.0916
  647SOL  HW2   1941   0.298   2.739   2.921 -0.2881  0.9592  0.8927
  648SOL  OW    1942   0.753   1.239   1.525  0.3381 -0.6230  0.3563
  648SOL  HW1   1943   0.836   1.188   1.492  1.5099  0.8515 -0.5659
  648SOL  HW2   1944   0.763   1.339   1.509 -0.4738  0.0760 -0.4670
  649SOL  OW    1945   2.248   2.598   2.796 -0.1764 -0.1660 -0.5181
  649SOL  HW1   1946   2.236   2.613   2.699 -0.3241 -3.0762  2.4595
  649SOL  HW2   1947   2.326   2.653   2.828 -0.9400  0.5222 -0.0811
  650SOL  OW    1948   0.347   1.799   2.138  0.1095  0.2170  0.1072
  650SOL  HW1   1949   0.319   1.896   2.120  0.5708  1.2711 -0.5506
  650SOL  HW2   1950   0.338   1.778   2.235  3.1983  0.8005  0.0148
  651SOL  OW    1951   1.236   0.844   2.186 -0.0808 -0.2749 -0.5403
  651SOL  HW1   1952   1.218   0.843   2.085  0.9055  0.6185 -1.0835
  651SOL  HW2   1953   1.337   0.861   2.206  1.1168  1.6679  1.6208
  652SOL  OW    1954   0.596   2.359   1.637  0.3719 -0.2405  0.4935
  652SOL  HW1   1955   0.553   2.427   1.565 -2.1816  1.4815 -1.5043
  652SOL  HW2   1956   0.567   2.267   1.609  1.7725  0.8591  2.5559
  653SOL  OW    1957   2.251   2.484   0.684  0.1436  0.8315  0.3477
  653SOL  HW1   1958   2.185   2.506   0.760 -3.1795  0.7458  2.1492
  653SOL  HW2   1959   2.244   2.551   0.604 -1.9314  1.0019 -1.5227
  654SOL  OW    1960   1.299   2.888   3.030 -0.6808 -0.1819  0.0156
  654SOL  HW1   1961   1.226   2.820   3.009  2.0650  3.1112 -1.4699
  654SOL  HW2   1962   1.272   2.981   2.992  0.4815  1.0211 -0.7295
  655SOL  OW    1963   2.181   2.247   0.619 -0.0401 -0.5070 -0.0104
  655SOL  HW1   1964   2.208   2.338   0.653 -2.6130 -4.4716 -2.0496
  655SOL  HW2   1965   2.091   2.255   0.576  1.0956  1.8688  0.9140
  656SOL  OW    1966   2.142   1.558   2.678  0.7411 -0.1903 -0.1998
  656SOL  HW1   1967   2.121   1.585   2.580  1.8238 -1.4159 -1.9159
  656SOL  HW2   1968   2.245   1.568   2.689  0.4616  1.1223 -2.6849
  657SOL  OW    1969   2.542   1.710   2.943 -0.1793 -0.1895  0.4142
  657SOL  HW1   1970   2.473   1.740   3.013 -1.2626 -1.5481  3.1258
  657SOL  HW2   1971   2.611   1.652   2.992 -0.1461  2.2329  0.4799
  658SOL  OW    1972   0.704   0.879   0.109  0.3424  0.2321 -0.0299
  658SOL  HW1   1973   0.695   0.977   0.122  0.1111 -2.3353  0.5702
  658SOL  HW2   1974   0.693   0.860   0.012 -2.9267  0.4496 -0.7412
  659SOL  OW    1975   0.509   2.287   1.878 -0.0184 -0.1491 -0.1884
  659SOL  HW1   1976   0.406   2.279   1.886  0.1630  1.1036  1.4117
  659SOL  HW2   1977   0.545   2.308   1.783 -1.6056  0.5889 -0.6200
  660SOL  OW    1978   2.532   3.017   2.790  0.0351 -0.5560  0.0671
  660SOL  HW1   1979   2.457   3.058   2.740  0.9698  0.1779 -0.3751
  660SOL  HW2   1980   2.507   2.924   2.816  1.8028 -0.9485 -1.3921
  661SOL  OW    1981   2.889   1.172   0.326 -0.6567  0.2919  0.2426
  661SOL  HW1   1982   2.936   1.237   0.258 -0.5824 -0.5566 -2.1896
  661SOL  HW2   1983   2.941   1.084   0.330 -2.0968  1.9657 -1.2955
  662SOL  OW    1984   1.955   0.903   1.852  0.4339  0.4180  0.1355
  662SOL  HW1   1985   1.955   0.809   1.817 -2.7981 -0.2774 -0.2245
  662SOL  HW2   1986   2.016   0.905   1.929  0.4853 -1.0103  0.1708
  663SOL  OW    1987   2.092   1.893   1.406 -0.1241  0.5011  0.4440
  663SOL  HW1   1988   2.041   1.978   1.431  1.6865 -1.1992  1.1503
  663SOL  HW2   1989   2.055   1.839   1.328 -1.1114 -0.2734  1.9668
  664SOL  OW    1990   1.592   1.025   1.595 -0.0268  0.2061 -0.4677
  664SOL  HW1   1991   1.555   0.985   1.509 -0.9270  0.4024  2.0407
  664SOL  HW2   1992   1.694   1.016   1.593  1.3473  1.3097  0.9047
  665SOL  OW    1993   1.507   2.386   2.775  0.1359  0.4768  0.9136
  665SOL  HW1   1994   1.598   2.362   2.813 -1.8297  1.1095  1.2945
  665SOL  HW2   1995   1.436   2.418   2.836  2.0550  0.3053 -1.9069
  666SOL  OW    1996   0.209   0.078   1.574  0.4057  0.1517  0.4446
  666SOL  HW1   1997   0.293   0.095   1.631 -1.9830 -1.3507 -0.0796
  666SOL  HW2   1998   0.195   3.075   1.547  1.6200 -0.7550  0.8189
  667SOL  OW    1999   1.338   1.465   2.156 -0.2754  0.4502 -0.5660
  667SOL  HW1   2000   1.277   1.389   2.141  1.7799 -0.5718 -0.3858
  667SOL  HW2   2001   1.380   1.489   2.065 -0.0859  0.7070  1.4146
  668SOL  OW    2002   2.921   1.402   0.827 -0.9557 -0.3569  0.0021
  668SOL  HW1   2003   2.928   1.489   0.881  2.3060 -1.8880  0.4252
  668SOL  HW2   2004   2.847   1.344   0.863  2.3507 -0.7200 -1.4160
  669SOL  OW    2005   2.571   2.092   0.807 -0.6439 -0.4487 -0.4787
  669SOL  HW1   2006   2.547   2.191   0.781 -2.9339  1.7064 -2.0813
  669SOL  HW2   2007   2.572   2.082   0.908  0.0958 -1.8025 -1.3428
  670SOL  OW    2008   2.637   2.145   1.075  0.2429  0.2293  0.4982
  670SOL  HW1   2009   2.728   2.101   1.082  0.2888  2.6167 -1.2605
  670SOL  HW2   2010   2.583   2.149   1.160  3.0674  0.5329  1.9027
  671SOL  OW    2011   0.177   2.653   1.082 -0.3143 -0.1963  0.6867
  671SOL  HW1   2012   0.209   2.747   1.122  1.0028  3.8371  0.6551
  671SOL  HW2   2013   0.107   2.664   1.007  0.8574 -1.1238 -0.2591
  672SOL  OW    2014   1.191   0.921   1.088 -0.2988 -0.0582 -0.1538
  672SOL  HW1   2015   1.223   0.968   1.000 -1.4988  3.2661  2.2834
  672SOL  HW2   2016   1.089   0.917   1.088  3.1681  1.4480 -1.5691
  673SOL  OW    2017   0.848   0.016   1.304 -0.7875 -0.1577  0.3966
  673SOL  HW1   2018   0.754   0.045   1.324  2.7575 -0.3220 -2.4223
  673SOL  HW2   2019   0.866   3.012   1.294  1.7146 -0.2638 -0.4983
  674SOL  OW    2020   0.082   0.603   2.085  0.5133  0.5068  0.7540
  674SOL  HW1   2021   0.121   0.602   2.179  0.6798  1.7676 -5.0879
  674SOL  HW2   2022   3.095   0.664   2.082 -0.1460  1.2527 -1.0289
  675SOL  OW    2023   2.403   1.568   0.497  0.0296 -0.4449 -0.5501
  675SOL  HW1   2024   2.428   1.658   0.543  0.4648  1.3994 -1.1893
  675SOL  HW2   2025   2.319   1.529   0.544 -3.6944 -0.9554 -0.7695
  676SOL  OW    2026   0.610   1.154   2.323  0.1854 -0.8160 -0.2164
  676SOL  HW1   2027   0.625   1.099   2.239  0.1956  0.2073  1.1912
  676SOL  HW2   2028   0.694   1.207   2.347 -2.5761  1.7226 -0.2767
  677SOL  OW    2029   1.629   0.957   2.418 -0.0307  0.4464 -0.1499
  677SOL  HW1   2030   1.722   0.957   2.456  0.3416 -2.6863  1.0780
  677SOL  HW2   2031   1.600   1.055   2.409 -0.1669 -1.1683  0.6008
  678SOL  OW    2032   2.082   1.502   1.475 -0.3814 -0.1924  0.0933
  678SOL  HW1   2033   2.063   1.413   1.427  0.1391  2.0032 -0.3873
  678SOL  HW2   2034   2.155   1.557   1.428 -0.4647  0.4308  0.6463
  679SOL  OW    2035   3.063   3.055   0.768  0.1685 -0.4501  0.2905
  679SOL  HW1   2036   3.040   2.999   0.848  1.3454  0.9319 -1.9362
  679SOL  HW2   2037   0.069   3.059   0.763 -0.1060  0.3540 -4.2819
  680SOL  OW    2038   2.661   0.861   1.707 -0.0070 -0.0304 -0.4355
  680SOL  HW1   2039   2.632   0.779   1.765 -1.4364 -0.4137 -1.2107
  680SOL  HW2   2040   2.594   0.884   1.634  2.7816  0.4489 -0.9880
  681SOL  OW    2041   0.892   1.314   0.845 -0.1523 -0.0890 -0.1489
  681SOL  HW1   2042   0.932   1.296   0.751 -1.7733 -0.4468  2.2953
  681SOL  HW2   2043   0.799   1.351   0.833  1.9701 -0.9865 -0.4485
  682SOL  OW    2044   2.281   0.197   0.808  0.1723 -0.5675  0.2002
  682SOL  HW1   2045   2.214   0.181   0.737 -2.3892  0.7306  3.8263
  682SOL  HW2   2046   2.270   0.120   0.868 -2.4695  2.0593 -0.4259
  683SOL  OW    2047   2.039   0.015   0.668  0.2972 -0.0639 -0.2281
  683SOL  HW1   2048   2.016   0.059   0.760 -2.7912  0.0293  0.9432
  683SOL  HW2   2049   2.095   0.075   0.609 -0.0331 -2.1494  2.3816
  684SOL  OW    2050   0.066   2.283   1.678  0.2996 -0.1834  0.6887
  684SOL  HW1   2051   0.039   2.193   1.639 -2.1260 -3.4830  0.0016
  684SOL  HW2   2052   3.079   2.346   1.700 -2.3993  0.7098  0.9687
  685SOL  OW    2053   2.099   1.065   0.068  0.0366 -0.3227 -0.4009
  685SOL  HW1   2054   2.012   1.112   0.051  2.3746  1.3009  0.2925
  685SOL  HW2   2055   2.136   1.104   0.153 -0.3878 -1.2805 -0.8477
  686SOL  OW    2056   1.130   1.312   2.123  0.1784  0.3668 -0.6791
  686SOL  HW1   2057   1.116   1.229   2.177 -2.0429 -1.8532 -3.1928
  686SOL  HW2   2058   1.074   1.392   2.146 -0.6362 -1.6021 -0.2062
  687SOL  OW    2059   1.181   2.881   1.900 -0.3657  0.0921 -0.0703
  687SOL  HW1   2060   1.128   2.948   1.839 -2.0048  1.4529 -2.1668
  687SOL  HW2   2061   1.193   2.930   1.988  0.4063 -1.8696 -1.0884
  688SOL  OW    2062   0.841   1.017   2.539  0.2418  0.2595 -0.4020
  688SOL  HW1   2063   0.751   0.967   2.556  0.3103  1.8119 -0.5619
  688SOL  HW2   2064   0.830   1.105   2.485  0.0232  0.6568  0.2405
  689SOL  OW    2065   0.445   0.941   2.414 -0.5577 -0.2286 -0.3574
  689SOL  HW1   2066   0.346   0.942   2.437  1.9376  0.0806 -1.5409
  689SOL  HW2   2067   0.487   1.029   2.388  1.4860 -0.5065 -0.4112
  690SOL  OW    2068   1.862   2.163   2.188 -0.2754  0.0625 -0.1366
  690SOL  HW1   2069   1.774   2.122   2.151 -1.3829  0.7211 -0.7462
  690SOL  HW2   2070   1.905   2.216   2.110 -0.2661 -0.3482  0.4273
  691SOL  OW    2071   2.949   2.030   1.823  0.1542  0.1430 -0.0188
  691SOL  HW1   2072   2.876   2.101   1.808 -1.9125  0.9037  0.3728
  691SOL  HW2   2073   3.000   2.030   1.736 -2.9289 -2.0821  1.0956
  692SOL  OW    2074   2.514   0.580   2.733 -0.0152 -0.5637 -0.3359
  692SOL  HW1   2075   2.489   0.507   2.798  1.4190  0.8496  2.9867
  692SOL  HW2   2076   2.608   0.612   2.756 -1.2320 -2.2924  1.7292
  693SOL  OW    2077   2.616   1.559   2.170  0.0560  0.3090 -0.1198
  693SOL  HW1   2078   2.688   1.627   2.165 -2.0899 -3.0290  0.3486
  693SOL  HW2   2079   2.579   1.554   2.269  0.9990 -1.7780  1.1176
  694SOL  OW    2080   2.361   0.475   1.436 -0.3141 -0.9970 -0.0087
  694SOL  HW1   2081   2.425   0.464   1.519  1.3793  0.4983  2.1119
  694SOL  HW2   2082   2.393   0.417   1.360  0.3054 -0.6989  1.9176
  695SOL  OW    2083   1.690   0.041   1.647  0.2652  0.3794  0.1084
  695SOL  HW1   2084   1.670   0.092   1.733  0.7307 -0.7063 -2.2393
  695SOL  HW2   2085   1.680   0.100   1.566 -0.2753  0.6637  2.6486
  696SOL  OW    2086   1.950   2.522   1.350  0.0841  0.3452  0.2710
  696SOL  HW1   2087   1.909   2.442   1.301  0.4476 -2.0605 -0.4613
  696SOL  HW2   2088   2.011   2.489   1.428  2.4234  0.6758  0.6093
  697SOL  OW    2089   1.463   1.579   1.929  0.2588  0.0668  0.1507
  697SOL  HW1   2090   1.561   1.571   1.921 -0.7697  0.0495  0.5288
  697SOL  HW2   2091   1.430   1.676   1.950 -2.8613  3.2602  3.4922
  698SOL  OW    2092   0.225   1.344   2.305  0.4753 -0.4179 -0.3441
  698SOL  HW1   2093   0.157   1.275   2.275 -0.4051 -1.5779  1.5107
  698SOL  HW2   2094   0.180   1.437   2.314 -0.6749  0.6322 -1.3192
  699SOL  OW    2095   1.500   0.832   2.191 -0.2742  0.4776 -0.4245
  699SOL  HW1   2096   1.559   0.857   2.110 -0.6356 -1.7258 -2.3734
  699SOL  HW2   2097   1.536   0.881   2.271 -0.1257  1.1471  2.3358
  700SOL  OW    2098   3.081   0.792   0.619 -0.1342 -0.2494  0.4698
  700SOL  HW1   2099   3.038   0.702   0.637 -0.4910  0.1613 -1.7082
  700SOL  HW2   2100   3.028   0.846   0.544  1.9333  0.5857 -0.5092
  701SOL  OW    2101   2.744   0.516   0.092 -0.5799  0.0784  0.4594
  701SOL  HW1   2102   2.645   0.517   0.065 -1.3643 -0.2556  0.4821
  701SOL  HW2   2103   2.765   0.426   0.135 -2.1701  0.2340 -0.9840
  702SOL  OW    2104   1.238   2.610   1.853  0.0591  0.0150 -0.3999
  702SOL  HW1   2105   1.321   2.587   1.906  0.0753  2.1617  0.2743
  702SOL  HW2   2106   1.197   2.690   1.897  1.8439 -0.9923 -3.4546
  703SOL  OW    2107   2.516   3.040   1.654  0.3004  0.0917  0.8053
  703SOL  HW1   2108   2.420   3.012   1.662 -0.6110 -2.7725 -0.1773
  703SOL  HW2   2109   2.569   2.960   1.619  1.6751 -0.3977 -1.3467
  704SOL  OW    2110   1.056   0.030   0.682 -0.1496  0.1895 -0.6313
  704SOL  HW1   2111   1.050   3.060   0.609 -0.1097  2.0623  0.6287
  704SOL  HW2   2112   1.017   3.088   0.769 -2.8419 -0.7143 -0.8856
  705SOL  OW    2113   0.256   1.595   0.891 -0.3962 -0.1170  0.2201
  705SOL  HW1   2114   0.281   1.546   0.981  1.0764 -3.4621 -0.6241
  705SOL  HW2   2115   0.174   1.551   0.843 -1.0289 -0.8897  1.6570
  706SOL  OW    2116   2.834   0.778   0.224 -0.1708  0.0434  0.1668
  706SOL  HW1   2117   2.791   0.690   0.205 -0.1239  1.6793 -0.9570
  706SOL  HW2   2118   2.884   0.804   0.139  2.3001 -1.8279  2.7594
  707SOL  OW    2119   2.462   2.590   2.146 -0.1635  0.2124 -0.4435
  707SOL  HW1   2120   2.544   2.591   2.212 -0.0377 -1.5376 -0.5960
  707SOL  HW2   2121   2.489   2.553   2.055  0.5799 -0.6116 -2.8974
  708SOL  OW    2122   2.668   0.548   1.439  0.4513  0.5061 -0.3908
  708SOL  HW1   2123   2.743   0.609   1.461 -1.5118 -0.6055  1.7253
  708SOL  HW2   2124   2.639   0.501   1.526  0.0896  0.2185  0.1963
  709SOL  OW    2125   2.677   0.711   0.734 -0.3391  0.8818  0.3003
  709SOL  HW1   2126   2.690   0.723   0.838  1.0357 -0.6074 -0.9090
  709SOL  HW2   2127   2.601   0.647   0.715  0.1385  1.5172 -0.4010
  710SOL  OW    2128   2.810   0.291   0.240  0.0849 -0.6507  0.1000
  710SOL  HW1   2129   2.773   0.206   0.281 -0.0796 -1.8553 -0.2185
  710SOL  HW2   2130   2.901   0.274   0.194 -0.1321 -0.3006 -1.5827
  711SOL  OW    2131   0.610   1.865   0.579 -0.0353  0.0502 -0.3956
  711SOL  HW1   2132   0.649   1.934   0.647  0.0163 -1.7048  0.6937
  711SOL  HW2   2133   0.511   1.857   0.595  0.9006  1.6178  0.2287
  712SOL  OW    2134   3.044   0.190   1.644 -0.1814 -0.1754 -0.1891
  712SOL  HW1   2135   3.066   0.282   1.680 -1.2831 -1.6737  0.9716
  712SOL  HW2   2136   0.037   0.145   1.618  0.5552 -0.4545 -0.3968
  713SOL  OW    2137   1.755   0.414   0.245 -0.0247  0.0910 -0.5950
  713SOL  HW1   2138   1.735   0.393   0.346  0.0772 -0.4679  2.5282
  713SOL  HW2   2139   1.732   0.337   0.183  0.9711  1.1754  0.1745
  714SOL  OW    2140   1.745   1.425   0.837 -0.4670  0.4342 -0.1261
  714SOL  HW1   2141   1.728   1.420   0.739  1.3554 -0.9454  0.2835
  714SOL  HW2   2142   1.780   1.340   0.876 -1.4086  1.3750  0.5433
  715SOL  OW    2143   0.047   0.437   1.112 -0.5232  0.3854  0.2476
  715SOL  HW1   2144   0.096   0.476   1.031  0.3833 -1.8150 -1.3145
  715SOL  HW2   2145   0.114   0.383   1.167 -0.3301  0.2075 -1.3720
  716SOL  OW    2146   0.450   0.680   2.355 -0.1486 -0.1994 -0.0861
  716SOL  HW1   2147   0.468   0.658   2.259 -1.0694 -2.1908  2.4473
  716SOL  HW2   2148   0.458   0.778   2.374  2.7756 -1.3043 -1.0788
  717SOL  OW    2149   1.018   0.184   1.915 -0.1904  0.0667 -0.8136
  717SOL  HW1   2150   0.997   0.285   1.934 -0.5350 -1.3013  0.2292
  717SOL  HW2   2151   0.997   0.131   2.001 -1.7126 -0.3446  0.2545
  718SOL  OW    2152   2.368   2.710   0.869 -0.5237  0.4464 -0.2930
  718SOL  HW1   2153   2.416   2.755   0.793 -1.5204  1.0663  1.2145
  718SOL  HW2   2154   2.278   2.670   0.836  1.1642 -2.0982 -1.2518
  719SOL  OW    2155   0.689   2.457   2.768  0.2153 -0.1122 -0.3026
  719SOL  HW1   2156   0.602   2.493   2.740  2.1495 -0.1772  2.9034
  719SOL  HW2   2157   0.730   2.393   2.697  2.1999 -2.5705 -0.7711
  720SOL  OW    2158   0.884   2.676   0.912  0.9110  0.7165  0.0792
  720SOL  HW1   2159   0.868   2.678   0.812 -1.9346 -0.8075 -1.1893
  720SOL  HW2   2160   0.974   2.629   0.924  2.6983 -1.4230  0.7858
  721SOL  OW    2161   0.157   2.695   1.626 -0.0838  0.0391  0.0081
  721SOL  HW1   2162   0.191   2.773   1.568  3.3303  3.1964  1.3140
  721SOL  HW2   2163   0.224   2.668   1.701 -0.4820 -0.6770 -1.7357
  722SOL  OW    2164   1.155   1.542   1.747 -0.0671 -0.2565 -0.0239
  722SOL  HW1   2165   1.151   1.602   1.832 -0.9980 -0.5870 -1.1734
  722SOL  HW2   2166   1.099   1.460   1.760 -0.1147  0.4158 -1.5323
  723SOL  OW    2167   1.041   1.525   1.135 -0.4006  0.0303 -0.0071
  723SOL  HW1   2168   0.976   1.593   1.098 -1.8161 -0.1451  1.6996
  723SOL  HW2   2169   1.128   1.571   1.151  1.6166 -1.1296 -1.4457
  724SOL  OW    2170   2.062   1.734   1.175 -0.1480 -0.2325  0.0251
  724SOL  HW1   2171   1.971   1.690   1.198 -1.8965  1.3331  0.8536
  724SOL  HW2   2172   2.098   1.702   1.082 -2.6987  1.1556 -0.2134
  725SOL  OW    2173   1.646   0.928   1.151 -0.3394 -0.3245 -0.0495
  725SOL  HW1   2174   1.596   0.929   1.241 -0.1267  2.0772  2.6337
  725SOL  HW2   2175   1.624   1.013   1.098 -0.3922  5.6571 -1.7600
  726SOL  OW    2176   1.322   0.765   0.639  0.4982 -0.4664  0.1817
  726SOL  HW1   2177   1.333   0.793   0.540 -1.7453 -0.3663  0.9274
  726SOL  HW2   2178   1.412   0.768   0.688  2.2330 -0.8788  0.8938
  727SOL  OW    2179   2.936   0.723   2.060 -0.6799  0.1032 -0.0060
  727SOL  HW1   2180   2.907   0.639   2.014 -0.4934  2.5905  0.3666
  727SOL  HW2   2181   2.851   0.760   2.104 -0.4766  1.6950  0.3745
  728SOL  OW    2182   0.831   2.302   1.746 -0.0048  0.2773  0.5742
  728SOL  HW1   2183   0.816   2.205   1.780 -0.5980 -0.9760 -0.2173
  728SOL  HW2   2184   0.747   2.335   1.697  1.8097 -1.3246  0.2707
  729SOL  OW    2185   1.057   0.721   2.330  0.3644  0.0949 -0.3956
  729SOL  HW1   2186   1.055   0.764   2.421 -2.0301 -1.6357 -2.7920
  729SOL  HW2   2187   1.142   0.758   2.281  1.1935 -1.2724  0.0599
  730SOL  OW    2188   1.025   1.172   1.514 -0.5077  0.2604 -0.6171
  730SOL  HW1   2189   1.078   1.088   1.534  2.8958  0.5401  1.4747
  730SOL  HW2   2190   1.063   1.218   1.429 -0.0211  2.6871  0.7618
  731SOL  OW    2191   0.715   0.269   0.038 -0.0331 -0.0551 -0.1479
  731SOL  HW1   2192   0.783   0.214   3.079  0.5765 -1.1365 -0.5264
  731SOL  HW2   2193   0.653   0.327   3.076  0.1545 -1.5787 -0.6894
  732SOL  OW    2194   3.092   1.100   2.853 -0.2587  0.0446  0.1519
  732SOL  HW1   2195   3.021   1.158   2.896 -0.5518  0.9955  0.7430
  732SOL  HW2   2196   0.054   1.055   2.927 -0.1322 -1.3797 -1.2200
  733SOL  OW    2197   2.327   1.846   2.487  0.2460  0.1797  0.2668
  733SOL  HW1   2198   2.250   1.914   2.493  0.4278 -0.5976  1.6870
  733SOL  HW2   2199   2.401   1.898   2.440 -3.5177  0.9403  1.8446
  734SOL  OW    2200   0.961   2.839   1.301 -0.0141 -0.1753  0.3874
  734SOL  HW1   2201   1.040   2.885   1.353  3.2232  0.4823 -0.4155
  734SOL  HW2   2202   0.905   2.772   1.358 -0.9521 -1.7683 -0.1919
  735SOL  OW    2203   1.252   0.080   0.868 -0.1287 -0.4372  0.0100
  735SOL  HW1   2204   1.214   0.061   0.961  0.6089 -1.4334 -0.5389
  735SOL  HW2   2205   1.187   0.067   0.794  0.5189  1.1283  0.6189
  736SOL  OW    2206   2.362   1.223   1.572 -0.2896 -0.2756  0.3579
  736SOL  HW1   2207   2.412   1.313   1.585  0.9460  1.7285 -1.8649
  736SOL  HW2   2208   2.380   1.182   1.482 -0.8750 -1.3105 -1.7735
  737SOL  OW    2209   3.066   1.687   0.607 -0.3187 -0.4613  0.4491
  737SOL  HW1   2210   0.004   1.613   0.665 -1.0861  2.5055 -0.1287
  737SOL  HW2   2211   2.963   1.684   0.609  0.1638  1.5291  1.1364
  738SOL  OW    2212   0.446   1.218   1.890 -0.3539  0.0994  0.7050
  738SOL  HW1   2213   0.542   1.190   1.863  0.2161 -0.6069  0.3323
  738SOL  HW2   2214   0.440   1.320   1.908  0.2556  1.9487  0.3614
  739SOL  OW    2215   1.928   2.258   0.497  0.6840 -0.1996  0.0718
  739SOL  HW1   2216   1.896   2.296   0.409 -2.6674 -1.4886  1.9870
  739SOL  HW2   2217   1.860   2.282   0.571  0.1445 -0.2006  0.1909
  740SOL  OW    2218   2.958   1.221   0.585  0.0541  0.3566  0.5499
  740SOL  HW1   2219   2.919   1.204   0.491 -0.5753 -0.1907 -0.1940
  740SOL  HW2   2220   2.935   1.311   0.625 -1.1840 -0.6785 -0.0431
  741SOL  OW    2221   2.931   2.896   2.984  0.4045  0.0525 -0.6364
  741SOL  HW1   2222   2.837   2.929   2.999  3.6010 -1.2129 -2.9811
  741SOL  HW2   2223   2.992   2.911   3.066  2.3688  3.4173  2.0975
  742SOL  OW    2224   1.598   1.620   2.920 -0.2350 -0.0941  0.2216
  742SOL  HW1   2225   1.605   1.587   2.820  1.7983  0.6620 -1.3099
  742SOL  HW2   2226   1.608   1.544   2.981 -0.2254  0.2770  1.4473
  743SOL  OW    2227   2.812   0.675   2.417  0.0407 -1.0341  0.5489
  743SOL  HW1   2228   2.840   0.742   2.487  3.2584 -0.0830  0.2291
  743SOL  HW2   2229   2.805   0.733   2.332  1.0612  2.9520  0.4173
  744SOL  OW    2230   0.618   0.463   1.184  0.4220  0.1546  0.4686
  744SOL  HW1   2231   0.716   0.441   1.162  2.1928 -0.9374  0.3124
  744SOL  HW2   2232   0.604   0.505   1.270  0.7586 -3.6089 -3.1060
  745SOL  OW    2233   2.583   1.775   0.869  0.2765 -0.1729 -0.0632
  745SOL  HW1   2234   2.491   1.822   0.858  0.1343 -0.2046 -1.5184
  745SOL  HW2   2235   2.567   1.678   0.855 -0.1875  1.1273 -0.8454
  746SOL  OW    2236   2.940   1.617   1.012 -0.3079 -0.0580 -0.1128
  746SOL  HW1   2237   3.030   1.659   1.034  2.1882 -0.9365 -2.1092
  746SOL  HW2   2238   2.870   1.688   1.038 -1.9751  0.6209 -0.9518
  747SOL  OW    2239   1.530   1.373   1.430  0.0334  0.3600 -0.3590
  747SOL  HW1   2240   1.523   1.469   1.409 -1.7767 -3.4302 -0.7464
  747SOL  HW2   2241   1.497   1.351   1.520  1.5879  1.0968  1.4807
  748SOL  OW    2242   2.924   2.546   1.333  0.3511 -0.2687 -0.0414
  748SOL  HW1   2243   2.942   2.565   1.433 -3.0553  0.8438 -1.4495
  748SOL  HW2   2244   3.010   2.513   1.290  1.2776  4.0974  0.3873
  749SOL  OW    2245   2.538   0.839   2.931  0.4171  0.5629  0.1074
  749SOL  HW1   2246   2.598   0.898   2.990  0.0610 -1.4631 -2.2635
  749SOL  HW2   2247   2.505   0.766   2.992  0.6647  3.6427 -0.6910
  750SOL  OW    2248   1.851   0.367   1.826  0.0912 -0.1352 -0.1089
  750SOL  HW1   2249   1.932   0.365   1.762 -0.8440 -2.8581 -1.1913
  750SOL  HW2   2250   1.815   0.455   1.859 -1.3702 -1.8088  0.6716
  751SOL  OW    2251   1.738   1.083   2.843 -0.0667 -0.2986  0.2905
  751SOL  HW1   2252   1.745   1.146   2.761 -0.9742  1.2513 -1.8294
  751SOL  HW2   2253   1.802   1.115   2.919 -0.6394 -1.6324  0.6793
  752SOL  OW    2254   2.639   1.270   2.933  0.2389  0.3253 -0.2100
  752SOL  HW1   2255   2.629   1.283   2.835  0.0226  0.3646 -0.5354
  752SOL  HW2   2256   2.561   1.304   2.985 -1.4689 -0.9081 -0.9074
  753SOL  OW    2257   2.301   0.453   1.863 -0.3970 -0.1118 -0.1030
  753SOL  HW1   2258   2.222   0.442   1.799 -1.5930 -1.4428 -0.7041
  753SOL  HW2   2259   2.376   0.496   1.807  1.0309  3.8098 -0.2840
  754SOL  OW    2260   0.152   3.042   1.835  0.1100  0.0438  0.0614
  754SOL  HW1   2261   0.250   3.016   1.828 -0.7272  2.3961  2.1082
  754SOL  HW2   2262   0.099   2.954   1.847 -0.4672 -1.4701  1.8735
  755SOL  OW    2263   2.731   0.042   2.611  0.5003  0.1994  0.1695
  755SOL  HW1   2264   2.725   0.144   2.627  0.8083  0.7358  0.2417
  755SOL  HW2   2265   2.676   3.085   2.681  0.2625  0.6821 -0.8280
  756SOL  OW    2266   2.241   0.626   2.718  0.1553  0.3204 -0.6861
  756SOL  HW1   2267   2.202   0.552   2.777  0.7044 -0.4196  0.8597
  756SOL  HW2   2268   2.345   0.626   2.718  1.4810 -0.6901  1.2523
  757SOL  OW    2269   0.751   0.422   2.328  0.2536 -0.1016 -0.4676
  757SOL  HW1   2270   0.656   0.407   2.360  2.2085 -0.3807 -0.0987
  757SOL  HW2   2271   0.814   0.424   2.411  3.1833  1.7929  0.6136
  758SOL  OW    2272   1.609   2.387   2.047 -0.2107 -0.4139 -0.1637
  758SOL  HW1   2273   1.674   2.440   2.111  2.2797  3.2705  0.0506
  758SOL  HW2   2274   1.613   2.288   2.066 -0.6549  2.8404 -0.4285
  759SOL  OW    2275   1.502   0.222   2.378  0.0117  0.1616 -0.5881
  759SOL  HW1   2276   1.482   0.166   2.460 -2.0494  2.2489 -2.0098
  759SOL  HW2   2277   1.520   0.320   2.400 -3.5915  2.1488  1.9240
  760SOL  OW    2278   2.761   1.792   1.087 -0.2066  0.0929 -0.1654
  760SOL  HW1   2279   2.704   1.751   1.165 -1.1825 -2.4536  2.5859
  760SOL  HW2   2280   2.702   1.798   1.004 -0.2033  0.7842 -0.0327
  761SOL  OW    2281   0.230   2.818   0.677 -0.0554  0.1910 -0.0744
  761SOL  HW1   2282   0.187   2.775   0.598  1.3104 -1.0201  2.1990
  761SOL  HW2   2283   0.314   2.766   0.711  2.5842  0.8995 -0.1687
  762SOL  OW    2284   0.146   0.777   1.640 -0.7631 -0.3587 -0.0603
  762SOL  HW1   2285   0.134   0.707   1.567 -0.6233  2.0706  2.2512
  762SOL  HW2   2286   0.064   0.789   1.699 -0.2416  1.1534 -0.7067
  763SOL  OW    2287   2.301   0.724   1.316  0.0330 -0.4312  0.1120
  763SOL  HW1   2288   2.352   0.711   1.229  0.5962 -1.5383 -0.0880
  763SOL  HW2   2289   2.311   0.639   1.370 -2.1124  0.7775  1.9764
  764SOL  OW    2290   0.328   0.165   0.673 -0.1515 -0.2176  0.3052
  764SOL  HW1   2291   0.305   0.100   0.740 -0.1064 -0.6482 -1.2042
  764SOL  HW2   2292   0.255   0.225   0.638  0.6656 -2.3722 -1.1313
  765SOL  OW    2293   0.687   0.182   2.163 -0.1249 -0.5811 -0.2951
  765SOL  HW1   2294   0.616   0.130   2.217  1.6416 -0.9111  0.4336
  765SOL  HW2   2295   0.721   0.257   2.219  0.3436 -4.1526 -1.0625
  766SOL  OW    2296   2.381   2.672   1.803  0.6106 -0.0963  0.4743
  766SOL  HW1   2297   2.377   2.756   1.864  0.9578  2.8528  0.5889
  766SOL  HW2   2298   2.289   2.623   1.801 -1.8595 -1.5952  0.8821
  767SOL  OW    2299   2.034   1.385   2.375  0.1301 -0.8118 -0.0731
  767SOL  HW1   2300   2.108   1.451   2.392  0.7881  3.1691  1.5926
  767SOL  HW2   2301   2.026   1.351   2.278  3.1586 -0.9915 -0.3367
  768SOL  OW    2302   2.019   0.824   2.659  0.6383 -0.9397  0.7475
  768SOL  HW1   2303   1.934   0.803   2.713 -0.8868  1.2241 -0.1059
  768SOL  HW2   2304   2.101   0.774   2.691 -2.7027  0.3516  0.6245
  769SOL  OW    2305   0.370   1.838   0.952 -0.2954  0.0593 -0.4542
  769SOL  HW1   2306   0.323   1.882   1.030  3.2834 -0.8811 -1.5232
  769SOL  HW2   2307   0.323   1.754   0.924  1.3942  2.0504 -1.6389
  770SOL  OW    2308   2.495   1.415   1.967  0.0480 -0.2511 -0.2167
  770SOL  HW1   2309   2.396   1.421   1.959 -0.0767  0.9775  0.1008
  770SOL  HW2   2310   2.539   1.478   2.034  0.1847  3.0045 -0.3909
  771SOL  OW    2311   1.274   2.306   0.029  0.1224 -0.1367 -0.1613
  771SOL  HW1   2312   1.257   2.393   0.074 -0.3752 -0.7602 -2.4894
  771SOL  HW2   2313   1.250   2.325   3.029  2.3778  0.7852  1.6298
  772SOL  OW    2314   2.313   2.150   2.140 -0.1314 -0.0806 -0.3684
  772SOL  HW1   2315   2.244   2.074   2.141 -0.6319  0.7041 -0.5022
  772SOL  HW2   2316   2.273   2.235   2.186 -1.8744  3.5630  1.1714
  773SOL  OW    2317   0.108   1.086   0.907 -0.0162 -0.3832  0.1456
  773SOL  HW1   2318   0.183   1.127   0.850 -1.9356  0.4331  0.4629
  773SOL  HW2   2319   0.112   1.128   0.999  0.6489 -2.4610 -1.5134
  774SOL  OW    2320   0.648   0.472   0.284  0.0999  0.1666 -0.3056
  774SOL  HW1   2321   0.579   0.425   0.341  1.6318  2.2197 -1.2725
  774SOL  HW2   2322   0.732   0.414   0.275  2.4623  0.5778 -0.3859
  775SOL  OW    2323   0.558   1.426   0.624  0.5706  0.5563 -0.2499
  775SOL  HW1   2324   0.546   1.330   0.593 -0.1157  1.4465  0.6021
  775SOL  HW2   2325   0.600   1.440   0.715  0.5697  1.4696  0.6155
  776SOL  OW    2326   2.426   0.891   0.974 -0.3282  0.1982  0.1807
  776SOL  HW1   2327   2.410   0.795   1.005  3.3243  2.4585 -0.8490
  776SOL  HW2   2328   2.511   0.889   0.915  0.4909 -0.7197 -0.8129
  777SOL  OW    2329   2.921   1.967   2.349  0.2373 -0.0083 -0.4375
  777SOL  HW1   2330   2.994   1.921   2.306 -0.6542 -0.3412 -0.3762
  777SOL  HW2   2331   2.899   2.052   2.303  1.1589 -1.8662  1.9588
  778SOL  OW    2332   1.355   1.635   2.347  0.0723  0.4276 -0.4506
  778SOL  HW1   2333   1.334   1.732   2.329 -1.1765 -1.3114  1.7787
  778SOL  HW2   2334   1.338   1.578   2.264  0.1265  0.5997 -1.4485
  779SOL  OW    2335   3.062   0.295   0.131  0.0465  0.0208  0.2506
  779SOL  HW1   2336   0.031   0.266   0.059 -0.7698 -2.0010  2.8301
  779SOL  HW2   2337   3.084   0.388   0.155 -0.3187 -1.7792 -0.9256
  780SOL  OW    2338   2.179   0.651   2.438 -0.0819 -0.1454  0.6759
  780SOL  HW1   2339   2.210   0.646   2.530 -0.9129  0.1360 -3.1114
  780SOL  HW2   2340   2.181   0.748   2.404  0.3438  1.7816 -1.5363
  781SOL  OW    2341   1.782   2.783   2.320  0.6937 -0.2527 -0.1361
  781SOL  HW1   2342   1.884   2.783   2.337 -1.4644  0.3452 -1.3253
  781SOL  HW2   2343   1.763   2.852   2.246  0.5813  1.3462 -2.3442
  782SOL  OW    2344   0.119   3.052   2.208 -0.2930 -0.0631  0.1554
  782SOL  HW1   2345   0.090   0.029   2.138 -0.2048  2.3482  0.2364
  782SOL  HW2   2346   0.117   3.090   2.302  0.2834 -1.5083  1.4787
  783SOL  OW    2347   0.613   1.625   0.452  0.0784 -0.0888 -0.2879
  783SOL  HW1   2348   0.618   1.536   0.505  1.0316  0.9672 -1.1386
  783SOL  HW2   2349   0.614   1.708   0.511  2.5862 -1.1790 -0.5792
  784SOL  OW    2350   0.374   1.187   2.757  0.0958  0.0105 -0.4260
  784SOL  HW1   2351   0.381   1.199   2.655 -0.6619 -0.3388  0.0704
  784SOL  HW2   2352   0.297   1.241   2.799  0.3967 -0.1026 -0.1808
  785SOL  OW    2353   2.628   1.965   2.877  0.0784  0.7631  0.2584
  785SOL  HW1   2354   2.559   2.040   2.901 -1.5702 -1.4837  1.5974
  785SOL  HW2   2355   2.592   1.873   2.891  0.3457  2.5523 -0.4069
  786SOL  OW    2356   1.321   2.230   0.469 -0.2094 -0.3968 -0.0658
  786SOL  HW1   2357   1.407   2.235   0.410  2.9317 -0.5546 -1.2417
  786SOL  HW2   2358   1.295   2.134   0.484 -2.1529 -0.6961  1.0999
  787SOL  OW    2359   0.146   0.558   0.896 -0.0213 -0.4255 -0.3878
  787SOL  HW1   2360   0.109   0.652   0.872 -0.6795  2.3694 -3.1076
  787SOL  HW2   2361   0.245   0.555   0.866  1.9501 -0.1625  1.6306
  788SOL  OW    2362   0.125   0.042   2.984  0.3676 -0.1941  0.5048
  788SOL  HW1   2363   0.191   0.106   3.028 -0.4433  0.6874 -0.9580
  788SOL  HW2   2364   0.048   0.094   2.935 -0.9031 -1.5202 -0.7798
  789SOL  OW    2365   2.986   0.031   1.184  0.3498  0.0227 -0.5309
  789SOL  HW1   2366   2.904   0.079   1.143 -0.9469 -0.0015 -0.5703
  789SOL  HW2   2367   2.987   0.040   1.288 -0.4566  1.4223 -0.4524
  790SOL  OW    2368   0.951   2.229   2.861  0.5080 -0.4122  0.0238
  790SOL  HW1   2369   0.875   2.163   2.848  1.1097  0.0915 -0.5985
  790SOL  HW2   2370   0.950   2.263   2.959 -1.1731 -1.4395 -0.4377
  791SOL  OW    2371   0.861   1.830   0.203  0.6065 -0.1406 -0.3018
  791SOL  HW1   2372   0.879   1.817   0.304  0.4048  0.9427  0.0272
  791SOL  HW2   2373   0.813   1.748   0.170  0.1750  0.9612 -1.6691
  792SOL  OW    2374   1.189   0.314   1.732  0.6995  0.1212 -0.2709
  792SOL  HW1   2375   1.251   0.244   1.691 -1.7830 -1.1737  0.6192
  792SOL  HW2   2376   1.140   0.276   1.814  1.8382 -0.4479  0.1432
  793SOL  OW    2377   0.934   0.435   1.981 -0.0740 -0.2623 -0.1279
  793SOL  HW1   2378   0.851   0.374   1.968  0.4487  2.0287 -0.1297
  793SOL  HW2   2379   0.923   0.493   2.061  1.9166 -0.7819 -1.2507
  794SOL  OW    2380   0.601   1.281   2.888  0.0784  0.0279  0.4379
  794SOL  HW1   2381   0.507   1.245   2.860 -0.0687 -2.0603 -1.4463
  794SOL  HW2   2382   0.609   1.318   2.981  3.1698  0.3026 -0.8838
  795SOL  OW    2383   1.850   2.317   2.428 -0.2946  0.2594  0.0741
  795SOL  HW1   2384   1.807   2.250   2.497 -1.3514 -0.6115  1.2934
  795SOL  HW2   2385   1.859   2.266   2.342 -0.2974  2.3943  0.5397
  796SOL  OW    2386   0.903   0.947   1.079  0.5841 -0.3344 -0.0657
  796SOL  HW1   2387   0.886   0.921   0.982 -3.9309 -0.7329 -0.9447
  796SOL  HW2   2388   0.886   1.046   1.089  2.5861  1.6305 -0.7594
  797SOL  OW    2389   2.970   1.172   2.593 -0.1422 -0.3898 -0.9511
  797SOL  HW1   2390   2.986   1.117   2.678 -1.0928 -2.1973  0.6828
  797SOL  HW2   2391   3.043   1.245   2.582 -2.6928 -0.2523 -1.2428
  798SOL  OW    2392   0.739   2.623   2.970  0.0291 -0.0520  0.1787
  798SOL  HW1   2393   0.736   2.562   2.887 -0.5949  3.7173 -0.1274
  798SOL  HW2   2394   0.680   2.704   2.950  1.4844  0.3636 -0.5465
  799SOL  OW    2395   3.060   2.860   2.568 -0.0358  0.3149 -0.1552
  799SOL  HW1   2396   3.071   2.795   2.486 -0.0470 -1.1211 -0.2664
  799SOL  HW2   2397   3.015   2.811   2.642 -0.7065  3.6662 -2.3007
  800SOL  OW    2398   0.369   2.091   0.447  0.8556  0.2699  0.2585
  800SOL  HW1   2399   0.467   2.104   0.420 -1.2594 -0.0495 -1.7632
  800SOL  HW2   2400   0.360   1.997   0.490  0.8478 -0.5315 -0.8486
  801SOL  OW    2401   0.479   2.927   0.897 -0.3464 -0.3145  0.3777
  801SOL  HW1   2402   0.579   2.925   0.871  1.7800  1.9741  0.6166
  801SOL  HW2   2403   0.472   2.930   0.998  1.5963 -1.4894 -0.6681
  802SOL  OW    2404   2.269   1.298   3.005  0.2833 -0.1733 -0.3233
  802SOL  HW1   2405   2.179   1.340   2.975 -2.1219 -0.5637 -0.5274
  802SOL  HW2   2406   2.258   1.218   3.065 -1.9874 -1.3735 -1.1102
  803SOL  OW    2407   1.922   0.980   2.471  0.6556  0.7886 -0.0287
  803SOL  HW1   2408   1.941   1.075   2.500 -0.0517 -2.9706  2.0093
  803SOL  HW2   2409   1.959   0.909   2.538  0.2494 -1.9042 -1.5579
  804SOL  OW    2410   2.494   1.449   1.202  0.4965 -0.6347 -0.3459
  804SOL  HW1   2411   2.494   1.534   1.259  3.1232  0.1971  2.4840
  804SOL  HW2   2412   2.576   1.444   1.144  0.4778 -1.3837 -0.2177
  805SOL  OW    2413   2.594   1.513   0.811 -0.4738  0.4987  0.1754
  805SOL  HW1   2414   2.524   1.448   0.784  1.1104  0.8618 -2.2827
  805SOL  HW2   2415   2.642   1.483   0.898 -1.5911 -0.3441  0.0932
  806SOL  OW    2416   2.682   1.032   0.215 -0.0750 -0.2274 -0.2525
  806SOL  HW1   2417   2.756   1.103   0.243  3.7491  2.2094  2.9452
  806SOL  HW2   2418   2.718   0.941   0.229 -0.1132  0.9441 -1.2523
  807SOL  OW    2419   2.917   1.174   2.294  0.1665 -0.2882 -0.2234
  807SOL  HW1   2420   2.911   1.260   2.244 -0.7333 -1.5118  1.3827
  807SOL  HW2   2421   2.938   1.193   2.394 -0.0693  3.6673  0.2342
  808SOL  OW    2422   3.070   0.583   0.251  0.0897 -0.4398  0.4312
  808SOL  HW1   2423   0.053   0.544   0.300  0.2870 -0.4669  0.0024
  808SOL  HW2   2424   0.003   0.660   0.192  1.2752  0.1468 -3.2400
  809SOL  OW    2425   1.689   0.577   2.596 -0.4546 -0.1407  0.7147
  809SOL  HW1   2426   1.610   0.547   2.540 -2.1120 -2.4972 -1.0772
  809SOL  HW2   2427   1.777   0.570   2.545  3.0505  1.2497  1.8020
  810SOL  OW    2428   2.242   2.931   0.002 -0.4464 -0.1498  0.2216
  810SOL  HW1   2429   2.245   3.014   3.035 -0.1115  0.9085  2.2497
  810SOL  HW2   2430   2.163   2.873   3.076 -2.4576  0.1260 -2.3410
  811SOL  OW    2431   1.197   2.444   1.247  0.3059  0.3410 -0.3800
  811SOL  HW1   2432   1.256   2.367   1.227 -0.7659 -0.8468 -1.3610
  811SOL  HW2   2433   1.253   2.523   1.280 -2.5843  2.8316 -1.0861
  812SOL  OW    2434   0.351   2.628   1.814  0.0877  0.0662 -0.2985
  812SOL  HW1   2435   0.436   2.683   1.793  0.1722 -0.6093 -2.5500
  812SOL  HW2   2436   0.341   2.612   1.914  0.0332 -0.2366 -1.1971
  813SOL  OW    2437   0.689   0.704   2.006 -0.3654 -0.0172 -0.3549
  813SOL  HW1   2438   0.758   0.642   2.052 -1.4475  0.6373  0.0281
  813SOL  HW2   2439   0.598   0.675   2.038  2.7574 -0.6023  1.6953
  814SOL  OW    2440   0.281   0.245   2.287  0.0303 -0.2454 -0.1526
  814SOL  HW1   2441   0.347   0.165   2.276 -1.1200  0.1909  0.0663
  814SOL  HW2   2442   0.201   0.224   2.343 -0.7926 -0.4855 -1.1318
  815SOL  OW    2443   2.179   1.975   1.086  0.0873 -0.3435  0.0984
  815SOL  HW1   2444   2.100   1.920   1.126 -1.4525 -0.1393  0.5978
  815SOL  HW2   2445   2.166   2.077   1.108  0.3566  0.1417  2.1177
  816SOL  OW    2446   0.587   2.829   2.904 -0.0794 -0.1315  0.0970
  816SOL  HW1   2447   0.567   2.871   2.996 -0.9560  0.0355  4.1409
  816SOL  HW2   2448   0.501   2.807   2.861 -1.3631  0.6052  2.5259
  817SOL  OW    2449   0.971   0.943   0.415  0.0769 -0.1709 -0.2696
  817SOL  HW1   2450   0.967   0.840   0.425  2.3037  2.1099  2.0082
  817SOL  HW2   2451   0.998   0.983   0.322  0.1113  2.0203 -1.1908
  818SOL  OW    2452   2.205   0.421   2.287  0.2149  0.3481 -0.0321
  818SOL  HW1   2453   2.171   0.501   2.346 -2.8048  3.2350 -0.7941
  818SOL  HW2   2454   2.298   0.393   2.315 -1.0589 -0.8300 -2.2606
  819SOL  OW    2455   1.230   1.094   2.897  0.5538 -0.0711  0.1002
  819SOL  HW1   2456   1.253   1.148   2.981 -0.2043 -1.9517 -0.3418
  819SOL  HW2   2457   1.133   1.061   2.907  3.3508  1.0403 -0.4488
  820SOL  OW    2458   0.180   2.424   2.947  0.0867 -0.2061  0.1073
  820SOL  HW1   2459   0.085   2.459   2.956 -1.9313  0.4530  2.3244
  820SOL  HW2   2460   0.203   2.365   3.027  1.5846  2.1147  0.1167
  821SOL  OW    2461   0.882   1.721   1.038 -0.4650  0.2209  0.5221
  821SOL  HW1   2462   0.782   1.732   1.014  0.6463 -1.4206 -0.6732
  821SOL  HW2   2463   0.941   1.742   0.957 -1.2372  1.4735  2.3643
  822SOL  OW    2464   2.675   1.128   1.804 -0.0361 -0.2605  0.3635
  822SOL  HW1   2465   2.632   1.202   1.747  1.8848 -1.4282  0.6469
  822SOL  HW2   2466   2.663   1.031   1.773  0.9427 -0.0678  2.1587
  823SOL  OW    2467   2.271   1.991   2.985  0.0602 -0.6308  0.1230
  823SOL  HW1   2468   2.351   2.050   2.960  1.8326 -0.0143  0.9175
  823SOL  HW2   2469   2.306   1.907   3.025 -0.2761  2.9033 -0.2486
  824SOL  OW    2470   1.047   0.419   0.463 -0.0814 -0.2691  0.1936
  824SOL  HW1   2471   0.995   0.360   0.402  2.0257 -3.0382  0.4115
  824SOL  HW2   2472   1.061   0.369   0.554  0.5277 -2.1267  2.0375
  825SOL  OW    2473   2.792   1.764   2.148  0.1064  0.0048 -0.0404
  825SOL  HW1   2474   2.757   1.802   2.061 -1.1156 -0.6498 -0.3512
  825SOL  HW2   2475   2.806   1.836   2.219  0.1282 -0.0282  0.5487
  826SOL  OW    2476   2.843   0.851   2.615 -0.6867 -0.6394  0.3936
  826SOL  HW1   2477   2.801   0.786   2.687  0.7214 -1.2738 -1.5472
  826SOL  HW2   2478   2.945   0.857   2.628 -2.2085  2.6680  2.5309
  827SOL  OW    2479   1.286   2.109   1.951  0.5035  0.1160 -0.3193
  827SOL  HW1   2480   1.186   2.116   1.937 -3.2099  0.7572 -0.7585
  827SOL  HW2   2481   1.315   2.183   2.023 -1.3921  0.0183  1.6453
  828SOL  OW    2482   2.270   3.052   0.946 -0.3259 -0.0334  0.0440
  828SOL  HW1   2483   2.194   2.990   0.976 -0.7187  4.0187 -0.2391
  828SOL  HW2   2484   2.366   3.007   0.956 -0.5294  1.3237 -0.8347
  829SOL  OW    2485   2.461   2.561   2.551  0.0436  0.6194  0.3159
  829SOL  HW1   2486   2.518   2.553   2.463  2.7281 -1.4571 -1.2833
  829SOL  HW2   2487   2.379   2.497   2.539 -0.9110 -0.4987 -2.1233
  830SOL  OW    2488   1.325   0.796   0.370  0.1712  0.0145 -0.1944
  830SOL  HW1   2489   1.427   0.800   0.352  1.7537 -0.3297 -0.9144
  830SOL  HW2   2490   1.276   0.860   0.308 -1.9572  0.6871 -2.0231
  831SOL  OW    2491   0.401   0.860   0.330 -0.0199 -0.2517  0.4956
  831SOL  HW1   2492   0.492   0.818   0.342 -2.9100  0.6825  1.3533
  831SOL  HW2   2493   0.410   0.963   0.324  0.2223  1.3596 -0.6966
  832SOL  OW    2494   1.632   1.963   0.000 -0.0454 -0.3533  0.2725
  832SOL  HW1   2495   1.623   1.941   2.995  0.1177 -0.3653  0.6514
  832SOL  HW2   2496   1.582   2.050   0.021 -0.0745 -0.8527  0.3325
  833SOL  OW    2497   2.569   1.412   1.708  0.2278  0.5821 -0.7369
  833SOL  HW1   2498   2.671   1.414   1.707 -2.3278  0.6091 -0.1880
  833SOL  HW2   2499   2.541   1.416   1.809 -2.5447 -2.3551 -0.0006
  834SOL  OW    2500   0.799   1.031   0.641  0.2840  0.5232  0.0985
  834SOL  HW1   2501   0.703   1.049   0.611  2.4707 -0.0337 -0.9244
  834SOL  HW2   2502   0.844   0.978   0.569 -0.6319 -1.6902  2.2747
  835SOL  OW    2503   0.639   1.542   2.814  0.3359 -0.3999 -0.0331
  835SOL  HW1   2504   0.637   1.447   2.845 -1.1226  0.0793  3.2174
  835SOL  HW2   2505   0.548   1.567   2.785 -0.1348 -0.0234  0.8472
  836SOL  OW    2506   0.109   1.058   1.554 -0.2045 -0.5629 -0.4248
  836SOL  HW1   2507   0.057   0.978   1.588 -1.2149 -0.8446 -0.6019
  836SOL  HW2   2508   0.136   1.115   1.638 -0.6415  0.0227  2.4880
  837SOL  OW    2509   1.752   0.731   0.562  0.4494  0.1667 -0.0750
  837SOL  HW1   2510   1.748   0.647   0.622 -0.2274  0.8253  2.4421
  837SOL  HW2   2511   1.833   0.788   0.579 -1.4092 -2.7142 -0.0074
  838SOL  OW    2512   1.712   1.246   2.619  0.0404 -0.3534  0.6806
  838SOL  HW1   2513   1.652   1.232   2.538 -1.7347 -0.0847 -0.7767
  838SOL  HW2   2514   1.810   1.228   2.593  0.0651  0.2506  1.4198
  839SOL  OW    2515   0.617   2.594   0.573 -0.8117  0.1094 -0.5485
  839SOL  HW1   2516   0.558   2.635   0.656 -4.0674  4.6505  3.2955
  839SOL  HW2   2517   0.653   2.504   0.605 -0.7432  1.0951 -0.9442
  840SOL  OW    2518   1.400   2.081   2.879 -0.0623  0.4603 -0.1186
  840SOL  HW1   2519   1.487   2.032   2.871 -2.0364 -0.8893 -0.4196
  840SOL  HW2   2520   1.338   2.033   2.945 -1.4354 -2.3604 -3.2565
  841SOL  OW    2521   2.083   0.438   1.689 -0.0090  0.0764 -0.0441
  841SOL  HW1   2522   2.096   0.408   1.594 -0.7986 -3.2702  0.1580
  841SOL  HW2   2523   2.032   0.524   1.692  2.4671  0.2187 -1.7770
  842SOL  OW    2524   1.773   0.390   0.934  0.4044 -0.1804 -0.2627
  842SOL  HW1   2525   1.853   0.385   0.996  2.2546 -1.4186  1.8071
  842SOL  HW2   2526   1.698   0.333   0.974 -0.6792 -1.0610 -0.3255
  843SOL  OW    2527   1.553   2.332   1.468 -0.0489 -0.1532 -0.0978
  843SOL  HW1   2528   1.518   2.239   1.452 -0.7499 -1.8605 -0.7417
  843SOL  HW2   2529   1.509   2.378   1.547  1.9864  0.3242  0.8130
  844SOL  OW    2530   2.693   2.676   2.717  0.0381  0.0155 -0.5255
  844SOL  HW1   2531   2.787   2.693   2.757  1.1340 -1.0179  1.1550
  844SOL  HW2   2532   2.686   2.703   2.619 -1.3134 -1.8829  0.1351
  845SOL  OW    2533   0.018   2.304   0.990 -0.0827 -0.4962 -0.1967
  845SOL  HW1   2534   3.070   2.376   0.931 -0.8632  3.2957 -2.9135
  845SOL  HW2   2535   0.020   2.338   1.086 -0.9343  1.7154  0.6137
  846SOL  OW    2536   2.593   1.843   1.649 -0.6309 -0.3916 -0.5187
  846SOL  HW1   2537   2.668   1.842   1.578  1.0660  1.5288  0.4188
  846SOL  HW2   2538   2.551   1.750   1.668  0.0590  1.9639  2.2724
  847SOL  OW    2539   0.696   0.854   1.512  0.2925  0.6253  0.1701
  847SOL  HW1   2540   0.625   0.930   1.491  1.4552  2.8523  0.0535
  847SOL  HW2   2541   0.711   0.844   1.613  0.6268  0.6021  0.8556
  848SOL  OW    2542   2.957   0.443   2.424  0.1101  0.1748  0.0027
  848SOL  HW1   2543   2.905   0.526   2.416  3.9962 -1.6458 -0.8573
  848SOL  HW2   2544   3.044   0.470   2.454  0.1354 -0.7713 -0.6836
  849SOL  OW    2545   2.939   1.568   0.185 -0.0121  0.0808  0.0175
  849SOL  HW1   2546   2.864   1.605   0.246  1.0070 -0.7661 -0.7144
  849SOL  HW2   2547   3.022   1.630   0.183  2.7455  0.0057 -0.4114
  850SOL  OW    2548   2.939   2.387   2.129  0.0624  0.4181 -0.4752
  850SOL  HW1   2549   2.888   2.301   2.159 -0.5189 -1.3027  0.2595
  850SOL  HW2   2550   2.877   2.448   2.079  1.3305  0.0607 -0.6157
  851SOL  OW    2551   2.295   0.935   2.825  0.7430  0.3150 -0.1885
  851SOL  HW1   2552   2.382   0.892   2.857  0.5651 -1.0943 -0.3117
  851SOL  HW2   2553   2.216   0.907   2.884 -0.3336 -2.6338 -1.2266
  852SOL  OW    2554   1.293   1.233   2.452 -0.6568 -1.0481 -0.0794
  852SOL  HW1   2555   1.258   1.168   2.522 -0.1615  0.3552 -0.2794
  852SOL  HW2   2556   1.270   1.328   2.481 -1.6915 -2.4872  1.6008
  853SOL  OW    2557   0.614   2.655   0.299 -0.1017  0.0109 -0.0697
  853SOL  HW1   2558   0.614   2.639   0.401  2.7731 -0.2836  1.6951
  853SOL  HW2   2559   0.664   2.743   0.268  1.9128  1.0835 -2.4540
  854SOL  OW    2560   2.002   2.507   2.551 -0.5588 -0.1675 -0.5838
  854SOL  HW1   2561   1.964   2.544   2.638 -1.2155  0.2576  1.3495
  854SOL  HW2   2562   1.936   2.438   2.511  0.6672  1.7281 -0.0612
  855SOL  OW    2563   1.560   2.980   0.598  0.3207 -0.3135 -0.2674
  855SOL  HW1   2564   1.536   2.885   0.578  3.9773  2.9971  1.7252
  855SOL  HW2   2565   1.649   3.008   0.557  1.4320  0.5988  0.6792
  856SOL  OW    2566   0.399   1.598   2.723 -0.0270 -0.3645 -0.3197
  856SOL  HW1   2567   0.325   1.664   2.705 -0.5202 -0.9473 -0.6474
  856SOL  HW2   2568   0.450   1.582   2.639  1.0335  1.4820  0.3774
  857SOL  OW    2569   1.874   2.338   1.153 -0.3924  0.0833 -0.2989
  857SOL  HW1   2570   1.966   2.288   1.155  0.3801 -0.7551  0.3739
  857SOL  HW2   2571   1.866   2.412   1.086  0.7295  0.1035 -0.5601
  858SOL  OW    2572   2.891   2.876   1.597 -0.0893  0.3265 -0.0687
  858SOL  HW1   2573   2.928   2.783   1.577 -0.5319  0.0970  2.6129
  858SOL  HW2   2574   2.885   2.890   1.700  0.0726  1.3280  1.1554
  859SOL  OW    2575   0.432   2.437   2.219 -0.2078 -0.2153  0.5070
  859SOL  HW1   2576   0.506   2.455   2.152  1.7468  0.5622 -1.4168
  859SOL  HW2   2577   0.444   2.344   2.263 -2.1005 -1.6104  0.5298
  860SOL  OW    2578   2.511   2.357   0.735  0.1487  0.3396 -0.3351
  860SOL  HW1   2579   2.426   2.409   0.724  0.9052 -2.9951 -3.2698
  860SOL  HW2   2580   2.553   2.383   0.823 -3.3353 -2.4346 -3.3757
  861SOL  OW    2581   2.299   2.390   1.006  0.5838 -0.4059  0.0443
  861SOL  HW1   2582   2.247   2.477   0.988 -1.7760  1.5811 -1.0715
  861SOL  HW2   2583   2.393   2.403   0.967  0.3367  0.0435 -0.1684
  862SOL  OW    2584   1.927   0.144   1.403  0.8445 -0.1257  0.5364
  862SOL  HW1   2585   1.931   0.043   1.374 -0.6814 -1.9284 -0.0508
  862SOL  HW2   2586   2.012   0.183   1.434 -1.8726 -0.1314 -1.6552
  863SOL  OW    2587   0.015   2.764   0.883 -0.2281 -0.0290  0.1519
  863SOL  HW1   2588   0.093   2.807   0.835  0.4536  0.9641  0.5141
  863SOL  HW2   2589   3.053   2.832   0.933 -1.6252 -1.9282  0.5382
  864SOL  OW    2590   2.307   2.896   1.930  0.3488  0.3285  0.1361
  864SOL  HW1   2591   2.222   2.916   1.983  0.3147  1.6677 -0.4869
  864SOL  HW2   2592   2.291   2.916   1.834  0.9802 -1.1201 -0.9429
  865SOL  OW    2593   0.603   2.222   2.880  0.1816 -0.1551  0.0734
  865SOL  HW1   2594   0.560   2.235   2.972  3.5130  3.3481  0.5823
  865SOL  HW2   2595   0.667   2.296   2.850  0.6726  1.6271 -1.1187
  866SOL  OW    2596   0.888   0.014   2.113 -0.6696  0.4102 -0.0847
  866SOL  HW1   2597   0.800   0.071   2.116  0.0641  0.7679  0.9152
  866SOL  HW2   2598   0.938   3.094   2.205  3.1542 -2.2018  2.3809
  867SOL  OW    2599   0.221   2.905   2.640 -0.2334  0.1967 -0.1421
  867SOL  HW1   2600   0.123   2.912   2.617  2.3325 -0.2288  0.7278
  867SOL  HW2   2601   0.258   2.820   2.600 -0.0073 -0.8271  1.0335
  868SOL  OW    2602   1.130   2.893   1.061 -1.0491  0.0341  0.2458
  868SOL  HW1   2603   1.078   2.844   1.134  1.7061 -1.4986  0.1924
  868SOL  HW2   2604   1.213   2.831   1.041  1.1647 -1.1482  0.0254
  869SOL  OW    2605   2.608   0.533   1.142 -0.0447  0.1630 -0.2163
  869SOL  HW1   2606   2.599   0.441   1.100 -0.2806 -1.2824  1.3357
  869SOL  HW2   2607   2.615   0.526   1.245  1.1813  0.9684  0.5965
  870SOL  OW    2608   2.160   2.026   0.334  0.1915  0.1302 -0.4995
  870SOL  HW1   2609   2.102   1.988   0.407  0.8215  0.8294  0.9487
  870SOL  HW2   2610   2.124   2.027   0.240 -0.4897 -0.3518 -0.5025
  871SOL  OW    2611   1.034   0.841   2.563  0.0214 -0.0306  0.3518
  871SOL  HW1   2612   0.961   0.904   2.529 -0.8882  1.5896  1.5198
  871SOL  HW2   2613   1.006   0.817   2.655  1.9025  1.6463 -0.8799
  872SOL  OW    2614   1.414   0.324   0.512 -0.2156  0.3668 -0.1562
  872SOL  HW1   2615   1.396   0.318   0.616 -1.9807  1.2500  1.1108
  872SOL  HW2   2616   1.389   0.416   0.471 -0.0015 -0.0391 -0.8685
  873SOL  OW    2617   1.172   0.718   2.894  0.0119 -0.0907 -0.1307
  873SOL  HW1   2618   1.167   0.708   2.997 -0.0178 -1.1881  0.3826
  873SOL  HW2   2619   1.266   0.746   2.867 -0.2670 -0.4582 -0.5704
  874SOL  OW    2620   1.628   1.235   1.756  0.2273  0.2409 -0.1696
  874SOL  HW1   2621   1.552   1.301   1.743  2.7724 -0.9430 -1.9876
  874SOL  HW2   2622   1.601   1.156   1.696 -2.2670 -1.2664 -0.0395
  875SOL  OW    2623   0.010   2.466   0.538  0.2964  0.4187  0.1728
  875SOL  HW1   2624   0.089   2.407   0.564  1.8618  0.1755 -2.2617
  875SOL  HW2   2625   0.045   2.556   0.520 -0.8394  0.6444 -0.4990
  876SOL  OW    2626   1.228   0.305   2.650  0.0995 -0.0985 -0.3314
  876SOL  HW1   2627   1.210   0.361   2.567  0.3187 -0.3202 -0.1483
  876SOL  HW2   2628   1.262   0.365   2.724  1.7681  0.8178  0.9539
  877SOL  OW    2629   2.207   2.686   1.469 -0.3579  0.0307 -0.0152
  877SOL  HW1   2630   2.141   2.617   1.501  2.9625 -0.6656 -0.5434
  877SOL  HW2   2631   2.303   2.652   1.481  0.5439 -1.1860  0.8922
  878SOL  OW    2632   1.863   2.406   0.251 -0.2061  0.2017  0.0184
  878SOL  HW1   2633   1.891   2.330   0.186 -0.7475  0.1047  1.7207
  878SOL  HW2   2634   1.941   2.473   0.252  1.6744  0.0067  1.2254
  879SOL  OW    2635   1.895   3.045   1.981 -0.1409  0.4078 -0.1927
  879SOL  HW1   2636   1.928   3.020   1.886  1.0005  0.0020 -2.7078
  879SOL  HW2   2637   1.969   3.027   2.047 -1.7198  1.3744 -0.7442
  880SOL  OW    2638   1.259   0.413   2.905  0.2229 -0.2765  0.1789
  880SOL  HW1   2639   1.265   0.354   2.990 -0.9255  0.8103 -0.4122
  880SOL  HW2   2640   1.270   0.514   2.919 -0.6757  0.6100 -0.0674
  881SOL  OW    2641   1.337   2.196   1.164 -0.0109  0.4056  0.2867
  881SOL  HW1   2642   1.359   2.132   1.242 -0.3410 -1.7395 -0.9272
  881SOL  HW2   2643   1.252   2.165   1.114 -0.4684  0.1327  0.6238
  882SOL  OW    2644   1.286   0.520   0.348 -0.2069  0.4373 -0.7280
  882SOL  HW1   2645   1.201   0.488   0.389  4.2039  1.1141 -0.9017
  882SOL  HW2   2646   1.314   0.618   0.376  0.9724  2.7205 -0.6041
  883SOL  OW    2647   1.000   0.019   2.375  0.0226 -0.9696 -0.6605
  883SOL  HW1   2648   1.035   3.020   2.380 -1.4641  3.1543 -0.3795
  883SOL  HW2   2649   0.969   0.054   2.466  0.7461 -1.2783 -0.9148
  884SOL  OW    2650   1.494   0.981   2.908 -0.0904 -0.1410  0.7906
  884SOL  HW1   2651   1.412   1.026   2.867 -0.2775  0.5315 -3.0552
  884SOL  HW2   2652   1.585   1.022   2.878  2.4627  0.1295  0.4385
  885SOL  OW    2653   1.573   2.514   0.066 -0.2903 -0.0530  0.3559
  885SOL  HW1   2654   1.620   2.590   0.111 -1.5512 -0.6518 -2.3225
  885SOL  HW2   2655   1.474   2.513   0.099  0.5435 -1.2283  2.0538
  886SOL  OW    2656   1.696   2.718   0.208  0.4409 -0.4287 -0.1205
  886SOL  HW1   2657   1.696   2.658   0.288 -1.3588  1.1970 -1.1157
  886SOL  HW2   2658   1.631   2.795   0.209  2.4964 -1.5053  1.9608
  887SOL  OW    2659   1.493   0.599   1.385 -0.1206  0.1727 -0.3774
  887SOL  HW1   2660   1.466   0.527   1.315 -0.3539 -1.5768 -2.4709
  887SOL  HW2   2661   1.558   0.563   1.458  0.9386  1.4681 -0.9439
  888SOL  OW    2662   2.611   0.609   1.850 -0.2260 -0.2219 -1.0915
  888SOL  HW1   2663   2.564   0.653   1.930 -2.4332 -0.4984  0.8145
  888SOL  HW2   2664   2.699   0.569   1.885 -2.1089 -0.2313  0.5788
  889SOL  OW    2665   0.036   1.846   2.231 -0.2962 -0.1833  0.0570
  889SOL  HW1   2666   0.005   1.843   2.136  0.5899 -0.5447  1.3779
  889SOL  HW2   2667   0.071   1.756   2.269  1.0559 -1.2265  2.6776
  890SOL  OW    2668   0.051   1.569   2.286  0.5011 -0.3238 -0.6313
  890SOL  HW1   2669   3.066   1.589   2.344  1.2075  2.5951 -2.2033
  890SOL  HW2   2670   0.025   1.548   2.191 -1.8341  0.1265  1.9673
  891SOL  OW    2671   2.944   0.926   0.442  0.8714 -0.3453 -0.2047
  891SOL  HW1   2672   2.883   0.952   0.521 -0.6900  0.1463  1.8593
  891SOL  HW2   2673   2.889   0.865   0.378 -1.7745  1.7633  0.3946
  892SOL  OW    2674   2.730   0.056   0.362  0.0824 -0.6047  0.0663
  892SOL  HW1   2675   2.797   3.092   0.311  1.6476 -2.1376 -0.4069
  892SOL  HW2   2676   2.737   0.042   0.461 -1.2531  1.3268 -0.9647
  893SOL  OW    2677   2.700   0.076   0.657 -0.0326 -0.0780  0.0796
  893SOL  HW1   2678   2.650   3.090   0.692  1.5763  0.0852 -1.3189
  893SOL  HW2   2679   2.771   0.112   0.722  0.2829  1.4725  0.8523
  894SOL  OW    2680   2.510   2.515   1.216  0.1542 -0.0011  0.0625
  894SOL  HW1   2681   2.502   2.473   1.307 -1.7714  0.4987 -0.0765
  894SOL  HW2   2682   2.440   2.591   1.208 -2.9667 -0.4956 -0.9258
  895SOL  OW    2683   1.702   0.520   1.542  0.4025  0.0549  0.4155
  895SOL  HW1   2684   1.715   0.518   1.647 -3.2338  0.6915  1.3234
  895SOL  HW2   2685   1.756   0.595   1.496 -0.6101 -1.3863  1.4592
  896SOL  OW    2686   3.030   0.784   1.791 -0.0061  0.4505  0.2656
  896SOL  HW1   2687   2.964   0.807   1.717 -0.2018  1.3854  0.1474
  896SOL  HW2   2688   2.990   0.772   1.883  1.2044 -0.6893  0.0904
  897SOL  OW    2689   0.117   0.973   0.001 -0.1230 -0.1679  0.1150
  897SOL  HW1   2690   0.148   0.902   0.063  0.9439  2.3124  0.1799
  897SOL  HW2   2691   0.165   1.059   0.025 -0.1438  1.3687 -0.3194
  898SOL  OW    2692   2.481   0.752   2.058 -0.6115 -0.2609 -0.0028
  898SOL  HW1   2693   2.457   0.847   2.032 -0.3756  1.7242  1.9945
  898SOL  HW2   2694   2.394   0.708   2.086  2.4294 -1.6215 -1.0192
  899SOL  OW    2695   1.509   1.938   0.554 -0.5062 -0.3063  0.0227
  899SOL  HW1   2696   1.590   1.915   0.500 -1.7399  2.1737  2.6342
  899SOL  HW2   2697   1.515   2.033   0.589 -0.7921  1.7993 -0.0723
  900SOL  OW    2698   1.453   0.206   1.935  0.1561 -0.2012 -0.0710
  900SOL  HW1   2699   1.410   0.171   1.854  0.9030  0.8928  1.6827
  900SOL  HW2   2700   1.549   0.170   1.936 -1.6818  0.2680 -0.3531
  901SOL  OW    2701   2.803   1.660   0.640  0.6359  0.3302  0.2908
  901SOL  HW1   2702   2.721   1.607   0.670  0.5284  1.0932 -0.6504
  901SOL  HW2   2703   2.794   1.760   0.656 -2.8249 -1.4155 -2.3838
  902SOL  OW    2704   1.083   0.301   0.707 -0.0468 -0.1035  0.3768
  902SOL  HW1   2705   1.054   0.203   0.694 -1.0326 -2.8385  0.1239
  902SOL  HW2   2706   1.179   0.307   0.737 -0.4981 -1.6207  0.0614
  903SOL  OW    2707   0.265   0.798   0.586  0.1336 -0.4410 -0.2619
  903SOL  HW1   2708   0.316   0.802   0.495  0.8485  0.2110 -1.0010
  903SOL  HW2   2709   0.164   0.810   0.576 -2.6614  0.8502  0.3690
  904SOL  OW    2710   0.331   0.758   1.300 -0.1889  0.4047 -0.3157
  904SOL  HW1   2711   0.313   0.855   1.317 -1.9130  0.2281 -1.3930
  904SOL  HW2   2712   0.354   0.739   1.203 -1.6995  0.8075  1.7175
  905SOL  OW    2713   1.199   2.953   1.433 -0.0932  0.2447  0.0314
  905SOL  HW1   2714   1.213   2.936   1.529  0.7843 -1.8128 -1.3266
  905SOL  HW2   2715   1.268   3.014   1.399 -0.1572 -0.5888 -1.5639
  906SOL  OW    2716   1.604   2.889   1.566 -0.0099 -0.2698  0.1973
  906SOL  HW1   2717   1.666   2.825   1.608 -0.2911  0.4564 -0.9209
  906SOL  HW2   2718   1.641   2.982   1.588 -0.5421  3.6496 -0.4964
  907SOL  OW    2719   2.483   1.229   0.236 -0.2450  0.6085  0.3523
  907SOL  HW1   2720   2.503   1.292   0.165 -1.5119 -4.1928  0.9483
  907SOL  HW2   2721   2.541   1.149   0.227 -0.9883  0.4160  2.4403
  908SOL  OW    2722   1.828   1.566   0.524 -0.5496 -0.8830 -0.2883
  908SOL  HW1   2723   1.893   1.572   0.602 -1.2832  0.5199 -0.0734
  908SOL  HW2   2724   1.860   1.594   0.430  0.3241  0.0606 -0.7088
  909SOL  OW    2725   0.271   2.304   0.843  0.0071 -0.5448  0.1012
  909SOL  HW1   2726   0.179   2.313   0.883  2.0298  1.1020  1.4344
  909SOL  HW2   2727   0.327   2.384   0.871  3.8075  0.6957  1.0070
  910SOL  OW    2728   1.715   2.907   2.979  0.3858  0.3926 -0.2733
  910SOL  HW1   2729   1.639   2.838   2.962 -1.5038 -2.0697 -1.6957
  910SOL  HW2   2730   1.792   2.872   2.924  2.8094 -0.5256  1.1105
  911SOL  OW    2731   1.296   2.058   2.560 -0.2572  0.2498  0.2073
  911SOL  HW1   2732   1.222   1.993   2.538 -0.1476  1.6511  0.8255
  911SOL  HW2   2733   1.253   2.135   2.619 -0.1529  0.6388  0.6184
  912SOL  OW    2734   1.455   2.161   1.755 -0.5396  0.3068 -0.1850
  912SOL  HW1   2735   1.394   2.146   1.839 -0.0444  2.3039  0.9177
  912SOL  HW2   2736   1.447   2.256   1.728  0.0160  0.6905 -0.8994
  913SOL  OW    2737   2.577   2.075   2.084 -0.2462  0.4056  0.0242
  913SOL  HW1   2738   2.598   2.004   2.016  1.2469 -1.9840  0.4405
  913SOL  HW2   2739   2.481   2.114   2.084 -2.7470 -2.1976 -1.7760
  914SOL  OW    2740   0.416   0.288   2.680 -0.0526  0.4746  0.2320
  914SOL  HW1   2741   0.464   0.346   2.610  1.1606  1.4631  1.1173
  914SOL  HW2   2742   0.316   0.301   2.677 -0.5098 -0.1797 -0.9962
  915SOL  OW    2743   0.365   1.615   0.635  0.2142  0.6645 -0.4055
  915SOL  HW1   2744   0.433   1.541   0.618 -0.0561  0.1405 -0.3553
  915SOL  HW2   2745   0.336   1.598   0.733  2.5469 -0.5847  1.0451
  916SOL  OW    2746   1.276   1.887   0.985 -0.4907  0.7418 -0.3699
  916SOL  HW1   2747   1.364   1.927   0.944  1.2052  0.7098 -1.4166
  916SOL  HW2   2748   1.217   1.965   1.001 -2.1566  2.4731  2.6962
  917SOL  OW    2749   3.065   1.532   1.975 -0.6530 -0.3982 -0.6136
  917SOL  HW1   2750   2.984   1.502   2.029  0.9302 -0.2431  2.1313
  917SOL  HW2   2751   3.070   1.487   1.882  0.7993  2.9560 -2.0056
  918SOL  OW    2752   1.448   1.633   1.401 -0.0133  0.0729  0.0768
  918SOL  HW1   2753   1.540   1.676   1.420 -0.9821  1.2395  0.2534
  918SOL  HW2   2754   1.416   1.647   1.308 -0.9783 -1.3031  2.4631
  919SOL  OW    2755   0.702   1.448   2.147  0.3407  0.0888 -0.3097
  919SOL  HW1   2756   0.738   1.424   2.055 -0.0778 -0.5945  1.7148
  919SOL  HW2   2757   0.603   1.419   2.156 -0.3397  0.1319  2.2881
  920SOL  OW    2758   1.878   0.827   2.246 -0.2873 -0.6122  0.0239
  920SOL  HW1   2759   1.879   0.893   2.326  2.4652  0.3914 -0.6122
  920SOL  HW2   2760   1.955   0.846   2.181  0.9446  0.7797 -1.6258
  921SOL  OW    2761   2.490   2.381   1.480 -0.7042  0.4906 -0.4845
  921SOL  HW1   2762   2.416   2.324   1.526 -0.2696 -2.1476  3.6373
  921SOL  HW2   2763   2.482   2.479   1.520  1.4221  1.6281 -0.4968
  922SOL  OW    2764   1.877   2.062   1.430  0.1946 -0.4437  0.0151
  922SOL  HW1   2765   1.800   2.049   1.362 -1.0129  1.7577 -2.0654
  922SOL  HW2   2766   1.843   2.054   1.524  2.3788  0.8999 -2.3350
  923SOL  OW    2767   0.882   0.413   1.118  0.5528  0.2475  0.0134
  923SOL  HW1   2768   0.892   0.473   1.034  1.9050  0.0177  2.1031
  923SOL  HW2   2769   0.921   0.466   1.200  1.1793  1.5436  0.2480
  924SOL  OW    2770   0.976   1.417   2.946  0.5758  0.0929 -0.8096
  924SOL  HW1   2771   0.941   1.335   2.902 -2.3593  1.0642  2.0739
  924SOL  HW2   2772   0.961   1.500   2.893 -2.3503  1.2146 -1.5301
  925SOL  OW    2773   0.934   2.359   1.282 -0.2174 -0.5162  0.3069
  925SOL  HW1   2774   0.893   2.382   1.373 -0.9357  0.0954 -1.3007
  925SOL  HW2   2775   1.030   2.390   1.274  0.2116  1.7315  0.4235
  926SOL  OW    2776   0.981   0.555   1.324 -0.2617  0.0285  0.0279
  926SOL  HW1   2777   0.924   0.638   1.305  0.3400 -0.1946  1.0181
  926SOL  HW2   2778   1.008   0.543   1.421  0.1282 -0.0200 -2.4197
  927SOL  OW    2779   0.484   1.971   2.504 -0.3416  0.2831 -0.1901
  927SOL  HW1   2780   0.439   1.894   2.452 -1.0900 -0.8845 -2.0527
  927SOL  HW2   2781   0.470   1.962   2.605 -1.4269 -0.4054  2.0254
  928SOL  OW    2782   0.698   0.873   2.948  0.4434  0.2171  0.2588
  928SOL  HW1   2783   0.614   0.916   2.906 -0.4565 -2.0184  0.7395
  928SOL  HW2   2784   0.749   0.814   2.885 -0.5541 -0.1281 -2.1242
  929SOL  OW    2785   2.440   1.957   0.321  0.7213 -0.2875 -0.5899
  929SOL  HW1   2786   2.452   1.889   0.395  1.4433 -2.0175  1.7774
  929SOL  HW2   2787   2.345   1.979   0.299  1.0680 -1.0999 -0.7744
  930SOL  OW    2788   0.466   0.134   1.718 -0.8098  0.4840 -0.2789
  930SOL  HW1   2789   0.458   0.230   1.757 -0.8775 -2.6224 -2.5897
  930SOL  HW2   2790   0.466   0.061   1.787 -0.4853 -0.2294 -1.1040
  931SOL  OW    2791   2.714   1.603   2.502  0.2020 -0.1072  0.2717
  931SOL  HW1   2792   2.609   1.609   2.479 -3.1293 -0.4572 -0.3326
  931SOL  HW2   2793   2.740   1.524   2.560 -0.2933 -0.9264  1.4977
  932SOL  OW    2794   1.374   0.428   1.222  0.3491  0.5335 -0.8589
  932SOL  HW1   2795   1.325   0.514   1.198  1.0778  0.9438 -0.2756
  932SOL  HW2   2796   1.305   0.354   1.257 -0.5827 -0.3393  0.4436
  933SOL  OW    2797   2.473   0.838   0.371  0.1690  0.0440 -0.2329
  933SOL  HW1   2798   2.533   0.756   0.399  3.6521  0.7167  3.4265
  933SOL  HW2   2799   2.466   0.892   0.459  0.9754  3.0922  1.3435
  934SOL  OW    2800   2.251   1.192   2.725 -0.3789  0.0993  0.1230
  934SOL  HW1   2801   2.286   1.250   2.804  1.4424 -0.3825  1.8518
  934SOL  HW2   2802   2.246   1.092   2.750 -1.6456 -1.2411  1.0286
  935SOL  OW    2803   2.907   1.196   1.941  0.0682  0.0038  0.3123
  935SOL  HW1   2804   2.818   1.161   1.897 -1.8625 -0.9780 -0.3092
  935SOL  HW2   2805   2.955   1.125   1.988 -2.6225 -1.4116 -0.2295
  936SOL  OW    2806   0.415   0.569   0.814  0.4057  0.3708  0.1714
  936SOL  HW1   2807   0.455   0.475   0.820  1.3034  2.6446  0.6984
  936SOL  HW2   2808   0.447   0.611   0.726 -1.0124 -0.2167 -0.0194
  937SOL  OW    2809   0.973   2.574   2.534  0.4765 -0.0252 -0.0216
  937SOL  HW1   2810   0.997   2.617   2.444 -0.9623 -2.1512  2.7914
  937SOL  HW2   2811   0.914   2.632   2.591 -0.6281  1.7798 -1.6269
  938SOL  OW    2812   2.866   2.681   2.382  0.1542  0.0475 -0.0936
  938SOL  HW1   2813   2.895   2.772   2.355 -3.8249 -2.9985  1.3239
  938SOL  HW2   2814   2.942   2.613   2.373  0.2383  0.4670 -1.2619
  939SOL  OW    2815   0.289   1.023   1.360  0.0905 -0.3154 -0.1925
  939SOL  HW1   2816   0.221   1.023   1.428  2.9398  0.9230 -3.8517
  939SOL  HW2   2817   0.383   1.057   1.394 -0.5473  1.0896  2.9109
  940SOL  OW    2818   2.045   2.941   2.592  0.4712  0.0151 -0.0215
  940SOL  HW1   2819   2.038   2.864   2.529 -0.1081 -0.0654  3.2684
  940SOL  HW2   2820   1.990   3.020   2.556  0.2029  0.7612 -1.0004
  941SOL  OW    2821   1.026   1.734   2.361 -0.1094 -0.8186  0.0434
  941SOL  HW1   2822   1.007   1.681   2.440 -1.4103  1.3937 -2.0515
  941SOL  HW2   2823   0.946   1.788   2.327 -0.6275  0.0557  1.3446
  942SOL  OW    2824   2.932   2.405   1.774  0.2610 -0.4421 -0.3629
  942SOL  HW1   2825   2.870   2.328   1.747  1.1663  0.9324  1.3989
  942SOL  HW2   2826   2.894   2.453   1.855  0.5943  0.8886 -0.2061
  943SOL  OW    2827   1.416   1.401   1.705 -0.0404 -0.4884 -0.3355
  943SOL  HW1   2828   1.315   1.392   1.691  0.0060  0.8743  1.0914
  943SOL  HW2   2829   1.435   1.470   1.783 -1.4486  0.8849  1.9068
  944SOL  OW    2830   2.216   1.189   0.278  0.2714 -0.1830  0.1041
  944SOL  HW1   2831   2.318   1.184   0.272  0.9539 -1.4786 -0.2757
  944SOL  HW2   2832   2.179   1.128   0.356 -1.7665 -0.7574  2.6916
  945SOL  OW    2833   1.786   0.569   2.228  0.0692 -0.7939 -0.1322
  945SOL  HW1   2834   1.687   0.570   2.245  0.4689  0.0462  2.0122
  945SOL  HW2   2835   1.821   0.667   2.238 -1.4985  0.8644  0.4736
  946SOL  OW    2836   0.091   0.560   2.585 -0.2660  0.5122  0.3449
  946SOL  HW1   2837   0.101   0.471   2.632 -0.5396 -1.4838  2.1514
  946SOL  HW2   2838   0.104   0.644   2.647  0.3799  1.6109  0.8370
  947SOL  OW    2839   1.346   2.827   0.188 -0.0247  0.5116 -0.0549
  947SOL  HW1   2840   1.425   2.879   0.224  0.3299  0.9671  1.4527
  947SOL  HW2   2841   1.333   2.852   0.092 -1.1346  1.2622 -0.5590
  948SOL  OW    2842   1.775   0.497   0.675  0.3118 -0.4178 -0.0003
  948SOL  HW1   2843   1.773   0.446   0.763  0.4066 -0.5191  0.6847
  948SOL  HW2   2844   1.758   0.436   0.596  0.9320 -0.4896 -0.6194
  949SOL  OW    2845   3.033   0.155   2.837 -0.2547  0.0409 -0.2906
  949SOL  HW1   2846   3.000   0.095   2.760 -1.6368 -1.2160 -0.9986
  949SOL  HW2   2847   2.955   0.223   2.856  1.6938 -1.2733 -0.6557
  950SOL  OW    2848   1.061   0.005   1.713  0.1554 -0.4192 -0.1914
  950SOL  HW1   2849   1.053   0.064   1.797  0.0867 -1.6805  0.0951
  950SOL  HW2   2850   1.058   0.060   1.630  0.4336 -1.9926  0.2339
  951SOL  OW    2851   0.765   2.014   2.885  0.1562 -0.2942  0.3318
  951SOL  HW1   2852   0.718   1.925   2.903 -0.8619  0.4097 -1.3313
  951SOL  HW2   2853   0.699   2.094   2.888  1.3899  1.0777 -2.4126
  952SOL  OW    2854   0.027   2.014   0.932  0.5448  0.0585 -0.2455
  952SOL  HW1   2855   0.023   2.119   0.937 -3.3948  2.0028 -0.3900
  952SOL  HW2   2856   0.043   1.991   0.836  3.4021 -0.4687  3.8866
  953SOL  OW    2857   1.975   1.627   3.030  0.0657 -0.0660 -0.0510
  953SOL  HW1   2858   1.892   1.648   3.090 -1.8126 -0.3640  3.8862
  953SOL  HW2   2859   1.980   1.684   2.943  0.3818 -1.2243  0.0136
  954SOL  OW    2860   2.182   2.711   0.544 -0.1760  0.1636  0.5340
  954SOL  HW1   2861   2.265   2.773   0.527  4.2117  2.9919 -0.9850
  954SOL  HW2   2862   2.110   2.759   0.598  0.7968 -0.8607 -0.8064
  955SOL  OW    2863   2.426   1.564   2.727 -0.4403  0.2278  0.2796
  955SOL  HW1   2864   2.502   1.504   2.694  2.8888  0.7093  0.5405
  955SOL  HW2   2865   2.455   1.627   2.804 -0.9169  0.4838  2.4278
  956SOL  OW    2866   0.449   2.996   1.876 -0.2538 -0.0852 -0.2679
  956SOL  HW1   2867   0.394   2.955   1.955 -2.1646  0.0788 -1.1282
  956SOL  HW2   2868   0.516   2.927   1.843  0.3920 -1.5733  0.5263
  957SOL  OW    2869   0.894   1.246   0.292  0.2935  0.1131  0.1351
  957SOL  HW1   2870   0.902   1.337   0.252  1.7859 -3.0482  0.1490
  957SOL  HW2   2871   0.953   1.176   0.246 -0.6940  0.3099  3.4899
  958SOL  OW    2872   1.719   1.332   1.216  0.4509  0.0424  0.3556
  958SOL  HW1   2873   1.673   1.343   1.304  0.0347 -2.5903 -0.2501
  958SOL  HW2   2874   1.657   1.286   1.153  1.9729  3.2315  1.0008
  959SOL  OW    2875   2.387   1.899   1.885  0.7747  0.5507  0.1012
  959SOL  HW1   2876   2.369   1.863   1.792  3.4933  0.8170 -1.8943
  959SOL  HW2   2877   2.398   1.831   1.967  0.1405 -3.2500  2.2341
  960SOL  OW    2878   1.016   1.045   0.151 -0.1508  0.1391  0.1530
  960SOL  HW1   2879   0.979   1.043   0.059  3.3981 -0.5827  1.4534
  960SOL  HW2   2880   1.118   1.035   0.140  0.0162 -1.9317 -0.0990
  961SOL  OW    2881   2.451   2.999   1.247 -0.1399 -0.0844  0.0882
  961SOL  HW1   2882   2.488   3.061   1.321 -0.0118 -0.1559 -0.3873
  961SOL  HW2   2883   2.498   3.019   1.157  0.0397 -0.4339  2.7344
  962SOL  OW    2884   1.544   0.041   2.995 -0.1381 -0.3799 -0.3508
  962SOL  HW1   2885   1.601   3.057   2.975  2.5297 -0.5642  1.8241
  962SOL  HW2   2886   1.447   0.037   2.965 -0.1832  1.7499  3.2304
  963SOL  OW    2887   2.158   1.454   0.569  0.0151 -0.9124 -0.0848
  963SOL  HW1   2888   2.141   1.355   0.568 -0.4383 -0.0744 -1.7823
  963SOL  HW2   2889   2.141   1.495   0.662 -0.3295 -1.2252  0.4002
  964SOL  OW    2890   0.588   2.790   1.774  0.3413 -0.5168  0.0814
  964SOL  HW1   2891   0.580   2.782   1.669 -0.3349  0.1869 -0.5912
  964SOL  HW2   2892   0.673   2.760   1.813  0.7622 -1.5800  3.1713
  965SOL  OW    2893   2.504   1.920   2.318  0.0859  0.2096  0.1625
  965SOL  HW1   2894   2.536   1.984   2.247 -0.8258  0.1263  1.8771
  965SOL  HW2   2895   2.581   1.893   2.377  1.7144 -1.2136 -1.3525
  966SOL  OW    2896   0.633   2.055   0.395 -0.1473  0.2439 -0.3882
  966SOL  HW1   2897   0.640   1.973   0.460  1.4320 -1.2877  0.2644
  966SOL  HW2   2898   0.621   2.023   0.298 -0.8723 -0.4880 -0.6242
  967SOL  OW    2899   2.854   2.369   2.807 -0.3865  0.2393  0.1136
  967SOL  HW1   2900   2.768   2.421   2.790 -0.0391 -1.3672  0.6021
  967SOL  HW2   2901   2.893   2.320   2.725  2.5818  0.5997 -3.0408
  968SOL  OW    2902   1.226   1.865   2.258 -0.7133 -0.1865  0.0781
  968SOL  HW1   2903   1.145   1.824   2.298  1.2834 -0.3292 -0.0485
  968SOL  HW2   2904   1.217   1.963   2.259  2.0098 -2.6331  1.8309
  969SOL  OW    2905   3.009   1.317   0.127  0.3462 -0.3048 -0.5913
  969SOL  HW1   2906   2.986   1.409   0.151 -0.0941 -5.1866 -0.4194
  969SOL  HW2   2907   0.017   1.292   0.116  0.9202  0.3339 -1.2976
  970SOL  OW    2908   0.926   0.031   0.177  0.6596 -0.0916  0.3425
  970SOL  HW1   2909   0.913   0.056   0.078  0.7419 -2.2339 -0.9076
  970SOL  HW2   2910   1.020   3.088   0.196 -0.1048 -1.2431 -0.3178
  971SOL  OW    2911   2.057   0.562   0.710  0.1133  0.1390  0.6515
  971SOL  HW1   2912   1.969   0.518   0.685 -0.5417  0.4196  0.4836
  971SOL  HW2   2913   2.105   0.606   0.632  0.9811  0.2764 -0.2048
  972SOL  OW    2914   0.629   1.825   2.087 -0.2294  0.3116 -0.0100
  972SOL  HW1   2915   0.541   1.788   2.114  2.3553  0.1840  2.0285
  972SOL  HW2   2916   0.690   1.759   2.033  0.0507 -2.1360 -0.4082
  973SOL  OW    2917   0.557   2.961   0.087 -0.3027 -0.3079 -0.1655
  973SOL  HW1   2918   0.624   2.898   0.126 -0.7634 -0.0303 -1.4901
  973SOL  HW2   2919   0.571   3.054   0.124 -1.0385 -1.4774 -0.4010
  974SOL  OW    2920   1.878   0.991   1.601  0.1736  0.3656  0.6951
  974SOL  HW1   2921   1.952   1.046   1.565 -1.2636  0.9269  1.6544
  974SOL  HW2   2922   1.886   0.965   1.699 -0.4075 -0.2739 -0.4166
  975SOL  OW    2923   2.418   0.252   1.260  0.4520 -0.0017 -0.0912
  975SOL  HW1   2924   2.467   0.257   1.173  0.9542 -0.3278  0.6284
  975SOL  HW2   2925   2.464   0.180   1.318 -2.1860  1.5536 -2.6957
  976SOL  OW    2926   0.271   2.112   1.319  0.5507  0.0390 -0.3853
  976SOL  HW1   2927   0.362   2.105   1.272 -1.2725 -1.4948 -2.4326
  976SOL  HW2   2928   0.257   2.208   1.351  0.5456 -2.1305 -2.4970
  977SOL  OW    2929   2.304   0.228   2.568 -0.6533  0.0273 -0.2401
  977SOL  HW1   2930   2.295   0.130   2.600 -0.1086 -1.0331  0.7214
  977SOL  HW2   2931   2.371   0.241   2.491  1.3872  0.1249 -2.3332
  978SOL  OW    2932   0.281   0.243   3.080 -0.1779 -0.4017  0.1127
  978SOL  HW1   2933   0.258   0.333   3.049 -0.4388 -0.5389  1.7229
  978SOL  HW2   2934   0.316   0.246   0.084  0.3873 -1.4975  1.5426
  979SOL  OW    2935   1.721   0.676   0.163  0.7000 -0.1707  0.0708
  979SOL  HW1   2936   1.747   0.587   0.207 -1.6495  1.1316 -0.0254
  979SOL  HW2   2937   1.777   0.697   0.080  1.2047 -2.0992 -0.8996
  980SOL  OW    2938   1.162   1.565   0.298 -0.4855  0.4473 -0.8871
  980SOL  HW1   2939   1.117   1.556   0.391  0.1051 -1.1494  3.7784
  980SOL  HW2   2940   1.266   1.562   0.301  2.2815 -0.5414  0.1185
  981SOL  OW    2941   1.442   2.088   1.401 -0.7670  0.5138  0.2080
  981SOL  HW1   2942   1.517   2.034   1.358  2.3218  0.3961 -0.9155
  981SOL  HW2   2943   1.384   2.030   1.460 -0.5783 -2.2248 -0.7838
  982SOL  OW    2944   1.151   1.767   1.393  0.4914 -0.0813 -0.4788
  982SOL  HW1   2945   1.217   1.824   1.451  1.4338 -1.0343 -0.0184
  982SOL  HW2   2946   1.177   1.760   1.298  0.0707  1.2496  0.4769
  983SOL  OW    2947   0.761   1.921   1.240  0.4165 -0.2692  0.6353
  983SOL  HW1   2948   0.806   2.010   1.220  2.7487 -1.3103  0.1918
  983SOL  HW2   2949   0.796   1.855   1.175 -0.5829  0.2547 -0.7137
  984SOL  OW    2950   0.465   0.366   0.465 -0.1633  0.5810 -0.1308
  984SOL  HW1   2951   0.438   0.431   0.536 -1.1433  0.1408 -1.0093
  984SOL  HW2   2952   0.542   0.314   0.506  2.4012  0.6420  0.5341
  985SOL  OW    2953   1.023   1.305   1.774  0.0429 -0.1019  0.4779
  985SOL  HW1   2954   1.019   1.237   1.850 -2.4519  0.0507 -1.1410
  985SOL  HW2   2955   1.005   1.257   1.685 -1.7814  0.5644  1.2507
  986SOL  OW    2956   2.749   2.812   2.069 -0.8017  0.0150 -0.5400
  986SOL  HW1   2957   2.660   2.852   2.097  0.7251 -0.7127  0.4902
  986SOL  HW2   2958   2.819   2.836   2.138 -0.7841  2.9053 -0.2916
  987SOL  OW    2959   0.352   1.540   2.998 -0.3798 -0.6757  0.1105
  987SOL  HW1   2960   0.357   1.559   2.896  0.6846  0.2643  0.0632
  987SOL  HW2   2961   0.254   1.541   3.031 -2.3181  3.0217  1.3143
  988SOL  OW    2962   0.148   1.200   1.165 -0.2064  0.2293 -0.0922
  988SOL  HW1   2963   0.196   1.125   1.212  1.2788  3.0398 -0.9326
  988SOL  HW2   2964   0.203   1.290   1.162  3.5351  3.7779  1.9909
  989SOL  OW    2965   2.039   2.854   0.727  0.0419 -0.1181  0.5341
  989SOL  HW1   2966   2.035   2.838   0.828  3.5178 -0.4835 -1.6388
  989SOL  HW2   2967   2.041   2.957   0.705 -0.1026  0.7316  0.7068
  990SOL  OW    2968   2.725   0.723   0.999  0.1409 -0.3356  0.2173
  990SOL  HW1   2969   2.670   0.662   1.061  0.0852 -3.2155  2.0363
  990SOL  HW2   2970   2.824   0.714   1.018 -0.2179  2.8060  0.8278
  991SOL  OW    2971   0.515   2.084   1.180  0.0646 -0.1378  0.1989
  991SOL  HW1   2972   0.604   2.050   1.219  0.5085 -0.3814 -2.1676
  991SOL  HW2   2973   0.524   2.113   1.082  2.8392 -0.7434  1.2947
  992SOL  OW    2974   0.779   0.358   1.653 -0.6315 -0.4178 -0.1086
  992SOL  HW1   2975   0.811   0.451   1.679 -1.6766 -0.6073 -1.8296
  992SOL  HW2   2976   0.778   0.292   1.727 -0.9364 -0.8280 -1.0462
  993SOL  OW    2977   0.148   0.066   1.121  0.1608  0.2712 -0.4876
  993SOL  HW1   2978   0.047   0.043   1.121 -0.8082 -1.2236  0.3475
  993SOL  HW2   2979   0.157   0.162   1.159 -0.6840  0.5007  0.8460
  994SOL  OW    2980   0.257   1.599   1.978  0.2848 -0.1904  0.1182
  994SOL  HW1   2981   0.273   1.684   2.034 -0.4326  0.6584  0.6542
  994SOL  HW2   2982   0.155   1.592   1.952 -3.0261  0.8444  0.2652
  995SOL  OW    2983   2.542   0.187   1.765  0.0615 -0.3116  0.4417
  995SOL  HW1   2984   2.541   0.091   1.732 -1.6294  0.7127  0.9775
  995SOL  HW2   2985   2.472   0.195   1.833 -0.4735 -2.8633 -1.6904
  996SOL  OW    2986   2.940   2.820   0.592 -0.6466 -0.0481  0.6690
  996SOL  HW1   2987   2.981   2.905   0.625 -1.6002  0.5986  0.6786
  996SOL  HW2   2988   2.970   2.800   0.499 -0.0158 -0.7054  3.1887
  997SOL  OW    2989   0.475   0.934   2.806 -0.2600 -0.1976 -0.2125
  997SOL  HW1   2990   0.438   1.026   2.790 -1.4913 -0.0263 -0.1938
  997SOL  HW2   2991   0.400   0.865   2.824  1.7243 -0.3951 -1.5289
  998SOL  OW    2992   2.691   1.966   0.266 -0.4783  0.0316  0.0298
  998SOL  HW1   2993   2.593   1.959   0.291  2.7649  3.1631 -0.2906
  998SOL  HW2   2994   2.706   1.999   0.172  1.1137 -0.6265  0.5889
  999SOL  OW    2995   0.906   2.400   0.285  0.3340 -0.5115  0.0552
  999SOL  HW1   2996   0.837   2.438   0.223  0.8005 -0.7995 -0.3930
  999SOL  HW2   2997   0.860   2.348   0.362  0.7251 -1.8713 -0.6264
 1000SOL  OW    2998   1.693   2.963   2.138  0.2586 -0.3503 -0.1422
 1000SOL  HW1   2999   1.769   2.967   2.070  0.4813 -1.6516  1.0838
 1000SOL  HW2   3000   1.693   3.044   2.203  1.7218 -1.7801  3.9795
    3.095540047     3.095540047     3.095540047     0.000000000     0.000000000     0.000000000     0.000000000     0.000000000     0.000000000
