1000 SPC/Fw water molecules t=  10.00000 step= 10000
 3000
    1SOL     OW    1   1.420   2.571   0.325  0.0211  0.1853 -0.2178
    1SOL    HW1    2   1.437   2.661   0.277  0.7584  2.4570 -0.4279
    1SOL    HW2    3   1.334   2.576   0.382  2.7960 -0.9914  3.0267
    2SOL     OW    4   1.437   1.003   1.756 -0.2628 -0.1348  0.2109
    2SOL    HW1    5   1.351   0.976   1.710 -2.1555 -2.7105  0.4268
    2SOL    HW2    6   1.468   1.095   1.726  1.8604  0.7659  1.5822
    3SOL     OW    7   0.778   0.082   2.768  0.1301 -0.4640  0.2222
    3SOL    HW1    8   0.783   0.182   2.739 -0.6931  2.6219 -3.3419
    3SOL    HW2    9   0.686   0.057   2.797 -0.7682  1.1218  2.2544
    4SOL     OW   10   1.456   1.495   3.025 -0.6159  0.3992 -0.5838
    4SOL    HW1   11   1.417   1.587   3.003 -0.4732 -2.0769  2.4705
    4SOL    HW2   12   1.421   1.466   0.039  1.6197 -2.0762 -1.9520
    5SOL     OW   13   0.657   0.969   2.245  0.3680 -0.2961 -0.0910
    5SOL    HW1   14   0.715   0.912   2.187  0.2240  4.7853 -0.4347
    5SOL    HW2   15   0.703   1.059   2.248 -0.6160  0.0991 -0.2053
    6SOL     OW   16   2.343   1.014   2.448  0.4745 -0.0905 -0.2535
    6SOL    HW1   17   2.385   0.936   2.394  3.4365  0.0983 -0.1262
    6SOL    HW2   18   2.342   1.104   2.395  1.0824  1.2340  1.8204
    7SOL     OW   19   0.224   1.068   1.065  0.2022  0.8329 -0.4804
    7SOL    HW1   20   0.169   1.050   0.980  0.3794 -1.5477  0.6242
    7SOL    HW2   21   0.306   1.129   1.050  2.8412 -1.2390  2.6750
    8SOL     OW   22   2.038   2.702   1.905 -0.5070 -0.2208 -0.3378
    8SOL    HW1   23   1.975   2.718   1.827  1.4028 -1.3739  0.4544
    8SOL    HW2   24   2.071   2.791   1.941  0.0882  0.9931 -1.7954
    9SOL     OW   25   0.042   2.594   0.453 -0.5872  0.4049  0.1717
    9SOL    HW1   26   0.005   2.511   0.497 -0.4296  1.3599  1.1947
    9SOL    HW2   27   0.128   2.564   0.408  1.1520  0.1694  0.8226
   10SOL     OW   28   0.153   2.399   2.382  0.2057 -0.2803  0.0518
   10SOL    HW1   29   0.217   2.423   2.309  0.7135  0.1463  0.3609
   10SOL    HW2   30   0.088   2.330   2.348 -0.1608 -0.2747 -0.0644
   11SOL     OW   31   0.234   1.635   0.047 -0.3097  0.0323  0.2780
   11SOL    HW1   32   0.265   1.586   3.040  1.1363  2.9525  1.9829
   11SOL    HW2   33   0.315   1.682   0.093  0.6195 -0.0917  2.3071
   12SOL     OW   34   2.169   2.774   0.640  0.3059 -0.1508  0.6836
   12SOL    HW1   35   2.259   2.729   0.658 -0.8405 -0.8042 -0.8953
   12SOL    HW2   36   2.103   2.778   0.717 -2.5186  2.1455 -3.7031
   13SOL     OW   37   0.302   0.395   2.655  0.6649 -0.3943 -0.3200
   13SOL    HW1   38   0.304   0.314   2.715  0.8160  0.4532 -3.3485
   13SOL    HW2   39   0.319   0.483   2.709 -1.2944  1.4442  0.1062
   14SOL     OW   40   1.213   0.974   1.496  0.1552  0.2848 -0.1591
   14SOL    HW1   41   1.156   0.959   1.579  0.4928 -0.1040 -2.5621
   14SOL    HW2   42   1.165   0.971   1.406  0.5425  3.9013  0.3151
   15SOL     OW   43   0.711   1.550   2.182 -0.0749 -0.4482  0.2079
   15SOL    HW1   44   0.713   1.527   2.078 -2.3517  1.6898 -0.3833
   15SOL    HW2   45   0.630   1.511   2.234 -0.9921 -2.9170 -1.0929
   16SOL     OW   46   1.759   1.061   2.633  0.1744 -0.3881  0.4336
   16SOL    HW1   47   1.660   1.048   2.651  0.4950 -1.9462 -0.6012
   16SOL    HW2   48   1.781   1.121   2.550 -0.4808  1.0874 -1.7343
   17SOL     OW   49   0.112   2.459   2.061  0.0889 -0.2268 -0.1279
   17SOL    HW1   50   0.056   2.541   2.084  1.6705  1.5719 -0.1294
   17SOL    HW2   51   0.118   2.454   1.960  1.7864 -1.1386  2.5212
   18SOL     OW   52   1.497   1.176   0.744  0.3180 -0.1164 -0.4853
   18SOL    HW1   53   1.490   1.079   0.780 -0.2919 -0.9073 -0.6885
   18SOL    HW2   54   1.404   1.204   0.708  1.1071 -0.7358  0.3744
   19SOL     OW   55   0.235   1.203   1.983 -0.7671  0.3563  0.2065
   19SOL    HW1   56   0.227   1.221   1.884 -0.2080  0.0389  3.4632
   19SOL    HW2   57   0.181   1.124   2.007 -0.0655  1.8387  1.0766
   20SOL     OW   58   2.256   2.332   3.049  0.5989 -0.1547 -0.2150
   20SOL    HW1   59   2.295   2.317   0.067  0.4204 -3.2494  3.5960
   20SOL    HW2   60   2.188   2.406   3.059 -0.2898  0.1764  3.5739
   21SOL     OW   61   1.922   1.752   1.214  0.7141 -0.2647 -0.4028
   21SOL    HW1   62   1.871   1.753   1.302  2.2110 -1.2439 -1.3588
   21SOL    HW2   63   1.967   1.665   1.186  2.3323 -0.8823  3.2326
   22SOL     OW   64   2.020   2.107   1.409 -0.7217  0.3700  0.6212
   22SOL    HW1   65   1.955   2.108   1.485 -0.0172 -0.2713 -0.7866
   22SOL    HW2   66   1.979   2.120   1.317  1.0184  0.3833 -1.4155
   23SOL     OW   67   2.970   0.996   1.162 -0.0904  0.1797 -0.5428
   23SOL    HW1   68   3.016   0.906   1.153 -0.7453 -0.9473  0.3204
   23SOL    HW2   69   2.880   0.993   1.116  1.4880 -0.2319  0.2120
   24SOL     OW   70   1.734   1.099   1.603  0.7971 -0.3353 -0.2065
   24SOL    HW1   71   1.793   1.137   1.531 -0.2729 -0.9192  0.2098
   24SOL    HW2   72   1.784   1.060   1.681 -0.8058  1.1091 -0.8763
   25SOL     OW   73   1.830   0.158   2.274 -0.4433 -0.3213  0.1105
   25SOL    HW1   74   1.912   0.216   2.272 -2.5016 -1.2542  2.4875
   25SOL    HW2   75   1.742   0.214   2.284 -1.5102  1.1586  2.6493
   26SOL     OW   76   0.634   2.927   0.605  0.6554 -0.2565 -0.2949
   26SOL    HW1   77   0.705   2.916   0.678 -2.9841  0.6685  0.6689
   26SOL    HW2   78   0.630   2.846   0.542  0.7915 -1.0339 -2.7227
   27SOL     OW   79   1.103   1.165   0.908 -0.1976 -0.5909 -0.2589
   27SOL    HW1   80   1.177   1.158   0.985  1.6449 -1.8318  2.0677
   27SOL    HW2   81   1.047   1.252   0.914  0.1895  2.3364 -0.8589
   28SOL     OW   82   2.085   2.370   1.068  0.4587 -0.2283  0.4748
   28SOL    HW1   83   2.098   2.460   1.107 -0.4325 -2.0054 -2.3131
   28SOL    HW2   84   2.018   2.313   1.128 -0.8153 -4.1555  1.6838
   29SOL     OW   85   2.211   2.945   2.265 -0.1350 -0.5018  0.2563
   29SOL    HW1   86   2.190   2.876   2.338  2.7798  0.8259 -0.7891
   29SOL    HW2   87   2.227   3.040   2.298  3.2562  0.3845 -1.5736
   30SOL     OW   88   3.004   2.849   1.956  0.1580  0.6929 -0.3588
   30SOL    HW1   89   2.908   2.842   1.995  1.8477  0.3084 -0.1443
   30SOL    HW2   90   3.046   2.938   1.968 -1.3113 -0.5599  1.4410
   31SOL     OW   91   3.052   1.812   2.300 -0.3819  0.2170  0.0475
   31SOL    HW1   92   2.996   1.889   2.337 -1.8897  2.8384  0.5442
   31SOL    HW2   93   0.016   1.835   2.211  0.5561 -1.4132  2.0178
   32SOL     OW   94   0.892   2.356   2.115  0.6084 -0.2341  0.4392
   32SOL    HW1   95   0.854   2.421   2.190  1.4399  4.4955 -0.8326
   32SOL    HW2   96   0.995   2.365   2.129  1.7592 -0.2524 -0.6752
   33SOL     OW   97   0.280   0.391   3.031  0.0074 -0.0047 -0.5533
   33SOL    HW1   98   0.298   0.443   0.043 -1.7225  1.0688  2.2066
   33SOL    HW2   99   0.347   0.407   2.960 -1.2049 -2.6417  0.7594
   34SOL     OW  100   2.776   0.130   3.053 -0.7113 -0.1313 -0.0052
   34SOL    HW1  101   2.780   0.029   3.051 -0.9876  0.0534 -1.9995
   34SOL    HW2  102   2.720   0.156   2.974  1.4868 -0.1455  0.9408
   35SOL     OW  103   2.795   2.617   1.689 -0.2125  0.2033  0.1980
   35SOL    HW1  104   2.890   2.652   1.696  1.2629 -0.4825  0.6903
   35SOL    HW2  105   2.762   2.624   1.592  0.5045 -0.5657 -0.1996
   36SOL     OW  106   2.209   0.098   2.388 -0.3824  0.2312  0.3475
   36SOL    HW1  107   2.244   0.066   2.473 -0.4823 -0.2919 -0.4158
   36SOL    HW2  108   2.158   0.185   2.405  1.1744 -0.7717 -1.6813
   37SOL     OW  109   1.604   2.810   3.066  0.2982 -0.0830  0.2737
   37SOL    HW1  110   1.549   2.818   2.981 -1.3532  0.4794 -1.1174
   37SOL    HW2  111   1.547   2.765   0.062 -2.2276 -0.5674  1.2330
   38SOL     OW  112   0.433   0.406   0.802 -0.3126  0.1581  0.5118
   38SOL    HW1  113   0.480   0.478   0.741  0.9144  1.6518 -3.4496
   38SOL    HW2  114   0.426   0.315   0.749 -1.8655 -3.1236 -2.7757
   39SOL     OW  115   0.998   1.927   2.160  0.1267 -0.5837  0.0310
   39SOL    HW1  116   0.987   1.833   2.191 -0.9294  0.3972 -1.3758
   39SOL    HW2  117   1.089   1.970   2.184  4.1744  1.3834 -0.0976
   40SOL     OW  118   3.050   0.903   0.289 -0.2233 -0.0510 -0.6862
   40SOL    HW1  119   2.967   0.870   0.237  2.2267  1.3771  0.9565
   40SOL    HW2  120   3.025   0.971   0.362 -0.1745 -0.4396 -0.0083
   41SOL     OW  121   1.539   0.389   1.865  0.3808 -0.2606 -0.5555
   41SOL    HW1  122   1.532   0.454   1.783  2.5152  1.7041 -2.1626
   41SOL    HW2  123   1.454   0.390   1.924 -0.5780  2.4195 -1.2551
   42SOL     OW  124   2.443   0.173   1.222  0.0730 -0.0544  0.0922
   42SOL    HW1  125   2.425   0.185   1.121  0.5048  0.8574  0.4152
   42SOL    HW2  126   2.433   0.262   1.274 -1.0425  0.4894  0.4237
   43SOL     OW  127   1.549   0.562   1.654 -0.1622 -0.4871 -0.1486
   43SOL    HW1  128   1.594   0.637   1.599  4.8125 -1.7948  0.1595
   43SOL    HW2  129   1.598   0.476   1.626  2.5214 -0.9430  0.8803
   44SOL     OW  130   0.348   0.726   0.013  0.0330 -0.0327  0.2422
   44SOL    HW1  131   0.377   0.713   0.111  0.6504  3.2250  1.8323
   44SOL    HW2  132   0.249   0.753   3.074  0.1872  1.7731 -1.4655
   45SOL     OW  133   0.765   1.541   1.826 -0.0913 -0.2263 -0.4179
   45SOL    HW1  134   0.774   1.520   1.727  1.6748 -2.9668  0.2440
   45SOL    HW2  135   0.757   1.455   1.881 -1.3858  0.6735 -1.1579
   46SOL     OW  136   2.148   2.454   1.890  0.1345 -0.1315  0.7610
   46SOL    HW1  137   2.084   2.427   1.967 -4.0598 -1.1830 -1.1196
   46SOL    HW2  138   2.121   2.545   1.849 -1.8811 -2.4971  0.9314
   47SOL     OW  139   0.436   1.835   1.598 -0.3132  0.2577  0.0333
   47SOL    HW1  140   0.491   1.835   1.517 -2.1303 -0.8342 -0.2026
   47SOL    HW2  141   0.384   1.920   1.604  2.6257 -1.5765  1.3577
   48SOL     OW  142   1.005   2.611   2.769  0.3857  0.0873  0.6172
   48SOL    HW1  143   1.020   2.681   2.834 -0.7945  0.6147 -2.1127
   48SOL    HW2  144   0.916   2.617   2.722  0.2876 -1.3253  1.7106
   49SOL     OW  145   2.598   1.430   1.919 -0.2331 -0.1473 -0.0350
   49SOL    HW1  146   2.581   1.432   1.816  2.8897  1.1336  0.1200
   49SOL    HW2  147   2.648   1.338   1.934 -2.7389 -1.6055 -1.1047
   50SOL     OW  148   0.905   2.742   0.540 -0.0699  0.4715 -0.6077
   50SOL    HW1  149   0.985   2.786   0.585 -0.9156 -0.4454 -1.0643
   50SOL    HW2  150   0.860   2.796   0.469  1.2758 -2.3753  2.1800
   51SOL     OW  151   1.333   0.242   1.190 -0.4900  0.0549  0.1240
   51SOL    HW1  152   1.292   0.328   1.233  0.2073  2.4807  2.3189
   51SOL    HW2  153   1.255   0.192   1.149  0.5155  0.3373  1.5374
   52SOL     OW  154   0.223   0.797   0.601 -0.1654 -0.2652 -0.0738
   52SOL    HW1  155   0.224   0.752   0.514 -1.0314  0.9881  3.3191
   52SOL    HW2  156   0.260   0.888   0.592 -0.3086 -1.8163 -0.4713
   53SOL     OW  157   1.374   0.050   2.739 -0.2151 -0.1341  0.8451
   53SOL    HW1  158   1.388   3.031   2.775 -0.6749  3.7534 -0.0751
   53SOL    HW2  159   1.385   0.052   2.635 -1.3705  1.8129 -2.2363
   54SOL     OW  160   2.226   0.538   2.284 -0.3869 -0.1856  0.1401
   54SOL    HW1  161   2.297   0.500   2.345 -0.3935  0.9033 -2.5528
   54SOL    HW2  162   2.198   0.470   2.219  4.0225  2.5298 -1.1350
   55SOL     OW  163   2.648   2.811   0.162 -0.1478  0.4079  0.6865
   55SOL    HW1  164   2.718   2.846   0.225 -1.4025  0.9400 -0.9455
   55SOL    HW2  165   2.666   2.851   0.069 -1.1504 -1.2344 -0.3509
   56SOL     OW  166   0.806   0.141   2.012 -0.0976  0.5136  0.0726
   56SOL    HW1  167   0.705   0.115   2.011 -1.8612 -1.9248  0.4683
   56SOL    HW2  168   0.826   0.130   2.108 -0.4857 -2.9858 -1.4938
   57SOL     OW  169   1.740   0.901   2.363 -0.4156 -0.6879 -0.3286
   57SOL    HW1  170   1.834   0.937   2.346  0.6333  2.5851  0.2858
   57SOL    HW2  171   1.718   0.826   2.296 -1.7424 -1.7762  1.7573
   58SOL     OW  172   0.087   0.974   1.988 -0.1556  0.0957 -0.0818
   58SOL    HW1  173   0.020   1.028   1.938 -0.4393 -1.4367 -0.1906
   58SOL    HW2  174   0.062   0.879   1.987  0.7703  2.1748  1.0320
   59SOL     OW  175   0.506   2.658   1.514 -0.3543  0.2237  0.1773
   59SOL    HW1  176   0.446   2.716   1.572  0.3745  4.5877 -1.3337
   59SOL    HW2  177   0.544   2.718   1.443  1.2093  0.6335  0.2741
   60SOL     OW  178   1.997   2.832   0.216 -0.6613 -0.1250 -0.8568
   60SOL    HW1  179   1.987   2.767   0.294 -1.5422 -0.3714  2.6963
   60SOL    HW2  180   2.097   2.862   0.210  2.9824  1.2035  1.7961
   61SOL     OW  181   1.481   2.316   0.302 -0.3039 -0.3211 -0.2237
   61SOL    HW1  182   1.478   2.283   0.399 -0.5732  1.5766 -0.3695
   61SOL    HW2  183   1.457   2.415   0.297 -2.0551  0.0562 -1.8572
   62SOL     OW  184   1.754   2.731   2.807 -0.5185  0.3036 -0.4628
   62SOL    HW1  185   1.692   2.649   2.808  1.2404 -4.8046  0.5240
   62SOL    HW2  186   1.812   2.739   2.895  1.5005  0.6020  0.1485
   63SOL     OW  187   2.138   0.780   0.616 -0.4163 -0.0485 -0.1989
   63SOL    HW1  188   2.204   0.823   0.547  0.9967 -2.3923 -1.0963
   63SOL    HW2  189   2.101   0.843   0.681  1.7637 -0.5812  0.6384
   64SOL     OW  190   1.633   1.068   0.073  0.3662 -0.4814  0.2238
   64SOL    HW1  191   1.672   1.160   0.042  2.3321  2.4581  0.1361
   64SOL    HW2  192   1.548   1.056   0.013 -0.5613  0.4886 -3.5614
   65SOL     OW  193   0.646   2.241   1.546  0.0601 -0.4166 -0.3884
   65SOL    HW1  194   0.562   2.196   1.519  0.5020  2.0760 -0.2601
   65SOL    HW2  195   0.629   2.326   1.597  0.1795 -1.8551  1.9731
   66SOL     OW  196   0.909   1.268   1.384 -0.4260 -0.0681  0.0259
   66SOL    HW1  197   0.888   1.190   1.325  1.3295  0.5530  1.7259
   66SOL    HW2  198   0.954   1.342   1.321  1.8077  2.3971 -2.9046
   67SOL     OW  199   2.361   1.889   1.809  0.2025  0.3338 -0.0523
   67SOL    HW1  200   2.375   1.844   1.717  1.0953 -1.7442 -1.6616
   67SOL    HW2  201   2.341   1.819   1.880  0.4510  0.9340  1.4317
   68SOL     OW  202   1.117   1.707   1.890  0.2503 -0.0489 -0.5323
   68SOL    HW1  203   1.109   1.673   1.799 -1.4921  2.1777 -0.3790
   68SOL    HW2  204   1.070   1.801   1.890  0.6091  1.1301  1.7897
   69SOL     OW  205   2.837   0.337   0.150  0.1038 -0.5428 -0.0605
   69SOL    HW1  206   2.767   0.318   0.229 -2.3826 -1.6484  1.4709
   69SOL    HW2  207   2.841   0.262   0.079 -2.0164  0.3865  0.8200
   70SOL     OW  208   2.371   1.247   2.343 -0.4751  0.6019 -0.1375
   70SOL    HW1  209   2.311   1.282   2.271 -0.6774 -1.0410 -1.5597
   70SOL    HW2  210   2.432   1.317   2.377 -0.9699  0.5620 -1.0868
   71SOL     OW  211   0.903   2.019   0.861  0.2199 -0.2197 -0.0694
   71SOL    HW1  212   0.988   2.079   0.871  4.3639  0.1437 -0.9792
   71SOL    HW2  213   0.888   1.954   0.940 -1.0902  0.3036 -0.8614
   72SOL     OW  214   2.421   1.931   0.538 -0.6662 -0.4932 -0.4330
   72SOL    HW1  215   2.441   2.025   0.547  1.1887 -0.9080  0.2130
   72SOL    HW2  216   2.425   1.888   0.630  1.4598 -0.0007 -1.5553
   73SOL     OW  217   0.939   0.730   0.977 -0.0634  0.4612  0.0042
   73SOL    HW1  218   0.909   0.815   0.927  1.1307 -0.5642 -1.5094
   73SOL    HW2  219   0.872   0.652   0.948 -2.2511 -1.1021 -4.0660
   74SOL     OW  220   2.549   2.043   1.942 -0.7372  0.2215 -0.0352
   74SOL    HW1  221   2.484   2.011   1.870 -1.4694  2.8383 -1.6575
   74SOL    HW2  222   2.647   2.012   1.921  1.1035  1.0965 -0.6893
   75SOL     OW  223   1.573   1.784   2.112 -0.2796  0.6961  0.5391
   75SOL    HW1  224   1.512   1.759   2.030 -2.4459  1.2456 -0.0338
   75SOL    HW2  225   1.608   1.697   2.158  1.1820 -0.2578  0.8979
   76SOL     OW  226   1.283   1.589   1.178  0.8178  0.4292  0.2225
   76SOL    HW1  227   1.250   1.683   1.146  0.3717  0.8590  0.5529
   76SOL    HW2  228   1.362   1.558   1.120  1.2201 -1.2255  0.5808
   77SOL     OW  229   2.384   1.125   1.509  0.4987  0.2074 -0.2230
   77SOL    HW1  230   2.404   1.185   1.430 -1.5455 -1.3100  1.4090
   77SOL    HW2  231   2.283   1.121   1.522 -0.6197 -1.3904  5.0076
   78SOL     OW  232   1.694   0.699   0.328 -0.3632  0.6323 -0.0787
   78SOL    HW1  233   1.706   0.731   0.232  1.6191  0.2682 -0.2133
   78SOL    HW2  234   1.598   0.674   0.349 -3.3007  2.6888 -1.1341
   79SOL     OW  235   1.142   1.554   2.111  0.6402  0.1604 -0.3172
   79SOL    HW1  236   1.119   1.594   2.025  0.0626 -0.0828  3.3039
   79SOL    HW2  237   1.078   1.577   2.185 -1.2747 -1.1367 -0.3756
   80SOL     OW  238   1.078   0.356   1.412 -0.1882  0.2541  0.4931
   80SOL    HW1  239   1.106   0.444   1.450  0.2191 -2.4861 -0.1623
   80SOL    HW2  240   1.130   0.279   1.453 -2.1777 -2.2424 -0.9791
   81SOL     OW  241   0.469   2.465   0.292  0.2305 -0.2556  0.1553
   81SOL    HW1  242   0.535   2.512   0.229  0.4774  2.2116 -2.2538
   81SOL    HW2  243   0.503   2.446   0.385 -3.1471 -0.0012  1.9250
   82SOL     OW  244   1.222   0.121   1.504 -0.4273  0.3953  0.3981
   82SOL    HW1  245   1.225   0.116   1.609 -2.7202 -1.7049  0.0365
   82SOL    HW2  246   1.311   0.087   1.466  0.6037 -1.0596  1.4650
   83SOL     OW  247   0.343   2.303   0.939  0.4869 -0.0233 -0.7343
   83SOL    HW1  248   0.260   2.341   0.992 -2.0941 -0.4942 -1.6924
   83SOL    HW2  249   0.316   2.220   0.887 -1.6485  0.7798 -1.4103
   84SOL     OW  250   2.782   1.283   1.142  0.3893  0.5201  0.0020
   84SOL    HW1  251   2.759   1.190   1.107  0.3908 -1.1360  3.8066
   84SOL    HW2  252   2.877   1.291   1.169 -3.3153  0.5606 -2.1838
   85SOL     OW  253   2.318   1.988   1.190 -0.6710 -0.5476  0.4456
   85SOL    HW1  254   2.267   1.963   1.275  0.9080 -0.7626 -1.6238
   85SOL    HW2  255   2.418   1.970   1.198  1.6329 -0.2299 -0.0362
   86SOL     OW  256   1.310   2.168   2.013 -0.1589  0.2812 -0.5530
   86SOL    HW1  257   1.234   2.173   1.950  1.8652  0.2337  2.6069
   86SOL    HW2  258   1.395   2.156   1.957  0.7637  3.0486 -0.4542
   87SOL     OW  259   2.304   1.464   0.733 -0.2323  0.2931  0.7310
   87SOL    HW1  260   2.279   1.445   0.634  1.5875 -0.2762  1.1630
   87SOL    HW2  261   2.401   1.489   0.745  0.6293 -0.9628 -1.8831
   88SOL     OW  262   0.352   2.952   0.958 -0.0067  0.0837  0.0615
   88SOL    HW1  263   0.305   2.946   0.867 -0.6642 -0.3597 -1.0743
   88SOL    HW2  264   0.431   3.017   0.958 -0.1418  2.3698 -1.7401
   89SOL     OW  265   0.554   1.051   1.808 -1.0009  0.4701  0.3302
   89SOL    HW1  266   0.529   1.085   1.897  1.6748  1.8653  1.5396
   89SOL    HW2  267   0.652   1.063   1.788  0.5940  0.9430 -0.8949
   90SOL     OW  268   2.752   1.944   0.301 -0.1989  0.2291 -0.0110
   90SOL    HW1  269   2.732   2.000   0.380  1.1502 -0.1215 -1.5725
   90SOL    HW2  270   2.782   1.848   0.322 -0.2159 -2.5675 -1.0638
   91SOL     OW  271   0.871   1.822   1.056  0.3496 -0.1141  0.2029
   91SOL    HW1  272   0.879   1.844   1.152  0.3613  1.7711 -0.8737
   91SOL    HW2  273   0.779   1.792   1.029  1.3218  2.8295  1.0504
   92SOL     OW  274   2.260   0.024   1.875 -0.3020  0.1348  0.0206
   92SOL    HW1  275   2.352   0.036   1.913 -0.3476 -1.1964 -0.2883
   92SOL    HW2  276   2.200   3.050   1.940  1.3674  1.4116 -1.8562
   93SOL     OW  277   0.437   1.796   2.807  0.9194 -0.0224  0.0590
   93SOL    HW1  278   0.418   1.706   2.852  0.1902 -0.2766  0.3938
   93SOL    HW2  279   0.520   1.835   2.849 -1.6976 -2.0672  2.1170
   94SOL     OW  280   2.534   0.089   2.009  0.3952 -0.3410 -0.1882
   94SOL    HW1  281   2.520   0.157   2.080 -0.3074  0.5704 -1.5682
   94SOL    HW2  282   2.607   0.120   1.942  2.7055 -1.7002 -2.2278
   95SOL     OW  283   2.057   0.223   1.855  1.0333  0.8676 -0.2465
   95SOL    HW1  284   1.970   0.192   1.808 -0.8536 -0.6786 -1.9466
   95SOL    HW2  285   2.119   0.143   1.847  0.6137 -1.7263 -2.4231
   96SOL     OW  286   0.387   0.544   1.758  0.2030 -0.1768 -0.2713
   96SOL    HW1  287   0.291   0.526   1.742  1.3023  0.6991  1.0417
   96SOL    HW2  288   0.410   0.633   1.718  1.0158  0.0228 -1.3155
   97SOL     OW  289   2.098   3.032   1.344 -0.2293 -0.5607  0.1256
   97SOL    HW1  290   2.073   0.054   1.360  1.3328 -0.2089  2.4732
   97SOL    HW2  291   2.030   2.969   1.383 -0.3257  1.2497 -1.4598
   98SOL     OW  292   2.014   2.207   1.785  0.3046 -0.2544 -0.1520
   98SOL    HW1  293   2.082   2.265   1.831  0.0531  0.4620  0.5083
   98SOL    HW2  294   2.034   2.104   1.795  2.3652  0.7317  1.5101
   99SOL     OW  295   0.562   0.700   0.977  0.4178  0.4983 -0.1850
   99SOL    HW1  296   0.473   0.712   0.922  0.7115  1.3301  0.3659
   99SOL    HW2  297   0.633   0.658   0.919  0.8292 -0.9170  3.3924
  100SOL     OW  298   2.816   1.952   2.022 -0.4608 -0.7223  0.4352
  100SOL    HW1  299   2.765   1.891   2.082  0.1441  0.4490 -4.4364
  100SOL    HW2  300   2.820   2.048   2.063 -0.2603  1.8680  0.9686
  101SOL     OW  301   1.519   0.147   2.971 -0.0400 -0.0622  0.3505
  101SOL    HW1  302   1.551   0.243   2.968  0.4519  1.7058 -0.2704
  101SOL    HW2  303   1.490   0.110   2.882 -1.1126 -3.2402  1.6672
  102SOL     OW  304   2.938   0.069   1.193  0.3417 -0.0808  0.3988
  102SOL    HW1  305   2.857   0.126   1.169 -1.3519  1.0679 -0.5015
  102SOL    HW2  306   3.023   0.082   1.132  2.5535  1.0289 -1.7451
  103SOL     OW  307   0.387   2.905   2.300 -0.0208  0.3954 -0.2512
  103SOL    HW1  308   0.367   2.837   2.375 -1.5170  0.1390  2.0852
  103SOL    HW2  309   0.473   2.883   2.250  0.3571 -0.0562 -2.0577
  104SOL     OW  310   0.403   2.198   1.424 -0.0781 -0.3901 -0.5474
  104SOL    HW1  311   0.314   2.235   1.390  0.1904 -0.1655 -0.1450
  104SOL    HW2  312   0.422   2.108   1.382  0.5255 -2.2058  1.2995
  105SOL     OW  313   0.601   1.951   2.050  0.9716 -0.0815 -0.7435
  105SOL    HW1  314   0.548   1.912   2.130  0.8791  1.2308  2.0601
  105SOL    HW2  315   0.670   2.018   2.085  2.4569  0.0274 -2.0799
  106SOL     OW  316   2.414   2.857   0.434  0.2377 -0.8376 -0.0197
  106SOL    HW1  317   2.393   2.883   0.529 -0.9038 -0.4691  2.2586
  106SOL    HW2  318   2.429   2.757   0.425 -2.5074  1.9863 -0.3484
  107SOL     OW  319   0.648   1.115   0.963  0.4927  0.0055 -0.0871
  107SOL    HW1  320   0.572   1.179   0.999 -0.7133  1.5436 -0.8367
  107SOL    HW2  321   0.674   1.049   1.040  2.0461  0.7115  0.7230
  108SOL     OW  322   2.966   1.140   1.875  0.3764  0.4168 -0.2968
  108SOL    HW1  323   2.871   1.171   1.902 -1.8676  1.6713  0.5319
  108SOL    HW2  324   3.000   1.209   1.815 -1.5393 -2.3867  0.3785
  109SOL     OW  325   1.886   2.798   3.062  0.0206  0.4097 -0.1338
  109SOL    HW1  326   1.938   2.807   0.073  1.8827 -0.5517 -0.9669
  109SOL    HW2  327   1.788   2.822   3.073  0.8032  0.2404  1.1557
  110SOL     OW  328   0.223   1.976   2.889  0.3818 -0.9478 -0.0253
  110SOL    HW1  329   0.297   1.916   2.853 -1.0434 -0.0781 -2.3724
  110SOL    HW2  330   0.159   1.924   2.948  0.8976 -0.2428  0.9919
  111SOL     OW  331   2.838   0.736   2.488 -0.2098  0.4736 -0.6299
  111SOL    HW1  332   2.786   0.675   2.432  1.4972  0.2781 -1.1318
  111SOL    HW2  333   2.935   0.735   2.467 -2.9723 -1.5251  1.5558
  112SOL     OW  334   2.304   2.701   1.637 -0.0569  0.3906  0.1298
  112SOL    HW1  335   2.304   2.800   1.637 -1.9450 -0.9470 -0.0298
  112SOL    HW2  336   2.340   2.664   1.726 -1.4711 -1.3843 -0.7725
  113SOL     OW  337   2.300   1.948   2.643 -0.1451  0.4641  0.1111
  113SOL    HW1  338   2.324   1.851   2.678  0.1000 -1.0909  2.7726
  113SOL    HW2  339   2.312   2.022   2.711 -1.9318  0.5829  0.2939
  114SOL     OW  340   0.612   0.132   0.569  0.1583  0.0806 -0.3683
  114SOL    HW1  341   0.617   0.034   0.596  0.8099 -1.4001 -0.7185
  114SOL    HW2  342   0.681   0.195   0.617  0.6657  0.8410  1.1668
  115SOL     OW  343   3.021   1.730   2.844 -0.2230  0.0765 -0.4724
  115SOL    HW1  344   3.015   1.643   2.888  2.0866  2.1535 -1.2578
  115SOL    HW2  345   3.046   1.796   2.917 -0.3587  0.4323 -2.3054
  116SOL     OW  346   3.051   1.362   1.737  0.4413 -0.0804 -0.1837
  116SOL    HW1  347   0.053   1.429   1.743 -0.7613  1.0696  0.5890
  116SOL    HW2  348   2.964   1.418   1.729  0.6640 -1.5540  2.2160
  117SOL     OW  349   2.056   0.228   1.307  0.2669  0.3274 -0.2178
  117SOL    HW1  350   2.090   0.312   1.256  1.0215 -1.5456 -0.3661
  117SOL    HW2  351   1.978   0.191   1.258  1.1561  1.1247 -0.3040
  118SOL     OW  352   2.814   2.448   2.050  0.3925  0.0396 -0.0659
  118SOL    HW1  353   2.740   2.498   1.999  3.3750 -0.6748 -3.3013
  118SOL    HW2  354   2.894   2.512   2.077  4.6410 -1.0092 -0.7225
  119SOL     OW  355   0.429   1.624   1.766  0.2373 -0.2786 -0.0043
  119SOL    HW1  356   0.437   1.701   1.699  0.4385 -2.5842  3.7820
  119SOL    HW2  357   0.488   1.554   1.736  0.1190 -2.5915 -0.3810
  120SOL     OW  358   0.206   1.484   1.691  0.3006 -0.2676  0.4462
  120SOL    HW1  359   0.244   1.393   1.688  1.9553  1.2664  0.4226
  120SOL    HW2  360   0.265   1.542   1.751  0.6521 -0.0055  0.9117
  121SOL     OW  361   1.509   0.910   0.820  0.3073  0.5095 -0.2021
  121SOL    HW1  362   1.493   0.834   0.757  0.4115  2.3271  1.4324
  121SOL    HW2  363   1.607   0.906   0.827 -3.6197 -1.7115 -1.3228
  122SOL     OW  364   2.323   2.171   2.844 -0.5896 -0.4738 -0.4229
  122SOL    HW1  365   2.291   2.227   2.927  1.2648  1.6620  0.2655
  122SOL    HW2  366   2.332   2.228   2.761 -0.1908 -0.4225  0.7240
  123SOL     OW  367   0.066   0.223   0.447 -0.1356 -0.3618 -0.3269
  123SOL    HW1  368   3.045   0.192   0.419 -3.4248 -1.7305  0.9741
  123SOL    HW2  369   0.063   0.237   0.553 -3.0091 -0.3432  0.2190
  124SOL     OW  370   1.763   1.310   0.092  0.1500 -0.0019  0.2686
  124SOL    HW1  371   1.781   1.402   0.048 -0.0685  0.9896  2.0290
  124SOL    HW2  372   1.842   1.272   0.143 -0.2708  1.7931 -2.6788
  125SOL     OW  373   3.056   0.617   2.222 -0.0001 -0.7719 -0.0476
  125SOL    HW1  374   3.074   0.668   2.314  0.1913 -0.1458  0.5845
  125SOL    HW2  375   0.016   0.667   2.142  1.0338 -1.1093 -1.3702
  126SOL     OW  376   0.003   2.642   3.067 -0.1011  0.0139  0.3482
  126SOL    HW1  377   3.029   2.599   2.991 -0.1401  0.9051  0.8517
  126SOL    HW2  378   0.053   2.571   0.045  1.3081 -2.2342  1.8217
  127SOL     OW  379   2.689   1.835   0.038  0.0249 -0.3120  0.7238
  127SOL    HW1  380   2.704   1.884   0.124  0.9150  0.2384  0.4002
  127SOL    HW2  381   2.628   1.888   3.050 -0.6507  0.0886 -4.7451
  128SOL     OW  382   0.883   0.986   0.870 -0.0454 -0.7262 -0.1841
  128SOL    HW1  383   0.973   1.035   0.870  0.6823  1.0693 -0.9391
  128SOL    HW2  384   0.804   1.036   0.912  0.4590  1.1570  2.5858
  129SOL     OW  385   2.221   2.144   0.984 -0.4284 -0.6742 -0.4973
  129SOL    HW1  386   2.272   2.089   1.062  4.1969 -1.7738  0.9648
  129SOL    HW2  387   2.183   2.231   1.017  1.0458 -0.9714  0.4868
  130SOL     OW  388   1.990   0.799   0.264  0.4399 -0.5436 -0.3783
  130SOL    HW1  389   2.061   0.844   0.202 -0.3653 -0.2544  0.7109
  130SOL    HW2  390   1.893   0.798   0.228 -3.4923 -0.2664  3.1413
  131SOL     OW  391   2.870   1.560   2.653  0.1240 -0.0654 -0.0128
  131SOL    HW1  392   2.879   1.546   2.553 -0.6812  1.6358 -0.0668
  131SOL    HW2  393   2.955   1.606   2.689  0.0745  1.6160  0.5806
  132SOL     OW  394   1.086   1.016   1.998 -0.1238  0.2272  0.2543
  132SOL    HW1  395   1.088   1.116   2.027  0.9595  0.4412  1.7479
  132SOL    HW2  396   1.089   1.008   1.896 -0.5891  1.0867 -4.3999
  133SOL     OW  397   0.478   1.229   0.579 -0.1370 -0.0899  0.2966
  133SOL    HW1  398   0.571   1.218   0.542  0.5335  0.1487  1.1203
  133SOL    HW2  399   0.460   1.328   0.595  1.9445  2.4001  1.9000
  134SOL     OW  400   3.013   1.505   2.981  0.6539  0.0233  0.1878
  134SOL    HW1  401   3.041   1.478   3.075 -1.0457  1.6053  2.8756
  134SOL    HW2  402   3.052   1.446   2.908  0.9591 -1.8080  1.2376
  135SOL     OW  403   1.774   0.816   0.097 -0.2878 -0.3650  0.0570
  135SOL    HW1  404   1.716   0.898   0.083 -0.3998 -0.8254 -2.1412
  135SOL    HW2  405   1.796   0.762   0.011  1.5271 -1.5798 -0.4866
  136SOL     OW  406   2.173   1.872   1.410  0.0238 -0.4131 -0.3767
  136SOL    HW1  407   2.117   1.784   1.410  1.9204 -1.7538 -0.0581
  136SOL    HW2  408   2.115   1.955   1.401 -1.0030  2.0999 -1.5678
  137SOL     OW  409   2.134   2.518   0.821  0.2189  0.2532 -0.2122
  137SOL    HW1  410   2.091   2.608   0.848  2.8803 -1.1540 -0.3182
  137SOL    HW2  411   2.111   2.438   0.883  1.7377 -3.5520  2.3307
  138SOL     OW  412   2.292   0.365   1.864  0.3587 -0.0022 -0.5229
  138SOL    HW1  413   2.195   0.329   1.887 -4.0316 -0.3564  0.1914
  138SOL    HW2  414   2.328   0.333   1.777 -2.7660  1.7361  0.9243
  139SOL     OW  415   2.739   2.356   2.855 -0.2239 -0.0066  0.9907
  139SOL    HW1  416   2.738   2.255   2.851  2.5944 -1.8325  3.7993
  139SOL    HW2  417   2.689   2.405   2.774 -1.3521  2.6239 -1.6486
  140SOL     OW  418   1.703   2.083   2.590  0.0422  0.1800  0.5706
  140SOL    HW1  419   1.746   2.061   2.676 -2.4121  0.9769 -3.2840
  140SOL    HW2  420   1.672   1.998   2.541 -0.8208 -2.5201 -2.8718
  141SOL     OW  421   1.109   1.205   2.620  0.5529 -0.2338 -0.2287
  141SOL    HW1  422   1.134   1.294   2.658 -1.0476 -2.5385 -0.6132
  141SOL    HW2  423   1.185   1.138   2.614 -2.2706  1.4183 -1.6580
  142SOL     OW  424   1.961   2.605   2.137 -0.4894 -0.1827 -0.1506
  142SOL    HW1  425   1.961   2.504   2.136 -0.5268  0.7770 -0.4342
  142SOL    HW2  426   1.995   2.646   2.046  3.2515 -1.0590 -3.3864
  143SOL     OW  427   1.154   2.250   0.426  0.3832  0.0184 -0.2996
  143SOL    HW1  428   1.246   2.224   0.474 -0.4726  0.0519 -1.2088
  143SOL    HW2  429   1.089   2.294   0.490  1.0968 -0.8596 -0.0929
  144SOL     OW  430   0.643   2.683   0.479 -0.3373  0.8462  0.6459
  144SOL    HW1  431   0.740   2.689   0.515  0.3853  0.3572 -1.2751
  144SOL    HW2  432   0.644   2.647   0.384  0.6426 -0.0315  1.6528
  145SOL     OW  433   1.630   2.515   2.921 -0.1859  0.0376  0.0308
  145SOL    HW1  434   1.577   2.488   2.837  0.0604  2.1457  0.8979
  145SOL    HW2  435   1.587   2.478   3.003 -2.0075 -0.1897 -0.1379
  146SOL     OW  436   2.080   2.550   0.024  0.4093 -1.0417 -0.1433
  146SOL    HW1  437   2.002   2.608   0.006  0.4916 -0.9137  0.3586
  146SOL    HW2  438   2.131   2.592   0.102 -0.9864 -2.7678  0.0523
  147SOL     OW  439   0.261   1.663   1.980  0.4120  0.2310  0.2495
  147SOL    HW1  440   0.326   1.655   1.899  4.3620  0.9110 -0.8932
  147SOL    HW2  441   0.165   1.658   1.946 -3.0252  0.0643  0.0467
  148SOL     OW  442   1.383   2.803   0.173  0.4723  0.1817  0.1125
  148SOL    HW1  443   1.383   2.890   0.232  1.3129 -0.7978  0.8856
  148SOL    HW2  444   1.350   2.813   0.078 -1.8584  0.5344 -1.1203
  149SOL     OW  445   0.542   2.036   0.155  0.0134 -0.1389 -0.3969
  149SOL    HW1  446   0.583   2.056   0.065  1.3465 -0.9624 -1.6650
  149SOL    HW2  447   0.479   2.112   0.176  1.5872 -0.2718 -2.2132
  150SOL     OW  448   0.123   2.602   1.132 -0.1890 -0.4475 -0.0137
  150SOL    HW1  449   0.183   2.582   1.210  0.1766  1.3876 -0.4917
  150SOL    HW2  450   0.032   2.643   1.157  1.3506  1.7665  0.2534
  151SOL     OW  451   0.401   1.544   2.931 -0.3422 -0.2319  0.1425
  151SOL    HW1  452   0.359   1.513   2.841  0.7495 -1.9820 -1.3603
  151SOL    HW2  453   0.461   1.470   2.972 -1.3503 -0.0589  0.3557
  152SOL     OW  454   2.981   2.023   1.049 -0.3890  0.3260 -0.2276
  152SOL    HW1  455   2.956   1.925   1.048 -0.8328  0.1759 -0.9382
  152SOL    HW2  456   2.906   2.082   1.065  4.3369 -1.5298  0.2041
  153SOL     OW  457   1.479   2.196   0.556  0.4597  0.5502 -0.0766
  153SOL    HW1  458   1.560   2.132   0.559 -0.4435  0.5011 -0.9203
  153SOL    HW2  459   1.398   2.143   0.595 -1.7922 -0.7603 -1.2892
  154SOL     OW  460   0.661   0.012   1.513 -0.3602 -0.2538  0.2999
  154SOL    HW1  461   0.615   0.012   1.424  0.9573 -0.2522  2.5956
  154SOL    HW2  462   0.719   0.096   1.524  0.1662  1.3584 -0.2109
  155SOL     OW  463   2.639   2.225   0.438 -0.1832  0.0514  0.0310
  155SOL    HW1  464   2.718   2.260   0.499  0.4969 -0.5262  0.9706
  155SOL    HW2  465   2.546   2.253   0.468 -0.5070 -0.4108  0.0659
  156SOL     OW  466   2.353   1.905   0.271  0.3622 -0.4518 -0.2544
  156SOL    HW1  467   2.409   1.981   0.227  2.2135 -2.9194 -0.5357
  156SOL    HW2  468   2.364   1.918   0.370 -0.0596  1.8741 -4.2060
  157SOL     OW  469   0.433   2.972   1.875 -0.8346  0.0127 -0.3050
  157SOL    HW1  470   0.475   3.046   1.933  2.3216  0.2485 -0.1904
  157SOL    HW2  471   0.431   2.887   1.935 -0.6096 -1.1980  0.1532
  158SOL     OW  472   1.300   0.512   1.222  0.3125 -0.4886  0.3604
  158SOL    HW1  473   1.266   0.584   1.157 -1.2891 -2.0375  0.5803
  158SOL    HW2  474   1.276   0.540   1.316  1.8136 -0.5376  0.5633
  159SOL     OW  475   1.868   1.012   2.889  0.0353  0.1778 -0.3073
  159SOL    HW1  476   1.824   1.048   2.803  2.4910 -3.0778  0.5933
  159SOL    HW2  477   1.849   0.913   2.896 -1.4956 -3.6178 -2.1029
  160SOL     OW  478   1.075   1.949   0.447 -0.2764 -0.1381  1.2366
  160SOL    HW1  479   1.078   2.029   0.380  3.4358 -0.1620  1.8103
  160SOL    HW2  480   0.990   1.958   0.500 -0.3712  1.2242 -0.3398
  161SOL     OW  481   2.637   2.119   2.571 -0.3626  0.5870 -0.0096
  161SOL    HW1  482   2.697   2.198   2.559 -0.2981 -0.6782  2.4725
  161SOL    HW2  483   2.552   2.141   2.527 -1.8142 -0.4441 -0.9212
  162SOL     OW  484   0.145   2.261   1.376  0.1913  0.1077 -0.2933
  162SOL    HW1  485   0.059   2.235   1.421 -1.4292  1.4982  0.0730
  162SOL    HW2  486   0.136   2.259   1.276 -1.8352  0.3022  2.2104
  163SOL     OW  487   0.342   0.639   2.813  0.0693  0.0247 -0.2912
  163SOL    HW1  488   0.354   0.641   2.916  0.1891  0.5288  4.9136
  163SOL    HW2  489   0.247   0.655   2.780  1.2479 -2.3240  1.6196
  164SOL     OW  490   0.225   2.639   2.695 -0.1787  0.8912 -0.0327
  164SOL    HW1  491   0.167   2.555   2.674  1.7668 -2.6896 -1.5227
  164SOL    HW2  492   0.210   2.663   2.788 -0.6592 -0.9916 -0.0355
  165SOL     OW  493   2.510   0.892   1.433  0.2877  0.2384 -0.0671
  165SOL    HW1  494   2.463   0.981   1.462 -1.9261 -0.2029 -0.1016
  165SOL    HW2  495   2.570   0.852   1.508  0.1682 -0.3589 -1.7354
  166SOL     OW  496   2.040   1.602   1.440  0.0792  0.2108 -0.2610
  166SOL    HW1  497   2.118   1.543   1.425 -2.2276  0.6600 -1.3046
  166SOL    HW2  498   1.950   1.552   1.461  1.8269 -0.6143 -0.6882
  167SOL     OW  499   0.072   0.728   3.018 -0.2251  0.3181 -0.2887
  167SOL    HW1  500   0.019   0.645   3.053  1.7474  1.0744  0.1770
  167SOL    HW2  501   0.031   0.813   3.046  1.2320 -2.5448  2.4613
  168SOL     OW  502   2.105   0.247   2.740  0.0328 -0.3426 -0.7518
  168SOL    HW1  503   2.006   0.265   2.726 -0.0222 -1.2483  1.2159
  168SOL    HW2  504   2.153   0.336   2.750  0.6118 -0.4702 -1.4536
  169SOL     OW  505   0.528   1.103   2.876 -0.3869  0.2180  0.0037
  169SOL    HW1  506   0.518   1.189   2.924 -0.3844 -2.6018 -2.3305
  169SOL    HW2  507   0.445   1.046   2.867  2.8004 -0.8504 -0.4823
  170SOL     OW  508   1.028   1.245   1.722  0.0257  0.2628 -0.2925
  170SOL    HW1  509   1.048   1.291   1.813 -0.5820 -0.6643  0.0584
  170SOL    HW2  510   1.083   1.291   1.647  5.4473  0.2189 -2.1309
  171SOL     OW  511   1.332   2.637   1.200  0.3977 -0.5240  0.1539
  171SOL    HW1  512   1.339   2.728   1.248  0.1844 -0.4750  2.2803
  171SOL    HW2  513   1.428   2.613   1.174 -0.8715 -2.4957  2.1828
  172SOL     OW  514   0.944   3.003   1.817  0.0202 -0.5702  1.0851
  172SOL    HW1  515   0.849   3.003   1.784 -2.7584  0.8852  1.3556
  172SOL    HW2  516   0.982   2.906   1.806 -1.0791  0.7121 -1.1568
  173SOL     OW  517   0.670   2.433   0.760  0.3676  0.3174 -0.1521
  173SOL    HW1  518   0.758   2.480   0.770  0.0315 -0.2713  0.1559
  173SOL    HW2  519   0.603   2.478   0.818 -0.3985  0.1253  1.6709
  174SOL     OW  520   2.111   0.135   0.314 -0.5611 -0.1081  0.4059
  174SOL    HW1  521   2.030   0.084   0.281  2.8763 -1.1876 -0.9676
  174SOL    HW2  522   2.171   0.168   0.236  0.1120  1.2761  1.7694
  175SOL     OW  523   0.979   1.404   0.930  0.7912 -0.1712 -0.0090
  175SOL    HW1  524   1.009   1.493   0.899 -1.7179 -0.7616 -0.0893
  175SOL    HW2  525   0.895   1.368   0.882  0.2096 -0.7155 -1.0436
  176SOL     OW  526   1.185   1.807   1.055 -0.1856 -0.0413 -0.5616
  176SOL    HW1  527   1.227   1.895   1.055 -1.5270  0.3928  0.5273
  176SOL    HW2  528   1.084   1.806   1.087 -1.7483 -2.0956 -2.7640
  177SOL     OW  529   1.338   0.899   1.007  0.1385  0.6145 -0.1515
  177SOL    HW1  530   1.386   0.848   1.089  0.5073 -0.6574  2.1600
  177SOL    HW2  531   1.406   0.905   0.931  2.1586 -0.1782 -1.9578
  178SOL     OW  532   2.244   1.458   0.470  0.5933 -0.5653  0.1740
  178SOL    HW1  533   2.333   1.483   0.432 -0.9311  0.7226  2.4002
  178SOL    HW2  534   2.176   1.450   0.395 -2.3920 -1.5082 -1.8488
  179SOL     OW  535   1.178   2.723   3.049  0.1781 -0.0877  0.5846
  179SOL    HW1  536   1.157   2.681   0.066  1.1049 -0.5817  2.5055
  179SOL    HW2  537   1.209   2.650   2.981  3.5347 -1.1299 -0.0183
  180SOL     OW  538   1.885   1.240   1.423  0.0853 -0.2771 -0.0729
  180SOL    HW1  539   1.839   1.321   1.468 -0.4477 -1.4484  0.1935
  180SOL    HW2  540   1.904   1.264   1.329 -1.9388  0.5764  0.5804
  181SOL     OW  541   0.826   1.085   1.774 -0.0003 -0.4451 -0.5417
  181SOL    HW1  542   0.902   1.151   1.755  2.1719 -1.3228  1.6133
  181SOL    HW2  543   0.862   0.992   1.765  0.2497  3.4901  0.9060
  182SOL     OW  544   2.821   0.941   2.979  0.6723  0.0722 -0.4098
  182SOL    HW1  545   2.826   0.877   2.901  1.1220 -1.8015  1.2436
  182SOL    HW2  546   2.843   1.037   2.951 -2.4092  2.4373  2.9899
  183SOL     OW  547   1.783   0.384   1.947 -0.2444 -0.6813  0.1344
  183SOL    HW1  548   1.790   0.324   2.028 -2.0485  3.2175 -2.2909
  183SOL    HW2  549   1.687   0.395   1.917 -1.4079  1.6880 -0.4061
  184SOL     OW  550   0.933   0.583   1.208  0.0698  0.6172 -0.5832
  184SOL    HW1  551   0.953   0.646   1.130 -2.3722  2.0881 -0.4224
  184SOL    HW2  552   0.995   0.504   1.212 -1.1257  1.2849 -0.1168
  185SOL     OW  553   2.308   1.192   0.552 -0.6316  0.6235 -0.1540
  185SOL    HW1  554   2.376   1.213   0.626  0.3744 -0.0820  3.4747
  185SOL    HW2  555   2.272   1.278   0.517  2.0022 -0.4826  0.7213
  186SOL     OW  556   0.217   2.041   0.351 -0.1541  0.0192 -0.1598
  186SOL    HW1  557   0.120   2.020   0.324  0.9759  1.4679 -0.4039
  186SOL    HW2  558   0.249   2.125   0.300  2.1142  1.0319  1.0658
  187SOL     OW  559   1.831   2.052   2.848 -0.3181 -0.0074  0.0803
  187SOL    HW1  560   1.926   2.031   2.874  0.0877 -0.6355 -3.0875
  187SOL    HW2  561   1.810   2.152   2.860 -0.8318  2.1422 -2.0132
  188SOL     OW  562   1.087   2.472   1.480 -0.2914 -0.4488 -0.3793
  188SOL    HW1  563   1.063   2.570   1.449  0.9927  1.1682 -1.2233
  188SOL    HW2  564   1.148   2.427   1.411  1.5012  0.7605  0.2921
  189SOL     OW  565   2.699   1.140   2.615 -0.3569 -0.4585 -0.2539
  189SOL    HW1  566   2.681   1.236   2.646  0.3218 -0.9597  1.9131
  189SOL    HW2  567   2.792   1.115   2.642 -4.0673 -0.2487  0.3689
  190SOL     OW  568   0.949   2.796   2.135 -0.2298  0.4480 -0.2792
  190SOL    HW1  569   0.908   2.757   2.051 -0.8134 -0.3407  1.7738
  190SOL    HW2  570   0.991   2.882   2.116  0.1671 -3.4866 -0.7658
  191SOL     OW  571   2.494   0.910   1.016  0.5303  0.1538  0.3602
  191SOL    HW1  572   2.453   0.820   1.030 -2.1510  2.0851 -2.4215
  191SOL    HW2  573   2.427   0.980   1.033  0.3437 -1.8828  0.3175
  192SOL     OW  574   2.118   0.464   0.928 -0.2337  0.2958  0.0481
  192SOL    HW1  575   2.168   0.457   1.022 -1.3598  1.0829  0.0072
  192SOL    HW2  576   2.055   0.388   0.926  0.2958  1.4042  0.3592
  193SOL     OW  577   1.023   0.054   0.191 -0.0969  0.2657  0.1360
  193SOL    HW1  578   1.086   0.026   0.116 -0.8202 -2.7250 -0.4679
  193SOL    HW2  579   0.966   0.135   0.157 -1.2208  0.1554 -1.8145
  194SOL     OW  580   1.570   2.292   1.043 -0.1647  0.3087  0.0180
  194SOL    HW1  581   1.552   2.326   0.953 -1.1810 -0.0172  2.1827
  194SOL    HW2  582   1.518   2.208   1.059  0.5333  2.1548  1.4486
  195SOL     OW  583   2.764   0.916   0.610 -0.2170 -0.1078 -0.0171
  195SOL    HW1  584   2.706   0.965   0.675  4.7471 -2.8967 -4.3864
  195SOL    HW2  585   2.714   0.845   0.556 -1.7050 -1.5631  0.2915
  196SOL     OW  586   0.552   2.460   1.676  0.1169  0.0341 -0.1200
  196SOL    HW1  587   0.536   2.504   1.587 -0.7128 -0.8354  0.7281
  196SOL    HW2  588   0.478   2.486   1.737  0.3524 -0.7396 -3.0552
  197SOL     OW  589   2.883   0.390   2.517  0.6867  1.1870  0.7232
  197SOL    HW1  590   2.830   0.449   2.455  1.2501 -0.3815 -1.1175
  197SOL    HW2  591   2.856   0.290   2.494 -0.6068 -2.1702 -0.0086
  198SOL     OW  592   2.081   1.494   0.259  0.0642  0.2083  0.0893
  198SOL    HW1  593   2.151   1.487   0.180  1.0187  2.0596 -1.1318
  198SOL    HW2  594   2.045   1.587   0.255 -0.0878 -2.4168  1.9953
  199SOL     OW  595   2.445   0.654   1.810  0.3391  0.3270  0.3610
  199SOL    HW1  596   2.392   0.656   1.896  2.2045 -2.6412 -4.8901
  199SOL    HW2  597   2.501   0.570   1.801  3.1513  1.4043 -0.7484
  200SOL     OW  598   1.709   0.036   2.697  0.6716  0.1870  0.3000
  200SOL    HW1  599   1.757   0.036   2.788 -1.1897 -0.3462  0.6198
  200SOL    HW2  600   1.666   3.017   2.688 -0.8641 -0.2402  2.5473
  201SOL     OW  601   2.716   0.220   1.167 -0.1411 -0.5872 -0.5770
  201SOL    HW1  602   2.616   0.214   1.167  1.1487  3.0841 -0.8399
  201SOL    HW2  603   2.748   0.291   1.097  0.5101 -1.0794 -0.7280
  202SOL     OW  604   2.851   2.867   0.327  0.4227  0.0511 -0.3315
  202SOL    HW1  605   2.845   2.968   0.333  1.7190  0.9929  0.2265
  202SOL    HW2  606   2.888   2.817   0.408  0.6516 -0.7596  1.5242
  203SOL     OW  607   1.676   1.713   0.613 -0.0677 -0.3740 -0.3369
  203SOL    HW1  608   1.592   1.774   0.629 -0.2606 -0.2437  0.2523
  203SOL    HW2  609   1.759   1.772   0.622 -2.2928 -1.2733  1.4094
  204SOL     OW  610   0.355   1.855   2.193  0.0149  0.1408 -0.7328
  204SOL    HW1  611   0.316   1.807   2.277 -2.1947 -0.5836  0.4908
  204SOL    HW2  612   0.310   1.817   2.109  0.8053  1.6504  3.2683
  205SOL     OW  613   0.762   0.560   0.855  0.0537  0.2993 -0.6413
  205SOL    HW1  614   0.818   0.481   0.881 -1.4210  1.0031  1.1869
  205SOL    HW2  615   0.712   0.539   0.772  1.5660 -0.2424  0.9413
  206SOL     OW  616   0.558   0.870   2.995  0.3211 -0.5778 -0.6120
  206SOL    HW1  617   0.465   0.817   3.009 -2.4461 -2.5252  0.8650
  206SOL    HW2  618   0.557   0.955   2.935  0.3305 -0.4488  0.3418
  207SOL     OW  619   1.145   2.519   1.786 -0.7466  0.3643  0.1782
  207SOL    HW1  620   1.068   2.483   1.837  0.5405  0.4235  0.4103
  207SOL    HW2  621   1.160   2.479   1.693  1.6016 -2.0610  1.5514
  208SOL     OW  622   2.485   0.269   1.571 -0.2849  0.0833  0.4900
  208SOL    HW1  623   2.403   0.207   1.587 -3.4648  0.2266  1.5462
  208SOL    HW2  624   2.561   0.217   1.537 -1.5802  0.1673  0.0126
  209SOL     OW  625   1.782   0.886   0.775 -0.4342  0.7422  0.1486
  209SOL    HW1  626   1.863   0.832   0.796  1.4931  2.0249 -0.2199
  209SOL    HW2  627   1.758   0.876   0.675  0.3688 -1.5884  0.2364
  210SOL     OW  628   2.502   1.252   0.727 -0.5981  0.0538  0.2077
  210SOL    HW1  629   2.513   1.153   0.753 -1.4208 -0.0346 -0.3306
  210SOL    HW2  630   2.590   1.297   0.751  0.6106 -2.0380  0.0354
  211SOL     OW  631   1.067   2.947   2.976  0.1067  0.0896  0.7624
  211SOL    HW1  632   1.126   3.026   2.998  0.0585  0.2840  0.1873
  211SOL    HW2  633   1.104   2.862   3.023  0.9496 -0.2435 -0.4515
  212SOL     OW  634   1.903   1.858   0.640  0.1827 -0.3858 -0.0399
  212SOL    HW1  635   1.952   1.875   0.729 -0.7732  1.7842 -0.9352
  212SOL    HW2  636   1.963   1.807   0.570 -0.6516  1.6599 -2.1550
  213SOL     OW  637   2.339   3.030   3.042 -0.1719  0.4767 -0.0499
  213SOL    HW1  638   2.424   3.017   2.986  2.0989  0.1566  0.0838
  213SOL    HW2  639   2.258   2.974   3.022  0.0882  0.5171  1.9960
  214SOL     OW  640   1.153   2.391   2.111  0.3082  0.3176 -0.0670
  214SOL    HW1  641   1.179   2.484   2.081 -0.9143 -2.1445  0.7742
  214SOL    HW2  642   1.227   2.319   2.093 -0.1063  1.6641 -1.2627
  215SOL     OW  643   0.325   1.476   0.960 -0.0170  0.2596 -0.1287
  215SOL    HW1  644   0.226   1.445   0.967 -0.3547  1.7007 -0.1377
  215SOL    HW2  645   0.353   1.474   0.862  0.0967  2.2305  1.8297
  216SOL     OW  646   0.462   3.053   2.678 -0.5554  0.2505 -0.4031
  216SOL    HW1  647   0.461   2.953   2.669 -0.7807 -0.2411 -0.5287
  216SOL    HW2  648   0.389   0.020   2.620 -0.6745  0.6718 -0.4938
  217SOL     OW  649   2.798   1.382   1.555  0.2103 -0.5069  0.2541
  217SOL    HW1  650   2.866   1.431   1.496  0.7646 -0.6547  0.4479
  217SOL    HW2  651   2.792   1.287   1.523  0.6176  2.6330  1.3425
  218SOL     OW  652   0.794   2.024   1.664  0.1487  0.2135  0.2437
  218SOL    HW1  653   0.740   2.110   1.645 -1.3377 -1.3320  1.7850
  218SOL    HW2  654   0.739   1.962   1.722  1.2874  0.6491 -0.6051
  219SOL     OW  655   2.139   1.898   0.064 -0.3607 -0.0138 -0.1450
  219SOL    HW1  656   2.206   1.876   0.139  0.1824 -1.4749 -0.1948
  219SOL    HW2  657   2.129   1.816   0.002  0.6178  1.3974 -1.1995
  220SOL     OW  658   1.824   0.072   2.935  0.3813 -0.2199 -0.3922
  220SOL    HW1  659   1.908   0.103   2.982  1.1873 -0.8698 -1.2295
  220SOL    HW2  660   1.745   0.063   3.003 -0.5822  1.6695 -0.8268
  221SOL     OW  661   2.855   0.763   0.124  0.3946 -0.0795 -0.0145
  221SOL    HW1  662   2.932   0.696   0.126  0.7475  1.1672  1.0948
  221SOL    HW2  663   2.844   0.801   0.030 -3.3734 -1.4938 -1.1249
  222SOL     OW  664   1.547   1.469   0.837 -0.1217 -0.4744  0.2540
  222SOL    HW1  665   1.507   1.383   0.803  0.2175 -0.9200  1.3936
  222SOL    HW2  666   1.646   1.472   0.814 -1.0775  0.8851  0.2583
  223SOL     OW  667   0.944   0.322   2.748  0.4701  0.3244  0.2178
  223SOL    HW1  668   1.039   0.285   2.755 -0.8815  0.0716 -0.4209
  223SOL    HW2  669   0.930   0.385   2.824  0.3448 -1.2984  0.1034
  224SOL     OW  670   0.885   2.769   1.063  0.2092  0.3959 -0.0896
  224SOL    HW1  671   0.849   2.860   1.091  0.9999  0.4646 -0.9815
  224SOL    HW2  672   0.823   2.692   1.082 -1.4398 -1.0507 -1.8157
  225SOL     OW  673   1.051   3.039   2.074 -0.2205 -0.1969  0.6938
  225SOL    HW1  674   0.996   3.045   1.986  1.8064 -1.2184 -0.1148
  225SOL    HW2  675   1.013   0.026   2.144 -1.0359 -0.0876 -0.4673
  226SOL     OW  676   1.356   1.612   0.702 -0.4103  0.1144 -0.0776
  226SOL    HW1  677   1.374   1.713   0.714  0.3365 -0.0876 -1.6915
  226SOL    HW2  678   1.432   1.555   0.734 -0.3812 -0.1751  1.9138
  227SOL     OW  679   0.456   1.961   1.290 -0.4538 -0.4826 -0.3649
  227SOL    HW1  680   0.392   1.893   1.328  3.1344  0.4737  1.6598
  227SOL    HW2  681   0.460   1.952   1.193 -1.3584  2.5333  2.3925
  228SOL     OW  682   3.015   1.758   0.653 -0.0345 -0.2410  0.4206
  228SOL    HW1  683   0.031   1.718   0.625 -0.4782  0.1580 -1.4418
  228SOL    HW2  684   3.026   1.843   0.708 -2.5186 -1.1645 -1.6829
  229SOL     OW  685   2.594   0.133   2.856  0.0339  0.5682 -0.2745
  229SOL    HW1  686   2.564   0.226   2.827 -0.1880 -2.1594  2.1382
  229SOL    HW2  687   2.547   0.054   2.805 -1.1282  0.7241 -0.3650
  230SOL     OW  688   2.467   0.728   0.301  0.0234 -0.1302  0.8852
  230SOL    HW1  689   2.455   0.793   0.221 -2.2292  2.9719 -0.5841
  230SOL    HW2  690   2.414   0.643   0.284 -0.7876 -2.5731 -1.0830
  231SOL     OW  691   1.892   1.692   0.185 -0.3579 -0.2680  0.1244
  231SOL    HW1  692   1.863   1.641   0.107  1.4189 -0.2583 -1.1294
  231SOL    HW2  693   1.892   1.791   0.164  2.4784 -1.1117  0.2718
  232SOL     OW  694   1.880   1.967   1.039 -0.6569 -0.1505 -0.0647
  232SOL    HW1  695   1.911   1.902   1.116 -0.1879  0.5167  0.0069
  232SOL    HW2  696   1.957   1.977   0.976 -2.3160  0.7960 -1.0289
  233SOL     OW  697   0.348   2.848   1.626  0.3414  0.2633 -0.9365
  233SOL    HW1  698   0.372   2.902   1.706  1.2879 -2.7871 -2.3253
  233SOL    HW2  699   0.252   2.851   1.615  2.1823  0.0725  2.1349
  234SOL     OW  700   0.710   0.280   2.542  0.0194  0.0646  0.0106
  234SOL    HW1  701   0.811   0.255   2.550 -0.8989  0.1466  1.4408
  234SOL    HW2  702   0.684   0.365   2.586 -2.6118 -0.8438 -0.6830
  235SOL     OW  703   2.575   1.070   1.701  0.0687  0.0808 -0.4787
  235SOL    HW1  704   2.598   0.966   1.697  0.6188 -3.3559 -1.6038
  235SOL    HW2  705   2.477   1.085   1.685  1.1703  2.8366  0.9896
  236SOL     OW  706   1.291   2.779   1.509  0.1709  0.0947  0.2323
  236SOL    HW1  707   1.211   2.726   1.465  0.4812 -0.5922  0.9216
  236SOL    HW2  708   1.355   2.702   1.539  2.5492 -1.3244 -0.1848
  237SOL     OW  709   0.507   1.631   2.514  0.8479  0.1418  0.3228
  237SOL    HW1  710   0.573   1.562   2.482  0.6993  0.8337  0.7763
  237SOL    HW2  711   0.553   1.722   2.538 -2.3535  1.0133 -0.3067
  238SOL     OW  712   0.779   0.744   2.137 -0.0553 -0.0519 -0.6376
  238SOL    HW1  713   0.877   0.744   2.106 -2.1443  1.9784  0.9251
  238SOL    HW2  714   0.764   0.696   2.226  0.5549  1.7889  1.5506
  239SOL     OW  715   0.924   1.815   2.500 -0.5252 -0.3003 -0.4744
  239SOL    HW1  716   0.830   1.848   2.523 -1.3717  0.9590 -1.1226
  239SOL    HW2  717   0.991   1.889   2.524 -1.5798  0.3556  0.3345
  240SOL     OW  718   2.301   2.836   0.200  0.0925  0.4449  0.1628
  240SOL    HW1  719   2.344   2.878   0.113 -1.7790 -0.3464  0.5169
  240SOL    HW2  720   2.340   2.865   0.288 -0.9585  0.4176  0.4974
  241SOL     OW  721   0.401   1.092   0.275  0.5039 -0.4939  0.5829
  241SOL    HW1  722   0.349   1.082   0.362  1.5254 -0.6850  0.3034
  241SOL    HW2  723   0.411   1.186   0.248  0.1952 -2.9615 -0.3662
  242SOL     OW  724   1.476   2.586   1.562 -0.2193  0.0094  0.0978
  242SOL    HW1  725   1.465   2.489   1.531  2.0023 -0.6976 -1.7891
  242SOL    HW2  726   1.552   2.627   1.501  1.5720  1.0278  0.0912
  243SOL     OW  727   0.729   2.608   1.791  0.4843  0.5400  0.1045
  243SOL    HW1  728   0.712   2.703   1.761 -0.0076 -0.7214 -1.2195
  243SOL    HW2  729   0.651   2.553   1.747 -1.5760  0.7303 -0.7099
  244SOL     OW  730   2.307   0.653   2.583  0.0244  0.6052 -0.2233
  244SOL    HW1  731   2.236   0.704   2.527 -0.1901 -1.0299  1.3705
  244SOL    HW2  732   2.358   0.712   2.649  0.7754  2.8603  2.0025
  245SOL     OW  733   1.592   2.553   1.155  0.9737  0.4245 -0.2761
  245SOL    HW1  734   1.580   2.456   1.133 -1.1172 -1.9333 -0.9063
  245SOL    HW2  735   1.653   2.595   1.084 -0.3299  0.8096  2.3362
  246SOL     OW  736   1.399   3.046   0.349  0.4886  0.9847  0.4286
  246SOL    HW1  737   1.435   0.055   0.312 -0.6406 -1.7006  4.1970
  246SOL    HW2  738   1.305   3.048   0.384  1.0422  1.8023 -1.2787
  247SOL     OW  739   1.930   0.529   1.751  0.1645  0.1511 -0.7551
  247SOL    HW1  740   1.899   0.530   1.654  0.6802  1.0834 -0.8231
  247SOL    HW2  741   1.899   0.446   1.807 -2.2550  0.9299  1.6638
  248SOL     OW  742   0.102   2.010   1.630  0.3125  0.2454  0.0171
  248SOL    HW1  743   0.199   2.010   1.660  0.3386 -3.9402 -0.3784
  248SOL    HW2  744   0.055   1.914   1.649 -0.9416 -2.9938 -0.5528
  249SOL     OW  745   0.362   0.453   0.231 -0.0565  0.2717 -0.6112
  249SOL    HW1  746   0.395   0.534   0.277  0.6352 -1.3349 -0.3193
  249SOL    HW2  747   0.425   0.375   0.249 -2.3049 -0.9718  0.8107
  250SOL     OW  748   2.433   0.222   2.320 -0.2740 -0.1169 -0.7006
  250SOL    HW1  749   2.349   0.174   2.344  1.6452  1.2509  1.4172
  250SOL    HW2  750   2.427   0.266   2.230 -0.8252  0.4969  2.4207
  251SOL     OW  751   1.376   0.621   3.032  0.0442 -0.4369  0.0443
  251SOL    HW1  752   1.289   0.607   0.006 -0.1900  2.4954 -0.6337
  251SOL    HW2  753   1.378   0.707   2.982  2.6365  1.9528 -1.6436
  252SOL     OW  754   1.226   2.658   2.105 -0.3741  0.7025  0.0420
  252SOL    HW1  755   1.135   2.706   2.125 -1.7755 -0.0002 -0.6651
  252SOL    HW2  756   1.281   2.725   2.054  0.4452  1.6242  1.6284
  253SOL     OW  757   2.676   2.539   0.575  0.0486  0.3898 -0.4960
  253SOL    HW1  758   2.661   2.622   0.630  1.6839 -0.0462 -1.2915
  253SOL    HW2  759   2.651   2.556   0.481  0.9217  0.6061 -1.3871
  254SOL     OW  760   2.329   1.139   1.098 -0.3750  0.0522 -0.2709
  254SOL    HW1  761   2.385   1.202   1.156 -2.7950  0.9545  1.8455
  254SOL    HW2  762   2.279   1.194   1.030  4.4435 -0.7731 -0.1786
  255SOL     OW  763   0.531   2.807   1.304  0.3675 -0.4520  0.4227
  255SOL    HW1  764   0.626   2.846   1.291 -0.5264 -0.0997 -1.1740
  255SOL    HW2  765   0.491   2.780   1.211  0.7069 -0.4733 -0.4200
  256SOL     OW  766   1.986   1.746   1.671  0.2776  1.0556 -0.2987
  256SOL    HW1  767   1.964   1.665   1.725 -0.5985  0.2131 -1.4995
  256SOL    HW2  768   2.034   1.720   1.585 -0.6631 -1.3832 -3.3148
  257SOL     OW  769   0.358   2.353   2.565 -0.0014  0.0261 -0.1159
  257SOL    HW1  770   0.367   2.429   2.635 -0.3564 -1.8634  1.4589
  257SOL    HW2  771   0.292   2.375   2.490 -0.0962 -2.5729  0.7541
  258SOL     OW  772   0.456   2.537   0.920 -0.1216  0.2279  0.3851
  258SOL    HW1  773   0.403   2.450   0.931 -0.8643 -0.5604  0.4280
  258SOL    HW2  774   0.420   2.605   0.990 -2.4782 -0.3464  2.0429
  259SOL     OW  775   1.423   0.679   2.644 -0.2529 -0.6349  0.8873
  259SOL    HW1  776   1.523   0.702   2.616  2.5314 -2.9150  0.8123
  259SOL    HW2  777   1.366   0.659   2.561  2.0393  0.1507  0.3636
  260SOL     OW  778   0.238   0.331   1.209  0.5931 -0.4048 -0.1541
  260SOL    HW1  779   0.239   0.230   1.186 -1.9708  0.2200 -1.7163
  260SOL    HW2  780   0.232   0.393   1.129 -2.2692  0.4267 -0.6325
  261SOL     OW  781   0.852   0.092   2.280 -0.1167 -0.1911  0.0753
  261SOL    HW1  782   0.765   0.067   2.326  2.0387  1.4192  1.8552
  261SOL    HW2  783   0.909   0.144   2.351 -2.1378  0.7880 -0.9844
  262SOL     OW  784   1.014   2.756   1.762 -0.0409  0.2550  0.2137
  262SOL    HW1  785   0.936   2.719   1.707  1.0424  0.2176  1.2363
  262SOL    HW2  786   1.082   2.688   1.781 -2.3814  1.6445  1.6954
  263SOL     OW  787   0.586   2.149   2.987 -0.5352 -0.4124  0.8560
  263SOL    HW1  788   0.511   2.150   2.922 -1.1591  2.0181 -2.8640
  263SOL    HW2  789   0.640   2.236   2.980 -1.3355 -2.1757 -1.6084
  264SOL     OW  790   1.568   1.609   1.085  0.3165  0.5423 -0.2261
  264SOL    HW1  791   1.537   1.705   1.062 -0.5589  1.0076 -0.0536
  264SOL    HW2  792   1.567   1.559   0.997  0.0799  0.6003  0.9510
  265SOL     OW  793   0.936   2.093   0.219 -0.0878  0.1587  0.0788
  265SOL    HW1  794   0.965   2.165   0.153  1.3762 -2.0747  0.2796
  265SOL    HW2  795   0.845   2.119   0.261 -0.6554 -1.3198 -0.5418
  266SOL     OW  796   2.899   0.846   0.902  0.0088 -0.1709 -0.2753
  266SOL    HW1  797   2.847   0.794   0.828  1.6080 -1.9752  0.5289
  266SOL    HW2  798   2.968   0.783   0.945  1.7712 -0.8430 -0.9671
  267SOL     OW  799   0.035   1.453   0.155  0.2077 -0.1410  0.0916
  267SOL    HW1  800   0.074   1.398   0.233  2.0811 -1.4897  1.3694
  267SOL    HW2  801   0.110   1.510   0.120 -1.3487 -2.2147 -2.2572
  268SOL     OW  802   1.332   0.429   0.325  0.3713 -0.0767  0.5377
  268SOL    HW1  803   1.235   0.447   0.295 -2.6998 -2.9398 -0.3828
  268SOL    HW2  804   1.382   0.517   0.329  2.9169  2.7322 -0.7799
  269SOL     OW  805   2.659   0.790   2.099  0.2356 -0.5175  0.0059
  269SOL    HW1  806   2.739   0.824   2.044 -0.5916 -1.1979 -3.1341
  269SOL    HW2  807   2.641   0.695   2.078 -0.9621  2.7726  1.4181
  270SOL     OW  808   2.895   1.074   0.443  0.0212 -0.3028 -0.4177
  270SOL    HW1  809   2.846   1.013   0.512  1.7433 -2.5937  0.3807
  270SOL    HW2  810   2.842   1.082   0.351 -0.5424  0.5152 -1.9591
  271SOL     OW  811   2.919   1.436   2.146 -0.1102 -0.1707 -0.1628
  271SOL    HW1  812   2.829   1.486   2.149  2.0615 -2.1732  0.2281
  271SOL    HW2  813   2.982   1.475   2.073 -0.4116 -1.6324  1.2465
  272SOL     OW  814   2.387   2.375   1.784  0.1353 -0.0420 -0.1622
  272SOL    HW1  815   2.456   2.426   1.833  0.0839 -0.7649 -1.3519
  272SOL    HW2  816   2.296   2.409   1.804  1.3736  0.1258 -4.0813
  273SOL     OW  817   0.096   2.407   0.124  0.4224  0.4088  0.7251
  273SOL    HW1  818   0.133   2.381   0.031 -1.0304 -2.2746 -1.3983
  273SOL    HW2  819   0.004   2.365   0.145 -2.5027 -0.5935  0.2064
  274SOL     OW  820   0.677   2.158   0.821 -0.3369  0.0272  0.0267
  274SOL    HW1  821   0.676   2.256   0.795  1.2333  1.5041  1.1306
  274SOL    HW2  822   0.763   2.107   0.806  1.0494  1.4417 -1.8295
  275SOL     OW  823   1.453   1.767   2.704  0.2479  0.0193  0.5339
  275SOL    HW1  824   1.494   1.816   2.629 -2.1304  0.3835  3.3747
  275SOL    HW2  825   1.391   1.690   2.676  1.8894  0.3193 -0.4630
  276SOL     OW  826   2.674   1.560   2.150 -0.1596  0.2546  0.9031
  276SOL    HW1  827   2.634   1.544   2.058 -0.3359 -0.5172 -2.6800
  276SOL    HW2  828   2.657   1.656   2.184 -0.5725  0.0235 -1.8463
  277SOL     OW  829   2.222   0.043   0.793  0.1465 -0.5601 -0.4223
  277SOL    HW1  830   2.194   0.103   0.715  1.2759  0.2129 -0.9832
  277SOL    HW2  831   2.138   0.005   0.840 -3.0234  1.3822  0.2004
  278SOL     OW  832   1.362   0.300   2.241 -0.3968 -0.0903 -0.0302
  278SOL    HW1  833   1.357   0.199   2.219  3.1075  0.6265 -0.1889
  278SOL    HW2  834   1.283   0.336   2.296 -0.7220  0.3094  1.0959
  279SOL     OW  835   1.150   2.719   1.001 -0.2876 -0.3044  0.1155
  279SOL    HW1  836   1.218   2.684   1.065  0.3546 -1.5031  0.5566
  279SOL    HW2  837   1.058   2.737   1.041  1.5198 -0.9160 -1.2679
  280SOL     OW  838   1.239   1.211   0.665 -0.1174 -0.4650 -0.3276
  280SOL    HW1  839   1.216   1.154   0.582 -1.8925 -0.4207  1.2392
  280SOL    HW2  840   1.189   1.175   0.745  1.3051  0.5998 -2.6664
  281SOL     OW  841   2.076   1.687   0.517  0.1082  0.5893 -0.3197
  281SOL    HW1  842   2.091   1.587   0.530 -3.1222  0.0885 -0.8322
  281SOL    HW2  843   2.167   1.735   0.516  1.8870  1.7652 -0.1748
  282SOL     OW  844   2.782   1.334   0.471  0.0472 -0.3409  0.0930
  282SOL    HW1  845   2.824   1.240   0.470 -1.4087 -2.1623  0.6835
  282SOL    HW2  846   2.803   1.393   0.393  0.0382 -0.5712  0.8520
  283SOL     OW  847   1.580   2.878   2.599  0.3670  0.2590 -0.1997
  283SOL    HW1  848   1.552   2.885   2.500 -2.1025 -0.7899  0.8540
  283SOL    HW2  849   1.666   2.828   2.611  0.9648 -0.3859  3.9953
  284SOL     OW  850   0.440   0.256   2.468  0.9278  0.0528  0.2938
  284SOL    HW1  851   0.536   0.260   2.506  0.0696  0.4412 -2.6872
  284SOL    HW2  852   0.378   0.316   2.524  1.5273  1.1823  2.2982
  285SOL     OW  853   1.767   1.558   3.068  0.2456 -0.3738  0.3239
  285SOL    HW1  854   1.669   1.564   3.040 -0.0770 -2.7557 -1.5471
  285SOL    HW2  855   1.815   1.600   2.990 -3.4383 -0.6268  0.7408
  286SOL     OW  856   1.574   2.073   1.686  0.0692  0.2460 -0.6813
  286SOL    HW1  857   1.485   2.124   1.673 -1.8180 -0.0833  2.7972
  286SOL    HW2  858   1.589   2.059   1.785 -2.0676 -2.7691 -0.4706
  287SOL     OW  859   1.828   2.907   1.363 -0.2553  0.0361  0.2619
  287SOL    HW1  860   1.833   2.894   1.461 -0.1547 -0.8267 -0.7057
  287SOL    HW2  861   1.768   2.983   1.335  0.0053  0.7942 -0.8752
  288SOL     OW  862   0.459   2.730   1.991 -0.2533 -0.0876 -0.0163
  288SOL    HW1  863   0.416   2.641   1.963  0.4429  0.0167 -2.4009
  288SOL    HW2  864   0.558   2.725   2.025  1.1389  0.4356  0.0892
  289SOL     OW  865   0.252   1.747   0.803  0.4873  0.4434 -0.2884
  289SOL    HW1  866   0.303   1.727   0.890 -1.0529  0.8506 -1.5535
  289SOL    HW2  867   0.177   1.813   0.833 -2.7910  1.7607  0.6583
  290SOL     OW  868   1.120   2.164   1.803  0.4758 -0.0195  0.0536
  290SOL    HW1  869   1.068   2.076   1.810  0.1420 -0.0976  1.4313
  290SOL    HW2  870   1.055   2.241   1.814  1.9479 -1.9920 -0.5165
  291SOL     OW  871   1.729   0.218   0.404  0.0309  0.1287  0.0389
  291SOL    HW1  872   1.638   0.232   0.366 -3.6451  0.1762 -1.5504
  291SOL    HW2  873   1.764   0.131   0.370 -0.3965  0.9434  0.5015
  292SOL     OW  874   0.410   0.368   1.420  1.3394  0.5678 -0.7038
  292SOL    HW1  875   0.330   0.371   1.356 -1.9789 -0.7403 -0.9926
  292SOL    HW2  876   0.399   0.286   1.483  2.6738 -4.1768  1.1357
  293SOL     OW  877   2.364   1.496   1.021 -0.1714  0.3321 -0.0850
  293SOL    HW1  878   2.441   1.537   0.974 -4.7032 -0.0848  2.2167
  293SOL    HW2  879   2.320   1.421   0.960 -1.5422 -0.7649 -0.0463
  294SOL     OW  880   0.416   0.105   2.253 -0.4950  0.0287 -0.0564
  294SOL    HW1  881   0.385   0.009   2.270 -0.1905  2.8767  0.7094
  294SOL    HW2  882   0.433   0.156   2.343 -1.7203  4.4248 -0.1509
  295SOL     OW  883   1.020   1.510   0.401  0.3193 -0.3396 -0.3535
  295SOL    HW1  884   1.109   1.481   0.441 -1.3198  1.6590  0.6595
  295SOL    HW2  885   0.978   1.438   0.348  0.7248 -0.4750  0.9417
  296SOL     OW  886   2.200   1.300   0.900  0.4984 -0.0783  0.6688
  296SOL    HW1  887   2.102   1.307   0.872  1.3759  0.4404 -1.9200
  296SOL    HW2  888   2.260   1.349   0.829 -3.0570  3.8240 -1.3816
  297SOL     OW  889   1.914   0.586   2.549  0.2843  0.5839 -0.3102
  297SOL    HW1  890   1.826   0.635   2.548  0.5205 -0.5333  0.2001
  297SOL    HW2  891   1.984   0.623   2.485 -1.1289  4.0798  0.0189
  298SOL     OW  892   0.982   0.199   2.499 -0.4773 -0.2338 -0.2682
  298SOL    HW1  893   1.023   0.138   2.564 -3.5986  3.0425 -0.0832
  298SOL    HW2  894   1.044   0.275   2.471  1.9860  0.9871 -2.9845
  299SOL     OW  895   1.260   0.653   2.000  0.1524 -0.1595 -0.1722
  299SOL    HW1  896   1.348   0.696   1.994  1.0750 -0.0624  1.1387
  299SOL    HW2  897   1.265   0.555   2.028 -1.3558  1.5176  0.5913
  300SOL     OW  898   2.717   0.156   1.815  0.1970  0.0582  0.1857
  300SOL    HW1  899   2.692   0.093   1.740 -0.0635 -1.2155  0.0012
  300SOL    HW2  900   2.718   0.253   1.789  1.5709 -2.1797  0.9734
  301SOL     OW  901   1.692   0.773   1.537 -0.2268 -0.6230  0.1642
  301SOL    HW1  902   1.637   0.841   1.483 -0.7818  0.3541  1.1310
  301SOL    HW2  903   1.731   0.813   1.625  1.4046  2.1000 -0.8726
  302SOL     OW  904   0.748   2.607   2.648 -0.2027  0.5529 -0.6016
  302SOL    HW1  905   0.720   2.520   2.607  0.5293  0.6005  0.7846
  302SOL    HW2  906   0.777   2.673   2.579 -0.9459 -1.4331  1.6807
  303SOL     OW  907   2.049   1.943   1.834  0.1109  0.9767 -0.1472
  303SOL    HW1  908   2.143   1.929   1.868  2.0520 -3.1371 -0.7388
  303SOL    HW2  909   2.030   1.869   1.769  0.0922  1.0936  0.4993
  304SOL     OW  910   0.346   2.951   0.663 -0.2208  0.2665 -0.0771
  304SOL    HW1  911   0.445   2.964   0.649 -0.3134 -3.2319 -0.2477
  304SOL    HW2  912   0.326   2.853   0.647  0.0184  2.6686  0.2757
  305SOL     OW  913   1.418   0.702   0.385  0.0601  0.1354 -0.2718
  305SOL    HW1  914   1.398   0.789   0.335 -1.7547  0.9210 -0.4678
  305SOL    HW2  915   1.404   0.726   0.485  1.6258  1.9417 -0.2655
  306SOL     OW  916   0.513   1.315   3.040 -0.3899 -0.5256 -0.7496
  306SOL    HW1  917   0.614   1.303   3.056  0.1707  1.0103  0.0456
  306SOL    HW2  918   0.467   1.321   0.055  0.0146  1.1337  2.8286
  307SOL     OW  919   0.662   0.719   1.899  0.3913 -0.2251  0.3239
  307SOL    HW1  920   0.706   0.738   1.987 -0.7357  1.2924 -4.2300
  307SOL    HW2  921   0.700   0.636   1.850 -1.5073 -0.2764 -0.0319
  308SOL     OW  922   0.606   0.054   1.250 -0.1721  0.5123 -0.0812
  308SOL    HW1  923   0.590   0.031   1.152 -0.3880  0.3484  0.3741
  308SOL    HW2  924   0.625   0.151   1.258 -1.3715  0.3600 -1.3387
  309SOL     OW  925   2.152   0.900   0.080 -0.0568 -0.1243 -0.4103
  309SOL    HW1  926   2.250   0.908   0.107  1.8717  1.1075 -0.2649
  309SOL    HW2  927   2.121   0.993   0.042 -0.9111  0.6792 -0.1421
  310SOL     OW  928   1.176   1.172   0.050  0.3397  0.3568  0.0728
  310SOL    HW1  929   1.136   1.233   3.060 -0.2650 -2.3452  2.2902
  310SOL    HW2  930   1.200   1.227   0.130 -1.7156 -1.0190 -3.4167
  311SOL     OW  931   1.687   2.575   2.487  0.0306 -0.2067  0.3804
  311SOL    HW1  932   1.644   2.531   2.403 -0.2129 -2.1323  2.2098
  311SOL    HW2  933   1.745   2.653   2.459 -1.3315 -1.7082  0.9631
  312SOL     OW  934   2.113   2.917   2.940  0.0121 -0.6918  0.0530
  312SOL    HW1  935   2.092   2.980   2.861  0.2191 -0.6484 -1.8593
  312SOL    HW2  936   2.029   2.885   2.990  2.6996  0.0153 -0.5553
  313SOL     OW  937   0.716   0.673   0.192 -0.3285  0.3205 -0.2821
  313SOL    HW1  938   0.656   0.754   0.177 -0.8590  1.8429  0.0559
  313SOL    HW2  939   0.811   0.705   0.207 -1.9788 -0.6720  0.0149
  314SOL     OW  940   2.607   1.378   2.978  0.0672 -0.1068  0.1048
  314SOL    HW1  941   2.603   1.363   2.875  1.3503 -0.6882  0.5370
  314SOL    HW2  942   2.662   1.462   3.003  0.1579  0.8566  0.9149
  315SOL     OW  943   1.812   0.826   1.767  0.3026 -0.5113  0.2672
  315SOL    HW1  944   1.815   0.726   1.776  1.2778 -0.2456  0.3514
  315SOL    HW2  945   1.757   0.864   1.846 -2.1872  1.0209  1.6672
  316SOL     OW  946   3.049   0.684   0.638  0.0792  0.2479 -0.0402
  316SOL    HW1  947   2.974   0.738   0.686 -3.6469 -1.7206 -0.5578
  316SOL    HW2  948   0.057   0.741   0.619  2.8033  0.9915 -2.3819
  317SOL     OW  949   0.847   0.269   0.194  0.3115  0.2360 -0.1888
  317SOL    HW1  950   0.777   0.339   0.149 -2.0585  3.1325 -2.3032
  317SOL    HW2  951   0.793   0.189   0.220 -1.1121 -2.0243 -0.2407
  318SOL     OW  952   2.409   2.657   1.137 -0.2706 -0.2771  0.6450
  318SOL    HW1  953   2.431   2.637   1.235 -1.1062  0.8747 -0.3122
  318SOL    HW2  954   2.493   2.648   1.078 -1.6525  1.1315  1.6388
  319SOL     OW  955   1.252   1.434   0.511 -0.1092 -0.2153  0.4867
  319SOL    HW1  956   1.248   1.352   0.571 -0.7618  1.2275 -0.5963
  319SOL    HW2  957   1.298   1.511   0.566 -2.7753  2.1541 -0.1255
  320SOL     OW  958   0.590   2.168   1.093  0.0739  0.0976  0.0392
  320SOL    HW1  959   0.496   2.200   1.092  3.4660  1.9951 -1.7229
  320SOL    HW2  960   0.622   2.153   0.995  0.4151 -0.8792 -0.3275
  321SOL     OW  961   2.092   2.679   2.354  0.3929 -0.1241 -0.3311
  321SOL    HW1  962   2.038   2.651   2.434  1.8075  0.7436 -2.4337
  321SOL    HW2  963   2.034   2.673   2.268  2.7288 -2.1243  0.0260
  322SOL     OW  964   2.824   2.316   2.514 -0.5310 -0.3051 -0.2660
  322SOL    HW1  965   2.884   2.244   2.563 -0.1500 -1.0220  0.0827
  322SOL    HW2  966   2.802   2.411   2.555 -2.2457  1.2000  0.7468
  323SOL     OW  967   2.781   0.652   0.746 -0.1272  0.0345 -0.3436
  323SOL    HW1  968   2.820   0.562   0.746 -0.5288 -0.7922  1.3606
  323SOL    HW2  969   2.688   0.649   0.709 -0.2690 -1.8914  1.2538
  324SOL     OW  970   2.415   2.079   2.402  0.5828 -0.2630 -0.2535
  324SOL    HW1  971   2.417   2.056   2.300 -0.1872  0.9505 -2.0733
  324SOL    HW2  972   2.359   2.019   2.464 -1.5064 -0.4039  0.9878
  325SOL     OW  973   1.239   0.672   2.358  0.9424 -0.1164 -0.3550
  325SOL    HW1  974   1.269   0.733   2.282 -1.1133 -0.8868  3.1302
  325SOL    HW2  975   1.187   0.730   2.421 -0.0667 -2.1120  2.6448
  326SOL     OW  976   2.812   2.312   0.635 -1.0360  0.2423 -0.0160
  326SOL    HW1  977   2.774   2.403   0.619 -0.8935 -1.3663  2.5831
  326SOL    HW2  978   2.912   2.306   0.616 -0.7678  0.8002  2.7863
  327SOL     OW  979   2.479   2.971   2.762  0.3864 -0.4083 -0.5306
  327SOL    HW1  980   2.410   2.898   2.785 -1.4328 -4.2470 -0.7797
  327SOL    HW2  981   2.566   2.931   2.737 -1.6676 -0.5383  0.0065
  328SOL     OW  982   0.997   0.468   0.498  0.2965 -0.3107  0.0913
  328SOL    HW1  983   0.906   0.433   0.481  1.2732  1.0329  1.2706
  328SOL    HW2  984   1.045   0.468   0.410 -0.5178 -0.1376  0.3537
  329SOL     OW  985   2.165   0.707   1.357  0.1171  0.0360 -0.1016
  329SOL    HW1  986   2.181   0.798   1.312 -0.6471 -0.4144 -0.7729
  329SOL    HW2  987   2.213   0.702   1.447  2.1918  2.6645 -2.1078
  330SOL     OW  988   1.131   0.233   0.606 -0.4792 -0.0825 -0.0233
  330SOL    HW1  989   1.085   0.321   0.577  0.3444  1.0505 -3.1324
  330SOL    HW2  990   1.229   0.261   0.638 -1.8595  1.9921  1.9751
  331SOL     OW  991   0.418   2.160   1.951  0.2780  0.4013 -0.3681
  331SOL    HW1  992   0.426   2.244   2.008 -0.6354 -1.0433 -1.1886
  331SOL    HW2  993   0.473   2.084   1.989  0.7686  0.5675 -1.3322
  332SOL     OW  994   2.311   2.128   1.702 -0.4359  0.4364 -0.2809
  332SOL    HW1  995   2.369   2.205   1.736 -0.6316 -1.2767 -1.0560
  332SOL    HW2  996   2.327   2.041   1.752  0.1667 -0.1078 -0.3476
  333SOL     OW  997   2.738   2.970   1.113  0.0921 -0.1693  0.0087
  333SOL    HW1  998   2.837   3.003   1.135  1.7004  0.0735  1.9232
  333SOL    HW2  999   2.686   3.033   1.052  0.9285 -2.0876 -1.4856
  334SOL     OW 1000   2.963   1.749   1.036  0.5132 -0.7300  0.0602
  334SOL    HW1 1001   3.046   1.692   1.057  0.6454 -2.5115 -0.9422
  334SOL    HW2 1002   2.904   1.700   0.971  0.0044 -0.3861 -2.4508
  335SOL     OW 1003   0.482   2.777   2.667 -0.1820  0.3831  0.0642
  335SOL    HW1 1004   0.401   2.762   2.724  1.0569  1.3683 -0.0671
  335SOL    HW2 1005   0.542   2.696   2.650  0.4979 -0.8338 -0.5479
  336SOL     OW 1006   3.051   2.736   1.689 -0.1222 -0.0448  0.6908
  336SOL    HW1 1007   3.063   2.817   1.627 -0.8901 -0.3461  0.3378
  336SOL    HW2 1008   3.034   2.769   1.779 -2.8382 -0.1674  0.1707
  337SOL     OW 1009   1.138   1.980   2.497  0.0746  0.0111 -0.1607
  337SOL    HW1 1010   1.156   1.997   2.398  1.1010  2.0472 -3.4118
  337SOL    HW2 1011   1.174   2.059   2.551  0.0352 -0.7014 -2.4058
  338SOL     OW 1012   1.148   2.948   2.501 -0.4034 -0.0060 -0.3816
  338SOL    HW1 1013   1.236   2.993   2.469  1.2502  2.8978 -2.1800
  338SOL    HW2 1014   1.111   3.007   2.573 -0.3268 -0.6471  1.2698
  339SOL     OW 1015   0.055   1.366   2.784  0.3218 -0.0185 -0.1786
  339SOL    HW1 1016   0.042   1.416   2.696 -1.0792  1.9987  0.9350
  339SOL    HW2 1017   0.132   1.299   2.784  2.4649 -1.7442  0.1335
  340SOL     OW 1018   2.203   0.479   1.176  0.7259  0.5168 -0.1741
  340SOL    HW1 1019   2.178   0.574   1.201 -0.2674 -0.9982  1.6959
  340SOL    HW2 1020   2.276   0.450   1.246 -0.9392  1.7808  0.6150
  341SOL     OW 1021   1.758   1.103   0.947  0.1935  0.4695  0.1663
  341SOL    HW1 1022   1.813   1.173   0.905  0.3009 -1.9300  2.7325
  341SOL    HW2 1023   1.763   1.021   0.882 -0.5256 -1.6175 -3.0105
  342SOL     OW 1024   2.000   2.381   2.635  0.3385 -0.2135 -0.2122
  342SOL    HW1 1025   2.096   2.349   2.653  1.8778 -0.3318  1.7698
  342SOL    HW2 1026   1.995   2.482   2.634  0.5996  0.3084 -1.5956
  343SOL     OW 1027   0.026   2.596   0.866 -0.0190 -0.3727  0.1963
  343SOL    HW1 1028   0.085   2.605   0.784 -3.1196 -0.4601 -0.9954
  343SOL    HW2 1029   0.085   2.583   0.950 -0.8554 -2.0139 -0.8769
  344SOL     OW 1030   2.614   2.743   0.750  0.2123  0.1523 -0.1289
  344SOL    HW1 1031   2.561   2.830   0.745  1.2369 -2.6410  0.1335
  344SOL    HW2 1032   2.646   2.732   0.848 -1.5618 -0.4611  0.7996
  345SOL     OW 1033   2.382   2.283   0.527 -0.0496  0.2054 -0.2604
  345SOL    HW1 1034   2.319   2.252   0.454  2.5655  1.4242  0.8825
  345SOL    HW2 1035   2.370   2.381   0.544 -2.9804  0.4052  0.0925
  346SOL     OW 1036   1.325   2.201   1.633  0.4735  0.6525 -0.0637
  346SOL    HW1 1037   1.250   2.203   1.703  2.2827  0.1551  0.5322
  346SOL    HW2 1038   1.307   2.134   1.559 -1.3092  2.1270  0.5744
  347SOL     OW 1039   1.482   1.948   2.313 -0.0827 -0.1238 -0.2695
  347SOL    HW1 1040   1.505   1.901   2.225  0.6795  2.6283  1.3977
  347SOL    HW2 1041   1.527   2.040   2.314 -0.0984 -1.0564  1.4020
  348SOL     OW 1042   0.584   1.678   1.303  0.4297 -0.0639  0.1903
  348SOL    HW1 1043   0.636   1.680   1.215 -1.9517  0.5409 -0.7543
  348SOL    HW2 1044   0.632   1.734   1.372  0.9160 -1.4592 -0.2877
  349SOL     OW 1045   1.788   1.501   1.480  0.1321  0.0932  0.1061
  349SOL    HW1 1046   1.730   1.541   1.558 -1.2343 -1.6124  1.6989
  349SOL    HW2 1047   1.737   1.502   1.395  1.5499 -0.6118  2.2937
  350SOL     OW 1048   2.451   2.188   0.799 -0.1297 -0.1050 -0.0758
  350SOL    HW1 1049   2.375   2.203   0.863  0.2477  2.0182  0.4565
  350SOL    HW2 1050   2.426   2.230   0.707 -0.0998  1.3044 -1.4852
  351SOL     OW 1051   0.183   0.066   1.796  0.3219 -0.4266 -0.2813
  351SOL    HW1 1052   0.244   3.071   1.829  0.0771  2.6467 -1.1472
  351SOL    HW2 1053   0.105   0.083   1.852 -0.0938  0.0404 -3.2347
  352SOL     OW 1054   0.842   1.026   0.251 -0.7527  0.1557  0.4025
  352SOL    HW1 1055   0.912   0.954   0.266  0.0349 -1.0352  0.5395
  352SOL    HW2 1056   0.754   0.987   0.219  0.5617 -0.9901 -0.9878
  353SOL     OW 1057   0.686   1.469   2.771 -0.0943 -0.2809  0.3640
  353SOL    HW1 1058   0.778   1.501   2.742 -0.0979 -1.2652  0.7057
  353SOL    HW2 1059   0.641   1.524   2.841 -2.1067 -1.3686  0.3787
  354SOL     OW 1060   1.760   2.347   1.791  0.1357 -0.4476 -0.2392
  354SOL    HW1 1061   1.768   2.402   1.708 -2.0657 -2.1981  1.3506
  354SOL    HW2 1062   1.846   2.296   1.808 -0.0587  0.4687 -2.4047
  355SOL     OW 1063   2.130   0.669   2.968  0.2526 -0.3294 -0.0308
  355SOL    HW1 1064   2.112   0.707   2.874  1.1656  2.7337  0.1150
  355SOL    HW2 1065   2.118   0.742   3.036  1.9428 -0.5277 -1.3987
  356SOL     OW 1066   0.734   2.020   1.310 -0.2065 -0.5767 -0.6909
  356SOL    HW1 1067   0.757   2.106   1.265 -0.0133  1.1747  1.7105
  356SOL    HW2 1068   0.635   1.997   1.296 -1.0159 -0.1451  0.5957
  357SOL     OW 1069   2.971   0.048   1.843 -0.2552  0.4247 -0.3116
  357SOL    HW1 1070   2.869   0.043   1.839  2.9734 -1.8837  1.7798
  357SOL    HW2 1071   2.996   0.108   1.919  3.2154  0.8584 -1.8856
  358SOL     OW 1072   2.389   1.797   1.549  0.1053  0.2968 -0.5584
  358SOL    HW1 1073   2.306   1.823   1.497  0.8035 -0.7584  0.3167
  358SOL    HW2 1074   2.457   1.874   1.546  0.9934  2.8732  0.3547
  359SOL     OW 1075   2.029   2.218   2.403 -0.2854 -0.2222  0.3349
  359SOL    HW1 1076   2.020   2.298   2.340 -1.8571  0.4767 -1.9779
  359SOL    HW2 1077   1.983   2.229   2.492 -1.3981 -1.7583 -0.7038
  360SOL     OW 1078   1.288   2.550   0.825 -0.1807 -0.2594 -0.0922
  360SOL    HW1 1079   1.246   2.600   0.903  0.4021 -0.7737 -0.4441
  360SOL    HW2 1080   1.371   2.608   0.797  2.8025  1.2643 -1.1866
  361SOL     OW 1081   1.843   0.017   0.262 -0.1283 -0.3482 -0.4513
  361SOL    HW1 1082   1.755   0.011   0.210 -0.4871 -0.8790  1.2017
  361SOL    HW2 1083   1.874   3.007   0.300  0.8466  4.1547 -0.2616
  362SOL     OW 1084   1.486   0.925   1.432 -0.3705 -0.0213  0.4352
  362SOL    HW1 1085   1.538   1.010   1.403  0.2552  4.5470 -2.7685
  362SOL    HW2 1086   1.390   0.946   1.455  1.5289 -0.1069 -0.1399
  363SOL     OW 1087   1.865   1.618   2.136 -0.2816 -0.4420  0.2271
  363SOL    HW1 1088   1.782   1.581   2.172  2.2622  0.1535  0.2253
  363SOL    HW2 1089   1.934   1.611   2.209 -1.4916  0.1773 -1.5540
  364SOL     OW 1090   0.565   0.598   1.476 -0.9393  0.1433  0.0656
  364SOL    HW1 1091   0.506   0.516   1.450  0.9076 -0.7759 -0.5853
  364SOL    HW2 1092   0.622   0.623   1.393  1.9963 -0.5510 -2.5629
  365SOL     OW 1093   0.492   0.674   2.585  0.4375  0.0430 -0.3453
  365SOL    HW1 1094   0.430   0.675   2.664  0.0604 -0.5879 -0.3105
  365SOL    HW2 1095   0.444   0.658   2.499  1.4328 -2.9344  2.8399
  366SOL     OW 1096   2.131   1.404   2.841  0.3272  0.1370  0.2645
  366SOL    HW1 1097   2.093   1.335   2.903  0.9517  2.1654  1.6720
  366SOL    HW2 1098   2.132   1.497   2.878  1.4658 -0.5825 -0.8334
  367SOL     OW 1099   3.021   2.620   2.555 -0.1209  0.2706 -0.3980
  367SOL    HW1 1100   3.068   2.533   2.554  0.3392 -0.5264  3.2136
  367SOL    HW2 1101   2.924   2.612   2.525 -0.1561  0.6650  1.6872
  368SOL     OW 1102   3.029   1.241   1.277 -0.7038 -0.6188 -0.2744
  368SOL    HW1 1103   3.042   1.223   1.375 -0.6893  0.3219  0.6359
  368SOL    HW2 1104   3.009   1.153   1.226  1.3814 -0.3741 -1.6058
  369SOL     OW 1105   0.656   2.867   2.248 -0.8098  0.1373 -0.0424
  369SOL    HW1 1106   0.747   2.850   2.207 -0.5966  1.6801  2.9295
  369SOL    HW2 1107   0.662   2.909   2.342 -0.4762 -0.7496 -0.4819
  370SOL     OW 1108   2.854   0.224   0.531  0.2144 -0.3319 -0.0301
  370SOL    HW1 1109   2.839   0.167   0.443  1.1995 -1.6477 -2.2235
  370SOL    HW2 1110   2.873   0.323   0.507  1.9022  0.4359 -1.3219
  371SOL     OW 1111   0.812   2.426   1.426 -0.0131  0.1177  0.1955
  371SOL    HW1 1112   0.911   2.432   1.443  2.1198 -0.0744 -0.9785
  371SOL    HW2 1113   0.765   2.344   1.468  1.8130 -0.9654  1.1573
  372SOL     OW 1114   2.481   0.465   2.420  0.1845  0.1501  0.4314
  372SOL    HW1 1115   2.462   0.487   2.516  0.7045 -2.8503  1.0156
  372SOL    HW2 1116   2.494   0.361   2.409 -2.1330 -1.5465  1.2971
  373SOL     OW 1117   0.050   1.944   0.823  0.1092  0.0586 -0.8599
  373SOL    HW1 1118   0.125   2.004   0.793  1.2778  0.9810  2.6588
  373SOL    HW2 1119   0.003   1.995   0.907 -2.3662  0.8222  0.8876
  374SOL     OW 1120   0.076   0.102   2.394 -0.1496 -0.2038  0.6947
  374SOL    HW1 1121   3.053   0.134   2.406 -1.5607  0.8112  0.7048
  374SOL    HW2 1122   0.128   0.153   2.320 -0.9827 -0.8962 -0.9096
  375SOL     OW 1123   0.709   0.526   2.662  0.1560 -0.0983 -1.0272
  375SOL    HW1 1124   0.641   0.600   2.640  0.7623 -0.6491  0.3828
  375SOL    HW2 1125   0.806   0.551   2.638  0.2094 -1.3674 -0.6313
  376SOL     OW 1126   0.021   2.224   1.799  0.5572 -0.2914  0.0288
  376SOL    HW1 1127   3.004   2.247   1.779  1.2713 -2.1216 -0.0980
  376SOL    HW2 1128   0.054   2.156   1.725  2.6126 -2.5249 -2.3072
  377SOL     OW 1129   1.212   0.241   2.811  0.1440  0.1577 -0.1592
  377SOL    HW1 1130   1.250   0.157   2.766 -3.6620  1.4811  0.0761
  377SOL    HW2 1131   1.264   0.326   2.785 -0.1005  0.5876 -1.9707
  378SOL     OW 1132   2.864   0.858   2.740  0.1739 -0.3624 -0.2919
  378SOL    HW1 1133   2.963   0.888   2.752 -0.6846 -0.8199 -0.8204
  378SOL    HW2 1134   2.849   0.813   2.651  1.2325 -0.3238  0.8626
  379SOL     OW 1135   1.067   0.826   2.846 -0.2453 -0.2124  0.1564
  379SOL    HW1 1136   1.007   0.871   2.773 -1.4516  2.2683 -1.3337
  379SOL    HW2 1137   1.051   0.867   2.939 -0.8270  0.8256  0.8302
  380SOL     OW 1138   0.008   1.890   2.039 -0.1649  0.0776  0.0149
  380SOL    HW1 1139   0.074   1.966   2.012  1.6803  0.1195 -2.6840
  380SOL    HW2 1140   2.987   1.920   2.045  0.8038  1.4551 -0.1540
  381SOL     OW 1141   0.061   0.986   2.470  0.1047 -0.1513  0.2736
  381SOL    HW1 1142   0.117   1.004   2.382  1.8177 -0.5892  0.1818
  381SOL    HW2 1143   0.015   1.074   2.491 -1.3327  0.6237 -0.8038
  382SOL     OW 1144   1.897   2.224   0.567 -0.2329  0.3680 -0.2961
  382SOL    HW1 1145   1.855   2.133   0.559 -0.0279  0.8025 -2.1637
  382SOL    HW2 1146   1.907   2.250   0.665 -2.1646 -0.0265 -0.1162
  383SOL     OW 1147   0.704   1.615   0.162  0.6166 -0.1055 -0.0265
  383SOL    HW1 1148   0.801   1.628   0.175  0.0547  1.6079  2.3346
  383SOL    HW2 1149   0.659   1.597   0.253 -2.8082  1.7442 -0.1650
  384SOL     OW 1150   0.909   2.252   2.454 -0.0084 -0.4410  0.8044
  384SOL    HW1 1151   0.830   2.305   2.490 -3.0390  1.4953  2.0354
  384SOL    HW2 1152   0.916   2.167   2.509  1.9712  0.2564  1.5186
  385SOL     OW 1153   2.435   1.862   0.796  0.0202 -0.3492  0.1835
  385SOL    HW1 1154   2.378   1.822   0.866 -0.9181 -2.0724 -1.5611
  385SOL    HW2 1155   2.473   1.952   0.823 -0.6398  1.0984  0.3852
  386SOL     OW 1156   2.275   0.739   1.024  0.0670 -0.0835  0.0852
  386SOL    HW1 1157   2.285   0.692   0.934  1.2089 -1.5286  0.1583
  386SOL    HW2 1158   2.190   0.802   1.029 -0.6241  1.2010  0.9456
  387SOL     OW 1159   0.380   0.754   1.947  0.0300  0.7460  0.0174
  387SOL    HW1 1160   0.391   0.817   2.023  1.5844  1.9284 -1.6521
  387SOL    HW2 1161   0.470   0.715   1.922  3.7477  2.0787 -0.0472
  388SOL     OW 1162   0.956   1.648   2.285  0.5123  0.7704  0.5959
  388SOL    HW1 1163   0.946   1.699   2.371  0.0137 -3.3122 -1.4500
  388SOL    HW2 1164   0.865   1.607   2.257 -2.6211  1.1881 -0.2090
  389SOL     OW 1165   0.745   1.299   1.962 -0.3182 -0.2856  0.4631
  389SOL    HW1 1166   0.661   1.261   2.011 -1.4835 -1.9763  0.2604
  389SOL    HW2 1167   0.779   1.230   1.894 -0.8817 -0.6577  0.3995
  390SOL     OW 1168   2.845   2.901   0.740  0.1515  0.1264 -0.2131
  390SOL    HW1 1169   2.757   2.853   0.719 -0.9023  0.8397 -1.0461
  390SOL    HW2 1170   2.829   3.000   0.720 -2.5448  1.8665  1.4870
  391SOL     OW 1171   1.712   1.442   1.228  0.0185 -0.2509 -0.0777
  391SOL    HW1 1172   1.652   1.497   1.170  0.3798 -1.6078  0.3035
  391SOL    HW2 1173   1.795   1.406   1.180 -2.2509  2.2173  1.6377
  392SOL     OW 1174   2.998   2.953   0.005  0.1924  0.4793  0.5931
  392SOL    HW1 1175   3.010   3.037   0.056  2.2945 -1.0887  0.3800
  392SOL    HW2 1176   3.036   2.875   0.052  0.8582 -3.4868 -1.8725
  393SOL     OW 1177   1.481   2.184   2.737  0.2480  0.1479  0.2524
  393SOL    HW1 1178   1.549   2.128   2.687  1.8649 -0.5381  2.7972
  393SOL    HW2 1179   1.500   2.173   2.832  0.9741  0.4638 -3.6421
  394SOL     OW 1180   0.069   2.414   2.637  0.6398  0.2080 -0.2772
  394SOL    HW1 1181   0.110   2.409   2.541  0.7965  2.2703  0.5805
  394SOL    HW2 1182   0.046   2.319   2.676  0.0037 -0.9332  1.2270
  395SOL     OW 1183   0.087   0.230   0.693  0.0237  0.7249  0.0352
  395SOL    HW1 1184   0.085   0.324   0.736 -0.7770  0.7797  1.5563
  395SOL    HW2 1185   0.183   0.193   0.689  6.1092  1.0144  1.4757
  396SOL     OW 1186   2.153   0.194   0.567  0.4206  0.8121  0.2808
  396SOL    HW1 1187   2.087   0.267   0.593 -1.5507 -3.2153  2.1749
  396SOL    HW2 1188   2.140   0.155   0.471  0.6836  0.3128  0.8385
  397SOL     OW 1189   0.046   0.734   2.472  0.1631  0.5086 -0.0744
  397SOL    HW1 1190   0.066   0.691   2.564 -1.4223 -0.5269  1.9337
  397SOL    HW2 1191   0.059   0.834   2.481  0.9546 -0.8818 -0.5649
  398SOL     OW 1192   0.833   0.032   3.050 -0.5062 -0.5188 -0.0095
  398SOL    HW1 1193   0.799   0.084   2.971 -0.9936  0.4973  1.7365
  398SOL    HW2 1194   0.911   3.057   3.011 -0.7171 -0.7650 -0.9381
  399SOL     OW 1195   2.059   0.394   2.133  0.6561 -0.0228  0.1330
  399SOL    HW1 1196   1.972   0.441   2.153  1.0965 -0.1857 -1.9652
  399SOL    HW2 1197   2.038   0.325   2.060 -2.2808  0.9110 -0.5572
  400SOL     OW 1198   0.983   2.334   2.828 -0.0216  0.0851 -0.0338
  400SOL    HW1 1199   1.055   2.285   2.773 -1.3036  0.1161 -1.2221
  400SOL    HW2 1200   1.004   2.434   2.830  0.9677 -0.9172  1.9018
  401SOL     OW 1201   0.133   1.387   2.508  0.1466  0.3228  0.3663
  401SOL    HW1 1202   0.190   1.328   2.444 -0.9127 -3.1471 -1.6689
  401SOL    HW2 1203   0.075   1.454   2.454  0.3456 -1.7191 -0.5396
  402SOL     OW 1204   0.141   2.869   0.196  0.6208  0.4979 -0.1322
  402SOL    HW1 1205   0.202   2.787   0.202 -1.7322  0.3274  0.8788
  402SOL    HW2 1206   0.137   2.910   0.290 -1.1922 -1.2008  0.9123
  403SOL     OW 1207   0.328   1.199   1.708  0.1060 -0.1104 -0.0276
  403SOL    HW1 1208   0.406   1.145   1.749 -2.3039  2.8397  0.5509
  403SOL    HW2 1209   0.296   1.166   1.613  1.3940 -1.6897  2.5995
  404SOL     OW 1210   2.292   2.581   2.151  0.4862  0.2576  0.0253
  404SOL    HW1 1211   2.213   2.606   2.212  0.0793  0.2495 -0.1323
  404SOL    HW2 1212   2.292   2.478   2.143  0.8857 -2.0550  0.0546
  405SOL     OW 1213   0.105   0.427   1.933  0.2236 -0.0910 -0.0115
  405SOL    HW1 1214   0.126   0.342   1.983 -0.5215 -0.3984  1.3995
  405SOL    HW2 1215   0.098   0.410   1.833 -2.9544 -0.2907 -2.9806
  406SOL     OW 1216   1.148   1.644   2.846  0.1550 -0.2809 -0.4392
  406SOL    HW1 1217   1.086   1.628   2.928 -0.9807 -0.8648 -0.8244
  406SOL    HW2 1218   1.232   1.697   2.872 -0.8885  2.6224 -0.8979
  407SOL     OW 1219   2.069   0.772   2.724 -0.1804 -0.0489 -0.0510
  407SOL    HW1 1220   2.038   0.747   2.630  3.1273 -0.1208 -0.8373
  407SOL    HW2 1221   2.113   0.864   2.723 -1.1097 -0.3288 -4.1372
  408SOL     OW 1222   0.530   2.608   2.285 -0.8122 -0.2462 -0.5524
  408SOL    HW1 1223   0.447   2.631   2.340  0.1076 -0.8092 -2.3668
  408SOL    HW2 1224   0.563   2.697   2.240  0.1410  2.8804 -2.6265
  409SOL     OW 1225   0.068   2.313   1.120  0.1003 -0.0007  0.0757
  409SOL    HW1 1226   3.057   2.261   1.122  2.7822  0.4633 -0.0315
  409SOL    HW2 1227   0.051   2.416   1.125 -0.9190 -0.1354  0.4520
  410SOL     OW 1228   2.877   1.718   0.418  0.3858 -0.2671 -0.1764
  410SOL    HW1 1229   2.947   1.707   0.499  1.3259 -1.2562  2.8006
  410SOL    HW2 1230   2.885   1.637   0.352 -0.9415  0.1456  0.5572
  411SOL     OW 1231   2.633   2.963   1.367 -0.3457  0.1406  0.0788
  411SOL    HW1 1232   2.533   2.977   1.359 -0.0644 -0.4439 -0.0294
  411SOL    HW2 1233   2.683   2.953   1.278  0.8132  0.9865  0.7875
  412SOL     OW 1234   2.218   0.197   1.560 -0.2540 -0.3766 -0.6963
  412SOL    HW1 1235   2.150   0.267   1.591  0.2747 -0.3349  0.1903
  412SOL    HW2 1236   2.196   0.154   1.470  2.0148  1.3206 -0.0251
  413SOL     OW 1237   0.197   0.283   2.191  0.8228 -0.4202 -0.2044
  413SOL    HW1 1238   0.184   0.344   2.273  0.7983  1.1643  0.0655
  413SOL    HW2 1239   0.286   0.237   2.185  1.9575  1.8038 -0.3269
  414SOL     OW 1240   2.814   1.210   0.026 -0.0092  0.1650 -0.1465
  414SOL    HW1 1241   2.732   1.263   3.068  0.2552  0.2928  2.0213
  414SOL    HW2 1242   2.801   1.177   0.119  0.3354  0.0933  1.2126
  415SOL     OW 1243   0.889   2.520   0.105  0.3377  0.7416  0.3251
  415SOL    HW1 1244   0.962   2.576   0.143 -0.2278  0.4634 -2.6843
  415SOL    HW2 1245   0.930   2.426   0.106  0.7376 -2.1067  1.8137
  416SOL     OW 1246   1.504   2.883   2.321 -0.5914 -0.6309  0.2460
  416SOL    HW1 1247   1.465   2.788   2.313 -1.3879 -0.3268  0.1551
  416SOL    HW2 1248   1.593   2.881   2.265 -1.8551 -1.2029  0.2960
  417SOL     OW 1249   0.307   0.893   1.234 -0.2305 -0.6236 -0.4672
  417SOL    HW1 1250   0.273   0.956   1.159 -0.1643  0.8381 -1.0133
  417SOL    HW2 1251   0.410   0.901   1.242 -0.3214  2.4835 -1.9974
  418SOL     OW 1252   2.644   0.042   0.857  0.4683 -0.3900  0.0241
  418SOL    HW1 1253   2.579   0.102   0.901  0.0725 -0.9820  1.0822
  418SOL    HW2 1254   2.722   0.098   0.821 -2.3412  1.9308 -1.5861
  419SOL     OW 1255   0.243   0.118   0.284  0.0256 -0.1657 -0.3346
  419SOL    HW1 1256   0.242   0.027   0.334 -0.7969 -0.3292 -0.9758
  419SOL    HW2 1257   0.202   0.189   0.347 -3.1100  1.5492  0.6420
  420SOL     OW 1258   0.248   1.155   1.460  0.2467 -0.2922 -0.0772
  420SOL    HW1 1259   0.285   1.079   1.402 -0.6581 -1.0825  0.9735
  420SOL    HW2 1260   0.141   1.148   1.462 -3.6594 -1.3046 -0.5679
  421SOL     OW 1261   1.760   2.497   0.851 -0.2578 -0.0416  0.2116
  421SOL    HW1 1262   1.823   2.428   0.812 -2.8233  0.5904  1.9729
  421SOL    HW2 1263   1.667   2.460   0.833 -0.3343 -2.5932 -1.3079
  422SOL     OW 1264   0.029   0.358   1.383 -0.6200 -0.1966 -0.0496
  422SOL    HW1 1265   0.106   0.348   1.315 -0.8622  0.0414 -1.6092
  422SOL    HW2 1266   0.005   0.459   1.378 -1.6874  2.0846 -1.7273
  423SOL     OW 1267   1.045   1.305   2.014 -0.5977  0.0443 -0.4684
  423SOL    HW1 1268   0.945   1.300   2.037 -0.3111 -0.7735  1.0740
  423SOL    HW2 1269   1.076   1.395   2.060  2.2611  1.1127  0.7985
  424SOL     OW 1270   1.671   2.026   0.535 -0.4042  0.8887  0.4048
  424SOL    HW1 1271   1.648   1.954   0.464  0.5982 -1.6690 -2.5690
  424SOL    HW2 1272   1.727   1.987   0.608 -1.2708  0.2966 -0.5535
  425SOL     OW 1273   2.758   2.876   2.048  0.1492  0.3161  0.3151
  425SOL    HW1 1274   2.711   2.809   2.105  1.8035 -2.5631 -0.1984
  425SOL    HW2 1275   2.702   2.885   1.961 -0.9588 -0.1933  1.3750
  426SOL     OW 1276   3.007   2.796   2.749  0.3802  0.1869  0.5806
  426SOL    HW1 1277   3.028   2.744   2.666  2.1535 -1.6926 -1.5935
  426SOL    HW2 1278   0.012   2.796   2.806 -1.6722  0.4496 -0.0625
  427SOL     OW 1279   0.852   2.939   0.329 -0.2985  0.4793  0.2650
  427SOL    HW1 1280   0.928   2.985   0.271 -0.2650  0.2368 -0.4661
  427SOL    HW2 1281   0.761   2.960   0.287 -1.5467 -2.5646 -0.7964
  428SOL     OW 1282   2.802   0.484   1.483  0.2757 -0.3050 -0.3907
  428SOL    HW1 1283   2.791   0.385   1.492 -0.1951  0.6102 -0.6365
  428SOL    HW2 1284   2.783   0.525   1.387 -1.4495 -3.9353  0.4446
  429SOL     OW 1285   1.948   2.971   0.635  0.0222 -0.9922  0.0545
  429SOL    HW1 1286   1.887   2.899   0.595  2.1923  1.6342  0.7763
  429SOL    HW2 1287   2.045   2.950   0.600  0.7667  1.4994 -1.6571
  430SOL     OW 1288   0.956   1.498   2.731  0.2253  0.0105  0.1564
  430SOL    HW1 1289   1.004   1.587   2.755  0.3384 -1.1745  0.3733
  430SOL    HW2 1290   0.967   1.476   2.633 -2.9019  2.8381  3.3268
  431SOL     OW 1291   0.183   1.849   1.378 -0.1321  0.0248 -0.2271
  431SOL    HW1 1292   0.189   1.760   1.425 -0.4927  0.1436  0.8493
  431SOL    HW2 1293   0.118   1.907   1.422  0.6094  0.5254 -0.2117
  432SOL     OW 1294   1.530   2.467   2.671  0.1800 -0.4899  0.5331
  432SOL    HW1 1295   1.593   2.502   2.597  2.1231  0.5377 -1.5533
  432SOL    HW2 1296   1.527   2.366   2.679 -0.0895 -0.6583  1.8627
  433SOL     OW 1297   1.137   0.403   2.361 -0.2637 -0.5747  0.0124
  433SOL    HW1 1298   1.073   0.419   2.281 -0.2237  0.8570  0.7784
  433SOL    HW2 1299   1.187   0.493   2.386  0.2871 -0.0093  1.2020
  434SOL     OW 1300   0.711   2.657   2.044 -0.3742  0.8950  0.1613
  434SOL    HW1 1301   0.723   2.622   1.949 -2.6370 -0.1656  2.5727
  434SOL    HW2 1302   0.732   2.590   2.115 -3.1703  0.5865 -3.0088
  435SOL     OW 1303   0.368   0.132   0.046 -0.7707  0.4394  0.0648
  435SOL    HW1 1304   0.339   0.131   0.146  1.8573  0.9464 -0.1081
  435SOL    HW2 1305   0.368   0.229   0.013  0.3978 -0.1740 -0.9139
  436SOL     OW 1306   0.509   1.399   2.320 -0.1705  0.0627 -0.1086
  436SOL    HW1 1307   0.421   1.353   2.306 -0.9196  2.2485  0.5031
  436SOL    HW2 1308   0.549   1.377   2.412  1.2180 -2.4487  2.1734
  437SOL     OW 1309   1.153   2.349   2.418 -0.0890 -0.8263 -0.4105
  437SOL    HW1 1310   1.169   2.380   2.321 -1.3969 -0.1849 -0.5930
  437SOL    HW2 1311   1.059   2.315   2.432  2.5324  1.2267  0.8947
  438SOL     OW 1312   0.846   0.988   0.599  0.1612 -0.1640 -0.3216
  438SOL    HW1 1313   0.855   0.971   0.701 -1.0683 -1.1934  0.4920
  438SOL    HW2 1314   0.914   0.929   0.557  0.0824  1.6278 -1.0935
  439SOL     OW 1315   2.833   1.252   2.340 -0.0579  0.3374 -0.1105
  439SOL    HW1 1316   2.801   1.160   2.311  3.2374  2.2417 -1.2399
  439SOL    HW2 1317   2.877   1.305   2.269  2.0275 -0.6801 -1.0397
  440SOL     OW 1318   2.824   0.435   2.889 -0.0931 -0.2350  0.2211
  440SOL    HW1 1319   2.909   0.424   2.839 -2.0937  2.6131 -0.6358
  440SOL    HW2 1320   2.752   0.475   2.826  0.1338 -0.5023 -2.0105
  441SOL     OW 1321   0.699   1.800   1.495  0.2831 -0.4758  0.3401
  441SOL    HW1 1322   0.740   1.893   1.479  0.6906 -1.4628  1.1421
  441SOL    HW2 1323   0.729   1.760   1.580 -1.7114  0.2161 -0.6927
  442SOL     OW 1324   1.931   1.296   0.841  0.0994  0.3379  0.4067
  442SOL    HW1 1325   1.961   1.252   0.753  0.1375  1.7666 -0.3216
  442SOL    HW2 1326   1.878   1.380   0.826 -1.2883  1.0019 -1.7411
  443SOL     OW 1327   2.502   1.997   2.995 -0.0463 -0.0369 -0.3147
  443SOL    HW1 1328   2.440   2.057   2.940 -0.3049  1.6435  2.4487
  443SOL    HW2 1329   2.503   2.035   0.017  1.6645  2.4171  0.2637
  444SOL     OW 1330   1.807   1.368   2.801  0.5910 -0.5141  0.2308
  444SOL    HW1 1331   1.863   1.304   2.746 -0.8588 -0.7225 -1.3367
  444SOL    HW2 1332   1.827   1.471   2.796 -0.1781  1.4588  1.0167
  445SOL     OW 1333   0.405   2.406   2.160 -0.4773  0.1499  1.0680
  445SOL    HW1 1334   0.462   2.483   2.196 -0.0274 -0.0296 -0.4147
  445SOL    HW2 1335   0.305   2.426   2.140 -0.5843 -2.7617  0.0767
  446SOL     OW 1336   0.868   0.820   1.675  0.2605 -0.5582 -0.0725
  446SOL    HW1 1337   0.786   0.773   1.723  0.3087 -0.2412  1.8072
  446SOL    HW2 1338   0.893   0.771   1.588 -0.3151 -3.0670 -2.6860
  447SOL     OW 1339   1.062   0.840   0.503 -0.1008 -0.5619  0.2619
  447SOL    HW1 1340   1.102   0.936   0.494 -0.9312 -0.4833  2.1655
  447SOL    HW2 1341   1.108   0.781   0.568  0.8766  1.6686 -5.0987
  448SOL     OW 1342   1.357   1.295   2.040  0.1855 -0.2458  0.7212
  448SOL    HW1 1343   1.260   1.321   2.066 -0.7313  0.0535  1.8687
  448SOL    HW2 1344   1.369   1.193   2.037 -1.1243  1.1114  1.0561
  449SOL     OW 1345   0.299   1.645   2.375  0.6714 -0.0400 -0.1062
  449SOL    HW1 1346   0.297   1.602   2.285 -0.5615  0.1663  0.8956
  449SOL    HW2 1347   0.384   1.634   2.430 -4.4916  1.7685  1.7902
  450SOL     OW 1348   2.183   1.412   2.175  0.1557 -0.3051  0.5144
  450SOL    HW1 1349   2.235   1.446   2.092  0.3381 -3.8500 -0.5193
  450SOL    HW2 1350   2.207   1.472   2.261  1.3093  1.1731  3.0528
  451SOL     OW 1351   2.486   1.263   1.317 -0.0531  0.6560 -0.5452
  451SOL    HW1 1352   2.506   1.360   1.301  2.0235 -4.1417  1.1132
  451SOL    HW2 1353   2.575   1.210   1.328  0.1711 -0.1168 -0.2038
  452SOL     OW 1354   0.711   1.130   1.509  0.1437  0.4486 -0.6723
  452SOL    HW1 1355   0.731   1.091   1.603  2.3926 -1.0888  1.0833
  452SOL    HW2 1356   0.790   1.177   1.472 -1.3081 -3.1534 -1.8293
  453SOL     OW 1357   0.440   1.875   1.021  0.4955  0.0178 -0.4136
  453SOL    HW1 1358   0.343   1.913   1.045 -1.6874  1.8346  2.1795
  453SOL    HW2 1359   0.465   1.914   0.929 -1.1378  0.6119 -1.1798
  454SOL     OW 1360   1.301   1.313   0.254  0.7159 -0.3050  0.4548
  454SOL    HW1 1361   1.374   1.253   0.213 -0.9718 -2.7084  0.5389
  454SOL    HW2 1362   1.317   1.348   0.350 -0.6045 -0.6322  1.7089
  455SOL     OW 1363   1.737   0.481   0.968 -0.1123 -0.1146 -0.2723
  455SOL    HW1 1364   1.810   0.415   0.950  0.5546 -0.4570 -2.4693
  455SOL    HW2 1365   1.778   0.579   0.967  0.2834  0.7343  0.6733
  456SOL     OW 1366   1.749   2.810   0.537  0.6265 -0.1298  0.3046
  456SOL    HW1 1367   1.712   2.718   0.530 -0.9228  0.3050  3.4774
  456SOL    HW2 1368   1.672   2.878   0.546 -1.0399 -2.9064 -0.3533
  457SOL     OW 1369   1.997   0.951   2.287  0.0230  0.2357 -0.4226
  457SOL    HW1 1370   1.988   0.927   2.186  0.6635 -2.9281 -3.1257
  457SOL    HW2 1371   2.021   1.046   2.292 -2.2991 -1.2172 -0.4302
  458SOL     OW 1372   2.717   0.552   2.327  0.6789 -0.1126  0.5041
  458SOL    HW1 1373   2.752   0.551   2.233 -2.2899 -0.5288  2.5111
  458SOL    HW2 1374   2.621   0.513   2.341 -2.3076 -0.2617  1.7432
  459SOL     OW 1375   2.596   1.415   2.382 -0.0803 -0.3102  0.4392
  459SOL    HW1 1376   2.610   1.495   2.320 -1.3769 -0.4111  1.6330
  459SOL    HW2 1377   2.681   1.362   2.401 -1.5715 -0.6202  3.0504
  460SOL     OW 1378   0.857   0.916   2.693 -0.2330 -0.8033  0.2110
  460SOL    HW1 1379   0.850   1.015   2.725  0.5474  3.9746  1.3563
  460SOL    HW2 1380   0.789   0.913   2.618  3.2129 -0.7836  0.7751
  461SOL     OW 1381   0.310   2.266   0.222 -0.7196 -0.0615  0.6899
  461SOL    HW1 1382   0.375   2.341   0.260  2.0485  3.9552  0.6767
  461SOL    HW2 1383   0.243   2.305   0.156 -1.3068 -2.7650 -0.1214
  462SOL     OW 1384   1.306   0.030   2.186 -0.2518 -0.1805  0.3920
  462SOL    HW1 1385   1.370   3.033   2.213  0.1684  1.9221  2.2186
  462SOL    HW2 1386   1.216   3.075   2.144 -1.4577  1.9032  0.0559
  463SOL     OW 1387   1.991   2.334   2.087  0.1287 -0.0509 -0.2982
  463SOL    HW1 1388   1.920   2.258   2.078 -2.5722 -0.0837 -0.8068
  463SOL    HW2 1389   2.080   2.305   2.127  0.3291  0.8397 -1.9273
  464SOL     OW 1390   2.360   2.602   0.679 -0.0034  0.2686  0.6859
  464SOL    HW1 1391   2.279   2.553   0.714 -1.0875  2.0779  0.1780
  464SOL    HW2 1392   2.434   2.605   0.749 -0.1917  0.9841  1.0099
  465SOL     OW 1393   2.999   0.127   1.444 -0.5079  0.4200 -0.7373
  465SOL    HW1 1394   2.982   0.084   1.351  0.2402  2.0681 -1.4881
  465SOL    HW2 1395   3.029   0.221   1.431 -2.1359 -0.0137  0.9153
  466SOL     OW 1396   1.365   2.636   2.340 -0.0891 -0.4073 -0.1602
  466SOL    HW1 1397   1.322   2.621   2.433  0.1276 -0.4021 -0.1353
  466SOL    HW2 1398   1.287   2.648   2.276 -1.3839  4.5616  0.2876
  467SOL     OW 1399   3.014   2.260   0.280 -0.1907  0.2131  0.3919
  467SOL    HW1 1400   3.039   2.163   0.251  0.5077  2.2607 -3.2516
  467SOL    HW2 1401   2.912   2.273   0.271  1.4595  0.3523  0.9119
  468SOL     OW 1402   2.103   1.996   2.882 -0.4802  0.2876  0.5276
  468SOL    HW1 1403   2.124   1.959   2.974  1.0224 -1.1337  2.0969
  468SOL    HW2 1404   2.160   2.076   2.850  0.2424  2.3940 -0.6063
  469SOL     OW 1405   0.852   1.950   0.617  0.0628 -0.1472 -0.3375
  469SOL    HW1 1406   0.886   1.987   0.709 -0.4134  0.6884  1.7060
  469SOL    HW2 1407   0.851   1.851   0.619 -2.1591  1.0227 -0.2025
  470SOL     OW 1408   1.941   0.655   0.937 -0.2392  0.2133  0.0081
  470SOL    HW1 1409   2.015   0.585   0.952  1.2579  0.8005  1.3024
  470SOL    HW2 1410   1.960   0.735   0.999  1.9851  2.6101  1.7163
  471SOL     OW 1411   0.310   1.793   0.422  0.1142  0.3172  0.0479
  471SOL    HW1 1412   0.367   1.789   0.337  1.0695  1.4007  0.0668
  471SOL    HW2 1413   0.264   1.879   0.429 -0.4691 -3.4311 -0.9952
  472SOL     OW 1414   2.777   1.880   2.671 -0.2645  0.5138 -0.3891
  472SOL    HW1 1415   2.840   1.826   2.607  1.5928  0.2917 -0.9746
  472SOL    HW2 1416   2.715   1.948   2.621  0.5177  1.6251  0.5359
  473SOL     OW 1417   1.460   1.867   0.718 -0.3123 -0.3144  0.1006
  473SOL    HW1 1418   1.384   1.937   0.698 -1.5573 -0.7310  0.3647
  473SOL    HW2 1419   1.521   1.894   0.794 -1.7834  1.3716  0.8660
  474SOL     OW 1420   2.738   0.434   1.006 -0.0393 -0.3888  0.1317
  474SOL    HW1 1421   2.639   0.444   0.980  1.7660 -2.9071  1.2524
  474SOL    HW2 1422   2.792   0.426   0.917  0.1684  0.9412 -2.3043
  475SOL     OW 1423   2.668   2.856   1.797  0.4181  0.0367 -0.1225
  475SOL    HW1 1424   2.699   2.766   1.756  2.9722 -2.8198  1.3521
  475SOL    HW2 1425   2.661   2.929   1.729  0.4105  0.6899 -0.8817
  476SOL     OW 1426   0.618   0.263   0.948  0.2662  0.2691  0.4388
  476SOL    HW1 1427   0.709   0.263   0.896  1.1934  0.2540  1.4778
  476SOL    HW2 1428   0.546   0.313   0.906  0.3357  0.8603  1.9509
  477SOL     OW 1429   1.225   2.378   1.242  0.2550  0.5230  0.9554
  477SOL    HW1 1430   1.301   2.339   1.297  0.3516  0.4810 -0.0449
  477SOL    HW2 1431   1.242   2.479   1.237  0.1045 -1.8523  0.2469
  478SOL     OW 1432   1.305   2.572   2.804 -0.4524 -0.1880 -0.2379
  478SOL    HW1 1433   1.257   2.616   2.724  2.9299 -2.1474  0.1251
  478SOL    HW2 1434   1.397   2.552   2.773 -1.8067 -0.1287  1.8928
  479SOL     OW 1435   2.335   0.988   2.035  0.1035  0.8481 -0.3174
  479SOL    HW1 1436   2.422   1.015   2.082  1.1936  1.8440 -1.0713
  479SOL    HW2 1437   2.329   0.889   2.023 -0.8418  0.3830 -1.8031
  480SOL     OW 1438   2.741   2.068   2.867  0.3876 -0.1513  0.2405
  480SOL    HW1 1439   2.766   1.996   2.798  0.1898 -0.0255 -2.0229
  480SOL    HW2 1440   2.653   2.044   2.915 -1.9062  1.6596 -0.1313
  481SOL     OW 1441   1.764   2.962   1.631 -0.3224  0.6066  0.3102
  481SOL    HW1 1442   1.800   2.896   1.702  1.0185 -1.4255  0.3271
  481SOL    HW2 1443   1.662   2.942   1.625 -4.5048 -0.9357  0.4253
  482SOL     OW 1444   1.576   2.452   2.262  0.1954  0.0272  0.2185
  482SOL    HW1 1445   1.578   2.434   2.162  1.6743 -1.4631  0.2838
  482SOL    HW2 1446   1.503   2.521   2.280  0.3817 -0.3592  0.6974
  483SOL     OW 1447   1.205   2.696   2.576 -0.2720  0.8583  0.2246
  483SOL    HW1 1448   1.124   2.635   2.586 -0.7731 -1.2975  0.5563
  483SOL    HW2 1449   1.179   2.788   2.552  1.3270  0.0926 -0.2303
  484SOL     OW 1450   2.592   3.055   1.629 -0.1340 -0.5527 -0.8907
  484SOL    HW1 1451   2.499   3.014   1.650 -0.9276  0.6261  1.0110
  484SOL    HW2 1452   2.633   3.034   1.539  0.6128 -0.9510 -0.1353
  485SOL     OW 1453   1.980   0.377   0.664  0.7891 -0.3664  0.3253
  485SOL    HW1 1454   1.944   0.444   0.596  0.4242 -1.3942  0.5648
  485SOL    HW2 1455   2.028   0.426   0.743  0.2223  1.5580  1.4742
  486SOL     OW 1456   2.514   2.489   2.485 -0.1804  0.5689 -0.7679
  486SOL    HW1 1457   2.440   2.560   2.471 -0.3537 -2.0962  1.7068
  486SOL    HW2 1458   2.565   2.454   2.403  0.3808  1.4080  3.2892
  487SOL     OW 1459   1.411   0.713   0.673  0.1594  0.0332 -0.4203
  487SOL    HW1 1460   1.312   0.679   0.679 -0.8276  1.1427 -3.2329
  487SOL    HW2 1461   1.481   0.636   0.691 -1.4110  0.6055 -0.5396
  488SOL     OW 1462   2.580   2.874   2.449 -0.1240  0.6717 -0.0466
  488SOL    HW1 1463   2.587   2.803   2.378 -0.9189 -0.5023  0.0747
  488SOL    HW2 1464   2.497   2.860   2.508  0.9844 -1.7100  1.8613
  489SOL     OW 1465   1.204   2.610   0.497  0.2670  0.3805 -0.1508
  489SOL    HW1 1466   1.185   2.710   0.523  1.5632 -0.0977 -0.6261
  489SOL    HW2 1467   1.144   2.546   0.554 -1.2706 -0.9454  1.6816
  490SOL     OW 1468   1.557   0.428   2.988  0.1861 -0.4547  1.0186
  490SOL    HW1 1469   1.653   0.460   2.984 -2.7678  2.0747  0.0596
  490SOL    HW2 1470   1.495   0.499   3.023  0.5577 -0.4799 -0.6412
  491SOL     OW 1471   0.822   2.949   1.288  0.1950 -0.1817  0.3330
  491SOL    HW1 1472   0.759   3.031   1.277 -0.5420  0.8705  1.9890
  491SOL    HW2 1473   0.883   2.952   1.370  2.4854  2.7139  2.5654
  492SOL     OW 1474   1.649   2.571   0.515 -0.4037 -0.3774  0.1798
  492SOL    HW1 1475   1.735   2.526   0.486  0.2332 -0.3207 -0.4144
  492SOL    HW2 1476   1.574   2.529   0.456 -2.1238 -2.7346  0.2019
  493SOL     OW 1477   1.035   2.085   3.005  0.7312  0.0121  0.1469
  493SOL    HW1 1478   1.039   2.046   2.912 -3.9604  2.2241  2.2672
  493SOL    HW2 1479   1.044   2.187   3.001 -0.2780 -1.7680 -0.3107
  494SOL     OW 1480   0.983   0.791   0.245  0.0225  0.3988 -0.0122
  494SOL    HW1 1481   1.043   0.729   0.195  1.3071  2.8970 -1.7873
  494SOL    HW2 1482   1.005   0.801   0.345 -1.4574  2.1657 -0.0115
  495SOL     OW 1483   2.668   0.436   1.746  0.3598  0.3897  0.4051
  495SOL    HW1 1484   2.737   0.444   1.677 -2.9279 -3.4221  2.6764
  495SOL    HW2 1485   2.589   0.381   1.711 -1.3035 -2.0518  0.3081
  496SOL     OW 1486   2.307   2.312   2.616 -0.4163 -0.4142  0.4388
  496SOL    HW1 1487   2.400   2.357   2.606 -2.6773 -3.6508 -0.0476
  496SOL    HW2 1488   2.284   2.270   2.529  0.4887  0.8686  2.3956
  497SOL     OW 1489   1.669   1.543   2.548  0.1426 -0.1635  0.4331
  497SOL    HW1 1490   1.768   1.530   2.546  2.7200  1.7789 -0.2680
  497SOL    HW2 1491   1.630   1.484   2.618 -1.9447  3.5374 -0.9063
  498SOL     OW 1492   0.716   2.563   1.090  0.2799  0.3548 -0.0610
  498SOL    HW1 1493   0.622   2.549   1.051 -0.6919 -0.6067 -1.5108
  498SOL    HW2 1494   0.760   2.475   1.115  0.4316 -0.1844  1.9871
  499SOL     OW 1495   0.193   1.952   1.129  0.0479 -0.1664  0.5972
  499SOL    HW1 1496   0.108   1.992   1.112  2.9984 -0.6828  4.6060
  499SOL    HW2 1497   0.208   1.920   1.224  0.5906 -0.2297 -0.7705
  500SOL     OW 1498   0.700   2.798   2.989  0.0383 -0.0916 -0.1056
  500SOL    HW1 1499   0.616   2.749   2.954 -2.4926  0.0428 -1.5677
  500SOL    HW2 1500   0.762   2.829   2.912  0.8699  1.2259  0.4659
  501SOL     OW 1501   1.632   0.013   0.098 -0.3330 -0.2066  0.5957
  501SOL    HW1 1502   1.611   2.995   0.071  0.3577  2.3929  2.8479
  501SOL    HW2 1503   1.573   0.076   0.039 -0.4539  0.7888  0.5154
  502SOL     OW 1504   2.880   0.117   0.769  0.4477 -0.1269 -0.1681
  502SOL    HW1 1505   2.889   0.150   0.669 -2.8356  0.0231 -0.4728
  502SOL    HW2 1506   2.968   0.116   0.819  0.3468  1.3605 -0.0654
  503SOL     OW 1507   2.080   2.973   2.033  0.1218  0.3816  0.5091
  503SOL    HW1 1508   2.117   2.962   2.132  0.2576 -4.0720  2.6601
  503SOL    HW2 1509   1.982   2.997   2.034  0.3144 -0.2364 -0.3593
  504SOL     OW 1510   2.171   1.123   1.838  0.0116 -0.2146  0.2289
  504SOL    HW1 1511   2.122   1.057   1.774 -2.3130  0.0689 -1.4990
  504SOL    HW2 1512   2.229   1.074   1.903  2.7062 -1.1405  1.7361
  505SOL     OW 1513   1.823   3.065   2.045  0.1696 -0.1139 -0.5330
  505SOL    HW1 1514   1.834   0.033   2.135 -2.0461  0.6023 -0.6422
  505SOL    HW2 1515   1.757   0.043   1.995  0.9169  1.3334  1.9398
  506SOL     OW 1516   0.098   0.696   1.966 -0.2643  0.4304  0.3770
  506SOL    HW1 1517   0.086   0.595   1.967  1.5420  0.2144 -0.1069
  506SOL    HW2 1518   0.200   0.713   1.968 -2.9375  0.4755  1.4735
  507SOL     OW 1519   1.699   0.475   0.495 -0.4193  0.0303 -0.2262
  507SOL    HW1 1520   1.731   0.552   0.438  1.2550 -0.7752  4.1338
  507SOL    HW2 1521   1.735   0.384   0.465 -1.5901  1.0860 -0.3749
  508SOL     OW 1522   2.024   0.645   2.002  0.1858  0.0451 -0.1883
  508SOL    HW1 1523   2.073   0.562   2.030 -0.3202 -3.0514  1.1385
  508SOL    HW2 1524   1.983   0.623   1.912  2.1958  1.4032 -0.9316
  509SOL     OW 1525   0.663   1.896   2.890  0.4772 -0.1395 -0.3125
  509SOL    HW1 1526   0.639   1.990   2.918  1.8480 -1.0000 -1.3305
  509SOL    HW2 1527   0.715   1.843   2.963  0.4200  0.2080 -0.4017
  510SOL     OW 1528   0.508   0.998   0.755  0.4470  0.5449 -0.1708
  510SOL    HW1 1529   0.569   1.021   0.835 -1.6396 -2.4215 -2.5838
  510SOL    HW2 1530   0.468   1.080   0.707 -1.2858  0.0312  1.7864
  511SOL     OW 1531   1.429   1.321   1.426 -0.1908 -0.6857  0.3946
  511SOL    HW1 1532   1.493   1.261   1.377  0.0837 -0.6491  1.6005
  511SOL    HW2 1533   1.460   1.421   1.415  1.3330  2.7197 -2.5330
  512SOL     OW 1534   0.524   1.941   0.770  0.4483 -0.5048  0.1023
  512SOL    HW1 1535   0.573   1.880   0.705  0.4482  2.1148 -2.4538
  512SOL    HW2 1536   0.582   2.019   0.800 -1.6531 -0.0870  1.3718
  513SOL     OW 1537   0.253   2.626   0.730  0.5564  0.0259  0.3301
  513SOL    HW1 1538   0.282   2.639   0.633  2.1728 -0.4028 -1.5254
  513SOL    HW2 1539   0.336   2.590   0.781  1.8985 -1.2004 -0.8319
  514SOL     OW 1540   0.670   2.116   0.502 -0.5641 -0.0354 -0.2453
  514SOL    HW1 1541   0.618   2.065   0.429 -2.4047 -2.6334 -1.6598
  514SOL    HW2 1542   0.750   2.056   0.532  2.3221 -1.7369 -0.8233
  515SOL     OW 1543   0.005   0.291   3.015  0.2157 -0.1617 -0.4712
  515SOL    HW1 1544   3.029   0.373   3.034  0.2145 -5.3955  2.4028
  515SOL    HW2 1545   0.107   0.307   3.024  2.9918 -0.7906 -1.7406
  516SOL     OW 1546   2.355   3.025   1.376  0.0633 -0.0660  0.4254
  516SOL    HW1 1547   2.253   3.014   1.363 -0.3333 -1.2441 -1.8004
  516SOL    HW2 1548   2.391   0.029   1.320  0.4590  1.6164 -0.0494
  517SOL     OW 1549   1.797   1.522   0.774 -0.0070 -0.8536  0.2581
  517SOL    HW1 1550   1.747   1.594   0.714  0.6497  4.2680 -3.4564
  517SOL    HW2 1551   1.885   1.558   0.811  0.8177 -3.5308 -0.4328
  518SOL     OW 1552   1.735   2.718   0.984  0.0766 -0.2399 -0.4553
  518SOL    HW1 1553   1.819   2.735   1.045  1.4473  0.3327  3.4935
  518SOL    HW2 1554   1.745   2.630   0.934  1.1778 -0.4392  0.2627
  519SOL     OW 1555   2.840   2.588   0.175  0.0231  0.8369 -0.4270
  519SOL    HW1 1556   2.831   2.670   0.237 -1.2590 -0.0555 -0.3377
  519SOL    HW2 1557   2.919   2.598   0.117 -3.1865 -2.5641 -1.3786
  520SOL     OW 1558   2.107   1.788   2.246 -0.1699  0.2044 -0.2508
  520SOL    HW1 1559   2.102   1.833   2.337 -0.6840  0.6895  0.1728
  520SOL    HW2 1560   2.025   1.810   2.191  3.8565 -1.1930  0.9056
  521SOL     OW 1561   1.428   3.050   1.843  0.0450  0.7816 -0.7899
  521SOL    HW1 1562   1.436   3.018   1.747  0.9094 -0.5430 -0.4358
  521SOL    HW2 1563   1.330   0.007   1.854 -3.6428 -1.7326  0.3432
  522SOL     OW 1564   0.364   2.489   1.873  0.7160  0.6423  0.3016
  522SOL    HW1 1565   0.275   2.476   1.822  0.8529 -1.8641 -1.3629
  522SOL    HW2 1566   0.363   2.438   1.958 -1.1853 -0.7031  0.5714
  523SOL     OW 1567   0.905   2.362   1.854  0.2912  0.0084  0.2322
  523SOL    HW1 1568   0.839   2.425   1.811  0.6072 -0.4733 -1.7635
  523SOL    HW2 1569   0.886   2.338   1.949 -1.5770  1.3370 -2.5063
  524SOL     OW 1570   2.092   2.185   0.373 -0.0434  0.0159  0.3750
  524SOL    HW1 1571   2.039   2.145   0.294 -2.1601 -0.5036 -1.8341
  524SOL    HW2 1572   2.029   2.210   0.451 -2.7700 -1.4705 -0.9120
  525SOL     OW 1573   2.660   0.586   2.672  0.3790  0.4455  0.7688
  525SOL    HW1 1574   2.725   0.627   2.605 -0.3512  2.7539 -0.9097
  525SOL    HW2 1575   2.586   0.655   2.694 -2.1639 -1.5859  0.1202
  526SOL     OW 1576   0.372   2.703   0.506 -0.0805 -0.1865 -0.3862
  526SOL    HW1 1577   0.473   2.696   0.498 -1.6907  2.1290 -0.6897
  526SOL    HW2 1578   0.323   2.696   0.415 -3.1982 -0.9855 -0.1632
  527SOL     OW 1579   0.055   0.977   0.873 -0.1640  0.1839  0.2957
  527SOL    HW1 1580   0.102   0.911   0.812  3.4394 -0.1311  1.4007
  527SOL    HW2 1581   3.042   0.939   0.904 -0.5827 -0.9419  0.4468
  528SOL     OW 1582   0.881   1.196   2.471 -0.5295  0.0904  0.2540
  528SOL    HW1 1583   0.793   1.163   2.505  0.3706 -0.5788  0.1642
  528SOL    HW2 1584   0.956   1.199   2.544  2.4930  1.7269  2.0564
  529SOL     OW 1585   0.892   1.292   0.283  0.5382 -0.5714  0.0150
  529SOL    HW1 1586   0.897   1.190   0.281 -0.7671  0.8247  5.2408
  529SOL    HW2 1587   0.851   1.322   0.194  2.1946  0.2021  2.9813
  530SOL     OW 1588   1.137   0.869   1.738 -0.0301 -0.2658  0.7399
  530SOL    HW1 1589   1.038   0.876   1.723  1.9523  0.6629  1.1836
  530SOL    HW2 1590   1.171   0.781   1.713  2.2368  0.9244  1.2007
  531SOL     OW 1591   1.074   2.324   0.157  0.4515  0.2119  0.3982
  531SOL    HW1 1592   1.157   2.349   0.105  2.7624  2.5456 -0.8248
  531SOL    HW2 1593   1.098   2.302   0.251 -1.0955  3.4460  0.1886
  532SOL     OW 1594   2.484   0.815   2.299 -0.4747 -0.1651  0.0598
  532SOL    HW1 1595   2.549   0.811   2.216 -2.6051  0.3132  0.8025
  532SOL    HW2 1596   2.537   0.765   2.370 -0.8355  0.7826 -0.2690
  533SOL     OW 1597   3.054   0.167   2.071 -0.1360 -0.2698  0.4842
  533SOL    HW1 1598   0.055   0.209   2.121  0.5019 -0.1400 -2.3824
  533SOL    HW2 1599   2.992   0.125   2.139  1.3794  2.3339 -0.9797
  534SOL     OW 1600   2.288   0.182   0.116  0.2796 -0.0795  0.3065
  534SOL    HW1 1601   2.296   0.253   0.045  0.3127 -0.7271 -1.0111
  534SOL    HW2 1602   2.299   0.088   0.077  0.5220 -3.5368 -0.3028
  535SOL     OW 1603   0.685   0.429   0.049 -0.2811 -0.5813  0.7187
  535SOL    HW1 1604   0.661   0.519   0.088 -1.2587  1.1743  0.0813
  535SOL    HW2 1605   0.631   0.418   3.035 -0.9031 -1.3235 -2.2252
  536SOL     OW 1606   1.189   2.062   1.175 -0.7510 -0.5499 -0.1108
  536SOL    HW1 1607   1.128   2.006   1.235  4.6082 -0.9195  0.3871
  536SOL    HW2 1608   1.135   2.140   1.131 -3.0791  0.0098 -0.4768
  537SOL     OW 1609   2.862   2.346   1.726 -0.2808 -0.1684  0.4144
  537SOL    HW1 1610   2.840   2.440   1.704 -1.3473  1.5169 -0.1930
  537SOL    HW2 1611   2.789   2.283   1.688 -0.2926 -1.6915  2.3442
  538SOL     OW 1612   0.548   2.362   0.521 -0.7029 -0.6981  0.4627
  538SOL    HW1 1613   0.587   2.273   0.503 -1.9363  2.9440  0.3109
  538SOL    HW2 1614   0.580   2.400   0.610 -1.6573  0.6623  1.1543
  539SOL     OW 1615   2.021   1.233   2.350  0.5781  0.1263  0.2272
  539SOL    HW1 1616   1.922   1.229   2.354 -0.9742 -0.7408 -0.5022
  539SOL    HW2 1617   2.058   1.301   2.279 -0.5015  2.2658  0.3100
  540SOL     OW 1618   1.818   0.755   2.842 -0.2397 -0.3033  0.0692
  540SOL    HW1 1619   1.811   0.660   2.874 -0.3829 -0.7281  0.1231
  540SOL    HW2 1620   1.906   0.775   2.791  0.6869  0.2735  0.1933
  541SOL     OW 1621   0.621   0.940   2.537  0.1318 -0.2095  0.2532
  541SOL    HW1 1622   0.564   0.862   2.571 -1.4818 -1.0541 -1.5239
  541SOL    HW2 1623   0.650   0.927   2.438 -0.9854  0.9143 -0.5713
  542SOL     OW 1624   1.423   2.588   1.834 -0.5779  0.1435  0.2134
  542SOL    HW1 1625   1.326   2.568   1.845  0.0530 -1.0111 -0.6695
  542SOL    HW2 1626   1.453   2.593   1.734 -1.5474 -0.3922 -0.4276
  543SOL     OW 1627   0.522   2.871   0.106  0.2967 -0.4670 -0.2076
  543SOL    HW1 1628   0.580   2.852   0.027 -2.9186  0.8112  0.9085
  543SOL    HW2 1629   0.431   2.904   0.075  0.2094 -2.1902  1.0534
  544SOL     OW 1630   2.867   2.167   2.179  0.4154  0.2961  0.4073
  544SOL    HW1 1631   2.832   2.259   2.143 -2.0291 -2.4134 -0.4271
  544SOL    HW2 1632   2.963   2.172   2.199 -0.0517  0.3318  4.5779
  545SOL     OW 1633   1.486   1.816   1.671 -0.3791  0.2307 -0.0528
  545SOL    HW1 1634   1.529   1.909   1.677 -1.6399  0.7052  2.4337
  545SOL    HW2 1635   1.463   1.779   1.765 -0.7083 -0.1562  1.4373
  546SOL     OW 1636   3.060   0.394   2.710 -0.1909  0.8155 -0.1047
  546SOL    HW1 1637   2.978   0.397   2.649 -1.6997  0.4317 -1.2923
  546SOL    HW2 1638   0.018   0.300   2.715  2.4356 -1.0005 -0.1268
  547SOL     OW 1639   1.478   2.934   0.955 -0.0360  0.3919 -0.2336
  547SOL    HW1 1640   1.459   2.933   1.054  0.3309 -2.0487  0.1840
  547SOL    HW2 1641   1.553   2.874   0.931 -1.1118 -0.1304  2.5071
  548SOL     OW 1642   1.264   1.973   0.027 -0.3757  0.0554  0.5310
  548SOL    HW1 1643   1.279   1.981   0.129 -2.4118 -0.2501 -0.9204
  548SOL    HW2 1644   1.172   2.004   3.069  0.3958  0.2664 -2.2739
  549SOL     OW 1645   2.055   0.439   0.006  0.0078 -0.2256 -0.6233
  549SOL    HW1 1646   2.046   0.439   0.110  1.7664 -4.4163  0.6315
  549SOL    HW2 1647   2.092   0.522   3.046 -1.2210 -1.1125  1.1963
  550SOL     OW 1648   2.675   1.875   0.954 -0.1674  0.3186  0.0179
  550SOL    HW1 1649   2.686   1.952   0.882  3.0812  2.1609 -1.3567
  550SOL    HW2 1650   2.680   1.788   0.903  0.8246  2.6755 -0.1250
  551SOL     OW 1651   1.136   0.100   1.080 -0.1691 -0.0241  0.0419
  551SOL    HW1 1652   1.047   0.142   1.116 -1.5000 -2.3414 -0.1202
  551SOL    HW2 1653   1.133   0.078   0.980 -1.2882 -1.5000 -1.1590
  552SOL     OW 1654   3.056   1.846   2.602 -0.0635 -0.2924  0.0626
  552SOL    HW1 1655   0.084   1.842   2.580  1.1527 -0.5727  0.3059
  552SOL    HW2 1656   3.036   1.822   2.699  1.3283 -0.6976 -1.7917
  553SOL     OW 1657   2.546   2.599   0.302 -0.0972  0.7941 -0.1997
  553SOL    HW1 1658   2.578   2.685   0.256 -2.3925  2.1735  0.5761
  553SOL    HW2 1659   2.536   2.538   0.221 -4.0462  1.6017  0.4972
  554SOL     OW 1660   2.108   1.109   1.481  0.2686 -0.3021 -0.4732
  554SOL    HW1 1661   2.021   1.154   1.449 -0.1717  1.7582 -2.7719
  554SOL    HW2 1662   2.082   1.027   1.542  1.8135  0.6273  0.9397
  555SOL     OW 1663   0.661   2.398   2.517 -0.5801 -0.4738 -0.0809
  555SOL    HW1 1664   0.575   2.364   2.559  0.1368  0.5395 -0.1518
  555SOL    HW2 1665   0.668   2.379   2.421  0.5896 -1.2141  3.0482
  556SOL     OW 1666   1.175   1.386   1.526  0.3541  0.0676  0.0844
  556SOL    HW1 1667   1.272   1.385   1.492 -0.2383 -1.8456 -3.6416
  556SOL    HW2 1668   1.108   1.373   1.449  0.6496  0.2847 -2.0880
  557SOL     OW 1669   1.402   2.929   1.220  0.1154 -0.0605 -0.4198
  557SOL    HW1 1670   1.437   3.008   1.271 -1.9070 -1.6814 -0.9648
  557SOL    HW2 1671   1.299   2.924   1.226 -0.4723  1.2382 -0.8445
  558SOL     OW 1672   0.347   0.628   2.342 -0.1892 -0.2561  0.4725
  558SOL    HW1 1673   0.356   0.599   2.242  0.6945 -1.9487 -1.3074
  558SOL    HW2 1674   0.267   0.578   2.381 -0.0566  2.3893 -0.5447
  559SOL     OW 1675   1.096   2.649   0.242  0.9449 -0.3344  0.1635
  559SOL    HW1 1676   1.029   2.668   0.319 -2.5160  0.4788  3.0831
  559SOL    HW2 1677   1.179   2.622   0.288 -1.4349  1.3024  1.1330
  560SOL     OW 1678   1.595   1.874   0.319 -0.0713  0.0987  0.2407
  560SOL    HW1 1679   1.603   1.775   0.339  0.2594 -2.5898  3.5494
  560SOL    HW2 1680   1.629   1.897   0.220 -0.2455  3.5966 -3.2747
  561SOL     OW 1681   1.161   2.858   0.592 -0.2088  0.7379 -0.0142
  561SOL    HW1 1682   1.134   2.936   0.532  1.5818 -0.1803 -2.1917
  561SOL    HW2 1683   1.203   2.884   0.684 -0.6412 -2.3489  0.7767
  562SOL     OW 1684   0.416   0.865   2.195  0.6187 -0.2176 -0.1813
  562SOL    HW1 1685   0.509   0.904   2.201 -1.4862  1.5028 -1.0472
  562SOL    HW2 1686   0.404   0.779   2.243 -0.1579 -1.6313  1.2154
  563SOL     OW 1687   1.233   2.049   2.244  0.0364  0.2283 -0.4763
  563SOL    HW1 1688   1.249   2.109   2.165 -1.0609 -2.2435 -1.5193
  563SOL    HW2 1689   1.315   2.000   2.268 -0.4189  3.9543  2.1366
  564SOL     OW 1690   2.457   0.693   1.256 -0.0989 -0.2653  0.0592
  564SOL    HW1 1691   2.380   0.693   1.184 -2.8033  1.3631 -1.1115
  564SOL    HW2 1692   2.452   0.769   1.321 -0.6075 -1.6998 -1.8434
  565SOL     OW 1693   1.399   0.960   0.289  0.2604  0.0509 -0.1577
  565SOL    HW1 1694   1.407   0.958   0.188  0.1443 -0.4987  1.1611
  565SOL    HW2 1695   1.493   0.984   0.323  2.6279 -2.7275  0.8728
  566SOL     OW 1696   2.391   2.566   2.949  0.4546 -0.1301  0.0504
  566SOL    HW1 1697   2.476   2.559   3.011  1.9620  0.0221  4.5197
  566SOL    HW2 1698   2.333   2.485   2.959  2.2892 -0.6703  1.0040
  567SOL     OW 1699   1.511   1.129   1.045 -0.0055  0.1720  0.3314
  567SOL    HW1 1700   1.599   1.139   0.996  1.2802 -1.7694  1.5668
  567SOL    HW2 1701   1.469   1.038   1.024 -0.5070  2.5845  1.4878
  568SOL     OW 1702   1.237   1.390   2.797  0.5509  0.1444 -0.6069
  568SOL    HW1 1703   1.178   1.321   2.838 -0.2316 -0.3867 -1.4103
  568SOL    HW2 1704   1.188   1.486   2.804 -1.2778  0.9333 -1.6860
  569SOL     OW 1705   2.061   1.588   0.871  0.5308  0.1553  0.1462
  569SOL    HW1 1706   2.149   1.586   0.823 -0.4963 -1.0027 -0.4856
  569SOL    HW2 1707   2.071   1.574   0.971 -1.8089  1.5607 -0.6909
  570SOL     OW 1708   2.681   2.392   2.297 -0.4313  0.1231  0.6412
  570SOL    HW1 1709   2.743   2.437   2.224 -1.0570 -0.0907 -2.4803
  570SOL    HW2 1710   2.743   2.353   2.369 -0.0273 -1.7033 -0.4901
  571SOL     OW 1711   2.795   1.813   1.772  0.0599 -0.4522  0.0025
  571SOL    HW1 1712   2.814   1.870   1.861 -1.4406 -0.9716  2.0558
  571SOL    HW2 1713   2.741   1.878   1.707 -1.2979  2.1760 -1.6396
  572SOL     OW 1714   1.220   2.208   2.650 -0.1540  0.1947 -0.0792
  572SOL    HW1 1715   1.219   2.277   2.574  0.2013 -2.9132  1.6014
  572SOL    HW2 1716   1.315   2.195   2.675  0.6357 -0.3480 -1.3169
  573SOL     OW 1717   1.659   2.143   1.388 -0.2696 -0.3546  0.0393
  573SOL    HW1 1718   1.600   2.058   1.375 -0.6977 -0.0972  0.5745
  573SOL    HW2 1719   1.726   2.133   1.467 -0.8597 -3.8285  3.2497
  574SOL     OW 1720   1.037   2.705   1.367  0.4976  0.0665 -0.4187
  574SOL    HW1 1721   0.953   2.708   1.428 -1.3337 -1.2194  1.9652
  574SOL    HW2 1722   1.048   2.789   1.307  0.3602  0.2009 -2.7290
  575SOL     OW 1723   0.943   0.378   0.957 -0.1505 -0.1801  0.3469
  575SOL    HW1 1724   1.033   0.385   0.915 -0.8691 -1.2032 -2.2694
  575SOL    HW2 1725   0.948   0.332   1.049 -0.3878  1.9419  4.4569
  576SOL     OW 1726   2.415   0.426   1.356 -0.1713 -0.0748  0.1598
  576SOL    HW1 1727   2.449   0.517   1.348  0.8016 -1.5905  1.1033
  576SOL    HW2 1728   2.434   0.380   1.443 -2.1463 -1.1217 -2.1956
  577SOL     OW 1729   2.073   0.147   3.021  0.3944  0.2660  0.0246
  577SOL    HW1 1730   2.059   0.240   3.066  2.2122  0.1544 -0.2307
  577SOL    HW2 1731   2.118   0.158   2.932 -0.5746 -0.5160  0.4852
  578SOL     OW 1732   1.909   1.883   2.044  0.3337  0.4390 -0.2308
  578SOL    HW1 1733   1.848   1.800   2.028 -3.4147  0.0928 -1.0168
  578SOL    HW2 1734   1.966   1.916   1.963  1.8853 -0.7408 -2.2686
  579SOL     OW 1735   0.619   1.689   1.030 -0.0655  0.7950 -0.1525
  579SOL    HW1 1736   0.547   1.763   1.032 -2.0199  0.1268 -2.9022
  579SOL    HW2 1737   0.595   1.599   0.986 -0.5418 -0.0556  1.4747
  580SOL     OW 1738   1.439   2.856   2.840  0.2634  0.2781 -0.5079
  580SOL    HW1 1739   1.392   2.769   2.842 -0.9464  3.1026  1.2181
  580SOL    HW2 1740   1.469   2.882   2.742  2.4268 -0.1634 -2.2346
  581SOL     OW 1741   1.022   0.763   2.034 -1.1254  0.2335  0.4814
  581SOL    HW1 1742   1.109   0.711   2.010  1.5628 -0.8552  1.2727
  581SOL    HW2 1743   1.038   0.859   2.048 -0.8470  0.1362  2.5065
  582SOL     OW 1744   0.258   0.518   0.985  0.0196 -0.4118 -0.0482
  582SOL    HW1 1745   0.279   0.618   0.997  2.2621  0.9544 -2.0915
  582SOL    HW2 1746   0.331   0.473   0.926  0.5606 -0.1875  1.4554
  583SOL     OW 1747   0.990   1.940   1.891 -0.2097  0.0983 -0.3603
  583SOL    HW1 1748   0.890   1.933   1.868 -2.0806 -1.5237  0.7647
  583SOL    HW2 1749   1.007   1.942   1.988 -0.4852  1.9542  0.5458
  584SOL     OW 1750   2.236   2.577   0.259 -0.3974  0.1497  0.3136
  584SOL    HW1 1751   2.175   2.609   0.333 -2.4566 -1.2408 -1.1945
  584SOL    HW2 1752   2.291   2.656   0.226  1.1339  1.6159  1.0846
  585SOL     OW 1753   2.250   0.490   2.788  0.2467  0.0224  0.8228
  585SOL    HW1 1754   2.224   0.555   2.856  0.5202 -1.6126 -0.9404
  585SOL    HW2 1755   2.275   0.535   2.700  1.2419  1.8669  3.2503
  586SOL     OW 1756   0.411   1.370   0.236 -0.4560 -0.2086 -0.6649
  586SOL    HW1 1757   0.480   1.424   0.287  0.4042  0.1066  0.0888
  586SOL    HW2 1758   0.321   1.378   0.289 -0.1513  1.9160  0.5468
  587SOL     OW 1759   1.600   1.943   0.939  0.1644 -0.1607 -0.1591
  587SOL    HW1 1760   1.689   1.922   0.989  1.5808 -0.3067 -2.7580
  587SOL    HW2 1761   1.535   1.975   1.016 -2.0209  3.8657  0.9565
  588SOL     OW 1762   0.662   0.614   1.235  0.1345 -0.1587 -0.8321
  588SOL    HW1 1763   0.749   0.562   1.236 -1.3782 -0.3359 -0.4492
  588SOL    HW2 1764   0.621   0.614   1.140 -0.5481 -1.8156  1.6298
  589SOL     OW 1765   1.828   2.953   0.892 -0.7960  0.1109  0.0711
  589SOL    HW1 1766   1.871   2.948   0.797  3.1119 -0.2305 -0.2526
  589SOL    HW2 1767   1.781   2.867   0.921 -1.2460 -0.7890  0.0571
  590SOL     OW 1768   1.682   1.048   0.367 -0.8428 -0.1703 -0.3076
  590SOL    HW1 1769   1.704   1.065   0.270  0.2810 -2.4663  1.6728
  590SOL    HW2 1770   1.693   1.125   0.432 -1.9646 -0.2814  0.5116
  591SOL     OW 1771   2.218   2.261   2.202  0.0798  0.0748 -0.0646
  591SOL    HW1 1772   2.221   2.195   2.280  0.2051  0.9469  1.0179
  591SOL    HW2 1773   2.307   2.259   2.153  0.5449 -0.0746 -1.6125
  592SOL     OW 1774   1.454   2.023   1.124  0.2910 -0.3350 -0.0034
  592SOL    HW1 1775   1.477   1.989   1.217  1.8895  3.7964  1.5159
  592SOL    HW2 1776   1.354   2.039   1.120 -1.8774 -0.2000  4.3130
  593SOL     OW 1777   0.596   3.076   0.986 -0.0600 -0.3559  0.0067
  593SOL    HW1 1778   0.669   3.035   0.935 -1.9922  1.5046  0.3192
  593SOL    HW2 1779   0.598   0.103   0.983 -0.6185 -0.7474 -0.6365
  594SOL     OW 1780   2.848   0.822   1.905 -0.0408 -0.2663  0.0155
  594SOL    HW1 1781   2.861   0.918   1.871  0.7766 -3.1129 -0.4635
  594SOL    HW2 1782   2.882   0.753   1.838  0.0739 -0.6516 -1.0671
  595SOL     OW 1783   0.181   2.967   0.452 -0.2362  0.5897 -0.4143
  595SOL    HW1 1784   0.098   2.913   0.494 -0.2853 -0.2880 -0.1278
  595SOL    HW2 1785   0.258   2.965   0.516 -0.5566  0.7066  0.0501
  596SOL     OW 1786   0.034   0.633   1.450 -0.2461  0.1159 -0.1158
  596SOL    HW1 1787   0.096   0.720   1.460  0.9630  0.9055  1.6534
  596SOL    HW2 1788   3.012   0.662   1.424 -0.1528  0.8703  1.2623
  597SOL     OW 1789   2.344   0.921   0.473 -0.8231 -0.3277 -0.4649
  597SOL    HW1 1790   2.398   0.856   0.412 -0.7014 -2.8621  0.0040
  597SOL    HW2 1791   2.403   0.991   0.525  0.7514  0.9169  0.9160
  598SOL     OW 1792   0.542   0.110   1.985  0.2878 -0.0140  0.6831
  598SOL    HW1 1793   0.495   0.175   1.919 -1.6168  1.8846 -1.1199
  598SOL    HW2 1794   0.501   0.112   2.076  0.9562  0.3202  0.0547
  599SOL     OW 1795   2.479   1.674   0.179 -0.1050  0.2290 -0.2435
  599SOL    HW1 1796   2.435   1.759   0.212 -0.0064 -3.1374  1.8513
  599SOL    HW2 1797   2.548   1.690   0.106  0.4228  0.9039  2.2305
  600SOL     OW 1798   1.063   0.932   0.016 -0.2051 -0.6325 -0.2238
  600SOL    HW1 1799   1.100   1.025   0.039  0.4028  0.6950  1.3886
  600SOL    HW2 1800   1.005   0.900   0.092  1.6614 -1.7561  2.3899
  601SOL     OW 1801   1.387   0.996   0.020 -0.4171  0.2596 -0.1249
  601SOL    HW1 1802   1.305   1.053   0.021  4.7546  0.6841 -0.3397
  601SOL    HW2 1803   1.383   0.927   3.019  1.1184 -1.7123  0.2677
  602SOL     OW 1804   1.022   3.016   1.464  0.1408 -0.2413 -0.1140
  602SOL    HW1 1805   1.088   0.015   1.491 -0.3249 -2.2773  0.4506
  602SOL    HW2 1806   1.036   2.937   1.528  0.5432  2.4991  1.8590
  603SOL     OW 1807   0.887   2.803   2.503 -0.6326 -0.1610 -0.2613
  603SOL    HW1 1808   0.832   2.886   2.500  0.9003 -0.9391 -1.6840
  603SOL    HW2 1809   0.984   2.820   2.492 -2.2169 -0.3985  2.9709
  604SOL     OW 1810   2.848   0.020   2.173  0.1367  0.2420 -0.3762
  604SOL    HW1 1811   2.786   0.044   2.253  2.3959  0.9066 -0.7790
  604SOL    HW2 1812   2.811   3.018   2.116 -0.2406 -3.8898 -0.5435
  605SOL     OW 1813   2.675   2.727   1.450 -0.2057  0.4831 -0.0972
  605SOL    HW1 1814   2.585   2.671   1.441 -2.8255 -3.0053 -1.9799
  605SOL    HW2 1815   2.664   2.822   1.420 -0.3814 -1.5893  1.4928
  606SOL     OW 1816   2.982   2.117   2.610 -0.2088 -0.3878 -0.6775
  606SOL    HW1 1817   3.021   2.144   2.700  0.6046  2.4375  2.1417
  606SOL    HW2 1818   3.033   2.037   2.576  1.3364 -1.0376  0.9721
  607SOL     OW 1819   0.826   0.214   0.765 -0.2415 -0.1325 -0.3436
  607SOL    HW1 1820   0.910   0.157   0.772 -1.4799  1.7443 -1.2707
  607SOL    HW2 1821   0.844   0.311   0.783  2.6880  1.6108 -0.6475
  608SOL     OW 1822   1.645   1.816   2.499  0.1203 -1.2050  0.2590
  608SOL    HW1 1823   1.647   1.714   2.501  1.8834  1.2855  0.3818
  608SOL    HW2 1824   1.584   1.853   2.421 -0.9245  0.1306 -1.6630
  609SOL     OW 1825   2.885   0.391   0.791  0.3600  0.5174 -0.4021
  609SOL    HW1 1826   2.876   0.292   0.793  1.2764  1.5387  0.1019
  609SOL    HW2 1827   2.981   0.416   0.782 -0.7006  2.1013  0.4036
  610SOL     OW 1828   0.736   2.399   2.956  0.2176 -0.2611  0.1717
  610SOL    HW1 1829   0.774   2.454   3.035 -1.8382 -0.9097 -1.6831
  610SOL    HW2 1830   0.815   2.371   2.893  2.3242  1.8690  0.5543
  611SOL     OW 1831   1.970   1.182   0.583 -0.0755 -0.4762  0.5145
  611SOL    HW1 1832   1.869   1.189   0.554 -3.1224 -0.1303 -1.3915
  611SOL    HW2 1833   2.014   1.112   0.520 -0.8254 -2.2223  0.8738
  612SOL     OW 1834   0.791   2.546   2.287  0.5936  0.4011 -0.4571
  612SOL    HW1 1835   0.693   2.573   2.304  0.0922  0.6620 -1.5224
  612SOL    HW2 1836   0.852   2.625   2.269  0.1379 -1.6801  1.1189
  613SOL     OW 1837   1.292   1.793   0.295  0.1597  0.0071 -0.0646
  613SOL    HW1 1838   1.391   1.805   0.286 -0.5607  0.8527  0.6395
  613SOL    HW2 1839   1.252   1.862   0.356  0.9793  3.3261 -0.5138
  614SOL     OW 1840   2.607   2.240   1.647 -0.2841  0.2530 -0.4345
  614SOL    HW1 1841   2.587   2.279   1.555  0.8470  0.1103  0.9040
  614SOL    HW2 1842   2.552   2.284   1.724  0.1827  0.6737  1.2534
  615SOL     OW 1843   2.367   1.274   3.058  0.2161 -0.7322  0.1142
  615SOL    HW1 1844   2.459   1.299   3.022 -1.5557  0.6133 -0.5282
  615SOL    HW2 1845   2.340   1.192   3.004 -0.8196  1.5364 -0.5280
  616SOL     OW 1846   1.515   0.062   0.764 -0.0409  0.0004  0.1663
  616SOL    HW1 1847   1.494   3.072   0.839  1.7170 -1.6532  1.2890
  616SOL    HW2 1848   1.612   0.092   0.756 -0.2088  0.0172 -1.4154
  617SOL     OW 1849   0.319   1.461   2.695 -0.2198  0.0037 -0.3241
  617SOL    HW1 1850   0.378   1.527   2.647 -0.3031 -0.2058  0.3899
  617SOL    HW2 1851   0.229   1.447   2.645 -1.5694 -2.7275  2.7841
  618SOL     OW 1852   0.458   0.805   1.593 -0.1020 -0.3175  0.2898
  618SOL    HW1 1853   0.520   0.733   1.553  2.5832  0.9195 -0.2705
  618SOL    HW2 1854   0.504   0.852   1.672  2.6763 -0.2195  2.9378
  619SOL     OW 1855   2.615   0.805   1.658 -0.1075 -0.1580 -0.5231
  619SOL    HW1 1856   2.708   0.768   1.648 -0.9269 -1.4664  1.1704
  619SOL    HW2 1857   2.567   0.748   1.728  1.4218  0.8276  1.4260
  620SOL     OW 1858   2.056   1.116   0.009  0.1903 -0.1192  0.2329
  620SOL    HW1 1859   1.979   1.088   3.025  0.3040 -0.3481  1.3722
  620SOL    HW2 1860   2.024   1.152   0.100  0.7758  1.1124  1.1887
  621SOL     OW 1861   2.317   2.845   0.954 -0.4276  0.0187  0.5873
  621SOL    HW1 1862   2.358   2.789   1.028  0.9961  2.2661 -0.5640
  621SOL    HW2 1863   2.385   2.899   0.891 -0.6531 -1.1487 -1.6408
  622SOL     OW 1864   1.523   0.782   1.943 -0.5366  0.0623 -0.0881
  622SOL    HW1 1865   1.488   0.806   1.852 -0.8196  2.0391  2.6389
  622SOL    HW2 1866   1.532   0.869   2.002  1.2455  2.6522  1.0287
  623SOL     OW 1867   1.124   0.849   2.537  0.0405 -0.2712  0.1636
  623SOL    HW1 1868   1.043   0.911   2.532 -1.6637  2.8575  3.8302
  623SOL    HW2 1869   1.212   0.899   2.569  0.1423  0.7764  0.1969
  624SOL     OW 1870   1.818   0.124   0.681  0.0387 -0.3571  0.1476
  624SOL    HW1 1871   1.828   0.166   0.587 -0.0864  0.4790 -0.2865
  624SOL    HW2 1872   1.869   0.038   0.696 -2.7648  2.0151  1.2864
  625SOL     OW 1873   0.610   1.533   0.419  0.1357 -0.1118 -0.2321
  625SOL    HW1 1874   0.684   1.482   0.457 -1.9839  2.2886 -1.3602
  625SOL    HW2 1875   0.580   1.614   0.481 -0.1302  0.4411  1.0444
  626SOL     OW 1876   1.737   1.258   2.317  0.5114 -0.6456  0.2539
  626SOL    HW1 1877   1.751   1.306   2.231 -1.9884 -1.1716  3.9643
  626SOL    HW2 1878   1.636   1.270   2.340 -1.6373 -2.3006  0.2778
  627SOL     OW 1879   0.727   0.289   1.780  0.0226 -0.1596  0.7119
  627SOL    HW1 1880   0.771   0.253   1.862  1.2350 -0.5760 -2.0278
  627SOL    HW2 1881   0.624   0.287   1.784  2.0665 -0.0719  1.7353
  628SOL     OW 1882   2.112   0.737   2.420 -0.1227 -0.3746 -0.5230
  628SOL    HW1 1883   2.134   0.666   2.351  0.4340  0.9697 -2.0222
  628SOL    HW2 1884   2.072   0.827   2.371 -4.7528  0.2647 -2.6727
  629SOL     OW 1885   0.789   1.376   3.073 -0.1395 -0.5253  0.1703
  629SOL    HW1 1886   0.773   1.479   3.067  0.2474  0.6718  0.3305
  629SOL    HW2 1887   0.874   1.345   3.023 -0.1346  0.5583  1.4091
  630SOL     OW 1888   0.928   0.456   2.156 -0.1313 -0.3997  0.0555
  630SOL    HW1 1889   0.943   0.554   2.138 -1.6050  1.2469  0.6788
  630SOL    HW2 1890   0.842   0.457   2.210 -4.9921  0.7833  1.9661
  631SOL     OW 1891   2.520   0.971   0.774  0.6444 -0.3372 -0.3899
  631SOL    HW1 1892   2.535   0.987   0.873  3.1606  0.7857  0.3771
  631SOL    HW2 1893   2.527   0.872   0.756  0.7705  1.5830 -0.9804
  632SOL     OW 1894   2.547   1.598   0.854 -0.0793  0.4623  0.5945
  632SOL    HW1 1895   2.645   1.587   0.857 -3.6954 -0.4536 -1.1161
  632SOL    HW2 1896   2.525   1.690   0.807  1.6178  2.7877  0.2211
  633SOL     OW 1897   0.774   1.267   0.764  0.3468 -0.1282 -0.0874
  633SOL    HW1 1898   0.714   1.205   0.814 -0.1161  0.7151 -1.2868
  633SOL    HW2 1899   0.772   1.255   0.665  1.7660  3.2784  1.3291
  634SOL     OW 1900   1.502   2.941   0.573  0.0464  1.1457 -0.1252
  634SOL    HW1 1901   1.477   2.968   0.480  1.4838 -2.3136 -0.0355
  634SOL    HW2 1902   1.488   3.011   0.640 -1.0411 -3.1709  1.3592
  635SOL     OW 1903   1.919   0.617   1.397 -0.1494  0.1744  0.0669
  635SOL    HW1 1904   2.011   0.657   1.379  1.1014 -2.1490 -1.9427
  635SOL    HW2 1905   1.841   0.683   1.412 -1.5492 -0.1391  0.4729
  636SOL     OW 1906   1.152   0.605   0.672  0.2686 -0.3044 -0.0794
  636SOL    HW1 1907   1.146   0.536   0.746 -1.1173  0.6112  0.0559
  636SOL    HW2 1908   1.085   0.571   0.596  0.0046 -3.0081 -2.3400
  637SOL     OW 1909   1.623   1.875   2.943 -0.3588  0.6497  0.6908
  637SOL    HW1 1910   1.571   1.858   2.857  2.6211  1.5788  2.0803
  637SOL    HW2 1911   1.709   1.928   2.917 -1.2392  3.1199  1.2115
  638SOL     OW 1912   1.042   3.075   2.703  0.0128 -0.4008 -0.1349
  638SOL    HW1 1913   1.078   0.011   2.795 -0.5791  1.7564 -1.0896
  638SOL    HW2 1914   0.943   0.010   2.713  0.5248  0.7717  1.1896
  639SOL     OW 1915   1.325   2.059   1.410 -0.0235 -0.2481  0.0995
  639SOL    HW1 1916   1.318   1.961   1.418 -0.2506 -0.0902  0.4175
  639SOL    HW2 1917   1.282   2.089   1.323  1.5564  0.9582  2.7792
  640SOL     OW 1918   0.480   0.158   2.869 -0.0178 -0.0009 -0.1250
  640SOL    HW1 1919   0.441   0.125   2.959 -2.1888 -0.3520 -0.3181
  640SOL    HW2 1920   0.456   0.092   2.792 -1.7323 -2.0145 -2.6744
  641SOL     OW 1921   0.429   0.720   0.283 -0.5662 -0.3774  0.1012
  641SOL    HW1 1922   0.335   0.727   0.317  0.8370  0.9856 -0.4652
  641SOL    HW2 1923   0.498   0.761   0.346  0.2701  0.2881 -0.6868
  642SOL     OW 1924   0.348   1.560   1.227 -0.5127  0.6071  0.4509
  642SOL    HW1 1925   0.426   1.614   1.266 -1.3716  0.7440 -1.1867
  642SOL    HW2 1926   0.363   1.536   1.125 -1.5939 -2.4195 -1.2502
  643SOL     OW 1927   0.662   1.857   2.578 -0.3051 -0.1253  0.3396
  643SOL    HW1 1928   0.605   1.937   2.539 -0.6445  0.6809 -3.3507
  643SOL    HW2 1929   0.644   1.854   2.677  0.6858 -2.1083 -3.6165
  644SOL     OW 1930   1.646   2.244   0.092 -0.8274  0.6216  0.6537
  644SOL    HW1 1931   1.744   2.276   0.103  0.6239 -0.2507  1.5518
  644SOL    HW2 1932   1.583   2.288   0.157  2.7396 -2.8839 -1.8199
  645SOL     OW 1933   1.819   2.109   1.597  0.1989 -0.0630  0.0495
  645SOL    HW1 1934   1.722   2.102   1.630 -1.6792 -2.4858 -0.5369
  645SOL    HW2 1935   1.872   2.164   1.663 -0.2283 -0.6234 -1.0805
  646SOL     OW 1936   0.649   2.664   0.207  0.0519 -0.6581  0.1362
  646SOL    HW1 1937   0.739   2.646   0.166  1.1130 -0.9740 -1.2345
  646SOL    HW2 1938   0.607   2.745   0.167 -3.2602 -3.1091  1.3190
  647SOL     OW 1939   0.121   2.949   2.253 -0.7727 -0.1306 -0.2137
  647SOL    HW1 1940   0.099   3.030   2.310 -1.8067  2.2042 -0.6577
  647SOL    HW2 1941   0.221   2.922   2.260  0.0829 -2.0657  0.2867
  648SOL     OW 1942   2.731   0.990   1.049 -0.6309  0.1410  0.6594
  648SOL    HW1 1943   2.771   0.917   0.986 -0.3798 -0.8225  0.0984
  648SOL    HW2 1944   2.633   0.967   1.054  1.2547  0.0127 -1.3005
  649SOL     OW 1945   1.957   2.664   2.633 -0.9923  0.0162  0.1175
  649SOL    HW1 1946   1.886   2.681   2.699  2.0021  0.8920 -1.8526
  649SOL    HW2 1947   1.991   2.755   2.599 -0.1723  1.0914 -1.7907
  650SOL     OW 1948   2.321   1.500   1.947  0.3618  0.2515  0.0086
  650SOL    HW1 1949   2.283   1.445   1.865  0.1917  1.6089 -1.9208
  650SOL    HW2 1950   2.419   1.481   1.956 -2.9277 -2.4871  1.5578
  651SOL     OW 1951   1.061   1.955   2.787  0.0607  0.6316  0.3094
  651SOL    HW1 1952   1.146   1.986   2.736  2.6583 -0.1593  0.7278
  651SOL    HW2 1953   1.056   1.852   2.784  0.1748  0.0487 -1.1523
  652SOL     OW 1954   0.693   3.015   2.477 -0.3754 -0.3568 -0.0387
  652SOL    HW1 1955   0.616   2.989   2.542 -0.6827  1.1594  0.3552
  652SOL    HW2 1956   0.725   0.034   2.502  1.0498 -0.4096  2.1919
  653SOL     OW 1957   2.305   1.749   1.009 -0.4840 -0.3079 -0.3876
  653SOL    HW1 1958   2.324   1.652   1.028  1.0968  1.8485 -0.0426
  653SOL    HW2 1959   2.272   1.801   1.092 -1.0912  1.2257  1.8074
  654SOL     OW 1960   2.403   2.909   2.070 -0.1595  0.7730 -0.4158
  654SOL    HW1 1961   2.319   2.927   2.121  0.8599  1.0050 -1.1071
  654SOL    HW2 1962   2.465   2.993   2.067  1.0009 -0.2702 -3.1014
  655SOL     OW 1963   2.628   2.250   1.172 -0.7238  0.2868  0.0705
  655SOL    HW1 1964   2.724   2.253   1.197 -1.4043  0.7527  3.2909
  655SOL    HW2 1965   2.611   2.311   1.089  2.2883  0.3782 -1.0534
  656SOL     OW 1966   2.636   1.690   2.833  0.4295 -0.0704  0.0678
  656SOL    HW1 1967   2.670   1.752   2.755 -1.5488 -1.0181 -2.1725
  656SOL    HW2 1968   2.715   1.662   2.887  0.1618  1.6616 -2.2918
  657SOL     OW 1969   0.029   1.200   0.547  1.0382  0.1259  0.6224
  657SOL    HW1 1970   3.025   1.162   0.493  1.6626 -0.9017 -0.0306
  657SOL    HW2 1971   0.002   1.245   0.632  0.5273 -2.0524 -1.4252
  658SOL     OW 1972   1.429   1.605   1.398 -0.0618 -0.3117  0.0504
  658SOL    HW1 1973   1.375   1.590   1.310 -1.2739 -1.6428 -0.5356
  658SOL    HW2 1974   1.375   1.670   1.459  0.0701 -3.1185  0.5167
  659SOL     OW 1975   1.107   2.927   1.230 -0.4809 -0.0737  0.3249
  659SOL    HW1 1976   1.119   3.006   1.164  2.1687  1.0547  0.3418
  659SOL    HW2 1977   1.065   2.965   1.315  2.2759  0.3573  1.0648
  660SOL     OW 1978   2.281   0.630   0.787  0.2431 -0.3425 -0.1449
  660SOL    HW1 1979   2.230   0.701   0.738 -0.2588 -0.8759  0.4184
  660SOL    HW2 1980   2.218   0.561   0.825 -0.6030  1.3759 -2.7001
  661SOL     OW 1981   0.440   1.778   0.169 -0.0620 -0.0487  0.5256
  661SOL    HW1 1982   0.523   1.724   0.148 -3.2581  1.9170 -0.0522
  661SOL    HW2 1983   0.462   1.877   0.167 -1.0873 -0.5345  0.0387
  662SOL     OW 1984   2.036   0.908   2.026  0.3286 -0.3426  0.1555
  662SOL    HW1 1985   2.039   0.808   2.001  1.3902 -0.0758 -0.7617
  662SOL    HW2 1986   2.132   0.936   2.029 -2.3449 -3.1061  0.3163
  663SOL     OW 1987   1.932   1.256   1.151  0.3149 -0.0897  0.1344
  663SOL    HW1 1988   1.903   1.162   1.133  1.5712 -1.5852  0.0450
  663SOL    HW2 1989   1.982   1.289   1.067 -0.6983 -1.7895 -1.6144
  664SOL     OW 1990   0.207   0.020   1.160 -0.3248 -0.0804 -0.2274
  664SOL    HW1 1991   0.273   3.047   1.098  3.4250 -2.6620  1.8747
  664SOL    HW2 1992   0.229   3.063   1.252 -1.8139  1.0302 -1.6987
  665SOL     OW 1993   1.437   0.431   2.742  0.1085 -0.1631  0.0964
  665SOL    HW1 1994   1.489   0.416   2.831  2.4780  2.1066 -1.0291
  665SOL    HW2 1995   1.428   0.531   2.718 -2.3395 -0.3290  1.9889
  666SOL     OW 1996   0.427   0.500   2.097  0.1809  0.0934  0.0597
  666SOL    HW1 1997   0.359   0.440   2.047  0.7664 -1.2123 -1.6473
  666SOL    HW2 1998   0.455   0.579   2.042 -3.9808 -2.3859  1.2548
  667SOL     OW 1999   1.642   1.575   1.677 -0.6078  0.3938 -0.2558
  667SOL    HW1 2000   1.601   1.517   1.754  0.4995 -2.3091  1.6705
  667SOL    HW2 2001   1.604   1.672   1.668  1.3342  0.5861  0.0561
  668SOL     OW 2002   0.265   1.274   2.308  0.0876  0.0785 -0.2438
  668SOL    HW1 2003   0.241   1.174   2.295 -3.3656 -2.4783  1.8711
  668SOL    HW2 2004   0.212   1.331   2.242  0.2985 -0.2024  2.9226
  669SOL     OW 2005   2.643   2.502   3.059  0.4464  0.5100 -0.0944
  669SOL    HW1 2006   2.690   2.449   2.982 -0.6557  0.5367  0.0007
  669SOL    HW2 2007   2.707   2.543   0.047 -0.9049 -2.2274 -0.5262
  670SOL     OW 2008   2.695   1.170   1.946 -0.3337 -0.2531 -0.2030
  670SOL    HW1 2009   2.647   1.142   1.862  1.3744 -0.1849  0.5623
  670SOL    HW2 2010   2.659   1.135   2.033  1.3231 -1.1725  0.3125
  671SOL     OW 2011   2.613   1.677   0.531  1.0570 -0.0329  0.2542
  671SOL    HW1 2012   2.559   1.767   0.532 -0.9832  2.0120 -0.4195
  671SOL    HW2 2013   2.705   1.687   0.484  2.0222  0.7095 -0.4985
  672SOL     OW 2014   1.457   1.035   2.014 -0.2616  0.5260 -0.2112
  672SOL    HW1 2015   1.532   1.095   2.044 -2.1895  0.9502  0.5765
  672SOL    HW2 2016   1.450   1.026   1.914 -0.6428  1.0728  1.2301
  673SOL     OW 2017   2.631   1.984   1.634  0.6606  0.3757  0.2782
  673SOL    HW1 2018   2.611   2.085   1.649 -0.6300 -0.7495  0.8628
  673SOL    HW2 2019   2.683   1.973   1.546  0.3177  1.1812  2.6843
  674SOL     OW 2020   1.275   1.813   1.500 -0.3143  0.4413 -0.2016
  674SOL    HW1 2021   1.353   1.827   1.560 -2.5817 -2.3044 -0.6087
  674SOL    HW2 2022   1.195   1.864   1.532  0.2293 -2.8607 -2.9702
  675SOL     OW 2023   0.019   0.712   1.039  0.2367  0.0227 -0.3111
  675SOL    HW1 2024   0.107   0.739   1.067 -1.5143 -1.5939  0.7581
  675SOL    HW2 2025   3.059   0.632   1.093 -1.8885 -0.7418 -3.5530
  676SOL     OW 2026   2.892   0.991   1.607 -0.2922 -0.6509  0.0931
  676SOL    HW1 2027   2.973   0.965   1.667 -0.1044 -1.0575 -1.4471
  676SOL    HW2 2028   2.861   0.915   1.550  1.9976  2.1248  0.8215
  677SOL     OW 2029   2.001   1.276   2.628  0.1486 -0.8730 -0.1549
  677SOL    HW1 2030   2.025   1.284   2.530 -2.3754 -2.7231  1.3302
  677SOL    HW2 2031   2.059   1.334   2.691 -0.7912 -0.6680 -0.8922
  678SOL     OW 2032   2.630   1.488   1.229 -0.2193 -0.0542  0.7625
  678SOL    HW1 2033   2.681   1.408   1.188 -0.2712  0.6837 -0.8621
  678SOL    HW2 2034   2.689   1.572   1.235 -0.0061  0.6849 -2.1480
  679SOL     OW 2035   0.250   2.599   0.270 -0.7225 -0.0974  0.0893
  679SOL    HW1 2036   0.185   2.539   0.224 -2.3031  0.6859  1.4565
  679SOL    HW2 2037   0.340   2.556   0.269 -2.7006 -0.1475 -0.5239
  680SOL     OW 2038   0.070   1.620   1.180 -0.2105  0.1611  0.1271
  680SOL    HW1 2039   0.003   1.679   1.224  0.8995  1.6882 -0.9495
  680SOL    HW2 2040   0.162   1.611   1.222  1.2806 -2.2460 -1.4812
  681SOL     OW 2041   1.042   0.050   0.785 -0.0514 -0.1029 -0.0807
  681SOL    HW1 2042   1.090   0.109   0.718  1.9914  1.6026  2.0396
  681SOL    HW2 2043   1.090   3.040   0.809 -1.1970 -1.2019 -0.7391
  682SOL     OW 2044   1.829   2.515   1.555 -0.2717  0.2948 -0.0326
  682SOL    HW1 2045   1.929   2.497   1.532 -1.4908  0.9326 -0.5590
  682SOL    HW2 2046   1.778   2.562   1.486 -1.8588 -0.3959  0.0192
  683SOL     OW 2047   2.552   1.410   1.655 -0.2251 -0.1392 -0.3862
  683SOL    HW1 2048   2.510   1.454   1.570  0.9238 -0.1849 -1.7577
  683SOL    HW2 2049   2.639   1.375   1.627 -0.3297  0.7814  1.0195
  684SOL     OW 2050   3.054   1.594   1.939 -0.4383 -0.0594  0.2352
  684SOL    HW1 2051   2.984   1.574   1.870 -0.5030  0.2897  3.1584
  684SOL    HW2 2052   3.032   1.686   1.979  1.9005  0.2219  0.9980
  685SOL     OW 2053   1.614   1.350   0.318 -0.5501 -0.1472 -0.5945
  685SOL    HW1 2054   1.628   1.447   0.346 -2.3582  1.0474 -1.1139
  685SOL    HW2 2055   1.659   1.327   0.228 -1.0049  1.1468 -0.7576
  686SOL     OW 2056   2.869   0.682   1.675  0.3228  0.0806 -0.3528
  686SOL    HW1 2057   2.966   0.715   1.677  1.6064  0.5480  2.8984
  686SOL    HW2 2058   2.863   0.594   1.620 -1.2540 -1.2667  0.7288
  687SOL     OW 2059   1.611   0.255   2.573 -0.2505 -0.0089  0.3504
  687SOL    HW1 2060   1.646   0.174   2.625 -1.3768 -1.7814  1.6255
  687SOL    HW2 2061   1.541   0.306   2.631  0.3390  2.8117  0.4758
  688SOL     OW 2062   1.243   1.704   2.489 -0.5727  0.1941 -0.6185
  688SOL    HW1 2063   1.170   1.636   2.509  0.0926  3.6037 -1.3941
  688SOL    HW2 2064   1.209   1.801   2.475  1.0414 -1.2623 -0.8016
  689SOL     OW 2065   2.285   1.363   1.697 -0.3238 -0.0964  0.1701
  689SOL    HW1 2066   2.242   1.278   1.722 -1.9739  1.3080 -0.4710
  689SOL    HW2 2067   2.389   1.363   1.696  4.3899  0.8420 -1.3218
  690SOL     OW 2068   2.233   2.265   1.489 -0.0290  0.1781  0.1517
  690SOL    HW1 2069   2.264   2.221   1.575  0.1796  1.0620 -2.4062
  690SOL    HW2 2070   2.152   2.215   1.454  1.3139  0.6062 -0.6920
  691SOL     OW 2071   0.165   1.631   0.569 -0.4634 -0.4964  0.7660
  691SOL    HW1 2072   0.213   1.691   0.494 -0.0853  0.6637 -2.2352
  691SOL    HW2 2073   0.195   1.665   0.661 -1.2431  1.3065  0.3839
  692SOL     OW 2074   2.711   2.854   2.723  0.0175  0.3134 -0.1678
  692SOL    HW1 2075   2.810   2.842   2.749 -0.0974 -0.2280 -0.4656
  692SOL    HW2 2076   2.693   2.841   2.624  0.0305 -0.0481 -1.5510
  693SOL     OW 2077   0.159   1.443   2.125  0.1860 -0.1804 -0.4795
  693SOL    HW1 2078   0.167   1.375   2.053 -0.6256  1.3146 -0.8972
  693SOL    HW2 2079   0.138   1.536   2.085 -1.9324  2.2326 -0.2852
  694SOL     OW 2080   2.455   0.362   2.094 -0.5382  0.0173  0.1084
  694SOL    HW1 2081   2.534   0.420   2.068 -2.8976 -0.8296  1.6302
  694SOL    HW2 2082   2.390   0.372   2.010 -1.4817  0.2006 -1.8259
  695SOL     OW 2083   1.284   0.875   2.174 -0.0999  0.1457 -0.3565
  695SOL    HW1 2084   1.352   0.947   2.182 -0.7182  1.0041  1.4158
  695SOL    HW2 2085   1.201   0.899   2.122  2.2851  1.2879 -2.2101
  696SOL     OW 2086   2.330   2.956   1.637  0.0589  0.5164 -0.4463
  696SOL    HW1 2087   2.288   3.026   1.697  1.9038 -1.7538 -0.3073
  696SOL    HW2 2088   2.316   2.975   1.536  0.1136  1.5181 -1.2707
  697SOL     OW 2089   1.057   0.256   1.998 -0.5923  0.6053  0.3584
  697SOL    HW1 2090   1.004   0.327   2.050 -1.7582  0.5142  0.8330
  697SOL    HW2 2091   0.995   0.180   1.987  0.7736  1.8273  0.6452
  698SOL     OW 2092   2.378   1.696   2.767 -0.3086 -0.0627  0.0594
  698SOL    HW1 2093   2.384   1.633   2.687 -0.6935 -1.1097  1.8942
  698SOL    HW2 2094   2.473   1.701   2.810 -0.8137 -1.7213  2.1458
  699SOL     OW 2095   1.981   0.583   0.481 -0.2002  1.2974  0.2851
  699SOL    HW1 2096   1.916   0.636   0.430  0.6721 -0.9354  1.3887
  699SOL    HW2 2097   2.051   0.643   0.525  2.2642 -1.1942  1.4271
  700SOL     OW 2098   1.225   2.899   0.832  0.2760 -0.3656 -0.2041
  700SOL    HW1 2099   1.318   2.916   0.868  1.3863  0.2531 -1.0832
  700SOL    HW2 2100   1.187   2.821   0.897 -2.0368 -1.7536  1.1193
  701SOL     OW 2101   2.888   0.504   0.478  0.4369 -0.0233  0.3386
  701SOL    HW1 2102   2.810   0.559   0.436 -2.0961  0.0941 -1.3523
  701SOL    HW2 2103   2.937   0.567   0.540 -1.7922 -0.0287 -1.6049
  702SOL     OW 2104   1.686   2.667   1.389  0.5430  0.1492  0.3193
  702SOL    HW1 2105   1.658   2.626   1.297  0.2699 -0.9797 -1.7463
  702SOL    HW2 2106   1.708   2.764   1.380 -0.3463  2.7208 -1.3899
  703SOL     OW 2107   2.991   0.503   1.135  0.0959  0.3199 -0.3181
  703SOL    HW1 2108   2.913   0.487   1.067 -2.6112 -2.3749 -2.1572
  703SOL    HW2 2109   2.993   0.436   1.210 -0.2073 -1.1311  4.3715
  704SOL     OW 2110   0.821   2.718   1.518  0.0768 -0.1546 -0.0563
  704SOL    HW1 2111   0.781   2.631   1.482 -1.7764 -0.0721  3.0203
  704SOL    HW2 2112   0.744   2.774   1.551 -0.6023  1.0090  0.9325
  705SOL     OW 2113   0.079   1.837   3.074 -0.5673 -0.0528  0.0177
  705SOL    HW1 2114   0.118   1.746   0.009 -1.8233  3.9648  2.2868
  705SOL    HW2 2115   0.056   1.868   0.091 -0.5018 -0.0706 -1.0786
  706SOL     OW 2116   0.102   0.479   0.285  0.2450  0.0172 -0.2395
  706SOL    HW1 2117   0.201   0.457   0.270 -0.4640 -0.5031 -1.1904
  706SOL    HW2 2118   0.054   0.421   0.357 -0.2081 -2.2708  1.2937
  707SOL     OW 2119   1.696   2.835   2.104  0.4682 -0.0201 -0.0690
  707SOL    HW1 2120   1.711   2.757   2.039  1.3572 -0.6578  2.4440
  707SOL    HW2 2121   1.739   2.922   2.074  1.6471  2.3437 -1.1205
  708SOL     OW 2122   0.355   0.144   1.570 -0.9381 -0.2912  0.5250
  708SOL    HW1 2123   0.356   0.068   1.501  1.4664 -0.5081 -0.0551
  708SOL    HW2 2124   0.292   0.117   1.646  0.0995 -2.9495  0.4276
  709SOL     OW 2125   0.039   0.871   1.686 -0.1566  0.1107 -0.1223
  709SOL    HW1 2126   0.119   0.872   1.619  2.5486  1.6408  0.9060
  709SOL    HW2 2127   0.070   0.845   1.778 -0.0126 -0.6580  2.5977
  710SOL     OW 2128   0.327   0.795   0.853 -0.2726  0.1791 -0.1029
  710SOL    HW1 2129   0.278   0.750   0.774  0.9718 -0.9742  1.1163
  710SOL    HW2 2130   0.388   0.867   0.824 -2.3123 -3.7705  3.2114
  711SOL     OW 2131   2.371   2.688   1.921 -0.1577 -0.1662 -0.0062
  711SOL    HW1 2132   2.325   2.629   1.989 -0.9321 -1.0374  0.2918
  711SOL    HW2 2133   2.394   2.782   1.963 -2.7802 -1.4489 -2.5922
  712SOL     OW 2134   0.300   2.685   2.440  0.3363  0.1351 -0.2511
  712SOL    HW1 2135   0.210   2.713   2.401  0.4717 -1.3461 -1.8917
  712SOL    HW2 2136   0.286   2.664   2.540  1.2928 -0.4062  0.9997
  713SOL     OW 2137   2.574   0.326   0.620 -0.1164  0.8225  0.1907
  713SOL    HW1 2138   2.491   0.319   0.558  0.0716 -3.8136  1.2286
  713SOL    HW2 2139   2.661   0.290   0.579 -1.3799  1.4684  0.6142
  714SOL     OW 2140   1.915   1.758   2.607 -0.2155  0.5068 -0.0583
  714SOL    HW1 2141   1.819   1.785   2.594  0.2967 -0.0011  0.4381
  714SOL    HW2 2142   1.969   1.830   2.563 -0.6823 -1.1862  0.8555
  715SOL     OW 2143   0.064   0.483   0.797 -0.2995  0.3608 -0.7439
  715SOL    HW1 2144   0.134   0.501   0.866 -1.1785 -2.1427 -1.0683
  715SOL    HW2 2145   0.030   0.563   0.742  1.1603 -0.9672 -0.3089
  716SOL     OW 2146   0.733   0.549   1.707 -0.4012 -0.5309  0.2947
  716SOL    HW1 2147   0.693   0.551   1.615  1.3291  2.7373  0.5878
  716SOL    HW2 2148   0.741   0.456   1.745 -0.3313  2.6809  0.2108
  717SOL     OW 2149   0.778   0.598   2.366  0.0890  0.2965 -0.3064
  717SOL    HW1 2150   0.705   0.526   2.360 -0.5846 -2.0682  2.2883
  717SOL    HW2 2151   0.831   0.579   2.445 -1.9603 -1.9290 -0.0764
  718SOL     OW 2152   1.125   0.004   0.438  0.0515  0.2454  0.5181
  718SOL    HW1 2153   1.132   0.088   0.489  2.2735 -2.5010  1.1769
  718SOL    HW2 2154   1.069   0.009   0.353 -1.4182  2.7531 -1.2642
  719SOL     OW 2155   2.989   2.504   2.857 -0.5133  0.1264 -0.1058
  719SOL    HW1 2156   2.907   2.447   2.857 -0.2000  0.1767 -0.9322
  719SOL    HW2 2157   3.041   2.495   2.771 -0.2037 -0.5084  1.9505
  720SOL     OW 2158   1.296   0.642   1.712 -0.1082  0.4929 -0.4796
  720SOL    HW1 2159   1.385   0.609   1.684 -4.1948  1.0562  0.3737
  720SOL    HW2 2160   1.270   0.622   1.805  1.3426 -0.2393  0.8741
  721SOL     OW 2161   3.035   2.866   0.920 -0.2699 -0.0737 -0.3833
  721SOL    HW1 2162   2.950   2.880   0.862 -1.9957 -0.9577 -0.3403
  721SOL    HW2 2163   0.005   2.782   0.895 -2.4425 -0.0170 -0.7901
  722SOL     OW 2164   0.779   1.136   2.805  0.5035 -0.2622 -0.0626
  722SOL    HW1 2165   0.775   1.234   2.777  0.6450  1.0646 -3.5538
  722SOL    HW2 2166   0.688   1.106   2.835  1.1905  0.2330  0.7017
  723SOL     OW 2167   2.174   0.967   1.254 -0.3515  0.4059  0.3092
  723SOL    HW1 2168   2.250   1.014   1.199 -0.4282 -0.9419 -2.7576
  723SOL    HW2 2169   2.153   1.016   1.340 -0.4153 -3.5846 -2.0300
  724SOL     OW 2170   0.956   1.751   0.266  0.4199 -0.2717  0.0248
  724SOL    HW1 2171   0.990   1.658   0.295 -1.5746 -2.5628 -1.6637
  724SOL    HW2 2172   1.016   1.820   0.299 -1.2468  1.4420 -1.2192
  725SOL     OW 2173   0.217   0.823   1.476 -0.5144  0.0205  0.5319
  725SOL    HW1 2174   0.313   0.803   1.506 -0.6426 -2.3057 -1.0914
  725SOL    HW2 2175   0.221   0.845   1.378 -0.7855 -0.2159  0.6094
  726SOL     OW 2176   2.536   1.026   2.963 -0.0113 -0.4270 -0.4283
  726SOL    HW1 2177   2.501   1.045   2.869  1.7448  2.2954  3.4121
  726SOL    HW2 2178   2.635   1.002   2.968 -0.6071  2.1288 -1.2132
  727SOL     OW 2179   2.123   1.019   2.637  0.0728  0.4177  0.4220
  727SOL    HW1 2180   2.056   1.093   2.621 -2.9183 -0.5091  1.3496
  727SOL    HW2 2181   2.204   1.029   2.575 -0.0120 -1.7218  2.8057
  728SOL     OW 2182   1.883   2.202   1.185 -0.9297 -0.1123  0.0584
  728SOL    HW1 2183   1.789   2.233   1.217 -0.9428  1.1150  2.6843
  728SOL    HW2 2184   1.874   2.105   1.144 -1.5792 -1.4269  0.7029
  729SOL     OW 2185   1.789   1.018   2.013 -0.2068 -0.9182  0.0552
  729SOL    HW1 2186   1.887   0.993   2.008 -2.6411  0.7927  1.0989
  729SOL    HW2 2187   1.770   1.120   2.005 -4.6530  1.7863 -1.5694
  730SOL     OW 2188   1.181   0.420   0.864  0.0360  0.2777  0.3050
  730SOL    HW1 2189   1.220   0.493   0.919  1.5992  0.7737  1.8062
  730SOL    HW2 2190   1.252   0.371   0.811 -2.5811  0.7558  0.0646
  731SOL     OW 2191   0.787   0.738   2.911  0.4390 -0.0136 -0.4629
  731SOL    HW1 2192   0.824   0.786   2.833  0.3136  0.9269  0.6676
  731SOL    HW2 2193   0.704   0.788   2.945 -1.6679 -0.9847 -0.8606
  732SOL     OW 2194   0.593   0.850   0.541  0.1870  0.3796 -0.5303
  732SOL    HW1 2195   0.690   0.861   0.514 -1.2767  0.7403  0.5539
  732SOL    HW2 2196   0.569   0.910   0.619 -0.1844 -0.3607 -0.6203
  733SOL     OW 2197   1.354   1.536   2.276  0.4795  0.3061 -0.3972
  733SOL    HW1 2198   1.333   1.603   2.348 -0.3301 -2.6649  0.2964
  733SOL    HW2 2199   1.304   1.558   2.191  1.6750  0.5762  1.8276
  734SOL     OW 2200   0.240   2.348   2.970 -0.0091 -0.2172 -0.4502
  734SOL    HW1 2201   0.178   2.300   2.900 -1.1530  1.6789 -4.4869
  734SOL    HW2 2202   0.334   2.346   2.933  1.4495 -0.9167  2.1268
  735SOL     OW 2203   2.495   0.445   0.857  0.7409  0.1689 -0.2610
  735SOL    HW1 2204   2.412   0.508   0.838  0.1922  0.7406 -0.4682
  735SOL    HW2 2205   2.535   0.409   0.769 -1.0789 -2.3334  0.5563
  736SOL     OW 2206   2.260   1.583   2.357  0.3411  0.4121  0.2578
  736SOL    HW1 2207   2.309   1.581   2.445 -0.8768  0.7991 -1.9583
  736SOL    HW2 2208   2.244   1.679   2.332 -0.4569 -2.5211  0.8645
  737SOL     OW 2209   0.171   0.725   0.345 -0.5937 -0.0517 -0.1966
  737SOL    HW1 2210   0.104   0.803   0.327 -1.0221  0.0650 -0.5530
  737SOL    HW2 2211   0.129   0.630   0.328 -1.3107  0.5087  1.5802
  738SOL     OW 2212   0.994   1.913   1.293  0.2244 -0.1256 -0.0356
  738SOL    HW1 2213   1.008   1.833   1.349 -2.3909  1.5860  0.1961
  738SOL    HW2 2214   0.907   1.960   1.312  1.6968 -1.6049 -3.8643
  739SOL     OW 2215   1.399   2.862   2.023  0.3150  0.4969 -0.1510
  739SOL    HW1 2216   1.492   2.828   2.048 -0.6403 -1.5504 -0.3253
  739SOL    HW2 2217   1.406   2.940   1.958  0.1353  1.0261  0.2730
  740SOL     OW 2218   2.109   2.541   1.530  0.0925 -0.3487  0.2888
  740SOL    HW1 2219   2.139   2.448   1.529 -0.5124 -0.5451  0.0180
  740SOL    HW2 2220   2.178   2.614   1.554  1.1053  2.4746  1.4012
  741SOL     OW 2221   2.313   0.530   0.165  0.3299  0.0501  0.1609
  741SOL    HW1 2222   2.342   0.465   0.094 -0.4367 -0.7574 -0.1603
  741SOL    HW2 2223   2.210   0.508   0.182 -3.1240 -0.5745  1.2837
  742SOL     OW 2224   1.280   2.420   3.024 -0.5193  0.1195  0.5064
  742SOL    HW1 2225   1.326   2.332   3.011  0.1920  0.6800 -0.6452
  742SOL    HW2 2226   1.255   2.465   2.938  1.4712 -0.2710  0.5348
  743SOL     OW 2227   2.577   1.099   2.177 -0.3776  0.2606 -0.5421
  743SOL    HW1 2228   2.633   1.032   2.228  2.2742  0.4557  0.9743
  743SOL    HW2 2229   2.529   1.154   2.246 -0.0649  0.5334 -0.4898
  744SOL     OW 2230   2.810   0.052   0.325 -0.2201 -0.0235 -0.8755
  744SOL    HW1 2231   2.875   0.049   0.247  1.5744 -0.9250 -0.5567
  744SOL    HW2 2232   2.711   0.060   0.294  0.4426 -1.0972 -0.2350
  745SOL     OW 2233   2.222   1.411   1.404 -0.4130  0.1123  0.5396
  745SOL    HW1 2234   2.225   1.347   1.484  3.4321 -2.4687  0.7629
  745SOL    HW2 2235   2.309   1.462   1.399 -1.7712  2.2924  2.1291
  746SOL     OW 2236   0.904   1.677   0.632  0.2007 -0.7175 -0.1637
  746SOL    HW1 2237   0.981   1.651   0.689 -3.4001 -0.1926 -2.1481
  746SOL    HW2 2238   0.912   1.643   0.534  0.2224  0.4716 -0.8549
  747SOL     OW 2239   1.047   1.600   1.647  0.0506 -0.3707 -0.5955
  747SOL    HW1 2240   1.120   1.537   1.624  0.7418  0.3711 -0.9862
  747SOL    HW2 2241   0.957   1.558   1.616  1.8588  0.9019  1.8554
  748SOL     OW 2242   0.294   2.970   0.001  0.0630  0.0441  0.1755
  748SOL    HW1 2243   0.232   2.942   0.079  0.6984 -3.5554  1.2205
  748SOL    HW2 2244   0.323   3.068   0.003  0.4301 -1.0022 -0.2740
  749SOL     OW 2245   0.028   0.997   2.752 -0.7517 -0.1988  0.1852
  749SOL    HW1 2246   3.046   1.080   2.773  0.9451  0.3684  0.6961
  749SOL    HW2 2247   0.064   0.989   2.657  2.8994  0.8402  0.5847
  750SOL     OW 2248   1.535   1.245   1.678  0.4920 -0.2808 -0.3461
  750SOL    HW1 2249   1.491   1.274   1.593  0.4698 -2.4369 -0.3020
  750SOL    HW2 2250   1.623   1.193   1.664 -0.3814  2.2331 -2.1298
  751SOL     OW 2251   2.735   0.708   0.367 -0.6235  0.1882 -0.2716
  751SOL    HW1 2252   2.784   0.727   0.276 -0.3206  3.3616 -3.5909
  751SOL    HW2 2253   2.635   0.723   0.351  0.0104 -0.8300  0.1804
  752SOL     OW 2254   2.653   2.690   1.039 -0.5953 -0.3823  0.4428
  752SOL    HW1 2255   2.684   2.772   1.085  1.4167 -0.9029  0.8586
  752SOL    HW2 2256   2.737   2.639   1.002  1.8425  2.1569  1.0469
  753SOL     OW 2257   0.792   2.305   1.184  0.5026  0.3800 -0.3951
  753SOL    HW1 2258   0.785   2.354   1.270 -1.6923  0.8058 -0.5651
  753SOL    HW2 2259   0.704   2.260   1.166  3.0623 -0.2381  0.4125
  754SOL     OW 2260   3.004   2.638   2.150 -0.0385  0.2918  0.1601
  754SOL    HW1 2261   2.954   2.682   2.230 -2.9953 -1.0378  1.6883
  754SOL    HW2 2262   3.040   2.710   2.089 -0.1587 -1.4745 -2.2904
  755SOL     OW 2263   2.460   0.695   3.024  0.4699  0.5099 -0.3713
  755SOL    HW1 2264   2.525   0.612   3.029 -0.7187 -1.0407 -1.6077
  755SOL    HW2 2265   2.400   0.695   0.031 -2.5642 -1.3357 -0.0382
  756SOL     OW 2266   1.927   2.348   0.162  0.0984  0.0271  0.3657
  756SOL    HW1 2267   1.995   2.411   0.108  1.9897  2.0842 -0.3630
  756SOL    HW2 2268   1.941   2.251   0.141  1.2803 -0.3998  1.0422
  757SOL     OW 2269   2.370   0.315   0.445 -0.3297 -0.5882 -0.1375
  757SOL    HW1 2270   2.311   0.288   0.524 -1.7669 -0.4478 -2.1223
  757SOL    HW2 2271   2.322   0.283   0.358  0.3053  1.0342 -2.7089
  758SOL     OW 2272   2.048   0.938   1.695  0.6547  0.1049  0.4033
  758SOL    HW1 2273   1.958   0.899   1.725 -2.4646 -0.8758 -2.3225
  758SOL    HW2 2274   2.118   0.865   1.705 -0.4384  0.1706  0.3095
  759SOL     OW 2275   2.698   0.580   1.241 -0.3625  0.6999 -0.1757
  759SOL    HW1 2276   2.609   0.628   1.244 -0.0225  1.8611  0.6762
  759SOL    HW2 2277   2.717   0.551   1.143 -2.0133  1.9933 -0.3557
  760SOL     OW 2278   0.531   1.256   1.335 -0.2146 -0.7576 -0.0233
  760SOL    HW1 2279   0.606   1.227   1.403  1.4978 -2.2657  1.8085
  760SOL    HW2 2280   0.446   1.242   1.383  2.4152  0.6800 -2.0376
  761SOL     OW 2281   1.098   0.638   0.024  0.4983  0.0966 -0.0489
  761SOL    HW1 2282   1.048   0.585   3.029  1.2818  1.1145  1.5438
  761SOL    HW2 2283   1.090   0.737   0.012 -0.1909 -0.5980 -1.5223
  762SOL     OW 2284   1.021   1.887   1.588  0.5012 -0.2055  0.0448
  762SOL    HW1 2285   1.014   1.802   1.639  1.9404 -0.3730 -1.5739
  762SOL    HW2 2286   0.946   1.949   1.613  1.3774 -1.5533 -2.5548
  763SOL     OW 2287   0.951   0.749   1.417 -0.4512  0.2035  0.0096
  763SOL    HW1 2288   0.937   0.845   1.386  0.1892 -2.3793 -0.8624
  763SOL    HW2 2289   0.916   0.680   1.346  0.2563 -2.5977  0.3206
  764SOL     OW 2290   0.144   2.788   2.910  0.4833 -0.1772 -0.1712
  764SOL    HW1 2291   0.199   2.858   2.961 -1.0341 -0.8268 -0.9630
  764SOL    HW2 2292   0.093   2.720   2.977 -0.0584 -1.9988  1.9440
  765SOL     OW 2293   0.685   2.896   1.713 -0.4064  0.3680  0.3769
  765SOL    HW1 2294   0.620   2.927   1.780  2.0001  0.2931 -0.8737
  765SOL    HW2 2295   0.683   2.958   1.635 -2.1910  0.6591  3.8271
  766SOL     OW 2296   2.657   1.823   2.235 -1.0249  0.3117 -0.5658
  766SOL    HW1 2297   2.567   1.866   2.219  1.4075 -1.3242 -0.5903
  766SOL    HW2 2298   2.718   1.872   2.296 -1.1596 -1.8408 -3.4804
  767SOL     OW 2299   1.480   1.315   2.388 -0.4348 -0.0510  0.2903
  767SOL    HW1 2300   1.462   1.323   2.487 -1.4460  2.1595  0.3931
  767SOL    HW2 2301   1.440   1.401   2.340 -0.6620  2.5378  0.9464
  768SOL     OW 2302   1.702   1.594   0.385 -1.1399 -0.2546  0.3499
  768SOL    HW1 2303   1.711   1.643   0.479  1.3348  0.7920  0.5849
  768SOL    HW2 2304   1.781   1.607   0.324  2.3069 -0.3165 -3.6609
  769SOL     OW 2305   0.414   1.509   0.711 -0.0131  0.5406  0.2767
  769SOL    HW1 2306   0.363   1.594   0.683 -1.6355  0.1176  0.5194
  769SOL    HW2 2307   0.515   1.525   0.718  0.1959 -2.4046  2.8123
  770SOL     OW 2308   1.483   1.054   2.328 -0.5422  0.1514 -0.0914
  770SOL    HW1 2309   1.576   1.005   2.337  1.2821 -2.1365 -2.6303
  770SOL    HW2 2310   1.501   1.154   2.330  1.0464  1.2152  1.0005
  771SOL     OW 2311   2.641   0.053   2.354  0.1410 -0.1011 -0.0807
  771SOL    HW1 2312   2.563   0.122   2.352 -1.6617  0.0086 -0.6704
  771SOL    HW2 2313   2.615   3.048   2.409 -0.8790 -1.8692  0.8536
  772SOL     OW 2314   2.438   1.963   2.147 -0.2206 -0.4136 -0.0713
  772SOL    HW1 2315   2.382   1.882   2.112  0.8721  0.6601 -1.6924
  772SOL    HW2 2316   2.482   2.005   2.061  1.6901 -0.7922 -2.6025
  773SOL     OW 2317   0.823   1.464   1.564  0.3401 -0.1489  0.6402
  773SOL    HW1 2318   0.871   1.382   1.526  0.6018  2.3755 -1.9786
  773SOL    HW2 2319   0.733   1.478   1.523  0.6663  0.0282 -1.8321
  774SOL     OW 2320   1.344   0.826   2.871 -0.1876 -0.3325  0.2378
  774SOL    HW1 2321   1.242   0.838   2.858 -1.8983  3.2935 -1.9164
  774SOL    HW2 2322   1.382   0.772   2.793  1.8934  0.0281 -1.5164
  775SOL     OW 2323   1.428   2.177   3.023 -0.2522 -0.3556 -0.1017
  775SOL    HW1 2324   1.515   2.197   3.074 -2.7655  0.3276  1.7564
  775SOL    HW2 2325   1.380   2.097   3.060  0.9448 -0.0315 -0.9521
  776SOL     OW 2326   3.061   1.192   1.535 -0.3969 -0.7245 -0.3275
  776SOL    HW1 2327   3.016   1.108   1.571 -1.9058 -1.6551 -0.1661
  776SOL    HW2 2328   3.064   1.261   1.612 -0.3178  1.8048  0.2484
  777SOL     OW 2329   2.471   2.296   2.091 -0.7240 -0.2000 -0.2869
  777SOL    HW1 2330   2.540   2.341   2.151  1.2166  0.0035 -0.7868
  777SOL    HW2 2331   2.507   2.207   2.051  0.7210  0.5702 -3.6657
  778SOL     OW 2332   1.745   1.276   1.970  0.0093 -0.2786  0.4825
  778SOL    HW1 2333   1.683   1.345   1.928  1.6441  1.6217 -1.8714
  778SOL    HW2 2334   1.840   1.303   1.944 -1.0907 -1.2144 -1.5056
  779SOL     OW 2335   2.715   1.055   0.247  0.3064 -0.1553 -0.4247
  779SOL    HW1 2336   2.729   0.981   0.178  0.2713 -1.0491  0.3980
  779SOL    HW2 2337   2.624   1.100   0.242  0.7712 -0.1036 -1.9972
  780SOL     OW 2338   2.046   2.910   2.598 -0.6110 -0.1056  0.2557
  780SOL    HW1 2339   1.974   2.952   2.540  3.7763 -2.5597 -0.4412
  780SOL    HW2 2340   2.119   2.979   2.622 -1.1446  3.1337 -0.8396
  781SOL     OW 2341   2.839   1.680   1.298 -0.4191  0.2896 -0.3608
  781SOL    HW1 2342   2.880   1.705   1.208 -0.5405  0.5108  2.3947
  781SOL    HW2 2343   2.890   1.597   1.326 -0.1529  0.5012  0.9350
  782SOL     OW 2344   2.919   2.146   3.058  0.2132 -0.2407  0.9650
  782SOL    HW1 2345   2.853   2.172   0.056  1.6167  1.5923 -1.3129
  782SOL    HW2 2346   2.866   2.109   2.975 -0.3804 -0.4262 -1.0876
  783SOL     OW 2347   0.675   1.527   0.745 -0.1046  0.1505  0.0838
  783SOL    HW1 2348   0.734   1.440   0.747  0.3886 -0.1664 -1.0259
  783SOL    HW2 2349   0.728   1.609   0.730 -2.4964  2.2104  1.4099
  784SOL     OW 2350   2.487   1.208   0.228  0.5991  0.3524 -0.4155
  784SOL    HW1 2351   2.452   1.241   0.134  0.0478  1.6688  0.3464
  784SOL    HW2 2352   2.506   1.287   0.288  0.1625 -2.5938  0.0515
  785SOL     OW 2353   2.045   2.648   0.431 -0.5447 -0.5794 -0.0085
  785SOL    HW1 2354   2.092   2.670   0.518  2.3862 -3.2307 -1.9514
  785SOL    HW2 2355   1.979   2.572   0.429 -0.6230 -0.4202 -1.0127
  786SOL     OW 2356   0.570   2.188   2.696  0.0072  0.1919  0.3310
  786SOL    HW1 2357   0.520   2.166   2.614  2.0629 -0.0258  0.5347
  786SOL    HW2 2358   0.657   2.139   2.696  0.9796 -0.1417  1.5752
  787SOL     OW 2359   1.567   0.472   1.202  0.0754  0.3093  0.3240
  787SOL    HW1 2360   1.463   0.469   1.187 -1.5560 -1.1223  2.3243
  787SOL    HW2 2361   1.612   0.493   1.117  1.9788  1.1123  2.1415
  788SOL     OW 2362   0.613   0.922   0.181  0.4262 -0.5924 -0.4748
  788SOL    HW1 2363   0.592   0.909   0.082  1.2781 -0.3713 -1.8823
  788SOL    HW2 2364   0.530   0.966   0.228 -0.4673  3.0247  1.0949
  789SOL     OW 2365   2.776   1.927   1.398  0.2791 -0.1127  0.4261
  789SOL    HW1 2366   2.804   1.830   1.376  1.7205  0.6053  1.3736
  789SOL    HW2 2367   2.704   1.956   1.331  1.0907  0.2665 -0.3310
  790SOL     OW 2368   1.307   0.399   2.004  0.0429  0.2261 -0.2764
  790SOL    HW1 2369   1.340   0.397   2.104  0.2681  2.9551  1.3478
  790SOL    HW2 2370   1.227   0.336   1.994 -0.9256  1.7247  1.8035
  791SOL     OW 2371   1.075   0.426   0.233  0.1131  0.0813 -0.6681
  791SOL    HW1 2372   0.996   0.361   0.228  2.3338 -0.7269  0.5949
  791SOL    HW2 2373   1.084   0.467   0.140 -1.2011 -1.6299 -0.9435
  792SOL     OW 2374   1.474   2.975   1.569  0.5697  0.2593 -0.1326
  792SOL    HW1 2375   1.394   2.907   1.565 -0.8103  0.1461 -0.0211
  792SOL    HW2 2376   1.474   3.034   1.491 -0.4643 -3.7705  3.7462
  793SOL     OW 2377   0.797   2.932   0.842  0.2519 -0.4473  0.2114
  793SOL    HW1 2378   0.854   3.018   0.850  1.4946  1.6622 -1.1052
  793SOL    HW2 2379   0.844   2.857   0.888  0.0581 -0.5232  0.8774
  794SOL     OW 2380   0.504   1.188   2.051 -0.3291  0.7395 -0.0448
  794SOL    HW1 2381   0.493   1.197   2.150 -0.1870 -1.4186  0.8977
  794SOL    HW2 2382   0.418   1.212   2.000 -0.4813  0.6180  1.3887
  795SOL     OW 2383   2.990   1.547   2.377 -0.0307  0.5427  0.2728
  795SOL    HW1 2384   3.025   1.640   2.357  1.7735 -0.3629  0.8926
  795SOL    HW2 2385   2.964   1.507   2.286  0.1081  1.9373  1.3782
  796SOL     OW 2386   2.026   1.322   1.930  0.4735 -0.2124  0.0969
  796SOL    HW1 2387   2.081   1.246   1.886  0.6678 -1.6908 -1.2660
  796SOL    HW2 2388   2.072   1.351   2.019 -1.0395 -2.3266  0.8600
  797SOL     OW 2389   0.138   0.127   2.654  0.1384  0.0269 -0.2602
  797SOL    HW1 2390   0.102   0.104   2.562  2.6532 -2.4994 -1.7942
  797SOL    HW2 2391   0.075   0.085   2.724  0.8630  1.2840  1.7593
  798SOL     OW 2392   0.151   2.108   2.007  0.5664  0.0305 -0.1248
  798SOL    HW1 2393   0.096   2.159   1.936 -0.1607  0.3635 -1.5686
  798SOL    HW2 2394   0.251   2.124   1.987  0.6777  1.4167  0.9640
  799SOL     OW 2395   2.765   2.278   0.201 -0.1844 -0.3668 -0.2998
  799SOL    HW1 2396   2.716   2.277   0.289 -1.2848 -1.2941 -4.4883
  799SOL    HW2 2397   2.766   2.372   0.166  0.1734 -1.5370 -2.0310
  800SOL     OW 2398   1.119   1.626   0.844  0.2236 -0.0575  0.7252
  800SOL    HW1 2399   1.132   1.693   0.920 -2.2900 -2.1976 -0.1098
  800SOL    HW2 2400   1.205   1.617   0.788 -2.7233 -1.9171 -1.5968
  801SOL     OW 2401   2.518   0.719   0.659 -0.5082  0.0668  0.0454
  801SOL    HW1 2402   2.435   0.689   0.702  0.5325  0.0501 -2.1895
  801SOL    HW2 2403   2.507   0.696   0.560  0.2529  1.1776 -1.7633
  802SOL     OW 2404   2.486   1.484   0.365 -0.1181  0.3928 -0.1262
  802SOL    HW1 2405   2.507   1.549   0.290  1.1610  0.9749  0.2076
  802SOL    HW2 2406   2.535   1.510   0.451  0.4210 -0.9181 -0.3060
  803SOL     OW 2407   1.372   1.746   2.997 -0.1924 -0.2622 -0.2351
  803SOL    HW1 2408   1.461   1.778   2.973 -3.7851  1.3499  1.0938
  803SOL    HW2 2409   1.326   1.818   3.052 -1.8768  1.2736  0.9064
  804SOL     OW 2410   1.970   2.090   0.148  0.1273  0.3858 -0.7531
  804SOL    HW1 2411   1.881   2.053   0.131  1.7918  1.9642 -0.8331
  804SOL    HW2 2412   2.037   2.032   0.106 -1.6595  1.3989  0.4446
  805SOL     OW 2413   2.654   1.407   2.709  0.0003  0.3500 -0.6827
  805SOL    HW1 2414   2.578   1.468   2.673 -1.3990  1.4974  0.0858
  805SOL    HW2 2415   2.742   1.456   2.703 -0.2802 -0.4856  0.6795
  806SOL     OW 2416   0.608   0.566   0.637  0.0255 -0.6160  0.6399
  806SOL    HW1 2417   0.638   0.531   0.545  0.1586  1.2897 -0.7406
  806SOL    HW2 2418   0.599   0.667   0.631 -0.0059 -2.7810 -0.3369
  807SOL     OW 2419   2.341   1.290   2.687  0.1420  0.3105  0.3645
  807SOL    HW1 2420   2.294   1.302   2.777 -3.3751  2.6655  1.1711
  807SOL    HW2 2421   2.358   1.192   2.678 -3.2355 -0.0668 -1.1778
  808SOL     OW 2422   0.181   1.411   0.397 -0.4931 -0.5621  0.3293
  808SOL    HW1 2423   0.126   1.340   0.444  0.1608 -1.0286 -0.1013
  808SOL    HW2 2424   0.204   1.485   0.461  2.5477  0.8469 -0.0902
  809SOL     OW 2425   2.490   0.765   2.775 -0.0588 -0.1061 -0.3005
  809SOL    HW1 2426   2.483   0.746   2.877  0.3442  1.4359 -0.6404
  809SOL    HW2 2427   2.491   0.868   2.758 -1.9813 -0.1640  0.8406
  810SOL     OW 2428   1.195   1.062   0.429  0.2311 -0.6126 -0.4780
  810SOL    HW1 2429   1.283   1.030   0.385 -2.2144 -1.1269  0.3726
  810SOL    HW2 2430   1.141   1.116   0.357 -0.0637  0.3142 -1.6343
  811SOL     OW 2431   1.491   2.361   0.786 -0.5043 -0.5230 -0.1341
  811SOL    HW1 2432   1.405   2.419   0.791 -2.6338 -1.8602  0.2817
  811SOL    HW2 2433   1.502   2.319   0.696  1.7805 -0.5614  1.6704
  812SOL     OW 2434   0.284   2.519   1.341  0.3067 -0.0393 -0.1972
  812SOL    HW1 2435   0.253   2.430   1.378 -1.8466  1.7327  0.2726
  812SOL    HW2 2436   0.366   2.558   1.385  2.7102  0.6280 -1.7035
  813SOL     OW 2437   1.184   0.080   1.784  0.0350  0.2125 -0.4173
  813SOL    HW1 2438   1.107   0.017   1.781  3.0123  0.2718  2.5210
  813SOL    HW2 2439   1.154   0.164   1.832 -0.7209 -2.3272 -0.3980
  814SOL     OW 2440   1.393   0.038   2.479 -0.0960  0.4061 -0.1635
  814SOL    HW1 2441   1.471   3.056   2.457 -0.3105 -1.3910  2.1634
  814SOL    HW2 2442   1.396   0.120   2.417 -2.0928 -1.8546  0.5271
  815SOL     OW 2443   0.469   0.277   1.778 -0.5093  0.3212  0.0597
  815SOL    HW1 2444   0.422   0.231   1.701  0.7237 -1.9590  2.3693
  815SOL    HW2 2445   0.456   0.375   1.777  1.2242 -1.3030  0.4243
  816SOL     OW 2446   2.368   0.386   3.029 -0.2993  0.0927  0.1272
  816SOL    HW1 2447   2.466   0.368   3.039 -0.9821  1.7255 -0.1412
  816SOL    HW2 2448   2.353   0.392   2.929  2.3681  0.8932 -0.5325
  817SOL     OW 2449   1.856   0.375   2.698 -0.2608  0.3440 -0.1714
  817SOL    HW1 2450   1.886   0.460   2.654 -2.8941 -0.4134  1.5436
  817SOL    HW2 2451   1.780   0.332   2.640  1.4891  0.4703 -0.0023
  818SOL     OW 2452   2.037   0.423   0.284  0.0172  0.4233  0.7484
  818SOL    HW1 2453   2.030   0.325   0.308 -1.2583  1.2893  0.7737
  818SOL    HW2 2454   2.021   0.481   0.365 -1.0566 -2.1786  0.0912
  819SOL     OW 2455   2.276   1.519   0.071  0.0679  0.0533 -0.6089
  819SOL    HW1 2456   2.351   1.572   0.116  1.0776 -1.3609 -2.1865
  819SOL    HW2 2457   2.306   1.425   0.040 -1.1166 -1.6944  0.5373
  820SOL     OW 2458   2.999   1.990   0.195  0.9266  0.2908 -0.1305
  820SOL    HW1 2459   2.991   2.025   0.100  2.2036  2.0750 -0.9385
  820SOL    HW2 2460   2.907   1.974   0.235 -1.0854  2.2594  0.9773
  821SOL     OW 2461   2.972   2.728   1.187  0.0715 -0.1389 -0.0990
  821SOL    HW1 2462   2.988   2.766   1.279 -3.0630  1.6895  0.4452
  821SOL    HW2 2463   2.974   2.801   1.114 -1.3938 -0.3990 -0.4169
  822SOL     OW 2464   2.715   2.544   2.634  0.4447 -0.1607  0.0097
  822SOL    HW1 2465   2.706   2.622   2.697  1.4098  0.7940 -4.8533
  822SOL    HW2 2466   2.632   2.537   2.573 -0.5089  0.0644 -1.5928
  823SOL     OW 2467   1.620   0.332   2.318 -0.1813  0.1288  0.0291
  823SOL    HW1 2468   1.530   0.321   2.269  0.9781 -3.0049 -0.9501
  823SOL    HW2 2469   1.620   0.295   2.412  2.0233  0.0866  1.7982
  824SOL     OW 2470   2.446   1.552   1.419  0.5385 -0.4635  0.6246
  824SOL    HW1 2471   2.458   1.646   1.464  0.5766  0.1331 -2.8188
  824SOL    HW2 2472   2.519   1.538   1.345 -0.5665  1.9314 -0.7060
  825SOL     OW 2473   2.856   1.981   2.397  0.4520 -0.7736  0.3128
  825SOL    HW1 2474   2.851   2.021   2.491  1.8897 -1.1607  1.4334
  825SOL    HW2 2475   2.846   2.069   2.339  0.7313  3.6386  0.9431
  826SOL     OW 2476   2.746   0.986   2.391 -0.3918 -0.4310  0.1007
  826SOL    HW1 2477   2.728   1.048   2.470  4.3224  0.6129  1.2522
  826SOL    HW2 2478   2.797   0.903   2.421  1.3931  2.3012  0.8626
  827SOL     OW 2479   2.450   2.581   1.430  0.5404  0.6415 -0.0668
  827SOL    HW1 2480   2.476   2.483   1.448  0.5025 -2.7088  0.5206
  827SOL    HW2 2481   2.401   2.624   1.512  1.0617  0.7952  0.4764
  828SOL     OW 2482   2.930   2.835   1.422  0.1961 -0.1515  0.0598
  828SOL    HW1 2483   2.936   2.912   1.491  2.6929  1.2007 -1.1236
  828SOL    HW2 2484   2.848   2.777   1.438  0.7308 -0.1630 -1.5270
  829SOL     OW 2485   1.661   2.171   2.341  0.3727  0.3568 -0.1278
  829SOL    HW1 2486   1.640   2.266   2.311  1.1842 -2.0781  0.1132
  829SOL    HW2 2487   1.693   2.168   2.439  0.8528  2.3780  1.4954
  830SOL     OW 2488   1.584   0.510   0.748  0.0036  0.0706  0.4341
  830SOL    HW1 2489   1.646   0.490   0.825 -2.1106  0.7091  0.9524
  830SOL    HW2 2490   1.625   0.492   0.655 -1.2793  0.7165  0.7675
  831SOL     OW 2491   2.768   1.356   0.747  0.2415  0.2654 -0.2272
  831SOL    HW1 2492   2.854   1.306   0.773 -0.4071  1.6195 -0.6318
  831SOL    HW2 2493   2.767   1.358   0.642  1.0883 -2.0704 -2.7892
  832SOL     OW 2494   1.580   2.400   1.969  0.0761  0.2638 -0.8764
  832SOL    HW1 2495   1.496   2.438   1.930 -0.2245  1.7331  1.8163
  832SOL    HW2 2496   1.641   2.365   1.894 -0.6625 -1.2862  2.1709
  833SOL     OW 2497   2.903   2.821   2.331 -0.1517 -0.0424  0.0849
  833SOL    HW1 2498   2.954   2.903   2.297  3.0599  1.2052 -1.3947
  833SOL    HW2 2499   2.902   2.821   2.434  1.4198  0.1279  2.3323
  834SOL     OW 2500   0.913   0.993   1.287  0.0612 -0.2319 -0.4564
  834SOL    HW1 2501   1.009   0.997   1.247  0.7548  1.2174 -1.6905
  834SOL    HW2 2502   0.851   0.950   1.214 -2.9305  1.0819 -2.0793
  835SOL     OW 2503   0.088   0.635   2.716 -0.6712 -0.1552  0.3834
  835SOL    HW1 2504   0.054   0.539   2.714 -2.0037  0.7199  0.8720
  835SOL    HW2 2505   0.056   0.676   2.802  0.6753 -1.3129  1.8705
  836SOL     OW 2506   1.033   2.288   1.085  0.5177 -0.2031 -0.1939
  836SOL    HW1 2507   0.938   2.306   1.120  2.1567 -2.0205 -1.9580
  836SOL    HW2 2508   1.103   2.333   1.143 -4.0258  1.7173  0.9207
  837SOL     OW 2509   2.034   0.896   1.025  0.1108  0.8056 -0.4090
  837SOL    HW1 2510   2.081   0.943   0.955 -2.3973 -1.1727  1.3542
  837SOL    HW2 2511   2.060   0.931   1.118  1.5500  0.4198 -0.8306
  838SOL     OW 2512   1.459   1.349   2.645  0.5585 -0.0139 -0.1878
  838SOL    HW1 2513   1.528   1.322   2.713 -0.4313 -0.7366 -1.5424
  838SOL    HW2 2514   1.369   1.371   2.685  2.2378 -0.9120 -1.3457
  839SOL     OW 2515   0.474   2.403   2.849  0.3658  0.2589 -0.0627
  839SOL    HW1 2516   0.490   2.317   2.794 -0.7462 -1.5285 -1.1318
  839SOL    HW2 2517   0.567   2.445   2.870  1.2855  1.9598 -0.5460
  840SOL     OW 2518   0.439   2.672   2.948  0.1407  0.5421  0.4086
  840SOL    HW1 2519   0.359   2.709   3.002 -1.0148 -1.0521  2.2791
  840SOL    HW2 2520   0.441   2.569   2.949  0.8139  1.3513 -0.5451
  841SOL     OW 2521   1.714   1.976   0.091 -0.0450 -0.0389  0.5096
  841SOL    HW1 2522   1.669   1.930   0.011 -3.7977  2.2120 -0.1413
  841SOL    HW2 2523   1.696   2.075   0.087  0.7013 -1.4637 -1.2518
  842SOL     OW 2524   1.321   1.043   2.566  0.1482  0.2900 -0.3428
  842SOL    HW1 2525   1.399   1.038   2.637 -1.9374 -2.5278  1.2951
  842SOL    HW2 2526   1.364   1.057   2.472 -0.2244 -2.4174  0.2942
  843SOL     OW 2527   1.483   2.689   0.690  0.3445 -0.3892 -0.4426
  843SOL    HW1 2528   1.561   2.643   0.646 -0.9362 -1.0592  0.4972
  843SOL    HW2 2529   1.462   2.777   0.644  0.2268 -2.4935  0.2314
  844SOL     OW 2530   2.327   2.697   2.510 -0.6350 -0.0227  0.5413
  844SOL    HW1 2531   2.236   2.674   2.478  2.1949 -1.2069 -1.1880
  844SOL    HW2 2532   2.321   2.716   2.614 -0.5031 -1.7292  0.4348
  845SOL     OW 2533   2.835   2.516   1.286 -0.3703  0.1501  0.2082
  845SOL    HW1 2534   2.886   2.575   1.224 -0.5126 -1.5753  1.6813
  845SOL    HW2 2535   2.762   2.571   1.329 -1.5835 -0.5126  1.5027
  846SOL     OW 2536   0.062   2.142   2.279  0.7308  0.1802  0.0174
  846SOL    HW1 2537   0.096   2.127   2.183  1.1753  0.9481 -2.2796
  846SOL    HW2 2538   0.120   2.109   2.354 -0.1863  1.0064  0.5146
  847SOL     OW 2539   1.704   0.357   1.556 -0.3944  0.2329  0.7749
  847SOL    HW1 2540   1.739   0.356   1.457 -1.2394 -3.6764 -1.2922
  847SOL    HW2 2541   1.752   0.287   1.606 -1.5583 -0.5796  1.6450
  848SOL     OW 2542   3.011   0.530   0.073  0.2703 -0.1943  0.4708
  848SOL    HW1 2543   0.007   0.517   0.143  1.2611 -0.5777 -2.9215
  848SOL    HW2 2544   2.933   0.466   0.102 -0.4057  1.5798  0.6780
  849SOL     OW 2545   0.897   0.508   2.983 -0.5011 -0.4835  0.3829
  849SOL    HW1 2546   0.861   0.603   2.959  0.1330  0.1225 -1.2487
  849SOL    HW2 2547   0.825   0.453   3.025  2.4415  2.8024 -0.2931
  850SOL     OW 2548   0.361   2.725   1.092 -0.1957 -0.3256 -0.5473
  850SOL    HW1 2549   0.261   2.696   1.102  1.1937  1.2438  1.6890
  850SOL    HW2 2550   0.368   2.819   1.055  0.4965 -1.2747  0.1130
  851SOL     OW 2551   2.012   0.321   2.396  0.0891  0.5899  0.3113
  851SOL    HW1 2552   1.993   0.384   2.317  1.6603  1.7734 -0.7589
  851SOL    HW2 2553   1.995   0.370   2.486 -0.6440  0.5078  3.5435
  852SOL     OW 2554   1.641   1.549   2.274  0.1035  0.3533 -0.2131
  852SOL    HW1 2555   1.654   1.530   2.371 -0.5330  0.0049  0.8439
  852SOL    HW2 2556   1.543   1.548   2.248 -0.8402  0.1667 -1.2032
  853SOL     OW 2557   3.046   2.830   0.559 -0.1543  0.1122  0.1728
  853SOL    HW1 2558   3.071   2.734   0.523 -0.6097  1.4197  0.8700
  853SOL    HW2 2559   2.973   2.835   0.629  2.8426 -0.3732 -0.9802
  854SOL     OW 2560   2.438   0.195   0.956  0.3999  0.7423  0.2483
  854SOL    HW1 2561   2.369   0.136   0.908 -0.0872 -2.4615 -1.9501
  854SOL    HW2 2562   2.460   0.278   0.902  0.3524  1.3151 -0.6518
  855SOL     OW 2563   1.264   2.055   0.636  0.0071  0.2740 -0.1434
  855SOL    HW1 2564   1.205   2.011   0.568  3.0859 -0.6157  2.4475
  855SOL    HW2 2565   1.207   2.088   0.710  1.4838 -0.7315 -3.0246
  856SOL     OW 2566   2.631   0.350   0.306 -0.0399  0.0479 -0.2047
  856SOL    HW1 2567   2.577   0.265   0.301  2.7463  1.0094  1.5822
  856SOL    HW2 2568   2.569   0.419   0.354 -0.4673 -0.1540  0.6042
  857SOL     OW 2569   1.820   2.713   1.722  0.1887 -1.0468 -0.2122
  857SOL    HW1 2570   1.781   2.666   1.807 -0.5351 -1.8967 -0.9342
  857SOL    HW2 2571   1.821   2.652   1.638 -2.0684  0.8785  0.1602
  858SOL     OW 2572   2.492   2.332   1.414 -0.1315  0.5096 -0.4583
  858SOL    HW1 2573   2.537   2.296   1.333 -2.1559  0.8637 -0.3438
  858SOL    HW2 2574   2.394   2.298   1.423 -0.4520 -0.3252  0.6924
  859SOL     OW 2575   1.083   2.413   0.682  0.5919 -0.0736 -0.0559
  859SOL    HW1 2576   0.994   2.448   0.707 -1.8660  2.7842 -0.6687
  859SOL    HW2 2577   1.160   2.465   0.729  0.2277 -1.5450 -0.4612
  860SOL     OW 2578   2.288   2.324   0.242  0.0030  0.4331 -0.2624
  860SOL    HW1 2579   2.272   2.422   0.262 -1.1756 -0.9593  0.9192
  860SOL    HW2 2580   2.216   2.269   0.284  1.5351 -1.2269 -1.2018
  861SOL     OW 2581   2.137   2.585   1.247  0.2788  0.0407 -0.4591
  861SOL    HW1 2582   2.227   2.618   1.211 -1.7852  0.1447  0.9423
  861SOL    HW2 2583   2.137   2.558   1.346 -0.2319 -1.3078 -0.3309
  862SOL     OW 2584   1.840   3.046   2.481 -0.0052  0.3388 -0.3645
  862SOL    HW1 2585   1.826   0.038   2.406  0.6632  0.3478 -0.7950
  862SOL    HW2 2586   1.822   0.010   2.570 -1.7098  1.2371 -1.3322
  863SOL     OW 2587   0.560   0.236   0.299  0.2032 -0.1262 -0.9324
  863SOL    HW1 2588   0.578   0.206   0.397  3.1951 -0.1208 -0.6337
  863SOL    HW2 2589   0.594   0.158   0.238 -1.1221 -0.3401 -1.2042
  864SOL     OW 2590   2.600   2.552   1.922  0.0560 -0.2719  0.0846
  864SOL    HW1 2591   2.656   2.595   1.843  2.6673 -0.0392 -0.2923
  864SOL    HW2 2592   2.523   2.608   1.948  2.5886 -2.2202  0.9167
  865SOL     OW 2593   0.051   2.177   2.833  0.2428 -0.0910 -0.0203
  865SOL    HW1 2594   0.117   2.104   2.844 -1.3106 -0.8772 -0.9443
  865SOL    HW2 2595   3.054   2.179   2.904 -0.1285 -0.2531  0.1972
  866SOL     OW 2596   2.498   0.378   2.757 -0.0031 -0.2332  0.0555
  866SOL    HW1 2597   2.565   0.451   2.730  0.0297  0.0447 -2.2153
  866SOL    HW2 2598   2.403   0.423   2.773 -0.8839  0.0875  1.1293
  867SOL     OW 2599   2.869   0.118   2.463 -0.0735  0.8682 -0.5481
  867SOL    HW1 2600   2.783   0.090   2.416 -2.8170 -0.8947  0.9705
  867SOL    HW2 2601   2.860   0.091   2.561 -3.3838 -0.2336  1.1664
  868SOL     OW 2602   0.882   2.614   0.794  0.8448 -0.6817  0.0293
  868SOL    HW1 2603   0.887   2.662   0.883 -1.6759 -0.9067  1.1989
  868SOL    HW2 2604   0.895   2.682   0.714 -0.4239 -0.0164 -0.5140
  869SOL     OW 2605   1.303   1.239   1.154 -0.3440  0.0874 -0.2496
  869SOL    HW1 2606   1.324   1.328   1.203  1.1980  0.2180  1.5926
  869SOL    HW2 2607   1.382   1.188   1.109  1.8207 -3.1601  0.7680
  870SOL     OW 2608   1.815   1.839   1.477 -0.6329  0.4426  0.2158
  870SOL    HW1 2609   1.819   1.930   1.523 -0.4773 -0.6592 -0.9019
  870SOL    HW2 2610   1.851   1.766   1.542  1.1119 -4.2632  0.2690
  871SOL     OW 2611   1.063   1.435   1.247  0.2036  0.0434  0.4391
  871SOL    HW1 2612   1.153   1.488   1.244  0.2940  0.1282  3.2580
  871SOL    HW2 2613   1.033   1.425   1.152  0.5667 -1.4030  1.7071
  872SOL     OW 2614   1.190   0.656   1.029  0.3996  0.6871  0.3348
  872SOL    HW1 2615   1.096   0.684   1.004  1.7333  0.2623 -1.2684
  872SOL    HW2 2616   1.257   0.726   1.007  0.6623 -2.2647  0.5979
  873SOL     OW 2617   1.676   0.727   2.580 -0.4166  0.0847 -0.2745
  873SOL    HW1 2618   1.728   0.755   2.663 -1.5555 -1.3317 -1.1125
  873SOL    HW2 2619   1.687   0.791   2.501  0.0368  0.8451 -0.1824
  874SOL     OW 2620   0.447   1.259   1.055  0.6687 -0.2122 -0.0050
  874SOL    HW1 2621   0.487   1.282   1.147 -0.5449 -0.6733 -0.8466
  874SOL    HW2 2622   0.402   1.341   1.011 -0.1267  1.0271 -0.2114
  875SOL     OW 2623   2.721   2.909   3.004 -0.7828  0.7129  0.1114
  875SOL    HW1 2624   2.696   2.879   2.911  0.6003  1.2931 -1.0642
  875SOL    HW2 2625   2.819   2.891   3.021 -1.1147 -1.0299  0.3232
  876SOL     OW 2626   0.975   0.624   2.566  0.2048  0.3517  0.3216
  876SOL    HW1 2627   1.051   0.559   2.555 -3.3897 -0.0555 -0.1196
  876SOL    HW2 2628   1.008   0.720   2.563 -1.1335 -1.3335 -0.6162
  877SOL     OW 2629   3.051   2.989   1.623  0.0785 -0.2522 -0.3163
  877SOL    HW1 2630   3.039   3.033   1.713  0.5697  0.2414 -1.6693
  877SOL    HW2 2631   3.041   3.054   1.546 -0.1164  0.4383  1.6021
  878SOL     OW 2632   1.807   2.313   2.835 -0.5562 -0.1844  0.5026
  878SOL    HW1 2633   1.751   2.394   2.865 -1.4289 -2.7301  0.2818
  878SOL    HW2 2634   1.880   2.338   2.764  1.7549  1.2919  1.2386
  879SOL     OW 2635   2.308   1.742   2.069  0.1288  0.1829 -0.1607
  879SOL    HW1 2636   2.235   1.743   2.136  0.0029 -0.4114 -1.4335
  879SOL    HW2 2637   2.311   1.650   2.024  0.2992 -0.5599  0.4386
  880SOL     OW 2638   0.693   0.908   1.125  0.6186 -0.0129  0.0686
  880SOL    HW1 2639   0.658   0.926   1.224 -1.1836  0.8253  0.3850
  880SOL    HW2 2640   0.659   0.822   1.088 -1.7875 -3.7113 -0.5101
  881SOL     OW 2641   1.195   1.584   0.165  0.1485  0.0660  0.6255
  881SOL    HW1 2642   1.210   1.663   0.228 -0.7220  1.0186 -0.8406
  881SOL    HW2 2643   1.217   1.493   0.208  1.4349  0.2652  1.7139
  882SOL     OW 2644   1.748   0.111   1.298 -0.1304  0.1896 -0.2449
  882SOL    HW1 2645   1.783   0.209   1.290  0.2446 -0.8755  1.9426
  882SOL    HW2 2646   1.759   0.064   1.208 -1.5134 -1.6752 -4.5284
  883SOL     OW 2647   1.715   0.729   2.156 -0.3154  0.3059 -0.2649
  883SOL    HW1 2648   1.628   0.729   2.101 -0.5584 -0.9380 -0.1606
  883SOL    HW2 2649   1.791   0.765   2.094  0.1244  0.8150 -1.7839
  884SOL     OW 2650   2.637   0.490   3.064 -0.1091  0.5487  0.2105
  884SOL    HW1 2651   2.701   0.459   2.987  0.7032  1.3050 -1.4089
  884SOL    HW2 2652   2.681   0.480   0.075  0.9236  0.0917  0.2559
  885SOL     OW 2653   1.138   2.190   0.839  0.0981  0.1634 -0.1525
  885SOL    HW1 2654   1.114   2.249   0.761  2.1605 -0.0828 -0.8462
  885SOL    HW2 2655   1.110   2.245   0.921 -0.9969 -0.7055  1.0795
  886SOL     OW 2656   1.481   1.053   2.774 -0.0998 -0.4366 -0.3818
  886SOL    HW1 2657   1.489   1.128   2.839  0.5342 -1.4665 -2.0711
  886SOL    HW2 2658   1.428   0.972   2.809 -3.1557 -4.4177 -0.4644
  887SOL     OW 2659   1.833   0.171   1.704 -0.3562  0.3953  0.3832
  887SOL    HW1 2660   1.791   0.187   1.794  2.6208  2.2008 -1.2551
  887SOL    HW2 2661   1.818   0.074   1.675 -0.2267  2.5436  1.6200
  888SOL     OW 2662   2.856   1.557   1.756  0.0368 -0.0798 -0.0843
  888SOL    HW1 2663   2.813   1.648   1.752  0.1839  0.1249 -0.6017
  888SOL    HW2 2664   2.806   1.487   1.703 -1.7854  0.6785  0.4493
  889SOL     OW 2665   2.843   2.564   0.905 -0.0144  0.7659  0.6990
  889SOL    HW1 2666   2.822   2.507   0.825  1.6214  1.1505  2.6835
  889SOL    HW2 2667   2.945   2.571   0.898  1.5091  1.3120 -0.1331
  890SOL     OW 2668   0.609   2.211   2.278 -0.0676  0.5851  0.2577
  890SOL    HW1 2669   0.684   2.190   2.216  0.2579  0.9337  1.6693
  890SOL    HW2 2670   0.567   2.293   2.251  2.4970 -2.1525 -3.2508
  891SOL     OW 2671   0.547   1.758   0.551  0.6581 -0.0121  0.2271
  891SOL    HW1 2672   0.594   1.828   0.490 -0.6038  3.1386 -0.8986
  891SOL    HW2 2673   0.448   1.759   0.528 -0.0462  0.4467 -0.1018
  892SOL     OW 2674   2.988   2.118   1.451  0.2785 -0.1254  0.1044
  892SOL    HW1 2675   3.055   2.076   1.517 -0.2621 -1.5218  1.3129
  892SOL    HW2 2676   2.916   2.048   1.437  0.9295 -0.2717  3.4333
  893SOL     OW 2677   0.128   0.449   1.664 -0.0718  0.4397  0.3372
  893SOL    HW1 2678   0.066   0.494   1.598  0.1390  0.0529  2.2177
  893SOL    HW2 2679   0.149   0.358   1.624 -0.9399 -0.4245 -2.0856
  894SOL     OW 2680   2.818   1.651   0.811 -0.2153  0.4808  0.1541
  894SOL    HW1 2681   2.890   1.698   0.756  1.9746 -1.9619  1.5988
  894SOL    HW2 2682   2.827   1.550   0.798  1.0418 -2.7931  2.8120
  895SOL     OW 2683   1.468   2.335   1.440  0.4001  0.2799 -0.1597
  895SOL    HW1 2684   1.425   2.281   1.512  1.1538  0.7056 -0.8251
  895SOL    HW2 2685   1.544   2.278   1.391  2.5875 -0.4158 -1.3090
  896SOL     OW 2686   0.672   0.318   1.287  0.2749  0.1940 -0.3212
  896SOL    HW1 2687   0.578   0.360   1.295 -1.0507 -0.0055  1.4138
  896SOL    HW2 2688   0.717   0.317   1.377 -0.6735 -0.0527 -0.1465
  897SOL     OW 2689   1.177   0.993   1.226  0.0003 -0.6018 -0.0293
  897SOL    HW1 2690   1.201   1.091   1.234  2.0530 -0.4270  1.5975
  897SOL    HW2 2691   1.219   0.959   1.137  2.4124 -0.7551 -0.1293
  898SOL     OW 2692   0.830   0.282   1.517  0.4563  0.8013  0.2241
  898SOL    HW1 2693   0.799   0.295   1.614  1.2955  0.8478  3.2562
  898SOL    HW2 2694   0.915   0.326   1.489 -2.8852  0.6327 -0.3852
  899SOL     OW 2695   1.485   0.219   0.278 -0.4866 -0.0498 -0.1578
  899SOL    HW1 2696   1.469   0.229   0.174  0.0173 -2.3483 -2.5816
  899SOL    HW2 2697   1.450   0.296   0.339 -0.2960  0.4808  1.2287
  900SOL     OW 2698   0.639   0.397   2.250 -0.5329  0.4113 -0.1656
  900SOL    HW1 2699   0.610   0.340   2.326 -1.8661 -2.0026 -0.0407
  900SOL    HW2 2700   0.563   0.423   2.187 -1.3736  3.5813  0.6294
  901SOL     OW 2701   0.683   1.885   0.344  0.0923  0.2792 -0.5520
  901SOL    HW1 2702   0.779   1.846   0.332 -0.9249  1.3392 -2.2422
  901SOL    HW2 2703   0.642   1.924   0.258 -0.3841 -0.2898  3.4513
  902SOL     OW 2704   1.946   0.257   0.905  0.1658  0.2324 -1.0490
  902SOL    HW1 2705   1.906   0.255   0.810 -0.5565  0.3299  1.7995
  902SOL    HW2 2706   1.935   0.166   0.956  1.6815 -0.9175 -1.2170
  903SOL     OW 2707   3.005   1.213   2.530 -0.3333 -0.2993 -0.4737
  903SOL    HW1 2708   0.004   1.279   2.531 -1.7438 -2.9467  0.8250
  903SOL    HW2 2709   2.925   1.237   2.470 -0.9156 -1.2362 -1.4862
  904SOL     OW 2710   1.692   1.240   0.560  0.2073 -0.5439  0.1832
  904SOL    HW1 2711   1.648   1.290   0.480 -0.0789 -0.9982 -0.2585
  904SOL    HW2 2712   1.626   1.221   0.633 -4.0013  2.0538 -0.8626
  905SOL     OW 2713   1.932   2.771   1.154  0.4069  0.3108  0.5281
  905SOL    HW1 2714   1.888   2.842   1.211 -0.1212  0.6146 -0.1034
  905SOL    HW2 2715   1.999   2.715   1.205 -2.1426  0.7300 -0.6847
  906SOL     OW 2716   2.067   2.778   0.898 -0.3457 -0.1674  0.4796
  906SOL    HW1 2717   2.002   2.758   0.980 -3.9024 -0.3827  1.2644
  906SOL    HW2 2718   2.163   2.804   0.927 -0.3992 -0.2812 -1.2599
  907SOL     OW 2719   2.098   1.025   0.394  0.6358  0.0190 -0.1204
  907SOL    HW1 2720   2.198   1.027   0.397  3.4635 -0.0723 -1.3376
  907SOL    HW2 2721   2.053   0.948   0.343 -2.3338 -2.6319  0.4103
  908SOL     OW 2722   1.791   0.388   1.294  0.0189 -0.1544  0.1698
  908SOL    HW1 2723   1.694   0.411   1.273  0.9543  0.5181  1.4275
  908SOL    HW2 2724   1.842   0.471   1.320  1.1923  1.3389 -2.0384
  909SOL     OW 2725   2.458   2.973   0.730  0.3803  0.5782 -0.2063
  909SOL    HW1 2726   2.526   3.039   0.769  2.9495 -1.9914  0.7221
  909SOL    HW2 2727   2.361   3.014   0.744 -0.8272 -1.2919 -0.1023
  910SOL     OW 2728   2.310   0.719   2.100 -0.0956  0.1139  0.3861
  910SOL    HW1 2729   2.269   0.632   2.132  2.2926  2.4124 -1.1866
  910SOL    HW2 2730   2.358   0.755   2.181  0.2318  0.7649 -0.0049
  911SOL     OW 2731   2.246   0.028   2.664  0.3752 -0.3093 -0.0261
  911SOL    HW1 2732   2.205   0.110   2.706  1.0150  2.2449 -0.9802
  911SOL    HW2 2733   2.330   3.064   2.714  1.5710 -1.1259 -2.1726
  912SOL     OW 2734   0.575   0.933   1.372  0.5190  0.0808  0.2700
  912SOL    HW1 2735   0.632   1.009   1.412  0.1647 -0.3330 -4.0316
  912SOL    HW2 2736   0.535   0.882   1.452  2.7544 -1.1755 -3.5126
  913SOL     OW 2737   2.893   2.267   1.234  0.0824  0.1324  0.5454
  913SOL    HW1 2738   2.864   2.361   1.264 -1.1139  0.6148  1.5356
  913SOL    HW2 2739   2.924   2.217   1.319  1.4780  0.1975 -0.0202
  914SOL     OW 2740   1.486   0.763   1.193 -0.2743  0.4199 -0.1767
  914SOL    HW1 2741   1.469   0.799   1.289  0.6211 -1.1063  1.9540
  914SOL    HW2 2742   1.503   0.662   1.195  0.5790 -1.6914  0.7493
  915SOL     OW 2743   0.185   1.573   1.443  0.1143 -0.3535 -0.7178
  915SOL    HW1 2744   0.254   1.564   1.366 -0.4007  0.1696  0.6323
  915SOL    HW2 2745   0.226   1.543   1.533  0.3434  2.2533 -0.9440
  916SOL     OW 2746   1.905   2.250   0.850  0.0547 -0.0427 -0.3534
  916SOL    HW1 2747   1.936   2.295   0.935 -1.3259  0.6738 -0.3472
  916SOL    HW2 2748   1.858   2.164   0.870  1.5096 -1.6460  1.1010
  917SOL     OW 2749   1.736   2.625   1.956 -0.1228  0.1163 -0.3690
  917SOL    HW1 2750   1.812   2.609   2.025 -2.1960 -0.6644  0.6136
  917SOL    HW2 2751   1.666   2.550   1.957  2.4309  0.9296  3.2886
  918SOL     OW 2752   2.083   1.956   2.474 -0.2227 -0.1278  0.3606
  918SOL    HW1 2753   2.052   2.047   2.446 -0.4535 -0.0737 -3.9390
  918SOL    HW2 2754   2.151   1.960   2.547  0.9747  1.0332 -1.9794
  919SOL     OW 2755   0.932   0.257   1.194  0.1376  0.0370 -0.4086
  919SOL    HW1 2756   0.835   0.278   1.222  2.5964 -2.6226 -2.2563
  919SOL    HW2 2757   0.995   0.264   1.272 -2.5558 -1.2246 -1.3109
  920SOL     OW 2758   2.912   0.423   2.085  0.2269 -0.1632 -0.0688
  920SOL    HW1 2759   2.957   0.346   2.036 -0.5691 -0.8067  1.2128
  920SOL    HW2 2760   2.974   0.489   2.135  1.2832  4.2079 -1.2189
  921SOL     OW 2761   2.699   1.137   1.460 -0.1467  0.4435 -0.0464
  921SOL    HW1 2762   2.779   1.100   1.516  0.2252 -0.9570 -0.7340
  921SOL    HW2 2763   2.611   1.151   1.515 -1.3767  0.7238 -1.3586
  922SOL     OW 2764   2.701   2.090   0.776 -0.4135  0.0447  0.4044
  922SOL    HW1 2765   2.614   2.134   0.798  6.6538  0.0727  0.4521
  922SOL    HW2 2766   2.766   2.157   0.734  0.6669  2.5157 -4.3804
  923SOL     OW 2767   0.264   2.287   0.573  0.2742 -0.3802 -0.3056
  923SOL    HW1 2768   0.307   2.299   0.485  1.5484  1.4300  0.1207
  923SOL    HW2 2769   0.316   2.350   0.634  0.6308 -0.1469 -0.7440
  924SOL     OW 2770   1.011   1.311   2.939 -0.0936 -0.8340  0.6312
  924SOL    HW1 2771   1.005   1.394   2.872  0.0843  1.4236 -1.0128
  924SOL    HW2 2772   0.977   1.218   2.904 -2.8185 -2.0879 -2.3046
  925SOL     OW 2773   3.018   1.240   0.829  0.3338  0.4298  0.1029
  925SOL    HW1 2774   3.065   1.306   0.888 -0.1786  0.2265  0.6958
  925SOL    HW2 2775   3.053   1.145   0.847 -0.7690  1.9336  1.2940
  926SOL     OW 2776   0.032   0.065   0.963 -0.0535  0.2749 -0.2750
  926SOL    HW1 2777   0.103   0.085   1.033 -0.5754 -0.4978 -0.9282
  926SOL    HW2 2778   0.023   3.043   0.936 -0.6064 -1.3798  2.0320
  927SOL     OW 2779   0.505   2.041   2.467  0.0520  0.4765 -0.1166
  927SOL    HW1 2780   0.413   1.999   2.472  1.7550  1.8277  4.2239
  927SOL    HW2 2781   0.518   2.084   2.374  0.0716  0.9225  0.5346
  928SOL     OW 2782   0.141   0.416   2.415 -0.6098 -0.2581  0.5387
  928SOL    HW1 2783   0.160   0.406   2.512  1.9513 -2.1748 -2.0151
  928SOL    HW2 2784   0.048   0.461   2.403  2.1443 -0.9369  1.6876
  929SOL     OW 2785   2.595   1.979   1.187  0.2980  0.0277 -0.4840
  929SOL    HW1 2786   2.582   2.077   1.162 -0.0394  2.6769  1.0366
  929SOL    HW2 2787   2.609   1.919   1.104  1.1828  0.7495 -0.8142
  930SOL     OW 2788   1.836   0.495   2.247 -0.4041  0.4372  0.3808
  930SOL    HW1 2789   1.751   0.448   2.277 -0.7802 -2.0640  0.3897
  930SOL    HW2 2790   1.802   0.587   2.214  0.1335  0.7569  1.9946
  931SOL     OW 2791   2.234   1.102   2.878  0.4196  0.2923  0.0498
  931SOL    HW1 2792   2.176   1.108   2.965  2.9529 -1.9727  1.8486
  931SOL    HW2 2793   2.191   1.068   2.790 -1.7886 -1.9585 -0.5054
  932SOL     OW 2794   1.756   0.847   0.526  0.0464 -0.4713 -0.0975
  932SOL    HW1 2795   1.728   0.773   0.458  1.1472 -0.8183  3.0384
  932SOL    HW2 2796   1.735   0.938   0.484 -2.7696 -1.8261  0.6642
  933SOL     OW 2797   2.098   1.010   0.771 -0.5788 -0.1179  0.3922
  933SOL    HW1 2798   2.178   1.043   0.724 -0.7484 -1.8585  0.5960
  933SOL    HW2 2799   2.016   1.055   0.735 -2.4282 -0.1459  1.3345
  934SOL     OW 2800   2.469   1.032   2.696 -0.4616  0.1698 -0.2573
  934SOL    HW1 2801   2.553   1.079   2.670  0.5283 -0.7303  1.8475
  934SOL    HW2 2802   2.419   1.010   2.609  1.4841  0.0786 -0.2158
  935SOL     OW 2803   0.067   1.400   1.023  0.4489  0.1168  0.0075
  935SOL    HW1 2804   0.038   1.488   1.066 -1.1766  1.7048 -1.4072
  935SOL    HW2 2805   0.077   1.329   1.097  0.5346 -1.7795  0.9095
  936SOL     OW 2806   3.051   0.109   0.156  0.0153 -0.4982 -0.0450
  936SOL    HW1 2807   0.057   0.118   0.215  0.1076  1.2530 -0.0074
  936SOL    HW2 2808   3.056   0.187   0.084 -0.3728 -0.9733 -2.3385
  937SOL     OW 2809   0.098   2.502   1.794 -0.1078  0.2112 -0.5251
  937SOL    HW1 2810   0.067   2.564   1.718 -0.9352  0.6281  0.4241
  937SOL    HW2 2811   0.050   2.415   1.780 -0.4939  0.5278  1.6970
  938SOL     OW 2812   2.496   2.106   0.183  0.2310 -0.0959  0.4138
  938SOL    HW1 2813   2.576   2.126   0.246  1.6689 -0.2161 -0.1076
  938SOL    HW2 2814   2.425   2.179   0.183 -2.0250 -1.1795 -2.6164
  939SOL     OW 2815   1.185   0.616   1.453  0.0671 -0.1515 -0.2066
  939SOL    HW1 2816   1.223   0.637   1.546 -1.1976 -0.2031 -1.8119
  939SOL    HW2 2817   1.087   0.643   1.445  1.7511 -1.2672 -0.6610
  940SOL     OW 2818   2.296   2.767   2.782  0.3282  0.1937 -0.3523
  940SOL    HW1 2819   2.208   2.797   2.830 -0.5080  1.6016  0.3314
  940SOL    HW2 2820   2.333   2.675   2.825  2.2427 -0.6921 -0.0171
  941SOL     OW 2821   2.521   2.719   2.235  0.6548 -0.5556 -0.1721
  941SOL    HW1 2822   2.490   2.801   2.177 -1.0993  2.2336 -2.7164
  941SOL    HW2 2823   2.472   2.636   2.205  0.8530 -0.8604 -1.1131
  942SOL     OW 2824   1.475   0.075   1.348 -0.7405 -0.2574  0.0974
  942SOL    HW1 2825   1.576   0.093   1.341  0.2725  1.0220 -0.1917
  942SOL    HW2 2826   1.432   0.151   1.292  0.4671  1.8300 -0.2952
  943SOL     OW 2827   1.034   1.444   2.489  0.3858 -0.1887  0.1491
  943SOL    HW1 2828   0.980   1.362   2.458 -0.5074 -1.3439 -0.7581
  943SOL    HW2 2829   1.036   1.515   2.419  0.4564 -0.6333  0.6221
  944SOL     OW 2830   2.894   0.778   1.364 -0.1159 -0.0889 -1.0642
  944SOL    HW1 2831   2.915   0.866   1.322 -0.4565 -1.9182  0.8817
  944SOL    HW2 2832   2.808   0.742   1.323 -0.3901 -2.1123  0.7065
  945SOL     OW 2833   2.826   0.073   2.735  0.0333 -0.2978  0.2987
  945SOL    HW1 2834   2.740   0.091   2.793 -1.1981 -1.3626 -1.0796
  945SOL    HW2 2835   2.912   0.067   2.788 -1.6392 -1.1889 -0.1344
  946SOL     OW 2836   3.003   1.485   1.396 -0.3857 -0.3793 -0.3553
  946SOL    HW1 2837   0.018   1.515   1.431  0.3134 -1.2971 -0.3327
  946SOL    HW2 2838   3.005   1.401   1.342 -0.9176  0.2765 -0.4889
  947SOL     OW 2839   0.538   0.418   2.884  0.4255  0.4161  0.3931
  947SOL    HW1 2840   0.576   0.476   2.810 -1.3887  3.2430 -0.1212
  947SOL    HW2 2841   0.520   0.324   2.851 -1.1838 -0.5145 -0.9765
  948SOL     OW 2842   2.119   1.535   1.144 -0.6267 -0.8753 -0.0984
  948SOL    HW1 2843   2.092   1.507   1.236  0.8684  5.2601  1.5797
  948SOL    HW2 2844   2.214   1.501   1.120  1.1034 -1.6679 -1.6860
  949SOL     OW 2845   0.266   0.976   2.896 -0.2200  0.5538  0.1326
  949SOL    HW1 2846   0.230   0.998   2.987 -1.6403 -0.5818  1.4962
  949SOL    HW2 2847   0.186   0.967   2.833 -0.4492  1.3524 -1.2113
  950SOL     OW 2848   0.360   3.015   1.372 -0.2025 -0.7102 -0.0290
  950SOL    HW1 2849   0.364   2.943   1.443 -0.5144  2.4839 -0.0892
  950SOL    HW2 2850   0.447   3.021   1.326 -3.0762 -0.8251  0.3690
  951SOL     OW 2851   0.857   2.128   2.727  0.0080 -0.5303  0.4763
  951SOL    HW1 2852   0.930   2.058   2.741 -1.1468  1.7102  2.9561
  951SOL    HW2 2853   0.896   2.216   2.760 -3.3551 -0.3816 -0.3976
  952SOL     OW 2854   0.741   1.204   0.505 -0.2138 -0.0131  0.0477
  952SOL    HW1 2855   0.776   1.112   0.541 -1.0081 -1.9249  1.1165
  952SOL    HW2 2856   0.797   1.230   0.421  0.5576 -0.0216 -0.7903
  953SOL     OW 2857   2.172   1.700   2.964  0.4525 -0.6116  0.2376
  953SOL    HW1 2858   2.233   1.720   2.890  2.6974 -2.1187  1.7799
  953SOL    HW2 2859   2.216   1.631   3.029  1.0378 -2.1147  0.1575
  954SOL     OW 2860   1.376   0.315   0.728  0.3904  0.0351 -0.3069
  954SOL    HW1 2861   1.445   0.386   0.751  0.9725  0.7844 -0.5045
  954SOL    HW2 2862   1.410   0.221   0.723  0.2205  0.4084  1.5726
  955SOL     OW 2863   0.986   1.619   3.061  0.3351  0.1775  0.2754
  955SOL    HW1 2864   0.971   1.718   3.074 -0.5233 -3.0332  0.4386
  955SOL    HW2 2865   1.044   1.590   0.065 -3.1116  0.3506 -0.7790
  956SOL     OW 2866   2.662   0.524   2.023 -0.0961 -0.0030  0.2346
  956SOL    HW1 2867   2.657   0.516   1.917 -1.8434  2.3415 -1.7372
  956SOL    HW2 2868   2.763   0.500   2.038  3.1913 -0.1351  1.0569
  957SOL     OW 2869   1.800   2.138   2.110  0.4007 -0.2962  0.1624
  957SOL    HW1 2870   1.837   2.042   2.119  0.6883 -0.0172  2.3690
  957SOL    HW2 2871   1.780   2.174   2.199 -1.0437 -1.9113 -1.5920
  958SOL     OW 2872   1.629   1.170   1.291  0.1242  0.6369  0.2212
  958SOL    HW1 2873   1.646   1.271   1.276 -2.2568 -0.5171 -2.6818
  958SOL    HW2 2874   1.611   1.131   1.196  1.2061  0.5409 -0.2999
  959SOL     OW 2875   1.580   2.052   1.956 -0.3914 -0.4450  0.0730
  959SOL    HW1 2876   1.556   1.965   2.005  2.5795  0.8001  0.0744
  959SOL    HW2 2877   1.654   2.100   2.004 -1.6682  1.0969  0.4431
  960SOL     OW 2878   0.577   1.304   2.555  0.3694 -0.0472 -0.1525
  960SOL    HW1 2879   0.607   1.344   2.642  0.9668 -3.1865  0.2952
  960SOL    HW2 2880   0.506   1.234   2.561  0.4650  1.4873  0.5158
  961SOL     OW 2881   2.925   1.195   2.861  0.1745  0.2826  0.0685
  961SOL    HW1 2882   2.999   1.253   2.819  0.7577 -0.0619  2.6106
  961SOL    HW2 2883   2.894   1.221   2.955 -0.5232 -0.4647  0.7283
  962SOL     OW 2884   0.861   1.881   0.040  0.6817  0.5442  0.3481
  962SOL    HW1 2885   0.911   1.857   0.125 -0.7413 -1.3366  0.1392
  962SOL    HW2 2886   0.918   1.949   3.067 -1.5539  1.8983  1.0449
  963SOL     OW 2887   2.777   1.596   3.063 -0.2477 -0.1833  0.1561
  963SOL    HW1 2888   2.874   1.566   3.039  1.7518  1.8351 -3.5464
  963SOL    HW2 2889   2.759   1.699   0.001  2.2853  1.7544 -0.5664
  964SOL     OW 2890   0.799   2.107   2.105 -0.2602 -0.0409  0.2750
  964SOL    HW1 2891   0.837   2.198   2.088 -0.1665 -2.1693  2.3046
  964SOL    HW2 2892   0.874   2.037   2.113 -0.7647  0.8549 -0.2981
  965SOL     OW 2893   1.574   1.857   1.327  0.1853  0.1356 -0.5628
  965SOL    HW1 2894   1.658   1.866   1.382 -0.0272 -2.2702 -0.0455
  965SOL    HW2 2895   1.550   1.756   1.338 -0.3418  2.9220  1.4174
  966SOL     OW 2896   2.859   1.494   0.250  0.1326  0.0683  0.0878
  966SOL    HW1 2897   2.959   1.480   0.232 -1.9030  1.1467 -1.9869
  966SOL    HW2 2898   2.809   1.516   0.165 -0.5383  0.7673 -0.5739
  967SOL     OW 2899   1.801   2.804   2.368 -0.1325  0.1008  0.4160
  967SOL    HW1 2900   1.812   2.899   2.412  1.3988  2.5107  0.6537
  967SOL    HW2 2901   1.784   2.806   2.268 -0.0388 -0.8059  0.9897
  968SOL     OW 2902   1.567   1.290   2.906 -0.2871 -0.2490 -0.0023
  968SOL    HW1 2903   1.659   1.332   2.887  2.7848 -0.6960  1.3060
  968SOL    HW2 2904   1.505   1.355   2.960  1.1623  0.7590 -0.8427
  969SOL     OW 2905   0.197   1.011   2.244 -0.1498  0.2379  0.0284
  969SOL    HW1 2906   0.138   1.013   2.163 -0.0291  1.8577  0.3744
  969SOL    HW2 2907   0.276   0.954   2.234 -0.3552  0.7314 -2.1242
  970SOL     OW 2908   2.550   0.088   0.252  0.1803  0.0956  0.7491
  970SOL    HW1 2909   2.472   0.052   0.307 -0.8047  1.2878 -0.6323
  970SOL    HW2 2910   2.523   0.092   0.154 -0.1122 -1.7548 -0.7376
  971SOL     OW 2911   2.090   1.930   0.870  0.0178  0.1741 -0.1281
  971SOL    HW1 2912   2.161   2.001   0.876  0.3267 -0.2792 -0.2917
  971SOL    HW2 2913   2.121   1.836   0.896  0.9670 -2.4928  1.5479
  972SOL     OW 2914   0.267   1.843   2.570 -0.0911  0.0415  0.3359
  972SOL    HW1 2915   0.263   1.777   2.493 -1.9605  2.5817  1.2484
  972SOL    HW2 2916   0.352   1.838   2.622 -0.7603 -0.0208 -1.7590
  973SOL     OW 2917   0.649   0.498   0.387 -0.1072  0.3167  0.1264
  973SOL    HW1 2918   0.619   0.409   0.351 -0.8473  1.7435  1.4623
  973SOL    HW2 2919   0.671   0.567   0.314  1.2231  0.4014 -2.2760
  974SOL     OW 2920   2.187   0.699   1.696 -0.1168 -0.4965  0.3207
  974SOL    HW1 2921   2.279   0.674   1.735  2.4672 -0.6534  0.4482
  974SOL    HW2 2922   2.113   0.639   1.729  0.1690 -0.8950 -0.4421
  975SOL     OW 2923   0.348   0.152   0.675 -0.3187  0.1157  0.5465
  975SOL    HW1 2924   0.310   0.057   0.672 -1.0765 -0.7994  1.6770
  975SOL    HW2 2925   0.419   0.154   0.605  1.1970 -1.6648  2.3312
  976SOL     OW 2926   0.546   1.481   1.478  0.4376  0.1594  0.4449
  976SOL    HW1 2927   0.532   1.403   1.414 -1.1350  1.5705 -0.0927
  976SOL    HW2 2928   0.552   1.556   1.412  0.5432 -2.5304  0.7747
  977SOL     OW 2929   1.406   2.050   0.258  0.3874  0.3240 -0.7164
  977SOL    HW1 2930   1.492   1.994   0.280  3.3319  0.6561  1.8901
  977SOL    HW2 2931   1.423   2.152   0.267  0.0401  3.3893 -2.2316
  978SOL     OW 2932   0.174   1.011   0.099 -0.3235 -0.2450  0.7050
  978SOL    HW1 2933   0.106   0.995   0.170 -0.7185 -1.1373  3.3606
  978SOL    HW2 2934   0.262   1.028   0.147 -0.1416  0.5306  1.2751
  979SOL     OW 2935   1.973   1.223   0.249  0.1195  0.0946 -0.1109
  979SOL    HW1 2936   2.004   1.318   0.260 -0.0037  0.6717 -1.5008
  979SOL    HW2 2937   2.014   1.162   0.316  0.2871  2.8325 -0.7981
  980SOL     OW 2938   0.747   1.824   1.864 -0.2932 -0.7381  0.0626
  980SOL    HW1 2939   0.739   1.725   1.866  1.4701  1.9376  1.4969
  980SOL    HW2 2940   0.679   1.872   1.924  0.3399 -0.0036 -0.3788
  981SOL     OW 2941   2.413   1.527   2.561  0.3894 -0.0059  0.3066
  981SOL    HW1 2942   2.476   1.501   2.478  1.3639 -1.9992 -1.2483
  981SOL    HW2 2943   2.387   1.442   2.612  0.3595  2.2364  0.2216
  982SOL     OW 2944   0.359   2.090   1.687 -0.3235 -0.2589 -0.4721
  982SOL    HW1 2945   0.340   2.164   1.621  2.0812 -0.6412  2.2783
  982SOL    HW2 2946   0.387   2.125   1.780  0.6214 -1.6448  1.0913
  983SOL     OW 2947   1.631   0.132   1.923 -0.0809 -0.0186  0.4575
  983SOL    HW1 2948   1.560   0.065   1.894  0.8438  0.2294 -1.0525
  983SOL    HW2 2949   1.598   0.225   1.902  2.4968 -1.3173  2.3943
  984SOL     OW 2950   0.009   0.051   2.876  0.0502  0.0148  0.7153
  984SOL    HW1 2951   0.018   0.133   2.938  0.1344 -0.4870 -1.0270
  984SOL    HW2 2952   0.002   3.040   2.931  2.4147 -1.2320 -0.7952
  985SOL     OW 2953   1.507   1.431   1.874 -0.7642 -0.2001 -0.0965
  985SOL    HW1 2954   1.505   1.377   1.788 -1.6603 -2.6918 -1.0834
  985SOL    HW2 2955   1.459   1.392   1.953  0.3229  3.4133 -1.1478
  986SOL     OW 2956   1.814   0.468   2.944 -0.1012 -0.0403 -0.1318
  986SOL    HW1 2957   1.890   0.452   3.011 -1.9851 -2.3427 -2.7274
  986SOL    HW2 2958   1.827   0.412   2.858  0.0984 -0.2572  0.9954
  987SOL     OW 2959   0.219   2.113   2.521  0.3542  0.0873 -0.3069
  987SOL    HW1 2960   0.287   2.173   2.563 -2.7521  3.1174  0.3137
  987SOL    HW2 2961   0.192   2.043   2.588 -0.2492 -0.0539 -2.0051
  988SOL     OW 2962   2.741   0.227   1.433 -0.1843  0.6221 -0.8272
  988SOL    HW1 2963   2.822   0.165   1.455  1.9664 -2.8767  0.4770
  988SOL    HW2 2964   2.731   0.213   1.332 -0.1395 -0.8238  1.9637
  989SOL     OW 2965   1.922   0.046   1.088  0.1352  0.0677  0.1220
  989SOL    HW1 2966   1.890   3.053   1.022 -2.1459 -1.7065  1.0961
  989SOL    HW2 2967   2.005   0.014   1.127 -1.8665 -0.6906 -1.2082
  990SOL     OW 2968   2.420   0.934   0.137 -0.2250  0.3513 -0.4315
  990SOL    HW1 2969   2.465   0.955   0.049  2.0670 -1.2802 -4.1615
  990SOL    HW2 2970   2.434   1.012   0.203  1.0914 -0.3414  0.8938
  991SOL     OW 2971   0.280   1.050   0.525  0.1432 -0.0052 -0.5974
  991SOL    HW1 2972   0.190   1.093   0.539 -0.0510  1.1200 -2.6639
  991SOL    HW2 2973   0.356   1.117   0.539  0.2873 -1.4143  2.2705
  992SOL     OW 2974   1.935   1.556   1.859  0.5317  0.2241  0.5233
  992SOL    HW1 2975   1.924   1.587   1.952 -1.4486  3.2149 -1.9318
  992SOL    HW2 2976   1.951   1.457   1.858 -1.2003  2.4311  0.3025
  993SOL     OW 2977   0.284   2.079   0.777  0.0342  0.4409 -0.3460
  993SOL    HW1 2978   0.369   2.024   0.762  2.3738 -2.0379  1.8927
  993SOL    HW2 2979   0.263   2.139   0.701 -0.7165 -1.4066  0.6437
  994SOL     OW 2980   3.072   1.764   1.658  0.3614 -0.1107 -0.5601
  994SOL    HW1 2981   2.975   1.747   1.691 -0.9933 -2.6009 -0.7769
  994SOL    HW2 2982   0.040   1.679   1.632  0.4115 -0.4476 -0.7329
  995SOL     OW 2983   1.905   1.647   2.847  0.1109  0.2313  0.4902
  995SOL    HW1 2984   1.910   1.695   2.759  1.1993 -2.3348  1.6162
  995SOL    HW2 2985   1.995   1.671   2.896 -0.0238 -1.8067  0.5540
  996SOL     OW 2986   1.870   2.450   0.433  0.1584  0.2213 -0.1289
  996SOL    HW1 2987   1.873   2.411   0.337 -1.4335 -1.1374 -0.3221
  996SOL    HW2 2988   1.877   2.369   0.503  2.7485 -2.2692  0.6445
  997SOL     OW 2989   1.403   1.708   1.915  0.0876 -0.1755  0.5199
  997SOL    HW1 2990   1.302   1.720   1.925 -0.3724  1.4613  1.6830
  997SOL    HW2 2991   1.424   1.613   1.889 -2.7164 -0.5348 -1.0507
  998SOL     OW 2992   3.058   2.323   0.528 -0.2118 -0.8012  0.2316
  998SOL    HW1 2993   3.027   2.284   0.436 -1.2071  1.8063 -0.8877
  998SOL    HW2 2994   0.082   2.302   0.550  0.9126 -1.6443 -0.4338
  999SOL     OW 2995   0.679   0.027   0.183 -0.9052  0.4311  0.2243
  999SOL    HW1 2996   0.615   3.022   0.175 -1.7576  0.0110 -0.2843
  999SOL    HW2 2997   0.742   0.029   0.098  3.4099  0.9471 -1.4993
 1000SOL     OW 2998   1.210   0.094   3.056  0.2735 -0.3112 -0.1921
 1000SOL    HW1 2999   1.191   0.151   2.975 -2.3791 -0.5067 -0.1104
 1000SOL    HW2 3000   1.300   0.117   0.016 -1.5237 -0.4944 -0.0039
   3.07606   3.07606   3.07606
