1000 SPC/Fw water molecules t=  96.00000 step= 96000
 3000
    1SOL     OW    1   1.811   2.516   0.602 -0.5646 -0.2649 -0.2533
    1SOL    HW1    2   1.730   2.460   0.624 -1.3405  0.5063 -1.6124
    1SOL    HW2    3   1.897   2.486   0.651  0.6537  0.9700  1.1215
    2SOL     OW    4   1.202   1.281   1.965 -0.5159  0.4648 -0.1824
    2SOL    HW1    5   1.229   1.295   2.057 -1.5996  1.1996 -1.3845
    2SOL    HW2    6   1.247   1.200   1.918 -0.0546 -1.0143  0.4455
    3SOL     OW    7   1.222   2.542   2.378 -0.5982 -0.4245  0.0029
    3SOL    HW1    8   1.310   2.545   2.322  0.2940 -1.8158 -0.9874
    3SOL    HW2    9   1.203   2.443   2.409  1.9324 -4.9829  3.0983
    4SOL     OW   10   1.366   1.876   2.485 -0.1455  0.1566 -0.0229
    4SOL    HW1   11   1.456   1.832   2.478  2.4962  2.0459 -1.6149
    4SOL    HW2   12   1.385   1.968   2.525  1.4668  1.5917  0.5962
    5SOL     OW   13   0.583   0.862   1.733  0.4914  0.3279 -0.0813
    5SOL    HW1   14   0.603   0.917   1.817  0.2881  0.0117 -1.3422
    5SOL    HW2   15   0.671   0.832   1.681  0.7872 -1.4977 -3.3504
    6SOL     OW   16   2.053   0.799   2.708 -0.0072  0.2677 -0.4058
    6SOL    HW1   17   1.994   0.816   2.626 -0.5563 -1.4787 -0.0046
    6SOL    HW2   18   2.148   0.770   2.683  1.3192 -3.9066  0.6816
    7SOL     OW   19   0.641   0.444   1.584  0.2726 -0.2044  0.5250
    7SOL    HW1   20   0.738   0.464   1.608  1.6862 -2.7446  1.1122
    7SOL    HW2   21   0.607   0.506   1.511 -1.0128 -2.9279 -0.1776
    8SOL     OW   22   1.882   3.066   1.983 -0.0088 -0.6080  0.0123
    8SOL    HW1   23   1.953   0.032   2.013 -0.8127 -1.3358 -1.1843
    8SOL    HW2   24   1.921   2.985   1.939 -0.0877 -2.8825  2.0938
    9SOL     OW   25   0.240   0.467   0.545  0.4327 -0.4796 -0.0234
    9SOL    HW1   26   0.275   0.392   0.603  0.7058  0.4251 -1.7728
    9SOL    HW2   27   0.251   0.559   0.590  0.0464  2.3716  0.2260
   10SOL     OW   28   0.529   2.073   2.418 -0.3150  0.7342  0.0679
   10SOL    HW1   29   0.561   2.162   2.382 -0.6286 -1.1089 -1.1837
   10SOL    HW2   30   0.524   2.081   2.521  0.8378  0.4742 -2.0576
   11SOL     OW   31   0.692   1.696   0.196  0.2566 -0.0090  0.2671
   11SOL    HW1   32   0.780   1.739   0.167  2.8832  1.1449 -0.7446
   11SOL    HW2   33   0.717   1.624   0.264  1.2085 -0.5775  0.6075
   12SOL     OW   34   3.096   2.837   1.448  0.5054  0.5346  0.2355
   12SOL    HW1   35   3.059   2.925   1.486  1.2605  0.2033 -0.8877
   12SOL    HW2   36   0.041   2.857   1.358 -0.4508 -1.3839  1.7841
   13SOL     OW   37   0.790   2.954   0.494 -0.3749 -0.0145  0.0792
   13SOL    HW1   38   0.890   2.967   0.514  0.4768 -0.3646 -0.6340
   13SOL    HW2   39   0.756   3.033   0.442  1.9351 -1.6263 -0.6688
   14SOL     OW   40   1.512   1.553   0.841 -0.5022  0.3728  0.1769
   14SOL    HW1   41   1.446   1.603   0.896  0.2310 -0.5299 -1.0358
   14SOL    HW2   42   1.581   1.510   0.904  2.3474 -0.1860 -0.0701
   15SOL     OW   43   2.980   1.575   2.477 -0.0135 -0.7941  0.4350
   15SOL    HW1   44   2.950   1.529   2.558 -1.2212  0.9651 -2.5769
   15SOL    HW2   45   3.001   1.673   2.497  1.0332 -1.4850  0.3165
   16SOL     OW   46   1.441   0.392   2.665  0.0281 -0.5414 -0.2822
   16SOL    HW1   47   1.416   0.452   2.749  0.8985  3.9169  2.5317
   16SOL    HW2   48   1.384   0.426   2.590 -1.4779 -3.2255  1.5290
   17SOL     OW   49   0.225   2.266   2.226  0.0597 -0.2184  0.3235
   17SOL    HW1   50   0.253   2.197   2.294 -0.9632  2.9252 -1.9666
   17SOL    HW2   51   0.146   2.241   2.168  1.7412 -0.4580 -0.0425
   18SOL     OW   52   1.191   1.486   0.463 -0.0823 -1.2576  0.1637
   18SOL    HW1   53   1.181   1.517   0.561 -0.3381 -0.6939 -0.0840
   18SOL    HW2   54   1.244   1.397   0.461  0.6497 -0.2872 -5.1202
   19SOL     OW   55   2.417   1.416   2.585  0.7217  0.1886  0.3886
   19SOL    HW1   56   2.448   1.339   2.641 -1.0604  3.6952  0.5474
   19SOL    HW2   57   2.316   1.423   2.576  0.1864  0.3076 -0.8084
   20SOL     OW   58   2.510   2.116   2.437 -0.1309 -0.0648 -0.1890
   20SOL    HW1   59   2.505   2.115   2.337 -1.7230  0.2810 -0.1062
   20SOL    HW2   60   2.576   2.190   2.469  1.7549  0.6432 -0.1388
   21SOL     OW   61   1.035   2.228   0.371  0.1054 -0.2355  0.3525
   21SOL    HW1   62   1.129   2.224   0.341 -1.4070  1.5391  0.4582
   21SOL    HW2   63   1.022   2.185   0.461 -1.3076  1.3367  2.2303
   22SOL     OW   64   2.289   2.192   1.364  0.5896  0.1123 -0.3743
   22SOL    HW1   65   2.309   2.291   1.361  0.2935  2.0554  1.3596
   22SOL    HW2   66   2.220   2.167   1.293  0.0066 -0.5415 -0.8047
   23SOL     OW   67   0.311   1.143   1.626 -0.0149  0.2207 -0.5012
   23SOL    HW1   68   0.356   1.169   1.714 -0.6392  2.3807 -1.8210
   23SOL    HW2   69   0.324   1.046   1.604 -0.0785 -0.8832  1.0796
   24SOL     OW   70   2.170   1.850   2.173 -0.3751  0.2174  0.6759
   24SOL    HW1   71   2.106   1.787   2.222 -1.2012  2.0877 -0.3731
   24SOL    HW2   72   2.267   1.825   2.189  1.2708 -0.3626 -1.4408
   25SOL     OW   73   1.912   0.551   2.308 -0.3622  0.0382 -0.1295
   25SOL    HW1   74   1.886   0.509   2.221 -0.8533  1.3803  0.2235
   25SOL    HW2   75   1.836   0.545   2.376 -0.5239 -0.2897  1.0873
   26SOL     OW   76   1.619   0.320   0.562  0.1196  0.8039  0.4958
   26SOL    HW1   77   1.591   0.409   0.531  2.4147 -3.0410  0.6284
   26SOL    HW2   78   1.717   0.300   0.540 -1.0709  0.6478 -1.1861
   27SOL     OW   79   0.853   1.806   0.555 -0.3634 -0.0362 -0.5354
   27SOL    HW1   80   0.817   1.865   0.487  1.1548 -0.8268  2.5152
   27SOL    HW2   81   0.791   1.726   0.581 -0.4699 -2.4521  0.6286
   28SOL     OW   82   2.605   1.860   1.191  0.0116 -0.2360  0.3987
   28SOL    HW1   83   2.591   1.764   1.212  0.5629  0.6369 -0.1663
   28SOL    HW2   84   2.520   1.896   1.144 -0.3853  1.0820  1.2488
   29SOL     OW   85   2.292   2.796   1.656  0.7540  0.6364  0.2473
   29SOL    HW1   86   2.197   2.840   1.648  0.2792 -0.3759 -2.4381
   29SOL    HW2   87   2.306   2.749   1.747  2.1174 -2.0414 -3.1907
   30SOL     OW   88   0.659   3.041   1.239 -0.1597 -0.2354  0.0066
   30SOL    HW1   89   0.743   3.013   1.201 -2.4753  0.7923  4.8615
   30SOL    HW2   90   0.657   0.040   1.243 -0.6898 -2.0394 -0.6735
   31SOL     OW   91   2.834   2.334   1.796  0.3231 -0.0805 -0.0341
   31SOL    HW1   92   2.928   2.317   1.816 -0.6015  1.8582  0.9190
   31SOL    HW2   93   2.827   2.427   1.754  1.6050  0.8178 -3.8160
   32SOL     OW   94   1.505   1.482   1.783 -0.2633 -0.5923  0.1148
   32SOL    HW1   95   1.444   1.538   1.723  3.2178 -0.3864  3.0831
   32SOL    HW2   96   1.598   1.490   1.743  2.2587 -1.8752 -0.6374
   33SOL     OW   97   0.201   0.262   3.013 -0.4504  0.1870  0.0817
   33SOL    HW1   98   0.289   0.317   3.022 -1.7101  4.1639 -0.9716
   33SOL    HW2   99   0.187   0.212   3.099  0.4822 -1.7284  1.2825
   34SOL     OW  100   2.249   3.098   0.907  0.0552 -0.0501  0.2065
   34SOL    HW1  101   2.259   0.065   0.977  2.0241 -3.1288 -2.0375
   34SOL    HW2  102   2.340   3.059   0.897  0.0639 -4.4183  1.5180
   35SOL     OW  103   2.527   0.110   1.611  0.1686 -0.3563 -0.2396
   35SOL    HW1  104   2.529   0.017   1.567 -1.3860 -0.7910  0.5267
   35SOL    HW2  105   2.589   0.112   1.697  0.5173  0.3594  1.1741
   36SOL     OW  106   2.613   2.695   2.652 -0.5920  0.1480 -0.1515
   36SOL    HW1  107   2.559   2.779   2.681 -0.6776 -0.0735  0.0178
   36SOL    HW2  108   2.712   2.716   2.675 -0.5632  0.0429  1.0155
   37SOL     OW  109   1.120   2.800   3.020 -0.1507 -0.5002 -0.6394
   37SOL    HW1  110   1.194   2.863   2.986  0.9586  0.7080 -1.6606
   37SOL    HW2  111   1.131   2.787   0.017 -0.1862  2.7514 -1.8480
   38SOL     OW  112   2.687   1.079   2.853 -0.4584 -0.2275 -0.4554
   38SOL    HW1  113   2.712   1.046   2.947  3.7610  0.7073 -0.4300
   38SOL    HW2  114   2.708   1.015   2.775 -1.6027 -2.2874 -0.6199
   39SOL     OW  115   2.277   2.071   2.053  0.3296 -0.1758 -0.8550
   39SOL    HW1  116   2.244   1.995   2.112 -0.6655  2.6162 -4.4158
   39SOL    HW2  117   2.209   2.147   2.053 -0.3517  1.5685 -0.1767
   40SOL     OW  118   0.366   0.232   2.577 -0.0191 -0.0874  0.5751
   40SOL    HW1  119   0.340   0.208   2.674 -0.7165  0.4332 -1.7229
   40SOL    HW2  120   0.464   0.257   2.565 -0.8772 -0.3705 -2.4280
   41SOL     OW  121   1.541   1.291   1.358 -0.2598  0.4327 -0.6062
   41SOL    HW1  122   1.456   1.241   1.379  2.7767 -1.3356  0.6013
   41SOL    HW2  123   1.611   1.274   1.432  0.5463 -0.0271  0.8135
   42SOL     OW  124   0.069   0.320   1.890  0.0616  0.2816 -0.2101
   42SOL    HW1  125   0.023   0.351   1.807 -0.2729 -1.0880  3.5101
   42SOL    HW2  126   3.098   0.318   1.967 -0.2869  2.0754  1.1233
   43SOL     OW  127   1.512   1.423   2.067  0.4403  0.3095 -0.3297
   43SOL    HW1  128   1.583   1.346   2.069 -1.1058 -2.1976 -0.4765
   43SOL    HW2  129   1.504   1.455   1.970  2.4322 -1.7133 -1.1607
   44SOL     OW  130   2.917   0.148   3.063 -0.6780 -0.1012 -0.3960
   44SOL    HW1  131   2.962   0.080   3.001 -1.0910  1.2252  2.1451
   44SOL    HW2  132   2.930   0.133   0.058  1.5610  0.4223  1.8203
   45SOL     OW  133   0.554   1.998   1.156 -0.1313  0.3376 -0.3889
   45SOL    HW1  134   0.526   2.075   1.216 -2.5047 -2.1260 -0.0425
   45SOL    HW2  135   0.501   1.916   1.171  0.3431  3.3453  1.3313
   46SOL     OW  136   2.415   2.591   1.800 -0.5511 -0.1909  0.1842
   46SOL    HW1  137   2.495   2.658   1.821  3.9494 -1.4644 -0.2486
   46SOL    HW2  138   2.445   2.510   1.747 -1.9770 -1.2177  0.1615
   47SOL     OW  139   0.888   1.821   1.336 -0.0833 -0.1029 -0.7180
   47SOL    HW1  140   0.913   1.773   1.416 -0.9826  1.2745 -0.4909
   47SOL    HW2  141   0.788   1.816   1.328  1.7908 -0.8048  0.2319
   48SOL     OW  142   0.428   2.543   0.236 -0.6580 -0.2928 -0.3850
   48SOL    HW1  143   0.376   2.486   0.301 -0.4335  0.8398 -0.6119
   48SOL    HW2  144   0.383   2.634   0.227 -2.3786 -1.2661  0.8661
   49SOL     OW  145   2.865   1.642   2.035 -0.1184  0.4226  0.1827
   49SOL    HW1  146   2.855   1.646   2.135  1.3013 -0.0059  0.0053
   49SOL    HW2  147   2.799   1.576   1.995  1.1800 -0.5347 -0.3762
   50SOL     OW  148   2.096   1.014   0.616 -0.5535  0.3221 -0.7707
   50SOL    HW1  149   2.046   0.983   0.529  0.1146  0.0010 -0.9345
   50SOL    HW2  150   2.089   0.955   0.697  1.5212  1.7559 -1.4428
   51SOL     OW  151   1.162   0.759   0.968 -0.4021  0.1698 -0.2493
   51SOL    HW1  152   1.088   0.795   1.026 -1.1591  0.2738 -1.3614
   51SOL    HW2  153   1.125   0.718   0.879  0.6312 -1.0789 -0.6393
   52SOL     OW  154   1.063   1.494   0.232  0.6969 -1.1514 -0.0166
   52SOL    HW1  155   1.119   1.476   0.316  3.1101 -3.1326 -0.5517
   52SOL    HW2  156   1.034   1.596   0.222 -2.6586  2.2690 -0.8250
   53SOL     OW  157   0.960   2.503   2.705  0.4648  0.4077 -0.2032
   53SOL    HW1  158   0.997   2.451   2.783 -1.7172  1.4134  1.4042
   53SOL    HW2  159   1.007   2.591   2.689  1.2743  1.4381 -1.1418
   54SOL     OW  160   1.636   0.536   1.666 -0.6697 -0.4324  0.1258
   54SOL    HW1  161   1.588   0.448   1.654 -1.4129  1.5889  0.8133
   54SOL    HW2  162   1.697   0.550   1.587 -0.5008 -0.4934  4.1580
   55SOL     OW  163   2.553   2.483   0.158 -0.6133  0.4325 -0.0705
   55SOL    HW1  164   2.534   2.435   0.244 -0.8664  0.5296 -1.5780
   55SOL    HW2  165   2.650   2.506   0.146 -0.0063 -1.1970 -2.2563
   56SOL     OW  166   0.763   2.413   1.844  0.4868 -0.3036  0.2126
   56SOL    HW1  167   0.675   2.397   1.893  1.4729  2.0735  0.3230
   56SOL    HW2  168   0.751   2.488   1.775 -0.6199  2.1417 -1.4638
   57SOL     OW  169   1.522   0.856   2.409 -0.0960 -0.1073 -0.0227
   57SOL    HW1  170   1.497   0.761   2.383  0.3061  1.8230  1.7402
   57SOL    HW2  171   1.529   0.871   2.511 -0.2563  1.3881 -2.9229
   58SOL     OW  172   2.968   1.187   1.962 -0.3160 -0.0878  0.0349
   58SOL    HW1  173   3.031   1.128   2.019  1.5045 -0.0810  0.1120
   58SOL    HW2  174   3.017   1.257   1.911  2.7884 -1.1922 -0.3480
   59SOL     OW  175   0.531   2.954   2.387  0.5705  0.0196 -0.1057
   59SOL    HW1  176   0.609   2.951   2.322  0.1904  1.3038  0.0431
   59SOL    HW2  177   0.464   2.880   2.367 -0.3970 -3.0939  2.7400
   60SOL     OW  178   2.670   2.138   0.365  0.1264  0.4002  0.1241
   60SOL    HW1  179   2.685   2.035   0.363  0.1090 -1.2723 -1.5893
   60SOL    HW2  180   2.699   2.181   0.275 -0.0451  0.9083  3.1692
   61SOL     OW  181   0.647   2.735   0.474 -0.5618  0.6271  0.3117
   61SOL    HW1  182   0.668   2.690   0.386 -2.4548  1.6810  3.8763
   61SOL    HW2  183   0.704   2.817   0.478  0.9704  0.1895  1.6704
   62SOL     OW  184   1.937   2.607   2.621 -0.0564  0.0800  0.0727
   62SOL    HW1  185   1.885   2.551   2.552 -2.0166 -0.5605 -1.2020
   62SOL    HW2  186   1.987   2.688   2.581 -0.2888  0.0826 -0.4044
   63SOL     OW  187   2.210   0.535   2.974 -0.1906 -0.1920 -0.0966
   63SOL    HW1  188   2.206   0.487   2.883 -1.4036  1.6517  1.7747
   63SOL    HW2  189   2.154   0.494   3.046 -1.4181 -0.0726  0.1861
   64SOL     OW  190   0.890   1.207   2.733  0.3734  0.5544  0.3619
   64SOL    HW1  191   0.950   1.189   2.816  0.4186 -1.9472 -3.0184
   64SOL    HW2  192   0.797   1.187   2.760  0.2944  0.7835 -1.9938
   65SOL     OW  193   1.396   0.001   0.655  0.1109 -0.0155 -0.6864
   65SOL    HW1  194   1.445   3.010   0.657  0.9610 -1.1914 -1.8120
   65SOL    HW2  195   1.441   0.073   0.716 -0.5899 -1.7905  2.4441
   66SOL     OW  196   0.578   1.562   1.726  0.2824 -0.0586 -0.0637
   66SOL    HW1  197   0.678   1.552   1.716 -0.5083  1.1414  0.6534
   66SOL    HW2  198   0.553   1.577   1.826 -1.8156 -1.5523  0.5141
   67SOL     OW  199   2.189   2.924   2.068  0.1858  0.5701  0.3279
   67SOL    HW1  200   2.216   2.832   2.062 -0.1861  3.7483 -1.9144
   67SOL    HW2  201   2.267   2.988   2.049  1.2017 -0.7581  2.0442
   68SOL     OW  202   0.788   0.820   1.567  0.2321 -0.2470 -0.1372
   68SOL    HW1  203   0.867   0.892   1.570  1.9868  1.2496 -0.1352
   68SOL    HW2  204   0.739   0.811   1.474  0.6093 -1.6144  0.6601
   69SOL     OW  205   2.159   2.448   0.136 -0.2549  0.0767  0.1187
   69SOL    HW1  206   2.185   2.523   0.203 -2.6453 -1.3070 -0.6711
   69SOL    HW2  207   2.237   2.399   0.098 -1.1164 -1.2317  2.2757
   70SOL     OW  208   2.524   0.699   2.625  0.7973  0.2442  0.1893
   70SOL    HW1  209   2.599   0.770   2.613 -0.4430  0.9476  1.5554
   70SOL    HW2  210   2.557   0.610   2.659  0.6712  1.9166 -4.5092
   71SOL     OW  211   3.011   2.172   0.245 -0.2829  0.1853 -0.0323
   71SOL    HW1  212   3.015   2.075   0.273  0.6155 -2.3160 -3.0740
   71SOL    HW2  213   2.918   2.210   0.223 -1.4525 -0.6496  0.8060
   72SOL     OW  214   3.024   1.897   0.472 -0.2896 -0.8606  0.3667
   72SOL    HW1  215   2.984   1.978   0.528 -2.4705  0.1798  1.4033
   72SOL    HW2  216   3.000   1.810   0.524  0.9010  2.1231 -0.7658
   73SOL     OW  217   0.990   0.787   0.496  0.3388  0.4362  0.6664
   73SOL    HW1  218   0.887   0.771   0.487 -0.5311  0.1861  0.8720
   73SOL    HW2  219   1.016   0.885   0.492  2.1956  0.0630 -3.6967
   74SOL     OW  220   0.218   1.764   1.998 -0.5145  0.3095  0.2701
   74SOL    HW1  221   0.262   1.730   2.085 -2.2395 -1.4826 -2.2161
   74SOL    HW2  222   0.247   1.863   1.976  1.6668 -0.2196 -2.4752
   75SOL     OW  223   1.722   1.581   1.269 -0.7804 -0.3677  0.2259
   75SOL    HW1  224   1.802   1.621   1.315 -2.4170 -1.8713 -2.1926
   75SOL    HW2  225   1.660   1.525   1.322  2.0087 -0.4413  0.4359
   76SOL     OW  226   1.704   1.923   0.975 -0.3044  0.4247  1.2464
   76SOL    HW1  227   1.717   1.849   0.909  0.6513  3.0529  0.7577
   76SOL    HW2  228   1.706   1.883   1.068  1.7989  0.4543  1.0780
   77SOL     OW  229   2.371   1.668   1.940 -0.0946  0.5189  0.1092
   77SOL    HW1  230   2.379   1.677   2.045 -2.3129  0.1147 -0.0155
   77SOL    HW2  231   2.376   1.758   1.891  0.0917 -0.5000 -0.9251
   78SOL     OW  232   1.519   0.789   0.669 -0.5311 -0.5172  0.1890
   78SOL    HW1  233   1.445   0.857   0.662  3.4978  0.5409  0.3758
   78SOL    HW2  234   1.528   0.729   0.593 -0.7018 -0.8399  0.9688
   79SOL     OW  235   2.130   1.855   1.548 -0.1099 -0.0461 -0.3243
   79SOL    HW1  236   2.202   1.786   1.535 -0.7639 -0.8941 -2.6323
   79SOL    HW2  237   2.168   1.940   1.578 -0.8904 -1.2256 -1.2932
   80SOL     OW  238   1.170   0.281   1.197  0.4641  0.1094  0.0051
   80SOL    HW1  239   1.132   0.255   1.292 -0.0228 -1.9224  1.7072
   80SOL    HW2  240   1.191   0.197   1.147  0.7319 -0.0591 -2.1247
   81SOL     OW  241   0.238   2.388   0.766 -0.2677 -0.4789 -0.4997
   81SOL    HW1  242   0.212   2.289   0.772  0.4313  0.9287 -0.0003
   81SOL    HW2  243   0.339   2.399   0.752 -1.0914  1.0743 -0.5124
   82SOL     OW  244   1.315   0.170   1.720 -0.2796  0.7610  0.5076
   82SOL    HW1  245   1.232   0.166   1.772 -0.2431  2.5797  0.9378
   82SOL    HW2  246   1.309   0.251   1.658  0.2780 -2.1572 -0.2925
   83SOL     OW  247   0.679   1.599   0.618 -0.1519 -0.2391  0.0565
   83SOL    HW1  248   0.653   1.676   0.681 -1.7645 -1.6013  1.3409
   83SOL    HW2  249   0.745   1.540   0.664  0.9435  2.2266 -1.9333
   84SOL     OW  250   2.674   1.256   0.257  0.0269 -0.1650 -0.1298
   84SOL    HW1  251   2.606   1.292   0.192  0.1021  0.4889  0.2021
   84SOL    HW2  252   2.676   1.157   0.260  0.4719  2.6488  1.7905
   85SOL     OW  253   2.986   2.614   1.320  0.1624 -0.3885  0.7396
   85SOL    HW1  254   3.010   2.703   1.362  1.7055  0.1601  0.0964
   85SOL    HW2  255   2.955   2.553   1.390  0.6901  0.0367  0.1758
   86SOL     OW  256   1.801   2.503   0.977 -0.4505 -0.5531  0.3984
   86SOL    HW1  257   1.807   2.480   1.076  2.9666  0.1724  1.0069
   86SOL    HW2  258   1.709   2.488   0.941  2.2453  3.8228  2.1976
   87SOL     OW  259   2.961   1.683   0.602  0.4999 -0.5867 -0.0665
   87SOL    HW1  260   3.064   1.662   0.619  2.8962  0.2219  2.4947
   87SOL    HW2  261   2.934   1.619   0.533 -2.4568  0.2121  2.4123
   88SOL     OW  262   0.943   0.649   1.242 -0.0258 -0.6208 -0.3766
   88SOL    HW1  263   0.929   0.580   1.170  0.7151  0.3533 -0.8717
   88SOL    HW2  264   1.007   0.610   1.309 -1.9888 -0.6728 -3.0738
   89SOL     OW  265   0.821   2.757   1.879  0.0961  0.3929 -0.5786
   89SOL    HW1  266   0.806   2.859   1.861  0.0449 -1.5228 -2.2081
   89SOL    HW2  267   0.737   2.717   1.928 -0.4990 -0.4043  0.6391
   90SOL     OW  268   3.013   1.808   1.294 -0.1622  0.0449 -0.0115
   90SOL    HW1  269   3.080   1.795   1.216 -1.0771  0.2936  0.9103
   90SOL    HW2  270   2.968   1.902   1.289  2.9205  1.6628 -0.8977
   91SOL     OW  271   0.998   2.079   0.981  0.2816  0.2710 -0.0401
   91SOL    HW1  272   1.054   2.163   0.954  3.6228  3.0412 -0.2372
   91SOL    HW2  273   1.012   2.004   0.916  1.5815 -1.3099  0.4732
   92SOL     OW  274   2.990   2.833   1.797  0.5646 -0.8462 -0.6541
   92SOL    HW1  275   3.089   2.857   1.798 -1.0651 -4.2722  2.8715
   92SOL    HW2  276   2.942   2.861   1.886  1.1151  1.1698  0.9586
   93SOL     OW  277   2.975   1.253   3.084  0.1035  0.1904  0.4936
   93SOL    HW1  278   3.043   1.242   3.012 -0.6896  1.7438 -0.2372
   93SOL    HW2  279   2.926   1.166   3.094 -1.4865  2.6344 -0.2556
   94SOL     OW  280   2.561   2.829   1.827 -0.1276 -0.6499  0.2562
   94SOL    HW1  281   2.631   2.857   1.899 -1.5417  0.6570  2.7786
   94SOL    HW2  282   2.482   2.898   1.828 -3.9635  3.6324 -0.0387
   95SOL     OW  283   1.487   0.603   1.884 -0.2950 -0.8593  0.1606
   95SOL    HW1  284   1.450   0.523   1.936 -0.5854  2.6644  0.1003
   95SOL    HW2  285   1.530   0.571   1.794 -0.0102 -0.7765 -2.1462
   96SOL     OW  286   2.660   0.389   1.704 -0.5028  0.5301  0.1382
   96SOL    HW1  287   2.660   0.477   1.650  0.2460  1.7412  0.1004
   96SOL    HW2  288   2.669   0.303   1.643 -0.2352 -2.2689 -2.1185
   97SOL     OW  289   2.489   2.937   1.524  0.0896  0.1841  0.1742
   97SOL    HW1  290   2.580   2.888   1.532  1.3695  0.8784  0.6198
   97SOL    HW2  291   2.421   2.889   1.585  0.8431  0.3201  1.2169
   98SOL     OW  292   2.022   2.769   1.293 -0.0236  0.1645  0.3005
   98SOL    HW1  293   2.080   2.716   1.359  2.4097  1.2439 -1.0934
   98SOL    HW2  294   1.920   2.752   1.308 -5.4040  0.0174  0.5464
   99SOL     OW  295   2.724   0.371   1.980  0.2646  0.1933 -0.2241
   99SOL    HW1  296   2.818   0.395   2.001 -1.3199  1.8974  0.5398
   99SOL    HW2  297   2.704   0.380   1.877 -2.4671 -1.2160 -4.9614
  100SOL     OW  298   1.949   1.468   1.892  0.2587  0.4635 -0.1648
  100SOL    HW1  299   1.892   1.511   1.965 -0.0363  0.6521 -2.6001
  100SOL    HW2  300   1.977   1.372   1.907  1.8029 -1.5285  1.0928
  101SOL     OW  301   2.028   0.364   0.297  0.2635  0.3160  0.2913
  101SOL    HW1  302   2.116   0.331   0.335 -4.0617 -1.8544  0.9690
  101SOL    HW2  303   2.050   0.455   0.252 -0.4084 -1.3863  0.8233
  102SOL     OW  304   0.554   0.537   1.351  0.2935 -0.3214 -0.0083
  102SOL    HW1  305   0.466   0.569   1.311 -2.1033  0.8889 -2.9822
  102SOL    HW2  306   0.568   0.436   1.336 -0.0738 -1.9744 -1.5218
  103SOL     OW  307   2.498   0.119   2.642 -0.2015 -0.4569  0.1227
  103SOL    HW1  308   2.575   0.148   2.703 -0.7007  0.7468 -2.2846
  103SOL    HW2  309   2.409   0.124   2.692 -0.6025 -0.1783  3.1657
  104SOL     OW  310   0.151   2.881   1.826  0.1370 -0.0769 -0.0884
  104SOL    HW1  311   0.222   2.851   1.757  2.0578 -1.8322 -0.4310
  104SOL    HW2  312   0.181   2.856   1.922 -1.6791 -0.8848  1.2670
  105SOL     OW  313   1.664   0.834   2.036 -0.2701  0.0772  0.3614
  105SOL    HW1  314   1.658   0.930   2.054 -1.6513 -3.4551 -1.4747
  105SOL    HW2  315   1.576   0.789   2.016  1.8783  1.9636  0.1315
  106SOL     OW  316   1.776   0.471   0.895  0.2250  0.6772 -0.3452
  106SOL    HW1  317   1.808   0.377   0.902 -1.1541  1.9249 -1.5197
  106SOL    HW2  318   1.675   0.467   0.900 -0.2295 -0.0988  1.7348
  107SOL     OW  319   0.744   1.172   1.182  0.3530 -0.3543  0.0377
  107SOL    HW1  320   0.724   1.201   1.276  2.2069  3.6238 -1.0097
  107SOL    HW2  321   0.766   1.074   1.176  0.8151  1.7256 -2.5291
  108SOL     OW  322   3.024   0.510   2.641 -0.1458  0.5451 -0.0261
  108SOL    HW1  323   3.030   0.427   2.580  1.4518 -0.9515 -0.6729
  108SOL    HW2  324   3.052   0.486   2.735 -0.9258  1.1911 -0.5159
  109SOL     OW  325   2.070   0.097   0.112  0.3908 -0.1494 -0.4175
  109SOL    HW1  326   2.013   0.015   0.144  2.2505 -5.1763 -0.8039
  109SOL    HW2  327   2.129   0.137   0.182  1.7579 -1.9507 -4.3738
  110SOL     OW  328   3.099   1.872   2.961 -0.0012 -0.2160  0.0661
  110SOL    HW1  329   0.034   1.941   3.031 -1.3031 -1.0456  0.3305
  110SOL    HW2  330   0.028   1.781   2.993  0.2205  1.9179 -2.7794
  111SOL     OW  331   2.351   0.168   2.413  0.4220 -0.3359  0.0262
  111SOL    HW1  332   2.339   0.101   2.338 -1.3659 -1.5328 -3.5526
  111SOL    HW2  333   2.425   0.146   2.484 -0.5888 -1.1289  0.3793
  112SOL     OW  334   2.532   3.009   1.241  0.0944  0.2356 -0.1402
  112SOL    HW1  335   2.519   2.933   1.175  2.1051  0.4038 -2.5164
  112SOL    HW2  336   2.481   3.003   1.327  2.3593  2.9151 -2.7645
  113SOL     OW  337   2.612   2.373   2.104  0.1363  0.1752 -0.0734
  113SOL    HW1  338   2.540   2.379   2.033  0.5137 -0.4408 -2.8889
  113SOL    HW2  339   2.629   2.467   2.145 -2.8949  0.3620 -0.2049
  114SOL     OW  340   2.724   0.165   0.729 -0.0004  0.0033  0.0894
  114SOL    HW1  341   2.643   0.107   0.744  0.2636  2.3895 -0.8680
  114SOL    HW2  342   2.741   0.213   0.817  1.8168 -1.3298 -1.7917
  115SOL     OW  343   2.767   1.729   0.203 -0.4905  0.1775 -1.0836
  115SOL    HW1  344   2.866   1.757   0.206  0.6659  0.9626 -0.6318
  115SOL    HW2  345   2.761   1.634   0.238 -1.4467  1.6817 -0.7306
  116SOL     OW  346   0.213   1.486   1.927  0.1121  0.0782  0.5425
  116SOL    HW1  347   0.238   1.586   1.945  0.9831 -0.1886 -0.1771
  116SOL    HW2  348   0.128   1.478   1.865 -0.0422 -0.2817  0.1669
  117SOL     OW  349   2.481   2.812   1.070  0.1385  0.3055 -0.1359
  117SOL    HW1  350   2.526   2.740   1.013  1.1712 -1.4457 -0.8243
  117SOL    HW2  351   2.388   2.777   1.095  2.7580 -0.0635  0.1666
  118SOL     OW  352   0.220   2.141   1.753  0.2130 -0.4388 -0.2227
  118SOL    HW1  353   0.203   2.087   1.668 -0.2221 -1.4138 -1.9464
  118SOL    HW2  354   0.297   2.207   1.738  0.3716 -1.4380 -1.5294
  119SOL     OW  355   1.179   2.234   1.284 -0.0763 -0.2056  0.1420
  119SOL    HW1  356   1.136   2.325   1.273  1.5670  1.8401 -0.5563
  119SOL    HW2  357   1.103   2.165   1.275 -3.6996 -0.4311 -0.3792
  120SOL     OW  358   0.293   1.927   1.551 -0.2896  0.4566 -0.5125
  120SOL    HW1  359   0.220   1.853   1.527 -1.4905 -4.2809 -1.8454
  120SOL    HW2  360   0.374   1.884   1.588 -0.2984  1.8712 -0.5905
  121SOL     OW  361   2.470   1.507   1.037 -0.1573 -0.0993  0.1044
  121SOL    HW1  362   2.512   1.545   1.122 -0.0691  0.5954 -1.4085
  121SOL    HW2  363   2.381   1.550   1.003 -1.1275  1.3165  0.6889
  122SOL     OW  364   2.135   1.626   2.636  0.1761 -0.2662  0.0515
  122SOL    HW1  365   2.098   1.622   2.733 -1.9385 -0.0547 -1.2717
  122SOL    HW2  366   2.144   1.723   2.607 -0.6502  1.7483 -0.7079
  123SOL     OW  367   2.624   2.689   0.550  0.4902  0.0985  0.0260
  123SOL    HW1  368   2.706   2.707   0.609  1.7881  1.4774  0.4526
  123SOL    HW2  369   2.544   2.644   0.601 -0.3673 -2.7757 -1.7149
  124SOL     OW  370   1.321   1.219   2.976  0.3304 -0.5008 -0.1910
  124SOL    HW1  371   1.319   1.213   3.076 -2.3775  1.7129  0.7439
  124SOL    HW2  372   1.399   1.265   2.937 -1.2863  0.6426  1.0369
  125SOL     OW  373   0.229   1.535   2.769  0.3881  0.1589  0.5684
  125SOL    HW1  374   0.265   1.606   2.697 -0.5195  1.0868 -0.5504
  125SOL    HW2  375   0.298   1.459   2.780  0.8100 -0.9865  3.0627
  126SOL     OW  376   0.080   2.371   0.267 -0.0326 -0.7528  0.4049
  126SOL    HW1  377   0.176   2.364   0.302 -1.8452  1.6821  1.5539
  126SOL    HW2  378   0.029   2.287   0.286  0.8002  1.6491 -0.0030
  127SOL     OW  379   0.116   1.621   0.894 -0.0842  0.6789 -0.1449
  127SOL    HW1  380   0.163   1.529   0.898  1.4556  2.2186  1.3424
  127SOL    HW2  381   0.078   1.643   0.799  2.5890 -1.5825 -0.1037
  128SOL     OW  382   1.212   1.207   0.130  0.3580 -0.6263  1.3581
  128SOL    HW1  383   1.237   1.202   0.228  0.2997 -0.1514 -0.4995
  128SOL    HW2  384   1.116   1.239   0.109 -1.4781 -1.4603 -0.4377
  129SOL     OW  385   2.257   1.851   1.282  0.3687 -0.3489 -0.4070
  129SOL    HW1  386   2.176   1.900   1.321 -0.0343 -2.1442  1.6646
  129SOL    HW2  387   2.298   1.790   1.353 -0.0725  0.6783 -1.7919
  130SOL     OW  388   1.717   0.996   0.428  0.7081  0.1761 -0.4271
  130SOL    HW1  389   1.764   1.009   0.514  1.5000 -1.6113  0.3126
  130SOL    HW2  390   1.723   0.894   0.402 -1.2040 -4.4977 -0.7720
  131SOL     OW  391   2.852   1.220   2.663 -0.1240  0.6145  0.1905
  131SOL    HW1  392   2.818   1.181   2.751 -1.5644  1.4730  0.1587
  131SOL    HW2  393   2.841   1.320   2.669  1.8179 -2.2686 -0.5915
  132SOL     OW  394   1.696   1.754   1.911 -0.0255 -0.0749 -0.1309
  132SOL    HW1  395   1.645   1.767   1.821 -1.2035 -0.8581 -1.8447
  132SOL    HW2  396   1.758   1.835   1.925 -0.1145  1.3961  1.0799
  133SOL     OW  397   0.146   1.301   0.104  0.2066 -0.0170 -0.2454
  133SOL    HW1  398   0.058   1.277   0.063  0.2673  0.9219  0.8537
  133SOL    HW2  399   0.166   1.255   0.195  1.1164 -2.7946  0.4743
  134SOL     OW  400   2.705   1.048   0.669 -0.2450  0.5739 -0.6858
  134SOL    HW1  401   2.620   1.077   0.624  0.0953 -2.0301  1.6763
  134SOL    HW2  402   2.789   1.101   0.646 -0.1665  0.4048  1.3055
  135SOL     OW  403   2.373   1.021   0.201  0.3416  0.1213  0.5322
  135SOL    HW1  404   2.349   1.112   0.242 -0.5223  1.9492  0.3817
  135SOL    HW2  405   2.339   1.008   0.109  0.8870  2.6765  0.8569
  136SOL     OW  406   1.866   1.931   1.574 -0.1943 -0.2357 -0.2355
  136SOL    HW1  407   1.860   1.968   1.667 -1.8288  0.3897 -1.7126
  136SOL    HW2  408   1.954   1.878   1.557 -1.3215  2.7330  2.7949
  137SOL     OW  409   2.667   2.328   0.554 -0.1150 -0.0529  0.3767
  137SOL    HW1  410   2.648   2.266   0.471  2.1104 -0.8941 -2.6431
  137SOL    HW2  411   2.606   2.306   0.633  0.2111  1.1804 -0.1485
  138SOL     OW  412   2.130   0.306   1.807 -0.0887 -0.2249  0.2256
  138SOL    HW1  413   2.083   0.387   1.768  2.7058 -1.4019 -2.8991
  138SOL    HW2  414   2.230   0.304   1.779  1.2283 -1.1576 -0.6912
  139SOL     OW  415   2.654   0.307   2.943  0.7100 -0.0269  0.6997
  139SOL    HW1  416   2.617   0.209   2.962 -2.2577 -3.9365  1.4358
  139SOL    HW2  417   2.730   0.329   3.008 -0.3039 -0.1597 -0.0705
  140SOL     OW  418   1.430   1.481   2.484  0.3473  0.0231 -0.1565
  140SOL    HW1  419   1.472   1.519   2.402  0.5815  0.1667  1.7205
  140SOL    HW2  420   1.355   1.542   2.513 -0.8704  2.7690  3.8239
  141SOL     OW  421   0.654   0.773   2.046  0.3161  0.3245  0.2032
  141SOL    HW1  422   0.564   0.730   2.067 -1.4090  0.2845  1.2942
  141SOL    HW2  423   0.646   0.871   2.021 -0.4608  3.5729 -1.7196
  142SOL     OW  424   2.380   2.681   2.888 -0.1363 -0.3296 -0.3251
  142SOL    HW1  425   2.438   2.710   2.968  0.9326  3.1378  2.6970
  142SOL    HW2  426   2.317   2.752   2.845 -0.2848  1.7104 -4.1501
  143SOL     OW  427   0.940   2.136   0.611  0.6261  0.0350 -0.2426
  143SOL    HW1  428   0.848   2.183   0.617  0.1747  1.2254  0.5006
  143SOL    HW2  429   0.948   2.055   0.678 -0.5349 -0.6798  1.4792
  144SOL     OW  430   0.940   2.671   0.384 -0.0968 -0.8823 -0.4239
  144SOL    HW1  431   0.928   2.576   0.423 -1.0696 -5.2082  0.3852
  144SOL    HW2  432   0.874   2.677   0.308  0.2920 -0.0864  0.7294
  145SOL     OW  433   1.694   2.026   2.492 -0.4198 -0.0444  0.0852
  145SOL    HW1  434   1.737   2.031   2.587 -0.7697  2.3558  0.3108
  145SOL    HW2  435   1.675   1.928   2.471 -0.3586 -0.6485  0.9398
  146SOL     OW  436   2.703   2.455   2.965  0.1187 -0.5651 -0.1779
  146SOL    HW1  437   2.706   2.558   2.975  3.4685  0.3586  0.6118
  146SOL    HW2  438   2.634   2.437   2.894  3.6680 -2.6515 -1.8066
  147SOL     OW  439   3.087   1.379   1.377 -0.3795  0.1002  0.2526
  147SOL    HW1  440   0.081   1.379   1.409  0.3210 -2.1669 -3.0775
  147SOL    HW2  441   3.064   1.464   1.329  0.0479 -1.3110  0.6870
  148SOL     OW  442   1.882   2.993   0.118  0.6319 -0.2484 -0.1398
  148SOL    HW1  443   1.798   2.956   0.161 -2.9999  1.4567  0.2803
  148SOL    HW2  444   1.863   3.027   0.023  1.0076  3.1393 -2.7645
  149SOL     OW  445   0.773   1.828   2.714 -0.0556  0.2994 -0.1166
  149SOL    HW1  446   0.674   1.812   2.693  0.5906 -2.1492 -2.1247
  149SOL    HW2  447   0.785   1.833   2.817 -3.4191  1.0656  1.7857
  150SOL     OW  448   0.296   2.374   0.457 -0.5789 -0.0864  0.3103
  150SOL    HW1  449   0.364   2.312   0.499 -0.5710  1.4896 -0.7712
  150SOL    HW2  450   0.241   2.412   0.531  2.1572  0.9378  0.1470
  151SOL     OW  451   0.490   1.361   0.299  0.3480 -0.1085 -0.3471
  151SOL    HW1  452   0.437   1.277   0.281 -0.5529  0.6897 -1.9139
  151SOL    HW2  453   0.468   1.436   0.233  1.5797 -0.3022 -2.5483
  152SOL     OW  454   2.610   1.868   0.667  0.5306 -0.3394  0.2284
  152SOL    HW1  455   2.517   1.904   0.690  1.1945  1.2389  1.4613
  152SOL    HW2  456   2.631   1.873   0.568  1.4346  0.1946  1.4430
  153SOL     OW  457   2.055   2.345   0.397 -0.0013 -0.4229 -0.1675
  153SOL    HW1  458   2.113   2.375   0.320 -2.2514 -0.6533  0.9627
  153SOL    HW2  459   1.977   2.409   0.417  0.5206  0.4167  1.3620
  154SOL     OW  460   0.779   2.745   0.832  0.0292 -0.3392 -0.0095
  154SOL    HW1  461   0.732   2.765   0.743  2.2047 -1.1224 -0.4238
  154SOL    HW2  462   0.719   2.757   0.920 -1.9596 -0.4558 -0.4654
  155SOL     OW  463   2.963   1.804   0.860  0.1823 -0.0582  0.4538
  155SOL    HW1  464   2.940   1.787   0.763 -1.5570 -0.2413 -1.2330
  155SOL    HW2  465   2.994   1.900   0.869  0.2825  0.2094  0.7077
  156SOL     OW  466   2.379   2.342   3.100  0.6140  0.2423 -0.0361
  156SOL    HW1  467   2.425   2.251   3.101  0.6830  1.2961  0.7880
  156SOL    HW2  468   2.444   2.402   0.049 -0.9397 -1.4132  2.0724
  157SOL     OW  469   0.546   1.861   1.592 -0.3957 -0.0133 -0.2270
  157SOL    HW1  470   0.579   1.832   1.688 -1.6751  0.9212  1.2845
  157SOL    HW2  471   0.577   1.813   1.511  2.3369  1.4588  0.4970
  158SOL     OW  472   1.580   0.872   3.064 -0.3408  0.0774 -0.1778
  158SOL    HW1  473   1.507   0.812   3.087  0.6051  2.5969  0.6187
  158SOL    HW2  474   1.672   0.834   3.085 -0.1417 -1.3485 -0.2895
  159SOL     OW  475   1.126   0.921   3.098 -0.3361 -0.0576  0.0382
  159SOL    HW1  476   1.058   0.978   0.041  2.0470 -2.9806 -0.5923
  159SOL    HW2  477   1.104   0.821   0.013 -0.6407  0.2166 -0.6287
  160SOL     OW  478   0.944   1.355   0.491  0.0576  0.3387 -0.2519
  160SOL    HW1  479   0.914   1.384   0.581  0.3174  0.9786 -2.0062
  160SOL    HW2  480   1.035   1.393   0.472  1.4741 -1.2054  0.1518
  161SOL     OW  481   0.151   2.171   2.630  0.1749 -0.5264 -0.4772
  161SOL    HW1  482   0.055   2.158   2.594 -2.4679  1.1175  2.7352
  161SOL    HW2  483   0.174   2.106   2.707  0.4663 -0.3255  0.3064
  162SOL     OW  484   0.081   2.398   0.988  0.5190  0.5466  0.1240
  162SOL    HW1  485   0.097   2.319   1.052 -2.6167 -2.2841  0.1339
  162SOL    HW2  486   0.155   2.413   0.919  1.4393 -0.4694 -2.0792
  163SOL     OW  487   2.861   0.697   2.816 -0.3064  0.0443 -0.0582
  163SOL    HW1  488   2.927   0.628   2.763  1.2609 -1.9023 -2.1093
  163SOL    HW2  489   2.919   0.747   2.882 -0.6285  3.2227 -0.4936
  164SOL     OW  490   0.479   0.045   2.816 -0.0078  0.7529  0.1705
  164SOL    HW1  491   0.404   3.084   2.849 -1.0727  1.4430 -0.3858
  164SOL    HW2  492   0.540   3.091   2.758 -0.2853  0.5785  1.4110
  165SOL     OW  493   2.384   0.381   1.801 -0.0627 -0.2542 -0.4906
  165SOL    HW1  494   2.382   0.429   1.891  0.3973 -0.5128  2.0576
  165SOL    HW2  495   2.469   0.393   1.749 -0.6795  1.1584 -0.2985
  166SOL     OW  496   2.016   2.524   1.682  0.0035  0.7565  0.4809
  166SOL    HW1  497   1.959   2.440   1.715 -3.2225  2.1319  0.3482
  166SOL    HW2  498   1.986   2.606   1.731  1.1969  0.4569 -0.5341
  167SOL     OW  499   1.134   0.799   2.195  0.4435  0.0145 -0.1896
  167SOL    HW1  500   1.125   0.891   2.233 -2.3463  2.1405 -2.5064
  167SOL    HW2  501   1.171   0.733   2.259 -0.1562 -0.3469 -0.1454
  168SOL     OW  502   2.383   0.021   2.035 -0.4020  0.3900  0.0280
  168SOL    HW1  503   2.396   0.012   1.936  2.4423 -0.2155  3.5218
  168SOL    HW2  504   2.461   0.073   2.072 -0.8905 -1.3563 -1.8864
  169SOL     OW  505   0.389   1.025   0.350 -0.0565 -0.0612  0.4458
  169SOL    HW1  506   0.364   0.927   0.374  1.2788  0.2530 -0.8325
  169SOL    HW2  507   0.404   1.040   0.253  0.6662 -0.2652  0.7796
  170SOL     OW  508   2.955   1.603   1.727  0.2785  0.1536  0.2893
  170SOL    HW1  509   2.900   1.646   1.653  2.1804  1.0365 -0.4352
  170SOL    HW2  510   2.958   1.654   1.817  0.8780  1.6184  2.1708
  171SOL     OW  511   1.115   2.306   2.150 -0.1894  0.2461  0.4245
  171SOL    HW1  512   1.025   2.350   2.121 -0.8619  1.5839  1.2306
  171SOL    HW2  513   1.109   2.265   2.241 -0.7000 -0.5361 -2.0214
  172SOL     OW  514   0.875   2.438   2.084  0.0059  0.2420  0.0587
  172SOL    HW1  515   0.835   2.453   1.991  0.3372  0.6092  1.4567
  172SOL    HW2  516   0.807   2.483   2.148 -0.0906 -0.9170 -1.9549
  173SOL     OW  517   1.297   2.511   0.988 -0.2851  0.2177 -0.2697
  173SOL    HW1  518   1.357   2.568   1.050 -1.9652 -0.8329  1.1341
  173SOL    HW2  519   1.310   2.537   0.892  0.2765 -1.5901 -0.8937
  174SOL     OW  520   2.247   0.296   0.449  0.0386 -0.6076  0.8979
  174SOL    HW1  521   2.221   0.350   0.535 -0.4781  1.2303  1.5715
  174SOL    HW2  522   2.256   0.194   0.461 -2.3676  2.0012 -0.6092
  175SOL     OW  523   1.127   1.873   0.352  0.6422  0.1242 -0.0871
  175SOL    HW1  524   1.198   1.869   0.424  2.1613 -1.0553  0.2797
  175SOL    HW2  525   1.036   1.884   0.402  1.6670 -1.6888  2.7766
  176SOL     OW  526   0.880   1.426   0.749 -0.3636 -0.0212  0.2710
  176SOL    HW1  527   0.976   1.464   0.753  1.5318 -2.0018 -0.6610
  176SOL    HW2  528   0.857   1.366   0.829 -0.6319  0.6308 -0.7402
  177SOL     OW  529   1.461   0.945   1.323  0.1954 -0.8719  0.3271
  177SOL    HW1  530   1.462   0.895   1.237  0.3509 -0.6358  2.7970
  177SOL    HW2  531   1.507   0.890   1.392  0.9829  0.7955 -2.1807
  178SOL     OW  532   2.657   1.510   0.365  0.3974 -0.4181 -0.3770
  178SOL    HW1  533   2.651   1.529   0.464 -1.3092 -0.0808  1.8811
  178SOL    HW2  534   2.657   1.408   0.341  1.0823 -3.0214 -2.2234
  179SOL     OW  535   0.782   2.283   0.028 -0.3184  0.0501 -0.0465
  179SOL    HW1  536   0.796   2.383   0.015  1.6621 -1.3426 -0.9259
  179SOL    HW2  537   0.699   2.252   3.077  1.4682 -1.2581 -0.1995
  180SOL     OW  538   1.736   1.509   1.692 -0.0204 -0.0667  0.6558
  180SOL    HW1  539   1.821   1.496   1.744 -0.7836  0.5454 -0.6614
  180SOL    HW2  540   1.726   1.607   1.667  1.8025 -0.1806  0.1938
  181SOL     OW  541   0.824   1.173   2.249  0.2373 -0.0433 -0.1985
  181SOL    HW1  542   0.758   1.137   2.180  0.2712 -0.5274 -3.1254
  181SOL    HW2  543   0.912   1.125   2.234  0.9099  3.2142  0.8750
  182SOL     OW  544   2.903   1.111   2.304 -0.0757 -0.3774 -0.2158
  182SOL    HW1  545   2.830   1.134   2.371  1.2141  0.3144 -0.1767
  182SOL    HW2  546   2.860   1.105   2.212 -0.9056  4.3824 -0.9988
  183SOL     OW  547   1.606   0.432   2.190  0.8817 -0.0102  0.4485
  183SOL    HW1  548   1.700   0.445   2.161 -1.5707 -0.9015  1.9917
  183SOL    HW2  549   1.552   0.397   2.110 -0.9114  0.0999  1.3279
  184SOL     OW  550   0.342   0.704   1.784 -0.1444  0.1134 -0.1549
  184SOL    HW1  551   0.343   0.659   1.877 -2.3058  3.3271 -1.7253
  184SOL    HW2  552   0.430   0.756   1.771 -0.7747 -0.5507  0.3705
  185SOL     OW  553   2.342   1.841   0.482  0.0807  0.1493 -0.1816
  185SOL    HW1  554   2.386   1.748   0.481 -1.2891 -0.9019  0.6174
  185SOL    HW2  555   2.323   1.875   0.577 -1.4880  1.2531  0.9991
  186SOL     OW  556   0.445   1.928   3.010 -0.1518 -0.0292  0.2674
  186SOL    HW1  557   0.549   1.937   2.989 -0.3146 -0.1700 -0.4705
  186SOL    HW2  558   0.433   1.841   3.068 -0.4367 -0.0681  0.0910
  187SOL     OW  559   2.397   1.832   2.948 -0.2514 -0.1967  0.2734
  187SOL    HW1  560   2.418   1.790   2.857 -1.2638  1.4226 -0.9323
  187SOL    HW2  561   2.482   1.848   3.001  2.0590  1.4179 -0.2782
  188SOL     OW  562   1.027   2.632   0.789  0.0109  0.0401  0.2294
  188SOL    HW1  563   1.078   2.602   0.869 -1.0092  0.2375 -1.5485
  188SOL    HW2  564   0.947   2.692   0.813  0.9584 -1.2841 -2.9354
  189SOL     OW  565   1.886   0.909   2.486 -0.4508  0.2900  0.2524
  189SOL    HW1  566   1.801   0.904   2.548 -0.5662  0.5775 -1.1498
  189SOL    HW2  567   1.893   1.002   2.444 -1.4208 -2.9173 -1.9784
  190SOL     OW  568   0.973   2.062   2.331  0.5877 -0.2536  0.4412
  190SOL    HW1  569   0.949   1.969   2.294 -1.2556  1.2316  0.8415
  190SOL    HW2  570   0.921   2.076   2.417  1.6240 -1.0903 -4.2449
  191SOL     OW  571   2.446   0.686   1.459 -0.5854 -0.1148  0.2816
  191SOL    HW1  572   2.380   0.654   1.528  2.4544 -0.3701 -0.0534
  191SOL    HW2  573   2.540   0.702   1.497 -2.4324 -1.2053 -0.5424
  192SOL     OW  574   2.386   0.424   2.275  0.0708  0.4045  0.0045
  192SOL    HW1  575   2.433   0.510   2.299  0.9311 -1.2796  0.5720
  192SOL    HW2  576   2.388   0.353   2.349 -0.1209 -0.7043 -1.3672
  193SOL     OW  577   0.754   0.286   0.723 -0.4388  0.1988 -0.5416
  193SOL    HW1  578   0.748   0.262   0.618 -0.7443  0.5029 -1.2189
  193SOL    HW2  579   0.735   0.201   0.782 -0.0855 -3.2076  4.8866
  194SOL     OW  580   1.330   2.487   1.578  0.1263  0.0127  0.3705
  194SOL    HW1  581   1.267   2.547   1.630 -0.3433 -0.5635 -2.5176
  194SOL    HW2  582   1.335   2.395   1.628  0.1921  2.0235  1.0973
  195SOL     OW  583   2.762   0.932   0.921  0.0176  0.2585 -0.3192
  195SOL    HW1  584   2.688   0.966   0.978 -0.3259  0.7681 -0.9173
  195SOL    HW2  585   2.749   0.953   0.823  2.7130 -1.8470  0.5699
  196SOL     OW  586   1.206   1.849   1.730 -0.1094 -0.0407  0.9597
  196SOL    HW1  587   1.196   1.908   1.647 -0.6081 -2.2981  1.1136
  196SOL    HW2  588   1.118   1.849   1.781 -0.5918  0.3901 -1.5749
  197SOL     OW  589   0.401   0.825   2.330  0.5758 -0.4347  0.1509
  197SOL    HW1  590   0.413   0.814   2.229 -0.6562 -0.6584  0.5015
  197SOL    HW2  591   0.351   0.744   2.371  0.2835 -1.6508  2.9749
  198SOL     OW  592   1.477   1.055   0.339 -0.2609  0.0670  0.4259
  198SOL    HW1  593   1.574   1.035   0.374 -0.7750  0.2542 -3.2758
  198SOL    HW2  594   1.478   1.136   0.278  2.1265  1.4523 -0.3037
  199SOL     OW  595   2.717   0.485   2.254  0.5802 -0.4393  0.0763
  199SOL    HW1  596   2.688   0.468   2.159 -0.0551  0.1355  2.7154
  199SOL    HW2  597   2.659   0.550   2.305  0.7993  0.5247  1.5048
  200SOL     OW  598   2.251   2.526   2.449 -0.0134 -0.3469 -0.2558
  200SOL    HW1  599   2.339   2.562   2.410 -0.5114 -2.8171 -0.1894
  200SOL    HW2  600   2.263   2.453   2.516 -2.4330 -0.7648  0.7519
  201SOL     OW  601   2.216   0.099   1.306  0.0854 -0.2555 -0.1256
  201SOL    HW1  602   2.184   0.089   1.403 -0.1741 -1.9915 -0.0969
  201SOL    HW2  603   2.160   0.034   1.252  2.1524  0.6274  2.2700
  202SOL     OW  604   2.304   2.874   0.117  0.0073  0.0157  0.1306
  202SOL    HW1  605   2.356   2.958   0.142 -0.2444  0.8143 -1.4938
  202SOL    HW2  606   2.225   2.862   0.178 -1.4246  1.9242  0.6179
  203SOL     OW  607   0.802   2.070   2.544  0.2640  0.7710 -0.1319
  203SOL    HW1  608   0.804   1.979   2.590  1.3753 -2.6286  2.2618
  203SOL    HW2  609   0.772   2.144   2.607 -1.1222  2.4894 -1.0869
  204SOL     OW  610   0.805   1.442   2.606  0.4411 -0.6057 -0.2863
  204SOL    HW1  611   0.730   1.467   2.668 -0.7169 -2.9479  0.6567
  204SOL    HW2  612   0.875   1.379   2.647  0.6691 -1.4973 -1.4581
  205SOL     OW  613   1.047   0.961   1.335 -0.2569 -0.5220 -0.1815
  205SOL    HW1  614   0.970   0.949   1.269 -0.3757 -2.4794  1.0149
  205SOL    HW2  615   1.141   0.970   1.291  1.2129 -0.0593  0.3920
  206SOL     OW  616   0.263   0.749   2.702  0.1555 -0.0608  0.1610
  206SOL    HW1  617   0.348   0.807   2.722  0.3002 -0.6287 -0.2672
  206SOL    HW2  618   0.255   0.720   2.603  0.7603 -0.3725 -0.5146
  207SOL     OW  619   1.851   2.406   2.044 -0.2313 -0.1593 -0.0327
  207SOL    HW1  620   1.928   2.476   2.048  3.6157  1.9199 -2.6213
  207SOL    HW2  621   1.795   2.415   1.958 -1.6040 -0.6958 -0.7701
  208SOL     OW  622   0.809   2.647   1.197 -0.1871 -0.0434 -0.2986
  208SOL    HW1  623   0.808   2.574   1.124 -0.2908 -2.7380  2.3799
  208SOL    HW2  624   0.783   2.596   1.282 -1.5375 -0.4087 -0.7940
  209SOL     OW  625   1.226   1.459   2.784  0.3034  0.0785  0.1808
  209SOL    HW1  626   1.265   1.528   2.716 -0.2224  2.2249  1.0384
  209SOL    HW2  627   1.250   1.364   2.746  0.3046 -2.7006 -1.1632
  210SOL     OW  628   2.331   0.894   0.883 -0.0443  0.7532  0.3333
  210SOL    HW1  629   2.414   0.906   0.940 -0.2107 -3.0980  0.3531
  210SOL    HW2  630   2.343   0.928   0.783 -2.3162 -0.1747 -2.6672
  211SOL     OW  631   1.107   2.805   0.564  0.1396  0.0134  0.1674
  211SOL    HW1  632   1.158   2.731   0.608  5.6376  0.6563 -2.8543
  211SOL    HW2  633   1.015   2.774   0.519 -1.0991  1.6234 -3.2420
  212SOL     OW  634   2.234   2.122   0.648 -0.2653 -0.2398  0.6746
  212SOL    HW1  635   2.141   2.156   0.643  1.5390 -2.4100  0.0011
  212SOL    HW2  636   2.282   2.123   0.559  0.6642 -1.4664 -0.2291
  213SOL     OW  637   1.795   0.741   2.752  0.2518 -0.1963 -0.2480
  213SOL    HW1  638   1.763   0.664   2.813  1.1786 -0.5467 -0.8568
  213SOL    HW2  639   1.890   0.774   2.771 -2.6123 -2.6080 -1.9355
  214SOL     OW  640   1.061   1.885   1.977  0.8241  0.1692 -0.1355
  214SOL    HW1  641   0.958   1.885   1.980 -0.4636 -1.3215 -0.9608
  214SOL    HW2  642   1.092   1.829   2.059 -0.7093 -0.8133 -0.6469
  215SOL     OW  643   0.488   1.419   0.553  0.2230 -0.1018 -0.0006
  215SOL    HW1  644   0.489   1.390   0.455 -0.9195 -0.8565  0.8542
  215SOL    HW2  645   0.542   1.503   0.566  1.8124 -2.8496  1.6504
  216SOL     OW  646   0.016   3.059   2.430 -0.2594  0.0158  0.4353
  216SOL    HW1  647   0.110   3.065   2.467 -0.5839 -1.7659  1.3858
  216SOL    HW2  648   0.011   3.018   2.333 -3.3192  1.5546 -2.2929
  217SOL     OW  649   2.485   0.931   1.359  0.2329 -0.6120  0.3579
  217SOL    HW1  650   2.425   0.851   1.388 -1.1735 -1.4066  0.2380
  217SOL    HW2  651   2.585   0.910   1.369 -0.8677 -0.7272  0.5684
  218SOL     OW  652   1.386   1.859   2.058  0.1385  0.0257 -0.2970
  218SOL    HW1  653   1.418   1.881   1.961  1.9137  0.2241 -0.6987
  218SOL    HW2  654   1.309   1.920   2.088  0.7576  2.2585 -2.3112
  219SOL     OW  655   1.693   1.634   0.134 -0.0194  0.5551  0.5320
  219SOL    HW1  656   1.766   1.574   0.174 -0.7398  0.5943 -0.6445
  219SOL    HW2  657   1.676   1.714   0.194 -3.2561 -0.1321 -3.5601
  220SOL     OW  658   2.088   0.872   0.123  0.5335  0.0743 -0.4233
  220SOL    HW1  659   2.037   0.958   0.136  1.2184  0.9502 -0.0492
  220SOL    HW2  660   2.097   0.855   0.025  1.6313 -3.0159  0.3364
  221SOL     OW  661   0.008   0.551   0.160  0.1381  0.0023  0.4746
  221SOL    HW1  662   3.017   0.579   0.193 -1.4156 -0.4715 -1.2064
  221SOL    HW2  663   0.050   0.631   0.119 -1.1606 -3.0486 -2.2175
  222SOL     OW  664   1.556   1.923   0.598  0.8952  0.6084 -0.2787
  222SOL    HW1  665   1.606   1.844   0.643  1.6652 -0.2020  1.0357
  222SOL    HW2  666   1.567   2.010   0.650 -1.8212  1.2045 -1.0076
  223SOL     OW  667   0.816   3.096   2.997 -0.1102 -0.3238  0.1429
  223SOL    HW1  668   0.903   3.099   3.049  1.0415  1.7794 -0.1408
  223SOL    HW2  669   0.824   3.039   2.914 -2.2061 -0.3981 -2.1927
  224SOL     OW  670   1.852   0.024   1.132  0.4179 -0.7243  0.2485
  224SOL    HW1  671   1.786   3.083   1.202 -1.6898 -0.4769 -1.6673
  224SOL    HW2  672   1.943   3.082   1.145 -0.3168 -3.7405  1.4367
  225SOL     OW  673   0.484   2.216   1.307  0.0560 -0.0385  0.0233
  225SOL    HW1  674   0.475   2.317   1.283 -0.6615 -3.7502  0.7451
  225SOL    HW2  675   0.536   2.207   1.394  2.6991 -2.0291 -0.7158
  226SOL     OW  676   0.990   1.749   0.160 -0.2476  0.5370  0.5645
  226SOL    HW1  677   0.998   1.790   0.067  0.2245  0.3724  0.5955
  226SOL    HW2  678   1.037   1.806   0.231  1.2578  0.6393  0.7971
  227SOL     OW  679   0.923   1.738   1.089 -0.6076 -0.2409 -0.2970
  227SOL    HW1  680   0.842   1.715   1.034  0.9417  1.4421  1.8400
  227SOL    HW2  681   0.892   1.773   1.177 -0.9570  0.6638 -0.1781
  228SOL     OW  682   0.121   1.673   0.626  0.3704 -0.1419  0.0157
  228SOL    HW1  683   0.146   1.617   0.545  0.5664 -0.9746  0.8763
  228SOL    HW2  684   0.162   1.769   0.618  0.0610  0.7668 -0.4234
  229SOL     OW  685   1.838   0.244   2.604  0.4797 -0.2295 -0.0320
  229SOL    HW1  686   1.920   0.217   2.556  1.5137 -1.2117  0.4975
  229SOL    HW2  687   1.763   0.245   2.535 -1.2954 -0.4109 -1.6463
  230SOL     OW  688   1.831   1.237   2.906  0.4542  0.2939 -0.3487
  230SOL    HW1  689   1.824   1.332   2.883 -1.2987 -3.2735 -0.6004
  230SOL    HW2  690   1.784   1.213   2.992 -0.3653  1.7823 -0.9073
  231SOL     OW  691   1.227   1.665   2.575 -0.4988  0.2879 -0.9349
  231SOL    HW1  692   1.132   1.650   2.545  0.6366  0.3442 -1.3213
  231SOL    HW2  693   1.271   1.741   2.523 -1.3107  0.0974  1.6427
  232SOL     OW  694   2.407   2.097   0.422 -0.3284 -0.1882  0.1920
  232SOL    HW1  695   2.504   2.118   0.408  0.3521 -0.3428  1.3461
  232SOL    HW2  696   2.382   2.003   0.381 -1.7294 -2.7657 -1.1645
  233SOL     OW  697   3.010   2.558   0.369  0.2483  0.0090 -0.1545
  233SOL    HW1  698   3.090   2.500   0.345  2.1858  2.2293  0.9319
  233SOL    HW2  699   2.930   2.549   0.303 -2.9814  1.7512 -1.0597
  234SOL     OW  700   0.557   0.714   2.748 -0.0044  0.1425  0.1313
  234SOL    HW1  701   0.587   0.766   2.660  1.0383  1.9917 -3.0569
  234SOL    HW2  702   0.604   0.761   2.824 -0.3260  2.7900  0.1888
  235SOL     OW  703   2.769   0.249   2.685 -0.1884 -0.1519 -0.1756
  235SOL    HW1  704   2.703   0.326   2.692 -3.3544 -0.4391  2.8419
  235SOL    HW2  705   2.792   0.207   2.776 -0.0756 -1.6239 -1.1222
  236SOL     OW  706   1.833   2.340   1.197 -0.4362 -0.7637 -0.2047
  236SOL    HW1  707   1.843   2.359   1.298 -2.9127 -1.1651 -2.0334
  236SOL    HW2  708   1.868   2.252   1.182 -2.1040  2.0574 -0.4411
  237SOL     OW  709   0.944   1.802   2.279 -0.1542  0.5678 -0.0474
  237SOL    HW1  710   1.032   1.758   2.246 -0.1448  2.3358  0.3515
  237SOL    HW2  711   0.906   1.742   2.353  0.2841 -1.6891 -1.0793
  238SOL     OW  712   1.191   0.143   2.504  0.2415 -0.3526  0.0396
  238SOL    HW1  713   1.200   0.059   2.561 -1.2669  0.7826  0.7341
  238SOL    HW2  714   1.258   0.134   2.424  2.3670 -0.8369  0.4029
  239SOL     OW  715   0.334   2.016   1.963 -0.3297 -0.3567 -0.4809
  239SOL    HW1  716   0.391   2.061   2.036  1.0110  1.0297  0.8037
  239SOL    HW2  717   0.289   2.089   1.904  0.7116  1.5210 -2.0217
  240SOL     OW  718   2.413   2.413   0.417 -0.2320  0.3287 -0.1448
  240SOL    HW1  719   2.329   2.467   0.425  1.4021 -1.1628 -0.7898
  240SOL    HW2  720   2.477   2.427   0.494  0.8914  0.6101 -2.2149
  241SOL     OW  721   2.509   1.000   1.047  0.5008  0.7593  0.5457
  241SOL    HW1  722   2.515   1.004   1.151 -0.1043 -0.2171 -0.1396
  241SOL    HW2  723   2.444   1.073   1.016 -0.1710  0.1847  1.0989
  242SOL     OW  724   2.263   2.438   2.170  0.4151 -0.1051  0.6956
  242SOL    HW1  725   2.188   2.380   2.133  2.0972  0.3341  0.5332
  242SOL    HW2  726   2.251   2.463   2.270  0.8439 -2.3190  0.6249
  243SOL     OW  727   0.725   2.600   1.671 -0.1824  0.0076 -0.7275
  243SOL    HW1  728   0.653   2.664   1.635 -0.0444  1.3140  0.5993
  243SOL    HW2  729   0.798   2.661   1.710  1.2810  1.7562  1.0957
  244SOL     OW  730   2.212   0.403   2.723 -0.6348  0.1397  0.2512
  244SOL    HW1  731   2.137   0.362   2.671 -1.5777 -0.5658  0.1091
  244SOL    HW2  732   2.227   0.500   2.691  0.1013 -0.5283 -1.9605
  245SOL     OW  733   1.612   0.191   1.221  0.0732  0.4884 -0.5611
  245SOL    HW1  734   1.515   0.213   1.201 -2.0255  0.3294 -0.0546
  245SOL    HW2  735   1.654   0.134   1.150 -1.2966  0.0501 -0.2914
  246SOL     OW  736   1.771   2.487   3.007  0.5030  0.6849 -0.2108
  246SOL    HW1  737   1.851   2.465   2.947 -1.1673 -1.4673 -2.2045
  246SOL    HW2  738   1.726   2.575   2.989  0.2302 -2.3387  2.3560
  247SOL     OW  739   1.221   0.620   2.399 -0.1286 -0.3541  0.0044
  247SOL    HW1  740   1.160   0.539   2.421  0.0876 -2.5444 -0.1092
  247SOL    HW2  741   1.324   0.598   2.394  1.8304 -0.2234  0.4348
  248SOL     OW  742   0.551   1.848   1.880 -0.3296  0.0086 -0.1976
  248SOL    HW1  743   0.536   1.752   1.919 -2.8142 -2.1278  0.1318
  248SOL    HW2  744   0.478   1.912   1.913  2.2171  0.5210  1.4784
  249SOL     OW  745   2.605   0.366   0.524  0.0228  0.3577  0.4978
  249SOL    HW1  746   2.575   0.321   0.438 -0.2168 -1.2848  2.3616
  249SOL    HW2  747   2.654   0.299   0.583  0.6477 -1.0927  2.6540
  250SOL     OW  748   2.672   0.616   3.005 -0.3334 -0.1380  0.1427
  250SOL    HW1  749   2.720   0.542   3.053  1.2180  0.9052 -3.4236
  250SOL    HW2  750   2.720   0.641   2.919 -0.3211 -1.3313  1.0331
  251SOL     OW  751   1.366   0.667   3.085  0.3882  0.1067 -0.0713
  251SOL    HW1  752   1.361   0.673   2.981  0.2116 -3.2636 -0.8870
  251SOL    HW2  753   1.275   0.648   0.024  0.7140 -2.6810 -0.1936
  252SOL     OW  754   1.852   2.028   1.833  0.0253  0.3307  0.5962
  252SOL    HW1  755   1.763   2.077   1.858 -4.9258  3.0223 -2.1998
  252SOL    HW2  756   1.906   2.002   1.918  2.2103 -0.8328  0.3261
  253SOL     OW  757   2.279   2.440   1.130 -0.1018  0.2852  0.0201
  253SOL    HW1  758   2.278   2.537   1.092  2.0277  1.5675  0.2604
  253SOL    HW2  759   2.300   2.456   1.226 -2.8005  0.7201 -2.4557
  254SOL     OW  760   2.514   1.319   0.797  0.1929 -0.0910  0.0850
  254SOL    HW1  761   2.602   1.360   0.764  2.6804 -0.7390  0.4509
  254SOL    HW2  762   2.511   1.327   0.897  2.2690  2.7662 -0.3427
  255SOL     OW  763   1.536   0.037   0.972  0.5919  0.0807  0.0061
  255SOL    HW1  764   1.436   0.011   0.993 -2.2837 -0.5991  1.7826
  255SOL    HW2  765   1.549   0.103   0.893 -1.5733  1.2551 -0.1757
  256SOL     OW  766   1.425   2.312   1.378  0.2128 -0.2543 -0.4774
  256SOL    HW1  767   1.407   2.394   1.442  1.4874  4.0612  3.3642
  256SOL    HW2  768   1.333   2.277   1.348 -1.1213  0.1716  0.6861
  257SOL     OW  769   0.642   3.006   2.626  0.0025 -0.2711 -0.4600
  257SOL    HW1  770   0.724   3.062   2.635 -4.5788 -0.6951  0.7190
  257SOL    HW2  771   0.608   3.005   2.530  0.2212 -1.0169 -0.6382
  258SOL     OW  772   0.801   2.452   0.714 -0.4413  0.4344 -0.0945
  258SOL    HW1  773   0.862   2.515   0.764  0.8230  0.0358  1.0148
  258SOL    HW2  774   0.832   2.432   0.618  0.5915 -0.8814 -0.2517
  259SOL     OW  775   1.513   0.144   2.774  0.0930  0.2468 -0.7434
  259SOL    HW1  776   1.426   0.117   2.826 -1.6158 -0.3263  1.2187
  259SOL    HW2  777   1.499   0.238   2.730 -1.5595 -0.8747 -0.2693
  260SOL     OW  778   2.397   0.270   1.445 -0.3272 -0.5681  1.0226
  260SOL    HW1  779   2.341   0.212   1.376 -2.5174 -1.6004 -2.2187
  260SOL    HW2  780   2.431   0.218   1.528 -1.8632 -0.6899  2.3253
  261SOL     OW  781   0.728   0.533   2.630  0.0323  0.1976  0.4499
  261SOL    HW1  782   0.669   0.609   2.668  0.1013  1.0691 -0.0607
  261SOL    HW2  783   0.800   0.567   2.569 -2.6948 -1.6370  0.7413
  262SOL     OW  784   0.557   2.324   2.313  0.1659 -0.6064 -0.2255
  262SOL    HW1  785   0.504   2.272   2.245 -0.6899  0.1282 -0.7073
  262SOL    HW2  786   0.587   2.413   2.274 -1.9156 -0.5143  1.6578
  263SOL     OW  787   0.286   1.689   2.558 -0.0740  0.2063 -0.0906
  263SOL    HW1  788   0.220   1.756   2.595  0.8923  0.2741  1.1339
  263SOL    HW2  789   0.243   1.626   2.488 -0.6620 -1.6273 -0.2901
  264SOL     OW  790   1.139   1.499   0.742  0.2824  0.1940  0.5855
  264SOL    HW1  791   1.176   1.421   0.792 -1.3071  0.4803 -1.3557
  264SOL    HW2  792   1.153   1.575   0.798 -0.8304 -1.5229 -0.4464
  265SOL     OW  793   1.478   2.841   0.642 -0.3357 -0.6432  0.1317
  265SOL    HW1  794   1.451   2.749   0.668  1.8092  0.8887  1.5301
  265SOL    HW2  795   1.577   2.853   0.615  0.5844 -1.7730 -0.7201
  266SOL     OW  796   1.824   0.578   1.459 -0.6155 -0.2512 -0.1297
  266SOL    HW1  797   1.812   0.514   1.378 -1.3452  1.8179  1.2537
  266SOL    HW2  798   1.921   0.617   1.446  0.9783 -1.2356  0.5701
  267SOL     OW  799   2.493   1.230   2.764 -0.3181  0.3397  0.7758
  267SOL    HW1  800   2.409   1.178   2.745  0.9933  2.9778 -0.0882
  267SOL    HW2  801   2.564   1.173   2.805 -2.9508 -2.6560 -0.0705
  268SOL     OW  802   1.353   0.226   0.064 -0.1044  0.1920 -0.0378
  268SOL    HW1  803   1.395   0.242   0.158 -0.1232  0.6424 -0.4257
  268SOL    HW2  804   1.263   0.279   0.063  0.0757 -0.6372  1.1807
  269SOL     OW  805   2.947   0.882   2.449  0.1706 -0.2613  0.2516
  269SOL    HW1  806   3.005   0.891   2.535  2.4301  0.6019  0.3072
  269SOL    HW2  807   2.953   0.972   2.390  2.4786  3.2936 -1.1730
  270SOL     OW  808   0.126   1.547   0.368  0.4193 -0.2657 -0.3662
  270SOL    HW1  809   0.151   1.448   0.365  1.3306  2.2039 -1.1057
  270SOL    HW2  810   0.122   1.583   0.275 -0.5021 -0.1798  0.9513
  271SOL     OW  811   2.386   0.954   3.007 -0.2503  0.3322 -0.3345
  271SOL    HW1  812   2.403   0.955   2.906  0.1776 -1.7941 -1.3803
  271SOL    HW2  813   2.405   0.858   3.036  1.8756  3.7967  1.8093
  272SOL     OW  814   3.018   2.597   2.431  0.2695  0.4103 -0.4686
  272SOL    HW1  815   0.020   2.603   2.415 -0.4757 -1.1629  0.2453
  272SOL    HW2  816   2.991   2.504   2.403 -0.2540 -0.9979  2.1917
  273SOL     OW  817   0.214   3.003   0.504 -0.0168  0.0039  0.1126
  273SOL    HW1  818   0.150   2.969   0.437 -0.1244 -0.7296  1.6952
  273SOL    HW2  819   0.310   3.010   0.465 -1.7575  1.5232 -1.8328
  274SOL     OW  820   0.726   2.027   0.947  0.1780  0.5492  0.6444
  274SOL    HW1  821   0.664   2.020   1.031 -1.7157  0.3862 -1.0329
  274SOL    HW2  822   0.823   2.037   0.976  1.5339 -0.2502  0.7034
  275SOL     OW  823   2.366   0.980   0.644  0.2381  0.2466  0.0492
  275SOL    HW1  824   2.266   0.988   0.630  0.0505 -0.8413  0.1185
  275SOL    HW2  825   2.412   1.057   0.591  0.1568 -0.7389 -0.3850
  276SOL     OW  826   2.466   1.458   1.470 -0.6984  0.3155 -0.3572
  276SOL    HW1  827   2.398   1.412   1.411  0.8689  0.9704  0.7553
  276SOL    HW2  828   2.528   1.390   1.521  2.6003 -2.0470  2.5623
  277SOL     OW  829   2.488   2.961   0.844 -0.1453 -0.5074  0.1380
  277SOL    HW1  830   2.548   3.041   0.874  2.5280  1.6293 -0.6644
  277SOL    HW2  831   2.466   2.894   0.920  1.4983 -0.5054  0.3915
  278SOL     OW  832   1.629   0.081   2.281  0.0359  0.1818  0.3172
  278SOL    HW1  833   1.701   0.009   2.284  1.4551  0.5361  2.1881
  278SOL    HW2  834   1.625   0.144   2.357  1.2038 -1.1623  0.7431
  279SOL     OW  835   1.506   2.644   1.206 -0.1670  0.2171  0.1677
  279SOL    HW1  836   1.520   2.728   1.152 -0.3476 -0.1717  1.3180
  279SOL    HW2  837   1.573   2.634   1.281 -1.1035  1.9916  1.7660
  280SOL     OW  838   0.870   1.079   0.801  0.4007  0.4056  0.6452
  280SOL    HW1  839   0.904   1.138   0.878  2.4058  2.5658  0.1459
  280SOL    HW2  840   0.792   1.124   0.759  1.4265 -0.8804  3.7029
  281SOL     OW  841   2.432   1.454   2.935  0.3869 -0.4022 -0.3436
  281SOL    HW1  842   2.455   1.369   2.886  0.3053 -0.1309 -0.9259
  281SOL    HW2  843   2.459   1.538   2.884 -1.2322  1.5810  1.4627
  282SOL     OW  844   0.198   1.218   0.365 -0.2860  0.1768 -0.6616
  282SOL    HW1  845   0.257   1.136   0.359  0.5904  1.6497  0.4599
  282SOL    HW2  846   0.177   1.253   0.460  1.2090  0.4537  1.4231
  283SOL     OW  847   1.766   2.775   2.689 -0.0521 -0.5625  0.0497
  283SOL    HW1  848   1.805   2.856   2.639 -1.1912  1.3076  1.5214
  283SOL    HW2  849   1.824   2.689   2.691  0.2143 -1.2307  0.8213
  284SOL     OW  850   1.043   0.075   0.037  0.2036  0.0386 -0.3765
  284SOL    HW1  851   1.118   0.024   0.081  1.1218  1.1755  1.6079
  284SOL    HW2  852   1.057   0.172   0.054  0.7802  1.3043  2.8772
  285SOL     OW  853   2.110   1.366   2.566  0.0112 -0.0595  0.1937
  285SOL    HW1  854   2.123   1.469   2.572 -0.6790  0.0268 -2.4400
  285SOL    HW2  855   2.096   1.345   2.465 -0.1265  1.8961 -0.4324
  286SOL     OW  856   1.560   2.427   0.881  0.6086  0.2490  0.1972
  286SOL    HW1  857   1.531   2.390   0.972  0.6730  0.6161  3.6944
  286SOL    HW2  858   1.591   2.358   0.810  2.7022  0.4556  0.7982
  287SOL     OW  859   1.663   0.895   0.895  0.0338 -0.0191  0.3976
  287SOL    HW1  860   1.695   0.986   0.864  1.7515  1.0342 -2.0652
  287SOL    HW2  861   1.609   0.844   0.821 -2.9784 -2.0847 -0.0505
  288SOL     OW  862   0.851   2.744   2.354 -0.5940  0.1903  0.5282
  288SOL    HW1  863   0.822   2.754   2.452 -0.9401 -0.3123 -2.5298
  288SOL    HW2  864   0.951   2.758   2.347  2.2348 -0.8264  1.0338
  289SOL     OW  865   0.189   1.338   0.882 -0.6156  0.2866 -0.1214
  289SOL    HW1  866   0.251   1.261   0.909  2.5227 -0.3880 -0.1269
  289SOL    HW2  867   0.091   1.327   0.900 -1.0685  2.3738  3.1949
  290SOL     OW  868   1.140   2.312   0.953  0.0492 -0.2461 -0.5531
  290SOL    HW1  869   1.198   2.389   0.985 -1.9450 -1.5985  0.1275
  290SOL    HW2  870   1.145   2.308   0.849  0.3137 -1.3991  2.4081
  291SOL     OW  871   1.469   3.081   0.340 -0.3347  0.6489 -0.3104
  291SOL    HW1  872   1.432   3.055   0.438 -1.4566  0.8210  1.5732
  291SOL    HW2  873   1.470   0.080   0.333  0.1650  0.4310  2.0371
  292SOL     OW  874   0.503   0.325   2.296 -0.1702 -0.7697  0.1875
  292SOL    HW1  875   0.408   0.336   2.317 -1.3317 -4.2592 -1.5814
  292SOL    HW2  876   0.557   0.330   2.383  0.3977  0.1651  2.2132
  293SOL     OW  877   2.659   1.631   0.817  0.2287 -0.0268  0.2037
  293SOL    HW1  878   2.657   1.723   0.773 -1.2322 -1.3008 -0.4435
  293SOL    HW2  879   2.575   1.610   0.873 -1.5720 -0.6165  0.3251
  294SOL     OW  880   0.804   0.132   2.179  0.2732 -0.5356  0.4711
  294SOL    HW1  881   0.703   0.127   2.175  3.7257 -0.0414 -0.9468
  294SOL    HW2  882   0.837   0.065   2.112  1.2786 -1.0579  0.5924
  295SOL     OW  883   1.125   1.706   0.916 -0.3066 -0.0288  0.0897
  295SOL    HW1  884   1.215   1.692   0.965 -0.6335 -0.0240  2.4713
  295SOL    HW2  885   1.051   1.723   0.984  0.6899  2.3424 -2.0218
  296SOL     OW  886   2.413   1.616   0.313  0.5937  0.1329 -0.4574
  296SOL    HW1  887   2.387   1.643   0.216 -1.0648  0.5655  0.0879
  296SOL    HW2  888   2.514   1.590   0.328  0.4087 -0.3590  0.6403
  297SOL     OW  889   2.539   0.068   3.005 -0.0158 -1.2259 -0.3700
  297SOL    HW1  890   2.447   0.033   2.977 -1.5578 -1.1458  1.2088
  297SOL    HW2  891   2.613   0.013   2.963 -0.3472  3.8307  1.1672
  298SOL     OW  892   1.024   0.171   2.873 -0.1948  0.2563  0.0492
  298SOL    HW1  893   0.954   0.247   2.859 -0.6067 -2.4077  2.0434
  298SOL    HW2  894   1.017   0.125   2.961  0.8240  1.8744 -0.1479
  299SOL     OW  895   0.667   2.569   2.236 -0.1082 -0.3732  0.0870
  299SOL    HW1  896   0.638   2.609   2.145  2.1706  2.1555  2.8951
  299SOL    HW2  897   0.731   2.642   2.270 -2.0114 -1.3307 -0.7944
  300SOL     OW  898   2.751   2.901   2.016  0.0324 -0.1991 -0.7368
  300SOL    HW1  899   2.725   2.867   2.110  2.1068 -1.1423  0.7951
  300SOL    HW2  900   2.776   2.999   2.019  2.0678 -0.1404  0.3007
  301SOL     OW  901   1.600   0.270   1.631 -0.3456  0.0818 -0.2243
  301SOL    HW1  902   1.501   0.257   1.617  0.1848 -0.8139 -0.5823
  301SOL    HW2  903   1.656   0.212   1.567  0.1919 -0.2958 -1.0624
  302SOL     OW  904   0.377   2.404   3.088 -0.2032  0.2144  0.0919
  302SOL    HW1  905   0.393   2.460   0.071  1.5911  2.2428 -1.0123
  302SOL    HW2  906   0.400   2.466   3.004 -0.0775  3.3870 -2.7020
  303SOL     OW  907   1.854   2.435   1.453  0.3148 -0.6443 -0.0701
  303SOL    HW1  908   1.790   2.356   1.474 -0.8725 -2.6491 -0.1924
  303SOL    HW2  909   1.933   2.437   1.516 -1.0475  0.8325  0.3400
  304SOL     OW  910   2.758   0.884   1.392 -0.8486  0.6628 -1.0113
  304SOL    HW1  911   2.828   0.809   1.370  0.3470 -2.0825  1.5604
  304SOL    HW2  912   2.769   0.903   1.494 -0.6983  1.2751  1.4995
  305SOL     OW  913   0.602   1.247   0.733 -0.2034  0.1041 -0.0790
  305SOL    HW1  914   0.613   1.294   0.825  0.8977  1.0459 -0.7676
  305SOL    HW2  915   0.543   1.300   0.669 -0.7671  3.1305 -0.4029
  306SOL     OW  916   0.424   1.354   2.776  0.0563  0.6075 -0.3276
  306SOL    HW1  917   0.463   1.301   2.857  0.1106 -1.3443 -0.3378
  306SOL    HW2  918   0.408   1.303   2.685  0.2125  1.2912 -1.5335
  307SOL     OW  919   0.860   0.059   1.576 -0.1755  0.8793  0.1118
  307SOL    HW1  920   0.889   3.095   1.503 -2.9374  3.0315 -0.1837
  307SOL    HW2  921   0.847   0.001   1.659 -0.0358  2.2174 -0.9716
  308SOL     OW  922   0.185   0.769   1.043  0.6858 -0.3486 -0.2231
  308SOL    HW1  923   0.088   0.761   1.019 -3.4907 -1.2717 -2.8329
  308SOL    HW2  924   0.245   0.741   0.970 -0.9720 -0.9171  2.6098
  309SOL     OW  925   2.357   1.231   1.047  0.2123  0.6803  0.7226
  309SOL    HW1  926   2.256   1.251   1.047 -1.7459  2.5537  2.2424
  309SOL    HW2  927   2.403   1.306   1.095 -0.1850 -1.8521 -0.6099
  310SOL     OW  928   0.511   1.805   2.651  0.0153  0.0124 -0.0448
  310SOL    HW1  929   0.431   1.783   2.593 -2.2590 -1.6127 -2.9170
  310SOL    HW2  930   0.492   1.882   2.710 -1.2534 -1.4506 -0.9813
  311SOL     OW  931   2.555   2.563   2.416  0.6844  0.9147 -0.5212
  311SOL    HW1  932   2.587   2.610   2.331 -1.2006  2.0314  1.0845
  311SOL    HW2  933   2.582   2.626   2.494  0.2610  1.6290  0.2746
  312SOL     OW  934   2.186   2.017   2.975  0.6574  0.1088  0.7519
  312SOL    HW1  935   2.106   1.957   2.986  1.8276  2.6171  0.8947
  312SOL    HW2  936   2.266   1.960   2.958 -1.6126  2.1290  0.6445
  313SOL     OW  937   0.499   0.060   0.586 -0.0124  0.5239 -0.0749
  313SOL    HW1  938   0.576   0.105   0.541  0.0337 -1.1687 -0.0116
  313SOL    HW2  939   0.530   3.088   0.653 -1.7403 -0.7246  0.6199
  314SOL     OW  940   2.055   1.174   2.763 -0.2503  0.2291 -0.3657
  314SOL    HW1  941   1.969   1.189   2.817  0.9583 -0.2769 -2.1162
  314SOL    HW2  942   2.083   1.264   2.722  4.3644  1.4518 -0.4876
  315SOL     OW  943   1.626   0.300   2.435 -0.0631  0.2951 -0.7254
  315SOL    HW1  944   1.561   0.319   2.510  2.7378  1.0824 -0.0824
  315SOL    HW2  945   1.632   0.370   2.358  1.2125 -0.8260  4.2827
  316SOL     OW  946   3.098   0.975   0.798 -0.2288  0.9492 -0.0664
  316SOL    HW1  947   3.079   0.889   0.747  0.0981 -1.1357  0.7720
  316SOL    HW2  948   3.040   0.976   0.877 -2.0478  0.4712 -1.9214
  317SOL     OW  949   0.516   2.808   3.010 -0.3670  0.5122  0.4892
  317SOL    HW1  950   0.448   2.872   2.966 -2.6454  0.0603 -1.2451
  317SOL    HW2  951   0.570   2.849   3.087 -1.2612  0.5181  0.7615
  318SOL     OW  952   2.436   2.554   0.701 -0.5388  0.4947  0.3196
  318SOL    HW1  953   2.457   2.453   0.704 -0.1132 -0.0202  0.4094
  318SOL    HW2  954   2.476   2.598   0.784  0.5541  1.0026 -1.2822
  319SOL     OW  955   0.995   1.511   2.937  0.5971  0.7298 -1.4036
  319SOL    HW1  956   1.067   1.542   2.879 -1.5922  2.2597  1.2200
  319SOL    HW2  957   1.016   1.421   2.969 -0.5361  2.6527 -2.4942
  320SOL     OW  958   0.620   1.744   1.354 -0.1521 -0.3014 -0.2989
  320SOL    HW1  959   0.665   1.654   1.374 -1.0463 -1.9925 -0.4866
  320SOL    HW2  960   0.540   1.736   1.293 -2.5637 -0.1956  2.7037
  321SOL     OW  961   1.078   2.726   1.959  0.0661  0.0360  0.4634
  321SOL    HW1  962   0.979   2.731   1.926 -2.5492  1.3467  0.5632
  321SOL    HW2  963   1.115   2.816   1.993  0.3397  0.6283  2.2891
  322SOL     OW  964   2.433   1.749   2.217 -0.3456  0.0561 -0.0233
  322SOL    HW1  965   2.457   1.657   2.257 -0.7437 -0.9749 -0.8275
  322SOL    HW2  966   2.512   1.810   2.205 -1.0944 -0.2681  1.2066
  323SOL     OW  967   2.853   0.454   0.724 -0.3648 -0.1499 -0.8200
  323SOL    HW1  968   2.890   0.418   0.811  0.5992  0.5955 -1.8539
  323SOL    HW2  969   2.775   0.514   0.746 -2.6920  0.3797 -1.7491
  324SOL     OW  970   2.898   2.725   2.664  0.3101 -0.4728 -0.0375
  324SOL    HW1  971   2.940   2.670   2.741  0.6073 -1.0101  0.6803
  324SOL    HW2  972   2.919   2.678   2.578  0.2778  0.5339 -0.1726
  325SOL     OW  973   1.049   0.374   2.407  0.4261  0.1630 -0.6738
  325SOL    HW1  974   1.088   0.296   2.455 -0.8756 -2.6693 -3.1368
  325SOL    HW2  975   0.944   0.364   2.419  2.0089  0.6156  2.1790
  326SOL     OW  976   2.169   2.639   1.467 -0.4241 -0.5654 -0.2659
  326SOL    HW1  977   2.238   2.698   1.512 -0.4802  2.9802 -3.4057
  326SOL    HW2  978   2.110   2.598   1.539  1.9756  0.2329  1.3694
  327SOL     OW  979   2.386   0.034   0.202 -0.4458 -0.0983 -0.2471
  327SOL    HW1  980   2.379   0.099   0.124  1.4810 -1.3391  0.8825
  327SOL    HW2  981   2.335   0.072   0.282 -0.8454 -1.1642 -1.6268
  328SOL     OW  982   0.361   1.259   1.890  0.0790 -0.0464  0.3811
  328SOL    HW1  983   0.441   1.256   1.948  0.4363 -0.3040  2.3332
  328SOL    HW2  984   0.299   1.343   1.902 -2.2743  1.2194  2.5815
  329SOL     OW  985   2.260   0.552   1.633  0.1228  0.2072  0.1307
  329SOL    HW1  986   2.161   0.553   1.657  1.6406  0.0621  0.6025
  329SOL    HW2  987   2.316   0.482   1.681 -0.2414 -1.2420  0.2839
  330SOL     OW  988   0.207   1.043   1.156  0.3038  0.0005  0.6058
  330SOL    HW1  989   0.126   1.102   1.159 -0.2449 -0.4737  0.4468
  330SOL    HW2  990   0.176   0.951   1.120  0.4570  2.1227  5.2975
  331SOL     OW  991   0.808   1.545   2.088  0.4242 -0.0645  0.1146
  331SOL    HW1  992   0.890   1.543   2.026 -1.0225 -1.0769  3.2986
  331SOL    HW2  993   0.824   1.522   2.187  0.2451  1.3496  1.3872
  332SOL     OW  994   0.230   2.697   1.570  0.7482  0.2282 -0.0007
  332SOL    HW1  995   0.159   2.734   1.509 -0.0458 -0.9017 -0.6984
  332SOL    HW2  996   0.248   2.601   1.540 -1.1313 -1.0105  1.0452
  333SOL     OW  997   2.549   0.108   0.958  0.0216  0.1270  0.4751
  333SOL    HW1  998   2.640   0.142   0.984 -0.2593 -0.3563 -0.0561
  333SOL    HW2  999   2.471   0.149   1.008  2.0975 -0.4301 -1.5687
  334SOL     OW 1000   0.218   1.330   0.622 -0.4709  0.0930  0.5306
  334SOL    HW1 1001   0.309   1.370   0.611 -0.7820  1.2490  1.0304
  334SOL    HW2 1002   0.188   1.337   0.721 -0.1414  1.4864  0.6612
  335SOL     OW 1003   0.212   2.627   2.808 -0.5004  0.0478  0.1739
  335SOL    HW1 1004   0.194   2.712   2.759 -0.3594 -3.2181  0.8142
  335SOL    HW2 1005   0.303   2.625   2.854  0.2072 -2.6882  0.5580
  336SOL     OW 1006   3.018   2.730   2.151 -0.2085  0.3770 -0.5102
  336SOL    HW1 1007   3.019   2.691   2.243  0.2133  3.3112 -2.2866
  336SOL    HW2 1008   2.955   2.684   2.089 -0.6347  0.7414  1.2331
  337SOL     OW 1009   1.960   2.261   1.721  0.2454 -0.1048  0.1133
  337SOL    HW1 1010   1.914   2.182   1.765 -1.6383 -1.5220 -0.9765
  337SOL    HW2 1011   2.062   2.258   1.726 -0.2048 -0.5418 -0.2280
  338SOL     OW 1012   0.814   0.367   2.821 -0.9331  0.0666 -0.1794
  338SOL    HW1 1013   0.746   0.318   2.877  2.7213 -0.1995 -1.1450
  338SOL    HW2 1014   0.774   0.427   2.749  0.8984  0.5373 -1.5634
  339SOL     OW 1015   0.585   1.264   2.072 -0.1230  0.0887 -0.0079
  339SOL    HW1 1016   0.532   1.279   2.155  2.2324 -3.7058 -3.2146
  339SOL    HW2 1017   0.651   1.344   2.056  4.2881  0.3340  1.0591
  340SOL     OW 1018   2.046   2.809   0.650 -0.1962 -0.3552 -0.5217
  340SOL    HW1 1019   2.100   2.726   0.628 -0.2162  2.4810 -3.2849
  340SOL    HW2 1020   1.947   2.797   0.642  2.5503  1.2241  1.2127
  341SOL     OW 1021   1.922   1.166   1.061 -0.1130 -0.1676 -0.3571
  341SOL    HW1 1022   1.866   1.142   0.981  2.8063  1.4433  0.4467
  341SOL    HW2 1023   2.018   1.129   1.051 -0.2248  2.1186 -0.2996
  342SOL     OW 1024   2.518   2.730   0.049 -0.1825 -0.4597  0.5440
  342SOL    HW1 1025   2.438   2.783   0.070  0.6181 -1.3096  0.0604
  342SOL    HW2 1026   2.529   2.645   0.104  1.0198  0.5229 -0.5569
  343SOL     OW 1027   0.882   2.150   1.572 -0.8048 -0.4254  0.1084
  343SOL    HW1 1028   0.932   2.194   1.644 -2.1102 -3.2474 -1.6688
  343SOL    HW2 1029   0.891   2.200   1.481 -2.0062 -0.1325  0.3954
  344SOL     OW 1030   2.369   2.476   1.375 -0.7837  0.6024  0.0704
  344SOL    HW1 1031   2.295   2.535   1.417 -2.2010 -0.5127  0.7347
  344SOL    HW2 1032   2.464   2.500   1.406  3.3450 -1.7379 -0.4814
  345SOL     OW 1033   2.645   1.875   3.097  0.3724  0.6473 -0.0064
  345SOL    HW1 1034   2.710   1.882   3.015  2.3725 -1.4471 -0.1385
  345SOL    HW2 1035   2.701   1.825   0.064  0.9613 -1.6208 -2.1625
  346SOL     OW 1036   1.912   2.102   1.017  0.0048  0.4936  0.5601
  346SOL    HW1 1037   1.889   2.191   0.974 -1.4790  1.0039 -1.0180
  346SOL    HW2 1038   1.840   2.027   0.995 -1.2787  2.0187  2.1978
  347SOL     OW 1039   1.308   1.893   1.159 -0.1020  0.1145 -0.0247
  347SOL    HW1 1040   1.350   1.976   1.116  0.3280  0.0472 -1.0302
  347SOL    HW2 1041   1.218   1.921   1.204 -0.2645 -0.2875  3.6360
  348SOL     OW 1042   0.630   1.797   2.304 -0.1579 -0.1579 -0.0173
  348SOL    HW1 1043   0.588   1.883   2.343  0.6635  0.0242  1.3893
  348SOL    HW2 1044   0.727   1.823   2.279 -0.6828  3.3166 -0.0192
  349SOL     OW 1045   1.981   1.646   0.768  0.0032 -0.5441  0.4265
  349SOL    HW1 1046   2.005   1.736   0.809 -0.0619 -0.0652 -1.8595
  349SOL    HW2 1047   1.918   1.593   0.834 -0.0906 -0.7810  2.4993
  350SOL     OW 1048   2.894   2.459   0.611 -0.1183 -0.3501  0.5506
  350SOL    HW1 1049   2.808   2.409   0.588 -0.6387  0.8572 -0.1761
  350SOL    HW2 1050   2.942   2.487   0.523 -1.0739  1.4297 -0.5998
  351SOL     OW 1051   0.466   2.846   1.643 -0.5138 -0.3801 -0.1157
  351SOL    HW1 1052   0.532   2.852   1.563 -1.0579  0.1252  1.0776
  351SOL    HW2 1053   0.392   2.786   1.614  0.0954  0.2886  0.6887
  352SOL     OW 1054   0.424   1.479   1.241  0.0822  0.0730 -0.4169
  352SOL    HW1 1055   0.509   1.426   1.218  1.2431 -0.5236 -0.6307
  352SOL    HW2 1056   0.361   1.430   1.293 -1.5421  1.0285 -0.1780
  353SOL     OW 1057   1.171   1.467   2.272  0.6931 -0.2447 -0.5133
  353SOL    HW1 1058   1.077   1.453   2.308 -1.8470 -0.8304 -2.9112
  353SOL    HW2 1059   1.223   1.376   2.266  3.1207 -1.7469 -1.4345
  354SOL     OW 1060   1.425   3.063   1.862  0.8805  0.1313  0.2185
  354SOL    HW1 1061   1.381   0.035   1.803  0.0382 -2.2877 -0.3915
  354SOL    HW2 1062   1.502   0.005   1.913 -0.5907 -2.4688 -2.7607
  355SOL     OW 1063   2.481   1.179   0.519 -0.0494 -0.0754 -0.6617
  355SOL    HW1 1064   2.501   1.245   0.596  1.6229  3.5085  1.5699
  355SOL    HW2 1065   2.450   1.221   0.434  2.0897  1.1611 -0.2742
  356SOL     OW 1066   2.840   1.710   1.517 -0.5548  0.2155  0.5891
  356SOL    HW1 1067   2.762   1.772   1.525  2.4369 -3.4873 -0.9836
  356SOL    HW2 1068   2.890   1.739   1.431 -1.0382 -0.0175 -2.4987
  357SOL     OW 1069   0.458   2.753   1.286  0.3553  0.2407  0.1359
  357SOL    HW1 1070   0.429   2.754   1.193 -0.3056 -1.0720  2.7865
  357SOL    HW2 1071   0.430   2.835   1.341 -0.8675 -0.6338  0.7969
  358SOL     OW 1072   2.659   1.516   1.903 -0.0483  0.1497  0.2031
  358SOL    HW1 1073   2.672   1.478   1.807  2.8190 -0.2673 -2.4750
  358SOL    HW2 1074   2.572   1.572   1.897 -0.7947 -0.9888 -1.7683
  359SOL     OW 1075   2.217   2.869   2.747  0.0133  0.4243 -0.1631
  359SOL    HW1 1076   2.183   2.838   2.655 -3.4028 -0.6012 -0.3026
  359SOL    HW2 1077   2.187   2.961   2.767 -0.0020 -3.0286  1.0366
  360SOL     OW 1078   1.008   0.327   0.833  0.0002  0.1502 -0.5264
  360SOL    HW1 1079   1.078   0.342   0.761 -2.2812  0.8861 -3.2860
  360SOL    HW2 1080   0.916   0.303   0.797  0.9560 -0.2850  0.4661
  361SOL     OW 1081   2.041   0.137   0.790 -0.5700  0.0765 -0.4550
  361SOL    HW1 1082   2.068   0.232   0.798 -1.0682  0.7387 -0.5307
  361SOL    HW2 1083   2.121   0.086   0.834 -0.0682 -0.4690  1.0324
  362SOL     OW 1084   1.944   1.203   1.316  0.1044  0.9213  0.1518
  362SOL    HW1 1085   1.942   1.194   1.213  0.6131  1.3153  0.0985
  362SOL    HW2 1086   1.979   1.298   1.334 -0.4098  1.1654  0.5714
  363SOL     OW 1087   2.082   1.359   2.307 -0.2270 -0.5465  0.4206
  363SOL    HW1 1088   2.073   1.455   2.272  0.5057  0.4546  0.7074
  363SOL    HW2 1089   2.158   1.323   2.254 -2.0079  0.8442 -1.5335
  364SOL     OW 1090   0.337   0.176   1.179  0.1421 -0.5905 -0.3756
  364SOL    HW1 1091   0.267   0.234   1.227  3.0452  1.0762 -0.7323
  364SOL    HW2 1092   0.296   0.125   1.096 -1.5427 -0.0718 -0.9246
  365SOL     OW 1093   0.654   0.204   2.952 -0.6766  0.1922  0.3446
  365SOL    HW1 1094   0.574   0.168   2.907  2.5008  1.5713  2.2153
  365SOL    HW2 1095   0.720   0.130   2.976 -0.7129 -3.7413  1.2031
  366SOL     OW 1096   1.983   2.473   2.857 -0.3610  0.1099 -0.2831
  366SOL    HW1 1097   1.978   2.532   2.772  1.6659  0.1598  1.0898
  366SOL    HW2 1098   2.084   2.460   2.881  2.2025  2.0526 -2.2232
  367SOL     OW 1099   2.958   2.332   2.932  0.0070  0.5693 -0.5272
  367SOL    HW1 1100   2.869   2.367   2.959  2.2478 -1.4851 -1.9304
  367SOL    HW2 1101   3.023   2.341   3.013 -0.2105  0.2302 -2.2058
  368SOL     OW 1102   0.031   1.158   1.590 -0.6863 -0.8216 -0.1152
  368SOL    HW1 1103   0.009   1.185   1.493 -1.3316  0.1897 -0.2349
  368SOL    HW2 1104   0.129   1.144   1.613 -1.4452 -2.6779 -0.2933
  369SOL     OW 1105   0.916   2.887   2.837  0.0361  0.0065  0.2048
  369SOL    HW1 1106   0.981   2.848   2.902  0.2890 -2.3976 -2.4433
  369SOL    HW2 1107   0.903   2.818   2.756 -1.3118 -2.2427 -0.5052
  370SOL     OW 1108   2.847   0.763   0.530 -0.6810  0.5037  0.8089
  370SOL    HW1 1109   2.757   0.812   0.527 -1.1222  2.5245  0.6746
  370SOL    HW2 1110   2.830   0.663   0.528  0.1370  0.5192 -0.1232
  371SOL     OW 1111   1.634   2.308   0.631 -0.5283 -0.0202 -0.4323
  371SOL    HW1 1112   1.639   2.237   0.702 -0.2765  1.8697 -2.7398
  371SOL    HW2 1113   1.659   2.277   0.539 -1.6067 -0.4129  1.5815
  372SOL     OW 1114   0.030   0.895   2.654  0.2230 -0.4332 -0.3025
  372SOL    HW1 1115   0.110   0.841   2.690  2.6524 -0.8673 -2.4281
  372SOL    HW2 1116   0.040   0.994   2.678 -0.9487  2.0536  0.6931
  373SOL     OW 1117   2.906   1.550   1.230  0.0209  0.9024  0.0825
  373SOL    HW1 1118   2.936   1.645   1.247 -0.1204  0.7601 -0.4666
  373SOL    HW2 1119   2.882   1.533   1.134  1.0598  0.5876  1.9495
  374SOL     OW 1120   0.685   2.944   0.090  0.0431 -0.2591 -0.3511
  374SOL    HW1 1121   0.632   3.026   0.125 -0.2627 -2.6508 -0.2935
  374SOL    HW2 1122   0.750   2.975   0.019 -0.8436 -0.7625 -2.2772
  375SOL     OW 1123   0.191   2.995   0.032  0.2595  0.4551  0.3251
  375SOL    HW1 1124   0.208   3.087   0.077 -0.8253  2.4076  0.8304
  375SOL    HW2 1125   0.088   2.981   0.019 -2.3472  0.9027 -0.7458
  376SOL     OW 1126   0.031   2.246   1.503 -0.0028  0.2030  0.1335
  376SOL    HW1 1127   3.089   2.171   1.559 -1.7479 -1.3035 -0.7147
  376SOL    HW2 1128   0.112   2.209   1.448  0.7957 -0.5029 -0.2520
  377SOL     OW 1129   1.522   2.272   2.701 -0.4149 -0.3800  0.1226
  377SOL    HW1 1130   1.624   2.259   2.702  0.7458 -0.3566  1.6683
  377SOL    HW2 1131   1.477   2.221   2.624 -0.6076  0.1186 -0.4141
  378SOL     OW 1132   0.477   0.352   0.004 -0.2682  0.5480 -0.3033
  378SOL    HW1 1133   0.495   0.447   3.078 -1.8484 -2.7906 -0.8514
  378SOL    HW2 1134   0.553   0.291   3.072  1.3843 -2.5990  1.4480
  379SOL     OW 1135   0.664   0.965   0.447  0.7623 -0.1917  0.2618
  379SOL    HW1 1136   0.740   1.029   0.420  1.1319  0.3127 -0.4909
  379SOL    HW2 1137   0.568   0.996   0.432 -1.6444  0.9315  0.8549
  380SOL     OW 1138   3.031   1.833   1.954  0.6263  0.2172  0.0025
  380SOL    HW1 1139   2.971   1.760   1.987  0.2716  0.7009 -3.0072
  380SOL    HW2 1140   0.018   1.809   1.988 -3.1852 -1.2281 -0.0264
  381SOL     OW 1141   0.253   1.012   1.934  0.0252  0.3530 -0.1365
  381SOL    HW1 1142   0.284   1.107   1.938 -0.4525 -5.6320 -0.9550
  381SOL    HW2 1143   0.215   0.984   1.840  2.4574  1.2581  0.2859
  382SOL     OW 1144   2.435   1.916   0.203  0.2753  0.1189 -0.3219
  382SOL    HW1 1145   2.381   1.838   0.166  1.5283 -2.6812  0.1074
  382SOL    HW2 1146   2.452   1.990   0.135 -0.2382  2.9509  2.2872
  383SOL     OW 1147   2.831   1.891   2.896 -0.3062 -0.2649  0.3650
  383SOL    HW1 1148   2.920   1.851   2.925 -0.5670 -0.0046 -2.2961
  383SOL    HW2 1149   2.835   1.991   2.853  0.6282  0.8456 -2.1820
  384SOL     OW 1150   0.516   2.367   2.566  0.1970 -0.1625  0.1702
  384SOL    HW1 1151   0.418   2.391   2.590 -2.8359  0.7543  0.3376
  384SOL    HW2 1152   0.530   2.358   2.466 -0.8328  1.4912 -1.4025
  385SOL     OW 1153   3.097   1.221   1.156  0.0844 -0.4877 -0.5589
  385SOL    HW1 1154   0.028   1.283   1.227  0.8507  0.4404 -1.3070
  385SOL    HW2 1155   3.094   1.265   1.066  2.1664  3.2705  1.2690
  386SOL     OW 1156   1.976   1.684   1.337 -0.2314  0.2617  0.0090
  386SOL    HW1 1157   2.041   1.714   1.410  0.9401  2.0152  3.4998
  386SOL    HW2 1158   2.014   1.677   1.240  2.5053  0.6983 -1.3031
  387SOL     OW 1159   2.603   1.240   1.963 -0.8543  0.1872  0.0705
  387SOL    HW1 1160   2.552   1.238   1.871  1.3065 -1.0699 -2.6010
  387SOL    HW2 1161   2.652   1.331   1.971  2.1686  0.9875 -0.6041
  388SOL     OW 1162   2.577   1.250   2.260 -0.0256  0.3879 -0.7168
  388SOL    HW1 1163   2.607   1.193   2.342 -1.0185 -0.8654 -2.3208
  388SOL    HW2 1164   2.595   1.213   2.168  1.0446  3.9025 -0.7813
  389SOL     OW 1165   2.052   1.228   1.933  0.2753  0.4596  0.5218
  389SOL    HW1 1166   2.031   1.159   2.001 -1.9846  0.5251 -1.0158
  389SOL    HW2 1167   2.153   1.229   1.917 -2.7872 -1.6198 -0.3837
  390SOL     OW 1168   1.645   2.625   0.273 -0.3986 -0.1689 -0.6994
  390SOL    HW1 1169   1.728   2.586   0.222  1.0510 -1.2960 -0.4982
  390SOL    HW2 1170   1.635   2.599   0.375 -1.3332 -1.8239  4.7902
  391SOL     OW 1171   2.376   1.925   0.766 -0.2488 -0.1467  0.0197
  391SOL    HW1 1172   2.401   1.953   0.863  1.7094  0.4082  1.2899
  391SOL    HW2 1173   2.302   1.989   0.730 -1.1330 -1.3213  2.5442
  392SOL     OW 1174   2.926   2.466   1.090 -0.1293  0.3418  0.0780
  392SOL    HW1 1175   3.016   2.428   1.063 -0.1689 -0.0021  0.3223
  392SOL    HW2 1176   2.944   2.537   1.159 -0.5772  0.8499 -1.5800
  393SOL     OW 1177   1.662   1.908   2.903  0.4629  0.3766 -0.0257
  393SOL    HW1 1178   1.680   1.804   2.897 -1.9257 -1.1053  0.1419
  393SOL    HW2 1179   1.710   1.949   2.987  0.4087  1.9907  1.2113
  394SOL     OW 1180   0.101   0.171   2.781 -0.2781 -0.4566 -0.2446
  394SOL    HW1 1181   0.056   0.085   2.822 -1.3937  0.6416 -0.5170
  394SOL    HW2 1182   0.165   0.207   2.851 -4.2527 -2.6245  0.8533
  395SOL     OW 1183   0.897   0.821   0.871  0.5162 -0.1597 -0.0339
  395SOL    HW1 1184   0.948   0.758   0.807  1.4569  0.4904 -1.3534
  395SOL    HW2 1185   0.870   0.910   0.823 -1.6544  0.5740  3.0966
  396SOL     OW 1186   1.284   1.223   0.468  0.2215 -0.2800 -0.7111
  396SOL    HW1 1187   1.220   1.173   0.529  1.5252  2.0217 -0.9487
  396SOL    HW2 1188   1.364   1.168   0.445 -1.3853  0.3775  0.2256
  397SOL     OW 1189   0.351   0.770   2.068 -0.1927 -0.1220  0.4182
  397SOL    HW1 1190   0.326   0.864   2.041 -0.3874 -2.0727 -0.5656
  397SOL    HW2 1191   0.268   0.713   2.087 -0.3859  1.0127 -1.4300
  398SOL     OW 1192   1.255   0.183   0.506 -0.4173 -0.6410  0.2965
  398SOL    HW1 1193   1.312   0.122   0.575 -0.8921 -0.9866 -1.8643
  398SOL    HW2 1194   1.171   0.129   0.473  0.1887 -0.9121 -2.2331
  399SOL     OW 1195   2.071   2.943   1.659  0.3289 -0.1632 -0.0191
  399SOL    HW1 1196   1.987   2.907   1.704 -0.3748 -0.0586  0.4824
  399SOL    HW2 1197   2.060   3.044   1.636  0.1210 -0.0047  0.6483
  400SOL     OW 1198   1.179   1.677   2.113 -0.1111 -0.7959  0.3891
  400SOL    HW1 1199   1.267   1.708   2.068 -2.9394 -1.0231 -0.8145
  400SOL    HW2 1200   1.189   1.597   2.178  1.1152 -2.4221  1.3487
  401SOL     OW 1201   0.674   1.107   2.818  0.0283  0.3006  0.0046
  401SOL    HW1 1202   0.695   1.011   2.837 -1.7379  0.4933 -1.4591
  401SOL    HW2 1203   0.632   1.143   2.904  1.6774 -2.0987 -0.5065
  402SOL     OW 1204   2.800   1.965   1.030 -0.1402  0.4373 -0.0974
  402SOL    HW1 1205   2.852   1.903   0.967  1.4685  2.3162  0.9922
  402SOL    HW2 1206   2.737   1.917   1.092  2.6533  0.1531 -3.8768
  403SOL     OW 1207   0.056   0.984   2.136 -0.1801 -0.0940  0.7881
  403SOL    HW1 1208   0.051   1.051   2.210  0.8990 -1.4994 -1.0707
  403SOL    HW2 1209   0.136   1.007   2.074  1.7600  2.1657 -0.3678
  404SOL     OW 1210   0.071   2.530   1.741 -0.3613  0.0285  0.3286
  404SOL    HW1 1211   0.138   2.584   1.684 -0.2006 -0.4449 -0.6313
  404SOL    HW2 1212   3.076   2.558   1.714  0.0698  1.0743 -2.6642
  405SOL     OW 1213   0.528   0.478   2.038 -0.1905 -0.3187 -0.2693
  405SOL    HW1 1214   0.430   0.500   2.021  1.1141 -0.5697 -1.4689
  405SOL    HW2 1215   0.532   0.411   2.111 -0.6976 -1.3357 -1.1999
  406SOL     OW 1216   1.584   2.152   2.270  0.2299  0.1878  0.2131
  406SOL    HW1 1217   1.581   2.074   2.199 -2.0353 -2.6693  2.8042
  406SOL    HW2 1218   1.617   2.112   2.362 -1.2520 -2.6603  1.7943
  407SOL     OW 1219   1.342   1.262   2.213  0.0783  0.3427 -0.4139
  407SOL    HW1 1220   1.398   1.331   2.160  0.3852 -2.8642 -0.6188
  407SOL    HW2 1221   1.405   1.183   2.227  1.9157 -0.9854 -0.6325
  408SOL     OW 1222   0.849   0.178   2.449 -0.0973  0.4044  0.2009
  408SOL    HW1 1223   0.858   0.135   2.355 -0.6291  2.2972 -0.3968
  408SOL    HW2 1224   0.880   0.115   2.524  1.0677 -0.9920 -0.8885
  409SOL     OW 1225   0.467   1.950   0.451  0.5044  0.2130  0.1873
  409SOL    HW1 1226   0.569   1.947   0.439 -0.0414  1.2599 -0.0384
  409SOL    HW2 1227   0.450   2.041   0.489  0.2054  1.9164 -1.1197
  410SOL     OW 1228   2.860   1.193   0.450 -0.2509 -0.3137 -0.1903
  410SOL    HW1 1229   2.917   1.116   0.424  2.2291  0.6072  0.8834
  410SOL    HW2 1230   2.778   1.204   0.391 -1.5789 -0.5807  1.2812
  411SOL     OW 1231   3.033   2.970   1.088 -0.0336 -0.2037 -0.1178
  411SOL    HW1 1232   2.937   2.933   1.082 -2.9603 -0.5780  0.4620
  411SOL    HW2 1233   3.027   3.065   1.124  0.4025  2.0823  3.9946
  412SOL     OW 1234   1.666   0.850   1.505  0.5427  0.2646 -0.3200
  412SOL    HW1 1235   1.704   0.924   1.451 -2.1479 -2.6365  3.8629
  412SOL    HW2 1236   1.725   0.766   1.497 -0.5636 -3.3575 -1.0182
  413SOL     OW 1237   0.682   2.871   1.486 -0.3144  0.4098 -0.1692
  413SOL    HW1 1238   0.672   2.939   1.412 -1.1955  0.9776 -0.8223
  413SOL    HW2 1239   0.761   2.814   1.464 -3.1701  1.6754  0.5510
  414SOL     OW 1240   2.837   1.494   2.706  0.9141  0.2446 -0.1472
  414SOL    HW1 1241   2.774   1.571   2.694 -0.2828 -2.2147 -4.1821
  414SOL    HW2 1242   2.902   1.524   2.783  1.4686  2.5772  0.0286
  415SOL     OW 1243   0.476   2.566   2.890 -0.0523  0.6670  0.2537
  415SOL    HW1 1244   0.543   2.563   2.811 -0.1066  1.9632  1.1516
  415SOL    HW2 1245   0.498   2.651   2.940  0.0581 -0.2997  0.2409
  416SOL     OW 1246   2.074   2.882   0.285 -0.5456  0.4932  0.1748
  416SOL    HW1 1247   2.010   2.872   0.204  0.8289 -0.6284 -1.3442
  416SOL    HW2 1248   2.029   2.926   0.361  1.2495 -0.9209 -0.5800
  417SOL     OW 1249   0.402   0.577   0.842 -0.0785 -0.2321  0.3263
  417SOL    HW1 1250   0.487   0.634   0.858  0.0639 -0.4230 -0.4134
  417SOL    HW2 1251   0.414   0.481   0.880  0.8058  0.8969 -1.5493
  418SOL     OW 1252   2.486   0.474   1.290  0.2728  0.6870 -0.7053
  418SOL    HW1 1253   2.458   0.561   1.343  0.9733  3.6200  0.3388
  418SOL    HW2 1254   2.466   0.386   1.348 -0.3640 -2.2923 -0.2535
  419SOL     OW 1255   3.064   0.105   0.392  0.0002  0.0012 -0.3440
  419SOL    HW1 1256   3.070   0.205   0.391  0.0367 -1.2666 -1.9706
  419SOL    HW2 1257   3.059   0.069   0.493 -1.4374  0.6265  1.2053
  420SOL     OW 1258   0.363   1.592   1.569 -0.2461 -0.1144 -0.1296
  420SOL    HW1 1259   0.359   1.690   1.563  1.1278 -1.9410  0.6454
  420SOL    HW2 1260   0.443   1.569   1.628  0.6141 -0.1798 -0.5958
  421SOL     OW 1261   1.092   3.046   0.427  0.2815  0.4620 -0.5600
  421SOL    HW1 1262   1.110   2.966   0.487  3.3513 -0.5983  2.4012
  421SOL    HW2 1263   1.116   3.033   0.331  0.6017 -1.7916 -1.2438
  422SOL     OW 1264   0.215   0.545   1.595  0.0467  0.2287  0.4370
  422SOL    HW1 1265   0.269   0.584   1.671 -0.6069 -0.8715  2.6223
  422SOL    HW2 1266   0.160   0.614   1.550  1.6610 -2.6434  0.2935
  423SOL     OW 1267   1.301   1.141   1.375  0.5282  0.3434 -0.0781
  423SOL    HW1 1268   1.276   1.162   1.474 -3.3532  0.4458  0.6682
  423SOL    HW2 1269   1.372   1.067   1.366  1.7265 -1.4961 -0.5570
  424SOL     OW 1270   2.014   1.584   2.869  0.7572  0.1374 -0.1386
  424SOL    HW1 1271   2.049   1.505   2.928  0.1197 -2.9029  0.1432
  424SOL    HW2 1272   1.922   1.564   2.835  2.5900  0.8977 -1.5517
  425SOL     OW 1273   2.988   0.344   2.083  0.0231  0.2707 -0.3188
  425SOL    HW1 1274   3.018   0.284   2.158  1.5076 -2.6376 -2.2079
  425SOL    HW2 1275   2.994   0.435   2.123 -0.5738 -4.1430  3.1772
  426SOL     OW 1276   0.306   2.960   2.889 -0.1710  0.0715 -0.0022
  426SOL    HW1 1277   0.252   2.966   2.976  1.5830 -1.2979 -3.8853
  426SOL    HW2 1278   0.236   2.930   2.821 -0.2745 -1.8515  1.4785
  427SOL     OW 1279   1.072   1.105   2.547  0.7911  0.0618  0.1708
  427SOL    HW1 1280   1.147   1.115   2.617 -0.6354 -0.4984 -2.6724
  427SOL    HW2 1281   0.981   1.106   2.590  0.3560  1.7537 -1.3354
  428SOL     OW 1282   2.470   1.198   1.720 -0.2318 -0.1304  0.9415
  428SOL    HW1 1283   2.470   1.098   1.751  3.2495 -0.4808  0.5451
  428SOL    HW2 1284   2.511   1.201   1.626 -1.0967 -1.6264  2.1534
  429SOL     OW 1285   2.186   2.535   0.618 -0.0468  0.3269 -0.2732
  429SOL    HW1 1286   2.286   2.547   0.635 -2.1398 -3.0989  1.2370
  429SOL    HW2 1287   2.147   2.480   0.703 -2.9970 -2.2932  3.3151
  430SOL     OW 1288   0.892   1.427   2.317  0.2774 -0.1695 -0.1898
  430SOL    HW1 1289   0.852   1.337   2.279 -1.3764 -1.0793  0.5787
  430SOL    HW2 1290   0.845   1.462   2.403 -0.5522  1.0078 -0.1022
  431SOL     OW 1291   2.713   1.429   1.635  0.6763  0.1867 -0.6713
  431SOL    HW1 1292   2.757   1.505   1.576 -0.2965  2.1398 -0.6563
  431SOL    HW2 1293   2.745   1.338   1.605  0.9216  1.5524  2.0663
  432SOL     OW 1294   1.108   2.752   2.243 -0.4286  0.5231  0.2839
  432SOL    HW1 1295   1.066   2.704   2.164 -3.2977 -2.8010  1.4143
  432SOL    HW2 1296   1.144   2.680   2.309  1.5502 -0.7957  0.6186
  433SOL     OW 1297   2.107   0.232   2.501  0.3623 -0.5662  0.1736
  433SOL    HW1 1298   2.205   0.207   2.489 -0.2875  2.4886  0.6627
  433SOL    HW2 1299   2.064   0.230   2.406  2.1149 -1.1919 -0.9567
  434SOL     OW 1300   0.406   2.736   2.300  0.2955  0.9228  0.4172
  434SOL    HW1 1301   0.322   2.692   2.344 -2.4152 -1.3587  1.0408
  434SOL    HW2 1302   0.459   2.659   2.263 -0.0477  2.5387 -2.1597
  435SOL     OW 1303   3.099   2.819   0.409 -0.1150 -0.5092 -0.0874
  435SOL    HW1 1304   3.060   2.856   0.497 -1.2871  1.0579  0.5767
  435SOL    HW2 1305   3.053   2.733   0.389 -2.1370  3.1057  1.9482
  436SOL     OW 1306   0.845   0.579   1.962  0.7383  0.9693 -0.0149
  436SOL    HW1 1307   0.767   0.638   1.994 -0.5400  0.0880 -0.2543
  436SOL    HW2 1308   0.856   0.506   2.035  2.7012 -1.0052 -1.7346
  437SOL     OW 1309   0.193   2.585   2.402  0.1761  0.2313  0.6461
  437SOL    HW1 1310   0.226   2.540   2.488  1.2277  0.3699 -1.4790
  437SOL    HW2 1311   0.214   2.529   2.325  0.1690  0.4244 -0.2792
  438SOL     OW 1312   0.797   1.333   1.872  0.8263 -0.3486  0.0477
  438SOL    HW1 1313   0.748   1.398   1.813  2.4435 -0.6098 -3.9353
  438SOL    HW2 1314   0.891   1.369   1.887 -0.9446 -1.0493 -0.9431
  439SOL     OW 1315   2.272   1.013   2.161  0.1899  0.2573  0.2944
  439SOL    HW1 1316   2.212   0.988   2.237  2.1602  0.5357 -2.5242
  439SOL    HW2 1317   2.293   1.114   2.163  0.3984  0.2138 -0.6079
  440SOL     OW 1318   0.331   0.764   0.351 -0.8463 -0.0599 -0.4869
  440SOL    HW1 1319   0.397   0.729   0.282  2.0178  2.4678  1.9737
  440SOL    HW2 1320   0.351   0.715   0.437  2.7554 -0.2200 -0.5441
  441SOL     OW 1321   0.730   2.506   1.399 -0.6600 -0.0198  0.3859
  441SOL    HW1 1322   0.731   2.538   1.494  1.4150 -0.7198  2.1328
  441SOL    HW2 1323   0.634   2.488   1.368  2.4243 -3.5990  1.7385
  442SOL     OW 1324   2.279   1.422   0.706  0.3890 -0.0015 -0.4547
  442SOL    HW1 1325   2.272   1.423   0.602  0.4887 -1.4119 -1.0612
  442SOL    HW2 1326   2.372   1.393   0.744 -0.9908  0.8495  1.6379
  443SOL     OW 1327   2.727   1.854   2.443 -0.0797  0.4529  0.0616
  443SOL    HW1 1328   2.677   1.921   2.385  1.5631 -1.7962 -1.1002
  443SOL    HW2 1329   2.738   1.766   2.391  0.9101  3.1956 -0.7862
  444SOL     OW 1330   1.648   1.636   2.970  0.3528 -0.2048 -0.5546
  444SOL    HW1 1331   1.678   1.628   3.071  6.0715 -0.2010  1.9008
  444SOL    HW2 1332   1.547   1.626   2.963  1.4719  0.2350  1.7708
  445SOL     OW 1333   2.706   2.633   2.204 -0.6231  0.1289  0.8148
  445SOL    HW1 1334   2.776   2.614   2.132 -2.5684  0.3802 -0.0752
  445SOL    HW2 1335   2.739   2.712   2.257  2.2090 -0.0861  0.3623
  446SOL     OW 1336   0.455   0.931   1.481  0.1831  0.2701 -0.1385
  446SOL    HW1 1337   0.519   0.914   1.401  2.8377  2.3949  2.1377
  446SOL    HW2 1338   0.503   0.907   1.573  0.3771 -0.3918  1.4438
  447SOL     OW 1339   0.948   1.281   0.974 -0.2024  0.2156  0.4157
  447SOL    HW1 1340   1.048   1.280   0.947 -0.0081 -0.8983 -3.2437
  447SOL    HW2 1341   0.935   1.293   1.070 -0.5972 -1.0242 -1.8498
  448SOL     OW 1342   1.216   1.200   1.620 -0.0713 -0.5746  0.3400
  448SOL    HW1 1343   1.293   1.208   1.689  0.3574 -1.2747  0.1545
  448SOL    HW2 1344   1.145   1.136   1.644  2.0824  1.3824 -1.9267
  449SOL     OW 1345   0.015   1.993   2.317 -0.1389  0.2873  0.2115
  449SOL    HW1 1346   3.099   2.018   2.218 -2.0689 -0.3083 -0.9552
  449SOL    HW2 1347   0.112   1.991   2.340 -1.1879  0.3355  1.1146
  450SOL     OW 1348   2.812   1.995   1.957 -0.7148 -0.1729 -0.7857
  450SOL    HW1 1349   2.811   2.072   2.021  1.3345 -1.2496  0.8253
  450SOL    HW2 1350   2.900   1.940   1.965 -1.8359  0.1732  1.5337
  451SOL     OW 1351   2.222   1.017   1.319  0.2915  0.3760 -0.3003
  451SOL    HW1 1352   2.163   0.939   1.352 -0.8692  2.0184  0.6993
  451SOL    HW2 1353   2.318   0.999   1.343  0.1974 -1.6642 -2.5323
  452SOL     OW 1354   0.635   1.237   1.411  0.7422  0.1014  0.2099
  452SOL    HW1 1355   0.686   1.211   1.495  0.7843  1.9990  0.9154
  452SOL    HW2 1356   0.558   1.170   1.399  0.5966 -2.7904 -0.2299
  453SOL     OW 1357   0.591   1.329   1.010 -0.4549 -0.3086 -0.0532
  453SOL    HW1 1358   0.506   1.271   1.021  1.2373 -1.1586  2.4950
  453SOL    HW2 1359   0.664   1.290   1.069 -1.9143  2.3037 -1.7356
  454SOL     OW 1360   0.457   1.711   0.068  0.1049 -0.0674 -0.0238
  454SOL    HW1 1361   0.537   1.694   0.127 -2.2835 -0.0689 -1.6904
  454SOL    HW2 1362   0.415   1.623   0.043  1.7353 -0.1314  1.9312
  455SOL     OW 1363   1.993   0.881   0.860 -0.0296  0.5724 -0.9117
  455SOL    HW1 1364   2.045   0.951   0.914 -0.6641  0.9354 -0.2672
  455SOL    HW2 1365   1.938   0.827   0.926  0.8735 -1.0425  0.1071
  456SOL     OW 1366   1.987   2.417   0.800  0.3568 -0.2735  0.4581
  456SOL    HW1 1367   1.920   2.441   0.873 -0.7724  1.8471 -0.1351
  456SOL    HW2 1368   2.071   2.371   0.836  2.1225 -2.0513  0.0645
  457SOL     OW 1369   1.867   3.037   2.647 -0.0186 -0.0382 -0.1386
  457SOL    HW1 1370   1.768   3.059   2.628  0.2102 -2.6115  0.6729
  457SOL    HW2 1371   1.933   0.004   2.617 -0.4353 -1.0257  0.8158
  458SOL     OW 1372   2.471   0.329   0.268  0.2577 -0.3630 -0.0916
  458SOL    HW1 1373   2.421   0.331   0.179 -0.9218 -1.6388 -0.4286
  458SOL    HW2 1374   2.407   0.327   0.350 -0.2862 -2.8802  0.8440
  459SOL     OW 1375   0.056   1.190   2.351 -0.1161 -0.5015  0.4286
  459SOL    HW1 1376   3.055   1.189   2.338  2.3341  1.0314 -1.6711
  459SOL    HW2 1377   0.093   1.254   2.283 -0.3945 -1.0896 -1.0927
  460SOL     OW 1378   0.118   0.861   3.096  0.0364 -0.2974 -0.0857
  460SOL    HW1 1379   0.149   0.786   3.032 -0.1910 -0.2553 -0.1804
  460SOL    HW2 1380   0.145   0.954   3.062 -0.0411 -0.1153  2.1849
  461SOL     OW 1381   2.708   2.390   0.945 -0.5048  0.0906  0.1776
  461SOL    HW1 1382   2.772   2.423   1.021  1.7056  0.4838  1.0478
  461SOL    HW2 1383   2.753   2.322   0.880  0.9604 -0.3173 -0.2587
  462SOL     OW 1384   0.378   0.068   1.638 -0.0019 -0.1315  0.3718
  462SOL    HW1 1385   0.476   0.094   1.614  0.3114 -2.7494 -0.8864
  462SOL    HW2 1386   0.361   3.075   1.603  2.3399 -0.9829 -0.0291
  463SOL     OW 1387   2.074   2.250   2.128 -0.2037 -0.0198 -0.0498
  463SOL    HW1 1388   2.067   2.251   2.229 -1.0557 -0.7231  1.9279
  463SOL    HW2 1389   1.985   2.281   2.087 -0.3389 -0.9518 -0.6067
  464SOL     OW 1390   0.358   2.995   1.384  0.0030 -0.2915  0.0549
  464SOL    HW1 1391   0.392   3.079   1.346 -2.5304 -0.8559 -2.3899
  464SOL    HW2 1392   0.273   2.968   1.333  0.5967 -0.1204  1.0948
  465SOL     OW 1393   0.620   0.158   1.512 -0.5184 -0.1656  0.2399
  465SOL    HW1 1394   0.708   0.110   1.535  1.3903  1.4096  1.6357
  465SOL    HW2 1395   0.628   0.258   1.533  1.0997 -0.6555 -1.1914
  466SOL     OW 1396   1.450   1.929   1.806 -0.1172 -0.1005 -0.1262
  466SOL    HW1 1397   1.517   1.898   1.735 -1.6285  1.4283 -2.5876
  466SOL    HW2 1398   1.359   1.913   1.767  0.0594 -0.9933  1.1318
  467SOL     OW 1399   0.096   1.763   1.124 -0.1453  0.3097  0.2386
  467SOL    HW1 1400   0.192   1.758   1.164  0.0186 -0.9055  1.7204
  467SOL    HW2 1401   0.088   1.710   1.036  2.0298  2.3835  0.6871
  468SOL     OW 1402   2.321   2.049   2.622 -0.0507  0.3769 -0.2988
  468SOL    HW1 1403   2.378   2.055   2.536  0.3174 -1.6093  1.4082
  468SOL    HW2 1404   2.247   1.978   2.620  0.3154 -0.1140 -1.3467
  469SOL     OW 1405   1.141   2.321   0.688 -0.0031 -0.1429 -0.3205
  469SOL    HW1 1406   1.059   2.270   0.662 -0.6976 -0.1826  1.5348
  469SOL    HW2 1407   1.209   2.340   0.617 -0.9302 -1.0563  1.3278
  470SOL     OW 1408   2.160   1.648   1.133 -0.2651 -0.2110  0.6776
  470SOL    HW1 1409   2.213   1.719   1.182 -0.0004  0.0140 -0.2870
  470SOL    HW2 1410   2.166   1.657   1.030  0.0208  0.5555  0.4716
  471SOL     OW 1411   0.639   2.370   0.303  0.2228  0.1321  0.1334
  471SOL    HW1 1412   0.571   2.440   0.265 -1.9012  0.5229  0.4244
  471SOL    HW2 1413   0.648   2.292   0.240 -0.5622  1.2732 -2.0815
  472SOL     OW 1414   2.651   1.917   2.181  0.0392 -0.4527  0.2359
  472SOL    HW1 1415   2.732   1.917   2.115  0.8942 -1.0539 -2.2785
  472SOL    HW2 1416   2.596   2.002   2.174  1.5892  0.0588 -1.0911
  473SOL     OW 1417   1.167   2.945   0.782 -0.2402 -0.4157  0.4376
  473SOL    HW1 1418   1.148   2.891   0.700 -0.4602  0.6506  2.5300
  473SOL    HW2 1419   1.227   3.030   0.763  3.2274  3.6115  3.5557
  474SOL     OW 1420   3.000   0.102   1.276 -0.0756 -0.1901  0.3564
  474SOL    HW1 1421   2.900   0.127   1.270 -0.4363 -0.5310  0.6420
  474SOL    HW2 1422   3.016   0.062   1.369  0.4755 -0.9106  2.2811
  475SOL     OW 1423   1.696   2.677   1.669  0.3098  0.3870  0.4059
  475SOL    HW1 1424   1.693   2.583   1.711 -1.3973 -0.7047  0.9852
  475SOL    HW2 1425   1.625   2.690   1.592 -2.6426 -3.2891 -0.4561
  476SOL     OW 1426   0.465   0.342   0.959  0.0246  0.0053  0.1618
  476SOL    HW1 1427   0.559   0.311   0.971 -2.3529 -0.9762 -2.6708
  476SOL    HW2 1428   0.413   0.317   1.040  2.3907  0.7778 -2.4318
  477SOL     OW 1429   0.916   2.412   1.068 -0.3667  0.6862  0.3733
  477SOL    HW1 1430   0.993   2.456   1.125  1.9335  2.1888  3.4722
  477SOL    HW2 1431   0.951   2.353   0.996 -2.9297  2.0180  2.0925
  478SOL     OW 1432   0.769   2.766   2.593  0.1163 -0.2770  0.1245
  478SOL    HW1 1433   0.734   2.683   2.643 -2.4777  0.3658  2.0738
  478SOL    HW2 1434   0.707   2.849   2.609 -0.2033  0.8359 -0.2615
  479SOL     OW 1435   0.241   0.492   2.019 -0.6186 -0.1917 -0.0447
  479SOL    HW1 1436   0.178   0.570   2.049 -0.2067 -0.6924 -0.7956
  479SOL    HW2 1437   0.196   0.432   1.949 -1.4705 -0.6279  0.5353
  480SOL     OW 1438   0.088   2.067   0.023 -0.2845 -0.0566  0.3138
  480SOL    HW1 1439   0.028   2.132   0.068 -1.6905  1.6559  0.4841
  480SOL    HW2 1440   0.155   2.022   0.085  0.5217  0.7199  2.4206
  481SOL     OW 1441   1.458   2.593   2.222 -0.1635  0.2909  0.1567
  481SOL    HW1 1442   1.534   2.524   2.241 -0.8159 -0.1025  0.9472
  481SOL    HW2 1443   1.401   2.573   2.141  0.1240  2.9614  2.0895
  482SOL     OW 1444   1.406   2.161   2.949 -0.2310  0.1580  0.2854
  482SOL    HW1 1445   1.466   2.196   2.877 -2.3316 -0.6588 -0.2098
  482SOL    HW2 1446   1.406   2.063   2.950  0.9273 -0.5704  1.0154
  483SOL     OW 1447   0.673   2.535   2.709 -0.2680 -0.2429  0.1636
  483SOL    HW1 1448   0.615   2.490   2.639  0.1746 -0.4802  0.1540
  483SOL    HW2 1449   0.764   2.492   2.718 -0.7912 -2.4232 -0.8199
  484SOL     OW 1450   0.207   0.048   0.967 -0.3526 -0.5403 -0.1271
  484SOL    HW1 1451   0.200   3.063   0.914 -0.1880  0.1667 -0.1521
  484SOL    HW2 1452   0.157   0.120   0.909 -2.3590  1.3265 -0.0584
  485SOL     OW 1453   1.820   0.620   0.650 -0.0775 -0.2891 -0.1430
  485SOL    HW1 1454   1.801   0.717   0.679  0.1995  3.0811 -0.0501
  485SOL    HW2 1455   1.813   0.556   0.727 -0.9447  0.4954 -3.4643
  486SOL     OW 1456   2.022   2.619   1.993 -0.1051 -0.1717 -0.1337
  486SOL    HW1 1457   2.123   2.614   1.992 -0.2916  0.4093 -0.8988
  486SOL    HW2 1458   1.994   2.661   2.082  1.6007  2.0228  3.7826
  487SOL     OW 1459   1.570   2.113   0.817 -0.2169 -0.3045 -0.0339
  487SOL    HW1 1460   1.489   2.130   0.872  2.9104  0.5793  1.5411
  487SOL    HW2 1461   1.625   2.049   0.874  0.5454 -0.4100 -0.6409
  488SOL     OW 1462   1.831   0.774   0.012 -0.2208 -0.2338  0.2704
  488SOL    HW1 1463   1.838   0.787   0.113 -0.4830 -1.4753 -0.4129
  488SOL    HW2 1464   1.920   0.771   3.069  0.0476  1.0277  1.5968
  489SOL     OW 1465   2.270   0.023   0.478 -0.2351  0.0714 -0.2733
  489SOL    HW1 1466   2.181   3.078   0.507  2.2125  1.1521 -2.3189
  489SOL    HW2 1467   2.355   3.072   0.506 -0.1060 -1.9634 -0.3426
  490SOL     OW 1468   1.625   2.696   2.926  0.3552  0.4149  0.2335
  490SOL    HW1 1469   1.610   2.782   2.980 -3.9012 -0.6443 -2.5632
  490SOL    HW2 1470   1.671   2.730   2.840  1.1734  0.2558 -0.9961
  491SOL     OW 1471   0.939   0.417   1.073 -0.4408 -0.5697  0.6697
  491SOL    HW1 1472   0.962   0.393   0.975 -1.4738  0.1495 -1.6369
  491SOL    HW2 1473   0.999   0.359   1.132 -1.4064 -0.0510  0.1296
  492SOL     OW 1474   1.734   0.335   0.178  0.0562 -0.0861  0.4326
  492SOL    HW1 1475   1.730   0.317   0.078  0.9459 -0.2553  0.9817
  492SOL    HW2 1476   1.829   0.365   0.212  0.5126  1.5529 -1.2162
  493SOL     OW 1477   1.986   2.181   2.831 -0.2900 -0.2863  0.2460
  493SOL    HW1 1478   1.976   2.286   2.835 -1.0105  0.5633 -0.7616
  493SOL    HW2 1479   2.074   2.144   2.872  0.0207  0.1170  0.4783
  494SOL     OW 1480   0.398   1.132   1.000 -0.5063  0.0241  0.0867
  494SOL    HW1 1481   0.439   1.059   0.938  0.7774 -1.2311 -1.5561
  494SOL    HW2 1482   0.332   1.079   1.063 -0.1437 -2.3356  1.2961
  495SOL     OW 1483   3.025   0.006   1.536  0.1931 -0.1876  0.3191
  495SOL    HW1 1484   2.950   0.074   1.556  0.2928  1.8255 -1.2636
  495SOL    HW2 1485   0.005   0.022   1.599 -0.4794 -0.8352 -0.1790
  496SOL     OW 1486   2.862   2.564   1.994  0.3203 -0.0331  0.2858
  496SOL    HW1 1487   2.850   2.600   1.901 -0.8267 -0.4830 -0.7011
  496SOL    HW2 1488   2.897   2.466   1.987  0.0457  0.4301 -0.0747
  497SOL     OW 1489   1.647   1.759   2.501 -0.6702  0.1295  0.3016
  497SOL    HW1 1490   1.668   1.686   2.429 -1.6677 -0.5038  1.1763
  497SOL    HW2 1491   1.701   1.740   2.585 -1.5298  3.1851  1.8964
  498SOL     OW 1492   0.399   1.718   0.900 -0.4313  0.4768  0.3915
  498SOL    HW1 1493   0.297   1.711   0.883 -1.3278  0.5618  0.4583
  498SOL    HW2 1494   0.442   1.766   0.822  1.8206  0.5709  0.8204
  499SOL     OW 1495   0.261   1.373   1.442 -0.3125 -0.1407 -0.8395
  499SOL    HW1 1496   0.298   1.301   1.507 -0.5134  0.2256 -1.0779
  499SOL    HW2 1497   0.280   1.467   1.481  0.3595  0.1572 -0.2401
  500SOL     OW 1498   1.308   2.450   0.489  0.3162  0.5768  0.3071
  500SOL    HW1 1499   1.391   2.406   0.450 -1.5056  1.1340 -0.9551
  500SOL    HW2 1500   1.274   2.518   0.419  0.6870  0.8252  1.9623
  501SOL     OW 1501   2.215   2.331   0.893  0.3717  0.0076 -0.1678
  501SOL    HW1 1502   2.242   2.351   0.987  0.5995  1.6875 -2.6041
  501SOL    HW2 1503   2.301   2.323   0.836  3.2476  2.3151 -0.6839
  502SOL     OW 1504   0.124   0.882   1.701 -0.6340 -0.1041 -0.2377
  502SOL    HW1 1505   0.136   0.913   1.606 -0.1969  1.4880  1.1083
  502SOL    HW2 1506   0.195   0.816   1.732 -1.2577 -0.4747 -1.1675
  503SOL     OW 1507   2.347   3.080   1.778 -0.0097  0.1577  0.3386
  503SOL    HW1 1508   2.251   3.064   1.738  0.6073 -0.3842 -1.9319
  503SOL    HW2 1509   2.407   0.039   1.722  0.3812 -0.7530  1.5190
  504SOL     OW 1510   2.046   0.589   1.959  0.2696  0.0934 -0.1026
  504SOL    HW1 1511   1.977   0.655   2.002 -2.1543 -0.0085 -1.3507
  504SOL    HW2 1512   2.140   0.631   1.964  2.2250  0.6245 -1.5092
  505SOL     OW 1513   1.271   2.953   2.283  0.1218  0.3417  0.0741
  505SOL    HW1 1514   1.348   2.916   2.338 -4.9906  0.5992  0.6871
  505SOL    HW2 1515   1.191   2.885   2.273 -1.4049 -2.4613  1.2667
  506SOL     OW 1516   0.629   0.358   1.830  0.6578 -0.4469 -0.0558
  506SOL    HW1 1517   0.610   0.432   1.900  0.0622  3.5768  0.1302
  506SOL    HW2 1518   0.613   0.399   1.738  0.8633  0.9858  1.8154
  507SOL     OW 1519   1.577   0.273   3.023 -0.5566 -0.4463 -0.0513
  507SOL    HW1 1520   1.545   0.254   2.930  1.6378  2.6241  1.7912
  507SOL    HW2 1521   1.507   0.255   3.089  0.2809 -1.7647 -0.3947
  508SOL     OW 1522   2.521   0.651   2.368  0.1212  0.0549  0.2352
  508SOL    HW1 1523   2.512   0.685   2.466  0.4336 -0.8685 -0.7941
  508SOL    HW2 1524   2.498   0.724   2.300  0.9506  0.6266 -0.0963
  509SOL     OW 1525   1.037   1.486   1.963 -0.2910  0.8891  0.1013
  509SOL    HW1 1526   1.099   1.403   1.975  2.3047 -1.4062  1.5082
  509SOL    HW2 1527   1.082   1.567   1.999  1.6935  0.7586  1.3002
  510SOL     OW 1528   3.033   0.672   0.945  0.2631 -0.0145  0.0219
  510SOL    HW1 1529   3.053   0.691   0.845  0.7841 -0.8531 -1.3521
  510SOL    HW2 1530   2.937   0.698   0.957 -0.7670 -0.1059  0.9802
  511SOL     OW 1531   1.565   1.308   0.676  0.2883 -0.0707  0.6410
  511SOL    HW1 1532   1.594   1.329   0.578  1.1669 -0.3602 -1.8089
  511SOL    HW2 1533   1.516   1.390   0.712  1.9880 -0.0273 -3.6101
  512SOL     OW 1534   0.757   1.443   0.325  0.3297  0.2748  0.4207
  512SOL    HW1 1535   0.666   1.397   0.335  0.3479  0.7076 -1.2760
  512SOL    HW2 1536   0.826   1.408   0.394 -2.5107  2.4214  1.5217
  513SOL     OW 1537   0.225   2.674   0.754  0.2347 -0.5555 -0.4710
  513SOL    HW1 1538   0.317   2.703   0.723  1.6639  1.6026  2.3583
  513SOL    HW2 1539   0.193   2.578   0.742 -0.0342  0.9586 -0.3079
  514SOL     OW 1540   0.303   2.025   0.218  0.4656 -0.2124 -0.4564
  514SOL    HW1 1541   0.343   2.014   0.124  0.0530  0.0297  1.1888
  514SOL    HW2 1542   0.357   1.980   0.291  1.2776 -2.9940  0.4849
  515SOL     OW 1543   2.723   0.416   0.246  0.0366  0.4442  0.3823
  515SOL    HW1 1544   2.631   0.373   0.257 -2.7650 -2.5295 -2.4681
  515SOL    HW2 1545   2.768   0.429   0.335  1.1867 -0.2497 -0.8982
  516SOL     OW 1546   2.224   2.729   1.107  0.3370 -0.2358  0.3895
  516SOL    HW1 1547   2.154   2.736   1.184  1.1066  1.7195  0.0711
  516SOL    HW2 1548   2.192   2.786   1.031  3.5471 -0.7387 -1.0546
  517SOL     OW 1549   1.370   1.568   2.983 -0.1532 -0.4381  0.7148
  517SOL    HW1 1550   1.342   1.564   3.081  1.4615 -1.0503  0.4097
  517SOL    HW2 1551   1.313   1.510   2.927  2.7764  0.2368  0.7745
  518SOL     OW 1552   1.349   0.361   1.552  0.2036 -0.4788  0.1907
  518SOL    HW1 1553   1.366   0.394   1.455 -1.4428 -0.8080 -0.9626
  518SOL    HW2 1554   1.280   0.423   1.595  1.9821  1.5717 -0.5318
  519SOL     OW 1555   2.940   2.145   0.558  0.2644  0.4827 -0.0570
  519SOL    HW1 1556   2.989   2.184   0.635 -4.8762 -1.1387 -0.5707
  519SOL    HW2 1557   2.852   2.189   0.539  0.0679  2.0036  0.1094
  520SOL     OW 1558   2.229   2.353   1.700  0.1281  0.0269  0.0332
  520SOL    HW1 1559   2.173   2.436   1.681  0.1823  0.6074 -1.5630
  520SOL    HW2 1560   2.331   2.378   1.704 -1.1060 -2.0867 -1.5013
  521SOL     OW 1561   1.249   2.947   2.670 -0.0452  0.1041  0.2264
  521SOL    HW1 1562   1.199   2.859   2.653 -1.4677 -0.5702  1.6745
  521SOL    HW2 1563   1.283   2.945   2.767 -0.5019  1.8143 -0.0802
  522SOL     OW 1564   2.697   0.112   1.811 -0.4144  0.3960 -0.0463
  522SOL    HW1 1565   2.790   0.089   1.783 -0.4017 -0.7737 -0.8070
  522SOL    HW2 1566   2.699   0.154   1.906 -0.4870  0.1555  2.2313
  523SOL     OW 1567   1.301   2.235   1.689 -0.0843  0.9244 -0.1561
  523SOL    HW1 1568   1.212   2.254   1.727  0.0155 -0.2222  2.1214
  523SOL    HW2 1569   1.303   2.138   1.650 -2.1146 -0.3791  0.0781
  524SOL     OW 1570   2.201   2.118   0.133  0.2131 -0.0947 -0.4559
  524SOL    HW1 1571   2.297   2.132   0.163  1.5027 -3.6316 -0.2120
  524SOL    HW2 1572   2.195   2.098   0.031  0.9736 -0.3655 -0.4538
  525SOL     OW 1573   3.021   0.968   0.433  0.3185  0.2048  0.2900
  525SOL    HW1 1574   3.091   0.926   0.372 -1.5307  0.6244  0.1637
  525SOL    HW2 1575   2.964   0.893   0.478 -0.0684 -0.5942  3.9668
  526SOL     OW 1576   0.906   2.892   1.213 -0.3800  0.0619  0.6051
  526SOL    HW1 1577   0.920   2.912   1.115 -3.2590  1.5087  1.4787
  526SOL    HW2 1578   0.870   2.796   1.212 -2.4455  3.1322  1.1866
  527SOL     OW 1579   2.725   1.390   0.648 -0.8879  0.0558  0.5805
  527SOL    HW1 1580   2.759   1.485   0.668 -0.5438  1.5532 -0.5873
  527SOL    HW2 1581   2.804   1.325   0.670  1.3652 -0.5579  3.3798
  528SOL     OW 1582   0.628   0.856   2.505 -0.4856  0.7081  0.0461
  528SOL    HW1 1583   0.635   0.956   2.490  1.3181  1.3531  3.5213
  528SOL    HW2 1584   0.559   0.819   2.441 -0.7930 -0.3334 -3.3075
  529SOL     OW 1585   0.759   1.602   2.980 -0.5096 -0.3937 -0.5250
  529SOL    HW1 1586   0.860   1.579   2.972 -1.4704 -2.0647 -0.6300
  529SOL    HW2 1587   0.714   1.573   2.895 -0.4370  1.0508 -0.7709
  530SOL     OW 1588   1.664   1.201   2.125  0.1288 -0.0727 -0.4842
  530SOL    HW1 1589   1.738   1.146   2.084  0.7139 -0.9740 -0.2291
  530SOL    HW2 1590   1.592   1.141   2.172 -2.9588 -1.0833  1.4706
  531SOL     OW 1591   0.740   2.193   2.800 -0.3651  0.4195  0.3077
  531SOL    HW1 1592   0.681   2.190   2.882  1.9437  0.5658 -0.5491
  531SOL    HW2 1593   0.836   2.187   2.824 -4.8140 -1.0886 -3.0365
  532SOL     OW 1594   2.386   0.760   0.253 -0.0630 -0.1925  0.4240
  532SOL    HW1 1595   2.369   0.862   0.244 -0.1939  3.8510  0.2505
  532SOL    HW2 1596   2.399   0.714   0.162  1.3561  0.9959 -3.6538
  533SOL     OW 1597   3.066   0.424   1.654 -0.2596  0.4339 -0.4526
  533SOL    HW1 1598   0.063   0.450   1.638  0.4431 -0.9274 -0.3120
  533SOL    HW2 1599   3.002   0.507   1.663 -0.8039 -1.0594 -0.4827
  534SOL     OW 1600   1.715   0.570   2.935  0.3992  0.5314 -0.4397
  534SOL    HW1 1601   1.646   0.499   2.959 -3.0430  0.9907  2.1634
  534SOL    HW2 1602   1.737   0.637   3.006  1.2454 -0.7701 -2.4515
  535SOL     OW 1603   0.839   0.131   0.268  0.9122 -0.1121 -0.0642
  535SOL    HW1 1604   0.895   0.091   0.194  1.3380  2.5085 -0.6481
  535SOL    HW2 1605   0.741   0.111   0.249  0.2042 -1.7653 -0.9167
  536SOL     OW 1606   0.537   1.586   2.001  0.8188 -0.2376  0.1637
  536SOL    HW1 1607   0.462   1.558   2.060  1.1882 -1.1447 -1.0376
  536SOL    HW2 1608   0.632   1.564   2.038 -1.8641  0.4439  1.8913
  537SOL     OW 1609   0.514   2.429   1.940 -0.0306  0.0623  0.1483
  537SOL    HW1 1610   0.459   2.407   1.859  0.0965  2.2734  0.9551
  537SOL    HW2 1611   0.454   2.461   2.017 -2.1149  1.7512  0.3618
  538SOL     OW 1612   3.023   1.816   0.226 -0.1742 -0.5320 -0.5705
  538SOL    HW1 1613   3.099   1.772   0.181  1.0401 -0.5618  0.0057
  538SOL    HW2 1614   3.035   1.857   0.320 -1.2597  0.8847  0.9848
  539SOL     OW 1615   2.558   0.420   2.717  0.3683 -0.0516 -0.1647
  539SOL    HW1 1616   2.457   0.398   2.706  0.6021 -0.3202 -1.9658
  539SOL    HW2 1617   2.586   0.407   2.814 -0.4743 -1.7228  1.3418
  540SOL     OW 1618   1.225   0.843   2.696  0.0092 -0.3143 -0.0027
  540SOL    HW1 1619   1.274   0.874   2.609  1.1034  2.5040  0.0344
  540SOL    HW2 1620   1.273   0.886   2.777  1.1414  0.9726  0.1336
  541SOL     OW 1621   0.894   0.593   1.696  0.1716  0.3926  0.3979
  541SOL    HW1 1622   0.873   0.585   1.796  0.8149  0.4333 -0.0723
  541SOL    HW2 1623   0.867   0.680   1.655  1.4969  1.3289 -1.0369
  542SOL     OW 1624   1.846   2.478   2.398  0.3003  0.0142  0.0634
  542SOL    HW1 1625   1.783   2.432   2.333  1.5213 -0.4099  0.4593
  542SOL    HW2 1626   1.886   2.561   2.351  2.7994 -1.1000  2.6593
  543SOL     OW 1627   0.605   2.769   1.041 -0.3535 -0.4182 -0.1782
  543SOL    HW1 1628   0.632   2.763   1.139  0.5729 -0.6982  0.7349
  543SOL    HW2 1629   0.564   2.859   1.015  0.4624  0.7676  1.2467
  544SOL     OW 1630   2.780   1.628   2.288  0.0759 -0.1576 -0.3431
  544SOL    HW1 1631   2.691   1.571   2.300  1.4150 -1.4526  0.8530
  544SOL    HW2 1632   2.849   1.583   2.344 -1.2663  1.8129  2.7971
  545SOL     OW 1633   1.797   2.056   1.353  0.0423  0.3274 -0.4569
  545SOL    HW1 1634   1.821   2.010   1.439 -1.2779 -0.7838 -0.3740
  545SOL    HW2 1635   1.736   2.003   1.288  1.1590 -1.8952 -2.8511
  546SOL     OW 1636   0.246   0.354   2.370  0.2819  0.0634  0.0172
  546SOL    HW1 1637   0.172   0.325   2.307 -3.4128 -1.6027  2.5494
  546SOL    HW2 1638   0.264   0.297   2.452 -0.7895  3.5711 -1.8068
  547SOL     OW 1639   1.516   0.417   0.964  0.0058 -0.8588  0.3371
  547SOL    HW1 1640   1.552   0.446   1.055 -0.0582 -0.5742  1.1900
  547SOL    HW2 1641   1.440   0.481   0.940  2.4513  2.8180 -1.2375
  548SOL     OW 1642   1.174   2.404   2.879 -0.1449 -0.2100  0.0098
  548SOL    HW1 1643   1.193   2.303   2.888 -0.2674 -2.8508 -0.5295
  548SOL    HW2 1644   1.264   2.450   2.859  1.2002 -1.2593  0.3745
  549SOL     OW 1645   2.271   0.685   2.617 -0.6796 -0.4529  0.3836
  549SOL    HW1 1646   2.369   0.719   2.613 -1.1177  0.8576  0.1213
  549SOL    HW2 1647   2.237   0.669   2.522  0.6982  2.6048 -1.2336
  550SOL     OW 1648   2.639   1.867   0.395 -0.0587 -0.2049  0.2019
  550SOL    HW1 1649   2.539   1.865   0.375  0.5505  0.3804  3.3721
  550SOL    HW2 1650   2.687   1.815   0.326 -0.5770  0.7129  1.0395
  551SOL     OW 1651   1.222   2.954   2.018 -0.1046  0.0449 -0.2896
  551SOL    HW1 1652   1.300   3.000   1.973 -0.0459  0.5536  1.2675
  551SOL    HW2 1653   1.234   2.964   2.118 -0.7908 -0.4807 -2.0036
  552SOL     OW 1654   2.998   2.124   2.538  0.0026  0.6412 -0.2260
  552SOL    HW1 1655   3.012   2.075   2.450 -1.8785  1.4888 -1.9458
  552SOL    HW2 1656   2.917   2.094   2.588  0.2163  0.8702  0.2260
  553SOL     OW 1657   0.167   2.549   1.248  0.0296 -0.0043 -0.4575
  553SOL    HW1 1658   0.213   2.594   1.171 -0.2418 -0.1051  1.2541
  553SOL    HW2 1659   0.066   2.569   1.241  3.3647 -1.4705 -0.2548
  554SOL     OW 1660   2.362   1.932   1.842  0.3273  0.2328  0.3960
  554SOL    HW1 1661   2.319   1.971   1.927  0.0871 -2.3528  0.6659
  554SOL    HW2 1662   2.328   1.976   1.755 -0.3390  1.5815 -1.3700
  555SOL     OW 1663   1.627   2.142   1.930 -0.6969  0.1197 -0.0109
  555SOL    HW1 1664   1.555   2.079   1.904 -1.3387  4.1214  0.3779
  555SOL    HW2 1665   1.617   2.236   1.897  1.9155  1.0947 -0.8641
  556SOL     OW 1666   1.377   1.681   1.034  0.5837 -0.1244 -0.0011
  556SOL    HW1 1667   1.374   1.617   1.109  0.8559  0.7760 -1.6523
  556SOL    HW2 1668   1.364   1.775   1.068  1.0160 -2.9325 -1.9464
  557SOL     OW 1669   1.259   0.006   1.454 -0.0973  0.6069 -0.1061
  557SOL    HW1 1670   1.272   0.082   1.519 -1.8553  0.5647 -0.4853
  557SOL    HW2 1671   1.191   3.040   1.487  1.3061 -0.1404 -0.3672
  558SOL     OW 1672   0.583   0.077   1.888  0.6208  0.6333  0.5483
  558SOL    HW1 1673   0.566   0.082   1.991 -0.1261 -1.7216  0.6331
  558SOL    HW2 1674   0.579   0.171   1.856 -0.5371 -0.6774 -1.8587
  559SOL     OW 1675   2.194   2.624   0.333  0.2915  0.2962 -0.5946
  559SOL    HW1 1676   2.174   2.719   0.311 -0.8504 -0.6349  1.0179
  559SOL    HW2 1677   2.179   2.602   0.430  1.3028  1.1549 -0.1824
  560SOL     OW 1678   1.395   2.567   0.729 -0.3959 -0.3919  0.0408
  560SOL    HW1 1679   1.358   2.526   0.647  0.3449  0.9403  1.5119
  560SOL    HW2 1680   1.466   2.506   0.758 -5.4387  4.6955 -1.3226
  561SOL     OW 1681   1.098   0.349   0.069 -0.0216  0.1164 -0.6472
  561SOL    HW1 1682   1.099   0.439   0.019 -2.2270  1.1080 -1.4133
  561SOL    HW2 1683   1.069   0.363   0.170 -0.4231 -1.0364 -1.7091
  562SOL     OW 1684   0.429   1.356   2.285  0.0474  0.5453  0.1828
  562SOL    HW1 1685   0.395   1.306   2.365 -0.7402 -2.3318  1.5594
  562SOL    HW2 1686   0.493   1.432   2.316  0.3665  1.1052  1.6885
  563SOL     OW 1687   1.357   2.154   2.482  0.3491 -0.0592 -0.6582
  563SOL    HW1 1688   1.270   2.202   2.454  1.7421  1.4261 -0.9238
  563SOL    HW2 1689   1.422   2.158   2.404  1.0390 -1.1417  0.0155
  564SOL     OW 1690   2.988   0.968   1.083  0.1512  0.3300  0.1940
  564SOL    HW1 1691   2.902   0.960   1.031 -0.6565 -0.8063 -1.6215
  564SOL    HW2 1692   3.009   1.061   1.116 -1.3019  3.1242  0.9363
  565SOL     OW 1693   0.531   0.786   0.088  0.0844 -0.1569 -0.5889
  565SOL    HW1 1694   0.494   0.707   0.032 -1.1168 -1.3349  1.9286
  565SOL    HW2 1695   0.633   0.797   0.079 -0.9290 -1.1217 -0.3075
  566SOL     OW 1696   2.486   2.927   2.690 -0.4702 -0.3598  0.1035
  566SOL    HW1 1697   2.492   3.030   2.679 -0.6869  2.5931 -1.1010
  566SOL    HW2 1698   2.390   2.894   2.704  1.0175 -1.9316  0.6692
  567SOL     OW 1699   1.439   1.155   0.864 -0.7096 -0.3697  0.0246
  567SOL    HW1 1700   1.488   1.210   0.789  0.6181  0.1048 -0.3041
  567SOL    HW2 1701   1.497   1.144   0.948 -1.8453  0.2395 -0.5523
  568SOL     OW 1702   1.387   1.864   2.951 -0.1199 -0.2722  0.0388
  568SOL    HW1 1703   1.374   1.763   2.972  2.1269 -1.0584  0.9240
  568SOL    HW2 1704   1.483   1.880   2.930 -1.6506 -0.9068  0.5164
  569SOL     OW 1705   2.187   1.395   3.027  0.6945  0.2026 -0.2921
  569SOL    HW1 1706   2.283   1.436   3.015  0.4186 -0.1423  1.0690
  569SOL    HW2 1707   2.187   1.296   3.016  0.6210  2.1715 -1.4552
  570SOL     OW 1708   0.000   2.293   1.822  0.2394  0.2819 -0.1502
  570SOL    HW1 1709   0.025   2.387   1.795  2.1974 -0.3396  1.5052
  570SOL    HW2 1710   0.079   2.232   1.816 -1.0603  1.9344  2.7854
  571SOL     OW 1711   2.588   1.841   1.546 -0.5627  0.0860 -0.6509
  571SOL    HW1 1712   2.638   1.890   1.472 -1.1473 -1.1687  0.0699
  571SOL    HW2 1713   2.615   1.863   1.645  1.4853  1.8905  2.4818
  572SOL     OW 1714   1.943   2.214   0.127  0.2420  0.3122 -0.5132
  572SOL    HW1 1715   1.923   2.313   0.123 -1.9426  0.3197 -2.0141
  572SOL    HW2 1716   2.041   2.187   0.115  0.8397 -1.7565  2.4700
  573SOL     OW 1717   1.762   2.200   0.400 -0.3159 -0.3945 -0.8222
  573SOL    HW1 1718   1.801   2.240   0.314  0.0139 -0.8295  2.1527
  573SOL    HW2 1719   1.835   2.143   0.449 -1.2785  1.5773 -2.6879
  574SOL     OW 1720   1.282   0.022   1.124  0.1525 -0.3142 -0.2292
  574SOL    HW1 1721   1.274   0.034   1.224  0.8701 -0.3856 -1.2566
  574SOL    HW2 1722   1.278   3.022   1.103  1.5930  0.4504 -1.6999
  575SOL     OW 1723   0.782   1.174   1.624 -0.0244 -0.1895  0.0832
  575SOL    HW1 1724   0.749   1.187   1.716  1.3321 -0.5219 -2.9158
  575SOL    HW2 1725   0.863   1.113   1.616 -0.5176  2.0558  1.1869
  576SOL     OW 1726   2.677   0.645   1.638 -0.0628  0.0197 -0.3503
  576SOL    HW1 1727   2.779   0.660   1.636  0.5961 -0.8097 -1.2006
  576SOL    HW2 1728   2.636   0.668   1.728 -0.1478 -0.6359 -0.2223
  577SOL     OW 1729   1.488   1.047   2.225 -0.1077 -0.0309  0.1832
  577SOL    HW1 1730   1.486   0.977   2.299 -1.5693  0.3897 -0.0099
  577SOL    HW2 1731   1.425   1.021   2.148 -0.5705 -2.3437 -1.2601
  578SOL     OW 1732   1.877   1.179   2.373 -0.3964 -0.2163 -0.4336
  578SOL    HW1 1733   1.824   1.229   2.439  2.3387 -2.1596 -0.5356
  578SOL    HW2 1734   1.952   1.240   2.333  0.2920  1.2261 -2.0528
  579SOL     OW 1735   1.242   2.032   1.501 -0.4198 -0.8402  0.1216
  579SOL    HW1 1736   1.196   2.101   1.442 -2.3567  2.1696  1.3620
  579SOL    HW2 1737   1.266   1.957   1.438 -0.0982  1.9450 -0.8014
  580SOL     OW 1738   1.503   2.351   0.306 -0.4732  0.4412  0.3824
  580SOL    HW1 1739   1.503   2.374   0.207  1.4466 -0.3043  0.6246
  580SOL    HW2 1740   1.589   2.297   0.320  1.2285  1.6720  0.2552
  581SOL     OW 1741   1.030   0.788   1.948  0.1230 -0.2171  0.1897
  581SOL    HW1 1742   0.953   0.725   1.934 -0.5978 -1.3114  0.1232
  581SOL    HW2 1743   1.066   0.774   2.040 -4.1231  2.1858 -2.0715
  582SOL     OW 1744   0.999   0.987   1.606 -0.3871 -0.0980 -0.4579
  582SOL    HW1 1745   1.066   0.929   1.662 -0.3908  0.1167  2.0082
  582SOL    HW2 1746   1.020   0.982   1.506 -1.7254 -0.9003  1.4395
  583SOL     OW 1747   0.895   1.020   1.958  0.0346 -0.1031  0.0064
  583SOL    HW1 1748   0.966   0.947   1.958 -0.2547 -0.5936  0.7064
  583SOL    HW2 1749   0.922   1.097   1.899 -2.4116  2.0778 -2.2794
  584SOL     OW 1750   2.464   2.292   0.720 -0.5228  0.1046 -0.3167
  584SOL    HW1 1751   2.541   2.241   0.762 -4.1211  2.8860 -1.0514
  584SOL    HW2 1752   2.386   2.227   0.715  0.2247  1.1244  1.4107
  585SOL     OW 1753   1.845   0.242   2.882  0.5944 -0.0642 -0.4522
  585SOL    HW1 1754   1.765   0.276   2.936 -0.1392 -0.0766 -0.2203
  585SOL    HW2 1755   1.853   0.277   2.789 -1.4756 -1.6052 -0.1596
  586SOL     OW 1756   3.067   2.070   0.897 -0.1365 -0.0342  0.5740
  586SOL    HW1 1757   3.032   2.153   0.858  1.3728 -2.9741 -0.5508
  586SOL    HW2 1758   0.012   2.089   0.987 -2.3167 -0.8219  0.6727
  587SOL     OW 1759   1.785   2.011   0.025 -0.2437  0.5643  0.4289
  587SOL    HW1 1760   1.847   2.087   0.058  1.6106  0.5489  0.1710
  587SOL    HW2 1761   1.688   2.032   0.038  0.8135 -1.2262 -3.2861
  588SOL     OW 1762   0.076   0.226   0.790 -0.2739 -0.2324  0.3079
  588SOL    HW1 1763   0.061   0.317   0.838 -1.9670  3.4433 -1.2726
  588SOL    HW2 1764   0.148   0.229   0.718 -3.2846 -1.5660  2.7154
  589SOL     OW 1765   1.357   0.605   0.868 -0.2055 -0.2879 -0.2302
  589SOL    HW1 1766   1.287   0.665   0.914 -0.0299 -2.9925 -0.1139
  589SOL    HW2 1767   1.403   0.653   0.792 -1.6357 -1.7932  2.8894
  590SOL     OW 1768   1.510   1.288   0.179  0.9246 -0.5096  0.1466
  590SOL    HW1 1769   1.474   1.388   0.163 -1.7581  0.3829 -1.0965
  590SOL    HW2 1770   1.515   1.244   0.088  1.8334  1.2702 -1.2992
  591SOL     OW 1771   2.664   2.320   2.506  0.0700 -0.2465 -0.0696
  591SOL    HW1 1772   2.650   2.339   2.607 -0.8834  1.0674  0.6948
  591SOL    HW2 1773   2.626   2.405   2.454 -0.2368  2.9615 -1.4916
  592SOL     OW 1774   1.663   2.251   1.549 -0.6314  0.8764  0.0627
  592SOL    HW1 1775   1.574   2.266   1.499 -0.9664 -1.5735  2.6440
  592SOL    HW2 1776   1.698   2.155   1.540 -0.1192 -0.8392  0.1160
  593SOL     OW 1777   0.789   0.051   0.868  0.6401 -0.4134 -0.6321
  593SOL    HW1 1778   0.762   0.111   0.944 -2.9876  0.6075 -2.4765
  593SOL    HW2 1779   0.870   3.088   0.894  2.0157 -1.8964 -0.8751
  594SOL     OW 1780   3.080   0.657   2.431 -0.3289  0.1337 -0.1062
  594SOL    HW1 1781   3.024   0.740   2.430  0.4489 -2.8361  1.3730
  594SOL    HW2 1782   3.061   0.604   2.515 -2.5439 -2.1085  0.6748
  595SOL     OW 1783   0.476   2.480   1.263 -0.4965  0.2934  0.2724
  595SOL    HW1 1784   0.436   2.454   1.171  0.6561  1.9677 -1.7136
  595SOL    HW2 1785   0.451   2.574   1.285 -2.7732 -0.4416 -1.7357
  596SOL     OW 1786   0.199   0.950   1.447 -0.0610  0.3353  0.0929
  596SOL    HW1 1787   0.182   1.020   1.379 -1.6702 -1.2340  1.8630
  596SOL    HW2 1788   0.298   0.933   1.454  1.4049  0.2228 -1.4370
  597SOL     OW 1789   1.513   2.040   0.097  0.1936 -0.1446  0.5423
  597SOL    HW1 1790   1.509   2.129   0.049  0.5072 -1.9347 -0.6160
  597SOL    HW2 1791   1.422   1.993   0.083  1.1550  0.4906  2.0563
  598SOL     OW 1792   0.443   2.932   1.895  0.4268  0.4589  0.4590
  598SOL    HW1 1793   0.434   2.898   1.795 -0.2705 -1.8258 -3.9281
  598SOL    HW2 1794   0.481   3.024   1.898  2.3146 -2.4936  0.1289
  599SOL     OW 1795   2.490   1.644   2.736  0.1419 -0.5670  0.1514
  599SOL    HW1 1796   2.445   1.614   2.653  1.0130 -1.0922  2.5377
  599SOL    HW2 1797   2.582   1.691   2.709  0.2632 -1.4716 -1.4669
  600SOL     OW 1798   0.911   1.072   0.151  0.2172  0.5144  0.0399
  600SOL    HW1 1799   0.905   1.072   0.255 -1.2724 -1.6011  0.9233
  600SOL    HW2 1800   0.921   1.164   0.106 -3.8474  0.2572 -0.5017
  601SOL     OW 1801   0.621   0.741   0.858  0.6014 -0.2167 -0.1785
  601SOL    HW1 1802   0.601   0.839   0.834 -0.3188  2.6531 -1.7812
  601SOL    HW2 1803   0.725   0.733   0.863 -0.3148 -0.1334 -0.1400
  602SOL     OW 1804   1.481   0.222   0.772 -0.0716  0.0943 -0.2151
  602SOL    HW1 1805   1.506   0.280   0.852 -0.1714 -0.8032 -3.7555
  602SOL    HW2 1806   1.519   0.262   0.688  0.0954  1.3640  3.0819
  603SOL     OW 1807   0.755   2.935   2.204  0.6438  0.0309 -0.0944
  603SOL    HW1 1808   0.793   2.874   2.283  2.3081 -0.8570  0.5419
  603SOL    HW2 1809   0.833   2.968   2.141  0.0394 -1.0086 -3.3659
  604SOL     OW 1810   2.909   3.005   2.619  0.0977  0.0435 -0.1200
  604SOL    HW1 1811   2.949   3.029   2.528 -1.7207  1.6118  1.6499
  604SOL    HW2 1812   2.902   2.902   2.624  2.5848 -1.6639 -1.8749
  605SOL     OW 1813   2.607   1.589   1.245  0.3257 -0.2180 -0.3562
  605SOL    HW1 1814   2.565   1.545   1.328 -1.9662  0.6847  1.6291
  605SOL    HW2 1815   2.709   1.589   1.256 -3.2487 -0.4728 -0.7030
  606SOL     OW 1816   0.603   1.561   2.743  0.2712  0.0575  0.7349
  606SOL    HW1 1817   0.562   1.637   2.694  0.5539 -1.0646  0.9966
  606SOL    HW2 1818   0.531   1.489   2.759 -2.3290 -1.4558  2.1542
  607SOL     OW 1819   0.693   0.222   0.464 -0.3564  0.1722  0.4180
  607SOL    HW1 1820   0.758   0.205   0.385  0.1527 -1.7627  1.3426
  607SOL    HW2 1821   0.609   0.270   0.429  0.6089 -1.6287  0.0167
  608SOL     OW 1822   1.805   1.580   2.078 -0.0191 -0.1903  0.0246
  608SOL    HW1 1823   1.729   1.556   2.138  3.0050 -1.0487 -2.9767
  608SOL    HW2 1824   1.776   1.650   2.010 -0.3110 -1.2370 -2.2310
  609SOL     OW 1825   2.803   0.221   0.991 -0.4848  0.2218  0.4914
  609SOL    HW1 1826   2.784   0.180   1.080 -2.4579 -0.4222 -1.5958
  609SOL    HW2 1827   2.895   0.269   0.997  2.3335 -1.9860  0.8175
  610SOL     OW 1828   0.484   2.740   0.690 -0.4844 -0.3047 -0.1450
  610SOL    HW1 1829   0.535   2.703   0.611 -0.5332  0.1945  0.5980
  610SOL    HW2 1830   0.496   2.842   0.692  1.9173  0.0675 -2.3269
  611SOL     OW 1831   1.376   0.959   2.900 -0.0117 -0.3001 -0.1365
  611SOL    HW1 1832   1.343   1.052   2.914  0.0755 -0.6120  1.0735
  611SOL    HW2 1833   1.432   0.934   2.981  0.5024  2.9676 -3.3137
  612SOL     OW 1834   0.829   2.155   2.102  0.0721  0.1996  0.3123
  612SOL    HW1 1835   0.883   2.118   2.178  0.4699 -0.5102 -0.5052
  612SOL    HW2 1836   0.859   2.248   2.079  0.7386 -1.1384 -0.3377
  613SOL     OW 1837   0.530   2.478   0.733 -0.1253  0.0235 -0.1447
  613SOL    HW1 1838   0.626   2.452   0.716  0.3065  0.6495 -1.7167
  613SOL    HW2 1839   0.521   2.578   0.737 -0.2809 -2.3814  0.5204
  614SOL     OW 1840   2.745   2.790   1.631 -0.0935 -0.2461 -0.0947
  614SOL    HW1 1841   2.679   2.792   1.706 -4.1007  0.8054 -2.2274
  614SOL    HW2 1842   2.831   2.845   1.652  0.2304 -0.7329  0.0222
  615SOL     OW 1843   1.794   1.150   0.204 -0.0700 -0.3177  0.2850
  615SOL    HW1 1844   1.764   1.112   0.293  1.5458 -0.9493 -0.6470
  615SOL    HW2 1845   1.894   1.169   0.199 -1.7882  1.0790 -0.8351
  616SOL     OW 1846   1.758   0.721   0.375  0.8802  0.0452 -0.0853
  616SOL    HW1 1847   1.774   0.656   0.453  2.4392 -0.3919  0.5752
  616SOL    HW2 1848   1.680   0.687   0.320  1.5349  1.0919  0.4654
  617SOL     OW 1849   1.065   1.139   2.915 -0.1829  0.1135 -0.6243
  617SOL    HW1 1850   1.086   1.054   2.969 -0.5881  0.4137 -0.9511
  617SOL    HW2 1851   1.148   1.201   2.926 -0.3010 -0.6227  2.3549
  618SOL     OW 1852   0.861   0.208   1.811  0.5402 -0.3567 -0.2081
  618SOL    HW1 1853   0.859   0.159   1.720  0.0385 -1.3170 -0.4096
  618SOL    HW2 1854   0.780   0.275   1.819 -0.0171  0.9030 -1.1392
  619SOL     OW 1855   2.863   1.240   1.507  0.2461  0.6841 -0.2603
  619SOL    HW1 1856   2.909   1.306   1.446  0.0077 -1.1693  0.1779
  619SOL    HW2 1857   2.927   1.202   1.583  4.4947  1.3472  5.4936
  620SOL     OW 1858   2.297   1.040   2.726  0.0905 -0.4447 -0.3757
  620SOL    HW1 1859   2.338   0.998   2.644  0.4652  0.4393 -0.7931
  620SOL    HW2 1860   2.198   1.060   2.708  2.0494  0.6059  4.0642
  621SOL     OW 1861   2.635   2.571   1.477 -0.7752  0.1174 -0.7413
  621SOL    HW1 1862   2.687   2.644   1.531  0.9663 -0.0662 -0.8986
  621SOL    HW2 1863   2.684   2.550   1.392 -0.3790  2.5022  0.2503
  622SOL     OW 1864   0.933   0.795   2.682  0.2849 -0.3813 -0.3258
  622SOL    HW1 1865   0.904   0.800   2.585 -2.7761 -0.9745  2.8784
  622SOL    HW2 1866   1.031   0.822   2.696 -0.6818 -0.0219 -1.6871
  623SOL     OW 1867   0.985   0.591   2.889  0.2409 -0.1773 -0.6568
  623SOL    HW1 1868   0.925   0.510   2.871  0.5792  2.5734  0.9369
  623SOL    HW2 1869   0.959   0.659   2.814  0.9277 -0.3727 -0.5547
  624SOL     OW 1870   2.076   0.784   2.972 -0.8895 -0.2952  0.6887
  624SOL    HW1 1871   2.076   0.821   2.875  1.8453  4.2970 -0.8281
  624SOL    HW2 1872   2.095   0.686   2.974 -2.9618  1.6562  0.9562
  625SOL     OW 1873   1.201   1.293   0.928  0.1331 -0.4783  0.4388
  625SOL    HW1 1874   1.270   1.229   0.903 -1.7156  0.1186  1.5117
  625SOL    HW2 1875   1.205   1.311   1.027  1.6976  0.1006 -0.1549
  626SOL     OW 1876   1.664   1.151   2.708 -0.5585 -0.0503  0.4727
  626SOL    HW1 1877   1.636   1.050   2.706  0.0971  0.7683  1.2220
  626SOL    HW2 1878   1.722   1.174   2.789 -0.2550  0.7911  0.6535
  627SOL     OW 1879   0.925   0.002   2.646 -0.6085 -0.8170  0.5731
  627SOL    HW1 1880   0.947   3.015   2.692 -0.0314 -0.9056  0.4261
  627SOL    HW2 1881   0.970   0.077   2.698  1.1378 -1.7282 -1.0323
  628SOL     OW 1882   2.623   3.069   2.435  0.1230 -0.3458 -0.5182
  628SOL    HW1 1883   2.610   0.014   2.525 -0.8498 -0.1482  0.5460
  628SOL    HW2 1884   2.649   0.034   2.366  0.3797  0.6682 -0.5281
  629SOL     OW 1885   0.759   0.834   2.903  0.7892  0.2675 -0.2996
  629SOL    HW1 1886   0.832   0.832   2.832 -2.4744  1.4515  2.7952
  629SOL    HW2 1887   0.793   0.821   3.000  1.3856  1.6380  2.9886
  630SOL     OW 1888   1.208   0.350   2.147  0.6441 -0.2938 -0.3412
  630SOL    HW1 1889   1.164   0.425   2.202 -0.8025  0.0912  1.0241
  630SOL    HW2 1890   1.251   0.275   2.203  0.6583  2.0376 -0.6142
  631SOL     OW 1891   3.086   0.731   0.675  0.1033  0.3702 -0.1006
  631SOL    HW1 1892   3.007   0.720   0.613 -2.0908 -1.8299 -0.7225
  631SOL    HW2 1893   0.059   0.668   0.641 -0.4695  2.1169  2.1532
  632SOL     OW 1894   2.083   0.819   1.424  0.7167  0.1077  0.5200
  632SOL    HW1 1895   2.048   0.842   1.518  0.2278 -1.9248  0.2485
  632SOL    HW2 1896   2.076   0.718   1.408 -0.5897 -1.3610 -0.4165
  633SOL     OW 1897   1.308   0.932   0.794  0.0999 -0.4109 -0.7978
  633SOL    HW1 1898   1.276   0.882   0.877  0.8393 -0.9358 -0.3875
  633SOL    HW2 1899   1.367   1.009   0.830 -0.1813  1.8587 -0.3540
  634SOL     OW 1900   1.806   2.756   0.876 -0.2123 -0.8957 -0.0147
  634SOL    HW1 1901   1.885   2.803   0.915 -0.0853 -3.7723 -0.5937
  634SOL    HW2 1902   1.806   2.665   0.919  0.6408  1.9953 -5.1993
  635SOL     OW 1903   1.657   0.840   1.158 -0.2402 -0.3445  0.2100
  635SOL    HW1 1904   1.653   0.870   1.059 -1.1464  1.6661 -2.2068
  635SOL    HW2 1905   1.739   0.878   1.213  2.0738 -0.4815  0.0975
  636SOL     OW 1906   1.100   1.038   0.632  0.5475  0.0638 -0.7597
  636SOL    HW1 1907   1.028   1.082   0.688 -3.4180 -0.5629  1.2898
  636SOL    HW2 1908   1.173   0.990   0.693  4.0667  1.3337  0.3939
  637SOL     OW 1909   2.490   2.083   3.089  0.6079 -0.1293 -0.9178
  637SOL    HW1 1910   2.557   2.006   3.092  0.3774  0.2028  1.6586
  637SOL    HW2 1911   2.477   2.107   2.992  0.3095  2.4304  3.2410
  638SOL     OW 1912   1.213   2.661   2.622  0.1339 -0.0498  0.2285
  638SOL    HW1 1913   1.229   2.616   2.534 -1.4810  1.6511  2.1769
  638SOL    HW2 1914   1.270   2.623   2.697  0.0300 -2.5125  1.8849
  639SOL     OW 1915   0.888   2.299   1.333 -0.1405 -0.0853  0.0688
  639SOL    HW1 1916   0.818   2.370   1.368 -1.0130 -0.8104 -0.4542
  639SOL    HW2 1917   0.882   2.291   1.232  1.8896  1.4195 -0.8981
  640SOL     OW 1918   2.788   2.774   0.323 -0.0705 -0.0187 -0.1696
  640SOL    HW1 1919   2.811   2.872   0.349 -1.7982  0.2281  0.3996
  640SOL    HW2 1920   2.756   2.718   0.406  1.1336 -3.2699  1.5584
  641SOL     OW 1921   0.437   0.247   0.238  0.4589 -0.0608 -0.2107
  641SOL    HW1 1922   0.431   0.307   0.323 -0.0082 -0.5965  0.4068
  641SOL    HW2 1923   0.451   0.304   0.152  1.5019  3.2151 -1.0311
  642SOL     OW 1924   2.940   0.680   1.254  0.1066 -0.3111 -0.4322
  642SOL    HW1 1925   2.856   0.637   1.214  1.7435  2.1383  0.6126
  642SOL    HW2 1926   2.967   0.743   1.183 -0.2965 -2.1386 -1.4116
  643SOL     OW 1927   0.799   1.925   1.923  0.1798 -0.2482  0.1142
  643SOL    HW1 1928   0.711   1.875   1.926 -2.2225 -4.5405  1.8111
  643SOL    HW2 1929   0.797   2.012   1.974 -0.7713 -1.0840  0.8253
  644SOL     OW 1930   1.332   2.592   0.192  0.0589  0.4108  0.6810
  644SOL    HW1 1931   1.324   2.492   0.201 -0.8518 -2.3635  0.2635
  644SOL    HW2 1932   1.429   2.614   0.210 -3.6741  1.0632 -1.3864
  645SOL     OW 1933   1.979   2.100   0.514 -0.4131  0.7079 -0.0839
  645SOL    HW1 1934   2.038   2.033   0.460 -0.0211  0.0061 -0.5660
  645SOL    HW2 1935   2.010   2.194   0.492 -0.0761  0.0533 -0.3682
  646SOL     OW 1936   1.139   2.780   0.197 -0.4541  0.1069  0.2334
  646SOL    HW1 1937   1.070   2.762   0.274 -1.1866 -2.5415  1.1717
  646SOL    HW2 1938   1.211   2.704   0.200  1.1958 -2.2172  0.8294
  647SOL     OW 1939   0.588   2.698   1.976 -0.2891 -0.2612  0.1818
  647SOL    HW1 1940   0.548   2.793   1.973  0.7247  1.1359  2.0926
  647SOL    HW2 1941   0.548   2.633   1.911 -0.8862  2.0815 -0.2790
  648SOL     OW 1942   1.858   0.945   1.314  0.0849  0.6019  0.0809
  648SOL    HW1 1943   1.882   1.045   1.318  0.8790  1.8599  0.0078
  648SOL    HW2 1944   1.938   0.890   1.341  0.7611 -1.3487 -2.5537
  649SOL     OW 1945   1.410   2.502   2.784 -0.8307  1.1256  0.1519
  649SOL    HW1 1946   1.446   2.427   2.723 -3.0154  0.2435 -0.7919
  649SOL    HW2 1947   1.481   2.551   2.839  0.3897 -0.6109  0.1000
  650SOL     OW 1948   2.192   1.540   1.780  0.2833  0.3108  0.2373
  650SOL    HW1 1949   2.252   1.605   1.835  3.9683  2.0829 -1.1141
  650SOL    HW2 1950   2.095   1.539   1.815 -3.6022  0.5916  3.1638
  651SOL     OW 1951   1.263   2.222   0.222 -0.1954 -0.0054  0.3772
  651SOL    HW1 1952   1.261   2.123   0.191  3.1238  0.8600 -0.0253
  651SOL    HW2 1953   1.348   2.260   0.258 -1.1237  1.6036 -0.7617
  652SOL     OW 1954   0.740   2.539   3.072 -0.3922 -0.0567 -0.3031
  652SOL    HW1 1955   0.835   2.576   3.057 -0.5047  0.2807 -0.2316
  652SOL    HW2 1956   0.690   2.560   2.982 -0.6240 -0.7526 -0.0526
  653SOL     OW 1957   2.378   1.982   1.077 -0.0860  0.0661  0.2833
  653SOL    HW1 1958   2.391   2.085   1.072  2.4267 -0.6508  0.7392
  653SOL    HW2 1959   2.325   1.952   1.154  1.8532  0.7834 -5.3591
  654SOL     OW 1960   2.907   2.581   1.720  0.2336  0.1667  0.6050
  654SOL    HW1 1961   2.905   2.688   1.726 -0.8199  1.8305 -2.9287
  654SOL    HW2 1962   2.882   2.549   1.628 -1.1464  0.3512 -0.8368
  655SOL     OW 1963   2.918   2.072   1.243  0.5109  0.0770  0.1628
  655SOL    HW1 1964   2.877   2.037   1.155 -1.6381 -0.3756 -5.3370
  655SOL    HW2 1965   2.863   2.045   1.330 -0.8225 -2.1296  2.5461
  656SOL     OW 1966   0.146   2.892   2.692  0.3586  0.3060 -0.4624
  656SOL    HW1 1967   0.217   2.917   2.626  1.7680 -1.0073 -1.0429
  656SOL    HW2 1968   0.051   2.932   2.682 -1.2663 -2.6071  0.0775
  657SOL     OW 1969   0.091   0.867   0.257  0.1357  0.0438 -0.1575
  657SOL    HW1 1970   0.095   0.855   0.156 -0.8370  0.6700  0.0845
  657SOL    HW2 1971   0.182   0.847   0.297 -2.6102  1.0430  0.8094
  658SOL     OW 1972   2.038   1.924   0.803 -0.1476 -0.2632  0.9303
  658SOL    HW1 1973   2.069   1.978   0.882 -1.1289 -0.5330 -2.5307
  658SOL    HW2 1974   1.990   1.986   0.736 -0.1376 -0.2451 -0.2465
  659SOL     OW 1975   1.796   0.395   1.250  0.2605 -0.0533 -0.4420
  659SOL    HW1 1976   1.884   0.383   1.197  0.8809  0.9025  0.9562
  659SOL    HW2 1977   1.736   0.313   1.224  1.2949  0.4723  0.6873
  660SOL     OW 1978   1.328   1.526   0.160 -0.6260  0.8845 -0.2915
  660SOL    HW1 1979   1.224   1.533   0.168  0.3412  0.5606  1.1915
  660SOL    HW2 1980   1.381   1.566   0.242 -0.1069  1.9713  0.9609
  661SOL     OW 1981   0.212   1.922   0.566  0.8861  0.0406 -0.1290
  661SOL    HW1 1982   0.297   1.913   0.504  1.5319  1.1608  1.2577
  661SOL    HW2 1983   0.128   1.925   0.505 -2.6086 -0.3802 -3.7865
  662SOL     OW 1984   0.097   0.708   2.115 -0.6263 -0.0951  0.1884
  662SOL    HW1 1985   0.006   0.666   2.123  1.2523 -0.1982 -0.9924
  662SOL    HW2 1986   0.090   0.808   2.131 -0.2800  0.1745 -1.2980
  663SOL     OW 1987   2.133   1.352   1.130 -0.3830 -0.3987  0.4737
  663SOL    HW1 1988   2.039   1.325   1.098  1.8393  0.1454  0.0471
  663SOL    HW2 1989   2.146   1.452   1.118  3.0533  1.1041 -1.3273
  664SOL     OW 1990   0.732   0.255   1.041  0.0769  0.1582 -0.4542
  664SOL    HW1 1991   0.802   0.326   1.038 -0.3303 -2.1597 -3.7862
  664SOL    HW2 1992   0.689   0.244   1.134 -1.5378 -2.1872  1.4991
  665SOL     OW 1993   1.326   2.930   2.939 -0.0797 -0.0690  0.0946
  665SOL    HW1 1994   1.422   2.891   2.950  0.9090  1.0049 -0.3204
  665SOL    HW2 1995   1.325   3.028   2.957  0.1319 -2.0480  2.1520
  666SOL     OW 1996   0.243   0.643   2.432 -0.3898 -0.2501 -0.3385
  666SOL    HW1 1997   0.265   0.557   2.395 -0.9442  4.5224  1.6690
  666SOL    HW2 1998   0.144   0.651   2.435  0.7358  1.9677  2.3676
  667SOL     OW 1999   1.988   1.630   2.274  0.0432  0.3220 -0.6074
  667SOL    HW1 2000   1.954   1.622   2.370 -0.5296 -0.0486  0.6951
  667SOL    HW2 2001   1.908   1.617   2.210 -1.8067  0.2497  0.2680
  668SOL     OW 2002   0.078   1.602   3.003 -0.1382 -0.0782  0.1497
  668SOL    HW1 2003   0.138   1.561   2.929 -0.3501 -1.8355 -3.0346
  668SOL    HW2 2004   3.089   1.556   3.010 -0.5584  0.4762 -2.4625
  669SOL     OW 2005   2.112   2.791   2.512 -0.5314  0.2769 -0.6478
  669SOL    HW1 2006   2.147   2.860   2.444 -1.2997  1.0045 -0.5938
  669SOL    HW2 2007   2.164   2.706   2.494 -2.0365  1.8627  0.9543
  670SOL     OW 2008   2.373   0.935   2.488 -0.2558 -0.7124  0.2678
  670SOL    HW1 2009   2.423   0.939   2.399  0.2386 -0.0701  1.3139
  670SOL    HW2 2010   2.280   0.898   2.477 -1.0907  0.5056  0.0099
  671SOL     OW 2011   2.261   1.285   0.280 -0.0535  0.0723 -0.4042
  671SOL    HW1 2012   2.275   1.334   0.195 -1.6564 -0.4931  1.7563
  671SOL    HW2 2013   2.243   1.351   0.361 -4.7619 -0.5502  2.3813
  672SOL     OW 2014   2.671   1.107   2.467  0.0850 -0.1455 -0.2234
  672SOL    HW1 2015   2.742   1.146   2.520 -2.1060 -1.8479  1.5575
  672SOL    HW2 2016   2.605   1.078   2.539  5.1127 -0.6192 -1.2399
  673SOL     OW 2017   2.568   1.167   1.482 -0.0668  0.2275  0.1899
  673SOL    HW1 2018   2.522   1.097   1.418 -4.5727 -2.3956  2.8962
  673SOL    HW2 2019   2.668   1.183   1.455  2.0209  1.2208  0.1939
  674SOL     OW 2020   1.629   1.803   1.638  0.2127 -0.1828  0.7709
  674SOL    HW1 2021   1.718   1.842   1.614  0.4971 -2.1845 -1.3144
  674SOL    HW2 2022   1.581   1.768   1.553  1.3134  0.0136 -1.4561
  675SOL     OW 2023   3.038   0.413   0.972  0.4142 -0.2644  0.2068
  675SOL    HW1 2024   3.046   0.515   0.965  0.3151 -1.3338  0.6683
  675SOL    HW2 2025   3.092   0.377   1.049 -3.5309  0.2451  0.6222
  676SOL     OW 2026   2.143   1.016   1.038 -0.4452  0.6565 -0.6547
  676SOL    HW1 2027   2.157   1.008   1.141  4.1953  1.2741  4.9381
  676SOL    HW2 2028   2.231   0.993   0.992 -0.5563  1.5693  0.7177
  677SOL     OW 2029   1.603   1.840   2.204  0.2540  0.1438 -0.4555
  677SOL    HW1 2030   1.512   1.850   2.151 -2.9175  1.2449  0.7763
  677SOL    HW2 2031   1.678   1.862   2.145 -1.2301 -1.8118  1.5750
  678SOL     OW 2032   2.878   1.563   0.939 -0.5917  0.1177 -0.5550
  678SOL    HW1 2033   2.917   1.658   0.932  2.9673  3.1938  1.4032
  678SOL    HW2 2034   2.784   1.567   0.902 -2.7537 -0.2504 -1.1650
  679SOL     OW 2035   3.019   2.895   0.666  0.4502  0.1474  0.2886
  679SOL    HW1 2036   2.992   2.994   0.658  1.3703 -2.5816 -1.1419
  679SOL    HW2 2037   0.010   2.894   0.706  1.1191 -1.9000 -1.3527
  680SOL     OW 2038   0.078   2.132   1.159  0.3222  0.4892  0.5556
  680SOL    HW1 2039   0.148   2.130   1.229 -0.8018  1.7987 -2.5925
  680SOL    HW2 2040   3.091   2.105   1.195 -1.4791 -3.0848  1.3336
  681SOL     OW 2041   0.847   0.890   1.145  0.3529 -0.4780  0.3518
  681SOL    HW1 2042   0.888   0.807   1.192 -1.1587  0.9977  2.5796
  681SOL    HW2 2043   0.823   0.877   1.047 -0.2461  0.0342 -1.9773
  682SOL     OW 2044   1.779   2.770   0.614 -0.6902 -0.1089 -0.3020
  682SOL    HW1 2045   1.789   2.766   0.715 -0.2429  1.0507 -1.5114
  682SOL    HW2 2046   1.778   2.676   0.571  0.8288 -0.2764 -0.6455
  683SOL     OW 2047   2.039   1.407   1.520  0.4703 -0.3937 -0.5254
  683SOL    HW1 2048   2.073   1.485   1.575  3.0174 -1.9561 -2.2659
  683SOL    HW2 2049   2.110   1.367   1.463 -2.2850  1.3330 -0.9416
  684SOL     OW 2050   0.082   1.759   1.528  0.1940  0.0425 -0.6699
  684SOL    HW1 2051   0.003   1.734   1.465 -2.1767 -1.6819 -3.1675
  684SOL    HW2 2052   0.065   1.711   1.616 -1.4823 -2.4876 -1.1414
  685SOL     OW 2053   2.319   1.714   0.074  0.3807  0.2749 -0.1066
  685SOL    HW1 2054   2.233   1.659   0.086 -0.4781 -4.5263  2.0809
  685SOL    HW2 2055   2.330   1.762   3.086  2.6057 -2.6690 -1.3905
  686SOL     OW 2056   2.971   0.053   0.669 -0.5219  0.4608 -0.2191
  686SOL    HW1 2057   2.883   0.097   0.681 -0.8107 -1.1623 -1.2202
  686SOL    HW2 2058   3.050   0.110   0.709 -0.1901 -1.3805  1.2726
  687SOL     OW 2059   1.582   2.946   3.015 -0.1720  1.0131 -0.0155
  687SOL    HW1 2060   1.582   2.953   0.014  0.6495  3.0149 -0.5566
  687SOL    HW2 2061   1.639   3.011   2.969 -0.2696  0.2362 -0.9904
  688SOL     OW 2062   1.919   1.909   2.083 -0.0568  0.4655  0.1230
  688SOL    HW1 2063   2.002   1.854   2.069 -0.0792 -0.0703 -0.4795
  688SOL    HW2 2064   1.915   1.937   2.180  0.7018 -1.0345  1.4912
  689SOL     OW 2065   2.732   1.016   2.090 -0.2348  0.5122 -0.2334
  689SOL    HW1 2066   2.691   1.082   2.026  1.0740 -1.6687 -1.0802
  689SOL    HW2 2067   2.752   0.927   2.043  1.4635  0.8529  0.3600
  690SOL     OW 2068   1.911   1.419   0.914 -0.4429 -0.1608 -0.4204
  690SOL    HW1 2069   1.965   1.346   0.866 -0.0307 -0.7974  2.0166
  690SOL    HW2 2070   1.818   1.401   0.929 -0.1012  1.2062 -0.7786
  691SOL     OW 2071   1.181   1.371   1.206 -0.1224  0.9158 -0.1943
  691SOL    HW1 2072   1.203   1.300   1.277  1.5986  0.0838 -0.4913
  691SOL    HW2 2073   1.091   1.415   1.232 -2.0860 -2.9539  0.2863
  692SOL     OW 2074   2.005   0.202   2.245  0.3085  0.2192 -0.0259
  692SOL    HW1 2075   2.066   0.178   2.167  1.3208  1.3304  0.8872
  692SOL    HW2 2076   1.940   0.275   2.217  4.0279 -3.8801 -0.0696
  693SOL     OW 2077   0.056   1.299   2.876  0.4903 -0.0551 -0.0880
  693SOL    HW1 2078   0.090   1.392   2.875 -0.7509 -1.8425 -2.1097
  693SOL    HW2 2079   0.042   1.267   2.778  0.5281 -1.1851 -0.7313
  694SOL     OW 2080   2.110   2.876   0.891  0.6720 -0.1228 -0.1856
  694SOL    HW1 2081   2.084   2.847   0.791 -1.2643 -2.0246 -4.6342
  694SOL    HW2 2082   2.162   2.964   0.884 -3.5013  0.5673 -1.2718
  695SOL     OW 2083   1.408   1.247   2.628  0.0882 -0.2706 -0.2199
  695SOL    HW1 2084   1.495   1.199   2.657 -1.0821 -0.5687 -0.7267
  695SOL    HW2 2085   1.418   1.331   2.570 -0.6777 -0.3020  0.3034
  696SOL     OW 2086   2.012   0.087   1.527  0.6157 -0.5959 -0.4881
  696SOL    HW1 2087   1.920   0.091   1.483 -1.4302 -1.1639 -0.4379
  696SOL    HW2 2088   2.014   0.158   1.599 -1.3882  0.0018  3.6588
  697SOL     OW 2089   1.763   0.260   1.899  0.2766 -0.9263 -0.1375
  697SOL    HW1 2090   1.701   0.182   1.921  1.7033 -0.0289  1.8885
  697SOL    HW2 2091   1.748   0.286   1.805  0.3049 -1.2656 -0.0173
  698SOL     OW 2092   1.720   1.356   2.552  0.5214 -0.3172 -0.4007
  698SOL    HW1 2093   1.693   1.269   2.595 -1.1665  2.2922 -1.8470
  698SOL    HW2 2094   1.654   1.384   2.475  0.7537 -0.3999 -2.2356
  699SOL     OW 2095   1.757   1.142   0.774  0.1468  0.1624  0.1379
  699SOL    HW1 2096   1.702   1.205   0.722  0.5544 -0.6907 -0.7413
  699SOL    HW2 2097   1.859   1.160   0.766  0.4954 -0.5633  0.0590
  700SOL     OW 2098   1.580   2.908   0.182 -0.1172 -0.0810  0.3954
  700SOL    HW1 2099   1.597   2.817   0.214  0.9267  4.2793 -0.6645
  700SOL    HW2 2100   1.542   2.964   0.256 -0.4019 -2.2814  0.1331
  701SOL     OW 2101   0.216   0.303   1.480 -0.2043 -0.2091  0.0560
  701SOL    HW1 2102   0.247   0.387   1.529 -1.5342 -1.4248 -1.9050
  701SOL    HW2 2103   0.155   0.245   1.538  0.2827 -1.2691  0.8324
  702SOL     OW 2104   1.701   2.952   1.308  0.4712 -0.0372 -0.4253
  702SOL    HW1 2105   1.704   2.871   1.244 -1.5251 -0.8389  1.0846
  702SOL    HW2 2106   1.604   2.962   1.333 -0.4756 -0.2626 -2.2713
  703SOL     OW 2107   2.590   0.177   2.105 -0.0219  0.0354 -0.1981
  703SOL    HW1 2108   2.599   0.262   2.046  1.2814  0.2363 -0.6797
  703SOL    HW2 2109   2.635   0.193   2.193 -1.8945  4.9160 -3.7558
  704SOL     OW 2110   1.369   2.123   1.044  0.0165 -0.1300  0.0375
  704SOL    HW1 2111   1.433   2.191   1.093 -0.0769  2.5594  0.7047
  704SOL    HW2 2112   1.279   2.166   1.044 -0.4791 -1.5037 -2.7579
  705SOL     OW 2113   0.348   1.666   2.214 -0.3551  0.0227 -0.1106
  705SOL    HW1 2114   0.435   1.713   2.244 -0.4411 -0.1573 -0.5661
  705SOL    HW2 2115   0.273   1.671   2.278 -0.1550  1.8490  0.7547
  706SOL     OW 2116   2.023   0.356   3.070  0.1691  0.1571  0.5086
  706SOL    HW1 2117   1.980   0.309   2.982 -3.3667 -2.5071 -3.8409
  706SOL    HW2 2118   2.069   0.288   0.030 -1.6503  1.1071  0.8437
  707SOL     OW 2119   1.624   2.798   2.176 -0.1715  0.2178  0.4674
  707SOL    HW1 2120   1.544   2.745   2.205  2.3734  1.8863  0.6954
  707SOL    HW2 2121   1.624   2.820   2.080  0.2610  0.4012  1.2423
  708SOL     OW 2122   0.596   2.159   1.560 -0.0569 -0.1551 -0.3142
  708SOL    HW1 2123   0.558   2.076   1.605  1.1726 -0.8910 -1.4846
  708SOL    HW2 2124   0.702   2.153   1.555  1.8902 -0.8332  0.3754
  709SOL     OW 2125   2.589   0.690   1.895  0.1000  0.0067 -0.0530
  709SOL    HW1 2126   2.530   0.628   1.947  1.6259 -1.0579  1.4845
  709SOL    HW2 2127   2.682   0.699   1.933 -0.1484  0.6146  1.5542
  710SOL     OW 2128   2.854   0.234   1.575  0.1861 -0.3053 -0.5881
  710SOL    HW1 2129   2.820   0.264   1.486 -1.7581 -1.3368 -0.2217
  710SOL    HW2 2130   2.921   0.300   1.614  0.6750 -0.2650  1.5099
  711SOL     OW 2131   3.031   2.316   0.779  0.9156  0.4447 -0.0750
  711SOL    HW1 2132   3.075   2.363   0.861  1.8499  2.6926 -2.0316
  711SOL    HW2 2133   2.972   2.376   0.723 -1.2438  1.6202  3.2590
  712SOL     OW 2134   0.270   0.001   2.450 -0.7593 -0.1774  0.2780
  712SOL    HW1 2135   0.299   0.092   2.495  0.6689  3.2905 -0.7076
  712SOL    HW2 2136   0.354   3.057   2.412  2.9525 -0.1660  1.4164
  713SOL     OW 2137   2.123   0.608   0.202 -0.0092 -0.1621  0.4944
  713SOL    HW1 2138   2.199   0.608   0.270  2.5061 -0.7567 -0.2329
  713SOL    HW2 2139   2.122   0.705   0.167 -0.5890 -0.5323  0.6381
  714SOL     OW 2140   1.609   1.861   0.317 -0.3730 -0.4401  0.1592
  714SOL    HW1 2141   1.610   1.922   0.229 -2.7729  1.5570 -1.9321
  714SOL    HW2 2142   1.593   1.911   0.405  0.3774 -0.3805  0.6488
  715SOL     OW 2143   0.034   0.374   0.391  0.2852 -0.3160  0.1943
  715SOL    HW1 2144   0.055   0.419   0.302 -0.2084  0.8190  2.1452
  715SOL    HW2 2145   0.103   0.403   0.461 -0.3389  0.2709 -0.9841
  716SOL     OW 2146   0.918   3.070   1.993 -0.2119  0.5930 -0.0844
  716SOL    HW1 2147   0.999   3.008   2.010 -1.9562 -0.3251  0.7394
  716SOL    HW2 2148   0.932   0.044   1.927  1.9377  0.1504 -2.1078
  717SOL     OW 2149   0.170   0.642   2.927 -0.7358  0.2206  0.2192
  717SOL    HW1 2150   0.200   0.676   2.836  1.2021  0.1091  1.0265
  717SOL    HW2 2151   0.107   0.558   2.914 -0.3646 -0.7278 -0.2923
  718SOL     OW 2152   1.467   0.577   0.469 -0.1606 -0.0403  0.0631
  718SOL    HW1 2153   1.509   0.570   0.376  1.0768 -0.7860 -3.3135
  718SOL    HW2 2154   1.365   0.563   0.470 -1.1941  0.5747  1.8935
  719SOL     OW 2155   2.477   2.179   2.830 -0.4891  0.5383  0.6114
  719SOL    HW1 2156   2.423   2.129   2.759 -0.4280 -0.2683 -0.1612
  719SOL    HW2 2157   2.507   2.272   2.803 -1.3752 -2.3414  1.3409
  720SOL     OW 2158   1.432   0.872   1.800 -0.0706 -0.4967  0.3168
  720SOL    HW1 2159   1.501   0.942   1.763  2.2942  0.7633  1.6407
  720SOL    HW2 2160   1.466   0.779   1.792 -0.1812  0.1600 -0.7628
  721SOL     OW 2161   0.156   2.897   1.231 -0.2934 -0.1087 -0.3024
  721SOL    HW1 2162   0.091   2.959   1.183 -2.8351 -1.0562  0.0234
  721SOL    HW2 2163   0.183   2.820   1.172  2.6487  3.1279  0.6786
  722SOL     OW 2164   1.164   1.836   2.803  0.5193 -0.2927 -0.1155
  722SOL    HW1 2165   1.248   1.865   2.851 -2.1663  0.8172 -0.5273
  722SOL    HW2 2166   1.182   1.780   2.719 -1.7673 -2.1439  0.9741
  723SOL     OW 2167   1.875   0.200   0.466  0.2194  0.0989  0.5622
  723SOL    HW1 2168   1.925   0.233   0.385  1.9979  0.0201  0.3223
  723SOL    HW2 2169   1.925   0.123   0.511  1.0954  0.0363 -1.0493
  724SOL     OW 2170   0.494   2.077   2.697 -0.0163  0.0247  0.1539
  724SOL    HW1 2171   0.400   2.080   2.738 -0.9600  1.6560  1.3100
  724SOL    HW2 2172   0.554   2.154   2.726  0.3569 -0.2261 -0.0450
  725SOL     OW 2173   0.071   0.703   1.414 -0.1468  0.2044 -0.0826
  725SOL    HW1 2174   3.092   0.710   1.355  2.3463 -0.5571  1.8640
  725SOL    HW2 2175   0.115   0.793   1.428  1.1489  0.9268 -0.0294
  726SOL     OW 2176   2.012   3.066   0.563 -0.2503  0.7006  0.0862
  726SOL    HW1 2177   2.033   2.970   0.597 -0.7260 -0.8643 -1.2626
  726SOL    HW2 2178   1.981   0.020   0.641  1.5734 -0.9616 -3.4610
  727SOL     OW 2179   1.943   1.059   2.128  0.0303 -0.4612  0.2349
  727SOL    HW1 2180   1.971   0.960   2.138  1.0557 -0.7749 -0.2019
  727SOL    HW2 2181   1.894   1.086   2.216 -0.6386  0.5671  3.7062
  728SOL     OW 2182   1.446   2.934   1.377  0.2565  0.0239 -0.1849
  728SOL    HW1 2183   1.399   3.016   1.427 -3.5391  2.9089  2.5979
  728SOL    HW2 2184   1.379   2.883   1.317  1.5238  0.3605 -0.5407
  729SOL     OW 2185   1.879   0.411   2.089  0.2926 -0.6930 -0.1426
  729SOL    HW1 2186   1.960   0.449   2.039  2.6492 -1.6960  2.4498
  729SOL    HW2 2187   1.819   0.363   2.018  1.6690  0.8860 -1.3384
  730SOL     OW 2188   0.646   0.800   1.326 -0.2958 -0.0280  0.2062
  730SOL    HW1 2189   0.629   0.697   1.318  0.3496 -1.1500 -2.5219
  730SOL    HW2 2190   0.693   0.841   1.241 -0.1814 -1.9800 -1.4518
  731SOL     OW 2191   0.202   0.138   0.165 -0.2940 -0.6379  0.2164
  731SOL    HW1 2192   0.138   0.132   0.243  2.8859 -1.3563 -1.1187
  731SOL    HW2 2193   0.290   0.174   0.200 -2.2784 -1.4602  0.3630
  732SOL     OW 2194   0.742   0.719   0.452  0.2548 -0.1511 -0.0242
  732SOL    HW1 2195   0.717   0.657   0.534 -1.1191 -1.8363 -0.0232
  732SOL    HW2 2196   0.703   0.817   0.457 -1.9714  2.5169  1.0464
  733SOL     OW 2197   1.579   1.603   2.271  0.3558  0.1445  0.0061
  733SOL    HW1 2198   1.588   1.699   2.244  0.1213 -0.5631  0.4528
  733SOL    HW2 2199   1.535   1.551   2.197  0.9978  0.0295  1.1159
  734SOL     OW 2200   3.088   2.149   2.086 -0.4070 -0.3030 -0.1896
  734SOL    HW1 2201   0.014   2.179   1.993  0.3390 -0.2790 -0.1382
  734SOL    HW2 2202   2.990   2.169   2.105  1.4733  0.0196 -0.3052
  735SOL     OW 2203   1.838   0.205   0.943  0.0213 -0.1638  0.0555
  735SOL    HW1 2204   1.890   0.158   0.867 -0.0435 -0.7616 -0.8111
  735SOL    HW2 2205   1.849   0.150   1.031  2.7430 -0.2581  0.2652
  736SOL     OW 2206   0.956   1.315   0.057  0.7256 -0.1912  0.4453
  736SOL    HW1 2207   0.856   1.330   0.032 -1.8166  1.0094  0.6358
  736SOL    HW2 2208   0.998   1.392   0.112 -2.4657 -0.4561 -2.4048
  737SOL     OW 2209   2.892   0.480   0.452 -0.6208  0.1609 -0.1527
  737SOL    HW1 2210   2.983   0.446   0.423 -0.3732  1.8010  0.1705
  737SOL    HW2 2211   2.883   0.468   0.556  0.7890 -0.7541 -0.6652
  738SOL     OW 2212   0.414   2.352   1.709  0.2914 -0.0699  0.1157
  738SOL    HW1 2213   0.355   2.370   1.629  0.8890 -1.4816  1.6790
  738SOL    HW2 2214   0.487   2.291   1.686 -3.7478  1.9002  0.6889
  739SOL     OW 2215   1.012   2.547   3.047  0.1013 -0.2365 -0.0489
  739SOL    HW1 2216   1.038   2.647   3.035 -0.0786  0.7438 -0.4441
  739SOL    HW2 2217   1.069   2.482   2.992  2.1246 -0.3701 -1.1241
  740SOL     OW 2218   1.737   2.675   1.344  0.8903 -0.0668  0.2880
  740SOL    HW1 2219   1.697   2.726   1.424 -0.9562 -1.7001 -0.1116
  740SOL    HW2 2220   1.782   2.585   1.372  1.7447 -1.1904  0.7928
  741SOL     OW 2221   2.094   0.404   0.807  0.4671 -0.7603  0.0523
  741SOL    HW1 2222   2.020   0.455   0.753 -1.2280 -0.9526  1.2798
  741SOL    HW2 2223   2.171   0.467   0.842  1.5785  0.8457  1.5769
  742SOL     OW 2224   1.126   2.309   2.480  0.4041  0.0754 -0.0891
  742SOL    HW1 2225   1.128   2.290   2.577 -0.5313  2.9906 -2.8973
  742SOL    HW2 2226   1.026   2.326   2.450 -2.4354 -0.2937  1.1002
  743SOL     OW 2227   2.496   0.932   1.779  0.4482 -0.2775  0.4153
  743SOL    HW1 2228   2.399   0.904   1.769  1.6089 -0.4209 -0.3367
  743SOL    HW2 2229   2.550   0.857   1.815  0.1490  0.2070  0.9128
  744SOL     OW 2230   2.192   0.666   0.927  0.5207 -0.5302  0.4251
  744SOL    HW1 2231   2.281   0.719   0.909  2.0339 -2.5629  0.2357
  744SOL    HW2 2232   2.117   0.735   0.906 -3.7791  1.1144 -1.4602
  745SOL     OW 2233   2.302   1.294   1.888 -0.3591 -0.2149  1.0005
  745SOL    HW1 2234   2.280   1.387   1.860 -0.7787 -1.4018  0.4393
  745SOL    HW2 2235   2.367   1.257   1.812  2.3109  0.1128 -2.0246
  746SOL     OW 2236   1.301   1.789   0.566 -0.1882 -0.5689 -0.3784
  746SOL    HW1 2237   1.375   1.848   0.596 -0.3213  0.9811 -1.0345
  746SOL    HW2 2238   1.223   1.783   0.634 -3.6991 -0.5391 -2.3983
  747SOL     OW 2239   1.652   1.831   1.214  0.2275  0.1229  0.3910
  747SOL    HW1 2240   1.552   1.824   1.228 -0.2305 -1.9390 -0.0162
  747SOL    HW2 2241   1.688   1.736   1.232 -2.2167 -2.0330  0.6697
  748SOL     OW 2242   0.246   2.754   0.255  0.1474  0.2270  0.0500
  748SOL    HW1 2243   0.160   2.735   0.308  0.2832  0.1114  0.7352
  748SOL    HW2 2244   0.226   2.823   0.184 -2.0126  0.6207 -0.5612
  749SOL     OW 2245   0.273   1.023   2.474 -0.0577  0.0774 -0.1169
  749SOL    HW1 2246   0.315   0.945   2.418  0.5521 -1.7127  0.7738
  749SOL    HW2 2247   0.185   1.058   2.439 -1.3993  1.4054 -0.4528
  750SOL     OW 2248   1.587   2.831   1.902  0.2626 -0.1247 -0.2226
  750SOL    HW1 2249   1.600   2.786   1.813  1.1068  3.2317  0.6560
  750SOL    HW2 2250   1.525   2.912   1.887  1.9080 -0.2794 -0.1371
  751SOL     OW 2251   2.872   0.679   0.199 -0.1689  0.3606 -0.7918
  751SOL    HW1 2252   2.826   0.598   0.233  0.0037  0.6147  1.9605
  751SOL    HW2 2253   2.825   0.765   0.216  0.4044 -0.4274  1.2770
  752SOL     OW 2254   0.212   2.128   0.774  0.5450 -0.2154 -0.0397
  752SOL    HW1 2255   0.241   2.075   0.691  0.5092  0.1082  2.0513
  752SOL    HW2 2256   0.129   2.088   0.819 -0.8506  2.3903  2.1353
  753SOL     OW 2257   0.949   2.931   0.939 -0.2390 -0.0006  0.4073
  753SOL    HW1 2258   1.038   2.956   0.893  1.7454  0.2106 -0.8638
  753SOL    HW2 2259   0.885   2.881   0.875 -4.1841 -0.3955 -3.5304
  754SOL     OW 2260   0.517   0.068   2.167  0.4201  0.0288  0.4362
  754SOL    HW1 2261   0.521   0.162   2.204  1.0372  0.8487 -3.9144
  754SOL    HW2 2262   0.431   0.019   2.190 -0.6928 -0.5727  1.2633
  755SOL     OW 2263   1.656   1.131   3.088 -0.0967 -0.1431  0.1930
  755SOL    HW1 2264   1.698   1.134   0.085  0.8335 -0.7977 -2.7279
  755SOL    HW2 2265   1.637   1.035   3.063 -1.6873 -1.1031 -0.6938
  756SOL     OW 2266   2.229   2.325   2.609  0.4072 -0.2442 -0.0191
  756SOL    HW1 2267   2.260   2.229   2.614 -3.6550 -0.3889 -0.0616
  756SOL    HW2 2268   2.227   2.369   2.704  0.9247  0.1677  3.7592
  757SOL     OW 2269   1.987   0.870   0.412 -0.1055  0.2038  0.0508
  757SOL    HW1 2270   2.047   0.865   0.330  0.1238 -0.1406 -0.2325
  757SOL    HW2 2271   1.917   0.796   0.411  0.5138  1.6332  2.0038
  758SOL     OW 2272   2.020   0.479   1.118 -0.0307  0.0807  0.2626
  758SOL    HW1 2273   1.991   0.569   1.086 -1.5178 -0.3439  0.2738
  758SOL    HW2 2274   2.060   0.433   1.038 -1.4930 -1.0365 -1.1929
  759SOL     OW 2275   2.714   0.560   1.153 -0.1951  0.2536 -0.1279
  759SOL    HW1 2276   2.629   0.526   1.198  1.7154 -2.9689  1.6241
  759SOL    HW2 2277   2.709   0.588   1.058  0.0241 -2.1279 -1.6311
  760SOL     OW 2278   2.267   1.310   1.353  0.4104  0.1713  0.3880
  760SOL    HW1 2279   2.216   1.347   1.271  0.1884  2.8663 -2.4605
  760SOL    HW2 2280   2.263   1.207   1.344 -0.3026 -0.5827 -0.3083
  761SOL     OW 2281   0.496   0.429   0.440  0.4900 -0.4288  0.5324
  761SOL    HW1 2282   0.565   0.489   0.490 -2.2355 -1.3371 -1.7654
  761SOL    HW2 2283   0.400   0.467   0.450 -0.8926 -0.8932  0.6612
  762SOL     OW 2284   1.057   1.991   1.237 -0.2911 -0.0540 -0.2883
  762SOL    HW1 2285   1.024   2.011   1.143 -3.4352  1.3068  0.2376
  762SOL    HW2 2286   0.994   1.924   1.276  0.3890 -1.9680  0.3646
  763SOL     OW 2287   1.424   1.190   1.791  0.2149  0.1095  0.1518
  763SOL    HW1 2288   1.459   1.282   1.812 -1.6960 -0.2792  0.1433
  763SOL    HW2 2289   1.493   1.129   1.750  0.1191 -0.5476  0.0180
  764SOL     OW 2290   0.091   1.829   2.689  0.9236 -0.1265 -0.4008
  764SOL    HW1 2291   0.011   1.829   2.624 -0.8249 -1.6407  1.4221
  764SOL    HW2 2292   0.060   1.851   2.788 -2.7134  2.7151  0.1638
  765SOL     OW 2293   1.259   2.759   1.260 -0.0735  0.2262 -0.1539
  765SOL    HW1 2294   1.352   2.707   1.256  0.0092  1.0615 -2.0757
  765SOL    HW2 2295   1.241   2.784   1.161 -2.4553  1.3461  2.0271
  766SOL     OW 2296   2.922   2.346   2.398  0.2621 -0.1542 -0.4138
  766SOL    HW1 2297   2.826   2.338   2.438  0.2028  0.3463 -0.5027
  766SOL    HW2 2298   2.981   2.282   2.447  2.1503 -0.9535 -0.4245
  767SOL     OW 2299   1.084   1.069   2.283 -0.2292  0.1429  0.5908
  767SOL    HW1 2300   1.096   1.090   2.378 -1.3372 -0.6671 -0.1545
  767SOL    HW2 2301   1.136   1.130   2.221 -1.0176 -1.9174 -0.2662
  768SOL     OW 2302   1.058   2.175   3.061 -0.0461 -0.2358  0.0164
  768SOL    HW1 2303   1.126   2.220   0.024  0.8409  2.7423  2.6318
  768SOL    HW2 2304   0.972   2.232   3.060 -1.0860 -0.0537 -1.3479
  769SOL     OW 2305   0.357   2.202   0.992  0.2456 -0.5990 -0.4712
  769SOL    HW1 2306   0.409   2.136   1.048 -2.4272  0.4269  0.0586
  769SOL    HW2 2307   0.310   2.158   0.913 -1.2150  1.6006 -0.6508
  770SOL     OW 2308   1.565   0.879   2.687  0.3133  0.2450  0.4676
  770SOL    HW1 2309   1.653   0.820   2.687  3.5196 -0.5335  0.5688
  770SOL    HW2 2310   1.529   0.897   2.779 -0.5982  1.8349  1.6234
  771SOL     OW 2311   0.015   2.982   2.181 -0.0443  0.1847 -0.0433
  771SOL    HW1 2312   0.118   2.966   2.173  1.3146 -2.3955 -1.1541
  771SOL    HW2 2313   3.067   2.892   2.162  1.8420  0.8385  1.6258
  772SOL     OW 2314   2.332   2.664   2.043  0.0056 -0.4725  0.3536
  772SOL    HW1 2315   2.313   2.579   2.098  1.8340 -0.5098  1.3550
  772SOL    HW2 2316   2.364   2.647   1.953 -2.3453  0.8949  1.4974
  773SOL     OW 2317   0.894   1.847   1.660  0.0342  0.4406  0.2654
  773SOL    HW1 2318   0.898   1.939   1.614  0.4385 -0.1494 -1.4575
  773SOL    HW2 2319   0.834   1.857   1.740  0.4624  2.2647  0.8404
  774SOL     OW 2320   1.109   0.286   1.882 -0.2181 -0.2596 -0.3369
  774SOL    HW1 2321   1.118   0.305   1.981 -3.0150  1.7774  0.1299
  774SOL    HW2 2322   1.014   0.272   1.857  0.6663  2.2765  0.3359
  775SOL     OW 2323   1.838   3.079   2.948 -0.3973  0.2308 -0.2343
  775SOL    HW1 2324   1.843   0.081   2.962  2.2050 -0.0257 -0.6866
  775SOL    HW2 2325   1.857   3.062   2.851 -0.4953  1.3592  3.0390
  776SOL     OW 2326   2.967   0.601   2.195  0.3898 -0.1002  0.4906
  776SOL    HW1 2327   3.033   0.613   2.274  1.5687 -1.1524  3.0368
  776SOL    HW2 2328   2.879   0.549   2.219 -0.3803 -1.2159  0.1858
  777SOL     OW 2329   2.483   2.146   2.180  0.3541  0.0072  0.7498
  777SOL    HW1 2330   2.404   2.121   2.121  0.2022 -0.2890  0.8583
  777SOL    HW2 2331   2.518   2.240   2.151 -1.3775  2.2824 -2.2935
  778SOL     OW 2332   1.895   0.747   2.138 -0.5844  0.0201 -0.5798
  778SOL    HW1 2333   1.910   0.698   2.230  1.8368  1.2858  3.1389
  778SOL    HW2 2334   1.796   0.767   2.116 -1.7286 -1.0718  0.0444
  779SOL     OW 2335   2.597   0.608   0.651  0.2914  0.0486  0.0585
  779SOL    HW1 2336   2.608   0.520   0.594  0.9077 -5.2229 -0.6245
  779SOL    HW2 2337   2.568   0.687   0.592  1.1445  0.1536  3.2812
  780SOL     OW 2338   2.368   0.265   0.019 -0.2820  0.0133 -0.0354
  780SOL    HW1 2339   2.432   0.199   3.076  1.0616 -0.7238 -1.8238
  780SOL    HW2 2340   2.382   0.357   3.077  0.0070  0.2349  1.4716
  781SOL     OW 2341   0.242   2.434   1.492  0.2105  0.4665 -0.0382
  781SOL    HW1 2342   0.252   2.470   1.395  3.4003  1.5565  0.2937
  781SOL    HW2 2343   0.156   2.379   1.508 -1.2952 -0.6360  3.9894
  782SOL     OW 2344   2.247   2.436   2.864  0.1117 -0.0388  0.0056
  782SOL    HW1 2345   2.286   2.535   2.870  2.3274  2.9304 -2.1914
  782SOL    HW2 2346   2.274   2.389   2.954 -2.3622 -0.0602  0.0581
  783SOL     OW 2347   0.738   1.491   1.399 -0.3051  0.1003 -0.6144
  783SOL    HW1 2348   0.686   1.404   1.402  1.6926  3.4790  0.1870
  783SOL    HW2 2349   0.785   1.510   1.493  2.3671  0.0681  1.3716
  784SOL     OW 2350   1.301   0.605   2.800 -0.4202 -0.3275 -0.0965
  784SOL    HW1 2351   1.211   0.559   2.811  1.5556  2.0448  0.8750
  784SOL    HW2 2352   1.275   0.697   2.758 -0.4945  1.2996  0.1388
  785SOL     OW 2353   2.332   0.205   1.072 -0.5190  0.8053 -0.0577
  785SOL    HW1 2354   2.296   0.179   1.166 -2.1455  1.0614  1.3277
  785SOL    HW2 2355   2.321   0.302   1.051  0.0823  1.2399  0.5169
  786SOL     OW 2356   1.104   2.148   1.919 -0.0632  0.0831  0.3814
  786SOL    HW1 2357   1.096   2.045   1.932 -0.1551 -1.5454  0.8108
  786SOL    HW2 2358   1.144   2.191   2.001  0.1510 -0.8939 -2.0660
  787SOL     OW 2359   1.611   0.585   1.173  0.0389  0.2204 -0.2258
  787SOL    HW1 2360   1.614   0.690   1.172 -1.0078  2.8122  1.3053
  787SOL    HW2 2361   1.688   0.536   1.223 -0.5424  0.3378  2.1842
  788SOL     OW 2362   0.290   0.706   0.640  0.0529 -0.3940  0.0078
  788SOL    HW1 2363   0.352   0.665   0.713  0.0315  0.5942  0.3020
  788SOL    HW2 2364   0.266   0.802   0.665 -0.9130 -0.0672 -1.1378
  789SOL     OW 2365   0.245   2.124   1.395 -0.3801  0.1629  0.9706
  789SOL    HW1 2366   0.332   2.156   1.346  1.0871  3.0318  1.7207
  789SOL    HW2 2367   0.266   2.057   1.464 -1.7886 -0.2904  1.6372
  790SOL     OW 2368   0.871   0.749   2.425 -0.0003  0.3257  0.2952
  790SOL    HW1 2369   0.921   0.762   2.338 -0.3298 -2.3803 -0.1749
  790SOL    HW2 2370   0.783   0.799   2.425  3.4514 -1.6450 -0.6923
  791SOL     OW 2371   1.870   0.693   1.012 -0.0560 -0.7236  0.1714
  791SOL    HW1 2372   1.795   0.745   1.065 -0.6990  3.5284  2.6437
  791SOL    HW2 2373   1.839   0.615   0.953 -0.2257 -0.6127  0.3901
  792SOL     OW 2374   1.272   2.528   2.040 -0.4948  0.6130  0.0707
  792SOL    HW1 2375   1.216   2.604   2.003  2.1952  1.1376 -0.7196
  792SOL    HW2 2376   1.216   2.450   2.058  0.3598  1.5943 -1.2617
  793SOL     OW 2377   1.198   0.632   0.392 -0.4455  0.1584 -0.2977
  793SOL    HW1 2378   1.243   0.702   0.336  0.9291 -0.9178 -0.2975
  793SOL    HW2 2379   1.116   0.674   0.431  3.9734 -0.3925 -3.0149
  794SOL     OW 2380   0.630   1.033   1.948  0.0634 -0.4340  0.1373
  794SOL    HW1 2381   0.606   1.128   1.973 -1.2389 -0.7488 -0.9183
  794SOL    HW2 2382   0.728   1.017   1.968 -2.0850  0.3110  1.9498
  795SOL     OW 2383   0.261   2.057   2.417  0.4322  0.2785  0.0989
  795SOL    HW1 2384   0.362   2.049   2.410  0.0427  0.9582 -0.8372
  795SOL    HW2 2385   0.226   2.090   2.505 -0.2903 -1.9527 -1.9638
  796SOL     OW 2386   2.498   0.893   2.234  1.1202  0.6335  0.4969
  796SOL    HW1 2387   2.425   0.959   2.202  0.2781  1.3918 -0.9364
  796SOL    HW2 2388   2.595   0.910   2.199 -0.0918 -1.9639 -3.9399
  797SOL     OW 2389   2.836   2.133   2.780 -0.2882 -0.1685  0.4635
  797SOL    HW1 2390   2.749   2.182   2.805 -2.0878  1.4716  1.4686
  797SOL    HW2 2391   2.908   2.204   2.782  0.6010  1.3141  1.0251
  798SOL     OW 2392   0.340   2.502   2.155  0.6271  0.4179  0.2108
  798SOL    HW1 2393   0.267   2.557   2.112  1.3446  2.0880 -0.0813
  798SOL    HW2 2394   0.290   2.417   2.188  0.3201  0.3371  3.7134
  799SOL     OW 2395   0.262   2.423   2.620 -0.4023  0.4006  0.3291
  799SOL    HW1 2396   0.213   2.335   2.644 -1.8660  0.2815 -0.7151
  799SOL    HW2 2397   0.266   2.495   2.693 -0.5806 -3.5283 -0.6088
  800SOL     OW 2398   0.564   2.219   3.006  0.3406  0.1277  0.7424
  800SOL    HW1 2399   0.507   2.294   3.039 -1.6974 -0.7015 -3.2917
  800SOL    HW2 2400   0.505   2.132   2.998  2.1450 -1.9846  0.6146
  801SOL     OW 2401   1.655   1.434   1.016 -0.0506  0.0181  0.0479
  801SOL    HW1 2402   1.648   1.336   1.043  1.4006  0.2880  0.4286
  801SOL    HW2 2403   1.697   1.486   1.091 -1.3217 -0.1154  0.5348
  802SOL     OW 2404   2.942   1.214   0.703  0.3349 -0.2581  0.4044
  802SOL    HW1 2405   2.921   1.214   0.600 -0.0275 -0.8312 -3.3368
  802SOL    HW2 2406   3.014   1.142   0.723  0.5115 -0.9504 -2.9956
  803SOL     OW 2407   1.222   2.004   2.254 -0.4281  0.0075  0.0241
  803SOL    HW1 2408   1.285   1.984   2.333  2.0018  1.1864 -0.9705
  803SOL    HW2 2409   1.124   2.033   2.282  0.2444 -0.3007  3.7479
  804SOL     OW 2410   1.440   1.647   0.373  0.9308  0.4808  0.4006
  804SOL    HW1 2411   1.511   1.713   0.346  1.1595 -0.8576  1.1437
  804SOL    HW2 2412   1.374   1.685   0.442  1.3587 -1.2059 -2.1433
  805SOL     OW 2413   2.497   1.274   0.044 -0.3143  0.0147 -0.5760
  805SOL    HW1 2414   2.497   1.360   3.090 -0.4015 -1.3013  0.0224
  805SOL    HW2 2415   2.496   1.191   3.090  2.2075 -0.1598 -0.9215
  806SOL     OW 2416   0.448   2.930   0.377  0.0788  0.2310 -0.0087
  806SOL    HW1 2417   0.524   2.866   0.396 -1.8429  1.4545 -0.5865
  806SOL    HW2 2418   0.362   2.882   0.350 -0.6464 -0.6174  2.2222
  807SOL     OW 2419   1.942   1.845   2.778  0.2291 -0.5459  0.3391
  807SOL    HW1 2420   1.953   1.938   2.818  0.0597 -2.6630 -0.1729
  807SOL    HW2 2421   1.961   1.771   2.844  1.8479  0.7350  0.2448
  808SOL     OW 2422   0.651   1.583   0.975  0.2845  0.0578 -0.0276
  808SOL    HW1 2423   0.629   1.485   0.976 -2.2829  0.5435 -0.8421
  808SOL    HW2 2424   0.561   1.631   0.987 -2.2486 -2.4616 -1.2582
  809SOL     OW 2425   2.544   0.827   0.506  0.4327 -0.3060 -0.1539
  809SOL    HW1 2426   2.480   0.868   0.573  1.5025 -1.8642 -2.6149
  809SOL    HW2 2427   2.492   0.804   0.425  0.6630  0.9279  2.0173
  810SOL     OW 2428   0.904   1.100   0.416 -0.2694 -0.2375 -0.2706
  810SOL    HW1 2429   0.975   1.070   0.476 -0.8978  0.5540 -1.1963
  810SOL    HW2 2430   0.904   1.201   0.417 -1.5851 -0.6023 -0.7558
  811SOL     OW 2431   1.550   2.317   1.134 -0.6175  0.2714 -0.0391
  811SOL    HW1 2432   1.647   2.350   1.130 -0.3372 -0.6761  0.7947
  811SOL    HW2 2433   1.512   2.317   1.227  0.2744  0.3461 -1.0928
  812SOL     OW 2434   1.099   2.604   1.718 -0.0805 -0.3302  0.2148
  812SOL    HW1 2435   1.091   2.662   1.802 -0.3072 -2.9501  0.0112
  812SOL    HW2 2436   1.090   2.506   1.743 -1.1247  1.7633 -0.5786
  813SOL     OW 2437   0.754   3.006   1.760 -0.3530 -0.3267  0.0486
  813SOL    HW1 2438   0.720   3.075   1.826 -1.9411 -1.0256 -0.7140
  813SOL    HW2 2439   0.672   2.961   1.713 -3.3338 -1.9093  0.3866
  814SOL     OW 2440   0.856   2.410   2.459  0.5045 -0.1176 -0.5291
  814SOL    HW1 2441   0.897   2.460   2.537 -0.1998  0.0404 -0.4169
  814SOL    HW2 2442   0.754   2.425   2.456 -0.1654 -1.4229 -0.1769
  815SOL     OW 2443   0.637   0.300   2.539 -0.5948 -0.0236  0.0846
  815SOL    HW1 2444   0.723   0.247   2.512 -0.9004 -0.0102  0.6959
  815SOL    HW2 2445   0.668   0.381   2.591  1.5397  0.4136 -0.3348
  816SOL     OW 2446   2.291   0.110   2.816 -0.0254  0.3707  0.1000
  816SOL    HW1 2447   2.270   0.208   2.833  0.3562 -2.7646  3.8823
  816SOL    HW2 2448   2.243   0.046   2.882  0.5924  0.1447  0.5006
  817SOL     OW 2449   2.128   0.133   2.018 -0.2135  0.2432  0.3207
  817SOL    HW1 2450   2.217   0.082   2.023 -0.0310 -1.3435 -1.4987
  817SOL    HW2 2451   2.124   0.198   1.938 -2.3665  0.1498 -2.1206
  818SOL     OW 2452   1.594   0.566   0.219  0.3903 -0.1545  0.5068
  818SOL    HW1 2453   1.511   0.564   0.159  0.7216  0.6150  1.2284
  818SOL    HW2 2454   1.656   0.491   0.187  0.1665 -0.3762 -0.3500
  819SOL     OW 2455   1.880   1.593   2.520 -0.0556 -0.5337  0.2306
  819SOL    HW1 2456   1.840   1.503   2.539 -0.9909 -0.0019 -2.0442
  819SOL    HW2 2457   1.954   1.622   2.576 -0.7493  1.8724 -2.0465
  820SOL     OW 2458   0.186   1.742   0.137  0.1733  0.7167  0.3282
  820SOL    HW1 2459   0.169   1.713   0.042  0.3574 -1.0251 -2.1033
  820SOL    HW2 2460   0.281   1.778   0.152 -0.6879  0.5265 -0.1231
  821SOL     OW 2461   0.202   2.953   0.763  0.0864  0.0224 -0.1933
  821SOL    HW1 2462   0.228   2.995   0.673  1.3591  0.9664  1.3376
  821SOL    HW2 2463   0.199   2.848   0.762  1.3022 -0.4627  0.1576
  822SOL     OW 2464   2.552   2.430   2.753 -0.2351 -0.0348  0.1259
  822SOL    HW1 2465   2.453   2.426   2.775 -3.5721 -0.6140  0.6353
  822SOL    HW2 2466   2.581   2.526   2.732  0.9156 -1.8337 -0.9486
  823SOL     OW 2467   1.352   0.102   2.298 -0.1614  0.1318  0.1932
  823SOL    HW1 2468   1.453   0.089   2.298 -0.8956  0.9801  0.0845
  823SOL    HW2 2469   1.312   0.008   2.292 -1.2968  0.0493  0.3174
  824SOL     OW 2470   2.830   2.210   2.161  0.5846 -0.2679 -0.4514
  824SOL    HW1 2471   2.855   2.265   2.235 -2.5779  0.8459  1.2287
  824SOL    HW2 2472   2.743   2.244   2.114 -3.3654 -1.1270 -0.6089
  825SOL     OW 2473   2.998   1.837   2.491 -0.3058 -0.4549 -0.4646
  825SOL    HW1 2474   2.899   1.845   2.465 -0.0784  0.2294 -2.0191
  825SOL    HW2 2475   3.052   1.892   2.423 -1.7957 -0.8552 -0.6912
  826SOL     OW 2476   2.126   0.876   2.373 -1.1386 -0.1452  0.0862
  826SOL    HW1 2477   2.142   0.781   2.358 -0.1690  2.9797 -1.0057
  826SOL    HW2 2478   2.027   0.890   2.398 -3.5757 -1.5103  0.6294
  827SOL     OW 2479   2.573   2.130   1.331 -0.2204  0.2095  0.3604
  827SOL    HW1 2480   2.482   2.174   1.355 -2.7252  4.3376 -0.1133
  827SOL    HW2 2481   2.556   2.042   1.287  0.4673  1.2920 -0.2158
  828SOL     OW 2482   0.095   0.108   1.717  0.1451 -0.3758 -0.5863
  828SOL    HW1 2483   0.193   0.100   1.693 -0.6614  0.6720 -0.1212
  828SOL    HW2 2484   0.080   0.173   1.795  0.2541  1.4704  0.4540
  829SOL     OW 2485   1.013   2.166   2.722  0.3614 -0.7805 -0.4139
  829SOL    HW1 2486   1.065   2.102   2.782 -1.0930  0.7843  1.5500
  829SOL    HW2 2487   0.966   2.128   2.639  0.2075 -0.0248 -1.6313
  830SOL     OW 2488   1.067   0.665   0.728  0.5190 -0.4522  0.0413
  830SOL    HW1 2489   1.123   0.589   0.697 -4.9510  2.8218  2.0824
  830SOL    HW2 2490   1.045   0.730   0.650 -1.2678 -0.3584 -3.7386
  831SOL     OW 2491   2.893   1.488   2.991  0.3023  0.8606 -0.0130
  831SOL    HW1 2492   2.799   1.501   2.964  1.1894 -1.0063 -1.2052
  831SOL    HW2 2493   2.907   1.398   3.036 -0.7539 -1.1457 -1.3718
  832SOL     OW 2494   1.661   2.391   2.215 -0.0700  0.3093  0.1869
  832SOL    HW1 2495   1.634   2.297   2.246  0.3244 -2.0310  0.7589
  832SOL    HW2 2496   1.732   2.390   2.141  3.2256 -0.8897  0.9879
  833SOL     OW 2497   0.895   0.387   2.163 -0.4774  0.2417 -0.0771
  833SOL    HW1 2498   0.971   0.388   2.234 -0.2679 -0.9641  2.4940
  833SOL    HW2 2499   0.854   0.297   2.160  2.9253  1.6167  2.0591
  834SOL     OW 2500   0.089   0.290   1.241 -0.3827 -0.0971 -0.0298
  834SOL    HW1 2501   0.017   0.215   1.240  0.7374  0.0672 -1.9183
  834SOL    HW2 2502   0.122   0.294   1.339 -1.8381  1.2458  1.5998
  835SOL     OW 2503   2.417   0.688   3.089 -0.4797 -0.0504 -0.0829
  835SOL    HW1 2504   2.339   0.626   3.055 -2.3679  0.4990 -0.8918
  835SOL    HW2 2505   2.510   0.654   3.070 -0.8558  2.1523  0.0129
  836SOL     OW 2506   1.255   1.960   0.117 -0.1968  0.2565 -0.5599
  836SOL    HW1 2507   1.210   1.922   0.198 -0.2579 -0.8753  3.7275
  836SOL    HW2 2508   1.197   1.939   0.038  3.4596  0.5740  1.7950
  837SOL     OW 2509   1.687   1.742   0.758 -0.0580  0.2044  0.0059
  837SOL    HW1 2510   1.612   1.674   0.773  0.6046 -0.9008  0.4883
  837SOL    HW2 2511   1.766   1.687   0.721  2.8004  0.2421  1.3041
  838SOL     OW 2512   1.312   1.005   2.027  0.8477 -0.0578  0.0395
  838SOL    HW1 2513   1.361   0.979   1.942 -0.9871 -0.5832  0.0011
  838SOL    HW2 2514   1.246   0.934   2.054  3.5975  2.0837 -0.7814
  839SOL     OW 2515   0.932   1.686   2.558 -0.0207  0.0479 -1.0239
  839SOL    HW1 2516   0.903   1.760   2.623 -1.4643  0.5579 -0.0540
  839SOL    HW2 2517   0.881   1.599   2.575 -0.1781 -1.3388  0.7827
  840SOL     OW 2518   0.694   2.197   0.733  0.6885 -0.2008  0.2535
  840SOL    HW1 2519   0.730   2.291   0.752 -1.2595  0.4197 -1.1073
  840SOL    HW2 2520   0.706   2.132   0.808 -0.2595  2.0028 -1.1886
  841SOL     OW 2521   1.879   2.486   0.152  0.1837 -0.1855  0.0692
  841SOL    HW1 2522   1.981   2.500   0.133  0.1691 -0.2231 -0.3549
  841SOL    HW2 2523   1.833   2.466   0.064 -1.2763  0.3798  0.5049
  842SOL     OW 2524   0.451   0.589   2.985  0.2310  0.1621  0.0750
  842SOL    HW1 2525   0.506   0.613   2.901  1.3964 -4.0558 -0.6735
  842SOL    HW2 2526   0.352   0.585   2.963 -1.3562 -2.4504  3.0588
  843SOL     OW 2527   1.236   0.428   0.606 -0.0593  0.3100 -0.0060
  843SOL    HW1 2528   1.234   0.330   0.571 -2.0032 -3.0467 -1.6352
  843SOL    HW2 2529   1.329   0.455   0.630  0.5065 -0.4723 -0.5395
  844SOL     OW 2530   2.712   3.010   2.820 -0.1593  0.1732  0.8854
  844SOL    HW1 2531   2.644   2.961   2.761  0.8240 -1.0653  2.0446
  844SOL    HW2 2532   2.802   3.025   2.771  0.8405  1.8881  0.2148
  845SOL     OW 2533   2.824   1.998   1.493  0.0908 -0.0079  0.1804
  845SOL    HW1 2534   2.756   2.069   1.524 -1.8300  3.0857  1.0283
  845SOL    HW2 2535   2.902   1.996   1.560 -1.9428 -1.7142 -2.2856
  846SOL     OW 2536   2.547   1.490   2.367  0.5264  0.2079 -0.2985
  846SOL    HW1 2537   2.505   1.471   2.455  0.4286  3.2020  0.2275
  846SOL    HW2 2538   2.562   1.400   2.318 -1.1950 -1.5641  2.1319
  847SOL     OW 2539   1.132   0.448   1.665 -0.1483 -0.2971 -0.1804
  847SOL    HW1 2540   1.125   0.393   1.749 -3.1314  0.2272 -1.4792
  847SOL    HW2 2541   1.046   0.502   1.667 -0.1119 -3.3305 -0.1089
  848SOL     OW 2542   2.734   2.725   2.991  0.0979  0.0669 -0.0548
  848SOL    HW1 2543   2.656   2.722   3.058  2.0612 -0.4462 -1.0571
  848SOL    HW2 2544   2.733   2.810   2.938  1.0633  0.5748 -0.9336
  849SOL     OW 2545   0.588   0.022   0.254 -0.0777  0.4362  0.2453
  849SOL    HW1 2546   0.544   3.053   0.316 -0.2532  1.6493  1.7611
  849SOL    HW2 2547   0.528   0.106   0.247 -0.4838  1.4770 -2.0889
  850SOL     OW 2548   1.298   2.868   1.002 -0.6635 -0.2279 -0.5858
  850SOL    HW1 2549   1.397   2.862   0.984 -1.4066 -1.3690  0.2239
  850SOL    HW2 2550   1.253   2.879   0.912  0.3643  1.1343  1.3486
  851SOL     OW 2551   2.728   0.236   2.347  0.3595  0.3389  0.2180
  851SOL    HW1 2552   2.743   0.335   2.325 -1.8838 -2.2950  1.4830
  851SOL    HW2 2553   2.810   0.210   2.404  3.6261 -2.1463 -0.2262
  852SOL     OW 2554   1.483   0.575   2.399 -0.4332 -0.1731 -0.0407
  852SOL    HW1 2555   1.560   0.571   2.465 -2.0735 -1.0570  1.0795
  852SOL    HW2 2556   1.508   0.530   2.309 -0.9831  0.8249  0.3117
  853SOL     OW 2557   2.881   0.037   0.202  0.2797  0.1228  0.4061
  853SOL    HW1 2558   2.786   0.042   0.247 -1.4972 -3.2377  1.0250
  853SOL    HW2 2559   2.953   0.084   0.261  0.0135  0.3688 -0.5801
  854SOL     OW 2560   2.316   1.262   2.161 -0.1646 -0.7390  0.5644
  854SOL    HW1 2561   2.415   1.275   2.188 -0.3676  0.5108 -0.2031
  854SOL    HW2 2562   2.311   1.285   2.063  1.3282  3.2137  1.2803
  855SOL     OW 2563   0.746   2.679   0.194  0.2876  0.2303 -0.3646
  855SOL    HW1 2564   0.712   2.769   0.158 -1.8726  0.4177  0.9608
  855SOL    HW2 2565   0.760   2.614   0.120 -3.2245 -2.3901  0.2034
  856SOL     OW 2566   3.045   3.072   2.865  0.0513  0.0180  0.1710
  856SOL    HW1 2567   2.971   3.062   2.803  0.2504 -1.7234 -1.6383
  856SOL    HW2 2568   3.063   2.979   2.909 -0.8707 -0.5701 -0.9152
  857SOL     OW 2569   0.965   2.736   1.495 -0.0205 -0.3015 -0.4879
  857SOL    HW1 2570   1.001   2.707   1.405 -1.8684  4.1978  1.4961
  857SOL    HW2 2571   1.016   2.685   1.570  2.2029 -0.3205  0.6731
  858SOL     OW 2572   2.664   2.179   1.646 -0.3512  0.1882  0.2676
  858SOL    HW1 2573   2.736   2.239   1.694 -1.2255  0.4867  0.9281
  858SOL    HW2 2574   2.643   2.094   1.695 -1.2676  1.6953 -0.3532
  859SOL     OW 2575   1.703   2.393   1.794  0.5072  0.2267 -0.1876
  859SOL    HW1 2576   1.710   2.341   1.703 -1.4816 -1.0582 -1.6725
  859SOL    HW2 2577   1.606   2.414   1.824  2.9686 -1.9760  1.9288
  860SOL     OW 2578   2.172   3.063   2.974  0.3674 -0.1107 -0.0690
  860SOL    HW1 2579   2.083   3.087   3.024  0.4891  1.9511  2.4059
  860SOL    HW2 2580   2.209   2.982   3.014 -1.4487  0.2598 -2.7552
  861SOL     OW 2581   2.496   2.954   0.561  0.2173 -0.1871 -0.8067
  861SOL    HW1 2582   2.517   2.860   0.525  0.6758  0.7234 -1.6387
  861SOL    HW2 2583   2.498   2.952   0.661 -1.3662  3.1525 -0.1017
  862SOL     OW 2584   1.609   3.094   2.582 -0.2524 -0.2592 -0.6263
  862SOL    HW1 2585   1.548   3.023   2.550  1.8596  2.4070 -0.0653
  862SOL    HW2 2586   1.567   0.051   2.655 -3.0739  0.1938 -1.0129
  863SOL     OW 2587   0.315   0.631   1.251  0.0239 -0.4334  0.0311
  863SOL    HW1 2588   0.298   0.678   1.164 -0.4351 -1.6984  0.4477
  863SOL    HW2 2589   0.234   0.636   1.311  0.3932  0.6163 -0.9597
  864SOL     OW 2590   0.309   2.933   2.120 -0.4100  0.8936 -0.4056
  864SOL    HW1 2591   0.366   2.937   2.034  2.1404  2.3819 -0.6819
  864SOL    HW2 2592   0.346   2.857   2.185 -0.4123 -0.4517  1.7892
  865SOL     OW 2593   0.543   1.214   3.035 -0.2841 -0.2780  0.2025
  865SOL    HW1 2594   0.612   1.254   3.094 -3.0685 -1.2017 -5.8330
  865SOL    HW2 2595   0.491   1.142   3.081 -1.9650  1.3702 -2.0280
  866SOL     OW 2596   2.967   0.789   3.051  0.3720  0.9113 -0.1642
  866SOL    HW1 2597   3.064   0.824   3.061 -1.6280 -0.0005 -1.5031
  866SOL    HW2 2598   2.948   0.724   0.026  0.4175  1.0423 -0.2469
  867SOL     OW 2599   3.065   2.848   2.984  0.2347  0.0765 -0.2226
  867SOL    HW1 2600   3.018   2.870   3.073 -3.9562 -1.7500  0.5099
  867SOL    HW2 2601   3.050   2.751   2.948 -1.0997 -4.5813 -0.1758
  868SOL     OW 2602   1.490   0.261   0.305  0.5889 -0.5494  0.2869
  868SOL    HW1 2603   1.462   0.306   0.393 -0.9097  0.8079  3.0990
  868SOL    HW2 2604   1.595   0.274   0.294 -0.0971 -2.4373  2.9579
  869SOL     OW 2605   2.227   1.478   0.449  0.1627  0.2547 -0.1470
  869SOL    HW1 2606   2.289   1.549   0.414  1.4703 -0.5930  2.2212
  869SOL    HW2 2607   2.134   1.519   0.465  2.1178 -1.3566 -1.1323
  870SOL     OW 2608   1.987   1.600   0.498  0.3291  0.1590 -0.0136
  870SOL    HW1 2609   1.980   1.610   0.600 -0.7849  0.7607 -2.3610
  870SOL    HW2 2610   1.936   1.667   0.448  0.1726  1.0834  0.2180
  871SOL     OW 2611   1.390   1.513   1.251 -0.6167  0.3550  0.0081
  871SOL    HW1 2612   1.300   1.476   1.247  0.3527  1.1386  1.3928
  871SOL    HW2 2613   1.462   1.437   1.250  3.2102 -4.3284 -0.1709
  872SOL     OW 2614   1.320   1.621   1.662  0.1164 -0.0296 -0.4916
  872SOL    HW1 2615   1.262   1.542   1.694 -1.6550  1.2781 -1.7172
  872SOL    HW2 2616   1.279   1.711   1.692  2.5418 -1.2992 -0.4458
  873SOL     OW 2617   0.597   1.546   2.396  0.3598  0.2247  0.0708
  873SOL    HW1 2618   0.629   1.518   2.486  0.5414  0.5154  1.0973
  873SOL    HW2 2619   0.611   1.648   2.379 -0.8547 -2.2997 -0.5919
  874SOL     OW 2620   0.948   1.496   1.241 -0.2662  0.4980  0.2270
  874SOL    HW1 2621   0.935   1.571   1.177 -0.2203  1.8648  0.1868
  874SOL    HW2 2622   0.874   1.492   1.309 -0.0199  1.4685 -1.6695
  875SOL     OW 2623   2.317   0.464   1.062  0.4112  0.0665 -0.3260
  875SOL    HW1 2624   2.262   0.544   1.039  2.8409  1.1844  1.1621
  875SOL    HW2 2625   2.383   0.495   1.130 -0.9612 -0.9618 -0.1189
  876SOL     OW 2626   0.807   0.816   0.070 -0.1410  0.0317 -0.3837
  876SOL    HW1 2627   0.841   0.741   0.129  0.8687  2.2498 -0.8828
  876SOL    HW2 2628   0.847   0.907   0.089  0.6263 -0.9293 -0.5284
  877SOL     OW 2629   2.856   0.378   1.321  0.5580  0.3002 -0.5005
  877SOL    HW1 2630   2.801   0.385   1.234 -1.5542  1.5006 -0.7290
  877SOL    HW2 2631   2.913   0.462   1.323 -1.0373  2.8034 -0.4563
  878SOL     OW 2632   1.514   2.385   0.027 -0.2521 -0.0505  0.1886
  878SOL    HW1 2633   1.608   2.407   3.087  1.4862  1.7793 -1.5525
  878SOL    HW2 2634   1.443   2.367   3.057 -1.7977 -2.2724  1.8784
  879SOL     OW 2635   2.297   2.091   1.630  0.3074 -0.2751 -0.1485
  879SOL    HW1 2636   2.299   2.111   1.526  0.6290  1.9774  0.0597
  879SOL    HW2 2637   2.264   2.176   1.675 -0.5578  0.8930  2.0379
  880SOL     OW 2638   1.013   2.988   1.442 -0.0111  0.1159  0.4950
  880SOL    HW1 2639   1.007   2.889   1.476  0.0962 -1.0801  1.8042
  880SOL    HW2 2640   0.990   2.983   1.343 -1.0957 -0.1311  1.7826
  881SOL     OW 2641   1.016   1.899   3.025  0.2494  0.1591  0.1078
  881SOL    HW1 2642   1.066   1.869   2.940  0.4777 -2.6953 -2.6013
  881SOL    HW2 2643   1.011   2.001   3.028  1.0542 -0.7694  0.0059
  882SOL     OW 2644   2.263   0.754   2.016  0.2662 -0.2100 -0.6315
  882SOL    HW1 2645   2.250   0.841   2.067 -1.0733  2.1985  0.2728
  882SOL    HW2 2646   2.261   0.769   1.918  0.3415 -1.6885 -0.1281
  883SOL     OW 2647   1.432   0.345   1.981  0.2605 -0.3046 -0.5150
  883SOL    HW1 2648   1.433   0.291   1.896  0.0120  2.1268  1.3636
  883SOL    HW2 2649   1.335   0.349   2.018 -2.0431 -1.4193  1.1254
  884SOL     OW 2650   2.841   0.403   0.008  0.2685 -0.3376  0.3788
  884SOL    HW1 2651   2.893   0.318   3.091 -2.0324 -1.3549 -1.8449
  884SOL    HW2 2652   2.807   0.404   0.103 -1.7712 -1.5519 -0.1535
  885SOL     OW 2653   0.517   2.214   0.529  0.5879 -0.2914 -0.1167
  885SOL    HW1 2654   0.560   2.206   0.619 -0.4846  0.7925 -1.6685
  885SOL    HW2 2655   0.572   2.279   0.469  0.9158 -0.2363  0.4870
  886SOL     OW 2656   1.769   1.478   2.798 -0.6769 -0.2263  0.1441
  886SOL    HW1 2657   1.723   1.444   2.711 -0.9177  0.7223 -3.5622
  886SOL    HW2 2658   1.704   1.529   2.856  3.5235 -2.5221 -1.7658
  887SOL     OW 2659   1.997   0.515   1.693  0.3666  0.4556 -0.0410
  887SOL    HW1 2660   1.991   0.549   1.787  1.3784 -2.9310 -1.7505
  887SOL    HW2 2661   1.901   0.500   1.660 -1.6569 -2.9277  1.8680
  888SOL     OW 2662   2.789   0.941   1.653 -0.4067  0.5945  0.0045
  888SOL    HW1 2663   2.712   1.001   1.678  0.8043 -0.8955 -1.0131
  888SOL    HW2 2664   2.873   0.959   1.710 -1.4178 -4.5577  0.0539
  889SOL     OW 2665   2.845   2.696   0.744 -0.3924  0.2147 -0.8323
  889SOL    HW1 2666   2.871   2.598   0.715  1.4576 -0.2130 -3.2532
  889SOL    HW2 2667   2.919   2.754   0.713 -3.1761 -2.3658  1.1594
  890SOL     OW 2668   3.057   2.585   2.867 -0.2575  0.4225 -0.6402
  890SOL    HW1 2669   3.031   2.485   2.871 -0.2987  1.8894 -2.8368
  890SOL    HW2 2670   0.061   2.593   2.850  2.9367  2.3778  1.6589
  891SOL     OW 2671   0.714   1.876   3.019  0.5907  0.1356 -0.0291
  891SOL    HW1 2672   0.805   1.914   3.047  2.6501 -0.0020 -0.4534
  891SOL    HW2 2673   0.721   1.775   3.017 -1.3598 -0.1137  1.5984
  892SOL     OW 2674   0.287   2.673   1.023  0.0522 -0.3874 -0.1545
  892SOL    HW1 2675   0.354   2.599   1.012  1.1276 -0.9344 -1.9514
  892SOL    HW2 2676   0.247   2.708   0.935 -0.7543  3.2509  0.8307
  893SOL     OW 2677   0.461   3.010   1.016  0.2392  0.2040  0.4157
  893SOL    HW1 2678   0.489   3.038   1.107 -0.1750  0.7954 -2.3977
  893SOL    HW2 2679   0.373   3.061   0.994  0.9854 -1.7656  1.9121
  894SOL     OW 2680   3.027   1.345   0.927  0.2544 -0.0234  0.0631
  894SOL    HW1 2681   2.981   1.295   0.855  0.0943  0.5342  1.6701
  894SOL    HW2 2682   2.971   1.428   0.949 -2.3285 -0.3494  0.0358
  895SOL     OW 2683   2.511   2.386   1.641 -0.1164 -0.0449 -0.1995
  895SOL    HW1 2684   2.562   2.297   1.639  0.3574  0.8519 -0.6099
  895SOL    HW2 2685   2.565   2.454   1.590 -4.3328 -4.3410 -0.3448
  896SOL     OW 2686   1.063   0.262   1.450 -0.4115 -0.5134 -0.1423
  896SOL    HW1 2687   1.002   0.194   1.492 -1.6253  1.9845  2.5801
  896SOL    HW2 2688   1.104   0.327   1.518 -0.2183 -0.9198 -1.5691
  897SOL     OW 2689   0.888   1.572   1.631  0.0395  0.1765 -0.0280
  897SOL    HW1 2690   0.980   1.535   1.658 -1.6338 -0.3530 -1.7610
  897SOL    HW2 2691   0.888   1.674   1.631  1.8649 -2.5469  1.8101
  898SOL     OW 2692   1.487   2.699   1.511 -1.2362 -0.2635 -0.3900
  898SOL    HW1 2693   1.415   2.634   1.525  0.4226 -0.2216  2.4690
  898SOL    HW2 2694   1.462   2.778   1.462 -0.6265 -1.8745  1.3799
  899SOL     OW 2695   0.901   0.626   0.234 -0.4674 -0.4775 -0.0825
  899SOL    HW1 2696   0.850   0.670   0.314 -1.1708  0.3120 -1.4640
  899SOL    HW2 2697   0.945   0.541   0.265 -2.3196 -0.0961  1.2168
  900SOL     OW 2698   1.448   2.373   1.870  0.0921 -0.2764 -0.1317
  900SOL    HW1 2699   1.403   2.415   1.951 -3.2627  0.5956  0.7596
  900SOL    HW2 2700   1.392   2.303   1.820 -0.2390  0.5602  0.4823
  901SOL     OW 2701   0.852   2.429   0.430 -0.4039 -0.9277  0.4136
  901SOL    HW1 2702   0.771   2.423   0.367 -1.0823 -0.6452 -0.3018
  901SOL    HW2 2703   0.925   2.363   0.397  2.4570  0.7995 -0.5816
  902SOL     OW 2704   1.881   1.469   0.247 -0.4283 -0.5363  0.2596
  902SOL    HW1 2705   1.919   1.507   0.333  0.5509 -0.5390 -0.2900
  902SOL    HW2 2706   1.825   1.386   0.261  1.8179  1.6200 -2.4344
  903SOL     OW 2707   2.064   1.153   0.166  0.0794  0.2799  0.1030
  903SOL    HW1 2708   2.124   1.202   0.232 -0.7147 -0.3218 -4.1846
  903SOL    HW2 2709   2.100   1.156   0.068 -2.0466  0.1293  0.4922
  904SOL     OW 2710   0.707   1.398   0.054 -0.1419  0.4911 -0.1676
  904SOL    HW1 2711   0.694   1.481   3.099 -1.1731 -0.5176 -0.6581
  904SOL    HW2 2712   0.748   1.423   0.148  0.7022  0.8666  0.3947
  905SOL     OW 2713   2.091   3.013   1.168  0.6231  0.0708 -0.0996
  905SOL    HW1 2714   2.075   2.960   1.085 -2.7124  1.3120 -0.3486
  905SOL    HW2 2715   2.081   2.951   1.245  2.5635 -1.1650 -3.0773
  906SOL     OW 2716   2.749   2.347   1.294 -0.4904  0.1371  0.7289
  906SOL    HW1 2717   2.818   2.324   1.218  2.1214 -3.0721 -1.4866
  906SOL    HW2 2718   2.681   2.275   1.301  0.5888  1.8591  1.4165
  907SOL     OW 2719   1.254   0.871   0.251 -0.3184 -0.5151  0.1844
  907SOL    HW1 2720   1.225   0.880   0.154 -0.4012 -0.7792 -1.5432
  907SOL    HW2 2721   1.323   0.944   0.269 -0.9749 -2.2484 -1.4972
  908SOL     OW 2722   1.578   2.855   1.011  0.6253 -0.0960  0.1599
  908SOL    HW1 2723   1.651   2.812   0.954  2.0847  1.2331  1.7072
  908SOL    HW2 2724   1.587   2.957   1.009 -0.4067 -0.2740  2.7384
  909SOL     OW 2725   1.988   1.187   1.655 -0.2346 -0.0049  0.0841
  909SOL    HW1 2726   2.002   1.207   1.753 -2.3875  2.6384  0.8761
  909SOL    HW2 2727   2.032   1.264   1.606  2.0723 -2.1395  1.1352
  910SOL     OW 2728   1.618   0.043   2.005  0.2810 -0.1243 -0.2876
  910SOL    HW1 2729   1.608   0.073   2.105 -3.3366 -2.5347 -1.0496
  910SOL    HW2 2730   1.699   3.083   2.008  1.2982 -3.1101 -0.2370
  911SOL     OW 2731   2.750   0.875   2.654 -0.4300  0.0831  0.7144
  911SOL    HW1 2732   2.801   0.873   2.567  3.0668  1.7447  2.2858
  911SOL    HW2 2733   2.798   0.814   2.723 -0.7500  2.2982  0.1742
  912SOL     OW 2734   3.100   1.380   1.765  0.4773  0.7158  0.0446
  912SOL    HW1 2735   3.032   1.448   1.735  2.3493 -0.1209 -0.5930
  912SOL    HW2 2736   0.018   1.307   1.691  4.5371 -3.5780 -1.7503
  913SOL     OW 2737   2.919   2.396   1.506  0.6366  0.0956  0.0607
  913SOL    HW1 2738   2.992   2.325   1.502 -2.2594 -0.4661 -2.9490
  913SOL    HW2 2739   2.854   2.379   1.428 -1.6869 -0.9587 -0.6063
  914SOL     OW 2740   1.600   1.047   1.665 -0.4065  0.2660 -0.8217
  914SOL    HW1 2741   1.621   0.959   1.620 -1.3079 -0.2446  1.6581
  914SOL    HW2 2742   1.666   1.117   1.638 -0.0595 -1.6741  0.4356
  915SOL     OW 2743   2.090   0.553   1.368 -0.4640 -0.4691 -0.8817
  915SOL    HW1 2744   2.168   0.506   1.407  2.5726 -0.1943 -0.3557
  915SOL    HW2 2745   2.066   0.513   1.279  1.1016  0.7771  0.6208
  916SOL     OW 2746   2.477   2.264   1.025 -0.1305  0.8409 -0.0575
  916SOL    HW1 2747   2.426   2.346   1.047  2.7222 -1.3616  0.5209
  916SOL    HW2 2748   2.569   2.294   1.005 -3.3318 -0.2113  0.6448
  917SOL     OW 2749   1.751   2.106   2.736 -0.0684 -0.6262 -0.4785
  917SOL    HW1 2750   1.839   2.138   2.778  0.5043  0.7962 -0.8876
  917SOL    HW2 2751   1.712   2.025   2.782 -0.2498  1.9828  0.4453
  918SOL     OW 2752   1.886   2.728   2.192 -0.2804 -0.2050  0.5048
  918SOL    HW1 2753   1.922   2.823   2.187  1.4857  0.1726  0.1572
  918SOL    HW2 2754   1.784   2.725   2.200  1.9300  0.7103  0.0810
  919SOL     OW 2755   1.078   2.572   1.207  0.0173  0.5691  0.2007
  919SOL    HW1 2756   0.990   2.624   1.205  0.1570  0.9355  1.7396
  919SOL    HW2 2757   1.162   2.627   1.211 -1.3786 -1.7680 -1.7504
  920SOL     OW 2758   3.089   0.221   2.313  0.2295 -0.2745 -0.0598
  920SOL    HW1 2759   0.029   0.130   2.302 -1.0454 -2.4932 -0.4432
  920SOL    HW2 2760   3.058   0.239   2.410  0.3734 -0.8032  1.2578
  921SOL     OW 2761   2.980   0.917   1.836 -0.1614  0.2511  0.0032
  921SOL    HW1 2762   2.973   1.009   1.888  1.1398  3.7392  0.5157
  921SOL    HW2 2763   3.075   0.891   1.810 -0.6385  0.7306  2.0792
  922SOL     OW 2764   2.124   1.945   0.338 -0.1869  0.1740 -0.0039
  922SOL    HW1 2765   2.160   2.011   0.269 -0.0203 -0.4292 -0.9319
  922SOL    HW2 2766   2.202   1.890   0.375  1.1187 -2.8532  0.4786
  923SOL     OW 2767   0.717   1.940   0.341  0.1523 -0.2108 -0.1564
  923SOL    HW1 2768   0.691   1.869   0.272  0.9891 -0.4577  0.8525
  923SOL    HW2 2769   0.770   2.018   0.302  0.2886 -0.8292 -0.2040
  924SOL     OW 2770   1.081   0.631   0.027 -0.0806 -0.1227 -0.3562
  924SOL    HW1 2771   1.014   0.610   0.103  1.0221 -1.0726 -0.5265
  924SOL    HW2 2772   1.042   0.625   3.032  0.5626  0.0045 -0.8785
  925SOL     OW 2773   2.711   0.667   0.897 -0.5812 -0.2177  0.1577
  925SOL    HW1 2774   2.722   0.767   0.920 -1.3430 -0.9478 -1.7346
  925SOL    HW2 2775   2.648   0.647   0.816 -3.3067  1.7495 -1.3462
  926SOL     OW 2776   0.578   0.251   1.274  0.2285  0.0766  0.2796
  926SOL    HW1 2777   0.485   0.231   1.245  0.4537  0.8318 -0.4062
  926SOL    HW2 2778   0.590   0.207   1.368 -0.0679 -0.1861  4.2752
  927SOL     OW 2779   0.134   1.571   2.372 -0.1118 -0.1575  0.6731
  927SOL    HW1 2780   0.040   1.564   2.413 -0.8922  4.3304 -0.0392
  927SOL    HW2 2781   0.138   1.502   2.295  0.7829 -1.2669 -1.5072
  928SOL     OW 2782   3.019   0.256   2.559  0.0424 -0.4197  0.7128
  928SOL    HW1 2783   2.934   0.251   2.615  1.8322 -1.7040 -0.7418
  928SOL    HW2 2784   3.099   0.221   2.611 -0.8894 -0.0769 -2.6619
  929SOL     OW 2785   2.706   0.126   1.225  0.2170 -0.0167  0.1591
  929SOL    HW1 2786   2.649   0.044   1.222 -2.3100  0.4466  1.7710
  929SOL    HW2 2787   2.672   0.202   1.288 -1.9157  2.1295  3.6694
  930SOL     OW 2788   1.790   0.749   1.815 -0.0521  0.2199  0.2915
  930SOL    HW1 2789   1.737   0.663   1.795  0.7809 -1.8314 -0.0011
  930SOL    HW2 2790   1.752   0.785   1.902 -1.7314 -0.1551  0.0958
  931SOL     OW 2791   2.186   1.118   3.012  0.5296 -0.3974 -0.0229
  931SOL    HW1 2792   2.250   1.042   3.027 -0.0233  0.6979  1.4427
  931SOL    HW2 2793   2.164   1.125   2.915 -0.5550  0.2185 -0.2553
  932SOL     OW 2794   2.068   1.244   0.784  0.1081 -0.3751  0.2806
  932SOL    HW1 2795   2.150   1.305   0.790  2.2519 -0.8600  0.6857
  932SOL    HW2 2796   2.083   1.172   0.711  1.0843  0.2494 -1.9234
  933SOL     OW 2797   2.300   1.642   0.877 -0.3610 -0.0246  0.6164
  933SOL    HW1 2798   2.282   1.565   0.812  1.8816  0.7507  0.7239
  933SOL    HW2 2799   2.278   1.733   0.835  2.0463  0.4371  2.2338
  934SOL     OW 2800   2.181   0.595   2.354 -0.2334  0.1577 -0.5903
  934SOL    HW1 2801   2.246   0.524   2.315  1.0868 -2.5366 -0.2676
  934SOL    HW2 2802   2.084   0.571   2.332  0.1814 -2.4692 -0.2292
  935SOL     OW 2803   0.258   0.955   0.666 -0.0600 -0.0476 -0.5031
  935SOL    HW1 2804   0.270   1.013   0.585  0.9378 -1.6988 -1.6257
  935SOL    HW2 2805   0.174   0.974   0.715  0.4733 -0.8419  2.4225
  936SOL     OW 2806   0.340   0.277   0.685 -0.1171  0.0559  1.0604
  936SOL    HW1 2807   0.381   0.187   0.657 -1.9721  1.3357  1.5019
  936SOL    HW2 2808   0.388   0.308   0.769 -0.3723 -1.1454 -0.4136
  937SOL     OW 2809   3.051   3.086   1.918 -0.2273 -0.2063  0.5403
  937SOL    HW1 2810   0.005   0.002   2.002  1.2675 -2.6008 -1.5199
  937SOL    HW2 2811   0.005   0.020   1.835  1.4805  3.0331 -2.7711
  938SOL     OW 2812   0.057   2.366   0.012 -0.2647 -0.0532  0.4972
  938SOL    HW1 2813   0.069   2.385   0.115  0.2490 -0.2886 -0.7761
  938SOL    HW2 2814   0.150   2.361   3.080 -3.8096  1.5719  0.7474
  939SOL     OW 2815   0.691   1.795   0.801 -0.2851 -0.3809 -0.4390
  939SOL    HW1 2816   0.703   1.891   0.838 -2.9533  2.3834 -2.4601
  939SOL    HW2 2817   0.716   1.729   0.873  1.5691 -0.2846  1.3005
  940SOL     OW 2818   0.001   0.446   2.913  0.0639 -0.5692 -0.1096
  940SOL    HW1 2819   3.040   0.462   2.988  0.8283 -2.4987  0.1571
  940SOL    HW2 2820   0.048   0.359   2.927  0.8493 -0.7504  3.0963
  941SOL     OW 2821   1.714   0.552   2.519 -0.1823  0.3244  0.2284
  941SOL    HW1 2822   1.743   0.461   2.548  0.1671  0.5116  0.7683
  941SOL    HW2 2823   1.738   0.631   2.580 -2.9034 -1.4940 -2.6028
  942SOL     OW 2824   1.388   0.450   1.303 -0.2155 -0.2318  0.4724
  942SOL    HW1 2825   1.445   0.518   1.255 -0.0355 -1.1990 -0.5203
  942SOL    HW2 2826   1.303   0.424   1.252  0.0950  1.9336  2.7726
  943SOL     OW 2827   1.177   0.880   1.741  0.3839  0.4069  0.1424
  943SOL    HW1 2828   1.277   0.884   1.756  0.3556 -2.3600  2.5955
  943SOL    HW2 2829   1.136   0.807   1.801 -1.7476  0.5468  0.0828
  944SOL     OW 2830   1.988   0.882   1.668  0.1441 -0.4222 -0.4283
  944SOL    HW1 2831   1.912   0.839   1.715  1.9928 -1.0419  1.6257
  944SOL    HW2 2832   1.966   0.977   1.666 -0.6277 -2.6095 -1.2845
  945SOL     OW 2833   2.637   0.002   0.346 -0.4796  0.0597 -0.2986
  945SOL    HW1 2834   2.613   3.046   0.426  0.0868 -1.2809 -1.0728
  945SOL    HW2 2835   2.557   0.018   0.291  2.5054 -1.5166 -0.9212
  946SOL     OW 2836   2.827   0.779   2.001  0.2155  0.1460  0.6347
  946SOL    HW1 2837   2.881   0.748   2.080  1.1874 -0.1728 -1.7846
  946SOL    HW2 2838   2.891   0.826   1.935  0.1045 -0.1007 -2.0246
  947SOL     OW 2839   1.228   3.043   0.153 -0.0367 -0.1644 -0.2493
  947SOL    HW1 2840   1.323   3.058   0.190  0.1056 -0.0666  1.4578
  947SOL    HW2 2841   1.196   2.945   0.154  0.1095  1.7866  1.1596
  948SOL     OW 2842   2.373   1.703   1.480  0.1605 -0.3765 -0.1625
  948SOL    HW1 2843   2.452   1.768   1.519  4.7821  2.4668  3.5860
  948SOL    HW2 2844   2.405   1.606   1.488 -1.4752 -0.4275  1.0092
  949SOL     OW 2845   0.374   1.434   0.043 -0.0474 -0.1396  0.0696
  949SOL    HW1 2846   0.277   1.394   0.055  0.4561 -2.4922  0.9744
  949SOL    HW2 2847   0.443   1.360   0.015  0.9537  0.8743  0.1022
  950SOL     OW 2848   0.449   2.458   0.994 -0.0022 -0.5361 -0.4306
  950SOL    HW1 2849   0.525   2.487   0.933  2.7740  2.1104 -2.5545
  950SOL    HW2 2850   0.435   2.357   0.980 -0.2497 -3.2984 -1.6977
  951SOL     OW 2851   0.700   1.135   2.484  0.6324  0.5242 -0.2015
  951SOL    HW1 2852   0.745   1.175   2.563  1.2371 -0.6200  0.3786
  951SOL    HW2 2853   0.751   1.163   2.398  1.9998  0.2462 -3.5060
  952SOL     OW 2854   0.528   0.986   0.792 -0.0759  0.1729  0.0455
  952SOL    HW1 2855   0.566   1.078   0.758  2.2960 -2.5339  1.8805
  952SOL    HW2 2856   0.447   0.967   0.734 -1.0143  0.9727  0.4248
  953SOL     OW 2857   2.776   2.863   2.342 -0.2402 -0.0607 -0.0213
  953SOL    HW1 2858   2.696   2.888   2.403  0.3179  1.6139  0.5563
  953SOL    HW2 2859   2.844   2.938   2.348 -1.7278  0.1082  1.1114
  954SOL     OW 2860   1.570   1.416   0.433 -0.3731 -0.1336 -0.6869
  954SOL    HW1 2861   1.511   1.498   0.410 -0.8384  0.5846 -2.1967
  954SOL    HW2 2862   1.576   1.354   0.356  0.6831  1.9569  2.6784
  955SOL     OW 2863   0.882   2.096   0.190  0.9762  0.3917  0.4344
  955SOL    HW1 2864   0.938   2.146   0.259 -2.6435 -0.2425 -0.1084
  955SOL    HW2 2865   0.843   2.152   0.119  0.6415  0.9513 -0.2427
  956SOL     OW 2866   2.408   0.531   2.025  0.0792 -0.4986 -0.1092
  956SOL    HW1 2867   2.408   0.479   2.112 -3.5084 -1.1153 -1.9086
  956SOL    HW2 2868   2.361   0.623   2.029 -0.6584 -0.9218  0.2168
  957SOL     OW 2869   2.033   2.277   2.410  0.1208 -0.1612 -0.7165
  957SOL    HW1 2870   1.963   2.351   2.426 -2.6307  1.2545  3.0338
  957SOL    HW2 2871   2.110   2.291   2.475 -2.2275 -0.4018  1.3217
  958SOL     OW 2872   1.600   1.179   1.121  0.3684 -0.1274  0.1510
  958SOL    HW1 2873   1.640   1.090   1.144  0.4339  1.5620 -0.9206
  958SOL    HW2 2874   1.566   1.222   1.205 -0.0784 -0.7080 -0.7069
  959SOL     OW 2875   1.908   2.023   2.327 -1.0481  0.8059 -0.0145
  959SOL    HW1 2876   1.962   2.109   2.331 -0.1847  1.0018  2.3938
  959SOL    HW2 2877   1.825   2.035   2.383 -0.3109 -3.6691  1.1997
  960SOL     OW 2878   0.392   1.003   2.742 -0.4208  0.3328 -0.5694
  960SOL    HW1 2879   0.343   1.002   2.652  1.4975  2.7089  2.2762
  960SOL    HW2 2880   0.485   1.048   2.736 -1.6425 -0.5690  0.0099
  961SOL     OW 2881   0.223   1.079   2.976  0.1173  0.3612 -0.1624
  961SOL    HW1 2882   0.285   1.036   2.909  2.7774  1.6506  1.8268
  961SOL    HW2 2883   0.186   1.166   2.943  0.7501 -0.5510  0.7565
  962SOL     OW 2884   0.435   1.216   2.544 -0.0293 -0.8334 -0.5193
  962SOL    HW1 2885   0.367   1.143   2.522 -0.2118  0.1727 -1.1394
  962SOL    HW2 2886   0.526   1.214   2.500 -0.7754  0.8951 -0.9661
  963SOL     OW 2887   2.794   2.295   0.158  0.5363 -0.3122  0.1945
  963SOL    HW1 2888   2.813   2.398   0.171 -0.5359  0.9621  0.8135
  963SOL    HW2 2889   2.789   2.271   0.056  0.3169 -0.3879 -0.6473
  964SOL     OW 2890   1.031   2.364   1.790  0.4070  0.1139 -0.1835
  964SOL    HW1 2891   1.050   2.272   1.839 -1.2018 -1.4747  0.5314
  964SOL    HW2 2892   0.931   2.385   1.798 -2.8800  0.0993 -2.9528
  965SOL     OW 2893   1.872   1.796   0.373  0.0888 -0.0467 -0.4434
  965SOL    HW1 2894   1.797   1.848   0.324  2.0855  0.5128  4.1008
  965SOL    HW2 2895   1.961   1.848   0.351  1.1991  1.4786 -1.2028
  966SOL     OW 2896   2.951   1.486   0.395  0.2659 -0.2787  0.5305
  966SOL    HW1 2897   2.918   1.390   0.410  3.6703 -0.3766  1.4553
  966SOL    HW2 2898   3.055   1.482   0.391 -1.6775 -2.8062 -1.7182
  967SOL     OW 2899   1.912   2.807   1.811  0.1026  0.3051  0.2979
  967SOL    HW1 2900   1.813   2.806   1.813 -2.6001  0.0127 -0.3092
  967SOL    HW2 2901   1.955   2.762   1.892  1.8440 -0.5391  2.6035
  968SOL     OW 2902   1.066   0.398   0.338 -0.0084  0.0427 -0.0871
  968SOL    HW1 2903   1.096   0.310   0.381 -2.8827  0.1075  0.5524
  968SOL    HW2 2904   1.124   0.480   0.365  0.0779 -0.2604  1.3374
  969SOL     OW 2905   0.171   1.358   2.168  0.0753  0.5420 -0.7509
  969SOL    HW1 2906   0.272   1.362   2.191  4.1595  1.6706  0.4433
  969SOL    HW2 2907   0.157   1.380   2.073  1.4481 -0.4128  1.1572
  970SOL     OW 2908   2.047   2.106   1.246 -0.2977  0.0867  0.7176
  970SOL    HW1 2909   1.978   2.088   1.314  0.9973 -0.7734  1.0411
  970SOL    HW2 2910   2.013   2.124   1.150  0.4167  1.5588 -1.9611
  971SOL     OW 2911   2.628   2.643   0.892  1.0804  0.0420  0.0435
  971SOL    HW1 2912   2.671   2.558   0.928 -2.5447 -1.0582 -0.4792
  971SOL    HW2 2913   2.697   2.691   0.835 -0.5077 -0.0899  0.2659
  972SOL     OW 2914   0.025   1.176   2.645  0.1279 -0.1036  0.2335
  972SOL    HW1 2915   0.054   1.188   2.548 -0.9926 -2.4467  0.0330
  972SOL    HW2 2916   3.023   1.175   2.648  0.9739  0.3698 -1.7029
  973SOL     OW 2917   0.689   0.544   0.649 -0.6363  0.1869  0.4458
  973SOL    HW1 2918   0.636   0.599   0.716  0.7988  0.2062  0.8117
  973SOL    HW2 2919   0.717   0.453   0.677  1.6924  1.3316  0.1279
  974SOL     OW 2920   2.235   0.808   1.756  0.1771 -0.3360 -0.5200
  974SOL    HW1 2921   2.149   0.848   1.727  0.5127  1.1627  2.6657
  974SOL    HW2 2922   2.256   0.721   1.705 -0.9014 -3.5907 -0.5163
  975SOL     OW 2923   3.015   2.906   0.135 -0.0010  0.1866 -0.3251
  975SOL    HW1 2924   2.975   2.999   0.153  0.9106  0.1197  1.1809
  975SOL    HW2 2925   3.037   2.860   0.225 -0.3849 -0.3852  1.8038
  976SOL     OW 2926   0.410   1.743   1.180 -0.2345 -0.3450  0.1147
  976SOL    HW1 2927   0.410   1.645   1.213  1.2486  0.2963  0.6013
  976SOL    HW2 2928   0.391   1.742   1.080  1.0412  1.9800  1.4488
  977SOL     OW 2929   1.006   1.907   0.759 -0.6033  0.3371 -0.6826
  977SOL    HW1 2930   0.951   1.869   0.674 -0.4956 -0.0762 -0.8983
  977SOL    HW2 2931   1.048   1.826   0.804 -0.7101  0.6309  0.0851
  978SOL     OW 2932   0.406   1.024   0.080 -0.5062  0.2893 -0.1571
  978SOL    HW1 2933   0.461   0.939   0.076  3.6370  1.1834 -0.6596
  978SOL    HW2 2934   0.316   1.022   0.025  1.3410  0.2390 -1.0836
  979SOL     OW 2935   2.091   1.569   0.099  0.7799 -0.2789  0.3509
  979SOL    HW1 2936   2.118   1.497   0.029 -0.6755 -0.7171 -1.5097
  979SOL    HW2 2937   2.012   1.542   0.155  1.2136 -1.0574 -1.3011
  980SOL     OW 2938   0.535   2.118   2.116  0.2940  0.3731  0.1376
  980SOL    HW1 2939   0.634   2.138   2.089 -0.2649 -0.7114  0.3650
  980SOL    HW2 2940   0.526   2.051   2.193 -0.5259 -3.0349 -2.5162
  981SOL     OW 2941   2.633   0.970   0.264 -0.0821 -0.1169 -0.6495
  981SOL    HW1 2942   2.620   0.902   0.340  1.3215  1.6969 -1.4603
  981SOL    HW2 2943   2.541   0.976   0.218 -1.4926  0.8892  0.5995
  982SOL     OW 2944   0.124   2.590   2.034 -0.0694  0.0240  0.5057
  982SOL    HW1 2945   0.065   2.672   2.052 -0.9040  0.1449  0.0543
  982SOL    HW2 2946   0.109   2.546   1.944  0.8686  1.0742 -1.0228
  983SOL     OW 2947   1.743   0.095   1.455 -0.1930 -0.6474  0.2995
  983SOL    HW1 2948   1.736   3.096   1.430  1.6811  0.6959  0.1950
  983SOL    HW2 2949   1.719   0.157   1.377 -0.9966  1.3156 -2.3046
  984SOL     OW 2950   1.439   2.875   2.490  0.4511  0.1083  0.3787
  984SOL    HW1 2951   1.477   2.784   2.500  1.3876  1.9009  1.3699
  984SOL    HW2 2952   1.356   2.888   2.554 -1.1244 -0.3407  0.5989
  985SOL     OW 2953   1.442   1.716   1.424  0.0278  0.4431 -0.0319
  985SOL    HW1 2954   1.405   1.668   1.343  1.0629  1.4948 -0.2184
  985SOL    HW2 2955   1.398   1.671   1.506 -1.6693  1.0093 -0.2465
  986SOL     OW 2956   2.084   3.019   2.301 -0.2060 -0.0833 -0.2774
  986SOL    HW1 2957   2.091   2.981   2.205 -1.9616 -2.0839  1.2436
  986SOL    HW2 2958   2.041   0.011   2.306  0.2382  0.9334  1.1738
  987SOL     OW 2959   2.732   1.742   2.694  0.1310 -0.0265 -0.8395
  987SOL    HW1 2960   2.779   1.792   2.767  1.5489 -1.1568 -1.4237
  987SOL    HW2 2961   2.717   1.800   2.616 -1.2751  0.0141  1.3459
  988SOL     OW 2962   2.968   0.697   1.631  0.5101  0.0963 -0.1498
  988SOL    HW1 2963   2.990   0.788   1.672 -0.6525  0.5388 -1.0103
  988SOL    HW2 2964   3.013   0.694   1.540 -0.5932 -1.7742  0.1173
  989SOL     OW 2965   1.742   1.264   1.571  0.0078  0.2493  0.5658
  989SOL    HW1 2966   1.731   1.340   1.631  0.8843  1.0817  2.2345
  989SOL    HW2 2967   1.836   1.226   1.580 -2.4514  0.7878 -2.4958
  990SOL     OW 2968   2.752   0.979   3.100  0.0693 -0.1733  0.2670
  990SOL    HW1 2969   2.731   0.962   0.096  4.5276 -1.8983 -2.9887
  990SOL    HW2 2970   2.824   0.915   3.072 -1.4079  2.0023 -0.6710
  991SOL     OW 2971   0.258   2.035   2.859 -0.1229 -0.0247  0.5411
  991SOL    HW1 2972   0.179   2.066   2.915 -0.5494 -1.1767 -1.9563
  991SOL    HW2 2973   0.323   1.979   2.911 -1.1656  1.5966  0.0005
  992SOL     OW 2974   2.635   1.938   1.782 -0.3210  0.0224  0.7240
  992SOL    HW1 2975   2.537   1.932   1.815 -0.3930 -0.1967  2.5862
  992SOL    HW2 2976   2.704   1.961   1.853 -1.1521 -0.2015  0.8887
  993SOL     OW 2977   0.596   2.991   0.768  0.1937  0.0346 -0.0506
  993SOL    HW1 2978   0.532   3.005   0.848 -0.5396  0.7033 -2.3413
  993SOL    HW2 2979   0.671   3.054   0.780 -1.3582 -3.2838  1.2962
  994SOL     OW 2980   3.053   2.008   1.637 -0.4625  0.3387  0.2476
  994SOL    HW1 2981   3.069   1.979   1.731 -0.6646  0.2365 -0.6859
  994SOL    HW2 2982   3.087   1.935   1.572 -0.2453  0.0060  0.6677
  995SOL     OW 2983   2.113   1.893   2.544 -0.3274 -0.3641 -0.0182
  995SOL    HW1 2984   2.038   1.889   2.611  0.6754  1.1994  0.6413
  995SOL    HW2 2985   2.081   1.945   2.458  1.0110 -0.5629  1.1346
  996SOL     OW 2986   1.979   1.818   3.063 -0.3157 -0.0766  0.5402
  996SOL    HW1 2987   1.898   1.864   0.004  1.5093 -1.9997 -1.4680
  996SOL    HW2 2988   2.018   1.751   0.026 -2.0716  2.2369 -0.7010
  997SOL     OW 2989   1.105   1.435   1.702 -0.3933  0.6400 -0.0488
  997SOL    HW1 2990   1.109   1.436   1.801 -1.8006  1.3413 -1.0061
  997SOL    HW2 2991   1.143   1.348   1.660  1.6776 -3.3508  2.2677
  998SOL     OW 2992   2.693   2.122   0.819  0.7770 -0.1913 -0.2439
  998SOL    HW1 2993   2.655   2.042   0.766  1.3856 -3.2168 -0.0923
  998SOL    HW2 2994   2.733   2.094   0.906  0.1387 -2.7896 -1.8834
  999SOL     OW 2995   2.813   2.563   0.141 -0.4557 -0.2298 -0.0497
  999SOL    HW1 2996   2.824   2.597   0.045 -0.2883  0.3411  1.4337
  999SOL    HW2 2997   2.810   2.642   0.201 -0.0135 -1.9434  2.0586
 1000SOL     OW 2998   1.317   0.107   2.938  0.1297  0.7406 -0.2488
 1000SOL    HW1 2999   1.337   0.133   3.037 -0.4734 -0.9930  0.3826
 1000SOL    HW2 3000   1.226   0.138   2.905  2.0142  0.4975 -1.8384
   3.10138   3.10138   3.10138
