1000 SPC/Fw water molecules t= 141.00000 step= 141000
 3000
    1SOL     OW    1   2.177   2.546   1.058  0.4400 -0.3407 -0.4179
    1SOL    HW1    2   2.089   2.591   1.026  1.2293  2.5724  1.2306
    1SOL    HW2    3   2.160   2.479   1.129 -2.1589  2.8544  0.8539
    2SOL     OW    4   1.739   1.798   2.262  1.0967  1.2097  0.1456
    2SOL    HW1    5   1.787   1.891   2.246  2.2340  2.0622 -1.3179
    2SOL    HW2    6   1.694   1.797   2.357 -1.3607 -1.5130  2.4309
    3SOL     OW    7   1.777   2.560   2.191 -0.6986  0.2786 -0.0401
    3SOL    HW1    8   1.827   2.629   2.244 -1.6401 -1.4071  0.6609
    3SOL    HW2    9   1.836   2.494   2.141  0.0500  2.0940 -2.5191
    4SOL     OW   10   1.579   2.542   1.966 -0.2314 -0.8473  0.0438
    4SOL    HW1   11   1.650   2.519   2.036  2.8061 -0.9702  2.1941
    4SOL    HW2   12   1.602   2.506   1.869  1.0734 -1.3458  0.0804
    5SOL     OW   13   0.570   0.566   1.405 -0.3459  0.7004  0.1289
    5SOL    HW1   14   0.647   0.521   1.361 -0.8584  1.2202  1.8924
    5SOL    HW2   15   0.497   0.501   1.423  0.4058  1.0162 -0.3205
    6SOL     OW   16   2.529   0.942   2.983  0.1207 -0.3864  0.0086
    6SOL    HW1   17   2.494   0.874   3.052  0.3959  0.7600 -0.8143
    6SOL    HW2   18   2.526   0.908   2.887 -1.8871  1.5787  2.6726
    7SOL     OW   19   0.713   0.398   1.246  0.1739 -0.3786 -0.2629
    7SOL    HW1   20   0.696   0.311   1.299  0.2256 -0.7233 -0.0550
    7SOL    HW2   21   0.675   0.396   1.156 -0.3283 -0.2065  3.5439
    8SOL     OW   22   1.042   2.675   1.595  0.6276 -0.5005 -0.0196
    8SOL    HW1   23   0.971   2.679   1.522 -2.3609 -2.7329 -1.5508
    8SOL    HW2   24   1.038   2.587   1.645 -0.2573 -0.7008 -1.9843
    9SOL     OW   25   0.728   0.726   0.378  0.1733  0.4946  0.2182
    9SOL    HW1   26   0.631   0.712   0.409 -1.6558 -3.9792 -0.8557
    9SOL    HW2   27   0.758   0.819   0.409  0.6260 -0.9573  0.3065
   10SOL     OW   28   0.736   2.333   2.693  0.3616 -0.1539 -0.1933
   10SOL    HW1   29   0.639   2.367   2.684  0.7839 -2.1605 -0.2472
   10SOL    HW2   30   0.800   2.407   2.665 -0.1418 -1.7433 -0.6369
   11SOL     OW   31   0.177   1.727   0.081 -0.2584  0.0456 -0.3980
   11SOL    HW1   32   0.096   1.764   0.127 -2.3337 -0.7141 -1.7848
   11SOL    HW2   33   0.160   1.703   3.085  1.1704  0.5104  2.7298
   12SOL     OW   34   0.503   3.078   1.419 -0.2112 -0.1288 -0.4149
   12SOL    HW1   35   0.437   3.094   1.495  1.9704 -0.5120  0.0522
   12SOL    HW2   36   0.467   3.065   1.323  0.0743  0.8324 -1.0490
   13SOL     OW   37   0.950   2.563   0.325  0.4724  0.0121  0.2558
   13SOL    HW1   38   1.027   2.520   0.273 -1.1966  0.7490 -0.1587
   13SOL    HW2   39   0.861   2.543   0.284  3.4633  1.8732 -0.2102
   14SOL     OW   40   1.417   1.872   1.146 -0.0383  0.0820 -0.0053
   14SOL    HW1   41   1.505   1.863   1.095 -1.4086 -0.1009  0.5515
   14SOL    HW2   42   1.382   1.968   1.151 -0.9601  2.3159 -0.0344
   15SOL     OW   43   2.622   0.809   2.422 -0.1416  0.5395  0.5300
   15SOL    HW1   44   2.712   0.782   2.467  2.0937 -1.0455  0.7297
   15SOL    HW2   45   2.551   0.849   2.482  0.6557  1.9532 -0.1674
   16SOL     OW   46   1.583   2.909   0.002 -0.2057  0.2414 -0.1687
   16SOL    HW1   47   1.554   2.899   3.006  0.1636 -2.6865 -0.8622
   16SOL    HW2   48   1.683   2.932   0.001  2.4978 -1.5207  1.0904
   17SOL     OW   49   0.678   2.298   2.012  0.0180  0.4589 -0.2784
   17SOL    HW1   50   0.713   2.267   2.100 -0.0325 -0.0530  1.0007
   17SOL    HW2   51   0.622   2.381   2.023 -1.1815  2.4554  0.3645
   18SOL     OW   52   1.505   1.059   0.465 -0.1155  0.2879  0.0511
   18SOL    HW1   53   1.460   1.116   0.392 -1.1760  4.3922  1.0303
   18SOL    HW2   54   1.463   0.967   0.479 -1.3265 -1.0083  0.2644
   19SOL     OW   55   2.464   2.338   2.767 -0.1162 -0.8605 -0.2040
   19SOL    HW1   56   2.387   2.292   2.814  1.2264  0.6277  0.4036
   19SOL    HW2   57   2.517   2.266   2.719  2.0413  1.6664  4.0007
   20SOL     OW   58   2.068   1.979   2.421  0.5153 -0.0911 -0.7065
   20SOL    HW1   59   2.097   1.883   2.441  3.3636 -0.4528  0.5855
   20SOL    HW2   60   2.077   2.035   2.504 -1.3681  0.3328 -2.1434
   21SOL     OW   61   0.431   2.102   3.038 -0.0838 -0.1368 -0.1882
   21SOL    HW1   62   0.403   2.154   0.016 -0.2310  0.9424  1.4481
   21SOL    HW2   63   0.400   2.007   3.052  2.4020  2.7111  0.1824
   22SOL     OW   64   2.110   0.017   1.563  0.4031 -0.1012 -0.3804
   22SOL    HW1   65   2.043   0.021   1.640  0.3531 -0.5247  1.8222
   22SOL    HW2   66   2.173   0.101   1.554  1.5424  0.0605 -0.9702
   23SOL     OW   67   0.257   1.223   1.483  0.0405  0.0939 -0.2011
   23SOL    HW1   68   0.240   1.241   1.579 -0.8743 -0.5853  0.6701
   23SOL    HW2   69   0.289   1.124   1.473  0.2348 -2.2332 -1.8399
   24SOL     OW   70   2.377   1.984   1.698 -0.5146 -0.0132 -0.0994
   24SOL    HW1   71   2.441   1.994   1.620 -1.6079 -2.8655 -0.8818
   24SOL    HW2   72   2.333   2.072   1.718  0.6734 -2.7888  0.7432
   25SOL     OW   73   2.016   3.035   2.874 -0.9813  0.0796 -0.1854
   25SOL    HW1   74   2.073   0.014   2.839  2.1341  4.4793  1.7344
   25SOL    HW2   75   2.039   2.953   2.821 -0.4239  2.0397 -0.1407
   26SOL     OW   76   1.163   3.038   0.935 -0.4813 -0.6285 -0.2670
   26SOL    HW1   77   1.241   2.975   0.960  1.5843 -0.1510  0.2682
   26SOL    HW2   78   1.179   3.101   0.860 -2.9781  0.2599  1.7002
   27SOL     OW   79   1.150   2.027   2.891  0.6837 -0.1914 -0.2654
   27SOL    HW1   80   1.152   2.016   2.993 -0.2828  0.4704 -2.3692
   27SOL    HW2   81   1.057   2.006   2.851 -0.8311  0.7582 -0.5271
   28SOL     OW   82   3.098   1.640   1.271  0.5608  0.7570  0.1143
   28SOL    HW1   83   0.095   1.645   1.255 -1.5620 -0.1668 -0.5355
   28SOL    HW2   84   3.056   1.728   1.277  2.1748 -1.7000  0.5270
   29SOL     OW   85   2.286   2.292   2.128  0.0184 -0.2292  0.5489
   29SOL    HW1   86   2.367   2.353   2.127 -1.1237  1.4447 -0.0791
   29SOL    HW2   87   2.310   2.221   2.193  0.7716  1.1759 -0.8437
   30SOL     OW   88   1.056   2.786   1.195  1.2958 -0.1466 -0.3034
   30SOL    HW1   89   1.096   2.866   1.243  0.0906  2.2788  1.6044
   30SOL    HW2   90   1.038   2.793   1.093  1.2363 -1.4673 -2.2469
   31SOL     OW   91   0.032   2.075   2.056 -0.1007 -0.2432 -0.1631
   31SOL    HW1   92   3.080   1.999   2.017 -0.1254 -2.6147 -1.3638
   31SOL    HW2   93   0.117   2.040   2.100 -0.6069 -1.0705  2.1107
   32SOL     OW   94   1.155   1.027   2.086 -0.2727  0.1417 -0.5393
   32SOL    HW1   95   1.122   1.114   2.044 -0.8686  1.2051  4.0808
   32SOL    HW2   96   1.168   1.044   2.188  0.1925 -2.0851  2.5580
   33SOL     OW   97   0.532   2.854   2.531 -0.2538  0.1154 -0.2603
   33SOL    HW1   98   0.456   2.920   2.539 -0.5190  0.3889  1.4198
   33SOL    HW2   99   0.598   2.863   2.608  2.0049  2.1457  2.9506
   34SOL     OW  100   1.592   2.950   1.497 -0.2121 -0.5999  0.3226
   34SOL    HW1  101   1.534   2.937   1.415  1.5594  0.0277  1.5486
   34SOL    HW2  102   1.656   2.874   1.509  0.2288 -1.1361 -0.6221
   35SOL     OW  103   2.042   0.588   0.978  0.0411 -0.5394 -0.1670
   35SOL    HW1  104   2.054   0.505   0.916  1.8696  1.6555 -1.8064
   35SOL    HW2  105   1.941   0.618   0.985  2.0882 -0.2066 -0.4361
   36SOL     OW  106   2.048   2.982   2.438  0.6640 -0.6534 -0.2595
   36SOL    HW1  107   2.139   2.962   2.396  1.8489  0.0973 -0.3890
   36SOL    HW2  108   1.970   2.966   2.373 -3.4747 -1.0025  0.6943
   37SOL     OW  109   1.388   2.512   2.467 -0.0833 -0.4726  0.0032
   37SOL    HW1  110   1.297   2.523   2.512 -0.1883 -0.1158  2.9978
   37SOL    HW2  111   1.392   2.422   2.417 -0.8162  0.1281 -0.8169
   38SOL     OW  112   2.431   0.660   2.876 -0.2389 -0.3099 -0.1265
   38SOL    HW1  113   2.340   0.678   2.922 -1.3921 -1.3405 -2.7943
   38SOL    HW2  114   2.502   0.639   2.946 -1.4707  0.5588 -1.5004
   39SOL     OW  115   1.843   2.324   2.446  0.1509 -0.0358 -0.8306
   39SOL    HW1  116   1.832   2.384   2.528 -1.6412  0.6757  2.5169
   39SOL    HW2  117   1.923   2.353   2.392 -1.8661  0.0682  1.1963
   40SOL     OW  118   0.272   0.067   3.056 -0.0132 -0.2297  0.4201
   40SOL    HW1  119   0.339   0.007   3.007 -0.0587 -0.5295 -0.3528
   40SOL    HW2  120   0.213   0.005   0.011 -0.3592 -3.0097 -0.9646
   41SOL     OW  121   1.464   0.940   1.586  0.8422  0.1906 -0.2579
   41SOL    HW1  122   1.478   1.012   1.513  0.3247 -0.3379 -2.3224
   41SOL    HW2  123   1.382   0.881   1.562 -2.0103 -0.8883  0.5646
   42SOL     OW  124   0.391   0.251   1.663  0.2117  0.0373  0.3644
   42SOL    HW1  125   0.344   0.165   1.644  2.0186  2.3004 -1.5504
   42SOL    HW2  126   0.489   0.241   1.684 -0.9468 -2.2545 -0.2269
   43SOL     OW  127   1.695   1.198   1.968  0.3107 -0.0231  0.1199
   43SOL    HW1  128   1.630   1.240   2.035 -0.5140 -0.0032  1.6486
   43SOL    HW2  129   1.654   1.125   1.912 -0.2620  0.7293 -1.6471
   44SOL     OW  130   0.044   2.679   2.644  0.3372  0.5214 -0.9674
   44SOL    HW1  131   0.107   2.717   2.718  0.4639  3.1238 -0.7681
   44SOL    HW2  132   0.080   2.691   2.553 -1.6627  0.3061  2.7670
   45SOL     OW  133   0.496   2.505   1.182 -0.3148  0.1854  0.0119
   45SOL    HW1  134   0.443   2.579   1.131  0.7899  1.6247  1.7206
   45SOL    HW2  135   0.594   2.524   1.171 -2.0923 -0.1469 -0.5868
   46SOL     OW  136   2.278   2.227   1.787  0.6729 -0.2473  0.0255
   46SOL    HW1  137   2.191   2.201   1.837 -0.2337  0.3495  0.6676
   46SOL    HW2  138   2.340   2.280   1.850 -0.1678 -0.3706  1.2876
   47SOL     OW  139   1.832   1.894   1.669 -0.1929  0.8276 -0.3275
   47SOL    HW1  140   1.775   1.895   1.754  1.6368 -0.1626  3.5760
   47SOL    HW2  141   1.862   1.794   1.643 -1.4736 -0.5461  1.1116
   48SOL     OW  142   0.361   1.902   0.491 -0.8629 -0.1055 -0.0006
   48SOL    HW1  143   0.391   1.861   0.580  0.5158  0.0019  0.4369
   48SOL    HW2  144   0.313   1.989   0.514  1.0513 -2.3638 -1.3339
   49SOL     OW  145   3.002   0.800   2.253  0.1025 -0.4005 -0.6846
   49SOL    HW1  146   3.004   0.808   2.353 -0.3967 -1.4388 -2.8491
   49SOL    HW2  147   2.965   0.888   2.217 -0.7181  0.4198 -0.0194
   50SOL     OW  148   2.306   0.721   0.887 -0.2630 -0.2589 -0.3443
   50SOL    HW1  149   2.222   0.707   0.946  1.2206  2.1838  0.4103
   50SOL    HW2  150   2.387   0.742   0.944  0.5939  0.6660  0.2565
   51SOL     OW  151   1.228   0.447   0.823  0.0874  0.2270  0.5780
   51SOL    HW1  152   1.161   0.439   0.898  0.6866  2.2270 -2.4762
   51SOL    HW2  153   1.318   0.495   0.849  3.0360 -1.6204  1.0358
   52SOL     OW  154   1.257   1.079   0.292 -0.4953 -0.2292  0.3073
   52SOL    HW1  155   1.213   1.069   0.206  0.2647 -2.3003  1.7674
   52SOL    HW2  156   1.210   1.024   0.366  1.1163 -0.0893  1.1879
   53SOL     OW  157   1.155   2.221   2.625 -0.1365  0.2391  0.2788
   53SOL    HW1  158   1.182   2.122   2.644 -0.2396  0.7829  1.3739
   53SOL    HW2  159   1.142   2.268   2.712 -0.9773 -1.8884 -0.7295
   54SOL     OW  160   1.662   0.983   1.768  0.0723 -0.3037  0.7318
   54SOL    HW1  161   1.678   0.883   1.795 -0.4216 -0.6121  2.5318
   54SOL    HW2  162   1.570   0.993   1.722 -0.6495  1.2746 -1.0522
   55SOL     OW  163   1.927   2.933   0.518  0.6184 -0.0154  0.3399
   55SOL    HW1  164   1.836   2.896   0.556 -0.7182 -1.8127 -2.2564
   55SOL    HW2  165   1.995   2.861   0.544 -1.2935  0.8639  1.0972
   56SOL     OW  166   0.804   2.660   1.384 -0.2998  0.3187  0.6513
   56SOL    HW1  167   0.855   2.674   1.294  1.1793  1.2115 -0.9868
   56SOL    HW2  168   0.777   2.750   1.429 -0.4934 -0.2412 -0.3730
   57SOL     OW  169   1.880   1.008   0.197  0.0940 -0.1962 -0.3914
   57SOL    HW1  170   1.975   0.978   0.162  2.3463 -0.6605 -2.7915
   57SOL    HW2  171   1.819   1.035   0.117 -1.4114 -0.4285 -0.1315
   58SOL     OW  172   2.983   1.318   2.106  0.7314 -0.5698  0.0935
   58SOL    HW1  173   2.899   1.368   2.111  4.0629 -1.5964 -1.8482
   58SOL    HW2  174   3.064   1.373   2.084 -2.5801 -1.4268  1.6390
   59SOL     OW  175   0.825   2.468   2.378 -0.0996 -0.0186  0.3521
   59SOL    HW1  176   0.752   2.497   2.310  0.1585 -0.9865 -2.0079
   59SOL    HW2  177   0.826   2.538   2.456 -0.5106  0.1408  2.6477
   60SOL     OW  178   2.449   2.672   1.014  0.0170  1.0427  0.2462
   60SOL    HW1  179   2.378   2.595   1.016  0.6951 -1.8720 -0.2579
   60SOL    HW2  180   2.478   2.689   0.920 -3.4195 -2.8528 -0.6368
   61SOL     OW  181   1.295   1.995   0.297 -0.0295 -0.3365 -0.2168
   61SOL    HW1  182   1.199   1.955   0.292 -2.4365 -0.1326 -4.0597
   61SOL    HW2  183   1.294   2.075   0.359  0.8840  0.9713  1.9949
   62SOL     OW  184   2.358   2.923   3.063 -0.5386  0.3398  0.6938
   62SOL    HW1  185   2.365   2.836   3.007 -1.5569 -1.5049 -1.0886
   62SOL    HW2  186   2.266   2.959   3.065  2.1130 -2.1590 -0.5686
   63SOL     OW  187   2.014   0.248   3.072 -0.7764  0.6842  0.1549
   63SOL    HW1  188   2.103   0.195   3.062  0.9537 -0.1721 -1.5125
   63SOL    HW2  189   2.028   0.327   0.032 -1.3927  2.5110 -0.7516
   64SOL     OW  190   0.852   1.092   2.490  0.1770 -0.9004  0.8666
   64SOL    HW1  191   0.803   1.141   2.568 -0.5334  3.3324  0.7055
   64SOL    HW2  192   0.841   0.990   2.498 -1.7176  0.4081  1.0637
   65SOL     OW  193   1.274   2.494   0.382  0.0895 -0.6431  0.1384
   65SOL    HW1  194   1.370   2.469   0.349  2.1812 -0.1129 -0.2939
   65SOL    HW2  195   1.274   2.563   0.459  0.0968 -0.7564  2.1235
   66SOL     OW  196   0.591   1.590   1.485  0.0581  0.7406 -0.1035
   66SOL    HW1  197   0.589   1.669   1.548 -1.5783 -0.2124  1.2953
   66SOL    HW2  198   0.492   1.555   1.467 -0.4123  1.5151 -2.1587
   67SOL     OW  199   2.639   2.986   2.056  0.3839  0.1677 -0.8019
   67SOL    HW1  200   2.667   3.082   2.064  0.7650  0.0876  0.9588
   67SOL    HW2  201   2.639   2.944   2.147  1.1322  3.0480  2.2152
   68SOL     OW  202   0.833   0.762   1.358  0.1319  0.0093  0.1895
   68SOL    HW1  203   0.855   0.668   1.390 -0.9685 -0.5361 -0.3756
   68SOL    HW2  204   0.812   0.821   1.438  1.6465 -0.8043 -1.9295
   69SOL     OW  205   1.895   3.009   0.252 -0.7296 -0.7783 -0.4999
   69SOL    HW1  206   1.878   0.009   0.260 -1.1797 -3.4988  0.8194
   69SOL    HW2  207   1.907   2.962   0.341  2.4022 -1.5567 -1.8655
   70SOL     OW  208   2.911   0.943   2.476  0.1822 -0.1510 -0.1450
   70SOL    HW1  209   2.843   1.008   2.430  0.7116 -1.2039 -1.6305
   70SOL    HW2  210   2.999   0.990   2.483 -4.4905 -1.1861  1.0914
   71SOL     OW  211   2.928   1.605   3.086  0.2102  0.4557  0.3860
   71SOL    HW1  212   2.837   1.574   3.041 -2.3509 -1.5555 -1.3305
   71SOL    HW2  213   2.990   1.647   3.015 -1.1023 -0.9965 -1.9698
   72SOL     OW  214   3.050   1.619   0.330 -0.4015  0.3095  0.5898
   72SOL    HW1  215   3.046   1.518   0.344 -0.3801 -0.3501  0.8651
   72SOL    HW2  216   3.093   1.672   0.407  1.1710  1.6036  1.4471
   73SOL     OW  217   1.115   1.270   0.576  0.0753 -0.4469  0.4949
   73SOL    HW1  218   1.124   1.166   0.595  2.0723 -0.5469 -0.2397
   73SOL    HW2  219   1.186   1.327   0.619 -0.7224 -0.7482 -1.9404
   74SOL     OW  220   0.247   1.748   2.055 -0.9588 -0.0674 -0.2288
   74SOL    HW1  221   0.254   1.844   2.033  0.3724 -3.2912  1.9477
   74SOL    HW2  222   0.271   1.681   1.980 -0.0995 -1.1181 -0.4742
   75SOL     OW  223   1.689   1.477   1.651 -0.3957 -0.1295  0.7028
   75SOL    HW1  224   1.617   1.524   1.708  3.1843  2.1556  1.5500
   75SOL    HW2  225   1.686   1.377   1.659  1.4619 -0.6400  1.1234
   76SOL     OW  226   2.109   2.651   1.430  0.4130  0.0499 -0.0366
   76SOL    HW1  227   2.197   2.622   1.469  0.1932  0.4023  2.4874
   76SOL    HW2  228   2.132   2.730   1.369 -3.3363  0.5446 -2.5748
   77SOL     OW  229   2.567   1.417   1.459  1.1115 -0.0505 -0.4959
   77SOL    HW1  230   2.590   1.406   1.558  0.3376  1.9767 -2.7665
   77SOL    HW2  231   2.610   1.338   1.411  0.0379 -0.4640  0.7313
   78SOL     OW  232   1.503   0.738   0.634  0.0774  0.6580  0.6391
   78SOL    HW1  233   1.425   0.757   0.562 -0.5456 -1.4002  0.2950
   78SOL    HW2  234   1.474   0.676   0.710 -1.7038  2.9362  0.1486
   79SOL     OW  235   2.290   1.505   1.416 -0.3237  0.1101  0.3455
   79SOL    HW1  236   2.256   1.495   1.321  1.8132  0.0461  2.3283
   79SOL    HW2  237   2.392   1.494   1.426  1.3208  1.6196 -1.3067
   80SOL     OW  238   0.916   0.500   1.421  0.4214  1.2396  0.3436
   80SOL    HW1  239   0.854   0.455   1.352 -1.3631 -0.5566 -1.1897
   80SOL    HW2  240   1.002   0.449   1.422  0.6217  2.2746 -0.2838
   81SOL     OW  241   0.732   2.897   0.879 -0.4114  0.2211 -0.5663
   81SOL    HW1  242   0.721   2.956   0.793 -2.6661  2.9541 -1.6364
   81SOL    HW2  243   0.833   2.886   0.897 -2.0794  2.5923 -1.2401
   82SOL     OW  244   1.482   3.039   1.715  0.1167 -0.5544 -0.0107
   82SOL    HW1  245   1.443   2.956   1.762  0.0567  1.5968 -0.4903
   82SOL    HW2  246   1.506   3.009   1.620  1.4298  2.4965 -2.7925
   83SOL     OW  247   1.258   1.958   0.624 -0.7710 -0.4662 -0.2839
   83SOL    HW1  248   1.253   2.013   0.708  0.5127 -0.2444  0.0690
   83SOL    HW2  249   1.316   2.005   0.554  0.5101 -2.6782  0.3012
   84SOL     OW  250   0.175   1.563   2.910  0.5196  0.1953 -0.1560
   84SOL    HW1  251   0.085   1.582   2.868 -3.7915 -1.8365 -0.1998
   84SOL    HW2  252   0.229   1.496   2.851  3.4620 -4.5146  2.1220
   85SOL     OW  253   0.384   2.296   1.055  0.0665  0.2409 -0.8015
   85SOL    HW1  254   0.289   2.341   1.060 -0.0667 -2.0597 -0.4267
   85SOL    HW2  255   0.452   2.358   1.093 -2.1369  0.5681 -0.9631
   86SOL     OW  256   2.355   2.527   1.467  0.1163 -0.0740  0.5015
   86SOL    HW1  257   2.440   2.546   1.522  1.0437  2.6972  0.8340
   86SOL    HW2  258   2.294   2.468   1.519 -0.2358  1.8924 -1.1074
   87SOL     OW  259   0.107   2.065   0.893 -0.3496 -0.3938 -0.6316
   87SOL    HW1  260   0.126   2.024   0.983 -1.0035 -1.2030 -1.2697
   87SOL    HW2  261   0.200   2.089   0.852  0.6242  2.5763 -0.4935
   88SOL     OW  262   1.001   1.093   1.141  0.2400 -0.0684  0.1011
   88SOL    HW1  263   0.959   1.167   1.088  0.3918 -1.9036  1.4687
   88SOL    HW2  264   0.956   1.007   1.116 -0.6656  1.8628 -0.3841
   89SOL     OW  265   0.961   2.995   2.224 -0.1489  0.5987  0.5944
   89SOL    HW1  266   0.939   3.015   2.323  1.0612 -3.6453  2.1916
   89SOL    HW2  267   0.880   2.962   2.174 -0.1205  1.5069  1.8869
   90SOL     OW  268   3.089   1.958   1.417  0.3641 -0.1490  0.6102
   90SOL    HW1  269   0.015   1.965   1.318  2.4110 -0.9049 -2.2661
   90SOL    HW2  270   0.051   2.006   1.479 -0.6411  2.2545  0.5685
   91SOL     OW  271   1.339   1.938   1.694 -0.4054 -0.2486  0.6206
   91SOL    HW1  272   1.377   1.880   1.764  0.1878  3.0946 -0.8561
   91SOL    HW2  273   1.412   1.963   1.627 -0.6334 -1.4627 -0.7879
   92SOL     OW  274   2.532   2.881   1.467 -0.1162  0.2039 -0.0675
   92SOL    HW1  275   2.535   2.796   1.520  2.0450  1.1273 -1.9709
   92SOL    HW2  276   2.517   2.957   1.538  1.4524  0.2335  1.1273
   93SOL     OW  277   2.779   1.237   2.775 -0.2046 -0.0621 -0.3345
   93SOL    HW1  278   2.783   1.142   2.734 -1.9714 -2.3292 -0.5655
   93SOL    HW2  279   2.730   1.247   2.861  2.0515 -0.4884  0.9769
   94SOL     OW  280   2.744   2.628   1.915 -1.1988  0.2873  0.1144
   94SOL    HW1  281   2.784   2.698   1.972 -0.9121  2.7968 -3.8548
   94SOL    HW2  282   2.669   2.664   1.857  0.4783 -0.0704 -2.3416
   95SOL     OW  283   1.314   0.530   2.111  0.2158  0.9019  0.5268
   95SOL    HW1  284   1.356   0.466   2.176  1.3922  3.2570  0.4593
   95SOL    HW2  285   1.364   0.618   2.115 -1.3672 -1.5070 -2.8482
   96SOL     OW  286   2.562   0.828   1.463  0.0545  0.3328 -0.2732
   96SOL    HW1  287   2.630   0.760   1.426 -1.8183  1.1750  0.8259
   96SOL    HW2  288   2.482   0.798   1.514  1.1834  0.9499 -1.0005
   97SOL     OW  289   1.932   0.646   1.713 -0.7221 -0.4069  0.3742
   97SOL    HW1  290   1.832   0.663   1.724 -2.1803 -0.9308 -2.6309
   97SOL    HW2  291   1.957   0.558   1.665  0.5347 -0.6925 -2.8056
   98SOL     OW  292   1.801   2.877   1.290 -0.0823  0.2324  0.1819
   98SOL    HW1  293   1.822   2.972   1.278  1.3602 -1.8971 -0.0264
   98SOL    HW2  294   1.877   2.828   1.330  1.0306  1.7629  1.0313
   99SOL     OW  295   2.687   0.168   2.027  0.0324  0.6390 -0.1988
   99SOL    HW1  296   2.754   0.211   2.087 -3.7633  0.7593 -2.2359
   99SOL    HW2  297   2.611   0.230   2.013  1.6780 -0.2422  1.1525
  100SOL     OW  298   2.663   1.614   1.828 -0.0914 -0.3381 -0.1310
  100SOL    HW1  299   2.723   1.572   1.896 -1.7228 -0.9909  0.0698
  100SOL    HW2  300   2.607   1.544   1.776 -0.9206 -1.5970 -1.8751
  101SOL     OW  301   1.561   0.248   0.753  0.5950 -0.2166 -0.0549
  101SOL    HW1  302   1.499   0.188   0.807 -4.1309 -0.6526  0.2042
  101SOL    HW2  303   1.615   0.304   0.818  2.4233  0.2376 -0.0730
  102SOL     OW  304   0.468   0.989   1.159  0.0075  0.5819 -0.2371
  102SOL    HW1  305   0.396   1.039   1.102 -0.4748  0.6192 -2.9143
  102SOL    HW2  306   0.532   1.053   1.207 -1.3283 -0.4304 -1.2343
  103SOL     OW  307   2.916   0.442   0.095  0.8377 -0.0591  0.0070
  103SOL    HW1  308   2.960   0.393   0.168 -1.8333  1.9289 -4.6368
  103SOL    HW2  309   2.927   0.545   0.099  0.3037  1.0660  2.1332
  104SOL     OW  310   2.757   0.185   1.731  0.2199 -0.1679  0.3879
  104SOL    HW1  311   2.857   0.182   1.714  2.3693  1.2020 -0.1182
  104SOL    HW2  312   2.735   0.186   1.833 -2.3223  2.3983  2.3489
  105SOL     OW  313   1.914   0.748   2.192 -0.0020  0.2462 -0.0684
  105SOL    HW1  314   1.903   0.720   2.289  2.1409  1.3724  1.3323
  105SOL    HW2  315   1.882   0.844   2.177 -2.3308 -2.6164 -0.0685
  106SOL     OW  316   1.737   0.084   1.061 -0.0095 -0.0575 -0.4362
  106SOL    HW1  317   1.819   0.045   1.012  0.7772  1.5056  0.5224
  106SOL    HW2  318   1.650   0.052   1.023  1.6218 -1.4579  2.4248
  107SOL     OW  319   0.699   1.157   0.823  0.4044  0.0172 -0.0854
  107SOL    HW1  320   0.773   1.166   0.758 -1.8116  0.2051  2.0249
  107SOL    HW2  321   0.609   1.180   0.784  1.9261  0.6448 -1.0443
  108SOL     OW  322   2.950   0.241   2.111 -0.1293  0.2194  0.5246
  108SOL    HW1  323   2.992   0.307   2.044 -1.2031  2.7267 -0.4923
  108SOL    HW2  324   3.000   0.157   2.108 -0.8510  2.1650  0.9618
  109SOL     OW  325   2.023   0.745   0.046  0.1744 -0.0622 -0.0555
  109SOL    HW1  326   1.923   0.769   0.031 -1.6760 -0.8427  1.1169
  109SOL    HW2  327   2.064   0.789   0.127 -0.5676 -1.7058 -1.2075
  110SOL     OW  328   0.204   2.174   2.641  0.0579  0.4255 -0.5656
  110SOL    HW1  329   0.159   2.261   2.604 -1.5963  1.4658 -0.4363
  110SOL    HW2  330   0.145   2.094   2.624 -1.3991  0.6614 -3.4947
  111SOL     OW  331   2.207   3.045   2.101 -0.2911 -0.2560 -0.1430
  111SOL    HW1  332   2.264   0.014   2.061 -1.6242 -0.4451 -0.7293
  111SOL    HW2  333   2.138   3.012   2.031  0.7545 -0.2820  0.4679
  112SOL     OW  334   2.303   2.976   0.449  1.4559 -0.4007  0.0887
  112SOL    HW1  335   2.254   2.988   0.360  2.4727 -0.7123  0.5356
  112SOL    HW2  336   2.319   2.877   0.462  0.3212  1.2181 -0.7097
  113SOL     OW  337   2.584   1.971   1.511 -0.6119  0.7061 -0.6501
  113SOL    HW1  338   2.685   1.959   1.510 -2.3987  1.9731 -0.5085
  113SOL    HW2  339   2.551   1.917   1.429 -0.7926 -2.3256 -1.4605
  114SOL     OW  340   2.777   1.017   0.871 -0.2853 -0.3521 -0.0341
  114SOL    HW1  341   2.681   1.007   0.834 -0.1293 -0.9534  1.7765
  114SOL    HW2  342   2.828   0.927   0.881  0.3365  2.3735 -1.3449
  115SOL     OW  343   2.981   1.828   0.162 -0.0649 -0.2155 -1.0065
  115SOL    HW1  344   3.008   1.784   0.247  0.6791  0.3055  0.0224
  115SOL    HW2  345   2.948   1.760   0.092 -2.4299 -1.8878  0.0259
  116SOL     OW  346   0.002   1.635   1.862  0.1604  0.6008  0.4994
  116SOL    HW1  347   3.033   1.558   1.860  1.5357  1.2521  0.5022
  116SOL    HW2  348   0.067   1.619   1.938 -3.6880 -0.5024  0.9805
  117SOL     OW  349   2.476   3.072   0.633 -0.2570  0.0364 -0.2586
  117SOL    HW1  350   2.421   0.044   0.676 -2.5049 -0.0808 -3.7553
  117SOL    HW2  351   2.423   3.053   0.546 -0.9828  0.6603  1.3339
  118SOL     OW  352   0.450   2.268   1.510  0.1717 -0.6907  0.0482
  118SOL    HW1  353   0.550   2.265   1.495 -1.3336  2.9342  3.0162
  118SOL    HW2  354   0.420   2.362   1.477 -1.2856  1.1161  3.6249
  119SOL     OW  355   1.749   2.227   1.145 -0.6767 -0.0099 -0.1360
  119SOL    HW1  356   1.840   2.191   1.125 -2.7284  1.4467 -3.3857
  119SOL    HW2  357   1.716   2.205   1.240 -4.4660 -0.3088  1.2877
  120SOL     OW  358   0.212   1.596   2.264 -0.1265  0.4298  0.2202
  120SOL    HW1  359   0.283   1.580   2.335 -3.3979  0.1499 -1.2143
  120SOL    HW2  360   0.233   1.685   2.218 -1.2477 -1.2863  0.5757
  121SOL     OW  361   2.865   1.829   1.166 -0.3972  0.4100  0.0046
  121SOL    HW1  362   2.871   1.771   1.079 -0.2217 -0.6905 -2.0136
  121SOL    HW2  363   2.809   1.780   1.238 -1.7601 -2.2713  2.5737
  122SOL     OW  364   2.115   1.478   2.442 -0.2032  0.0632 -0.0716
  122SOL    HW1  365   2.068   1.503   2.352 -0.8807 -2.1586  1.2952
  122SOL    HW2  366   2.181   1.401   2.434  0.7395 -3.9542 -2.3316
  123SOL     OW  367   3.082   3.088   0.752  0.6093 -0.0695 -0.3835
  123SOL    HW1  368   2.982   3.075   0.780 -2.7104 -0.0392  0.5333
  123SOL    HW2  369   0.019   3.009   0.701 -0.4168 -2.3290 -2.3825
  124SOL     OW  370   1.570   1.093   2.690 -0.2315  0.1067  0.3506
  124SOL    HW1  371   1.668   1.105   2.679 -4.3879 -0.0900  0.1474
  124SOL    HW2  372   1.536   0.999   2.715 -1.4239  1.0610  0.5611
  125SOL     OW  373   0.363   1.489   2.676 -0.0315 -0.5127 -0.5682
  125SOL    HW1  374   0.408   1.547   2.750 -0.2502  1.1141  2.2361
  125SOL    HW2  375   0.358   1.390   2.705 -0.7796  2.6746  0.5222
  126SOL     OW  376   2.811   2.061   0.203 -0.0051 -0.3197  0.3922
  126SOL    HW1  377   2.852   2.120   0.274 -0.3497 -3.9799  2.4853
  126SOL    HW2  378   2.854   1.969   0.208  1.3322 -1.4206 -1.1115
  127SOL     OW  379   0.791   1.634   0.826  0.3412 -0.3415 -0.0391
  127SOL    HW1  380   0.891   1.613   0.816 -0.9378 -0.4689 -0.8465
  127SOL    HW2  381   0.735   1.579   0.760 -0.4082 -0.9260  2.9943
  128SOL     OW  382   1.347   0.554   0.375 -1.0430 -0.1984  0.2740
  128SOL    HW1  383   1.407   0.603   0.309 -1.7547  1.3228 -0.0775
  128SOL    HW2  384   1.393   0.471   0.410 -2.5973 -0.2859  0.8842
  129SOL     OW  385   2.287   1.757   1.082  0.2073 -0.1001 -0.1858
  129SOL    HW1  386   2.225   1.684   1.039 -0.7826 -1.4028 -0.2267
  129SOL    HW2  387   2.372   1.767   1.034 -1.8565 -0.3998  2.3031
  130SOL     OW  388   1.915   1.531   0.856 -0.2060  0.2739  0.0971
  130SOL    HW1  389   1.845   1.600   0.830 -0.6607 -1.3340 -1.8896
  130SOL    HW2  390   1.874   1.470   0.922  2.2209  3.2129 -1.0668
  131SOL     OW  391   0.025   0.906   2.767  0.2209 -0.0556  0.7639
  131SOL    HW1  392   3.092   1.004   2.779 -0.5012  0.2052  0.7449
  131SOL    HW2  393   0.114   0.906   2.820  0.2550  1.1190 -0.0476
  132SOL     OW  394   2.542   1.881   1.917 -0.0821  0.0973  0.1716
  132SOL    HW1  395   2.517   1.910   1.822  0.3336 -1.8405 -0.1173
  132SOL    HW2  396   2.582   1.784   1.917 -0.7670 -5.8055  3.6355
  133SOL     OW  397   0.005   1.165   3.078 -0.0568  0.1026 -0.4485
  133SOL    HW1  398   3.099   1.254   0.018  0.2606 -0.7271  1.4013
  133SOL    HW2  399   3.079   1.165   2.979  2.5163 -0.4771  2.3075
  134SOL     OW  400   0.278   1.336   3.013 -0.1124  0.1341 -0.0665
  134SOL    HW1  401   0.226   1.262   3.063 -0.9857  0.7049 -1.1299
  134SOL    HW2  402   0.244   1.429   3.049 -0.9111 -0.4933  1.2587
  135SOL     OW  403   2.293   1.490   0.638 -0.4993 -0.8207 -0.0206
  135SOL    HW1  404   2.323   1.444   0.551 -0.0868 -0.5747 -1.6948
  135SOL    HW2  405   2.348   1.574   0.648  1.0667  0.4745 -1.6818
  136SOL     OW  406   1.942   1.496   1.360 -0.2313 -0.0895  0.5069
  136SOL    HW1  407   2.015   1.464   1.303 -2.0526  3.0354  0.3304
  136SOL    HW2  408   1.867   1.527   1.304  0.8471 -1.2380  0.3465
  137SOL     OW  409   2.556   2.238   0.732 -0.2919 -0.3216  0.1699
  137SOL    HW1  410   2.512   2.162   0.781  1.4693  2.8504 -2.2329
  137SOL    HW2  411   2.591   2.216   0.640 -0.1928  0.0084  0.7799
  138SOL     OW  412   1.421   0.154   1.423  0.3496 -0.3860  0.0934
  138SOL    HW1  413   1.480   0.079   1.443 -2.7976  1.3725  0.5722
  138SOL    HW2  414   1.334   0.148   1.475 -0.2869  0.1381 -0.1509
  139SOL     OW  415   2.551   0.165   2.959  0.1017  0.3217 -0.8967
  139SOL    HW1  416   2.584   0.235   2.894  0.4143  0.8681  1.5409
  139SOL    HW2  417   2.610   0.176   3.044  2.0402 -1.9667  2.1711
  140SOL     OW  418   1.648   2.203   2.746  1.1259 -0.4404  0.6590
  140SOL    HW1  419   1.648   2.182   2.645 -0.4900  1.0000  1.2713
  140SOL    HW2  420   1.741   2.183   2.785  2.1954  1.5517 -1.3890
  141SOL     OW  421   0.795   0.919   1.564 -0.6034  0.0106  0.2738
  141SOL    HW1  422   0.773   1.019   1.562 -2.5609  1.1364 -0.0658
  141SOL    HW2  423   0.864   0.902   1.639 -0.3304 -1.2413 -1.3477
  142SOL     OW  424   2.566   2.960   0.146 -0.2069 -0.2250 -0.1935
  142SOL    HW1  425   2.475   2.926   0.106 -0.8964 -0.8804 -1.8005
  142SOL    HW2  426   2.633   2.991   0.070  1.3313 -0.5251 -0.4297
  143SOL     OW  427   0.719   2.149   2.902  0.1704  0.1282  0.3839
  143SOL    HW1  428   0.722   2.225   2.831  1.5624  2.3818 -1.7851
  143SOL    HW2  429   0.623   2.136   2.928 -2.3281  0.9474  0.6291
  144SOL     OW  430   1.022   2.615   3.065  0.0399  0.0608 -0.5679
  144SOL    HW1  431   1.110   2.652   3.022  4.7956  0.6289 -0.0675
  144SOL    HW2  432   1.038   2.537   0.035  0.4546 -1.7195  4.7377
  145SOL     OW  433   2.377   1.865   0.089 -0.1053  0.6740  0.5654
  145SOL    HW1  434   2.422   1.941   0.034 -1.4266  2.7350 -1.4443
  145SOL    HW2  435   2.281   1.890   0.103  1.3324  1.6232 -2.1932
  146SOL     OW  436   2.655   2.723   3.017  0.7250 -0.2914 -0.2778
  146SOL    HW1  437   2.703   2.796   3.072 -2.2127  0.9671 -1.0485
  146SOL    HW2  438   2.712   2.638   3.001 -1.8311 -0.8407  0.0565
  147SOL     OW  439   2.624   1.980   1.211  0.5771  0.1538  0.3677
  147SOL    HW1  440   2.713   1.952   1.171 -0.2600 -1.7214 -0.4449
  147SOL    HW2  441   2.617   2.077   1.192 -0.0726 -1.0791  0.6092
  148SOL     OW  442   1.760   0.395   0.164 -0.1061 -0.0814 -0.0702
  148SOL    HW1  443   1.717   0.480   0.121 -0.8648  1.6060 -1.4285
  148SOL    HW2  444   1.691   0.316   0.159 -0.5386 -2.5254 -0.7290
  149SOL     OW  445   1.000   1.528   2.775 -0.0492 -0.3741  0.1858
  149SOL    HW1  446   1.075   1.462   2.804  2.2791  0.8452 -0.1753
  149SOL    HW2  447   0.931   1.482   2.718  3.2674  0.6456  0.4177
  150SOL     OW  448   0.978   2.182   0.501 -0.7336  0.1012 -0.2631
  150SOL    HW1  449   0.986   2.236   0.590  0.5078  1.5473 -0.1127
  150SOL    HW2  450   0.947   2.086   0.507  1.2106  4.3456 -1.0698
  151SOL     OW  451   0.569   1.689   2.957 -0.1881  0.6513 -0.1431
  151SOL    HW1  452   0.603   1.605   3.010  1.2163 -2.4219  1.4561
  151SOL    HW2  453   0.598   1.669   2.861 -2.2260  0.9034  0.7218
  152SOL     OW  454   2.859   1.317   0.440  0.2816 -0.0344 -0.2062
  152SOL    HW1  455   2.959   1.342   0.435  0.7051 -1.6415 -0.8022
  152SOL    HW2  456   2.847   1.217   0.464  0.5061 -3.2214  0.8091
  153SOL     OW  457   2.245   2.527   0.573 -0.1909  0.0822  0.1845
  153SOL    HW1  458   2.278   2.485   0.657 -0.1330  2.2455 -3.4458
  153SOL    HW2  459   2.325   2.584   0.542  3.0830 -3.0513 -1.2512
  154SOL     OW  460   0.584   3.088   1.033  0.3149  0.3449  0.4332
  154SOL    HW1  461   0.651   0.064   1.040  0.7369 -0.2922  0.6140
  154SOL    HW2  462   0.626   3.003   0.988 -1.0189  0.9668 -2.2648
  155SOL     OW  463   0.375   2.138   0.824  0.3936  0.0059  0.1763
  155SOL    HW1  464   0.466   2.127   0.776 -0.9721 -0.2326 -0.4445
  155SOL    HW2  465   0.381   2.197   0.904 -3.9898 -0.6097 -2.0565
  156SOL     OW  466   2.660   2.457   0.148  0.1721  0.2008  0.4352
  156SOL    HW1  467   2.666   2.411   0.059 -1.0467 -1.6393  1.4786
  156SOL    HW2  468   2.752   2.482   0.183  1.1631 -0.9855 -1.0661
  157SOL     OW  469   0.937   2.119   1.366  0.2558  0.1384 -0.0297
  157SOL    HW1  470   0.835   2.147   1.357 -1.1362 -2.6367 -2.2281
  157SOL    HW2  471   0.947   2.026   1.325  0.3962  1.4751  1.2463
  158SOL     OW  472   1.631   0.593   0.015 -0.3757 -0.4585  0.0194
  158SOL    HW1  473   1.618   0.523   3.048  2.1315  1.4067  2.0205
  158SOL    HW2  474   1.699   0.668   3.084 -1.3255 -0.0905  1.1830
  159SOL     OW  475   1.117   0.356   0.026 -0.4555  0.3986 -0.1203
  159SOL    HW1  476   1.053   0.366   0.104  2.7959 -1.4829 -1.7723
  159SOL    HW2  477   1.202   0.414   0.045  1.5344 -0.8825  0.0257
  160SOL     OW  478   1.197   1.442   3.100  0.0124  0.3969  0.2085
  160SOL    HW1  479   1.247   1.527   0.020  0.9512  2.0848  0.4681
  160SOL    HW2  480   1.167   1.398   0.088  0.6511  0.0272  2.3739
  161SOL     OW  481   2.990   2.173   2.908  0.3464  0.9408  0.1677
  161SOL    HW1  482   2.949   2.134   2.823 -1.1193 -2.1907 -0.3882
  161SOL    HW2  483   3.078   2.127   2.936  1.1434 -1.7972  0.1520
  162SOL     OW  484   0.582   2.678   0.890  0.7006 -0.1615 -0.2263
  162SOL    HW1  485   0.638   2.764   0.901 -1.6233 -0.0265  4.0116
  162SOL    HW2  486   0.498   2.691   0.949  2.1833  3.2207  0.2509
  163SOL     OW  487   2.697   1.234   3.057  0.0088  1.0173 -0.4340
  163SOL    HW1  488   2.764   1.156   3.058 -1.1038  0.0560 -3.3978
  163SOL    HW2  489   2.649   1.229   0.049 -3.4702 -0.0429  2.7916
  164SOL     OW  490   0.225   2.737   2.843  0.3458 -0.2792 -0.1634
  164SOL    HW1  491   0.200   2.667   2.913  0.4658 -0.9306 -0.5017
  164SOL    HW2  492   0.325   2.728   2.833 -3.7654 -2.4231  1.4492
  165SOL     OW  493   2.089   0.388   1.339 -0.1665 -0.5285  0.4916
  165SOL    HW1  494   2.146   0.462   1.298 -1.4060  0.6544 -0.5334
  165SOL    HW2  495   2.064   0.325   1.263 -1.0816  1.1754  1.8216
  166SOL     OW  496   1.935   0.419   1.566 -0.7328  0.0648  0.3307
  166SOL    HW1  497   1.858   0.356   1.582  1.5861 -0.0567 -4.6430
  166SOL    HW2  498   1.999   0.388   1.493  0.6437  1.4450 -1.0230
  167SOL     OW  499   1.138   0.244   1.899  0.2626  0.4535 -0.3394
  167SOL    HW1  500   1.051   0.199   1.936 -3.1668 -0.7032 -0.8896
  167SOL    HW2  501   1.210   0.245   1.970  0.7415 -1.6404 -0.2073
  168SOL     OW  502   2.512   0.372   1.936  0.1336 -0.3019  0.0019
  168SOL    HW1  503   2.572   0.450   1.963 -0.7470  1.4441 -1.5290
  168SOL    HW2  504   2.462   0.387   1.847 -2.2326 -0.8651 -1.6684
  169SOL     OW  505   0.499   1.243   0.073 -0.1488  0.0591  0.2155
  169SOL    HW1  506   0.425   1.284   0.017 -1.8840  2.3263 -0.5213
  169SOL    HW2  507   0.483   1.149   0.112  1.5652 -3.5999  2.4204
  170SOL     OW  508   0.154   1.391   1.722 -0.5636  0.6480 -0.0493
  170SOL    HW1  509   0.137   1.374   1.823 -0.1180 -0.0523  2.1546
  170SOL    HW2  510   0.065   1.398   1.675 -0.2538 -1.5174  1.5076
  171SOL     OW  511   1.266   2.229   2.058 -0.3881 -0.3348 -0.2054
  171SOL    HW1  512   1.235   2.313   2.011 -1.1405 -1.2972  0.9415
  171SOL    HW2  513   1.191   2.161   2.058  1.2145  0.3232 -0.9501
  172SOL     OW  514   0.354   2.494   1.399 -0.2573 -0.0303 -0.2719
  172SOL    HW1  515   0.377   2.585   1.448  2.3627  0.6289  1.4088
  172SOL    HW2  516   0.395   2.492   1.303  0.1201 -0.4550 -0.9927
  173SOL     OW  517   1.334   2.570   0.904  0.1587  0.0589  0.4196
  173SOL    HW1  518   1.395   2.546   0.825  0.1902  2.1303 -0.2625
  173SOL    HW2  519   1.247   2.520   0.900 -1.1819 -0.1460  0.7421
  174SOL     OW  520   1.182   3.004   0.159 -0.2786  0.0286 -0.3406
  174SOL    HW1  521   1.160   3.053   0.244  0.9758  0.2811 -0.0387
  174SOL    HW2  522   1.196   2.906   0.180  0.3926  2.0114  2.4769
  175SOL     OW  523   0.878   0.902   2.759  0.2853 -0.7335  0.2081
  175SOL    HW1  524   0.921   0.993   2.745  0.0362 -0.9858  0.1544
  175SOL    HW2  525   0.829   0.868   2.674 -1.8357 -3.3862  2.0009
  176SOL     OW  526   1.682   0.732   0.408  0.1012  0.5174 -0.3043
  176SOL    HW1  527   1.761   0.799   0.415  3.3020  0.3200 -0.0723
  176SOL    HW2  528   1.606   0.754   0.473 -0.0548 -3.0336 -0.9060
  177SOL     OW  529   1.323   0.792   1.004 -0.1798  0.4971 -0.3108
  177SOL    HW1  530   1.228   0.751   1.006  3.2170  0.3040  0.2237
  177SOL    HW2  531   1.359   0.794   1.100 -1.5066 -2.4504  0.8493
  178SOL     OW  532   2.659   1.625   2.773 -0.3983 -0.0828  0.0426
  178SOL    HW1  533   2.658   1.577   2.862 -0.4259  1.7714 -0.3102
  178SOL    HW2  534   2.611   1.578   2.697  1.7659 -1.4047  0.4967
  179SOL     OW  535   0.650   2.489   3.067  0.1084  0.6773 -0.1724
  179SOL    HW1  536   0.715   2.521   2.996 -0.9151  1.6977 -1.8710
  179SOL    HW2  537   0.697   2.455   0.052  0.2660 -1.1142 -1.6135
  180SOL     OW  538   1.892   1.646   1.586  1.0664 -0.0437  0.2219
  180SOL    HW1  539   1.906   1.609   1.486 -1.0329  0.6351 -4.8152
  180SOL    HW2  540   1.825   1.590   1.640  2.6054 -1.3227  1.6422
  181SOL     OW  541   1.103   1.360   2.232  0.4623 -0.0293  0.0088
  181SOL    HW1  542   1.024   1.360   2.165 -3.0583 -1.0384  0.0060
  181SOL    HW2  543   1.176   1.429   2.217 -1.8280  2.3837  0.6373
  182SOL     OW  544   0.154   0.740   2.601 -0.1510  0.1114 -0.5296
  182SOL    HW1  545   0.222   0.693   2.664  0.2689  1.9836  1.3421
  182SOL    HW2  546   0.077   0.789   2.654 -1.5644  0.5060  1.1325
  183SOL     OW  547   1.444   0.380   2.287 -0.0523 -0.2549 -0.3939
  183SOL    HW1  548   1.431   0.320   2.369 -0.5933  2.5955 -0.3547
  183SOL    HW2  549   1.533   0.427   2.301  0.6683  0.2578  0.4999
  184SOL     OW  550   0.104   0.550   1.374  0.3510 -0.2938  0.5037
  184SOL    HW1  551   0.093   0.610   1.290  0.0089  0.9713 -1.3966
  184SOL    HW2  552   0.016   0.531   1.415 -2.0442 -0.2944 -2.4540
  185SOL     OW  553   2.553   1.699   0.981  0.1135 -0.3880  0.1157
  185SOL    HW1  554   2.589   1.790   0.974 -1.5754 -2.8751 -0.1825
  185SOL    HW2  555   2.623   1.642   1.034 -0.2014 -3.4383 -3.2513
  186SOL     OW  556   0.519   1.838   2.448 -0.7917 -0.2030  0.0492
  186SOL    HW1  557   0.469   1.753   2.445 -0.2194  2.8739  1.0717
  186SOL    HW2  558   0.480   1.917   2.500  2.5264  1.1434 -0.3685
  187SOL     OW  559   2.486   2.065   3.048 -0.5555  0.1589 -0.0196
  187SOL    HW1  560   2.582   2.113   3.049  0.6995 -1.5049 -0.1883
  187SOL    HW2  561   2.415   2.108   2.993  0.3570 -1.3490 -0.3772
  188SOL     OW  562   0.706   2.120   0.138 -0.2897  0.5262  0.4155
  188SOL    HW1  563   0.773   2.049   0.125 -0.3531 -2.1739 -0.4276
  188SOL    HW2  564   0.616   2.086   0.179 -0.7637 -1.9347  0.1794
  189SOL     OW  565   2.223   1.109   0.185 -0.2644  0.3462  0.2711
  189SOL    HW1  566   2.280   1.165   0.250  3.2720  0.1970  1.1239
  189SOL    HW2  567   2.251   1.112   0.088 -0.5331  1.5148  2.1053
  190SOL     OW  568   0.905   1.751   1.957 -0.3994  0.5476  0.2383
  190SOL    HW1  569   0.883   1.809   1.878 -0.0715 -0.3427 -0.4911
  190SOL    HW2  570   1.004   1.737   1.967  2.0044 -1.1267 -1.2195
  191SOL     OW  571   2.337   0.785   1.619  0.4240 -0.0379  0.3727
  191SOL    HW1  572   2.344   0.726   1.699 -0.2878  1.1739 -0.8359
  191SOL    HW2  573   2.255   0.758   1.565 -0.6564  1.9455  0.4596
  192SOL     OW  574   1.941   0.073   1.772 -0.7114 -0.1249  0.0046
  192SOL    HW1  575   1.938   0.166   1.818 -0.5165 -0.0666  0.8541
  192SOL    HW2  576   1.881   0.065   1.687  1.4066 -0.0238 -3.4695
  193SOL     OW  577   0.098   0.864   0.687 -0.4786  0.0569  0.6769
  193SOL    HW1  578   0.119   0.848   0.784  0.8081 -0.7675  0.2339
  193SOL    HW2  579   0.137   0.790   0.632 -1.4339  0.5294 -3.3541
  194SOL     OW  580   1.455   2.507   1.578  0.5875  0.4016 -0.6644
  194SOL    HW1  581   1.446   2.468   1.485  0.2175  1.4334 -0.5854
  194SOL    HW2  582   1.469   2.432   1.649 -2.1184 -2.8900  1.2980
  195SOL     OW  583   2.665   0.622   1.125  0.7613  0.3767  0.3436
  195SOL    HW1  584   2.710   0.608   1.032  2.6725  0.2737 -2.2151
  195SOL    HW2  585   2.594   0.697   1.127 -1.3029 -1.8196 -0.6551
  196SOL     OW  586   1.509   2.141   1.978 -0.4912  0.2764  0.1355
  196SOL    HW1  587   1.582   2.179   2.040  0.0847 -0.4700 -1.5552
  196SOL    HW2  588   1.420   2.170   2.009 -0.3530  1.7814 -1.7646
  197SOL     OW  589   0.149   2.985   2.766 -0.7808  0.4645  0.0279
  197SOL    HW1  590   0.175   2.891   2.800 -1.1282 -0.3406  1.4783
  197SOL    HW2  591   0.087   3.036   2.832 -3.6521 -1.1470  0.0667
  198SOL     OW  592   1.128   1.033   0.688  0.7274  0.0042 -0.2565
  198SOL    HW1  593   1.209   1.030   0.747 -1.8994  1.5717 -0.7608
  198SOL    HW2  594   1.059   0.960   0.704 -0.5156 -0.1030 -0.6411
  199SOL     OW  595   2.610   1.098   1.734  0.5138  0.1350  0.0674
  199SOL    HW1  596   2.672   1.042   1.674  0.4772 -0.9784  0.5008
  199SOL    HW2  597   2.512   1.089   1.702 -0.0403  2.4511 -0.4924
  200SOL     OW  598   2.273   2.665   2.302  0.0938  0.1253  1.0964
  200SOL    HW1  599   2.280   2.767   2.311  0.4499 -0.8165  0.0022
  200SOL    HW2  600   2.275   2.620   2.392 -0.1202 -1.4454 -3.0068
  201SOL     OW  601   2.626   0.373   1.583  0.3369 -0.6022 -0.0175
  201SOL    HW1  602   2.695   0.317   1.631 -0.5442 -1.4129 -2.2527
  201SOL    HW2  603   2.604   0.333   1.491  0.6004 -1.0414  3.0715
  202SOL     OW  604   2.263   0.118   0.231  0.2503  0.1378 -0.1515
  202SOL    HW1  605   2.362   0.132   0.248  0.5706  0.0091 -0.1831
  202SOL    HW2  606   2.214   0.148   0.318  1.8910  2.3963 -2.8023
  203SOL     OW  607   1.208   1.924   2.224 -0.2323 -0.1367 -0.1274
  203SOL    HW1  608   1.146   2.003   2.197 -1.4923 -0.0392  0.4196
  203SOL    HW2  609   1.280   1.961   2.284  0.2725  4.2948  0.2850
  204SOL     OW  610   0.766   1.446   2.629  0.4537  0.1412 -0.2216
  204SOL    HW1  611   0.702   1.369   2.634 -1.7558 -3.3624 -0.9517
  204SOL    HW2  612   0.814   1.443   2.538  1.0100  1.4001  0.3472
  205SOL     OW  613   1.019   1.840   1.290 -0.1354 -0.4296 -0.1138
  205SOL    HW1  614   1.079   1.773   1.243  2.4808  0.8116  0.8990
  205SOL    HW2  615   0.924   1.800   1.302 -1.7023  1.6567 -2.2219
  206SOL     OW  616   0.276   0.266   2.889  0.0004  0.1098  0.1263
  206SOL    HW1  617   0.260   0.241   2.792  1.4514  0.8022  0.6905
  206SOL    HW2  618   0.260   0.184   2.951 -2.3425 -1.1183 -1.0422
  207SOL     OW  619   1.922   2.735   2.375 -0.0030 -0.0845 -0.3246
  207SOL    HW1  620   1.898   2.710   2.473  0.0302 -3.8761  2.6944
  207SOL    HW2  621   1.897   2.834   2.347  1.4298  2.9980 -2.0112
  208SOL     OW  622   0.863   2.345   1.099  0.1545 -0.0525 -0.1968
  208SOL    HW1  623   0.912   2.412   1.161 -0.0895  3.8614  0.4626
  208SOL    HW2  624   0.820   2.394   1.022 -0.4492 -0.4610  0.4002
  209SOL     OW  625   1.486   1.134   2.414  0.5381 -0.2980  0.4760
  209SOL    HW1  626   1.394   1.106   2.376 -2.5504 -1.5968  1.5609
  209SOL    HW2  627   1.485   1.141   2.513 -3.5160  1.4077 -0.3727
  210SOL     OW  628   2.019   0.855   1.298 -0.4350  0.3895 -0.0094
  210SOL    HW1  629   2.112   0.835   1.257 -1.1451  1.4033  0.0275
  210SOL    HW2  630   1.953   0.782   1.273  0.9038  1.6317 -1.0268
  211SOL     OW  631   0.846   2.591   0.573  0.2591  0.2119 -0.1287
  211SOL    HW1  632   0.883   2.588   0.482 -0.2531 -0.7102  3.1677
  211SOL    HW2  633   0.913   2.621   0.643 -1.0851 -0.4917  0.5757
  212SOL     OW  634   1.810   1.805   0.403 -0.1068 -0.4737  0.4896
  212SOL    HW1  635   1.708   1.813   0.399 -1.8625  0.4406  0.5720
  212SOL    HW2  636   1.848   1.785   0.494  1.4915  0.1292 -1.2436
  213SOL     OW  637   1.517   0.065   2.918 -0.4701  0.1093 -0.3695
  213SOL    HW1  638   1.467   0.062   3.005 -1.0462  0.0545 -1.1758
  213SOL    HW2  639   1.592   0.142   2.923  3.5017  2.6754 -0.3700
  214SOL     OW  640   1.342   1.535   2.156 -0.0602  0.0149  0.2159
  214SOL    HW1  641   1.326   1.538   2.051 -1.4994 -0.9826 -4.9461
  214SOL    HW2  642   1.270   1.594   2.200  1.1340  3.6559  0.3808
  215SOL     OW  643   0.702   1.729   0.223 -0.4172 -0.3302  0.1418
  215SOL    HW1  644   0.624   1.797   0.213 -0.9903 -1.4781 -1.0412
  215SOL    HW2  645   0.709   1.686   0.317  0.2617 -0.3126  0.0358
  216SOL     OW  646   0.217   2.730   2.145  0.0348  0.4814 -0.1408
  216SOL    HW1  647   0.299   2.684   2.107  3.7037 -0.8517  0.7778
  216SOL    HW2  648   0.134   2.683   2.111  1.0756  0.0494  0.2279
  217SOL     OW  649   2.490   1.072   0.757  0.5582  0.3173 -0.1561
  217SOL    HW1  650   2.466   1.147   0.824  1.0004  1.0068  3.4578
  217SOL    HW2  651   2.414   1.068   0.689  1.1855  0.3340  1.8877
  218SOL     OW  652   1.794   1.448   1.998  0.3069 -0.2268 -0.2086
  218SOL    HW1  653   1.749   1.357   1.972 -0.3194  1.1258  0.0421
  218SOL    HW2  654   1.881   1.457   1.947 -0.6714 -2.1573 -1.0653
  219SOL     OW  655   1.955   1.703   0.182 -0.5213  0.0432 -0.0435
  219SOL    HW1  656   1.896   1.659   0.115  0.4410  1.1561  1.7919
  219SOL    HW2  657   1.898   1.720   0.261  1.1361 -0.3091  2.3219
  220SOL     OW  658   1.427   1.595   0.976 -0.2164  0.1842 -0.1999
  220SOL    HW1  659   1.396   1.635   0.885  0.8101 -2.7466 -1.7653
  220SOL    HW2  660   1.477   1.666   1.028  0.8735 -1.1115  2.3608
  221SOL     OW  661   0.676   0.442   2.856 -0.0132 -0.1323  0.3514
  221SOL    HW1  662   0.652   0.541   2.849  0.0548  1.1974 -0.3572
  221SOL    HW2  663   0.692   0.408   2.956 -1.7241 -1.9223  3.1713
  222SOL     OW  664   1.378   1.349   0.365  0.2310 -0.6389  0.3508
  222SOL    HW1  665   1.363   1.352   0.467 -1.6431 -1.0997  1.9934
  222SOL    HW2  666   1.320   1.273   0.324 -2.1866 -2.7226 -1.9778
  223SOL     OW  667   1.021   3.022   3.004  0.1038 -0.3538  0.0931
  223SOL    HW1  668   1.066   3.036   3.092  0.0612 -2.8295 -1.2120
  223SOL    HW2  669   0.919   3.012   3.031 -4.3304  1.2178  1.5564
  224SOL     OW  670   2.289   0.225   1.480  0.3701 -0.1258  0.0211
  224SOL    HW1  671   2.240   0.305   1.446  0.7323  1.0790 -1.2503
  224SOL    HW2  672   2.340   0.250   1.564  1.0850 -0.1738  1.1490
  225SOL     OW  673   0.366   3.082   1.166  0.0621  0.0602  0.7563
  225SOL    HW1  674   0.326   0.072   1.158 -2.3322 -1.3779  0.0086
  225SOL    HW2  675   0.456   3.064   1.114  1.9918 -1.9105 -2.5461
  226SOL     OW  676   1.211   1.331   2.857  0.2464 -0.4741  0.1425
  226SOL    HW1  677   1.303   1.340   2.815 -1.2082  0.9802  0.2239
  226SOL    HW2  678   1.209   1.383   2.947  0.6423 -0.1896  1.2338
  227SOL     OW  679   1.218   1.703   1.140  0.2404 -0.6572 -0.8403
  227SOL    HW1  680   1.260   1.617   1.107 -1.6366 -0.7094  0.9423
  227SOL    HW2  681   1.289   1.778   1.130  0.0740 -0.5863  1.1423
  228SOL     OW  682   0.585   1.504   0.663  0.6137  0.4044 -0.5524
  228SOL    HW1  683   0.608   1.452   0.578 -2.9025  0.7899 -0.2768
  228SOL    HW2  684   0.492   1.484   0.697  0.3526 -0.4852  1.3114
  229SOL     OW  685   1.400   0.421   0.115 -0.4034  0.1531 -0.0331
  229SOL    HW1  686   1.424   0.489   0.037  2.7141  0.3186  0.2813
  229SOL    HW2  687   1.472   0.348   0.124  2.2998  1.3152 -0.1632
  230SOL     OW  688   1.701   0.471   2.358  0.3458  0.3380  0.1593
  230SOL    HW1  689   1.755   0.414   2.291  1.4622 -0.9618 -0.7932
  230SOL    HW2  690   1.760   0.546   2.394 -1.2688 -3.3754  0.7225
  231SOL     OW  691   1.151   1.683   2.306  0.2012  0.0870  0.4095
  231SOL    HW1  692   1.049   1.668   2.300 -0.1768  2.4870  2.4534
  231SOL    HW2  693   1.167   1.782   2.291 -0.9528 -3.1681  1.1107
  232SOL     OW  694   2.426   2.057   0.875 -0.0293  0.5501 -0.1541
  232SOL    HW1  695   2.391   2.106   0.958  1.2382  0.6208  1.0308
  232SOL    HW2  696   2.346   2.002   0.838 -1.9920 -1.2428  1.3342
  233SOL     OW  697   2.589   2.710   0.261  0.4478  0.0645  0.2396
  233SOL    HW1  698   2.593   2.633   0.189 -0.5454 -1.5868 -1.0981
  233SOL    HW2  699   2.596   2.797   0.210  1.6576 -0.5688  0.4949
  234SOL     OW  700   1.054   0.187   2.909  0.1202  0.0900  0.3163
  234SOL    HW1  701   1.076   0.267   2.971  1.2080  0.3975  1.3649
  234SOL    HW2  702   1.019   0.103   2.960 -2.9532  1.6931 -2.4723
  235SOL     OW  703   2.610   0.388   2.825  0.1514 -0.1076  0.1538
  235SOL    HW1  704   2.566   0.408   2.732  2.3078 -0.0913  0.3778
  235SOL    HW2  705   2.633   0.472   2.877 -3.5167  1.0395 -1.0949
  236SOL     OW  706   2.181   2.548   1.794 -0.1603  0.9016  0.2806
  236SOL    HW1  707   2.164   2.565   1.896  2.1033  0.9866  2.0268
  236SOL    HW2  708   2.141   2.462   1.754 -1.2623 -2.9993  0.0598
  237SOL     OW  709   0.514   1.393   1.932  0.2359 -0.0150  0.3804
  237SOL    HW1  710   0.590   1.456   1.961 -1.7641 -2.0268 -2.9558
  237SOL    HW2  711   0.553   1.305   1.896  2.0339 -0.2715  0.7648
  238SOL     OW  712   1.649   2.953   2.802 -0.6951  0.4327 -0.1229
  238SOL    HW1  713   1.602   3.041   2.827  1.3250 -2.3691 -0.1370
  238SOL    HW2  714   1.726   2.975   2.739  1.9098  3.4527 -0.1915
  239SOL     OW  715   0.102   2.112   1.607  0.1691 -0.2028  0.2099
  239SOL    HW1  716   0.039   2.174   1.652  0.8927 -1.4069 -0.9538
  239SOL    HW2  717   0.097   2.025   1.665 -0.5745 -3.7474  1.4613
  240SOL     OW  718   0.007   2.444   0.800  0.2901 -0.1863  0.2106
  240SOL    HW1  719   3.024   2.503   0.812 -0.3869 -1.2242 -2.1066
  240SOL    HW2  720   3.086   2.372   0.731  1.5575  2.8644 -2.3696
  241SOL     OW  721   2.331   1.202   0.947  1.0160 -0.0420  0.2167
  241SOL    HW1  722   2.384   1.291   0.949 -1.1368  2.2594 -0.0225
  241SOL    HW2  723   2.243   1.218   0.896 -3.5609 -0.0222 -0.7813
  242SOL     OW  724   2.087   2.137   2.649 -0.6768 -0.2714  0.4431
  242SOL    HW1  725   2.162   2.084   2.695  0.8046  0.0144  2.0563
  242SOL    HW2  726   2.000   2.116   2.695 -0.5111 -0.1955 -1.4039
  243SOL     OW  727   0.687   2.430   1.480  0.0253 -0.0340 -0.2629
  243SOL    HW1  728   0.730   2.516   1.447 -1.1964 -0.2395 -1.9630
  243SOL    HW2  729   0.658   2.437   1.575  0.2888 -1.3524 -2.1704
  244SOL     OW  730   2.219   0.090   2.816  0.0491 -0.0508  0.3940
  244SOL    HW1  731   2.228   0.110   2.913  0.9963  0.9816  0.5589
  244SOL    HW2  732   2.309   0.056   2.782  1.1877 -1.0119  2.7853
  245SOL     OW  733   1.346   2.854   0.965  0.0659  0.2570 -1.0774
  245SOL    HW1  734   1.437   2.858   1.010 -0.9665 -0.6205 -2.6135
  245SOL    HW2  735   1.320   2.755   0.959 -1.2726  0.8434  0.3079
  246SOL     OW  736   1.535   2.470   0.306 -0.1327  0.0219 -0.0807
  246SOL    HW1  737   1.540   2.498   0.207 -1.6530 -0.9843  0.8461
  246SOL    HW2  738   1.620   2.503   0.353 -1.8766 -0.8865 -0.6106
  247SOL     OW  739   1.105   0.313   2.292 -0.2582 -0.4622 -0.4380
  247SOL    HW1  740   1.024   0.365   2.250 -1.9080  1.2404 -1.5652
  247SOL    HW2  741   1.161   0.374   2.356 -1.1575  0.3080  1.4133
  248SOL     OW  742   0.372   1.790   1.656 -0.1229  0.6738  0.1832
  248SOL    HW1  743   0.466   1.823   1.632  0.7856  3.0951 -1.0257
  248SOL    HW2  744   0.376   1.708   1.721  2.0900  0.4900 -2.0741
  249SOL     OW  745   2.062   0.395   0.400  0.0035  0.3721  0.4899
  249SOL    HW1  746   2.159   0.393   0.413 -1.2511  0.7229 -0.4639
  249SOL    HW2  747   2.040   0.437   0.308  1.9865 -0.2264 -1.4468
  250SOL     OW  748   3.092   0.353   0.583  0.2084 -0.2006  0.2298
  250SOL    HW1  749   0.048   0.291   0.640 -1.7831  0.2923 -1.5689
  250SOL    HW2  750   0.043   0.414   0.519 -0.3910  2.0477  1.0475
  251SOL     OW  751   1.623   0.401   2.916  0.0160 -0.1452  0.0829
  251SOL    HW1  752   1.592   0.406   2.819  0.3655 -0.8514 -0.8214
  251SOL    HW2  753   1.694   0.328   2.937  1.1900  1.3909  0.2287
  252SOL     OW  754   1.636   1.669   2.047  0.0657 -0.1999 -0.2467
  252SOL    HW1  755   1.686   1.711   2.128 -1.1839  0.1057  2.2495
  252SOL    HW2  756   1.683   1.573   2.029  0.8842 -0.7033 -1.4871
  253SOL     OW  757   2.819   2.409   1.632 -0.3176  0.4013  0.5717
  253SOL    HW1  758   2.894   2.404   1.698 -0.4164 -1.6240  0.4545
  253SOL    HW2  759   2.777   2.317   1.637  0.2550 -1.4977  1.5633
  254SOL     OW  760   2.833   1.562   0.965 -0.0868 -0.4764 -0.0716
  254SOL    HW1  761   2.825   1.480   0.905  1.3097  0.9377 -0.0098
  254SOL    HW2  762   2.795   1.538   1.058  0.3013  0.6108 -2.3825
  255SOL     OW  763   1.256   0.404   1.192  0.2045  0.1296 -0.0663
  255SOL    HW1  764   1.238   0.367   1.283 -0.5551  0.4533  1.2307
  255SOL    HW2  765   1.299   0.497   1.197  1.8970  0.8155 -0.4946
  256SOL     OW  766   1.915   2.300   1.583  0.5304  0.1881  0.2750
  256SOL    HW1  767   1.906   2.369   1.505  1.6536 -0.1638 -1.6351
  256SOL    HW2  768   1.933   2.211   1.545 -1.0031  0.4724  2.0926
  257SOL     OW  769   0.545   2.680   2.803  0.0286 -0.4518 -0.2739
  257SOL    HW1  770   0.625   2.644   2.855  1.6564  0.1338  2.5768
  257SOL    HW2  771   0.501   2.608   2.749  0.7119  1.3776  1.1046
  258SOL     OW  772   0.972   2.216   3.030  0.0955 -0.4494 -0.3616
  258SOL    HW1  773   1.027   2.133   3.062  1.0691 -3.8460 -0.2114
  258SOL    HW2  774   0.879   2.193   2.989 -0.8835 -1.9143 -1.1065
  259SOL     OW  775   1.100   0.062   2.460 -0.4474  0.0709 -0.2638
  259SOL    HW1  776   1.150   3.071   2.448 -0.5300 -0.1006  0.5280
  259SOL    HW2  777   1.167   0.135   2.451 -3.0356 -2.1878  0.9834
  260SOL     OW  778   1.777   0.604   1.071 -0.2495  0.5095 -0.0855
  260SOL    HW1  779   1.776   0.690   1.020  1.9050 -1.5739  1.3717
  260SOL    HW2  780   1.801   0.614   1.171 -0.6883 -1.1967  2.0903
  261SOL     OW  781   0.488   0.172   2.624 -0.3109  0.4539  0.0160
  261SOL    HW1  782   0.407   0.224   2.596  1.8763 -2.7588  4.6543
  261SOL    HW2  783   0.560   0.235   2.644 -0.9925 -0.6579 -3.1415
  262SOL     OW  784   0.307   1.990   1.960 -0.3375 -1.1764 -0.0199
  262SOL    HW1  785   0.399   1.943   1.948  4.2788 -0.3920  0.8326
  262SOL    HW2  786   0.305   2.077   1.906 -1.3174  0.4223  1.3811
  263SOL     OW  787   2.869   1.399   2.404  0.4603  0.2866  0.0225
  263SOL    HW1  788   2.843   1.492   2.370 -2.4742 -0.1816 -2.0468
  263SOL    HW2  789   2.900   1.410   2.504 -1.0696  0.7172  3.1248
  264SOL     OW  790   0.858   1.295   0.993  0.0164 -0.0125  0.1367
  264SOL    HW1  791   0.785   1.235   0.949  0.3520 -1.2752 -0.7603
  264SOL    HW2  792   0.820   1.377   1.036  1.6999  0.1793 -1.8299
  265SOL     OW  793   1.084   2.459   0.910  0.3521  0.3476 -0.4286
  265SOL    HW1  794   1.045   2.367   0.881 -0.3926  0.0926  2.3996
  265SOL    HW2  795   1.045   2.470   1.001 -0.2559 -1.5959  1.9734
  266SOL     OW  796   1.689   1.072   1.083 -0.0640 -0.3634 -0.6837
  266SOL    HW1  797   1.700   1.143   1.160 -1.2455  4.3181  1.4319
  266SOL    HW2  798   1.627   1.114   1.010  0.1387  0.9574  0.1344
  267SOL     OW  799   2.310   1.189   3.029 -0.2578  0.2198  0.5349
  267SOL    HW1  800   2.266   1.189   2.935  2.4712 -0.9491 -0.0176
  267SOL    HW2  801   2.410   1.153   3.023  1.8490  1.0728 -2.1577
  268SOL     OW  802   1.258   0.229   0.349  0.6605  0.3761  0.2372
  268SOL    HW1  803   1.326   0.259   0.419  0.6618 -1.4781 -1.7924
  268SOL    HW2  804   1.287   0.257   0.255  0.0493  1.5741  0.4907
  269SOL     OW  805   2.415   0.544   2.644  0.7353  0.3847  0.5266
  269SOL    HW1  806   2.421   0.594   2.734 -1.1469 -2.0386 -0.6178
  269SOL    HW2  807   2.318   0.505   2.628 -4.7473  0.5429  0.9182
  270SOL     OW  808   0.194   0.973   3.092 -1.1685  0.2215  0.0918
  270SOL    HW1  809   0.215   0.944   2.996 -0.3251 -0.7809 -1.4138
  270SOL    HW2  810   0.115   1.040   3.087 -0.4504  0.3687  3.2060
  271SOL     OW  811   2.624   1.174   0.228 -0.2262  0.3272  0.0482
  271SOL    HW1  812   2.610   1.073   0.228  0.6671  0.8986 -0.4821
  271SOL    HW2  813   2.687   1.209   0.300 -0.2957  0.8299 -1.1950
  272SOL     OW  814   2.872   2.705   2.691  0.4841  0.6343 -0.1816
  272SOL    HW1  815   2.973   2.704   2.672 -1.2802 -0.5385  1.0032
  272SOL    HW2  816   2.852   2.632   2.759 -2.5455  1.1477  1.9056
  273SOL     OW  817   2.767   3.000   3.063  0.0892 -0.0147 -0.0521
  273SOL    HW1  818   2.795   3.094   3.089 -0.4016 -1.9012 -1.0942
  273SOL    HW2  819   2.810   2.971   2.975 -1.6474 -1.0019 -1.6367
  274SOL     OW  820   0.747   2.459   0.872  0.4205 -0.4244  0.1410
  274SOL    HW1  821   0.704   2.555   0.875  0.7738  2.9460  2.8982
  274SOL    HW2  822   0.762   2.427   0.776 -0.2024 -0.3811 -0.1132
  275SOL     OW  823   2.489   1.426   0.284 -0.1022 -0.5493 -0.0824
  275SOL    HW1  824   2.561   1.497   0.292  0.0038  2.1146 -0.4761
  275SOL    HW2  825   2.528   1.335   0.257  1.3351  0.4529  0.7800
  276SOL     OW  826   2.901   1.261   1.643 -0.0346 -0.6273  0.4589
  276SOL    HW1  827   2.906   1.162   1.631 -3.6052  3.4747  1.7687
  276SOL    HW2  828   2.908   1.315   1.553 -1.6228  4.1158 -1.1640
  277SOL     OW  829   2.122   0.213   1.125  0.5189 -0.1983  0.5615
  277SOL    HW1  830   2.187   0.140   1.142 -0.3916  2.6414 -0.6870
  277SOL    HW2  831   2.105   0.226   1.023 -1.7586  0.5260 -2.7032
  278SOL     OW  832   1.425   2.292   2.289 -0.1244  0.1125  0.1764
  278SOL    HW1  833   1.519   2.318   2.258  1.3870 -1.9854  0.5939
  278SOL    HW2  834   1.362   2.258   2.211 -3.0961 -1.1450  1.2007
  279SOL     OW  835   1.582   2.097   0.979  0.0748  0.3343  0.0706
  279SOL    HW1  836   1.626   2.148   1.052 -1.7856 -1.8865  0.4036
  279SOL    HW2  837   1.586   2.147   0.889 -1.2232 -0.8585  4.4846
  280SOL     OW  838   0.365   1.359   0.929  0.0251  0.5639  0.0720
  280SOL    HW1  839   0.323   1.419   0.855 -1.4204 -1.7337  0.4727
  280SOL    HW2  840   0.408   1.414   1.002 -1.6057 -0.8062 -1.8484
  281SOL     OW  841   0.053   1.052   2.494  0.3913 -0.7956  0.0743
  281SOL    HW1  842   0.133   1.024   2.555  0.5809 -0.6231  3.2520
  281SOL    HW2  843   0.068   1.149   2.454 -1.5442  1.2539 -0.4098
  282SOL     OW  844   0.637   1.464   3.097  0.1861 -0.5188  0.6749
  282SOL    HW1  845   0.583   1.387   0.038 -1.7434 -0.3358  0.4176
  282SOL    HW2  846   0.727   1.488   0.046  1.2038  1.4002 -1.5913
  283SOL     OW  847   2.248   2.529   3.041  0.3816 -0.0167 -0.4736
  283SOL    HW1  848   2.234   2.565   0.031  1.4569 -2.3029 -1.4738
  283SOL    HW2  849   2.294   2.597   2.984 -0.9455 -3.0510  0.5149
  284SOL     OW  850   0.732   3.058   0.667  0.0008  0.0107  0.2835
  284SOL    HW1  851   0.791   3.051   0.584 -2.8775 -0.6346 -3.9041
  284SOL    HW2  852   0.638   3.101   0.644 -1.9230  0.2625  1.5222
  285SOL     OW  853   2.259   1.261   2.767  0.2316 -0.1853  0.2393
  285SOL    HW1  854   2.314   1.183   2.734 -1.5916  0.5169  0.3083
  285SOL    HW2  855   2.157   1.240   2.771  0.7696 -0.1890  2.1597
  286SOL     OW  856   1.876   2.501   1.423 -0.4798  0.2344 -0.6282
  286SOL    HW1  857   1.974   2.537   1.424 -0.1114 -2.7481  0.8534
  286SOL    HW2  858   1.806   2.564   1.463 -1.8466 -2.2198  0.0285
  287SOL     OW  859   0.898   0.195   0.766  0.3339 -0.4772 -0.2390
  287SOL    HW1  860   0.878   0.287   0.801  2.3602  0.3541 -2.2568
  287SOL    HW2  861   0.815   0.135   0.757 -2.0162 -1.7183  0.9548
  288SOL     OW  862   1.162   2.611   2.674 -0.7130  0.7727  0.1461
  288SOL    HW1  863   1.161   2.525   2.733 -1.4317 -2.4705  0.3575
  288SOL    HW2  864   1.154   2.693   2.738  2.0755  2.1171  0.1911
  289SOL     OW  865   0.247   1.642   1.160 -0.5402  0.2892  0.1286
  289SOL    HW1  866   0.223   1.559   1.104 -0.5646  1.1252  0.9275
  289SOL    HW2  867   0.325   1.622   1.222  0.6205  1.4788  0.9462
  290SOL     OW  868   1.354   2.304   1.013 -0.1882  0.2402 -0.6598
  290SOL    HW1  869   1.331   2.241   1.090 -1.2814  1.4179  1.3665
  290SOL    HW2  870   1.379   2.397   1.045 -2.0161  1.0301 -2.8277
  291SOL     OW  871   1.473   2.851   0.262 -0.0357  0.2602 -0.5368
  291SOL    HW1  872   1.402   2.786   0.232 -0.7964 -1.4967 -0.1663
  291SOL    HW2  873   1.535   2.866   0.184 -0.0983 -1.8774  0.1171
  292SOL     OW  874   0.664   0.237   1.711 -0.5582 -0.0818 -0.2188
  292SOL    HW1  875   0.685   0.340   1.719  0.3271  2.3196 -0.4765
  292SOL    HW2  876   0.738   0.184   1.761  0.4573  0.4003 -1.1579
  293SOL     OW  877   2.297   2.261   1.037  0.4015 -0.6226 -0.0151
  293SOL    HW1  878   2.383   2.282   1.088  1.7750  0.4050  1.4734
  293SOL    HW2  879   2.226   2.283   1.108 -0.8441 -0.9244  2.7593
  294SOL     OW  880   0.853   0.417   2.196 -0.9021 -0.0169 -0.1783
  294SOL    HW1  881   0.806   0.350   2.140 -0.0930  4.3795 -1.7426
  294SOL    HW2  882   0.803   0.449   2.277 -0.1813 -2.6770  0.7625
  295SOL     OW  883   1.416   1.818   1.418 -0.0986  0.2524  0.9032
  295SOL    HW1  884   1.418   1.852   1.323 -1.4184 -1.8595 -0.8442
  295SOL    HW2  885   1.482   1.869   1.476 -0.5693  1.4643 -0.8236
  296SOL     OW  886   2.582   1.965   0.338 -0.1586  0.5544 -0.4834
  296SOL    HW1  887   2.642   1.980   0.257 -0.9820 -1.7973  1.0565
  296SOL    HW2  888   2.487   1.955   0.304  0.8269 -2.6863 -0.4141
  297SOL     OW  889   2.530   0.104   0.266 -0.1364 -0.2953  0.1171
  297SOL    HW1  890   2.540   0.010   0.221  1.1901  1.0057 -0.8903
  297SOL    HW2  891   2.603   0.115   0.332 -0.4750 -0.5918  0.9373
  298SOL     OW  892   0.869   2.925   2.700  0.6663  0.2540  0.2808
  298SOL    HW1  893   0.948   2.871   2.731 -2.7902 -1.8012  1.1242
  298SOL    HW2  894   0.838   2.992   2.767 -2.1764 -1.6554  0.2735
  299SOL     OW  895   0.775   2.147   2.236 -0.0186 -0.0754  0.1773
  299SOL    HW1  896   0.700   2.078   2.229  0.0199 -3.4418 -0.3915
  299SOL    HW2  897   0.786   2.181   2.328  0.1915 -0.9178  0.7498
  300SOL     OW  898   2.975   2.935   2.310  0.1002  0.1793 -0.3317
  300SOL    HW1  899   2.991   3.003   2.231  1.3203 -0.8405 -0.3057
  300SOL    HW2  900   2.933   2.977   2.391 -1.0016 -1.2940  0.9831
  301SOL     OW  901   1.031   0.817   1.963 -0.1240  0.2993 -0.2827
  301SOL    HW1  902   1.041   0.730   2.014 -3.1927 -3.0403 -3.0734
  301SOL    HW2  903   1.084   0.891   2.007 -1.0696 -0.3014  0.6885
  302SOL     OW  904   3.073   2.282   0.576 -0.2884 -0.4644 -0.1889
  302SOL    HW1  905   0.043   2.318   0.518 -2.9040  1.2621  1.1679
  302SOL    HW2  906   3.061   2.186   0.571 -0.7981  3.3743  0.2515
  303SOL     OW  907   2.582   2.604   1.620  0.5019  0.4397 -0.2991
  303SOL    HW1  908   2.665   2.557   1.647  1.5139 -1.9744 -0.3650
  303SOL    HW2  909   2.521   2.617   1.703 -0.7909 -0.1391  1.9700
  304SOL     OW  910   2.935   0.996   1.635 -0.5092  0.0626 -0.2040
  304SOL    HW1  911   2.933   0.904   1.673  1.5379 -0.2237 -4.3095
  304SOL    HW2  912   3.029   1.019   1.602 -2.3720 -0.5058 -2.4481
  305SOL     OW  913   0.781   1.559   1.133  0.3146 -0.9679  0.0504
  305SOL    HW1  914   0.807   1.582   1.036  0.0846 -2.8702 -2.7321
  305SOL    HW2  915   0.775   1.645   1.192 -0.2483  1.6464 -0.0458
  306SOL     OW  916   0.288   1.259   2.065 -0.2037 -0.4398  0.1478
  306SOL    HW1  917   0.290   1.165   2.025  1.6526  0.4551  0.0832
  306SOL    HW2  918   0.372   1.308   2.035  1.3332  0.2818  0.0877
  307SOL     OW  919   0.810   0.521   1.698 -0.0016  0.5154 -0.4093
  307SOL    HW1  920   0.889   0.536   1.764 -1.4789  0.2227  0.5632
  307SOL    HW2  921   0.843   0.523   1.604 -3.5564 -0.9979 -0.9719
  308SOL     OW  922   0.019   1.161   1.135  0.0484 -0.1140 -0.1827
  308SOL    HW1  923   0.009   1.177   1.239 -3.6386  1.0672  5.7889
  308SOL    HW2  924   3.046   1.098   1.101 -0.2881 -0.2415 -0.8017
  309SOL     OW  925   2.638   1.500   1.159 -0.3451  0.0307  0.3049
  309SOL    HW1  926   2.627   1.546   1.247  1.9624  0.6524  0.8410
  309SOL    HW2  927   2.624   1.399   1.169 -0.1029 -1.7793 -0.8597
  310SOL     OW  928   2.840   2.119   2.642  0.1746 -0.0018 -0.3543
  310SOL    HW1  929   2.738   2.120   2.652  0.2805 -0.0702 -0.6286
  310SOL    HW2  930   2.877   2.020   2.639 -1.9542 -0.4758  0.7097
  311SOL     OW  931   2.681   2.623   2.269  0.2674  0.0909  0.2673
  311SOL    HW1  932   2.748   2.677   2.215  0.2428 -0.4570 -0.4653
  311SOL    HW2  933   2.678   2.673   2.359 -0.7559 -1.3160  0.1810
  312SOL     OW  934   2.148   2.188   0.136  0.0664 -0.0084 -0.1335
  312SOL    HW1  935   2.084   2.249   0.182  1.0487 -2.0473  0.2207
  312SOL    HW2  936   2.101   2.097   0.120  0.4624 -1.1619  2.1211
  313SOL     OW  937   2.636   2.931   0.811  0.2155 -0.0450 -0.3823
  313SOL    HW1  938   2.592   2.997   0.747  2.4081 -0.0441 -0.9596
  313SOL    HW2  939   2.657   2.843   0.770 -0.4006  1.3642  2.4562
  314SOL     OW  940   1.725   1.104   3.084  0.6347 -0.1569 -0.5540
  314SOL    HW1  941   1.635   1.130   3.049  0.3036 -0.8586 -1.2807
  314SOL    HW2  942   1.797   1.172   3.055  0.6414 -2.1591 -0.9085
  315SOL     OW  943   1.464   2.912   2.310  0.5543  0.0619 -0.0541
  315SOL    HW1  944   1.507   2.962   2.231  0.0614 -2.5526  2.2705
  315SOL    HW2  945   1.484   2.811   2.301 -0.4078  1.4012  0.8042
  316SOL     OW  946   3.032   1.084   0.246  0.0785  0.2214 -0.7387
  316SOL    HW1  947   3.064   1.168   0.294  0.6949  1.5180 -0.9342
  316SOL    HW2  948   3.090   1.067   0.162 -4.0934 -1.5510 -0.3203
  317SOL     OW  949   0.530   2.722   0.063  0.6173  0.1293 -0.0287
  317SOL    HW1  950   0.556   2.804   0.007  0.3900  3.4380 -2.5865
  317SOL    HW2  951   0.588   2.643   0.037  0.2154 -1.3291 -0.3884
  318SOL     OW  952   2.361   2.413   0.805 -0.1318 -0.0395  0.2476
  318SOL    HW1  953   2.426   2.341   0.771 -3.2779 -0.2079  0.6899
  318SOL    HW2  954   2.323   2.372   0.890  1.5141  1.1999 -0.9235
  319SOL     OW  955   1.214   1.963   2.644  0.1356 -0.1340  0.1978
  319SOL    HW1  956   1.172   1.875   2.607 -0.8724 -0.7449  0.3580
  319SOL    HW2  957   1.230   1.963   2.745  0.8516  0.1145  0.5748
  320SOL     OW  958   0.595   1.993   1.381 -0.5115 -0.6405  0.0368
  320SOL    HW1  959   0.628   2.090   1.370  0.5915  1.0909  2.2381
  320SOL    HW2  960   0.492   1.999   1.369 -1.1391  4.0039  2.1999
  321SOL     OW  961   1.532   2.664   2.259  0.6006 -0.1733  0.4896
  321SOL    HW1  962   1.488   2.614   2.336 -0.9218  0.7174  0.9034
  321SOL    HW2  963   1.622   2.627   2.228  1.3136 -0.0256 -1.1063
  322SOL     OW  964   2.736   1.440   2.111 -0.7479  0.1834  0.0003
  322SOL    HW1  965   2.758   1.518   2.171  0.8297 -2.6163  0.6756
  322SOL    HW2  966   2.640   1.406   2.128 -1.4429  1.0122  1.1015
  323SOL     OW  967   2.516   0.816   1.053  0.2577 -0.8994 -0.1327
  323SOL    HW1  968   2.558   0.852   0.965  3.2081 -1.4852 -1.2024
  323SOL    HW2  969   2.491   0.892   1.113  1.0904  0.9171  1.5412
  324SOL     OW  970   2.661   2.972   2.347 -0.3210 -0.0240 -0.1912
  324SOL    HW1  971   2.653   2.878   2.396 -2.0180 -1.2531  2.0020
  324SOL    HW2  972   2.732   3.028   2.389 -0.5304 -0.1639  0.4702
  325SOL     OW  973   1.006   0.508   2.663  0.1793  0.2283  0.2157
  325SOL    HW1  974   1.014   0.403   2.649  2.7845 -0.0830  1.0828
  325SOL    HW2  975   1.007   0.562   2.574  1.6481  0.8351 -1.2872
  326SOL     OW  976   1.841   2.979   2.282 -0.1739  0.7685 -0.1334
  326SOL    HW1  977   1.820   3.073   2.252  2.7157  0.0434 -0.0746
  326SOL    HW2  978   1.855   2.928   2.199  1.5449  1.3039  0.2229
  327SOL     OW  979   2.143   0.392   2.865  0.5831  0.4243  0.1487
  327SOL    HW1  980   2.085   0.309   2.869  0.6117 -1.2307  0.5491
  327SOL    HW2  981   2.190   0.404   2.954 -0.8663  0.4991 -2.1568
  328SOL     OW  982   0.083   1.330   2.354  0.3259 -0.0094  0.0427
  328SOL    HW1  983   0.140   1.416   2.358  1.7275  3.5863  0.4151
  328SOL    HW2  984   3.101   1.347   2.300  0.5709  0.6136  1.4996
  329SOL     OW  985   1.777   0.056   1.573  0.0754  0.2622  0.7471
  329SOL    HW1  986   1.741   3.062   1.555  2.2232  1.4781  2.2313
  329SOL    HW2  987   1.760   0.115   1.489 -1.7619 -1.3269 -1.8572
  330SOL     OW  988   0.455   1.205   0.724  0.1982  0.3334  0.0726
  330SOL    HW1  989   0.380   1.164   0.668  1.4733  1.0474  0.0786
  330SOL    HW2  990   0.408   1.249   0.803  0.0577 -0.1582 -2.3801
  331SOL     OW  991   0.116   1.462   2.061  0.0530 -0.0389 -0.1850
  331SOL    HW1  992   0.176   1.382   2.069 -2.5809  0.7962  0.7005
  331SOL    HW2  993   0.148   1.535   2.122 -2.3453 -1.1362  1.9106
  332SOL     OW  994   3.001   2.624   1.564 -0.2374  0.3797  0.7635
  332SOL    HW1  995   2.948   2.694   1.512 -1.8501 -0.4741 -0.5887
  332SOL    HW2  996   2.937   2.542   1.576  0.3225 -1.3221 -2.3446
  333SOL     OW  997   2.301   0.152   0.686 -0.1944  0.4554  0.1972
  333SOL    HW1  998   2.249   0.118   0.606  1.0132 -0.4606 -1.8952
  333SOL    HW2  999   2.249   0.168   0.770  1.7632 -0.0026  1.0458
  334SOL     OW 1000   0.720   1.963   0.466  0.2595  0.2063 -0.9753
  334SOL    HW1 1001   0.754   1.868   0.482 -0.8010 -4.4366  0.6161
  334SOL    HW2 1002   0.673   1.973   0.379 -0.3362 -0.2078  1.1836
  335SOL     OW 1003   0.168   2.558   3.045 -0.1137  0.2955 -0.2588
  335SOL    HW1 1004   0.083   2.498   3.027 -1.4230  1.0470  2.2450
  335SOL    HW2 1005   0.257   2.511   3.045  2.9051  1.6438 -2.6904
  336SOL     OW 1006   3.092   2.571   2.073  0.4074  0.1712  0.2311
  336SOL    HW1 1007   0.004   2.546   1.978 -0.0124 -0.2926  0.5506
  336SOL    HW2 1008   3.083   2.487   2.135 -3.3243  1.0319  2.1907
  337SOL     OW 1009   2.073   2.423   2.316 -0.3093  0.0593  0.4613
  337SOL    HW1 1010   2.074   2.523   2.304  0.1033  3.7977 -0.9445
  337SOL    HW2 1011   2.162   2.389   2.286 -2.5054 -0.3627  0.6645
  338SOL     OW 1012   0.600   0.164   0.540  0.7619 -0.2873  0.1959
  338SOL    HW1 1013   0.627   0.259   0.526  1.6807  0.3554  1.8567
  338SOL    HW2 1014   0.586   0.117   0.451  0.4544 -1.2174 -2.4460
  339SOL     OW 1015   0.401   0.889   2.187  0.0998  0.0803  0.1081
  339SOL    HW1 1016   0.339   0.829   2.237  2.7024  0.7872 -0.6852
  339SOL    HW2 1017   0.358   0.909   2.097  0.1386 -1.3497 -0.4327
  340SOL     OW 1018   1.871   0.163   0.297  0.4672  0.1969 -0.1271
  340SOL    HW1 1019   1.870   0.256   0.256 -0.2836 -3.0032 -0.3378
  340SOL    HW2 1020   1.773   0.144   0.337 -3.5679  0.4157 -0.2641
  341SOL     OW 1021   2.097   0.927   0.961  0.2008 -0.0553 -0.0442
  341SOL    HW1 1022   2.010   0.867   0.951 -1.4283 -3.8732  0.7031
  341SOL    HW2 1023   2.166   0.909   0.892  3.0631 -0.5376 -0.3260
  342SOL     OW 1024   2.281   0.129   3.066  0.5039  0.2394  0.0101
  342SOL    HW1 1025   2.377   0.119   3.037  1.4483  0.2741  0.8716
  342SOL    HW2 1026   2.270   0.139   0.064 -0.3595 -1.0861 -2.7768
  343SOL     OW 1027   1.259   2.205   1.624 -0.3817  0.2840 -0.1137
  343SOL    HW1 1028   1.354   2.239   1.657  2.9330  0.2718  0.0277
  343SOL    HW2 1029   1.246   2.111   1.660  1.2021 -1.7355  1.3887
  344SOL     OW 1030   2.231   2.850   0.737  0.2976 -0.7810 -0.5780
  344SOL    HW1 1031   2.298   2.772   0.728 -0.8038  0.2299 -0.9573
  344SOL    HW2 1032   2.277   2.938   0.711  2.8439 -1.5958 -1.0440
  345SOL     OW 1033   2.938   2.493   0.208  0.1641  0.0679  0.2386
  345SOL    HW1 1034   2.975   2.575   0.252 -0.7162 -1.6789 -0.4102
  345SOL    HW2 1035   2.921   2.418   0.279 -0.0821  1.0309 -0.5421
  346SOL     OW 1036   2.695   1.970   0.915 -0.6501  0.0043  0.0949
  346SOL    HW1 1037   2.599   2.009   0.923  1.7676 -1.5844  0.6877
  346SOL    HW2 1038   2.773   2.038   0.917 -2.3602  3.3188  1.2548
  347SOL     OW 1039   1.683   1.915   1.896  0.4152 -0.4075 -0.2620
  347SOL    HW1 1040   1.627   1.997   1.929 -3.0972  4.6619  0.3859
  347SOL    HW2 1041   1.657   1.827   1.939  0.3589  0.9484 -2.0050
  348SOL     OW 1042   0.435   1.564   2.420  0.1498 -0.1145 -0.4672
  348SOL    HW1 1043   0.484   1.481   2.392  1.5851 -0.2963  1.9035
  348SOL    HW2 1044   0.416   1.555   2.519  0.1865  2.0405 -2.2194
  349SOL     OW 1045   2.490   1.425   0.910  0.1750  0.0393  0.1510
  349SOL    HW1 1046   2.522   1.504   0.966 -1.2265 -2.9137  0.3395
  349SOL    HW2 1047   2.520   1.436   0.813 -2.5693 -0.3886 -0.3931
  350SOL     OW 1048   2.885   2.700   1.123  0.2095  1.0212 -0.1217
  350SOL    HW1 1049   2.802   2.750   1.166 -0.7389  1.8564  1.1366
  350SOL    HW2 1050   2.936   2.646   1.192 -0.3037 -1.2436 -0.7097
  351SOL     OW 1051   0.547   0.007   1.977 -0.1753  0.9122 -0.1943
  351SOL    HW1 1052   0.483   3.091   1.898 -0.2632  2.3494  0.6958
  351SOL    HW2 1053   0.530   0.096   2.027  1.0680  2.3001  1.0866
  352SOL     OW 1054   1.078   1.609   0.834 -0.1938 -0.3517 -0.7582
  352SOL    HW1 1055   1.085   1.509   0.854 -0.6671 -2.4576  1.6198
  352SOL    HW2 1056   1.166   1.651   0.800 -1.8333 -0.5644  0.0128
  353SOL     OW 1057   1.132   1.676   2.571  0.3556 -0.1857  0.2011
  353SOL    HW1 1058   1.121   1.671   2.472 -0.4390  0.9793  3.4699
  353SOL    HW2 1059   1.071   1.622   2.633 -0.3380 -0.8962  1.6445
  354SOL     OW 1060   1.486   0.031   0.930  0.1514  0.2987  0.4946
  354SOL    HW1 1061   1.437   3.051   0.888  2.6192 -0.7100 -1.0892
  354SOL    HW2 1062   1.430   0.076   1.001 -1.2656  1.3185 -1.5461
  355SOL     OW 1063   2.726   1.452   0.645  0.1984  0.5897  0.1824
  355SOL    HW1 1064   2.760   1.546   0.660  4.0418 -0.3789  1.1392
  355SOL    HW2 1065   2.756   1.408   0.558 -2.1328  0.7705  0.5274
  356SOL     OW 1066   2.523   1.666   2.337  0.4168 -0.1234  0.1131
  356SOL    HW1 1067   2.462   1.736   2.303  2.1620 -0.4454  0.5159
  356SOL    HW2 1068   2.619   1.698   2.324 -1.6102  2.8919 -1.8662
  357SOL     OW 1069   0.478   2.701   1.531 -0.3536 -0.2080  0.0357
  357SOL    HW1 1070   0.478   2.802   1.507  0.0974  1.5493  1.7101
  357SOL    HW2 1071   0.568   2.662   1.499 -1.7024  2.8827 -1.6026
  358SOL     OW 1072   2.366   1.056   1.626  0.0277 -0.3051 -0.0430
  358SOL    HW1 1073   2.286   1.097   1.676 -1.0268  2.4270  0.7271
  358SOL    HW2 1074   2.351   0.954   1.622  2.5304  0.9425  0.9643
  359SOL     OW 1075   2.338   2.807   2.652 -0.5809  0.0290  0.0076
  359SOL    HW1 1076   2.238   2.805   2.653  0.6834 -1.0705 -3.0962
  359SOL    HW2 1077   2.375   2.905   2.650 -0.1349  1.6527 -1.3562
  360SOL     OW 1078   0.811   0.424   0.891  0.0355  0.1869  0.0326
  360SOL    HW1 1079   0.893   0.428   0.950 -5.0869  1.1795 -2.7918
  360SOL    HW2 1080   0.784   0.520   0.863  0.2117 -0.9993 -1.8968
  361SOL     OW 1081   1.965   3.099   1.338 -0.0175  0.0181 -0.1331
  361SOL    HW1 1082   1.912   0.083   1.319 -1.3377 -0.7865 -1.3696
  361SOL    HW2 1083   2.011   3.101   1.433 -1.0032  1.4073  0.9105
  362SOL     OW 1084   1.348   0.980   0.819 -1.3101 -0.0122 -0.3380
  362SOL    HW1 1085   1.425   1.039   0.847  1.5490  0.4835  1.6989
  362SOL    HW2 1086   1.345   0.902   0.886 -0.1005 -1.0080  2.2386
  363SOL     OW 1087   2.287   1.518   2.759  0.2220 -0.0997 -0.1646
  363SOL    HW1 1088   2.240   1.560   2.840 -0.2151 -1.1724  1.3905
  363SOL    HW2 1089   2.270   1.417   2.755  2.0782  0.9830 -1.4270
  364SOL     OW 1090   0.154   0.322   0.995 -0.1236  0.3041 -0.8622
  364SOL    HW1 1091   0.242   0.329   1.048  0.0570  0.7444  0.3530
  364SOL    HW2 1092   0.088   0.390   1.038 -2.4585  0.5420 -2.2895
  365SOL     OW 1093   0.071   2.732   0.142  0.1200  0.0351  0.2613
  365SOL    HW1 1094   0.106   2.666   0.074 -0.2464  0.3480  1.6344
  365SOL    HW2 1095   0.036   2.684   0.227 -0.7733 -0.9808  0.5153
  366SOL     OW 1096   2.253   2.265   2.935  0.0487  0.0148  0.1275
  366SOL    HW1 1097   2.159   2.227   2.965  0.0555  1.6459  0.4291
  366SOL    HW2 1098   2.278   2.340   3.000 -1.6737 -0.3816  0.2430
  367SOL     OW 1099   2.828   2.541   2.905 -0.2808  0.0739  0.2297
  367SOL    HW1 1100   2.750   2.479   2.937 -1.7974 -1.0218  2.2673
  367SOL    HW2 1101   2.918   2.500   2.928  2.5446  0.1163 -1.0391
  368SOL     OW 1102   0.368   1.811   0.758 -0.1797  0.0939  0.1593
  368SOL    HW1 1103   0.421   1.774   0.836 -2.4597  0.0758 -2.1142
  368SOL    HW2 1104   0.269   1.822   0.779  2.3602  3.4106  2.6806
  369SOL     OW 1105   0.803   2.607   2.896 -0.0140 -0.6478  0.4611
  369SOL    HW1 1106   0.844   2.572   2.805  0.8822 -0.3806 -0.4945
  369SOL    HW2 1107   0.878   2.635   2.959 -3.9848 -0.4385  0.2268
  370SOL     OW 1108   0.206   1.097   0.640 -0.2164  0.2266 -0.1269
  370SOL    HW1 1109   0.144   1.167   0.678  1.9431 -1.4000  2.1434
  370SOL    HW2 1110   0.156   1.009   0.654 -1.9513 -0.7087  1.3938
  371SOL     OW 1111   1.932   2.655   0.966  0.6317 -0.3646 -0.5568
  371SOL    HW1 1112   1.921   2.625   0.866 -0.4482 -0.6608 -3.8340
  371SOL    HW2 1113   1.892   2.590   1.033 -0.2842  1.9373  1.5805
  372SOL     OW 1114   0.286   0.910   2.837  0.2862 -0.2354  0.2994
  372SOL    HW1 1115   0.283   0.943   2.738  0.7056  2.6468 -1.0857
  372SOL    HW2 1116   0.380   0.902   2.866  0.2567 -1.2276  0.5213
  373SOL     OW 1117   0.057   1.824   0.739  0.1596 -0.1654  0.0601
  373SOL    HW1 1118   3.090   1.762   0.788 -2.2018 -2.2481 -0.2647
  373SOL    HW2 1119   0.054   1.921   0.776 -0.5291  3.1242  0.3541
  374SOL     OW 1120   0.175   2.440   0.393  0.1723 -0.1475  0.1637
  374SOL    HW1 1121   0.204   2.381   0.318 -1.1776  2.0297  1.8236
  374SOL    HW2 1122   0.253   2.491   0.439 -0.9515  0.8228  0.6517
  375SOL     OW 1123   0.514   0.421   0.291 -0.3579  0.0750  0.6134
  375SOL    HW1 1124   0.590   0.419   0.361 -0.5012 -1.1417 -0.6053
  375SOL    HW2 1125   0.474   0.514   0.274  0.7051 -1.5292  1.1862
  376SOL     OW 1126   0.348   2.438   1.950 -0.8377  0.1133 -0.2749
  376SOL    HW1 1127   0.341   2.343   1.911  1.3940 -1.7821 -2.8689
  376SOL    HW2 1128   0.322   2.506   1.882 -1.1041 -0.5469  0.4292
  377SOL     OW 1129   1.540   2.533   0.050  0.4682  0.2116 -0.9237
  377SOL    HW1 1130   1.599   2.574   3.079 -0.9155 -0.5357  1.5865
  377SOL    HW2 1131   1.492   2.454   0.009 -2.1005 -2.0728  1.7572
  378SOL     OW 1132   0.925   0.467   0.469 -0.0859 -0.3002  0.1350
  378SOL    HW1 1133   0.952   0.417   0.384 -0.9954  1.9244 -3.2863
  378SOL    HW2 1134   1.008   0.494   0.520 -1.4344  0.9587  0.5817
  379SOL     OW 1135   0.793   1.654   0.474  0.6008 -0.0233 -0.4225
  379SOL    HW1 1136   0.750   1.623   0.559 -0.7980 -1.3210  1.4073
  379SOL    HW2 1137   0.885   1.617   0.464 -0.9199 -1.1000  0.3251
  380SOL     OW 1138   0.346   2.126   1.299 -0.1902 -0.2961  0.4319
  380SOL    HW1 1139   0.369   2.195   1.227  2.0304  2.3363 -1.4845
  380SOL    HW2 1140   0.358   2.171   1.391 -0.0806  0.8921  1.9438
  381SOL     OW 1141   0.672   1.182   1.600 -0.4060 -0.1899  0.1206
  381SOL    HW1 1142   0.722   1.262   1.633 -0.8606 -1.5400  1.1230
  381SOL    HW2 1143   0.602   1.153   1.669 -0.5241 -0.1609  1.0355
  382SOL     OW 1144   2.227   1.905   0.733  0.2364  0.5501 -0.2799
  382SOL    HW1 1145   2.306   1.846   0.708  0.2008  0.8687  0.4014
  382SOL    HW2 1146   2.229   1.992   0.673  1.1991  1.5504  0.5204
  383SOL     OW 1147   2.803   1.683   2.333 -0.2806  0.6350  0.5946
  383SOL    HW1 1148   2.846   1.708   2.243 -0.1324 -1.5070  1.5668
  383SOL    HW2 1149   2.835   1.747   2.405  1.1202 -1.7093  2.0864
  384SOL     OW 1150   0.084   1.971   2.477 -0.1067  0.1728  0.5385
  384SOL    HW1 1151   0.137   1.884   2.463  0.7909 -4.1034 -3.1471
  384SOL    HW2 1152   0.133   2.049   2.432  0.2431  1.0115 -1.1642
  385SOL     OW 1153   2.752   2.345   0.902  0.0213 -0.3121  0.4997
  385SOL    HW1 1154   2.840   2.289   0.902  2.4496  0.3785 -1.3540
  385SOL    HW2 1155   2.691   2.323   0.823 -0.8968  0.0085  1.6345
  386SOL     OW 1156   1.795   0.848   0.970  0.2409 -0.3248 -0.0130
  386SOL    HW1 1157   1.792   0.855   0.867 -0.8780 -1.0977 -0.8341
  386SOL    HW2 1158   1.767   0.933   1.016 -3.0640 -0.0830  1.5128
  387SOL     OW 1159   0.463   0.530   1.987  0.2166  0.2852 -0.2021
  387SOL    HW1 1160   0.481   0.549   2.086  1.3056 -0.5264 -1.7736
  387SOL    HW2 1161   0.519   0.589   1.929 -0.6932  0.5699 -1.0123
  388SOL     OW 1162   2.397   0.994   2.542  0.2357  0.3718  0.0975
  388SOL    HW1 1163   2.461   1.077   2.534  0.6075  2.0984  0.3223
  388SOL    HW2 1164   2.328   0.982   2.466  0.3141 -3.7594 -0.2026
  389SOL     OW 1165   2.153   1.282   2.080 -0.0737 -0.0491  0.0775
  389SOL    HW1 1166   2.101   1.314   2.001  2.6610  1.4969  2.1341
  389SOL    HW2 1167   2.161   1.178   2.082  1.4266 -1.3284 -1.0701
  390SOL     OW 1168   1.763   2.555   0.392 -0.2364  0.1044  0.2156
  390SOL    HW1 1169   1.765   2.633   0.326 -0.5803  1.4724 -1.2475
  390SOL    HW2 1170   1.862   2.529   0.409 -0.6784 -1.5400 -0.8847
  391SOL     OW 1171   2.031   2.137   1.134 -0.3598 -0.1779 -0.2014
  391SOL    HW1 1172   2.016   2.101   1.038 -0.4643  4.1477  1.4632
  391SOL    HW2 1173   2.087   2.071   1.189 -1.1320  0.1185 -1.1253
  392SOL     OW 1174   2.696   2.849   1.231  0.1812  0.1192  0.0187
  392SOL    HW1 1175   2.629   2.833   1.308  1.1232 -3.4171  2.8873
  392SOL    HW2 1176   2.665   2.903   1.148 -0.3966  3.1253 -4.7640
  393SOL     OW 1177   2.081   1.936   0.088 -0.5803 -0.0473  0.0728
  393SOL    HW1 1178   2.045   1.865   0.151  0.4621  2.3832  1.2164
  393SOL    HW2 1179   2.062   1.912   3.093  1.3796  1.4753  3.6325
  394SOL     OW 1180   0.046   0.158   2.674 -0.3470  0.3434  0.2927
  394SOL    HW1 1181   0.030   0.058   2.647  0.7964  0.7449 -0.9260
  394SOL    HW2 1182   3.074   0.217   2.645 -0.2239 -1.9894  1.8107
  395SOL     OW 1183   1.076   0.713   0.983  0.2489  0.1938  0.7940
  395SOL    HW1 1184   1.019   0.764   1.050  1.6217 -1.8046  0.1250
  395SOL    HW2 1185   1.037   0.723   0.885 -0.6579  1.4389  0.2093
  396SOL     OW 1186   1.245   0.657   3.068 -0.1936 -0.1371 -0.2405
  396SOL    HW1 1187   1.180   0.653   2.989 -0.2475 -2.4479 -1.7203
  396SOL    HW2 1188   1.303   0.740   3.046  0.4509  3.5110 -0.6790
  397SOL     OW 1189   0.457   0.536   2.294  0.0593  0.2556  0.1384
  397SOL    HW1 1190   0.415   0.626   2.327  0.4479  0.4897  1.3030
  397SOL    HW2 1191   0.394   0.456   2.300  0.8777 -0.4159  1.2009
  398SOL     OW 1192   0.840   0.083   0.279  0.1792 -0.1341  0.1776
  398SOL    HW1 1193   0.835   3.084   0.291  2.2050  0.8091  1.2858
  398SOL    HW2 1194   0.746   0.116   0.245 -3.4404  0.1622  0.2323
  399SOL     OW 1195   2.061   2.977   1.891  0.5527 -0.2249 -0.0970
  399SOL    HW1 1196   2.088   2.910   1.824  0.7921  1.8201  1.0351
  399SOL    HW2 1197   2.013   3.058   1.849 -0.0732 -2.4255 -0.6320
  400SOL     OW 1198   0.557   1.653   2.170  0.0686  0.4272 -0.3817
  400SOL    HW1 1199   0.573   1.624   2.268  1.1031 -1.2010  0.7169
  400SOL    HW2 1200   0.473   1.604   2.132  0.4888 -0.7077 -2.2087
  401SOL     OW 1201   0.706   0.326   2.602  0.0759  0.3779  0.3244
  401SOL    HW1 1202   0.796   0.275   2.598  0.0838  0.2270  1.1498
  401SOL    HW2 1203   0.719   0.396   2.677  0.2986 -0.3794  1.4110
  402SOL     OW 1204   3.040   2.228   1.841 -0.7152 -0.0196  0.2353
  402SOL    HW1 1205   3.095   2.174   1.911  0.0151  1.6241  0.9613
  402SOL    HW2 1206   2.957   2.261   1.892 -0.7173  0.2442  2.0395
  403SOL     OW 1207   0.582   1.104   1.874  0.8039 -0.1845 -0.6746
  403SOL    HW1 1208   0.664   1.055   1.907 -1.1991  1.0985 -3.6353
  403SOL    HW2 1209   0.495   1.062   1.910 -2.4000  2.6605  4.2646
  404SOL     OW 1210   0.120   2.827   1.727  0.1483  0.3914  0.4847
  404SOL    HW1 1211   0.096   2.828   1.629  1.8899  0.0618 -0.0497
  404SOL    HW2 1212   0.039   2.855   1.785 -2.7396 -1.2457  0.5222
  405SOL     OW 1213   0.302   0.484   1.788  0.3517  0.2350  0.1567
  405SOL    HW1 1214   0.358   0.496   1.875  1.5848  0.9112  2.0135
  405SOL    HW2 1215   0.323   0.395   1.741  1.3809  2.9205 -2.5338
  406SOL     OW 1216   1.887   2.258   3.050 -0.3531  0.1340 -0.5014
  406SOL    HW1 1217   1.904   2.263   0.049 -0.7610  2.6575  0.2487
  406SOL    HW2 1218   1.932   2.339   3.005  1.6598  2.3857 -0.3283
  407SOL     OW 1219   1.519   1.292   2.128 -0.3211  0.2964 -0.7666
  407SOL    HW1 1220   1.449   1.351   2.085 -0.8039 -0.8612 -0.4472
  407SOL    HW2 1221   1.504   1.295   2.227 -1.3323 -1.8631 -1.7248
  408SOL     OW 1222   0.395   3.085   2.826 -0.1341 -0.2105  0.4808
  408SOL    HW1 1223   0.428   0.058   2.767  1.1226 -0.7414 -0.3862
  408SOL    HW2 1224   0.294   3.065   2.803  1.1095 -1.9078  1.1846
  409SOL     OW 1225   0.115   1.781   0.474  0.2724  0.3514  0.5198
  409SOL    HW1 1226   0.083   1.771   0.571 -0.2543  0.3663 -2.7822
  409SOL    HW2 1227   0.205   1.826   0.477 -2.1911  1.0842 -1.0307
  410SOL     OW 1228   2.649   1.763   0.500  0.4382 -0.2338 -0.2231
  410SOL    HW1 1229   2.617   1.849   0.447  0.5826  3.6464 -0.2886
  410SOL    HW2 1230   2.675   1.700   0.426 -0.5958  0.4457 -2.1883
  411SOL     OW 1231   3.000   0.436   1.065  0.3813 -0.7948 -0.3973
  411SOL    HW1 1232   2.927   0.432   0.994 -1.2319  0.1448  0.1714
  411SOL    HW2 1233   2.976   0.354   1.123  0.7440 -3.3062 -0.0781
  412SOL     OW 1234   1.492   0.877   1.204 -0.1890  0.4964 -0.0721
  412SOL    HW1 1235   1.587   0.883   1.166  1.0134  0.5667  0.8857
  412SOL    HW2 1236   1.458   0.965   1.235  1.0174 -0.3704 -2.7194
  413SOL     OW 1237   0.334   2.826   1.293 -0.3459  0.0686 -0.1589
  413SOL    HW1 1238   0.361   2.923   1.261 -0.0219  1.5713 -0.3359
  413SOL    HW2 1239   0.232   2.807   1.310  1.4786 -0.5613 -0.6066
  414SOL     OW 1240   3.060   1.743   2.879  0.3843 -0.2219  0.0957
  414SOL    HW1 1241   3.002   1.744   2.795  0.9640 -1.7979  2.5365
  414SOL    HW2 1242   0.009   1.835   2.888  0.3442  0.1964  0.1803
  415SOL     OW 1243   0.380   2.241   2.829  0.0377 -0.0816 -0.0910
  415SOL    HW1 1244   0.404   2.180   2.906  0.1767 -0.0574  0.0621
  415SOL    HW2 1245   0.311   2.202   2.761  1.6610  2.2918  0.2670
  416SOL     OW 1246   1.461   0.350   0.494  0.2275  0.0928  0.3507
  416SOL    HW1 1247   1.543   0.394   0.454 -0.9312  2.1399  1.6703
  416SOL    HW2 1248   1.469   0.335   0.593 -1.2658  5.5170 -3.0289
  417SOL     OW 1249   0.220   1.163   0.387 -0.2784  0.0846  0.0607
  417SOL    HW1 1250   0.278   1.083   0.345  2.8721 -1.3063 -1.2096
  417SOL    HW2 1251   0.189   1.143   0.481  1.0899  0.1504 -2.4923
  418SOL     OW 1252   2.487   1.163   2.215  0.7770 -0.4663  1.0231
  418SOL    HW1 1253   2.484   1.259   2.189  2.4243 -0.6667  0.5268
  418SOL    HW2 1254   2.536   1.155   2.307  1.9566  0.5833 -0.1174
  419SOL     OW 1255   0.372   0.653   0.225  0.0517  0.0079 -0.4482
  419SOL    HW1 1256   0.442   0.673   0.152  0.3933 -0.1958  0.0839
  419SOL    HW2 1257   0.291   0.604   0.189  3.0695 -0.0212 -0.1883
  420SOL     OW 1258   0.614   1.357   0.428 -0.0671 -0.4173  0.1420
  420SOL    HW1 1259   0.626   1.385   0.331 -2.2981  2.8320  1.7530
  420SOL    HW2 1260   0.560   1.272   0.438 -3.0552  2.0249  1.1823
  421SOL     OW 1261   0.741   2.309   0.588  0.4754  0.3985  0.4824
  421SOL    HW1 1262   0.780   2.234   0.531 -1.4493 -1.1234 -1.3337
  421SOL    HW2 1263   0.797   2.394   0.585 -2.8584  1.6544  1.8542
  422SOL     OW 1264   0.076   0.893   1.487  0.2491 -0.1757  0.3256
  422SOL    HW1 1265   0.177   0.908   1.485 -0.4868  4.1692  1.2274
  422SOL    HW2 1266   0.058   0.803   1.537 -1.4662  0.0929  0.8992
  423SOL     OW 1267   1.434   1.616   1.630  0.3584 -0.2807  0.1894
  423SOL    HW1 1268   1.410   1.523   1.612  0.9002  0.2917  3.1551
  423SOL    HW2 1269   1.417   1.671   1.548 -2.5879  0.1167 -1.4276
  424SOL     OW 1270   2.002   1.170   2.835 -0.1282 -0.2047 -0.1328
  424SOL    HW1 1271   1.974   1.210   2.927 -0.9729 -0.2397 -1.0712
  424SOL    HW2 1272   1.929   1.170   2.765 -1.4491 -1.7756  1.8323
  425SOL     OW 1273   0.013   0.416   1.921  0.1032 -0.2805 -0.0540
  425SOL    HW1 1274   0.107   0.455   1.944  3.3359  1.2105 -0.1763
  425SOL    HW2 1275   3.048   0.493   1.896  2.4290  0.8525  0.7560
  426SOL     OW 1276   2.662   2.738   2.517  0.0774  0.3187 -0.1283
  426SOL    HW1 1277   2.750   2.710   2.567 -0.2624 -1.6690  1.6614
  426SOL    HW2 1278   2.576   2.739   2.575 -3.0206 -0.4585 -0.0634
  427SOL     OW 1279   1.046   0.698   2.403 -0.4301 -0.3561  0.4073
  427SOL    HW1 1280   0.995   0.682   2.315  0.5985  1.5730 -0.4632
  427SOL    HW2 1281   1.144   0.726   2.393  2.7171  1.8052  1.2029
  428SOL     OW 1282   2.093   0.992   2.036  0.5802  0.2424 -0.6492
  428SOL    HW1 1283   2.184   0.944   2.039  0.3825 -0.3336 -0.3896
  428SOL    HW2 1284   2.057   0.970   1.941  1.7445  2.1262  1.3603
  429SOL     OW 1285   2.921   2.835   0.520 -0.6419 -0.6406  0.4962
  429SOL    HW1 1286   3.007   2.878   0.552  0.1060 -0.1405 -1.2775
  429SOL    HW2 1287   2.885   2.880   0.437  0.6975  0.5832  1.7166
  430SOL     OW 1288   1.938   1.616   2.261 -0.2068 -0.0791  0.6154
  430SOL    HW1 1289   1.872   1.538   2.244  0.0981 -0.5575 -0.4493
  430SOL    HW2 1290   1.881   1.697   2.278  2.0046 -3.2464 -0.6419
  431SOL     OW 1291   0.166   1.976   1.191 -0.3834 -0.5153  0.1738
  431SOL    HW1 1292   0.213   1.893   1.160 -1.4400  3.0302 -0.5092
  431SOL    HW2 1293   0.230   2.039   1.236 -0.0363 -1.5433 -0.7025
  432SOL     OW 1294   1.836   3.084   2.615  0.0184 -0.0220 -0.2528
  432SOL    HW1 1295   1.923   3.061   2.569 -0.3030  0.2156  0.6734
  432SOL    HW2 1296   1.849   0.073   2.669 -0.0642  0.4050 -0.1313
  433SOL     OW 1297   1.531   3.094   2.128 -0.4774 -0.5583  0.1356
  433SOL    HW1 1298   1.464   0.065   2.093  0.2626  0.4126 -1.6958
  433SOL    HW2 1299   1.618   0.038   2.159  0.4169  1.1541  0.4070
  434SOL     OW 1300   0.640   2.545   2.159  0.0962  0.6217 -0.4848
  434SOL    HW1 1301   0.569   2.565   2.230  0.2671 -0.5119  1.8147
  434SOL    HW2 1302   0.642   2.619   2.091  0.2737 -2.9829 -1.4171
  435SOL     OW 1303   0.164   2.066   0.300  0.0525 -0.4229 -0.0788
  435SOL    HW1 1304   0.227   2.132   0.251  1.3672 -1.2476 -0.8427
  435SOL    HW2 1305   0.171   2.076   0.401  0.2098  1.9061  2.2400
  436SOL     OW 1306   0.620   0.694   1.816  0.2556 -0.1705 -0.0704
  436SOL    HW1 1307   0.666   0.621   1.764  1.1843  1.0429 -0.1854
  436SOL    HW2 1308   0.547   0.737   1.760 -0.5140 -1.6434  0.8243
  437SOL     OW 1309   0.473   2.641   2.350  0.0349  0.3031  0.3134
  437SOL    HW1 1310   0.492   2.730   2.401 -1.0063  2.2221  2.5945
  437SOL    HW2 1311   0.389   2.600   2.378  2.4512 -0.4633  1.5436
  438SOL     OW 1312   0.758   1.750   1.330 -0.0365  0.6807 -0.0942
  438SOL    HW1 1313   0.702   1.832   1.319 -1.1107 -1.0022 -0.6637
  438SOL    HW2 1314   0.723   1.687   1.402  1.3146 -1.0828 -0.0556
  439SOL     OW 1315   1.938   0.894   2.834 -0.1575 -0.0082  0.0184
  439SOL    HW1 1316   1.990   0.979   2.816  1.0994 -1.7763 -3.5843
  439SOL    HW2 1317   2.002   0.819   2.863 -1.5623 -0.4650  1.2779
  440SOL     OW 1318   0.663   0.423   0.032 -0.1363 -0.2941  0.8607
  440SOL    HW1 1319   0.580   0.420   0.087  0.0890  0.0942 -2.0895
  440SOL    HW2 1320   0.750   0.468   0.075  2.9688  0.3663  0.8036
  441SOL     OW 1321   0.689   2.232   1.315  0.5540 -0.0108 -0.0071
  441SOL    HW1 1322   0.690   2.316   1.376  0.0522 -1.3852 -1.6682
  441SOL    HW2 1323   0.722   2.267   1.224  0.0332 -1.3923  0.3733
  442SOL     OW 1324   2.935   1.646   0.740  0.4407  0.0131 -0.1926
  442SOL    HW1 1325   2.908   1.738   0.698  0.2426  1.1594 -0.9923
  442SOL    HW2 1326   2.898   1.632   0.835 -1.4018 -1.5516  0.6533
  443SOL     OW 1327   2.551   2.067   2.695 -0.3125 -0.2591  0.3098
  443SOL    HW1 1328   2.555   2.044   2.594  0.4148  1.2267  1.9587
  443SOL    HW2 1329   2.509   1.995   2.751  0.6964  4.7298  1.5264
  444SOL     OW 1330   1.463   1.138   2.960 -0.5038  0.1956  0.6191
  444SOL    HW1 1331   1.369   1.166   2.978  2.2987 -3.0248  0.2864
  444SOL    HW2 1332   1.499   1.170   2.868  0.0634 -3.0592 -2.4392
  445SOL     OW 1333   2.711   2.904   1.800 -0.1533  0.0793 -0.1415
  445SOL    HW1 1334   2.671   2.960   1.725 -0.7870 -0.2809  0.4099
  445SOL    HW2 1335   2.682   2.933   1.893 -0.6750  0.4402 -0.7389
  446SOL     OW 1336   0.270   1.126   1.044 -0.0455 -0.2658  0.4133
  446SOL    HW1 1337   0.319   1.205   1.006  2.9221  0.8221  0.0591
  446SOL    HW2 1338   0.175   1.154   1.070 -1.1403 -1.3182 -2.4772
  447SOL     OW 1339   1.091   1.958   1.015  0.3232  0.4131 -0.4182
  447SOL    HW1 1340   1.011   2.003   1.050  4.1175 -0.7525  0.4881
  447SOL    HW2 1341   1.099   1.866   1.053  1.2382  1.4961 -0.2645
  448SOL     OW 1342   1.046   1.151   1.660  0.4500 -0.1136  0.1681
  448SOL    HW1 1343   1.017   1.179   1.563 -2.1394  2.6211 -0.9636
  448SOL    HW2 1344   1.069   1.051   1.660  0.3935 -1.9804 -0.4803
  449SOL     OW 1345   2.772   2.053   2.267 -0.6864  0.2840  0.1187
  449SOL    HW1 1346   2.738   2.148   2.271  0.1526 -0.9578  0.5894
  449SOL    HW2 1347   2.779   2.018   2.171  0.7502 -1.5004 -2.5365
  450SOL     OW 1348   0.119   1.883   1.734  0.1538  0.3885  0.1310
  450SOL    HW1 1349   0.094   1.809   1.804  0.4476 -2.0039 -1.0424
  450SOL    HW2 1350   0.214   1.871   1.701 -0.2017  0.5834 -1.4522
  451SOL     OW 1351   2.223   0.585   1.192  0.9720 -0.2355 -0.0556
  451SOL    HW1 1352   2.233   0.682   1.205 -0.3854 -2.9073  0.9737
  451SOL    HW2 1353   2.170   0.563   1.110  2.2986 -0.4410  1.2037
  452SOL     OW 1354   0.847   1.207   0.573 -0.2926  0.4648  0.8684
  452SOL    HW1 1355   0.788   1.288   0.544 -0.3727  2.3104 -0.2500
  452SOL    HW2 1356   0.946   1.232   0.567 -3.1558  0.2983 -1.5325
  453SOL     OW 1357   1.499   2.061   0.541 -0.5432 -0.0068 -0.3742
  453SOL    HW1 1358   1.476   2.132   0.474  1.2516 -1.0534 -0.5955
  453SOL    HW2 1359   1.527   2.098   0.628 -0.0559  0.8409  1.8549
  454SOL     OW 1360   0.408   1.855   3.089  0.0217 -0.4315  0.1165
  454SOL    HW1 1361   0.484   1.809   3.038 -0.7412  1.5431 -1.3688
  454SOL    HW2 1362   0.343   1.789   0.028  3.0034  3.5215 -1.9438
  455SOL     OW 1363   1.301   0.876   0.506  0.3495  0.6446 -0.0432
  455SOL    HW1 1364   1.223   0.842   0.446 -3.1847  1.0721 -1.0901
  455SOL    HW2 1365   1.270   0.931   0.578  0.9991 -1.7275  1.3139
  456SOL     OW 1366   2.132   2.351   1.262 -0.3119  0.4607  0.1615
  456SOL    HW1 1367   2.059   2.277   1.252  0.2324 -0.0079  0.0971
  456SOL    HW2 1368   2.159   2.371   1.358 -0.5436  0.6842  1.2107
  457SOL     OW 1369   1.842   2.970   3.076 -0.0699 -0.0114  0.1891
  457SOL    HW1 1370   1.880   2.979   0.066  2.9305 -0.8238 -1.2127
  457SOL    HW2 1371   1.914   2.981   3.006  1.0864  0.5899 -0.9644
  458SOL     OW 1372   2.171   0.870   0.274  0.0463  0.4525  0.2017
  458SOL    HW1 1373   2.165   0.969   0.251 -1.6413  2.2896 -0.5834
  458SOL    HW2 1374   2.208   0.854   0.368  1.8320 -2.4599  1.4259
  459SOL     OW 1375   2.962   0.335   2.584  0.4743  0.3898 -0.0777
  459SOL    HW1 1376   3.010   0.422   2.555  0.6853 -1.0300  1.1348
  459SOL    HW2 1377   2.884   0.315   2.521  1.9328  0.1119  0.4623
  460SOL     OW 1378   2.801   0.938   3.007  0.0487  0.0106 -0.1898
  460SOL    HW1 1379   2.704   0.954   3.030 -0.5502  1.0470 -1.3970
  460SOL    HW2 1380   2.814   0.925   2.908  0.3051  0.2639  1.3481
  461SOL     OW 1381   2.843   2.591   0.882 -0.2588  0.1133 -0.2018
  461SOL    HW1 1382   2.860   2.631   0.973 -0.8104  1.8646 -1.9406
  461SOL    HW2 1383   2.789   2.502   0.897 -1.3625 -1.6698 -1.2865
  462SOL     OW 1384   3.059   0.011   1.616  0.3565  0.0518  0.0174
  462SOL    HW1 1385   3.056   0.107   1.647  0.4781 -4.3748  0.8364
  462SOL    HW2 1386   0.026   0.001   1.542  0.2256  0.2287  2.6761
  463SOL     OW 1387   2.069   1.707   2.603 -0.8198 -0.1143 -0.3181
  463SOL    HW1 1388   2.091   1.617   2.558 -1.4725  2.3878  0.9688
  463SOL    HW2 1389   1.975   1.701   2.640  1.2440 -0.0971 -1.3560
  464SOL     OW 1390   0.691   2.885   1.509  0.0486  0.0456 -0.7898
  464SOL    HW1 1391   0.751   2.927   1.581  2.3942  0.0612  1.8169
  464SOL    HW2 1392   0.616   2.945   1.480  0.3901 -1.3456 -3.3569
  465SOL     OW 1393   0.682   0.194   1.428 -0.0909  0.3976 -0.0941
  465SOL    HW1 1394   0.692   0.206   1.527  0.0611 -1.9412 -1.6501
  465SOL    HW2 1395   0.621   0.115   1.406  1.9109  0.3662 -1.1749
  466SOL     OW 1396   1.637   2.831   1.963  0.7222 -0.3026 -0.1678
  466SOL    HW1 1397   1.583   2.745   1.972  0.3032 -2.4377  1.3116
  466SOL    HW2 1398   1.583   2.914   1.992 -0.2120  1.1137 -1.8916
  467SOL     OW 1399   0.600   2.001   1.035 -0.2005 -0.2697  0.3582
  467SOL    HW1 1400   0.599   1.903   1.014 -2.2357  1.7084  0.2489
  467SOL    HW2 1401   0.516   2.045   1.005  0.9233  2.1387  0.6461
  468SOL     OW 1402   2.508   1.506   2.583 -0.7523 -0.1581  0.0321
  468SOL    HW1 1403   2.507   1.553   2.495  1.6353 -0.8105  2.4182
  468SOL    HW2 1404   2.428   1.529   2.641  2.2285  1.3819 -3.7085
  469SOL     OW 1405   1.063   1.828   0.337  0.3436  0.2048 -0.0060
  469SOL    HW1 1406   1.115   1.745   0.309 -0.2796  0.0405 -1.9768
  469SOL    HW2 1407   1.048   1.843   0.440 -0.8898 -0.9934  0.3346
  470SOL     OW 1408   2.265   1.214   1.413 -0.1981 -0.1203 -0.1557
  470SOL    HW1 1409   2.283   1.316   1.425  2.7861  0.7584  1.5313
  470SOL    HW2 1410   2.301   1.165   1.491  0.2906 -0.4921 -0.5982
  471SOL     OW 1411   0.377   2.413   3.042  0.2561 -0.1111  0.5064
  471SOL    HW1 1412   0.345   2.353   2.967 -0.2509  0.7188  4.5220
  471SOL    HW2 1413   0.477   2.417   3.047 -2.6679  3.4848 -0.2892
  472SOL     OW 1414   2.986   1.895   1.937  0.3735 -0.2871 -0.2635
  472SOL    HW1 1415   3.023   1.884   1.840  0.5747  0.4509 -2.6189
  472SOL    HW2 1416   2.894   1.938   1.933  1.3026 -0.5508  3.2353
  473SOL     OW 1417   0.816   2.904   0.339  0.3366 -0.0059  0.3558
  473SOL    HW1 1418   0.912   2.888   0.371  0.2598 -2.2937  0.9346
  473SOL    HW2 1419   0.799   2.848   0.256 -0.4427 -0.9713 -2.7947
  474SOL     OW 1420   2.451   2.672   0.742  0.5350  0.6265 -0.1794
  474SOL    HW1 1421   2.421   2.574   0.744 -0.5897 -0.6489  2.5282
  474SOL    HW2 1422   2.550   2.683   0.736 -0.3588 -0.1670 -1.7304
  475SOL     OW 1423   2.118   2.803   1.693  0.0568  0.3322 -0.8361
  475SOL    HW1 1424   2.149   2.800   1.600 -0.1784  0.9905  1.6484
  475SOL    HW2 1425   2.126   2.710   1.741 -1.2655 -1.4650  2.1995
  476SOL     OW 1426   0.720   0.674   0.792  0.4157  0.1494 -0.3078
  476SOL    HW1 1427   0.634   0.640   0.741  0.9639 -3.1751 -0.2840
  476SOL    HW2 1428   0.715   0.764   0.837 -0.5031 -0.4854 -2.8578
  477SOL     OW 1429   0.607   2.078   0.711  0.6283  0.2054  0.5835
  477SOL    HW1 1430   0.643   2.173   0.702  0.0027 -0.9767  0.3240
  477SOL    HW2 1431   0.602   2.025   0.627 -0.1878  1.8522  0.1869
  478SOL     OW 1432   3.079   2.312   2.197 -0.4220 -0.6244  0.1156
  478SOL    HW1 1433   3.015   2.314   2.275  1.9757 -5.0855 -1.6726
  478SOL    HW2 1434   3.087   2.221   2.158 -0.1932  0.1700  0.8885
  479SOL     OW 1435   0.117   0.624   1.627 -0.0334  0.1454 -0.2275
  479SOL    HW1 1436   0.168   0.569   1.700 -0.4399  0.0206  0.6274
  479SOL    HW2 1437   0.134   0.595   1.533 -1.0603 -0.9014  2.3267
  480SOL     OW 1438   3.025   2.411   3.045 -0.0399  0.1045  0.2351
  480SOL    HW1 1439   3.000   2.319   3.001 -0.0331 -2.4413 -0.5256
  480SOL    HW2 1440   2.995   2.419   0.038 -0.8096 -1.2604 -4.8043
  481SOL     OW 1441   1.882   2.029   2.230  0.2632 -0.2605  0.2173
  481SOL    HW1 1442   1.942   2.021   2.312 -0.5356 -0.0012  0.4909
  481SOL    HW2 1443   1.936   2.041   2.151  0.1813 -0.9927  1.3524
  482SOL     OW 1444   1.629   2.168   0.014  0.1837  0.9744  0.2593
  482SOL    HW1 1445   1.564   2.162   3.037 -0.8462  0.3759 -0.9557
  482SOL    HW2 1446   1.713   2.221   3.096  0.5390  1.2758  0.1930
  483SOL     OW 1447   0.556   1.964   2.205  0.1338 -0.2067 -0.0361
  483SOL    HW1 1448   0.573   1.916   2.121 -2.2124 -0.1638  0.6258
  483SOL    HW2 1449   0.544   1.899   2.280 -1.1712  3.2890  0.2863
  484SOL     OW 1450   0.023   0.687   1.138  0.0912 -0.0614 -0.3378
  484SOL    HW1 1451   3.075   0.606   1.099 -0.7678 -0.9806  0.3605
  484SOL    HW2 1452   3.062   0.749   1.189  2.7390 -0.3216  0.2015
  485SOL     OW 1453   2.388   0.856   0.470  0.3918 -0.3506  0.3996
  485SOL    HW1 1454   2.354   0.796   0.541  1.2496  1.1366 -3.1599
  485SOL    HW2 1455   2.361   0.953   0.480  1.6630 -1.9216 -1.3341
  486SOL     OW 1456   1.734   0.127   2.231  0.0922  0.0133  0.2261
  486SOL    HW1 1457   1.782   0.217   2.211  1.3224 -0.9037 -1.4059
  486SOL    HW2 1458   1.675   0.133   2.316 -0.4642  3.9235 -0.2867
  487SOL     OW 1459   1.325   1.353   1.025  0.5243  0.0298  0.1046
  487SOL    HW1 1460   1.232   1.349   0.984  1.8461  2.9254 -2.5254
  487SOL    HW2 1461   1.366   1.447   1.014 -0.2369  0.0384  0.3452
  488SOL     OW 1462   2.191   1.389   0.050 -0.2437 -0.3525  0.1183
  488SOL    HW1 1463   2.231   1.305   0.014 -1.1980  0.6073 -0.9853
  488SOL    HW2 1464   2.202   1.473   3.088 -0.3545  1.4977 -1.2563
  489SOL     OW 1465   2.330   0.440   3.086 -0.4187 -0.1694  0.1311
  489SOL    HW1 1466   2.403   0.501   0.016  0.2828 -0.2434  0.0476
  489SOL    HW2 1467   2.364   0.349   3.051  3.1454 -0.3624 -1.2871
  490SOL     OW 1468   1.496   2.736   0.519  0.5011  0.6516  0.2160
  490SOL    HW1 1469   1.582   2.776   0.562  1.3039  2.1552  1.3549
  490SOL    HW2 1470   1.477   2.768   0.423  0.0565  0.9184 -0.0291
  491SOL     OW 1471   0.974   0.754   0.715  0.0780 -0.0573 -0.0921
  491SOL    HW1 1472   0.874   0.726   0.718 -1.2772 -0.2637  1.1706
  491SOL    HW2 1473   1.031   0.702   0.645  0.6171  1.1751  0.6669
  492SOL     OW 1474   1.558   0.215   0.163 -0.4871  0.0787  0.0100
  492SOL    HW1 1475   1.577   0.161   0.250 -0.9049 -1.3466  1.5119
  492SOL    HW2 1476   1.495   0.151   0.110  0.3170  0.2504  0.6143
  493SOL     OW 1477   1.894   2.314   0.225 -0.0727 -0.1905 -0.0460
  493SOL    HW1 1478   1.952   2.380   0.273 -1.0292 -1.4275  0.7396
  493SOL    HW2 1479   1.840   2.250   0.284 -0.6880 -2.2042 -1.4661
  494SOL     OW 1480   0.538   1.059   0.394 -0.1077 -0.2500  0.7646
  494SOL    HW1 1481   0.635   1.025   0.405  2.4929 -2.4615 -2.7781
  494SOL    HW2 1482   0.513   1.037   0.294  0.1260 -0.2499 -0.8205
  495SOL     OW 1483   3.043   2.935   1.055 -0.5554  0.5410 -0.4647
  495SOL    HW1 1484   2.992   2.852   1.082  0.4604  1.8867  0.6916
  495SOL    HW2 1485   0.034   2.904   1.018  2.4032  2.8950 -2.3764
  496SOL     OW 1486   2.359   0.394   1.696 -0.0651  0.6652 -0.3100
  496SOL    HW1 1487   2.461   0.402   1.665  1.7558 -1.2851 -0.6004
  496SOL    HW2 1488   2.325   0.483   1.724  0.1663 -0.8615  1.5535
  497SOL     OW 1489   1.810   1.690   2.643  0.0784 -0.0390 -0.0769
  497SOL    HW1 1490   1.806   1.586   2.626 -1.4009 -1.4491 -0.2423
  497SOL    HW2 1491   1.736   1.743   2.593 -0.5910 -3.4610 -1.5698
  498SOL     OW 1492   1.010   1.886   0.582  0.5976 -0.0826 -0.1628
  498SOL    HW1 1493   0.952   1.890   0.666  0.8469 -0.7328  2.1347
  498SOL    HW2 1494   1.099   1.927   0.597 -1.3104 -1.2467 -0.3285
  499SOL     OW 1495   0.860   2.068   1.055  0.4666 -0.3006 -0.3293
  499SOL    HW1 1496   0.761   2.038   1.046 -0.4999 -2.2885 -2.7410
  499SOL    HW2 1497   0.866   2.165   1.082 -1.6455 -0.2415  0.7542
  500SOL     OW 1498   1.126   2.021   0.054  0.1736  0.1866 -0.0940
  500SOL    HW1 1499   1.041   1.988   0.099  0.5314 -1.4298 -2.6647
  500SOL    HW2 1500   1.197   2.022   0.123 -0.7300 -0.3129 -0.2552
  501SOL     OW 1501   2.366   3.050   1.334  0.0127  0.7011 -0.0541
  501SOL    HW1 1502   2.443   2.990   1.362 -0.2315 -1.7267 -0.6859
  501SOL    HW2 1503   2.309   3.066   1.417 -3.6898 -0.8930  1.3165
  502SOL     OW 1504   0.347   0.819   1.747  0.0281  0.0525 -0.1013
  502SOL    HW1 1505   0.278   0.743   1.751 -1.5505  0.3488 -0.4868
  502SOL    HW2 1506   0.397   0.819   1.657  1.7373 -0.9950  0.1505
  503SOL     OW 1507   2.110   0.726   1.500 -0.3459  0.7925 -0.0720
  503SOL    HW1 1508   2.051   0.693   1.573  1.2440 -0.4361 -0.7832
  503SOL    HW2 1509   2.064   0.767   1.420  1.1466 -0.8722  0.9198
  504SOL     OW 1510   1.475   0.720   2.229  0.3289 -0.1623 -1.0287
  504SOL    HW1 1511   1.442   0.707   2.325  0.5639 -0.1302  1.6299
  504SOL    HW2 1512   1.470   0.816   2.189  0.3738 -1.7667  0.2957
  505SOL     OW 1513   0.830   3.047   2.458 -0.6694 -0.0349 -0.3137
  505SOL    HW1 1514   0.912   0.002   2.483 -0.7433  1.5847  0.2794
  505SOL    HW2 1515   0.805   2.990   2.539 -1.8136  1.0636  2.1267
  506SOL     OW 1516   0.356   0.391   1.405 -0.3771 -0.1527 -0.0551
  506SOL    HW1 1517   0.324   0.339   1.487  0.0518 -0.1690  4.1953
  506SOL    HW2 1518   0.278   0.446   1.367  1.5940  1.7436  1.9149
  507SOL     OW 1519   1.410   0.021   0.062 -0.6728  0.2723  0.5207
  507SOL    HW1 1520   1.334   3.096   0.119  0.9823  1.3741 -0.3329
  507SOL    HW2 1521   1.465   3.036   0.060 -0.3781 -2.5360 -0.1449
  508SOL     OW 1522   2.196   0.385   2.270 -0.3805  0.2959  0.1671
  508SOL    HW1 1523   2.283   0.419   2.312  1.0048 -1.9331 -0.1954
  508SOL    HW2 1524   2.177   0.289   2.305 -1.8602 -2.2783 -0.1657
  509SOL     OW 1525   0.886   1.362   1.686 -0.0852 -0.1870 -0.0368
  509SOL    HW1 1526   0.946   1.275   1.676 -1.3329 -0.8087 -2.6505
  509SOL    HW2 1527   0.944   1.448   1.690 -1.7535  1.3448 -0.9886
  510SOL     OW 1528   0.027   1.321   0.794 -0.5041 -0.0251  0.2255
  510SOL    HW1 1529   3.031   1.286   0.782 -2.5369 -0.4419  2.9345
  510SOL    HW2 1530   0.043   1.365   0.882 -0.9050  2.9892 -3.4289
  511SOL     OW 1531   1.650   1.843   0.973  0.2761  0.2990  0.2809
  511SOL    HW1 1532   1.620   1.944   0.970 -2.7921  2.0515 -3.9059
  511SOL    HW2 1533   1.718   1.829   1.049 -1.1575  0.8009 -2.0545
  512SOL     OW 1534   0.813   0.983   0.434  0.3508 -0.0650 -0.2249
  512SOL    HW1 1535   0.854   1.010   0.347 -1.3960  4.6567  1.5551
  512SOL    HW2 1536   0.820   1.059   0.506  2.3792  0.9400  0.2582
  513SOL     OW 1537   0.505   2.306   0.444  0.7306  0.0031 -0.0025
  513SOL    HW1 1538   0.509   2.380   0.372 -0.7036  1.4919 -1.2404
  513SOL    HW2 1539   0.573   2.316   0.520  0.4071 -0.3712  0.4607
  514SOL     OW 1540   2.552   2.025   2.434 -0.6575  0.5455 -0.4343
  514SOL    HW1 1541   2.471   2.046   2.379  4.3282  0.4075  1.9641
  514SOL    HW2 1542   2.638   2.025   2.384  0.1931 -2.6005 -0.1140
  515SOL     OW 1543   2.447   0.776   0.070 -0.1076 -0.4743  0.0383
  515SOL    HW1 1544   2.537   0.764   0.118 -0.4279 -0.9439  0.7277
  515SOL    HW2 1545   2.367   0.749   0.133 -0.4575  0.0416  1.7648
  516SOL     OW 1546   1.913   3.065   0.866  0.1499  0.2071  1.2775
  516SOL    HW1 1547   1.971   2.995   0.915 -0.3387 -1.4972  0.6145
  516SOL    HW2 1548   1.857   3.034   0.786  0.9737  3.4522 -1.0879
  517SOL     OW 1549   1.403   2.180   2.941 -0.1201 -0.0499 -0.3707
  517SOL    HW1 1550   1.325   2.122   2.917  1.4858 -1.3792  0.2268
  517SOL    HW2 1551   1.447   2.226   2.861  0.3776  2.4435 -0.6553
  518SOL     OW 1552   1.056   0.878   1.681  0.0102 -0.4300 -0.0621
  518SOL    HW1 1553   1.096   0.806   1.622 -0.0396 -4.0445  0.0952
  518SOL    HW2 1554   1.065   0.851   1.777  1.8763  0.6755 -0.5752
  519SOL     OW 1555   3.084   1.414   0.094  0.1373 -0.0464  0.1355
  519SOL    HW1 1556   0.021   1.448   0.183  1.5639  0.2200 -2.4510
  519SOL    HW2 1557   3.013   1.475   0.047 -0.5897  0.7448  0.5827
  520SOL     OW 1558   2.076   2.199   1.972  0.7382  0.5744 -0.3181
  520SOL    HW1 1559   2.148   2.229   2.042  2.0159 -0.8427  2.0323
  520SOL    HW2 1560   2.028   2.106   1.987 -0.8067 -5.6660  2.3214
  521SOL     OW 1561   0.898   2.572   2.657  0.4462  0.4890  0.4083
  521SOL    HW1 1562   0.857   2.636   2.590 -1.9380 -0.9792  0.2044
  521SOL    HW2 1563   0.997   2.589   2.650 -3.7444 -2.3070 -1.3156
  522SOL     OW 1564   2.348   0.216   2.076 -0.0351 -0.2199  0.9208
  522SOL    HW1 1565   2.264   0.267   2.102 -2.6541  0.3519  0.1993
  522SOL    HW2 1566   2.409   0.275   2.018 -0.0838  1.3981  0.8702
  523SOL     OW 1567   1.675   2.224   1.415 -0.5316 -0.1533 -0.5218
  523SOL    HW1 1568   1.617   2.304   1.396  2.3787 -4.1299 -1.6126
  523SOL    HW2 1569   1.761   2.234   1.474  0.9111  0.0167  0.5262
  524SOL     OW 1570   1.553   2.199   0.282  0.0040  0.3595  0.2941
  524SOL    HW1 1571   1.564   2.296   0.293 -0.4780  0.6927 -0.9850
  524SOL    HW2 1572   1.604   2.163   0.201 -3.4845  0.6121 -0.7372
  525SOL     OW 1573   0.204   0.488   0.107 -0.2934 -0.1877 -0.3356
  525SOL    HW1 1574   0.271   0.477   0.030  0.2243  0.5418 -3.7330
  525SOL    HW2 1575   0.198   0.408   0.162  0.3729  5.0784 -1.1035
  526SOL     OW 1576   1.053   2.791   0.415  0.2453 -0.3644  0.6489
  526SOL    HW1 1577   1.025   2.694   0.403 -0.2523  1.9241 -1.1871
  526SOL    HW2 1578   1.074   2.815   0.510 -0.3098 -0.5929 -2.9753
  527SOL     OW 1579   2.828   1.882   0.672 -0.3880  0.1704  0.7981
  527SOL    HW1 1580   2.783   1.898   0.763 -1.1217 -1.6488  0.6245
  527SOL    HW2 1581   2.762   1.844   0.606 -1.5081 -0.1981 -0.7226
  528SOL     OW 1582   0.658   0.972   2.178 -0.1276  0.5090  0.3424
  528SOL    HW1 1583   0.563   0.938   2.170  0.1219  0.7995 -1.7774
  528SOL    HW2 1584   0.713   0.950   2.096  4.3141  2.3772 -0.0999
  529SOL     OW 1585   1.617   1.819   2.525 -0.0586  0.2080  0.2977
  529SOL    HW1 1586   1.534   1.769   2.553  1.9950  1.2394 -1.4729
  529SOL    HW2 1587   1.599   1.920   2.515 -2.5745  2.1612 -0.3759
  530SOL     OW 1588   1.759   1.019   2.421 -0.5472  0.4710 -0.2247
  530SOL    HW1 1589   1.799   1.002   2.328  1.2563  3.3702  3.6874
  530SOL    HW2 1590   1.664   1.051   2.406  1.1967  0.4320  1.5359
  531SOL     OW 1591   0.466   2.440   2.662 -0.0726  0.1037  0.1908
  531SOL    HW1 1592   0.403   2.448   2.581  1.1934 -1.2332 -1.4446
  531SOL    HW2 1593   0.435   2.368   2.730  0.9068 -0.8986  2.8984
  532SOL     OW 1594   2.645   0.842   0.456 -0.2331 -0.5649  0.3911
  532SOL    HW1 1595   2.705   0.911   0.498  0.8808 -0.7981  1.1925
  532SOL    HW2 1596   2.544   0.853   0.469  0.2767 -2.9069 -1.6906
  533SOL     OW 1597   3.036   0.265   1.679  0.3697  0.2530  0.4534
  533SOL    HW1 1598   3.048   0.315   1.767 -1.9052 -0.9676 -0.9749
  533SOL    HW2 1599   3.012   0.322   1.597 -1.0615 -0.9339 -1.0106
  534SOL     OW 1600   0.761   3.019   3.072  0.1150 -0.2567 -0.2018
  534SOL    HW1 1601   0.706   3.076   0.035  0.5468 -1.9631 -1.8974
  534SOL    HW2 1602   0.705   3.003   2.989 -2.9594  0.9868  0.1403
  535SOL     OW 1603   0.255   0.242   0.194  0.2155 -0.2191 -0.6135
  535SOL    HW1 1604   0.270   0.222   0.099  1.0770 -0.2461  1.4924
  535SOL    HW2 1605   0.247   0.156   0.245 -2.4950 -0.1054 -1.1068
  536SOL     OW 1606   0.545   1.715   0.971  0.2092  0.0105  0.3063
  536SOL    HW1 1607   0.525   1.636   1.033 -0.3742 -1.1349 -0.0800
  536SOL    HW2 1608   0.626   1.703   0.916 -1.4801  0.8344  0.7488
  537SOL     OW 1609   1.013   2.778   1.922  0.2602 -0.0913 -0.1772
  537SOL    HW1 1610   1.101   2.816   1.960  4.3054 -0.2355  0.3406
  537SOL    HW2 1611   0.986   2.709   1.991  0.1175 -1.2609  0.4550
  538SOL     OW 1612   0.109   1.977   2.920 -0.4356 -0.2441 -0.6150
  538SOL    HW1 1613   0.102   2.009   3.019  2.0167  2.8879  1.0756
  538SOL    HW2 1614   0.192   1.923   2.887  0.1465 -1.3218 -0.0839
  539SOL     OW 1615   2.769   0.981   2.721 -0.7193  0.4725 -0.1557
  539SOL    HW1 1616   2.687   0.925   2.718  0.3124  3.0465  0.9347
  539SOL    HW2 1617   2.829   0.944   2.641  0.1791 -4.1717 -3.1570
  540SOL     OW 1618   1.880   0.287   2.696 -0.3891  0.1165 -0.0260
  540SOL    HW1 1619   1.841   0.313   2.783  0.0979  0.5872 -1.1714
  540SOL    HW2 1620   1.899   0.372   2.640  1.6236  4.2731 -1.4390
  541SOL     OW 1621   0.638   0.257   2.105  0.0102  0.2229 -0.4559
  541SOL    HW1 1622   0.657   0.206   2.192  0.2933 -0.5740  0.5764
  541SOL    HW2 1623   0.555   0.322   2.107 -1.6462 -0.8886 -1.5629
  542SOL     OW 1624   2.153   2.954   0.166 -0.2784 -0.0437  0.6534
  542SOL    HW1 1625   2.060   2.967   0.198  1.1448 -0.2743  1.5242
  542SOL    HW2 1626   2.211   3.041   0.155  0.2398 -1.6170 -0.4623
  543SOL     OW 1627   1.102   0.024   0.384  0.4000 -0.1156 -0.2173
  543SOL    HW1 1628   1.175   0.094   0.380 -1.1213 -2.1360 -0.7865
  543SOL    HW2 1629   1.015   0.056   0.341 -0.1906  0.5550 -0.7069
  544SOL     OW 1630   2.558   1.383   1.717 -0.4909 -0.3166  0.2447
  544SOL    HW1 1631   2.460   1.375   1.749  4.6928 -1.2429 -0.7562
  544SOL    HW2 1632   2.597   1.291   1.725  0.1417 -0.7174  1.3791
  545SOL     OW 1633   2.149   1.916   1.259 -0.2407 -0.3005  0.4493
  545SOL    HW1 1634   2.184   1.861   1.181  0.7615 -1.3960  0.0272
  545SOL    HW2 1635   2.175   1.874   1.346 -2.1935 -0.5910 -4.7461
  546SOL     OW 1636   0.206   2.996   2.103  0.4488  0.3148  0.6387
  546SOL    HW1 1637   0.250   3.048   2.179 -0.8784  1.9142  2.5790
  546SOL    HW2 1638   0.200   2.900   2.134  1.5225  0.7551  0.5866
  547SOL     OW 1639   1.454   0.565   0.880 -0.8918 -0.1968 -0.2194
  547SOL    HW1 1640   1.428   0.656   0.921  0.1923  2.9706  0.2094
  547SOL    HW2 1641   1.534   0.522   0.923 -2.0747 -0.5186  0.6007
  548SOL     OW 1642   1.571   2.501   2.688 -0.4294 -0.0409  0.2160
  548SOL    HW1 1643   1.506   2.498   2.611  1.6540 -0.7201 -1.1440
  548SOL    HW2 1644   1.600   2.408   2.721  2.1421  2.9570 -0.7835
  549SOL     OW 1645   2.091   0.469   0.120  0.2167 -0.4112  0.4116
  549SOL    HW1 1646   2.052   0.564   0.098 -1.5355  2.0315 -1.1946
  549SOL    HW2 1647   2.187   0.461   0.090 -1.1956  2.5966  0.4652
  550SOL     OW 1648   3.061   2.019   0.529 -0.3911 -0.1412 -0.5613
  550SOL    HW1 1649   2.980   1.993   0.576  1.0565 -2.2906  0.1997
  550SOL    HW2 1650   0.006   1.939   0.478  1.9641 -1.2520 -0.5852
  551SOL     OW 1651   1.195   2.842   2.154  0.1668  0.1904  0.4863
  551SOL    HW1 1652   1.276   2.901   2.148  1.6500  2.0945  1.5495
  551SOL    HW2 1653   1.110   2.888   2.190 -2.0441 -1.7457  1.1776
  552SOL     OW 1654   2.927   2.296   2.469 -0.4610 -0.1437  0.6807
  552SOL    HW1 1655   2.888   2.241   2.547 -1.1090  1.0195  3.4289
  552SOL    HW2 1656   2.854   2.310   2.399  1.6285 -1.1921 -1.8146
  553SOL     OW 1657   0.142   0.202   0.764 -0.0792 -0.6620 -0.0335
  553SOL    HW1 1658   0.139   0.258   0.853 -1.2557  0.3330  0.1783
  553SOL    HW2 1659   0.093   0.111   0.777 -1.4684 -4.3803  0.5453
  554SOL     OW 1660   2.179   2.359   1.570 -0.3733 -0.4004  0.5807
  554SOL    HW1 1661   2.081   2.346   1.583 -0.1717  0.2094 -1.0556
  554SOL    HW2 1662   2.231   2.307   1.636  0.6427 -1.2590  1.1341
  555SOL     OW 1663   1.709   2.233   2.142 -0.1620  0.6946  0.3392
  555SOL    HW1 1664   1.761   2.167   2.204 -2.0537  2.2384 -1.0561
  555SOL    HW2 1665   1.772   2.294   2.098 -0.7281 -2.1101  1.1516
  556SOL     OW 1666   1.262   1.169   1.235  0.1062 -0.7132  0.6702
  556SOL    HW1 1667   1.162   1.156   1.212 -0.5142  0.8331 -1.8495
  556SOL    HW2 1668   1.298   1.238   1.165  2.6509  2.2822 -1.8193
  557SOL     OW 1669   2.090   2.635   2.081 -0.0584  0.0131 -0.0511
  557SOL    HW1 1670   2.167   2.630   2.152  2.5255 -2.3332  0.3242
  557SOL    HW2 1671   2.035   2.722   2.100 -1.5742  3.7604 -0.4490
  558SOL     OW 1672   0.281   2.998   1.848  0.0764 -0.4565  0.5760
  558SOL    HW1 1673   0.261   3.008   1.947 -3.0891  0.2575 -1.8974
  558SOL    HW2 1674   0.223   2.921   1.812  4.5184 -0.3154  2.3283
  559SOL     OW 1675   2.100   0.115   0.469 -0.0206 -0.0077 -0.1528
  559SOL    HW1 1676   2.036   0.033   0.477 -0.4183 -1.1113 -2.0999
  559SOL    HW2 1677   2.047   0.195   0.432 -0.5411  0.1760  1.5283
  560SOL     OW 1678   1.681   2.879   0.659 -0.0264  0.3546  0.3520
  560SOL    HW1 1679   1.668   2.827   0.744 -0.9204  0.0825 -0.3057
  560SOL    HW2 1680   1.618   2.957   0.658  1.9097  1.4875  1.3988
  561SOL     OW 1681   0.936   0.078   1.027  0.1776 -0.1302  0.7756
  561SOL    HW1 1682   0.911   0.159   0.974  3.3475 -1.0506  0.9183
  561SOL    HW2 1683   1.011   0.019   0.990 -1.3837 -3.4014 -0.0920
  562SOL     OW 1684   0.559   0.897   2.489 -0.5131 -0.2657  0.5542
  562SOL    HW1 1685   0.643   0.910   2.436 -2.1278 -0.0627 -0.3583
  562SOL    HW2 1686   0.488   0.952   2.448  1.7902  0.4737  2.6824
  563SOL     OW 1687   1.657   2.107   2.472  0.1896 -0.1240 -0.2066
  563SOL    HW1 1688   1.731   2.170   2.446  0.2803  2.5713  1.2765
  563SOL    HW2 1689   1.596   2.101   2.389  3.8915  0.2006 -1.2009
  564SOL     OW 1690   2.869   1.078   1.119  0.1676 -0.5351  1.0848
  564SOL    HW1 1691   2.798   1.148   1.154 -1.2453  2.7245 -0.3553
  564SOL    HW2 1692   2.868   1.067   1.014  4.0882  1.8285 -1.0658
  565SOL     OW 1693   0.924   0.787   0.025  0.2302 -0.0886 -0.0921
  565SOL    HW1 1694   0.876   0.709   0.066 -0.5674  2.3932 -1.3586
  565SOL    HW2 1695   0.973   0.771   3.037  1.5877 -3.2746 -0.2473
  566SOL     OW 1696   2.228   0.329   2.614  0.5532  0.0123 -0.1625
  566SOL    HW1 1697   2.228   0.228   2.610  0.1009 -2.9588 -1.5028
  566SOL    HW2 1698   2.206   0.372   2.703 -0.9841  0.8764  1.3988
  567SOL     OW 1699   1.972   1.129   0.662  0.4889  0.6434  0.5698
  567SOL    HW1 1700   2.020   1.193   0.723  0.8434 -2.4551 -0.7242
  567SOL    HW2 1701   1.876   1.159   0.644  0.4889  0.0752 -1.2920
  568SOL     OW 1702   1.778   1.849   2.858  0.3549 -0.5272 -0.0243
  568SOL    HW1 1703   1.711   1.819   2.932  1.7024  0.1137  1.5506
  568SOL    HW2 1704   1.795   1.783   2.781  0.7771  0.4654  1.1363
  569SOL     OW 1705   1.935   1.292   3.066 -0.0234  0.3333  0.1398
  569SOL    HW1 1706   1.880   1.377   3.066  1.1899 -0.7166 -2.8514
  569SOL    HW2 1707   2.023   1.309   0.016  0.2111 -2.9950  0.6788
  570SOL     OW 1708   0.398   2.191   1.788 -0.1640  0.0198 -0.4429
  570SOL    HW1 1709   0.391   2.195   1.687  0.3590  0.5153  0.1476
  570SOL    HW2 1710   0.499   2.201   1.801 -1.9219 -0.2043 -2.1720
  571SOL     OW 1711   0.278   0.986   1.966  1.1048  0.1243  0.8996
  571SOL    HW1 1712   0.293   0.918   1.888  1.3516 -3.7052  0.1228
  571SOL    HW2 1713   0.186   1.025   1.956 -0.7125 -0.2040 -1.4060
  572SOL     OW 1714   1.218   1.608   0.295 -0.4914 -0.0405 -0.1976
  572SOL    HW1 1715   1.303   1.573   0.340  1.7180 -1.6161 -1.7636
  572SOL    HW2 1716   1.233   1.636   0.197 -0.0181 -1.0187 -1.3514
  573SOL     OW 1717   1.928   2.135   0.594 -0.7789 -0.1936 -0.1743
  573SOL    HW1 1718   1.856   2.137   0.516  3.8268  2.4593  0.8897
  573SOL    HW2 1719   1.903   2.201   0.672 -2.0076  0.8805  1.9000
  574SOL     OW 1720   0.948   0.122   1.312 -0.0695  0.0606 -0.9009
  574SOL    HW1 1721   0.871   0.169   1.362 -1.5980  0.3268 -1.7550
  574SOL    HW2 1722   0.933   0.112   1.212  0.0967 -2.5800  0.9725
  575SOL     OW 1723   0.653   1.162   1.334 -0.2758  0.1216 -0.2085
  575SOL    HW1 1724   0.644   1.145   1.433  3.1638  0.1147 -2.2592
  575SOL    HW2 1725   0.663   1.261   1.314  0.6169  0.0010 -1.3493
  576SOL     OW 1726   2.569   3.024   1.075  0.2008  0.4828  0.2365
  576SOL    HW1 1727   2.594   2.982   0.982 -0.6199 -1.5875  1.0064
  576SOL    HW2 1728   2.467   3.045   1.082  0.2037  1.1405  0.1742
  577SOL     OW 1729   0.917   1.331   2.062  0.0065  0.6643 -0.0753
  577SOL    HW1 1730   0.857   1.373   1.992  0.0201  2.0523  0.1806
  577SOL    HW2 1731   0.866   1.293   2.143  0.9523  0.2451 -1.0517
  578SOL     OW 1732   1.834   1.186   2.629 -0.7077  0.1246 -0.3670
  578SOL    HW1 1733   1.810   1.129   2.546 -0.1939 -0.3578 -0.7720
  578SOL    HW2 1734   1.849   1.282   2.596  0.3653  1.7804 -0.3834
  579SOL     OW 1735   1.505   2.286   1.752 -0.5231  0.1225  0.5693
  579SOL    HW1 1736   1.603   2.316   1.734  0.8175 -1.3295 -0.7010
  579SOL    HW2 1737   1.503   2.215   1.827 -1.9581  0.0103  1.4580
  580SOL     OW 1738   1.419   1.606   2.599 -0.9342  0.4861  0.3132
  580SOL    HW1 1739   1.420   1.536   2.675  0.8114 -0.6931 -0.4735
  580SOL    HW2 1740   1.327   1.624   2.573  2.8796 -0.4210  0.9021
  581SOL     OW 1741   1.218   1.120   2.341 -0.0945 -0.0823 -0.3571
  581SOL    HW1 1742   1.194   1.080   2.433  1.2216  0.2919 -0.8271
  581SOL    HW2 1743   1.186   1.216   2.330  3.7856 -0.2242  0.3755
  582SOL     OW 1744   0.964   1.229   1.399  0.0071  0.0306 -0.2459
  582SOL    HW1 1745   0.883   1.284   1.373  1.6595  1.9247 -0.8307
  582SOL    HW2 1746   0.976   1.151   1.339  3.7099 -0.6567  3.0120
  583SOL     OW 1747   1.109   1.226   1.914 -0.7258  0.5853  0.9944
  583SOL    HW1 1748   1.074   1.204   1.822 -0.2386  2.2260  2.3884
  583SOL    HW2 1749   1.040   1.282   1.965  2.0622  4.3431 -0.4046
  584SOL     OW 1750   2.433   2.682   0.467 -0.1227 -0.3398 -0.3159
  584SOL    HW1 1751   2.466   2.732   0.544 -1.8498 -0.9233 -0.8891
  584SOL    HW2 1752   2.484   2.711   0.380  2.8302 -0.1843 -1.6682
  585SOL     OW 1753   1.769   0.185   2.971 -0.1564 -0.5901 -0.0362
  585SOL    HW1 1754   1.858   0.212   3.017 -1.6800 -0.4808 -0.3324
  585SOL    HW2 1755   1.771   0.082   2.961 -0.3467 -0.5765  1.4519
  586SOL     OW 1756   0.139   2.395   1.052  0.3809  0.3041 -0.0572
  586SOL    HW1 1757   0.095   2.403   0.963 -1.0798 -0.1367 -0.2609
  586SOL    HW2 1758   0.075   2.424   1.125  0.5833 -0.0485 -0.8672
  587SOL     OW 1759   1.606   1.735   3.059 -0.0924  0.2449 -0.0612
  587SOL    HW1 1760   1.537   1.774   0.024 -3.3740 -2.0856  1.0482
  587SOL    HW2 1761   1.565   1.652   3.017  0.1106 -2.0537 -1.3857
  588SOL     OW 1762   0.392   0.267   1.151 -0.1804  0.0398  0.5898
  588SOL    HW1 1763   0.476   0.283   1.093 -1.6667  1.8319  0.2635
  588SOL    HW2 1764   0.393   0.320   1.236  1.3838  0.7142 -0.3915
  589SOL     OW 1765   1.171   0.191   0.763  0.1699  0.4012 -0.1739
  589SOL    HW1 1766   1.074   0.193   0.740  1.1118  0.2482 -0.0973
  589SOL    HW2 1767   1.212   0.281   0.785  4.2429 -1.4044 -1.1689
  590SOL     OW 1768   1.192   1.027   2.599 -0.0932 -0.0982  0.2546
  590SOL    HW1 1769   1.263   0.984   2.656 -0.4969 -1.8972 -0.3480
  590SOL    HW2 1770   1.119   1.068   2.660  1.4098 -0.9079  1.0210
  591SOL     OW 1771   2.676   2.349   2.334  0.0454  0.0122 -0.0248
  591SOL    HW1 1772   2.581   2.350   2.368  0.9281  1.2855 -2.8871
  591SOL    HW2 1773   2.697   2.443   2.303 -0.7610 -1.5136 -2.9167
  592SOL     OW 1774   2.162   1.648   1.626  0.0663  0.0718  0.1173
  592SOL    HW1 1775   2.064   1.662   1.603  0.7691  2.1036  0.1527
  592SOL    HW2 1776   2.206   1.601   1.550 -0.9262 -2.0297  1.2921
  593SOL     OW 1777   1.266   0.759   1.516  0.5046 -0.0727  0.5680
  593SOL    HW1 1778   1.182   0.792   1.462 -3.7197 -2.1724 -1.1233
  593SOL    HW2 1779   1.276   0.657   1.505  2.1904 -1.1539 -0.4424
  594SOL     OW 1780   2.775   1.151   2.365 -0.5087  0.0430 -0.1912
  594SOL    HW1 1781   2.810   1.248   2.366  0.2767  1.2050 -1.5505
  594SOL    HW2 1782   2.810   1.093   2.290 -0.7851 -1.0398  1.0653
  595SOL     OW 1783   3.046   0.058   0.452 -0.3621  0.0037 -0.0583
  595SOL    HW1 1784   3.018   0.061   0.548 -2.2969  2.8144  2.8204
  595SOL    HW2 1785   2.972   0.025   0.391  0.3892 -0.1061  1.6912
  596SOL     OW 1786   0.049   1.456   1.061 -0.3579  0.1858 -0.5143
  596SOL    HW1 1787   0.013   1.366   1.086 -1.4677  2.6451 -0.4575
  596SOL    HW2 1788   0.019   1.521   1.135 -0.0751 -0.8158  0.6500
  597SOL     OW 1789   1.548   1.626   0.614  0.5195 -0.0744  0.0955
  597SOL    HW1 1790   1.624   1.650   0.674 -0.4042 -0.4666  0.7070
  597SOL    HW2 1791   1.541   1.684   0.529 -0.8118  1.1235 -1.1208
  598SOL     OW 1792   0.326   2.613   1.752 -0.5265  0.6792 -0.3368
  598SOL    HW1 1793   0.388   2.652   1.679 -1.4575  0.5984 -0.3020
  598SOL    HW2 1794   0.243   2.667   1.755  3.4354 -3.2288 -0.6193
  599SOL     OW 1795   2.923   1.455   2.664  0.2396  0.1803 -0.1561
  599SOL    HW1 1796   2.858   1.395   2.713 -0.3883  2.5852 -2.6235
  599SOL    HW2 1797   2.899   1.555   2.675  1.0857 -0.1676  1.5639
  600SOL     OW 1798   0.764   1.045   3.089  0.2273 -0.4950 -0.0269
  600SOL    HW1 1799   0.799   1.088   0.077  0.7416  0.9866  0.2399
  600SOL    HW2 1800   0.822   0.966   3.059 -0.6800  1.0111 -1.2736
  601SOL     OW 1801   0.656   0.905   0.923  0.1708 -0.4014 -0.0591
  601SOL    HW1 1802   0.579   0.901   0.990  1.4667  1.3432  0.6183
  601SOL    HW2 1803   0.655   0.998   0.886  0.9670  2.0298 -2.4084
  602SOL     OW 1804   1.248   2.219   0.428 -0.6538  0.1808 -0.1462
  602SOL    HW1 1805   1.255   2.320   0.417 -3.8741 -2.3799  1.7692
  602SOL    HW2 1806   1.155   2.190   0.454  3.0992 -0.6675  1.2833
  603SOL     OW 1807   1.148   2.465   1.968 -0.2741  0.7840 -1.0102
  603SOL    HW1 1808   1.216   2.542   1.958  0.4967 -0.6016 -2.5693
  603SOL    HW2 1809   1.073   2.495   2.030 -1.5989  0.3307  1.6144
  604SOL     OW 1810   0.259   0.273   2.583  0.3965 -0.2006  0.2348
  604SOL    HW1 1811   0.170   0.239   2.620 -3.3295 -0.4361 -1.6573
  604SOL    HW2 1812   0.250   0.297   2.485 -2.4217 -0.1806 -2.2338
  605SOL     OW 1813   2.645   1.193   1.233  0.1618 -0.1283 -0.3223
  605SOL    HW1 1814   2.549   1.172   1.210  1.2966 -0.9200  1.3621
  605SOL    HW2 1815   2.682   1.141   1.313 -1.3439 -0.1580  1.1530
  606SOL     OW 1816   0.618   1.673   2.697  0.4413 -0.6908 -0.1283
  606SOL    HW1 1817   0.604   1.736   2.617  0.2136  0.2201  0.6125
  606SOL    HW2 1818   0.680   1.599   2.676 -0.9829 -0.3154 -2.1249
  607SOL     OW 1819   0.479   3.030   0.200  0.4208 -0.2160 -0.1098
  607SOL    HW1 1820   0.390   2.987   0.174 -0.3797  2.3309 -0.8431
  607SOL    HW2 1821   0.517   2.994   0.286 -2.1181 -0.9205  1.8587
  608SOL     OW 1822   2.398   1.856   2.147  0.2258 -0.6384 -0.0590
  608SOL    HW1 1823   2.452   1.866   2.056  2.1136  2.0468 -3.0918
  608SOL    HW2 1824   2.311   1.806   2.130  2.9446 -0.4083 -2.8360
  609SOL     OW 1825   2.727   0.235   0.839  0.3786 -0.7529 -0.0043
  609SOL    HW1 1826   2.808   0.179   0.870  0.1305  1.8506  0.6698
  609SOL    HW2 1827   2.643   0.220   0.901 -1.7196 -1.5115  0.3454
  610SOL     OW 1828   0.368   2.610   0.496 -0.1091 -0.3860  0.2703
  610SOL    HW1 1829   0.446   2.647   0.556  1.2507 -0.0119 -0.9364
  610SOL    HW2 1830   0.359   2.667   0.415  2.2599 -2.0864  0.5963
  611SOL     OW 1831   1.596   1.414   0.207  0.8514 -0.2793  0.0237
  611SOL    HW1 1832   1.682   1.380   0.249  0.0430  0.6667 -1.3799
  611SOL    HW2 1833   1.509   1.396   0.256  0.8178  1.6052 -2.6316
  612SOL     OW 1834   0.619   2.484   1.754  0.2285 -0.1640  0.1993
  612SOL    HW1 1835   0.654   2.408   1.813  0.6575 -2.2089  0.6950
  612SOL    HW2 1836   0.527   2.520   1.778  0.3173  0.1468 -1.1343
  613SOL     OW 1837   0.594   2.729   0.619  0.6216 -0.2055  0.3016
  613SOL    HW1 1838   0.575   2.716   0.719  2.4147 -2.5194 -3.0171
  613SOL    HW2 1839   0.665   2.670   0.581 -2.3725  0.0048  0.8388
  614SOL     OW 1840   2.331   0.067   1.764 -0.4287  0.8569  0.8182
  614SOL    HW1 1841   2.259   0.133   1.791  2.8843 -0.7604 -1.1191
  614SOL    HW2 1842   2.290   3.077   1.778  0.4549  2.4765 -1.9051
  615SOL     OW 1843   1.720   1.208   0.526 -0.7402  0.4517  0.3550
  615SOL    HW1 1844   1.636   1.152   0.519 -1.3878 -1.7881  0.0809
  615SOL    HW2 1845   1.759   1.232   0.431  1.1811  1.8004  0.5008
  616SOL     OW 1846   1.824   1.273   0.293  0.7599 -0.1428  0.5847
  616SOL    HW1 1847   1.899   1.340   0.307 -1.8061 -2.4370  0.9558
  616SOL    HW2 1848   1.854   1.182   0.259 -1.5557  1.6778  0.8879
  617SOL     OW 1849   1.034   0.698   2.875  0.4149 -0.0647  0.1641
  617SOL    HW1 1850   1.036   0.619   2.812 -0.9098 -0.7554  0.6647
  617SOL    HW2 1851   1.009   0.784   2.830  1.3713 -0.1048  2.8184
  618SOL     OW 1852   0.758   2.925   2.060  0.2101  0.3306 -0.1981
  618SOL    HW1 1853   0.752   2.840   2.002  0.5605 -0.7178 -1.3940
  618SOL    HW2 1854   0.697   3.001   2.033  0.1769  0.2950  1.6328
  619SOL     OW 1855   2.945   1.447   1.420 -0.3013  0.1056 -0.0097
  619SOL    HW1 1856   3.015   1.503   1.368 -1.5363  2.6680  0.1206
  619SOL    HW2 1857   2.850   1.485   1.417 -0.2000  0.0076  0.1634
  620SOL     OW 1858   2.953   0.700   2.807  0.3111 -0.2645  0.3452
  620SOL    HW1 1859   3.001   0.624   2.852 -1.0135  1.0758 -0.3674
  620SOL    HW2 1860   3.020   0.776   2.795 -2.0053 -0.6711 -0.5939
  621SOL     OW 1861   2.335   2.074   2.294  0.2214 -0.2559  0.1736
  621SOL    HW1 1862   2.366   1.995   2.236 -0.7408  1.9530 -2.1871
  621SOL    HW2 1863   2.249   2.041   2.338 -3.7533 -0.4346 -1.1807
  622SOL     OW 1864   1.051   0.612   2.136 -0.1158  0.3111 -0.2370
  622SOL    HW1 1865   0.975   0.547   2.139  2.3366 -2.9383 -0.5051
  622SOL    HW2 1866   1.138   0.560   2.134  1.6643  0.8921 -0.2362
  623SOL     OW 1867   0.794   1.184   2.249 -0.0215  0.5035 -0.2617
  623SOL    HW1 1868   0.747   1.108   2.204  1.8529 -0.7494  0.6991
  623SOL    HW2 1869   0.825   1.140   2.340  0.1701 -2.8274  1.2616
  624SOL     OW 1870   2.664   0.703   0.212 -0.4479 -0.6927 -0.1946
  624SOL    HW1 1871   2.673   0.752   0.299 -1.7225 -1.0870 -3.3927
  624SOL    HW2 1872   2.754   0.699   0.163 -2.0723  0.2286 -0.9675
  625SOL     OW 1873   0.863   1.996   0.786 -0.1430 -0.6537 -0.5230
  625SOL    HW1 1874   0.764   2.002   0.760  1.5038 -2.5749 -1.3561
  625SOL    HW2 1875   0.872   1.968   0.886 -2.7171 -1.1755  2.2079
  626SOL     OW 1876   1.737   0.824   2.635  0.2521  0.0478 -0.0612
  626SOL    HW1 1877   1.778   0.843   2.724  0.9495 -2.2305  0.1908
  626SOL    HW2 1878   1.754   0.899   2.566 -2.2879 -0.1015  0.3532
  627SOL     OW 1879   1.403   2.798   2.772  0.3162 -0.3146 -0.2754
  627SOL    HW1 1880   1.487   2.856   2.769 -0.5512  0.5569 -2.4863
  627SOL    HW2 1881   1.418   2.714   2.720 -0.6584  5.7105  1.2405
  628SOL     OW 1882   2.282   2.936   2.312  0.1251 -0.0930 -0.5368
  628SOL    HW1 1883   2.339   3.004   2.360 -1.8034  0.7838 -2.0180
  628SOL    HW2 1884   2.239   2.984   2.230  0.7802 -1.0722 -0.4119
  629SOL     OW 1885   0.725   0.079   2.822  0.1440  0.3009 -0.1072
  629SOL    HW1 1886   0.672   0.116   2.746  3.3541  0.4709 -1.4109
  629SOL    HW2 1887   0.723   0.139   2.900  1.9391 -1.2487 -1.3449
  630SOL     OW 1888   0.939   0.207   2.625 -0.6239 -0.1803 -0.1506
  630SOL    HW1 1889   0.989   0.152   2.555 -2.8841 -2.2020 -0.7545
  630SOL    HW2 1890   0.978   0.202   2.717  0.5431  1.6797 -0.3154
  631SOL     OW 1891   2.097   1.347   0.768  0.3430  0.5305  0.3732
  631SOL    HW1 1892   2.056   1.415   0.829  0.0913  0.9707  0.7455
  631SOL    HW2 1893   2.162   1.383   0.698  0.0099 -2.8634  1.7280
  632SOL     OW 1894   1.940   0.930   1.804  0.1460 -0.1450  0.0893
  632SOL    HW1 1895   1.962   0.847   1.751  1.1343  0.1259 -0.0818
  632SOL    HW2 1896   1.839   0.950   1.809 -2.6099 -1.3242  2.4534
  633SOL     OW 1897   1.238   1.713   0.055  0.5783  0.0828 -0.6473
  633SOL    HW1 1898   1.167   1.716   3.083 -0.1670  0.4843 -0.1137
  633SOL    HW2 1899   1.279   1.809   0.060 -1.7611  0.7876  1.3465
  634SOL     OW 1900   2.561   3.101   1.641  0.0319 -0.7484 -0.0044
  634SOL    HW1 1901   2.474   0.035   1.683 -0.5391 -0.8998  0.0130
  634SOL    HW2 1902   2.640   0.054   1.673  1.7389 -4.0914 -0.1862
  635SOL     OW 1903   1.685   0.404   0.931  0.0897  0.3338  0.4088
  635SOL    HW1 1904   1.718   0.487   0.980 -2.8797  1.1462 -2.0050
  635SOL    HW2 1905   1.675   0.316   0.985 -2.0881 -2.2247 -0.7545
  636SOL     OW 1906   0.910   1.118   0.210  0.0094 -0.1251  0.2917
  636SOL    HW1 1907   0.933   1.216   0.231  1.2025  0.8024 -0.6979
  636SOL    HW2 1908   0.990   1.069   0.160 -2.2051 -2.2117 -1.1082
  637SOL     OW 1909   2.745   2.151   3.057  0.1742  0.3792 -0.0335
  637SOL    HW1 1910   2.753   2.139   0.061  0.8161  0.4271 -0.9581
  637SOL    HW2 1911   2.837   2.139   3.012  3.0286 -1.5176 -0.9114
  638SOL     OW 1912   1.664   2.671   2.876 -0.4421 -0.4973 -0.1390
  638SOL    HW1 1913   1.664   2.767   2.850 -0.2306 -2.1357 -3.1245
  638SOL    HW2 1914   1.639   2.611   2.797  0.8252 -0.9770 -1.5429
  639SOL     OW 1915   1.345   1.536   1.346  0.3643 -0.4286  0.0366
  639SOL    HW1 1916   1.263   1.473   1.376 -1.7141 -2.6779 -1.7396
  639SOL    HW2 1917   1.332   1.635   1.362 -0.9175 -0.8693 -0.2177
  640SOL     OW 1918   2.032   2.705   0.614 -0.2986 -0.4963 -0.0795
  640SOL    HW1 1919   2.085   2.750   0.684 -0.6614 -0.3253 -3.1700
  640SOL    HW2 1920   2.086   2.624   0.585 -2.5018 -1.4224 -0.6768
  641SOL     OW 1921   3.054   0.010   2.927  0.2681 -0.2610 -0.6497
  641SOL    HW1 1922   3.012   0.074   2.859  0.3908  0.6809  1.5847
  641SOL    HW2 1923   3.062   0.055   3.021 -2.2135 -2.7274  0.0089
  642SOL     OW 1924   2.986   0.869   1.264  0.1246 -0.3058  0.3557
  642SOL    HW1 1925   2.949   0.954   1.226 -2.0824  1.7811  2.0557
  642SOL    HW2 1926   3.064   0.892   1.324  1.5028  0.5175 -2.0200
  643SOL     OW 1927   0.721   1.533   1.996 -0.2950 -0.5614  0.4643
  643SOL    HW1 1928   0.680   1.583   2.072 -0.4312 -0.5323 -2.2573
  643SOL    HW2 1929   0.782   1.594   1.937  0.2726 -1.4000 -1.5211
  644SOL     OW 1930   1.838   2.331   0.748 -0.1006  0.4536 -0.0338
  644SOL    HW1 1931   1.934   2.314   0.778  0.0027  0.1400 -1.6645
  644SOL    HW2 1932   1.810   2.430   0.730 -1.2630 -1.9916  1.6433
  645SOL     OW 1933   1.963   1.986   0.913 -0.2097  0.2957  0.5280
  645SOL    HW1 1934   1.980   2.051   0.839  3.0359 -0.5990  1.0121
  645SOL    HW2 1935   2.002   1.894   0.894  2.4434  0.2818  0.8528
  646SOL     OW 1936   1.143   2.376   2.866  0.3507  0.4721  0.0791
  646SOL    HW1 1937   1.209   2.412   2.934 -0.5912 -1.0793  0.7665
  646SOL    HW2 1938   1.068   2.312   2.907 -1.4618 -1.4828 -1.2342
  647SOL     OW 1939   0.715   2.685   1.909 -0.4937  0.1743 -0.1181
  647SOL    HW1 1940   0.807   2.676   1.868  0.2545 -0.3890 -1.8384
  647SOL    HW2 1941   0.659   2.629   1.848 -0.4448  2.0952 -1.1620
  648SOL     OW 1942   1.686   0.707   1.811  0.2029 -0.2650  0.3352
  648SOL    HW1 1943   1.647   0.655   1.731  1.0078 -2.4752  0.1946
  648SOL    HW2 1944   1.665   0.661   1.895 -0.5341  1.4491 -2.8812
  649SOL     OW 1945   1.778   2.105   0.395  0.3055 -0.4171 -0.1186
  649SOL    HW1 1946   1.796   2.009   0.381 -3.6261  1.3833  0.6609
  649SOL    HW2 1947   1.685   2.122   0.354  0.5856 -0.5777 -0.2333
  650SOL     OW 1948   2.197   1.825   1.818  0.4198 -0.0288 -0.3339
  650SOL    HW1 1949   2.166   1.749   1.758 -1.7598 -0.4605  2.8722
  650SOL    HW2 1950   2.273   1.877   1.770  0.4545 -2.8139  0.8327
  651SOL     OW 1951   1.758   2.757   0.233 -0.4985  0.0274 -0.0635
  651SOL    HW1 1952   1.774   2.859   0.216  0.2870  0.4494 -1.0670
  651SOL    HW2 1953   1.793   2.704   0.149  1.7384 -5.2985  2.5140
  652SOL     OW 1954   0.514   1.919   0.242  0.1417  0.2250 -0.0685
  652SOL    HW1 1955   0.454   1.934   0.323  1.4601 -0.6808  1.7192
  652SOL    HW2 1956   0.458   1.873   0.169 -2.1046 -1.4451 -1.7409
  653SOL     OW 1957   2.520   2.495   1.263  0.1058  0.1045 -0.5724
  653SOL    HW1 1958   2.452   2.487   1.342 -0.6866  1.7951 -0.1964
  653SOL    HW2 1959   2.496   2.577   1.202  0.1550 -0.6830  1.5237
  654SOL     OW 1960   2.900   2.860   1.425  0.2193 -0.4886  0.1249
  654SOL    HW1 1961   2.882   2.924   1.500  0.7404  2.6095 -0.7284
  654SOL    HW2 1962   2.832   2.872   1.348 -0.3171  1.8934 -1.3055
  655SOL     OW 1963   2.950   2.137   0.944  0.7254 -0.2047  0.3115
  655SOL    HW1 1964   3.045   2.117   0.913  0.6635  2.2379 -0.3279
  655SOL    HW2 1965   2.944   2.154   1.046  0.7358  2.0515 -0.0085
  656SOL     OW 1966   0.095   2.783   2.381  0.3085  0.0173  0.3059
  656SOL    HW1 1967   0.012   2.841   2.363  0.8782  0.0998 -2.1701
  656SOL    HW2 1968   0.134   2.743   2.298  0.7170 -0.1670  2.4461
  657SOL     OW 1969   2.664   1.529   3.035  0.5411 -0.1186  0.0167
  657SOL    HW1 1970   2.661   1.436   3.076 -0.3795  0.3953  2.6279
  657SOL    HW2 1971   2.582   1.575   3.076  0.0067  2.1433  3.0453
  658SOL     OW 1972   1.752   1.719   0.750  0.0494  0.1348 -0.2676
  658SOL    HW1 1973   1.827   1.778   0.709  2.4040  0.2356 -0.5411
  658SOL    HW2 1974   1.710   1.767   0.832  0.1748  0.5934  0.8841
  659SOL     OW 1975   1.403   0.622   1.269  0.3794 -0.5193  0.2283
  659SOL    HW1 1976   1.448   0.708   1.231 -0.2938 -0.1137 -2.6291
  659SOL    HW2 1977   1.352   0.641   1.356 -0.1991  1.0888  2.7603
  660SOL     OW 1978   1.512   1.483   3.054  0.0950 -0.0915  0.1360
  660SOL    HW1 1979   1.551   1.458   0.038  0.0933  1.1594 -0.7679
  660SOL    HW2 1980   1.442   1.422   3.022 -1.0412  0.6600  1.2105
  661SOL     OW 1981   0.275   2.166   0.550  0.7013  0.5310 -0.2916
  661SOL    HW1 1982   0.278   2.155   0.650 -0.3262 -1.4200  2.3720
  661SOL    HW2 1983   0.357   2.210   0.517 -2.8732 -2.3580  0.7907
  662SOL     OW 1984   0.235   0.705   2.358 -0.0951 -0.1383  0.0094
  662SOL    HW1 1985   0.204   0.740   2.450 -0.6177 -1.1164 -0.2390
  662SOL    HW2 1986   0.164   0.646   2.317  0.9294  1.4845  0.5403
  663SOL     OW 1987   1.817   1.322   1.006 -0.1322 -0.6294 -0.6903
  663SOL    HW1 1988   1.736   1.276   0.964 -2.6967  0.2183 -1.6082
  663SOL    HW2 1989   1.885   1.253   1.037  1.7353  0.9703  3.5651
  664SOL     OW 1990   0.869   0.854   1.101  0.2678 -0.7291  0.0517
  664SOL    HW1 1991   0.842   0.811   1.193 -0.0057  0.3005  1.3704
  664SOL    HW2 1992   0.787   0.888   1.043 -0.8697  2.9000 -0.6169
  665SOL     OW 1993   1.124   2.825   2.848  0.3489  0.2938  0.1796
  665SOL    HW1 1994   1.071   2.890   2.911  0.6808 -1.3375  1.1547
  665SOL    HW2 1995   1.218   2.862   2.827  0.3789  1.4497  0.5313
  666SOL     OW 1996   2.842   3.095   2.506 -0.3392  0.1286  0.5190
  666SOL    HW1 1997   2.857   3.082   2.604 -2.3941  2.2143 -0.8864
  666SOL    HW2 1998   2.839   0.094   2.483 -0.4415 -0.8308 -0.9908
  667SOL     OW 1999   2.299   1.338   1.808 -0.3836  0.1616  0.0812
  667SOL    HW1 2000   2.295   1.359   1.906 -2.0171  0.1372 -2.2984
  667SOL    HW2 2001   2.227   1.278   1.772  1.2235 -0.4738 -0.7841
  668SOL     OW 2002   0.298   1.053   2.599  0.2742  0.2527  0.4257
  668SOL    HW1 2003   0.338   1.122   2.659  0.1812 -0.2369  1.6843
  668SOL    HW2 2004   0.330   1.079   2.514 -2.0305  1.2124  5.8135
  669SOL     OW 2005   2.038   2.438   2.659 -0.5224  0.3732 -0.3922
  669SOL    HW1 2006   2.051   2.337   2.646  0.6186 -0.5096 -0.1662
  669SOL    HW2 2007   2.110   2.498   2.619  0.1832  1.7200  2.2133
  670SOL     OW 2008   2.235   1.241   2.337 -0.1252 -0.0387 -0.3494
  670SOL    HW1 2009   2.329   1.209   2.342 -2.9928  0.9281 -0.8635
  670SOL    HW2 2010   2.217   1.293   2.250 -0.5935 -0.1799 -1.2071
  671SOL     OW 2011   2.466   1.622   0.063  0.2098  0.5361 -0.2087
  671SOL    HW1 2012   2.411   1.567   0.129 -2.0822  0.2124 -1.2851
  671SOL    HW2 2013   2.443   1.718   0.078  2.0248 -2.7498 -0.7194
  672SOL     OW 2014   2.643   1.054   2.007 -0.0955  0.6197 -0.2669
  672SOL    HW1 2015   2.611   1.066   1.911  0.3485 -1.5371  1.0202
  672SOL    HW2 2016   2.581   1.103   2.074 -0.0045  0.8142 -1.8773
  673SOL     OW 2017   2.731   1.051   1.438  0.3072 -0.2826  0.0607
  673SOL    HW1 2018   2.811   1.021   1.488  0.2936  1.1856  1.2697
  673SOL    HW2 2019   2.666   0.972   1.422 -0.2619 -0.2097 -2.8001
  674SOL     OW 2020   1.977   1.931   1.962  0.3732  0.0486 -0.3543
  674SOL    HW1 2021   2.037   1.897   1.888 -1.0961 -1.9163  1.7542
  674SOL    HW2 2022   1.883   1.939   1.927 -1.7427  2.2954  1.1624
  675SOL     OW 2023   0.361   0.637   0.927  0.0610 -0.0041 -0.1448
  675SOL    HW1 2024   0.398   0.638   1.022  0.9592 -0.1453  0.1012
  675SOL    HW2 2025   0.280   0.698   0.915 -0.0507  2.3189 -1.8132
  676SOL     OW 2026   1.759   1.223   1.287  0.1853 -0.2576 -0.8966
  676SOL    HW1 2027   1.787   1.309   1.330 -1.0872  0.2960 -1.0045
  676SOL    HW2 2028   1.835   1.159   1.293  0.3571  2.7455  1.5575
  677SOL     OW 2029   2.487   1.439   2.184  0.5173  0.2866  0.8405
  677SOL    HW1 2030   2.431   1.474   2.103  0.1504 -0.4491 -2.3171
  677SOL    HW2 2031   2.498   1.522   2.239 -0.1794 -2.6885 -1.5708
  678SOL     OW 2032   0.041   1.516   0.607 -0.2832  0.5571 -0.4312
  678SOL    HW1 2033   0.051   1.452   0.688 -2.6374 -3.1954  2.1550
  678SOL    HW2 2034   3.053   1.567   0.626 -0.2783 -2.0629  0.1363
  679SOL     OW 2035   2.716   2.698   0.665 -0.0267 -0.1020  0.1037
  679SOL    HW1 2036   2.774   2.736   0.593 -2.3344  1.8410  3.3233
  679SOL    HW2 2037   2.768   2.655   0.742  0.3367 -0.0430  0.7997
  680SOL     OW 2038   3.059   2.489   1.254 -0.3734  0.0115  0.2258
  680SOL    HW1 2039   0.021   2.461   1.330  2.8774 -3.3512 -0.9302
  680SOL    HW2 2040   2.968   2.453   1.271  0.0544  0.1165  0.4217
  681SOL     OW 2041   0.518   1.502   1.125 -0.3281  0.5282 -0.1114
  681SOL    HW1 2042   0.615   1.533   1.143  2.8873 -0.2573 -3.4253
  681SOL    HW2 2043   0.473   1.472   1.214 -0.7153 -1.2568 -1.3865
  682SOL     OW 2044   1.682   2.743   0.928 -1.1094  0.2387  0.2252
  682SOL    HW1 2045   1.639   2.749   1.016 -0.1791 -1.1816 -3.5832
  682SOL    HW2 2046   1.780   2.718   0.941 -2.0487 -1.0151  2.2230
  683SOL     OW 2047   2.158   1.562   0.952 -0.2825  0.1518  0.5301
  683SOL    HW1 2048   2.060   1.584   0.923 -2.7534 -1.3343 -1.0430
  683SOL    HW2 2049   2.222   1.536   0.875 -0.0283  1.1579 -0.9083
  684SOL     OW 2050   0.586   1.887   1.916 -0.1659 -0.0647  0.1929
  684SOL    HW1 2051   0.604   1.976   1.868  0.6070 -1.2731 -0.5350
  684SOL    HW2 2052   0.631   1.807   1.880 -0.4681  0.9403  0.4109
  685SOL     OW 2053   2.077   1.447   0.302  0.0288 -0.0781 -0.4943
  685SOL    HW1 2054   2.122   1.420   0.213  0.4440  1.6453 -0.2653
  685SOL    HW2 2055   2.025   1.532   0.285 -0.8591 -0.4608  0.8170
  686SOL     OW 2056   2.806   0.327   0.593 -0.0726  0.4978 -0.4845
  686SOL    HW1 2057   2.767   0.291   0.681  2.0857  0.1774  0.0620
  686SOL    HW2 2058   2.908   0.344   0.606 -1.5951  0.9910 -0.1336
  687SOL     OW 2059   1.241   2.716   0.210 -0.0414 -0.2000 -0.0191
  687SOL    HW1 2060   1.156   2.741   0.263 -1.3799 -0.0412 -1.2392
  687SOL    HW2 2061   1.269   2.617   0.214  0.0705 -0.7575  0.8798
  688SOL     OW 2062   2.126   1.752   2.115  0.4616  0.5859 -0.6205
  688SOL    HW1 2063   2.056   1.699   2.168 -0.2300  0.4456 -1.7993
  688SOL    HW2 2064   2.089   1.803   2.035 -2.0355  0.2676  2.6292
  689SOL     OW 2065   2.566   0.799   2.125 -0.9336 -0.2083  0.8025
  689SOL    HW1 2066   2.590   0.887   2.077  0.2312 -0.5257 -1.3644
  689SOL    HW2 2067   2.595   0.791   2.224 -1.3613 -0.4020 -2.0290
  690SOL     OW 2068   1.865   0.635   1.321  0.3813 -0.2331 -0.5582
  690SOL    HW1 2069   1.815   0.694   1.395 -1.0424  0.6194  0.5705
  690SOL    HW2 2070   1.888   0.545   1.360  1.4142  1.6502 -0.3677
  691SOL     OW 2071   1.111   1.813   1.567  0.6808 -0.3031 -0.1711
  691SOL    HW1 2072   1.084   1.810   1.468 -0.0260 -0.5640 -2.2978
  691SOL    HW2 2073   1.181   1.884   1.579 -0.1995  0.3362 -1.0726
  692SOL     OW 2074   1.672   0.402   1.886 -0.7860  0.2850 -0.1760
  692SOL    HW1 2075   1.650   0.464   1.964  1.1432 -0.5088 -0.7926
  692SOL    HW2 2076   1.618   0.317   1.872 -0.0363  1.8207 -0.7633
  693SOL     OW 2077   0.547   1.052   2.917 -0.3503  0.7938 -0.6975
  693SOL    HW1 2078   0.548   1.099   3.007  2.0187 -0.5222  1.1743
  693SOL    HW2 2079   0.601   0.963   2.926  0.7108 -2.6128  0.2548
  694SOL     OW 2080   2.138   2.917   0.978 -1.0196  0.2539 -0.4241
  694SOL    HW1 2081   2.085   2.849   1.031  0.7478  1.9040  1.9280
  694SOL    HW2 2082   2.183   2.883   0.890  1.6703 -1.1845 -2.8670
  695SOL     OW 2083   1.527   1.505   2.356  0.5608 -0.0126  0.2325
  695SOL    HW1 2084   1.475   1.539   2.276  0.1121  0.7820  0.4269
  695SOL    HW2 2085   1.488   1.539   2.440  1.5670  1.1353 -2.0584
  696SOL     OW 2086   1.588   0.418   1.361  0.5887 -0.2187 -0.0165
  696SOL    HW1 2087   1.528   0.340   1.387  0.1677 -2.1064  3.1158
  696SOL    HW2 2088   1.542   0.482   1.300  1.8214  2.8592 -0.1631
  697SOL     OW 2089   1.480   0.189   1.816 -0.8699 -0.4494  0.3385
  697SOL    HW1 2090   1.491   0.116   1.748  0.3470 -3.0508 -2.7883
  697SOL    HW2 2091   1.424   0.160   1.893 -0.4221  0.5489 -0.1182
  698SOL     OW 2092   1.761   1.388   2.282 -0.5411 -0.8441  0.1921
  698SOL    HW1 2093   1.766   1.385   2.179 -0.1357  1.7993  0.1681
  698SOL    HW2 2094   1.662   1.412   2.309 -0.2769  2.2542 -2.9208
  699SOL     OW 2095   1.490   1.132   1.388  0.4314  0.6171  0.2186
  699SOL    HW1 2096   1.546   1.197   1.329  1.7763 -1.7066  0.8561
  699SOL    HW2 2097   1.395   1.142   1.356  1.7354  0.4985 -1.3961
  700SOL     OW 2098   1.631   0.136   0.415  0.1410 -0.2929  0.2437
  700SOL    HW1 2099   1.606   0.216   0.475 -1.0199 -1.9576  3.0792
  700SOL    HW2 2100   1.595   0.055   0.466 -0.2038  0.9220  3.0877
  701SOL     OW 2101   0.320   0.009   1.596 -0.9359 -0.8547  0.0917
  701SOL    HW1 2102   0.298   3.052   1.680  0.4282  0.4518  1.4335
  701SOL    HW2 2103   0.253   3.092   1.524  0.5109  0.8230  0.5987
  702SOL     OW 2104   1.262   2.815   0.655 -0.8252 -0.4877 -0.0935
  702SOL    HW1 2105   1.277   2.913   0.660 -0.9538 -1.8238 -1.9943
  702SOL    HW2 2106   1.341   2.770   0.612  0.6760  0.7095  0.3073
  703SOL     OW 2107   2.390   2.882   1.975 -1.0647 -0.4875 -0.1389
  703SOL    HW1 2108   2.326   2.906   2.052 -3.6391  1.2596  3.4465
  703SOL    HW2 2109   2.483   2.927   1.992  1.8909 -0.3399 -0.8140
  704SOL     OW 2110   1.262   2.106   0.843 -0.4432  0.0247  0.3616
  704SOL    HW1 2111   1.191   2.059   0.899 -1.1810  0.1788  0.5062
  704SOL    HW2 2112   1.308   2.185   0.888 -0.7759 -0.8748 -2.0925
  705SOL     OW 2113   2.905   1.426   1.857 -0.0814 -0.0129 -0.1327
  705SOL    HW1 2114   2.845   1.404   1.933  2.0811  0.5048 -2.8573
  705SOL    HW2 2115   2.895   1.363   1.778  0.1689  1.8385  0.6840
  706SOL     OW 2116   1.266   0.007   0.605 -0.3665 -0.2780  0.2293
  706SOL    HW1 2117   1.210   3.086   0.523  2.8473 -2.5017 -1.9919
  706SOL    HW2 2118   1.235   0.092   0.654  0.5823  0.3266 -1.3244
  707SOL     OW 2119   1.094   2.393   2.407 -0.2261  0.1831 -0.4324
  707SOL    HW1 2120   0.998   2.412   2.405  0.8794 -1.6731  0.2820
  707SOL    HW2 2121   1.114   2.338   2.488  0.5900 -0.6730  0.7588
  708SOL     OW 2122   0.133   2.361   1.456 -0.4880 -0.0158  0.0983
  708SOL    HW1 2123   0.151   2.275   1.515  0.3991 -0.5047  1.4541
  708SOL    HW2 2124   0.216   2.422   1.448 -1.0183  2.1555  0.4408
  709SOL     OW 2125   2.025   0.565   1.969 -0.1567 -0.4576 -0.2937
  709SOL    HW1 2126   2.001   0.608   2.059  1.6824  0.8718  0.0172
  709SOL    HW2 2127   1.983   0.613   1.888  1.1469 -1.8019 -0.2889
  710SOL     OW 2128   2.676   0.615   1.659  0.0715 -0.2883 -0.0902
  710SOL    HW1 2129   2.654   0.522   1.624  0.6789 -1.1266 -0.8951
  710SOL    HW2 2130   2.727   0.657   1.583  0.1790 -1.3097  0.4067
  711SOL     OW 2131   0.139   2.630   0.674  0.1007 -0.5656 -0.2907
  711SOL    HW1 2132   0.219   2.615   0.612  0.0357 -1.2387  4.3312
  711SOL    HW2 2133   0.116   2.548   0.730 -1.8877  2.4576 -1.6332
  712SOL     OW 2134   0.291   2.443   2.434  0.3273  0.3060 -0.6837
  712SOL    HW1 2135   0.288   2.382   2.353  2.1247 -1.2808 -1.8490
  712SOL    HW2 2136   0.203   2.446   2.485 -0.8891 -0.7254  1.9024
  713SOL     OW 2137   1.520   0.728   0.208 -0.3594 -0.3985  0.2987
  713SOL    HW1 2138   1.587   0.739   0.286  1.1300 -2.0820 -0.6975
  713SOL    HW2 2139   1.561   0.671   0.135 -0.7002 -1.9102  1.2308
  714SOL     OW 2140   1.541   1.818   0.389  0.1233  0.2490 -0.6652
  714SOL    HW1 2141   1.525   1.912   0.438 -2.5565  2.6884  1.5766
  714SOL    HW2 2142   1.518   1.820   0.292  0.3575  0.8738  4.8856
  715SOL     OW 2143   2.683   0.097   0.478 -0.0798 -0.5767 -0.4130
  715SOL    HW1 2144   2.616   0.046   0.533  0.1247 -3.2880  0.6722
  715SOL    HW2 2145   2.713   0.186   0.519  1.0852  1.8497  0.4397
  716SOL     OW 2146   0.599   0.077   2.343 -0.3099  0.2459 -0.0006
  716SOL    HW1 2147   0.577   0.120   2.432 -0.7822 -1.3033  1.0431
  716SOL    HW2 2148   0.676   0.013   2.359  2.2287 -3.2341  0.3687
  717SOL     OW 2149   3.031   0.438   2.951  0.1753  0.1331  0.7660
  717SOL    HW1 2150   3.009   0.434   3.053 -0.4454 -0.2444  0.4311
  717SOL    HW2 2151   3.064   0.345   2.912  0.0261 -1.0007  0.2685
  718SOL     OW 2152   1.167   0.566   0.573 -0.2153  0.6959  0.3463
  718SOL    HW1 2153   1.191   0.507   0.657  1.6952  0.4132  0.6441
  718SOL    HW2 2154   1.245   0.562   0.508 -1.0134  1.4822  1.2766
  719SOL     OW 2155   2.645   2.383   2.972  0.1175 -0.0712 -0.1908
  719SOL    HW1 2156   2.583   2.402   2.893  0.1638  0.0470  1.5548
  719SOL    HW2 2157   2.673   2.281   2.982  0.0214 -3.3076 -0.4768
  720SOL     OW 2158   1.689   0.788   1.474 -0.5898  0.0905 -0.6665
  720SOL    HW1 2159   1.627   0.713   1.509  0.0346  2.0398  1.0861
  720SOL    HW2 2160   1.635   0.870   1.477  0.6626 -0.0799 -0.9575
  721SOL     OW 2161   2.905   0.768   0.890  0.0284  0.1882 -0.7160
  721SOL    HW1 2162   2.860   0.678   0.887  0.7189 -0.2349  0.5369
  721SOL    HW2 2163   3.002   0.763   0.911  1.6918  2.6806  1.5316
  722SOL     OW 2164   1.361   2.064   2.419 -0.1305 -0.3824  0.0372
  722SOL    HW1 2165   1.377   2.164   2.400 -1.2482  1.6167  0.0941
  722SOL    HW2 2166   1.308   2.056   2.508 -0.1823 -1.8684  4.5696
  723SOL     OW 2167   0.660   0.439   0.508  0.6825 -0.3263 -0.3720
  723SOL    HW1 2168   0.760   0.454   0.488  1.3653 -0.4115 -3.3364
  723SOL    HW2 2169   0.617   0.523   0.550  1.2331  0.2036  0.2396
  724SOL     OW 2170   1.016   2.072   2.101  0.4279  0.0019  0.4701
  724SOL    HW1 2171   0.973   2.023   2.020 -0.9823  0.5123  0.5309
  724SOL    HW2 2172   0.946   2.108   2.162  2.6176 -1.1245  1.8109
  725SOL     OW 2173   0.368   0.963   1.413 -0.0438  0.2215 -0.1575
  725SOL    HW1 2174   0.393   0.984   1.318 -4.1767 -1.3406  4.0248
  725SOL    HW2 2175   0.430   0.889   1.450 -2.0281 -2.9288  1.6203
  726SOL     OW 2176   1.808   0.499   0.683  0.1947 -0.1949  0.1439
  726SOL    HW1 2177   1.747   0.474   0.759  0.7051 -0.9983 -1.0393
  726SOL    HW2 2178   1.759   0.489   0.592 -0.9766  0.9801 -1.5231
  727SOL     OW 2179   1.870   1.022   2.168 -0.0315 -0.3506 -0.1976
  727SOL    HW1 2180   1.958   1.017   2.113  1.4007 -0.5441 -2.5201
  727SOL    HW2 2181   1.809   1.098   2.127  2.1354  1.3393  1.3129
  728SOL     OW 2182   1.705   2.656   1.545 -0.4096  0.3705  0.0422
  728SOL    HW1 2183   1.731   2.717   1.625 -0.4394  2.0394 -0.2976
  728SOL    HW2 2184   1.612   2.614   1.557 -0.1910 -0.2998 -0.3637
  729SOL     OW 2185   1.374   0.438   1.775 -0.5571  0.2869 -0.2260
  729SOL    HW1 2186   1.429   0.349   1.777  0.5064 -0.9333  1.1506
  729SOL    HW2 2187   1.349   0.457   1.871 -0.4902 -0.9888 -3.0982
  730SOL     OW 2188   0.898   1.899   1.693 -0.5973  0.0351 -0.0127
  730SOL    HW1 2189   0.883   1.997   1.691 -2.6842 -0.4643  2.2767
  730SOL    HW2 2190   0.991   1.876   1.650  3.1517 -0.1103 -1.9665
  731SOL     OW 2191   0.578   0.160   0.257 -0.1622 -0.1600 -0.2482
  731SOL    HW1 2192   0.546   0.255   0.245  0.0082  2.0735  1.7489
  731SOL    HW2 2193   0.496   0.100   0.238 -0.7016 -0.0120 -0.3792
  732SOL     OW 2194   0.601   0.767   0.079 -0.1678 -0.3113 -0.0602
  732SOL    HW1 2195   0.647   0.790   3.095  0.0696 -0.5433  0.6398
  732SOL    HW2 2196   0.672   0.736   0.143 -0.1435 -2.7274 -0.7894
  733SOL     OW 2197   1.423   1.725   1.863 -0.6511 -0.4831 -0.3273
  733SOL    HW1 2198   1.499   1.705   1.925 -1.9014 -2.3699 -1.5128
  733SOL    HW2 2199   1.436   1.691   1.770 -0.6808  1.9715 -0.6643
  734SOL     OW 2200   2.897   2.735   2.153  0.4826  0.3457 -0.7282
  734SOL    HW1 2201   2.977   2.691   2.109 -3.0536  0.3272 -1.0434
  734SOL    HW2 2202   2.920   2.810   2.217 -3.2560 -3.6113 -1.1187
  735SOL     OW 2203   0.987   2.849   0.917  0.2223  0.2647  0.3022
  735SOL    HW1 2204   1.020   2.784   0.842 -0.7334  1.5349 -2.0527
  735SOL    HW2 2205   1.050   2.930   0.930 -0.7369  1.2054  2.1131
  736SOL     OW 2206   1.421   0.855   2.767 -0.2791  0.9655 -0.2772
  736SOL    HW1 2207   1.427   0.753   2.736 -0.1377 -2.3429  1.0060
  736SOL    HW2 2208   1.419   0.857   2.866  0.6116 -1.2913 -1.2847
  737SOL     OW 2209   0.068   0.728   0.083  0.1200  0.0432  0.1989
  737SOL    HW1 2210   0.121   0.638   0.094  0.9306  0.6832 -0.9147
  737SOL    HW2 2211   0.122   0.810   0.055 -0.0277 -3.1881 -0.3388
  738SOL     OW 2212   0.059   2.793   1.338 -0.2106  0.1606 -0.5314
  738SOL    HW1 2213   3.073   2.819   1.375  0.5154  2.0365  0.3232
  738SOL    HW2 2214   0.045   2.711   1.281 -0.1686 -2.7305  1.9498
  739SOL     OW 2215   1.519   3.086   0.629  0.5338 -0.3545 -0.3474
  739SOL    HW1 2216   1.553   0.069   0.679 -2.4587  0.2682  1.1722
  739SOL    HW2 2217   1.417   3.094   0.630  0.7429  1.6534  1.0369
  740SOL     OW 2218   1.577   2.886   1.144 -0.6141 -0.1171  0.0468
  740SOL    HW1 2219   1.661   2.875   1.202 -2.3948 -2.2078 -0.2970
  740SOL    HW2 2220   1.505   2.910   1.209  1.0035  1.0075 -0.1412
  741SOL     OW 2221   1.993   0.718   0.631 -0.0297  0.0609 -0.4505
  741SOL    HW1 2222   1.915   0.658   0.667  0.9222 -0.0212 -0.3327
  741SOL    HW2 2223   1.960   0.793   0.568 -0.1854 -1.2191 -2.0056
  742SOL     OW 2224   1.079   2.405   1.716 -0.3232 -0.1335  0.1667
  742SOL    HW1 2225   1.137   2.415   1.798 -0.0587  0.2019 -0.2673
  742SOL    HW2 2226   1.123   2.339   1.654  0.5573 -0.3942  0.6511
  743SOL     OW 2227   2.307   0.835   2.102 -0.1178 -0.2902 -0.5058
  743SOL    HW1 2228   2.265   0.865   2.188  2.1260  0.8021 -0.2097
  743SOL    HW2 2229   2.402   0.807   2.129 -2.6197  1.3123  0.4414
  744SOL     OW 2230   2.063   0.414   0.744 -0.5096 -0.0670  0.1143
  744SOL    HW1 2231   2.130   0.435   0.673  2.5813  1.2063  3.4055
  744SOL    HW2 2232   1.968   0.433   0.716  1.7422 -2.1341 -1.3559
  745SOL     OW 2233   2.334   1.575   1.991 -0.1046 -0.3714 -0.5424
  745SOL    HW1 2234   2.283   1.648   2.037 -1.7174 -1.4356 -0.2919
  745SOL    HW2 2235   2.336   1.588   1.890  1.0056  2.3419 -0.8011
  746SOL     OW 2236   1.315   1.697   0.727  0.0390  0.3947  0.0919
  746SOL    HW1 2237   1.279   1.788   0.706 -0.6207  2.5589  2.5621
  746SOL    HW2 2238   1.405   1.683   0.675  0.6558 -2.7655 -1.0984
  747SOL     OW 2239   2.029   1.154   1.084  0.4346  0.2985 -0.2506
  747SOL    HW1 2240   2.015   1.111   1.173 -1.7858 -0.7322  1.4744
  747SOL    HW2 2241   2.052   1.082   1.016  3.4779  0.4660 -2.1357
  748SOL     OW 2242   0.112   3.005   0.125 -0.0971  0.5381  0.3789
  748SOL    HW1 2243   0.116   3.025   0.227 -0.5401 -0.6285  1.6890
  748SOL    HW2 2244   0.098   2.903   0.114  3.0098 -0.0137  1.6773
  749SOL     OW 2245   0.043   0.468   2.265 -0.7420 -0.6847  0.0197
  749SOL    HW1 2246   3.099   0.537   2.326 -1.0141 -0.8758 -0.5402
  749SOL    HW2 2247   3.094   0.447   2.180 -0.5843 -1.1235  0.8874
  750SOL     OW 2248   1.784   2.838   1.734 -0.3823  0.3352 -0.3494
  750SOL    HW1 2249   1.875   2.882   1.738 -2.2670 -1.9088 -1.9674
  750SOL    HW2 2250   1.734   2.839   1.824 -2.6304 -0.3855  3.5265
  751SOL     OW 2251   2.731   0.629   0.624  0.1603  0.1380 -0.2346
  751SOL    HW1 2252   2.677   0.690   0.563  1.5691 -2.5968  1.1665
  751SOL    HW2 2253   2.722   0.529   0.603 -0.2528 -1.0403 -0.7473
  752SOL     OW 2254   0.150   2.831   0.938 -0.4573  0.6019 -0.1188
  752SOL    HW1 2255   0.113   2.774   0.861  0.0499 -2.1464  0.1639
  752SOL    HW2 2256   0.193   2.916   0.902  1.2609  0.1989  0.4783
  753SOL     OW 2257   1.109   0.301   1.423  0.0509 -0.3280  0.6278
  753SOL    HW1 2258   1.056   0.237   1.360 -2.7131  0.5062 -0.9590
  753SOL    HW2 2259   1.128   0.252   1.512  1.5761  0.6291  0.4716
  754SOL     OW 2260   0.805   2.726   2.469 -0.0032  0.0872  0.6418
  754SOL    HW1 2261   0.709   2.759   2.461  0.7515  2.0945 -0.4161
  754SOL    HW2 2262   0.867   2.804   2.452  0.5282 -1.5081 -1.2239
  755SOL     OW 2263   2.296   1.293   0.400 -0.4171 -0.2995 -0.0274
  755SOL    HW1 2264   2.371   1.354   0.365  2.7715  0.9784 -0.5028
  755SOL    HW2 2265   2.205   1.333   0.376  1.0160  0.1096 -0.3494
  756SOL     OW 2266   2.207   1.910   2.747 -0.3436 -0.3711  0.3387
  756SOL    HW1 2267   2.305   1.885   2.765 -0.4282  1.0494 -3.3863
  756SOL    HW2 2268   2.165   1.836   2.693  1.1869 -0.0175  1.0285
  757SOL     OW 2269   1.759   0.205   1.321 -0.0277 -0.5401  0.2439
  757SOL    HW1 2270   1.707   0.297   1.324 -0.3466  2.1734  1.6826
  757SOL    HW2 2271   1.752   0.167   1.226  0.4934 -0.9776 -1.0569
  758SOL     OW 2272   1.517   2.550   0.699  0.0849  0.2153  0.1681
  758SOL    HW1 2273   1.612   2.565   0.734  2.5607  2.9230  0.3946
  758SOL    HW2 2274   1.500   2.614   0.622 -1.1858  0.4236  1.2104
  759SOL     OW 2275   2.455   0.433   1.147  0.4502  0.0265 -0.4820
  759SOL    HW1 2276   2.536   0.495   1.147  0.0125  0.2544  1.7831
  759SOL    HW2 2277   2.375   0.498   1.154  4.2776  0.3235  0.1267
  760SOL     OW 2278   2.372   1.111   1.192 -0.3375  0.1072  0.4914
  760SOL    HW1 2279   2.323   1.169   1.261  1.3367  1.9127  1.2446
  760SOL    HW2 2280   2.326   1.123   1.100 -3.9242  2.1714 -0.9032
  761SOL     OW 2281   0.480   0.605   0.679  1.0965 -0.2223 -0.0987
  761SOL    HW1 2282   0.448   0.672   0.606 -1.3417  1.1138 -0.5463
  761SOL    HW2 2283   0.439   0.629   0.767  1.3999  1.7945  1.0062
  762SOL     OW 2284   1.583   1.997   1.563 -0.4565  0.4229 -0.1620
  762SOL    HW1 2285   1.678   1.976   1.590  0.3718  3.3534  2.0607
  762SOL    HW2 2286   1.584   2.083   1.513 -0.7835 -1.3675  0.9119
  763SOL     OW 2287   1.125   1.429   1.452  0.0180 -0.1545 -0.2919
  763SOL    HW1 2288   1.066   1.349   1.438 -0.6141  1.2607  2.1371
  763SOL    HW2 2289   1.109   1.474   1.543  1.8944  0.8081  0.5942
  764SOL     OW 2290   2.923   1.696   2.089 -0.7177  0.0831  0.0716
  764SOL    HW1 2291   2.950   1.773   2.031 -1.2789 -1.4459  3.0831
  764SOL    HW2 2292   2.984   1.609   2.088  1.4828 -3.2844 -0.5107
  765SOL     OW 2293   1.472   2.396   1.338  0.0803 -0.0832  0.0151
  765SOL    HW1 2294   1.379   2.369   1.362  1.9399  0.8725  1.5140
  765SOL    HW2 2295   1.482   2.461   1.256  0.0849  1.7826 -2.2241
  766SOL     OW 2296   0.045   2.414   2.546  0.0301  0.2371  0.0127
  766SOL    HW1 2297   0.027   2.499   2.597  0.5854 -1.3065 -1.4738
  766SOL    HW2 2298   3.054   2.369   2.522  1.2412 -0.7054 -2.3242
  767SOL     OW 2299   1.350   0.582   2.694 -0.0928  0.2586  0.3335
  767SOL    HW1 2300   1.441   0.535   2.686 -0.1004 -1.2880 -0.5251
  767SOL    HW2 2301   1.268   0.528   2.705 -3.5659 -1.9357 -0.5535
  768SOL     OW 2302   1.331   2.338   0.049 -0.1359  0.0707 -0.0299
  768SOL    HW1 2303   1.360   2.299   0.139  0.2950  0.5121  0.2850
  768SOL    HW2 2304   1.342   2.271   3.076 -0.1189 -3.1513 -0.8397
  769SOL     OW 2305   0.353   2.700   1.049  0.5046  0.0985  0.1822
  769SOL    HW1 2306   0.280   2.751   0.991 -0.8212 -0.0396  1.0078
  769SOL    HW2 2307   0.343   2.730   1.148  0.3776 -1.2715  1.7093
  770SOL     OW 2308   1.411   0.887   3.090 -0.7697  0.3510  0.1876
  770SOL    HW1 2309   1.465   0.968   3.059 -1.3645  2.3928  0.6655
  770SOL    HW2 2310   1.437   0.851   0.077  1.3228 -1.1128 -1.8697
  771SOL     OW 2311   0.299   0.046   2.325  0.1713 -0.1493  0.0922
  771SOL    HW1 2312   0.248   3.082   2.387 -0.2917  2.3537  1.2535
  771SOL    HW2 2313   0.399   0.047   2.354  4.6263  0.7335  1.3449
  772SOL     OW 2314   1.892   2.841   2.072 -0.3832  0.1772  0.7963
  772SOL    HW1 2315   1.951   2.884   1.999  1.1445 -1.6172  0.3895
  772SOL    HW2 2316   1.796   2.840   2.041 -1.6076 -0.7803  3.0882
  773SOL     OW 2317   0.672   2.118   1.802 -0.5951 -0.1101  0.0775
  773SOL    HW1 2318   0.735   2.142   1.731 -2.3021 -0.6315  2.6787
  773SOL    HW2 2319   0.709   2.152   1.893 -0.6272  3.1116  2.2014
  774SOL     OW 2320   1.374   0.196   2.061 -0.6253  0.0873 -0.0934
  774SOL    HW1 2321   1.294   0.150   2.103  1.6200  2.4851 -1.6358
  774SOL    HW2 2322   1.388   0.282   2.110 -0.4644 -2.0254  0.2028
  775SOL     OW 2323   2.125   2.669   0.142  0.2106  0.3532 -0.3881
  775SOL    HW1 2324   2.133   2.769   0.140 -1.3724  0.0696  1.6118
  775SOL    HW2 2325   2.041   2.630   0.096  0.6202  2.1017  0.1307
  776SOL     OW 2326   2.524   0.567   2.393  0.8131 -0.4262 -0.2735
  776SOL    HW1 2327   2.481   0.558   2.483  0.2754  2.3128 -1.8685
  776SOL    HW2 2328   2.578   0.656   2.400  0.4438  3.0567  2.0185
  777SOL     OW 2329   2.514   1.244   2.511  0.1814  0.2747  0.2339
  777SOL    HW1 2330   2.485   1.326   2.557 -0.6168  0.2733  2.5329
  777SOL    HW2 2331   2.616   1.244   2.489  1.4035 -0.5522 -1.2210
  778SOL     OW 2332   2.186   0.956   2.340 -0.2999 -0.2768 -0.4641
  778SOL    HW1 2333   2.175   1.052   2.315  2.2076 -0.7967  2.6682
  778SOL    HW2 2334   2.099   0.919   2.370  0.0302  0.1707 -2.0410
  779SOL     OW 2335   3.060   0.298   0.280 -0.2546  0.1886  0.4702
  779SOL    HW1 2336   0.053   0.334   0.261  0.8469  1.9263  0.7766
  779SOL    HW2 2337   3.059   0.255   0.370  0.4957 -0.4344 -3.2153
  780SOL     OW 2338   2.704   0.593   2.978  0.1735 -0.1553  0.6185
  780SOL    HW1 2339   2.788   0.653   2.971  2.5565 -0.1324  0.4299
  780SOL    HW2 2340   2.726   0.521   3.050  0.9309  0.5051  2.5098
  781SOL     OW 2341   0.134   3.038   1.419  0.0532  0.0593 -0.2989
  781SOL    HW1 2342   0.140   0.005   1.342 -0.3626  2.5716 -0.1295
  781SOL    HW2 2343   0.108   2.946   1.385  0.5219 -0.4740 -1.3935
  782SOL     OW 2344   1.794   2.569   0.653  0.4359 -0.2863 -0.5774
  782SOL    HW1 2345   1.756   2.554   0.556 -3.8469 -0.4676 -4.5379
  782SOL    HW2 2346   1.878   2.629   0.656 -0.8754  1.3040  1.9903
  783SOL     OW 2347   0.771   1.410   1.351  0.0765 -0.3749 -0.3123
  783SOL    HW1 2348   0.782   1.454   1.264 -0.1588  0.0906  3.8111
  783SOL    HW2 2349   0.729   1.475   1.421 -3.0324  0.1567  0.1510
  784SOL     OW 2350   1.582   0.447   2.614  0.0373 -0.4884 -0.4006
  784SOL    HW1 2351   1.540   0.357   2.610  1.5954 -1.1539 -0.1822
  784SOL    HW2 2352   1.630   0.473   2.527  0.6348 -1.2826 -0.3338
  785SOL     OW 2353   2.537   0.261   1.329 -0.4115  0.4361 -0.4201
  785SOL    HW1 2354   2.525   0.307   1.240 -1.2648 -1.6110 -0.3794
  785SOL    HW2 2355   2.448   0.214   1.348  0.6072  0.2142 -0.8750
  786SOL     OW 2356   1.309   2.746   1.559  0.2782 -0.0384  0.2095
  786SOL    HW1 2357   1.354   2.659   1.572 -2.7390  0.4113 -0.0855
  786SOL    HW2 2358   1.207   2.739   1.583  0.0125  0.3320 -0.7683
  787SOL     OW 2359   1.585   0.567   1.602 -0.1695 -0.0316  0.2149
  787SOL    HW1 2360   1.595   0.509   1.521  0.0250 -0.5959  3.2024
  787SOL    HW2 2361   1.504   0.532   1.651  1.1788  1.7492 -1.3185
  788SOL     OW 2362   2.841   1.042   0.412 -0.0829  0.5540  0.5162
  788SOL    HW1 2363   2.908   1.051   0.332  1.7829 -0.6649 -3.3076
  788SOL    HW2 2364   2.873   0.966   0.472  1.3260  3.5291 -1.6776
  789SOL     OW 2365   0.645   1.825   1.587  0.1479 -0.2874 -0.0739
  789SOL    HW1 2366   0.736   1.848   1.635  3.2171 -0.4644  0.5096
  789SOL    HW2 2367   0.619   1.895   1.517 -0.7051 -3.6731  2.5713
  790SOL     OW 2368   0.695   0.515   2.397 -0.3821 -0.3512 -0.2640
  790SOL    HW1 2369   0.687   0.460   2.483  0.4277 -2.0874  2.1371
  790SOL    HW2 2370   0.604   0.513   2.350 -1.6422  0.7603 -1.1496
  791SOL     OW 2371   2.257   0.649   0.633 -0.1627 -0.4552  0.2577
  791SOL    HW1 2372   2.160   0.679   0.633 -1.1340 -0.5149  1.1471
  791SOL    HW2 2373   2.297   0.672   0.726  1.4585  3.1578 -1.4256
  792SOL     OW 2374   1.277   2.842   1.805 -0.3779  0.6183 -0.4319
  792SOL    HW1 2375   1.299   2.771   1.876 -0.0251 -1.7983 -1.2864
  792SOL    HW2 2376   1.291   2.803   1.714 -3.2403  1.3077  4.6927
  793SOL     OW 2377   0.363   3.063   0.855  0.9375  0.1210  0.9518
  793SOL    HW1 2378   0.424   3.059   0.935 -0.9787 -2.0963 -1.3782
  793SOL    HW2 2379   0.359   0.057   0.822  2.8386 -1.0590 -0.2476
  794SOL     OW 2380   0.032   1.090   1.983 -0.2312 -0.2243  0.1711
  794SOL    HW1 2381   0.018   1.176   2.034 -0.4394  0.0362  0.0654
  794SOL    HW2 2382   3.051   1.042   1.958  1.4280  0.5221  1.7701
  795SOL     OW 2383   0.287   2.046   2.282 -0.6838 -0.1042 -0.3083
  795SOL    HW1 2384   0.272   2.144   2.260 -0.7330  0.1492  0.0322
  795SOL    HW2 2385   0.377   2.020   2.240  1.4932  0.4359  1.5193
  796SOL     OW 2386   2.522   0.310   2.289 -0.2620  0.2476 -0.5262
  796SOL    HW1 2387   2.513   0.412   2.316 -0.0707 -0.2048  0.2882
  796SOL    HW2 2388   2.472   0.288   2.201 -2.1991 -0.6912 -0.6287
  797SOL     OW 2389   2.285   2.542   2.571  0.8716 -0.1831  0.5441
  797SOL    HW1 2390   2.336   2.473   2.624 -0.1447 -0.2896  0.0017
  797SOL    HW2 2391   2.307   2.637   2.603  0.9111 -0.2393 -2.1686
  798SOL     OW 2392   3.041   3.058   2.061  0.2599  0.2932  0.2509
  798SOL    HW1 2393   0.041   3.050   2.068 -2.9845 -1.0481 -0.1509
  798SOL    HW2 2394   3.000   3.007   1.981  1.2464 -0.8630 -0.2078
  799SOL     OW 2395   0.269   2.302   2.198 -0.1316  0.0604 -0.3414
  799SOL    HW1 2396   0.164   2.311   2.196 -0.9016  0.0004 -0.8084
  799SOL    HW2 2397   0.315   2.338   2.113  1.4322  0.5438 -0.3280
  800SOL     OW 2398   0.056   2.014   0.067  0.3291  0.5767 -0.2128
  800SOL    HW1 2399   0.114   2.025   0.149 -2.9851 -0.6290 -1.6083
  800SOL    HW2 2400   3.081   1.949   0.101  2.1358  0.5914  1.7636
  801SOL     OW 2401   1.592   1.472   1.369 -0.1493  0.0958 -0.3683
  801SOL    HW1 2402   1.608   1.450   1.468 -2.2415 -0.4060  0.1755
  801SOL    HW2 2403   1.493   1.505   1.359 -0.4418  1.3271  0.8635
  802SOL     OW 2404   0.020   0.711   0.344  0.5470  0.1406  0.1237
  802SOL    HW1 2405   3.052   0.772   0.390  0.9787  1.2712  1.2197
  802SOL    HW2 2406   0.001   0.702   0.242 -0.4744 -1.8047  4.2913
  803SOL     OW 2407   1.265   1.439   1.898 -0.1981 -1.1267 -0.0311
  803SOL    HW1 2408   1.315   1.432   1.805  3.2558 -1.1200 -2.0975
  803SOL    HW2 2409   1.214   1.352   1.909  0.9732  1.8844 -1.0337
  804SOL     OW 2410   1.748   1.549   1.168 -0.2063  0.2642 -0.2591
  804SOL    HW1 2411   1.678   1.523   1.240  0.6456 -0.1488  1.3341
  804SOL    HW2 2412   1.763   1.471   1.105  0.3558  0.9743  0.0967
  805SOL     OW 2413   2.866   1.732   2.680  0.2401 -0.5679  0.2327
  805SOL    HW1 2414   2.846   1.800   2.607  3.0480  1.3613 -0.8097
  805SOL    HW2 2415   2.776   1.697   2.724 -1.9045 -0.1147  0.1358
  806SOL     OW 2416   0.354   2.242   0.188  1.1504 -0.3922  0.7190
  806SOL    HW1 2417   0.401   2.267   0.275  1.3574 -0.0852  1.3348
  806SOL    HW2 2418   0.315   2.329   0.147  0.0315  0.9365  0.9445
  807SOL     OW 2419   2.209   1.638   2.991 -0.8045 -0.1696 -0.2356
  807SOL    HW1 2420   2.297   1.687   2.992 -2.2132  0.6030  1.1672
  807SOL    HW2 2421   2.135   1.708   3.001 -0.8040  0.8382 -0.9125
  808SOL     OW 2422   1.281   2.093   1.180  0.2556 -0.2275 -0.4249
  808SOL    HW1 2423   1.228   2.046   1.110 -0.9746 -1.0415  1.3955
  808SOL    HW2 2424   1.216   2.122   1.260 -1.0951 -0.2185 -0.4622
  809SOL     OW 2425   0.153   0.501   0.439 -0.3361 -0.2883  0.3684
  809SOL    HW1 2426   0.119   0.583   0.396 -1.8597  0.0116 -1.2976
  809SOL    HW2 2427   0.250   0.500   0.461 -1.0191  1.7671 -1.3616
  810SOL     OW 2428   0.989   1.370   0.217 -0.1249  0.0016  0.1975
  810SOL    HW1 2429   1.003   1.422   0.299  2.2865 -2.0537  1.6871
  810SOL    HW2 2430   0.931   1.424   0.155 -1.2705 -1.5901  0.9026
  811SOL     OW 2431   1.800   2.499   1.143 -0.8828 -0.3026  0.0758
  811SOL    HW1 2432   1.786   2.397   1.126  3.1640  0.9993 -1.0871
  811SOL    HW2 2433   1.839   2.510   1.239 -0.8168  0.1996 -0.2988
  812SOL     OW 2434   1.377   2.917   1.361  0.9283 -0.6711  0.8084
  812SOL    HW1 2435   1.373   2.853   1.437  0.4983 -2.5631  0.7449
  812SOL    HW2 2436   1.283   2.949   1.342 -0.2725 -1.9256  0.4171
  813SOL     OW 2437   0.830   2.945   1.758  0.4754  0.3868  0.3838
  813SOL    HW1 2438   0.766   2.989   1.824  1.0706  2.1234 -1.1237
  813SOL    HW2 2439   0.893   2.885   1.808 -1.5394  2.3872 -2.0986
  814SOL     OW 2440   0.960   2.574   2.127 -0.1554  0.2719  0.0081
  814SOL    HW1 2441   1.033   2.557   2.197 -1.3353 -1.3055 -1.2081
  814SOL    HW2 2442   0.867   2.539   2.158  1.4395 -0.6249  0.1570
  815SOL     OW 2443   0.534   2.913   2.958 -0.0523 -0.5445 -0.2341
  815SOL    HW1 2444   0.532   2.824   2.906 -0.2673 -0.8863  1.3702
  815SOL    HW2 2445   0.485   2.989   2.910  1.7298  1.7043  0.9049
  816SOL     OW 2446   2.128   0.703   2.898 -0.3205 -0.8758 -0.0671
  816SOL    HW1 2447   2.139   0.617   2.851 -0.8088  3.6434 -1.4553
  816SOL    HW2 2448   2.102   0.695   2.997  1.2254  1.9039 -0.7052
  817SOL     OW 2449   2.455   2.482   2.224  0.5034  0.7439 -0.4289
  817SOL    HW1 2450   2.542   2.535   2.217 -0.5690 -0.4001  0.0813
  817SOL    HW2 2451   2.369   2.532   2.241 -1.6839 -1.1454 -0.9117
  818SOL     OW 2452   1.075   0.845   0.345 -0.1643 -0.0810  0.1887
  818SOL    HW1 2453   1.089   0.756   0.289 -0.7544  0.5767  2.0893
  818SOL    HW2 2454   0.983   0.844   0.396 -1.7667 -1.2116  0.4233
  819SOL     OW 2455   1.729   1.393   2.866 -0.1874  0.2040  0.0958
  819SOL    HW1 2456   1.770   1.385   2.776 -1.7083 -0.1163  1.8374
  819SOL    HW2 2457   1.760   1.483   2.914  2.4379  2.7298  2.2499
  820SOL     OW 2458   0.083   1.354   2.708  0.0057 -0.4376 -0.2268
  820SOL    HW1 2459   0.001   1.405   2.673 -0.7964 -1.8106  1.8126
  820SOL    HW2 2460   0.155   1.338   2.639  1.7403  0.4494  0.4299
  821SOL     OW 2461   0.335   2.988   0.584 -0.6030 -0.3116 -0.1737
  821SOL    HW1 2462   0.346   3.019   0.682 -0.8701  2.2459 -1.3403
  821SOL    HW2 2463   0.417   2.947   0.544 -1.1132  2.1022 -0.4770
  822SOL     OW 2464   2.412   2.702   2.911  0.3247 -0.0648 -0.0484
  822SOL    HW1 2465   2.416   2.756   2.829 -0.8475 -3.6964  0.2710
  822SOL    HW2 2466   2.503   2.702   2.956  1.9936  0.0516 -0.9576
  823SOL     OW 2467   1.595   0.032   2.462 -0.3006  0.3252  0.2950
  823SOL    HW1 2468   1.676   3.095   2.511 -1.6798 -1.0791  0.7791
  823SOL    HW2 2469   1.550   3.060   2.412 -2.4995 -1.1085 -0.1955
  824SOL     OW 2470   2.771   2.367   1.973 -0.0489  0.0434  0.1442
  824SOL    HW1 2471   2.773   2.459   1.928 -0.7420  0.5567  0.1974
  824SOL    HW2 2472   2.781   2.370   2.078 -2.0117 -1.7152  1.1486
  825SOL     OW 2473   2.918   1.893   2.465  0.4521  0.2121 -0.4779
  825SOL    HW1 2474   3.018   1.911   2.473 -1.4283  0.9452 -1.7976
  825SOL    HW2 2475   2.872   1.971   2.415 -0.7099 -1.0406 -0.3262
  826SOL     OW 2476   1.767   0.819   3.045 -0.0230 -0.0303  0.3717
  826SOL    HW1 2477   1.692   0.878   3.076 -2.6626  0.4468  1.8013
  826SOL    HW2 2478   1.813   0.848   2.961 -1.4842 -0.7312 -1.8576
  827SOL     OW 2479   2.877   1.737   1.715  0.2632  0.0333  0.9249
  827SOL    HW1 2480   2.955   1.687   1.748 -1.1511  0.1928  1.0273
  827SOL    HW2 2481   2.791   1.690   1.744  1.1556 -0.5119  0.8734
  828SOL     OW 2482   2.946   0.220   1.212  0.2909 -0.3268  0.3617
  828SOL    HW1 2483   3.014   0.147   1.215 -1.2740  1.1313 -0.5585
  828SOL    HW2 2484   2.857   0.174   1.240  1.2504  1.2705  0.3743
  829SOL     OW 2485   0.794   1.844   2.461  0.3166 -0.3251  0.3988
  829SOL    HW1 2486   0.815   1.945   2.468 -0.4653 -0.2573 -0.5850
  829SOL    HW2 2487   0.693   1.829   2.443  0.4911  0.3972 -1.9258
  830SOL     OW 2488   0.536   0.796   1.559  0.6076 -0.3558  0.4760
  830SOL    HW1 2489   0.621   0.855   1.574  3.2923 -0.6315 -1.0344
  830SOL    HW2 2490   0.555   0.701   1.516 -1.9384 -4.7333  1.7005
  831SOL     OW 2491   2.476   1.849   2.845  0.3121 -0.1089  0.2438
  831SOL    HW1 2492   2.524   1.763   2.814  1.9100  0.7386 -1.3980
  831SOL    HW2 2493   2.499   1.873   2.937 -0.8270 -3.6561 -2.2251
  832SOL     OW 2494   1.888   2.629   3.087  0.4550  0.0852 -0.4159
  832SOL    HW1 2495   1.930   2.543   3.050 -0.6884 -0.7752 -1.2652
  832SOL    HW2 2496   1.829   2.677   3.019  3.9267  2.6743  1.4561
  833SOL     OW 2497   0.889   0.170   1.980 -0.0154  0.2318 -0.0576
  833SOL    HW1 2498   0.920   0.085   2.025 -0.2135  0.9948  0.0808
  833SOL    HW2 2499   0.792   0.197   2.009 -1.6774  1.2573  1.5567
  834SOL     OW 2500   2.929   0.445   1.435 -0.6628 -0.2758 -0.2024
  834SOL    HW1 2501   2.923   0.372   1.363 -1.8628  0.0325  0.6437
  834SOL    HW2 2502   2.858   0.517   1.427 -0.7053  0.0618 -0.0560
  835SOL     OW 2503   2.474   0.524   0.216  0.0902 -0.6270 -0.6325
  835SOL    HW1 2504   2.549   0.590   0.233  2.3935 -2.7002 -3.2653
  835SOL    HW2 2505   2.406   0.522   0.295  2.6365  0.3414 -1.2000
  836SOL     OW 2506   1.458   1.926   0.097  0.1690 -0.2440 -0.6764
  836SOL    HW1 2507   1.395   1.968   0.169 -2.8725  1.2271  4.1022
  836SOL    HW2 2508   1.513   1.996   0.047  0.3922 -1.9908 -1.2783
  837SOL     OW 2509   1.953   1.868   0.645  0.2085 -0.1499 -0.1499
  837SOL    HW1 2510   2.045   1.831   0.672 -0.4360 -3.2194  0.7809
  837SOL    HW2 2511   1.950   1.968   0.626  1.8628 -0.5926 -1.9755
  838SOL     OW 2512   1.329   0.752   2.470 -0.2107 -0.6809 -0.0591
  838SOL    HW1 2513   1.318   0.686   2.545 -0.1798 -0.9309  0.3536
  838SOL    HW2 2514   1.376   0.837   2.496 -0.5286 -3.5595 -1.0503
  839SOL     OW 2515   0.556   1.335   2.310  0.0958 -0.3761  0.4900
  839SOL    HW1 2516   0.502   1.245   2.313  0.1315 -1.1794 -0.4147
  839SOL    HW2 2517   0.653   1.320   2.298  2.4382 -1.5747 -0.1136
  840SOL     OW 2518   1.024   1.501   0.458  0.0921 -0.2367  0.0185
  840SOL    HW1 2519   1.097   1.552   0.403 -2.8316 -0.7788  1.1614
  840SOL    HW2 2520   1.063   1.423   0.513  2.5923 -1.2298  1.7644
  841SOL     OW 2521   1.577   2.258   0.759 -0.7466  0.2661 -0.4483
  841SOL    HW1 2522   1.676   2.276   0.747 -2.1852 -0.1958 -1.9485
  841SOL    HW2 2523   1.520   2.327   0.714 -0.5732  1.5010  1.4691
  842SOL     OW 2524   0.410   0.462   3.016 -0.1827 -0.3168  0.2119
  842SOL    HW1 2525   0.377   0.374   2.970  1.1410 -1.4407 -2.9946
  842SOL    HW2 2526   0.513   0.463   3.009 -0.5384 -2.2363 -0.3870
  843SOL     OW 2527   0.414   0.232   0.776  0.9060  0.1176  0.1777
  843SOL    HW1 2528   0.466   0.240   0.688 -0.6969  0.3377 -1.9296
  843SOL    HW2 2529   0.316   0.225   0.753  2.3944  0.7517  1.3243
  844SOL     OW 2530   2.116   0.127   2.276  0.2161 -0.3377 -0.2730
  844SOL    HW1 2531   2.166   0.076   2.203  0.6595  1.1943  3.0240
  844SOL    HW2 2532   2.115   0.088   2.365  0.8087  2.3995 -3.4783
  845SOL     OW 2533   3.086   2.521   1.795 -0.0744  0.2899 -0.3193
  845SOL    HW1 2534   0.015   2.425   1.770  1.7883 -1.8767 -0.9410
  845SOL    HW2 2535   3.049   2.580   1.716 -1.5929  1.9878  1.5098
  846SOL     OW 2536   1.861   1.438   2.548 -0.0212 -0.3348 -0.0601
  846SOL    HW1 2537   1.958   1.469   2.527 -3.1265  2.3757  1.4605
  846SOL    HW2 2538   1.814   1.412   2.462  1.2051  0.3608 -0.5639
  847SOL     OW 2539   0.778   0.916   1.948 -0.1000 -0.3870 -0.5542
  847SOL    HW1 2540   0.725   0.836   1.924 -1.5222  1.6439 -1.7288
  847SOL    HW2 2541   0.879   0.895   1.953 -1.4868 -1.1578  0.7156
  848SOL     OW 2542   2.601   3.027   2.820 -0.7457  0.3827  0.0781
  848SOL    HW1 2543   2.697   2.992   2.817 -3.2779 -1.2952  0.6468
  848SOL    HW2 2544   2.583   3.101   2.890  1.1990  0.8460 -0.8987
  849SOL     OW 2545   0.333   2.757   0.257 -0.1770 -0.4209 -0.7829
  849SOL    HW1 2546   0.237   2.764   0.230  0.1840  0.0879 -1.0534
  849SOL    HW2 2547   0.388   2.756   0.173  0.5996 -0.4114  1.5019
  850SOL     OW 2548   1.048   2.650   0.742 -0.2211 -0.3897  0.1404
  850SOL    HW1 2549   1.072   2.562   0.784 -0.0140  1.8009 -0.4375
  850SOL    HW2 2550   1.129   2.690   0.695  1.1094 -0.8110  1.3191
  851SOL     OW 2551   2.003   0.442   2.498 -0.0393  0.3188 -0.5623
  851SOL    HW1 2552   1.977   0.443   2.400 -1.2787 -1.3790 -1.6349
  851SOL    HW2 2553   2.102   0.429   2.513 -1.0554  1.4503  0.4608
  852SOL     OW 2554   1.407   0.249   2.533 -0.1510  0.5643  0.7136
  852SOL    HW1 2555   1.445   0.160   2.501  1.4921  1.0918 -0.8153
  852SOL    HW2 2556   1.354   0.242   2.617 -1.8420  2.7369 -1.2074
  853SOL     OW 2557   0.004   2.635   0.380  0.2086  0.3992 -0.2128
  853SOL    HW1 2558   0.076   2.564   0.407  2.3351 -1.8089 -1.6076
  853SOL    HW2 2559   3.052   2.667   0.458 -2.5297 -0.8778 -0.1845
  854SOL     OW 2560   1.857   0.679   2.444  0.2119 -0.2912 -0.6911
  854SOL    HW1 2561   1.813   0.736   2.520  3.8242  0.3894 -1.2882
  854SOL    HW2 2562   1.924   0.618   2.487  1.4032 -1.5651 -1.4514
  855SOL     OW 2563   0.507   2.480   0.241  0.0910  0.0319 -0.0531
  855SOL    HW1 2564   0.463   2.568   0.227  0.7693  0.0747  0.4126
  855SOL    HW2 2565   0.594   2.468   0.187 -0.8568 -0.5166  1.5311
  856SOL     OW 2566   0.233   2.970   2.514 -0.0853 -0.3960  0.5024
  856SOL    HW1 2567   0.178   2.904   2.462 -0.0832  1.9508  0.0794
  856SOL    HW2 2568   0.209   2.964   2.611  0.2366 -0.8778  1.4591
  857SOL     OW 2569   1.070   3.019   1.654 -0.3562 -0.1736  0.1507
  857SOL    HW1 2570   1.127   2.952   1.706  1.4899 -1.4273 -0.6679
  857SOL    HW2 2571   0.973   3.009   1.682  1.3614 -1.4773  0.8831
  858SOL     OW 2572   2.734   2.152   1.697  0.7069 -0.5008  0.4546
  858SOL    HW1 2573   2.814   2.103   1.660 -2.0382 -0.5918 -0.5045
  858SOL    HW2 2574   2.650   2.116   1.652 -1.9312 -1.7657 -1.1820
  859SOL     OW 2575   1.929   2.424   2.019 -0.3212 -0.0043  0.3176
  859SOL    HW1 2576   1.990   2.504   2.046  1.0938 -1.1778  2.0014
  859SOL    HW2 2577   1.977   2.334   2.003 -0.6997 -1.4389 -0.8726
  860SOL     OW 2578   1.709   0.459   0.444 -0.3457  0.0723 -0.5021
  860SOL    HW1 2579   1.695   0.557   0.420  1.1901 -0.0535 -2.2800
  860SOL    HW2 2580   1.794   0.426   0.405  0.0568 -0.0461  1.7872
  861SOL     OW 2581   2.762   0.512   0.878 -0.3519  0.0005 -0.6184
  861SOL    HW1 2582   2.753   0.553   0.785  1.1421  2.5925 -0.9000
  861SOL    HW2 2583   2.751   0.407   0.881 -2.1670 -3.8651 -0.9673
  862SOL     OW 2584   1.236   2.935   2.443  0.1386  0.8904  0.3457
  862SOL    HW1 2585   1.243   2.864   2.514 -2.3032  0.3916  1.0810
  862SOL    HW2 2586   1.324   2.934   2.394 -1.0566 -1.6233 -1.6276
  863SOL     OW 2587   0.474   0.700   1.161 -0.1721  0.7608  0.0418
  863SOL    HW1 2588   0.527   0.659   1.243  1.1590 -1.3827 -0.9689
  863SOL    HW2 2589   0.471   0.801   1.161 -1.1052  0.7483  3.8600
  864SOL     OW 2590   2.980   2.955   1.829 -0.4922 -0.2130 -0.0056
  864SOL    HW1 2591   2.999   3.015   1.745  0.0706  1.0405 -1.7506
  864SOL    HW2 2592   2.887   2.911   1.824 -1.2915 -1.7527 -0.4785
  865SOL     OW 2593   0.786   1.263   2.916  0.6058 -0.2442 -0.3247
  865SOL    HW1 2594   0.782   1.183   2.977  0.7710 -4.5219 -0.0622
  865SOL    HW2 2595   0.722   1.337   2.945 -0.5352 -0.6974  0.3152
  866SOL     OW 2596   3.041   0.121   0.068 -0.2716 -0.1179 -0.6287
  866SOL    HW1 2597   3.042   0.192   0.142  1.1805  1.0785  1.1352
  866SOL    HW2 2598   3.083   0.034   0.103  0.7138  1.2353  0.0520
  867SOL     OW 2599   2.867   2.938   2.815 -0.1798  0.3284  0.2624
  867SOL    HW1 2600   2.955   2.967   2.856  1.3454 -0.2087  0.8716
  867SOL    HW2 2601   2.875   2.851   2.761  1.1175  0.7496  0.0791
  868SOL     OW 2602   1.146   0.987   0.054 -0.4977 -0.0179 -0.0505
  868SOL    HW1 2603   1.070   0.922   0.053  1.4268  1.4300 -0.1278
  868SOL    HW2 2604   1.234   0.935   0.033  1.6204  1.8699  0.0826
  869SOL     OW 2605   0.026   1.352   0.400 -0.1648  0.8068 -0.0047
  869SOL    HW1 2606   0.037   1.396   0.493  1.3810  2.1911 -0.8338
  869SOL    HW2 2607   0.113   1.305   0.373  0.0687 -4.1105  0.0378
  870SOL     OW 2608   2.475   1.724   0.717 -0.1323 -0.1339 -0.0595
  870SOL    HW1 2609   2.554   1.726   0.651  0.5542 -0.3400 -3.2311
  870SOL    HW2 2610   2.511   1.711   0.810  1.9616  0.2385 -1.3915
  871SOL     OW 2611   1.076   1.337   0.859  0.0710 -0.6656 -0.1302
  871SOL    HW1 2612   1.073   1.257   0.798 -0.4990  1.2542  0.4474
  871SOL    HW2 2613   1.001   1.326   0.923  2.2442  0.9734 -2.4681
  872SOL     OW 2614   1.193   1.764   1.988  0.3672 -0.1555  0.3400
  872SOL    HW1 2615   1.283   1.781   1.947  2.6385  1.4036  0.6061
  872SOL    HW2 2616   1.180   1.835   2.061  0.8494  1.0416 -2.9564
  873SOL     OW 2617   0.872   1.675   2.261  0.7035  0.0472 -0.2096
  873SOL    HW1 2618   0.848   1.751   2.327 -0.9912  0.5543  1.3610
  873SOL    HW2 2619   0.840   1.692   2.165 -0.6708 -0.6932 -0.7001
  874SOL     OW 2620   1.027   2.215   0.805 -0.2826 -0.2707  0.1112
  874SOL    HW1 2621   1.125   2.191   0.827  3.2262  0.5721 -1.0714
  874SOL    HW2 2622   0.979   2.128   0.789 -0.1993 -0.2134 -4.2522
  875SOL     OW 2623   2.489   0.233   0.975 -0.5182  0.1428 -0.1872
  875SOL    HW1 2624   2.456   0.311   1.035 -0.7755  1.6048 -0.9334
  875SOL    HW2 2625   2.436   0.148   1.001  0.9494 -1.4268  1.6392
  876SOL     OW 2626   0.846   0.573   0.171 -0.1644  0.3981  0.2216
  876SOL    HW1 2627   0.788   0.610   0.248 -1.5986 -2.3910 -1.1800
  876SOL    HW2 2628   0.944   0.570   0.202  1.6987 -0.7741  0.4897
  877SOL     OW 2629   2.776   0.688   1.364  0.8001 -0.5824  0.0492
  877SOL    HW1 2630   2.734   0.644   1.283 -4.3656  0.4563  0.3860
  877SOL    HW2 2631   2.849   0.756   1.340  1.3528  1.5441 -1.2398
  878SOL     OW 2632   2.094   2.249   0.827  0.0486 -0.0088 -0.2296
  878SOL    HW1 2633   2.159   2.225   0.754  3.0039  1.2523 -0.1318
  878SOL    HW2 2634   2.148   2.263   0.914 -0.0079 -1.5961 -1.0187
  879SOL     OW 2635   2.763   1.652   1.373  1.1854  0.2354  0.4270
  879SOL    HW1 2636   2.661   1.666   1.378  0.9750 -0.3839  1.0697
  879SOL    HW2 2637   2.810   1.694   1.455  0.9405  2.6038  0.4757
  880SOL     OW 2638   1.502   2.550   1.102 -0.4711  0.2144 -0.0980
  880SOL    HW1 2639   1.591   2.522   1.061 -2.8191  0.9506  0.7386
  880SOL    HW2 2640   1.431   2.573   1.031 -1.2924  0.3545 -0.7676
  881SOL     OW 2641   0.787   2.371   0.185 -0.1915  0.2422  0.2164
  881SOL    HW1 2642   0.738   2.278   0.176 -2.4276 -1.2360 -0.9884
  881SOL    HW2 2643   0.887   2.354   0.155  0.9696 -0.3050 -0.7296
  882SOL     OW 2644   1.674   1.220   1.608  0.2019 -0.2387 -0.2396
  882SOL    HW1 2645   1.606   1.187   1.536 -1.0645 -1.7258 -2.2520
  882SOL    HW2 2646   1.695   1.144   1.672  1.1458 -3.2743  0.2895
  883SOL     OW 2647   1.151   0.079   2.170  0.2806 -0.3875 -0.2134
  883SOL    HW1 2648   1.115   0.168   2.212 -1.0121  1.3581  2.1083
  883SOL    HW2 2649   1.085   0.003   2.193  3.5970 -0.9008  1.7733
  884SOL     OW 2650   2.903   0.729   0.056 -0.0549  0.0970 -0.0745
  884SOL    HW1 2651   3.003   0.727   0.049 -2.6241  1.8410 -1.2722
  884SOL    HW2 2652   2.862   0.804   0.004 -0.1875  0.2427 -0.0309
  885SOL     OW 2653   1.003   1.174   2.773 -0.3283 -0.5939 -0.2146
  885SOL    HW1 2654   1.084   1.229   2.803 -0.5434  0.4220  1.8019
  885SOL    HW2 2655   0.916   1.220   2.812  0.4602  1.5698 -2.6910
  886SOL     OW 2656   1.475   1.347   2.768  0.1988  0.4543 -0.0348
  886SOL    HW1 2657   1.487   1.278   2.692  1.2128 -0.1245 -2.3304
  886SOL    HW2 2658   1.564   1.373   2.814 -0.1060 -1.2734 -0.5910
  887SOL     OW 2659   1.040   0.501   1.856 -1.0177 -0.0676 -0.2819
  887SOL    HW1 2660   1.072   0.401   1.856  2.1017 -1.6438 -0.0126
  887SOL    HW2 2661   1.124   0.561   1.866  4.1018  2.6195  1.5916
  888SOL     OW 2662   2.665   0.595   1.922  0.0954  0.0071  0.3365
  888SOL    HW1 2663   2.640   0.674   1.977  0.0434  0.9036 -0.9515
  888SOL    HW2 2664   2.662   0.621   1.819  0.0728  0.6099  1.4195
  889SOL     OW 2665   0.082   2.888   0.621  0.4931 -0.7193 -0.2877
  889SOL    HW1 2666   0.116   2.798   0.653  1.0615 -0.4627 -0.9591
  889SOL    HW2 2667   0.165   2.937   0.577  0.4305  0.5570 -0.1577
  890SOL     OW 2668   2.898   2.280   0.359 -0.4910 -0.1097 -0.0333
  890SOL    HW1 2669   2.801   2.274   0.399 -4.7455 -1.3543 -0.4049
  890SOL    HW2 2670   2.975   2.257   0.423 -0.4647 -1.2319  2.9757
  891SOL     OW 2671   1.007   1.726   2.968 -0.0421  0.3940 -0.2459
  891SOL    HW1 2672   0.965   1.813   2.925  1.6513  2.6800 -0.7774
  891SOL    HW2 2673   0.992   1.647   2.901  0.1284 -1.3897 -0.5267
  892SOL     OW 2674   2.859   0.006   0.901 -0.3536  0.2894  0.3772
  892SOL    HW1 2675   2.786   3.042   0.875  1.2924  2.4239 -1.2729
  892SOL    HW2 2676   2.918   3.070   0.977  2.1550  0.6237 -0.3792
  893SOL     OW 2677   1.133   3.013   1.329  0.1718 -0.2001  0.4227
  893SOL    HW1 2678   1.112   3.027   1.431 -0.8753  0.1406  0.0754
  893SOL    HW2 2679   1.078   3.083   1.277  0.1489 -1.9273  1.2116
  894SOL     OW 2680   2.957   0.817   0.546  0.2283  0.0256 -0.1389
  894SOL    HW1 2681   3.041   0.845   0.603  2.3261  1.6781 -0.9009
  894SOL    HW2 2682   2.890   0.750   0.585  0.7253 -1.0537  0.6447
  895SOL     OW 2683   2.417   2.657   1.831  0.1639 -0.0456 -0.4479
  895SOL    HW1 2684   2.322   2.622   1.805 -3.5011 -0.1314  0.8820
  895SOL    HW2 2685   2.415   2.757   1.863 -0.0283  1.5471 -0.2320
  896SOL     OW 2686   1.198   0.170   1.632 -0.2542  0.5407  0.4706
  896SOL    HW1 2687   1.183   0.068   1.640  0.7203  1.0059  0.0386
  896SOL    HW2 2688   1.170   0.215   1.717 -0.7201 -1.7674  4.6728
  897SOL     OW 2689   1.095   1.544   1.721  0.4596  0.1438  0.1445
  897SOL    HW1 2690   1.101   1.643   1.711 -0.4765  0.3754  0.0146
  897SOL    HW2 2691   1.160   1.519   1.794 -4.1910  1.1572 -3.0825
  898SOL     OW 2692   1.762   2.403   1.792  0.2326  0.4668 -0.1494
  898SOL    HW1 2693   1.824   2.389   1.708  2.0511 -0.2096  1.3562
  898SOL    HW2 2694   1.817   2.408   1.877 -0.8863 -1.0772 -3.0264
  899SOL     OW 2695   1.031   0.442   1.023 -0.1948 -0.1509 -0.0653
  899SOL    HW1 2696   1.100   0.404   1.090 -2.3432 -0.8800  0.8003
  899SOL    HW2 2697   1.032   0.550   1.027 -1.2057  0.7498 -1.7150
  900SOL     OW 2698   1.840   2.630   2.626 -0.0929  0.1890  0.1283
  900SOL    HW1 2699   1.747   2.611   2.659 -1.4962 -1.4017  3.3991
  900SOL    HW2 2700   1.906   2.554   2.646  1.7998  1.3308 -2.6047
  901SOL     OW 2701   0.866   2.126   2.522 -0.0390  0.0068 -0.1282
  901SOL    HW1 2702   0.964   2.156   2.518 -1.4911 -2.5016 -2.2429
  901SOL    HW2 2703   0.813   2.178   2.584  4.2727  1.7695 -2.6633
  902SOL     OW 2704   2.258   1.100   0.569  0.6160  1.0677 -0.7496
  902SOL    HW1 2705   2.257   1.157   0.483 -0.7970 -0.7210  0.0357
  902SOL    HW2 2706   2.169   1.111   0.622 -3.1334  0.3393  1.4859
  903SOL     OW 2707   1.892   0.936   0.475 -0.6075  0.0565  0.0376
  903SOL    HW1 2708   1.874   0.983   0.386 -3.1030 -0.3559 -1.4298
  903SOL    HW2 2709   1.907   1.003   0.550  0.8121  2.4713  0.9260
  904SOL     OW 2710   0.679   0.767   2.881  0.2821 -0.1376  0.4111
  904SOL    HW1 2711   0.764   0.815   2.853  1.6370 -0.3777  0.2121
  904SOL    HW2 2712   0.624   0.740   2.795  1.3711  0.5014  0.2129
  905SOL     OW 2713   2.094   0.173   0.863 -0.7098  0.3409 -0.1030
  905SOL    HW1 2714   2.013   0.110   0.868 -0.2063 -0.5273 -2.3141
  905SOL    HW2 2715   2.079   0.266   0.820 -2.2154 -0.4997 -0.1761
  906SOL     OW 2716   2.926   2.198   1.192  0.4942 -0.5511 -0.4024
  906SOL    HW1 2717   3.011   2.207   1.247  3.0402 -1.0069  0.3695
  906SOL    HW2 2718   2.849   2.235   1.241 -1.0415 -1.1144 -1.7749
  907SOL     OW 2719   1.135   0.613   0.215 -0.5622 -0.2917 -0.7160
  907SOL    HW1 2720   1.206   0.570   0.277  0.7382 -0.1353  3.2624
  907SOL    HW2 2721   1.180   0.643   0.130 -1.5515  0.5389  1.6865
  908SOL     OW 2722   2.131   2.879   1.301 -0.1421 -0.3353  0.0142
  908SOL    HW1 2723   2.218   2.926   1.284  2.5620 -0.7561 -2.8020
  908SOL    HW2 2724   2.056   2.948   1.303  1.3801  0.6572  0.5189
  909SOL     OW 2725   2.309   0.826   1.273 -0.0318 -0.6268 -0.7558
  909SOL    HW1 2726   2.378   0.783   1.337  1.5329 -1.0263  2.2055
  909SOL    HW2 2727   2.323   0.931   1.271 -1.1694  1.3347  0.0220
  910SOL     OW 2728   1.340   2.656   2.002 -0.0180 -0.2119 -0.0911
  910SOL    HW1 2729   1.327   2.683   2.102 -2.5463  0.2305  1.6933
  910SOL    HW2 2730   1.432   2.613   1.993  1.7008 -1.9683  1.0084
  911SOL     OW 2731   2.793   0.260   2.375  0.1679  0.1735 -0.0191
  911SOL    HW1 2732   2.691   0.260   2.363 -0.6328  0.8845  2.1000
  911SOL    HW2 2733   2.842   0.230   2.298 -1.9316  0.4958 -0.8877
  912SOL     OW 2734   0.007   1.233   1.382  0.3140  0.2483 -0.6626
  912SOL    HW1 2735   3.033   1.306   1.384 -3.3146  1.3061 -0.1817
  912SOL    HW2 2736   0.090   1.255   1.437  2.1682 -1.1895  1.1626
  913SOL     OW 2737   2.842   1.921   1.530  0.1986  0.2151  0.2433
  913SOL    HW1 2738   2.855   1.860   1.611  0.3486  1.9975 -1.9509
  913SOL    HW2 2739   2.923   1.938   1.483 -4.0037 -1.8366  2.8747
  914SOL     OW 2740   1.995   1.105   1.372 -0.2939  0.9417 -0.1787
  914SOL    HW1 2741   2.007   1.002   1.356  1.3636 -2.6935  0.6274
  914SOL    HW2 2742   2.088   1.154   1.384 -0.1603  2.8218  1.0063
  915SOL     OW 2743   1.289   0.502   1.524 -0.5138  0.1643 -0.0778
  915SOL    HW1 2744   1.322   0.494   1.621  0.1868 -0.4834  0.3534
  915SOL    HW2 2745   1.240   0.420   1.492 -1.1218 -0.5618 -1.8274
  916SOL     OW 2746   2.792   2.462   1.366 -0.6550 -0.5796 -0.1235
  916SOL    HW1 2747   2.702   2.493   1.332 -0.0592  1.6410  0.7485
  916SOL    HW2 2748   2.791   2.441   1.462 -2.3719 -0.1313 -2.5550
  917SOL     OW 2749   2.323   2.166   0.339 -0.4131  0.0733 -0.1095
  917SOL    HW1 2750   2.269   2.164   0.254  3.0250 -1.1411 -0.8368
  917SOL    HW2 2751   2.376   2.252   0.345 -0.3957  0.0824  1.2510
  918SOL     OW 2752   2.028   2.831   2.658 -0.9196 -1.0187 -0.2781
  918SOL    HW1 2753   2.035   2.888   2.574  2.0726  1.5945 -0.6008
  918SOL    HW2 2754   1.963   2.759   2.652  3.1955 -1.4372  1.8301
  919SOL     OW 2755   1.144   2.291   1.374  0.2994 -0.4664  0.5611
  919SOL    HW1 2756   1.198   2.248   1.448  0.6574 -0.1734  1.4698
  919SOL    HW2 2757   1.062   2.236   1.348  2.2114 -0.9944 -1.8324
  920SOL     OW 2758   0.265   0.332   2.319  0.6094 -0.3189  0.1809
  920SOL    HW1 2759   0.269   0.237   2.290 -0.4693  4.2819 -0.3660
  920SOL    HW2 2760   0.181   0.381   2.288 -1.5275  0.4554 -1.5201
  921SOL     OW 2761   2.980   0.749   1.760  0.4900  0.2191  0.3710
  921SOL    HW1 2762   2.949   0.720   1.857 -0.7244 -3.3667 -0.9115
  921SOL    HW2 2763   3.043   0.678   1.720  2.1323  4.0785  0.6983
  922SOL     OW 2764   2.199   2.128   0.578  0.7595  0.1879 -0.3658
  922SOL    HW1 2765   2.103   2.152   0.560  3.6953 -1.1591 -1.2142
  922SOL    HW2 2766   2.249   2.141   0.495 -3.4660  0.5826  3.6483
  923SOL     OW 2767   0.898   1.952   2.847  0.4396  0.7226  0.1434
  923SOL    HW1 2768   0.858   1.905   2.763  0.5096 -1.4350 -1.6185
  923SOL    HW2 2769   0.827   2.015   2.887 -1.0459  0.1086  1.4736
  924SOL     OW 2770   0.993   0.306   0.275  0.1945 -0.4601 -0.0479
  924SOL    HW1 2771   0.918   0.235   0.274 -0.8220 -0.2443 -0.3011
  924SOL    HW2 2772   1.074   0.271   0.324 -1.6609  1.3154 -0.1423
  925SOL     OW 2773   2.328   0.480   0.437 -0.0748 -0.2146 -0.4724
  925SOL    HW1 2774   2.302   0.549   0.510  0.8246 -1.1254  1.4476
  925SOL    HW2 2775   2.384   0.401   0.477 -0.1476 -2.6598 -1.3081
  926SOL     OW 2776   0.149   0.875   0.960 -0.0694  0.0728  0.2051
  926SOL    HW1 2777   0.204   0.956   0.990 -0.3260 -2.0214  0.8424
  926SOL    HW2 2778   0.109   0.826   1.040  0.4602  0.7604  1.3098
  927SOL     OW 2779   3.047   1.161   2.807  0.0539  0.0013  0.1265
  927SOL    HW1 2780   0.007   1.242   2.776  1.9063 -2.6386 -0.0507
  927SOL    HW2 2781   2.954   1.179   2.775  0.3008 -0.5552 -0.6411
  928SOL     OW 2782   2.764   0.659   2.635 -0.1924 -0.2419  0.2327
  928SOL    HW1 2783   2.669   0.680   2.664  0.0274 -1.7971  1.7942
  928SOL    HW2 2784   2.832   0.689   2.708  3.0146  0.5806 -3.1689
  929SOL     OW 2785   2.717   0.060   1.251  0.0951  0.2876 -0.1702
  929SOL    HW1 2786   2.651   0.130   1.288  1.3670  0.7005  1.4581
  929SOL    HW2 2787   2.670   0.007   1.184  1.1339  0.4164  0.8831
  930SOL     OW 2788   1.947   1.331   1.588 -0.7455 -0.0759  0.0295
  930SOL    HW1 2789   1.859   1.279   1.587 -2.7160 -2.9813  1.1206
  930SOL    HW2 2790   1.951   1.396   1.506 -2.2951 -0.1318 -2.5182
  931SOL     OW 2791   1.577   1.359   0.700  0.0653 -0.4935  0.3007
  931SOL    HW1 2792   1.649   1.318   0.641 -1.0778  2.2810  2.3791
  931SOL    HW2 2793   1.560   1.458   0.671 -1.6537 -0.2952  0.9567
  932SOL     OW 2794   2.874   1.252   0.785  0.2211  0.0218  0.6511
  932SOL    HW1 2795   2.805   1.312   0.734 -2.1185  0.8832 -1.3977
  932SOL    HW2 2796   2.834   1.160   0.818 -0.3975 -3.7651  1.6252
  933SOL     OW 2797   2.510   1.743   1.280  0.3099 -0.0873 -0.4087
  933SOL    HW1 2798   2.436   1.709   1.224  1.5183 -1.9763 -0.8729
  933SOL    HW2 2799   2.543   1.830   1.242 -0.9672  2.1718 -2.2830
  934SOL     OW 2800   1.874   0.329   2.176  0.2131 -0.0517 -0.0567
  934SOL    HW1 2801   1.959   0.340   2.221 -1.7603 -0.7550  0.6777
  934SOL    HW2 2802   1.889   0.332   2.075  0.3986  1.3555 -2.6054
  935SOL     OW 2803   0.301   1.500   0.715  0.1668  0.7429 -0.1277
  935SOL    HW1 2804   0.215   1.487   0.663  0.9830  1.5958 -0.0750
  935SOL    HW2 2805   0.326   1.598   0.706  1.9220 -2.5170  0.8552
  936SOL     OW 2806   0.436   0.765   0.462  0.4569  0.2164  0.7711
  936SOL    HW1 2807   0.405   0.704   0.381  1.1605  0.0026 -3.0256
  936SOL    HW2 2808   0.418   0.862   0.455 -2.2433  1.5824  0.8117
  937SOL     OW 2809   2.311   0.016   1.078 -0.1097 -0.2081  0.2040
  937SOL    HW1 2810   2.239   3.060   1.035 -0.0835  1.0912  1.1027
  937SOL    HW2 2811   2.314   0.002   1.180 -1.2845  1.8796  0.2324
  938SOL     OW 2812   2.630   2.203   0.458  0.2337 -0.3447 -0.0962
  938SOL    HW1 2813   2.611   2.118   0.406 -0.3610  0.6246 -0.5292
  938SOL    HW2 2814   2.571   2.279   0.421  0.1789 -0.2636 -0.7965
  939SOL     OW 2815   0.896   1.914   0.146 -0.5542  0.0592 -0.2491
  939SOL    HW1 2816   0.813   1.860   0.128 -0.3949  0.3963  0.4843
  939SOL    HW2 2817   0.957   1.857   0.203  0.6837 -0.6686 -0.5639
  940SOL     OW 2818   2.876   0.207   2.814  0.3202 -0.6629 -0.2267
  940SOL    HW1 2819   2.899   0.266   2.728 -1.7535 -0.7346 -2.1247
  940SOL    HW2 2820   2.803   0.251   2.870 -0.6577  2.2253  3.1011
  941SOL     OW 2821   1.309   0.198   2.782  0.5613  0.6259 -0.2857
  941SOL    HW1 2822   1.361   0.133   2.845  2.9382 -2.7046  2.0143
  941SOL    HW2 2823   1.218   0.210   2.820 -1.8738 -1.1481 -1.4980
  942SOL     OW 2824   1.084   0.868   1.344  0.1538  0.0075  0.0100
  942SOL    HW1 2825   1.084   0.924   1.261  0.2054 -1.4231 -2.6323
  942SOL    HW2 2826   0.985   0.829   1.357 -4.8616 -2.0343  1.9475
  943SOL     OW 2827   1.376   1.121   1.843  0.7102 -0.1349 -0.3838
  943SOL    HW1 2828   1.390   1.030   1.801  0.4702  1.1546  0.3677
  943SOL    HW2 2829   1.285   1.135   1.890 -4.7174  1.1205  0.1259
  944SOL     OW 2830   1.440   1.001   2.118  0.5254  0.0112  0.6312
  944SOL    HW1 2831   1.335   1.003   2.117 -1.6625  2.1938  0.8474
  944SOL    HW2 2832   1.481   1.097   2.116  1.8398  2.4590  0.4399
  945SOL     OW 2833   2.816   3.015   0.333  0.0289 -0.1694 -0.0206
  945SOL    HW1 2834   2.761   2.987   0.252  0.3141  1.6170 -0.6965
  945SOL    HW2 2835   2.771   3.089   0.388 -2.4886 -0.7331  1.3010
  946SOL     OW 2836   2.920   0.650   2.014 -0.1296  0.1079  0.0968
  946SOL    HW1 2837   2.936   0.701   2.099 -3.8809  1.4806 -2.5588
  946SOL    HW2 2838   2.820   0.629   1.999 -0.6519 -2.7960 -1.7952
  947SOL     OW 2839   0.566   2.928   0.452 -0.0362  0.4153  0.0809
  947SOL    HW1 2840   0.571   2.858   0.523  0.7930  0.0987 -1.0103
  947SOL    HW2 2841   0.650   2.929   0.395 -1.5647 -3.0816  1.5596
  948SOL     OW 2842   2.120   1.139   1.727  0.5074 -0.0641 -0.2677
  948SOL    HW1 2843   2.062   1.057   1.749 -1.1919 -0.3722 -1.6556
  948SOL    HW2 2844   2.056   1.208   1.683 -2.3281  0.7171  0.5577
  949SOL     OW 2845   0.533   0.668   2.674  0.0972  0.5992 -0.3406
  949SOL    HW1 2846   0.528   0.698   2.576 -0.1418 -1.6831  0.2825
  949SOL    HW2 2847   0.455   0.618   2.711  4.1341  0.8490 -0.3263
  950SOL     OW 2848   0.589   0.295   0.970 -0.7387  0.6215  0.1144
  950SOL    HW1 2849   0.519   0.278   0.895 -0.4669 -0.6616  0.9583
  950SOL    HW2 2850   0.671   0.338   0.921  2.2616  1.2976 -3.0173
  951SOL     OW 2851   0.869   1.429   2.390 -0.0713  0.1332  0.6925
  951SOL    HW1 2852   0.869   1.509   2.324 -1.6556 -1.4363  0.1030
  951SOL    HW2 2853   0.951   1.376   2.365 -1.6290 -0.0806 -2.4352
  952SOL     OW 2854   0.866   1.579   0.078 -0.0863 -0.5581  0.2002
  952SOL    HW1 2855   0.935   1.624   0.015  0.4809  1.1308  0.2089
  952SOL    HW2 2856   0.820   1.642   0.146  0.5788 -0.8109  0.2324
  953SOL     OW 2857   2.446   0.051   2.366 -0.1174 -0.0513  0.2969
  953SOL    HW1 2858   2.473   0.140   2.332 -0.1616 -0.4570  1.6567
  953SOL    HW2 2859   2.516   3.088   2.327  0.5747 -1.1660  0.2755
  954SOL     OW 2860   1.535   1.208   0.911 -0.0497 -0.3932 -0.4758
  954SOL    HW1 2861   1.550   1.262   0.827 -1.0365 -2.3210  2.6938
  954SOL    HW2 2862   1.462   1.263   0.964 -3.8703  2.7676 -0.6311
  955SOL     OW 2863   0.398   1.982   2.616  0.2010 -0.0715  0.4712
  955SOL    HW1 2864   0.357   1.928   2.688  1.3834  0.0642 -2.9253
  955SOL    HW2 2865   0.348   2.071   2.604 -0.1779  1.2576  0.7269
  956SOL     OW 2866   1.690   0.607   2.084 -0.3046 -0.6967 -0.2570
  956SOL    HW1 2867   1.614   0.635   2.145  0.4758  0.6776 -1.5676
  956SOL    HW2 2868   1.778   0.649   2.113  1.2362  0.5123 -1.2834
  957SOL     OW 2869   1.885   2.105   2.846  0.6249  0.3823  0.4586
  957SOL    HW1 2870   1.844   2.013   2.871 -1.2541 -3.5475  2.7323
  957SOL    HW2 2871   1.883   2.168   2.927  1.2466 -0.7524  0.9945
  958SOL     OW 2872   0.888   2.175   1.635  0.2592 -0.1750  0.0082
  958SOL    HW1 2873   0.927   2.260   1.676 -1.1028 -1.7590  1.8623
  958SOL    HW2 2874   0.922   2.163   1.541  0.8337  0.9376  2.4698
  959SOL     OW 2875   2.016   2.451   2.930 -0.5420 -0.3211  0.3814
  959SOL    HW1 2876   2.010   2.431   2.828  0.0903  2.3438  0.2188
  959SOL    HW2 2877   2.113   2.489   2.950  2.1830  2.4043  0.1985
  960SOL     OW 2878   3.031   0.582   2.497 -0.1173  0.1924 -0.0865
  960SOL    HW1 2879   0.000   0.650   2.522  0.2209 -0.1955  1.0072
  960SOL    HW2 2880   2.945   0.607   2.536  2.1670 -1.8885  0.9117
  961SOL     OW 2881   0.825   0.759   2.534  0.3450 -0.4632  0.0656
  961SOL    HW1 2882   0.766   0.678   2.519  0.2702 -2.2178 -1.7169
  961SOL    HW2 2883   0.912   0.738   2.487  0.9592  1.3817 -2.3091
  962SOL     OW 2884   0.680   1.187   2.676  0.6327  0.4506 -0.1497
  962SOL    HW1 2885   0.733   1.212   2.762  0.0130  0.6052 -0.4426
  962SOL    HW2 2886   0.584   1.153   2.701 -1.7739 -4.0564  2.3061
  963SOL     OW 2887   2.483   2.416   0.339  0.2253  0.6843 -0.3161
  963SOL    HW1 2888   2.535   2.429   0.250 -0.2560 -0.3774 -1.2978
  963SOL    HW2 2889   2.476   2.498   0.393  0.2392 -2.3972  0.5590
  964SOL     OW 2890   1.018   2.515   1.225  0.4623  0.1926 -0.0311
  964SOL    HW1 2891   1.097   2.464   1.271  2.6771 -0.4561  0.9599
  964SOL    HW2 2892   1.049   2.610   1.209 -0.6993 -1.4724 -1.5574
  965SOL     OW 2893   1.328   1.412   0.627 -0.2599  0.3386  0.0110
  965SOL    HW1 2894   1.396   1.354   0.675  0.1270  1.4007 -1.3597
  965SOL    HW2 2895   1.333   1.508   0.661 -0.3728 -3.8844 -0.7104
  966SOL     OW 2896   0.265   1.496   0.192  0.3840 -0.0478 -0.5222
  966SOL    HW1 2897   0.317   1.489   0.281 -0.0901  0.6955  2.7550
  966SOL    HW2 2898   0.245   1.595   0.166  0.0173  3.1148 -0.8612
  967SOL     OW 2899   1.938   0.330   1.897 -0.1626 -0.2917  0.1869
  967SOL    HW1 2900   1.974   0.424   1.914  1.4245 -0.8842  1.3576
  967SOL    HW2 2901   1.835   0.332   1.887 -1.4795  1.8220  1.0693
  968SOL     OW 2902   1.733   0.862   0.706 -0.0659  0.3694 -0.1257
  968SOL    HW1 2903   1.802   0.863   0.631  0.2164  1.4178  1.2628
  968SOL    HW2 2904   1.642   0.830   0.676 -0.2232 -2.4928  1.3241
  969SOL     OW 2905   0.401   1.119   2.361 -0.0972  0.1639 -0.0585
  969SOL    HW1 2906   0.340   1.198   2.330 -1.6007  0.9401  0.7839
  969SOL    HW2 2907   0.391   1.037   2.301  0.1718  1.4170  3.5585
  970SOL     OW 2908   2.153   1.417   1.188 -0.5114 -0.1371 -0.8062
  970SOL    HW1 2909   2.119   1.327   1.159  0.3502 -2.0213 -0.7407
  970SOL    HW2 2910   2.182   1.462   1.098  0.6240  0.6416 -2.8306
  971SOL     OW 2911   0.068   0.060   1.172 -0.5132 -0.0649 -0.3060
  971SOL    HW1 2912   0.080   0.132   1.097  0.6989 -1.0625 -3.6189
  971SOL    HW2 2913   0.018   3.078   1.145  1.7108  0.7952 -1.0286
  972SOL     OW 2914   0.320   0.539   2.754 -0.0686  0.3046 -0.0914
  972SOL    HW1 2915   0.306   0.506   2.848 -0.8246  0.1677  0.6089
  972SOL    HW2 2916   0.315   0.466   2.679  0.7289  1.2532 -1.5243
  973SOL     OW 2917   0.138   0.587   0.724  0.4844  0.5024  0.0528
  973SOL    HW1 2918   0.060   0.524   0.704 -0.3124 -0.5610  1.0906
  973SOL    HW2 2919   0.217   0.533   0.749 -2.6964  0.4203  0.4288
  974SOL     OW 2920   2.293   0.639   1.853 -0.2802  0.3296 -0.7601
  974SOL    HW1 2921   2.346   0.693   1.921  0.3173 -3.1123 -0.8749
  974SOL    HW2 2922   2.203   0.610   1.888  1.3119  0.4650  1.3443
  975SOL     OW 2923   2.685   0.212   0.078  0.3023  0.6986 -0.2231
  975SOL    HW1 2924   2.611   0.193   0.147  0.9118  0.8731 -3.9855
  975SOL    HW2 2925   2.757   0.274   0.114 -2.6452  0.3079 -0.4789
  976SOL     OW 2926   0.357   1.461   1.365 -0.0463 -1.0956  0.0722
  976SOL    HW1 2927   0.346   1.369   1.398 -0.2131 -0.4957 -3.6612
  976SOL    HW2 2928   0.277   1.520   1.394 -1.8139  0.7325  2.8873
  977SOL     OW 2929   1.080   2.394   0.106 -0.2673 -0.5183  0.2656
  977SOL    HW1 2930   1.181   2.391   0.073  1.2523  2.8227 -2.0933
  977SOL    HW2 2931   1.029   2.323   0.057  0.0768 -0.9745  0.1057
  978SOL     OW 2932   0.384   1.242   2.798 -0.0436 -0.9542 -0.5457
  978SOL    HW1 2933   0.339   1.292   2.875  1.3387  1.2275 -0.7842
  978SOL    HW2 2934   0.451   1.167   2.836  2.6608 -2.8606  1.6525
  979SOL     OW 2935   1.819   1.818   1.214  0.7783 -0.1419 -0.3065
  979SOL    HW1 2936   1.790   1.724   1.192  1.9303 -0.1571 -2.6584
  979SOL    HW2 2937   1.920   1.832   1.217  1.5385 -0.6329  0.5365
  980SOL     OW 2938   0.330   1.584   1.830 -0.3076 -0.1793 -0.1577
  980SOL    HW1 2939   0.272   1.526   1.772 -2.7802 -0.7114 -2.0063
  980SOL    HW2 2940   0.402   1.524   1.864 -2.8040  0.8478 -1.4721
  981SOL     OW 2941   2.742   1.590   0.288  0.6682 -0.2523  0.5399
  981SOL    HW1 2942   2.783   1.609   0.197  2.0342 -0.7219  0.5141
  981SOL    HW2 2943   2.784   1.507   0.325  0.0564  0.8569  1.1100
  982SOL     OW 2944   2.492   2.381   1.885 -0.0152  0.4957  0.2512
  982SOL    HW1 2945   2.468   2.481   1.887  0.1517  0.1940  0.1164
  982SOL    HW2 2946   2.594   2.362   1.900  1.8541 -0.8671  0.0034
  983SOL     OW 2947   1.367   0.160   1.138  0.1596  0.1595 -0.0801
  983SOL    HW1 2948   1.403   0.136   1.228  3.4054  1.1783  2.2841
  983SOL    HW2 2949   1.319   0.255   1.135  0.7625  3.1825 -0.4728
  984SOL     OW 2950   1.307   2.632   3.000  0.4209 -0.0649  0.2101
  984SOL    HW1 2951   1.352   2.710   2.954 -1.7002  0.1405  1.3002
  984SOL    HW2 2952   1.355   2.602   3.084 -0.2085 -0.5064  0.8321
  985SOL     OW 2953   1.913   2.063   1.480  0.2432  0.4398 -0.7099
  985SOL    HW1 2954   1.894   2.004   1.561  0.3047  1.2264 -1.0722
  985SOL    HW2 2955   1.907   2.013   1.395 -1.8010 -1.7642  2.1950
  986SOL     OW 2956   2.420   3.057   2.639 -0.3106  0.2597 -0.1670
  986SOL    HW1 2957   2.447   0.014   2.556  0.2774 -0.9741 -1.0453
  986SOL    HW2 2958   2.503   3.047   2.702  0.5257  0.9969 -1.9384
  987SOL     OW 2959   2.883   1.035   2.151 -0.1274  0.4205 -0.0322
  987SOL    HW1 2960   2.802   1.044   2.090  1.1868 -0.2088  1.5583
  987SOL    HW2 2961   2.942   1.122   2.151  1.1890  0.9576 -2.5322
  988SOL     OW 2962   2.541   0.846   2.730 -0.0417  0.1222  0.3447
  988SOL    HW1 2963   2.498   0.759   2.770  2.6935 -2.0143 -1.6591
  988SOL    HW2 2964   2.476   0.905   2.680  0.0775  2.4611  1.4841
  989SOL     OW 2965   2.040   1.448   1.830  0.0061 -0.5430  0.0289
  989SOL    HW1 2966   2.002   1.399   1.755  0.6501 -1.1999  1.2102
  989SOL    HW2 2967   2.101   1.520   1.794 -0.4878 -1.9810 -0.7861
  990SOL     OW 2968   0.433   0.979   0.139 -0.7172 -0.1441 -0.8295
  990SOL    HW1 2969   0.494   0.904   0.118 -1.9336  2.9760  0.3180
  990SOL    HW2 2970   0.342   0.957   0.102 -0.3144 -0.4368  2.3663
  991SOL     OW 2971   0.303   1.807   2.805  0.5855 -0.1416 -0.7084
  991SOL    HW1 2972   0.250   1.724   2.838  1.2687 -1.0247 -0.5844
  991SOL    HW2 2973   0.394   1.800   2.840 -0.0446  2.1722 -0.2686
  992SOL     OW 2974   2.737   2.054   2.002 -0.0620 -0.3026 -0.1749
  992SOL    HW1 2975   2.721   2.154   1.980 -2.5336  2.9453  2.1765
  992SOL    HW2 2976   2.659   1.995   1.965 -0.2207 -0.2436 -1.1234
  993SOL     OW 2977   0.200   0.014   0.374  0.6207 -0.3942 -0.0119
  993SOL    HW1 2978   0.252   3.073   0.450 -1.4676  0.6596 -1.2101
  993SOL    HW2 2979   0.109   0.028   0.408  0.2220 -0.3849  0.3939
  994SOL     OW 2980   0.199   1.677   1.465  0.1533  0.2327 -0.4053
  994SOL    HW1 2981   0.275   1.738   1.511  2.5725  0.2911  2.7572
  994SOL    HW2 2982   0.108   1.720   1.486  0.0114  1.3412  0.9599
  995SOL     OW 2983   2.043   1.870   2.958 -0.1921  0.2485  0.4066
  995SOL    HW1 2984   2.102   1.890   2.875  0.7635 -0.7944 -0.3181
  995SOL    HW2 2985   1.947   1.877   2.928 -1.4474 -0.2677  1.5674
  996SOL     OW 2986   1.784   1.541   0.051 -0.4541 -0.0714 -0.2180
  996SOL    HW1 2987   1.723   1.475   0.096 -0.3741 -0.1510  1.6894
  996SOL    HW2 2988   1.724   1.620   0.019  1.6277 -0.5783  0.7172
  997SOL     OW 2989   1.385   1.348   1.676  0.1412 -0.3794  0.0916
  997SOL    HW1 2990   1.345   1.317   1.584 -0.2232 -1.3406 -4.5733
  997SOL    HW2 2991   1.387   1.266   1.742 -0.5420  1.3951 -0.6035
  998SOL     OW 2992   2.594   2.263   1.152  0.3224  0.9088 -0.2555
  998SOL    HW1 2993   2.566   2.346   1.201 -0.3269  1.7832  0.1413
  998SOL    HW2 2994   2.649   2.285   1.069  0.8340 -0.5998 -2.1252
  999SOL     OW 2995   2.073   2.483   0.342  0.2327  0.2397  0.5855
  999SOL    HW1 2996   2.118   2.526   0.260  2.0438  0.3225  1.7047
  999SOL    HW2 2997   2.132   2.489   0.429  0.5880 -2.5593  1.1864
 1000SOL     OW 2998   0.840   2.786   0.071 -0.0455  0.6867  0.3467
 1000SOL    HW1 2999   0.923   2.744   0.029 -0.9279  0.0483  1.1635
 1000SOL    HW2 3000   0.818   2.877   0.033  2.3443 -2.3503 -0.6690
   3.10126   3.10126   3.10126
