1000 SPC/Fw water molecules t= 297.00000 step= 297000
 3000
    1SOL     OW    1   2.425   0.052   0.759 -0.5783 -0.3587 -0.0617
    1SOL    HW1    2   2.461   3.040   0.710 -1.4038 -1.0851  0.8955
    1SOL    HW2    3   2.497   0.098   0.814 -4.8641 -2.3603 -1.2654
    2SOL     OW    4   2.936   2.174   1.008 -0.0579  0.5384 -0.2075
    2SOL    HW1    5   2.839   2.144   0.984 -1.0813 -2.2502  1.6287
    2SOL    HW2    6   3.008   2.140   0.947  1.1642 -1.4162 -1.3210
    3SOL     OW    7   0.725   2.727   2.703 -0.1002  0.1332  0.6154
    3SOL    HW1    8   0.702   2.654   2.772 -2.2262  1.0912  0.9663
    3SOL    HW2    9   0.690   2.712   2.608  2.8597 -0.3311  0.7846
    4SOL     OW   10   2.126   2.303   1.582  0.0429 -0.2207  0.1332
    4SOL    HW1   11   2.217   2.351   1.574 -0.6317 -0.8834  0.8920
    4SOL    HW2   12   2.134   2.205   1.603 -1.7433  1.2822 -0.1167
    5SOL     OW   13   1.617   0.916   1.394 -0.0487  0.0592  0.5479
    5SOL    HW1   14   1.665   0.998   1.356 -2.4012  1.1857 -0.7097
    5SOL    HW2   15   1.534   0.948   1.446  0.3673 -0.6709 -0.6318
    6SOL     OW   16   2.095   2.784   0.099  0.9956 -0.2664  0.6123
    6SOL    HW1   17   2.156   2.855   0.136 -1.2263 -0.5202 -1.1507
    6SOL    HW2   18   1.996   2.802   0.118  2.9416 -1.6428  2.5246
    7SOL     OW   19   2.745   1.263   1.287  0.2774 -0.2784  0.0150
    7SOL    HW1   20   2.817   1.334   1.273 -1.9319  0.3139  3.7096
    7SOL    HW2   21   2.686   1.294   1.363  0.8798 -1.0928  0.6265
    8SOL     OW   22   1.549   2.396   1.067  0.4327  0.1073  0.2692
    8SOL    HW1   23   1.600   2.469   1.115  0.6710  0.9400  0.1135
    8SOL    HW2   24   1.524   2.316   1.127 -0.1465 -0.8651  0.8545
    9SOL     OW   25   1.389   2.928   2.201 -0.1382  0.2861 -0.4037
    9SOL    HW1   26   1.398   2.860   2.277  1.4954  2.6400 -0.7609
    9SOL    HW2   27   1.298   2.915   2.152 -0.2389 -2.3870 -2.2360
   10SOL     OW   28   0.662   2.180   1.228 -0.0400 -0.1596 -0.1128
   10SOL    HW1   29   0.690   2.098   1.278  0.8132  0.6706  1.7289
   10SOL    HW2   30   0.744   2.223   1.182  1.7009  1.8944  0.9592
   11SOL     OW   31   1.759   1.560   1.091 -0.3014 -0.0838 -0.0100
   11SOL    HW1   32   1.857   1.554   1.125 -0.6672  0.1051 -0.9627
   11SOL    HW2   33   1.699   1.513   1.161 -0.6032 -0.0906 -0.5099
   12SOL     OW   34   2.528   2.674   1.679  0.2325 -0.0362 -0.1628
   12SOL    HW1   35   2.597   2.736   1.640 -0.0100 -0.7767 -0.2355
   12SOL    HW2   36   2.459   2.724   1.737  0.3670 -1.7030 -0.3586
   13SOL     OW   37   2.255   2.975   0.234 -0.3156 -0.1440  0.2657
   13SOL    HW1   38   2.225   3.042   0.301  0.5781 -2.6435 -1.1613
   13SOL    HW2   39   2.353   2.980   0.206  2.2387 -1.0059  0.6273
   14SOL     OW   40   1.966   2.283   0.687  0.2138 -0.1981 -0.1807
   14SOL    HW1   41   1.959   2.269   0.585  0.1050 -0.0097 -2.3385
   14SOL    HW2   42   1.927   2.203   0.736  0.8051 -0.0043 -0.8834
   15SOL     OW   43   3.030   1.952   2.009  0.1570  0.2125  0.0952
   15SOL    HW1   44   0.005   2.042   1.988 -1.8523  2.3465 -1.4831
   15SOL    HW2   45   2.998   1.950   2.104  2.4700 -0.2969 -2.1736
   16SOL     OW   46   2.043   2.657   0.665  0.7691 -0.2055 -0.3985
   16SOL    HW1   47   2.095   2.743   0.659 -1.6790  1.2791  0.4096
   16SOL    HW2   48   2.047   2.625   0.763 -1.6239  0.3191 -0.8923
   17SOL     OW   49   0.737   3.046   1.221 -0.1884  0.0599 -0.0859
   17SOL    HW1   50   0.652   2.993   1.208 -0.0224  0.5462 -0.5591
   17SOL    HW2   51   0.759   0.001   1.321  1.2864  0.8105  1.7473
   18SOL     OW   52   1.551   0.996   0.123 -0.3932  0.2735 -0.4998
   18SOL    HW1   53   1.452   0.998   0.134  2.6621 -0.9163 -2.3184
   18SOL    HW2   54   1.575   0.915   0.064  1.5441 -3.0722 -0.6986
   19SOL     OW   55   1.594   1.837   0.374  0.7241  0.2154 -0.2751
   19SOL    HW1   56   1.616   1.738   0.389  0.5018 -2.1646  2.5493
   19SOL    HW2   57   1.503   1.859   0.414 -0.3159  0.2503  3.6855
   20SOL     OW   58   2.464   1.589   2.091  0.0951 -0.2135 -0.0757
   20SOL    HW1   59   2.429   1.685   2.097 -1.9549 -2.0271  2.3925
   20SOL    HW2   60   2.507   1.574   2.185  1.1748  3.1489  2.2338
   21SOL     OW   61   1.143   1.184   0.642  0.0622 -0.4688  0.1430
   21SOL    HW1   62   1.203   1.190   0.557 -1.0455 -1.2033  0.9824
   21SOL    HW2   63   1.044   1.164   0.615 -0.7740 -0.5008 -0.7656
   22SOL     OW   64   2.120   3.028   1.411 -0.1725  0.2710  0.7946
   22SOL    HW1   65   2.111   2.986   1.503  0.3014 -1.6272  3.7912
   22SOL    HW2   66   2.147   0.054   1.425 -2.1773  2.5064  2.0141
   23SOL     OW   67   2.923   0.715   1.807 -0.4452  0.6700  0.3260
   23SOL    HW1   68   2.886   0.757   1.891  3.0371 -1.0025 -1.0186
   23SOL    HW2   69   2.971   0.781   1.748  2.5660 -2.7387 -0.2995
   24SOL     OW   70   2.499   2.555   0.258  0.2097 -0.2503  0.2504
   24SOL    HW1   71   2.417   2.602   0.298 -2.2895 -0.9406  0.4289
   24SOL    HW2   72   2.526   2.584   0.160  2.2770 -0.3626 -0.4733
   25SOL     OW   73   1.224   0.270   2.163  0.2370 -0.7471 -0.0744
   25SOL    HW1   74   1.287   0.204   2.201 -1.4123 -1.0673 -2.8844
   25SOL    HW2   75   1.171   0.325   2.232  0.7082  1.6463  1.6975
   26SOL     OW   76   1.978   2.246   0.426 -0.3069 -0.1123 -0.2673
   26SOL    HW1   77   2.030   2.162   0.418 -0.7054 -1.7044 -2.3145
   26SOL    HW2   78   1.879   2.211   0.421 -1.4609 -1.6128  0.7340
   27SOL     OW   79   2.232   1.520   0.052  0.5544 -0.1192 -0.1412
   27SOL    HW1   80   2.179   1.466   3.054  3.0212  0.8650  0.8337
   27SOL    HW2   81   2.319   1.476   0.071 -0.9263 -1.1936 -0.3599
   28SOL     OW   82   0.604   1.474   1.653  0.0969 -0.4121 -0.4370
   28SOL    HW1   83   0.663   1.437   1.729 -0.6155 -1.4665 -3.1885
   28SOL    HW2   84   0.663   1.519   1.583 -2.1307  0.7077  1.3349
   29SOL     OW   85   2.432   2.281   1.499  0.7351  0.8841 -0.1600
   29SOL    HW1   86   2.465   2.287   1.403 -1.0734 -0.0196 -0.8951
   29SOL    HW2   87   2.419   2.379   1.532  0.6685  1.2496  0.6293
   30SOL     OW   88   1.535   0.464   0.461 -0.4201  0.1775  0.1408
   30SOL    HW1   89   1.475   0.409   0.524 -1.3275  1.5384  3.4256
   30SOL    HW2   90   1.586   0.538   0.514 -1.9838 -0.1154 -1.8280
   31SOL     OW   91   1.930   2.745   1.661  0.1756  0.4438  0.5033
   31SOL    HW1   92   1.855   2.711   1.725 -1.5138 -1.8199  2.2561
   31SOL    HW2   93   1.990   2.671   1.633  1.1403  2.9345  0.8312
   32SOL     OW   94   0.750   1.675   0.857 -0.1125 -0.3483 -0.0337
   32SOL    HW1   95   0.657   1.645   0.828 -3.0844 -0.3721 -0.0138
   32SOL    HW2   96   0.788   1.729   0.782 -1.3517 -0.2098  0.1264
   33SOL     OW   97   0.116   0.385   2.576  0.3250  0.3810  0.5455
   33SOL    HW1   98   0.207   0.353   2.604 -2.4491  0.8879  1.0995
   33SOL    HW2   99   0.101   0.375   2.476 -3.5429  1.5369  0.3170
   34SOL     OW  100   1.975   2.923   0.416  0.1364  0.3165 -0.0166
   34SOL    HW1  101   1.948   3.023   0.414 -0.8544  0.4578  0.7375
   34SOL    HW2  102   1.957   2.876   0.327  0.0886 -1.9214 -0.1037
   35SOL     OW  103   2.140   2.692   1.435 -0.0864  0.2988 -0.3377
   35SOL    HW1  104   2.189   2.728   1.354 -0.0197  1.2418  3.2869
   35SOL    HW2  105   2.044   2.731   1.437  0.8055  1.7299 -2.2398
   36SOL     OW  106   1.837   2.306   2.281 -0.2832  0.1289 -0.3237
   36SOL    HW1  107   1.894   2.229   2.313 -0.4246  0.1863 -0.4433
   36SOL    HW2  108   1.886   2.395   2.286  0.1211  1.3297  1.1057
   37SOL     OW  109   0.896   0.065   1.782 -0.1657 -0.5537 -0.8577
   37SOL    HW1  110   0.809   0.056   1.828 -0.5969  0.1616 -1.0389
   37SOL    HW2  111   0.965   0.095   1.854  0.5787 -0.4753 -0.8061
   38SOL     OW  112   2.934   0.254   2.577  0.4916 -0.4583  0.3355
   38SOL    HW1  113   2.893   0.233   2.670 -0.8569 -0.3349  0.3244
   38SOL    HW2  114   3.025   0.308   2.586  1.2738  0.2437  1.9027
   39SOL     OW  115   2.221   0.937   1.475  0.2034 -0.2283 -0.0134
   39SOL    HW1  116   2.207   0.933   1.574  0.3271  2.1636 -1.0086
   39SOL    HW2  117   2.211   1.031   1.435 -2.0094  2.2454  0.8113
   40SOL     OW  118   1.094   2.737   3.057 -0.1969 -0.5721  1.0926
   40SOL    HW1  119   0.995   2.722   3.038 -0.3356 -1.5518  0.0520
   40SOL    HW2  120   1.123   2.826   3.017  1.7344 -0.1177 -1.1054
   41SOL     OW  121   2.423   1.335   0.998 -0.5320 -0.2277  0.5607
   41SOL    HW1  122   2.464   1.395   1.068 -0.1623 -2.7700  1.3160
   41SOL    HW2  123   2.499   1.300   0.941 -0.1349  1.8873  0.3695
   42SOL     OW  124   0.255   0.268   1.233 -0.3350 -1.0106  0.2734
   42SOL    HW1  125   0.341   0.290   1.288  0.8242  0.4897  0.6971
   42SOL    HW2  126   0.268   0.312   1.140 -0.2876  2.7761  2.5759
   43SOL     OW  127   2.850   1.511   2.627  0.1437  0.0275 -0.2723
   43SOL    HW1  128   2.767   1.552   2.672  0.3685  0.3055 -1.7452
   43SOL    HW2  129   2.823   1.462   2.541 -0.5187  1.5712 -1.2947
   44SOL     OW  130   2.591   0.044   1.769  0.3240  0.0148 -0.0697
   44SOL    HW1  131   2.598   0.132   1.721  2.6074 -1.8459 -0.0336
   44SOL    HW2  132   2.637   0.037   1.860 -0.3406  2.1007  0.3090
   45SOL     OW  133   0.704   2.863   1.718 -0.0708 -0.4199  0.1276
   45SOL    HW1  134   0.785   2.923   1.727 -1.1749  1.2357 -1.2625
   45SOL    HW2  135   0.678   2.820   1.806 -1.2617  2.6505 -2.3909
   46SOL     OW  136   1.286   2.830   2.615  0.2287  0.6219 -0.3484
   46SOL    HW1  137   1.221   2.764   2.658 -0.7549  0.9774 -0.8022
   46SOL    HW2  138   1.282   2.925   2.661 -2.0967  1.0850  5.4685
   47SOL     OW  139   1.665   2.131   0.708  0.1958 -0.0503  0.1548
   47SOL    HW1  140   1.571   2.110   0.741  0.9645  1.3984  0.6748
   47SOL    HW2  141   1.728   2.076   0.767 -2.1170 -1.4351 -1.2461
   48SOL     OW  142   0.976   2.190   0.580  0.2880  0.3567  0.1171
   48SOL    HW1  143   0.955   2.285   0.554  0.5101  0.2643 -1.9513
   48SOL    HW2  144   0.896   2.156   0.629 -0.2399  2.0000 -0.2588
   49SOL     OW  145   2.113   2.891   2.397 -0.0511 -0.6266  0.1841
   49SOL    HW1  146   2.184   2.965   2.399  1.2394 -1.5747 -1.1094
   49SOL    HW2  147   2.154   2.804   2.429 -0.9574  0.6739  0.7590
   50SOL     OW  148   1.847   0.276   0.201  0.2605 -0.0159  0.4396
   50SOL    HW1  149   1.914   0.352   0.189 -0.0500 -1.7199 -0.6210
   50SOL    HW2  150   1.751   0.301   0.170 -0.1952 -0.1650  2.4729
   51SOL     OW  151   2.160   0.930   0.709 -0.0643  0.6126  0.0678
   51SOL    HW1  152   2.101   0.940   0.625 -0.5897 -0.6045  0.5288
   51SOL    HW2  153   2.121   0.872   0.779  2.0473 -0.0737  0.3426
   52SOL     OW  154   1.137   1.572   1.225 -0.3665 -0.0536 -0.3060
   52SOL    HW1  155   1.220   1.542   1.272  1.3821  0.8293 -1.4222
   52SOL    HW2  156   1.109   1.498   1.158 -1.1784 -2.0471 -0.3110
   53SOL     OW  157   0.981   1.686   2.373 -0.4845 -0.6668  0.1938
   53SOL    HW1  158   0.900   1.653   2.322  0.9267 -0.0144 -0.3536
   53SOL    HW2  159   0.941   1.749   2.446 -1.5162  1.5963 -0.3390
   54SOL     OW  160   2.470   0.340   1.646 -0.0765  0.3331  0.3700
   54SOL    HW1  161   2.566   0.309   1.620 -1.0317 -0.0726  0.6678
   54SOL    HW2  162   2.426   0.390   1.569  0.0582 -0.1812  1.0785
   55SOL     OW  163   2.819   1.950   0.679 -0.1122 -0.1991  0.6209
   55SOL    HW1  164   2.816   1.877   0.753  0.1834  2.0698 -0.7684
   55SOL    HW2  165   2.740   1.969   0.620 -1.4171  0.6385  2.1438
   56SOL     OW  166   0.925   0.595   2.239 -0.4528  0.1539 -0.4190
   56SOL    HW1  167   0.984   0.526   2.290 -0.7604  0.4933 -1.1153
   56SOL    HW2  168   0.969   0.638   2.162 -1.6895 -1.1604  2.0658
   57SOL     OW  169   1.305   1.318   2.889  0.1129 -0.1623 -0.3324
   57SOL    HW1  170   1.275   1.247   2.963 -0.3892  0.1964  1.0588
   57SOL    HW2  171   1.391   1.292   2.843 -3.5176  1.8115  0.0597
   58SOL     OW  172   0.285   0.886   1.403 -0.2937 -0.5650 -0.1161
   58SOL    HW1  173   0.227   0.842   1.471  1.4795  0.4690  0.5317
   58SOL    HW2  174   0.258   0.871   1.304  0.2997 -0.2690  0.4075
   59SOL     OW  175   1.454   2.886   0.024 -0.7156 -0.4270 -0.0232
   59SOL    HW1  176   1.542   2.856   3.046  0.6496 -0.4737 -0.8051
   59SOL    HW2  177   1.448   2.990   0.018 -2.6671 -0.4071  1.2150
   60SOL     OW  178   2.910   1.799   0.261  0.4765 -0.4639 -0.5927
   60SOL    HW1  179   2.943   1.791   0.355  0.2155 -1.0259  0.6866
   60SOL    HW2  180   2.927   1.716   0.211 -0.7722  2.6232  1.3992
   61SOL     OW  181   1.400   2.834   0.588 -0.3668 -0.1086  0.8758
   61SOL    HW1  182   1.440   2.834   0.681 -2.1650  0.6520 -1.9237
   61SOL    HW2  183   1.448   2.910   0.534 -0.4697  3.2569 -2.6606
   62SOL     OW  184   2.159   1.920   2.535  0.1624  0.2739 -0.0181
   62SOL    HW1  185   2.113   1.865   2.468  0.5634 -5.3867  1.7907
   62SOL    HW2  186   2.127   2.018   2.542 -1.6643  3.0760 -0.1748
   63SOL     OW  187   2.357   2.596   0.624 -0.6141 -0.1908 -0.5578
   63SOL    HW1  188   2.336   2.629   0.531  1.9110  0.4042  1.7033
   63SOL    HW2  189   2.294   2.520   0.657 -0.0793 -1.3808 -0.9152
   64SOL     OW  190   1.680   1.200   2.536 -0.4610  0.6329 -0.1770
   64SOL    HW1  191   1.646   1.289   2.570  1.2042 -1.5338 -1.8766
   64SOL    HW2  192   1.606   1.166   2.475  0.6396 -0.6197  0.7602
   65SOL     OW  193   1.664   1.835   2.691  0.6405 -0.2299  0.1167
   65SOL    HW1  194   1.644   1.739   2.701 -1.3834 -0.7361  1.6065
   65SOL    HW2  195   1.583   1.889   2.670  1.5327 -2.7893  2.4053
   66SOL     OW  196   0.315   0.733   1.753  0.1372 -0.6474 -0.1643
   66SOL    HW1  197   0.395   0.776   1.799 -0.6631 -0.4244  0.2068
   66SOL    HW2  198   0.341   0.660   1.691  0.2543  0.9431 -0.3004
   67SOL     OW  199   2.347   2.835   2.769  0.2184  0.2987  0.2823
   67SOL    HW1  200   2.290   2.793   2.842  1.4491  0.4267 -0.6246
   67SOL    HW2  201   2.387   2.919   2.802 -1.7027  0.4743 -3.1088
   68SOL     OW  202   1.167   2.560   1.298 -0.2190  0.6063 -0.3157
   68SOL    HW1  203   1.149   2.521   1.207  2.7751  0.7256 -1.2761
   68SOL    HW2  204   1.238   2.502   1.345  2.5134 -0.3863  0.7309
   69SOL     OW  205   0.646   2.503   0.327 -0.4172 -0.1613 -0.3749
   69SOL    HW1  206   0.696   2.427   0.279 -2.4594  2.3026  0.5983
   69SOL    HW2  207   0.546   2.498   0.307  1.5157 -1.6708 -0.4517
   70SOL     OW  208   2.363   0.107   2.679  0.1987 -0.1071 -0.3029
   70SOL    HW1  209   2.299   0.186   2.683 -0.5931 -1.2091 -2.9108
   70SOL    HW2  210   2.367   0.069   2.589 -0.3383  1.3275  2.3546
   71SOL     OW  211   0.507   1.247   2.282  0.1156 -0.0969  0.1533
   71SOL    HW1  212   0.557   1.320   2.332  1.0474  0.8405 -1.6212
   71SOL    HW2  213   0.546   1.234   2.192  1.5174  3.2022  1.8353
   72SOL     OW  214   2.936   1.964   0.053  0.0983 -0.1159  0.5665
   72SOL    HW1  215   2.894   1.907   0.125  2.0420 -1.5344 -1.8771
   72SOL    HW2  216   2.874   2.033   0.013  1.3693  0.2865 -2.0006
   73SOL     OW  217   1.311   1.233   0.438 -0.0309  0.2276 -0.3336
   73SOL    HW1  218   1.355   1.315   0.478  0.5458 -2.4923  0.5321
   73SOL    HW2  219   1.381   1.182   0.378  1.8776 -0.3633 -1.3270
   74SOL     OW  220   2.262   2.717   2.531  0.4801 -0.3370  0.0476
   74SOL    HW1  221   2.199   2.642   2.556  2.0015  3.3758 -3.8226
   74SOL    HW2  222   2.307   2.761   2.610 -0.7755  0.5330 -0.7150
   75SOL     OW  223   2.211   2.054   0.890  0.2698 -0.5348 -0.2517
   75SOL    HW1  224   2.242   2.126   0.957  0.7523 -0.2689 -0.5591
   75SOL    HW2  225   2.199   2.095   0.794  2.9177  0.7772 -2.8241
   76SOL     OW  226   1.883   2.357   1.452  0.1801  0.0274  0.2299
   76SOL    HW1  227   1.882   2.446   1.404 -1.4754 -1.9437 -0.7130
   76SOL    HW2  228   1.968   2.345   1.502 -2.7153 -0.0243 -0.4885
   77SOL     OW  229   2.329   0.065   2.108 -0.2853  0.6310  0.2011
   77SOL    HW1  230   2.232   0.089   2.131 -0.4920 -2.1254  1.7701
   77SOL    HW2  231   2.330   0.038   2.006  1.5863 -2.1016 -3.0930
   78SOL     OW  232   1.577   0.813   2.939 -0.5988  0.6156 -0.3029
   78SOL    HW1  233   1.486   0.774   2.953  2.2513 -0.6927 -2.5270
   78SOL    HW2  234   1.638   0.750   2.888 -1.4784 -0.3674  1.9690
   79SOL     OW  235   2.528   1.570   2.352 -0.1122  0.1889  0.5543
   79SOL    HW1  236   2.478   1.642   2.402  0.0107 -1.0338  0.4659
   79SOL    HW2  237   2.590   1.512   2.416  1.9335 -2.4292  1.2260
   80SOL     OW  238   1.850   1.522   1.549  0.8618 -0.5952  0.0969
   80SOL    HW1  239   1.860   1.596   1.478 -0.0255  1.3950  1.1186
   80SOL    HW2  240   1.880   1.440   1.501 -1.7220  0.6270 -0.5719
   81SOL     OW  241   1.333   0.504   1.098  0.0412 -0.3569 -0.3045
   81SOL    HW1  242   1.328   0.465   1.194 -1.6438  1.6239  1.7259
   81SOL    HW2  243   1.281   0.455   1.027 -0.0894 -1.0684  1.2922
   82SOL     OW  244   1.566   2.552   1.731  0.3635 -0.0093  0.2553
   82SOL    HW1  245   1.505   2.555   1.813 -1.3419 -0.9982  1.5537
   82SOL    HW2  246   1.509   2.603   1.660 -1.1634  1.3284 -0.0985
   83SOL     OW  247   0.312   0.117   0.605 -0.0272 -0.2713  0.8141
   83SOL    HW1  248   0.269   0.069   0.685 -1.7964 -1.7820  0.7441
   83SOL    HW2  249   0.229   0.162   0.560 -0.9822 -3.4378  2.3431
   84SOL     OW  250   0.640   1.095   0.034  0.0040 -0.4660  0.1083
   84SOL    HW1  251   0.682   1.184   0.062  1.9650 -1.9944  3.0284
   84SOL    HW2  252   0.540   1.105   3.069 -2.6706 -2.8836 -1.0479
   85SOL     OW  253   2.739   1.759   1.590 -0.3029 -0.4234  0.1768
   85SOL    HW1  254   2.768   1.712   1.674  1.1914 -0.6121  0.7289
   85SOL    HW2  255   2.646   1.722   1.567 -0.5890 -0.0933  0.2145
   86SOL     OW  256   3.054   2.813   1.557 -0.2897  0.3964 -0.1504
   86SOL    HW1  257   0.083   2.801   1.582 -2.8530  0.5968  1.2594
   86SOL    HW2  258   3.038   2.754   1.478  1.0007 -1.1365  0.3160
   87SOL     OW  259   0.615   0.125   2.284 -0.1111  0.2824  0.1397
   87SOL    HW1  260   0.687   0.172   2.231 -0.3279 -1.9798 -1.0624
   87SOL    HW2  261   0.518   0.139   2.251 -2.3710  0.5090 -1.0071
   88SOL     OW  262   0.402   2.188   1.174 -0.7609 -0.0689  0.5311
   88SOL    HW1  263   0.502   2.169   1.187  1.1210  0.3183  0.6450
   88SOL    HW2  264   0.363   2.236   1.257 -2.7303  2.0197  1.3445
   89SOL     OW  265   0.968   0.450   1.496 -0.1279 -0.0681 -0.0249
   89SOL    HW1  266   1.061   0.492   1.497 -2.5671 -2.4070  2.1580
   89SOL    HW2  267   0.959   0.361   1.549 -2.4159  1.5154 -0.3008
   90SOL     OW  268   2.632   1.434   1.778  0.1388  0.7439 -0.8879
   90SOL    HW1  269   2.627   1.527   1.817 -2.3683  0.8822 -0.1700
   90SOL    HW2  270   2.604   1.359   1.845  0.7004 -3.2138  0.6691
   91SOL     OW  271   1.320   0.996   1.086  0.0515 -0.2236  0.3541
   91SOL    HW1  272   1.307   0.892   1.103  0.6530 -2.0226  1.1059
   91SOL    HW2  273   1.302   1.023   0.990  2.8063  1.8844 -2.1705
   92SOL     OW  274   2.574   1.005   0.941 -0.0612 -0.2141  0.0004
   92SOL    HW1  275   2.605   1.094   0.901  0.0838 -3.1370 -1.0729
   92SOL    HW2  276   2.523   0.963   0.865 -0.5459  0.8766  2.7016
   93SOL     OW  277   2.291   0.751   2.391  0.4886 -0.2306 -0.7017
   93SOL    HW1  278   2.371   0.746   2.334 -0.0985  0.5554 -0.3395
   93SOL    HW2  279   2.250   0.847   2.377  0.1202  2.6975  2.5714
   94SOL     OW  280   2.426   1.808   2.450 -0.1338  0.3427  0.4050
   94SOL    HW1  281   2.429   1.827   2.350 -1.2692 -0.8496  0.1009
   94SOL    HW2  282   2.338   1.842   2.493 -2.8596  2.2443 -1.3781
   95SOL     OW  283   2.128   0.561   0.892 -0.0038  0.1466  0.3902
   95SOL    HW1  284   2.093   0.490   0.950 -0.4532  1.2194 -1.5069
   95SOL    HW2  285   2.208   0.606   0.932  0.0893 -1.3527 -3.3028
   96SOL     OW  286   2.588   2.837   1.987 -0.2181  0.0765  0.0452
   96SOL    HW1  287   2.495   2.854   1.939 -1.6180  1.2169 -0.5071
   96SOL    HW2  288   2.642   2.926   2.000 -1.7745  2.4827 -0.9029
   97SOL     OW  289   2.490   0.803   1.165 -0.5302  0.1439  0.1402
   97SOL    HW1  290   2.470   0.900   1.189  2.1306 -1.3023 -1.6890
   97SOL    HW2  291   2.497   0.747   1.250 -0.3078 -1.6485 -0.7870
   98SOL     OW  292   1.464   2.119   1.618  0.0313 -0.2616  0.2215
   98SOL    HW1  293   1.539   2.056   1.588  1.8069 -0.8749 -0.7361
   98SOL    HW2  294   1.495   2.217   1.599 -0.2614 -0.5865 -0.9686
   99SOL     OW  295   2.700   2.278   1.607  0.4250  0.0900 -0.2793
   99SOL    HW1  296   2.751   2.188   1.620  1.5549 -0.7113  0.5592
   99SOL    HW2  297   2.625   2.270   1.537 -1.0364 -1.5711 -0.3197
  100SOL     OW  298   0.928   0.744   2.890  0.1746  0.1547 -0.2962
  100SOL    HW1  299   0.833   0.775   2.851 -1.1675  0.4376 -1.8904
  100SOL    HW2  300   0.989   0.829   2.905 -0.4184  3.3940 -1.7811
  101SOL     OW  301   2.126   0.207   2.937  0.1778  0.1655 -0.0026
  101SOL    HW1  302   2.060   0.155   2.996 -0.0023 -1.0727 -1.5859
  101SOL    HW2  303   2.127   0.310   2.950  0.8097  1.3189 -2.0061
  102SOL     OW  304   0.443   0.481   1.693  0.2028  0.5843  0.0735
  102SOL    HW1  305   0.531   0.518   1.724  0.2568 -2.8612  0.0617
  102SOL    HW2  306   0.399   0.432   1.771  1.9406  0.1935 -0.1219
  103SOL     OW  307   0.259   0.490   2.893 -0.0284  0.4712  0.2810
  103SOL    HW1  308   0.350   0.517   2.853  1.1837 -1.2036 -0.1329
  103SOL    HW2  309   0.188   0.553   2.854 -1.1912  0.8212  0.0283
  104SOL     OW  310   0.748   0.252   2.529  0.0287  0.1146 -0.1324
  104SOL    HW1  311   0.846   0.233   2.545 -0.0506 -1.4961  0.7065
  104SOL    HW2  312   0.713   0.203   2.444  0.9213 -2.7703 -1.4684
  105SOL     OW  313   2.216   1.890   1.834 -0.2984  0.0717  0.2232
  105SOL    HW1  314   2.175   1.900   1.926 -3.0706  0.5695 -1.2646
  105SOL    HW2  315   2.303   1.938   1.826 -0.2387  0.3117  1.9577
  106SOL     OW  316   1.877   0.535   0.322  0.3443  0.9100 -0.0322
  106SOL    HW1  317   1.924   0.511   0.407 -2.8002  1.3606 -1.6794
  106SOL    HW2  318   1.829   0.622   0.336  0.6320 -0.2836 -1.8527
  107SOL     OW  319   3.044   1.862   1.008  0.0858 -0.0162 -0.2028
  107SOL    HW1  320   3.042   1.893   1.105  2.2717  0.1767  0.3153
  107SOL    HW2  321   3.065   1.935   0.940  2.2928 -0.3761 -0.4824
  108SOL     OW  322   2.685   2.847   1.567  0.3368 -0.0527 -0.6382
  108SOL    HW1  323   2.697   2.917   1.640 -1.8878 -0.8085 -0.8666
  108SOL    HW2  324   2.726   2.872   1.481  1.2360  0.2730  2.6636
  109SOL     OW  325   1.968   2.786   1.002  0.0519 -0.4769 -0.4641
  109SOL    HW1  326   1.973   2.875   0.948  0.8077 -1.8425  0.4242
  109SOL    HW2  327   2.044   2.722   0.973  0.7954  1.4175  0.6323
  110SOL     OW  328   0.511   2.009   2.590 -0.2261 -0.2871 -0.2160
  110SOL    HW1  329   0.428   2.037   2.537  1.7968  2.3496  1.0937
  110SOL    HW2  330   0.580   2.030   2.522 -1.2686  1.8313  0.0539
  111SOL     OW  331   1.532   2.404   2.054 -0.7553  0.2356 -0.2991
  111SOL    HW1  332   1.469   2.466   1.997  1.3028  1.4340  1.5661
  111SOL    HW2  333   1.617   2.459   2.065  0.2636  2.4496  0.8596
  112SOL     OW  334   2.111   1.947   3.028  0.2485 -0.2091 -0.0913
  112SOL    HW1  335   2.162   2.017   0.008  1.0000 -0.6880  1.0644
  112SOL    HW2  336   2.035   1.999   2.982 -1.6564 -0.5464 -1.0912
  113SOL     OW  337   1.515   1.839   1.280 -0.0970  0.3781 -0.0566
  113SOL    HW1  338   1.422   1.837   1.245  2.8333 -0.5183  0.0571
  113SOL    HW2  339   1.539   1.751   1.327 -1.2018  0.1184  2.3758
  114SOL     OW  340   2.952   0.920   0.866  0.0053  0.6639  0.2841
  114SOL    HW1  341   2.957   0.941   0.761  1.9945 -1.7370  0.5335
  114SOL    HW2  342   2.977   1.004   0.915  0.9692  0.7805 -2.1454
  115SOL     OW  343   0.724   0.893   0.212 -0.0226  0.1410 -0.0575
  115SOL    HW1  344   0.707   0.977   0.160 -1.3811  0.2221  1.0097
  115SOL    HW2  345   0.628   0.862   0.236 -2.3459 -1.4072  1.0038
  116SOL     OW  346   2.723   1.378   2.420  0.3769  0.0726 -0.2769
  116SOL    HW1  347   2.692   1.305   2.483  0.7292  0.9694 -0.4661
  116SOL    HW2  348   2.700   1.361   2.323  2.5440  4.2644 -1.8930
  117SOL     OW  349   0.180   3.055   0.805  0.0035  0.8424  0.4008
  117SOL    HW1  350   0.227   2.971   0.835 -0.4057  1.2465 -1.1019
  117SOL    HW2  351   0.112   3.044   0.728 -1.2606 -1.0069 -0.0172
  118SOL     OW  352   0.937   1.857   2.592  0.2527 -0.0356 -0.8087
  118SOL    HW1  353   1.027   1.834   2.637  2.4934 -0.1016 -0.6832
  118SOL    HW2  354   0.858   1.812   2.646 -0.5862  1.7946  2.1842
  119SOL     OW  355   0.372   2.496   0.290 -0.1947 -0.1192  0.3499
  119SOL    HW1  356   0.333   2.440   0.370 -0.3824 -3.3763  1.8480
  119SOL    HW2  357   0.312   2.492   0.204 -6.1503  1.7767 -1.7416
  120SOL     OW  358   1.305   0.770   2.947 -0.2490  0.3864  0.0942
  120SOL    HW1  359   1.311   0.703   2.871 -1.7001  0.5251 -1.5565
  120SOL    HW2  360   1.228   0.836   2.928 -2.1431  2.9378  3.4260
  121SOL     OW  361   1.495   2.848   0.847  0.2791  0.0980 -0.2448
  121SOL    HW1  362   1.511   2.948   0.850 -0.0528 -0.1910  0.9927
  121SOL    HW2  363   1.554   2.803   0.914  3.9680 -0.0063 -2.2161
  122SOL     OW  364   2.324   2.527   1.563  0.0026  0.1224 -0.4083
  122SOL    HW1  365   2.400   2.583   1.594 -1.0244 -3.1295  1.5788
  122SOL    HW2  366   2.244   2.589   1.543  1.9819  1.6979 -0.9372
  123SOL     OW  367   0.539   2.302   0.788 -0.0226 -0.1536 -0.7415
  123SOL    HW1  368   0.443   2.271   0.822 -3.8785 -1.7927  0.8977
  123SOL    HW2  369   0.547   2.402   0.803  1.8812 -0.2502  0.4110
  124SOL     OW  370   2.387   0.636   0.087 -0.2912 -0.5756  0.0588
  124SOL    HW1  371   2.375   0.535   0.100 -0.3534  1.5231 -2.7772
  124SOL    HW2  372   2.476   0.662   0.050 -1.1805  0.6161  1.8571
  125SOL     OW  373   0.675   1.189   0.363 -0.2091 -0.3186 -0.3733
  125SOL    HW1  374   0.659   1.106   0.418 -0.7170  0.8691  0.6240
  125SOL    HW2  375   0.759   1.185   0.305 -0.0625  2.4845  1.5617
  126SOL     OW  376   0.158   1.631   0.937 -0.0318 -0.0640  0.2406
  126SOL    HW1  377   0.225   1.631   1.013  0.7181 -0.2035  1.5476
  126SOL    HW2  378   0.088   1.704   0.954 -2.4118  1.2524 -0.9869
  127SOL     OW  379   0.925   2.053   2.407 -0.4132 -0.1854 -0.0391
  127SOL    HW1  380   1.008   2.026   2.349  1.7058 -1.3488 -0.7221
  127SOL    HW2  381   0.934   2.003   2.496  1.4211  0.0819  1.7616
  128SOL     OW  382   0.821   1.039   2.875  0.0118 -0.2817 -0.1629
  128SOL    HW1  383   0.923   1.025   2.891  0.1842 -2.2246 -0.0450
  128SOL    HW2  384   0.772   1.045   2.967 -0.9359  0.6910  1.5942
  129SOL     OW  385   2.394   1.639   0.765 -0.2724 -0.0817 -0.0903
  129SOL    HW1  386   2.309   1.597   0.795  0.8708  0.2988 -2.1374
  129SOL    HW2  387   2.383   1.706   0.684 -2.0004  1.2385 -0.7637
  130SOL     OW  388   2.524   1.516   1.166 -0.5258  0.0593  0.1726
  130SOL    HW1  389   2.530   1.588   1.093 -0.7964 -1.9480 -0.7327
  130SOL    HW2  390   2.597   1.527   1.234 -1.9513 -1.0930 -1.6242
  131SOL     OW  391   0.003   2.860   3.045 -0.0085 -0.0428  0.1708
  131SOL    HW1  392   3.067   2.961   3.032 -1.3022 -1.1586 -1.2961
  131SOL    HW2  393   0.091   2.833   0.016 -1.2105 -1.4666  2.0727
  132SOL     OW  394   0.515   1.620   0.712  0.3422  0.6598 -0.4824
  132SOL    HW1  395   0.525   1.675   0.625 -1.1119  0.3981 -0.3183
  132SOL    HW2  396   0.503   1.516   0.699 -1.3371 -0.0438 -1.5911
  133SOL     OW  397   0.789   0.391   1.299  0.0893  0.2691 -0.2957
  133SOL    HW1  398   0.855   0.410   1.374 -0.3040 -0.0469  0.1003
  133SOL    HW2  399   0.828   0.314   1.246  0.4577  0.7789  2.2819
  134SOL     OW  400   0.035   1.761   3.023 -0.2554 -0.0700  0.2414
  134SOL    HW1  401   0.009   1.718   2.934 -0.0130 -1.8892  1.3206
  134SOL    HW2  402   3.045   1.835   3.057  0.2676 -1.1558 -0.0916
  135SOL     OW  403   1.642   0.687   1.530 -0.1009 -0.2551  0.6411
  135SOL    HW1  404   1.628   0.765   1.463  0.4771  1.8458 -1.0527
  135SOL    HW2  405   1.634   0.595   1.490  1.3483  0.2107 -2.4223
  136SOL     OW  406   0.107   1.389   0.177  0.5197 -0.8596  0.5962
  136SOL    HW1  407   0.186   1.445   0.215 -1.5013 -0.0544  0.4898
  136SOL    HW2  408   0.046   1.361   0.257 -0.6187 -2.1826  3.1261
  137SOL     OW  409   0.222   1.272   0.995  0.1934 -0.0576  0.5159
  137SOL    HW1  410   0.261   1.230   0.908  1.8548 -4.3629  0.0017
  137SOL    HW2  411   0.124   1.306   0.981 -3.5327  0.6757 -3.6776
  138SOL     OW  412   1.879   0.798   0.947 -0.6489 -0.3855 -0.1925
  138SOL    HW1  413   1.942   0.722   0.961 -2.0495 -1.6464  0.9872
  138SOL    HW2  414   1.877   0.851   1.029 -0.3335 -1.0445 -1.6770
  139SOL     OW  415   1.684   2.582   0.232 -0.3008  0.6220 -0.3268
  139SOL    HW1  416   1.660   2.574   0.331  0.3614  0.1619  0.4206
  139SOL    HW2  417   1.718   2.495   0.202 -4.7282  1.5313  1.4113
  140SOL     OW  418   1.145   1.702   1.624  0.0384 -0.3500 -0.1015
  140SOL    HW1  419   1.143   1.765   1.704  1.1727  1.9399  1.9099
  140SOL    HW2  420   1.144   1.600   1.646 -1.6469 -1.6984  1.1048
  141SOL     OW  421   1.735   2.114   0.438 -0.2816  0.5483  0.4058
  141SOL    HW1  422   1.669   2.048   0.396  0.9877  0.8786 -0.9162
  141SOL    HW2  423   1.734   2.116   0.538  1.1477  0.7780  1.4815
  142SOL     OW  424   0.867   0.563   0.024  0.0740 -0.1153 -0.5020
  142SOL    HW1  425   0.945   0.595   0.087  2.4668  1.1754 -0.8233
  142SOL    HW2  426   0.885   0.611   2.998  1.6060  2.0366 -1.1516
  143SOL     OW  427   0.290   2.174   3.014  0.5199 -0.1153 -0.2549
  143SOL    HW1  428   0.296   2.201   2.913  1.7468 -1.6992 -1.2189
  143SOL    HW2  429   0.231   2.236   0.003 -1.3017  2.1263  1.1059
  144SOL     OW  430   1.401   2.816   1.172  0.8906  0.0778  0.4473
  144SOL    HW1  431   1.323   2.809   1.241 -1.0014 -0.0350  1.7947
  144SOL    HW2  432   1.478   2.877   1.200  1.7657 -1.4748  1.7404
  145SOL     OW  433   1.896   0.932   2.937  0.3124 -0.0420  0.0988
  145SOL    HW1  434   1.957   0.928   3.019 -1.7407 -0.4305 -0.2738
  145SOL    HW2  435   1.816   0.992   2.954 -1.6419 -1.6895 -1.0637
  146SOL     OW  436   0.065   2.447   1.011 -0.1225 -0.2644 -0.5595
  146SOL    HW1  437   0.026   2.536   0.979  0.3810 -0.9889 -2.3891
  146SOL    HW2  438   0.024   2.372   0.965 -0.1714  2.7822  0.9085
  147SOL     OW  439   2.326   0.044   1.829 -0.0270  0.2025 -0.5717
  147SOL    HW1  440   2.283   0.129   1.793  1.2015 -0.8391  1.0027
  147SOL    HW2  441   2.416   0.020   1.787 -1.4601 -1.3744  1.5363
  148SOL     OW  442   1.163   2.926   2.013  0.1700  0.3334 -0.1278
  148SOL    HW1  443   1.205   2.918   1.915 -0.6442 -0.2114  0.7864
  148SOL    HW2  444   1.144   3.027   2.031  2.2582 -0.6435 -1.3471
  149SOL     OW  445   1.811   0.278   2.381  0.8532  0.7257  0.4801
  149SOL    HW1  446   1.724   0.297   2.433 -0.4299  3.3886  1.8581
  149SOL    HW2  447   1.803   0.315   2.287 -0.8051  0.2465 -2.4035
  150SOL     OW  448   0.190   2.970   0.400  0.3423  0.9545 -0.0433
  150SOL    HW1  449   0.220   3.052   0.351 -0.7606 -1.3668  1.1662
  150SOL    HW2  450   0.104   2.980   0.456  1.9250  0.0517 -2.9044
  151SOL     OW  451   0.210   2.261   0.432  0.1128  0.2050 -0.8341
  151SOL    HW1  452   0.274   2.208   0.488  1.9437 -0.3957 -2.1474
  151SOL    HW2  453   0.150   2.203   0.375  0.0784  0.8978  0.7438
  152SOL     OW  454   2.809   0.217   0.612 -0.2725 -0.2431  0.2087
  152SOL    HW1  455   2.849   0.185   0.700  1.6238  0.6448 -0.2936
  152SOL    HW2  456   2.836   0.310   0.592 -0.9073  0.3807 -0.1053
  153SOL     OW  457   2.570   0.453   0.886  0.5657  0.3631  0.6992
  153SOL    HW1  458   2.569   0.355   0.902  0.7303  1.8812 -1.6179
  153SOL    HW2  459   2.613   0.502   0.965  1.8019 -2.3305 -1.4899
  154SOL     OW  460   0.881   0.261   2.212 -0.6115  0.1656 -0.3014
  154SOL    HW1  461   0.952   0.301   2.276  0.9637  0.6591  1.7902
  154SOL    HW2  462   0.870   0.322   2.127  1.3697  0.2935 -0.1571
  155SOL     OW  463   0.258   1.613   1.189  0.4364  0.3486 -0.2413
  155SOL    HW1  464   0.208   1.682   1.245 -0.0652 -0.2419 -2.4769
  155SOL    HW2  465   0.350   1.603   1.225  0.4153 -1.1130  0.5459
  156SOL     OW  466   2.553   1.973   0.044  0.3841  0.3948  0.3435
  156SOL    HW1  467   2.499   2.028   3.046  2.4764  2.0522 -2.3474
  156SOL    HW2  468   2.505   1.886   0.066 -1.6560  0.1764  0.5884
  157SOL     OW  469   0.889   0.763   0.359  0.4266  0.1261  0.4589
  157SOL    HW1  470   0.850   0.682   0.407 -1.1515 -1.7473  0.2611
  157SOL    HW2  471   0.818   0.807   0.304  0.1956 -1.4361  0.4967
  158SOL     OW  472   2.609   3.029   2.765  0.1700 -0.6270 -0.7752
  158SOL    HW1  473   2.514   3.035   2.737  0.3952  0.2347  0.1015
  158SOL    HW2  474   2.631   0.013   2.849  0.0218  0.0970 -2.3980
  159SOL     OW  475   0.521   0.230   0.781 -0.6349 -0.3199  0.0351
  159SOL    HW1  476   0.437   0.209   0.724  2.4480 -0.8514  0.0067
  159SOL    HW2  477   0.545   0.147   0.832 -3.1641  0.7260 -0.3298
  160SOL     OW  478   1.253   1.805   2.517  0.2172  0.2873  0.3485
  160SOL    HW1  479   1.176   1.781   2.454 -3.2232  0.5808  0.2324
  160SOL    HW2  480   1.287   1.719   2.567  0.9321 -3.1988 -2.2497
  161SOL     OW  481   3.008   1.249   2.710 -0.3945  0.0711  0.1754
  161SOL    HW1  482   0.022   1.312   2.713 -0.0290 -1.8979  0.0532
  161SOL    HW2  483   2.941   1.276   2.779  1.5832  0.5047 -2.0654
  162SOL     OW  484   0.588   2.424   1.331 -0.3212 -0.0262  0.3195
  162SOL    HW1  485   0.641   2.353   1.281  2.0040 -1.4704  0.7517
  162SOL    HW2  486   0.493   2.394   1.365 -1.2445  3.4588  2.3683
  163SOL     OW  487   2.069   0.117   2.203 -0.1517  0.1912  0.1377
  163SOL    HW1  488   2.088   0.166   2.293 -4.0985 -0.2431  1.3830
  163SOL    HW2  489   2.025   0.181   2.139  0.3665  2.0578  0.1884
  164SOL     OW  490   2.039   1.503   0.553  0.4439 -0.6828 -0.6250
  164SOL    HW1  491   1.984   1.556   0.490  1.9577  1.2906 -0.7995
  164SOL    HW2  492   2.105   1.448   0.499  1.4114  1.5297 -0.6220
  165SOL     OW  493   2.977   0.267   1.703  0.3749 -0.6296  0.4301
  165SOL    HW1  494   3.012   0.265   1.798 -0.2205 -0.3840  2.7862
  165SOL    HW2  495   3.055   0.264   1.634  0.6805 -0.5670  3.5178
  166SOL     OW  496   2.016   0.934   0.104  0.0320 -0.4936  0.5443
  166SOL    HW1  497   1.971   0.845   0.133  3.8345  1.6198  0.6579
  166SOL    HW2  498   2.003   1.003   0.178 -0.7368  0.5283 -0.3680
  167SOL     OW  499   2.969   0.616   0.335  0.0981  0.2821  0.4100
  167SOL    HW1  500   2.962   0.549   0.259 -0.3880 -0.1684  0.9671
  167SOL    HW2  501   2.913   0.693   0.309  1.0990 -2.1409  2.2300
  168SOL     OW  502   1.472   2.771   2.420 -0.2017  0.3451  0.2123
  168SOL    HW1  503   1.412   2.805   2.498 -0.2791  2.3082  3.8313
  168SOL    HW2  504   1.461   2.667   2.415 -1.1251 -1.6869  0.7547
  169SOL     OW  505   0.551   1.653   0.333 -0.3220  0.5098 -0.5556
  169SOL    HW1  506   0.628   1.691   0.277  0.2529  0.0226 -0.4804
  169SOL    HW2  507   0.576   1.566   0.377 -0.4406  2.1808  0.2708
  170SOL     OW  508   3.050   0.384   1.201 -0.2908  0.5491 -0.5694
  170SOL    HW1  509   0.071   0.333   1.207 -1.8045  1.6659  0.6747
  170SOL    HW2  510   3.011   0.373   1.110 -1.0005  0.0283 -0.1451
  171SOL     OW  511   1.433   2.100   2.878  0.1402  0.0683 -0.4511
  171SOL    HW1  512   1.340   2.097   2.919 -2.9348  0.2223  1.9255
  171SOL    HW2  513   1.496   2.039   2.933  2.1596 -0.3209  0.4877
  172SOL     OW  514   2.782   2.954   1.346 -0.3451  0.2151  0.9219
  172SOL    HW1  515   2.699   3.007   1.323  0.5165  1.3759 -0.6151
  172SOL    HW2  516   2.857   3.015   1.376 -1.7692 -2.9511  0.8273
  173SOL     OW  517   1.537   0.623   2.619 -0.1246 -0.0169  0.2696
  173SOL    HW1  518   1.599   0.601   2.696  0.6160  0.7193 -1.3664
  173SOL    HW2  519   1.587   0.638   2.529  0.5571 -1.3644 -2.1248
  174SOL     OW  520   1.522   0.076   2.702 -0.1708  0.3163 -0.3146
  174SOL    HW1  521   1.567   0.153   2.754  3.1609  0.8491 -1.6413
  174SOL    HW2  522   1.580   0.027   2.635  0.4220 -0.4644 -0.5198
  175SOL     OW  523   2.233   2.334   0.741 -0.0558  0.3931 -0.8583
  175SOL    HW1  524   2.242   2.322   0.840  2.7075  1.4681 -1.1193
  175SOL    HW2  525   2.135   2.328   0.707  0.9866 -0.1771  2.3730
  176SOL     OW  526   1.601   0.328   2.785  0.5303  0.0404  0.5080
  176SOL    HW1  527   1.511   0.370   2.819 -3.4478  0.9454  1.6074
  176SOL    HW2  528   1.662   0.311   2.866 -0.5566 -1.9477  2.5466
  177SOL     OW  529   1.042   1.710   0.313 -0.1378  0.2077  0.6379
  177SOL    HW1  530   1.088   1.797   0.299 -0.6984 -1.2113  1.1019
  177SOL    HW2  531   0.943   1.721   0.292 -0.5725 -0.9925 -2.2749
  178SOL     OW  532   2.486   2.045   0.286 -0.3414 -0.0715  0.3972
  178SOL    HW1  533   2.533   2.004   0.206 -1.5845  0.6333 -2.3227
  178SOL    HW2  534   2.441   2.130   0.252  2.7698  1.4418  0.6405
  179SOL     OW  535   3.062   2.672   2.836  0.3207 -0.2575  0.1426
  179SOL    HW1  536   3.067   2.735   2.919  2.5159  2.2919  2.9370
  179SOL    HW2  537   0.015   2.725   2.755 -0.1468  0.6269  4.4593
  180SOL     OW  538   1.716   1.426   0.863  0.6027 -0.0420 -0.0683
  180SOL    HW1  539   1.743   1.486   0.943 -0.5618 -1.3239  0.4110
  180SOL    HW2  540   1.616   1.410   0.869 -1.1386 -1.5638 -1.8681
  181SOL     OW  541   1.841   0.796   2.026 -0.5353 -0.0639 -0.0488
  181SOL    HW1  542   1.821   0.883   2.071 -0.2265 -2.4904  0.3127
  181SOL    HW2  543   1.778   0.798   1.944  0.3088 -0.7754 -2.4605
  182SOL     OW  544   2.609   2.861   2.443  0.1733  0.3382  0.3041
  182SOL    HW1  545   2.685   2.836   2.500 -3.5079  1.5758 -1.9734
  182SOL    HW2  546   2.605   2.787   2.367 -0.8461  0.6984  1.1364
  183SOL     OW  547   1.444   0.742   2.092  0.2281 -0.1243 -0.0813
  183SOL    HW1  548   1.483   0.773   2.003  1.6415  2.1241 -0.2646
  183SOL    HW2  549   1.463   0.640   2.110  2.4426 -3.5805  0.4063
  184SOL     OW  550   0.256   1.084   1.191  0.3282 -0.0658 -0.3888
  184SOL    HW1  551   0.238   1.159   1.122  2.2612  2.1493  0.9381
  184SOL    HW2  552   0.203   1.107   1.277  1.7238  1.7875  1.7648
  185SOL     OW  553   1.947   0.483   0.591  0.6538 -0.4978 -0.2834
  185SOL    HW1  554   1.926   0.391   0.628 -0.6376  1.9674  1.1445
  185SOL    HW2  555   2.046   0.508   0.596  0.1832  0.9688  0.0332
  186SOL     OW  556   0.722   2.543   2.887 -0.3233 -0.2078  0.0220
  186SOL    HW1  557   0.630   2.509   2.905 -0.4584 -1.7176 -1.0786
  186SOL    HW2  558   0.777   2.466   2.846 -1.2062 -1.1730 -0.5473
  187SOL     OW  559   2.509   0.925   2.869 -0.0388  0.3897  0.4062
  187SOL    HW1  560   2.487   0.919   2.768 -0.7073 -1.8912 -0.0214
  187SOL    HW2  561   2.444   0.877   2.925  2.0903  2.6100 -5.7928
  188SOL     OW  562   3.014   1.424   1.578 -0.0089 -0.5327  0.7469
  188SOL    HW1  563   3.007   1.326   1.560 -0.8389  2.8319  1.1286
  188SOL    HW2  564   3.042   1.437   1.676 -0.3964  2.3979 -0.3469
  189SOL     OW  565   2.548   0.215   2.975 -0.4465  0.1707  0.5393
  189SOL    HW1  566   2.597   0.191   3.065  0.3670 -2.4225 -0.2274
  189SOL    HW2  567   2.559   0.313   2.943  0.9878  3.3299 -0.4532
  190SOL     OW  568   1.193   1.147   2.092  0.4721 -0.4395 -0.3289
  190SOL    HW1  569   1.278   1.192   2.113  0.4778 -1.1154  1.5804
  190SOL    HW2  570   1.117   1.194   2.141 -2.4786 -1.0932  0.7116
  191SOL     OW  571   2.853   0.462   1.923  0.3428  0.2653  0.1635
  191SOL    HW1  572   2.752   0.467   1.911 -1.8542 -1.6123 -0.0770
  191SOL    HW2  573   2.904   0.545   1.891  1.7891 -2.8151 -0.1387
  192SOL     OW  574   2.256   1.497   1.375 -0.0758 -0.3308  0.2907
  192SOL    HW1  575   2.233   1.492   1.479 -0.5785  0.8321  5.0805
  192SOL    HW2  576   2.337   1.551   1.346 -0.7663 -0.0755  0.2413
  193SOL     OW  577   1.247   0.745   1.147  0.1416 -0.1094 -0.0963
  193SOL    HW1  578   1.160   0.735   1.201  0.0872  0.4366 -1.2872
  193SOL    HW2  579   1.267   0.654   1.118 -2.8067  1.7584 -1.5702
  194SOL     OW  580   1.118   2.600   1.770  0.2513 -0.1505 -0.1625
  194SOL    HW1  581   1.162   2.689   1.733 -0.4722 -0.3275  3.2423
  194SOL    HW2  582   1.018   2.613   1.792 -0.3349  0.5953 -0.1649
  195SOL     OW  583   1.809   0.224   2.939 -0.0313 -0.0683  0.0737
  195SOL    HW1  584   1.858   0.215   2.851 -1.5842 -1.5894 -0.1417
  195SOL    HW2  585   1.797   0.131   2.973 -0.3897  0.7395 -1.0910
  196SOL     OW  586   1.091   2.315   1.809 -0.3983  0.2503 -0.0256
  196SOL    HW1  587   1.047   2.280   1.723 -0.7168 -0.0555  0.1389
  196SOL    HW2  588   1.116   2.411   1.797 -0.5339 -0.1162  1.3607
  197SOL     OW  589   1.197   2.789   0.962 -0.8324  0.0762  0.4093
  197SOL    HW1  590   1.193   2.788   0.858  1.0999  1.8872 -0.8249
  197SOL    HW2  591   1.286   2.757   1.000 -2.6534 -2.4331 -1.3588
  198SOL     OW  592   0.997   0.825   0.743 -0.8887  0.3102 -0.3420
  198SOL    HW1  593   0.974   0.805   0.840  0.5475 -0.2567  0.2031
  198SOL    HW2  594   0.949   0.906   0.716 -0.8609 -1.5699  1.0459
  199SOL     OW  595   2.956   2.683   1.796 -0.5670 -0.3190 -0.1622
  199SOL    HW1  596   2.981   2.729   1.707  1.0181  0.8839  1.0305
  199SOL    HW2  597   2.971   2.740   1.877 -1.3771 -1.3402 -0.5562
  200SOL     OW  598   2.097   2.162   2.134 -0.0082  0.1730 -0.0729
  200SOL    HW1  599   2.175   2.167   2.070  0.4613  0.0347  0.0237
  200SOL    HW2  600   2.083   2.246   2.186  0.7223  0.1407 -1.4922
  201SOL     OW  601   0.160   1.593   2.074  0.3479 -0.5689  0.0351
  201SOL    HW1  602   0.132   1.664   2.007  2.1932 -3.7054  2.7503
  201SOL    HW2  603   0.194   1.513   2.025  1.5052  0.9836  1.1557
  202SOL     OW  604   2.383   0.347   0.140 -0.1104  0.2635  0.2272
  202SOL    HW1  605   2.441   0.329   0.060  2.0405 -0.6226 -1.9840
  202SOL    HW2  606   2.420   0.295   0.219  2.1792 -2.3491 -0.5263
  203SOL     OW  607   1.062   2.284   2.094 -0.4226  0.2115  0.3896
  203SOL    HW1  608   0.983   2.337   2.130  0.1444 -1.7382 -0.8072
  203SOL    HW2  609   1.062   2.277   1.993  0.8379 -0.0106 -0.5323
  204SOL     OW  610   1.314   2.119   1.830 -0.2052 -0.2066 -0.4087
  204SOL    HW1  611   1.379   2.133   1.752 -0.6371 -0.6506 -1.1773
  204SOL    HW2  612   1.237   2.187   1.829 -2.5036 -0.4660 -0.3943
  205SOL     OW  613   1.563   1.626   2.001 -0.5536  0.0736  0.4344
  205SOL    HW1  614   1.650   1.575   1.982 -0.2363  1.3539  0.6683
  205SOL    HW2  615   1.569   1.723   1.960 -1.4193 -1.5943 -2.0831
  206SOL     OW  616   0.405   0.750   2.445  0.3797 -0.5535 -0.4000
  206SOL    HW1  617   0.448   0.682   2.504  0.0902  3.7847 -2.7924
  206SOL    HW2  618   0.467   0.833   2.439 -1.3670 -0.7151 -1.1446
  207SOL     OW  619   1.202   2.909   1.728 -0.7328  0.3372 -0.3349
  207SOL    HW1  620   1.257   2.908   1.646 -2.3070 -0.3364  0.3009
  207SOL    HW2  621   1.105   2.920   1.694  1.4714 -0.6832 -0.8958
  208SOL     OW  622   0.651   2.744   1.950 -0.3346 -0.1469 -0.2591
  208SOL    HW1  623   0.682   2.816   2.012 -0.4655  1.8348  3.4076
  208SOL    HW2  624   0.554   2.718   1.966 -1.7008  0.7427  0.4073
  209SOL     OW  625   1.319   0.656   0.116 -0.2430 -0.1860  0.1667
  209SOL    HW1  626   1.421   0.660   0.146  1.1900  2.8605 -0.3199
  209SOL    HW2  627   1.302   0.707   0.025 -0.9399 -0.9686 -1.4007
  210SOL     OW  628   2.906   0.468   0.545  0.5464  0.4856  0.1039
  210SOL    HW1  629   2.943   0.523   0.623  1.3825  0.0427 -2.4562
  210SOL    HW2  630   2.927   0.519   0.456  1.3845  0.7090  0.4721
  211SOL     OW  631   0.517   0.376   1.278  0.1407 -0.1488 -0.2015
  211SOL    HW1  632   0.473   0.471   1.273 -0.7333  1.8293  2.2283
  211SOL    HW2  633   0.619   0.389   1.285 -0.8955  0.6703  1.3759
  212SOL     OW  634   1.262   1.855   1.195  0.9411  0.0966 -0.3284
  212SOL    HW1  635   1.275   1.800   1.110  2.2152  0.1110  1.2062
  212SOL    HW2  636   1.195   1.809   1.261 -2.0760  1.7470 -2.7175
  213SOL     OW  637   2.219   0.293   1.783 -0.4594  0.0206 -0.0165
  213SOL    HW1  638   2.311   0.316   1.741  0.7153 -1.0205  1.8401
  213SOL    HW2  639   2.195   0.364   1.856 -0.1288 -0.0138  1.9147
  214SOL     OW  640   0.947   2.348   2.468 -0.6125 -0.4278  0.4002
  214SOL    HW1  641   0.939   2.248   2.446  2.8253  0.0415  0.2684
  214SOL    HW2  642   0.855   2.384   2.492 -0.6368  2.4164 -2.0027
  215SOL     OW  643   2.510   1.631   1.526  0.2865  0.1066  0.2109
  215SOL    HW1  644   2.448   1.645   1.605 -2.2655  0.1954 -1.0089
  215SOL    HW2  645   2.526   1.531   1.511  2.1877  2.7214 -0.6321
  216SOL     OW  646   0.534   0.992   1.481  1.0897 -0.3016 -0.2346
  216SOL    HW1  647   0.523   1.014   1.582 -0.3996 -1.0478  1.2056
  216SOL    HW2  648   0.442   0.959   1.447  2.1285 -0.1007  0.9689
  217SOL     OW  649   0.068   0.236   0.513 -0.0691  0.0012 -0.1175
  217SOL    HW1  650   0.121   0.263   0.432  0.3902 -0.0088  5.3335
  217SOL    HW2  651   3.058   0.295   0.525  1.5875 -2.9769 -1.8916
  218SOL     OW  652   1.722   1.776   0.901 -0.1934  0.0579  0.1245
  218SOL    HW1  653   1.821   1.764   0.891 -1.0081  1.1702  1.7011
  218SOL    HW2  654   1.698   1.717   0.980 -3.0591  0.2364 -3.0418
  219SOL     OW  655   1.580   0.367   0.226 -0.1659 -0.9043  0.0288
  219SOL    HW1  656   1.488   0.336   0.194 -2.7817  1.7301 -0.7516
  219SOL    HW2  657   1.571   0.411   0.319  1.1361  1.5864  0.3458
  220SOL     OW  658   1.480   1.782   0.816 -0.5737  0.6468 -0.0835
  220SOL    HW1  659   1.575   1.772   0.849 -3.3835 -0.5065  3.1648
  220SOL    HW2  660   1.418   1.747   0.891 -2.2792 -1.0226  1.7180
  221SOL     OW  661   2.826   0.849   0.294  0.4025  0.5477 -0.0546
  221SOL    HW1  662   2.784   0.912   0.228 -0.8054 -1.2242  1.6602
  221SOL    HW2  663   2.764   0.831   0.369 -0.1308  2.8867 -2.0948
  222SOL     OW  664   0.863   2.624   1.573  0.8219 -0.2100 -0.0738
  222SOL    HW1  665   0.774   2.636   1.522 -0.8613 -1.2181  1.7027
  222SOL    HW2  666   0.903   2.544   1.530 -1.5014  2.9622  1.2109
  223SOL     OW  667   1.294   0.389   0.091  0.2553  0.9499  0.3156
  223SOL    HW1  668   1.301   0.357   3.062 -1.0427  0.2390  0.1777
  223SOL    HW2  669   1.298   0.488   0.093 -1.0525  0.0189 -0.7279
  224SOL     OW  670   2.709   0.576   1.079 -0.4190 -0.1862  0.4196
  224SOL    HW1  671   2.729   0.658   1.017  0.3327  1.3891 -0.2635
  224SOL    HW2  672   2.732   0.609   1.175 -1.7173  2.9357 -1.2663
  225SOL     OW  673   0.798   1.593   1.461 -0.0266  0.0058 -0.2795
  225SOL    HW1  674   0.850   1.664   1.409 -1.0833  1.9218 -1.1239
  225SOL    HW2  675   0.790   1.512   1.397 -0.7558 -1.0090  0.6509
  226SOL     OW  676   1.164   2.776   0.693  0.1285  0.0272  0.1728
  226SOL    HW1  677   1.091   2.822   0.642 -0.9434 -0.4472  2.1125
  226SOL    HW2  678   1.260   2.783   0.647  3.6023 -0.3655 -0.7363
  227SOL     OW  679   1.215   1.853   1.876  0.5915  0.7409  0.2377
  227SOL    HW1  680   1.114   1.877   1.859 -2.7105 -2.5876 -0.3989
  227SOL    HW2  681   1.274   1.930   1.866 -1.6979  0.5602  1.7768
  228SOL     OW  682   0.669   0.312   1.808  0.4224 -0.0123  0.4513
  228SOL    HW1  683   0.657   0.294   1.705 -0.0414 -0.9340 -0.3641
  228SOL    HW2  684   0.645   0.226   1.859 -0.2905  0.8619 -0.7631
  229SOL     OW  685   2.662   0.682   0.044  0.2431  0.7204 -0.1583
  229SOL    HW1  686   2.749   0.725   0.004  1.2048  0.3382 -1.1416
  229SOL    HW2  687   2.685   0.634   0.133 -0.7058  0.1516  0.5608
  230SOL     OW  688   0.076   0.845   1.661  0.1162 -0.4016 -0.3651
  230SOL    HW1  689   0.153   0.799   1.710  0.5288 -0.1953 -0.2859
  230SOL    HW2  690   0.055   0.931   1.713 -1.2835  2.7443 -0.6565
  231SOL     OW  691   1.014   2.761   1.168 -0.5484  0.2311 -0.7415
  231SOL    HW1  692   1.061   2.681   1.214  2.3383 -3.1904  0.7823
  231SOL    HW2  693   1.063   2.781   1.082 -1.9148 -0.3701  1.1083
  232SOL     OW  694   2.833   2.525   0.156 -0.2895 -0.1678 -0.1832
  232SOL    HW1  695   2.861   2.437   0.114  1.2571  0.7124 -0.5336
  232SOL    HW2  696   2.777   2.509   0.240  2.9143 -0.2209  0.4088
  233SOL     OW  697   1.496   2.535   2.906  0.4623  0.0852 -0.2308
  233SOL    HW1  698   1.449   2.487   2.827 -2.5417  2.5310  0.9582
  233SOL    HW2  699   1.474   2.636   2.910 -1.4198  1.4033  1.1091
  234SOL     OW  700   0.737   1.187   1.814  0.2411 -0.1752 -0.4934
  234SOL    HW1  701   0.758   1.283   1.846  0.2476  1.7046  0.5991
  234SOL    HW2  702   0.770   1.119   1.887  2.9249 -2.7496  2.2123
  235SOL     OW  703   3.051   2.258   2.685  0.1809 -0.1536  0.3768
  235SOL    HW1  704   0.049   2.291   2.613 -0.6103 -0.6629 -0.5376
  235SOL    HW2  705   3.026   2.325   2.753 -0.2978 -2.3472 -2.4389
  236SOL     OW  706   1.939   2.243   2.680 -0.1946  0.1572 -0.5689
  236SOL    HW1  707   2.028   2.213   2.631  0.4946 -2.4237 -1.1381
  236SOL    HW2  708   1.861   2.202   2.630  2.0419 -1.3258  1.9251
  237SOL     OW  709   2.071   1.131   0.987 -0.0406 -0.1915  0.8099
  237SOL    HW1  710   1.992   1.120   0.925 -3.4199 -0.3018  0.2202
  237SOL    HW2  711   2.104   1.230   0.983  2.4670  0.6552  1.7257
  238SOL     OW  712   1.236   2.612   2.192 -0.8906 -0.5072 -0.2771
  238SOL    HW1  713   1.216   2.515   2.217 -1.4805  0.5085  0.2959
  238SOL    HW2  714   1.156   2.661   2.160  1.3440 -0.4300 -1.6492
  239SOL     OW  715   0.611   2.171   1.909 -0.1645 -0.8126 -0.2223
  239SOL    HW1  716   0.694   2.132   1.963  2.1619  0.7389  2.0480
  239SOL    HW2  717   0.640   2.174   1.815 -0.7448 -1.7572  1.2794
  240SOL     OW  718   0.013   3.049   0.581  0.1539  0.0123 -0.0836
  240SOL    HW1  719   2.997   3.000   0.553  2.0352  0.0421 -0.6040
  240SOL    HW2  720   0.003   0.081   0.563  0.7089 -0.6071  1.1096
  241SOL     OW  721   1.139   1.783   2.909  0.2008  0.0847  0.7010
  241SOL    HW1  722   1.191   1.725   2.974  0.1226 -0.6109 -1.9390
  241SOL    HW2  723   1.163   1.878   2.905 -2.7584 -0.5919 -1.3742
  242SOL     OW  724   2.285   0.844   3.030  0.0443 -0.4704  0.0211
  242SOL    HW1  725   2.314   0.768   0.022  0.6648 -0.1366 -2.5172
  242SOL    HW2  726   2.207   0.893   0.000 -1.1313  0.8050  0.3393
  243SOL     OW  727   0.890   0.404   1.999 -0.2514  0.0456 -0.2089
  243SOL    HW1  728   0.950   0.483   2.002  1.9682 -2.5759  0.5825
  243SOL    HW2  729   0.836   0.393   1.915 -2.1647  1.8241 -1.8076
  244SOL     OW  730   1.811   2.524   2.595  0.2726 -0.3109 -0.2871
  244SOL    HW1  731   1.779   2.591   2.669 -0.2097  0.8366 -0.3543
  244SOL    HW2  732   1.881   2.463   2.629  0.5453  0.4427 -2.4758
  245SOL     OW  733   1.948   2.262   0.069 -0.1902 -0.4608 -0.6330
  245SOL    HW1  734   1.851   2.269   0.087  1.1861 -2.2503 -2.8100
  245SOL    HW2  735   1.997   2.354   0.063  0.0236  0.6883 -1.6209
  246SOL     OW  736   1.007   0.946   2.329  0.1459  0.4144 -0.4729
  246SOL    HW1  737   1.067   0.933   2.248 -0.5237  2.0985  1.6270
  246SOL    HW2  738   0.980   1.040   2.352  1.4185 -3.4592  0.5698
  247SOL     OW  739   2.886   0.948   2.675 -0.5486  0.0008 -0.3035
  247SOL    HW1  740   2.818   0.982   2.739  0.8078  0.0245 -1.4538
  247SOL    HW2  741   2.918   1.026   2.618  2.1442  0.9958 -3.6356
  248SOL     OW  742   3.036   1.024   1.824  1.3999 -0.2573 -0.0945
  248SOL    HW1  743   2.931   1.014   1.837  0.2000 -0.2348 -2.3168
  248SOL    HW2  744   0.023   1.045   1.902 -2.8820  0.7039 -0.7181
  249SOL     OW  745   0.148   0.381   0.289 -0.1770 -0.1885  0.4707
  249SOL    HW1  746   0.127   0.424   0.197  2.3405 -2.3794  0.0371
  249SOL    HW2  747   0.189   0.452   0.350 -1.0337 -2.8730 -0.8027
  250SOL     OW  748   2.768   0.184   0.124  0.4089  0.1809  0.3534
  250SOL    HW1  749   2.845   0.142   0.077 -1.4220  1.3250 -0.2039
  250SOL    HW2  750   2.768   0.154   0.222 -2.8911  3.6371 -2.6234
  251SOL     OW  751   0.998   1.563   1.991 -0.4869  0.0095  0.7226
  251SOL    HW1  752   1.065   1.623   2.048 -1.2829  0.3724 -0.0197
  251SOL    HW2  753   1.048   1.534   1.909  1.7553  2.7589  0.3048
  252SOL     OW  754   1.884   1.716   1.345 -0.1474  0.0946  0.3075
  252SOL    HW1  755   1.898   1.811   1.322  0.2118 -1.4396 -2.0473
  252SOL    HW2  756   1.959   1.658   1.305 -2.9512  1.2593  1.2346
  253SOL     OW  757   1.916   2.354   1.951  0.2964 -0.1574 -0.1541
  253SOL    HW1  758   1.996   2.310   1.992 -2.4193  1.1907 -1.4685
  253SOL    HW2  759   1.854   2.398   2.021 -0.3339  0.9533  0.0678
  254SOL     OW  760   0.661   2.063   2.357  0.2762 -0.6931  0.2669
  254SOL    HW1  761   0.625   2.138   2.295 -0.7931 -0.2555 -0.6662
  254SOL    HW2  762   0.764   2.074   2.366  0.1168 -2.9711  1.5334
  255SOL     OW  763   1.607   0.162   0.609 -0.3565  0.5290  0.2005
  255SOL    HW1  764   1.669   0.167   0.531 -1.4415 -0.1432 -0.3418
  255SOL    HW2  765   1.524   0.219   0.602  0.1813  0.2134  1.4349
  256SOL     OW  766   1.857   2.119   1.350  0.5887 -0.1437 -0.4356
  256SOL    HW1  767   1.853   2.217   1.382 -2.2106 -1.9223  2.7835
  256SOL    HW2  768   1.954   2.088   1.344 -0.2062 -0.7827  5.7191
  257SOL     OW  769   0.472   2.446   2.850 -0.0878 -0.2219  0.3186
  257SOL    HW1  770   0.456   2.362   2.799  1.8681  0.1517  0.7987
  257SOL    HW2  771   0.399   2.455   2.923 -2.9706 -1.1235 -0.0662
  258SOL     OW  772   0.519   0.814   1.884  0.2507  0.1972 -0.0690
  258SOL    HW1  773   0.589   0.742   1.874  1.0524  0.4867 -0.3993
  258SOL    HW2  774   0.514   0.853   1.979 -0.4156 -1.5252  0.2414
  259SOL     OW  775   1.150   0.836   2.533  0.5425  0.3295 -1.0647
  259SOL    HW1  776   1.189   0.915   2.589  0.0743  2.1579  3.6996
  259SOL    HW2  777   1.093   0.867   2.453  0.9380 -0.9264  2.5409
  260SOL     OW  778   2.162   0.722   0.423 -0.0452 -0.3526 -0.1743
  260SOL    HW1  779   2.178   0.659   0.502 -0.5611 -0.6216 -1.1725
  260SOL    HW2  780   2.102   0.794   0.458  2.6179  1.9892  0.4360
  261SOL     OW  781   0.981   0.179   0.596  0.0540  0.2336 -0.1198
  261SOL    HW1  782   0.901   0.147   0.541 -0.7997 -0.8240  0.7834
  261SOL    HW2  783   0.945   0.234   0.672  1.6936 -2.4075  0.4428
  262SOL     OW  784   1.945   2.549   2.359  0.2788  0.2292 -0.5570
  262SOL    HW1  785   1.894   2.570   2.447 -0.5645  0.4114  1.2211
  262SOL    HW2  786   1.952   2.639   2.301 -1.9748  1.1697  1.1860
  263SOL     OW  787   0.298   1.673   2.911  0.1673  0.1132 -0.0611
  263SOL    HW1  788   0.227   1.654   2.978  2.2564 -1.7932 -4.6058
  263SOL    HW2  789   0.283   1.765   2.865  2.4007 -0.7959  0.8591
  264SOL     OW  790   0.415   1.615   1.805  0.1201 -0.1383  0.0106
  264SOL    HW1  791   0.483   1.562   1.749 -0.4130  0.0068 -0.6008
  264SOL    HW2  792   0.326   1.606   1.754 -0.1819 -0.9852  1.1521
  265SOL     OW  793   0.915   1.121   0.231  0.4930  0.2692 -0.5702
  265SOL    HW1  794   0.958   1.210   0.214 -1.9945 -0.6921 -0.3682
  265SOL    HW2  795   0.969   1.063   0.301 -2.3968 -1.0931  3.5279
  266SOL     OW  796   1.518   1.726   2.982  0.5501 -0.0113 -0.1566
  266SOL    HW1  797   1.592   1.719   3.048 -0.6115 -2.4366 -2.5293
  266SOL    HW2  798   1.436   1.670   3.015  0.2374  0.7544  0.1513
  267SOL     OW  799   0.060   0.291   2.895 -0.0483  0.4985  0.4299
  267SOL    HW1  800   3.051   0.359   2.904  0.2136 -0.5758  0.7556
  267SOL    HW2  801   0.148   0.345   2.892  1.6521 -1.6067  1.6984
  268SOL     OW  802   1.036   0.158   2.832 -0.2319  0.0095  0.3399
  268SOL    HW1  803   0.958   0.179   2.893 -0.2725 -2.2281 -1.3210
  268SOL    HW2  804   1.066   0.065   2.853  1.1344  1.1842 -1.3555
  269SOL     OW  805   1.573   0.455   2.296 -0.1199 -0.0281 -0.6324
  269SOL    HW1  806   1.624   0.415   2.216 -0.8663 -1.4749 -1.0680
  269SOL    HW2  807   1.563   0.386   2.372 -4.5602  0.7875 -0.5208
  270SOL     OW  808   0.662   0.703   2.728  0.5797  0.2122  0.5912
  270SOL    HW1  809   0.686   0.663   2.640 -0.7609 -1.7466  1.0870
  270SOL    HW2  810   0.602   0.641   2.778 -0.3580  2.7583 -0.8238
  271SOL     OW  811   3.068   1.010   0.251  0.2435 -0.0475 -0.1988
  271SOL    HW1  812   0.000   1.089   0.186 -2.0721 -0.2388 -3.4409
  271SOL    HW2  813   2.977   0.970   0.265 -0.8331  0.1029 -0.4752
  272SOL     OW  814   2.103   1.119   2.865  0.1585 -0.0638  0.7050
  272SOL    HW1  815   2.097   1.127   2.760 -0.7469 -1.5785 -0.0440
  272SOL    HW2  816   2.049   1.039   2.899 -0.6740  1.8003 -0.0648
  273SOL     OW  817   2.869   0.359   2.338  0.1961 -0.1772  0.1441
  273SOL    HW1  818   2.918   0.448   2.355  1.1327  1.8969  0.3629
  273SOL    HW2  819   2.877   0.296   2.420 -3.2642 -0.5319  0.1934
  274SOL     OW  820   2.725   0.275   1.626  0.3032 -0.4797 -1.3846
  274SOL    HW1  821   2.745   0.279   1.525 -1.8220  0.5197 -0.6437
  274SOL    HW2  822   2.811   0.262   1.676 -0.9038  0.6332 -1.8988
  275SOL     OW  823   1.838   1.340   0.269  0.2040 -0.1305 -0.4336
  275SOL    HW1  824   1.826   1.320   0.171  0.7468  2.9196  2.0708
  275SOL    HW2  825   1.765   1.403   0.300 -0.2599  0.4020  2.0177
  276SOL     OW  826   0.171   1.035   2.701 -0.4977  0.7829 -0.2740
  276SOL    HW1  827   0.082   1.087   2.696  0.0821  0.0027  1.3720
  276SOL    HW2  828   0.176   0.959   2.632  1.1291 -1.9708  0.4191
  277SOL     OW  829   1.781   2.558   2.088 -0.0841  0.2893 -0.0581
  277SOL    HW1  830   1.750   2.622   2.165  0.1530  4.5294 -1.5263
  277SOL    HW2  831   1.772   2.609   1.996 -3.5259  1.2151 -0.3669
  278SOL     OW  832   1.895   0.139   1.237 -0.0008  0.1305  0.7233
  278SOL    HW1  833   1.815   0.075   1.247 -1.8062  1.1157 -0.3305
  278SOL    HW2  834   1.968   0.096   1.179  0.7604 -0.1648 -0.1304
  279SOL     OW  835   1.058   1.386   2.790  0.3896 -0.4474  0.0606
  279SOL    HW1  836   1.023   1.476   2.816  1.0051 -2.8499 -2.0857
  279SOL    HW2  837   1.156   1.375   2.821  1.4231 -0.4267 -3.1318
  280SOL     OW  838   0.584   1.900   0.417 -0.7545 -0.1263  0.0220
  280SOL    HW1  839   0.558   1.802   0.394 -0.0868 -0.9386  1.5339
  280SOL    HW2  840   0.564   1.960   0.335  0.0613  1.6312 -0.1964
  281SOL     OW  841   0.175   2.980   2.359 -0.1524  0.0242  0.4150
  281SOL    HW1  842   0.186   2.895   2.302  0.6987  0.4600 -0.5390
  281SOL    HW2  843   0.097   2.983   2.421 -0.7617 -2.5141 -0.0663
  282SOL     OW  844   0.119   1.782   1.331 -0.2197  0.0362  0.1542
  282SOL    HW1  845   0.081   1.867   1.287  0.5405  0.3266 -2.1647
  282SOL    HW2  846   0.045   1.735   1.377  3.5003  0.4899 -1.6435
  283SOL     OW  847   1.720   2.109   2.534  0.4792  0.3004  0.5888
  283SOL    HW1  848   1.649   2.047   2.568 -0.8798  3.8515 -3.0439
  283SOL    HW2  849   1.673   2.188   2.496  0.5688  0.9315 -1.4778
  284SOL     OW  850   1.814   0.699   0.050  0.0914 -0.2282  0.0690
  284SOL    HW1  851   1.816   0.774   3.049 -0.7571  3.0514 -0.2133
  284SOL    HW2  852   1.855   0.610   0.013 -0.2432  0.7005  1.4581
  285SOL     OW  853   2.857   2.714   2.533  0.4465  0.2823  0.3281
  285SOL    HW1  854   2.807   2.734   2.621 -2.1728  1.6608  2.3024
  285SOL    HW2  855   2.819   2.631   2.484 -1.9354 -2.2049 -4.0311
  286SOL     OW  856   1.865   2.618   1.327  0.8543  0.3310  0.0362
  286SOL    HW1  857   1.908   2.706   1.305 -1.2460 -2.0092 -1.4340
  286SOL    HW2  858   1.778   2.612   1.275  1.8326 -0.3650  2.3298
  287SOL     OW  859   0.728   0.994   1.134 -0.2421  0.4228  0.0107
  287SOL    HW1  860   0.799   0.956   1.192 -1.5907 -0.6330 -1.7334
  287SOL    HW2  861   0.715   1.093   1.155  3.6337  0.2590 -2.5171
  288SOL     OW  862   1.439   2.377   0.093  0.0419 -0.1394 -0.2787
  288SOL    HW1  863   1.416   2.434   0.175 -0.0787  0.6353 -1.1471
  288SOL    HW2  864   1.426   2.429   0.007 -0.2805 -1.0678 -0.0366
  289SOL     OW  865   2.962   1.848   2.632 -0.1756  0.1994 -0.4304
  289SOL    HW1  866   3.028   1.769   2.626  0.9156  0.1738 -2.1080
  289SOL    HW2  867   2.968   1.892   2.728  1.7973  1.0875 -0.6998
  290SOL     OW  868   1.209   2.194   0.811 -0.3266 -0.1404 -0.7822
  290SOL    HW1  869   1.122   2.184   0.856 -0.8493  1.2251 -1.0495
  290SOL    HW2  870   1.253   2.284   0.833 -2.4766  0.5670 -1.3188
  291SOL     OW  871   1.818   1.394   0.001 -0.3026 -0.0439  0.2451
  291SOL    HW1  872   1.913   1.378   3.038 -1.0517  2.5222 -1.9722
  291SOL    HW2  873   1.788   1.488   3.044 -2.9373 -1.4010 -3.4412
  292SOL     OW  874   1.150   1.434   1.755 -0.1104  0.3379  0.2389
  292SOL    HW1  875   1.085   1.357   1.745 -0.5512 -1.5960  0.7959
  292SOL    HW2  876   1.243   1.408   1.794 -1.1810  0.9616  3.3523
  293SOL     OW  877   2.142   2.589   0.925 -0.2837  1.0019 -0.2580
  293SOL    HW1  878   2.243   2.597   0.931  0.5323  2.9691  0.4934
  293SOL    HW2  879   2.106   2.533   1.002 -0.2363  0.2230  1.3309
  294SOL     OW  880   3.000   1.158   2.461  0.1211  0.8302 -0.3328
  294SOL    HW1  881   2.991   1.188   2.556  2.7056  0.9910 -2.5954
  294SOL    HW2  882   3.029   1.238   2.409 -0.3401  0.4118  2.1808
  295SOL     OW  883   0.896   1.887   3.059  0.2518 -0.1683  0.3371
  295SOL    HW1  884   0.898   1.987   0.005 -2.1088 -0.2621  1.4859
  295SOL    HW2  885   0.985   1.849   3.039 -1.4296  1.0525  0.6518
  296SOL     OW  886   1.993   1.798   2.367  0.0733  0.0373 -0.4215
  296SOL    HW1  887   2.027   1.716   2.313  1.1270  0.9076 -0.0403
  296SOL    HW2  888   1.892   1.810   2.348  0.6791  0.4921 -2.4268
  297SOL     OW  889   2.592   0.527   2.643 -0.1407 -0.1053 -0.2903
  297SOL    HW1  890   2.600   0.421   2.642 -0.4022 -5.6304 -3.1963
  297SOL    HW2  891   2.497   0.558   2.620  2.4009  0.2611 -0.2895
  298SOL     OW  892   0.592   2.142   2.823  0.3256 -0.3575  0.2187
  298SOL    HW1  893   0.614   2.057   2.874 -2.3743 -0.1391 -3.6159
  298SOL    HW2  894   0.546   2.112   2.736 -2.4036  0.6028  1.1384
  299SOL     OW  895   1.122   2.665   2.747 -0.3554  0.2377  0.2403
  299SOL    HW1  896   1.147   2.611   2.664  1.3021 -1.3692 -1.1958
  299SOL    HW2  897   1.146   2.609   2.827 -2.5330  0.4562 -2.6598
  300SOL     OW  898   2.811   0.454   0.136 -0.0921 -0.3688 -0.6681
  300SOL    HW1  899   2.796   0.361   0.169 -1.1554  1.1915 -2.1481
  300SOL    HW2  900   2.798   0.458   0.035 -0.5087 -2.3842  0.3517
  301SOL     OW  901   1.042   0.735   1.315  0.8129  0.3239  0.4042
  301SOL    HW1  902   1.014   0.692   1.403  0.1150  0.4199 -2.0172
  301SOL    HW2  903   0.995   0.827   1.304  2.0298  0.7767  2.4369
  302SOL     OW  904   2.960   2.078   2.480 -0.4412  0.3562 -0.4816
  302SOL    HW1  905   2.957   1.986   2.523  2.4238  0.0738  0.4459
  302SOL    HW2  906   2.979   2.151   2.550 -1.8993  3.0048  0.6737
  303SOL     OW  907   3.029   3.067   2.537  0.2227  0.0257 -0.2542
  303SOL    HW1  908   2.963   0.079   2.523 -2.8041 -1.7682 -1.8862
  303SOL    HW2  909   0.022   0.025   2.616  0.1249  1.1830  2.1971
  304SOL     OW  910   2.557   0.441   1.912 -0.0638  0.4973 -0.0549
  304SOL    HW1  911   2.524   0.397   1.825  0.4105  3.5175  0.2240
  304SOL    HW2  912   2.537   0.380   1.993 -0.3838 -2.7824 -2.3365
  305SOL     OW  913   0.360   0.016   2.517  0.0539 -1.1168  0.3963
  305SOL    HW1  914   0.435   3.030   2.489 -2.1131 -0.4217 -1.0622
  305SOL    HW2  915   0.280   3.046   2.467 -0.4287 -1.2606 -0.3950
  306SOL     OW  916   2.570   1.078   1.502 -0.1954  0.3033 -0.0973
  306SOL    HW1  917   2.670   1.064   1.520  2.4377 -2.8464  0.1036
  306SOL    HW2  918   2.559   1.043   1.404 -0.3601 -0.2445 -1.1033
  307SOL     OW  919   1.732   0.501   1.194  0.4525 -0.2743  0.2712
  307SOL    HW1  920   1.667   0.488   1.277 -3.2020  0.0806 -0.3454
  307SOL    HW2  921   1.672   0.515   1.109 -0.1540  1.4009 -1.6023
  308SOL     OW  922   0.162   2.094   1.464  0.1304  0.4960  0.4202
  308SOL    HW1  923   0.112   2.139   1.539  0.3910 -2.1826 -0.8945
  308SOL    HW2  924   0.095   2.065   1.396  2.0107 -2.3828  1.5026
  309SOL     OW  925   2.397   1.777   1.326 -0.0919  0.0265 -0.4338
  309SOL    HW1  926   2.473   1.815   1.267  1.7166  1.8493 -1.6606
  309SOL    HW2  927   2.435   1.712   1.392  1.7038  0.0185 -0.2948
  310SOL     OW  928   2.737   1.725   2.969 -0.1949  0.1112  0.5388
  310SOL    HW1  929   2.765   1.821   2.987 -1.0065  2.5982  2.7733
  310SOL    HW2  930   2.702   1.680   3.052 -0.9551 -0.8057 -0.8984
  311SOL     OW  931   2.107   1.499   2.675 -0.3844 -0.3912 -0.3807
  311SOL    HW1  932   2.200   1.542   2.672  0.3253 -2.3057  0.0408
  311SOL    HW2  933   2.035   1.573   2.654 -1.4604  1.3490  0.4688
  312SOL     OW  934   2.555   2.313   1.030  0.5395  0.4890 -0.2851
  312SOL    HW1  935   2.568   2.224   0.986 -2.1720  0.3973 -0.5431
  312SOL    HW2  936   2.620   2.386   1.000  1.1477  1.4006  1.3698
  313SOL     OW  937   2.688   2.606   1.345  1.2463  0.1427  0.3906
  313SOL    HW1  938   2.759   2.660   1.390  0.5562  0.1021 -0.8945
  313SOL    HW2  939   2.631   2.672   1.292  0.4343  0.0079  0.5816
  314SOL     OW  940   0.840   2.043   1.386  0.0092 -0.3341  0.0821
  314SOL    HW1  941   0.866   2.138   1.420 -0.4102 -0.6169 -1.9593
  314SOL    HW2  942   0.927   1.989   1.380  1.2775 -1.0156  0.8275
  315SOL     OW  943   0.455   2.605   2.346 -0.0314 -0.2814  0.2998
  315SOL    HW1  944   0.416   2.573   2.436 -1.5827  0.1065 -0.4796
  315SOL    HW2  945   0.542   2.658   2.354 -0.5645  0.7639  0.5806
  316SOL     OW  946   0.197   1.441   0.701 -0.4186 -0.1614  0.0717
  316SOL    HW1  947   0.184   1.476   0.794 -0.7477 -1.0387 -0.1756
  316SOL    HW2  948   0.189   1.522   0.637 -0.8941  1.8037  1.0147
  317SOL     OW  949   1.816   0.154   0.433  0.1551  0.4733 -0.1148
  317SOL    HW1  950   1.840   0.209   0.350 -2.1084 -1.5134 -2.3507
  317SOL    HW2  951   1.877   0.169   0.510  1.0799  1.8687 -0.6174
  318SOL     OW  952   2.908   2.618   0.473  0.1929  0.5205  0.0357
  318SOL    HW1  953   2.829   2.564   0.444  1.2711  1.3288 -0.4026
  318SOL    HW2  954   2.988   2.565   0.442  1.5815  0.1494  2.0647
  319SOL     OW  955   0.858   1.517   0.017  0.4836  0.0407  0.0760
  319SOL    HW1  956   0.894   1.557   2.997  0.7717  0.5662 -0.8277
  319SOL    HW2  957   0.781   1.452   0.001  1.5485  1.0357  5.4386
  320SOL     OW  958   0.680   2.739   2.409 -0.0312  0.0821 -0.0457
  320SOL    HW1  959   0.777   2.728   2.380 -1.6016 -0.7444  1.2255
  320SOL    HW2  960   0.652   2.833   2.431 -1.1867  1.5967 -0.1065
  321SOL     OW  961   1.099   3.014   2.982 -0.1761 -0.1850  0.1067
  321SOL    HW1  962   1.111   3.058   0.006 -0.0331 -1.5061  1.1736
  321SOL    HW2  963   1.000   2.998   2.960  1.5650 -0.0132  1.0815
  322SOL     OW  964   2.179   1.150   1.938 -0.0206 -0.0903  0.0406
  322SOL    HW1  965   2.134   1.080   1.997 -3.8785 -1.3635 -0.1607
  322SOL    HW2  966   2.237   1.211   1.993  1.2410 -0.3527  1.7106
  323SOL     OW  967   2.412   0.790   0.330  0.4125  0.4059 -0.0015
  323SOL    HW1  968   2.324   0.764   0.373 -0.3511  0.3438  0.1445
  323SOL    HW2  969   2.422   0.746   0.239 -0.8905  1.3383  1.3621
  324SOL     OW  970   0.059   0.610   2.726  0.2149 -0.3785 -0.2656
  324SOL    HW1  971   3.035   0.650   2.721 -0.1677  0.9515 -1.2843
  324SOL    HW2  972   0.065   0.527   2.668  1.3449  0.6403 -0.0622
  325SOL     OW  973   1.334   0.094   1.834 -0.0681 -0.7993 -0.0150
  325SOL    HW1  974   1.415   0.083   1.774 -1.1018 -1.9787 -1.4253
  325SOL    HW2  975   1.253   0.046   1.792 -2.7869 -1.1597 -1.6157
  326SOL     OW  976   2.565   0.019   1.279 -0.1466  0.6072  0.1207
  326SOL    HW1  977   2.532   0.048   1.373  0.2434 -0.8488  2.3954
  326SOL    HW2  978   2.484   0.036   1.219  0.1173 -2.6706  0.7992
  327SOL     OW  979   1.752   0.612   2.787 -0.5375 -0.7935 -0.5046
  327SOL    HW1  980   1.780   0.557   2.872  0.7387 -0.8160 -2.1846
  327SOL    HW2  981   1.836   0.646   2.734  1.6986  2.7240 -1.1709
  328SOL     OW  982   2.951   1.411   2.098 -0.1743  0.0297 -0.4498
  328SOL    HW1  983   2.908   1.315   2.088 -1.3464 -1.5621  0.7638
  328SOL    HW2  984   2.888   1.492   2.118  1.6320  0.1221 -2.3387
  329SOL     OW  985   1.747   2.700   1.853  0.5784  0.6523  0.0139
  329SOL    HW1  986   1.680   2.650   1.794 -1.1517  1.3445  0.2960
  329SOL    HW2  987   1.694   2.767   1.913  1.0667  1.4170 -1.3597
  330SOL     OW  988   2.328   1.622   1.802  0.0885  0.4105  0.1900
  330SOL    HW1  989   2.305   1.721   1.802  1.5066 -1.0281  0.2919
  330SOL    HW2  990   2.426   1.608   1.826 -1.1075  0.9792 -0.5867
  331SOL     OW  991   0.275   1.962   1.085 -0.0561 -0.4427  0.1720
  331SOL    HW1  992   0.339   2.036   1.107 -0.7183 -1.8639 -1.2251
  331SOL    HW2  993   0.314   1.898   1.014 -3.5823 -0.8779 -2.1057
  332SOL     OW  994   0.766   0.654   1.138  0.0387 -0.3924  0.0671
  332SOL    HW1  995   0.754   0.708   1.225 -2.4027  0.1462 -1.4095
  332SOL    HW2  996   0.764   0.552   1.159  0.8067  1.5210 -0.4228
  333SOL     OW  997   1.984   2.783   2.191  0.2294  0.8079  0.0576
  333SOL    HW1  998   1.892   2.823   2.196  0.7311  0.5513  0.8904
  333SOL    HW2  999   2.049   2.831   2.255 -2.2635  1.5440 -2.9703
  334SOL     OW 1000   1.118   1.165   1.199 -0.3347 -0.3646 -0.4477
  334SOL    HW1 1001   1.194   1.106   1.166 -1.0921 -2.1924 -0.4434
  334SOL    HW2 1002   1.140   1.193   1.294  0.2558  0.0668 -3.6309
  335SOL     OW 1003   0.384   2.545   2.621  0.0222  0.0632  0.4258
  335SOL    HW1 1004   0.351   2.637   2.647  0.9400  0.4448  1.2756
  335SOL    HW2 1005   0.418   2.496   2.703 -1.3812 -0.9021 -0.9875
  336SOL     OW 1006   2.550   2.432   1.781  0.4458 -0.3191 -0.1933
  336SOL    HW1 1007   2.558   2.521   1.735 -0.0342  0.2609 -1.0587
  336SOL    HW2 1008   2.601   2.362   1.735 -2.6386  0.1863  0.4236
  337SOL     OW 1009   2.246   1.458   0.364 -1.3614 -0.0502  0.1380
  337SOL    HW1 1010   2.321   1.529   0.365  0.0069  0.1028  3.5834
  337SOL    HW2 1011   2.213   1.452   0.265  2.1140 -0.3871 -1.8705
  338SOL     OW 1012   1.080   1.864   1.425  0.4364  0.0208  0.1682
  338SOL    HW1 1013   1.087   1.792   1.495 -1.6771  1.1892 -0.5563
  338SOL    HW2 1014   1.134   1.943   1.452  2.0821  2.5791 -0.3671
  339SOL     OW 1015   3.015   0.801   1.442  0.0711 -0.1192 -0.7112
  339SOL    HW1 1016   3.061   0.826   1.529 -0.2870  0.2693 -2.1045
  339SOL    HW2 1017   3.060   0.724   1.398  0.0437  2.7864  2.3037
  340SOL     OW 1018   1.684   2.780   1.531 -0.0222  0.3448  0.0004
  340SOL    HW1 1019   1.677   2.701   1.471  0.6634  1.9583 -0.1688
  340SOL    HW2 1020   1.783   2.806   1.528  1.1383  2.7988 -0.2355
  341SOL     OW 1021   2.160   1.388   1.000  0.2411  0.3457 -0.0267
  341SOL    HW1 1022   2.254   1.359   1.017 -1.2060  3.6567 -0.6453
  341SOL    HW2 1023   2.157   1.468   0.933  1.5580  2.8559 -0.9898
  342SOL     OW 1024   0.364   1.834   0.845  0.9944 -0.0599 -0.5936
  342SOL    HW1 1025   0.304   1.752   0.866  1.4347  1.6522 -1.2736
  342SOL    HW2 1026   0.463   1.814   0.839 -0.3874  1.9391  0.1672
  343SOL     OW 1027   2.415   0.690   1.401  0.0620 -0.1652 -0.3846
  343SOL    HW1 1028   2.371   0.599   1.387 -0.2599 -0.2118 -0.0211
  343SOL    HW2 1029   2.358   0.760   1.452  0.6472 -0.0991 -1.7426
  344SOL     OW 1030   2.225   0.242   0.656  0.3716 -0.4780  0.1354
  344SOL    HW1 1031   2.297   0.301   0.624 -0.2513 -0.2798 -0.4435
  344SOL    HW2 1032   2.268   0.168   0.716  0.0365 -0.8773 -0.2366
  345SOL     OW 1033   0.022   2.810   2.598  0.0692 -0.2119  0.4323
  345SOL    HW1 1034   3.021   2.742   2.556 -2.7672 -0.9932 -1.1289
  345SOL    HW2 1035   3.061   2.905   2.568 -1.0112 -0.7360  0.9981
  346SOL     OW 1036   2.976   0.974   0.609 -0.3219 -0.1118 -0.0482
  346SOL    HW1 1037   3.047   1.047   0.619 -0.9262  0.5246 -2.3690
  346SOL    HW2 1038   2.888   1.016   0.577  0.7754  1.9013  3.6949
  347SOL     OW 1039   1.641   2.620   1.183 -0.0746 -0.6820 -0.3144
  347SOL    HW1 1040   1.660   2.650   1.090 -1.3229 -2.6416  2.5343
  347SOL    HW2 1041   1.553   2.660   1.211 -1.0416  0.3801 -2.9532
  348SOL     OW 1042   1.284   1.148   1.827 -0.0134  1.1112  0.3218
  348SOL    HW1 1043   1.344   1.230   1.849  2.1103 -0.8643  1.7506
  348SOL    HW2 1044   1.231   1.126   1.911  2.2879  1.0705 -0.9423
  349SOL     OW 1045   2.316   1.403   2.364 -0.0522  0.0165  0.0782
  349SOL    HW1 1046   2.321   1.314   2.413 -1.7155  4.6911  0.1673
  349SOL    HW2 1047   2.409   1.450   2.354  1.8276  2.4076 -0.8941
  350SOL     OW 1048   0.073   2.082   0.858  0.2286  0.2014 -0.1602
  350SOL    HW1 1049   0.172   2.102   0.879 -0.0585 -1.0047  1.9476
  350SOL    HW2 1050   0.053   2.104   0.761 -0.8178 -1.6020  2.2596
  351SOL     OW 1051   0.476   0.432   2.020 -0.0477  0.0566  0.2880
  351SOL    HW1 1052   0.551   0.412   1.952 -2.4197  2.5152 -0.6746
  351SOL    HW2 1053   0.385   0.414   1.978 -1.2663  1.1300 -1.0193
  352SOL     OW 1054   0.965   2.894   1.563 -0.2095  0.0438  0.1570
  352SOL    HW1 1055   0.971   2.935   1.470 -0.3032  2.9977  0.1712
  352SOL    HW2 1056   0.926   2.801   1.559 -0.2800  1.1871 -1.6383
  353SOL     OW 1057   0.600   1.515   2.342 -0.1080 -0.2454 -0.3230
  353SOL    HW1 1058   0.692   1.545   2.307  1.9287 -1.5412  2.2945
  353SOL    HW2 1059   0.555   1.592   2.394  1.9347  0.7642 -0.8266
  354SOL     OW 1060   1.452   1.484   0.243  0.1782  0.1393 -0.2565
  354SOL    HW1 1061   1.481   1.396   0.205 -1.5242  0.1061  0.9013
  354SOL    HW2 1062   1.384   1.473   0.322  1.3871 -0.9859 -1.4189
  355SOL     OW 1063   1.959   0.214   0.651 -0.2688 -0.2717  0.0132
  355SOL    HW1 1064   1.898   0.212   0.731  1.4807 -0.1188  1.4402
  355SOL    HW2 1065   2.058   0.228   0.665 -1.4014  0.2762  1.2192
  356SOL     OW 1066   0.094   1.159   0.042  0.4427 -0.6366 -0.2059
  356SOL    HW1 1067   0.130   1.170   3.017  0.9676 -2.0156 -1.2122
  356SOL    HW2 1068   0.128   1.239   0.099 -0.4562  0.5256  2.3295
  357SOL     OW 1069   2.894   0.022   2.252  0.2622 -0.3130 -0.8986
  357SOL    HW1 1070   2.934   0.078   2.180 -0.5389  1.9183 -0.9512
  357SOL    HW2 1071   2.964   3.067   2.323 -0.2393  0.1010 -0.4310
  358SOL     OW 1072   0.397   1.218   2.606  0.2652  0.6832 -0.5169
  358SOL    HW1 1073   0.361   1.297   2.554 -1.2245  1.0281 -0.5150
  358SOL    HW2 1074   0.323   1.153   2.635 -0.6048  0.6927  2.0842
  359SOL     OW 1075   2.434   2.550   2.402 -0.2042  0.1741 -0.3394
  359SOL    HW1 1076   2.382   2.616   2.465  0.3099  1.6948  1.9681
  359SOL    HW2 1077   2.457   2.595   2.314 -1.2657 -0.3866 -0.0098
  360SOL     OW 1078   1.424   1.352   0.917 -0.2775  0.1712 -0.0477
  360SOL    HW1 1079   1.332   1.326   0.882  2.2252 -3.5437  1.3905
  360SOL    HW2 1080   1.488   1.271   0.905 -2.5343 -0.9321  0.0565
  361SOL     OW 1081   2.064   2.477   1.180 -0.1655  0.1123  0.4906
  361SOL    HW1 1082   2.032   2.418   1.101  2.3699 -0.0306 -0.1524
  361SOL    HW2 1083   1.986   2.522   1.231 -2.5856 -1.1116  1.1081
  362SOL     OW 1084   1.876   1.216   0.763  0.8958  0.5854 -0.5696
  362SOL    HW1 1085   1.948   1.266   0.711 -0.7971  0.7490  1.1448
  362SOL    HW2 1086   1.806   1.280   0.797  1.4615  0.9515  1.9809
  363SOL     OW 1087   2.552   1.947   0.567 -0.5268  0.3911  0.3587
  363SOL    HW1 1088   2.468   1.887   0.588 -3.3938 -0.4102  0.3834
  363SOL    HW2 1089   2.566   1.957   0.467  1.4971 -0.5345  0.7397
  364SOL     OW 1090   2.346   0.065   1.133  0.8757 -0.4264  0.0355
  364SOL    HW1 1091   2.355   3.067   1.057  0.7662 -1.7475 -1.8787
  364SOL    HW2 1092   2.247   0.093   1.146 -2.0316 -1.1934  1.0430
  365SOL     OW 1093   0.301   2.731   1.265  0.2504  0.2132 -0.6151
  365SOL    HW1 1094   0.357   2.666   1.208 -0.7816 -3.0261 -0.7964
  365SOL    HW2 1095   0.202   2.707   1.257 -3.9496 -2.2917 -0.4140
  366SOL     OW 1096   3.010   1.293   0.395 -0.1500 -0.4844  0.5420
  366SOL    HW1 1097   2.931   1.233   0.384  1.4919 -1.9314  0.0844
  366SOL    HW2 1098   0.008   1.268   0.471  2.5618 -1.4467  2.1275
  367SOL     OW 1099   2.356   2.335   2.792  0.1119 -0.0276  0.1545
  367SOL    HW1 1100   2.396   2.246   2.822 -1.4707 -0.6792 -0.9418
  367SOL    HW2 1101   2.345   2.329   2.689  0.1772 -2.5023  0.6450
  368SOL     OW 1102   2.683   2.067   0.962 -0.0884  0.3642 -0.2554
  368SOL    HW1 1103   2.651   2.018   1.045 -1.7474  0.5076  0.9859
  368SOL    HW2 1104   2.712   2.007   0.885 -0.5720  0.9654  2.0501
  369SOL     OW 1105   0.890   1.042   0.642 -0.3917 -0.5291 -0.5903
  369SOL    HW1 1106   0.796   1.025   0.619  2.3599 -1.1127  1.2161
  369SOL    HW2 1107   0.948   1.021   0.561 -2.7851  2.3354  1.3053
  370SOL     OW 1108   0.563   0.001   0.903 -0.3448  0.4497 -0.5939
  370SOL    HW1 1109   0.526   3.032   0.993 -0.1374 -0.6427  0.3999
  370SOL    HW2 1110   0.658   0.040   0.910  0.8229 -0.9214  1.3817
  371SOL     OW 1111   2.364   1.155   2.939 -0.1496  0.3054  0.1579
  371SOL    HW1 1112   2.418   1.073   2.914 -1.1057 -1.7191 -1.6001
  371SOL    HW2 1113   2.266   1.143   2.914 -2.2964 -0.1923  0.4254
  372SOL     OW 1114   0.510   0.452   2.513 -0.0660 -0.2392 -0.3860
  372SOL    HW1 1115   0.602   0.411   2.511 -0.3992 -2.0794  0.1582
  372SOL    HW2 1116   0.451   0.395   2.572  0.1001  1.3083  0.2483
  373SOL     OW 1117   0.528   0.528   2.870 -0.3055  0.0997 -0.1264
  373SOL    HW1 1118   0.555   0.436   2.847 -0.5669 -1.1549  0.3911
  373SOL    HW2 1119   0.557   0.566   2.957 -1.2156  4.2996  0.3044
  374SOL     OW 1120   1.033   2.424   0.039  0.2261  0.6794 -0.6277
  374SOL    HW1 1121   1.079   2.428   3.020 -0.3041 -0.7201  0.2440
  374SOL    HW2 1122   1.054   2.504   0.099  0.6341 -0.6923 -2.6963
  375SOL     OW 1123   1.013   2.951   0.548 -0.5632 -0.4388 -0.3802
  375SOL    HW1 1124   1.019   3.028   0.609  1.9057  0.3371  0.1036
  375SOL    HW2 1125   1.080   2.957   0.471  0.9769 -1.7741  0.2693
  376SOL     OW 1126   0.210   2.374   2.090 -0.3159 -0.0241  0.1257
  376SOL    HW1 1127   0.126   2.420   2.108  2.5423 -0.4768  1.8403
  376SOL    HW2 1128   0.255   2.420   2.009 -0.0709  0.3850  1.3486
  377SOL     OW 1129   2.744   2.122   3.017 -0.0028  0.5814  0.0926
  377SOL    HW1 1130   2.678   2.060   3.063 -0.3283  0.2843 -0.0860
  377SOL    HW2 1131   2.724   2.124   2.915  1.5971 -1.1346 -0.0482
  378SOL     OW 1132   1.659   0.658   0.605  1.3325  0.4380 -0.2909
  378SOL    HW1 1133   1.745   0.601   0.634  2.2665 -2.3914  1.6731
  378SOL    HW2 1134   1.612   0.690   0.691 -0.5667 -1.7594  2.0936
  379SOL     OW 1135   1.184   1.363   0.826  1.1298 -0.0890 -0.5189
  379SOL    HW1 1136   1.171   1.292   0.754 -0.2032  0.6391 -1.3335
  379SOL    HW2 1137   1.224   1.449   0.787 -0.5859  2.5757 -0.0082
  380SOL     OW 1138   2.440   2.030   1.795 -0.0564  0.2029 -0.3519
  380SOL    HW1 1139   2.522   2.072   1.831  1.2863 -4.3209  1.3020
  380SOL    HW2 1140   2.437   2.033   1.692 -0.9307  1.6125  0.7504
  381SOL     OW 1141   2.861   1.163   2.083 -0.1066  0.0025  0.7488
  381SOL    HW1 1142   2.956   1.130   2.098 -1.8104 -0.1327 -2.1775
  381SOL    HW2 1143   2.830   1.120   1.994  1.8260  0.5932 -0.5452
  382SOL     OW 1144   2.789   2.228   0.317  0.3803  0.3075 -0.0233
  382SOL    HW1 1145   2.766   2.314   0.364  1.8141 -2.7598  2.0767
  382SOL    HW2 1146   2.710   2.167   0.309  2.9335  0.6499  2.8122
  383SOL     OW 1147   1.473   1.117   2.375  0.0319  0.2056  0.0046
  383SOL    HW1 1148   1.462   1.170   2.287 -1.5006  1.9199  1.4540
  383SOL    HW2 1149   1.503   1.022   2.366 -1.7803  0.6742  2.0696
  384SOL     OW 1150   1.068   2.154   2.667  0.0078  0.3471  0.3239
  384SOL    HW1 1151   1.139   2.168   2.590 -0.3300 -0.1011 -0.4352
  384SOL    HW2 1152   1.005   2.231   2.668  0.1624 -1.2597 -0.1595
  385SOL     OW 1153   2.193   2.159   0.139 -0.1867 -0.5396  0.2099
  385SOL    HW1 1154   2.100   2.203   0.123 -1.4328  0.2934  2.0432
  385SOL    HW2 1155   2.251   2.218   0.204  2.9293  4.5442  1.9268
  386SOL     OW 1156   1.636   1.274   0.537  0.3081  0.0399  0.8849
  386SOL    HW1 1157   1.730   1.271   0.586  3.1806 -0.3551  2.3972
  386SOL    HW2 1158   1.580   1.193   0.555  3.9496 -1.1963 -0.5928
  387SOL     OW 1159   2.725   1.002   1.211  0.3183 -0.0404 -0.1668
  387SOL    HW1 1160   2.741   1.100   1.233  1.0935 -4.0090  0.0650
  387SOL    HW2 1161   2.657   0.996   1.135 -0.2018  1.0723 -0.3580
  388SOL     OW 1162   0.139   0.804   1.194  0.3800 -0.8757 -0.5256
  388SOL    HW1 1163   0.068   0.877   1.207 -0.0071  0.8295  1.9440
  388SOL    HW2 1164   0.114   0.719   1.249 -1.3563  0.6142  1.6226
  389SOL     OW 1165   1.946   1.155   2.367 -0.0373  0.0854 -0.0604
  389SOL    HW1 1166   1.853   1.163   2.405 -0.8263 -1.4507 -0.6553
  389SOL    HW2 1167   1.968   1.242   2.316  1.3591 -0.2783  0.3129
  390SOL     OW 1168   1.395   2.239   0.419 -0.7638 -0.0742  0.3947
  390SOL    HW1 1169   1.370   2.216   0.322  1.8066 -0.1930 -1.6562
  390SOL    HW2 1170   1.485   2.286   0.424  1.6343 -0.7970 -1.5737
  391SOL     OW 1171   1.118   2.069   1.060 -0.1836 -1.0294 -0.1109
  391SOL    HW1 1172   1.169   1.983   1.077  0.2196 -1.7069  0.4229
  391SOL    HW2 1173   1.041   2.054   0.992 -0.2288 -0.4308 -0.8708
  392SOL     OW 1174   2.321   2.476   1.880  0.0311 -0.2123 -0.2108
  392SOL    HW1 1175   2.260   2.519   1.812  0.1873 -0.3780  1.9582
  392SOL    HW2 1176   2.411   2.457   1.844 -2.3905 -1.4089 -2.2152
  393SOL     OW 1177   1.603   1.991   0.160 -0.4204 -0.1177 -0.1058
  393SOL    HW1 1178   1.663   1.961   0.085 -1.9062 -0.2651  1.1731
  393SOL    HW2 1179   1.591   1.916   0.225 -0.6011 -1.2452 -0.5191
  394SOL     OW 1180   0.102   0.348   2.274 -0.2712  0.0107  0.4236
  394SOL    HW1 1181   0.039   0.408   2.217  2.6861  1.7789 -0.4528
  394SOL    HW2 1182   0.190   0.401   2.278 -2.1643  0.0214  0.0356
  395SOL     OW 1183   0.547   1.051   0.808  0.0975  0.8505 -0.5036
  395SOL    HW1 1184   0.547   1.135   0.868 -1.5596  2.3985  1.6912
  395SOL    HW2 1185   0.618   0.985   0.836  1.0329 -1.3528 -0.2909
  396SOL     OW 1186   2.428   0.898   2.605 -0.2077 -0.2031  0.0800
  396SOL    HW1 1187   2.390   0.804   2.582 -0.6928  1.3865 -0.9756
  396SOL    HW2 1188   2.510   0.924   2.548  1.8797 -1.1553  1.0980
  397SOL     OW 1189   0.172   0.823   2.925  0.8549 -0.2308  0.3929
  397SOL    HW1 1190   0.243   0.891   2.895 -0.7452 -0.4696 -0.7919
  397SOL    HW2 1191   0.146   0.762   2.847 -0.2161 -1.0973 -0.7914
  398SOL     OW 1192   1.421   2.796   0.270  0.3126  0.2691  0.2470
  398SOL    HW1 1193   1.505   2.811   0.324 -2.1514 -2.1417 -0.2808
  398SOL    HW2 1194   1.416   2.826   0.172 -0.7387 -2.5699  1.9293
  399SOL     OW 1195   2.056   2.488   1.747  0.2213 -0.2430  0.0032
  399SOL    HW1 1196   2.006   2.438   1.822  0.5056 -0.7143  2.2029
  399SOL    HW2 1197   2.082   2.416   1.679  1.6037  2.6871  1.1949
  400SOL     OW 1198   3.063   1.372   1.843 -0.2040  0.0211 -0.6034
  400SOL    HW1 1199   0.070   1.302   1.838 -0.8138 -0.9695 -0.4320
  400SOL    HW2 1200   3.032   1.384   1.941 -1.9951  3.9371  1.4724
  401SOL     OW 1201   0.631   0.978   0.541 -0.3175 -0.6887  0.2879
  401SOL    HW1 1202   0.571   0.908   0.504  0.6572  2.1830  0.8202
  401SOL    HW2 1203   0.592   1.021   0.625  1.6069  0.9911  1.5079
  402SOL     OW 1204   0.719   2.912   2.178 -0.3199 -0.1842  0.1169
  402SOL    HW1 1205   0.791   2.975   2.216 -0.0426  1.7670  0.5813
  402SOL    HW2 1206   0.665   2.869   2.255  0.5243 -0.7030  1.1427
  403SOL     OW 1207   2.762   1.912   1.885 -0.4461 -0.8536 -0.4621
  403SOL    HW1 1208   2.850   1.888   1.931 -0.6913 -0.1610  0.1605
  403SOL    HW2 1209   2.734   2.006   1.916 -0.1180 -1.4118  0.8522
  404SOL     OW 1210   2.652   2.138   1.953  0.2020 -0.3871  0.3193
  404SOL    HW1 1211   2.603   2.140   2.041 -0.5112 -4.1224 -0.4292
  404SOL    HW2 1212   2.713   2.219   1.931 -1.5651 -0.1450 -0.1804
  405SOL     OW 1213   1.876   0.156   2.686  0.7819  0.2821 -0.0339
  405SOL    HW1 1214   1.948   0.087   2.704  1.4872 -2.0223 -2.6886
  405SOL    HW2 1215   1.847   0.147   2.592 -0.6581 -0.9227 -1.5578
  406SOL     OW 1216   1.159   1.957   0.280  0.2023  0.1811  0.1807
  406SOL    HW1 1217   1.222   2.005   0.211  0.8862  0.8385  1.1102
  406SOL    HW2 1218   1.076   2.015   0.297  1.9645  0.3574 -1.2634
  407SOL     OW 1219   1.552   1.233   0.267  0.6256  0.2677 -0.4048
  407SOL    HW1 1220   1.575   1.150   0.208  1.5911  3.1430  1.3367
  407SOL    HW2 1221   1.626   1.251   0.337 -1.8675  1.4933 -2.5915
  408SOL     OW 1222   0.297   0.523   1.468 -0.2674 -0.2612 -0.5517
  408SOL    HW1 1223   0.359   0.501   1.552  0.6910  0.9361  0.8931
  408SOL    HW2 1224   0.353   0.564   1.398 -0.0129  1.3076  2.1578
  409SOL     OW 1225   2.824   1.358   2.911  0.6726 -0.3695 -0.0499
  409SOL    HW1 1226   2.725   1.351   2.879 -0.0025  0.1774  0.8949
  409SOL    HW2 1227   2.856   1.456   2.928  1.5308  3.8081 -0.3596
  410SOL     OW 1228   2.548   2.775   0.742  0.2093  0.0524  0.9030
  410SOL    HW1 1229   2.598   2.764   0.826 -2.2920 -1.3095 -0.5044
  410SOL    HW2 1230   2.483   2.696   0.720 -2.0010 -0.4140 -1.9325
  411SOL     OW 1231   0.063   0.795   0.477 -0.2233  0.3978  0.1886
  411SOL    HW1 1232   3.063   0.854   0.522  0.1229 -0.5293 -1.0521
  411SOL    HW2 1233   0.023   0.748   0.396  0.3814  1.6924  0.0705
  412SOL     OW 1234   1.676   0.000   0.221  0.2842 -0.0064 -0.0834
  412SOL    HW1 1235   1.726   0.079   0.262 -1.1394 -0.3828  0.5859
  412SOL    HW2 1236   1.599   0.034   0.167 -1.1078 -0.5508  0.3512
  413SOL     OW 1237   1.312   0.435   1.357  0.6105 -0.2179 -0.4182
  413SOL    HW1 1238   1.299   0.336   1.367 -0.8653  0.6028  3.7384
  413SOL    HW2 1239   1.256   0.485   1.426 -0.0555  0.1931 -1.3895
  414SOL     OW 1240   0.403   1.215   0.391  0.1533  0.0617  0.3907
  414SOL    HW1 1241   0.347   1.135   0.368  1.6952 -0.1102 -0.1896
  414SOL    HW2 1242   0.503   1.194   0.379  2.5807  0.5388 -0.9533
  415SOL     OW 1243   2.717   1.556   0.155 -0.1654  0.5803 -0.3952
  415SOL    HW1 1244   2.811   1.526   0.113  2.5016  1.8515 -2.0128
  415SOL    HW2 1245   2.726   1.588   0.252 -1.9385  1.0875 -1.6463
  416SOL     OW 1246   2.603   0.464   2.905 -0.1441 -0.0837  0.0593
  416SOL    HW1 1247   2.602   0.515   2.820  1.6596  1.7552  2.6200
  416SOL    HW2 1248   2.642   0.528   2.976 -2.9037  0.4872 -0.4095
  417SOL     OW 1249   2.604   2.882   0.308 -0.3734  0.2603  0.1509
  417SOL    HW1 1250   2.645   2.793   0.311 -3.5123  5.7635  0.3843
  417SOL    HW2 1251   2.579   2.922   0.218 -1.8519  1.1966  0.3234
  418SOL     OW 1252   0.409   0.364   0.067  0.1590  0.6689  0.5264
  418SOL    HW1 1253   0.449   0.390   0.158  0.3177  0.1076 -0.9766
  418SOL    HW2 1254   0.418   0.444   0.007 -1.7062 -1.4521  1.7969
  419SOL     OW 1255   0.701   0.849   0.890 -0.3651  0.3207 -0.5487
  419SOL    HW1 1256   0.716   0.882   0.987 -1.8517  0.4037  2.4520
  419SOL    HW2 1257   0.682   0.749   0.891  2.2740 -1.2223  2.0880
  420SOL     OW 1258   0.360   0.728   0.976  0.4086  0.1205 -0.1803
  420SOL    HW1 1259   0.397   0.785   1.051  1.1162 -0.0292 -0.4130
  420SOL    HW2 1260   0.275   0.777   0.937 -0.7605  0.8233  1.5414
  421SOL     OW 1261   0.507   2.063   0.221  0.1596 -0.3029 -0.0175
  421SOL    HW1 1262   0.488   2.006   0.137  0.3775 -0.6823 -0.7870
  421SOL    HW2 1263   0.549   2.152   0.202  0.9814 -0.3367 -1.1762
  422SOL     OW 1264   2.522   0.245   2.116  0.8442 -0.4765  0.0439
  422SOL    HW1 1265   2.541   0.286   2.210 -1.2930  1.5434  1.3776
  422SOL    HW2 1266   2.454   0.170   2.123  1.4085  1.9868  1.8170
  423SOL     OW 1267   2.063   1.719   0.120  0.2041  0.5657  0.1212
  423SOL    HW1 1268   2.121   1.639   0.103 -0.0715 -0.1474  0.3388
  423SOL    HW2 1269   2.103   1.806   0.079  1.1524  2.1551 -0.7182
  424SOL     OW 1270   1.772   1.566   2.443 -0.1841  0.2282  0.5597
  424SOL    HW1 1271   1.809   1.496   2.381  1.0044  2.5008  0.6357
  424SOL    HW2 1272   1.686   1.520   2.482 -1.6577  0.2855 -1.2641
  425SOL     OW 1273   2.972   2.786   2.284 -0.1658  0.3778  0.4102
  425SOL    HW1 1274   2.905   2.800   2.362 -0.6776 -2.3039 -1.2675
  425SOL    HW2 1275   3.029   2.707   2.299  1.4860  0.6143 -1.2554
  426SOL     OW 1276   2.292   2.699   0.375  0.3823  0.4562 -0.2259
  426SOL    HW1 1277   2.207   2.644   0.364 -0.5886 -1.1281 -1.9188
  426SOL    HW2 1278   2.285   2.793   0.337  0.0017 -2.8567 -0.5219
  427SOL     OW 1279   0.587   1.004   2.490  0.5949 -0.4142  0.2241
  427SOL    HW1 1280   0.548   1.095   2.474 -1.0317 -0.1507  0.0861
  427SOL    HW2 1281   0.582   0.974   2.588 -0.6961 -2.3403 -0.8787
  428SOL     OW 1282   2.662   1.183   2.628 -0.1315 -0.0590 -0.5672
  428SOL    HW1 1283   2.646   1.111   2.558 -2.1722 -0.7694  0.1754
  428SOL    HW2 1284   2.694   1.136   2.711  1.6202  1.4005 -2.5632
  429SOL     OW 1285   2.482   0.200   0.335 -0.5269  0.1830 -0.5841
  429SOL    HW1 1286   2.571   0.154   0.352 -2.6778 -0.2795 -1.3117
  429SOL    HW2 1287   2.403   0.143   0.368  1.2346  0.2417  0.3666
  430SOL     OW 1288   1.444   1.833   2.315  0.2333  0.3480  0.0534
  430SOL    HW1 1289   1.445   1.916   2.258  1.2841 -0.8691 -4.4386
  430SOL    HW2 1290   1.376   1.842   2.388 -4.1383  0.7320  0.7061
  431SOL     OW 1291   0.082   1.767   1.864 -0.2812  0.1333 -0.1499
  431SOL    HW1 1292   0.042   1.852   1.906  0.1544 -0.3521 -0.8670
  431SOL    HW2 1293   0.138   1.784   1.789 -2.5204 -1.1990  2.9794
  432SOL     OW 1294   1.272   2.187   2.487 -0.1872  0.8612 -0.5002
  432SOL    HW1 1295   1.317   2.094   2.476  0.2247  0.9819 -1.0238
  432SOL    HW2 1296   1.263   2.223   2.396  0.1479 -0.8194 -1.3015
  433SOL     OW 1297   1.059   2.514   0.686 -0.1090 -0.1683 -0.8256
  433SOL    HW1 1298   1.020   2.485   0.594 -0.6738 -0.6472  0.6626
  433SOL    HW2 1299   1.099   2.609   0.684  1.9645  0.8227 -1.3857
  434SOL     OW 1300   0.278   2.110   2.446  0.0079  0.3444  0.6056
  434SOL    HW1 1301   0.245   2.204   2.464 -0.5092  1.1265 -0.7133
  434SOL    HW2 1302   0.284   2.099   2.340 -1.3165 -2.1296 -0.9032
  435SOL     OW 1303   0.445   1.351   0.736  0.0498 -0.5989  0.7662
  435SOL    HW1 1304   0.356   1.391   0.699 -1.2727 -0.6776  0.4568
  435SOL    HW2 1305   0.491   1.306   0.657 -1.3988  1.8100  1.7540
  436SOL     OW 1306   0.287   2.336   1.731 -0.3604  0.2098  0.0547
  436SOL    HW1 1307   0.231   2.387   1.655  0.2650 -1.0805 -2.2588
  436SOL    HW2 1308   0.292   2.233   1.725  1.3241 -0.4580 -2.8463
  437SOL     OW 1309   1.045   0.531   0.534  0.2356  0.3684  0.0757
  437SOL    HW1 1310   1.076   0.479   0.454 -0.3245  0.3425  2.1042
  437SOL    HW2 1311   0.942   0.524   0.540 -0.0087  0.0719  2.7898
  438SOL     OW 1312   0.313   2.307   0.940  0.0657  0.0804 -0.5226
  438SOL    HW1 1313   0.262   2.390   0.955  2.0208 -1.6570  1.2463
  438SOL    HW2 1314   0.342   2.268   1.029 -0.3321  0.5987 -2.3790
  439SOL     OW 1315   0.868   2.607   1.835 -0.5148 -0.9915  0.0129
  439SOL    HW1 1316   0.777   2.616   1.878 -2.6572  0.6258  0.3043
  439SOL    HW2 1317   0.864   2.620   1.733  0.1902  1.1407  1.6952
  440SOL     OW 1318   1.522   0.020   1.463  0.2657  0.1709  0.1021
  440SOL    HW1 1319   1.557   0.048   1.555  2.8804  0.1368 -0.7885
  440SOL    HW2 1320   1.586   3.029   1.411 -2.2128  1.9589  2.6741
  441SOL     OW 1321   0.404   0.118   1.620  0.4214 -0.2519 -0.0791
  441SOL    HW1 1322   0.402   0.032   1.568 -2.4431  1.3892  2.2255
  441SOL    HW2 1323   0.481   0.178   1.593 -1.7108 -0.3778 -0.7808
  442SOL     OW 1324   2.074   1.842   0.555 -0.4283  0.2728 -0.3120
  442SOL    HW1 1325   2.022   1.778   0.491 -1.1412 -2.6483 -1.0643
  442SOL    HW2 1326   2.110   1.920   0.506 -1.6092 -0.0493  0.5622
  443SOL     OW 1327   2.578   0.367   2.353  0.0103  0.0505 -0.2332
  443SOL    HW1 1328   2.676   0.379   2.346 -2.3760 -1.4563  0.6315
  443SOL    HW2 1329   2.555   0.314   2.436 -0.3269 -1.6316  1.2710
  444SOL     OW 1330   2.134   0.947   1.740  0.1536 -0.0853  0.5016
  444SOL    HW1 1331   2.142   1.021   1.813 -0.2629  0.2365  1.8759
  444SOL    HW2 1332   2.108   0.858   1.785  1.7838  0.8959  0.9624
  445SOL     OW 1333   2.842   2.052   1.636  0.0931  0.3205 -0.1063
  445SOL    HW1 1334   2.820   1.988   1.711 -0.6256 -1.2380  0.9063
  445SOL    HW2 1335   2.938   2.079   1.633 -2.9025 -0.4562  0.2575
  446SOL     OW 1336   2.841   1.551   0.698  0.1450 -0.0896 -0.2546
  446SOL    HW1 1337   2.905   1.480   0.660 -0.1296  0.5789 -0.2665
  446SOL    HW2 1338   2.741   1.529   0.672 -2.7324 -0.1575 -1.1389
  447SOL     OW 1339   0.931   1.532   0.583  0.0339  0.0752  0.1283
  447SOL    HW1 1340   0.899   1.460   0.646 -1.7949 -0.3809 -0.8282
  447SOL    HW2 1341   0.995   1.508   0.510 -0.0568  1.8315  2.5947
  448SOL     OW 1342   1.469   1.289   1.510  0.4581 -0.3814 -0.0481
  448SOL    HW1 1343   1.482   1.366   1.574  1.5725 -0.4679  0.3234
  448SOL    HW2 1344   1.520   1.308   1.425 -1.8898 -1.9748  0.2837
  449SOL     OW 1345   0.631   1.376   3.042 -0.0713 -0.1241  0.5231
  449SOL    HW1 1346   0.558   1.435   0.007 -0.3892  1.2840 -0.4288
  449SOL    HW2 1347   0.613   1.345   2.948  3.2942 -0.2932 -1.8407
  450SOL     OW 1348   2.291   2.205   1.958 -0.1126  0.4940  0.2240
  450SOL    HW1 1349   2.367   2.149   1.921  0.9022 -0.1348 -2.0301
  450SOL    HW2 1350   2.281   2.298   1.914 -3.5314 -0.0491  3.4814
  451SOL     OW 1351   1.816   3.067   2.209 -0.5426  0.5837 -0.2201
  451SOL    HW1 1352   1.911   0.038   2.208  2.2766  2.4236 -2.5182
  451SOL    HW2 1353   1.779   3.043   2.302 -2.3519 -3.2479 -1.2980
  452SOL     OW 1354   1.063   2.988   1.294 -0.2130 -0.1749  0.2130
  452SOL    HW1 1355   1.020   2.915   1.234  1.2429 -1.2073  1.3368
  452SOL    HW2 1356   1.001   3.068   1.309  0.5171  1.3907 -1.5198
  453SOL     OW 1357   1.288   1.044   0.809 -0.3028 -0.3026 -0.1911
  453SOL    HW1 1358   1.283   0.945   0.797 -0.4819 -1.4784  1.3510
  453SOL    HW2 1359   1.237   1.096   0.738 -0.2758 -0.6263 -1.2602
  454SOL     OW 1360   0.589   1.284   0.953 -0.0049 -0.0857  0.0182
  454SOL    HW1 1361   0.532   1.312   0.877  2.2807 -1.7920  1.4042
  454SOL    HW2 1362   0.634   1.367   0.990  1.2496 -0.3673 -0.2828
  455SOL     OW 1363   2.904   3.044   2.818 -0.4339  0.2019  0.3198
  455SOL    HW1 1364   2.857   2.974   2.769 -0.3598  0.8804  2.6603
  455SOL    HW2 1365   2.857   0.064   2.818 -0.2343 -1.5771 -0.1976
  456SOL     OW 1366   2.610   2.313   1.295  0.6317 -0.2483  0.5684
  456SOL    HW1 1367   2.629   2.407   1.320  1.3362 -0.0216  1.4754
  456SOL    HW2 1368   2.601   2.301   1.197  0.4868 -0.9124 -1.1100
  457SOL     OW 1369   1.388   0.133   0.123  0.1410  0.5870  0.2819
  457SOL    HW1 1370   1.354   0.230   0.115  0.2710 -0.7269 -1.9844
  457SOL    HW2 1371   1.313   0.067   0.152 -2.4436  1.2080 -2.5296
  458SOL     OW 1372   2.756   0.060   0.384  0.2579  0.1363  0.1977
  458SOL    HW1 1373   2.775   0.108   0.474 -1.7426 -0.1194  3.2413
  458SOL    HW2 1374   2.762   3.029   0.391 -0.1486  1.9915 -1.4732
  459SOL     OW 1375   2.090   0.261   2.419  0.4671 -0.5396 -0.0275
  459SOL    HW1 1376   2.135   0.272   2.511 -0.9089 -0.0413  1.4865
  459SOL    HW2 1377   1.989   0.256   2.425  1.7284  2.7408 -0.9122
  460SOL     OW 1378   2.823   0.250   2.824  0.3154 -0.4459 -0.8324
  460SOL    HW1 1379   2.830   0.335   2.878  0.0836 -1.3750  0.8862
  460SOL    HW2 1380   2.736   0.258   2.770 -1.1723 -0.2714 -2.0990
  461SOL     OW 1381   0.684   1.758   1.108  0.1882  0.7968  0.0122
  461SOL    HW1 1382   0.768   1.767   1.162 -1.3065 -0.3528 -1.8021
  461SOL    HW2 1383   0.715   1.759   1.011  0.8778  1.0878 -1.9800
  462SOL     OW 1384   2.429   0.043   1.512 -0.1609  0.1765  0.0423
  462SOL    HW1 1385   2.382   0.106   1.576  2.0775  2.5381 -0.7025
  462SOL    HW2 1386   2.409   3.017   1.541  0.5195  0.4154  0.7109
  463SOL     OW 1387   2.789   1.114   0.466  0.6379 -0.2347  0.3317
  463SOL    HW1 1388   2.777   1.089   0.370 -2.1862 -1.1884  0.7238
  463SOL    HW2 1389   2.708   1.166   0.504  0.6916  3.0933 -1.0210
  464SOL     OW 1390   0.024   2.701   1.284  0.6952 -0.7272 -0.3339
  464SOL    HW1 1391   3.008   2.734   1.234 -0.1668  1.6370 -0.6721
  464SOL    HW2 1392   0.010   2.607   1.325 -0.7942  2.1175 -0.9684
  465SOL     OW 1393   0.324   1.461   0.361  0.1780 -0.7782 -0.0339
  465SOL    HW1 1394   0.393   1.539   0.348  1.2173  2.4281  0.1800
  465SOL    HW2 1395   0.367   1.372   0.378 -0.3542  1.1506  1.6253
  466SOL     OW 1396   1.039   0.311   2.600  0.3390  0.0215  0.1492
  466SOL    HW1 1397   1.036   0.233   2.664  0.5711 -0.4233 -0.9674
  466SOL    HW2 1398   1.016   0.403   2.634 -0.6181 -0.3172  0.9734
  467SOL     OW 1399   0.665   0.652   2.162 -0.3805  0.1751 -0.2103
  467SOL    HW1 1400   0.764   0.636   2.162 -0.7480  0.2114  1.4252
  467SOL    HW2 1401   0.612   0.572   2.122  0.0937 -0.8980 -0.1691
  468SOL     OW 1402   0.698   0.918   2.246  0.3075 -0.8102 -0.6160
  468SOL    HW1 1403   0.701   0.815   2.236  2.4825  2.2745  0.1814
  468SOL    HW2 1404   0.668   0.945   2.343 -2.8791  2.6965 -2.1812
  469SOL     OW 1405   3.048   2.128   0.317  0.0356  0.0604 -0.0167
  469SOL    HW1 1406   3.061   2.081   0.227 -0.5577  0.7500 -2.0361
  469SOL    HW2 1407   2.963   2.187   0.315 -0.4538 -1.9029 -0.2967
  470SOL     OW 1408   2.410   2.074   2.885  0.1770 -0.2444 -0.0848
  470SOL    HW1 1409   2.352   1.995   2.852 -2.6836 -3.8199 -1.3619
  470SOL    HW2 1410   2.494   2.094   2.838 -0.7719 -2.0397 -0.3256
  471SOL     OW 1411   1.896   0.550   2.127 -0.2726  0.1944  0.3722
  471SOL    HW1 1412   1.860   0.639   2.089 -1.1939 -4.2264 -1.5664
  471SOL    HW2 1413   1.837   0.472   2.110 -0.3803 -0.3800 -1.5789
  472SOL     OW 1414   0.689   2.686   1.316 -0.5446 -0.3643  0.4097
  472SOL    HW1 1415   0.632   2.603   1.327 -0.3872  1.1106  1.2065
  472SOL    HW2 1416   0.739   2.689   1.225  1.2155  1.9844 -1.6537
  473SOL     OW 1417   0.605   2.993   2.454  0.1532  0.3173 -0.2073
  473SOL    HW1 1418   0.645   3.026   2.542  0.9688 -0.0262 -0.1161
  473SOL    HW2 1419   0.605   3.065   2.382  0.3702 -1.7900 -0.5891
  474SOL     OW 1420   1.839   0.132   1.787  0.3138  0.6654 -0.1340
  474SOL    HW1 1421   1.895   0.133   1.704  1.0888  0.3491  1.9906
  474SOL    HW2 1422   1.863   0.048   1.846  0.6309 -0.6732  2.5514
  475SOL     OW 1423   1.783   3.024   1.024 -0.3009  0.4485  0.5055
  475SOL    HW1 1424   1.780   0.053   0.986 -2.2329  0.9231 -0.1783
  475SOL    HW2 1425   1.814   2.963   0.950 -0.8628 -0.6660 -0.7425
  476SOL     OW 1426   0.592   0.613   0.929  0.4330 -0.3030  0.0780
  476SOL    HW1 1427   0.517   0.679   0.926  1.8844  0.3641 -2.9941
  476SOL    HW2 1428   0.661   0.641   1.003  0.4329 -0.2772  2.4169
  477SOL     OW 1429   1.281   2.468   0.549  0.0169  0.0418 -0.2614
  477SOL    HW1 1430   1.306   2.374   0.516  1.5175 -0.0034 -3.5100
  477SOL    HW2 1431   1.192   2.473   0.600 -2.4529  0.4974 -0.9381
  478SOL     OW 1432   0.171   2.381   2.543 -0.6330  0.4213 -0.7843
  478SOL    HW1 1433   0.258   2.431   2.574  1.5261 -2.0134 -0.8986
  478SOL    HW2 1434   0.121   2.441   2.479  0.3823  2.8189  0.0484
  479SOL     OW 1435   2.579   0.301   1.173 -0.3693 -0.2437  0.1919
  479SOL    HW1 1436   2.629   0.384   1.141  1.7673  1.5371 -0.8212
  479SOL    HW2 1437   2.622   0.262   1.256  0.1985 -2.1896 -2.2830
  480SOL     OW 1438   0.201   2.734   0.278  0.2715  0.0198  0.5508
  480SOL    HW1 1439   0.182   2.817   0.338 -0.2014  0.1122 -0.2615
  480SOL    HW2 1440   0.153   2.651   0.310  2.7196 -0.8623 -2.2499
  481SOL     OW 1441   2.419   2.020   1.512 -0.6152  0.0327  0.2164
  481SOL    HW1 1442   2.341   1.982   1.463  4.4853  3.7761  0.7609
  481SOL    HW2 1443   2.424   2.120   1.496 -0.1601 -1.3061  0.9589
  482SOL     OW 1444   1.143   2.418   2.862  0.0870  0.2678  0.0280
  482SOL    HW1 1445   1.212   2.379   2.799 -1.4809  0.0079 -0.0137
  482SOL    HW2 1446   1.053   2.399   2.828 -0.9134  0.5878 -1.2808
  483SOL     OW 1447   0.551   2.321   2.257 -0.4584  0.0507  0.4837
  483SOL    HW1 1448   0.598   2.369   2.180 -1.5048 -2.8271  0.5412
  483SOL    HW2 1449   0.453   2.350   2.259  0.9668 -1.0337  1.1985
  484SOL     OW 1450   1.191   0.589   1.553  0.4534 -0.0762  0.3673
  484SOL    HW1 1451   1.218   0.554   1.647 -0.8770  0.7751  1.3224
  484SOL    HW2 1452   1.224   0.686   1.539 -0.8695  1.5277 -0.3709
  485SOL     OW 1453   2.173   0.980   2.375  0.2720  0.3878  0.4778
  485SOL    HW1 1454   2.221   1.054   2.426  0.4286 -2.3983 -0.4508
  485SOL    HW2 1455   2.073   0.997   2.386 -3.4027  2.9461 -0.5001
  486SOL     OW 1456   2.299   2.883   0.963 -0.0127 -0.7501 -0.0836
  486SOL    HW1 1457   2.339   2.951   0.900 -0.9468  0.6945  2.4578
  486SOL    HW2 1458   2.322   2.789   0.932  1.7067 -1.3390  0.3216
  487SOL     OW 1459   0.727   2.193   1.671 -0.2503  0.2463  0.0138
  487SOL    HW1 1460   0.691   2.107   1.635 -1.6189  0.7707 -0.8533
  487SOL    HW2 1461   0.817   2.221   1.620  0.9837  4.8467 -2.9521
  488SOL     OW 1462   2.547   1.367   2.802  0.3243  0.5887  0.6649
  488SOL    HW1 1463   2.580   1.296   2.731 -0.4432 -4.0696 -1.2970
  488SOL    HW2 1464   2.455   1.348   2.836  2.0252 -2.3707 -1.9806
  489SOL     OW 1465   2.013   2.993   0.812 -0.0561  0.1728 -0.1134
  489SOL    HW1 1466   1.936   3.034   0.762  3.9878 -0.8070  0.8268
  489SOL    HW2 1467   2.075   2.938   0.749  1.2356  0.8466 -1.7716
  490SOL     OW 1468   1.055   1.358   0.133 -0.3070  1.4316  0.2077
  490SOL    HW1 1469   1.074   1.414   0.216 -0.6512 -0.8507 -0.3523
  490SOL    HW2 1470   0.990   1.408   0.078 -0.1752 -0.1718  0.1613
  491SOL     OW 1471   0.332   2.300   1.418 -0.6412  0.0995 -0.0825
  491SOL    HW1 1472   0.293   2.382   1.466  0.6705  2.5955 -2.3552
  491SOL    HW2 1473   0.275   2.216   1.439  0.2652 -0.6118  3.6773
  492SOL     OW 1474   1.192   1.705   2.120  0.0063  0.0592  0.3699
  492SOL    HW1 1475   1.274   1.674   2.166 -2.7066  0.5783 -0.7774
  492SOL    HW2 1476   1.209   1.775   2.049  1.5414  0.8980 -3.7244
  493SOL     OW 1477   2.706   2.504   0.880 -0.1082  0.1723 -0.2086
  493SOL    HW1 1478   2.804   2.509   0.847  0.1100 -1.6431  5.6302
  493SOL    HW2 1479   2.679   2.594   0.921  2.2763 -2.7913  2.6684
  494SOL     OW 1480   3.017   2.103   0.584 -0.0608  0.8043  0.6054
  494SOL    HW1 1481   2.928   2.061   0.614 -3.0885  1.2473 -0.3807
  494SOL    HW2 1482   3.023   2.089   0.483 -1.4398  0.7036 -1.0385
  495SOL     OW 1483   2.835   2.721   3.052 -0.4473 -0.2383 -0.2041
  495SOL    HW1 1484   2.843   2.642   0.048 -1.0212 -0.7970  0.9571
  495SOL    HW2 1485   2.916   2.787   3.063  3.2243  2.4886 -0.5818
  496SOL     OW 1486   2.392   0.413   1.373 -0.1635 -0.4591  0.0208
  496SOL    HW1 1487   2.337   0.327   1.362 -1.5477 -0.2932 -0.3308
  496SOL    HW2 1488   2.473   0.416   1.307 -1.7207 -0.2693  1.2059
  497SOL     OW 1489   2.868   1.162   0.012  0.2565 -0.0808 -0.2803
  497SOL    HW1 1490   2.964   1.132   0.019  0.0810  2.8435  0.1124
  497SOL    HW2 1491   2.869   1.255   3.040  1.2546  3.7256 -0.6386
  498SOL     OW 1492   2.900   1.651   1.823  0.5182 -0.1417  0.1290
  498SOL    HW1 1493   2.905   1.551   1.817 -0.3242  0.5905  1.2939
  498SOL    HW2 1494   2.996   1.690   1.838 -0.6596  0.6463 -0.1225
  499SOL     OW 1495   0.797   2.345   2.742 -0.3716  0.0201  0.0676
  499SOL    HW1 1496   0.770   2.374   2.647  4.0560  1.0723 -0.5698
  499SOL    HW2 1497   0.749   2.255   2.768  0.3229  0.1406 -2.2323
  500SOL     OW 1498   1.888   0.463   2.988 -0.4672 -0.0779 -0.1009
  500SOL    HW1 1499   1.987   0.453   2.962 -1.0471 -0.9134 -1.0525
  500SOL    HW2 1500   1.844   0.372   2.980  0.1241 -0.3811 -1.8389
  501SOL     OW 1501   1.238   0.348   1.752 -0.0162  0.8172  0.2820
  501SOL    HW1 1502   1.282   0.424   1.802 -0.2552 -0.4702 -0.4649
  501SOL    HW2 1503   1.265   0.256   1.786  1.2679  3.1349 -0.3512
  502SOL     OW 1504   2.635   0.724   1.586  0.0418  0.1464 -0.4131
  502SOL    HW1 1505   2.716   0.659   1.595  0.5352 -1.5782  3.0747
  502SOL    HW2 1506   2.591   0.712   1.496  2.5575 -1.4097  0.9504
  503SOL     OW 1507   2.393   1.842   2.143 -0.6877 -0.1030 -0.4174
  503SOL    HW1 1508   2.447   1.928   2.121  0.6705  1.0676  2.0826
  503SOL    HW2 1509   2.294   1.865   2.129  1.1058 -0.9083 -2.5432
  504SOL     OW 1510   1.424   1.026   1.538  0.2236  0.6994  0.1499
  504SOL    HW1 1511   1.438   1.126   1.521 -1.9623  1.0682  0.6493
  504SOL    HW2 1512   1.331   0.998   1.507 -3.2744  1.6702 -1.2301
  505SOL     OW 1513   0.811   0.674   1.584 -0.3761 -0.0181  0.2289
  505SOL    HW1 1514   0.871   0.756   1.580  1.1026  0.0561  0.9300
  505SOL    HW2 1515   0.872   0.596   1.553  1.3962  1.0761  1.5111
  506SOL     OW 1516   0.345   0.269   2.633  0.0923  0.0663  0.0594
  506SOL    HW1 1517   0.332   0.256   2.731  0.6213  1.7166 -0.4992
  506SOL    HW2 1518   0.357   0.181   2.586 -0.6032  1.1517  0.3873
  507SOL     OW 1519   0.228   0.123   0.200 -0.0432 -0.3686  0.0905
  507SOL    HW1 1520   0.201   0.217   0.226  1.7910 -0.6307  0.2304
  507SOL    HW2 1521   0.313   0.133   0.143 -1.6680 -1.3245 -2.7589
  508SOL     OW 1522   0.971   0.883   1.643 -0.5299 -0.0336  0.3907
  508SOL    HW1 1523   0.970   0.985   1.633  0.1560 -3.5728  1.8400
  508SOL    HW2 1524   0.987   0.865   1.740  1.9895  0.8222 -0.5218
  509SOL     OW 1525   1.520   2.091   1.142 -0.7184 -0.1768  0.8267
  509SOL    HW1 1526   1.526   2.003   1.194  0.3916 -1.3703 -3.3468
  509SOL    HW2 1527   1.479   2.074   1.046 -0.5032  0.1630 -0.2349
  510SOL     OW 1528   2.294   1.365   2.089 -0.2488 -0.7322 -0.2019
  510SOL    HW1 1529   2.357   1.446   2.071 -1.3485  0.6676 -0.1161
  510SOL    HW2 1530   2.263   1.366   2.188 -0.1204 -0.6614  2.4703
  511SOL     OW 1531   0.990   2.251   1.569 -0.1695 -0.3739 -0.5491
  511SOL    HW1 1532   0.990   2.327   1.501 -0.0341 -0.8938 -0.3484
  511SOL    HW2 1533   1.065   2.189   1.546 -0.6723 -1.4863 -1.0685
  512SOL     OW 1534   2.837   1.758   0.873 -0.2673 -0.0820  0.4177
  512SOL    HW1 1535   2.860   1.674   0.818  0.2650  0.0549 -0.3248
  512SOL    HW2 1536   2.918   1.792   0.926  0.5393  1.1263  2.2985
  513SOL     OW 1537   0.166   1.411   2.734 -0.4004 -0.9078 -0.3546
  513SOL    HW1 1538   0.222   1.448   2.659 -0.1897  0.1023  2.5525
  513SOL    HW2 1539   0.223   1.376   2.810 -0.2401  1.8305 -1.7983
  514SOL     OW 1540   2.789   2.278   2.265  0.1236  0.1595 -0.2458
  514SOL    HW1 1541   2.884   2.250   2.248 -1.2286  0.3072  0.1923
  514SOL    HW2 1542   2.740   2.311   2.184  4.6324 -0.0360  0.2340
  515SOL     OW 1543   2.263   1.222   0.762 -1.1143 -0.5999 -0.1274
  515SOL    HW1 1544   2.236   1.128   0.787 -1.2038  2.9805  0.4420
  515SOL    HW2 1545   2.321   1.264   0.834  1.4119 -0.0672 -1.2083
  516SOL     OW 1546   2.415   1.741   0.019  0.4603  0.5160 -0.2346
  516SOL    HW1 1547   2.366   1.781   3.009 -0.5314  0.3979  0.7777
  516SOL    HW2 1548   2.386   1.643   0.034 -4.8500 -0.8677 -1.0710
  517SOL     OW 1549   0.598   0.958   2.747 -0.2083 -1.2180  0.4026
  517SOL    HW1 1550   0.616   0.857   2.744 -3.2943 -0.8100  1.7318
  517SOL    HW2 1551   0.676   1.002   2.792 -1.4044 -3.5372 -2.9417
  518SOL     OW 1552   2.687   0.077   2.435 -0.0818 -0.5907  0.0666
  518SOL    HW1 1553   2.753   0.086   2.357 -0.6706  0.5324  0.9816
  518SOL    HW2 1554   2.644   3.054   2.450 -1.9255  2.7755 -1.4708
  519SOL     OW 1555   1.335   1.614   2.689  0.0432 -0.7497  0.1930
  519SOL    HW1 1556   1.298   1.522   2.681  2.0453 -0.3852  1.4256
  519SOL    HW2 1557   1.428   1.622   2.730 -2.5159  2.7156 -0.8244
  520SOL     OW 1558   2.613   2.707   2.210 -0.1897 -0.3579 -0.7877
  520SOL    HW1 1559   2.566   2.755   2.131 -2.2974 -0.1158 -1.2466
  520SOL    HW2 1560   2.678   2.634   2.179  0.5713 -0.9207  0.3635
  521SOL     OW 1561   0.542   1.457   2.054 -0.0123  0.3613 -0.2345
  521SOL    HW1 1562   0.546   1.477   2.155  1.9125  2.5083  3.4687
  521SOL    HW2 1563   0.453   1.485   2.016  0.6759  1.1501 -0.7982
  522SOL     OW 1564   1.006   2.706   2.073 -0.1822 -0.2390  0.0323
  522SOL    HW1 1565   0.954   2.649   2.007 -1.2320  1.9065 -0.8667
  522SOL    HW2 1566   1.055   2.788   2.028 -0.4616  1.3596 -1.8247
  523SOL     OW 1567   2.897   2.472   1.628 -0.3246 -0.3085  0.5667
  523SOL    HW1 1568   2.908   2.538   1.705  1.4279  0.9729 -0.1083
  523SOL    HW2 1569   2.812   2.423   1.628  0.7485  1.8273  2.2876
  524SOL     OW 1570   1.606   2.601   0.517 -0.3014  0.3703 -0.4477
  524SOL    HW1 1571   1.521   2.655   0.507 -1.0937  3.7162  0.6504
  524SOL    HW2 1572   1.591   2.518   0.583 -0.2041 -2.0240  2.5575
  525SOL     OW 1573   2.734   0.784   0.925 -0.6485  0.0354  0.1275
  525SOL    HW1 1574   2.813   0.848   0.896 -0.0707 -0.0407 -1.1878
  525SOL    HW2 1575   2.648   0.837   0.941  0.6488 -1.7708  1.7483
  526SOL     OW 1576   1.355   2.416   0.892 -0.0621 -0.2805  0.0477
  526SOL    HW1 1577   1.430   2.424   0.961 -1.2532 -1.7950  1.7918
  526SOL    HW2 1578   1.388   2.461   0.809  0.2646  1.1121 -2.4039
  527SOL     OW 1579   2.272   2.284   1.032 -0.1240  0.1287 -0.4962
  527SOL    HW1 1580   2.218   2.289   1.117 -0.6119  0.6121  0.4274
  527SOL    HW2 1581   2.373   2.296   1.047 -1.1813  2.0894  1.2423
  528SOL     OW 1582   2.040   3.021   2.780  0.7306  0.3699  0.4744
  528SOL    HW1 1583   2.047   2.920   2.759 -0.9335  1.7009 -0.5236
  528SOL    HW2 1584   2.135   3.054   2.801  2.3907 -0.4020  0.6527
  529SOL     OW 1585   1.405   1.580   2.196  0.1806  0.2991 -0.3362
  529SOL    HW1 1586   1.429   1.636   2.277 -0.4797  0.2233 -0.9585
  529SOL    HW2 1587   1.466   1.593   2.117  0.7585 -1.0170 -0.3371
  530SOL     OW 1588   2.372   1.147   2.475  0.4194  0.1316  0.2427
  530SOL    HW1 1589   2.409   1.087   2.546  2.0712 -1.8118 -2.3225
  530SOL    HW2 1590   2.416   1.126   2.383 -1.0382  1.1740  0.4528
  531SOL     OW 1591   0.603   0.620   0.052 -0.2871  0.6910  0.2245
  531SOL    HW1 1592   0.702   0.619   0.078 -1.3069 -0.2845  0.5200
  531SOL    HW2 1593   0.555   0.688   0.108  1.2833 -1.1504 -0.6264
  532SOL     OW 1594   1.360   1.504   0.541  0.4746  0.1864 -0.0995
  532SOL    HW1 1595   1.457   1.507   0.576  2.9198  1.3011  0.7610
  532SOL    HW2 1596   1.317   1.595   0.566 -2.0084  3.0171 -1.0796
  533SOL     OW 1597   0.171   0.622   1.958 -0.2743  0.5400  0.7089
  533SOL    HW1 1598   0.215   0.648   1.870  1.2997 -1.4374  0.1666
  533SOL    HW2 1599   0.220   0.667   2.032 -0.0886  0.6826 -0.8967
  534SOL     OW 1600   1.272   0.627   2.434  0.2295  0.3359 -0.6259
  534SOL    HW1 1601   1.372   0.618   2.430 -1.6903 -1.6983 -0.6130
  534SOL    HW2 1602   1.243   0.713   2.483  0.6235  0.3707 -0.0122
  535SOL     OW 1603   0.765   0.390   0.252 -0.6948  0.4085  0.5099
  535SOL    HW1 1604   0.664   0.393   0.263 -0.1729  1.5016  0.7967
  535SOL    HW2 1605   0.797   0.461   0.188 -0.2532  2.3705 -0.9765
  536SOL     OW 1606   0.842   0.278   2.998 -0.1080  0.3161  0.1188
  536SOL    HW1 1607   0.849   0.369   3.043  2.0950  0.6470  0.5455
  536SOL    HW2 1608   0.810   0.208   3.065 -0.1476  0.4462  0.8965
  537SOL     OW 1609   1.285   2.910   1.423 -0.4996 -0.4993 -0.4095
  537SOL    HW1 1610   1.202   2.951   1.375  1.3967  0.4789  1.1914
  537SOL    HW2 1611   1.363   2.973   1.440  0.2325 -0.3091  0.3117
  538SOL     OW 1612   0.288   2.810   3.041  0.0977  0.2914  0.0085
  538SOL    HW1 1613   0.336   2.864   2.970  0.4028 -0.9170  1.6879
  538SOL    HW2 1614   0.324   2.829   0.065 -0.7283 -1.3163 -1.3320
  539SOL     OW 1615   2.494   1.248   1.905 -0.2398 -0.5441 -0.3702
  539SOL    HW1 1616   2.489   1.160   1.859 -0.8681  1.1865  0.1826
  539SOL    HW2 1617   2.416   1.259   1.971 -0.1865 -0.7789  2.0726
  540SOL     OW 1618   2.113   2.009   1.575  0.3668 -0.2302 -0.0565
  540SOL    HW1 1619   2.165   1.965   1.647 -4.5735 -2.8144 -0.4292
  540SOL    HW2 1620   2.010   2.006   1.591  2.0127  0.5726  0.6752
  541SOL     OW 1621   0.611   2.450   1.618 -0.8439 -0.4290 -0.1312
  541SOL    HW1 1622   0.639   2.442   1.522 -1.9068 -1.9346  0.4430
  541SOL    HW2 1623   0.626   2.362   1.671 -0.2382  0.5238 -0.0148
  542SOL     OW 1624   2.579   0.713   1.862  0.1285 -0.0652 -0.1955
  542SOL    HW1 1625   2.605   0.721   1.765  0.9773 -0.4036  0.5236
  542SOL    HW2 1626   2.566   0.616   1.890  0.4068 -0.0564  3.2146
  543SOL     OW 1627   1.018   0.503   0.814 -0.2372  0.0156  0.1083
  543SOL    HW1 1628   1.034   0.547   0.721  0.2984 -0.0961 -0.8016
  543SOL    HW2 1629   0.993   0.581   0.877  1.8776  3.2323  0.5752
  544SOL     OW 1630   2.103   2.074   1.301 -0.0447  0.2431  0.3446
  544SOL    HW1 1631   2.129   2.063   1.396 -0.1620 -0.0992  0.0421
  544SOL    HW2 1632   2.145   2.001   1.238  1.2548 -2.3070 -0.7160
  545SOL     OW 1633   1.423   1.511   1.142  0.5116 -0.3859  0.5204
  545SOL    HW1 1634   1.407   1.444   1.061 -1.8547 -3.0435 -2.6821
  545SOL    HW2 1635   1.487   1.470   1.214  0.1505 -1.7419 -0.0974
  546SOL     OW 1636   0.088   0.071   2.761  0.2798 -0.2060 -0.1819
  546SOL    HW1 1637   0.007   0.010   2.785 -1.2029 -1.4506  1.8353
  546SOL    HW2 1638   0.085   0.164   2.804  0.1080 -0.1995 -2.2920
  547SOL     OW 1639   2.209   0.352   2.656 -0.1603  0.4844  0.0422
  547SOL    HW1 1640   2.180   0.353   2.753 -0.1133 -1.9555 -0.1423
  547SOL    HW2 1641   2.256   0.439   2.631  0.6312  2.1535  0.9512
  548SOL     OW 1642   2.601   2.135   2.429 -0.8206  0.6272 -0.1104
  548SOL    HW1 1643   2.616   2.038   2.467 -0.1179 -0.4614  0.4374
  548SOL    HW2 1644   2.690   2.169   2.390  0.4865 -0.3291  0.1132
  549SOL     OW 1645   2.434   0.396   0.533  0.3037 -0.2980 -0.3087
  549SOL    HW1 1646   2.516   0.458   0.540 -2.2367 -1.7746  0.9866
  549SOL    HW2 1647   2.441   0.329   0.457  1.0101 -1.6117 -0.6330
  550SOL     OW 1648   2.704   1.102   0.211 -0.7127 -0.3405  0.3427
  550SOL    HW1 1649   2.741   1.151   0.132 -0.2244  0.2793  0.3165
  550SOL    HW2 1650   2.606   1.127   0.218 -1.0429 -1.4370 -1.1813
  551SOL     OW 1651   1.401   2.411   1.393 -0.4492  0.4561  0.0105
  551SOL    HW1 1652   1.365   2.320   1.355 -1.2116 -2.1449  1.6858
  551SOL    HW2 1653   1.476   2.391   1.461 -0.5089 -0.5605 -0.7114
  552SOL     OW 1654   2.732   2.404   2.680  0.0601  0.4495  0.2100
  552SOL    HW1 1655   2.756   2.437   2.586 -1.9340  2.1250  0.2665
  552SOL    HW2 1656   2.678   2.479   2.721 -0.1232 -1.3181 -2.6124
  553SOL     OW 1657   0.538   2.925   0.666  0.2466 -0.2465  0.3818
  553SOL    HW1 1658   0.569   2.993   0.732  0.3553  0.1172 -0.7674
  553SOL    HW2 1659   0.618   2.904   0.608  1.2410  2.6611 -0.7779
  554SOL     OW 1660   1.803   2.099   1.915 -0.1445  0.2121  0.0405
  554SOL    HW1 1661   1.832   2.198   1.901  2.6293 -0.7965  0.9496
  554SOL    HW2 1662   1.852   2.043   1.984 -1.1893  3.4323  0.3241
  555SOL     OW 1663   1.330   2.558   1.934  0.0836  0.3310  0.2770
  555SOL    HW1 1664   1.258   2.557   1.865  0.5403  2.6967 -0.3596
  555SOL    HW2 1665   1.291   2.592   2.020  2.3957  2.2320  0.1513
  556SOL     OW 1666   1.595   1.593   0.648  0.0052 -0.1108  0.5537
  556SOL    HW1 1667   1.581   1.688   0.683 -0.7287  2.8842  0.8844
  556SOL    HW2 1668   1.673   1.546   0.697  1.3800 -1.3594  0.2369
  557SOL     OW 1669   1.381   2.024   2.090  0.1953  0.1046  0.3356
  557SOL    HW1 1670   1.344   2.076   2.014  2.9396  0.6787  1.8532
  557SOL    HW2 1671   1.450   2.079   2.142 -0.7913 -0.8695  1.0674
  558SOL     OW 1672   3.065   0.914   2.364  0.2986 -0.2242 -0.1003
  558SOL    HW1 1673   0.045   0.865   2.437 -2.3501  0.3326 -0.2228
  558SOL    HW2 1674   3.024   0.999   2.405  1.5066  2.8579  0.8191
  559SOL     OW 1675   2.113   2.721   1.941 -0.3561  0.4046  0.3321
  559SOL    HW1 1676   2.063   2.649   1.886 -0.1092 -1.9482 -0.2547
  559SOL    HW2 1677   2.059   2.743   2.019  0.7261  0.1029 -1.2667
  560SOL     OW 1678   0.331   3.019   2.854  0.2314  0.1674 -0.1113
  560SOL    HW1 1679   0.378   0.029   2.883 -1.7180 -0.3729 -0.2354
  560SOL    HW2 1680   0.257   3.053   2.790  1.7000 -1.8691  0.5218
  561SOL     OW 1681   1.769   0.810   0.397 -0.0631 -0.7415  0.2646
  561SOL    HW1 1682   1.695   0.806   0.332 -0.2936 -0.2069  3.6542
  561SOL    HW2 1683   1.748   0.741   0.468  2.5163  2.2259 -1.3139
  562SOL     OW 1684   0.856   1.055   2.069 -0.2243 -0.1094 -0.2354
  562SOL    HW1 1685   0.790   0.988   2.115 -2.3437  0.7291  1.2585
  562SOL    HW2 1686   0.881   1.133   2.127  3.1489  2.7822 -3.4863
  563SOL     OW 1687   1.685   2.313   0.156  0.2309 -0.3387 -0.1012
  563SOL    HW1 1688   1.689   2.215   0.183  1.6411 -0.5792 -0.1922
  563SOL    HW2 1689   1.589   2.336   0.124 -1.1096  0.0165 -0.4820
  564SOL     OW 1690   0.276   1.879   0.572 -0.0325 -0.1374 -0.1748
  564SOL    HW1 1691   0.304   1.974   0.565  0.9548 -1.7649  1.5388
  564SOL    HW2 1692   0.283   1.847   0.669  1.6463  1.8719 -1.7215
  565SOL     OW 1693   0.817   2.739   3.065  0.9398 -0.4817 -0.0186
  565SOL    HW1 1694   0.782   2.663   3.010  1.6988  0.4821  0.1781
  565SOL    HW2 1695   0.822   2.828   3.013  2.7631 -1.6891 -0.5786
  566SOL     OW 1696   2.146   2.487   2.610 -0.0100 -0.3251  0.1415
  566SOL    HW1 1697   2.114   2.451   2.701 -0.5445  1.6183  1.4759
  566SOL    HW2 1698   2.125   2.413   2.540  0.2772 -0.3265  0.2786
  567SOL     OW 1699   2.560   1.683   0.969  0.0858  0.8678 -0.1337
  567SOL    HW1 1700   2.645   1.734   0.943  2.4823  3.7263  0.2553
  567SOL    HW2 1701   2.503   1.663   0.887  1.8167 -1.8988 -1.0029
  568SOL     OW 1702   1.805   0.929   2.549  0.4293 -0.7432  0.1729
  568SOL    HW1 1703   1.740   0.854   2.525  2.0859 -0.9959  1.5639
  568SOL    HW2 1704   1.760   1.023   2.565 -0.3202  3.4383 -1.3020
  569SOL     OW 1705   2.122   1.587   2.252 -0.7636 -0.1543 -0.4073
  569SOL    HW1 1706   2.107   1.589   2.150  0.8943 -0.1957 -0.6949
  569SOL    HW2 1707   2.208   1.546   2.279 -4.2633  0.4607 -1.6349
  570SOL     OW 1708   3.035   2.480   2.108 -0.5600 -0.5111 -0.1190
  570SOL    HW1 1709   2.990   2.529   2.031 -0.9996  2.9339 -2.5538
  570SOL    HW2 1710   2.985   2.392   2.125 -0.1170 -2.5532 -0.5728
  571SOL     OW 1711   0.394   3.061   1.949 -0.0698 -0.3170  0.4704
  571SOL    HW1 1712   0.373   0.037   2.035 -1.2246  0.5805 -2.1406
  571SOL    HW2 1713   0.310   3.033   1.896  1.5021  0.2037  1.2248
  572SOL     OW 1714   0.947   2.010   0.871 -0.1675 -0.1311 -0.1557
  572SOL    HW1 1715   1.004   1.958   0.805  0.2383  0.0569 -1.9776
  572SOL    HW2 1716   0.875   2.050   0.815  1.1867  0.0349 -0.2621
  573SOL     OW 1717   1.057   0.678   0.170  0.2315  0.1044 -0.2510
  573SOL    HW1 1718   1.016   0.736   0.247 -1.2380  2.1831  2.4117
  573SOL    HW2 1719   1.161   0.666   0.175 -3.6554  0.7440 -0.5259
  574SOL     OW 1720   0.502   0.170   0.431  0.5540  0.3141  0.5012
  574SOL    HW1 1721   0.521   0.090   0.371 -0.0804  0.8645  1.6721
  574SOL    HW2 1722   0.423   0.149   0.495  0.1693 -1.4795  3.3820
  575SOL     OW 1723   0.498   1.688   1.290 -0.1229 -0.4674  0.5916
  575SOL    HW1 1724   0.559   1.723   1.217 -1.3977  0.6081 -1.6477
  575SOL    HW2 1725   0.540   1.665   1.378  2.0729  1.2325 -1.4966
  576SOL     OW 1726   2.688   0.019   2.052  0.7194  0.2915  0.8728
  576SOL    HW1 1727   2.646   0.106   2.080 -1.3369 -3.7212 -1.3382
  576SOL    HW2 1728   2.772   3.067   2.105 -2.4326  2.1411 -1.4494
  577SOL     OW 1729   2.602   1.670   1.877  0.4652  0.6217 -0.6316
  577SOL    HW1 1730   2.582   1.680   1.979  0.4318  0.4621  0.4813
  577SOL    HW2 1731   2.647   1.752   1.845 -0.3416 -0.1668 -1.3601
  578SOL     OW 1732   1.058   0.109   1.998  0.2350 -0.1031 -0.5029
  578SOL    HW1 1733   1.121   0.184   2.020  0.3030  1.2216  2.0711
  578SOL    HW2 1734   0.989   0.108   2.072  0.4724  1.8664  1.2601
  579SOL     OW 1735   2.123   1.898   2.087  0.1614 -0.1556  0.0449
  579SOL    HW1 1736   2.038   1.840   2.089 -1.1932  0.9027 -2.3339
  579SOL    HW2 1737   2.089   1.991   2.110  0.9088  0.1638 -0.8176
  580SOL     OW 1738   1.680   1.187   2.019 -0.1669 -0.0530 -0.0394
  580SOL    HW1 1739   1.663   1.157   1.923  0.0712 -0.0823 -0.1923
  580SOL    HW2 1740   1.713   1.111   2.081  1.0337 -0.5465  0.5901
  581SOL     OW 1741   1.319   1.307   2.514 -0.1232  0.0420 -0.1586
  581SOL    HW1 1742   1.254   1.353   2.449 -3.5589 -1.4508  0.9996
  581SOL    HW2 1743   1.358   1.221   2.475  0.3183 -1.0390 -0.1007
  582SOL     OW 1744   0.065   2.208   1.913  0.3669  0.3368  0.3065
  582SOL    HW1 1745   0.124   2.142   1.864 -1.7923  2.1126  1.1326
  582SOL    HW2 1746   0.124   2.272   1.969  0.0516 -0.3033  0.9975
  583SOL     OW 1747   1.739   0.977   0.821  0.5010  0.3961  0.0439
  583SOL    HW1 1748   1.802   0.900   0.840  1.4033  1.4546 -0.1875
  583SOL    HW2 1749   1.800   1.048   0.781 -2.4063  0.1071  0.3367
  584SOL     OW 1750   0.915   2.444   0.460  0.0740  0.1732 -0.0284
  584SOL    HW1 1751   0.823   2.467   0.426  0.5886  2.7637  1.0381
  584SOL    HW2 1752   0.984   2.485   0.397 -2.0433  0.5944 -0.5952
  585SOL     OW 1753   0.127   2.379   0.109 -0.0024  0.0583  0.0151
  585SOL    HW1 1754   0.047   2.322   0.086 -0.4000  3.0078  0.3579
  585SOL    HW2 1755   0.138   2.441   0.033 -1.1782 -2.6382 -1.1461
  586SOL     OW 1756   2.217   1.222   0.494  0.3972  0.1141  0.3031
  586SOL    HW1 1757   2.236   1.221   0.595 -0.9230 -0.4774  0.6471
  586SOL    HW2 1758   2.240   1.318   0.448 -1.5692  2.8523 -0.5179
  587SOL     OW 1759   2.969   1.761   0.519 -0.3657 -0.1593 -0.2154
  587SOL    HW1 1760   0.000   1.743   0.540  1.4997  1.9031  0.9083
  587SOL    HW2 1761   2.928   1.836   0.572  1.2621 -0.7967  2.1304
  588SOL     OW 1762   3.026   0.588   0.761 -0.3552  0.2293  0.1394
  588SOL    HW1 1763   3.012   0.681   0.787  0.5180 -0.6090 -2.1862
  588SOL    HW2 1764   0.055   0.558   0.766 -0.1349  1.1816 -0.8425
  589SOL     OW 1765   1.484   0.044   0.801  0.2651 -0.4700 -0.1989
  589SOL    HW1 1766   1.389   0.032   0.768  3.6466  1.3521  0.9537
  589SOL    HW2 1767   1.533   0.106   0.738 -0.3161 -2.7721 -2.4862
  590SOL     OW 1768   2.394   2.308   0.296 -0.0421 -0.3035  0.3187
  590SOL    HW1 1769   2.415   2.278   0.388 -2.6048 -1.3565 -3.4280
  590SOL    HW2 1770   2.448   2.391   0.275  2.3745 -0.0439 -1.7710
  591SOL     OW 1771   0.368   2.528   1.919  0.2895  0.2935 -0.3888
  591SOL    HW1 1772   0.459   2.508   1.961 -1.9423 -1.6407  3.3569
  591SOL    HW2 1773   0.357   2.470   1.834 -2.3790  4.1861 -0.1571
  592SOL     OW 1774   0.282   1.334   1.974 -0.0243  0.4328  0.1973
  592SOL    HW1 1775   0.294   1.269   2.050 -0.4788 -0.4121 -1.3866
  592SOL    HW2 1776   0.267   1.279   1.892  0.9362  2.2366  5.3016
  593SOL     OW 1777   1.488   1.715   1.693 -0.4262 -0.6694 -0.3047
  593SOL    HW1 1778   1.394   1.705   1.674  2.9459 -0.8064  0.0367
  593SOL    HW2 1779   1.508   1.808   1.730 -0.1687  0.1478 -1.5362
  594SOL     OW 1780   0.391   1.061   2.889  0.1195  0.1954  0.3522
  594SOL    HW1 1781   0.471   1.010   2.847  1.0124  0.9651  0.5083
  594SOL    HW2 1782   0.314   1.063   2.819 -0.0729 -2.0934 -0.0130
  595SOL     OW 1783   1.847   0.231   0.896 -0.2379 -0.4903  0.2308
  595SOL    HW1 1784   1.890   0.303   0.960  0.8125 -0.2089  1.6970
  595SOL    HW2 1785   1.746   0.230   0.898 -0.0242  2.3632  1.0394
  596SOL     OW 1786   0.461   0.905   1.136 -0.0285 -0.2195  0.1023
  596SOL    HW1 1787   0.550   0.947   1.143 -2.5588  2.0752  1.4643
  596SOL    HW2 1788   0.396   0.977   1.156 -2.6259 -0.1795 -0.1828
  597SOL     OW 1789   2.949   2.424   2.861  0.6339  0.6677 -0.4600
  597SOL    HW1 1790   2.861   2.394   2.813 -5.0664 -0.9779 -0.0150
  597SOL    HW2 1791   2.970   2.521   2.865  0.3620 -2.0471  1.5301
  598SOL     OW 1792   2.149   2.202   2.509  0.1463 -0.6212 -0.1040
  598SOL    HW1 1793   2.091   2.187   2.426  1.0790  0.0251  1.1875
  598SOL    HW2 1794   2.247   2.202   2.495 -1.7316 -0.8412  0.9671
  599SOL     OW 1795   1.310   0.930   0.435  0.3823  0.0037 -0.2476
  599SOL    HW1 1796   1.295   0.834   0.466 -1.0470 -1.1929 -0.5849
  599SOL    HW2 1797   1.364   0.990   0.503  0.8906  0.3227  0.3505
  600SOL     OW 1798   1.127   0.381   0.339  0.0460 -0.1846 -0.9237
  600SOL    HW1 1799   1.090   0.286   0.349  0.2434 -2.2412  2.1498
  600SOL    HW2 1800   1.172   0.406   0.249 -0.6404  0.9982  0.7037
  601SOL     OW 1801   0.622   0.230   1.521  0.2484 -0.0791 -0.2714
  601SOL    HW1 1802   0.696   0.173   1.474 -0.8266 -2.2182 -0.1929
  601SOL    HW2 1803   0.604   0.310   1.460  1.1898 -0.3885 -0.5294
  602SOL     OW 1804   0.249   2.791   0.873  0.0708 -0.4609 -0.2145
  602SOL    HW1 1805   0.251   2.777   0.773 -3.2203 -0.1248  3.8678
  602SOL    HW2 1806   0.161   2.748   0.906  0.2430 -0.1409 -0.6446
  603SOL     OW 1807   0.933   2.717   2.364 -0.7347  0.5865 -0.0808
  603SOL    HW1 1808   0.964   2.784   2.294  0.4582 -0.8950 -0.2855
  603SOL    HW2 1809   1.010   2.674   2.411 -2.3081 -1.4536 -1.2398
  604SOL     OW 1810   1.077   2.630   0.223 -0.0941 -0.3290 -0.1175
  604SOL    HW1 1811   1.169   2.595   0.256  0.1794  0.8320 -0.7719
  604SOL    HW2 1812   1.083   2.694   0.141 -0.0968 -2.8657 -1.6649
  605SOL     OW 1813   1.629   1.091   1.769  0.0727 -0.2368 -0.0029
  605SOL    HW1 1814   1.546   1.094   1.709  0.7862  0.8607  0.8838
  605SOL    HW2 1815   1.717   1.113   1.720  1.1688  0.2207  0.9883
  606SOL     OW 1816   0.847   0.708   2.490 -0.4110 -0.0973 -0.6461
  606SOL    HW1 1817   0.841   0.618   2.443 -0.3731 -1.1200 -0.8801
  606SOL    HW2 1818   0.875   0.781   2.425 -1.9837 -0.0950  0.5010
  607SOL     OW 1819   0.480   1.261   1.203  0.0245  0.2070  0.2312
  607SOL    HW1 1820   0.404   1.193   1.198 -1.9175 -0.8565 -0.0701
  607SOL    HW2 1821   0.507   1.287   1.109 -0.8638 -2.2582  2.5930
  608SOL     OW 1822   2.488   2.093   2.181 -0.2158  0.5160 -0.4718
  608SOL    HW1 1823   2.446   2.185   2.157 -3.3532 -1.2584  1.3720
  608SOL    HW2 1824   2.512   2.099   2.280 -1.1279  0.2684  1.7384
  609SOL     OW 1825   1.835   3.025   2.968 -0.5880  0.5730  0.2722
  609SOL    HW1 1826   1.881   3.038   3.056  2.0700 -1.6648  0.1132
  609SOL    HW2 1827   1.896   3.000   2.889  0.9028 -1.0385 -1.3697
  610SOL     OW 1828   0.502   2.698   1.665  0.4896 -0.0522 -0.4287
  610SOL    HW1 1829   0.522   2.597   1.655  0.6552 -3.9291  0.6155
  610SOL    HW2 1830   0.595   2.741   1.667  1.2078  1.8116 -1.3893
  611SOL     OW 1831   1.051   1.629   0.883 -0.0056 -0.4065 -0.6389
  611SOL    HW1 1832   0.953   1.650   0.887  0.2109  1.1386  1.0922
  611SOL    HW2 1833   1.068   1.617   0.784  2.7303  2.0448 -0.5996
  612SOL     OW 1834   0.916   3.067   2.249 -0.4225 -0.4888 -0.2001
  612SOL    HW1 1835   0.884   0.093   2.245  1.5734  1.1750 -0.0267
  612SOL    HW2 1836   0.951   3.049   2.344  0.7639 -0.8241  1.5598
  613SOL     OW 1837   2.717   1.588   0.428  0.5204  0.7533  0.2437
  613SOL    HW1 1838   2.685   1.505   0.478 -1.1916  1.3645  1.8835
  613SOL    HW2 1839   2.797   1.623   0.476 -3.4032 -0.7516 -0.4310
  614SOL     OW 1840   1.594   0.144   1.698 -0.3916 -0.0185  0.1688
  614SOL    HW1 1841   1.692   0.150   1.738  3.4133 -4.1588 -0.5638
  614SOL    HW2 1842   1.563   0.239   1.675  0.0691  0.7229  0.7682
  615SOL     OW 1843   0.928   1.753   1.234 -0.1815  0.3387  0.1019
  615SOL    HW1 1844   1.000   1.680   1.206 -0.4930 -3.8626 -1.0657
  615SOL    HW2 1845   0.972   1.815   1.300 -0.7180 -0.2433 -1.5372
  616SOL     OW 1846   1.597   1.586   2.775 -0.4103  0.0059  0.2840
  616SOL    HW1 1847   1.642   1.507   2.823  2.6393  0.5156 -0.3827
  616SOL    HW2 1848   1.572   1.653   2.849  1.0598  0.7225  0.1745
  617SOL     OW 1849   1.805   2.830   0.140  0.0366 -1.1619 -0.0424
  617SOL    HW1 1850   1.747   2.914   0.163 -0.7261 -0.0888 -0.5116
  617SOL    HW2 1851   1.769   2.746   0.188 -1.5803 -0.7663 -0.9723
  618SOL     OW 1852   1.035   0.594   2.684 -0.2548 -0.7531  0.4605
  618SOL    HW1 1853   1.005   0.641   2.771  1.0089 -0.8347  1.8694
  618SOL    HW2 1854   1.007   0.656   2.603 -0.5693  3.6435 -2.4271
  619SOL     OW 1855   2.598   1.454   0.636 -0.2729 -0.2042  0.5038
  619SOL    HW1 1856   2.570   1.368   0.584 -1.1732  1.3241 -0.3504
  619SOL    HW2 1857   2.518   1.505   0.671 -0.6688 -0.7974 -1.5537
  620SOL     OW 1858   2.536   2.568   2.792  0.0951 -0.1336  0.3997
  620SOL    HW1 1859   2.484   2.651   2.764 -0.9854  2.2902 -0.2646
  620SOL    HW2 1860   2.476   2.488   2.798  1.4883  2.3313  0.5218
  621SOL     OW 1861   2.438   1.178   0.125  0.4847  0.2476 -0.0954
  621SOL    HW1 1862   2.416   1.106   0.193  2.7682  2.0459 -1.7530
  621SOL    HW2 1863   2.396   1.157   0.034  1.7376 -2.0237 -2.4795
  622SOL     OW 1864   1.440   2.514   2.423 -0.0267  0.1399  0.1206
  622SOL    HW1 1865   1.419   2.458   2.341  0.5415 -0.6816  1.3445
  622SOL    HW2 1866   1.519   2.468   2.469  0.1575 -2.4626 -2.5938
  623SOL     OW 1867   0.777   1.748   0.217  0.3060  0.3919  0.2733
  623SOL    HW1 1868   0.793   1.663   0.166  1.4215 -1.1089  0.2082
  623SOL    HW2 1869   0.798   1.829   0.157 -1.4456  1.4744 -0.0331
  624SOL     OW 1870   0.450   0.199   2.920 -0.5327 -0.2115  0.2902
  624SOL    HW1 1871   0.442   0.269   2.993  1.4990 -3.3858 -3.1790
  624SOL    HW2 1872   0.536   0.212   2.860 -1.5521 -0.9721  2.8927
  625SOL     OW 1873   1.101   1.961   0.627  0.1313  0.0191 -0.7018
  625SOL    HW1 1874   1.201   1.976   0.613  0.1226  2.9346  0.1972
  625SOL    HW2 1875   1.053   2.053   0.620  0.0917 -2.2898 -0.1439
  626SOL     OW 1876   2.734   2.797   2.758 -0.0807 -0.0135 -0.9609
  626SOL    HW1 1877   2.667   2.873   2.759 -2.6814 -0.5978 -0.2324
  626SOL    HW2 1878   2.768   2.773   2.855  0.5365  0.2469  2.0152
  627SOL     OW 1879   1.551   1.429   2.550 -0.3770  0.0014  0.2592
  627SOL    HW1 1880   1.566   1.472   2.638  1.6751  0.9004 -1.7047
  627SOL    HW2 1881   1.469   1.370   2.546 -0.1354 -1.4445 -0.6908
  628SOL     OW 1882   0.325   0.687   2.167  0.1214  0.3960 -0.7887
  628SOL    HW1 1883   0.339   0.756   2.237 -1.3963 -1.5877 -0.9450
  628SOL    HW2 1884   0.334   0.592   2.203  4.2606 -4.2486 -0.7911
  629SOL     OW 1885   3.042   2.817   2.012  0.2309 -0.7794 -0.5923
  629SOL    HW1 1886   2.998   2.819   2.109 -2.3954 -1.3433  1.1231
  629SOL    HW2 1887   0.071   2.794   2.012 -0.9500 -0.1568 -0.5181
  630SOL     OW 1888   1.660   0.808   1.832  0.3893  0.2203 -0.3945
  630SOL    HW1 1889   1.614   0.762   1.756 -0.2760 -1.3777  2.0351
  630SOL    HW2 1890   1.646   0.908   1.826  0.7369 -4.6666 -2.6873
  631SOL     OW 1891   2.399   1.050   0.370  0.7634 -0.0124  0.5168
  631SOL    HW1 1892   2.376   0.949   0.353 -1.3074  1.2042 -0.5922
  631SOL    HW2 1893   2.325   1.083   0.433  0.6120  2.3915 -1.7286
  632SOL     OW 1894   1.950   0.292   1.980  0.4694  0.3951 -0.0325
  632SOL    HW1 1895   1.909   0.244   1.899  1.9789  0.1935  1.1242
  632SOL    HW2 1896   2.034   0.346   1.956 -0.6573 -0.3435 -1.3696
  633SOL     OW 1897   0.764   2.734   0.262  0.0606  0.1166 -0.5116
  633SOL    HW1 1898   0.800   2.737   0.160 -1.0299  0.8173 -4.5275
  633SOL    HW2 1899   0.723   2.644   0.286  0.8088 -0.7758  2.0859
  634SOL     OW 1900   1.374   2.337   2.716 -0.6627  0.4077 -0.2691
  634SOL    HW1 1901   1.329   2.298   2.633 -2.3231 -2.6552  0.7771
  634SOL    HW2 1902   1.426   2.265   2.766  0.1256  1.4726 -0.5521
  635SOL     OW 1903   2.337   0.038   2.958 -0.3363 -0.0920  0.4721
  635SOL    HW1 1904   2.421   0.094   2.981 -2.0424  1.1751  2.0208
  635SOL    HW2 1905   2.255   0.099   2.968 -0.3857 -0.9083  1.9216
  636SOL     OW 1906   0.837   1.341   0.745  0.8054 -0.2789  0.4112
  636SOL    HW1 1907   0.831   1.331   0.846  0.7181  1.4465 -1.5148
  636SOL    HW2 1908   0.859   1.251   0.698 -2.7733 -2.6861  2.2416
  637SOL     OW 1909   0.239   2.559   0.589 -0.2601 -0.3956 -0.1752
  637SOL    HW1 1910   0.269   2.660   0.582  0.1786 -0.1275 -1.8515
  637SOL    HW2 1911   0.198   2.537   0.498  2.1675  0.4816  1.6143
  638SOL     OW 1912   0.593   3.028   0.267  0.3349 -0.6447  0.0742
  638SOL    HW1 1913   0.667   2.978   0.313  0.7195  1.3543  0.6857
  638SOL    HW2 1914   0.522   2.954   0.243 -1.8348 -3.4005 -1.5742
  639SOL     OW 1915   1.108   1.470   0.389  0.0417 -0.6314 -0.2458
  639SOL    HW1 1916   1.174   1.456   0.466 -0.6943  1.8040 -0.4614
  639SOL    HW2 1917   1.087   1.568   0.379 -2.2571 -2.0940 -1.1149
  640SOL     OW 1918   1.719   2.697   0.940  0.2143 -0.2760  0.3756
  640SOL    HW1 1919   1.715   2.705   0.838  0.0966 -1.5306  0.1803
  640SOL    HW2 1920   1.810   2.734   0.976  3.1839 -0.4670 -2.5492
  641SOL     OW 1921   2.919   2.541   0.747 -0.2280 -0.4724  0.0642
  641SOL    HW1 1922   2.985   2.469   0.725 -0.2076 -0.3162  0.8654
  641SOL    HW2 1923   2.896   2.586   0.660  1.0985 -2.6476  2.2969
  642SOL     OW 1924   1.050   0.208   1.600 -0.6172 -0.4116 -0.0199
  642SOL    HW1 1925   0.996   0.170   1.675  0.6484 -0.3098  0.6153
  642SOL    HW2 1926   1.137   0.265   1.622  1.2447  2.1555  0.1969
  643SOL     OW 1927   0.722   1.897   2.121  0.1362 -0.3511  0.2803
  643SOL    HW1 1928   0.666   1.850   2.050  3.1387 -0.2261  0.9997
  643SOL    HW2 1929   0.676   1.922   2.207  1.6875 -1.7049  1.0060
  644SOL     OW 1930   0.752   2.859   0.499  0.1588 -0.0733  0.3950
  644SOL    HW1 1931   0.755   2.807   0.410  2.5244  0.3553  0.8568
  644SOL    HW2 1932   0.845   2.869   0.535 -2.6714 -3.3101 -0.5667
  645SOL     OW 1933   0.942   1.621   2.856 -0.5619 -0.1490 -0.0599
  645SOL    HW1 1934   0.866   1.677   2.814 -2.8599 -0.3136 -0.6220
  645SOL    HW2 1935   1.023   1.679   2.882 -1.5782  3.5800  1.3574
  646SOL     OW 1936   0.388   1.535   0.041 -0.4729  0.4764  0.3541
  646SOL    HW1 1937   0.371   1.595   3.033  0.7694 -0.6275 -0.3669
  646SOL    HW2 1938   0.352   1.570   0.127 -1.1617 -1.6267 -0.4740
  647SOL     OW 1939   1.113   3.048   0.939 -0.6839 -0.1154  0.4450
  647SOL    HW1 1940   1.148   0.044   1.008 -0.3972 -0.6981  0.0624
  647SOL    HW2 1941   1.156   2.951   0.953 -1.1228 -1.2457 -1.1033
  648SOL     OW 1942   2.728   2.626   1.949  0.0330  0.2760 -0.3570
  648SOL    HW1 1943   2.676   2.714   1.969 -2.2796  2.0200  2.8206
  648SOL    HW2 1944   2.787   2.647   1.869 -1.8373  3.7752 -1.2253
  649SOL     OW 1945   0.600   2.239   0.001 -0.3573 -0.1969 -0.6867
  649SOL    HW1 1946   0.625   2.215   2.973 -0.9475 -0.1701 -1.6840
  649SOL    HW2 1947   0.503   2.233   0.010  2.2069 -0.6830 -0.8716
  650SOL     OW 1948   0.231   1.822   1.625 -0.1750 -0.3409  0.3253
  650SOL    HW1 1949   0.246   1.720   1.632 -1.9884 -0.3768  2.3765
  650SOL    HW2 1950   0.212   1.858   1.531 -1.2577 -1.1084 -0.3650
  651SOL     OW 1951   0.664   0.060   0.021 -0.1514  0.2162 -0.2629
  651SOL    HW1 1952   0.572   0.091   3.063 -1.1604 -0.8420 -1.9938
  651SOL    HW2 1953   0.658   0.031   0.117  0.0305  0.5497  0.6363
  652SOL     OW 1954   2.446   1.656   0.350  0.0509 -0.6338 -0.1426
  652SOL    HW1 1955   2.535   1.615   0.378  0.6360  0.0042 -2.9775
  652SOL    HW2 1956   2.436   1.655   0.246  0.5943 -1.3527 -0.9792
  653SOL     OW 1957   2.912   0.153   0.881  0.5110  0.2658  0.4320
  653SOL    HW1 1958   2.909   0.254   0.901  1.1943  2.3883 -0.3711
  653SOL    HW2 1959   2.957   0.108   0.962  0.7741  0.5931  1.2580
  654SOL     OW 1960   1.584   0.293   2.512  0.0886 -0.6179  0.1681
  654SOL    HW1 1961   1.615   0.325   2.605 -1.8183  2.3863  1.2961
  654SOL    HW2 1962   1.508   0.230   2.510  0.0651  0.1390 -1.3529
  655SOL     OW 1963   0.945   2.430   1.365 -0.3316  0.5501 -0.4015
  655SOL    HW1 1964   0.915   2.389   1.280  0.2973  2.2245  2.7708
  655SOL    HW2 1965   1.019   2.499   1.348 -1.3933 -0.6416 -2.4086
  656SOL     OW 1966   0.355   0.127   2.213 -0.9123 -0.3597 -0.1178
  656SOL    HW1 1967   0.302   0.214   2.221 -1.1794 -0.0059 -1.9154
  656SOL    HW2 1968   0.306   0.057   2.268 -2.2779  0.6526 -0.3795
  657SOL     OW 1969   2.044   0.729   1.858  0.1080  0.1017  0.0004
  657SOL    HW1 1970   1.975   0.724   1.935 -0.6187  2.0921  2.9981
  657SOL    HW2 1971   2.002   0.700   1.774  0.6502  0.4331  0.2628
  658SOL     OW 1972   2.200   1.880   1.163 -0.0184 -0.2451  0.5025
  658SOL    HW1 1973   2.255   1.827   1.234  2.1583 -2.0684  1.8829
  658SOL    HW2 1974   2.225   1.834   1.076 -1.6569 -0.1626  1.8332
  659SOL     OW 1975   2.578   2.653   3.067  0.1042 -0.0134  0.1017
  659SOL    HW1 1976   2.675   2.675   3.057 -1.5556 -2.5250 -1.4763
  659SOL    HW2 1977   2.540   2.628   2.976  0.2863  0.3611  1.3825
  660SOL     OW 1978   0.864   1.249   2.686 -0.1024  0.5105 -0.2216
  660SOL    HW1 1979   0.946   1.302   2.723 -1.1803  0.1914  1.4537
  660SOL    HW2 1980   0.868   1.159   2.736 -0.1159  2.1657  1.1146
  661SOL     OW 1981   2.323   2.528   1.233 -0.2751  0.1675  0.4545
  661SOL    HW1 1982   2.324   2.518   1.334 -1.7447  3.1129  0.3578
  661SOL    HW2 1983   2.221   2.541   1.208 -4.2538  1.0255 -0.4291
  662SOL     OW 1984   0.469   0.811   0.262 -0.1362  0.0431 -0.1542
  662SOL    HW1 1985   0.467   0.758   0.352 -1.6327 -0.1788 -0.4453
  662SOL    HW2 1986   0.402   0.890   0.270  0.2376  3.2031  1.0099
  663SOL     OW 1987   1.000   2.156   0.027  0.2927 -0.2367  0.0460
  663SOL    HW1 1988   0.998   2.147   0.129  1.1327 -1.1890  0.4887
  663SOL    HW2 1989   1.006   2.257   3.069 -0.4658  0.3273  1.8278
  664SOL     OW 1990   0.601   2.923   1.438  0.6246 -0.0764 -0.2209
  664SOL    HW1 1991   0.646   2.839   1.401 -0.0071 -0.5237 -0.7151
  664SOL    HW2 1992   0.602   2.926   1.540 -0.9829 -1.1361  0.3547
  665SOL     OW 1993   1.901   1.666   1.789 -0.2213 -0.2815  0.1132
  665SOL    HW1 1994   1.865   1.755   1.754  1.6613 -1.8294  0.6578
  665SOL    HW2 1995   1.915   1.601   1.711 -0.2327 -2.9229 -0.1833
  666SOL     OW 1996   0.462   2.785   0.230 -0.0704 -0.5806 -0.0190
  666SOL    HW1 1997   0.374   2.749   0.266 -0.4550  0.3194 -3.1090
  666SOL    HW2 1998   0.531   2.710   0.243 -0.2178 -1.2595 -1.7721
  667SOL     OW 1999   1.593   1.660   1.447  0.4032  0.1501 -0.1197
  667SOL    HW1 2000   1.686   1.702   1.425 -0.5453  0.0012  0.3948
  667SOL    HW2 2001   1.545   1.691   1.533  0.7051 -0.9211 -0.0643
  668SOL     OW 2002   0.366   0.430   2.275  0.0463 -0.1555 -0.0249
  668SOL    HW1 2003   0.423   0.444   2.357 -3.3108  0.5549 -3.4627
  668SOL    HW2 2004   0.427   0.421   2.196 -0.3580  2.6725  1.0665
  669SOL     OW 2005   1.952   2.063   2.406  0.4572 -0.9344  0.7488
  669SOL    HW1 2006   1.987   1.969   2.376  2.9111  2.0442 -0.3734
  669SOL    HW2 2007   1.864   2.053   2.455  1.7135  0.5607 -1.8701
  670SOL     OW 2008   2.378   2.157   0.547 -0.4454 -0.0837 -0.2670
  670SOL    HW1 2009   2.451   2.087   0.572  1.1383 -0.1077 -0.3318
  670SOL    HW2 2010   2.361   2.231   0.615 -3.9337  1.6721 -0.1551
  671SOL     OW 2011   0.718   1.362   1.322  0.2760  0.0076  0.2059
  671SOL    HW1 2012   0.737   1.415   1.241 -0.8980 -3.3999  2.0797
  671SOL    HW2 2013   0.629   1.315   1.321 -1.3340 -1.1468  0.4044
  672SOL     OW 2014   2.652   1.313   2.184 -0.0845  0.1825 -0.0548
  672SOL    HW1 2015   2.585   1.331   2.109 -1.6759  0.9027  2.0797
  672SOL    HW2 2016   2.731   1.258   2.149 -0.0788 -3.1585  0.7742
  673SOL     OW 2017   2.916   1.635   2.387 -0.4057 -0.7064 -0.5108
  673SOL    HW1 2018   2.906   1.596   2.481 -0.8175 -1.0903  0.1470
  673SOL    HW2 2019   2.839   1.602   2.330 -0.5153  0.0404 -2.3024
  674SOL     OW 2020   0.895   2.465   2.206  0.3019 -0.0904  0.0601
  674SOL    HW1 2021   0.925   2.440   2.298 -2.4208 -1.9548  0.8529
  674SOL    HW2 2022   0.916   2.559   2.182 -0.7336 -1.6934 -3.1894
  675SOL     OW 2023   0.703   0.805   1.366  0.4957 -0.4112 -0.2881
  675SOL    HW1 2024   0.726   0.745   1.444 -1.6474 -1.3483  1.4704
  675SOL    HW2 2025   0.632   0.871   1.395 -0.4842 -0.5892  0.1642
  676SOL     OW 2026   1.986   0.924   0.494  0.2276 -0.3517  0.3957
  676SOL    HW1 2027   1.899   0.872   0.484 -0.2138 -1.1720  0.8051
  676SOL    HW2 2028   1.983   1.004   0.425 -0.1712  1.7415 -0.8691
  677SOL     OW 2029   3.059   1.611   2.807 -0.0669  0.4707  0.0649
  677SOL    HW1 2030   2.976   1.566   2.763 -3.7579 -0.1711  0.2818
  677SOL    HW2 2031   0.071   1.552   2.790 -0.3068  2.5938  3.4919
  678SOL     OW 2032   3.011   2.486   1.388  0.3689 -0.2579  0.2375
  678SOL    HW1 2033   2.999   2.401   1.336 -1.1762  0.0504  0.9613
  678SOL    HW2 2034   2.951   2.471   1.466 -0.0521 -2.2345 -1.7600
  679SOL     OW 2035   2.191   2.894   0.618 -0.5072 -0.5555 -0.5787
  679SOL    HW1 2036   2.139   2.891   0.530  0.7355  0.8928  4.8803
  679SOL    HW2 2037   2.294   2.906   0.598  0.6276  1.5995  0.3985
  680SOL     OW 2038   0.087   2.581   2.342  0.1524  0.2983  0.3725
  680SOL    HW1 2039   0.028   2.545   2.265 -2.3922 -2.2245  0.5282
  680SOL    HW2 2040   0.160   2.643   2.312  0.2903  3.0721  1.5495
  681SOL     OW 2041   0.226   1.422   1.389  0.9505 -0.1852  0.0678
  681SOL    HW1 2042   0.229   1.479   1.305 -1.3204 -0.5842 -0.5260
  681SOL    HW2 2043   0.315   1.388   1.422  1.9505  0.9479  1.5708
  682SOL     OW 2044   0.421   1.938   1.413 -0.0626  0.5473 -0.4204
  682SOL    HW1 2045   0.386   1.849   1.370 -1.7472 -0.2079 -2.8256
  682SOL    HW2 2046   0.337   1.995   1.428 -2.4240  1.0969 -1.1268
  683SOL     OW 2047   2.970   1.679   1.467 -0.0035  0.4876  0.1669
  683SOL    HW1 2048   2.892   1.717   1.522 -2.7673  2.4126 -0.9773
  683SOL    HW2 2049   3.007   1.602   1.520  2.3430  1.6454  1.4174
  684SOL     OW 2050   2.984   1.527   0.061  0.0425  0.0274  0.3534
  684SOL    HW1 2051   3.059   1.462   0.092 -1.0695  0.1649 -0.4343
  684SOL    HW2 2052   3.019   1.608   0.015 -2.0056 -0.2179 -0.1154
  685SOL     OW 2053   1.043   0.974   0.434  0.5759  0.1946  0.6713
  685SOL    HW1 2054   1.003   0.884   0.404  0.7027 -0.9611 -0.4232
  685SOL    HW2 2055   1.144   0.965   0.433 -1.7903 -0.1778 -0.4892
  686SOL     OW 2056   0.029   0.030   1.043 -0.3225 -0.6536  0.1889
  686SOL    HW1 2057   0.075   0.017   1.131  1.3791 -0.7550 -2.7887
  686SOL    HW2 2058   0.097   0.031   0.965 -0.4589  0.0508  0.2108
  687SOL     OW 2059   0.971   1.269   2.215 -0.3561 -0.6724  0.4793
  687SOL    HW1 2060   0.933   1.236   2.302 -0.5764  0.7300 -3.6528
  687SOL    HW2 2061   0.996   1.364   2.228 -3.3514 -1.7172  3.4063
  688SOL     OW 2062   0.936   1.927   1.875 -0.0771 -0.1654  0.4207
  688SOL    HW1 2063   0.866   1.878   1.821  4.2600 -1.3584  0.9896
  688SOL    HW2 2064   0.893   2.007   1.920 -1.5238 -0.5523  1.4533
  689SOL     OW 2065   1.977   0.391   1.090 -0.1968  0.1414 -0.1258
  689SOL    HW1 2066   2.042   0.430   1.158  0.8460  0.1524  0.7262
  689SOL    HW2 2067   1.877   0.410   1.113 -0.9562 -0.6546 -1.6665
  690SOL     OW 2068   2.879   1.213   0.965 -0.6234  0.1161  0.4313
  690SOL    HW1 2069   2.951   1.288   0.952  2.7851 -0.6991 -1.9957
  690SOL    HW2 2070   2.899   1.147   1.038 -2.6886  3.5654  1.0324
  691SOL     OW 2071   0.183   2.495   1.536  0.4413 -0.2013  0.2832
  691SOL    HW1 2072   0.090   2.496   1.495 -1.7381 -0.1427 -1.0454
  691SOL    HW2 2073   0.228   2.587   1.544 -0.2013 -0.4904  2.6624
  692SOL     OW 2074   1.929   2.866   1.280 -0.0396 -0.0341 -0.2863
  692SOL    HW1 2075   1.960   2.846   1.189  0.0725  0.5444 -1.2139
  692SOL    HW2 2076   1.984   2.937   1.330 -0.6118  1.7366  1.0153
  693SOL     OW 2077   0.304   1.489   2.501  0.0063 -0.2055 -0.2389
  693SOL    HW1 2078   0.373   1.542   2.545 -0.1691 -0.3362 -2.5138
  693SOL    HW2 2079   0.239   1.546   2.446 -1.6147  0.0720  1.4542
  694SOL     OW 2080   1.858   0.866   1.224  0.4037  0.1676  0.0482
  694SOL    HW1 2081   1.941   0.823   1.261 -4.3837  1.7370 -1.1343
  694SOL    HW2 2082   1.781   0.833   1.279  0.5295 -2.4055 -1.4979
  695SOL     OW 2083   0.960   0.974   1.318 -0.3539 -0.2917  0.0704
  695SOL    HW1 2084   0.882   1.033   1.355 -1.9951  1.9922  3.0893
  695SOL    HW2 2085   1.022   1.037   1.267 -1.2392  1.5025  3.1632
  696SOL     OW 2086   1.749   3.014   0.726 -0.7375  0.5245 -0.6625
  696SOL    HW1 2087   1.732   2.921   0.687  0.1497 -1.9091  0.6989
  696SOL    HW2 2088   1.685   0.015   0.694 -1.2920 -0.2360  1.4880
  697SOL     OW 2089   0.826   0.041   0.971  0.1028 -0.1079  0.3308
  697SOL    HW1 2090   0.916   0.008   0.932  0.1879 -2.5968  0.8006
  697SOL    HW2 2091   0.803   3.066   1.058  0.6926 -0.3023 -1.2942
  698SOL     OW 2092   1.439   1.290   2.177  0.2151  0.9528  0.0048
  698SOL    HW1 2093   1.524   1.280   2.122 -2.9017 -1.8603 -1.8296
  698SOL    HW2 2094   1.430   1.387   2.211 -0.7831  1.6148  1.9823
  699SOL     OW 2095   1.537   0.725   0.821  0.2450  0.1695 -0.8192
  699SOL    HW1 2096   1.575   0.817   0.840 -3.1006  1.3490  1.2275
  699SOL    HW2 2097   1.440   0.730   0.802  1.1878  1.2504 -0.0836
  700SOL     OW 2098   1.348   2.538   0.290  0.3587  0.0874 -0.0506
  700SOL    HW1 2099   1.395   2.624   0.283 -0.6001 -0.9929  0.1890
  700SOL    HW2 2100   1.314   2.522   0.383  0.2010 -0.5991 -0.1711
  701SOL     OW 2101   2.138   2.439   2.922  0.5873  0.0781 -0.0982
  701SOL    HW1 2102   2.147   2.440   3.030  0.8992 -0.4135 -1.8323
  701SOL    HW2 2103   2.212   2.385   2.881  0.0324  0.3617  2.3253
  702SOL     OW 2104   0.865   0.268   0.810  0.1260  0.3906 -0.4884
  702SOL    HW1 2105   0.824   0.214   0.885 -2.4757 -0.4361 -1.5469
  702SOL    HW2 2106   0.894   0.357   0.846 -0.6704  0.7302  0.7977
  703SOL     OW 2107   2.159   0.443   2.231  0.0170 -0.1443  0.0531
  703SOL    HW1 2108   2.157   0.364   2.298  0.4056  2.3671  1.0773
  703SOL    HW2 2109   2.063   0.470   2.201 -2.8375 -1.8493  0.5190
  704SOL     OW 2110   0.044   2.342   0.701  0.3299  0.0507 -0.0905
  704SOL    HW1 2111   0.011   2.256   0.659  1.4819 -1.6514 -0.6692
  704SOL    HW2 2112   0.141   2.367   0.675 -0.8909  2.2485  0.9657
  705SOL     OW 2113   2.609   2.414   2.101  0.0702 -0.1772 -0.1918
  705SOL    HW1 2114   2.642   2.467   2.019  0.9043  0.2407  1.3070
  705SOL    HW2 2115   2.509   2.431   2.113  1.7991 -0.7179 -1.0289
  706SOL     OW 2116   2.422   2.585   0.986 -0.2077 -0.8544 -0.1193
  706SOL    HW1 2117   2.402   2.563   1.081  1.1893  1.2376 -2.3717
  706SOL    HW2 2118   2.458   2.502   0.935  1.9886  0.1699  0.3670
  707SOL     OW 2119   0.636   2.416   2.045  0.5607  0.8212  0.0628
  707SOL    HW1 2120   0.621   2.341   1.979 -3.2456 -1.5174 -1.9562
  707SOL    HW2 2121   0.732   2.452   2.041  0.6638 -0.8657 -2.7261
  708SOL     OW 2122   3.057   2.187   2.249  0.2716  0.4130  0.6765
  708SOL    HW1 2123   3.011   2.139   2.321  0.3905  1.2752 -3.1303
  708SOL    HW2 2124   0.081   2.143   2.232  2.4582  0.2995  1.1471
  709SOL     OW 2125   1.873   2.962   1.910 -0.0800 -0.4184 -0.2286
  709SOL    HW1 2126   1.850   2.874   1.871 -1.3644  2.9363  3.6013
  709SOL    HW2 2127   1.825   2.986   1.995  0.6711 -2.6997 -0.1302
  710SOL     OW 2128   1.554   0.866   2.318 -0.1716  0.2298 -0.6588
  710SOL    HW1 2129   1.607   0.797   2.368  0.5046  1.3026 -2.6762
  710SOL    HW2 2130   1.502   0.813   2.248 -0.4800  0.9908  3.4608
  711SOL     OW 2131   0.627   1.920   2.958  0.4155  0.1977 -0.0319
  711SOL    HW1 2132   0.707   1.907   3.019  0.4275 -0.6599  1.3167
  711SOL    HW2 2133   0.539   1.914   3.011 -3.3900 -1.3962  0.4204
  712SOL     OW 2134   0.690   2.406   2.511  0.1828 -0.2925 -0.8099
  712SOL    HW1 2135   0.675   2.468   2.436 -0.9229 -1.8253  0.2864
  712SOL    HW2 2136   0.627   2.326   2.499 -0.1816  0.5019  2.1759
  713SOL     OW 2137   1.591   1.291   2.845 -0.2379  0.2332  0.2968
  713SOL    HW1 2138   1.668   1.325   2.783  3.4038  1.5859 -1.9269
  713SOL    HW2 2139   1.639   1.227   2.911  1.4830  0.7417  2.1099
  714SOL     OW 2140   1.411   1.381   1.855 -0.3276 -0.7448 -0.0817
  714SOL    HW1 2141   1.494   1.376   1.790 -0.7787 -1.9333 -2.0085
  714SOL    HW2 2142   1.416   1.459   1.922  1.6462  1.4888 -0.7825
  715SOL     OW 2143   1.965   0.705   2.355  0.2282 -0.1666  0.5526
  715SOL    HW1 2144   2.047   0.717   2.413 -0.8983 -0.4263  2.3511
  715SOL    HW2 2145   1.972   0.621   2.299  3.0143  0.8156 -1.5045
  716SOL     OW 2146   2.858   2.298   1.896 -0.3543 -0.1248  0.6036
  716SOL    HW1 2147   2.848   2.387   1.855  0.5081 -0.6488  0.9235
  716SOL    HW2 2148   2.952   2.260   1.892 -0.1573 -0.7336  0.2673
  717SOL     OW 2149   2.631   1.240   0.845  0.0442 -0.1327  0.4789
  717SOL    HW1 2150   2.717   1.223   0.890 -1.8259 -0.1987 -6.3997
  717SOL    HW2 2151   2.650   1.317   0.781 -0.8584 -0.8349 -0.6602
  718SOL     OW 2152   0.801   1.635   2.174  0.3171  0.1556  0.1555
  718SOL    HW1 2153   0.760   1.729   2.162  0.3888  1.0689  3.4313
  718SOL    HW2 2154   0.866   1.612   2.098  1.9570 -2.3077  1.3393
  719SOL     OW 2155   1.961   0.783   2.711  0.3026  0.1080 -0.1936
  719SOL    HW1 2156   1.916   0.835   2.637 -0.1547 -0.7699 -1.5629
  719SOL    HW2 2157   1.945   0.835   2.798  0.3311  2.2628  1.5339
  720SOL     OW 2158   0.623   0.475   0.692  0.0067  0.5937  0.2465
  720SOL    HW1 2159   0.591   0.530   0.771  1.0831 -1.4995  0.8230
  720SOL    HW2 2160   0.604   0.377   0.716 -3.2032 -1.4213 -0.1707
  721SOL     OW 2161   2.640   0.803   0.527 -0.0454 -0.2575 -0.1552
  721SOL    HW1 2162   2.567   0.799   0.457  0.8682  1.3150  1.7764
  721SOL    HW2 2163   2.632   0.722   0.595  2.8638  1.2055  0.6888
  722SOL     OW 2164   2.697   0.695   2.438 -0.0445  0.0066 -0.2250
  722SOL    HW1 2165   2.783   0.682   2.393  0.3643  1.1125  2.2547
  722SOL    HW2 2166   2.675   0.619   2.508 -1.4962  1.2103  1.7894
  723SOL     OW 2167   2.142   0.350   0.244 -0.1693 -0.1241 -0.2048
  723SOL    HW1 2168   2.234   0.356   0.204 -1.2515  1.7740  1.2476
  723SOL    HW2 2169   2.102   0.444   0.253 -0.8377 -1.1197 -2.8109
  724SOL     OW 2170   0.598   1.764   1.941  0.6617  0.7528 -0.0999
  724SOL    HW1 2171   0.511   1.716   1.913  1.7176 -1.1061 -0.1600
  724SOL    HW2 2172   0.651   1.784   1.857  0.9579 -0.4764  2.9823
  725SOL     OW 2173   1.649   2.964   1.243 -0.3511  0.5276 -0.0535
  725SOL    HW1 2174   1.699   2.992   1.159 -0.4135 -0.0234 -0.9228
  725SOL    HW2 2175   1.702   2.890   1.286 -0.9744 -1.8176  0.5391
  726SOL     OW 2176   2.109   2.511   0.131  0.2362 -0.5326 -0.6730
  726SOL    HW1 2177   2.135   2.607   0.109  2.3090  0.4736  0.7924
  726SOL    HW2 2178   2.107   2.494   0.234  1.1489 -4.4413  0.8759
  727SOL     OW 2179   1.643   1.429   1.314  0.7299  0.7000 -0.1060
  727SOL    HW1 2180   1.725   1.380   1.347  1.0660 -0.5089 -0.2210
  727SOL    HW2 2181   1.619   1.512   1.371 -2.9069 -0.7560 -0.9431
  728SOL     OW 2182   2.070   2.991   1.675 -0.2054 -0.1646 -0.1434
  728SOL    HW1 2183   2.068   3.045   1.761  0.5135 -1.5070 -1.7917
  728SOL    HW2 2184   2.021   2.903   1.696  0.1758 -0.7782 -0.5031
  729SOL     OW 2185   2.051   1.838   0.815 -0.0486  0.0506  0.3853
  729SOL    HW1 2186   2.046   1.842   0.712  1.2334 -2.0779 -2.9000
  729SOL    HW2 2187   2.104   1.915   0.853  2.0499 -1.3607 -1.3799
  730SOL     OW 2188   1.297   0.583   2.752 -0.0624 -0.5308 -0.0776
  730SOL    HW1 2189   1.207   0.574   2.705  0.1057 -0.5549  0.1102
  730SOL    HW2 2190   1.376   0.607   2.689  3.2454 -0.7580 -1.1437
  731SOL     OW 2191   0.506   2.914   1.134 -0.0631 -0.1229  1.3142
  731SOL    HW1 2192   0.438   2.957   1.194  2.2612  2.9274 -2.1760
  731SOL    HW2 2193   0.495   2.813   1.114 -0.3219  2.7136 -0.4620
  732SOL     OW 2194   1.272   0.652   0.511  0.1781  0.3282  0.2549
  732SOL    HW1 2195   1.189   0.597   0.526  1.8522 -1.0616  2.4759
  732SOL    HW2 2196   1.338   0.601   0.448 -0.8852  0.6463 -2.0898
  733SOL     OW 2197   0.654   1.943   1.529 -0.1308 -0.1505 -0.0737
  733SOL    HW1 2198   0.715   1.969   1.449  0.5069 -1.5342 -0.4982
  733SOL    HW2 2199   0.559   1.946   1.499  0.5092 -0.4208 -3.8653
  734SOL     OW 2200   0.080   2.489   0.377 -0.1283 -0.2327  0.0350
  734SOL    HW1 2201   0.099   2.403   0.420 -2.4178  2.1783 -0.7582
  734SOL    HW2 2202   0.092   2.478   0.279  1.8342  1.8979 -1.4754
  735SOL     OW 2203   1.205   0.109   1.154  0.2200 -0.3947 -0.0885
  735SOL    HW1 2204   1.159   0.029   1.198 -0.5104 -0.4957 -0.1133
  735SOL    HW2 2205   1.300   0.132   1.192  1.0312  2.4691  1.6455
  736SOL     OW 2206   2.179   2.039   0.405  0.8406  0.1693 -0.1011
  736SOL    HW1 2207   2.247   2.075   0.469 -0.8658 -0.5632 -1.1403
  736SOL    HW2 2208   2.208   2.054   0.310 -2.3579  4.0659 -3.6397
  737SOL     OW 2209   3.063   1.408   0.984  0.3213  0.5275 -0.0181
  737SOL    HW1 2210   0.050   1.490   0.958 -2.3644 -0.5237 -1.0276
  737SOL    HW2 2211   3.023   1.419   1.077  0.1671 -0.0501  0.4516
  738SOL     OW 2212   2.126   2.414   2.221 -0.7172 -0.2521 -0.6416
  738SOL    HW1 2213   2.066   2.486   2.267  1.8308  0.8515 -1.3326
  738SOL    HW2 2214   2.214   2.454   2.196  1.1331 -1.2830  3.5007
  739SOL     OW 2215   1.174   2.054   2.902 -0.1057 -0.2183  0.2258
  739SOL    HW1 2216   1.114   2.080   2.983 -0.2342 -0.0551 -2.1190
  739SOL    HW2 2217   1.122   2.076   2.814 -0.9787  1.4637  1.7220
  740SOL     OW 2218   1.450   0.198   1.247  0.0013 -0.2047  0.2873
  740SOL    HW1 2219   1.503   0.193   1.159 -0.5760 -0.0755  2.6937
  740SOL    HW2 2220   1.505   0.152   1.323  1.4277 -1.9892  2.3507
  741SOL     OW 2221   0.288   1.022   0.767 -0.1985 -0.0058 -0.0113
  741SOL    HW1 2222   0.385   1.000   0.770 -2.3438 -0.9908 -0.2195
  741SOL    HW2 2223   0.235   0.954   0.820 -0.3472  1.7230  0.3702
  742SOL     OW 2224   0.853   1.157   2.430 -0.4591  0.0543 -0.4184
  742SOL    HW1 2225   0.860   1.208   2.521  1.3815 -1.1938  1.1153
  742SOL    HW2 2226   0.771   1.099   2.436  0.5508  3.6673  0.6498
  743SOL     OW 2227   1.009   0.900   1.918 -0.1698 -0.1687 -0.5987
  743SOL    HW1 2228   0.964   0.969   1.976  2.6662 -0.0668 -0.3038
  743SOL    HW2 2229   1.100   0.881   1.952 -1.7858 -0.1060 -0.0209
  744SOL     OW 2230   1.786   0.254   1.489  0.1053 -0.5088  0.1953
  744SOL    HW1 2231   1.833   0.232   1.398  1.5369 -0.3587  0.8375
  744SOL    HW2 2232   1.840   0.322   1.542  2.5344 -1.9908  0.2019
  745SOL     OW 2233   2.209   1.188   1.356 -0.0610 -0.0076 -0.1093
  745SOL    HW1 2234   2.114   1.208   1.318  1.3047 -0.7029  0.4452
  745SOL    HW2 2235   2.262   1.271   1.386  2.9497 -1.0324  0.0039
  746SOL     OW 2236   2.009   1.130   0.311 -0.0938  0.3550  0.2710
  746SOL    HW1 2237   1.941   1.210   0.301  1.8280  0.8310  0.0975
  746SOL    HW2 2238   2.099   1.158   0.352 -2.5482  1.7066  0.0247
  747SOL     OW 2239   2.787   1.658   1.164  0.6441  0.3070 -0.0505
  747SOL    HW1 2240   2.763   1.677   1.071  0.6246 -0.5256 -1.5821
  747SOL    HW2 2241   2.764   1.736   1.226  0.7791 -2.6357  0.2880
  748SOL     OW 2242   0.450   2.118   0.532  0.1489  0.1294  0.1304
  748SOL    HW1 2243   0.499   2.193   0.578  2.0196  0.1502  1.1872
  748SOL    HW2 2244   0.516   2.043   0.508 -0.9176 -0.5957 -1.9074
  749SOL     OW 2245   2.724   2.484   2.422 -0.5896 -0.5189  0.2938
  749SOL    HW1 2246   2.749   2.416   2.351  0.3203  1.5917  0.3447
  749SOL    HW2 2247   2.618   2.492   2.412  0.6710  0.0573 -1.2748
  750SOL     OW 2248   2.446   0.940   0.709 -0.5346 -0.5215  0.2114
  750SOL    HW1 2249   2.497   0.901   0.628 -2.6560  0.9615 -1.3190
  750SOL    HW2 2250   2.351   0.906   0.704 -1.5509 -1.8735  2.1491
  751SOL     OW 2251   2.483   2.936   0.051  0.1942 -0.0743 -0.3548
  751SOL    HW1 2252   2.429   2.988   3.052  0.6626 -0.2066  1.1628
  751SOL    HW2 2253   2.514   2.845   0.018  2.6984 -0.1757 -1.0447
  752SOL     OW 2254   3.050   2.716   0.928 -0.1076  0.3030  0.3059
  752SOL    HW1 2255   3.001   2.765   0.996  1.7331 -0.6240  0.0159
  752SOL    HW2 2256   2.986   2.661   0.869 -3.2510 -2.6855 -1.3310
  753SOL     OW 2257   1.780   1.004   2.186 -0.2425 -0.1791 -0.1443
  753SOL    HW1 2258   1.865   1.025   2.238 -0.5313 -0.8634 -0.4695
  753SOL    HW2 2259   1.710   0.956   2.242  1.1749  2.8600 -0.5959
  754SOL     OW 2260   1.648   1.997   1.460 -0.0357  0.3928 -0.7595
  754SOL    HW1 2261   1.719   2.057   1.416 -2.3972  0.7928  1.2023
  754SOL    HW2 2262   1.602   1.950   1.382  0.8949  2.1410  1.4767
  755SOL     OW 2263   2.538   1.218   0.538 -0.2336 -0.3109 -0.4899
  755SOL    HW1 2264   2.506   1.187   0.632 -2.9363  0.3566 -1.2276
  755SOL    HW2 2265   2.497   1.152   0.464 -0.7605  0.2500 -2.3602
  756SOL     OW 2266   0.588   1.334   2.780 -0.5667  0.0240  0.4924
  756SOL    HW1 2267   0.510   1.287   2.734  0.6452  0.3689 -0.4576
  756SOL    HW2 2268   0.680   1.294   2.755 -0.8764 -0.2383  1.3176
  757SOL     OW 2269   1.628   2.410   0.704 -0.0482 -0.0649  0.6404
  757SOL    HW1 2270   1.658   2.312   0.688  1.2045  0.5652  1.8245
  757SOL    HW2 2271   1.645   2.441   0.798  0.2307 -1.7442 -1.7132
  758SOL     OW 2272   1.373   2.660   1.528 -0.6322 -0.2408 -0.2595
  758SOL    HW1 2273   1.335   2.739   1.477 -1.3334 -2.6033  1.7485
  758SOL    HW2 2274   1.372   2.577   1.468  0.5471 -0.8310 -0.8280
  759SOL     OW 2275   0.125   0.835   0.921 -0.4676  0.5002  0.0259
  759SOL    HW1 2276   0.035   0.862   0.883  1.6754 -1.2943 -0.1344
  759SOL    HW2 2277   0.116   0.838   1.023 -1.0257 -1.4031 -1.5795
  760SOL     OW 2278   2.384   1.056   1.191 -0.3617 -0.0593  0.1792
  760SOL    HW1 2279   2.366   1.096   1.100  1.4922  4.0145 -1.0397
  760SOL    HW2 2280   2.325   1.105   1.261  1.6970  3.1326  0.8143
  761SOL     OW 2281   2.011   0.077   0.082  0.4969 -0.6776 -0.1963
  761SOL    HW1 2282   2.108   0.107   0.103  1.9068  1.3587 -0.3966
  761SOL    HW2 2283   1.948   0.098   0.157 -0.8386  0.2824 -0.5568
  762SOL     OW 2284   2.076   1.374   2.938 -0.6470  0.3795  0.5273
  762SOL    HW1 2285   2.085   1.272   2.927  1.3112 -1.8710 -0.1381
  762SOL    HW2 2286   2.082   1.420   2.847  1.5882  1.2066 -4.6406
  763SOL     OW 2287   0.264   2.037   1.799  0.2930  0.0657  0.1090
  763SOL    HW1 2288   0.325   2.011   1.876  2.1629  1.6023 -0.0526
  763SOL    HW2 2289   0.250   1.953   1.740  1.9943  0.6023 -0.9285
  764SOL     OW 2290   2.943   2.292   0.025  0.3392  0.5321  0.4144
  764SOL    HW1 2291   2.857   2.238   0.015  0.1465 -0.9024 -2.6401
  764SOL    HW2 2292   2.947   2.348   3.008 -0.9847 -1.7043 -2.1230
  765SOL     OW 2293   0.340   2.948   1.399  0.3740  0.3840 -0.1611
  765SOL    HW1 2294   0.438   2.951   1.408  0.0671  1.8938 -0.1172
  765SOL    HW2 2295   0.308   2.867   1.347  2.1776 -1.2242  2.9787
  766SOL     OW 2296   2.947   1.893   2.250  0.0819 -0.1628  0.3897
  766SOL    HW1 2297   2.961   1.807   2.305  0.2746  1.0254 -0.5422
  766SOL    HW2 2298   2.922   1.968   2.319  1.7996  0.2288  3.0609
  767SOL     OW 2299   2.517   0.871   2.084  0.1427  0.2982  0.3543
  767SOL    HW1 2300   2.519   0.831   1.993 -1.0406  1.7919 -0.2586
  767SOL    HW2 2301   2.512   0.797   2.157 -1.3305  0.4929 -1.1825
  768SOL     OW 2302   1.278   3.062   2.759 -0.1934  0.8055 -0.2619
  768SOL    HW1 2303   1.230   3.055   2.855 -2.5810  0.9709  2.1874
  768SOL    HW2 2304   1.379   0.007   2.764  0.8251  1.9576  1.7550
  769SOL     OW 2305   2.688   2.754   0.982 -0.1464  0.2841 -0.1082
  769SOL    HW1 2306   2.778   2.780   1.021  1.9031  1.3535 -0.4689
  769SOL    HW2 2307   2.616   2.766   1.053 -2.5363  1.5094  1.1457
  770SOL     OW 2308   0.645   2.980   2.733 -0.2331 -0.3690 -0.1860
  770SOL    HW1 2309   0.676   2.884   2.727 -0.5025  0.7698  1.4576
  770SOL    HW2 2310   0.547   2.985   2.742 -0.1046  0.8217  0.0789
  771SOL     OW 2311   1.121   1.953   2.283  0.3555 -0.1843 -0.2266
  771SOL    HW1 2312   1.157   1.979   2.192  0.1738  0.0784 -0.1251
  771SOL    HW2 2313   1.068   1.866   2.282 -1.1402  1.7031 -0.5903
  772SOL     OW 2314   1.758   2.651   2.832  0.0967 -0.6950 -0.4083
  772SOL    HW1 2315   1.733   2.578   2.901  2.6987 -3.0345 -0.5671
  772SOL    HW2 2316   1.686   2.720   2.823  0.7701 -2.5835 -2.9224
  773SOL     OW 2317   1.991   0.509   1.357 -0.5653 -0.2900 -0.0586
  773SOL    HW1 2318   2.037   0.599   1.348 -1.8469  1.3943  1.0468
  773SOL    HW2 2319   1.901   0.513   1.308 -2.2142  2.4800 -3.4758
  774SOL     OW 2320   0.999   0.711   0.997  0.1447  0.6023  0.5113
  774SOL    HW1 2321   1.082   0.722   1.052  0.2800 -0.7469 -1.0231
  774SOL    HW2 2322   0.913   0.683   1.050 -3.6598 -0.7287  2.6695
  775SOL     OW 2323   2.009   2.747   2.768 -0.2242  0.5587 -0.3239
  775SOL    HW1 2324   1.919   2.703   2.796 -0.7594  1.0515  3.4450
  775SOL    HW2 2325   2.082   2.726   2.837 -0.4381 -5.1572  0.9260
  776SOL     OW 2326   2.090   0.749   1.321  0.0936  0.3569 -0.0457
  776SOL    HW1 2327   2.140   0.805   1.394  0.1714  0.6551 -0.7045
  776SOL    HW2 2328   2.130   0.767   1.229 -1.0343 -2.4337 -0.8359
  777SOL     OW 2329   0.046   1.066   2.133 -0.3138 -0.4082  0.1493
  777SOL    HW1 2330   0.036   0.994   2.202  0.7355  1.2520 -1.8139
  777SOL    HW2 2331   0.125   1.128   2.157 -0.2579 -0.0406 -0.7688
  778SOL     OW 2332   0.063   0.796   0.105 -0.2603  0.0773 -0.0983
  778SOL    HW1 2333   0.117   0.830   0.022 -0.5502 -1.6442  0.2821
  778SOL    HW2 2334   0.053   0.873   0.171  0.1084  1.1439 -0.3455
  779SOL     OW 2335   0.660   0.303   2.785 -0.7959 -0.4560 -0.1537
  779SOL    HW1 2336   0.749   0.309   2.836  1.6542 -0.7515 -0.1606
  779SOL    HW2 2337   0.679   0.278   2.687  1.6148  0.1393 -2.3505
  780SOL     OW 2338   2.049   1.227   2.619  0.1461  0.2585 -0.3624
  780SOL    HW1 2339   1.994   1.188   2.544  1.6589 -0.9690  1.9036
  780SOL    HW2 2340   2.094   1.314   2.594  0.4575  0.1049  0.5161
  781SOL     OW 2341   2.770   1.010   1.868 -0.2949  0.5829 -0.2276
  781SOL    HW1 2342   2.685   1.025   1.810 -1.1415  0.6624 -2.7299
  781SOL    HW2 2343   2.755   0.938   1.939  1.3576 -0.0032 -0.9533
  782SOL     OW 2344   0.742   1.772   2.745  0.1258 -0.1020  0.1411
  782SOL    HW1 2345   0.654   1.718   2.741 -0.1158  0.5643  1.0153
  782SOL    HW2 2346   0.721   1.860   2.792 -1.1331 -0.7628 -0.1500
  783SOL     OW 2347   1.295   2.177   1.259  0.1520 -0.2467  0.3045
  783SOL    HW1 2348   1.389   2.141   1.233  0.6647 -0.0803 -0.3486
  783SOL    HW2 2349   1.226   2.151   1.191  0.2088 -0.3038 -2.4781
  784SOL     OW 2350   1.711   0.673   2.413  0.1037 -0.3480 -0.3093
  784SOL    HW1 2351   1.810   0.665   2.406 -1.2590 -0.8859  1.5904
  784SOL    HW2 2352   1.671   0.589   2.373 -0.0251 -1.8133  0.2654
  785SOL     OW 2353   0.080   0.210   1.933  0.3913 -0.3114 -0.0829
  785SOL    HW1 2354   0.013   0.220   2.005  4.2193 -1.1107 -1.9445
  785SOL    HW2 2355   0.094   0.111   1.905  0.9684  0.9031 -0.9379
  786SOL     OW 2356   0.962   2.159   0.303  0.3660  0.4661  0.0315
  786SOL    HW1 2357   0.900   2.230   0.258 -1.2724  1.0506 -1.7877
  786SOL    HW2 2358   0.956   2.167   0.403  0.4059  0.6134 -1.3146
  787SOL     OW 2359   1.208   0.098   0.716 -0.2306 -0.6579  0.2097
  787SOL    HW1 2360   1.138   0.137   0.656  1.0797  0.4083  1.0654
  787SOL    HW2 2361   1.170   0.044   0.794 -0.8270  0.5183  0.2169
  788SOL     OW 2362   2.943   1.454   1.244  0.0536 -0.0082 -0.4426
  788SOL    HW1 2363   2.888   1.527   1.205  1.0298 -1.7641 -0.5446
  788SOL    HW2 2364   2.979   1.484   1.336  1.6693 -1.8856  2.2613
  789SOL     OW 2365   2.501   1.086   2.269  0.1282 -0.1826  0.2811
  789SOL    HW1 2366   2.493   1.003   2.207  0.0902 -2.7195  1.9254
  789SOL    HW2 2367   2.557   1.161   2.223  1.8198 -3.5897 -0.0769
  790SOL     OW 2368   0.924   0.170   0.269  0.2672 -0.0364 -0.6390
  790SOL    HW1 2369   0.884   0.263   0.257 -0.5620  2.8344 -1.4116
  790SOL    HW2 2370   0.862   0.121   0.331  1.5919 -0.6946 -2.2305
  791SOL     OW 2371   0.002   0.101   0.064 -0.0683 -0.6539  0.8567
  791SOL    HW1 2372   0.026   0.127   3.035  0.5596 -0.1194  1.1533
  791SOL    HW2 2373   0.075   0.103   0.133 -2.2584  1.6609 -0.6578
  792SOL     OW 2374   1.398   0.441   2.044  0.4997  0.1194  0.0734
  792SOL    HW1 2375   1.484   0.393   2.014  3.2125  0.2780  0.0951
  792SOL    HW2 2376   1.336   0.380   2.095  1.5391 -1.7645 -2.7675
  793SOL     OW 2377   2.834   0.371   1.396  0.1041  0.5997  0.2565
  793SOL    HW1 2378   2.909   0.391   1.328  0.7508 -1.7991  0.2677
  793SOL    HW2 2379   2.842   0.431   1.479  2.6800 -1.1271 -0.6817
  794SOL     OW 2380   3.042   0.543   2.098 -0.2519 -0.0097  0.1524
  794SOL    HW1 2381   0.061   0.573   2.050  1.1388 -1.5741 -0.7209
  794SOL    HW2 2382   2.977   0.501   2.032  1.0511 -0.3114 -0.6018
  795SOL     OW 2383   0.626   1.415   0.496 -0.0930  0.2124  0.6600
  795SOL    HW1 2384   0.703   1.461   0.541  2.1063 -2.0352  0.8564
  795SOL    HW2 2385   0.653   1.336   0.434  1.8384  1.8789  1.2545
  796SOL     OW 2386   2.883   0.794   3.038  0.7394  0.0449 -0.4959
  796SOL    HW1 2387   2.897   0.803   2.941  1.4810 -0.3473 -1.4850
  796SOL    HW2 2388   2.976   0.802   0.019  0.5683 -1.5990 -2.7813
  797SOL     OW 2389   1.633   2.977   2.528  0.5948 -0.2025 -0.3681
  797SOL    HW1 2390   1.728   2.942   2.543 -0.4097  1.3920  1.1523
  797SOL    HW2 2391   1.580   2.901   2.486 -1.3603  1.3052 -3.6899
  798SOL     OW 2392   2.936   0.093   1.401  0.2971  0.5507  0.4887
  798SOL    HW1 2393   2.918   0.191   1.378 -0.0952 -0.8289 -1.0673
  798SOL    HW2 2394   3.037   0.072   1.391  0.7838 -0.2699  2.9534
  799SOL     OW 2395   2.496   1.002   1.773 -0.4121  0.0370  0.6358
  799SOL    HW1 2396   2.425   0.931   1.788 -3.2381 -2.6441 -1.5278
  799SOL    HW2 2397   2.510   1.022   1.674  2.1675 -1.3221 -0.8337
  800SOL     OW 2398   0.164   1.640   0.494 -0.4190  0.7860 -0.0382
  800SOL    HW1 2399   0.214   1.723   0.504 -0.2769 -2.8855  0.1690
  800SOL    HW2 2400   0.207   1.574   0.428  0.4851  2.5077 -0.4896
  801SOL     OW 2401   1.664   1.545   0.394 -0.3422 -0.3383 -0.6005
  801SOL    HW1 2402   1.585   1.535   0.330 -2.7009 -3.9429 -0.6800
  801SOL    HW2 2403   1.638   1.561   0.491  0.3254  0.3885  0.8404
  802SOL     OW 2404   1.217   1.070   2.678 -0.1102 -0.1511  0.1900
  802SOL    HW1 2405   1.219   1.165   2.636  1.0509 -0.1899 -2.7070
  802SOL    HW2 2406   1.312   1.054   2.720  1.5446  0.0875  0.6107
  803SOL     OW 2407   0.423   2.005   1.998  0.0252 -0.4812  0.1701
  803SOL    HW1 2408   0.486   2.077   1.966  0.8261 -0.6902  0.6855
  803SOL    HW2 2409   0.467   1.913   2.001  0.7322 -0.4877 -1.0199
  804SOL     OW 2410   1.456   2.054   0.874  0.3774  0.0631  0.0334
  804SOL    HW1 2411   1.473   1.957   0.851 -0.3391 -1.3290  1.4964
  804SOL    HW2 2412   1.358   2.074   0.865  1.0140  1.0334  0.5551
  805SOL     OW 2413   2.410   2.298   2.537 -0.3090 -1.0991  0.1779
  805SOL    HW1 2414   2.488   2.236   2.505 -1.3229 -1.4339 -0.7218
  805SOL    HW2 2415   2.408   2.381   2.480 -2.6974 -3.5479  0.7938
  806SOL     OW 2416   0.224   0.517   0.824 -0.2034 -0.3889  0.1000
  806SOL    HW1 2417   0.228   0.420   0.855  0.4038  0.1779  0.3243
  806SOL    HW2 2418   0.260   0.580   0.894  0.4424 -1.0661 -2.3106
  807SOL     OW 2419   2.876   0.692   2.738  0.4645  0.2658 -0.9759
  807SOL    HW1 2420   2.798   0.656   2.684 -0.1149  3.9967  1.0005
  807SOL    HW2 2421   2.887   0.787   2.718 -0.6862 -4.1218  0.8375
  808SOL     OW 2422   0.733   2.116   0.700  0.1507  0.3811 -0.1596
  808SOL    HW1 2423   0.682   2.036   0.671  0.4843 -1.6626 -0.4654
  808SOL    HW2 2424   0.669   2.191   0.726  0.9293  0.7215  1.3145
  809SOL     OW 2425   2.592   0.254   2.634 -0.4470 -0.2176 -0.0493
  809SOL    HW1 2426   2.632   0.199   2.557 -0.8182 -1.6187 -0.5621
  809SOL    HW2 2427   2.518   0.200   2.677 -1.1917  1.0524  0.5453
  810SOL     OW 2428   1.517   1.012   0.638  0.0343  0.0152 -0.0064
  810SOL    HW1 2429   1.484   1.063   0.720  0.2234  1.1300 -1.0644
  810SOL    HW2 2430   1.595   0.953   0.669  4.3281 -0.0334 -1.3714
  811SOL     OW 2431   1.576   2.886   1.983  0.0376 -0.2595 -0.0832
  811SOL    HW1 2432   1.545   2.882   1.888 -0.0232  1.3706  0.8179
  811SOL    HW2 2433   1.532   2.958   2.044  4.8103  1.8777  0.8409
  812SOL     OW 2434   2.069   2.508   0.407 -0.3903 -0.2823  0.0136
  812SOL    HW1 2435   2.034   2.411   0.417  1.1234 -0.2383 -3.4593
  812SOL    HW2 2436   2.048   2.566   0.487 -2.5037 -1.3164 -1.5382
  813SOL     OW 2437   1.047   0.609   1.976 -0.1486 -0.4035  0.1725
  813SOL    HW1 2438   1.136   0.587   1.936  0.3749  0.1233  0.9829
  813SOL    HW2 2439   1.008   0.699   1.948 -0.6098  0.7004  0.4683
  814SOL     OW 2440   0.116   0.042   1.295 -0.1244  0.2731  0.4302
  814SOL    HW1 2441   0.171   0.131   1.276 -1.0765 -1.0208  1.2862
  814SOL    HW2 2442   0.179   3.037   1.335  2.4193  0.2367  2.4773
  815SOL     OW 2443   0.301   0.294   0.947  0.0087  0.1662  0.2228
  815SOL    HW1 2444   0.394   0.293   0.907  0.8181 -0.1345 -0.2815
  815SOL    HW2 2445   0.259   0.203   0.929  0.7250 -3.4394 -2.0062
  816SOL     OW 2446   2.793   1.641   2.101 -0.2214 -0.1014 -0.0821
  816SOL    HW1 2447   2.832   1.736   2.105  0.1867 -0.0705  1.8957
  816SOL    HW2 2448   2.793   1.608   2.002 -3.7312  0.2495  0.6014
  817SOL     OW 2449   1.119   0.010   0.182 -0.3229  0.4700  1.1273
  817SOL    HW1 2450   1.046   0.072   0.216 -0.3139 -1.8296  3.2683
  817SOL    HW2 2451   1.130   3.001   0.238 -0.5954  1.4090 -0.9273
  818SOL     OW 2452   1.583   0.661   0.194 -0.5034 -0.0324  0.0362
  818SOL    HW1 2453   1.655   0.680   0.125 -0.1651 -1.3676  1.1962
  818SOL    HW2 2454   1.595   0.562   0.223 -0.1155 -1.8602  0.1941
  819SOL     OW 2455   2.185   2.700   2.938  0.0155 -0.2742 -0.0411
  819SOL    HW1 2456   2.158   2.601   2.945 -0.2681 -0.0468  1.7794
  819SOL    HW2 2457   2.157   2.747   3.025 -1.2791  0.4623 -0.2733
  820SOL     OW 2458   1.445   1.072   2.799  0.2387  0.0398  0.2915
  820SOL    HW1 2459   1.474   0.990   2.851  1.2063 -0.3121 -0.2590
  820SOL    HW2 2460   1.513   1.149   2.827 -0.8962  2.2860  1.9876
  821SOL     OW 2461   0.067   0.590   1.349  0.7887 -0.1995 -0.0508
  821SOL    HW1 2462   0.155   0.560   1.386 -0.9528  0.8536  0.6984
  821SOL    HW2 2463   0.029   0.517   1.291 -1.5794 -0.6709 -0.0277
  822SOL     OW 2464   1.187   2.534   2.543  0.6919 -0.6729  0.3210
  822SOL    HW1 2465   1.281   2.529   2.501  2.7649 -0.9851  1.1197
  822SOL    HW2 2466   1.124   2.475   2.493  2.2075  0.7208  2.0702
  823SOL     OW 2467   0.425   1.301   1.568 -0.2107 -0.2224  0.5017
  823SOL    HW1 2468   0.479   1.389   1.579 -1.9378  1.2817  1.1681
  823SOL    HW2 2469   0.466   1.232   1.631 -0.7811 -0.5536  0.2497
  824SOL     OW 2470   1.690   2.780   2.218 -0.1445  0.2261  0.0687
  824SOL    HW1 2471   1.629   2.774   2.301 -0.8703 -1.7289 -4.0212
  824SOL    HW2 2472   1.656   2.851   2.154 -3.2301 -4.1329  3.3267
  825SOL     OW 2473   1.213   1.158   0.017 -0.7004 -0.1173  0.3582
  825SOL    HW1 2474   1.232   1.078   0.079  0.2034  0.0344 -2.3151
  825SOL    HW2 2475   1.149   1.232   0.058 -1.3401  3.3178  1.8855
  826SOL     OW 2476   2.195   0.713   2.799  0.0623  0.0433 -0.3899
  826SOL    HW1 2477   2.112   0.749   2.763 -0.7315 -0.0286 -0.4337
  826SOL    HW2 2478   2.219   0.759   2.885 -0.0615  1.1166 -2.0245
  827SOL     OW 2479   0.324   2.226   2.733  0.3094  0.0589 -0.6307
  827SOL    HW1 2480   0.263   2.282   2.669 -1.3527  0.1291 -0.5720
  827SOL    HW2 2481   0.305   2.125   2.728 -1.5236 -0.1043 -0.1223
  828SOL     OW 2482   2.888   0.513   1.626 -0.1374  0.0576 -0.2107
  828SOL    HW1 2483   2.894   0.425   1.676  0.6079  0.1230  0.4750
  828SOL    HW2 2484   2.895   0.596   1.680 -1.3440  0.2076 -0.9203
  829SOL     OW 2485   0.774   1.483   1.062 -0.6728 -0.5197 -0.0195
  829SOL    HW1 2486   0.757   1.566   1.003 -1.2487 -0.7358 -0.7145
  829SOL    HW2 2487   0.866   1.443   1.055 -0.1634 -1.2702 -0.8553
  830SOL     OW 2488   0.768   1.119   1.430 -0.6583 -0.4575 -0.5155
  830SOL    HW1 2489   0.745   1.211   1.401  0.4894 -0.8668 -0.7576
  830SOL    HW2 2490   0.684   1.060   1.446 -3.0140  0.7704 -0.7669
  831SOL     OW 2491   0.402   1.917   0.026  0.0011  0.2528  0.5385
  831SOL    HW1 2492   0.349   1.838   0.055 -0.2444 -0.7144 -1.2460
  831SOL    HW2 2493   0.344   1.967   3.029  1.5877 -0.6416  0.9133
  832SOL     OW 2494   0.842   2.978   2.937  0.2782  0.3688 -0.2825
  832SOL    HW1 2495   0.814   2.975   2.840  0.0516  0.7938  0.5535
  832SOL    HW2 2496   0.785   3.050   2.981 -0.1983 -0.3611  0.7022
  833SOL     OW 2497   0.269   0.388   1.861 -0.1377 -0.2931  0.1357
  833SOL    HW1 2498   0.208   0.308   1.875  1.0578  0.4280 -0.6762
  833SOL    HW2 2499   0.221   0.472   1.900 -0.3975  3.5351  4.2302
  834SOL     OW 2500   2.906   0.432   0.955  0.5596 -0.3109 -0.3106
  834SOL    HW1 2501   2.823   0.471   1.002  1.1427 -2.4050 -2.2994
  834SOL    HW2 2502   2.921   0.479   0.864  2.2981 -0.0486 -0.5257
  835SOL     OW 2503   2.619   0.176   0.938 -0.6075 -0.1805  0.8103
  835SOL    HW1 2504   2.717   0.156   0.920  1.6707 -1.0576 -1.8119
  835SOL    HW2 2505   2.603   0.203   1.032  1.0339 -0.1630 -1.9074
  836SOL     OW 2506   3.030   2.029   2.839 -0.1171  0.4098 -0.3561
  836SOL    HW1 2507   3.027   2.110   2.774  2.0867  2.5078 -0.2997
  836SOL    HW2 2508   2.999   2.044   2.936 -3.7235 -1.0378  0.6627
  837SOL     OW 2509   1.742   1.948   2.972  0.0328  0.2768  0.4144
  837SOL    HW1 2510   1.824   2.009   2.972 -1.7659 -0.4657 -1.9995
  837SOL    HW2 2511   1.717   1.932   2.877  0.8545  0.0507 -1.9804
  838SOL     OW 2512   2.812   0.957   1.497  0.3680  0.2271  0.4295
  838SOL    HW1 2513   2.901   0.914   1.471  1.6338 -0.0559 -2.6188
  838SOL    HW2 2514   2.757   0.879   1.539  0.4857 -2.4034  1.4500
  839SOL     OW 2515   1.256   0.786   0.750  0.8841 -0.3680 -0.0700
  839SOL    HW1 2516   1.158   0.805   0.761  3.0558 -0.9346  2.3255
  839SOL    HW2 2517   1.277   0.736   0.665 -1.2273 -0.0658 -0.1465
  840SOL     OW 2518   1.587   0.177   1.006 -0.2179  0.0315 -0.1044
  840SOL    HW1 2519   1.532   0.124   0.941 -1.5431  0.4923 -2.0679
  840SOL    HW2 2520   1.561   0.272   1.001 -1.0476 -3.2890 -0.6196
  841SOL     OW 2521   0.317   2.807   0.583  0.0671 -0.1542 -0.5280
  841SOL    HW1 2522   0.275   2.867   0.513  3.1748  1.0104  0.1981
  841SOL    HW2 2523   0.399   2.857   0.616 -2.8587  2.6840  1.3483
  842SOL     OW 2524   0.477   0.680   0.495 -0.2291 -0.2694 -0.3438
  842SOL    HW1 2525   0.541   0.635   0.561 -0.6451 -1.9845  0.3991
  842SOL    HW2 2526   0.379   0.664   0.514  1.1445  0.4912 -0.4691
  843SOL     OW 2527   0.973   1.152   1.606 -0.2405  0.0611  0.0486
  843SOL    HW1 2528   0.938   1.195   1.690  0.6959  0.0913 -1.3962
  843SOL    HW2 2529   0.896   1.136   1.541  2.0421 -0.9036 -1.0959
  844SOL     OW 2530   1.341   2.117   0.144  0.0178  0.2632 -0.2095
  844SOL    HW1 2531   1.425   2.060   0.134  1.3113  0.3688  1.5202
  844SOL    HW2 2532   1.365   2.212   0.118 -0.5326 -1.9519  3.0915
  845SOL     OW 2533   2.341   2.559   2.126 -0.4390 -0.4828 -0.3033
  845SOL    HW1 2534   2.283   2.640   2.117  2.1443 -2.9379  1.3709
  845SOL    HW2 2535   2.353   2.518   2.034  0.1785  2.5696  0.2140
  846SOL     OW 2536   1.944   2.113   2.915  0.1213  0.1061  0.0066
  846SOL    HW1 2537   1.934   2.162   2.828 -1.4904  1.6411  3.5718
  846SOL    HW2 2538   1.976   2.183   2.979 -0.5174  2.1073 -1.1550
  847SOL     OW 2539   1.882   2.852   2.524 -0.0008 -0.0438 -0.0192
  847SOL    HW1 2540   1.957   2.856   2.454 -0.8325 -0.2818  1.3283
  847SOL    HW2 2541   1.923   2.810   2.607  2.1485 -1.1079 -0.2586
  848SOL     OW 2542   0.785   0.533   0.479  0.0149 -0.4214 -0.1665
  848SOL    HW1 2543   0.795   0.472   0.402  1.4941  1.8958  0.6559
  848SOL    HW2 2544   0.712   0.505   0.542 -0.0855  2.0213  0.1970
  849SOL     OW 2545   0.741   2.725   1.045  0.1246  0.5254  0.4197
  849SOL    HW1 2546   0.666   2.790   1.040  1.5845 -2.8788 -0.3294
  849SOL    HW2 2547   0.824   2.760   1.088 -0.3327  1.9853 -2.4251
  850SOL     OW 2548   0.223   1.723   0.151 -0.2086  0.3612  0.1293
  850SOL    HW1 2549   0.249   1.800   0.219  0.9779 -0.2227  1.6123
  850SOL    HW2 2550   0.138   1.746   0.097  0.5080  0.0152 -0.2208
  851SOL     OW 2551   0.255   0.963   0.341  0.0881 -0.3593 -0.0565
  851SOL    HW1 2552   0.181   1.012   0.289 -1.9083  0.6419  1.7884
  851SOL    HW2 2553   0.217   0.895   0.407  0.1838 -3.7278  1.2058
  852SOL     OW 2554   1.863   1.976   1.640  0.0270 -0.4224  0.3712
  852SOL    HW1 2555   1.807   2.015   1.716 -1.0614 -2.0170  0.4075
  852SOL    HW2 2556   1.802   1.964   1.560  0.4436  1.3511 -1.6030
  853SOL     OW 2557   0.305   1.923   0.315  0.4320 -0.4167  0.4991
  853SOL    HW1 2558   0.286   1.902   0.414  0.8066  4.1015  1.5360
  853SOL    HW2 2559   0.373   1.997   0.312 -0.2189 -0.1700  1.5652
  854SOL     OW 2560   1.834   1.264   1.415  0.2859 -0.0538  0.2912
  854SOL    HW1 2561   1.879   1.210   1.344 -2.5974  2.3024  1.1287
  854SOL    HW2 2562   1.849   1.222   1.508 -4.1704  2.3592 -1.3073
  855SOL     OW 2563   0.798   2.338   0.164  0.2233 -0.1266  0.2958
  855SOL    HW1 2564   0.879   2.388   0.125  1.2025  0.3329  2.3344
  855SOL    HW2 2565   0.730   2.302   0.095 -1.1777  1.9060  0.2834
  856SOL     OW 2566   2.928   0.246   2.091  0.4801 -0.3918 -0.0502
  856SOL    HW1 2567   2.863   0.281   2.022  0.7176  2.0473  0.9624
  856SOL    HW2 2568   2.911   0.300   2.173 -1.6296 -0.7331 -2.3075
  857SOL     OW 2569   0.707   0.624   1.824 -0.0780 -0.1198 -0.6632
  857SOL    HW1 2570   0.735   0.529   1.815  1.2498  3.0358  1.1214
  857SOL    HW2 2571   0.740   0.676   1.742 -2.4213  0.2432 -1.1349
  858SOL     OW 2572   0.247   1.222   2.217  0.2186 -0.5442 -0.2716
  858SOL    HW1 2573   0.188   1.293   2.256  1.1443 -1.1676 -0.6666
  858SOL    HW2 2574   0.338   1.220   2.261 -2.0526 -0.4736 -0.4051
  859SOL     OW 2575   2.202   0.132   0.400  0.3974 -0.4903  0.3135
  859SOL    HW1 2576   2.159   0.215   0.358  0.4311  0.4074  0.9391
  859SOL    HW2 2577   2.239   0.155   0.489  0.0687 -1.2416 -0.4915
  860SOL     OW 2578   1.618   2.883   2.839  0.0020  0.0335 -0.8854
  860SOL    HW1 2579   1.579   2.928   2.757  1.7138 -1.5947  1.5837
  860SOL    HW2 2580   1.705   2.927   2.879  2.3260 -0.2806  0.9848
  861SOL     OW 2581   0.241   0.606   0.551 -0.0235  0.2301  0.1993
  861SOL    HW1 2582   0.158   0.654   0.518 -1.1336  4.1099 -0.9697
  861SOL    HW2 2583   0.224   0.562   0.642 -1.2853 -0.3564  1.0322
  862SOL     OW 2584   1.721   0.321   2.102  0.1432  0.0915  0.5430
  862SOL    HW1 2585   1.806   0.313   2.050 -0.3646 -1.9587  0.3165
  862SOL    HW2 2586   1.673   0.234   2.083 -1.4730 -1.8389 -0.9253
  863SOL     OW 2587   0.019   2.008   1.247 -0.3052  0.2294 -0.5069
  863SOL    HW1 2588   0.088   2.031   1.176 -0.2264  0.7371  0.8212
  863SOL    HW2 2589   3.006   2.073   1.241  0.9024  1.8849  0.4282
  864SOL     OW 2590   2.358   2.846   1.846  0.0818 -0.5165 -0.1936
  864SOL    HW1 2591   2.344   2.948   1.845 -1.0401 -0.0760  0.9116
  864SOL    HW2 2592   2.268   2.796   1.864 -1.7289 -3.4579  1.8206
  865SOL     OW 2593   0.934   0.193   1.196  0.0058  0.0250 -0.3696
  865SOL    HW1 2594   1.035   0.207   1.182  1.3686  0.2848 -0.2793
  865SOL    HW2 2595   0.891   0.143   1.119  0.4958 -2.4398 -2.5013
  866SOL     OW 2596   2.479   2.936   0.549 -0.4118 -0.9452 -0.2270
  866SOL    HW1 2597   2.510   2.903   0.461 -1.5469 -0.4522 -0.3057
  866SOL    HW2 2598   2.511   2.871   0.623 -0.3217 -0.7319  0.6591
  867SOL     OW 2599   2.869   2.888   0.519 -0.0346  0.3367  0.0449
  867SOL    HW1 2600   2.872   2.793   0.486  1.2329 -1.8847  0.1505
  867SOL    HW2 2601   2.804   2.895   0.599 -0.5010 -0.3589 -0.0391
  868SOL     OW 2602   1.291   2.317   2.235 -0.4682  0.8568 -0.6862
  868SOL    HW1 2603   1.371   2.283   2.187 -3.1046  1.1678  2.1918
  868SOL    HW2 2604   1.204   2.298   2.189  3.3778  0.1731  2.2623
  869SOL     OW 2605   1.929   1.699   0.384 -0.2694 -0.0265  0.0244
  869SOL    HW1 2606   1.975   1.693   0.293  1.7386  0.6768 -0.8858
  869SOL    HW2 2607   1.832   1.667   0.383 -0.1347 -0.1369 -3.9826
  870SOL     OW 2608   2.544   2.407   0.661  0.9012  0.4712  0.6469
  870SOL    HW1 2609   2.466   2.476   0.661  0.9593  2.3937  2.1746
  870SOL    HW2 2610   2.609   2.422   0.733 -1.0968 -1.7686 -1.1286
  871SOL     OW 2611   0.068   1.184   1.345 -0.1436 -0.1946 -0.4077
  871SOL    HW1 2612   0.096   1.281   1.335  1.5206  1.1846 -0.5109
  871SOL    HW2 2613   0.015   1.172   1.435 -3.0495  2.1161  1.8901
  872SOL     OW 2614   0.506   1.707   2.515 -0.5492  0.4335  0.3969
  872SOL    HW1 2615   0.544   1.671   2.602  0.8901  0.5191  0.1118
  872SOL    HW2 2616   0.513   1.808   2.522  0.1736  1.2413  0.9431
  873SOL     OW 2617   0.251   2.781   1.929 -0.3958  0.7625  0.4596
  873SOL    HW1 2618   0.308   2.699   1.915 -0.2807 -0.8590 -1.4776
  873SOL    HW2 2619   0.236   2.836   1.847  1.9336 -1.4606  1.6745
  874SOL     OW 2620   1.201   0.869   2.100  0.1862  0.5194  0.4691
  874SOL    HW1 2621   1.289   0.815   2.099 -1.3290 -0.5823 -0.2419
  874SOL    HW2 2622   1.225   0.965   2.122  1.5805  1.7991  0.9498
  875SOL     OW 2623   2.518   2.785   1.220 -0.0372  0.0940 -0.1703
  875SOL    HW1 2624   2.530   2.877   1.266 -1.9686 -0.4222  2.6467
  875SOL    HW2 2625   2.424   2.766   1.194 -0.7593 -0.7308 -0.0368
  876SOL     OW 2626   1.014   1.365   1.032  0.3086 -0.6547  0.0096
  876SOL    HW1 2627   1.045   1.288   1.095  1.6661 -0.0823  0.4058
  876SOL    HW2 2628   1.081   1.371   0.953 -1.3079  0.0023 -0.4392
  877SOL     OW 2629   0.138   0.257   1.558  0.9110  0.3422  0.7775
  877SOL    HW1 2630   0.172   0.350   1.536 -3.7219 -1.2568  0.7257
  877SOL    HW2 2631   0.216   0.203   1.598  1.1090  0.3298 -0.7475
  878SOL     OW 2632   2.640   1.623   2.749  0.2174  0.4877 -0.7997
  878SOL    HW1 2633   2.680   1.668   2.836  2.9769  0.1540  1.3859
  878SOL    HW2 2634   2.598   1.532   2.767  0.8147 -0.5354 -1.5527
  879SOL     OW 2635   2.576   1.953   1.188 -0.3240  0.1700  0.0790
  879SOL    HW1 2636   2.495   2.001   1.226  1.5660 -0.5439 -0.1076
  879SOL    HW2 2637   2.645   1.949   1.261 -0.3356 -0.3623 -1.1045
  880SOL     OW 2638   0.861   2.325   1.117  0.4893  0.1031 -0.1302
  880SOL    HW1 2639   0.833   2.354   1.022  1.1192 -0.6603  0.0794
  880SOL    HW2 2640   0.927   2.248   1.105  0.4977  1.8253  0.4933
  881SOL     OW 2641   1.299   1.690   0.993 -0.2453  0.0411  0.1478
  881SOL    HW1 2642   1.207   1.677   0.956 -0.0322  1.3587  0.6404
  881SOL    HW2 2643   1.333   1.612   1.057  0.2419  1.1836  0.0938
  882SOL     OW 2644   2.638   0.957   2.464  0.0367 -0.1878  0.1948
  882SOL    HW1 2645   2.611   1.002   2.373 -0.3663 -0.3774 -2.0417
  882SOL    HW2 2646   2.681   0.865   2.445  1.6538  1.6594  0.6275
  883SOL     OW 2647   1.234   0.362   0.896 -0.5167  0.1422  0.7078
  883SOL    HW1 2648   1.152   0.414   0.857 -0.0559  0.3403  1.1785
  883SOL    HW2 2649   1.215   0.262   0.880 -1.4867  2.2734  1.2884
  884SOL     OW 2650   2.926   2.867   1.126  0.1565 -0.4077 -0.3916
  884SOL    HW1 2651   3.010   2.919   1.100 -2.3929  0.4070 -2.8748
  884SOL    HW2 2652   2.876   2.908   1.205 -3.3535 -0.5238 -2.2917
  885SOL     OW 2653   1.182   1.214   1.466  0.0815  0.0472  0.1222
  885SOL    HW1 2654   1.095   1.198   1.522 -0.2211 -1.9681  0.4313
  885SOL    HW2 2655   1.257   1.243   1.524 -3.4077 -0.7468 -1.3337
  886SOL     OW 2656   1.117   0.956   2.915 -0.2732  0.4233 -0.0266
  886SOL    HW1 2657   1.150   1.020   2.991 -1.0256  2.1665  3.5159
  886SOL    HW2 2658   1.154   0.987   2.825 -0.2453  2.2891 -0.8466
  887SOL     OW 2659   1.371   0.326   0.625  0.1333 -0.2250  1.0132
  887SOL    HW1 2660   1.346   0.379   0.707 -1.1944 -1.1327  1.1334
  887SOL    HW2 2661   1.311   0.248   0.606  1.5530  0.4188 -0.5531
  888SOL     OW 2662   2.028   1.362   1.857  0.0000  0.2066 -0.3506
  888SOL    HW1 2663   2.061   1.449   1.898 -1.9447 -1.9768  0.1449
  888SOL    HW2 2664   2.078   1.282   1.898  0.9424 -1.9224  0.5738
  889SOL     OW 2665   2.922   2.233   1.284 -0.3862 -0.0294  0.0064
  889SOL    HW1 2666   2.931   2.254   1.186 -0.4507  1.2351 -1.3705
  889SOL    HW2 2667   2.825   2.236   1.314 -2.4262  2.6782 -0.9185
  890SOL     OW 2668   1.355   1.971   0.478  0.0367  0.1974  0.1533
  890SOL    HW1 2669   1.383   2.070   0.484 -1.3076  1.9068 -0.2506
  890SOL    HW2 2670   1.296   1.950   0.399  1.5658  1.2707 -2.0222
  891SOL     OW 2671   2.505   0.656   2.257 -0.3441  0.5629 -0.1495
  891SOL    HW1 2672   2.570   0.670   2.330  0.4664  2.6687 -0.0208
  891SOL    HW2 2673   2.471   0.560   2.253 -1.2336  0.7763 -0.3377
  892SOL     OW 2674   0.242   2.769   1.610  0.6126  0.2215 -0.0974
  892SOL    HW1 2675   0.260   2.834   1.531 -0.1131 -1.2433 -0.4477
  892SOL    HW2 2676   0.334   2.727   1.641  2.1965 -0.0853 -3.0133
  893SOL     OW 2677   1.100   0.440   2.367 -0.3197  0.5695  0.4847
  893SOL    HW1 2678   1.075   0.394   2.455  0.5091 -0.0534 -1.7537
  893SOL    HW2 2679   1.166   0.517   2.383 -1.0101 -2.9434 -0.9747
  894SOL     OW 2680   2.644   0.551   0.651  0.6149 -0.3555 -0.3719
  894SOL    HW1 2681   2.614   0.516   0.743  0.3346 -3.2868  0.1084
  894SOL    HW2 2682   2.735   0.516   0.622  2.1073  1.0668 -0.7718
  895SOL     OW 2683   1.710   1.797   2.290  0.7557 -0.1994 -0.0186
  895SOL    HW1 2684   1.708   1.720   2.355 -2.7430  1.2909  1.8379
  895SOL    HW2 2685   1.611   1.827   2.291 -0.8986 -0.1531 -0.5024
  896SOL     OW 2686   1.586   0.440   1.419 -0.4101  0.5499 -0.2486
  896SOL    HW1 2687   1.639   0.356   1.444 -0.9359  0.0681 -0.8900
  896SOL    HW2 2688   1.487   0.427   1.402 -0.3555  0.5381  1.9497
  897SOL     OW 2689   0.746   1.794   1.717  0.1513 -0.4749  0.5648
  897SOL    HW1 2690   0.768   1.702   1.686 -0.0155  0.3294  1.7719
  897SOL    HW2 2691   0.711   1.853   1.640  0.1923 -0.2206 -0.9787
  898SOL     OW 2692   1.874   1.740   2.068  0.0669 -0.1931 -0.1606
  898SOL    HW1 2693   1.836   1.687   1.988  0.2278  2.6010  1.4398
  898SOL    HW2 2694   1.807   1.746   2.144  2.4955  1.5900 -2.0483
  899SOL     OW 2695   1.886   2.067   0.827 -0.4022  0.6286 -0.4496
  899SOL    HW1 2696   1.945   1.984   0.823 -0.1371 -1.2309 -1.6561
  899SOL    HW2 2697   1.843   2.077   0.922 -2.8636  1.2501  1.2129
  900SOL     OW 2698   0.983   0.027   2.508  0.2483 -0.2122  0.0351
  900SOL    HW1 2699   0.962   3.018   2.566  0.0715 -3.3426  0.2929
  900SOL    HW2 2700   1.066   0.079   2.534  1.5854  1.1246  0.4572
  901SOL     OW 2701   1.174   1.476   2.337  0.0449 -0.2127  0.3727
  901SOL    HW1 2702   1.102   1.551   2.341 -3.4951  1.3824  1.6797
  901SOL    HW2 2703   1.243   1.505   2.267  2.5195 -1.0959 -2.2817
  902SOL     OW 2704   2.145   0.472   2.941 -0.4838 -0.3303 -0.0605
  902SOL    HW1 2705   2.176   0.553   2.889  0.8230 -0.5787 -2.4702
  902SOL    HW2 2706   2.120   0.502   3.035  1.4679 -1.2109 -1.3240
  903SOL     OW 2707   2.128   0.948   2.098  0.1548 -0.0954  0.6556
  903SOL    HW1 2708   2.080   0.857   2.095 -0.7219 -3.4240 -1.1291
  903SOL    HW2 2709   2.153   0.982   2.192 -0.7430  1.5298 -1.6305
  904SOL     OW 2710   1.904   1.156   1.660  0.1218  0.1977 -0.4907
  904SOL    HW1 2711   1.981   1.086   1.655  1.7274  0.4307 -0.6848
  904SOL    HW2 2712   1.928   1.236   1.719 -0.9595 -2.1764 -1.9676
  905SOL     OW 2713   2.224   0.571   0.628  0.0320 -0.1634 -0.1802
  905SOL    HW1 2714   2.309   0.511   0.629 -0.5366 -2.7329  0.2659
  905SOL    HW2 2715   2.185   0.576   0.724  0.4404 -0.7418  0.3931
  906SOL     OW 2716   2.344   1.772   0.558  0.4224  0.7797 -0.1313
  906SOL    HW1 2717   2.379   1.740   0.469  0.0229 -0.5146  1.3851
  906SOL    HW2 2718   2.243   1.791   0.552 -1.4758  1.2841  0.9289
  907SOL     OW 2719   1.631   2.888   0.417  0.2402  0.2870  0.2687
  907SOL    HW1 2720   1.723   2.851   0.441  1.4573 -2.9668  0.1920
  907SOL    HW2 2721   1.639   2.972   0.362 -0.3921 -2.1158 -2.1234
  908SOL     OW 2722   1.563   2.178   2.199 -0.3458  0.0823  0.4051
  908SOL    HW1 2723   1.552   2.245   2.127  0.7256  0.0109  3.0999
  908SOL    HW2 2724   1.652   2.193   2.243 -0.7653  2.6995  0.0083
  909SOL     OW 2725   2.157   0.472   1.959  0.7274  0.0262  0.4012
  909SOL    HW1 2726   2.196   0.477   2.054 -2.4060 -2.3177  2.3070
  909SOL    HW2 2727   2.133   0.561   1.916 -2.3278 -0.2411 -1.8195
  910SOL     OW 2728   1.289   0.211   2.526  0.1724 -0.0070 -0.2836
  910SOL    HW1 2729   1.202   0.251   2.556  1.4933 -3.2616 -0.1488
  910SOL    HW2 2730   1.328   0.169   2.612  0.5186 -0.5500  1.9963
  911SOL     OW 2731   2.726   1.057   2.861  0.0773 -0.0469  0.0786
  911SOL    HW1 2732   2.641   1.000   2.877  2.1197  0.9624 -1.1744
  911SOL    HW2 2733   2.751   1.105   2.949 -0.5295 -2.9284 -2.1750
  912SOL     OW 2734   3.069   2.247   1.629  0.2323  0.0110  0.1989
  912SOL    HW1 2735   3.016   2.330   1.610  1.9877  0.9967  0.2484
  912SOL    HW2 2736   0.047   2.258   1.715 -0.4573  2.1946 -0.6479
  913SOL     OW 2737   2.669   1.911   2.577 -0.4561  0.2733 -0.0913
  913SOL    HW1 2738   2.598   1.840   2.566 -0.1870  2.8702 -0.7908
  913SOL    HW2 2739   2.766   1.884   2.554  0.9022  2.6128  0.1048
  914SOL     OW 2740   2.133   1.579   0.807 -0.1930  0.0857 -0.1464
  914SOL    HW1 2741   2.121   1.550   0.710  0.2021 -0.8450 -0.2506
  914SOL    HW2 2742   2.093   1.669   0.822 -0.4411 -2.7823 -0.3277
  915SOL     OW 2743   0.242   2.763   2.201 -0.2520 -0.3435  0.0924
  915SOL    HW1 2744   0.331   2.734   2.242  0.3986  1.4108  3.5106
  915SOL    HW2 2745   0.246   2.783   2.103  0.8726 -0.3423  1.9532
  916SOL     OW 2746   0.611   2.562   0.833  0.4478  0.1029 -0.1474
  916SOL    HW1 2747   0.672   2.621   0.878 -0.8236 -4.0698 -1.2362
  916SOL    HW2 2748   0.553   2.615   0.764 -0.5111  1.0438 -0.5677
  917SOL     OW 2749   2.317   0.595   2.591 -0.0571  0.0568  0.4789
  917SOL    HW1 2750   2.263   0.641   2.668 -1.9449 -0.7988  0.6408
  917SOL    HW2 2751   2.299   0.641   2.502  0.1376  1.0367  1.5396
  918SOL     OW 2752   1.641   2.349   2.476 -0.0315  0.4960  0.1143
  918SOL    HW1 2753   1.678   2.425   2.537  0.8080 -0.0103 -0.1856
  918SOL    HW2 2754   1.699   2.340   2.394  0.5948 -1.5957  0.8024
  919SOL     OW 2755   1.791   2.147   1.066  0.8207  0.2752 -0.2463
  919SOL    HW1 2756   1.836   2.099   1.143 -0.6480  0.5811 -0.9102
  919SOL    HW2 2757   1.693   2.171   1.085 -0.3885 -0.1326  1.1952
  920SOL     OW 2758   1.412   0.128   2.305 -0.0069  0.3026  0.7050
  920SOL    HW1 2759   1.352   0.152   2.385  0.2032 -2.1330 -0.8392
  920SOL    HW2 2760   1.416   0.026   2.286  0.9628 -3.2858  0.9016
  921SOL     OW 2761   0.159   0.788   2.544  0.0978  0.1565  0.0237
  921SOL    HW1 2762   0.252   0.779   2.512 -1.0324  1.0391 -0.5695
  921SOL    HW2 2763   0.131   0.702   2.594 -1.2026 -1.7370  1.0724
  922SOL     OW 2764   2.769   1.890   1.357  0.3444 -0.0776 -0.7745
  922SOL    HW1 2765   2.869   1.900   1.363 -0.9527  4.0008 -0.6887
  922SOL    HW2 2766   2.738   1.878   1.454 -0.6216 -0.1915  0.5340
  923SOL     OW 2767   0.041   1.376   2.319  0.2367  0.2627 -0.3364
  923SOL    HW1 2768   3.063   1.398   2.229  0.5307  2.7347 -1.1162
  923SOL    HW2 2769   0.068   1.459   2.373 -0.1279  0.8942  0.5341
  924SOL     OW 2770   1.506   0.158   2.032  0.0676 -0.0967 -0.0262
  924SOL    HW1 2771   1.431   0.113   1.974 -0.8682 -0.1250  2.7405
  924SOL    HW2 2772   1.491   0.151   2.132  2.4836 -1.5817  0.6526
  925SOL     OW 2773   0.094   1.198   0.638  0.4523  0.2499  0.3828
  925SOL    HW1 2774   0.123   1.290   0.673  0.3611  0.4940  1.3691
  925SOL    HW2 2775   0.174   1.135   0.641  1.0794  2.9480 -1.6484
  926SOL     OW 2776   2.381   0.634   0.987  0.2415  0.0517 -0.1031
  926SOL    HW1 2777   2.439   0.589   0.920 -0.0829  2.9130  2.3386
  926SOL    HW2 2778   2.438   0.696   1.048 -0.3918 -1.8627  1.5312
  927SOL     OW 2779   1.585   0.471   0.975  0.3422  0.0802  0.1412
  927SOL    HW1 2780   1.609   0.555   0.921  1.5979  1.8860 -3.4143
  927SOL    HW2 2781   1.489   0.481   1.004 -0.0579 -1.0634  1.4886
  928SOL     OW 2782   2.940   0.672   2.314 -0.2160 -0.1275 -0.8906
  928SOL    HW1 2783   2.985   0.761   2.329  0.0069  2.7247 -0.6428
  928SOL    HW2 2784   2.985   0.622   2.237  1.3387 -0.6661 -0.8943
  929SOL     OW 2785   2.192   0.816   1.089 -0.1815 -0.2582  0.1185
  929SOL    HW1 2786   2.283   0.775   1.059  1.9302  2.2540 -4.0100
  929SOL    HW2 2787   2.192   0.921   1.074  1.4438  0.0489  0.7055
  930SOL     OW 2788   1.930   2.368   0.952 -0.0997  0.1260 -0.2398
  930SOL    HW1 2789   1.971   2.372   0.859  1.3688 -0.3846 -0.6074
  930SOL    HW2 2790   1.872   2.287   0.966  0.9795  1.7318 -1.6069
  931SOL     OW 2791   1.971   1.116   1.246 -0.0727 -0.1469 -0.3464
  931SOL    HW1 2792   1.927   1.024   1.247 -1.1581 -0.0294 -0.6392
  931SOL    HW2 2793   2.012   1.127   1.160 -0.7422  1.1884  1.4113
  932SOL     OW 2794   2.997   1.149   1.572 -0.1271 -0.3428 -0.4819
  932SOL    HW1 2795   2.919   1.095   1.533 -0.1791  2.2056 -4.0512
  932SOL    HW2 2796   3.018   1.112   1.669 -1.8329 -0.9318  1.8175
  933SOL     OW 2797   2.112   1.604   1.974 -0.3191  0.1946 -0.4504
  933SOL    HW1 2798   2.038   1.655   1.924 -2.7312 -0.7717 -0.1977
  933SOL    HW2 2799   2.205   1.628   1.930 -0.9242 -1.9575  0.1709
  934SOL     OW 2800   1.514   2.846   1.717 -0.4429  0.0263 -0.5063
  934SOL    HW1 2801   1.421   2.816   1.693 -0.6859  1.3902  0.3967
  934SOL    HW2 2802   1.582   2.807   1.651 -0.8198  0.9003 -0.8987
  935SOL     OW 2803   2.994   0.987   1.181 -0.3646  0.0361 -0.3093
  935SOL    HW1 2804   3.035   1.043   1.255  0.5384 -1.8540  0.0385
  935SOL    HW2 2805   2.902   0.948   1.206 -1.6692 -0.8175 -0.1798
  936SOL     OW 2806   2.761   0.729   1.287  0.6728  0.0932 -0.1347
  936SOL    HW1 2807   2.844   0.742   1.344 -0.6528  2.1638 -2.5658
  936SOL    HW2 2808   2.724   0.819   1.248  2.0251  0.8112 -3.0914
  937SOL     OW 2809   0.864   0.079   1.469 -0.0327  0.0197 -0.1928
  937SOL    HW1 2810   0.938   0.146   1.465  0.3905  0.8663  0.3005
  937SOL    HW2 2811   0.862   0.034   1.563  0.5054  0.7699  0.8662
  938SOL     OW 2812   0.444   2.675   1.036 -0.0246  0.2416  0.0356
  938SOL    HW1 2813   0.478   2.584   0.998  1.0300 -2.6665  1.3973
  938SOL    HW2 2814   0.375   2.723   0.977 -1.7416  0.6037 -0.8067
  939SOL     OW 2815   2.641   2.134   2.765  0.0136  0.1667 -0.6368
  939SOL    HW1 2816   2.643   2.062   2.689  0.6437 -0.8854 -2.0771
  939SOL    HW2 2817   2.694   2.222   2.746 -2.6756  2.1129 -0.4049
  940SOL     OW 2818   1.788   1.681   0.013  0.1528  0.6743  0.3041
  940SOL    HW1 2819   1.885   1.676   0.055 -0.2388  0.7788  0.9156
  940SOL    HW2 2820   1.782   1.777   3.037  2.9410 -2.4977 -2.0550
  941SOL     OW 2821   1.765   2.750   0.663  0.7216  1.1010  0.0590
  941SOL    HW1 2822   1.707   2.688   0.604 -1.2683 -2.4054 -3.3359
  941SOL    HW2 2823   1.866   2.726   0.647  2.2421 -0.9818  1.0775
  942SOL     OW 2824   2.038   1.517   1.223  0.2779 -0.0898  0.3026
  942SOL    HW1 2825   2.059   1.463   1.137  0.5692 -0.2954 -0.1748
  942SOL    HW2 2826   2.117   1.508   1.283 -0.9621  0.1189 -1.3746
  943SOL     OW 2827   1.939   0.712   1.608 -0.1949 -0.1871  0.7361
  943SOL    HW1 2828   1.844   0.685   1.581 -1.7553  0.0835  0.7550
  943SOL    HW2 2829   1.955   0.811   1.585  1.3877  0.7755 -0.9825
  944SOL     OW 2830   1.341   0.857   1.758  0.3873 -0.2197  0.4902
  944SOL    HW1 2831   1.309   0.943   1.800 -0.8245  1.6669  0.4703
  944SOL    HW2 2832   1.349   0.858   1.654  0.9270 -1.3459 -1.5850
  945SOL     OW 2833   2.248   2.839   1.239 -0.1928 -0.4143 -0.4531
  945SOL    HW1 2834   2.265   2.860   1.137 -0.9448 -0.6346  0.3594
  945SOL    HW2 2835   2.213   2.918   1.294  1.9708  2.7714  2.2019
  946SOL     OW 2836   0.794   1.771   0.603  0.4279 -0.1269 -0.2901
  946SOL    HW1 2837   0.750   1.809   0.518 -0.0766 -0.9237 -1.4676
  946SOL    HW2 2838   0.859   1.700   0.579 -2.5945 -0.6820  1.9244
  947SOL     OW 2839   1.095   2.497   1.045  1.0869 -0.3597  0.3587
  947SOL    HW1 2840   1.163   2.501   0.968 -2.9440  1.8997 -1.9980
  947SOL    HW2 2841   1.004   2.483   1.006  1.1760 -0.3534  0.7882
  948SOL     OW 2842   0.209   1.543   1.654 -0.4396 -0.0353 -0.2409
  948SOL    HW1 2843   0.156   1.487   1.713  2.5650  0.7777 -0.5661
  948SOL    HW2 2844   0.204   1.499   1.558 -1.3547 -2.8119 -0.5072
  949SOL     OW 2845   0.518   1.070   1.729 -0.0842  0.5575 -0.4886
  949SOL    HW1 2846   0.489   0.996   1.797  2.4376  0.0718  1.1324
  949SOL    HW2 2847   0.602   1.119   1.768 -2.6641  0.0615  0.4019
  950SOL     OW 2848   0.441   0.642   1.273  0.5059 -0.0988 -0.1869
  950SOL    HW1 2849   0.505   0.706   1.321  0.4213  0.5894  0.4288
  950SOL    HW2 2850   0.437   0.670   1.175  0.6603  2.3054 -1.9819
  951SOL     OW 2851   0.841   2.116   2.042 -0.2340  0.8342 -0.0908
  951SOL    HW1 2852   0.797   2.033   2.082 -3.3578 -1.0738  1.3385
  951SOL    HW2 2853   0.906   2.154   2.109  0.1314  0.8551  0.8474
  952SOL     OW 2854   1.281   1.574   3.056 -0.3806 -0.6111 -0.0788
  952SOL    HW1 2855   1.287   1.534   0.083  0.9259 -2.1167  0.4159
  952SOL    HW2 2856   1.287   1.503   2.986 -0.7577  5.4087 -0.4101
  953SOL     OW 2857   0.926   2.884   2.676  0.3521 -0.2597 -0.1996
  953SOL    HW1 2858   0.860   2.813   2.665  1.2154  3.0979  1.3610
  953SOL    HW2 2859   1.011   2.846   2.725 -1.7884 -2.2440  3.4270
  954SOL     OW 2860   1.705   1.136   3.043 -0.3128  0.6174 -0.1751
  954SOL    HW1 2861   1.637   1.090   0.036  2.3546 -1.4005 -2.5160
  954SOL    HW2 2862   1.734   1.218   0.017 -0.6361 -3.6440  1.1827
  955SOL     OW 2863   0.203   2.559   2.984 -0.2098 -0.2530 -0.2493
  955SOL    HW1 2864   0.263   2.642   3.005 -2.1456 -2.2761 -0.1832
  955SOL    HW2 2865   0.120   2.582   2.927 -1.6476 -0.2862 -0.8519
  956SOL     OW 2866   1.214   0.864   1.485 -0.3414 -0.0270 -0.3604
  956SOL    HW1 2867   1.216   0.843   1.385 -0.6868 -0.2908  0.2040
  956SOL    HW2 2868   1.128   0.910   1.505  0.7608 -3.2713 -2.5840
  957SOL     OW 2869   1.599   1.894   1.930 -0.3962  0.2639  0.5079
  957SOL    HW1 2870   1.691   1.939   1.915 -0.2728 -2.0597 -0.3839
  957SOL    HW2 2871   1.543   1.955   1.985  1.2859 -0.4229  1.2779
  958SOL     OW 2872   1.210   2.100   1.510 -0.0138 -0.2367  0.4356
  958SOL    HW1 2873   1.291   2.085   1.571 -2.0024  0.6989 -0.2634
  958SOL    HW2 2874   1.240   2.132   1.414  1.2861  0.3666 -1.5520
  959SOL     OW 2875   1.562   1.138   0.932 -0.1134  0.4890  0.1999
  959SOL    HW1 2876   1.625   1.067   0.899 -1.4426 -0.6465  0.2085
  959SOL    HW2 2877   1.490   1.104   0.998 -0.7935 -0.7448  2.1125
  960SOL     OW 2878   0.283   1.313   2.966 -0.3873  0.2620 -0.3811
  960SOL    HW1 2879   0.298   1.383   3.034 -0.1322 -1.3959 -2.5855
  960SOL    HW2 2880   0.356   1.240   2.967  1.9013 -0.9158  1.0680
  961SOL     OW 2881   0.761   1.439   1.897 -0.0615  0.0890  0.2892
  961SOL    HW1 2882   0.674   1.459   1.951 -0.7423 -0.3655 -0.8312
  961SOL    HW2 2883   0.841   1.495   1.931  1.2879  0.4942 -0.2179
  962SOL     OW 2884   1.237   1.720   0.673 -0.0453 -0.4228  0.1777
  962SOL    HW1 2885   1.321   1.747   0.731  4.5366  2.4386  0.4476
  962SOL    HW2 2886   1.185   1.801   0.646  2.9661  0.2376 -1.2409
  963SOL     OW 2887   1.451   1.975   2.629  0.2742 -0.6641 -0.1073
  963SOL    HW1 2888   1.424   2.024   2.714 -0.3524 -1.5205  0.9760
  963SOL    HW2 2889   1.379   1.904   2.606 -1.9546 -2.8080 -1.2152
  964SOL     OW 2890   0.757   0.094   0.481 -0.0009 -0.4642 -0.1825
  964SOL    HW1 2891   0.670   0.143   0.509 -0.1312  0.0059 -1.1110
  964SOL    HW2 2892   0.745   3.062   0.485 -1.6025 -2.5463  0.9935
  965SOL     OW 2893   0.869   2.435   0.872 -0.1821  0.5259  0.1355
  965SOL    HW1 2894   0.773   2.441   0.838  0.8533  0.3771 -0.9796
  965SOL    HW2 2895   0.939   2.455   0.804 -2.8397 -0.2731  0.0379
  966SOL     OW 2896   0.218   1.931   2.817  0.7139  0.2316  0.0601
  966SOL    HW1 2897   0.251   1.911   2.725  1.7373 -0.4089 -0.2816
  966SOL    HW2 2898   0.114   1.952   2.822 -1.8768  4.4081 -0.7614
  967SOL     OW 2899   0.282   2.779   2.711 -0.8275 -0.4856  0.0862
  967SOL    HW1 2900   0.299   2.863   2.770  2.7228  4.8187 -1.0238
  967SOL    HW2 2901   0.183   2.757   2.694 -0.8700 -0.6620 -0.8660
  968SOL     OW 2902   2.085   0.603   0.170  0.0301 -0.4130  0.1609
  968SOL    HW1 2903   1.996   0.603   0.219  0.9055 -0.1692 -1.6365
  968SOL    HW2 2904   2.168   0.626   0.230  0.3034 -1.9858 -3.9217
  969SOL     OW 2905   0.227   1.231   1.736 -0.2911  0.4598  0.4676
  969SOL    HW1 2906   0.244   1.137   1.712  0.0901 -1.5769 -0.6660
  969SOL    HW2 2907   0.295   1.290   1.690  1.1210  1.0847 -0.2004
  970SOL     OW 2908   2.564   1.350   1.527 -0.2534 -0.6109  0.2841
  970SOL    HW1 2909   2.622   1.381   1.608  0.9440  0.2649  1.9059
  970SOL    HW2 2910   2.502   1.270   1.548 -1.1730 -0.2032  0.7461
  971SOL     OW 2911   2.081   0.091   1.040 -0.3852  0.4993  0.1786
  971SOL    HW1 2912   2.053   0.175   0.992  0.8683  2.0770 -1.7825
  971SOL    HW2 2913   2.060   0.010   0.980 -0.0688 -3.6219 -2.3354
  972SOL     OW 2914   0.063   3.013   1.843 -0.0159 -0.1831 -0.3945
  972SOL    HW1 2915   0.037   2.940   1.912  2.6272 -1.4044  0.6025
  972SOL    HW2 2916   3.050   3.028   1.782 -0.4159  0.0340 -0.8043
  973SOL     OW 2917   0.089   0.517   0.046 -0.2908  0.0356 -0.4125
  973SOL    HW1 2918   0.094   0.613   0.084  0.9402 -0.0779 -0.2391
  973SOL    HW2 2919   0.166   0.495   3.052 -0.7101  0.4088  2.1194
  974SOL     OW 2920   1.906   1.413   2.239  0.1855 -0.2129 -0.3517
  974SOL    HW1 2921   1.977   1.484   2.259  1.1754  2.5758 -1.6706
  974SOL    HW2 2922   1.871   1.431   2.146 -1.2048 -2.3571 -0.6502
  975SOL     OW 2923   2.933   3.022   1.674 -0.0786  0.2091 -0.5284
  975SOL    HW1 2924   2.910   0.019   1.604 -1.6227  0.9781  2.2529
  975SOL    HW2 2925   2.963   2.933   1.633  0.1416  0.9450 -0.3758
  976SOL     OW 2926   0.257   2.116   2.174 -0.5243  0.1767  0.1885
  976SOL    HW1 2927   0.239   2.213   2.151 -1.1432  1.4784 -3.0025
  976SOL    HW2 2928   0.332   2.078   2.113  1.3078 -0.3810 -3.7864
  977SOL     OW 2929   1.174   2.890   0.334  0.2414 -0.8440  0.8211
  977SOL    HW1 2930   1.099   2.821   0.339  2.2878 -0.8470 -1.2208
  977SOL    HW2 2931   1.269   2.852   0.311  1.1755 -1.1439 -0.8500
  978SOL     OW 2932   0.208   1.873   2.539 -0.4738 -0.9565  0.3381
  978SOL    HW1 2933   0.224   1.961   2.490  1.3777  1.7698  2.3088
  978SOL    HW2 2934   0.217   1.801   2.468 -0.0678  0.9009  0.7287
  979SOL     OW 2935   1.604   2.344   1.565 -0.2780  0.2456  0.5215
  979SOL    HW1 2936   1.616   2.413   1.640 -0.1306  0.8370 -1.2689
  979SOL    HW2 2937   1.688   2.331   1.510 -0.0159 -0.7225  0.5553
  980SOL     OW 2938   0.512   1.601   2.760  0.1425 -0.0238  0.6560
  980SOL    HW1 2939   0.555   1.507   2.779  0.4773 -3.3162 -2.6175
  980SOL    HW2 2940   0.427   1.614   2.813  1.6893  0.5327  2.5612
  981SOL     OW 2941   2.350   3.050   2.400  0.1366 -0.3351  0.7872
  981SOL    HW1 2942   2.354   0.026   2.309  1.6452  3.7323 -3.4716
  981SOL    HW2 2943   2.427   2.991   2.416 -0.1526  2.1035  1.1936
  982SOL     OW 2944   2.920   0.486   2.954 -0.1382 -0.3671  0.0297
  982SOL    HW1 2945   2.980   0.504   3.034 -0.7441  0.8228  0.7933
  982SOL    HW2 2946   2.907   0.561   2.885 -1.7980  0.3946  0.3697
  983SOL     OW 2947   1.787   1.428   1.999 -0.4702 -0.2282  0.6315
  983SOL    HW1 2948   1.859   1.444   1.929  1.2855  0.7101 -1.3393
  983SOL    HW2 2949   1.768   1.327   2.001 -2.6034 -3.0395 -0.8216
  984SOL     OW 2950   1.288   0.605   1.844 -0.4260 -0.6834 -0.1015
  984SOL    HW1 2951   1.355   0.579   1.915 -0.4146  0.2052 -0.9617
  984SOL    HW2 2952   1.298   0.703   1.812  1.5717  2.9716  0.4495
  985SOL     OW 2953   1.604   1.474   1.685 -0.5053  0.1993 -0.1622
  985SOL    HW1 2954   1.565   1.569   1.687 -1.2051  1.1892  3.6632
  985SOL    HW2 2955   1.696   1.467   1.651  1.0078 -0.7250  2.5631
  986SOL     OW 2956   1.955   0.420   1.671 -0.0089  0.3850  0.2987
  986SOL    HW1 2957   2.036   0.380   1.715  1.7870 -0.5101  2.1793
  986SOL    HW2 2958   1.986   0.501   1.620  1.8699 -0.7989  0.0307
  987SOL     OW 2959   2.120   0.245   1.360 -0.0352 -0.0311  0.0964
  987SOL    HW1 2960   2.036   0.201   1.323 -0.4277 -2.5315 -1.7419
  987SOL    HW2 2961   2.101   0.346   1.369  0.0078  0.6052 -1.6803
  988SOL     OW 2962   2.796   0.793   2.043 -0.3921  0.6877  0.0351
  988SOL    HW1 2963   2.696   0.763   2.033 -1.7281 -1.2424 -0.8502
  988SOL    HW2 2964   2.844   0.736   2.113  1.2877  0.9965 -1.9395
  989SOL     OW 2965   2.248   1.880   2.803  0.2451 -0.1232 -0.1844
  989SOL    HW1 2966   2.187   1.892   2.720  0.8504 -0.0409 -1.1616
  989SOL    HW2 2967   2.203   1.912   2.894 -0.0366  2.0592 -0.3305
  990SOL     OW 2968   1.297   0.346   2.892  0.3036  0.2510  0.0765
  990SOL    HW1 2969   1.207   0.300   2.870 -1.1374 -1.0353  0.3330
  990SOL    HW2 2970   1.299   0.441   2.850 -0.0155  0.1309 -1.6598
  991SOL     OW 2971   1.256   0.945   0.165 -0.2184  0.0085  0.6414
  991SOL    HW1 2972   1.281   0.961   0.264  1.3857  3.1262 -1.5705
  991SOL    HW2 2973   1.234   0.847   0.146 -0.4158  1.2475 -0.5896
  992SOL     OW 2974   2.353   1.643   2.719 -0.1197  0.5519  0.3593
  992SOL    HW1 2975   2.455   1.650   2.700  2.8615 -0.2649 -1.1489
  992SOL    HW2 2976   2.306   1.728   2.758  0.9145  1.5309  1.5937
  993SOL     OW 2977   0.508   0.432   0.329  0.1454 -0.1539  0.1619
  993SOL    HW1 2978   0.503   0.343   0.374 -0.0491  0.0853 -2.7245
  993SOL    HW2 2979   0.464   0.507   0.382 -1.3872  0.4340  0.8032
  994SOL     OW 2980   0.122   1.659   2.348  0.7850 -0.1329  0.4742
  994SOL    HW1 2981   0.021   1.678   2.354 -0.9656 -0.5082  1.4196
  994SOL    HW2 2982   0.157   1.651   2.254  0.2087  0.4448  1.0595
  995SOL     OW 2983   1.815   1.396   2.741 -0.1575  0.4627 -0.3809
  995SOL    HW1 2984   1.829   1.494   2.721 -1.1255  0.4964  0.2101
  995SOL    HW2 2985   1.890   1.336   2.707  2.1503  0.3194 -1.3076
  996SOL     OW 2986   1.872   1.673   2.659 -0.0715 -0.3150  0.0341
  996SOL    HW1 2987   1.838   1.641   2.564  0.3139  0.4433 -1.2903
  996SOL    HW2 2988   1.844   1.771   2.672 -1.6552 -1.6318  0.6345
  997SOL     OW 2989   2.187   1.471   1.624 -0.4623  0.5974 -0.3148
  997SOL    HW1 2990   2.255   1.512   1.687  1.6538 -1.5093  1.4015
  997SOL    HW2 2991   2.105   1.435   1.673 -2.2068 -1.8650 -1.3506
  998SOL     OW 2992   2.469   1.459   0.117  0.6707  0.7287 -0.4762
  998SOL    HW1 2993   2.483   1.363   0.101 -0.4426  1.0008  0.2312
  998SOL    HW2 2994   2.556   1.506   0.108 -2.1653 -2.5941 -2.5496
  999SOL     OW 2995   2.677   2.458   0.419  0.1142 -0.1433 -0.2444
  999SOL    HW1 2996   2.625   2.436   0.508  1.6589  2.3349  1.7829
  999SOL    HW2 2997   2.611   2.492   0.347  1.0407 -1.3973 -1.0567
 1000SOL     OW 2998   0.659   0.059   1.953  0.1187 -0.7928  0.7288
 1000SOL    HW1 2999   0.563   0.027   1.927 -0.5422  0.7473  0.7905
 1000SOL    HW2 3000   0.679   0.028   2.049 -3.5437 -1.3742  0.5763
   3.06885   3.06885   3.06885
