1000 SPC/Fw water molecules t= 148.00000 step= 148000
 3000
    1SOL     OW    1   2.383   2.808   0.669 -0.3841 -0.4320  0.2859
    1SOL    HW1    2   2.474   2.857   0.677  1.6865  0.4631  0.9905
    1SOL    HW2    3   2.385   2.706   0.687  1.0924  1.0386  0.3540
    2SOL     OW    4   1.537   2.020   2.264  0.0953  0.5236  0.1632
    2SOL    HW1    5   1.474   2.097   2.290  0.7513 -4.1911 -0.8085
    2SOL    HW2    6   1.638   2.039   2.272 -0.3395  1.4131  1.5459
    3SOL     OW    7   1.754   2.599   2.235 -0.2854 -0.1366  0.2185
    3SOL    HW1    8   1.854   2.587   2.251 -1.5696  0.3269 -0.9991
    3SOL    HW2    9   1.743   2.596   2.134  0.9482  1.1511  0.7902
    4SOL     OW   10   1.723   2.585   1.941  0.0958  0.1852  0.4828
    4SOL    HW1   11   1.737   2.488   1.904  0.2924 -1.2128 -0.5359
    4SOL    HW2   12   1.786   2.646   1.892 -1.5324 -0.8043  1.2956
    5SOL     OW   13   0.550   0.514   1.403  0.0836  0.5629  0.3638
    5SOL    HW1   14   0.610   0.474   1.331 -1.8793  0.1672 -0.1966
    5SOL    HW2   15   0.457   0.466   1.411  0.4144 -2.0519 -0.7245
    6SOL     OW   16   2.348   1.022   2.840  0.0387  0.3974  0.8824
    6SOL    HW1   17   2.344   0.957   2.916 -1.3546 -0.3097 -1.8511
    6SOL    HW2   18   2.370   0.980   2.751 -0.0914  1.4641  0.0653
    7SOL     OW   19   0.734   0.462   1.167 -0.4001 -0.0824  0.1429
    7SOL    HW1   20   0.772   0.387   1.108 -2.6257  0.1400  0.5051
    7SOL    HW2   21   0.760   0.558   1.146  1.4995  0.0281  1.4196
    8SOL     OW   22   1.321   2.448   1.483  0.2256 -0.5050 -0.2758
    8SOL    HW1   23   1.256   2.409   1.553  2.2045  0.5244 -0.7890
    8SOL    HW2   24   1.417   2.412   1.487 -0.2500 -0.0324 -1.6098
    9SOL     OW   25   0.848   1.174   0.215  0.2305 -0.0323  0.2328
    9SOL    HW1   26   0.837   1.145   0.120  2.6157 -1.3361 -1.0529
    9SOL    HW2   27   0.759   1.200   0.256 -1.2390 -1.2536  2.2872
   10SOL     OW   28   0.613   2.669   2.969 -0.2087 -0.3069  0.4186
   10SOL    HW1   29   0.567   2.579   2.968 -0.8058 -1.3620  2.7362
   10SOL    HW2   30   0.662   2.669   2.882 -0.6112 -1.5316  1.9140
   11SOL     OW   31   0.151   1.634   0.048 -0.2677  0.4268  0.4020
   11SOL    HW1   32   0.118   1.726   0.022  0.5661  0.5203  0.2532
   11SOL    HW2   33   0.197   1.587   3.071 -0.4981  0.4587  1.4015
   12SOL     OW   34   0.594   2.892   1.442  0.8734  0.4926 -0.2242
   12SOL    HW1   35   0.503   2.938   1.450 -0.1515 -0.1056 -1.7675
   12SOL    HW2   36   0.603   2.876   1.339  0.1387 -0.3540 -0.9433
   13SOL     OW   37   0.872   2.712   0.482  0.4046  0.4566  0.2634
   13SOL    HW1   38   0.856   2.612   0.508  0.8493  0.2736 -0.7784
   13SOL    HW2   39   0.791   2.753   0.435 -2.4795  1.3011 -1.0759
   14SOL     OW   40   1.418   1.841   0.988 -0.0748  0.1407  0.3143
   14SOL    HW1   41   1.401   1.901   0.906  1.7778  0.2089 -0.4118
   14SOL    HW2   42   1.376   1.883   1.073  0.2286  1.6911  0.8638
   15SOL     OW   43   2.404   0.865   2.283 -0.3851  0.1218 -0.5140
   15SOL    HW1   44   2.498   0.860   2.320 -0.5619  0.0655 -1.4872
   15SOL    HW2   45   2.361   0.938   2.334  2.6265 -2.4818 -2.7123
   16SOL     OW   46   1.589   3.048   2.905 -0.0444  0.3430 -0.3058
   16SOL    HW1   47   1.558   3.055   3.002  0.8627 -1.1078 -1.5252
   16SOL    HW2   48   1.690   3.018   2.904  2.0050  0.9861  0.0374
   17SOL     OW   49   0.763   2.558   2.069 -0.1976 -0.5875 -0.9768
   17SOL    HW1   50   0.810   2.629   2.125  1.2272 -2.5619  0.2295
   17SOL    HW2   51   0.662   2.577   2.055 -0.8340 -0.3629  1.8076
   18SOL     OW   52   1.874   0.911   0.013  0.7705  0.5207 -0.0308
   18SOL    HW1   53   1.813   0.937   3.040 -0.5311  0.8006  1.5926
   18SOL    HW2   54   1.963   0.956   3.098 -1.2072  0.9346 -0.4609
   19SOL     OW   55   2.399   2.222   2.822  0.3395 -0.3147  0.3376
   19SOL    HW1   56   2.382   2.142   2.883 -1.6498 -1.3121  1.3207
   19SOL    HW2   57   2.502   2.240   2.821  1.0115  0.3616  0.9133
   20SOL     OW   58   1.820   1.689   2.270 -0.1946  0.5607 -0.1400
   20SOL    HW1   59   1.877   1.599   2.265  1.5950  0.1688 -1.9340
   20SOL    HW2   60   1.767   1.697   2.360 -2.4256  2.1912  1.7117
   21SOL     OW   61   0.362   2.164   3.052 -0.0247 -0.4011 -0.1294
   21SOL    HW1   62   0.377   2.109   0.035 -1.5572  1.1640  1.7827
   21SOL    HW2   63   0.322   2.104   2.982  1.0615  0.9099  1.6934
   22SOL     OW   64   2.323   2.894   1.397 -0.3530 -0.2357 -0.0032
   22SOL    HW1   65   2.375   2.862   1.480 -2.5363  1.0092 -0.6491
   22SOL    HW2   66   2.384   2.932   1.328 -1.4313 -0.9354  0.1847
   23SOL     OW   67   3.041   1.432   1.714 -0.1707  1.0406 -0.0158
   23SOL    HW1   68   0.013   1.372   1.755  0.7054  0.8812 -2.8334
   23SOL    HW2   69   3.063   1.527   1.727  0.3153 -2.3439  2.6118
   24SOL     OW   70   2.361   1.970   1.804  0.1537 -0.1801 -0.0272
   24SOL    HW1   71   2.380   1.875   1.837 -0.8132 -2.9607  2.3053
   24SOL    HW2   72   2.269   1.972   1.757 -0.4700  0.2384 -2.0163
   25SOL     OW   73   2.038   2.915   2.673 -0.1841 -0.7419 -0.6194
   25SOL    HW1   74   2.077   2.985   2.607  2.9048 -0.5539  0.1679
   25SOL    HW2   75   2.007   2.829   2.623 -0.7226  1.6008  1.0725
   26SOL     OW   76   1.286   2.864   0.529  0.3274 -0.5020  0.8462
   26SOL    HW1   77   1.359   2.816   0.479 -0.0324  0.5090 -1.2707
   26SOL    HW2   78   1.281   2.959   0.495 -0.5397  1.5990 -2.0969
   27SOL     OW   79   0.973   2.072   2.985  0.3227 -0.8538 -0.4324
   27SOL    HW1   80   0.974   2.100   3.085  2.3298  3.3206  0.1189
   27SOL    HW2   81   0.876   2.069   2.949 -3.1307 -1.4277 -0.8028
   28SOL     OW   82   2.980   1.688   1.380 -0.0270 -0.3042 -0.0558
   28SOL    HW1   83   3.052   1.641   1.323 -1.6603 -0.2827  3.3068
   28SOL    HW2   84   2.941   1.773   1.337 -1.7779  0.9475 -1.6894
   29SOL     OW   85   2.614   2.345   2.134  0.5623  0.5544 -0.0030
   29SOL    HW1   86   2.573   2.437   2.139 -0.2490 -1.5189 -0.1448
   29SOL    HW2   87   2.687   2.332   2.201 -0.5503  0.7288 -0.4818
   30SOL     OW   88   1.001   2.673   1.251 -0.0541 -0.4702  0.0167
   30SOL    HW1   89   1.048   2.763   1.264  0.3112  2.2248  0.2178
   30SOL    HW2   90   0.980   2.661   1.152 -0.8589  0.6542 -1.1264
   31SOL     OW   91   3.063   2.195   2.105  0.2668 -0.4828  0.3411
   31SOL    HW1   92   3.004   2.128   2.059  1.9195 -1.1536  2.0826
   31SOL    HW2   93   0.060   2.169   2.083 -0.8311 -0.3374  0.8204
   32SOL     OW   94   1.195   1.008   2.126  0.2138 -0.1835 -0.0105
   32SOL    HW1   95   1.198   1.044   2.032  0.0466 -1.6576  4.9377
   32SOL    HW2   96   1.252   1.077   2.180  3.7175  1.4236  2.3850
   33SOL     OW   97   0.598   2.920   2.648  0.2870  0.1933 -0.3975
   33SOL    HW1   98   0.510   2.971   2.653  0.5027  2.2465  0.3223
   33SOL    HW2   99   0.586   2.823   2.681 -1.7583  1.4397 -1.2344
   34SOL     OW  100   1.525   0.061   1.327  0.0478 -0.0806 -0.7011
   34SOL    HW1  101   1.443   0.001   1.314 -1.6330  2.2521  2.8996
   34SOL    HW2  102   1.587   0.060   1.250 -0.7958 -1.2983  2.7406
   35SOL     OW  103   2.032   0.543   1.007  0.1865  0.5888  0.4276
   35SOL    HW1  104   2.035   0.463   0.942 -0.4505  1.3162  2.5210
   35SOL    HW2  105   2.075   0.527   1.097 -2.0510  0.0169  3.6231
   36SOL     OW  106   2.066   2.838   2.280  0.3176 -0.3149 -0.2229
   36SOL    HW1  107   2.155   2.872   2.311 -0.4308  1.5397  3.4338
   36SOL    HW2  108   2.061   2.838   2.179  1.4729 -2.7464 -2.2242
   37SOL     OW  109   1.349   2.337   2.555  0.8028  0.4806  0.0705
   37SOL    HW1  110   1.275   2.407   2.562  0.8750 -0.1635  1.8876
   37SOL    HW2  111   1.376   2.317   2.456  0.5121 -2.9981 -2.2287
   38SOL     OW  112   2.367   0.309   2.884  0.1739 -0.4058  0.0991
   38SOL    HW1  113   2.324   0.297   2.974  2.2741 -1.5522  1.4457
   38SOL    HW2  114   2.413   0.402   2.870  1.1263  0.8073  1.5080
   39SOL     OW  115   1.884   2.129   2.365 -0.2046  0.0678  0.0383
   39SOL    HW1  116   1.847   2.084   2.447  0.3236  2.0866 -1.5735
   39SOL    HW2  117   1.936   2.065   2.304 -2.0065  0.4172  1.4446
   40SOL     OW  118   0.161   0.135   2.894 -0.1909 -1.0706 -0.7452
   40SOL    HW1  119   0.212   0.167   2.813 -3.2251  2.6981 -1.2046
   40SOL    HW2  120   0.199   0.045   2.917 -0.9138  0.4413 -0.1335
   41SOL     OW  121   1.676   0.852   1.532  0.2749  0.4628 -0.0060
   41SOL    HW1  122   1.623   0.926   1.479  1.8491  2.9615 -3.7630
   41SOL    HW2  123   1.633   0.840   1.624  0.6664  0.6787  1.0871
   42SOL     OW  124   0.399   0.248   1.637  0.3064 -0.0772  0.1657
   42SOL    HW1  125   0.375   0.148   1.651 -0.1727 -2.4885 -1.1915
   42SOL    HW2  126   0.504   0.262   1.651  2.2470  2.3434 -1.0368
   43SOL     OW  127   1.537   0.629   1.997 -0.0258  0.3377  0.3138
   43SOL    HW1  128   1.505   0.635   2.095 -0.3990  2.4327  0.7085
   43SOL    HW2  129   1.631   0.585   1.991  0.7335  0.8881  1.0544
   44SOL     OW  130   0.192   2.612   2.531 -0.0768 -0.1196  0.2885
   44SOL    HW1  131   0.246   2.656   2.607 -1.4636  0.6425 -3.1193
   44SOL    HW2  132   0.110   2.673   2.508 -1.5909 -0.2719  0.7717
   45SOL     OW  133   0.215   2.396   1.256 -0.0728  0.1443 -0.1936
   45SOL    HW1  134   0.144   2.447   1.312 -2.5215  1.2436  1.0467
   45SOL    HW2  135   0.296   2.373   1.316  1.4935  1.2918 -0.4064
   46SOL     OW  136   2.326   2.329   1.938  0.3182 -0.2646 -0.0094
   46SOL    HW1  137   2.273   2.402   1.981  3.1316 -0.1563  0.7419
   46SOL    HW2  138   2.419   2.346   1.968 -1.1898 -4.1659 -1.8141
   47SOL     OW  139   1.780   1.998   1.586  0.0807 -0.4429  0.2939
   47SOL    HW1  140   1.739   2.003   1.675 -0.1783  0.4540 -0.0602
   47SOL    HW2  141   1.774   1.896   1.556  0.9872  0.3613  0.5399
   48SOL     OW  142   0.374   1.857   0.429 -0.0108  0.4158  0.1597
   48SOL    HW1  143   0.398   1.763   0.452 -1.1524  2.8021 -1.1173
   48SOL    HW2  144   0.438   1.920   0.479 -1.8986 -1.8990 -0.4374
   49SOL     OW  145   2.664   0.610   2.082 -0.7385  0.4845  0.5341
   49SOL    HW1  146   2.743   0.673   2.094 -1.9889  2.6176  0.1373
   49SOL    HW2  147   2.594   0.667   2.030  1.1547  0.4866  1.4955
   50SOL     OW  148   2.118   0.676   0.758 -0.3235 -0.2378 -0.1156
   50SOL    HW1  149   2.087   0.599   0.811  2.1410  2.0302 -1.2584
   50SOL    HW2  150   2.212   0.709   0.792  2.8239  0.8978  0.7268
   51SOL     OW  151   1.207   0.709   0.887 -0.2001 -0.3962  0.4575
   51SOL    HW1  152   1.140   0.782   0.911  0.9678  2.3891  3.0164
   51SOL    HW2  153   1.211   0.639   0.957 -2.1691  0.7916 -3.1826
   52SOL     OW  154   1.449   1.197   0.102  0.4162  0.2641  0.1519
   52SOL    HW1  155   1.467   1.171   0.004  1.1265  2.4941 -1.5155
   52SOL    HW2  156   1.422   1.114   0.157  0.0234 -2.0658  2.9036
   53SOL     OW  157   1.264   2.068   2.571  0.2852  0.0547 -0.4377
   53SOL    HW1  158   1.244   2.011   2.658  1.4674 -0.4944  3.1987
   53SOL    HW2  159   1.310   2.151   2.603  0.5118 -0.7719 -1.9070
   54SOL     OW  160   1.946   0.748   1.601 -0.2173  0.0075 -0.1948
   54SOL    HW1  161   2.002   0.811   1.546  0.5736 -0.8920  0.3599
   54SOL    HW2  162   1.851   0.761   1.577  0.9443 -0.5874  0.4873
   55SOL     OW  163   1.978   2.994   0.654 -0.0828  0.2238 -0.3988
   55SOL    HW1  164   2.019   2.906   0.623 -1.7079  0.0886  1.0272
   55SOL    HW2  165   1.891   2.972   0.704  0.8360  0.0979 -0.4947
   56SOL     OW  166   0.832   2.503   1.387  0.0601  1.2592  0.4289
   56SOL    HW1  167   0.902   2.559   1.333  1.9633  2.7088 -0.9757
   56SOL    HW2  168   0.797   2.573   1.450  0.3227  1.2547  0.1198
   57SOL     OW  169   2.206   1.030   0.148 -0.3504 -0.6448  0.2495
   57SOL    HW1  170   2.286   1.066   0.205  0.5151  2.0266  3.4614
   57SOL    HW2  171   2.133   1.100   0.146 -0.8234 -0.1988 -1.7017
   58SOL     OW  172   3.072   1.197   2.231  0.2117  0.2991  0.1145
   58SOL    HW1  173   3.100   1.274   2.293  0.9029  3.9047  0.1998
   58SOL    HW2  174   3.034   1.229   2.143  1.1063  0.5173 -0.7987
   59SOL     OW  175   1.020   2.425   2.418  0.5007  0.3835  0.3409
   59SOL    HW1  176   1.044   2.469   2.504 -0.6703 -0.7622 -0.7798
   59SOL    HW2  177   0.925   2.438   2.393  2.4003  0.7325 -2.2590
   60SOL     OW  178   2.532   2.938   0.971 -0.1873  0.5627 -0.2208
   60SOL    HW1  179   2.460   2.862   0.966 -2.3765 -1.0361  0.7696
   60SOL    HW2  180   2.601   2.925   0.901 -0.9565  0.1633  0.5714
   61SOL     OW  181   1.361   1.895   0.490  0.1259 -0.0379  0.4048
   61SOL    HW1  182   1.291   1.826   0.518 -1.4278  0.5706 -0.7342
   61SOL    HW2  183   1.423   1.923   0.568  2.1421  0.4782  1.1383
   62SOL     OW  184   2.206   2.751   3.017 -0.0420 -0.0008  0.2697
   62SOL    HW1  185   2.302   2.763   3.051  3.2239  0.9290  1.5079
   62SOL    HW2  186   2.140   2.804   3.075 -0.6253 -0.9364 -1.1797
   63SOL     OW  187   1.899   0.320   0.399  0.2784  0.3807  0.6767
   63SOL    HW1  188   1.920   0.397   0.461 -0.3854 -0.6733  1.5516
   63SOL    HW2  189   1.844   0.339   0.311 -3.0715 -0.7793 -0.3817
   64SOL     OW  190   0.856   1.135   2.533 -0.2180  0.8738 -0.5782
   64SOL    HW1  191   0.950   1.123   2.490 -0.6165  1.1119 -0.0701
   64SOL    HW2  192   0.853   1.094   2.621 -2.1581  3.6114 -0.9782
   65SOL     OW  193   1.242   2.267   0.604 -0.1731  0.3844  0.0632
   65SOL    HW1  194   1.311   2.327   0.649  1.1677  2.8645 -1.9500
   65SOL    HW2  195   1.244   2.178   0.649 -0.5609  0.1870 -0.3873
   66SOL     OW  196   0.629   1.341   1.745  0.1059  0.0989 -0.1814
   66SOL    HW1  197   0.677   1.295   1.824 -1.2774 -0.8399  1.4801
   66SOL    HW2  198   0.576   1.422   1.780 -1.6531  0.6548 -0.4954
   67SOL     OW  199   2.414   0.159   2.451  0.2366  0.1188 -0.3757
   67SOL    HW1  200   2.450   0.117   2.362  3.4002  0.2227 -1.1103
   67SOL    HW2  201   2.484   0.222   2.484 -0.0770 -1.4754 -1.4173
   68SOL     OW  202   0.955   0.718   1.454 -0.7975 -0.6491 -0.6415
   68SOL    HW1  203   0.899   0.633   1.461 -0.9499 -2.1075  1.3721
   68SOL    HW2  204   0.985   0.741   1.548 -1.7567 -0.3822 -2.1070
   69SOL     OW  205   1.936   2.794   0.320 -0.2196  0.2170  0.5399
   69SOL    HW1  206   1.867   2.859   0.294 -0.7283 -1.4025  0.1623
   69SOL    HW2  207   1.984   2.814   0.406  1.3548  3.8813 -1.5449
   70SOL     OW  208   2.940   0.991   2.365  0.4397 -0.0735  0.9493
   70SOL    HW1  209   2.854   0.966   2.317 -0.5748 -1.6823 -0.7868
   70SOL    HW2  210   2.995   1.054   2.301  0.9567  4.3329 -0.0488
   71SOL     OW  211   2.791   1.637   0.007 -0.6709 -0.0828 -0.3148
   71SOL    HW1  212   2.730   1.557   3.084 -1.7698  0.2378  0.4897
   71SOL    HW2  213   2.843   1.685   3.030 -0.5237  0.7057 -1.3919
   72SOL     OW  214   0.008   1.618   0.381 -0.2784 -0.1135  0.3049
   72SOL    HW1  215   0.054   1.569   0.458  0.7725  0.2635  1.6762
   72SOL    HW2  216   0.044   1.714   0.373 -0.4715 -1.5484 -1.0218
   73SOL     OW  217   0.941   1.484   0.576 -0.1402  0.2784 -0.2343
   73SOL    HW1  218   0.973   1.405   0.632  2.6919  1.7397  0.5213
   73SOL    HW2  219   0.923   1.460   0.484 -0.4913 -1.2264  3.3964
   74SOL     OW  220   0.304   1.889   2.048 -0.2276 -0.3080  0.6082
   74SOL    HW1  221   0.266   1.811   2.097  0.2096  1.0537 -0.2865
   74SOL    HW2  222   0.339   1.869   1.953 -0.8661  1.4051 -2.1062
   75SOL     OW  223   1.682   1.468   1.646 -0.0764 -0.1080  0.4752
   75SOL    HW1  224   1.677   1.373   1.601  1.6178 -2.6337 -2.6287
   75SOL    HW2  225   1.741   1.469   1.731  1.1322 -1.3602  1.2738
   76SOL     OW  226   2.205   2.671   1.331  0.2294 -0.7095 -0.4317
   76SOL    HW1  227   2.157   2.614   1.396  4.4913  1.8296 -2.3492
   76SOL    HW2  228   2.231   2.763   1.372 -3.3064  0.2587 -0.4949
   77SOL     OW  229   2.687   1.325   1.314  1.0891 -0.0094  0.0461
   77SOL    HW1  230   2.753   1.379   1.376 -0.8720  1.9431  1.3197
   77SOL    HW2  231   2.653   1.233   1.351 -0.7904 -1.5623 -0.6496
   78SOL     OW  232   1.517   0.980   0.302  0.3777 -0.1529 -0.0797
   78SOL    HW1  233   1.560   1.075   0.309  0.5652  1.0489 -1.0425
   78SOL    HW2  234   1.497   0.924   0.389 -2.3570 -4.0625  0.8025
   79SOL     OW  235   2.473   1.433   1.447  0.7883  0.2822 -0.3152
   79SOL    HW1  236   2.386   1.428   1.387  0.4474  0.3394 -1.7768
   79SOL    HW2  237   2.551   1.402   1.391 -0.7769 -1.2591 -0.4146
   80SOL     OW  238   0.785   0.518   1.534  0.0860  0.0032 -0.6684
   80SOL    HW1  239   0.690   0.509   1.506  2.1459 -2.6041  2.3660
   80SOL    HW2  240   0.839   0.433   1.508 -2.1976 -0.3209  0.7240
   81SOL     OW  241   1.145   2.818   0.819 -0.2025  0.5681  0.1941
   81SOL    HW1  242   1.223   2.761   0.801 -3.1175  2.0532 -0.6170
   81SOL    HW2  243   1.167   2.917   0.811  0.7165  1.5223 -0.2070
   82SOL     OW  244   1.382   3.050   1.684 -0.4281  0.0018  0.2106
   82SOL    HW1  245   1.475   3.025   1.639 -0.4220 -1.6341 -3.2690
   82SOL    HW2  246   1.308   2.985   1.655 -0.8200  0.1821 -1.4390
   83SOL     OW  247   1.274   2.065   0.820  0.7224 -0.2086  0.1071
   83SOL    HW1  248   1.257   2.120   0.904  0.7703  1.1911  0.1980
   83SOL    HW2  249   1.184   2.016   0.795  0.1827  0.3563  1.2492
   84SOL     OW  250   0.327   1.703   2.793 -0.2814  0.2293 -0.4615
   84SOL    HW1  251   0.310   1.619   2.842  0.2120  0.3747 -4.9237
   84SOL    HW2  252   0.425   1.710   2.767 -1.1982 -0.8505  1.1814
   85SOL     OW  253   0.173   2.128   1.236 -0.5140 -0.0990 -0.4684
   85SOL    HW1  254   0.090   2.107   1.296  2.4171  0.6431  0.2720
   85SOL    HW2  255   0.193   2.227   1.223  1.5357 -2.7384  1.3619
   86SOL     OW  256   2.505   2.627   1.349  0.1531  0.5650  0.4017
   86SOL    HW1  257   2.558   2.580   1.424  0.4920  0.9226  0.0494
   86SOL    HW2  258   2.405   2.629   1.369 -1.0168 -0.4856  0.7048
   87SOL     OW  259   0.165   1.855   0.772  0.0870 -0.3384 -0.2900
   87SOL    HW1  260   0.219   1.856   0.856  0.0352  0.3990  0.9564
   87SOL    HW2  261   0.161   1.950   0.742  0.5956 -0.5973 -0.6803
   88SOL     OW  262   0.831   1.151   1.378 -0.5543 -0.2596  0.2461
   88SOL    HW1  263   0.812   1.222   1.306 -0.7980  0.0413  0.8948
   88SOL    HW2  264   0.860   1.057   1.339 -1.7023  1.2626  0.9408
   89SOL     OW  265   1.063   2.925   2.141  0.2670 -0.0418  0.0515
   89SOL    HW1  266   1.020   3.006   2.098  0.3386  0.7021  1.6213
   89SOL    HW2  267   1.112   2.956   2.223 -2.5926 -0.1947  2.0273
   90SOL     OW  268   0.031   1.899   1.540  0.5151  0.1749  0.0090
   90SOL    HW1  269   0.018   1.947   1.624 -0.4641 -1.9258  1.5489
   90SOL    HW2  270   3.084   1.809   1.539 -0.1282 -1.2828 -0.3098
   91SOL     OW  271   1.416   1.745   1.521  0.0700 -0.4137  0.2555
   91SOL    HW1  272   1.436   1.685   1.601  1.2697  2.0908  0.7443
   91SOL    HW2  273   1.450   1.700   1.435 -1.2400 -0.7884 -2.2826
   92SOL     OW  274   2.472   2.866   1.626  0.3385 -0.3534 -0.1997
   92SOL    HW1  275   2.467   2.794   1.703  1.3907 -2.2990 -0.3400
   92SOL    HW2  276   2.538   2.946   1.639 -1.8319  0.9686  1.3233
   93SOL     OW  277   2.781   1.394   2.803 -0.3189  0.0016  0.0739
   93SOL    HW1  278   2.807   1.293   2.790  1.1227 -0.3953  2.0010
   93SOL    HW2  279   2.745   1.404   2.897 -0.3759 -0.0116  0.9369
   94SOL     OW  280   2.631   2.893   2.107 -0.1183  0.1932  0.3626
   94SOL    HW1  281   2.690   2.972   2.127 -0.2228 -0.9089 -0.7512
   94SOL    HW2  282   2.669   2.843   2.025 -1.2183  1.3957  1.4206
   95SOL     OW  283   1.298   0.560   1.884  0.0655  0.2784 -0.8175
   95SOL    HW1  284   1.392   0.578   1.914  0.5992  0.1350  0.2085
   95SOL    HW2  285   1.241   0.612   1.952  1.1050  0.9909  0.0539
   96SOL     OW  286   2.660   0.711   1.520 -0.0060  0.3866 -0.1611
   96SOL    HW1  287   2.678   0.711   1.423 -1.0783 -0.2061  0.7533
   96SOL    HW2  288   2.576   0.655   1.534  0.9478  0.4522  0.0250
   97SOL     OW  289   1.976   0.344   1.477 -0.0728  0.0902 -0.0099
   97SOL    HW1  290   1.952   0.276   1.406  0.8855 -0.7413  2.3512
   97SOL    HW2  291   2.079   0.362   1.476  0.8938  1.5891 -1.2676
   98SOL     OW  292   1.683   2.844   1.306  0.3175  0.1070 -0.5657
   98SOL    HW1  293   1.635   2.887   1.382  3.9222 -1.6254 -0.1088
   98SOL    HW2  294   1.748   2.902   1.257  1.3696 -1.7368  0.4881
   99SOL     OW  295   2.781   0.267   1.727 -0.1654 -0.4784  0.2258
   99SOL    HW1  296   2.739   0.317   1.804  2.9514  1.6197 -3.0048
   99SOL    HW2  297   2.776   0.319   1.644 -3.6950 -3.8193  1.5944
  100SOL     OW  298   2.581   1.441   1.881 -0.1516 -0.0725  0.3782
  100SOL    HW1  299   2.632   1.445   1.968 -1.4096  1.1962 -0.8168
  100SOL    HW2  300   2.628   1.386   1.810  0.6286  0.1633 -3.1660
  101SOL     OW  301   1.358   0.532   0.730 -0.3512 -0.6188  0.0433
  101SOL    HW1  302   1.458   0.521   0.755  2.0020  1.5367 -0.4411
  101SOL    HW2  303   1.316   0.593   0.800 -0.1739 -2.7182 -0.0613
  102SOL     OW  304   0.423   0.985   1.312  0.0329 -0.4055 -0.2518
  102SOL    HW1  305   0.382   1.077   1.333 -0.4729  1.5350 -0.2837
  102SOL    HW2  306   0.436   0.932   1.400 -1.2114 -2.3709  1.5990
  103SOL     OW  307   2.623   0.658   3.072  0.7497  0.1724  0.0033
  103SOL    HW1  308   2.716   0.701   3.054 -0.8952  3.3452 -2.2867
  103SOL    HW2  309   2.618   0.605   0.059 -1.0746 -0.1118  3.1305
  104SOL     OW  310   2.885   0.033   1.793 -0.1174  0.2423 -0.3289
  104SOL    HW1  311   2.977   0.002   1.768  0.5442 -2.3387 -1.0544
  104SOL    HW2  312   2.858   0.124   1.757  0.0627  1.0602 -0.2119
  105SOL     OW  313   1.875   0.757   1.877  0.2440 -0.1005  0.1499
  105SOL    HW1  314   1.892   0.752   1.779  0.6567  0.2945  1.1672
  105SOL    HW2  315   1.861   0.668   1.922 -1.3313  2.7625 -0.6135
  106SOL     OW  316   1.726   0.161   0.825  0.4067 -0.4575  0.1737
  106SOL    HW1  317   1.780   0.162   0.737  4.3471  1.1397 -2.6613
  106SOL    HW2  318   1.638   0.108   0.811  1.3308 -0.4379 -2.5878
  107SOL     OW  319   0.392   1.023   0.679 -0.9377  0.0247 -0.0597
  107SOL    HW1  320   0.363   0.930   0.654  0.1204  3.0436 -0.7297
  107SOL    HW2  321   0.369   1.036   0.781 -1.1109 -2.1183  2.5484
  108SOL     OW  322   2.662   0.352   1.965  0.2595  0.1812 -0.3619
  108SOL    HW1  323   2.687   0.438   2.011 -0.7396  1.4679 -0.4166
  108SOL    HW2  324   2.716   0.273   2.003 -0.8296  0.7229 -0.8583
  109SOL     OW  325   2.449   0.744   0.198 -0.2852  0.4667  0.5478
  109SOL    HW1  326   2.424   0.814   0.125  0.4791  0.3467 -0.4714
  109SOL    HW2  327   2.435   0.790   0.288  1.6484 -2.0626 -1.0683
  110SOL     OW  328   0.213   2.395   2.782  0.3960  0.2991  0.3741
  110SOL    HW1  329   0.196   2.306   2.733 -0.0728 -0.6209  1.6146
  110SOL    HW2  330   0.142   2.459   2.751 -1.2468 -2.1255 -2.7792
  111SOL     OW  331   1.949   0.053   2.012 -0.2602 -0.5612 -0.0214
  111SOL    HW1  332   2.025   0.107   1.974  2.1024  0.0123 -1.2529
  111SOL    HW2  333   1.859   0.082   1.977 -3.7643  0.0496 -1.5106
  112SOL     OW  334   2.326   2.680   0.236 -0.3126 -0.2467 -0.3268
  112SOL    HW1  335   2.297   2.585   0.212  1.0237 -0.3384 -2.7763
  112SOL    HW2  336   2.363   2.728   0.155 -2.0369  0.2152 -2.9631
  113SOL     OW  337   2.216   2.199   1.420  0.1136 -0.3168 -0.1067
  113SOL    HW1  338   2.305   2.205   1.375  1.0229 -0.8042  3.4031
  113SOL    HW2  339   2.228   2.231   1.520  0.0418 -0.4228  3.5316
  114SOL     OW  340   2.643   0.958   0.894 -0.4262 -0.3815 -0.1092
  114SOL    HW1  341   2.545   0.973   0.879  2.7541  1.1616  1.2179
  114SOL    HW2  342   2.667   0.858   0.906 -0.6267  0.2272  1.3624
  115SOL     OW  343   2.935   1.774   0.224  0.4172 -0.0848 -0.7946
  115SOL    HW1  344   3.009   1.735   0.281  2.2700 -1.0418  0.7383
  115SOL    HW2  345   2.888   1.708   0.164  0.2434  0.1590  0.8572
  116SOL     OW  346   3.092   1.514   2.031  0.1507  0.1773  0.3939
  116SOL    HW1  347   3.025   1.439   2.019  0.3672 -0.0313 -0.7315
  116SOL    HW2  348   0.015   1.525   2.130 -1.8151 -1.4780  0.2530
  117SOL     OW  349   2.471   0.073   0.447 -0.1834 -0.5290  0.1847
  117SOL    HW1  350   2.437   0.094   0.540 -0.8384 -0.6835 -0.9953
  117SOL    HW2  351   2.441   3.077   0.421  0.0956 -3.2490 -1.8190
  118SOL     OW  352   0.216   2.177   1.696 -0.4817  0.4055  0.3602
  118SOL    HW1  353   0.159   2.093   1.715 -2.0667  1.2167  0.6605
  118SOL    HW2  354   0.166   2.257   1.737  1.9745 -0.4839 -2.5444
  119SOL     OW  355   1.723   1.964   0.973 -0.4737  0.5962  0.0960
  119SOL    HW1  356   1.801   1.917   0.920  1.8494  0.4055  1.0718
  119SOL    HW2  357   1.682   1.910   1.053  0.7560 -0.3240 -0.9627
  120SOL     OW  358   0.222   1.778   2.454  0.1960 -0.3319 -0.3199
  120SOL    HW1  359   0.306   1.778   2.515  1.1206  1.2826  0.6319
  120SOL    HW2  360   0.200   1.874   2.435 -1.5246  1.5088 -2.6597
  121SOL     OW  361   2.641   2.005   1.292  0.9449 -0.0483  0.1221
  121SOL    HW1  362   2.622   2.068   1.212 -0.2037  1.2561  0.4560
  121SOL    HW2  363   2.556   1.971   1.338  0.6915  2.2781 -0.4105
  122SOL     OW  364   2.176   1.404   2.419  0.2748  0.0704 -0.2539
  122SOL    HW1  365   2.234   1.400   2.335  0.5763 -1.5207 -1.9945
  122SOL    HW2  366   2.213   1.337   2.488 -0.3349  1.2314 -1.6907
  123SOL     OW  367   0.101   2.916   0.708 -0.3356  0.1937  0.1985
  123SOL    HW1  368   0.024   2.896   0.772  1.1443  0.4862  0.5919
  123SOL    HW2  369   0.185   2.883   0.748 -1.1883  0.1141  1.3512
  124SOL     OW  370   1.625   0.857   2.672 -0.1087  0.1456  0.3971
  124SOL    HW1  371   1.703   0.901   2.627  0.0204  0.0376  0.6532
  124SOL    HW2  372   1.538   0.879   2.623  0.6261  1.1311 -1.7997
  125SOL     OW  373   0.601   1.647   2.773  0.2643  0.5625 -0.4312
  125SOL    HW1  374   0.617   1.737   2.819  1.9201  3.7156  0.0230
  125SOL    HW2  375   0.624   1.560   2.825 -0.4837 -3.6700  1.3951
  126SOL     OW  376   2.793   1.974   0.151 -0.2788 -0.3687  0.0249
  126SOL    HW1  377   2.845   2.050   0.194 -2.6059 -1.6192 -1.2300
  126SOL    HW2  378   2.846   1.889   0.172  1.1982 -3.4622 -0.8615
  127SOL     OW  379   0.691   1.533   0.996  0.1880  0.0114 -0.3311
  127SOL    HW1  380   0.782   1.562   0.967 -0.8472  0.6540  2.2712
  127SOL    HW2  381   0.641   1.478   0.927  0.2106  0.1461 -1.5740
  128SOL     OW  382   1.280   0.740   0.293 -0.5299 -0.3467 -0.3288
  128SOL    HW1  383   1.270   0.826   0.344 -0.0303  1.5402 -2.0277
  128SOL    HW2  384   1.290   0.663   0.356 -0.8640  1.3320 -1.1378
  129SOL     OW  385   2.382   1.711   1.169 -0.1106  0.4233 -0.2210
  129SOL    HW1  386   2.340   1.785   1.111 -0.7378  0.7476  2.4589
  129SOL    HW2  387   2.465   1.671   1.125  1.5260  0.2290 -0.5925
  130SOL     OW  388   2.040   1.630   0.921  0.0159  0.0233 -0.3072
  130SOL    HW1  389   2.136   1.619   0.955  0.1569  1.4532  0.2369
  130SOL    HW2  390   1.970   1.600   0.988  0.4059  1.2943 -1.7609
  131SOL     OW  391   2.914   1.153   2.814  0.7260 -0.1917  0.8227
  131SOL    HW1  392   2.861   1.073   2.845  0.9214  1.3913  1.0265
  131SOL    HW2  393   3.000   1.145   2.866 -0.9688  1.0032 -0.4375
  132SOL     OW  394   2.542   1.850   2.054  0.6266 -0.0041 -0.1322
  132SOL    HW1  395   2.538   1.951   2.033 -1.3883  1.4843 -0.8257
  132SOL    HW2  396   2.526   1.797   1.967 -2.3530  3.0774 -2.1764
  133SOL     OW  397   3.079   0.944   0.021 -0.3579 -0.3272  0.2736
  133SOL    HW1  398   3.079   0.966   0.119  0.4084  0.7886 -1.4667
  133SOL    HW2  399   0.025   1.025   3.081 -1.1853  0.3896  1.4792
  134SOL     OW  400   0.321   1.351   0.082  0.4323  0.2491 -0.1899
  134SOL    HW1  401   0.358   1.256   0.071 -0.0271 -0.0408  2.1211
  134SOL    HW2  402   0.218   1.352   0.103 -0.4554  1.3293 -0.7918
  135SOL     OW  403   2.002   1.569   0.666 -0.0115  0.4223  0.2422
  135SOL    HW1  404   2.027   1.604   0.758  0.1151 -0.7776  2.0370
  135SOL    HW2  405   2.082   1.570   0.605 -1.6602  4.0539 -1.3705
  136SOL     OW  406   2.017   1.403   1.273  0.4115 -0.3292  0.3386
  136SOL    HW1  407   1.948   1.465   1.233  0.1113  1.4649  0.8653
  136SOL    HW2  408   2.111   1.434   1.239  0.6999  0.0660 -2.9652
  137SOL     OW  409   2.601   2.058   0.775 -0.8410  0.4353  0.2097
  137SOL    HW1  410   2.501   2.077   0.798 -1.6039  0.5467  0.0784
  137SOL    HW2  411   2.621   2.084   0.681 -0.3904 -0.4189  3.5760
  138SOL     OW  412   1.175   0.209   1.202 -0.3121  0.7423  0.0924
  138SOL    HW1  413   1.119   0.287   1.240 -0.0456  0.7017 -1.5589
  138SOL    HW2  414   1.205   0.138   1.271  1.6286 -0.2000 -2.1177
  139SOL     OW  415   2.283   0.058   0.009 -0.4015  0.2579  0.3867
  139SOL    HW1  416   2.258   0.019   3.019  0.3709 -3.6111  1.5434
  139SOL    HW2  417   2.389   0.060   0.023  2.2330 -0.8644  0.4283
  140SOL     OW  418   1.532   2.053   2.741 -0.0482 -0.0896 -0.5548
  140SOL    HW1  419   1.489   1.974   2.695 -1.9520  1.4054 -1.2199
  140SOL    HW2  420   1.589   2.018   2.819  1.2114 -1.3172  1.1778
  141SOL     OW  421   0.630   0.929   1.686 -0.0219 -0.1104 -0.0050
  141SOL    HW1  422   0.572   1.012   1.669 -1.5052 -1.8098 -1.5506
  141SOL    HW2  423   0.730   0.951   1.674  0.4562  1.5000 -1.8733
  142SOL     OW  424   2.544   0.012   0.036 -0.0145 -0.1631 -0.0590
  142SOL    HW1  425   2.584   0.087   0.094 -1.5901 -1.3312 -1.3078
  142SOL    HW2  426   2.602   3.090   3.059 -0.9407 -0.2933 -0.9353
  143SOL     OW  427   0.747   2.329   2.985  0.1381  0.0333 -0.2533
  143SOL    HW1  428   0.813   2.404   2.964 -0.5271 -1.3861  0.8237
  143SOL    HW2  429   0.650   2.353   2.971 -0.9822 -3.5849 -1.2863
  144SOL     OW  430   1.259   2.751   3.032  0.6087  0.0334 -0.0355
  144SOL    HW1  431   1.314   2.737   0.015  0.2376 -0.3231  0.0897
  144SOL    HW2  432   1.197   2.669   3.031 -0.8434 -0.8700  1.3650
  145SOL     OW  433   2.415   1.716   0.035  0.0265  0.3377  0.7295
  145SOL    HW1  434   2.472   1.796   0.013 -2.0662 -0.8226  0.8922
  145SOL    HW2  435   2.316   1.738   0.028 -0.1003 -0.9467 -0.1028
  146SOL     OW  436   2.862   2.685   3.016  0.3237 -0.4780 -0.0461
  146SOL    HW1  437   2.895   2.764   3.073  0.3146  2.9286  3.7681
  146SOL    HW2  438   2.926   2.607   3.025 -1.0202 -0.9729 -1.6103
  147SOL     OW  439   2.493   2.264   1.390 -0.4156 -0.5399 -0.0875
  147SOL    HW1  440   2.522   2.333   1.466  0.1370  1.9057  2.6257
  147SOL    HW2  441   2.501   2.308   1.297  1.3023  2.3140 -0.9190
  148SOL     OW  442   1.784   0.393   0.169 -0.1271 -0.2008 -1.0950
  148SOL    HW1  443   1.808   0.461   0.100 -1.2475  2.1300  0.7072
  148SOL    HW2  444   1.714   0.332   0.132 -1.8773 -1.1886 -0.0019
  149SOL     OW  445   1.139   1.408   2.658 -0.4028 -0.0021 -0.2722
  149SOL    HW1  446   1.105   1.397   2.750  2.0810  1.6964 -2.6791
  149SOL    HW2  447   1.073   1.468   2.606  1.5657  0.6699  0.8459
  150SOL     OW  448   0.854   2.433   0.492  0.2720  0.3007 -0.2957
  150SOL    HW1  449   0.842   2.352   0.433  4.0045 -2.2101 -0.6018
  150SOL    HW2  450   0.901   2.404   0.581  0.4931  0.1194 -1.0008
  151SOL     OW  451   0.714   1.820   2.958  0.1888  0.0030  0.2652
  151SOL    HW1  452   0.809   1.782   2.970  0.2768 -0.2296 -1.8723
  151SOL    HW2  453   0.726   1.920   2.932 -1.2693  1.6080  3.4900
  152SOL     OW  454   2.982   1.281   0.574  0.1894 -0.1624 -0.0883
  152SOL    HW1  455   2.898   1.295   0.627  0.4282 -0.4827  0.1752
  152SOL    HW2  456   3.031   1.195   0.597 -1.0008 -2.3591 -1.0382
  153SOL     OW  457   2.466   2.564   0.427 -0.3696 -0.8402 -0.5803
  153SOL    HW1  458   2.540   2.615   0.473 -1.9645 -0.4331  1.8620
  153SOL    HW2  459   2.421   2.628   0.358 -2.7298  1.4244 -0.7075
  154SOL     OW  460   0.710   0.015   0.847 -0.6702  0.0253  0.1192
  154SOL    HW1  461   0.677   0.109   0.847  0.7661 -1.8312 -3.3616
  154SOL    HW2  462   0.745   3.087   0.757  0.6151 -0.8564  0.0697
  155SOL     OW  463   0.270   2.015   1.018  0.0041 -0.7150  0.4231
  155SOL    HW1  464   0.240   2.072   0.941  0.1483 -2.4135  1.4388
  155SOL    HW2  465   0.236   2.048   1.108  0.8784 -1.7447 -0.9194
  156SOL     OW  466   2.639   2.347   0.082 -0.5639  0.1863  0.3545
  156SOL    HW1  467   2.683   2.284   0.010  2.4682 -1.5121 -2.0567
  156SOL    HW2  468   2.714   2.400   0.126 -1.5446 -3.0910 -2.1819
  157SOL     OW  469   1.110   2.185   1.348 -0.1620 -0.1102  0.2156
  157SOL    HW1  470   1.054   2.224   1.421  1.8177  0.7316 -0.7158
  157SOL    HW2  471   1.080   2.091   1.317  0.1783 -1.3725  1.2878
  158SOL     OW  472   1.709   0.608   3.044  0.2889  0.0800 -0.6469
  158SOL    HW1  473   1.726   0.518   2.994  0.9362 -1.2096 -1.3288
  158SOL    HW2  474   1.799   0.646   3.073 -4.0238  0.0108 -0.1743
  159SOL     OW  475   1.095   0.526   2.691 -0.2831 -0.2049  0.3292
  159SOL    HW1  476   1.000   0.541   2.724  0.2161  0.9943 -0.7484
  159SOL    HW2  477   1.096   0.466   2.607  0.0546 -0.5124  1.7740
  160SOL     OW  478   1.290   1.571   0.277  0.2143  0.4969 -0.2052
  160SOL    HW1  479   1.211   1.634   0.271  0.7711 -0.5970  1.0430
  160SOL    HW2  480   1.266   1.474   0.305 -1.1184 -0.3716 -0.5722
  161SOL     OW  481   0.044   2.248   3.004 -0.1149 -0.1334 -0.7803
  161SOL    HW1  482   0.083   2.244   2.914 -2.2147  0.1239  4.1166
  161SOL    HW2  483   0.114   2.227   3.073  0.0428 -1.1095  2.3698
  162SOL     OW  484   0.720   2.743   1.039 -0.8520  0.0305  0.3008
  162SOL    HW1  485   0.822   2.734   1.036 -0.1214  1.1144  1.9782
  162SOL    HW2  486   0.698   2.829   1.089 -0.6845 -0.8185  2.2015
  163SOL     OW  487   2.751   0.977   2.951 -0.1435  0.2721  0.0639
  163SOL    HW1  488   2.658   0.944   2.934 -1.0805  1.5334 -0.1786
  163SOL    HW2  489   2.804   0.901   2.993  1.0151 -2.4005 -0.3992
  164SOL     OW  490   0.107   2.877   3.004 -0.3700  0.0091 -0.0916
  164SOL    HW1  491   0.125   2.828   3.090 -1.7191 -2.5029 -3.3434
  164SOL    HW2  492   0.037   2.822   2.954 -3.1004 -0.4241  1.5035
  165SOL     OW  493   2.281   0.324   1.260 -0.0290 -0.2337  0.4190
  165SOL    HW1  494   2.230   0.411   1.270  1.2993  0.7744 -1.7376
  165SOL    HW2  495   2.226   0.272   1.193 -2.1251  1.7318  2.5517
  166SOL     OW  496   1.946   0.173   1.275  0.5342 -0.1801 -0.9112
  166SOL    HW1  497   2.006   0.200   1.196  0.7933  0.3815  2.1428
  166SOL    HW2  498   1.849   0.184   1.252  1.4900 -1.1414 -0.2591
  167SOL     OW  499   0.991   0.469   2.029 -0.1763 -0.3261  1.0537
  167SOL    HW1  500   0.934   0.515   1.958 -0.9754 -3.3946  1.6276
  167SOL    HW2  501   0.920   0.430   2.095 -2.3697 -2.6590  0.5056
  168SOL     OW  502   2.468   0.474   1.813  0.2843  0.0562 -0.0596
  168SOL    HW1  503   2.538   0.409   1.857  1.3855  0.3827  2.0626
  168SOL    HW2  504   2.373   0.474   1.856  0.4499  1.5115  0.2385
  169SOL     OW  505   0.493   1.463   0.271  0.0478 -0.0382  0.0271
  169SOL    HW1  506   0.471   1.507   0.362 -0.5724  2.0159 -1.2219
  169SOL    HW2  507   0.408   1.435   0.221 -2.0232 -0.8066  1.0469
  170SOL     OW  508   0.092   1.224   1.826  0.2467  0.4611 -0.0243
  170SOL    HW1  509   0.115   1.123   1.820 -0.5233 -1.3582  0.0236
  170SOL    HW2  510   0.155   1.278   1.884 -2.2197  0.3041  0.4382
  171SOL     OW  511   1.211   1.975   1.959 -0.1614 -0.5357 -0.1113
  171SOL    HW1  512   1.272   2.034   1.895 -0.9871 -1.0415  0.4222
  171SOL    HW2  513   1.154   1.905   1.914 -0.0375  2.8965  0.5874
  172SOL     OW  514   0.483   2.332   1.451 -0.0770  0.0976  0.3017
  172SOL    HW1  515   0.500   2.412   1.509  2.2043 -1.8761  0.9351
  172SOL    HW2  516   0.517   2.350   1.355  0.2062  1.4156  0.9883
  173SOL     OW  517   1.389   2.714   0.754  0.2488  0.1189  0.2601
  173SOL    HW1  518   1.368   2.760   0.664 -0.4297 -0.2790 -1.4840
  173SOL    HW2  519   1.387   2.611   0.740  1.7989 -0.3903 -3.9862
  174SOL     OW  520   1.325   2.760   0.211  0.6241 -0.2415 -0.7529
  174SOL    HW1  521   1.408   2.753   0.274 -0.5261 -1.1309 -1.8301
  174SOL    HW2  522   1.240   2.714   0.253 -2.8689 -2.0011 -0.2938
  175SOL     OW  523   0.990   1.082   2.925 -0.4172 -0.1599  0.1009
  175SOL    HW1  524   0.980   1.184   2.917  0.9578  1.5546 -2.2521
  175SOL    HW2  525   0.942   1.039   2.845  0.6218 -0.0911 -0.3816
  176SOL     OW  526   1.717   0.839   0.205  0.4337  0.1752 -0.3680
  176SOL    HW1  527   1.780   0.867   0.129  1.3957  0.3788 -0.0561
  176SOL    HW2  528   1.648   0.912   0.227 -1.2499  0.4674  0.4845
  177SOL     OW  529   1.266   1.019   0.820  0.6316  0.1105 -0.6213
  177SOL    HW1  530   1.170   1.019   0.850 -1.3146  1.8635  1.1391
  177SOL    HW2  531   1.316   0.963   0.895  0.7124 -1.5661  1.1894
  178SOL     OW  532   2.625   1.636   2.723  0.0309 -0.4356 -0.4826
  178SOL    HW1  533   2.678   1.562   2.760 -0.2573 -0.8549 -0.1117
  178SOL    HW2  534   2.601   1.619   2.623 -0.4431 -1.9541 -1.3510
  179SOL     OW  535   0.803   2.731   0.095  0.4459  0.2188  0.0562
  179SOL    HW1  536   0.765   2.696   0.010  0.2266  0.4663  1.6544
  179SOL    HW2  537   0.873   2.661   0.126 -0.5028 -2.0999  1.4006
  180SOL     OW  538   1.976   1.542   1.549 -0.2674 -0.4069  0.0377
  180SOL    HW1  539   1.917   1.500   1.480 -1.5445  2.9363  2.7806
  180SOL    HW2  540   1.965   1.494   1.636  1.3052  0.6463 -1.9606
  181SOL     OW  541   1.016   1.308   2.244  0.1511 -0.1002 -1.0657
  181SOL    HW1  542   0.985   1.220   2.195 -0.2624 -2.1473 -1.9896
  181SOL    HW2  543   1.065   1.276   2.328  0.8404  0.4270 -1.9984
  182SOL     OW  544   3.014   0.810   2.562 -0.4067  0.0626  0.2486
  182SOL    HW1  545   3.093   0.852   2.612  1.3300 -3.1421 -1.0566
  182SOL    HW2  546   2.987   0.880   2.492 -1.9322 -2.2903 -0.4750
  183SOL     OW  547   1.334   0.276   2.532  0.1363  0.2006  0.0912
  183SOL    HW1  548   1.374   0.314   2.619  0.1438  0.0481 -1.1316
  183SOL    HW2  549   1.341   0.172   2.540  1.2467 -1.7780 -3.9411
  184SOL     OW  550   0.094   0.432   1.425 -0.0183  0.0165  0.2979
  184SOL    HW1  551   0.047   0.512   1.386  0.9508 -1.7704  4.4197
  184SOL    HW2  552   0.033   0.369   1.479  3.0124  0.0672 -1.8615
  185SOL     OW  553   2.583   1.619   0.995 -0.1127 -0.0843 -0.3931
  185SOL    HW1  554   2.657   1.668   0.948 -0.7781 -0.9308  1.8338
  185SOL    HW2  555   2.628   1.531   1.023  2.6828 -0.0027  2.6507
  186SOL     OW  556   0.197   2.153   2.652  0.0375  0.0790  0.6744
  186SOL    HW1  557   0.257   2.107   2.579 -0.6306  1.0604 -2.5039
  186SOL    HW2  558   0.099   2.154   2.623 -0.9050  0.0662  0.2863
  187SOL     OW  559   2.600   1.948   3.058 -0.6039 -0.8220  0.5678
  187SOL    HW1  560   2.682   1.931   0.018  1.7832 -1.3182 -0.5637
  187SOL    HW2  561   2.543   2.027   3.090  1.2894  0.9330  0.6877
  188SOL     OW  562   0.859   2.191   0.375 -0.0881 -0.1865  0.4883
  188SOL    HW1  563   0.889   2.133   0.449 -0.7741  1.1702 -4.0211
  188SOL    HW2  564   0.773   2.144   0.342 -0.8248 -2.3641 -1.7260
  189SOL     OW  565   2.437   1.151   0.243 -0.1013  0.7880 -0.1638
  189SOL    HW1  566   2.396   1.216   0.299  2.2602 -0.9131 -2.8411
  189SOL    HW2  567   2.488   1.200   0.174  0.0211 -1.9978  0.8243
  190SOL     OW  568   0.682   1.693   2.022  0.0271 -0.2225 -0.2108
  190SOL    HW1  569   0.671   1.782   2.071 -3.3806  0.3565 -0.7369
  190SOL    HW2  570   0.775   1.678   1.987 -1.1791  1.0922 -0.5876
  191SOL     OW  571   2.492   0.442   1.544 -0.6037 -0.1313 -0.0933
  191SOL    HW1  572   2.469   0.428   1.644  0.8080  0.1030  2.6238
  191SOL    HW2  573   2.504   0.353   1.496  1.7478 -0.4972 -1.0027
  192SOL     OW  574   2.135   0.098   1.753 -0.3902  0.0819 -0.1587
  192SOL    HW1  575   2.147   0.191   1.792 -0.6566 -2.9750  0.5078
  192SOL    HW2  576   2.051   0.094   1.697  0.3640  0.1348  0.5217
  193SOL     OW  577   0.197   0.691   0.877  0.0273 -0.5189 -0.3672
  193SOL    HW1  578   0.148   0.774   0.910 -0.8405 -1.0131 -0.9602
  193SOL    HW2  579   0.129   0.625   0.830  0.8239 -1.9812  1.2890
  194SOL     OW  580   1.543   2.652   1.648 -0.2135 -0.1336 -0.3810
  194SOL    HW1  581   1.583   2.563   1.604  1.3949 -0.4166  0.3468
  194SOL    HW2  582   1.505   2.645   1.744 -1.9819  0.6073  0.8789
  195SOL     OW  583   2.498   0.572   0.902 -0.1800 -0.2784  0.1778
  195SOL    HW1  584   2.592   0.608   0.909 -0.8985 -1.4362 -0.1207
  195SOL    HW2  585   2.431   0.650   0.890 -0.7061  0.2902  1.4112
  196SOL     OW  586   1.595   2.268   2.014 -0.3252 -0.7352  0.0780
  196SOL    HW1  587   1.642   2.297   2.099 -0.4368 -2.7166  1.1080
  196SOL    HW2  588   1.501   2.309   2.003 -1.9205  1.0388 -1.8113
  197SOL     OW  589   0.288   3.049   0.002  0.4531  0.2261  0.1386
  197SOL    HW1  590   0.213   3.008   3.050  1.4835  1.0348 -0.5323
  197SOL    HW2  591   0.281   3.038   0.104 -2.2152  0.4297 -1.4381
  198SOL     OW  592   1.026   1.254   0.677  1.0637  0.2483  0.2175
  198SOL    HW1  593   1.116   1.242   0.646 -6.5347  1.4876 -1.2155
  198SOL    HW2  594   0.956   1.185   0.642  0.0730 -2.7338 -0.5921
  199SOL     OW  595   2.379   0.868   1.589 -0.5158  0.4640 -0.2461
  199SOL    HW1  596   2.474   0.902   1.591  1.1182  2.9917 -0.4129
  199SOL    HW2  597   2.319   0.949   1.615 -0.9002 -3.0840 -2.0043
  200SOL     OW  598   2.292   2.612   2.322  0.1596 -0.6686 -0.8276
  200SOL    HW1  599   2.291   2.713   2.350 -0.4932  4.3500  0.3026
  200SOL    HW2  600   2.295   2.557   2.408  1.1615  1.0589  0.9865
  201SOL     OW  601   2.753   0.168   1.329 -0.4620  0.2838 -0.3491
  201SOL    HW1  602   2.796   0.079   1.329 -1.0917  0.1086  1.1916
  201SOL    HW2  603   2.732   0.203   1.233  0.1795 -0.0485 -0.6267
  202SOL     OW  604   1.963   0.109   0.246 -0.2206  0.2605  0.1986
  202SOL    HW1  605   2.051   0.055   0.257  0.1106 -1.5801 -0.6128
  202SOL    HW2  606   1.961   0.193   0.302  2.2667  0.8054  0.7368
  203SOL     OW  607   1.346   1.837   2.158  0.0233 -1.2873  0.5284
  203SOL    HW1  608   1.278   1.879   2.095  1.0743 -0.1175  1.0825
  203SOL    HW2  609   1.405   1.907   2.205 -0.5276  0.3501  2.8004
  204SOL     OW  610   0.941   1.540   2.532  0.4587  0.3080 -0.8977
  204SOL    HW1  611   0.868   1.469   2.541 -0.2487 -0.6192 -0.6968
  204SOL    HW2  612   0.930   1.594   2.447 -1.1141 -1.1119  1.4037
  205SOL     OW  613   0.965   1.703   1.340  0.0941 -0.1487 -0.0396
  205SOL    HW1  614   1.004   1.618   1.299 -1.1849 -2.6098  0.5689
  205SOL    HW2  615   0.877   1.682   1.394 -1.7094 -0.8857  3.4844
  206SOL     OW  616   2.935   0.503   2.945 -0.0364  0.1913 -0.0450
  206SOL    HW1  617   2.970   0.496   2.851  1.6572 -0.3790 -0.4671
  206SOL    HW2  618   2.873   0.423   2.965 -0.8500  3.8003 -1.6519
  207SOL     OW  619   1.690   2.842   2.316  0.0198 -0.7531 -0.3909
  207SOL    HW1  620   1.756   2.913   2.275  2.2127 -0.2665 -0.1927
  207SOL    HW2  621   1.707   2.745   2.286  1.7536 -2.4376 -2.2976
  208SOL     OW  622   0.634   2.356   1.217  0.2777 -0.2601  0.2203
  208SOL    HW1  623   0.713   2.378   1.271 -0.4683  0.3273 -2.2288
  208SOL    HW2  624   0.617   2.427   1.148  2.0823 -1.1399  3.5198
  209SOL     OW  625   1.404   1.228   2.211 -0.2163 -0.2020  0.2789
  209SOL    HW1  626   1.384   1.243   2.115  0.3634 -0.8802  1.3899
  209SOL    HW2  627   1.401   1.317   2.266  2.9308 -0.1620 -1.5256
  210SOL     OW  628   1.881   0.849   1.175 -0.0938  0.0074  0.3401
  210SOL    HW1  629   1.890   0.845   1.075 -0.1569 -1.3861  1.9207
  210SOL    HW2  630   1.831   0.768   1.215 -0.3427 -0.1750  0.4633
  211SOL     OW  631   0.929   2.889   0.686 -0.4316 -0.3551 -0.3330
  211SOL    HW1  632   0.886   2.841   0.612  1.2483  1.9322  1.2573
  211SOL    HW2  633   1.015   2.845   0.719 -1.4874  0.5578 -1.4777
  212SOL     OW  634   1.777   1.681   0.344  0.2969  0.0305  0.4388
  212SOL    HW1  635   1.676   1.691   0.332 -2.0222  2.0793 -0.6101
  212SOL    HW2  636   1.809   1.722   0.434 -0.5477  0.7101  2.2174
  213SOL     OW  637   1.456   0.398   2.749  0.6274 -0.0836  0.4580
  213SOL    HW1  638   1.410   0.343   2.822  0.7075  0.3213  0.4514
  213SOL    HW2  639   1.490   0.487   2.781 -1.3416 -0.7088  2.1506
  214SOL     OW  640   1.102   1.523   2.096  0.3048 -0.0347  0.1613
  214SOL    HW1  641   1.081   1.432   2.137 -0.8389  0.0639 -1.2502
  214SOL    HW2  642   1.198   1.528   2.076 -0.6843 -0.7651  3.4027
  215SOL     OW  643   0.854   1.811   0.309 -0.5636  0.2441 -0.2094
  215SOL    HW1  644   0.781   1.870   0.270 -0.6965  2.1032  0.0535
  215SOL    HW2  645   0.833   1.785   0.404 -1.4797  2.7437  2.0444
  216SOL     OW  646   0.277   2.809   2.180 -0.6139  0.3279  0.1176
  216SOL    HW1  647   0.333   2.899   2.179  1.8605  4.5136  0.7593
  216SOL    HW2  648   0.341   2.731   2.209  0.2658  0.9567  1.0443
  217SOL     OW  649   2.375   1.045   0.819  0.0260 -0.0794 -0.2129
  217SOL    HW1  650   2.408   1.114   0.887 -1.8859 -0.4291  3.2261
  217SOL    HW2  651   2.284   1.076   0.785  2.6001 -0.0904 -1.2960
  218SOL     OW  652   1.801   1.509   1.872  0.0912  0.4172 -0.3209
  218SOL    HW1  653   1.744   1.536   1.950  1.9278 -0.7188  0.5333
  218SOL    HW2  654   1.899   1.518   1.906  1.2989  1.4653 -0.2524
  219SOL     OW  655   1.923   1.688   0.094 -0.2651  0.4716  0.2492
  219SOL    HW1  656   1.878   1.644   0.017 -1.3497  1.0165  2.1142
  219SOL    HW2  657   1.857   1.701   0.167 -0.4848 -0.8300 -0.2443
  220SOL     OW  658   1.279   1.297   0.907  0.6105 -0.3064 -0.2783
  220SOL    HW1  659   1.284   1.359   0.825 -2.0471 -0.8781 -0.9768
  220SOL    HW2  660   1.287   1.200   0.881 -0.8365 -1.7484 -0.4811
  221SOL     OW  661   0.850   0.599   2.758  0.4845  0.1629  0.2552
  221SOL    HW1  662   0.789   0.639   2.685 -2.2866  0.1065 -0.6263
  221SOL    HW2  663   0.811   0.621   2.854  1.9872 -0.0894  2.1736
  222SOL     OW  664   1.191   1.320   0.357  0.1612 -0.5114 -0.1159
  222SOL    HW1  665   1.219   1.314   0.458 -0.4022 -0.5064  2.9593
  222SOL    HW2  666   1.096   1.355   0.333 -2.4458  2.2088 -2.8116
  223SOL     OW  667   1.005   2.992   2.802 -0.1256  0.3577  0.2398
  223SOL    HW1  668   1.102   2.999   2.826 -3.2138  0.2269  0.7283
  223SOL    HW2  669   0.946   2.981   2.881  1.2797  0.0976 -0.7158
  224SOL     OW  670   2.489   0.181   1.432  0.0871  0.1776 -0.3454
  224SOL    HW1  671   2.422   0.218   1.364 -0.1962 -2.9827  3.3384
  224SOL    HW2  672   2.581   0.156   1.393  2.8539 -1.1013 -1.8516
  225SOL     OW  673   0.714   0.151   1.241  0.8507 -0.2711 -0.0420
  225SOL    HW1  674   0.615   0.173   1.238  1.2713 -1.0217  2.1924
  225SOL    HW2  675   0.769   0.192   1.165 -1.9534  2.4037  2.0739
  226SOL     OW  676   1.246   1.596   2.952  0.1742  0.5348 -0.5538
  226SOL    HW1  677   1.299   1.607   2.866  1.3395  3.3955  0.8009
  226SOL    HW2  678   1.285   1.515   3.002  0.7260 -1.9405  2.1358
  227SOL     OW  679   1.048   1.434   1.246 -0.4079  0.1747 -0.1499
  227SOL    HW1  680   1.047   1.401   1.151 -2.7491 -0.1621  0.3616
  227SOL    HW2  681   1.136   1.421   1.288 -0.9051 -3.9053 -2.7229
  228SOL     OW  682   0.589   1.682   0.710 -0.8659  0.4960 -0.0428
  228SOL    HW1  683   0.624   1.591   0.750  1.2902 -4.2881  1.2526
  228SOL    HW2  684   0.551   1.744   0.778  1.8312 -1.5372 -0.5923
  229SOL     OW  685   1.215   0.513   0.008 -0.2362  0.6727  0.2424
  229SOL    HW1  686   1.136   0.554   3.068  1.7542  0.8363  2.4493
  229SOL    HW2  687   1.286   0.584   0.014 -2.5197  2.2614  1.7848
  230SOL     OW  688   1.189   0.515   2.211 -0.2988  0.5136  0.1398
  230SOL    HW1  689   1.107   0.488   2.160  1.7945 -1.8744 -0.6579
  230SOL    HW2  690   1.260   0.444   2.200  0.6465  2.5425 -1.3405
  231SOL     OW  691   1.216   1.720   2.355  0.1593 -0.0860  0.3147
  231SOL    HW1  692   1.134   1.775   2.381 -0.5407  0.5237 -3.0181
  231SOL    HW2  693   1.255   1.764   2.267  0.4950 -0.3628 -0.0568
  232SOL     OW  694   2.394   2.120   0.943 -0.0480  0.1574 -0.0892
  232SOL    HW1  695   2.462   2.140   1.016 -1.6790 -2.8445  1.7471
  232SOL    HW2  696   2.336   2.048   0.978  0.4529 -3.0282 -1.1851
  233SOL     OW  697   2.729   2.849   0.242 -0.8849  0.1528 -0.0912
  233SOL    HW1  698   2.797   2.868   0.166 -1.0474  1.6698 -1.1051
  233SOL    HW2  699   2.636   2.846   0.208 -1.7731  0.9726 -1.4270
  234SOL     OW  700   0.899   0.149   2.819 -0.2770 -0.1941 -0.0723
  234SOL    HW1  701   0.986   0.140   2.872  1.0041 -3.2253  1.3048
  234SOL    HW2  702   0.897   0.082   2.745  0.0407  2.0349  1.2179
  235SOL     OW  703   2.629   0.274   2.740 -0.4963 -0.3333  0.2813
  235SOL    HW1  704   2.571   0.260   2.824 -1.4175  0.0561  2.9166
  235SOL    HW2  705   2.582   0.327   2.668 -1.2738  2.4706  3.4048
  236SOL     OW  706   2.040   2.420   2.013 -0.7727  0.0330  0.3872
  236SOL    HW1  707   2.012   2.440   2.111  0.0683 -0.5519  1.9049
  236SOL    HW2  708   1.998   2.331   1.983 -0.6478  1.4283 -1.9480
  237SOL     OW  709   0.789   1.445   2.209  0.0495 -0.3453  0.1545
  237SOL    HW1  710   0.787   1.546   2.219  0.9735 -1.0967 -0.3827
  237SOL    HW2  711   0.868   1.397   2.247 -2.5258  0.0747 -0.6962
  238SOL     OW  712   1.702   0.083   2.443 -0.0088 -0.2335 -0.1495
  238SOL    HW1  713   1.679   0.069   2.537 -0.0874 -1.2730 -3.9560
  238SOL    HW2  714   1.764   0.012   2.402 -0.0124  0.7542  0.9912
  239SOL     OW  715   0.047   1.981   1.825 -0.1153 -0.6871 -0.2534
  239SOL    HW1  716   0.121   2.001   1.892 -0.6368 -0.1291 -0.2247
  239SOL    HW2  717   0.020   1.885   1.834 -0.9391  2.0224 -2.0089
  240SOL     OW  718   3.022   2.587   0.788 -0.7566 -0.2564  0.3947
  240SOL    HW1  719   2.977   2.498   0.821 -0.1662  0.1602 -1.1546
  240SOL    HW2  720   2.973   2.624   0.705 -1.5409  0.2173 -0.2700
  241SOL     OW  721   2.213   1.323   0.994  0.0461 -0.5780 -0.3040
  241SOL    HW1  722   2.189   1.395   0.924 -1.2451 -1.0718 -0.1279
  241SOL    HW2  723   2.146   1.245   0.985 -1.0887 -0.4927  0.1240
  242SOL     OW  724   1.802   2.050   2.616 -0.1626 -0.0978  0.3683
  242SOL    HW1  725   1.890   2.060   2.672  0.3939  0.4740 -0.0263
  242SOL    HW2  726   1.727   2.063   2.684 -2.0239 -0.2525  1.6157
  243SOL     OW  727   0.744   2.440   1.768 -0.5350 -0.0717 -0.4450
  243SOL    HW1  728   0.716   2.495   1.689 -1.1821 -1.1627  0.1431
  243SOL    HW2  729   0.844   2.434   1.786  1.3193 -0.2174 -0.3743
  244SOL     OW  730   2.163   3.078   2.856  0.5781 -0.4706 -0.3012
  244SOL    HW1  731   2.160   0.067   2.808 -0.0651 -1.0404 -0.3290
  244SOL    HW2  732   2.122   3.008   2.800  0.1805  2.0101 -3.5367
  245SOL     OW  733   1.511   2.914   0.907  0.3779  0.1216 -0.1912
  245SOL    HW1  734   1.472   2.892   1.003 -1.6295 -0.3825 -1.0109
  245SOL    HW2  735   1.479   2.839   0.847 -1.6660  1.0896  0.2326
  246SOL     OW  736   1.621   2.454   0.190 -0.2228  0.0210 -0.9385
  246SOL    HW1  737   1.720   2.478   0.180 -0.9876 -4.3410 -0.2386
  246SOL    HW2  738   1.599   2.354   0.168  0.6035 -1.5671 -0.5371
  247SOL     OW  739   0.775   0.396   2.232  0.2946  0.4066  0.5307
  247SOL    HW1  740   0.689   0.369   2.181 -1.9184  2.2301  0.5050
  247SOL    HW2  741   0.792   0.333   2.309 -0.8490  1.5297 -1.2057
  248SOL     OW  742   0.401   1.836   1.792 -0.3588  0.7102  0.2614
  248SOL    HW1  743   0.476   1.782   1.747  0.3412 -1.7379  0.0328
  248SOL    HW2  744   0.314   1.820   1.742  3.0336  2.3225  1.7228
  249SOL     OW  745   2.294   0.509   0.502 -0.2196  0.0901  0.4780
  249SOL    HW1  746   2.303   0.435   0.431  0.6026  0.8904 -0.5373
  249SOL    HW2  747   2.231   0.572   0.455 -3.3679 -2.9871 -1.9376
  250SOL     OW  748   0.269   0.470   0.492 -0.2654 -0.1337  0.0281
  250SOL    HW1  749   0.348   0.415   0.532 -1.8945  1.4010  0.9151
  250SOL    HW2  750   0.252   0.445   0.397  0.9533 -0.5696  0.2461
  251SOL     OW  751   1.773   0.362   2.896  0.1464  0.0033  0.1323
  251SOL    HW1  752   1.776   0.370   2.792 -0.5904  0.9784 -3.4060
  251SOL    HW2  753   1.859   0.322   2.937 -0.7499 -0.0633 -1.3038
  252SOL     OW  754   1.697   1.859   2.072 -0.3154 -0.2739  0.4799
  252SOL    HW1  755   1.616   1.874   2.128 -1.6941 -2.5377 -0.9273
  252SOL    HW2  756   1.749   1.775   2.105 -0.5986  0.1812  3.5685
  253SOL     OW  757   2.613   2.435   1.850 -0.1139 -0.0404 -0.0251
  253SOL    HW1  758   2.688   2.437   1.919 -3.0302 -0.8234 -0.4537
  253SOL    HW2  759   2.592   2.340   1.838  0.3000  1.4978  2.4545
  254SOL     OW  760   3.080   1.488   1.205  0.2116 -0.4317 -0.3808
  254SOL    HW1  761   3.041   1.392   1.197  0.7629 -0.4775  0.3361
  254SOL    HW2  762   0.080   1.480   1.212 -2.0365 -0.8949  2.7178
  255SOL     OW  763   1.045   0.486   1.241  0.2031 -0.5542  0.2198
  255SOL    HW1  764   0.953   0.447   1.244  0.3892  0.0105 -0.7209
  255SOL    HW2  765   1.052   0.549   1.320 -2.5004  0.4522  1.3397
  256SOL     OW  766   2.060   2.533   1.510 -0.3952  0.0014  0.1478
  256SOL    HW1  767   2.025   2.603   1.574 -1.7488  0.0734  1.0757
  256SOL    HW2  768   1.997   2.454   1.500 -1.6952  0.6646 -2.5079
  257SOL     OW  769   0.666   2.659   2.684 -0.1931 -0.5009  0.2870
  257SOL    HW1  770   0.769   2.685   2.690  3.9851  0.8854 -0.5878
  257SOL    HW2  771   0.663   2.569   2.637 -1.5916 -0.9193  1.7628
  258SOL     OW  772   0.715   2.320   0.151 -0.2642  0.3085 -0.7249
  258SOL    HW1  773   0.790   2.256   0.179  1.2376 -2.4353 -2.3897
  258SOL    HW2  774   0.716   2.340   0.051 -0.6303 -0.4035 -2.4105
  259SOL     OW  775   0.923   0.073   2.107  0.0515  0.0418 -0.4815
  259SOL    HW1  776   0.991   0.123   2.041  1.2094 -0.1020 -1.9580
  259SOL    HW2  777   0.840   0.031   2.060 -0.3934 -2.2926 -1.9891
  260SOL     OW  778   1.746   0.551   1.016  0.3180 -0.3085 -0.2526
  260SOL    HW1  779   1.698   0.639   1.021 -0.7266  1.3098 -0.4768
  260SOL    HW2  780   1.848   0.562   1.025  0.6447  2.1170  0.7868
  261SOL     OW  781   0.463   0.197   2.508 -0.4022 -0.1929  0.0234
  261SOL    HW1  782   0.449   0.210   2.607  0.7859 -0.0835 -4.9720
  261SOL    HW2  783   0.567   0.197   2.495  1.2099  2.2636  1.7782
  262SOL     OW  784   0.204   2.128   2.060 -0.2336 -0.3119 -0.9596
  262SOL    HW1  785   0.277   2.187   2.020 -0.9900 -3.6445  2.3194
  262SOL    HW2  786   0.241   2.039   2.094  0.5973 -2.3380  0.8305
  263SOL     OW  787   2.840   1.641   2.291  0.4084 -0.1403  0.1564
  263SOL    HW1  788   2.798   1.732   2.281 -0.5994 -0.1971 -0.4122
  263SOL    HW2  789   2.938   1.656   2.317  0.2594  1.8796  1.3825
  264SOL     OW  790   0.561   1.101   1.065  0.1969  0.3614  0.8714
  264SOL    HW1  791   0.505   1.063   1.144 -1.5524 -0.5728  1.0485
  264SOL    HW2  792   0.505   1.099   0.982  0.2363  1.1926  1.8036
  265SOL     OW  793   1.043   2.377   0.952 -0.2316 -0.2528  0.1019
  265SOL    HW1  794   0.976   2.331   1.003  1.0864  0.9231 -2.0687
  265SOL    HW2  795   1.131   2.325   0.972  1.2745 -1.4584  1.2311
  266SOL     OW  796   1.509   1.018   0.961 -0.2322  0.2494 -0.5829
  266SOL    HW1  797   1.529   1.075   1.048  0.1225  0.1742  2.3666
  266SOL    HW2  798   1.521   1.078   0.881  1.5864 -2.0502 -0.8650
  267SOL     OW  799   2.679   1.150   0.073  0.7768 -0.4456 -0.0190
  267SOL    HW1  800   2.753   1.146   0.140 -0.8307 -1.2733 -0.3049
  267SOL    HW2  801   2.698   1.089   3.092 -1.5106 -1.2855 -2.0620
  268SOL     OW  802   1.261   0.388   0.250  0.1606  0.4075  0.0811
  268SOL    HW1  803   1.327   0.446   0.303 -2.0921 -0.3486  1.2902
  268SOL    HW2  804   1.235   0.424   0.158  0.3867  3.0953  0.7435
  269SOL     OW  805   2.257   0.677   2.715 -0.8920  0.4238 -0.3592
  269SOL    HW1  806   2.319   0.620   2.771 -0.3495 -0.0162  1.3626
  269SOL    HW2  807   2.179   0.710   2.771 -3.2199 -1.4969 -0.1691
  270SOL     OW  808   0.233   0.846   3.053 -0.1266  0.0060 -0.3620
  270SOL    HW1  809   0.252   0.772   0.022  0.8030  2.0776 -0.0753
  270SOL    HW2  810   0.140   0.880   3.078 -1.0388 -0.9511  0.4260
  271SOL     OW  811   2.876   1.113   0.298  0.6995  0.4734 -0.2632
  271SOL    HW1  812   2.810   1.117   0.376 -0.2545  1.2290 -1.7399
  271SOL    HW2  813   2.924   1.201   0.286  3.1342  0.5532  2.9250
  272SOL     OW  814   0.007   2.713   2.798  0.6503  0.0396 -0.0626
  272SOL    HW1  815   0.105   2.724   2.764 -2.4432 -2.2789  1.7342
  272SOL    HW2  816   3.068   2.619   2.796 -1.5396 -2.2037  1.7079
  273SOL     OW  817   2.860   2.942   0.032 -0.2011 -0.2616  0.1309
  273SOL    HW1  818   2.941   2.994   0.080  0.5031  1.8910 -0.1698
  273SOL    HW2  819   2.826   2.991   3.050  2.0660 -1.1203 -1.3244
  274SOL     OW  820   0.569   2.488   0.986  0.3941 -0.3140  0.1446
  274SOL    HW1  821   0.607   2.581   1.001  0.5238 -0.1839 -0.5734
  274SOL    HW2  822   0.626   2.440   0.916  0.8900  1.1463 -1.7623
  275SOL     OW  823   2.719   1.483   0.248  0.0600  0.8679  0.7811
  275SOL    HW1  824   2.705   1.529   0.155  0.0613 -0.7607  0.8310
  275SOL    HW2  825   2.815   1.446   0.243  3.1872  0.1698  0.3313
  276SOL     OW  826   2.804   1.290   1.782  0.1415 -0.0368  0.1990
  276SOL    HW1  827   2.823   1.197   1.751 -0.5290  3.9823 -1.1816
  276SOL    HW2  828   2.885   1.352   1.758  1.5552  0.5819 -0.9550
  277SOL     OW  829   2.143   0.199   1.061 -0.1711 -0.3869 -0.3037
  277SOL    HW1  830   2.128   0.106   1.026 -0.5374 -0.0643  0.0023
  277SOL    HW2  831   2.116   0.266   0.989 -2.5329  1.1378  0.6492
  278SOL     OW  832   1.445   2.317   2.309  0.3249 -0.8591  0.3550
  278SOL    HW1  833   1.543   2.292   2.292 -0.5802 -0.5075  0.6027
  278SOL    HW2  834   1.393   2.335   2.224 -0.6128 -2.9830 -1.6534
  279SOL     OW  835   1.626   1.733   0.674 -0.0461  0.3727  0.0032
  279SOL    HW1  836   1.723   1.743   0.641  0.8323 -2.5704  0.7760
  279SOL    HW2  837   1.577   1.819   0.701 -2.3947 -2.6178 -3.0443
  280SOL     OW  838   0.215   1.328   0.981 -0.2966  0.3300  0.3609
  280SOL    HW1  839   0.217   1.410   0.914  0.4796  1.5003 -2.0315
  280SOL    HW2  840   0.271   1.350   1.061 -0.4987 -1.2268  0.1872
  281SOL     OW  841   0.066   1.441   2.341 -0.3364  0.1415  0.4691
  281SOL    HW1  842   0.150   1.386   2.362  0.0308  0.4499 -0.2333
  281SOL    HW2  843   0.036   1.504   2.416  4.7832  1.0204 -1.9051
  282SOL     OW  844   0.698   1.396   0.099  0.0111  0.0794  0.4938
  282SOL    HW1  845   0.617   1.405   0.159 -1.5816 -1.2583  1.5037
  282SOL    HW2  846   0.757   1.478   0.107  2.3838  3.1487  1.1556
  283SOL     OW  847   2.397   2.390   3.065 -0.3912  0.1866 -0.0326
  283SOL    HW1  848   2.336   2.436   0.031  0.0443 -0.3090  2.3309
  283SOL    HW2  849   2.498   2.409   3.071 -2.6752  0.3158  0.1460
  284SOL     OW  850   1.042   0.013   0.492  0.0160 -0.1968  0.7010
  284SOL    HW1  851   1.038   3.059   0.577  2.9393 -0.0893  0.5944
  284SOL    HW2  852   1.085   3.064   0.415  0.0114  0.4606  0.7611
  285SOL     OW  853   2.249   1.264   2.907  0.5608 -0.2413  0.6466
  285SOL    HW1  854   2.297   1.179   2.887 -1.4116  1.0254  0.8811
  285SOL    HW2  855   2.313   1.338   2.941 -0.7265 -0.3602 -0.8230
  286SOL     OW  856   1.925   2.561   1.133 -0.6979  0.3501 -0.4203
  286SOL    HW1  857   1.974   2.534   1.221  2.0414  2.1571  0.7792
  286SOL    HW2  858   1.845   2.622   1.152  1.8840 -0.6698  2.3497
  287SOL     OW  859   1.227   0.291   0.712 -0.3908  0.3334 -0.5400
  287SOL    HW1  860   1.175   0.283   0.625 -0.1098 -0.0321  0.5362
  287SOL    HW2  861   1.293   0.368   0.710  1.0016  2.9833  0.6864
  288SOL     OW  862   1.142   2.505   2.635  0.0535 -0.0062  0.3390
  288SOL    HW1  863   1.137   2.446   2.715  1.3894 -1.0246  2.2028
  288SOL    HW2  864   1.207   2.584   2.645 -0.7558  0.2012 -2.4346
  289SOL     OW  865   0.263   1.564   1.260  0.2860 -0.0445  0.2628
  289SOL    HW1  866   0.300   1.603   1.346  0.3297 -2.5923 -0.9801
  289SOL    HW2  867   0.324   1.489   1.231 -0.9268 -0.4009 -0.2325
  290SOL     OW  868   1.556   2.178   1.025 -0.1032  0.2186 -0.1203
  290SOL    HW1  869   1.597   2.218   1.109  2.0556 -1.5405 -1.7529
  290SOL    HW2  870   1.592   2.082   1.022 -2.4593 -1.4245 -2.1816
  291SOL     OW  871   1.773   2.871   0.075 -0.1262  0.5696 -0.2273
  291SOL    HW1  872   1.705   2.793   0.075 -0.9541  0.3797 -2.9763
  291SOL    HW2  873   1.711   2.954   0.071 -2.1440  1.4321  2.0042
  292SOL     OW  874   0.689   0.230   1.604  0.2059 -0.6200 -0.3366
  292SOL    HW1  875   0.767   0.224   1.541 -0.2466  0.5794 -2.8813
  292SOL    HW2  876   0.714   0.265   1.699 -2.0648  1.9786  0.8812
  293SOL     OW  877   2.496   2.427   1.160  0.0800 -0.6830  0.3313
  293SOL    HW1  878   2.502   2.506   1.223 -1.3045  0.6349 -4.3388
  293SOL    HW2  879   2.401   2.417   1.122  0.4214  0.7982  1.5686
  294SOL     OW  880   0.596   0.612   2.282  0.2075 -0.0023 -0.3040
  294SOL    HW1  881   0.667   0.539   2.259  0.1925  0.9522 -0.8465
  294SOL    HW2  882   0.549   0.588   2.374 -1.7660 -2.7463  2.3652
  295SOL     OW  883   1.472   1.586   1.290  0.6029  0.0500  0.2161
  295SOL    HW1  884   1.512   1.673   1.253  1.2262  0.9685  0.6095
  295SOL    HW2  885   1.450   1.528   1.207  2.2561  0.4842 -1.8675
  296SOL     OW  886   2.588   1.889   0.335 -0.5246  0.4424 -0.3135
  296SOL    HW1  887   2.646   1.877   0.253 -1.6652  0.5573 -3.2217
  296SOL    HW2  888   2.506   1.943   0.318 -0.3994 -1.2307 -1.6551
  297SOL     OW  889   2.193   3.084   0.255 -0.2509  0.2762 -0.2144
  297SOL    HW1  890   2.231   0.010   0.166 -4.1047  3.0255  1.1118
  297SOL    HW2  891   2.261   3.035   0.315 -0.7966  1.1909  2.1245
  298SOL     OW  892   0.920   2.741   2.728  0.1353  0.2855 -0.2602
  298SOL    HW1  893   1.010   2.729   2.681  2.4295  1.5412 -1.4127
  298SOL    HW2  894   0.902   2.841   2.737  0.4833 -0.9586  1.5520
  299SOL     OW  895   1.037   2.182   2.071  0.3558  0.0303 -0.1208
  299SOL    HW1  896   1.085   2.115   2.016  0.7796  0.9876 -1.6468
  299SOL    HW2  897   1.082   2.199   2.158 -0.1931 -0.9148 -1.2430
  300SOL     OW  898   2.866   0.306   2.577  0.0205 -0.2175  0.0065
  300SOL    HW1  899   2.935   0.298   2.653  1.4474  2.8718  2.7337
  300SOL    HW2  900   2.771   0.319   2.614  0.3711 -2.1239 -0.5843
  301SOL     OW  901   0.963   0.902   1.938  0.2115 -0.1069  0.0227
  301SOL    HW1  902   0.875   0.854   1.924  0.2557  2.4597 -2.7704
  301SOL    HW2  903   1.026   0.853   2.003  1.2358 -0.4084 -2.1952
  302SOL     OW  904   3.071   2.383   0.531  0.0976  0.3698  0.0079
  302SOL    HW1  905   0.059   2.357   0.495 -1.0981 -0.3960  2.0432
  302SOL    HW2  906   3.019   2.293   0.545  1.8123 -1.4488  1.5020
  303SOL     OW  907   2.466   2.669   1.809 -0.5371 -0.2115  0.0684
  303SOL    HW1  908   2.514   2.581   1.795 -2.8923  2.4379 -1.4410
  303SOL    HW2  909   2.388   2.657   1.866  1.8132 -2.2407 -1.2155
  304SOL     OW  910   2.869   1.043   1.726 -0.0589 -0.0527  0.0271
  304SOL    HW1  911   2.909   0.987   1.803  0.7205 -0.9673 -2.0729
  304SOL    HW2  912   2.933   1.020   1.654 -0.2152 -0.8281  0.5190
  305SOL     OW  913   0.780   1.370   1.215 -0.5411  0.3074  0.5463
  305SOL    HW1  914   0.871   1.399   1.252 -0.7455 -1.5500  1.5667
  305SOL    HW2  915   0.756   1.415   1.127 -0.3150  2.5277  0.4184
  306SOL     OW  916   0.374   1.386   1.968 -0.4783  0.1627  0.5080
  306SOL    HW1  917   0.421   1.310   2.016  0.5841 -0.5763  1.3950
  306SOL    HW2  918   0.394   1.475   2.019 -1.5322  1.4338 -0.0857
  307SOL     OW  919   0.758   0.568   1.848  0.0688  0.4611  0.3883
  307SOL    HW1  920   0.732   0.469   1.871 -0.8652 -5.5689  0.3062
  307SOL    HW2  921   0.791   0.578   1.752 -0.5912  0.9544  0.8761
  308SOL     OW  922   2.969   1.233   1.239  0.5537  0.0031 -0.7696
  308SOL    HW1  923   2.943   1.281   1.325  0.8990 -0.0104 -1.7212
  308SOL    HW2  924   2.885   1.212   1.182 -1.4880  2.3593 -1.3053
  309SOL     OW  925   2.678   1.367   1.059 -0.3510  0.0223  0.8932
  309SOL    HW1  926   2.697   1.346   1.162  3.2643 -1.3538 -1.3191
  309SOL    HW2  927   2.733   1.299   1.005  1.9165  0.5780 -0.1639
  310SOL     OW  928   3.004   2.179   2.729  0.1260  0.6258 -0.3134
  310SOL    HW1  929   2.981   2.104   2.795 -1.6474 -2.2988  0.4102
  310SOL    HW2  930   2.982   2.150   2.633 -0.7590 -0.7665 -1.3196
  311SOL     OW  931   2.901   2.581   2.507 -0.4869 -0.1741  0.3933
  311SOL    HW1  932   2.971   2.659   2.518 -1.1280  0.6144 -0.0782
  311SOL    HW2  933   2.813   2.584   2.562  0.3021  1.3299  1.0387
  312SOL     OW  934   2.176   2.032   0.135  0.1493 -0.2531 -0.4214
  312SOL    HW1  935   2.089   2.058   0.187 -0.3593  1.6285  2.5953
  312SOL    HW2  936   2.171   1.946   0.085 -0.0059 -0.7084  1.0837
  313SOL     OW  937   2.665   2.887   0.715 -0.3684 -0.1623 -0.0636
  313SOL    HW1  938   2.748   2.937   0.749 -1.7883  0.9407 -0.3840
  313SOL    HW2  939   2.687   2.811   0.651 -1.4995  2.1275 -1.7326
  314SOL     OW  940   1.980   1.186   0.137  0.1925  0.5545  0.0491
  314SOL    HW1  941   1.952   1.266   0.193  0.9024 -2.9313 -1.2213
  314SOL    HW2  942   1.981   1.214   0.035 -0.2518  1.1840 -0.3069
  315SOL     OW  943   1.522   2.848   2.106 -0.3344 -0.0535 -0.0554
  315SOL    HW1  944   1.545   2.865   2.204 -0.3963  2.9183  0.1798
  315SOL    HW2  945   1.531   2.935   2.055 -1.9508  0.5668 -0.9777
  316SOL     OW  946   2.880   0.748   3.045 -0.0786 -0.0194 -0.0240
  316SOL    HW1  947   2.964   0.801   3.052  0.4173 -2.1878 -1.6768
  316SOL    HW2  948   2.895   0.655   3.009 -1.6093 -0.3107  2.4077
  317SOL     OW  949   0.697   2.859   0.308 -0.2417  0.2214 -0.0044
  317SOL    HW1  950   0.749   2.941   0.329  0.6619  0.0090  2.2275
  317SOL    HW2  951   0.737   2.803   0.233  1.9978 -0.2725  1.5188
  318SOL     OW  952   2.452   2.533   0.773 -0.1482 -0.2539 -0.5078
  318SOL    HW1  953   2.390   2.464   0.726  0.4362 -0.8034 -1.0325
  318SOL    HW2  954   2.548   2.510   0.761 -0.1215 -0.6491 -0.0193
  319SOL     OW  955   1.173   1.948   2.807 -0.1628  0.1068  0.1853
  319SOL    HW1  956   1.100   1.975   2.866  2.1463 -1.2457  1.2259
  319SOL    HW2  957   1.140   1.861   2.768 -3.1712  0.5580  2.6930
  320SOL     OW  958   0.489   2.050   1.671  0.2889  0.1103  0.1870
  320SOL    HW1  959   0.456   1.971   1.724 -1.7344  0.5683 -2.7570
  320SOL    HW2  960   0.416   2.122   1.667  1.0690  0.3913  0.1621
  321SOL     OW  961   1.484   2.821   2.488 -0.0219  0.2659 -0.3817
  321SOL    HW1  962   1.452   2.735   2.444  0.0933 -2.4697  0.8443
  321SOL    HW2  963   1.573   2.852   2.449  2.6251  3.9785 -0.7449
  322SOL     OW  964   2.720   1.435   2.132 -0.2564 -0.6847 -0.2124
  322SOL    HW1  965   2.773   1.509   2.182  0.8497  0.8865  0.8482
  322SOL    HW2  966   2.661   1.375   2.194 -1.6852  1.0640  0.7255
  323SOL     OW  967   2.337   0.785   0.886 -0.0027  0.3479 -0.7137
  323SOL    HW1  968   2.354   0.874   0.842  0.5110 -0.8203 -1.5114
  323SOL    HW2  969   2.295   0.799   0.977  0.3746  3.2094  0.5865
  324SOL     OW  970   2.744   0.007   2.226  0.1933 -0.2313 -0.4223
  324SOL    HW1  971   2.781   3.057   2.305  2.7759 -0.1958  1.6004
  324SOL    HW2  972   2.662   0.069   2.242 -0.2946 -0.2064 -2.2367
  325SOL     OW  973   1.066   0.795   2.579 -0.4504 -0.5858  0.0531
  325SOL    HW1  974   1.065   0.692   2.583  0.5683 -1.8029 -1.4536
  325SOL    HW2  975   1.039   0.840   2.496  1.7317 -3.0585  1.4798
  326SOL     OW  976   1.752   2.992   1.787  0.7294 -0.2804  0.2980
  326SOL    HW1  977   1.733   3.063   1.851  0.9281 -3.4359  1.1778
  326SOL    HW2  978   1.806   2.910   1.821 -3.0659 -2.2731 -2.2775
  327SOL     OW  979   2.236   0.322   0.102 -0.1560  0.1942 -0.4849
  327SOL    HW1  980   2.216   0.225   0.078  0.2862 -0.4103  1.4954
  327SOL    HW2  981   2.307   0.327   0.177  1.9076 -1.8235  1.8097
  328SOL     OW  982   3.088   1.622   2.514 -0.1200 -0.5014 -0.0108
  328SOL    HW1  983   3.079   1.605   2.612 -1.0895 -2.9454  0.1766
  328SOL    HW2  984   0.053   1.698   2.486  1.5123  0.9448  0.8994
  329SOL     OW  985   1.911   0.020   1.617  0.0871  0.1814  0.3010
  329SOL    HW1  986   1.872   3.057   1.682  3.6223  0.7690  0.6113
  329SOL    HW2  987   1.962   3.073   1.546 -1.4776  1.7662  1.5894
  330SOL     OW  988   0.319   1.065   0.939  0.8383  0.1448  0.4379
  330SOL    HW1  989   0.247   0.995   0.959 -1.0885 -0.3667  1.1806
  330SOL    HW2  990   0.280   1.158   0.960  0.6619 -0.2541  0.3989
  331SOL     OW  991   0.235   1.686   2.177 -0.0248  0.5829 -0.1465
  331SOL    HW1  992   0.326   1.644   2.165  0.5131  0.6854 -2.6637
  331SOL    HW2  993   0.202   1.698   2.274  1.0868 -0.1336  0.3472
  332SOL     OW  994   0.087   2.753   1.529 -0.3649  0.1708  0.0580
  332SOL    HW1  995   0.098   2.743   1.625  0.9978  1.7628  1.6677
  332SOL    HW2  996   0.032   2.830   1.503  0.5436  1.5448  3.3977
  333SOL     OW  997   2.374   0.137   0.701  0.0885  0.1603 -0.7558
  333SOL    HW1  998   2.310   0.071   0.752 -0.1839  2.7597  0.8923
  333SOL    HW2  999   2.364   0.230   0.737 -1.5311 -1.4338 -1.7230
  334SOL     OW 1000   0.517   2.038   0.561 -0.1122  0.4831  0.6350
  334SOL    HW1 1001   0.615   2.037   0.589 -1.7899  0.6514 -2.4403
  334SOL    HW2 1002   0.465   2.123   0.586  0.9966  0.4897  1.3621
  335SOL     OW 1003   0.130   2.640   0.064  0.8662  0.3124 -0.2819
  335SOL    HW1 1004   0.058   2.592   0.013  0.8182  0.7791 -0.1041
  335SOL    HW2 1005   0.204   2.572   0.089  1.9275  1.6002  1.0281
  336SOL     OW 1006   0.019   2.845   2.245 -0.0280  0.1976  0.3188
  336SOL    HW1 1007   3.072   2.882   2.165  1.3202 -1.4461  0.7116
  336SOL    HW2 1008   0.117   2.823   2.214  1.3083 -0.9128 -1.4909
  337SOL     OW 1009   2.265   2.200   2.589 -0.3590  0.1744  0.1635
  337SOL    HW1 1010   2.299   2.210   2.686  2.0663  2.0321 -1.1041
  337SOL    HW2 1011   2.313   2.126   2.540  1.0282  1.4824 -3.6220
  338SOL     OW 1012   0.576   0.378   0.528 -0.1023 -0.5175  0.1129
  338SOL    HW1 1013   0.556   0.458   0.475 -1.9594  0.9814  0.4413
  338SOL    HW2 1014   0.627   0.406   0.607 -0.9167  0.2796 -0.9071
  339SOL     OW 1015   0.170   0.734   2.132  0.1825 -0.3540  0.3988
  339SOL    HW1 1016   0.120   0.697   2.215 -0.4618 -0.8200  1.5482
  339SOL    HW2 1017   0.115   0.810   2.093  0.7363  0.6597 -0.4030
  340SOL     OW 1018   1.753   3.055   0.318 -0.4712 -0.0339  0.1350
  340SOL    HW1 1019   1.845   3.100   0.308  0.5119 -0.6974 -2.4044
  340SOL    HW2 1020   1.694   3.063   0.235 -0.1214 -2.6872  1.0481
  341SOL     OW 1021   1.893   0.845   0.871  0.0262  0.6021 -0.2363
  341SOL    HW1 1022   1.851   0.883   0.788  2.7142  0.1216  3.9240
  341SOL    HW2 1023   1.978   0.802   0.847 -3.1925  1.3934  0.1234
  342SOL     OW 1024   2.455   2.829   0.033 -0.1249 -0.0714  0.2201
  342SOL    HW1 1025   2.463   2.927   0.030 -1.0802  0.6378  1.0252
  342SOL    HW2 1026   2.528   2.785   3.075  1.1746  2.7781 -2.9160
  343SOL     OW 1027   1.458   2.012   1.625 -0.5444 -0.2745  0.2714
  343SOL    HW1 1028   1.521   2.019   1.700 -1.0316 -0.8808  0.2578
  343SOL    HW2 1029   1.441   1.914   1.603  0.2212 -0.4421 -0.3601
  344SOL     OW 1030   2.377   2.729   0.985 -0.1236  0.1321 -0.2891
  344SOL    HW1 1031   2.286   2.718   1.028 -0.1369 -0.8129 -1.9442
  344SOL    HW2 1032   2.402   2.654   0.921  1.5867  1.0668  2.1348
  345SOL     OW 1033   2.870   2.458   0.203  0.4284  0.0580 -0.9773
  345SOL    HW1 1034   2.869   2.524   0.283 -0.8956  2.7927  0.4127
  345SOL    HW2 1035   2.903   2.363   0.232  2.8152 -4.0999  0.5460
  346SOL     OW 1036   2.768   1.821   0.807 -0.3082 -0.1110 -0.3349
  346SOL    HW1 1037   2.702   1.897   0.789 -2.5664 -0.7150 -0.5787
  346SOL    HW2 1038   2.824   1.839   0.886 -3.5690  0.2592 -0.2854
  347SOL     OW 1039   1.614   2.032   1.857  0.1016 -0.0356 -0.3245
  347SOL    HW1 1040   1.597   2.114   1.911  0.4009 -0.0400 -0.2875
  347SOL    HW2 1041   1.618   1.957   1.923 -0.8568 -1.1346 -2.0279
  348SOL     OW 1042   0.604   1.622   2.485  0.0305 -0.3167  0.0045
  348SOL    HW1 1043   0.576   1.543   2.435  1.1491  0.2539  1.5223
  348SOL    HW2 1044   0.607   1.605   2.587  1.4002  0.9601  0.8427
  349SOL     OW 1045   2.452   1.210   1.013 -0.3319 -0.1553 -0.0809
  349SOL    HW1 1046   2.364   1.250   0.997  3.2336  1.3752 -0.2518
  349SOL    HW2 1047   2.530   1.279   1.024  2.5103  0.0248  1.9427
  350SOL     OW 1048   2.889   2.441   1.234 -0.2522 -0.0621  0.1753
  350SOL    HW1 1049   2.984   2.411   1.255  0.7392  1.2430  0.8897
  350SOL    HW2 1050   2.827   2.433   1.314 -0.2761 -2.4913  0.2117
  351SOL     OW 1051   0.434   3.031   2.188  0.0257 -0.0901  0.0839
  351SOL    HW1 1052   0.381   0.016   2.190  0.7766 -3.1387 -2.7857
  351SOL    HW2 1053   0.516   3.031   2.247  0.8758  0.6922  1.9833
  352SOL     OW 1054   0.920   1.574   0.852 -0.0612  0.7921  0.2414
  352SOL    HW1 1055   0.959   1.497   0.908  0.2405 -1.7249  0.2580
  352SOL    HW2 1056   0.955   1.565   0.757 -0.4187  0.9890  0.6760
  353SOL     OW 1057   1.293   1.453   2.321  0.0918 -0.1761 -0.3069
  353SOL    HW1 1058   1.248   1.544   2.332 -0.1386  0.5533 -3.5995
  353SOL    HW2 1059   1.223   1.379   2.325  3.5412 -0.5728 -1.8919
  354SOL     OW 1060   1.464   0.061   0.796 -0.2116  0.3539  0.2462
  354SOL    HW1 1061   1.488   3.068   0.834 -0.6159  0.9563  1.9153
  354SOL    HW2 1062   1.393   0.108   0.856 -0.7086 -1.4417  0.7019
  355SOL     OW 1063   2.734   1.321   0.694  0.0490  0.2874  0.1040
  355SOL    HW1 1064   2.645   1.278   0.675 -0.9578  0.6810  0.8614
  355SOL    HW2 1065   2.723   1.420   0.686 -0.9421 -0.7442  0.7601
  356SOL     OW 1066   2.416   1.663   2.213 -0.0665 -0.0025 -0.6698
  356SOL    HW1 1067   2.340   1.714   2.261  0.9962 -2.3726  1.0908
  356SOL    HW2 1068   2.467   1.724   2.150  0.0299 -0.2463 -0.6519
  357SOL     OW 1069   0.480   2.576   1.559 -0.0617  0.1963  0.3426
  357SOL    HW1 1070   0.417   2.646   1.516 -1.1683  0.2054 -1.0129
  357SOL    HW2 1071   0.573   2.617   1.577  0.7939 -1.5564  3.6622
  358SOL     OW 1072   2.355   0.647   1.409 -0.8377  0.5932  0.1913
  358SOL    HW1 1073   2.414   0.569   1.443  1.9253  1.2305  4.2542
  358SOL    HW2 1074   2.368   0.732   1.468 -1.9638  0.7866 -0.3573
  359SOL     OW 1075   2.262   2.733   2.758 -0.1361  0.5592 -0.1213
  359SOL    HW1 1076   2.188   2.783   2.706  0.3715 -2.4888 -0.4737
  359SOL    HW2 1077   2.237   2.729   2.859  2.1634  0.2504 -2.2908
  360SOL     OW 1078   0.949   0.419   0.840 -0.4059  0.2832  0.6219
  360SOL    HW1 1079   0.957   0.495   0.909  0.6937 -0.1877  2.0830
  360SOL    HW2 1080   1.039   0.395   0.793 -1.4789 -0.9131  1.5901
  361SOL     OW 1081   1.874   2.984   1.174  0.2335  0.2209  0.6410
  361SOL    HW1 1082   1.824   3.069   1.158 -0.3016 -1.2922  1.2603
  361SOL    HW2 1083   1.946   2.971   1.106  0.0904 -0.7089 -3.1683
  362SOL     OW 1084   1.312   1.145   0.577  0.3517 -0.5339 -0.1889
  362SOL    HW1 1085   1.409   1.138   0.556 -1.8308 -1.8118 -0.0314
  362SOL    HW2 1086   1.282   1.082   0.656 -1.5388 -2.3144  1.7167
  363SOL     OW 1087   2.105   1.635   2.566  0.0801  0.6084 -0.3461
  363SOL    HW1 1088   2.163   1.655   2.653 -0.1839 -0.1413  3.2171
  363SOL    HW2 1089   2.136   1.547   2.519 -0.6898 -0.1413  2.1776
  364SOL     OW 1090   0.423   0.201   1.164  0.0336 -0.0884 -0.4066
  364SOL    HW1 1091   0.450   0.251   1.081 -0.9175 -0.4299  1.6270
  364SOL    HW2 1092   0.403   0.260   1.253  0.5323 -1.1308  1.5683
  365SOL     OW 1093   0.194   2.751   0.320  0.5523  0.2315 -0.4850
  365SOL    HW1 1094   0.159   2.711   0.230 -0.0084 -0.0533  0.2672
  365SOL    HW2 1095   0.123   2.744   0.398 -2.2447 -1.9185  1.3374
  366SOL     OW 1096   2.400   2.113   3.098  0.1267 -0.1873 -0.1656
  366SOL    HW1 1097   2.315   2.091   0.046 -3.9310 -0.8441 -0.2836
  366SOL    HW2 1098   2.410   2.215   3.085 -0.6242 -0.5847 -3.3778
  367SOL     OW 1099   2.530   2.485   2.825  0.3701  0.1812  0.4078
  367SOL    HW1 1100   2.614   2.433   2.819 -3.1227 -0.1575 -1.0529
  367SOL    HW2 1101   2.446   2.425   2.836 -1.0734 -2.3546  0.8489
  368SOL     OW 1102   0.263   1.737   1.036  0.5691 -0.5880 -0.4554
  368SOL    HW1 1103   0.299   1.669   1.107  0.4611 -0.4585 -0.6206
  368SOL    HW2 1104   0.294   1.829   1.061  0.4214  1.6053  0.4338
  369SOL     OW 1105   0.897   2.557   2.928 -0.2631  0.5929  0.4538
  369SOL    HW1 1106   0.900   2.639   2.864  2.0713 -1.8602 -0.8207
  369SOL    HW2 1107   0.984   2.554   2.986 -0.1454 -2.6901  1.0612
  370SOL     OW 1108   0.241   0.811   0.606  0.0303 -0.2644  0.5002
  370SOL    HW1 1109   0.191   0.898   0.613  2.9672  1.6080  0.2225
  370SOL    HW2 1110   0.251   0.779   0.701  0.8114  2.5533  0.3526
  371SOL     OW 1111   2.094   2.582   0.903  0.2072 -0.8099  0.1924
  371SOL    HW1 1112   2.079   2.582   0.806 -1.1714  1.2019  0.1268
  371SOL    HW2 1113   2.013   2.555   0.955  1.6209 -0.3788  0.6259
  372SOL     OW 1114   0.128   0.930   2.667 -0.1530  0.4025 -0.3777
  372SOL    HW1 1115   0.181   1.016   2.651 -0.2668 -1.7353 -0.9819
  372SOL    HW2 1116   0.189   0.864   2.716 -1.1937 -1.7314  2.1076
  373SOL     OW 1117   3.025   1.929   0.629  0.2009  0.2369  0.6397
  373SOL    HW1 1118   2.932   1.911   0.664 -1.0426  1.0305 -0.1967
  373SOL    HW2 1119   3.095   1.879   0.676 -0.4402  3.8103 -1.5893
  374SOL     OW 1120   0.209   2.310   0.455 -0.1139 -0.1707  0.3978
  374SOL    HW1 1121   0.225   2.250   0.377 -0.3208 -1.7992  0.2861
  374SOL    HW2 1122   0.288   2.369   0.476  0.4181  0.9787 -0.7556
  375SOL     OW 1123   0.484   0.535   0.177 -0.0736  0.5732 -0.2500
  375SOL    HW1 1124   0.551   0.591   0.230  0.3947  0.8081  1.4484
  375SOL    HW2 1125   0.493   0.433   0.197 -1.0184 -2.3543  0.9755
  376SOL     OW 1126   0.408   2.273   1.982  0.2359  0.0893 -0.0889
  376SOL    HW1 1127   0.493   2.242   1.936  0.2583  0.1870  2.9374
  376SOL    HW2 1128   0.384   2.372   1.967  0.0970  2.0963  1.3652
  377SOL     OW 1129   1.830   2.540   2.906 -0.4011  0.1199 -0.0408
  377SOL    HW1 1130   1.742   2.496   2.938 -1.3582 -0.8119  2.1357
  377SOL    HW2 1131   1.845   2.526   2.804 -1.8652  2.3006 -1.7121
  378SOL     OW 1132   0.940   0.521   0.458 -0.1491  0.2098  0.3822
  378SOL    HW1 1133   0.963   0.426   0.492 -0.5039  1.2315  0.4226
  378SOL    HW2 1134   1.009   0.586   0.490  0.2842  2.2705  1.0484
  379SOL     OW 1135   0.814   1.731   0.585 -0.2598  0.2673  0.4877
  379SOL    HW1 1136   0.717   1.715   0.611 -0.6187 -2.5691  0.6035
  379SOL    HW2 1137   0.871   1.646   0.580 -0.8374  0.5742 -0.6161
  380SOL     OW 1138   0.402   2.080   1.360 -0.6956  0.4763  0.0024
  380SOL    HW1 1139   0.317   2.098   1.317 -0.9028 -2.2907  1.2285
  380SOL    HW2 1140   0.444   2.165   1.402 -0.3897 -0.8358  1.5255
  381SOL     OW 1141   0.442   1.132   1.695 -0.3019 -0.1063  0.3132
  381SOL    HW1 1142   0.497   1.214   1.724  2.0181  1.8246 -0.6469
  381SOL    HW2 1143   0.401   1.084   1.777  0.1018  2.2730  0.6029
  382SOL     OW 1144   2.294   2.040   0.606  0.1195  0.6158 -0.4389
  382SOL    HW1 1145   2.308   2.130   0.653  1.7827  1.8007 -1.3283
  382SOL    HW2 1146   2.299   2.050   0.506 -0.2315 -1.3067  0.5170
  383SOL     OW 1147   2.723   1.887   2.275  0.2723  0.4849  0.5071
  383SOL    HW1 1148   2.677   1.851   2.192  2.2304 -2.6456 -1.4005
  383SOL    HW2 1149   2.718   1.982   2.293  0.1167 -2.9757 -0.1130
  384SOL     OW 1150   0.140   2.025   2.385  0.0510 -0.1671 -0.0474
  384SOL    HW1 1151   0.207   2.098   2.359  0.1319  1.2974 -2.9178
  384SOL    HW2 1152   0.092   1.996   2.298  3.7421  1.0549 -2.3268
  385SOL     OW 1153   2.824   2.130   0.892  0.6355  0.5514 -0.3410
  385SOL    HW1 1154   2.851   2.039   0.933  0.4689 -2.3255  2.2090
  385SOL    HW2 1155   2.753   2.116   0.816  0.7460  0.2890  2.9775
  386SOL     OW 1156   1.644   0.796   0.953 -0.5462 -0.6488  0.1579
  386SOL    HW1 1157   1.584   0.879   0.941 -0.5334 -1.3028  1.8294
  386SOL    HW2 1158   1.744   0.818   0.921  2.5843  3.8623 -1.3754
  387SOL     OW 1159   0.375   0.575   2.016 -0.6713 -0.3260  0.0699
  387SOL    HW1 1160   0.289   0.615   2.054  0.9941 -0.8502  0.9729
  387SOL    HW2 1161   0.437   0.653   1.993  3.0770 -1.0609 -0.4641
  388SOL     OW 1162   2.237   1.048   2.416 -0.2593  0.0268  0.5131
  388SOL    HW1 1163   2.228   1.128   2.478 -0.0984  0.1749 -2.6062
  388SOL    HW2 1164   2.148   1.030   2.365 -1.1903 -0.1366 -1.0917
  389SOL     OW 1165   1.946   1.193   1.951 -0.2346  0.3472 -0.0415
  389SOL    HW1 1166   2.007   1.239   1.878  1.7992  1.8660 -1.3067
  389SOL    HW2 1167   1.975   1.097   1.970  1.3134  1.4003 -0.0111
  390SOL     OW 1168   1.885   2.439   0.406 -0.4464  0.1680 -0.7552
  390SOL    HW1 1169   1.880   2.492   0.319 -0.8858  0.8569 -1.6304
  390SOL    HW2 1170   1.813   2.368   0.415 -1.4517  0.1212 -1.9474
  391SOL     OW 1171   2.041   2.255   1.218  0.2914  0.1916  0.1934
  391SOL    HW1 1172   2.020   2.170   1.172  2.5612 -1.4322  1.0733
  391SOL    HW2 1173   2.109   2.242   1.294 -0.4912  1.9429  2.4907
  392SOL     OW 1174   2.914   2.718   1.177  0.5095 -0.1655  0.2517
  392SOL    HW1 1175   2.824   2.766   1.195  1.0949 -0.7005 -2.6018
  392SOL    HW2 1176   2.898   2.620   1.202  1.5570  2.0953  2.8935
  393SOL     OW 1177   2.140   1.787   3.075  1.0234  0.0303  0.0383
  393SOL    HW1 1178   2.063   1.762   0.040  1.1570  3.7004 -1.2900
  393SOL    HW2 1179   2.104   1.848   2.998  1.7614  1.7582 -2.2801
  394SOL     OW 1180   3.015   0.270   2.807 -0.1451  0.6386  0.3146
  394SOL    HW1 1181   3.098   0.213   2.840  2.7548 -0.7138  2.7519
  394SOL    HW2 1182   2.943   0.288   2.875  2.2896 -0.7382 -0.3067
  395SOL     OW 1183   1.010   0.960   0.855 -0.0210 -0.3596  0.0576
  395SOL    HW1 1184   0.958   1.042   0.893  0.4701  2.6813 -1.2072
  395SOL    HW2 1185   0.952   0.902   0.795 -0.2189 -0.2438  0.7037
  396SOL     OW 1186   1.272   0.674   2.867  0.4106  0.0371  0.3518
  396SOL    HW1 1187   1.229   0.615   2.799 -0.5267 -3.3204 -0.1937
  396SOL    HW2 1188   1.372   0.660   2.860 -0.1142  0.9092  1.0587
  397SOL     OW 1189   0.263   0.521   2.466 -0.3767 -0.2803  0.2596
  397SOL    HW1 1190   0.182   0.560   2.420 -0.0792  2.0973 -1.5573
  397SOL    HW2 1191   0.251   0.423   2.484 -0.2772  0.3345 -3.4543
  398SOL     OW 1192   0.967   0.021   0.097 -0.0363 -0.8089 -0.2003
  398SOL    HW1 1193   0.925   0.095   0.152 -0.9761  1.4919  2.7176
  398SOL    HW2 1194   0.908   3.075   0.028  0.2082 -0.1081 -2.0160
  399SOL     OW 1195   2.226   2.924   1.749  0.0204  0.5062  0.1171
  399SOL    HW1 1196   2.317   2.918   1.701 -0.0125 -0.0580 -3.4589
  399SOL    HW2 1197   2.196   3.020   1.750  0.9610  0.0660 -2.1420
  400SOL     OW 1198   0.633   1.882   2.446  0.1965  1.0170  0.3098
  400SOL    HW1 1199   0.615   1.782   2.467 -1.0962  0.0237 -0.5192
  400SOL    HW2 1200   0.632   1.899   2.346 -0.4893  1.7764  0.4930
  401SOL     OW 1201   0.743   0.330   2.689 -0.6121  0.1223  0.2731
  401SOL    HW1 1202   0.806   0.261   2.736  0.8300 -1.5926 -1.5920
  401SOL    HW2 1203   0.753   0.424   2.723 -0.2328 -3.7931  0.0320
  402SOL     OW 1204   2.926   2.345   1.816 -0.1214 -0.4203  0.5455
  402SOL    HW1 1205   2.895   2.258   1.857 -1.4611  2.9388 -0.2481
  402SOL    HW2 1206   2.919   2.425   1.880  1.4787  1.4315 -0.2145
  403SOL     OW 1207   0.517   1.166   2.058  0.2515  0.4681  0.3574
  403SOL    HW1 1208   0.572   1.118   2.128  0.6855  2.1170  1.5359
  403SOL    HW2 1209   0.490   1.099   1.990  0.7379 -1.4675  2.8501
  404SOL     OW 1210   0.043   2.484   1.444  0.5872  0.3295 -0.0552
  404SOL    HW1 1211   0.055   2.579   1.479 -0.2471  2.0388 -1.4125
  404SOL    HW2 1212   3.052   2.443   1.473 -1.0899 -0.2657 -1.6790
  405SOL     OW 1213   0.254   0.442   1.767 -0.2044  0.0849 -0.2718
  405SOL    HW1 1214   0.304   0.480   1.842 -1.1999  1.0166  0.3590
  405SOL    HW2 1215   0.304   0.365   1.725  0.6406  2.7813 -0.0145
  406SOL     OW 1216   1.929   2.110   3.073 -0.3035 -0.1904  0.3136
  406SOL    HW1 1217   1.934   2.121   0.076 -0.0952  1.8128 -2.0439
  406SOL    HW2 1218   2.012   2.150   3.028 -0.2725  1.4829 -1.3077
  407SOL     OW 1219   1.622   1.115   1.851  0.1610  0.2774  0.8964
  407SOL    HW1 1220   1.536   1.138   1.896 -0.0471  0.5553 -0.7667
  407SOL    HW2 1221   1.703   1.138   1.909 -0.0199 -0.8256 -2.4470
  408SOL     OW 1222   0.626   0.068   2.863  0.5328 -0.1002  0.3359
  408SOL    HW1 1223   0.610   3.067   2.883 -1.2403 -1.4137  1.6374
  408SOL    HW2 1224   0.725   0.090   2.856  0.7761  0.5410 -0.4664
  409SOL     OW 1225   0.104   1.865   0.410 -0.6595 -0.2317 -0.1149
  409SOL    HW1 1226   0.059   1.907   0.491  1.7207 -0.2160 -0.3786
  409SOL    HW2 1227   0.198   1.835   0.429 -2.3432  0.8623 -2.4700
  410SOL     OW 1228   2.620   1.650   0.454  0.3002  0.1932  0.3948
  410SOL    HW1 1229   2.588   1.736   0.412  0.9967 -2.8011  2.4307
  410SOL    HW2 1230   2.665   1.581   0.390  1.5499  0.5410 -0.9171
  411SOL     OW 1231   3.086   0.159   1.042  0.1845  0.3169 -0.3819
  411SOL    HW1 1232   0.043   0.096   0.987 -0.2037 -2.2360 -0.8250
  411SOL    HW2 1233   3.096   0.149   1.140  0.6408  0.8826 -2.1450
  412SOL     OW 1234   1.433   0.769   1.130  0.0529  0.7212  0.0352
  412SOL    HW1 1235   1.357   0.823   1.094  1.6159 -1.7917  1.7942
  412SOL    HW2 1236   1.522   0.794   1.082  0.3069 -1.7174 -2.5181
  413SOL     OW 1237   0.651   2.996   1.158 -0.5601 -0.2990  0.4423
  413SOL    HW1 1238   0.576   3.013   1.094 -2.0460 -0.8714  0.6778
  413SOL    HW2 1239   0.674   3.085   1.201 -0.5600 -0.4019  0.7186
  414SOL     OW 1240   2.964   1.752   2.954 -0.6125  0.2420  0.6888
  414SOL    HW1 1241   2.938   1.802   2.870 -1.4338  0.7667  0.8181
  414SOL    HW2 1242   3.035   1.803   3.010  0.5005 -0.4002  4.2706
  415SOL     OW 1243   0.483   2.381   2.934  0.3921  0.4191 -0.2571
  415SOL    HW1 1244   0.442   2.309   2.992  0.4935  0.9563  1.9134
  415SOL    HW2 1245   0.411   2.412   2.869  0.0052 -2.1862  1.4441
  416SOL     OW 1246   1.364   0.544   0.462 -0.0181 -0.0497  0.5779
  416SOL    HW1 1247   1.453   0.584   0.431 -0.9350  1.2605  1.9022
  416SOL    HW2 1248   1.362   0.543   0.566 -1.0609  2.0616 -0.8501
  417SOL     OW 1249   0.213   1.120   0.415  0.4518 -0.1426 -0.3429
  417SOL    HW1 1250   0.300   1.075   0.382 -0.1382 -1.2499 -0.2288
  417SOL    HW2 1251   0.189   1.096   0.510  0.2708 -1.3729  1.2619
  418SOL     OW 1252   2.549   1.271   2.263 -0.3843 -0.3597  0.5329
  418SOL    HW1 1253   2.462   1.301   2.216  2.3088 -0.0296 -0.7868
  418SOL    HW2 1254   2.537   1.268   2.364  1.9498 -1.5178 -0.7484
  419SOL     OW 1255   0.269   0.451   2.851 -0.6567  0.0689 -0.0072
  419SOL    HW1 1256   0.219   0.454   2.938 -0.7398 -1.2916 -2.7542
  419SOL    HW2 1257   0.211   0.426   2.772  1.1959 -0.8407  3.0710
  420SOL     OW 1258   0.529   1.386   0.820 -0.5115 -0.3541  0.3648
  420SOL    HW1 1259   0.442   1.432   0.823  1.7533  1.2062 -0.1899
  420SOL    HW2 1260   0.529   1.306   0.755 -2.1130 -0.5367 -0.2731
  421SOL     OW 1261   0.720   2.263   0.806 -0.4455  0.4271 -0.4492
  421SOL    HW1 1262   0.755   2.251   0.903 -0.4148  0.3063 -1.7142
  421SOL    HW2 1263   0.795   2.284   0.744  1.3607 -0.9109  2.3893
  422SOL     OW 1264   3.046   0.923   1.576 -0.1855 -0.1657 -0.4640
  422SOL    HW1 1265   3.090   0.991   1.514  0.5061  0.3462 -0.8334
  422SOL    HW2 1266   3.093   0.837   1.599  0.1167 -1.6531  1.5188
  423SOL     OW 1267   1.301   1.350   1.395 -0.0166 -0.1880 -0.3276
  423SOL    HW1 1268   1.298   1.306   1.487 -1.6285 -0.0140  1.7634
  423SOL    HW2 1269   1.379   1.423   1.389  1.9401  3.5212  0.0578
  424SOL     OW 1270   2.101   0.990   2.995 -0.0631  0.7896 -0.1559
  424SOL    HW1 1271   2.165   0.989   3.076 -0.0295 -0.1521 -1.5194
  424SOL    HW2 1272   2.119   1.077   2.942 -1.5105 -1.1488 -1.2070
  425SOL     OW 1273   2.995   0.634   1.906  0.2410 -0.0753  0.4014
  425SOL    HW1 1274   3.096   0.641   1.908 -0.4798  1.3330  0.9171
  425SOL    HW2 1275   2.965   0.594   1.814 -1.3058 -0.2897  0.9815
  426SOL     OW 1276   2.688   2.609   2.637  0.4603 -0.3555 -0.5624
  426SOL    HW1 1277   2.622   2.569   2.706  1.1621  0.2273  1.6815
  426SOL    HW2 1278   2.644   2.686   2.586 -2.4222 -1.3861  2.7387
  427SOL     OW 1279   1.002   0.924   2.337 -0.0871 -0.1662  0.4768
  427SOL    HW1 1280   1.040   0.985   2.263 -0.6346  1.4853  0.1518
  427SOL    HW2 1281   0.973   0.831   2.301  0.8823 -2.4804  2.2350
  428SOL     OW 1282   2.010   0.941   2.033 -0.1829  0.8117  0.2782
  428SOL    HW1 1283   2.104   0.904   2.027 -4.1546 -0.3193  1.0537
  428SOL    HW2 1284   1.946   0.872   1.983 -0.1745 -1.4318 -1.9925
  429SOL     OW 1285   3.091   2.815   0.498  0.6794  0.4082 -0.0542
  429SOL    HW1 1286   0.046   2.858   0.570 -3.5183  0.5536  0.4842
  429SOL    HW2 1287   3.019   2.883   0.468 -1.3746 -0.2003 -0.3867
  430SOL     OW 1288   1.954   1.456   2.278  0.4522 -0.4281  0.5619
  430SOL    HW1 1289   2.031   1.423   2.343 -2.3103 -1.0007  0.1411
  430SOL    HW2 1290   1.898   1.372   2.254 -0.5571 -0.8327  0.2395
  431SOL     OW 1291   0.403   1.795   1.421 -0.0693 -0.3921  0.9703
  431SOL    HW1 1292   0.409   1.896   1.410 -1.0037 -1.8901  0.8587
  431SOL    HW2 1293   0.457   1.751   1.352 -0.3187  0.3779 -0.2558
  432SOL     OW 1294   1.638   0.260   2.215  0.7407 -0.1932 -0.7107
  432SOL    HW1 1295   1.647   0.185   2.290  0.8622 -1.5089 -0.4462
  432SOL    HW2 1296   1.674   0.353   2.249 -1.2276  2.9267 -1.8762
  433SOL     OW 1297   1.473   3.061   1.952 -0.6382  0.1705 -0.8025
  433SOL    HW1 1298   1.451   3.043   1.854 -0.5699 -0.5632 -1.1920
  433SOL    HW2 1299   1.539   0.044   1.950 -0.2293  1.9755 -0.8826
  434SOL     OW 1300   0.472   2.609   2.238 -0.5189 -0.0487  0.4100
  434SOL    HW1 1301   0.539   2.648   2.305  0.7612  2.1218  0.3063
  434SOL    HW2 1302   0.408   2.540   2.282  1.8026  3.2902  0.5452
  435SOL     OW 1303   0.337   2.067   0.255  0.4623 -0.0238  0.3187
  435SOL    HW1 1304   0.389   2.147   0.286 -1.7100  0.6559 -2.5971
  435SOL    HW2 1305   0.342   1.988   0.319 -2.1363  0.0535  0.4952
  436SOL     OW 1306   0.668   0.805   1.939 -0.0560 -0.7915  0.4748
  436SOL    HW1 1307   0.712   0.717   1.914 -1.5736  1.7012 -0.9776
  436SOL    HW2 1308   0.653   0.857   1.851  2.5962  1.2121 -2.0881
  437SOL     OW 1309   0.664   2.754   2.406 -0.0086  0.6409  0.1468
  437SOL    HW1 1310   0.627   2.846   2.391  0.2508  0.5157  0.5093
  437SOL    HW2 1311   0.663   2.732   2.504  1.5295  0.3370 -1.2484
  438SOL     OW 1312   0.718   1.646   1.460 -0.0260 -0.5348 -0.5719
  438SOL    HW1 1313   0.705   1.697   1.548 -0.8580  3.6076 -1.5243
  438SOL    HW2 1314   0.737   1.547   1.481 -0.0812 -0.0675 -0.7214
  439SOL     OW 1315   2.083   0.727   2.893  0.4571 -1.1315  0.0499
  439SOL    HW1 1316   2.074   0.826   2.916  1.0700 -0.7310  1.8613
  439SOL    HW2 1317   2.021   0.676   2.958 -3.1270 -0.6686  0.0161
  440SOL     OW 1318   0.806   0.261   0.192  0.3366 -0.3514 -0.0256
  440SOL    HW1 1319   0.711   0.277   0.224 -2.2369  1.7313  1.0244
  440SOL    HW2 1320   0.849   0.343   0.156 -0.8883 -1.7752  0.2698
  441SOL     OW 1321   0.917   2.274   1.513  0.1011  0.6089  0.0089
  441SOL    HW1 1322   0.888   2.359   1.466  2.0029 -2.4347  0.6220
  441SOL    HW2 1323   0.834   2.219   1.536  1.3466 -2.2058 -0.5081
  442SOL     OW 1324   3.023   1.498   0.776 -0.2606  0.1675  0.3684
  442SOL    HW1 1325   2.935   1.520   0.735 -0.0270  1.1211  3.2904
  442SOL    HW2 1326   3.044   1.558   0.852  0.9188 -1.4375  0.1330
  443SOL     OW 1327   2.673   2.039   2.672 -0.1526  0.2107  0.2648
  443SOL    HW1 1328   2.681   2.036   2.574  0.9197  0.4862  1.9437
  443SOL    HW2 1329   2.602   1.983   2.719 -0.4067  0.7347 -0.5283
  444SOL     OW 1330   1.705   0.974   2.918 -0.0111  0.4482 -0.0852
  444SOL    HW1 1331   1.771   1.041   2.879 -3.1094  0.1612  0.9755
  444SOL    HW2 1332   1.654   0.926   2.841 -2.6227  0.5508  1.1664
  445SOL     OW 1333   2.733   2.742   1.879  0.1097 -1.0479 -0.2182
  445SOL    HW1 1334   2.773   2.800   1.809 -1.3808 -0.5809  1.4925
  445SOL    HW2 1335   2.645   2.702   1.850  2.3946  0.6963  2.8848
  446SOL     OW 1336   0.006   1.160   0.887  0.1659 -0.2504 -0.0952
  446SOL    HW1 1337   0.071   1.219   0.934  0.8817  0.6971 -1.3549
  446SOL    HW2 1338   3.009   1.191   0.895 -1.6612 -0.5550 -0.5417
  447SOL     OW 1339   1.042   1.922   1.197 -0.0603 -0.1712 -0.0014
  447SOL    HW1 1340   1.006   1.861   1.267  2.0039  2.7463  1.0430
  447SOL    HW2 1341   1.012   1.910   1.103 -1.3998 -1.7305 -2.3768
  448SOL     OW 1342   1.298   1.151   1.596  0.3416  0.4204 -0.2500
  448SOL    HW1 1343   1.383   1.125   1.544 -1.1989  1.4023 -1.7489
  448SOL    HW2 1344   1.221   1.081   1.582 -3.9577 -2.1045 -0.8575
  449SOL     OW 1345   2.860   2.263   2.265  0.1897 -0.4522  0.4061
  449SOL    HW1 1346   2.862   2.364   2.295 -0.1427  1.2727  3.1214
  449SOL    HW2 1347   2.942   2.236   2.210  0.4454  1.0892  0.3376
  450SOL     OW 1348   3.070   1.730   1.859 -0.4365 -0.1279  0.1101
  450SOL    HW1 1349   2.970   1.746   1.863 -0.1139  2.4682 -0.3450
  450SOL    HW2 1350   3.093   1.644   1.916 -1.3190  0.1991  1.2888
  451SOL     OW 1351   2.146   0.545   1.268  0.4348  0.0283 -0.3423
  451SOL    HW1 1352   2.224   0.604   1.298 -0.2223 -0.4375  0.5991
  451SOL    HW2 1353   2.060   0.584   1.298  1.0319  0.7276  1.5377
  452SOL     OW 1354   0.604   1.178   0.666 -0.7122 -0.2019  0.2691
  452SOL    HW1 1355   0.526   1.113   0.673  3.4467  0.1696  0.1723
  452SOL    HW2 1356   0.695   1.135   0.636  0.8035 -1.2613  3.5412
  453SOL     OW 1357   1.499   1.982   0.711  0.2663 -0.1449  0.1244
  453SOL    HW1 1358   1.405   2.015   0.747 -1.9767 -0.3058  1.8405
  453SOL    HW2 1359   1.572   2.049   0.735 -1.0581 -1.8546  1.0999
  454SOL     OW 1360   0.617   1.851   0.114 -0.1485 -0.3959  0.4656
  454SOL    HW1 1361   0.642   1.827   0.014  0.0689 -3.5530 -3.7807
  454SOL    HW2 1362   0.529   1.803   0.135 -2.5359  1.7834 -0.7730
  455SOL     OW 1363   1.137   0.924   0.481  0.5260 -0.1586 -0.4910
  455SOL    HW1 1364   1.056   0.938   0.416  0.7359 -1.2111 -0.0523
  455SOL    HW2 1365   1.210   0.989   0.468  1.8994 -0.1630  1.5171
  456SOL     OW 1366   2.256   2.413   1.061 -0.0108  0.1459 -0.1713
  456SOL    HW1 1367   2.178   2.368   1.109 -0.5119 -1.3249 -0.4076
  456SOL    HW2 1368   2.232   2.475   0.985 -0.6437 -0.9000 -0.3897
  457SOL     OW 1369   1.840   2.960   2.881 -0.0225  0.5448 -0.0918
  457SOL    HW1 1370   1.872   2.921   2.966 -0.5695  0.9788 -1.5165
  457SOL    HW2 1371   1.918   2.962   2.811  1.4697 -0.6714  0.1083
  458SOL     OW 1372   2.693   1.024   0.505  0.3107 -0.1618  0.0337
  458SOL    HW1 1373   2.624   0.957   0.469 -0.6631 -0.4384 -0.2388
  458SOL    HW2 1374   2.642   1.103   0.541  1.7203  1.0512  1.3810
  459SOL     OW 1375   2.580   0.441   2.545 -0.3798  0.2564 -0.1020
  459SOL    HW1 1376   2.635   0.503   2.602  1.1223 -0.7404 -0.8328
  459SOL    HW2 1377   2.573   0.466   2.445  1.7586  1.7396 -1.0484
  460SOL     OW 1378   2.612   0.913   2.632 -0.0464  0.4415  0.2405
  460SOL    HW1 1379   2.511   0.900   2.639  1.3489 -0.6000 -1.8583
  460SOL    HW2 1380   2.637   1.008   2.614 -1.4784  1.4120  2.3349
  461SOL     OW 1381   2.859   2.394   0.940  0.1612 -0.2574 -0.0018
  461SOL    HW1 1382   2.896   2.419   1.032  1.1356 -0.7720 -0.2080
  461SOL    HW2 1383   2.852   2.291   0.932 -2.7171 -0.6756 -1.9685
  462SOL     OW 1384   3.077   2.873   1.782  0.1002  0.2304  0.4936
  462SOL    HW1 1385   0.016   2.958   1.742 -1.5296  0.3900 -0.9559
  462SOL    HW2 1386   0.046   2.830   1.839  0.3515 -0.5591 -3.2514
  463SOL     OW 1387   2.219   1.786   2.351 -0.0827 -0.0405 -0.0724
  463SOL    HW1 1388   2.149   1.752   2.413  1.2468 -0.8461 -0.0791
  463SOL    HW2 1389   2.174   1.848   2.285  1.2066 -2.3037 -0.4002
  464SOL     OW 1390   0.734   2.676   1.560  0.1077  0.4548  0.3238
  464SOL    HW1 1391   0.796   2.724   1.631  3.2209  0.0568  1.8676
  464SOL    HW2 1392   0.678   2.747   1.508 -2.3374  1.3432 -2.6179
  465SOL     OW 1393   0.764   3.053   1.590  0.1575  0.2758  0.0864
  465SOL    HW1 1394   0.715   2.972   1.555 -0.6634  4.4544  0.3961
  465SOL    HW2 1395   0.721   0.037   1.566 -1.2538 -2.6009  1.0683
  466SOL     OW 1396   1.454   2.609   1.891 -0.1176 -0.3795  0.4150
  466SOL    HW1 1397   1.552   2.586   1.898 -0.3002  0.4575  0.3927
  466SOL    HW2 1398   1.430   2.688   1.952 -0.1115  0.0952 -1.5857
  467SOL     OW 1399   0.632   1.968   1.270  0.0698 -0.2974 -0.0042
  467SOL    HW1 1400   0.638   1.862   1.267  0.1302 -4.1780 -1.9491
  467SOL    HW2 1401   0.537   1.999   1.296 -0.8856 -2.2453  1.3990
  468SOL     OW 1402   2.599   1.581   2.453  0.0222  0.5160 -0.8566
  468SOL    HW1 1403   2.692   1.607   2.413  0.9518  0.7567 -0.5197
  468SOL    HW2 1404   2.521   1.621   2.404 -1.9265  2.9588  1.7079
  469SOL     OW 1405   1.066   1.920   0.737  0.0651  0.6850 -0.1667
  469SOL    HW1 1406   1.061   1.854   0.663 -0.1297 -2.9805 -2.2345
  469SOL    HW2 1407   1.008   1.891   0.815  0.4171 -1.4753  1.0790
  470SOL     OW 1408   2.194   1.181   1.395  0.6814  0.1034  0.5144
  470SOL    HW1 1409   2.133   1.263   1.376  0.7664  2.1851 -0.1511
  470SOL    HW2 1410   2.232   1.184   1.486 -2.1472  1.5561 -1.9630
  471SOL     OW 1411   0.256   2.402   0.102 -0.5649 -0.6486 -0.2160
  471SOL    HW1 1412   0.259   2.359   0.012 -1.5507  1.1376  2.9459
  471SOL    HW2 1413   0.333   2.371   0.161 -2.3676 -0.7907 -0.7515
  472SOL     OW 1414   2.868   1.987   2.050  0.2414  0.6151  0.0534
  472SOL    HW1 1415   2.859   1.947   1.952  1.0924 -0.7703 -4.6510
  472SOL    HW2 1416   2.779   2.005   2.096  1.5356  0.9679 -2.3732
  473SOL     OW 1417   1.136   2.975   0.268  0.1016 -0.0867  0.2741
  473SOL    HW1 1418   1.215   2.920   0.234  0.8421  0.4893 -0.0400
  473SOL    HW2 1419   1.099   3.021   0.185  0.6339 -1.2354  1.2824
  474SOL     OW 1420   2.703   2.448   0.725  0.2000  0.3257 -0.0716
  474SOL    HW1 1421   2.764   2.453   0.643 -1.9012  1.4224 -0.1165
  474SOL    HW2 1422   2.758   2.413   0.804 -0.2325  0.0156 -1.5695
  475SOL     OW 1423   2.033   2.786   1.627 -0.1681  0.5980  0.6212
  475SOL    HW1 1424   2.015   2.852   1.550 -1.8309  0.5063 -0.6111
  475SOL    HW2 1425   2.114   2.828   1.677  1.6585  1.2173 -0.8473
  476SOL     OW 1426   0.825   0.823   0.694  0.2695  0.1988  0.0791
  476SOL    HW1 1427   0.887   0.757   0.647 -1.4377  1.1901  0.0675
  476SOL    HW2 1428   0.735   0.776   0.717 -0.6643 -0.0681 -0.8474
  477SOL     OW 1429   0.539   1.929   0.852 -0.4541  0.5389 -0.0003
  477SOL    HW1 1430   0.476   1.949   0.929  1.2248  1.8084  2.3094
  477SOL    HW2 1431   0.548   2.006   0.786 -0.0373 -2.1895  1.8230
  478SOL     OW 1432   0.086   2.434   2.187  0.2858  0.9359 -0.1879
  478SOL    HW1 1433   0.051   2.346   2.158  3.3933  3.7116 -0.3626
  478SOL    HW2 1434   0.022   2.510   2.164 -2.6198  0.6605  0.3473
  479SOL     OW 1435   0.076   0.640   1.657 -0.3372 -0.2484  0.0302
  479SOL    HW1 1436   3.082   0.613   1.685  1.0030  0.1873  0.8814
  479SOL    HW2 1437   0.141   0.561   1.670  1.5254 -2.6969 -0.3706
  480SOL     OW 1438   3.029   2.485   3.069  0.6920  0.3938 -0.1651
  480SOL    HW1 1439   3.049   2.388   3.042  0.3318  0.5863  2.3698
  480SOL    HW2 1440   2.976   2.489   0.057  2.0722  0.2509  1.7317
  481SOL     OW 1441   1.983   1.921   2.230  0.1174  1.0889  0.2819
  481SOL    HW1 1442   1.920   1.842   2.230 -2.4961  0.1240  1.2389
  481SOL    HW2 1443   2.021   1.942   2.137 -1.0989  1.4138  0.3138
  482SOL     OW 1444   1.559   2.175   0.098  0.0752  0.0153 -0.0459
  482SOL    HW1 1445   1.463   2.188   0.104 -0.9751  1.8809 -0.4694
  482SOL    HW2 1446   1.572   2.108   0.021 -2.5450 -0.6077 -0.9451
  483SOL     OW 1447   0.599   1.930   2.193  0.2534 -0.4224  0.0821
  483SOL    HW1 1448   0.653   1.993   2.135  0.3630  3.6888 -1.2648
  483SOL    HW2 1449   0.498   1.921   2.163 -1.1135  1.2096 -3.1772
  484SOL     OW 1450   2.940   0.623   1.102  0.0687  0.2371 -0.1232
  484SOL    HW1 1451   2.984   0.539   1.064  1.2717 -0.8735  0.0074
  484SOL    HW2 1452   3.004   0.685   1.153 -0.7450  1.4341 -0.1456
  485SOL     OW 1453   2.149   1.104   0.714  0.5180  0.5074  0.1649
  485SOL    HW1 1454   2.155   1.008   0.675 -1.5440 -0.0941  0.8033
  485SOL    HW2 1455   2.060   1.146   0.686 -3.5783  2.4086 -2.1822
  486SOL     OW 1456   1.386   0.323   2.247  0.0684 -0.2319 -0.3322
  486SOL    HW1 1457   1.484   0.295   2.232 -0.1869  2.0863  2.3972
  486SOL    HW2 1458   1.355   0.305   2.342 -1.0769  1.8545  3.8357
  487SOL     OW 1459   1.016   1.349   0.995  0.0533 -0.0396 -0.1689
  487SOL    HW1 1460   0.942   1.286   0.959  0.2627  0.2292 -0.1717
  487SOL    HW2 1461   1.111   1.325   0.968 -1.4477 -0.6372 -0.5129
  488SOL     OW 1462   2.384   1.508   2.978  0.9729  0.3977 -0.6601
  488SOL    HW1 1463   2.333   1.564   2.911  1.2932 -3.1092  0.9379
  488SOL    HW2 1464   2.422   1.570   3.049 -0.1407  2.7917 -2.4256
  489SOL     OW 1465   2.396   0.338   0.315  0.1095  0.4987 -0.4506
  489SOL    HW1 1466   2.467   0.414   0.329  0.0424 -1.7535 -1.0528
  489SOL    HW2 1467   2.429   0.249   0.362 -0.8568 -2.6425 -0.3072
  490SOL     OW 1468   1.589   2.507   0.465 -0.1517 -0.2760  0.6360
  490SOL    HW1 1469   1.669   2.455   0.506  2.3216 -1.3952 -0.4587
  490SOL    HW2 1470   1.583   2.484   0.367 -0.6183  0.4563 -0.9374
  491SOL     OW 1471   0.841   1.075   0.574  0.1771  0.1987  0.4235
  491SOL    HW1 1472   0.817   0.992   0.622  2.2905  0.4147 -0.5918
  491SOL    HW2 1473   0.869   1.051   0.479  0.1097 -0.8678 -1.8260
  492SOL     OW 1474   1.598   0.261   0.007  0.0189 -0.3130  0.1500
  492SOL    HW1 1475   1.656   0.260   3.025 -1.7407 -0.2188  1.5643
  492SOL    HW2 1476   1.502   0.264   3.077 -0.5355 -1.0149 -1.3550
  493SOL     OW 1477   1.954   2.123   0.253 -0.4586 -0.1317 -0.0653
  493SOL    HW1 1478   2.009   2.176   0.329 -2.2508 -0.9441  0.9742
  493SOL    HW2 1479   1.866   2.097   0.291  0.0432  0.1835 -0.8834
  494SOL     OW 1480   0.439   1.021   0.301  0.3977  0.3529 -0.3121
  494SOL    HW1 1481   0.522   1.069   0.338  0.6172 -0.8493 -1.1020
  494SOL    HW2 1482   0.439   1.041   0.201  1.7601  0.8337 -0.4213
  495SOL     OW 1483   3.031   2.808   0.947  0.3413  0.2459  0.2466
  495SOL    HW1 1484   3.007   2.800   1.045  1.4944 -0.8286  0.7659
  495SOL    HW2 1485   3.033   2.715   0.903  0.1365  1.0577 -0.6204
  496SOL     OW 1486   2.407   0.093   1.664  0.5541  0.4768  0.4307
  496SOL    HW1 1487   2.435   0.112   1.568  0.4737 -0.8378  1.0967
  496SOL    HW2 1488   2.304   0.106   1.664  0.5637 -0.7111 -2.0427
  497SOL     OW 1489   1.868   1.717   2.668  0.2356 -0.1698 -0.3576
  497SOL    HW1 1490   1.945   1.673   2.620 -1.1900 -1.4438  4.0100
  497SOL    HW2 1491   1.801   1.764   2.612  3.1206 -0.5488  2.8860
  498SOL     OW 1492   0.946   1.821   0.932 -0.0657  0.1480 -0.2173
  498SOL    HW1 1493   0.859   1.872   0.958  0.7326  0.1643  0.9342
  498SOL    HW2 1494   0.928   1.720   0.929 -0.3070 -0.7823  2.4995
  499SOL     OW 1495   0.695   2.129   1.528  0.1614 -0.6564  0.3198
  499SOL    HW1 1496   0.688   2.096   1.431 -1.1680  2.9207 -0.5338
  499SOL    HW2 1497   0.602   2.136   1.571 -1.1013  1.8188  1.2037
  500SOL     OW 1498   0.985   2.151   0.148 -0.1281  0.5845  0.1306
  500SOL    HW1 1499   0.937   2.140   0.236 -0.5497 -1.8064  1.5820
  500SOL    HW2 1500   1.076   2.192   0.161 -0.5927 -1.5475 -2.0321
  501SOL     OW 1501   2.740   2.984   1.396 -0.3347 -0.0980 -0.1987
  501SOL    HW1 1502   2.686   2.936   1.330  2.4867  2.4411  0.7280
  501SOL    HW2 1503   2.683   3.025   1.470  1.4784 -1.6618 -1.2808
  502SOL     OW 1504   0.271   0.803   1.702 -0.2833 -0.2952  0.0265
  502SOL    HW1 1505   0.192   0.745   1.676  1.4687 -1.1192  1.1465
  502SOL    HW2 1506   0.336   0.809   1.629 -1.9894 -0.9067  1.8837
  503SOL     OW 1507   2.049   0.890   1.386  0.1553 -0.1244 -0.3221
  503SOL    HW1 1508   2.140   0.931   1.354  1.6365 -0.0073 -2.9294
  503SOL    HW2 1509   1.991   0.864   1.307  1.3075  2.1582  1.4921
  504SOL     OW 1510   1.178   0.753   2.069 -0.3606 -0.0798 -0.3827
  504SOL    HW1 1511   1.190   0.672   2.133 -0.7780 -2.9970  0.7392
  504SOL    HW2 1512   1.202   0.840   2.122 -2.5091  1.3794  0.7250
  505SOL     OW 1513   0.606   3.033   2.399  0.7166 -0.0195 -0.3479
  505SOL    HW1 1514   0.651   0.024   2.402  1.3782  0.6381  0.4310
  505SOL    HW2 1515   0.602   2.983   2.488 -0.1104 -0.0252  0.9521
  506SOL     OW 1516   0.351   0.335   1.378 -0.1287  0.2940 -0.0979
  506SOL    HW1 1517   0.372   0.293   1.467 -1.6514 -0.2075 -0.9434
  506SOL    HW2 1518   0.258   0.375   1.378 -0.6839 -0.7438 -4.0037
  507SOL     OW 1519   1.141   0.108   3.007 -0.4010  0.1977 -0.0879
  507SOL    HW1 1520   1.071   0.079   3.078 -0.8163  1.8173  0.5645
  507SOL    HW2 1521   1.187   0.020   2.972  0.2027 -0.0957 -1.7257
  508SOL     OW 1522   1.977   0.219   2.432 -0.4765 -0.0956 -0.1677
  508SOL    HW1 1523   2.061   0.252   2.383 -1.6033 -1.1689  0.6413
  508SOL    HW2 1524   1.900   0.216   2.369  1.0807 -0.9914  1.8647
  509SOL     OW 1525   0.825   1.322   1.971  0.2427 -0.3633  0.1725
  509SOL    HW1 1526   0.841   1.230   2.014 -0.6418  1.6445 -0.9308
  509SOL    HW2 1527   0.809   1.385   2.049 -0.5900 -0.4856 -1.5790
  510SOL     OW 1528   0.089   1.042   0.646  0.2672 -0.4196  0.2586
  510SOL    HW1 1529   0.088   1.102   0.731 -1.2490  2.5871  0.4731
  510SOL    HW2 1530   3.100   1.000   0.624  2.5438 -0.5072 -1.8261
  511SOL     OW 1531   1.970   1.891   0.880  0.2126  0.0091  0.2250
  511SOL    HW1 1532   1.992   1.940   0.795  2.3308  3.1021 -0.6467
  511SOL    HW2 1533   2.007   1.792   0.884  0.0423 -1.8195 -2.0893
  512SOL     OW 1534   0.616   1.227   0.374  0.0590 -0.2389 -0.0723
  512SOL    HW1 1535   0.597   1.313   0.326  1.0850  1.2741  2.0054
  512SOL    HW2 1536   0.585   1.233   0.471 -1.4249  2.5688 -2.7329
  513SOL     OW 1537   0.460   2.275   0.704 -0.4835  0.6972  0.0348
  513SOL    HW1 1538   0.445   2.359   0.651  0.9598 -3.1261 -0.6131
  513SOL    HW2 1539   0.552   2.276   0.748 -2.5297 -0.0537 -3.6347
  514SOL     OW 1540   2.656   2.150   2.394 -0.2018  0.4183 -0.0530
  514SOL    HW1 1541   2.564   2.162   2.352  0.6752  1.3027  1.0586
  514SOL    HW2 1542   2.733   2.196   2.344 -0.2046  3.1893  0.2904
  515SOL     OW 1543   2.370   0.804   3.004 -0.2029  0.5692  0.3215
  515SOL    HW1 1544   2.281   0.759   3.031 -0.7296 -0.5682 -0.1435
  515SOL    HW2 1545   2.449   0.743   2.996 -1.1930  1.4884 -2.1680
  516SOL     OW 1546   1.968   0.197   0.631 -0.1301 -0.3366  0.0984
  516SOL    HW1 1547   1.970   0.092   0.619 -0.4227 -1.2736 -1.5297
  516SOL    HW2 1548   1.953   0.243   0.539 -1.3162  1.5906  0.8026
  517SOL     OW 1549   1.350   2.150   2.949  0.1695 -0.7885  0.4251
  517SOL    HW1 1550   1.287   2.078   2.980  0.3877 -0.7970  2.2004
  517SOL    HW2 1551   1.414   2.116   2.881 -0.1591  1.0115  0.9931
  518SOL     OW 1552   1.023   0.729   1.731  0.1849 -0.0253  0.7821
  518SOL    HW1 1553   1.081   0.649   1.707 -0.9335 -0.4082 -0.7689
  518SOL    HW2 1554   1.033   0.768   1.825 -0.8549  0.7605  1.0133
  519SOL     OW 1555   0.020   1.391   0.106 -0.4233 -0.2663  0.5996
  519SOL    HW1 1556   0.066   1.482   0.086 -1.5837  3.0842 -0.0341
  519SOL    HW2 1557   3.071   1.395   0.191 -1.6297  0.2174 -0.7960
  520SOL     OW 1558   1.971   2.198   1.875  0.4948  0.2649 -0.1100
  520SOL    HW1 1559   2.051   2.207   1.808  0.0790 -0.2580 -2.1878
  520SOL    HW2 1560   1.942   2.096   1.883 -0.3818 -3.1840  0.5905
  521SOL     OW 1561   1.128   2.723   2.432  0.5809 -0.1463  0.4261
  521SOL    HW1 1562   1.048   2.679   2.388 -0.7260  0.8606  2.7372
  521SOL    HW2 1563   1.216   2.679   2.401 -0.7555  0.7833 -3.2835
  522SOL     OW 1564   2.157   0.243   2.024 -0.5540 -0.1925 -0.0874
  522SOL    HW1 1565   2.154   0.331   1.974 -1.4595 -0.0003 -0.9333
  522SOL    HW2 1566   2.165   0.260   2.127 -0.1281 -2.4176  1.1617
  523SOL     OW 1567   1.743   2.036   1.305  0.0097 -0.2289  0.0630
  523SOL    HW1 1568   1.700   2.124   1.278 -2.8332  1.3403  0.5698
  523SOL    HW2 1569   1.766   2.043   1.405  2.7152 -1.4808 -0.2812
  524SOL     OW 1570   1.259   2.258   0.175  0.3119  0.2725 -0.2597
  524SOL    HW1 1571   1.237   2.328   0.242 -0.6270 -0.6304 -0.3672
  524SOL    HW2 1572   1.290   2.301   0.087 -1.3519  0.6369  1.0509
  525SOL     OW 1573   0.119   0.490   3.099 -0.3059 -0.3108  0.0429
  525SOL    HW1 1574   0.027   0.535   3.070 -0.6076  1.8412 -1.8218
  525SOL    HW2 1575   0.165   0.552   0.060 -1.7982 -2.4340  0.0735
  526SOL     OW 1576   1.119   2.677   0.372 -0.1813 -0.4776 -0.1755
  526SOL    HW1 1577   1.027   2.678   0.410 -0.3753 -3.8155 -0.5569
  526SOL    HW2 1578   1.162   2.757   0.416  1.0747  2.8270  0.6215
  527SOL     OW 1579   2.774   1.591   0.682  0.1274 -0.0866  0.2144
  527SOL    HW1 1580   2.779   1.674   0.744 -1.7115  0.0970 -2.5143
  527SOL    HW2 1581   2.729   1.622   0.596 -0.8915  1.3602  2.0574
  528SOL     OW 1582   0.307   0.995   2.273 -0.1407 -0.2353 -0.1179
  528SOL    HW1 1583   0.236   0.923   2.279  0.1984  0.8502  0.5107
  528SOL    HW2 1584   0.391   0.963   2.220  2.1885 -0.4612 -3.0464
  529SOL     OW 1585   1.374   1.565   2.720  0.0104  0.0059 -0.5412
  529SOL    HW1 1586   1.470   1.537   2.724  0.1818 -1.4341 -0.1130
  529SOL    HW2 1587   1.317   1.496   2.676  1.8859  1.5383  1.0690
  530SOL     OW 1588   1.761   1.107   2.367  0.1946 -0.1013 -0.4501
  530SOL    HW1 1589   1.679   1.045   2.347 -0.7650 -3.4571  0.3321
  530SOL    HW2 1590   1.773   1.176   2.287 -1.7747 -0.8049 -2.8857
  531SOL     OW 1591   0.575   2.235   2.691 -0.1229 -0.7968  0.0468
  531SOL    HW1 1592   0.508   2.181   2.640  2.2701  2.0300  0.5542
  531SOL    HW2 1593   0.553   2.255   2.788 -1.0992  0.3976 -0.9176
  532SOL     OW 1594   2.516   1.216   0.605 -0.0562 -0.2427 -0.2173
  532SOL    HW1 1595   2.486   1.268   0.522 -0.9073 -0.6099 -2.0910
  532SOL    HW2 1596   2.435   1.168   0.645 -0.2794  0.5789  1.8056
  533SOL     OW 1597   0.058   0.002   1.701 -0.2685  0.2999  0.1047
  533SOL    HW1 1598   0.155   3.093   1.677 -0.9766  0.0385  1.2046
  533SOL    HW2 1599   0.019   0.080   1.650 -1.1682  1.2182 -1.1511
  534SOL     OW 1600   0.491   0.162   3.072 -0.2832  0.2063  0.4386
  534SOL    HW1 1601   0.558   0.133   2.994  2.7593 -0.3527  0.0989
  534SOL    HW2 1602   0.413   0.096   3.077  0.5152  1.1491 -0.5601
  535SOL     OW 1603   0.220   0.297   0.281  0.1105  0.3326 -0.1132
  535SOL    HW1 1604   0.164   0.278   0.195 -0.1903 -2.0950 -3.4674
  535SOL    HW2 1605   0.195   0.231   0.355  1.4871 -1.7953 -3.1887
  536SOL     OW 1606   0.602   1.712   1.212  0.4067 -0.1855 -0.1241
  536SOL    HW1 1607   0.646   1.669   1.298  0.7070 -0.8024  1.3176
  536SOL    HW2 1608   0.620   1.653   1.131 -0.3911 -2.2433  1.0064
  537SOL     OW 1609   1.130   2.674   1.816 -0.3587 -0.4064 -0.7826
  537SOL    HW1 1610   1.191   2.704   1.895  1.7596  2.9009  0.2656
  537SOL    HW2 1611   1.124   2.575   1.802 -1.9663  0.9582 -0.3903
  538SOL     OW 1612   0.081   1.899   3.080 -0.3052  0.1537  0.1198
  538SOL    HW1 1613   0.070   1.978   0.046 -1.2311 -2.2130 -0.8672
  538SOL    HW2 1614   0.132   1.936   3.002  0.8753 -1.6262 -3.2057
  539SOL     OW 1615   2.785   1.169   2.555 -0.1245  0.2059 -0.2682
  539SOL    HW1 1616   2.861   1.165   2.623  1.0340  0.0041  1.4519
  539SOL    HW2 1617   2.829   1.155   2.462 -2.3896 -0.8100 -0.2675
  540SOL     OW 1618   1.713   0.538   2.215 -0.2688 -0.0204  0.0633
  540SOL    HW1 1619   1.641   0.608   2.238 -0.0565 -1.5140 -0.8678
  540SOL    HW2 1620   1.794   0.542   2.279  0.3123  1.0281  1.2452
  541SOL     OW 1621   0.528   0.347   2.102 -0.1742 -0.1136 -0.4368
  541SOL    HW1 1622   0.484   0.283   2.169 -0.4122  0.4771 -0.9779
  541SOL    HW2 1623   0.468   0.429   2.085 -0.1540  1.1735 -0.5112
  542SOL     OW 1624   2.020   2.920   0.024 -0.2112 -0.3093  0.2720
  542SOL    HW1 1625   1.920   2.895   0.044  2.7909 -0.1400 -2.1909
  542SOL    HW2 1626   2.066   2.988   0.082 -1.5745 -1.0410  1.7486
  543SOL     OW 1627   1.373   0.120   0.240  0.0385 -0.5901 -0.8755
  543SOL    HW1 1628   1.331   0.215   0.233 -1.1470 -0.6434 -1.6056
  543SOL    HW2 1629   1.344   0.088   0.331 -1.1791  1.7292  0.3747
  544SOL     OW 1630   2.516   1.714   1.829  0.1700  1.0469  0.6556
  544SOL    HW1 1631   2.532   1.614   1.849  1.1674  3.1678 -2.2009
  544SOL    HW2 1632   2.494   1.732   1.729  1.8050  1.9030 -4.0096
  545SOL     OW 1633   2.140   1.953   1.403 -0.1968  0.6311 -0.0871
  545SOL    HW1 1634   2.101   1.920   1.317 -0.1733 -0.4432 -0.3232
  545SOL    HW2 1635   2.162   2.051   1.404  1.2326 -2.5727  0.6112
  546SOL     OW 1636   0.157   3.053   2.383 -0.8132 -0.0274  0.1141
  546SOL    HW1 1637   0.125   0.048   2.373 -1.4384 -1.1418 -1.0637
  546SOL    HW2 1638   0.080   2.983   2.393  0.3558 -1.6494  2.0699
  547SOL     OW 1639   1.464   0.836   0.517 -0.2225 -0.2006 -0.1073
  547SOL    HW1 1640   1.375   0.809   0.562 -2.4960  0.4763  2.5425
  547SOL    HW2 1641   1.541   0.797   0.563  0.4889  1.5806  0.0125
  548SOL     OW 1642   1.582   2.314   2.687  0.1801  0.2943 -0.1411
  548SOL    HW1 1643   1.498   2.344   2.639 -0.4262 -0.1968 -1.7255
  548SOL    HW2 1644   1.563   2.215   2.712 -0.3374 -1.4780 -0.0571
  549SOL     OW 1645   2.108   0.651   0.348 -0.2859  0.7722  0.5717
  549SOL    HW1 1646   2.112   0.602   0.256  0.1768 -0.3865 -1.0217
  549SOL    HW2 1647   2.023   0.633   0.391  2.2896 -2.4811  1.5856
  550SOL     OW 1648   2.885   2.166   0.548 -0.1762 -0.5358 -0.0397
  550SOL    HW1 1649   2.790   2.142   0.533 -1.1973 -0.4554  0.6248
  550SOL    HW2 1650   2.941   2.086   0.580  0.8874 -0.2209 -1.2124
  551SOL     OW 1651   1.378   2.590   2.356 -0.1843 -0.2193 -0.5784
  551SOL    HW1 1652   1.354   2.575   2.259  1.1311 -0.2042  1.4352
  551SOL    HW2 1653   1.421   2.502   2.391 -1.1039  1.8851 -0.4206
  552SOL     OW 1654   3.002   2.453   2.740 -0.2172  0.2573  0.1990
  552SOL    HW1 1655   3.013   2.350   2.754 -1.9690 -2.8548 -3.6580
  552SOL    HW2 1656   2.971   2.473   2.643 -0.3055 -0.0454 -2.9376
  553SOL     OW 1657   0.137   0.038   0.853  0.4140 -0.0548 -0.5183
  553SOL    HW1 1658   0.236   0.063   0.851 -0.3175  1.1201 -0.9554
  553SOL    HW2 1659   0.117   3.065   0.789  0.1354 -0.9722  0.5195
  554SOL     OW 1660   2.211   2.293   1.670 -0.2934  0.5331 -0.5316
  554SOL    HW1 1661   2.202   2.393   1.654 -0.5555  0.8922  3.6838
  554SOL    HW2 1662   2.258   2.280   1.761 -0.3776 -1.0151  1.0710
  555SOL     OW 1663   1.716   2.314   2.235 -0.2296  0.1950  0.1178
  555SOL    HW1 1664   1.776   2.251   2.294 -0.8103  2.5359 -2.0894
  555SOL    HW2 1665   1.716   2.403   2.277  0.7809 -0.3090  0.1862
  556SOL     OW 1666   1.178   1.122   1.295  0.1887 -0.5844 -0.4590
  556SOL    HW1 1667   1.243   1.198   1.323  1.2798  0.3946 -1.9317
  556SOL    HW2 1668   1.093   1.129   1.345  0.6924  0.3494  2.6823
  557SOL     OW 1669   1.999   2.518   2.286  0.0427  0.1079 -0.1492
  557SOL    HW1 1670   1.992   2.444   2.355 -1.1920 -0.7901 -0.1194
  557SOL    HW2 1671   2.083   2.569   2.303  1.0122 -0.5431 -1.4076
  558SOL     OW 1672   0.223   2.767   1.896 -0.1443 -0.2397  0.2789
  558SOL    HW1 1673   0.274   2.682   1.884 -1.8691  1.3661  0.2599
  558SOL    HW2 1674   0.247   2.820   1.979  2.9435  0.9997  2.5641
  559SOL     OW 1675   2.224   3.016   0.780 -0.3187 -0.0198  0.2716
  559SOL    HW1 1676   2.280   2.934   0.760 -0.3074  0.7453  1.1402
  559SOL    HW2 1677   2.152   3.027   0.709  2.1828 -2.1437  1.0783
  560SOL     OW 1678   1.795   2.641   0.804 -0.5525  0.4603  0.0550
  560SOL    HW1 1679   1.706   2.590   0.819 -1.9990 -1.9278 -1.5717
  560SOL    HW2 1680   1.784   2.742   0.804 -5.7064  1.2187 -1.5447
  561SOL     OW 1681   1.125   0.006   0.825  0.1475 -0.0358  0.0207
  561SOL    HW1 1682   1.073   0.076   0.778  0.2214 -1.0998 -0.5656
  561SOL    HW2 1683   1.216   0.034   0.866  1.4489 -1.1556 -2.3352
  562SOL     OW 1684   0.535   1.094   2.540  0.5446  0.4022  0.1507
  562SOL    HW1 1685   0.597   1.088   2.454  1.7708  0.5376 -1.6873
  562SOL    HW2 1686   0.467   1.169   2.526  0.2628 -0.7896 -0.4187
  563SOL     OW 1687   1.676   1.827   2.515  0.5522 -0.3160  0.1850
  563SOL    HW1 1688   1.702   1.918   2.549  1.3742  0.5824  1.4198
  563SOL    HW2 1689   1.574   1.820   2.512  1.9481 -1.1631  0.9032
  564SOL     OW 1690   2.764   1.012   1.188 -0.0012 -0.2653  0.3074
  564SOL    HW1 1691   2.712   1.042   1.272 -1.7345 -0.1425 -0.4257
  564SOL    HW2 1692   2.696   0.979   1.118 -1.3458 -2.6689  0.0215
  565SOL     OW 1693   1.052   0.718   2.988  0.0271  0.4953 -0.3163
  565SOL    HW1 1694   1.138   0.689   2.939  1.7013  0.2854  0.6555
  565SOL    HW2 1695   0.969   0.699   2.927  0.3556 -0.9682 -0.3868
  566SOL     OW 1696   2.147   0.221   2.741 -0.3980 -0.7369  0.8163
  566SOL    HW1 1697   2.096   0.304   2.725 -1.7667 -0.6054  1.5341
  566SOL    HW2 1698   2.234   0.239   2.791 -1.1999  0.3146 -0.9939
  567SOL     OW 1699   2.115   1.203   0.380  0.1839  0.1107  0.3697
  567SOL    HW1 1700   2.052   1.238   0.451  1.9082 -0.1955 -2.7891
  567SOL    HW2 1701   2.083   1.204   0.284 -0.1496  0.7134 -0.7723
  568SOL     OW 1702   1.568   1.748   2.910 -0.1063 -0.3151  0.0309
  568SOL    HW1 1703   1.513   1.740   2.998 -1.9450  0.6812  3.0366
  568SOL    HW2 1704   1.518   1.722   2.827  0.6736  2.5307  1.8695
  569SOL     OW 1705   1.997   1.318   2.973 -0.2320  0.3050 -0.5869
  569SOL    HW1 1706   1.924   1.391   2.970 -1.8959 -0.8695  1.7269
  569SOL    HW2 1707   2.091   1.353   2.949  2.8665 -1.6135 -2.0674
  570SOL     OW 1708   0.613   2.213   1.839  1.0703  0.1989 -0.3644
  570SOL    HW1 1709   0.651   2.291   1.782  0.5412 -0.3885  0.5263
  570SOL    HW2 1710   0.566   2.137   1.780 -0.7729 -3.9243 -4.0896
  571SOL     OW 1711   0.347   0.989   1.922 -0.0567  0.2551 -0.1186
  571SOL    HW1 1712   0.325   0.918   1.858 -0.8775  1.3139  1.1917
  571SOL    HW2 1713   0.272   0.996   1.992  1.3322  1.1577 -1.6174
  572SOL     OW 1714   1.173   1.711   0.546  0.0969  0.5543 -0.5094
  572SOL    HW1 1715   1.163   1.615   0.582 -2.3830 -2.1369 -2.7250
  572SOL    HW2 1716   1.151   1.716   0.445  0.5948  0.4594  0.4855
  573SOL     OW 1717   1.740   2.231   0.499  0.4571 -0.3096  0.3946
  573SOL    HW1 1718   1.710   2.155   0.434  0.6308  1.0057  3.8190
  573SOL    HW2 1719   1.750   2.196   0.596 -0.1975  1.1090  0.0216
  574SOL     OW 1720   0.919   3.048   1.020 -0.3829 -0.6373  0.2612
  574SOL    HW1 1721   0.833   3.066   0.974  1.3104 -0.6084  4.5933
  574SOL    HW2 1722   0.989   3.041   0.944 -2.4050 -2.8262 -0.4274
  575SOL     OW 1723   0.312   1.211   1.471 -0.2166 -0.2018 -0.4797
  575SOL    HW1 1724   0.328   1.181   1.567 -1.5327  0.7029 -0.8590
  575SOL    HW2 1725   0.368   1.290   1.453 -0.6119 -3.0122  0.0863
  576SOL     OW 1726   2.397   3.097   1.156 -0.1265 -0.6433 -0.7911
  576SOL    HW1 1727   2.296   3.076   1.148 -1.5036 -1.7054 -2.2394
  576SOL    HW2 1728   2.454   3.036   1.095  1.4380 -0.8967  0.6182
  577SOL     OW 1729   0.871   1.100   2.101 -0.2086  0.4071  0.1183
  577SOL    HW1 1730   0.914   1.037   2.029 -1.8646 -0.4038 -1.3932
  577SOL    HW2 1731   0.811   1.039   2.161 -2.0907 -2.1229 -1.1081
  578SOL     OW 1732   1.841   0.971   2.583  0.5601 -0.1491  0.8276
  578SOL    HW1 1733   1.810   1.025   2.502 -2.0679  0.7878  1.5904
  578SOL    HW2 1734   1.870   1.038   2.656  2.3764 -2.0428 -0.1057
  579SOL     OW 1735   1.643   2.436   1.563 -0.3498 -0.3504 -0.3893
  579SOL    HW1 1736   1.691   2.422   1.652  0.1178 -1.8147 -0.9973
  579SOL    HW2 1737   1.706   2.402   1.493 -0.2594  2.1022 -0.7357
  580SOL     OW 1738   1.544   1.554   2.375 -0.0753 -0.9698  0.2981
  580SOL    HW1 1739   1.577   1.558   2.469  0.6886  1.1005 -1.8905
  580SOL    HW2 1740   1.441   1.545   2.365 -2.2219  0.2212 -0.5348
  581SOL     OW 1741   1.148   1.235   2.453  0.4557 -0.0688 -0.3715
  581SOL    HW1 1742   1.193   1.153   2.497 -2.0537  2.5085  0.1489
  581SOL    HW2 1743   1.135   1.308   2.527 -0.3744  5.3291 -1.0097
  582SOL     OW 1744   0.868   1.072   1.640  0.2869  0.8120  0.7827
  582SOL    HW1 1745   0.957   1.030   1.629  2.2050 -1.3414  1.0883
  582SOL    HW2 1746   0.823   1.091   1.549 -2.0992 -1.0193 -2.8101
  583SOL     OW 1747   1.123   1.127   1.873 -0.3814  0.2626  0.1336
  583SOL    HW1 1748   1.044   1.069   1.895  2.9481  0.0944  0.1160
  583SOL    HW2 1749   1.097   1.222   1.852 -0.3996 -0.9144  3.1991
  584SOL     OW 1750   2.377   2.894   0.410 -0.0203 -0.1251 -0.0873
  584SOL    HW1 1751   2.360   2.813   0.351  1.5736 -0.5336 -1.5227
  584SOL    HW2 1752   2.380   2.872   0.510 -1.7049 -2.0198  1.8587
  585SOL     OW 1753   1.939   0.169   3.054 -0.3467 -0.0615 -0.7926
  585SOL    HW1 1754   2.020   0.126   3.010  2.6845 -1.9408 -1.5464
  585SOL    HW2 1755   1.943   0.155   0.057 -0.1508  1.2115  1.7625
  586SOL     OW 1756   2.886   1.922   1.272 -0.0704 -0.5621 -0.2702
  586SOL    HW1 1757   2.785   1.954   1.270 -5.6731  0.3985  0.0319
  586SOL    HW2 1758   2.944   1.999   1.315 -2.5350  1.5102  0.5877
  587SOL     OW 1759   1.394   1.780   0.032  0.0334  0.0824  0.2896
  587SOL    HW1 1760   1.363   1.865   0.076  0.1514 -0.9243  0.2327
  587SOL    HW2 1761   1.314   1.734   3.085  1.4504 -2.7027 -1.5250
  588SOL     OW 1762   0.503   0.338   0.909  0.0556  0.4680  0.0209
  588SOL    HW1 1763   0.589   0.329   0.857  0.4315  0.4869  2.3939
  588SOL    HW2 1764   0.473   0.435   0.913  0.2177  1.6746  0.3912
  589SOL     OW 1765   1.363   0.050   0.542  0.0137  0.2136 -0.2742
  589SOL    HW1 1766   1.313   0.138   0.539  0.2092 -0.7134  1.1236
  589SOL    HW2 1767   1.382   0.034   0.640 -2.1644 -0.6165 -0.8437
  590SOL     OW 1768   1.262   0.978   2.905  0.5700 -0.3150  0.0289
  590SOL    HW1 1769   1.282   0.878   2.909  1.2535 -1.8423  1.8217
  590SOL    HW2 1770   1.162   0.996   2.928 -2.8566 -0.0934  0.5558
  591SOL     OW 1771   2.833   2.546   2.248 -0.3800  0.6973 -0.1901
  591SOL    HW1 1772   2.734   2.561   2.234  1.1002 -1.6079 -1.2873
  591SOL    HW2 1773   2.863   2.560   2.350  0.5356 -1.3497  0.9119
  592SOL     OW 1774   2.287   1.431   1.654 -0.6814  0.4388  0.1121
  592SOL    HW1 1775   2.263   1.529   1.645  2.4016 -2.2503  0.6694
  592SOL    HW2 1776   2.379   1.413   1.620  1.0488 -3.2808 -1.9817
  593SOL     OW 1777   1.116   0.943   1.585 -0.2968  0.5576  0.6214
  593SOL    HW1 1778   1.137   0.904   1.492  0.7397  2.0388  1.5442
  593SOL    HW2 1779   1.086   0.869   1.643  5.9318  0.6844 -3.3353
  594SOL     OW 1780   2.539   1.295   2.572  0.0226 -0.5522  0.0782
  594SOL    HW1 1781   2.546   1.389   2.543 -2.6582  1.0621  0.6987
  594SOL    HW2 1782   2.631   1.266   2.593 -0.8507 -0.8781  1.2102
  595SOL     OW 1783   0.037   0.207   0.667  0.3985 -0.5079  0.4949
  595SOL    HW1 1784   0.087   0.172   0.747  0.3549 -0.8232  0.3182
  595SOL    HW2 1785   3.037   0.211   0.676 -0.2906  1.7720 -1.4254
  596SOL     OW 1786   3.093   1.660   0.996  0.1286 -0.3805 -0.1080
  596SOL    HW1 1787   3.069   1.580   1.058  0.1886  0.8815 -0.2584
  596SOL    HW2 1788   0.083   1.698   1.011  0.2634  2.2817  1.4118
  597SOL     OW 1789   1.480   1.543   0.546 -0.2126 -0.4199  0.0683
  597SOL    HW1 1790   1.531   1.611   0.597 -2.8093 -0.0478 -0.2276
  597SOL    HW2 1791   1.443   1.583   0.461 -0.0190 -1.1537  0.1975
  598SOL     OW 1792   0.338   2.497   1.818  0.2643 -0.1332  0.3591
  598SOL    HW1 1793   0.396   2.511   1.738  1.7496 -0.6212  0.7515
  598SOL    HW2 1794   0.246   2.470   1.785  0.3259 -1.5286  0.1608
  599SOL     OW 1795   3.017   1.555   2.760 -0.3651  0.1384  0.4898
  599SOL    HW1 1796   2.939   1.488   2.762 -0.0922  1.1598  0.3374
  599SOL    HW2 1797   3.007   1.619   2.838  0.0757  1.9751  0.2275
  600SOL     OW 1798   0.598   1.026   2.955  0.1407 -0.5450  0.1779
  600SOL    HW1 1799   0.683   0.990   3.003 -0.0823 -2.7999  1.9051
  600SOL    HW2 1800   0.583   0.970   2.870 -0.1710 -0.7174  0.1719
  601SOL     OW 1801   0.767   0.787   1.123 -0.4482 -0.1748 -0.2992
  601SOL    HW1 1802   0.667   0.779   1.133  1.6357 -0.9988 -2.3993
  601SOL    HW2 1803   0.812   0.856   1.183  0.1423 -2.0897  1.4179
  602SOL     OW 1804   1.152   2.406   0.371  0.0254 -0.2626 -0.3434
  602SOL    HW1 1805   1.141   2.504   0.372  0.4803 -3.5241  0.2244
  602SOL    HW2 1806   1.201   2.375   0.455  3.4102 -3.3596  0.4368
  603SOL     OW 1807   1.355   2.403   2.068 -0.0356  0.4382 -0.0665
  603SOL    HW1 1808   1.379   2.469   1.994  0.4712 -0.3976  0.5172
  603SOL    HW2 1809   1.260   2.428   2.097  1.5942  0.5361 -2.1540
  604SOL     OW 1810   0.440   0.235   2.774 -0.2843 -0.3512  0.2973
  604SOL    HW1 1811   0.391   0.305   2.831  0.8173 -3.5303 -0.8084
  604SOL    HW2 1812   0.526   0.206   2.816  1.0209 -0.7044 -0.3677
  605SOL     OW 1813   2.634   1.086   1.413  0.2456  0.1849 -0.5419
  605SOL    HW1 1814   2.544   1.074   1.367 -3.9461  1.7200 -2.6907
  605SOL    HW2 1815   2.625   1.106   1.517  1.0001  2.3575  2.4481
  606SOL     OW 1816   0.972   1.741   2.701 -0.0941 -0.3092 -0.1472
  606SOL    HW1 1817   0.923   1.826   2.678  0.2028 -0.3046  1.5632
  606SOL    HW2 1818   0.959   1.669   2.629 -1.3347 -0.7981  1.2968
  607SOL     OW 1819   0.807   0.102   0.589 -0.0281  0.1790  0.3246
  607SOL    HW1 1820   0.723   0.073   0.537 -1.2029  1.8450 -0.3800
  607SOL    HW2 1821   0.898   0.078   0.548  0.6436 -1.6371  2.1004
  608SOL     OW 1822   2.201   1.994   2.070 -0.9785 -0.3944  0.2227
  608SOL    HW1 1823   2.193   1.918   1.999 -0.1296 -2.4689 -0.0066
  608SOL    HW2 1824   2.257   2.070   2.037 -1.6059  0.5711 -0.2174
  609SOL     OW 1825   2.846   0.123   0.616 -0.1207 -0.2557  0.0022
  609SOL    HW1 1826   2.870   0.028   0.631 -2.0353  3.3608 -0.2750
  609SOL    HW2 1827   2.776   0.151   0.685  1.0718 -1.2560 -0.4919
  610SOL     OW 1828   0.311   2.468   0.998  0.0378  0.1915  0.0899
  610SOL    HW1 1829   0.278   2.397   1.071 -2.2603 -2.9605  0.6898
  610SOL    HW2 1830   0.414   2.473   0.989 -1.4575  0.5241  0.0113
  611SOL     OW 1831   1.410   1.466   0.057  0.2202 -0.0549 -0.1480
  611SOL    HW1 1832   1.396   1.369   0.076  0.1470  3.4181 -1.5637
  611SOL    HW2 1833   1.364   1.530   0.125 -0.6565  2.1544  1.3023
  612SOL     OW 1834   0.484   2.670   1.975  0.0257 -0.0902  0.5352
  612SOL    HW1 1835   0.482   2.640   2.073  2.1915  3.6837  1.2584
  612SOL    HW2 1836   0.446   2.606   1.906 -0.2362  1.5261  1.2710
  613SOL     OW 1837   0.619   2.830   0.714 -0.1381 -0.0859 -0.5777
  613SOL    HW1 1838   0.687   2.772   0.667 -1.4387 -1.9233 -0.9982
  613SOL    HW2 1839   0.646   2.853   0.807 -1.7707 -1.8180  1.3829
  614SOL     OW 1840   2.411   0.124   1.954  0.1086 -0.4838  0.4306
  614SOL    HW1 1841   2.315   0.143   1.987  0.7912  0.2988  0.3211
  614SOL    HW2 1842   2.415   0.118   1.853  0.1397  1.5489 -1.5788
  615SOL     OW 1843   1.655   1.225   0.289 -0.0933 -0.1983 -0.0342
  615SOL    HW1 1844   1.594   1.240   0.214 -1.3496 -0.0449 -1.9960
  615SOL    HW2 1845   1.738   1.282   0.280 -2.5792 -0.2471 -1.7910
  616SOL     OW 1846   1.912   1.406   0.270 -0.2589 -0.2785 -1.1820
  616SOL    HW1 1847   1.832   1.465   0.299 -1.6675  2.1474  1.5950
  616SOL    HW2 1848   1.993   1.457   0.273 -4.1221  0.5754 -0.0385
  617SOL     OW 1849   1.190   1.025   2.651 -0.3738 -0.2007  0.2154
  617SOL    HW1 1850   1.126   0.946   2.636 -1.1723  1.0588 -2.7816
  617SOL    HW2 1851   1.219   1.041   2.746  1.2374 -0.9186 -0.3286
  618SOL     OW 1852   0.481   2.961   1.937  0.3553 -0.0049  0.4523
  618SOL    HW1 1853   0.475   2.855   1.931  1.3654 -1.6395  0.4109
  618SOL    HW2 1854   0.465   2.989   2.032  3.9956 -0.5230 -0.6156
  619SOL     OW 1855   2.762   1.807   1.553 -0.3034  0.1630 -0.3803
  619SOL    HW1 1856   2.831   1.744   1.514  2.4378  1.7955  0.2794
  619SOL    HW2 1857   2.668   1.762   1.543  1.5877 -0.1577  0.3256
  620SOL     OW 1858   2.677   0.645   2.680 -0.2159 -0.3422 -0.5875
  620SOL    HW1 1859   2.662   0.746   2.677  2.0606  1.5960  1.2529
  620SOL    HW2 1860   2.778   0.631   2.686  2.7739  1.1710 -0.7648
  621SOL     OW 1861   2.373   2.062   2.332  0.2043 -0.4314  0.6131
  621SOL    HW1 1862   2.339   2.111   2.250  1.7164 -0.7021 -3.8101
  621SOL    HW2 1863   2.330   1.974   2.338  0.7303  1.0330 -0.6572
  622SOL     OW 1864   0.940   0.626   2.303 -0.4928  0.0739  0.5468
  622SOL    HW1 1865   0.872   0.551   2.302 -0.0977 -0.3350 -0.1359
  622SOL    HW2 1866   1.037   0.596   2.292  0.4205  1.9178  1.1380
  623SOL     OW 1867   0.666   1.040   2.302  0.1005 -0.1326 -0.1040
  623SOL    HW1 1868   0.755   1.021   2.356  1.5859  1.6839  1.3656
  623SOL    HW2 1869   0.612   0.957   2.295  1.4474  1.3602 -0.0227
  624SOL     OW 1870   2.757   0.771   0.343 -0.1651 -0.1062  0.1681
  624SOL    HW1 1871   2.661   0.797   0.373 -3.3638  0.9648  0.9001
  624SOL    HW2 1872   2.794   0.834   0.272 -2.0126  1.9208 -0.1986
  625SOL     OW 1873   0.747   1.951   1.029  0.8059  0.1951 -0.0188
  625SOL    HW1 1874   0.677   1.941   0.956 -0.7228  0.8840  0.4914
  625SOL    HW2 1875   0.702   1.950   1.120  1.3051 -3.7416 -1.3234
  626SOL     OW 1876   1.967   0.715   2.590  0.2229 -0.5717  0.4371
  626SOL    HW1 1877   2.063   0.721   2.623 -0.3111  0.9515  0.5449
  626SOL    HW2 1878   1.915   0.798   2.618 -1.6468  0.9595  1.6144
  627SOL     OW 1879   1.645   2.729   2.780 -0.2318 -0.0639 -0.2633
  627SOL    HW1 1880   1.626   2.828   2.764  1.9997  0.4232 -0.8107
  627SOL    HW2 1881   1.731   2.723   2.825 -4.2648  2.3588 -1.4097
  628SOL     OW 1882   2.313   2.910   2.399 -0.0059 -0.0581 -0.3878
  628SOL    HW1 1883   2.256   2.973   2.456  0.6088  0.9111 -0.5522
  628SOL    HW2 1884   2.337   2.942   2.304  1.7059  1.2582 -0.9205
  629SOL     OW 1885   0.970   0.067   2.380 -1.0205 -0.1903 -0.2980
  629SOL    HW1 1886   0.967   0.076   2.279 -0.5471 -0.7295  2.6414
  629SOL    HW2 1887   1.032   3.096   2.417 -3.1985  2.0455 -0.8141
  630SOL     OW 1888   0.760   0.217   2.453 -0.2804  0.3898  0.4411
  630SOL    HW1 1889   0.773   0.262   2.541  1.1332 -2.2600  1.0836
  630SOL    HW2 1890   0.846   0.159   2.427 -0.3327 -2.3927  1.6247
  631SOL     OW 1891   1.921   1.294   0.575  0.6796 -0.5478  0.1793
  631SOL    HW1 1892   1.820   1.278   0.570 -0.4028 -1.8084  1.2270
  631SOL    HW2 1893   1.942   1.383   0.620  0.8004 -1.5249  1.0303
  632SOL     OW 1894   2.173   0.722   1.752  0.2161  0.0498 -0.3961
  632SOL    HW1 1895   2.085   0.720   1.695  0.8681 -2.0307  1.3123
  632SOL    HW2 1896   2.251   0.762   1.708  2.1575 -0.3367  1.3994
  633SOL     OW 1897   1.117   1.777   0.283 -0.4257  0.0240 -0.0269
  633SOL    HW1 1898   1.015   1.793   0.299  0.4287  0.3829  2.2020
  633SOL    HW2 1899   1.162   1.852   0.229  0.3935 -1.0707 -0.4052
  634SOL     OW 1900   2.639   3.076   1.658 -0.4601 -0.0814  0.0311
  634SOL    HW1 1901   2.560   0.039   1.677 -1.1391  0.4663  2.2393
  634SOL    HW2 1902   2.718   0.002   1.721 -1.4458 -0.2561  1.7890
  635SOL     OW 1903   1.613   0.456   0.792  0.4680 -0.3634  0.4091
  635SOL    HW1 1904   1.672   0.497   0.869  0.2478  0.3519 -3.5320
  635SOL    HW2 1905   1.620   0.354   0.802  0.7354  0.1754 -1.9412
  636SOL     OW 1906   0.815   0.958   0.008 -0.1708 -0.4780  0.0301
  636SOL    HW1 1907   0.897   0.995   3.063 -1.6344 -1.0411  0.1811
  636SOL    HW2 1908   0.828   0.860   0.011 -1.9724  0.2388 -0.0992
  637SOL     OW 1909   2.850   2.167   3.038  0.2454  0.0152 -0.6079
  637SOL    HW1 1910   2.842   2.069   3.075 -0.2576 -0.5065  1.5998
  637SOL    HW2 1911   2.937   2.202   3.083 -3.4590 -1.8218  0.7760
  638SOL     OW 1912   1.561   2.487   2.885  0.1641 -0.0466 -0.0053
  638SOL    HW1 1913   1.574   2.576   2.836 -0.3873  0.9459  0.6572
  638SOL    HW2 1914   1.553   2.413   2.817 -0.2337 -2.3896 -0.0613
  639SOL     OW 1915   1.585   1.628   0.939  0.1422 -0.1540 -0.4750
  639SOL    HW1 1916   1.548   1.711   0.987  0.2021  2.6108 -3.4598
  639SOL    HW2 1917   1.595   1.654   0.837  3.1187  1.8577 -4.6505
  640SOL     OW 1918   2.137   2.771   0.569  0.4519  0.1494  0.0875
  640SOL    HW1 1919   2.233   2.802   0.586  0.3006 -0.8130 -1.0893
  640SOL    HW2 1920   2.110   2.678   0.602  0.1555 -1.0796 -1.4361
  641SOL     OW 1921   2.808   0.274   2.963 -0.1983 -0.4069 -0.1683
  641SOL    HW1 1922   2.759   0.220   2.891  0.7730 -0.6777 -2.8797
  641SOL    HW2 1923   2.771   0.253   3.055  0.0798 -2.7766 -0.3728
  642SOL     OW 1924   3.025   0.880   1.227  0.2534 -0.3817 -0.4327
  642SOL    HW1 1925   2.932   0.925   1.214 -1.9859  3.5958  0.3934
  642SOL    HW2 1926   3.073   0.937   1.292  2.0459 -0.8734 -3.8188
  643SOL     OW 1927   0.462   1.572   2.159  0.5219  0.2912 -0.3234
  643SOL    HW1 1928   0.487   1.520   2.240 -1.5564  1.9187 -3.7222
  643SOL    HW2 1929   0.538   1.601   2.096 -2.3248 -2.0224  0.7277
  644SOL     OW 1930   1.966   2.295   0.760  0.0370  0.0224 -0.0332
  644SOL    HW1 1931   1.971   2.392   0.728 -3.4691 -1.5321 -0.3106
  644SOL    HW2 1932   1.903   2.284   0.844  1.4633 -0.9009 -1.8500
  645SOL     OW 1933   1.971   1.968   1.160  0.1767 -0.4435  0.0300
  645SOL    HW1 1934   1.945   1.946   1.062 -1.0028  2.2015  0.0719
  645SOL    HW2 1935   1.883   1.975   1.215 -0.9956 -0.2687  1.1929
  646SOL     OW 1936   1.054   2.328   2.834  0.3903 -0.2467  0.1775
  646SOL    HW1 1937   1.062   2.242   2.887  0.8982  2.0810 -0.6265
  646SOL    HW2 1938   0.979   2.390   2.872 -2.9340  1.4915 -0.4716
  647SOL     OW 1939   0.886   2.819   1.730 -0.1019 -0.2059 -0.0276
  647SOL    HW1 1940   0.957   2.771   1.788  1.3078  0.9365  0.6575
  647SOL    HW2 1941   0.904   2.917   1.734 -1.6846 -0.3552 -1.4010
  648SOL     OW 1942   1.397   0.300   1.442  0.2604  0.7799  0.4194
  648SOL    HW1 1943   1.438   0.226   1.382  0.1336  1.6564 -0.4341
  648SOL    HW2 1944   1.387   0.261   1.538  0.9055 -4.0692  1.2751
  649SOL     OW 1945   1.700   2.040   0.297 -0.1785 -0.1837  0.1952
  649SOL    HW1 1946   1.662   2.088   0.210 -0.6852  2.5715 -0.0444
  649SOL    HW2 1947   1.663   1.945   0.307  1.2748 -2.5078  3.5738
  650SOL     OW 1948   2.197   1.683   1.616 -0.1686 -0.3668 -0.2759
  650SOL    HW1 1949   2.111   1.649   1.568 -0.6581 -0.6793 -0.6781
  650SOL    HW2 1950   2.184   1.783   1.623  0.1142 -2.4696 -0.6634
  651SOL     OW 1951   1.870   2.567   0.179  0.5721 -0.2365 -0.2255
  651SOL    HW1 1952   1.887   2.657   0.222 -0.9881 -1.2728  0.5237
  651SOL    HW2 1953   1.925   2.554   0.097 -2.1123  1.2808 -0.1448
  652SOL     OW 1954   0.654   2.038   0.285 -0.1340 -0.2532  0.0641
  652SOL    HW1 1955   0.597   2.008   0.360 -1.3259  2.5211 -1.7924
  652SOL    HW2 1956   0.630   1.986   0.202 -0.4045 -2.0376  0.3325
  653SOL     OW 1957   2.643   2.800   1.226 -0.1220  0.6683  0.1141
  653SOL    HW1 1958   2.577   2.747   1.282  1.9288  0.4135 -1.3506
  653SOL    HW2 1959   2.607   2.812   1.130  3.4295  0.6794 -3.1983
  654SOL     OW 1960   2.837   2.854   1.652  0.0047 -0.0807 -0.3182
  654SOL    HW1 1961   2.930   2.861   1.694 -2.4854  0.0400  1.7163
  654SOL    HW2 1962   2.800   2.944   1.626  1.1204  1.2700 -0.7477
  655SOL     OW 1963   2.924   1.894   0.999  0.5748  0.5251 -0.2680
  655SOL    HW1 1964   2.987   1.813   0.994  0.1769  0.1627  1.6021
  655SOL    HW2 1965   2.912   1.911   1.096  2.4354 -0.2352 -1.4661
  656SOL     OW 1966   2.940   0.110   2.424 -0.5135 -0.4085 -0.0715
  656SOL    HW1 1967   2.899   0.182   2.485 -0.7108  1.4077  1.6165
  656SOL    HW2 1968   2.896   0.018   2.443 -1.8381 -1.5216  2.2332
  657SOL     OW 1969   2.631   1.423   3.077  0.1113  0.3800 -0.3176
  657SOL    HW1 1970   2.645   1.338   0.028  1.0708 -0.6050 -0.8476
  657SOL    HW2 1971   2.539   1.426   3.028 -3.4080 -1.3621 -1.6139
  658SOL     OW 1972   2.221   1.900   1.014  0.1279 -0.2310  0.3285
  658SOL    HW1 1973   2.128   1.918   1.047  2.7402  0.0689  0.4724
  658SOL    HW2 1974   2.214   1.835   0.932 -0.2035  0.4774  1.5912
  659SOL     OW 1975   1.265   0.530   1.067  0.4346 -0.4932  0.0184
  659SOL    HW1 1976   1.344   0.576   1.111  0.1542 -0.2507 -0.6899
  659SOL    HW2 1977   1.199   0.483   1.128 -1.8581  1.8077 -2.8698
  660SOL     OW 1978   1.595   1.439   2.969  0.5940  0.2893 -0.4491
  660SOL    HW1 1979   1.551   1.365   2.918 -0.3520 -0.0666  1.1878
  660SOL    HW2 1980   1.529   1.463   3.042 -3.0134  0.5489  2.0718
  661SOL     OW 1981   0.208   2.120   0.717 -0.5657 -0.5782  0.4855
  661SOL    HW1 1982   0.145   2.173   0.660 -1.4042 -0.9219  1.9532
  661SOL    HW2 1983   0.295   2.175   0.739  1.9372  2.9077 -0.4113
  662SOL     OW 1984   0.036   0.680   2.369 -0.6420  0.0493  0.5595
  662SOL    HW1 1985   0.014   0.735   2.452  1.9212 -2.5977 -1.0799
  662SOL    HW2 1986   3.078   0.595   2.366 -3.3170  1.9153  0.7796
  663SOL     OW 1987   1.827   1.312   0.941 -0.1617 -0.1912 -0.3136
  663SOL    HW1 1988   1.774   1.301   0.856  1.6429  1.3481  0.6325
  663SOL    HW2 1989   1.902   1.243   0.949 -0.4823 -2.4649 -1.4665
  664SOL     OW 1990   0.945   0.936   1.294 -0.4029 -0.1822  0.0567
  664SOL    HW1 1991   0.958   0.849   1.348  1.6164  0.5834  1.4491
  664SOL    HW2 1992   1.034   0.949   1.245  0.3925 -2.0075  1.3141
  665SOL     OW 1993   1.306   2.712   2.670 -0.2180  0.5509 -0.1002
  665SOL    HW1 1994   1.299   2.764   2.756  0.2491  0.2751 -0.3851
  665SOL    HW2 1995   1.384   2.745   2.610  2.1053 -0.1621 -1.0657
  666SOL     OW 1996   2.807   2.966   2.494  0.6705  0.4493 -0.1119
  666SOL    HW1 1997   2.840   2.932   2.585 -3.2484  1.6600  2.0103
  666SOL    HW2 1998   2.721   2.917   2.483 -0.6330  0.2262 -1.2709
  667SOL     OW 1999   2.237   1.342   1.936  0.3161  0.0912  0.0099
  667SOL    HW1 2000   2.284   1.369   1.849  0.9171  0.0960 -2.2377
  667SOL    HW2 2001   2.263   1.243   1.943  2.9341  3.4224  0.8319
  668SOL     OW 2002   0.251   1.211   2.648  0.2027 -0.2654 -0.0436
  668SOL    HW1 2003   0.181   1.256   2.711  0.0604 -0.6063  1.6497
  668SOL    HW2 2004   0.236   1.238   2.554  0.1141 -1.4697  1.1151
  669SOL     OW 2005   2.008   2.341   2.469 -0.6983  0.2172  0.2061
  669SOL    HW1 2006   1.964   2.257   2.433 -0.0327 -1.0425 -0.3570
  669SOL    HW2 2007   2.104   2.322   2.499 -0.4880  2.0466  1.2756
  670SOL     OW 2008   2.328   1.095   1.945 -0.2444  0.0461 -0.4605
  670SOL    HW1 2009   2.434   1.108   1.946  2.1665  2.5652 -0.4739
  670SOL    HW2 2010   2.310   0.999   1.977 -1.4185 -1.6781  1.0387
  671SOL     OW 2011   2.443   1.514   0.221 -0.3779 -0.5097 -0.2933
  671SOL    HW1 2012   2.544   1.492   0.236  0.7845  1.4030  1.3966
  671SOL    HW2 2013   2.445   1.588   0.152  0.9510  0.6845  4.4808
  672SOL     OW 2014   2.619   1.122   2.020 -0.0316  0.7354 -0.3161
  672SOL    HW1 2015   2.642   1.191   1.949  0.9579  1.8360 -0.1986
  672SOL    HW2 2016   2.598   1.167   2.107  0.5555 -0.9784 -2.6217
  673SOL     OW 2017   2.627   0.943   1.674 -0.0244 -0.1556  0.2482
  673SOL    HW1 2018   2.700   0.998   1.715  1.3828 -0.2143  0.3276
  673SOL    HW2 2019   2.665   0.865   1.624 -0.0164  1.3119  0.0628
  674SOL     OW 2020   2.105   1.931   1.680 -0.1981 -0.4121  0.0890
  674SOL    HW1 2021   2.021   1.953   1.731  0.3927  0.1530 -1.1273
  674SOL    HW2 2022   2.092   1.940   1.578 -0.2030 -1.8197  4.0548
  675SOL     OW 2023   0.442   0.603   0.899  0.0871  0.6256 -0.1416
  675SOL    HW1 2024   0.496   0.648   0.974  0.6899 -0.2870  2.7819
  675SOL    HW2 2025   0.341   0.625   0.905 -0.5532 -1.4797  1.8650
  676SOL     OW 2026   1.595   1.139   1.195 -0.3334  0.8489  0.3113
  676SOL    HW1 2027   1.561   1.223   1.150  0.5148 -1.9676  0.5750
  676SOL    HW2 2028   1.697   1.145   1.213 -1.6263  3.7564  0.6836
  677SOL     OW 2029   2.322   1.407   2.199  0.0577  0.5181  0.3179
  677SOL    HW1 2030   2.288   1.389   2.105 -0.4617 -0.7107 -0.7793
  677SOL    HW2 2031   2.348   1.502   2.205 -0.7764 -1.5167  0.6293
  678SOL     OW 2032   0.121   1.464   0.597  0.3092 -0.1499  0.5469
  678SOL    HW1 2033   0.126   1.373   0.559  0.9928 -0.8223  1.2010
  678SOL    HW2 2034   0.049   1.469   0.668  0.3773  0.9676  0.7309
  679SOL     OW 2035   2.674   2.735   0.481 -0.3619  0.8229  0.2757
  679SOL    HW1 2036   2.694   2.795   0.398  0.9798  1.6771  0.0418
  679SOL    HW2 2037   2.744   2.662   0.485 -0.7603 -0.6541 -3.9240
  680SOL     OW 2038   2.940   2.266   1.549 -0.1003  0.1224  0.2420
  680SOL    HW1 2039   2.868   2.203   1.539  1.2918 -0.2984 -0.2178
  680SOL    HW2 2040   2.923   2.310   1.639  1.9623 -0.2981  0.1249
  681SOL     OW 2041   0.417   1.354   1.186 -0.1017 -0.3940 -0.5263
  681SOL    HW1 2042   0.486   1.298   1.134  0.5468 -1.4896 -0.4296
  681SOL    HW2 2043   0.449   1.371   1.277 -1.4615 -0.7328  1.3393
  682SOL     OW 2044   1.604   2.477   0.910  0.3182  0.3267 -0.0258
  682SOL    HW1 2045   1.550   2.533   0.973 -2.1949 -1.0132 -1.3755
  682SOL    HW2 2046   1.649   2.397   0.958 -2.9849  0.7674 -0.6298
  683SOL     OW 2047   2.322   1.597   0.917 -0.3127  0.1312 -0.7748
  683SOL    HW1 2048   2.412   1.617   0.972  2.3497 -0.6936  1.5726
  683SOL    HW2 2049   2.306   1.665   0.840 -0.2128  2.0073 -4.2185
  684SOL     OW 2050   0.749   2.109   2.060  0.9858 -0.6018  0.7225
  684SOL    HW1 2051   0.853   2.117   2.065  1.8499  0.9954 -1.9704
  684SOL    HW2 2052   0.711   2.149   1.978  3.0167 -0.0633  0.8780
  685SOL     OW 2053   2.145   1.603   0.257  0.7702  0.0644 -0.5364
  685SOL    HW1 2054   2.235   1.578   0.213  0.3825  0.1011 -1.5115
  685SOL    HW2 2055   2.084   1.649   0.186 -0.9505  0.1057 -1.3604
  686SOL     OW 2056   0.132   0.468   0.744  0.1869  0.0371  0.4724
  686SOL    HW1 2057   0.097   0.379   0.706 -1.3201 -0.5450 -0.0320
  686SOL    HW2 2058   0.199   0.505   0.680 -2.4190 -1.1520  4.2187
  687SOL     OW 2059   1.581   2.664   0.041  1.1483  0.0219 -0.0629
  687SOL    HW1 2060   1.588   2.581   0.107  1.5208 -3.1737  5.3868
  687SOL    HW2 2061   1.587   2.637   3.044 -2.0227  0.8349 -2.7371
  688SOL     OW 2062   1.942   1.929   1.921 -0.1054 -0.1971  0.7082
  688SOL    HW1 2063   2.023   1.867   1.932 -2.5115  0.5411  2.2022
  688SOL    HW2 2064   1.863   1.882   1.960 -0.8924  0.9916 -0.7639
  689SOL     OW 2065   2.288   0.831   2.040  0.4683  0.2782  0.0280
  689SOL    HW1 2066   2.353   0.785   1.974  1.2022 -1.8954 -0.7762
  689SOL    HW2 2067   2.324   0.839   2.136  1.2441  1.3454 -0.8014
  690SOL     OW 2068   1.893   0.584   1.333  0.7787  0.1322  0.5343
  690SOL    HW1 2069   1.796   0.595   1.311  0.1897  3.6886 -2.6138
  690SOL    HW2 2070   1.900   0.518   1.412 -1.9965  2.4522  1.3891
  691SOL     OW 2071   1.169   1.832   1.508 -0.0637 -0.3786  0.3761
  691SOL    HW1 2072   1.120   1.791   1.427 -0.5517 -1.2350 -0.0392
  691SOL    HW2 2073   1.263   1.797   1.519 -1.3241  1.0020  1.1234
  692SOL     OW 2074   1.626   0.303   1.764  0.0207  0.2059 -0.0258
  692SOL    HW1 2075   1.589   0.397   1.738 -0.1008 -0.1801 -2.1515
  692SOL    HW2 2076   1.651   0.251   1.680 -0.6713 -0.0333  0.1365
  693SOL     OW 2077   0.481   1.254   2.811  0.4217 -0.1042  0.5120
  693SOL    HW1 2078   0.509   1.174   2.867 -1.9412  1.4965 -1.3475
  693SOL    HW2 2079   0.398   1.236   2.754 -0.9965  1.4792  0.4191
  694SOL     OW 2080   2.132   2.767   1.102 -0.4390 -0.3838  0.2646
  694SOL    HW1 2081   2.097   2.702   1.032 -1.7522 -1.3886 -0.9824
  694SOL    HW2 2082   2.147   2.719   1.193  2.3244 -0.9608 -0.4258
  695SOL     OW 2083   1.621   1.495   2.128 -0.0799  0.2836  0.6501
  695SOL    HW1 2084   1.524   1.497   2.092 -1.5208 -0.8173 -0.3085
  695SOL    HW2 2085   1.622   1.523   2.226 -0.4690 -2.1332 -1.3295
  696SOL     OW 2086   1.637   0.358   1.173  0.3965  0.3488 -0.1186
  696SOL    HW1 2087   1.563   0.381   1.232 -0.2695 -0.3780 -0.8536
  696SOL    HW2 2088   1.657   0.441   1.118  1.3841 -1.6907 -1.2183
  697SOL     OW 2089   1.357   0.216   1.699  0.1989  0.1466  0.1564
  697SOL    HW1 2090   1.356   0.116   1.695 -0.4801  0.7329  0.9052
  697SOL    HW2 2091   1.443   0.250   1.744 -1.8674  1.0201 -0.4555
  698SOL     OW 2092   1.807   1.264   2.167  0.0402  0.2029 -0.4880
  698SOL    HW1 2093   1.865   1.231   2.089 -0.6465 -2.5869  0.4990
  698SOL    HW2 2094   1.724   1.317   2.138  2.3743 -0.9047 -1.1041
  699SOL     OW 2095   1.475   1.035   1.426 -0.2631 -0.1407  0.2102
  699SOL    HW1 2096   1.527   1.054   1.340 -1.8931 -1.7417  2.3653
  699SOL    HW2 2097   1.403   0.967   1.401 -1.8324  0.1985  1.4912
  700SOL     OW 2098   1.571   3.084   0.111  0.3033  0.3392  0.0884
  700SOL    HW1 2099   1.580   0.082   0.075 -3.6536 -0.5512  2.1180
  700SOL    HW2 2100   1.487   3.096   0.178 -1.9499  1.2048  2.3037
  701SOL     OW 2101   0.358   3.076   1.683  0.8918  0.2810  0.3807
  701SOL    HW1 2102   0.392   3.046   1.774 -0.1291 -1.7191 -1.6252
  701SOL    HW2 2103   0.382   3.014   1.605  0.2675 -1.9205 -2.0864
  702SOL     OW 2104   1.509   2.773   0.417  0.3882 -0.3726  0.1888
  702SOL    HW1 2105   1.569   2.850   0.426 -4.6412 -0.2427 -2.2153
  702SOL    HW2 2106   1.554   2.682   0.438 -0.3953 -1.6079 -3.2591
  703SOL     OW 2107   2.562   0.198   2.200  0.3028 -1.0470 -0.3207
  703SOL    HW1 2108   2.575   0.293   2.235  0.3592  2.4159 -1.4386
  703SOL    HW2 2109   2.531   0.196   2.101 -3.8038  0.1243 -1.3003
  704SOL     OW 2110   1.273   2.250   1.058 -0.6700 -0.3338 -0.4224
  704SOL    HW1 2111   1.265   2.326   1.129  0.0305  1.7223 -0.1733
  704SOL    HW2 2112   1.373   2.223   1.052  3.5633 -0.5755 -1.2791
  705SOL     OW 2113   2.923   1.269   2.025 -1.0234  0.5626  0.3164
  705SOL    HW1 2114   2.841   1.294   2.073 -0.2143  0.1259 -2.4947
  705SOL    HW2 2115   2.894   1.262   1.925 -0.3959  0.0909  0.5160
  706SOL     OW 2116   1.620   3.002   0.531  0.3006  0.2984 -0.0627
  706SOL    HW1 2117   1.536   3.057   0.533  1.9718 -2.7218 -0.9869
  706SOL    HW2 2118   1.682   3.028   0.453  0.5250  0.6687 -1.0168
  707SOL     OW 2119   1.129   2.189   2.337 -0.2290  0.1433  0.3712
  707SOL    HW1 2120   1.073   2.265   2.366  2.1526 -1.8334 -1.5912
  707SOL    HW2 2121   1.165   2.150   2.420 -1.0536  0.4327 -1.0843
  708SOL     OW 2122   3.042   2.096   1.381  0.5219  0.3210 -0.0728
  708SOL    HW1 2123   3.090   2.016   1.420  3.4561  0.3130  0.8418
  708SOL    HW2 2124   3.014   2.164   1.451  2.3450  0.2866  0.0738
  709SOL     OW 2125   1.811   0.490   1.956  0.3222 -0.1626 -0.7718
  709SOL    HW1 2126   1.772   0.411   1.906 -0.2193  0.0088 -0.6454
  709SOL    HW2 2127   1.766   0.503   2.046  1.1644 -2.1451 -3.4514
  710SOL     OW 2128   2.816   0.383   1.481  0.5296  0.6839  0.0781
  710SOL    HW1 2129   2.800   0.295   1.424  0.2730 -1.5468 -0.8811
  710SOL    HW2 2130   2.770   0.461   1.436  1.7046  2.3446 -0.5665
  711SOL     OW 2131   0.208   2.538   0.741  0.2636 -0.1982  0.0327
  711SOL    HW1 2132   0.258   2.503   0.824 -1.4628  0.6304  0.2975
  711SOL    HW2 2133   0.109   2.543   0.762  1.9883  0.9013  3.0742
  712SOL     OW 2134   0.444   2.066   2.536 -0.4518  0.1340 -0.1857
  712SOL    HW1 2135   0.519   1.996   2.527 -0.7353  0.8590 -0.0815
  712SOL    HW2 2136   0.438   2.125   2.454  1.3397 -0.2986 -0.0268
  713SOL     OW 2137   1.443   0.681   0.034  1.2920  0.1977  0.3709
  713SOL    HW1 2138   1.425   0.748   0.112 -2.2901  2.2064  1.5637
  713SOL    HW2 2139   1.538   0.657   0.022 -1.6191  0.8159  0.1862
  714SOL     OW 2140   1.535   1.795   0.302  0.1212  0.2124  0.3790
  714SOL    HW1 2141   1.473   1.773   0.232  0.3071  0.3635  2.7305
  714SOL    HW2 2142   1.478   1.812   0.389 -0.9068  2.2374  3.5032
  715SOL     OW 2143   2.724   0.176   0.364 -0.4874 -0.2409 -0.0380
  715SOL    HW1 2144   2.642   0.121   0.385  1.0841  0.7548  0.2369
  715SOL    HW2 2145   2.788   0.177   0.443 -1.5234 -2.0061  0.5165
  716SOL     OW 2146   0.346   0.175   2.260 -0.2904 -0.1631  0.7073
  716SOL    HW1 2147   0.358   0.186   2.360 -0.0882  2.6167  0.7118
  716SOL    HW2 2148   0.251   0.192   2.237 -1.0856  1.2477  0.3469
  717SOL     OW 2149   0.132   0.298   2.622 -0.1224 -0.3896 -0.3255
  717SOL    HW1 2150   0.114   0.276   2.527  1.1221 -0.8347  0.7349
  717SOL    HW2 2151   0.044   0.308   2.676 -2.6022 -0.4947 -0.7869
  718SOL     OW 2152   1.080   0.698   0.621 -0.3713 -0.6253 -0.3374
  718SOL    HW1 2153   1.108   0.708   0.718 -2.2107  0.1947  0.8807
  718SOL    HW2 2154   1.113   0.777   0.562 -0.9251 -0.9700 -3.7112
  719SOL     OW 2155   2.678   2.270   2.842  0.0769  0.0063  0.5850
  719SOL    HW1 2156   2.682   2.209   2.763 -1.1717  2.1192  1.6050
  719SOL    HW2 2157   2.753   2.246   2.904 -1.2131  1.6514 -1.8154
  720SOL     OW 2158   1.647   0.679   1.300 -0.4680 -0.4162 -0.7087
  720SOL    HW1 2159   1.568   0.714   1.255  1.0247  0.9115 -0.9527
  720SOL    HW2 2160   1.665   0.711   1.398 -0.3903  0.2575  1.1327
  721SOL     OW 2161   2.741   0.692   0.939 -0.1603 -1.1073 -0.1623
  721SOL    HW1 2162   2.783   0.653   0.856  0.8624 -1.4985  2.9993
  721SOL    HW2 2163   2.803   0.671   1.018  0.9202  2.4364  0.3228
  722SOL     OW 2164   1.402   1.816   2.581  0.1779  0.5576  0.0635
  722SOL    HW1 2165   1.319   1.854   2.536 -0.7409  2.2135 -3.0508
  722SOL    HW2 2166   1.394   1.715   2.608 -1.2121 -2.6567  1.3489
  723SOL     OW 2167   0.673   0.617   0.383  0.1718  0.1716 -0.3140
  723SOL    HW1 2168   0.754   0.615   0.442 -1.7696  0.6212  1.3411
  723SOL    HW2 2169   0.596   0.667   0.433 -0.0960 -0.3160  1.5613
  724SOL     OW 2170   1.045   1.836   1.747  0.3319 -0.1907 -0.0379
  724SOL    HW1 2171   1.103   1.849   1.666  1.8449 -1.3893  2.2105
  724SOL    HW2 2172   0.960   1.891   1.732 -0.6283  2.1358 -0.4231
  725SOL     OW 2173   0.075   1.078   1.384  0.0218 -0.6524  0.3506
  725SOL    HW1 2174   0.045   1.121   1.293 -1.4523  0.7220 -5.6076
  725SOL    HW2 2175   0.156   1.126   1.415 -1.8915 -0.9514  0.7193
  726SOL     OW 2176   1.659   0.660   0.606  0.0483  0.1462 -0.0400
  726SOL    HW1 2177   1.626   0.586   0.667 -0.1188  0.3815  0.1341
  726SOL    HW2 2178   1.689   0.623   0.515 -1.0781 -1.4087  0.5385
  727SOL     OW 2179   1.526   1.000   2.318  0.4221  0.3251 -0.1471
  727SOL    HW1 2180   1.494   1.075   2.255  0.0525 -1.1688 -1.6712
  727SOL    HW2 2181   1.455   0.981   2.388  1.0955  0.9997 -1.0568
  728SOL     OW 2182   1.666   2.589   1.259 -0.5328 -0.4615 -0.1429
  728SOL    HW1 2183   1.684   2.690   1.275 -3.9228  0.6464  1.6362
  728SOL    HW2 2184   1.612   2.579   1.175  1.7292  2.2434  1.2305
  729SOL     OW 2185   1.264   0.540   1.427  0.0938  0.1385 -0.4361
  729SOL    HW1 2186   1.314   0.451   1.408  1.8822  1.8069  0.0938
  729SOL    HW2 2187   1.218   0.531   1.523  2.9380  2.1252  0.3999
  730SOL     OW 2188   0.825   1.999   1.745  0.0125 -0.2029 -0.2177
  730SOL    HW1 2189   0.838   2.061   1.827  1.4701  0.6731  1.8050
  730SOL    HW2 2190   0.761   2.034   1.672 -3.1581  0.6504  1.2427
  731SOL     OW 2191   0.482   0.265   0.223 -0.3877 -0.2812 -0.4550
  731SOL    HW1 2192   0.389   0.256   0.259 -0.8606  0.4635 -2.2704
  731SOL    HW2 2193   0.489   0.226   0.130 -2.7995  0.0554  0.6517
  732SOL     OW 2194   0.769   0.653   3.007  0.6887 -0.1015  0.1527
  732SOL    HW1 2195   0.822   0.606   3.078 -1.1003  1.9055 -1.4667
  732SOL    HW2 2196   0.669   0.614   3.001 -4.3254 -0.1983 -3.7520
  733SOL     OW 2197   1.429   1.582   1.730  0.1264  0.4219  0.1248
  733SOL    HW1 2198   1.503   1.518   1.702  2.3605 -1.1770 -2.4549
  733SOL    HW2 2199   1.335   1.531   1.735 -0.1392  1.0250 -0.0957
  734SOL     OW 2200   3.083   2.780   2.494  0.5310 -0.3774  0.1061
  734SOL    HW1 2201   3.043   2.869   2.534 -0.4044  4.1261 -0.1423
  734SOL    HW2 2202   0.001   2.796   2.394  1.0908  0.0325 -2.9940
  735SOL     OW 2203   0.969   2.639   0.984 -0.2404 -0.1040 -0.2232
  735SOL    HW1 2204   1.037   2.694   0.934  0.8151  1.7613  2.3693
  735SOL    HW2 2205   0.984   2.538   0.973 -1.3364 -2.7963  0.4947
  736SOL     OW 2206   1.401   0.895   2.526 -0.1867 -0.0428 -0.2582
  736SOL    HW1 2207   1.387   0.791   2.518 -0.9293 -1.4650  1.4858
  736SOL    HW2 2208   1.323   0.948   2.571 -1.2332 -2.7107 -0.0552
  737SOL     OW 2209   0.133   0.730   0.367 -0.8519  0.0721 -0.1489
  737SOL    HW1 2210   0.174   0.731   0.462  0.9225  0.9483  1.8668
  737SOL    HW2 2211   0.066   0.805   0.349  1.0732  2.7447  1.2821
  738SOL     OW 2212   0.314   2.745   1.398  0.3270  0.3968  0.4669
  738SOL    HW1 2213   0.223   2.724   1.437 -0.4621 -0.5387 -2.5979
  738SOL    HW2 2214   0.308   2.730   1.293  1.1799 -1.8869  1.3280
  739SOL     OW 2215   1.723   2.908   0.759  0.4534 -0.2225  0.5650
  739SOL    HW1 2216   1.645   2.905   0.828 -1.7690 -0.4431  1.3435
  739SOL    HW2 2217   1.693   2.962   0.677  0.7719  1.2580  2.1194
  740SOL     OW 2218   1.452   2.881   1.156 -0.5853  0.5634 -0.0719
  740SOL    HW1 2219   1.532   2.893   1.222 -2.8123 -0.9779 -3.0018
  740SOL    HW2 2220   1.363   2.898   1.209 -0.5597 -0.7330  2.4134
  741SOL     OW 2221   1.941   0.528   0.573 -0.2769 -0.3596 -0.1869
  741SOL    HW1 2222   1.861   0.574   0.611  0.7539 -0.2527  0.5002
  741SOL    HW2 2223   2.017   0.546   0.637 -1.3395  0.7232 -2.3096
  742SOL     OW 2224   1.270   2.143   1.773  0.3835 -0.3356 -0.2674
  742SOL    HW1 2225   1.247   2.228   1.725  1.3713 -1.3833 -1.4566
  742SOL    HW2 2226   1.343   2.096   1.717 -0.6050 -0.3747 -0.3740
  743SOL     OW 2227   2.130   0.758   2.284  0.6605  0.3741  0.1451
  743SOL    HW1 2228   2.067   0.835   2.317  1.0487  2.2933  0.4636
  743SOL    HW2 2229   2.212   0.799   2.252  1.9756 -2.4164  1.1480
  744SOL     OW 2230   2.335   0.412   0.763  0.2027 -0.0834 -0.3177
  744SOL    HW1 2231   2.342   0.440   0.665  1.3840 -0.2806 -0.5078
  744SOL    HW2 2232   2.412   0.453   0.818  2.1633  2.7332 -1.2859
  745SOL     OW 2233   2.151   1.758   1.913  0.0900  0.1690 -0.5057
  745SOL    HW1 2234   2.150   1.746   1.812 -2.2317  2.1804  0.8444
  745SOL    HW2 2235   2.126   1.668   1.956  1.0635 -1.8752  0.8517
  746SOL     OW 2236   1.203   1.688   0.851  0.3782  0.1531  0.1440
  746SOL    HW1 2237   1.118   1.743   0.838 -0.1254  3.4396 -0.2101
  746SOL    HW2 2238   1.274   1.739   0.908  2.5579 -1.1064  0.8788
  747SOL     OW 2239   2.033   1.115   1.024 -0.3952 -0.2269 -0.3326
  747SOL    HW1 2240   1.977   1.125   1.111 -0.6646 -0.7785  0.7247
  747SOL    HW2 2241   2.008   1.026   0.978 -0.0977  1.5619 -2.8872
  748SOL     OW 2242   0.203   3.013   0.260  0.2153 -0.1640 -0.3218
  748SOL    HW1 2243   0.193   3.076   0.338 -0.8702  0.1928 -2.5043
  748SOL    HW2 2244   0.202   2.920   0.299 -0.5521 -2.2918  1.6234
  749SOL     OW 2245   0.078   0.222   2.329 -0.4889  0.2177  0.3834
  749SOL    HW1 2246   0.059   0.282   2.248  0.0162  1.4980 -3.1632
  749SOL    HW2 2247   3.091   0.184   2.349  3.1526  3.6230 -2.5027
  750SOL     OW 2248   1.600   2.915   1.562  0.7760 -0.0985 -0.0674
  750SOL    HW1 2249   1.653   2.950   1.641  0.0247 -0.6325 -0.0680
  750SOL    HW2 2250   1.589   2.814   1.572  2.1589 -1.9100 -0.0996
  751SOL     OW 2251   2.918   0.561   0.738  0.4929 -0.1923 -0.1162
  751SOL    HW1 2252   2.937   0.593   0.646  2.1684 -0.8499 -1.2778
  751SOL    HW2 2253   2.992   0.507   0.782  1.8057 -1.9664 -2.5001
  752SOL     OW 2254   0.413   2.967   0.957 -0.6228 -0.1731 -0.0843
  752SOL    HW1 2255   0.414   3.054   0.911  0.4531 -1.1512  3.3871
  752SOL    HW2 2256   0.373   2.894   0.902  1.4860 -0.0489  0.5779
  753SOL     OW 2257   0.889   0.274   1.403  0.5088 -0.9698 -0.2725
  753SOL    HW1 2258   0.830   0.224   1.338  0.1339 -2.7247  1.3448
  753SOL    HW2 2259   0.984   0.245   1.402 -3.2666  1.8836  1.1500
  754SOL     OW 2260   0.884   2.725   2.241 -0.0877  0.5836  0.0056
  754SOL    HW1 2261   0.800   2.736   2.302 -2.3951 -0.7671 -0.2705
  754SOL    HW2 2262   0.928   2.812   2.210 -2.8615  1.3267 -0.8781
  755SOL     OW 2263   2.227   1.657   0.529 -0.2071  0.5951  0.0985
  755SOL    HW1 2264   2.321   1.614   0.525  1.0182  1.7790 -0.5513
  755SOL    HW2 2265   2.191   1.648   0.436  1.5590 -1.3521  0.3309
  756SOL     OW 2266   2.035   2.118   2.758  0.1417  0.1918  0.0543
  756SOL    HW1 2267   2.080   2.154   2.842 -0.0149 -0.6522  1.7078
  756SOL    HW2 2268   2.080   2.154   2.672  0.0134 -1.7782  0.2018
  757SOL     OW 2269   1.722   0.110   1.107  0.3798  0.0217 -0.7436
  757SOL    HW1 2270   1.685   0.200   1.128  3.5604 -1.8639  0.7855
  757SOL    HW2 2271   1.757   0.108   1.013 -0.5748  0.4479  1.1737
  758SOL     OW 2272   1.440   2.457   0.680 -0.3603 -0.0504  0.1252
  758SOL    HW1 2273   1.506   2.464   0.759 -3.0828 -0.2882  2.5865
  758SOL    HW2 2274   1.492   2.479   0.596  2.3342  1.0580 -0.1387
  759SOL     OW 2275   2.515   0.449   1.151 -0.1543 -0.3737  0.4809
  759SOL    HW1 2276   2.512   0.510   1.069  1.9762  4.4636 -0.7069
  759SOL    HW2 2277   2.419   0.415   1.171 -0.7632 -1.4491 -1.7979
  760SOL     OW 2278   2.413   1.068   1.278  0.5364  0.6775  0.3537
  760SOL    HW1 2279   2.328   1.104   1.312  4.0107  1.0428 -1.5462
  760SOL    HW2 2280   2.441   1.123   1.195 -0.4955 -2.0256  0.4460
  761SOL     OW 2281   0.597   0.691   0.692 -0.3147  0.3938  0.1746
  761SOL    HW1 2282   0.553   0.745   0.620 -1.1948 -0.3340  2.5812
  761SOL    HW2 2283   0.523   0.672   0.757 -0.2441  1.8330 -0.8551
  762SOL     OW 2284   1.659   1.777   1.212  0.2471  0.2001 -0.6188
  762SOL    HW1 2285   1.735   1.712   1.215 -0.7090  1.0289  1.3779
  762SOL    HW2 2286   1.672   1.850   1.281 -0.1217 -0.5420  0.0706
  763SOL     OW 2287   0.991   1.371   1.779 -0.5713 -0.4149 -0.6681
  763SOL    HW1 2288   0.937   1.411   1.702 -0.9513 -0.9710 -1.5420
  763SOL    HW2 2289   0.927   1.348   1.853 -1.1204  0.1498 -0.7794
  764SOL     OW 2290   0.000   1.903   2.186 -0.4121 -0.4761 -0.0346
  764SOL    HW1 2291   3.015   1.947   2.143 -0.8720  0.3313  0.8552
  764SOL    HW2 2292   0.015   1.816   2.135  0.5417 -1.3264 -0.2051
  765SOL     OW 2293   1.616   2.290   1.257 -0.2399 -0.0130 -0.3731
  765SOL    HW1 2294   1.533   2.290   1.320 -1.0513  0.5925 -2.6748
  765SOL    HW2 2295   1.665   2.382   1.259 -1.7412 -0.1332 -0.5102
  766SOL     OW 2296   0.285   2.448   2.363  0.2596 -0.2372  0.1803
  766SOL    HW1 2297   0.255   2.519   2.430  0.1599 -3.8637  2.3763
  766SOL    HW2 2298   0.207   2.426   2.300  0.8082  2.3577  0.6869
  767SOL     OW 2299   1.314   0.585   2.448  0.3281  0.0553 -0.0173
  767SOL    HW1 2300   1.320   0.514   2.521 -1.3535  0.3167  1.2477
  767SOL    HW2 2301   1.252   0.562   2.370  2.2841  1.4774 -1.2827
  768SOL     OW 2302   1.345   2.402   3.064 -0.1049  0.0069  0.2767
  768SOL    HW1 2303   1.420   2.461   3.024 -1.5360 -1.4185 -0.0659
  768SOL    HW2 2304   1.345   2.310   3.014 -0.9509  3.3133  1.3213
  769SOL     OW 2305   0.298   2.715   1.133  0.2077  0.7468  0.1908
  769SOL    HW1 2306   0.316   2.807   1.090 -1.1151  1.5533 -1.8757
  769SOL    HW2 2307   0.291   2.638   1.063  1.5587  0.2837 -2.5450
  770SOL     OW 2308   1.554   0.632   2.813 -0.4641 -0.2622  0.4406
  770SOL    HW1 2309   1.586   0.694   2.737  1.3643 -0.1013 -1.2303
  770SOL    HW2 2310   1.609   0.653   2.900  0.8007  1.9860  0.0533
  771SOL     OW 2311   0.348   3.015   2.569  0.2002 -0.5340  0.1902
  771SOL    HW1 2312   0.379   0.011   2.560  0.9903 -0.0434  0.0434
  771SOL    HW2 2313   0.276   3.002   2.496  1.2526  1.2816  0.8771
  772SOL     OW 2314   2.072   2.886   2.003  0.8202 -0.1210  1.0820
  772SOL    HW1 2315   2.037   2.982   2.010 -2.2585  1.4852 -1.1549
  772SOL    HW2 2316   2.174   2.894   1.982 -0.3548  1.5157 -0.2619
  773SOL     OW 2317   0.972   2.438   1.920 -0.2913  0.2524  0.0939
  773SOL    HW1 2318   1.034   2.408   1.996  3.3350  0.0669  1.5154
  773SOL    HW2 2319   0.897   2.496   1.960 -0.7404  1.8780  0.5985
  774SOL     OW 2320   1.061   0.226   1.918  0.0629 -0.5275  0.2805
  774SOL    HW1 2321   1.147   0.197   1.963 -2.3646  0.7703 -0.6867
  774SOL    HW2 2322   1.031   0.319   1.958 -1.7768  0.8470  0.8022
  775SOL     OW 2323   2.197   2.436   0.153 -0.5677  0.2954  0.1118
  775SOL    HW1 2324   2.168   2.395   0.241  1.2265  0.5040  0.6317
  775SOL    HW2 2325   2.118   2.453   0.088 -0.5825 -0.4029 -1.2367
  776SOL     OW 2326   2.284   0.551   2.417  0.3048 -0.6717 -0.8364
  776SOL    HW1 2327   2.279   0.557   2.519  0.0927  1.6789  1.2414
  776SOL    HW2 2328   2.223   0.629   2.382 -2.2225  2.1416 -1.1131
  777SOL     OW 2329   2.271   1.249   2.631 -0.1300  0.2159  0.4824
  777SOL    HW1 2330   2.239   1.262   2.728  0.2314 -0.6681 -0.0393
  777SOL    HW2 2331   2.370   1.275   2.621  0.8172  0.0530  0.5125
  778SOL     OW 2332   2.012   1.008   2.290  0.8004  0.0023 -0.5180
  778SOL    HW1 2333   1.931   1.058   2.323  1.9299 -0.5044  0.4293
  778SOL    HW2 2334   2.008   0.984   2.192  0.0380 -0.1059  1.5471
  779SOL     OW 2335   0.069   0.225   0.027 -0.1403 -0.9224  0.1341
  779SOL    HW1 2336   0.116   0.188   3.044  0.5118  0.7277 -4.1901
  779SOL    HW2 2337   0.075   0.330   0.028  0.0906 -0.4035  0.9949
  780SOL     OW 2338   2.486   0.553   2.851  0.6512 -0.5449  0.2308
  780SOL    HW1 2339   2.547   0.583   2.777  1.9713  0.1700  1.6065
  780SOL    HW2 2340   2.529   0.576   2.939 -2.2504  1.5425  0.9214
  781SOL     OW 2341   0.362   2.997   1.399  0.0815 -0.0495  0.2626
  781SOL    HW1 2342   0.333   3.056   1.320 -0.7834 -0.7816 -0.4094
  781SOL    HW2 2343   0.342   2.902   1.388  1.9778  2.9982  3.1803
  782SOL     OW 2344   1.978   2.538   0.641  0.1045 -0.0316  0.1857
  782SOL    HW1 2345   1.924   2.602   0.697 -0.0700  1.6358 -1.9077
  782SOL    HW2 2346   1.924   2.513   0.557  1.1222  0.4171 -1.3417
  783SOL     OW 2347   0.791   1.395   1.556  0.3359 -0.1148 -0.1156
  783SOL    HW1 2348   0.804   1.319   1.489  2.0140  1.6405 -4.1002
  783SOL    HW2 2349   0.735   1.369   1.640 -0.1881  1.6239 -0.2634
  784SOL     OW 2350   1.077   0.337   2.465  0.1079 -0.0125  0.3726
  784SOL    HW1 2351   1.177   0.323   2.483  0.4269  1.2540 -0.4013
  784SOL    HW2 2352   1.033   0.248   2.442 -0.1487 -1.8941  0.5322
  785SOL     OW 2353   2.613   0.171   1.072 -0.0691  0.1028 -0.3596
  785SOL    HW1 2354   2.589   0.266   1.094 -1.5336  0.3870  1.7842
  785SOL    HW2 2355   2.541   0.110   1.110 -1.1178  0.2606  0.8740
  786SOL     OW 2356   1.355   2.729   1.450  0.1464  0.0254  0.3935
  786SOL    HW1 2357   1.417   2.725   1.533  0.4671  1.7114  2.8011
  786SOL    HW2 2358   1.315   2.639   1.437 -0.2397  2.8971 -0.1447
  787SOL     OW 2359   1.683   0.164   1.543 -0.5333  0.7251 -0.2685
  787SOL    HW1 2360   1.618   0.131   1.471 -0.9424  1.4435  0.8805
  787SOL    HW2 2361   1.770   0.104   1.546  1.7758 -0.1528  0.4715
  788SOL     OW 2362   0.007   0.975   0.320 -0.0429 -0.4192 -0.2063
  788SOL    HW1 2363   0.087   1.035   0.351 -0.8542  1.8600 -0.4366
  788SOL    HW2 2364   3.018   1.020   0.321  2.3575 -1.6705  1.5480
  789SOL     OW 2365   0.643   1.745   1.729 -0.6517 -0.1992  0.2642
  789SOL    HW1 2366   0.681   1.836   1.742 -0.3093 -4.9497 -0.0011
  789SOL    HW2 2367   0.700   1.684   1.785 -0.5047  0.9593 -0.5337
  790SOL     OW 2368   0.523   0.569   2.533 -0.4109 -0.2225  0.0388
  790SOL    HW1 2369   0.567   0.492   2.587  0.0234 -1.9562  2.7591
  790SOL    HW2 2370   0.427   0.545   2.518  1.4719 -0.2113  0.3701
  791SOL     OW 2371   2.169   0.867   0.556  0.0806  0.3482  0.0947
  791SOL    HW1 2372   2.144   0.841   0.458 -2.3721  0.6118  3.1754
  791SOL    HW2 2373   2.147   0.787   0.619 -0.2231  0.2713 -0.2274
  792SOL     OW 2374   1.191   2.878   1.617 -0.4202  0.1866  0.2954
  792SOL    HW1 2375   1.170   2.826   1.702 -1.8759  1.6676 -1.9746
  792SOL    HW2 2376   1.223   2.814   1.549 -0.8326  1.1522 -0.7246
  793SOL     OW 2377   0.396   0.105   0.810  0.1796  0.7156 -0.2337
  793SOL    HW1 2378   0.405   0.195   0.856  1.6618 -2.2167 -2.5114
  793SOL    HW2 2379   0.410   0.119   0.708  0.5049  2.3519  0.1544
  794SOL     OW 2380   0.093   1.004   2.032  0.1189  0.2070  0.0995
  794SOL    HW1 2381   0.089   1.084   2.101  0.6937  2.5811  1.9810
  794SOL    HW2 2382   3.099   0.980   2.000 -0.1684  1.1966  0.6335
  795SOL     OW 2383   0.690   2.435   2.553 -0.2141  0.0841 -0.4179
  795SOL    HW1 2384   0.641   2.361   2.609 -1.1602  0.7798  1.4101
  795SOL    HW2 2385   0.703   2.408   2.453  2.0719 -0.6978 -1.5323
  796SOL     OW 2386   2.214   0.292   2.306 -0.0461 -0.6602  0.2213
  796SOL    HW1 2387   2.226   0.389   2.334 -0.0921  0.3008  0.9866
  796SOL    HW2 2388   2.271   0.228   2.366  0.2454 -0.8123 -1.2889
  797SOL     OW 2389   2.278   2.513   2.573  0.4518  0.3186 -0.4119
  797SOL    HW1 2390   2.326   2.435   2.614  0.0103  2.3130  2.1006
  797SOL    HW2 2391   2.260   2.591   2.635 -0.1982  1.0589 -2.1740
  798SOL     OW 2392   3.053   0.335   2.112  0.4580  0.0947  0.1725
  798SOL    HW1 2393   3.010   0.421   2.066 -2.5749  0.5643 -4.2126
  798SOL    HW2 2394   3.001   0.252   2.076 -0.9634 -0.6964 -2.2376
  799SOL     OW 2395   0.786   2.365   2.277  0.0635 -0.5238 -0.5182
  799SOL    HW1 2396   0.791   2.271   2.242 -3.5794  1.4080 -0.1758
  799SOL    HW2 2397   0.740   2.420   2.206  2.7948 -0.4680 -0.8568
  800SOL     OW 2398   0.073   2.055   0.212  0.0748 -0.1659 -0.2702
  800SOL    HW1 2399   0.170   2.085   0.213 -2.3678  2.4713  1.1947
  800SOL    HW2 2400   0.069   1.969   0.268  0.4544  1.6087 -1.1173
  801SOL     OW 2401   1.497   1.360   1.069 -0.4156 -0.0136  0.3366
  801SOL    HW1 2402   1.419   1.321   1.013  0.6336  0.2131  1.3138
  801SOL    HW2 2403   1.551   1.434   1.021  1.7699 -1.5414  1.8791
  802SOL     OW 2404   2.979   0.669   0.492 -0.0486 -0.2470  0.7552
  802SOL    HW1 2405   3.067   0.652   0.439 -0.5528  0.5653 -0.9046
  802SOL    HW2 2406   2.904   0.687   0.427 -0.7669 -2.9572 -1.3749
  803SOL     OW 2407   1.380   1.244   1.931  0.4361  0.5153  0.3064
  803SOL    HW1 2408   1.371   1.338   1.891 -0.0020 -0.9265 -2.0064
  803SOL    HW2 2409   1.297   1.187   1.911  0.9440 -1.0876 -0.4584
  804SOL     OW 2410   1.816   1.548   1.075 -0.0604  0.8841 -0.2527
  804SOL    HW1 2411   1.737   1.604   1.039 -1.3972  0.9169  0.8067
  804SOL    HW2 2412   1.809   1.454   1.038  0.1853  1.0351 -0.9956
  805SOL     OW 2413   2.913   1.898   2.736 -0.3158 -0.2094  0.4353
  805SOL    HW1 2414   2.960   1.899   2.645  0.8908 -0.3867 -1.0547
  805SOL    HW2 2415   2.820   1.936   2.720  1.7334 -3.0114 -1.2211
  806SOL     OW 2416   0.464   2.325   0.308  0.1799  0.0136 -0.0771
  806SOL    HW1 2417   0.541   2.298   0.247 -3.1990  0.1711  0.6202
  806SOL    HW2 2418   0.495   2.369   0.394 -0.5880  1.6132 -2.4173
  807SOL     OW 2419   2.253   1.671   2.792 -0.0952  0.0180 -0.3163
  807SOL    HW1 2420   2.334   1.724   2.769 -0.4849 -1.6978 -0.7424
  807SOL    HW2 2421   2.180   1.734   2.818  0.8175 -0.0355 -1.7710
  808SOL     OW 2422   1.323   1.922   1.226 -0.1157  0.0153 -0.1139
  808SOL    HW1 2423   1.224   1.897   1.234 -0.4207 -2.0361  1.5836
  808SOL    HW2 2424   1.345   1.996   1.295 -1.8753  0.1509  3.0778
  809SOL     OW 2425   0.254   0.662   0.147 -0.0252 -0.3379 -0.7099
  809SOL    HW1 2426   0.211   0.697   0.238  0.3985  0.4818  1.2577
  809SOL    HW2 2427   0.332   0.598   0.165 -0.2698 -1.0015 -0.3191
  810SOL     OW 2428   1.130   1.385   0.051  0.1213  0.4141  0.3787
  810SOL    HW1 2429   1.191   1.337   0.111 -0.7082  1.6866 -0.3790
  810SOL    HW2 2430   1.058   1.434   0.103  0.9503 -0.0104 -0.0964
  811SOL     OW 2431   1.814   2.317   1.032  0.1235 -0.0097 -0.0645
  811SOL    HW1 2432   1.777   2.251   1.100 -1.5959 -0.5382 -0.8084
  811SOL    HW2 2433   1.872   2.387   1.072  0.1256 -1.0203  0.7399
  812SOL     OW 2434   1.272   3.034   1.282 -0.4102 -0.1762  0.4841
  812SOL    HW1 2435   1.255   3.026   1.385 -1.5576 -0.8101  3.4987
  812SOL    HW2 2436   1.183   3.014   1.238  0.3052  2.6802  1.4298
  813SOL     OW 2437   0.703   0.016   1.893  0.2269  0.0778  0.3484
  813SOL    HW1 2438   0.730   3.090   1.800 -1.6207 -1.5290  0.1607
  813SOL    HW2 2439   0.621   3.067   1.926 -0.7097 -0.0446  0.4802
  814SOL     OW 2440   1.121   2.491   2.175 -0.0308  0.4188  0.5082
  814SOL    HW1 2441   1.074   2.458   2.258  0.6571  0.2703 -1.1865
  814SOL    HW2 2442   1.101   2.589   2.163  2.2936 -0.0856  2.3947
  815SOL     OW 2443   0.549   2.925   2.971  0.1548  0.6880 -0.2134
  815SOL    HW1 2444   0.560   2.825   2.953  1.8873 -0.5756 -2.1635
  815SOL    HW2 2445   0.465   2.951   3.030 -1.5605 -1.1245  1.4721
  816SOL     OW 2446   2.216   0.619   0.103  0.4707  0.3705 -0.3904
  816SOL    HW1 2447   2.226   0.519   0.077  1.8184  0.2590 -1.4786
  816SOL    HW2 2448   2.295   0.653   0.158  0.3893  0.9960  0.9785
  817SOL     OW 2449   2.557   2.617   2.214  0.2509  0.4240 -0.2985
  817SOL    HW1 2450   2.584   2.710   2.182  0.4025 -0.4154 -0.1433
  817SOL    HW2 2451   2.472   2.623   2.265  0.7638  0.6931  0.1629
  818SOL     OW 2452   0.911   0.961   0.344  0.9429 -0.1337 -0.4797
  818SOL    HW1 2453   0.917   0.877   0.280 -1.0641 -1.0963 -0.2630
  818SOL    HW2 2454   0.892   1.042   0.288  1.0369 -1.6587  0.2465
  819SOL     OW 2455   1.879   1.184   2.783  0.9612  0.8228 -0.5275
  819SOL    HW1 2456   1.883   1.236   2.698 -1.5781 -0.7000  1.4890
  819SOL    HW2 2457   1.930   1.235   2.854 -0.7400  1.6781  0.8378
  820SOL     OW 2458   0.115   1.373   2.819 -0.4264 -0.0176 -0.0149
  820SOL    HW1 2459   0.037   1.430   2.783 -0.6790 -3.3139 -3.0005
  820SOL    HW2 2460   0.191   1.428   2.855 -1.1422  1.1457  1.3838
  821SOL     OW 2461   0.449   0.145   0.552  0.3083 -0.2511  0.3115
  821SOL    HW1 2462   0.497   0.235   0.540 -0.1771 -0.3057 -2.3467
  821SOL    HW2 2463   0.500   0.069   0.505 -0.9044 -0.7561 -1.3107
  822SOL     OW 2464   2.591   2.710   2.943  0.1973 -0.2858 -0.2546
  822SOL    HW1 2465   2.545   2.626   2.903 -2.9183 -2.8634  2.9869
  822SOL    HW2 2466   2.693   2.703   2.938  1.5183  2.1876  2.2739
  823SOL     OW 2467   1.553   0.133   2.693 -0.0544  0.7148 -0.1324
  823SOL    HW1 2468   1.575   0.068   2.771 -0.3921 -0.5381  0.2046
  823SOL    HW2 2469   1.549   0.232   2.727  2.6811  0.3149  0.9484
  824SOL     OW 2470   2.868   2.533   1.982 -0.0839 -0.3494  0.5097
  824SOL    HW1 2471   2.835   2.615   1.935 -3.0994 -2.4350  0.0782
  824SOL    HW2 2472   2.851   2.542   2.081 -0.5789  1.1671  1.4885
  825SOL     OW 2473   2.995   2.005   2.485 -0.0392 -0.0932  0.0611
  825SOL    HW1 2474   3.091   2.022   2.457  0.8177 -0.5264 -1.8268
  825SOL    HW2 2475   2.942   2.011   2.400  0.9358  2.6324 -0.7349
  826SOL     OW 2476   1.961   0.658   0.044 -0.0735 -0.1777  0.2799
  826SOL    HW1 2477   1.950   0.761   0.042  0.4896  1.5251 -1.0744
  826SOL    HW2 2478   2.062   0.639   0.053  1.9213  0.0509  0.5694
  827SOL     OW 2479   2.810   1.819   1.844 -0.1859  0.2135 -0.0897
  827SOL    HW1 2480   2.796   1.829   1.744 -1.6299 -0.3587  3.7443
  827SOL    HW2 2481   2.717   1.801   1.886 -1.1818 -0.1250 -1.0488
  828SOL     OW 2482   0.030   0.074   1.298  0.5496 -0.1506  0.3457
  828SOL    HW1 2483   0.117   0.036   1.262 -1.6472 -2.5500  0.5558
  828SOL    HW2 2484   3.083   3.100   1.347  0.3553  1.5490  1.3756
  829SOL     OW 2485   0.867   1.952   2.574 -0.9274  0.2449 -0.0438
  829SOL    HW1 2486   0.883   2.053   2.595 -2.1436 -1.2873 -0.7231
  829SOL    HW2 2487   0.784   1.929   2.523  1.1569  0.3714  2.9988
  830SOL     OW 2488   0.484   0.772   1.526 -0.0023 -0.0030  0.1786
  830SOL    HW1 2489   0.543   0.823   1.597 -0.5970 -0.1676  1.4185
  830SOL    HW2 2490   0.522   0.681   1.500  1.5595  0.9070 -0.4495
  831SOL     OW 2491   2.480   1.849   2.830  0.4107 -0.2563  0.7168
  831SOL    HW1 2492   2.535   1.772   2.798  0.2267 -0.7664 -0.3317
  831SOL    HW2 2493   2.505   1.883   2.920  0.7404  0.2185 -0.7477
  832SOL     OW 2494   2.035   2.521   3.056 -0.2870 -0.6817  0.0806
  832SOL    HW1 2495   1.954   2.531   2.997  1.0661 -0.1339  2.2080
  832SOL    HW2 2496   2.096   2.599   3.053  1.8389  2.3732  1.4975
  833SOL     OW 2497   0.714   0.282   1.889 -0.0630  0.0176  0.4871
  833SOL    HW1 2498   0.710   0.180   1.892  1.4164 -1.9265 -1.0574
  833SOL    HW2 2499   0.658   0.314   1.970  0.2317  1.0397  0.1476
  834SOL     OW 2500   3.061   0.228   1.515 -0.1207 -0.4463 -0.4733
  834SOL    HW1 2501   3.081   0.183   1.429 -2.2636  2.9269 -0.1855
  834SOL    HW2 2502   2.974   0.278   1.514  2.6908 -1.6232  0.4336
  835SOL     OW 2503   2.528   0.628   0.517 -0.0107  0.1512  0.0099
  835SOL    HW1 2504   2.436   0.592   0.524  1.7222  3.2228  0.0745
  835SOL    HW2 2505   2.593   0.573   0.571  1.8355  2.9225 -0.7711
  836SOL     OW 2506   1.270   1.985   0.229 -0.2911 -0.3002 -0.1694
  836SOL    HW1 2507   1.304   1.971   0.324 -0.6773  0.1234 -1.4748
  836SOL    HW2 2508   1.252   2.082   0.211  0.4630 -0.5452 -2.4302
  837SOL     OW 2509   1.861   1.763   0.573 -0.3524 -0.3533 -0.0377
  837SOL    HW1 2510   1.909   1.679   0.603 -0.1286  1.2615 -0.8783
  837SOL    HW2 2511   1.929   1.839   0.598  2.8953 -0.8423 -2.7847
  838SOL     OW 2512   1.488   0.716   2.252 -0.1679 -0.3512 -0.1966
  838SOL    HW1 2513   1.412   0.673   2.307 -0.4783 -0.5420  0.3443
  838SOL    HW2 2514   1.517   0.807   2.286  1.4875  0.6886  0.1575
  839SOL     OW 2515   0.544   1.365   2.350 -0.3199 -0.3989 -0.4038
  839SOL    HW1 2516   0.601   1.336   2.428  2.0470  0.6417 -0.1861
  839SOL    HW2 2517   0.594   1.371   2.258  0.1434 -0.2875 -1.0188
  840SOL     OW 2518   0.939   1.432   0.306  0.1821  0.8821 -0.8844
  840SOL    HW1 2519   0.898   1.500   0.246  0.4115 -0.4111  1.1037
  840SOL    HW2 2520   0.913   1.340   0.271  1.0060 -0.6453 -1.6477
  841SOL     OW 2521   1.689   2.155   0.781 -0.2671  0.4658 -0.3191
  841SOL    HW1 2522   1.655   2.222   0.853  1.7280 -2.6996  1.3451
  841SOL    HW2 2523   1.713   2.069   0.836  3.7446 -0.5486  0.7643
  842SOL     OW 2524   0.543   0.530   3.013 -0.1978  0.5759  0.1751
  842SOL    HW1 2525   0.485   0.470   2.963  2.7243 -0.3704 -0.9496
  842SOL    HW2 2526   0.504   0.543   0.006 -0.7426 -1.2141  0.4787
  843SOL     OW 2527   0.732   0.299   0.757  0.8097  0.5427  0.5930
  843SOL    HW1 2528   0.810   0.345   0.787 -3.7976 -2.9458 -1.4695
  843SOL    HW2 2529   0.758   0.220   0.694  1.4920 -2.3881  0.8692
  844SOL     OW 2530   1.886   3.062   2.263 -0.3490 -0.4020 -0.4863
  844SOL    HW1 2531   1.939   2.996   2.321  0.0460 -3.3916 -2.5252
  844SOL    HW2 2532   1.932   3.077   2.173 -3.2424 -2.5581 -0.0850
  845SOL     OW 2533   0.081   2.418   1.725 -0.0717 -0.3362  0.3755
  845SOL    HW1 2534   3.091   2.395   1.774  1.2877 -1.6026  0.5721
  845SOL    HW2 2535   0.077   2.426   1.624 -1.0487 -2.3282  1.3994
  846SOL     OW 2536   1.840   1.314   2.550  0.1648 -0.1114  0.0886
  846SOL    HW1 2537   1.894   1.399   2.528 -1.5633 -1.2723 -1.6109
  846SOL    HW2 2538   1.822   1.261   2.465  0.0850 -0.3783 -3.7563
  847SOL     OW 2539   0.524   0.856   2.169 -0.6910  0.1211  0.3835
  847SOL    HW1 2540   0.575   0.855   2.078  1.3287  0.0996 -3.6116
  847SOL    HW2 2541   0.528   0.764   2.213 -0.5214 -0.4053 -3.6404
  848SOL     OW 2542   2.520   2.929   2.802  0.0406 -0.5968 -0.0703
  848SOL    HW1 2543   2.548   2.844   2.849  2.9026  0.6812 -1.3402
  848SOL    HW2 2544   2.425   2.942   2.825  1.6084  2.2712 -0.2139
  849SOL     OW 2545   0.466   2.693   0.349  0.0339 -0.1727 -0.0399
  849SOL    HW1 2546   0.376   2.724   0.317 -0.4332  2.1748  0.7388
  849SOL    HW2 2547   0.545   2.741   0.303 -1.0264  0.6260  1.2012
  850SOL     OW 2548   0.970   2.297   0.696  0.4447 -0.6012  0.1696
  850SOL    HW1 2549   0.998   2.327   0.790  0.9470 -0.4115  0.2889
  850SOL    HW2 2550   1.055   2.266   0.647 -0.1063  2.3936  1.0225
  851SOL     OW 2551   1.899   0.380   2.641  0.5026  0.3797 -0.0658
  851SOL    HW1 2552   1.935   0.315   2.573  0.9309  0.1906  0.7644
  851SOL    HW2 2553   1.874   0.464   2.587  0.5535 -2.1262 -3.3281
  852SOL     OW 2554   1.386   3.083   2.534  0.1354  0.1903  0.7342
  852SOL    HW1 2555   1.423   2.987   2.545  4.1213  0.9346  0.2677
  852SOL    HW2 2556   1.445   0.046   2.591 -1.4589  0.6770  1.3599
  853SOL     OW 2557   2.909   2.589   0.492  0.4965  0.3471  0.4800
  853SOL    HW1 2558   2.979   2.513   0.506 -0.2616  0.1036 -2.3143
  853SOL    HW2 2559   2.954   2.678   0.476 -0.8419 -1.8897 -1.0452
  854SOL     OW 2560   1.933   0.568   2.355 -0.1482 -0.5149 -0.2146
  854SOL    HW1 2561   1.917   0.635   2.432 -0.6765  1.3371 -0.6359
  854SOL    HW2 2562   2.006   0.609   2.298  0.6850 -0.4156 -2.6928
  855SOL     OW 2563   0.393   2.491   0.544  0.0867  0.1915 -0.2861
  855SOL    HW1 2564   0.317   2.524   0.606 -1.2981  2.5126  1.7758
  855SOL    HW2 2565   0.409   2.557   0.467 -2.8405  0.1639  1.3149
  856SOL     OW 2566   0.280   2.813   2.748  0.2956  0.1274  0.2479
  856SOL    HW1 2567   0.288   2.891   2.683 -1.0135 -1.4174 -2.7914
  856SOL    HW2 2568   0.251   2.837   2.840  0.4880  1.5824 -0.4725
  857SOL     OW 2569   1.037   3.063   1.527 -0.3860 -0.3868  0.3443
  857SOL    HW1 2570   1.088   2.987   1.564 -0.5014  0.7177  1.3515
  857SOL    HW2 2571   0.943   3.066   1.564 -1.5651  1.4324  0.1148
  858SOL     OW 2572   2.569   2.175   1.759  0.2401 -0.1038 -0.6816
  858SOL    HW1 2573   2.607   2.148   1.667  1.2788 -3.6057  2.0255
  858SOL    HW2 2574   2.472   2.142   1.759 -1.8483  0.7263 -1.3575
  859SOL     OW 2575   1.751   2.363   1.814 -0.3017 -0.0712 -0.0432
  859SOL    HW1 2576   1.680   2.318   1.872 -2.4920 -0.1719 -0.7627
  859SOL    HW2 2577   1.838   2.311   1.818 -0.2894  0.2076  0.4101
  860SOL     OW 2578   1.687   0.593   0.344  0.0169  0.0036 -0.0274
  860SOL    HW1 2579   1.678   0.687   0.307  0.2916 -2.1421 -1.0414
  860SOL    HW2 2580   1.722   0.525   0.277 -0.3586  0.4016 -0.1778
  861SOL     OW 2581   2.699   0.427   0.626  0.1953 -0.4531  0.2850
  861SOL    HW1 2582   2.796   0.448   0.652 -3.4899  0.3861  0.6868
  861SOL    HW2 2583   2.669   0.350   0.683 -2.3244  2.7038  1.4724
  862SOL     OW 2584   1.184   2.982   2.387 -0.3352 -0.2671 -0.3632
  862SOL    HW1 2585   1.272   3.015   2.435  0.9144  1.3107  0.1036
  862SOL    HW2 2586   1.167   2.884   2.416  1.3341 -1.0721  0.5195
  863SOL     OW 2587   0.484   0.739   1.202 -0.5000  0.0501  0.3385
  863SOL    HW1 2588   0.467   0.667   1.269 -0.8264 -0.1997 -2.6141
  863SOL    HW2 2589   0.469   0.831   1.241 -2.7257 -0.6813  0.6550
  864SOL     OW 2590   2.839   0.155   2.029  0.2136  0.1181 -0.4840
  864SOL    HW1 2591   2.844   0.096   1.945 -0.6545 -1.1166 -0.3757
  864SOL    HW2 2592   2.801   0.105   2.110 -0.3148  2.0463 -1.0351
  865SOL     OW 2593   0.652   1.450   2.937 -0.0764 -0.2841  0.0758
  865SOL    HW1 2594   0.675   1.434   3.035 -0.8738  1.1181 -0.7595
  865SOL    HW2 2595   0.609   1.370   2.891  1.9130  4.1956  0.5917
  866SOL     OW 2596   3.080   3.096   0.142 -0.0402 -0.7435  0.1137
  866SOL    HW1 2597   0.000   0.086   0.101 -0.4541  0.8264  1.2291
  866SOL    HW2 2598   0.066   3.046   0.177 -3.1226 -0.1631  0.1028
  867SOL     OW 2599   2.862   2.850   2.736  0.0885 -0.2060  0.1146
  867SOL    HW1 2600   2.794   2.774   2.726  1.5201 -0.4509 -1.0692
  867SOL    HW2 2601   2.949   2.815   2.774  0.1924 -1.0498  0.3250
  868SOL     OW 2602   1.482   1.136   2.919 -0.0244  0.0858  0.0801
  868SOL    HW1 2603   1.572   1.090   2.916  0.7703  1.7237  2.5105
  868SOL    HW2 2604   1.403   1.073   2.929 -0.1607  0.8760 -1.2933
  869SOL     OW 2605   0.427   1.584   0.505  0.4993  0.9649  0.0486
  869SOL    HW1 2606   0.483   1.626   0.579  0.2665  4.1964  0.6419
  869SOL    HW2 2607   0.348   1.531   0.547 -1.7945 -1.7516  0.5570
  870SOL     OW 2608   2.223   1.809   0.751  0.3172 -0.2819  0.4889
  870SOL    HW1 2609   2.274   1.892   0.706 -2.0747  1.6355 -0.0957
  870SOL    HW2 2610   2.199   1.745   0.677  1.9619  0.0554 -0.7001
  871SOL     OW 2611   0.823   1.152   0.958  0.0871 -0.0446 -0.2121
  871SOL    HW1 2612   0.752   1.176   0.892  0.0248 -2.1453  0.4370
  871SOL    HW2 2613   0.772   1.126   1.044  0.1248  1.0086 -0.9706
  872SOL     OW 2614   1.360   1.596   2.030  0.6793  0.0499 -0.1312
  872SOL    HW1 2615   1.406   1.624   1.943  0.9588 -1.0204 -0.9128
  872SOL    HW2 2616   1.334   1.671   2.090 -1.9595 -0.4678 -0.5401
  873SOL     OW 2617   1.050   1.923   2.372  0.1872 -0.3322 -0.5447
  873SOL    HW1 2618   0.997   1.923   2.460  0.6363 -0.8819 -1.3405
  873SOL    HW2 2619   1.072   2.019   2.342 -0.2415  0.4287 -0.0944
  874SOL     OW 2620   0.823   2.222   1.048  0.5608  0.1060  0.0349
  874SOL    HW1 2621   0.760   2.252   1.120  1.4913 -0.3931  0.5708
  874SOL    HW2 2622   0.829   2.122   1.044  1.3929 -0.7771  0.7488
  875SOL     OW 2623   2.629   0.198   0.775 -0.6392 -0.6677 -0.0738
  875SOL    HW1 2624   2.555   0.147   0.735  1.1512  1.0325 -0.1074
  875SOL    HW2 2625   2.626   0.197   0.874  3.1042 -4.2737 -0.8312
  876SOL     OW 2626   0.908   0.522   0.149  0.2746 -0.1712 -0.8149
  876SOL    HW1 2627   0.872   0.522   0.246 -0.7721  3.7878  1.0725
  876SOL    HW2 2628   0.967   0.604   0.143  0.1150 -0.2885 -3.9482
  877SOL     OW 2629   2.734   0.573   1.281  0.5290  0.4129 -0.0642
  877SOL    HW1 2630   2.653   0.550   1.228  1.9960 -0.6131  2.9249
  877SOL    HW2 2631   2.814   0.584   1.221 -3.5297  1.1503  0.7320
  878SOL     OW 2632   2.276   2.303   0.755 -0.2134 -0.3410 -0.4938
  878SOL    HW1 2633   2.181   2.280   0.776  0.8291  0.1874 -0.9546
  878SOL    HW2 2634   2.338   2.294   0.835 -0.3405 -2.7551 -0.3621
  879SOL     OW 2635   2.537   1.691   1.541 -0.2402  0.1471 -0.4083
  879SOL    HW1 2636   2.495   1.764   1.483 -0.3431 -0.8638  0.4277
  879SOL    HW2 2637   2.492   1.606   1.524 -0.3697  1.5687  0.7276
  880SOL     OW 2638   1.448   2.609   1.097 -0.5079 -0.4788  0.3068
  880SOL    HW1 2639   1.450   2.706   1.123  0.0077 -0.1884  0.4221
  880SOL    HW2 2640   1.358   2.568   1.124 -1.4178  1.0532  0.7844
  881SOL     OW 2641   0.926   2.486   0.177  0.3213 -0.2081 -0.5641
  881SOL    HW1 2642   0.965   2.468   0.267 -0.1023  0.9504 -1.9029
  881SOL    HW2 2643   0.832   2.456   0.179  2.7777  0.8981  1.0575
  882SOL     OW 2644   1.943   1.149   1.520 -0.0014  0.6473  0.3173
  882SOL    HW1 2645   1.953   1.053   1.485 -1.5914 -3.2175 -0.6102
  882SOL    HW2 2646   1.851   1.170   1.556  0.9163 -0.2156 -2.1168
  883SOL     OW 2647   1.244   0.091   2.061 -0.3438 -0.4179 -0.0865
  883SOL    HW1 2648   1.294   0.165   2.112 -1.2464  0.9350 -0.6412
  883SOL    HW2 2649   1.307   0.036   2.008 -0.4100  0.4946 -0.4372
  884SOL     OW 2650   2.597   0.528   0.226  0.2008 -0.0691 -0.4001
  884SOL    HW1 2651   2.653   0.515   0.309 -2.1701  0.9507 -0.4845
  884SOL    HW2 2652   2.557   0.624   0.220 -2.5839  0.6269  0.3776
  885SOL     OW 2653   1.001   1.356   2.891  0.1235 -0.5648  0.5128
  885SOL    HW1 2654   1.055   1.360   2.978 -2.9497 -1.8073 -0.8081
  885SOL    HW2 2655   0.945   1.440   2.890  0.3507  1.0383 -1.5148
  886SOL     OW 2656   1.648   1.525   2.642  0.5023 -0.0242 -0.4277
  886SOL    HW1 2657   1.725   1.588   2.656 -0.8962 -1.7229 -0.9768
  886SOL    HW2 2658   1.689   1.432   2.620  1.2774 -1.6655 -0.0011
  887SOL     OW 2659   1.149   0.502   1.680 -0.0320  0.4182 -0.1247
  887SOL    HW1 2660   1.129   0.398   1.671 -0.7004 -0.9226  0.0894
  887SOL    HW2 2661   1.205   0.523   1.767 -0.0205 -1.0513 -0.8704
  888SOL     OW 2662   2.512   0.743   1.883 -0.6414 -0.0743  0.0187
  888SOL    HW1 2663   2.507   0.643   1.858 -2.5124 -2.2827  0.0960
  888SOL    HW2 2664   2.532   0.802   1.802 -0.9178 -0.2396 -2.1431
  889SOL     OW 2665   0.354   2.787   0.772  0.0833  0.3060  0.0481
  889SOL    HW1 2666   0.327   2.695   0.741  0.7412  2.0363 -1.3160
  889SOL    HW2 2667   0.445   2.817   0.735  2.6387 -0.0501  0.2285
  890SOL     OW 2668   2.951   2.170   0.266  0.2793  0.0853 -0.3662
  890SOL    HW1 2669   2.927   2.184   0.365  0.3927  3.1352 -1.2893
  890SOL    HW2 2670   3.039   2.125   0.244 -0.5351 -1.9000 -1.8025
  891SOL     OW 2671   0.968   1.628   2.954 -0.6999  0.0388 -0.2212
  891SOL    HW1 2672   0.921   1.653   2.862 -0.3177 -2.0582 -2.7632
  891SOL    HW2 2673   1.065   1.624   2.940 -3.2670  0.8438 -1.4973
  892SOL     OW 2674   2.905   2.988   0.817  0.0331  0.1223 -0.0573
  892SOL    HW1 2675   2.917   3.085   0.854 -0.2184  4.3063  1.7372
  892SOL    HW2 2676   2.952   2.912   0.874  2.1417 -1.1922  1.2658
  893SOL     OW 2677   0.997   2.959   1.266 -0.1045 -0.0650 -0.6510
  893SOL    HW1 2678   0.966   2.994   1.355  0.3218 -0.3101  2.1860
  893SOL    HW2 2679   0.954   3.010   1.190 -0.3676  3.8620 -0.1162
  894SOL     OW 2680   2.942   0.915   0.611 -0.5846 -0.3064 -0.3663
  894SOL    HW1 2681   2.954   0.826   0.563  3.6270 -0.7745 -0.1355
  894SOL    HW2 2682   2.846   0.951   0.590  1.0637 -0.9294 -2.9679
  895SOL     OW 2683   2.244   2.595   2.042  0.0584 -0.1550  0.6830
  895SOL    HW1 2684   2.147   2.589   2.024  0.1946  0.3629  1.7494
  895SOL    HW2 2685   2.258   2.605   2.142 -0.0365  0.0079  1.9557
  896SOL     OW 2686   1.060   0.213   1.646  0.1667 -0.2286  0.3032
  896SOL    HW1 2687   1.079   0.119   1.615  2.2399  1.4968  1.1205
  896SOL    HW2 2688   1.037   0.226   1.744  0.7806 -0.6206 -0.5845
  897SOL     OW 2689   0.945   1.652   1.923  0.3609 -0.1989  0.3243
  897SOL    HW1 2690   1.016   1.599   1.977  0.6631  0.1513 -0.2065
  897SOL    HW2 2691   0.985   1.710   1.849 -0.1157  3.7185 -1.1007
  898SOL     OW 2692   1.895   2.782   1.843  0.5679 -0.4162  0.0002
  898SOL    HW1 2693   1.934   2.780   1.747  1.7898  0.5768 -3.2266
  898SOL    HW2 2694   1.966   2.811   1.905  0.8337 -1.8385 -1.0711
  899SOL     OW 2695   0.964   0.630   1.013 -0.1409 -0.0364  0.0608
  899SOL    HW1 2696   1.026   0.589   1.080 -2.8631  0.1040 -0.2798
  899SOL    HW2 2697   0.893   0.698   1.044  1.5806 -1.3976 -0.5750
  900SOL     OW 2698   1.836   2.449   2.649  0.1843 -0.0911 -0.0203
  900SOL    HW1 2699   1.752   2.394   2.647  2.0760  0.2071 -0.3871
  900SOL    HW2 2700   1.907   2.418   2.582 -0.6466  0.1702  0.3222
  901SOL     OW 2701   0.873   2.221   2.657  0.4054  0.3435 -0.4300
  901SOL    HW1 2702   0.955   2.258   2.708  0.9334  1.1957  2.4983
  901SOL    HW2 2703   0.820   2.299   2.616  0.6965  1.7612  0.4535
  902SOL     OW 2704   2.366   1.353   0.418  0.2784 -0.1510  0.3399
  902SOL    HW1 2705   2.402   1.427   0.354  0.6237  1.2596 -1.0577
  902SOL    HW2 2706   2.268   1.331   0.404  1.0121 -0.8662 -1.2391
  903SOL     OW 2707   1.916   0.960   0.426  0.0794  0.6949  0.0099
  903SOL    HW1 2708   1.867   0.947   0.337  1.2369 -2.3554  0.7432
  903SOL    HW2 2709   1.996   1.022   0.420  0.4520 -1.4655 -0.2033
  904SOL     OW 2710   0.842   0.932   2.756 -0.6782  0.4243 -0.2217
  904SOL    HW1 2711   0.738   0.928   2.751 -1.3333  1.8754 -1.1302
  904SOL    HW2 2712   0.891   0.864   2.692  1.2779  0.1157 -2.4347
  905SOL     OW 2713   2.087   0.350   0.840  0.5592  0.1981 -0.3523
  905SOL    HW1 2714   2.031   0.298   0.772 -1.9711  0.0944  2.2094
  905SOL    HW2 2715   2.179   0.374   0.807 -3.3172 -1.0276 -0.2263
  906SOL     OW 2716   2.622   2.466   1.549  0.3749  0.4109  0.3919
  906SOL    HW1 2717   2.607   2.439   1.644 -1.3852 -0.9189 -1.1807
  906SOL    HW2 2718   2.715   2.513   1.535  0.8851  0.3718 -0.8132
  907SOL     OW 2719   1.050   0.760   0.147  0.6900  0.1085  0.0087
  907SOL    HW1 2720   1.139   0.755   0.196  0.5358 -0.9522  0.2085
  907SOL    HW2 2721   1.065   0.764   0.048  0.5352 -2.2721 -0.9629
  908SOL     OW 2722   2.050   2.988   1.412 -0.0512  0.3356 -0.1274
  908SOL    HW1 2723   2.146   2.978   1.376 -0.1288  0.2194 -0.8501
  908SOL    HW2 2724   1.992   3.025   1.334 -1.6124 -0.4643 -1.4669
  909SOL     OW 2725   2.307   0.816   1.175  0.4500 -0.4509 -0.4190
  909SOL    HW1 2726   2.355   0.750   1.239  1.5061  1.8163  0.6811
  909SOL    HW2 2727   2.328   0.916   1.198 -0.1032  3.9396 -0.8691
  910SOL     OW 2728   1.259   2.772   2.039 -0.6524 -0.2218  0.1193
  910SOL    HW1 2729   1.344   2.804   2.080 -0.0850 -1.7808 -0.9903
  910SOL    HW2 2730   1.179   2.829   2.065  0.4609  0.9476  0.4122
  911SOL     OW 2731   2.511   0.464   2.282  0.6818  0.3950  0.2852
  911SOL    HW1 2732   2.549   0.516   2.207 -1.6765 -0.2079  0.4587
  911SOL    HW2 2733   2.427   0.511   2.318 -1.8631 -0.7431 -3.9555
  912SOL     OW 2734   2.903   1.418   1.450  0.5338 -0.6162  0.0904
  912SOL    HW1 2735   2.934   1.502   1.409  0.8868 -1.3245  1.4310
  912SOL    HW2 2736   2.947   1.401   1.538  2.3412 -1.0952 -1.9992
  913SOL     OW 2737   2.740   2.098   1.536  0.3814  0.2447 -0.2363
  913SOL    HW1 2738   2.683   2.110   1.451 -4.1617  0.3036 -0.0973
  913SOL    HW2 2739   2.765   2.001   1.539  0.1484  0.8132 -0.0347
  914SOL     OW 2740   1.867   1.129   1.229 -0.0876  0.3926 -0.3805
  914SOL    HW1 2741   1.891   1.028   1.236  0.0580  1.8486 -0.2832
  914SOL    HW2 2742   1.889   1.185   1.313 -2.9780  2.5800  0.9813
  915SOL     OW 2743   1.317   0.788   1.384 -0.1071 -0.6201  0.7104
  915SOL    HW1 2744   1.300   0.689   1.406  1.1226  1.1527  0.2111
  915SOL    HW2 2745   1.352   0.789   1.287  1.5283 -1.2377 -1.8231
  916SOL     OW 2746   2.832   2.635   1.504  0.4415 -0.3242 -0.2277
  916SOL    HW1 2747   2.908   2.663   1.446  1.5648  0.2674  0.1504
  916SOL    HW2 2748   2.808   2.719   1.561 -0.3139  2.3498  0.9876
  917SOL     OW 2749   2.355   2.067   0.342 -0.1025  0.2515  0.3463
  917SOL    HW1 2750   2.280   2.055   0.273  1.1893 -0.8339  0.9857
  917SOL    HW2 2751   2.404   2.154   0.333  4.2911  1.2319 -1.1157
  918SOL     OW 2752   1.989   2.682   2.560 -0.1915  0.3338 -0.3363
  918SOL    HW1 2753   1.957   2.720   2.472  1.4481  1.9376 -0.7294
  918SOL    HW2 2754   1.925   2.612   2.597 -2.5530 -0.5850 -0.6775
  919SOL     OW 2755   1.392   2.170   1.392  0.3596 -0.2228  0.3392
  919SOL    HW1 2756   1.418   2.117   1.475  1.8328 -2.1643  0.3963
  919SOL    HW2 2757   1.292   2.168   1.378 -0.8559  1.2219  1.4607
  920SOL     OW 2758   2.976   0.440   2.382  0.2485 -0.4313 -0.4461
  920SOL    HW1 2759   2.918   0.398   2.452  2.1465  2.9665 -2.3537
  920SOL    HW2 2760   2.972   0.381   2.299 -1.3575 -1.6109 -0.9250
  921SOL     OW 2761   2.950   0.891   1.945  0.1065  0.0168 -0.4295
  921SOL    HW1 2762   2.960   0.791   1.926 -1.2642  2.0593  2.0966
  921SOL    HW2 2763   2.888   0.904   2.025  0.9723 -0.4264 -0.1636
  922SOL     OW 2764   2.028   2.020   0.659 -0.1334  0.4754  0.0551
  922SOL    HW1 2765   2.004   2.106   0.708  1.4417  0.6625 -0.2485
  922SOL    HW2 2766   2.130   2.003   0.657 -0.3473  2.6871 -2.4253
  923SOL     OW 2767   0.731   2.089   2.875  0.5783 -0.1764  0.4768
  923SOL    HW1 2768   0.732   2.105   2.775 -0.2828  0.7671  0.8529
  923SOL    HW2 2769   0.718   2.171   2.926  0.3008 -1.9729  0.2736
  924SOL     OW 2770   1.087   0.282   0.485  0.2124 -0.1640  0.0357
  924SOL    HW1 2771   1.066   0.186   0.453 -0.3828  0.1733  1.9907
  924SOL    HW2 2772   1.134   0.336   0.412 -1.6353 -1.0923  0.0111
  925SOL     OW 2773   2.462   0.863   0.432  0.4033 -0.4948  0.2259
  925SOL    HW1 2774   2.381   0.893   0.480 -0.7764  0.0649 -0.1472
  925SOL    HW2 2775   2.495   0.778   0.475  0.3087  2.2986  2.2320
  926SOL     OW 2776   0.061   0.883   0.989 -0.2321  0.3894  0.0288
  926SOL    HW1 2777   3.101   0.942   0.926 -2.3300  1.4977  3.1198
  926SOL    HW2 2778   0.023   0.886   1.084 -0.8365  0.0302  1.6833
  927SOL     OW 2779   0.027   1.202   3.007  0.0633  0.0939  0.3926
  927SOL    HW1 2780   0.064   1.245   2.923  2.6050 -0.6165  0.7645
  927SOL    HW2 2781   0.017   1.277   3.077  1.3944  0.1051  0.2988
  928SOL     OW 2782   2.650   0.819   2.374  0.3931  0.3683  0.0167
  928SOL    HW1 2783   2.687   0.726   2.394  0.4520  1.3953 -3.3782
  928SOL    HW2 2784   2.625   0.860   2.462  0.4577 -0.7779 -0.0915
  929SOL     OW 2785   3.020   2.916   1.364  0.3694 -0.3736 -0.0090
  929SOL    HW1 2786   2.925   2.941   1.392 -0.9700 -2.2204 -2.0194
  929SOL    HW2 2787   3.018   2.848   1.290 -0.7997 -1.6857  1.4230
  930SOL     OW 2788   2.032   1.334   1.709  0.6191  0.7012  0.4576
  930SOL    HW1 2789   1.988   1.284   1.631 -1.5650 -1.6284 -2.3740
  930SOL    HW2 2790   2.126   1.358   1.684 -3.5141  0.5189  0.5797
  931SOL     OW 2791   1.579   1.297   0.539 -0.1482  0.0823 -0.3928
  931SOL    HW1 2792   1.576   1.265   0.445  0.8544 -1.3361 -1.6103
  931SOL    HW2 2793   1.552   1.399   0.546 -1.0445  0.9492  2.4368
  932SOL     OW 2794   2.835   1.192   0.903 -0.3888 -0.7866  0.2946
  932SOL    HW1 2795   2.786   1.240   0.832 -1.5744  1.1609  1.9663
  932SOL    HW2 2796   2.819   1.093   0.908  1.7502 -0.4222 -0.8257
  933SOL     OW 2797   2.424   1.860   1.387  0.4167  0.0526  0.0840
  933SOL    HW1 2798   2.408   1.777   1.332 -1.8632 -1.1207 -4.3734
  933SOL    HW2 2799   2.335   1.911   1.404  0.7575 -0.7625 -2.9629
  934SOL     OW 2800   1.689   0.135   1.984  0.5431 -0.3809 -0.0633
  934SOL    HW1 2801   1.673   0.195   2.071 -1.5370  0.3989 -1.4157
  934SOL    HW2 2802   1.673   0.197   1.907 -2.0560  2.3839  1.3361
  935SOL     OW 2803   0.277   1.567   0.811 -0.2644 -0.3844  0.5606
  935SOL    HW1 2804   0.225   1.564   0.726 -0.0246  1.8914 -1.3400
  935SOL    HW2 2805   0.241   1.643   0.872 -0.7894 -1.7703 -1.9498
  936SOL     OW 2806   0.479   0.776   0.449  0.2160 -0.0092  0.0760
  936SOL    HW1 2807   0.383   0.747   0.455  0.2089  0.8185  0.2817
  936SOL    HW2 2808   0.493   0.852   0.381  1.2628 -1.7135 -4.0463
  937SOL     OW 2809   2.134   3.030   1.027 -0.1717 -0.1118 -0.6295
  937SOL    HW1 2810   2.136   2.938   1.074 -1.4874  1.8122 -0.8202
  937SOL    HW2 2811   2.170   3.019   0.931  1.1362  0.5464  3.3196
  938SOL     OW 2812   2.633   2.088   0.511 -0.1587  0.3364  0.0575
  938SOL    HW1 2813   2.626   2.002   0.459 -0.7449  0.9076 -3.3743
  938SOL    HW2 2814   2.572   2.161   0.467  2.3759  0.3214  2.0271
  939SOL     OW 2815   0.776   2.015   0.581 -0.3996 -0.2189  0.3499
  939SOL    HW1 2816   0.780   1.911   0.593  0.7880  0.7350  1.3068
  939SOL    HW2 2817   0.808   2.072   0.660  1.4950  1.3875  0.6546
  940SOL     OW 2818   2.730   3.048   2.908  0.2694  0.5087 -0.5484
  940SOL    HW1 2819   2.808   3.006   2.864 -2.1790 -2.8292  0.2112
  940SOL    HW2 2820   2.642   3.029   2.853 -0.0831 -4.2450 -4.6205
  941SOL     OW 2821   1.338   0.301   3.003  1.2393  0.2067  0.1402
  941SOL    HW1 2822   1.274   0.221   3.002 -0.6501 -0.0221 -0.0413
  941SOL    HW2 2823   1.287   0.374   3.055  1.8832  1.1857  0.6529
  942SOL     OW 2824   1.167   0.941   1.101 -0.0022  0.1252 -0.4317
  942SOL    HW1 2825   1.187   1.016   1.167  0.8701 -1.0920  1.6624
  942SOL    HW2 2826   1.087   0.961   1.036 -2.4194  3.4922  1.0180
  943SOL     OW 2827   1.682   1.183   1.584 -0.4435 -0.1697  0.1022
  943SOL    HW1 2828   1.678   1.154   1.681  1.5007  0.0721  0.7783
  943SOL    HW2 2829   1.605   1.145   1.529  2.4640 -1.0748  2.1202
  944SOL     OW 2830   1.530   0.822   1.799  0.0361 -0.2058  0.2870
  944SOL    HW1 2831   1.568   0.915   1.822  1.1501 -1.1199  1.0083
  944SOL    HW2 2832   1.510   0.764   1.881  0.8012 -0.7770 -0.3788
  945SOL     OW 2833   2.923   3.001   0.394  0.0764 -0.3334  0.3245
  945SOL    HW1 2834   2.842   2.956   0.353 -3.2397 -0.1560 -1.2533
  945SOL    HW2 2835   2.980   3.049   0.323  2.9135  1.2399 -2.0811
  946SOL     OW 2836   2.896   0.586   1.661  0.6798 -0.2907  0.0373
  946SOL    HW1 2837   2.887   0.499   1.609 -0.8393  0.0427 -0.6043
  946SOL    HW2 2838   2.831   0.658   1.621 -2.2960  3.0466  0.9370
  947SOL     OW 2839   0.581   3.017   0.527 -0.6863 -0.2296  0.2638
  947SOL    HW1 2840   0.589   2.946   0.599  1.1017 -1.2899 -2.4080
  947SOL    HW2 2841   0.573   2.983   0.436  2.1138  1.4738  2.2066
  948SOL     OW 2842   2.207   1.096   1.665  0.5242  0.3379  0.3047
  948SOL    HW1 2843   2.226   1.082   1.761 -0.3405  1.2253 -0.6245
  948SOL    HW2 2844   2.113   1.066   1.638  0.7028 -2.0644 -0.5647
  949SOL     OW 2845   0.568   0.895   2.725 -0.7074  0.1617 -0.3681
  949SOL    HW1 2846   0.552   0.957   2.642  0.1670  2.8393  1.3523
  949SOL    HW2 2847   0.490   0.838   2.737  0.7008 -0.9272 -0.6299
  950SOL     OW 2848   0.875   0.262   1.039 -0.2406  0.2932  0.2877
  950SOL    HW1 2849   0.912   0.166   1.029  1.8946 -1.7697  4.2223
  950SOL    HW2 2850   0.915   0.327   0.969 -2.4008 -0.4346  5.9410
  951SOL     OW 2851   0.928   1.670   2.259  0.1637  0.1895 -0.2555
  951SOL    HW1 2852   0.947   1.763   2.291 -0.3677 -0.4385 -1.6654
  951SOL    HW2 2853   1.001   1.639   2.189  0.4094  0.9348  0.3223
  952SOL     OW 2854   0.858   1.617   0.113 -0.2902  0.7138 -0.0933
  952SOL    HW1 2855   0.873   1.636   0.012 -1.2880  1.9767  0.4607
  952SOL    HW2 2856   0.842   1.704   0.160 -0.1211 -0.2147  1.5632
  953SOL     OW 2857   2.178   0.019   2.492 -0.4935 -0.0048  0.2376
  953SOL    HW1 2858   2.095   0.074   2.474  0.0697 -2.3296  0.6404
  953SOL    HW2 2859   2.259   0.079   2.510 -0.8323 -0.7410 -0.5522
  954SOL     OW 2860   1.622   1.157   0.759 -0.6817 -0.5799 -0.0628
  954SOL    HW1 2861   1.655   1.068   0.718  0.9409 -1.9824 -1.1345
  954SOL    HW2 2862   1.602   1.229   0.685 -0.5316 -0.9437  1.5658
  955SOL     OW 2863   0.339   2.203   2.313 -0.0079 -0.0901 -0.3581
  955SOL    HW1 2864   0.347   2.187   2.212 -0.6428 -2.3539 -1.3048
  955SOL    HW2 2865   0.320   2.300   2.340  1.5517 -0.5413  0.2030
  956SOL     OW 2866   1.563   0.552   1.676 -0.1156  0.3860 -0.1635
  956SOL    HW1 2867   1.495   0.624   1.704 -1.7801 -3.0724  1.0595
  956SOL    HW2 2868   1.537   0.525   1.582  0.5455 -2.9859  0.4137
  957SOL     OW 2869   1.689   2.023   2.952  0.0922 -0.0907 -0.0917
  957SOL    HW1 2870   1.676   1.920   2.947  2.1310 -0.6957  2.1055
  957SOL    HW2 2871   1.777   2.050   2.996 -0.7308  0.1843  4.0736
  958SOL     OW 2872   1.116   2.358   1.665 -0.0476  0.3949 -0.7361
  958SOL    HW1 2873   1.070   2.376   1.752 -1.6190  2.6989  1.7712
  958SOL    HW2 2874   1.051   2.315   1.599  3.0161 -0.7558  1.0730
  959SOL     OW 2875   2.129   2.277   2.966 -0.0001  0.0333 -0.1266
  959SOL    HW1 2876   2.081   2.366   2.985 -1.1867 -0.6136  0.7007
  959SOL    HW2 2877   2.225   2.295   2.949 -0.0584 -3.4597  0.2168
  960SOL     OW 2878   2.981   0.570   2.684 -0.6102 -0.3435 -0.4985
  960SOL    HW1 2879   2.990   0.671   2.662 -1.0626  2.9511 -1.8711
  960SOL    HW2 2880   3.010   0.514   2.602 -1.9452  2.3886  0.6672
  961SOL     OW 2881   0.760   0.724   2.523  0.7018 -0.5551 -0.5103
  961SOL    HW1 2882   0.662   0.703   2.498 -0.5287 -1.0585  1.8368
  961SOL    HW2 2883   0.827   0.702   2.451 -0.1175  0.3025 -2.1103
  962SOL     OW 2884   0.695   1.333   2.583  0.7571 -0.3391 -0.5092
  962SOL    HW1 2885   0.659   1.298   2.672 -1.6857 -0.5666 -2.0729
  962SOL    HW2 2886   0.766   1.264   2.554 -1.1898  0.2584  0.0237
  963SOL     OW 2887   2.519   2.293   0.326 -0.0537  0.0480 -0.1144
  963SOL    HW1 2888   2.567   2.298   0.235  0.2711  1.4268  0.5180
  963SOL    HW2 2889   2.482   2.383   0.357  0.9023  1.4030  0.6799
  964SOL     OW 2890   1.242   2.495   1.216 -0.2000 -0.1042 -0.0384
  964SOL    HW1 2891   1.272   2.478   1.315  0.5845 -2.1899  2.7222
  964SOL    HW2 2892   1.159   2.554   1.208 -0.0106 -2.8364  0.4193
  965SOL     OW 2893   1.271   1.484   0.706 -0.2236  0.1201  0.5004
  965SOL    HW1 2894   1.359   1.505   0.657  2.3435  1.2717 -1.0290
  965SOL    HW2 2895   1.250   1.564   0.770 -2.5570  1.7468 -1.6159
  966SOL     OW 2896   0.376   1.738   0.163 -0.5499 -0.3887 -0.3359
  966SOL    HW1 2897   0.352   1.778   0.255 -2.1692 -0.4889  4.1330
  966SOL    HW2 2898   0.299   1.675   0.138 -0.0940  0.5739  1.9015
  967SOL     OW 2899   1.989   0.378   1.746  0.1735  0.1962 -0.5262
  967SOL    HW1 2900   1.935   0.439   1.806  0.9280 -0.1266  0.5207
  967SOL    HW2 2901   1.935   0.354   1.660 -0.4959  0.7894  1.7854
  968SOL     OW 2902   1.779   0.909   0.652 -0.1230 -0.4845 -0.4866
  968SOL    HW1 2903   1.814   0.947   0.565  1.1229 -0.5469  1.6671
  968SOL    HW2 2904   1.736   0.822   0.625  0.0464  2.7562 -2.1906
  969SOL     OW 2905   0.277   1.277   2.385 -0.2180  0.1776  0.3193
  969SOL    HW1 2906   0.276   1.181   2.346 -2.0061 -1.4149 -0.6511
  969SOL    HW2 2907   0.364   1.320   2.373 -1.5161 -1.4654 -1.2811
  970SOL     OW 2908   2.284   1.454   1.219  0.2878 -0.9040  0.4854
  970SOL    HW1 2909   2.263   1.391   1.136  0.1139 -2.8237 -2.5914
  970SOL    HW2 2910   2.312   1.549   1.186  2.2468  1.0338  0.7073
  971SOL     OW 2911   0.267   3.074   1.164 -0.2850 -0.1096  0.2829
  971SOL    HW1 2912   0.300   0.071   1.173  2.9541  1.1219  0.8588
  971SOL    HW2 2913   0.316   3.028   1.088  2.2074 -2.3232 -2.8001
  972SOL     OW 2914   0.293   0.736   2.809  0.3218  0.2707 -0.2370
  972SOL    HW1 2915   0.335   0.642   2.794  0.2759 -2.7630  1.3122
  972SOL    HW2 2916   0.285   0.761   2.907 -0.9240 -1.3247 -2.1716
  973SOL     OW 2917   3.073   0.427   0.966  0.2850  0.3725 -0.2409
  973SOL    HW1 2918   0.043   0.454   0.899 -0.4788  0.0453 -2.0422
  973SOL    HW2 2919   3.065   0.324   0.974  1.4645  0.3108  0.5264
  974SOL     OW 2920   2.204   0.489   1.881  0.0062 -0.1720  0.4732
  974SOL    HW1 2921   2.197   0.589   1.871  0.3213 -0.3556 -0.0479
  974SOL    HW2 2922   2.139   0.447   1.815  0.7466 -1.1598  1.9500
  975SOL     OW 2923   2.714   0.240   0.105  0.0381 -0.0133  0.0057
  975SOL    HW1 2924   2.772   0.188   0.178 -0.5409 -0.0408  1.4197
  975SOL    HW2 2925   2.675   0.316   0.151  2.3055 -1.0161 -0.8474
  976SOL     OW 2926   0.471   1.407   1.453 -0.1074 -0.0918  0.3249
  976SOL    HW1 2927   0.568   1.444   1.448  3.0689  1.1004 -2.5361
  976SOL    HW2 2928   0.430   1.419   1.547 -4.3219 -0.5629  3.2035
  977SOL     OW 2929   1.112   2.542   3.089 -0.2345 -0.0438 -0.9417
  977SOL    HW1 2930   1.205   2.502   3.095 -0.9434  0.0153  0.8197
  977SOL    HW2 2931   1.048   2.514   0.065 -0.9472 -2.8515  3.8959
  978SOL     OW 2932   0.336   1.465   2.924 -0.3990 -0.1479 -0.0156
  978SOL    HW1 2933   0.357   1.429   3.016  0.0989  0.6075  1.2101
  978SOL    HW2 2934   0.409   1.440   2.862 -2.9305  0.2066  0.5136
  979SOL     OW 2935   1.774   1.738   1.539 -0.2985 -0.4383  0.4930
  979SOL    HW1 2936   1.695   1.685   1.575  1.2080  2.4791 -1.8347
  979SOL    HW2 2937   1.855   1.682   1.553 -0.5598  1.1355  1.1644
  980SOL     OW 2938   0.365   1.467   1.698 -0.3356 -0.5813 -0.6176
  980SOL    HW1 2939   0.328   1.561   1.694 -2.9136 -0.3048 -1.1299
  980SOL    HW2 2940   0.349   1.424   1.796 -2.5092 -2.7781  3.6904
  981SOL     OW 2941   2.962   1.395   0.333  0.0238 -0.0504 -0.0943
  981SOL    HW1 2942   2.989   1.492   0.351  0.2857 -1.0479  0.4596
  981SOL    HW2 2943   2.961   1.352   0.428 -0.7304  2.1765 -0.0458
  982SOL     OW 2944   2.364   2.990   2.146 -0.2346  0.0245  0.4808
  982SOL    HW1 2945   2.348   3.053   2.066 -0.9355  3.3309 -0.1264
  982SOL    HW2 2946   2.462   2.961   2.145 -1.8566 -0.7527  2.4423
  983SOL     OW 2947   1.304   0.187   0.961 -0.1116 -0.0829 -0.5275
  983SOL    HW1 2948   1.253   0.184   1.048  0.1604 -1.4548  0.2833
  983SOL    HW2 2949   1.272   0.273   0.913  1.3158  2.5110  0.0097
  984SOL     OW 2950   1.272   2.995   2.890  0.4395  0.0605  0.8738
  984SOL    HW1 2951   1.370   3.033   2.870  0.7668  0.8671  0.4468
  984SOL    HW2 2952   1.276   2.906   2.941 -0.2105  2.1200  1.3687
  985SOL     OW 2953   1.876   2.290   1.468  0.0186  0.1106  0.3835
  985SOL    HW1 2954   1.834   2.212   1.519  1.6884 -0.3264 -2.4275
  985SOL    HW2 2955   1.944   2.257   1.399  0.3101 -2.4039 -2.9811
  986SOL     OW 2956   2.552   2.836   2.550  0.3958  0.2337  0.1235
  986SOL    HW1 2957   2.469   2.839   2.488 -0.9104  0.6448 -0.8139
  986SOL    HW2 2958   2.538   2.891   2.632  0.9989  0.2638 -2.1461
  987SOL     OW 2959   2.767   0.933   2.130  0.2888  0.8042 -0.8180
  987SOL    HW1 2960   2.720   0.881   2.205 -0.5299  0.5788  1.6105
  987SOL    HW2 2961   2.704   0.999   2.082  0.3447 -0.7143 -1.3291
  988SOL     OW 2962   2.350   0.907   2.601 -0.7209 -0.4608  0.5572
  988SOL    HW1 2963   2.305   0.821   2.641 -0.0320 -0.3644  1.0063
  988SOL    HW2 2964   2.288   0.958   2.535 -2.3974 -0.3220 -1.0838
  989SOL     OW 2965   2.050   1.534   2.010 -0.0502  0.2687 -0.4048
  989SOL    HW1 2966   2.109   1.456   1.974  0.0006  1.7332  0.2052
  989SOL    HW2 2967   2.020   1.526   2.109 -2.7719  5.5209  1.4476
  990SOL     OW 2968   0.397   1.077   0.029  0.1391 -0.3997 -0.3029
  990SOL    HW1 2969   0.470   1.081   3.055  1.2516  0.4592  0.8008
  990SOL    HW2 2970   0.330   1.007   0.002  2.5266  2.2220  0.5759
  991SOL     OW 2971   0.227   1.975   2.866  0.0608  0.5762 -0.1678
  991SOL    HW1 2972   0.284   1.889   2.859  3.3664 -0.8550 -2.5808
  991SOL    HW2 2973   0.203   2.008   2.772 -0.3890 -0.4815  0.4301
  992SOL     OW 2974   2.610   2.102   2.020 -0.2639  0.0378  0.1377
  992SOL    HW1 2975   2.603   2.133   1.918 -0.0582  0.9941 -3.7231
  992SOL    HW2 2976   2.598   2.176   2.085  1.4989 -0.4908  0.3856
  993SOL     OW 2977   0.186   0.084   0.467 -0.6075 -0.8370  0.5487
  993SOL    HW1 2978   0.276   0.100   0.512  1.3876 -0.0898  1.1598
  993SOL    HW2 2979   0.108   0.105   0.521  1.1575 -1.4247 -1.5137
  994SOL     OW 2980   0.232   1.741   1.617 -0.7743  0.6064 -0.0614
  994SOL    HW1 2981   0.158   1.811   1.608 -2.0455  0.4596 -1.2042
  994SOL    HW2 2982   0.300   1.765   1.541  1.1881  0.1668 -0.7967
  995SOL     OW 2983   2.037   1.866   2.818 -0.4964 -0.1353  0.1297
  995SOL    HW1 2984   1.972   1.809   2.769  3.0054  2.0587 -0.5096
  995SOL    HW2 2985   2.051   1.964   2.784  0.3606 -0.2680  0.1528
  996SOL     OW 2986   1.831   1.550   2.959  0.1011  0.0035 -0.0802
  996SOL    HW1 2987   1.744   1.500   2.972 -1.4818  0.6408 -0.2580
  996SOL    HW2 2988   1.816   1.618   2.887  0.3901 -3.2475  3.8922
  997SOL     OW 2989   1.241   1.387   1.691  0.2309 -0.0273  0.1207
  997SOL    HW1 2990   1.141   1.390   1.717 -0.6921 -0.6945 -0.7184
  997SOL    HW2 2991   1.260   1.288   1.667 -2.1496 -1.6389 -3.1191
  998SOL     OW 2992   2.612   2.184   1.092 -0.7453  0.3328 -0.3986
  998SOL    HW1 2993   2.577   2.278   1.109  1.1995 -0.4580  0.3491
  998SOL    HW2 2994   2.675   2.178   1.013  1.1441 -0.1567 -0.1686
  999SOL     OW 2995   2.115   2.326   0.401  0.1117  0.7149 -0.1791
  999SOL    HW1 2996   2.022   2.368   0.414 -2.5784  1.6950 -0.4344
  999SOL    HW2 2997   2.174   2.361   0.474  1.1578 -2.5191  1.9927
 1000SOL     OW 2998   0.826   2.956   2.999 -0.2413 -0.1153 -0.0803
 1000SOL    HW1 2999   0.832   2.870   3.052 -1.0179 -0.9330 -0.9258
 1000SOL    HW2 3000   0.732   2.964   2.958 -0.0040 -2.8353  0.3621
   3.10060   3.10060   3.10060
