1000 SPC/Fw water molecules t= 184.00000 step= 184000
 3000
    1SOL     OW    1   2.573   0.001   1.087 -0.3021  0.3211 -0.1238
    1SOL    HW1    2   2.495   0.059   1.116 -1.1413 -3.6842  3.0016
    1SOL    HW2    3   2.561   3.031   0.999  2.2287  1.9094  1.7595
    2SOL     OW    4   1.854   1.654   1.933  0.0363 -0.1823 -0.3204
    2SOL    HW1    5   1.915   1.616   2.007 -1.3190 -2.1825 -0.2206
    2SOL    HW2    6   1.780   1.699   1.985 -0.4423 -0.7538 -0.2829
    3SOL     OW    7   1.747   2.387   2.141 -0.3203  0.0746  0.0403
    3SOL    HW1    8   1.769   2.487   2.148 -1.9289  1.2926  1.5209
    3SOL    HW2    9   1.833   2.333   2.110  0.4509 -0.5576 -0.0326
    4SOL     OW   10   1.799   2.080   1.957 -0.2210 -0.1179  0.4526
    4SOL    HW1   11   1.831   2.160   2.016 -0.5825  0.6996 -1.3265
    4SOL    HW2   12   1.831   2.092   1.855  1.1217 -0.8661 -3.3474
    5SOL     OW   13   1.005   0.677   1.920  0.2592 -0.1439  0.6059
    5SOL    HW1   14   1.103   0.701   1.904 -1.2265  1.8768 -0.5473
    5SOL    HW2   15   0.941   0.749   1.878  3.7955  2.2439 -2.3318
    6SOL     OW   16   2.755   0.720   2.949  0.0601  0.0605 -0.2761
    6SOL    HW1   17   2.815   0.663   2.892 -0.0209  0.2103  2.0868
    6SOL    HW2   18   2.663   0.680   2.977 -1.2540  1.0211  0.8315
    7SOL     OW   19   1.112   0.874   1.618  0.0416 -0.3992  0.4234
    7SOL    HW1   20   1.029   0.853   1.564 -1.0084 -0.1136 -1.6475
    7SOL    HW2   21   1.186   0.903   1.552  3.5071  0.5052 -2.1979
    8SOL     OW   22   1.237   0.131   1.113 -0.3596 -0.8651 -0.0808
    8SOL    HW1   23   1.262   0.187   1.034 -2.2723 -1.7746  0.0216
    8SOL    HW2   24   1.208   0.198   1.190  1.3127  1.5287  2.9772
    9SOL     OW   25   1.016   0.991   0.015  0.0175 -0.2626  0.7141
    9SOL    HW1   26   0.986   1.021   2.998  0.5094  0.3718 -1.2439
    9SOL    HW2   27   0.950   1.021   0.086 -0.7245 -1.6306 -1.1323
   10SOL     OW   28   0.322   2.765   0.129  0.5124 -0.3663  0.2259
   10SOL    HW1   29   0.233   2.760   0.076 -1.5435 -0.5007 -0.3777
   10SOL    HW2   30   0.340   2.677   0.179  1.1835  0.3911  1.1090
   11SOL     OW   31   0.434   1.542   3.015  0.3508  0.6794  0.0353
   11SOL    HW1   32   0.485   1.540   2.930 -2.5633  0.8534  0.4099
   11SOL    HW2   33   0.336   1.566   2.990 -1.9656 -1.8150 -1.5735
   12SOL     OW   34   0.434   0.054   1.422  0.0856  0.0727  0.9878
   12SOL    HW1   35   0.375   3.061   1.378 -0.8821 -0.4992 -1.8103
   12SOL    HW2   36   0.522   0.016   1.449 -1.3849 -0.3373 -2.8445
   13SOL     OW   37   0.957   2.957   0.536  0.1936  0.2322  0.2885
   13SOL    HW1   38   1.001   2.987   0.626 -0.8957  2.2807  1.7876
   13SOL    HW2   39   0.875   2.901   0.554 -0.7204  0.5724 -1.4714
   14SOL     OW   40   1.184   2.022   1.196  0.2899 -0.2511 -0.2406
   14SOL    HW1   41   1.105   2.083   1.221 -1.8418 -1.3003  0.4039
   14SOL    HW2   42   1.168   1.928   1.234 -0.1387  0.8730 -1.2459
   15SOL     OW   43   2.913   0.793   2.202 -0.5230  0.0325  0.2611
   15SOL    HW1   44   2.845   0.870   2.184 -2.6169 -0.1637 -0.6740
   15SOL    HW2   45   2.869   0.706   2.226  0.0622 -2.5447  3.0164
   16SOL     OW   46   1.297   2.879   2.639  0.0355 -0.3316 -0.8190
   16SOL    HW1   47   1.334   2.804   2.581 -1.7967 -0.5386 -0.7358
   16SOL    HW2   48   1.321   2.869   2.741  0.6836 -1.0437  1.5367
   17SOL     OW   49   0.929   2.985   1.404  0.6754 -0.3316 -0.5923
   17SOL    HW1   50   0.892   3.059   1.467 -1.7367  2.0315 -1.1847
   17SOL    HW2   51   1.024   3.009   1.374  0.8993 -1.4767 -0.8294
   18SOL     OW   52   1.115   0.679   0.412  0.0185  0.0200  0.1223
   18SOL    HW1   53   1.038   0.641   0.357  2.6248 -0.6560 -1.6266
   18SOL    HW2   54   1.205   0.634   0.392  3.4408  0.6234  1.2737
   19SOL     OW   55   2.019   1.568   2.719  0.0431 -0.7239  0.4338
   19SOL    HW1   56   1.954   1.647   2.717 -2.4132 -0.3530 -1.5392
   19SOL    HW2   57   2.069   1.569   2.809  1.5913  0.0561  0.6730
   20SOL     OW   58   1.615   1.531   1.654  0.1103  0.1123  0.3420
   20SOL    HW1   59   1.687   1.586   1.608 -0.9382 -0.8749  2.3452
   20SOL    HW2   60   1.550   1.583   1.714 -0.7753 -2.1225 -1.0708
   21SOL     OW   61   0.599   1.564   2.793  0.0522 -0.4692 -0.1238
   21SOL    HW1   62   0.596   1.663   2.814 -0.8228 -2.7518 -0.7022
   21SOL    HW2   63   0.607   1.546   2.695  0.1976  1.2113  1.9155
   22SOL     OW   64   2.400   3.048   1.360  0.1732 -0.1134  0.6089
   22SOL    HW1   65   2.339   2.966   1.364  1.1998 -2.5464 -1.4439
   22SOL    HW2   66   2.366   0.033   1.288  0.6054 -0.8414  1.3829
   23SOL     OW   67   3.011   0.997   1.535  0.5539  0.3749  0.0556
   23SOL    HW1   68   3.047   1.074   1.474 -0.3016 -0.5361  3.1265
   23SOL    HW2   69   2.983   0.913   1.480 -0.8591 -3.1825 -1.5991
   24SOL     OW   70   2.626   2.349   1.353 -0.1623 -0.4918  0.1806
   24SOL    HW1   71   2.719   2.335   1.309  0.5236 -0.8728 -1.1264
   24SOL    HW2   72   2.596   2.452   1.357 -2.0495  3.2829  0.8225
   25SOL     OW   73   1.918   2.967   2.629 -0.1063 -0.2311 -0.1582
   25SOL    HW1   74   1.941   3.000   2.536  0.7269 -0.6923 -0.9892
   25SOL    HW2   75   1.856   2.887   2.627  2.1637  1.5233 -2.1732
   26SOL     OW   76   1.257   2.884   2.905 -0.2651  0.1788  0.4855
   26SOL    HW1   77   1.188   2.807   2.926 -0.5841 -1.0649 -0.3797
   26SOL    HW2   78   1.316   2.899   2.983 -1.2275 -3.1435 -0.8050
   27SOL     OW   79   0.592   2.204   2.828 -0.2592  0.3785  0.0609
   27SOL    HW1   80   0.583   2.162   2.919  0.6261 -1.0368 -0.0445
   27SOL    HW2   81   0.532   2.285   2.820  0.8092 -1.5001 -2.6088
   28SOL     OW   82   0.095   1.528   1.365  0.2709 -0.2214  0.4626
   28SOL    HW1   83   0.107   1.581   1.280  0.9916 -3.9355  0.8517
   28SOL    HW2   84   0.183   1.472   1.380 -0.2565 -0.8536 -0.0549
   29SOL     OW   85   2.542   1.993   2.070  0.5259  0.5094  0.7364
   29SOL    HW1   86   2.502   1.900   2.078 -1.7602  0.2584 -0.8560
   29SOL    HW2   87   2.626   2.010   2.126  0.3287 -0.8712 -0.5627
   30SOL     OW   88   1.261   2.916   0.953 -0.7315 -0.1755 -0.1811
   30SOL    HW1   89   1.290   2.868   0.871  0.8560  0.7244 -1.9028
   30SOL    HW2   90   1.342   2.949   1.006 -0.3918 -0.9547 -0.5185
   31SOL     OW   91   0.109   2.258   1.785 -0.2734  0.0380 -0.3423
   31SOL    HW1   92   0.181   2.320   1.747 -1.5106  3.3411 -0.8213
   31SOL    HW2   93   0.156   2.184   1.836 -0.6729  0.0417  2.4016
   32SOL     OW   94   1.251   0.788   1.843  0.1519 -0.1138 -0.7263
   32SOL    HW1   95   1.204   0.809   1.758  2.5357 -0.3936  0.0823
   32SOL    HW2   96   1.272   0.878   1.890 -0.2851  0.4116 -0.8763
   33SOL     OW   97   0.278   2.568   2.336 -0.4809  0.7643  0.0115
   33SOL    HW1   98   0.179   2.544   2.342 -2.4031  0.4683 -2.7792
   33SOL    HW2   99   0.308   2.583   2.241  0.2389 -0.6587 -0.0385
   34SOL     OW  100   2.143   3.054   0.730 -0.3710  0.4510  0.0368
   34SOL    HW1  101   2.106   3.036   0.638  0.0202 -4.0171  2.3101
   34SOL    HW2  102   2.057   3.063   0.789 -1.3408 -0.5444 -1.8480
   35SOL     OW  103   2.283   0.746   1.388  0.0173  0.0716 -0.1662
   35SOL    HW1  104   2.251   0.842   1.403  0.3804 -1.7791  1.1511
   35SOL    HW2  105   2.378   0.739   1.413 -1.1300  2.5342 -2.4623
   36SOL     OW  106   2.295   2.536   2.137  0.0670  0.3083  0.3848
   36SOL    HW1  107   2.287   2.457   2.202 -2.0209  0.0877 -2.7821
   36SOL    HW2  108   2.226   2.606   2.162  0.5549  1.2332  1.9656
   37SOL     OW  109   0.883   2.279   2.256  0.1305 -0.2172  0.3801
   37SOL    HW1  110   0.929   2.297   2.167  0.7844  1.4415 -1.1077
   37SOL    HW2  111   0.941   2.309   2.332 -4.1954  2.5969 -2.1555
   38SOL     OW  112   2.478   0.305   2.993 -0.3682 -0.1546  0.0799
   38SOL    HW1  113   2.486   0.343   0.011 -2.2105 -1.1832 -0.8723
   38SOL    HW2  114   2.560   0.245   2.979  2.6880 -0.3229 -2.2794
   39SOL     OW  115   2.007   1.456   1.793 -0.0390 -0.6790  0.3083
   39SOL    HW1  116   1.957   1.533   1.843 -0.2661 -2.3592 -1.0393
   39SOL    HW2  117   1.942   1.392   1.753  1.1025 -0.4597  2.0173
   40SOL     OW  118   0.167   2.952   2.601 -0.0595  0.1300  0.2616
   40SOL    HW1  119   0.080   2.971   2.555  2.7078 -2.5037  0.8918
   40SOL    HW2  120   0.228   2.897   2.544  0.1475 -1.4359 -0.9691
   41SOL     OW  121   1.688   0.325   1.257  0.2786  0.7268  0.1055
   41SOL    HW1  122   1.772   0.353   1.306 -3.2396  0.9966 -2.0058
   41SOL    HW2  123   1.668   0.381   1.174  0.0152  3.0553  0.0184
   42SOL     OW  124   0.815   0.040   1.666 -0.4600  0.0058  0.0653
   42SOL    HW1  125   0.869   0.121   1.701 -0.4607 -1.0770  0.0874
   42SOL    HW2  126   0.723   0.027   1.711 -2.1204 -0.0024  1.2198
   43SOL     OW  127   2.413   0.874   1.998 -0.2368  0.7134  0.4748
   43SOL    HW1  128   2.355   0.888   1.920  1.4672 -0.7568  2.7242
   43SOL    HW2  129   2.511   0.858   1.973  3.0689  1.9941 -0.4697
   44SOL     OW  130   0.031   2.803   0.026 -0.3740 -0.3793 -0.2515
   44SOL    HW1  131   3.041   2.836   0.095  1.7416  0.9234  2.4545
   44SOL    HW2  132   0.021   2.857   3.019 -0.8247  0.5474  0.4824
   45SOL     OW  133   0.202   2.550   1.915  0.2223  0.0865  0.2583
   45SOL    HW1  134   0.271   2.607   1.967  1.4554 -0.7286  0.0293
   45SOL    HW2  135   0.240   2.506   1.830  0.2336 -0.5863  1.9543
   46SOL     OW  136   2.177   2.355   1.957 -0.0259  0.2410  0.2566
   46SOL    HW1  137   2.227   2.267   1.974  0.1483  2.2141 -1.1375
   46SOL    HW2  138   2.214   2.439   1.996 -1.2817 -2.7029  1.6583
   47SOL     OW  139   1.688   2.043   1.310 -0.0319  0.3172  0.7523
   47SOL    HW1  140   1.666   2.127   1.358  1.2988  1.6297 -2.1047
   47SOL    HW2  141   1.775   2.051   1.258 -0.5436 -0.5532 -0.7576
   48SOL     OW  142   0.626   1.602   0.565 -0.0989 -0.2379  0.0161
   48SOL    HW1  143   0.662   1.652   0.481  1.5752  1.6792  1.5944
   48SOL    HW2  144   0.564   1.669   0.608  0.9980 -3.7856  1.5354
   49SOL     OW  145   2.806   0.482   2.526  0.3341  0.2340  0.4648
   49SOL    HW1  146   2.711   0.504   2.537  3.4825 -1.4279 -0.7372
   49SOL    HW2  147   2.836   0.487   2.424  1.2432  0.0338 -0.4647
   50SOL     OW  148   2.246   0.983   0.795  0.4239 -0.3926 -0.1348
   50SOL    HW1  149   2.160   1.035   0.783 -1.0325 -0.9054  0.6680
   50SOL    HW2  150   2.311   1.035   0.846 -1.1986 -1.5402 -0.6405
   51SOL     OW  151   1.523   0.325   0.860 -0.2427 -0.1306  0.7078
   51SOL    HW1  152   1.514   0.224   0.861 -0.3601  1.6434 -1.6542
   51SOL    HW2  153   1.472   0.354   0.777  1.7580  2.2813 -0.1779
   52SOL     OW  154   1.316   1.332   0.071 -0.2761  0.4587  0.2252
   52SOL    HW1  155   1.301   1.241   0.120  0.0762  2.3975 -1.1340
   52SOL    HW2  156   1.329   1.408   0.130 -1.9636  0.9304 -2.7250
   53SOL     OW  157   0.861   1.637   2.642 -0.0450  0.3400 -0.4122
   53SOL    HW1  158   0.859   1.698   2.724 -0.3133  1.0393 -1.3305
   53SOL    HW2  159   0.776   1.645   2.586 -1.9834 -1.5584  3.4275
   54SOL     OW  160   1.987   0.413   1.245  0.2544 -0.1800 -0.6204
   54SOL    HW1  161   2.060   0.485   1.247  4.0860  0.8225  0.9514
   54SOL    HW2  162   2.023   0.327   1.289 -0.6126 -2.0604 -0.3869
   55SOL     OW  163   2.370   2.791   0.870  0.2949  0.5648 -0.0456
   55SOL    HW1  164   2.414   2.882   0.873 -0.8928 -0.3076 -0.8990
   55SOL    HW2  165   2.339   2.771   0.773  0.0678 -0.9357  2.1417
   56SOL     OW  166   0.452   2.847   1.293 -0.1191  0.2622 -0.5669
   56SOL    HW1  167   0.390   2.789   1.350  0.9969 -1.1988  0.6619
   56SOL    HW2  168   0.525   2.886   1.351 -3.3513  1.8663  1.6573
   57SOL     OW  169   1.678   1.228   0.729  0.3412 -0.0254 -0.6271
   57SOL    HW1  170   1.628   1.206   0.641 -1.2748 -0.7246 -0.1510
   57SOL    HW2  171   1.737   1.308   0.722 -0.9606  0.0033 -1.7857
   58SOL     OW  172   0.267   0.834   2.233  0.2579  0.1583  0.1384
   58SOL    HW1  173   0.267   0.929   2.193  1.4822  1.8638 -0.5485
   58SOL    HW2  174   0.174   0.819   2.280 -2.8004  0.1118  3.4638
   59SOL     OW  175   0.812   2.785   2.425  0.3186 -0.6629  0.0297
   59SOL    HW1  176   0.799   2.720   2.501  0.5474  1.8391 -0.4010
   59SOL    HW2  177   0.908   2.820   2.425  2.5073  0.3639 -0.3669
   60SOL     OW  178   2.687   2.642   1.035  0.3647 -0.4876  0.1672
   60SOL    HW1  179   2.604   2.603   0.986 -2.8517 -0.8298 -1.0999
   60SOL    HW2  180   2.658   2.719   1.099  0.4778  0.0036 -1.1013
   61SOL     OW  181   1.191   2.137   0.780  0.0983 -0.2872 -0.0452
   61SOL    HW1  182   1.126   2.204   0.818 -2.0529  2.1486 -1.3729
   61SOL    HW2  183   1.150   2.041   0.797 -3.6937 -4.8784  0.1621
   62SOL     OW  184   2.093   2.406   2.606  0.3910  0.2268 -0.5287
   62SOL    HW1  185   2.137   2.364   2.689  2.5442 -0.7232  2.5555
   62SOL    HW2  186   2.161   2.459   2.552 -1.3353 -0.2618 -0.5871
   63SOL     OW  187   2.280   0.549   2.983 -0.2327 -0.0722  0.5732
   63SOL    HW1  188   2.187   0.551   3.014  0.1177  0.0384 -1.0738
   63SOL    HW2  189   2.306   0.455   2.968 -0.7839  2.7503  4.1870
   64SOL     OW  190   0.976   0.721   3.038  0.2428 -0.4639  0.0081
   64SOL    HW1  191   1.065   0.671   3.039 -1.1299 -0.4855 -2.0762
   64SOL    HW2  192   0.982   0.814   0.002 -0.4640 -0.5775  1.9154
   65SOL     OW  193   1.135   2.260   0.541 -0.0664 -0.2611 -0.0087
   65SOL    HW1  194   1.147   2.192   0.618 -0.9205  2.6639 -0.7934
   65SOL    HW2  195   1.043   2.292   0.534  0.3891  0.2133 -0.4837
   66SOL     OW  196   0.705   1.179   1.681  0.6800 -0.0470  0.0750
   66SOL    HW1  197   0.638   1.121   1.732 -1.3651  1.4246 -1.5577
   66SOL    HW2  198   0.799   1.133   1.681 -1.1124 -1.3119  0.8704
   67SOL     OW  199   2.305   2.802   2.559 -0.4509 -0.1847  0.3707
   67SOL    HW1  200   2.287   2.831   2.653  1.4551 -0.4928 -1.0039
   67SOL    HW2  201   2.283   2.877   2.491  0.3718  2.2685  1.3739
   68SOL     OW  202   0.447   1.511   1.196  0.5317 -0.6799 -0.8074
   68SOL    HW1  203   0.404   1.468   1.275 -1.5117 -0.5108 -0.7743
   68SOL    HW2  204   0.530   1.559   1.225  0.2146 -3.7584 -0.9367
   69SOL     OW  205   1.436   2.397   0.082  0.2184  0.1290  0.4765
   69SOL    HW1  206   1.490   2.354   0.154 -0.7145 -0.4802 -0.9392
   69SOL    HW2  207   1.423   2.500   0.102 -0.0196  0.2487 -0.4982
   70SOL     OW  208   0.083   1.053   2.446 -0.0914  0.0460 -0.6134
   70SOL    HW1  209   3.067   1.068   2.482 -1.5731 -1.1519  4.2286
   70SOL    HW2  210   0.085   0.961   2.404 -1.3957 -0.3290  0.4336
   71SOL     OW  211   2.852   1.619   2.819 -0.0322 -0.7117 -0.3305
   71SOL    HW1  212   2.928   1.686   2.849  0.8337 -2.3459  1.4233
   71SOL    HW2  213   2.846   1.538   2.877 -0.2331 -3.5651 -0.7105
   72SOL     OW  214   2.804   2.391   0.347  0.4992  0.0237 -1.1286
   72SOL    HW1  215   2.864   2.464   0.316 -0.4284 -1.6916  2.4252
   72SOL    HW2  216   2.701   2.408   0.338 -1.1536  0.2357  1.1716
   73SOL     OW  217   0.716   1.711   0.347  0.0316  0.3678 -0.2450
   73SOL    HW1  218   0.685   1.809   0.362  1.3348  0.3409  1.2351
   73SOL    HW2  219   0.800   1.701   0.297 -3.4943  2.6112 -2.2795
   74SOL     OW  220   2.930   1.168   2.876 -0.1293 -0.3865 -0.1650
   74SOL    HW1  221   2.856   1.151   2.809 -0.1923  0.3394  0.9735
   74SOL    HW2  222   2.952   1.086   2.928 -2.4720  1.8145 -2.5712
   75SOL     OW  223   1.619   1.495   2.065 -0.5314  0.5599 -0.0100
   75SOL    HW1  224   1.588   1.513   2.163  0.3711  0.3437  2.2415
   75SOL    HW2  225   1.570   1.544   1.995  0.9822 -2.2415  0.4290
   76SOL     OW  226   1.690   2.297   1.448 -0.1118  0.2547  0.1640
   76SOL    HW1  227   1.666   2.274   1.546  1.1959  2.6157  1.2818
   76SOL    HW2  228   1.679   2.396   1.433  2.3115 -0.3565  1.9546
   77SOL     OW  229   2.601   0.990   1.267 -0.2046  0.0907 -0.2224
   77SOL    HW1  230   2.676   0.936   1.316  0.3330 -2.0175  2.6250
   77SOL    HW2  231   2.564   0.927   1.200  1.9065  2.2409 -1.9912
   78SOL     OW  232   1.332   0.968   0.576  0.5553 -0.0892  0.0057
   78SOL    HW1  233   1.308   1.067   0.559 -0.9052  1.1360 -2.8461
   78SOL    HW2  234   1.433   0.947   0.584 -2.1352 -0.0471  1.1986
   79SOL     OW  235   0.200   1.765   1.856 -0.5189  0.0785 -0.7492
   79SOL    HW1  236   0.187   1.665   1.846  1.7321 -0.5398  2.2526
   79SOL    HW2  237   0.224   1.801   1.765 -0.3848 -0.9927  1.0687
   80SOL     OW  238   1.528   1.084   1.667 -0.2854  0.3637  0.3238
   80SOL    HW1  239   1.582   0.998   1.691  1.2035 -1.2032  2.1691
   80SOL    HW2  240   1.497   1.084   1.566  0.4612  0.9552 -4.3881
   81SOL     OW  241   0.821   0.125   0.798 -0.2760 -0.2481 -0.4976
   81SOL    HW1  242   0.753   0.099   0.728 -3.2211 -0.8653 -1.4238
   81SOL    HW2  243   0.912   0.077   0.779  0.9172  0.9243 -0.1875
   82SOL     OW  244   1.631   2.670   1.603  0.4832  0.3079 -0.0783
   82SOL    HW1  245   1.662   2.651   1.507  0.0820 -0.8420 -0.7927
   82SOL    HW2  246   1.715   2.648   1.660  3.3708 -2.1823 -0.2830
   83SOL     OW  247   0.628   2.095   0.896 -0.1892  0.5253  0.0029
   83SOL    HW1  248   0.529   2.105   0.924  0.1129 -2.2681  1.4240
   83SOL    HW2  249   0.684   2.058   0.972 -2.1737 -0.0392  0.1608
   84SOL     OW  250   0.282   1.498   2.607  0.5742  0.1975  0.0007
   84SOL    HW1  251   0.233   1.427   2.550 -1.2051  0.4558  0.7026
   84SOL    HW2  252   0.320   1.571   2.551 -0.6313 -1.0422  1.6483
   85SOL     OW  253   0.151   2.252   1.414 -0.8371 -0.1032 -0.3832
   85SOL    HW1  254   0.060   2.248   1.459  1.3501  0.5606  0.5301
   85SOL    HW2  255   0.184   2.349   1.417  0.6886 -1.4914  0.3922
   86SOL     OW  256   2.403   2.284   1.636  0.5055 -0.1777 -0.1926
   86SOL    HW1  257   2.370   2.362   1.692 -0.4889 -2.5220  2.1608
   86SOL    HW2  258   2.412   2.310   1.537  2.4115  1.1588 -2.9748
   87SOL     OW  259   2.586   2.136   3.040  0.1638  0.1564 -0.1038
   87SOL    HW1  260   2.580   2.097   0.055 -0.3345 -0.5777  1.2914
   87SOL    HW2  261   2.685   2.141   3.015  1.9455 -1.7977 -2.3752
   88SOL     OW  262   0.438   1.624   0.944 -0.2094  0.3542  0.8595
   88SOL    HW1  263   0.456   1.577   1.034 -1.6339 -1.6278  1.1384
   88SOL    HW2  264   0.359   1.688   0.947  1.4554  2.1102  0.1737
   89SOL     OW  265   1.127   2.691   1.802 -0.0281 -0.0792  0.0747
   89SOL    HW1  266   1.211   2.670   1.748 -0.2114 -2.4498 -0.1821
   89SOL    HW2  267   1.092   2.784   1.780 -3.2223 -0.8353 -0.4666
   90SOL     OW  268   3.052   1.813   1.515 -0.3192  0.3961 -0.8568
   90SOL    HW1  269   3.008   1.772   1.595  0.9735 -0.7777  3.5594
   90SOL    HW2  270   0.073   1.819   1.511  2.4398 -1.6561  0.6815
   91SOL     OW  271   1.443   2.062   0.873 -0.0603 -0.3563 -0.4421
   91SOL    HW1  272   1.358   2.099   0.832  3.3446  0.9771 -0.9527
   91SOL    HW2  273   1.496   2.133   0.925  1.6680 -0.5301  3.8036
   92SOL     OW  274   2.550   2.635   1.372  0.1039  0.4787 -0.8569
   92SOL    HW1  275   2.567   2.649   1.470  1.5603 -2.6203  0.1853
   92SOL    HW2  276   2.536   2.721   1.317  0.2210  0.7307  1.2417
   93SOL     OW  277   2.582   1.332   2.609  0.4094  0.3279 -0.0214
   93SOL    HW1  278   2.530   1.316   2.522  2.9530  1.5901 -0.5172
   93SOL    HW2  279   2.612   1.429   2.609 -2.9635 -1.3210  0.7736
   94SOL     OW  280   2.781   2.624   2.244  0.2551  0.2328 -0.0419
   94SOL    HW1  281   2.837   2.551   2.208  1.8900  1.5303  1.8715
   94SOL    HW2  282   2.697   2.582   2.289  0.1868 -2.2126 -1.8663
   95SOL     OW  283   1.753   0.301   1.567  0.2085 -0.3409  0.3143
   95SOL    HW1  284   1.720   0.217   1.521  0.0747 -0.9613 -0.0996
   95SOL    HW2  285   1.728   0.307   1.663  3.8540  1.0283 -3.1012
   96SOL     OW  286   3.057   2.905   1.491 -0.5405 -0.6879  0.7180
   96SOL    HW1  287   2.991   2.974   1.454 -2.9761  1.2111  0.2450
   96SOL    HW2  288   3.018   2.833   1.544 -1.5493  2.2054  0.4659
   97SOL     OW  289   2.136   0.237   1.416 -0.3405  0.5237 -0.1647
   97SOL    HW1  290   2.240   0.239   1.396  2.8649  0.0249  0.4458
   97SOL    HW2  291   2.115   0.305   1.492  0.2398 -3.4492  3.1830
   98SOL     OW  292   1.322   2.254   1.483  0.4323  0.1235 -0.0530
   98SOL    HW1  293   1.359   2.344   1.503 -1.5654  0.6334  0.3141
   98SOL    HW2  294   1.383   2.204   1.419  0.2629  2.2450  0.0731
   99SOL     OW  295   0.095   2.883   1.854  0.1800 -0.0310 -0.4245
   99SOL    HW1  296   0.186   2.861   1.809  2.2110 -2.2119 -0.6626
   99SOL    HW2  297   0.099   2.873   1.954  0.6834  1.1902 -0.5360
  100SOL     OW  298   0.028   1.241   2.191  0.0594  0.1913  0.0102
  100SOL    HW1  299   0.014   1.305   2.118 -0.3480  1.8042  0.5914
  100SOL    HW2  300   3.019   1.200   2.231 -3.3008 -1.7822  2.2954
  101SOL     OW  301   2.125   0.790   0.333 -0.6738  0.0158 -0.7787
  101SOL    HW1  302   2.222   0.770   0.329  2.7839 -1.3554  0.3503
  101SOL    HW2  303   2.100   0.884   0.307 -1.6959 -0.8044  0.1027
  102SOL     OW  304   0.075   0.614   1.172 -0.1081 -0.2291  0.1667
  102SOL    HW1  305   0.043   0.603   1.074 -0.1873 -1.3250 -2.9703
  102SOL    HW2  306   0.046   0.698   1.219  1.0515 -1.8179 -2.7905
  103SOL     OW  307   2.502   0.784   2.666  0.3767 -0.2634 -0.2474
  103SOL    HW1  308   2.408   0.759   2.697  2.5989  0.4492  0.5207
  103SOL    HW2  309   2.560   0.833   2.734  1.4195 -0.3415 -1.5191
  104SOL     OW  310   0.242   0.166   2.398 -0.0639 -0.0791  0.2156
  104SOL    HW1  311   0.216   0.256   2.364  0.7883 -1.0179 -0.6663
  104SOL    HW2  312   0.254   0.166   2.500  1.8225 -1.2142  0.5865
  105SOL     OW  313   1.945   1.038   1.584  0.3929 -0.0246 -0.2688
  105SOL    HW1  314   1.890   0.961   1.618 -0.2822 -2.4175  2.5237
  105SOL    HW2  315   1.878   1.110   1.551 -2.2637 -0.4966 -1.3978
  106SOL     OW  316   1.046   3.043   0.773 -0.0833 -0.0554  0.1980
  106SOL    HW1  317   1.130   0.021   0.766 -0.9917 -0.3634 -1.1046
  106SOL    HW2  318   1.041   2.997   0.863 -2.4426  0.1828  1.4662
  107SOL     OW  319   0.127   1.614   1.085  0.3042 -0.4071  0.1102
  107SOL    HW1  320   0.075   1.534   1.057  1.9002 -0.7500  0.9687
  107SOL    HW2  321   0.085   1.702   1.055 -0.6336  0.7195  1.3692
  108SOL     OW  322   0.287   3.018   2.269 -0.2168  0.0086 -0.3107
  108SOL    HW1  323   0.315   2.951   2.340  2.8423 -1.7626  1.7538
  108SOL    HW2  324   0.259   0.025   2.316  1.7659  0.9100  0.0800
  109SOL     OW  325   2.295   0.135   0.416 -0.1006 -0.2458  0.0197
  109SOL    HW1  326   2.207   0.114   0.374  1.0506 -0.6968 -1.1937
  109SOL    HW2  327   2.362   0.134   0.346 -1.9060  2.6896  0.2377
  110SOL     OW  328   0.267   2.206   2.730 -0.3649 -0.0936  0.1873
  110SOL    HW1  329   0.184   2.175   2.680  0.9738  0.7208 -0.7776
  110SOL    HW2  330   0.299   2.303   2.715 -1.3332 -0.3617  1.1068
  111SOL     OW  331   1.596   2.848   2.118 -0.2219  0.0387 -0.1824
  111SOL    HW1  332   1.543   2.871   2.035  1.7515 -0.1025  0.6625
  111SOL    HW2  333   1.678   2.909   2.128  0.6492  0.1962  0.0742
  112SOL     OW  334   1.805   2.403   2.819 -0.1909 -0.4116  0.2165
  112SOL    HW1  335   1.798   2.320   2.761 -0.3538 -1.4356  0.7286
  112SOL    HW2  336   1.750   2.479   2.785  2.7058 -1.4947 -2.0130
  113SOL     OW  337   2.621   2.283   1.968  0.0454  0.0727  0.3136
  113SOL    HW1  338   2.578   2.199   2.015  1.1108  2.3782  0.1217
  113SOL    HW2  339   2.706   2.260   1.917 -0.7704 -0.6788 -0.0069
  114SOL     OW  340   2.315   0.951   1.137  0.2804 -0.0758 -0.3165
  114SOL    HW1  341   2.232   0.997   1.170  1.8078 -1.5679  0.9244
  114SOL    HW2  342   2.351   1.021   1.073 -0.6448 -1.5844 -0.6395
  115SOL     OW  343   3.050   1.767   2.933 -0.0163  0.1384 -0.1235
  115SOL    HW1  344   0.064   1.733   2.914 -0.0639  1.9632  1.2572
  115SOL    HW2  345   3.056   1.866   2.905  2.5286  0.8791 -1.2649
  116SOL     OW  346   0.258   1.491   2.239  0.5579  0.2081  0.1539
  116SOL    HW1  347   0.311   1.539   2.311  0.0493 -0.7863  0.1019
  116SOL    HW2  348   0.316   1.484   2.157  0.3574  0.4978 -2.1268
  117SOL     OW  349   2.525   0.233   0.860  0.3365 -0.8303  0.5683
  117SOL    HW1  350   2.491   0.146   0.899  0.5503 -1.3454 -0.0982
  117SOL    HW2  351   2.480   0.256   0.772  0.1263 -3.4112  2.2480
  118SOL     OW  352   0.660   2.142   1.597 -0.4478 -0.5147 -0.0387
  118SOL    HW1  353   0.749   2.090   1.602  1.4679 -0.2182 -0.7874
  118SOL    HW2  354   0.644   2.165   1.500  2.4283 -3.2683  2.5081
  119SOL     OW  355   1.594   2.279   0.283 -0.0268  0.3854  0.1957
  119SOL    HW1  356   1.670   2.237   0.227  2.7252  2.0342 -1.2933
  119SOL    HW2  357   1.629   2.316   0.369 -1.8500 -3.1175  0.0168
  120SOL     OW  358   0.406   1.681   2.406 -0.1927  0.6737  0.7949
  120SOL    HW1  359   0.344   1.763   2.426  1.9983 -2.3477  1.6074
  120SOL    HW2  360   0.457   1.701   2.317  1.3556  0.7300  0.8807
  121SOL     OW  361   2.099   2.227   1.302 -0.1000 -0.1745 -0.5197
  121SOL    HW1  362   2.165   2.159   1.335 -1.0367  0.3799  0.7312
  121SOL    HW2  363   2.135   2.274   1.222  0.2184  1.0650  0.6471
  122SOL     OW  364   2.298   2.121   2.027 -0.7788 -0.0076 -0.1456
  122SOL    HW1  365   2.217   2.059   2.018  0.0246 -0.3727  1.5381
  122SOL    HW2  366   2.388   2.066   2.030  1.1166 -1.3999  2.2715
  123SOL     OW  367   2.853   0.046   0.563 -0.3160  0.3441 -0.0487
  123SOL    HW1  368   2.858   0.096   0.651  0.8494  1.3126 -0.7478
  123SOL    HW2  369   2.849   3.025   0.581 -1.7239 -1.4256 -0.1938
  124SOL     OW  370   1.750   0.453   2.596  0.2897  0.3048  0.4366
  124SOL    HW1  371   1.733   0.451   2.495 -0.1762 -1.7571 -0.2989
  124SOL    HW2  372   1.671   0.486   2.650 -0.8145 -0.2878 -2.8082
  125SOL     OW  373   0.489   1.328   0.122  0.3119  0.2201  0.1806
  125SOL    HW1  374   0.472   1.412   0.061 -1.8400  2.2206  0.4584
  125SOL    HW2  375   0.455   1.245   0.066  0.0855 -3.6994 -0.0525
  126SOL     OW  376   2.510   2.064   0.227  0.0814 -0.2281 -0.1905
  126SOL    HW1  377   2.496   2.002   0.307  0.9420 -0.8476 -1.5433
  126SOL    HW2  378   2.432   2.130   0.226 -1.2439 -0.4173 -0.6066
  127SOL     OW  379   0.248   1.840   0.917  0.5246 -0.1933  0.4239
  127SOL    HW1  380   0.154   1.847   0.950  1.3632 -0.7731 -0.1361
  127SOL    HW2  381   0.291   1.927   0.880  3.0186  1.4816 -2.3697
  128SOL     OW  382   0.726   0.632   3.001  0.0742  0.0625  0.3068
  128SOL    HW1  383   0.812   0.678   3.030  2.2950 -0.2862  2.7044
  128SOL    HW2  384   0.651   0.672   3.051  1.7839  2.3415  0.7645
  129SOL     OW  385   2.491   1.609   0.954 -0.5332  0.4567 -0.1420
  129SOL    HW1  386   2.402   1.631   0.996  1.3225 -2.1956  0.2244
  129SOL    HW2  387   2.548   1.687   0.932 -2.8777  1.8454 -1.5943
  130SOL     OW  388   2.279   1.831   1.161 -0.2259  0.1346  0.3064
  130SOL    HW1  389   2.270   1.864   1.066 -0.3072  1.1754  2.7618
  130SOL    HW2  390   2.259   1.731   1.170 -0.7583  1.4126 -0.1546
  131SOL     OW  391   2.901   0.928   3.026 -0.2468 -0.3564 -0.3773
  131SOL    HW1  392   2.834   0.850   3.000 -2.6402 -1.1317 -1.1977
  131SOL    HW2  393   2.992   0.902   2.981  4.3359 -1.0828 -0.5903
  132SOL     OW  394   2.772   1.787   1.814  0.1705 -0.2972  0.4941
  132SOL    HW1  395   2.814   1.879   1.800  1.5629  1.2292  3.6914
  132SOL    HW2  396   2.820   1.741   1.894 -0.4805 -0.1801  3.8069
  133SOL     OW  397   0.005   0.876   0.731 -0.4752  0.1449  0.0428
  133SOL    HW1  398   0.107   0.888   0.734  0.4401 -1.0442 -0.1573
  133SOL    HW2  399   3.030   0.933   0.798  0.9930  1.5682 -0.9348
  134SOL     OW  400   0.367   1.072   0.089 -0.0159  0.0799  0.0660
  134SOL    HW1  401   0.330   0.980   0.114 -2.3680 -2.2988  0.5509
  134SOL    HW2  402   0.448   1.070   0.027 -1.1464  0.5950  3.5533
  135SOL     OW  403   1.927   1.256   1.276 -0.6755  0.2549 -0.4882
  135SOL    HW1  404   1.850   1.228   1.337 -1.3079  0.8684  0.0051
  135SOL    HW2  405   1.905   1.237   1.177 -1.8762  1.2498 -2.1475
  136SOL     OW  406   1.886   1.113   1.012 -0.1295  0.5946  0.4849
  136SOL    HW1  407   1.945   1.036   1.052  1.5938 -1.2540 -0.3513
  136SOL    HW2  408   1.790   1.079   0.997 -0.2201 -0.5226 -0.0119
  137SOL     OW  409   2.415   1.849   0.765 -0.5302 -0.2131 -0.2217
  137SOL    HW1  410   2.486   1.808   0.704 -0.9465 -0.8102  2.0893
  137SOL    HW2  411   2.365   1.928   0.727  1.3135 -1.6184  1.3720
  138SOL     OW  412   1.609   0.539   1.972 -0.4015 -0.4409 -0.4705
  138SOL    HW1  413   1.538   0.502   2.037  1.9760 -1.5840 -1.4220
  138SOL    HW2  414   1.685   0.588   2.020 -2.9368 -0.4266 -0.5453
  139SOL     OW  415   2.126   0.079   3.011 -0.0241 -0.7382  0.2523
  139SOL    HW1  416   2.203   0.067   2.941  1.9250 -1.3595 -2.5988
  139SOL    HW2  417   2.084   0.170   2.991 -0.0509 -1.9504  0.4833
  140SOL     OW  418   1.448   2.239   2.401 -0.3806  0.2003  0.1649
  140SOL    HW1  419   1.424   2.244   2.503  0.9363  0.7546 -0.5541
  140SOL    HW2  420   1.537   2.192   2.378  1.9726 -1.8433 -1.5255
  141SOL     OW  421   1.324   1.468   1.547  0.4592  0.2806  0.2061
  141SOL    HW1  422   1.291   1.459   1.644 -3.5266 -1.6489  0.6945
  141SOL    HW2  423   1.424   1.451   1.539  1.1666 -0.9263 -0.2844
  142SOL     OW  424   2.688   0.132   2.924 -0.7611 -0.1295 -0.4788
  142SOL    HW1  425   2.776   0.083   2.907  0.8062 -0.6032 -0.9931
  142SOL    HW2  426   2.640   0.068   2.981  5.5700 -1.3942 -1.8416
  143SOL     OW  427   0.445   2.468   2.894  0.2621 -0.0535  0.7418
  143SOL    HW1  428   0.512   2.479   2.976  0.9052 -1.3883  0.1730
  143SOL    HW2  429   0.488   2.488   2.805 -0.0755  0.5970 -0.5300
  144SOL     OW  430   0.823   2.742   1.918  0.2547 -0.0745 -0.4724
  144SOL    HW1  431   0.837   2.703   2.011 -0.0328 -0.8423  1.2725
  144SOL    HW2  432   0.857   2.677   1.848 -0.4704 -3.2141  2.0676
  145SOL     OW  433   2.378   1.498   0.451  0.0365  0.1481 -0.1931
  145SOL    HW1  434   2.411   1.457   0.363  0.2285  0.1990  1.4037
  145SOL    HW2  435   2.356   1.427   0.520 -0.1116 -1.7089  1.2631
  146SOL     OW  436   2.636   2.868   2.724  0.3771  0.0740 -0.6252
  146SOL    HW1  437   2.608   2.963   2.706  0.9368  1.2977 -0.0623
  146SOL    HW2  438   2.686   2.871   2.813  0.0172  1.0953 -1.8105
  147SOL     OW  439   2.932   2.527   1.050  0.8417 -0.8025  0.5271
  147SOL    HW1  440   2.993   2.573   1.116  2.9967 -0.8319 -0.1016
  147SOL    HW2  441   2.845   2.578   1.041  0.9536 -1.0154  0.4782
  148SOL     OW  442   1.686   0.094   0.128 -0.1547  0.0848  0.0201
  148SOL    HW1  443   1.641   0.025   0.192  2.1770  0.3895  0.2960
  148SOL    HW2  444   1.740   0.047   0.055  4.5111  0.8066  1.4662
  149SOL     OW  445   0.876   0.808   2.781  0.1149  0.5417  0.3012
  149SOL    HW1  446   0.891   0.739   2.853  1.7753  0.4474 -3.6214
  149SOL    HW2  447   0.884   0.901   2.815 -0.1077  0.6098  0.7811
  150SOL     OW  448   1.056   2.616   0.677  0.4325  0.1579  0.9075
  150SOL    HW1  449   1.067   2.521   0.646  0.9455  0.1169  1.2884
  150SOL    HW2  450   0.957   2.635   0.701  2.4218  2.5653 -0.8810
  151SOL     OW  451   0.158   1.900   0.117 -0.4711  0.2999  0.7129
  151SOL    HW1  452   0.173   1.796   0.119  0.1713  0.6389 -0.0583
  151SOL    HW2  453   0.179   1.941   0.023  0.6721  0.5797 -2.7857
  152SOL     OW  454   0.302   1.358   0.565 -0.0782 -0.2343 -0.1492
  152SOL    HW1  455   0.360   1.314   0.493 -1.0368  1.8537  0.4857
  152SOL    HW2  456   0.260   1.290   0.627  0.4164  0.4786 -0.0609
  153SOL     OW  457   2.444   2.567   3.013  0.0415  0.2987 -0.4695
  153SOL    HW1  458   2.516   2.499   3.047 -0.0169  0.8017  3.3850
  153SOL    HW2  459   2.354   2.523   2.999 -3.1456  0.7385  0.5366
  154SOL     OW  460   0.640   0.372   1.140 -0.1597 -0.2885  0.6154
  154SOL    HW1  461   0.672   0.279   1.107 -1.0849  0.6509 -2.6679
  154SOL    HW2  462   0.596   0.363   1.232  0.2035 -1.9376  0.5608
  155SOL     OW  463   2.969   2.054   1.143 -0.4387 -0.3440 -0.1197
  155SOL    HW1  464   2.959   1.967   1.091 -2.2275 -0.5128  0.4180
  155SOL    HW2  465   2.958   2.029   1.242 -1.9439  2.0763  1.3363
  156SOL     OW  466   2.053   2.164   3.068  0.0470 -0.4435  0.4422
  156SOL    HW1  467   2.102   2.080   0.032 -1.5857 -2.0616  2.3855
  156SOL    HW2  468   2.100   2.252   0.013  0.3947  1.0590 -1.4063
  157SOL     OW  469   0.739   2.544   0.954  0.1593  0.0069  0.1379
  157SOL    HW1  470   0.757   2.452   0.910  2.1538  2.7794 -0.3516
  157SOL    HW2  471   0.732   2.533   1.054  1.1480 -1.6146 -1.0032
  158SOL     OW  472   2.233   0.651   2.729  0.0467 -0.2214 -0.4247
  158SOL    HW1  473   2.264   0.599   2.809 -0.4458  1.6842 -0.7200
  158SOL    HW2  474   2.131   0.648   2.710 -1.8437 -0.2443 -1.8080
  159SOL     OW  475   0.724   0.085   2.557 -0.3505  0.2611 -0.2263
  159SOL    HW1  476   0.743   0.028   2.645 -0.8015  0.9140  0.9843
  159SOL    HW2  477   0.805   0.135   2.525  0.7149 -1.8332  2.8632
  160SOL     OW  478   0.979   1.895   0.188  0.1225 -0.6435 -0.0253
  160SOL    HW1  479   1.005   1.911   0.286  0.7902  0.1990 -1.6553
  160SOL    HW2  480   0.966   1.794   0.170 -2.9816 -2.1292  0.1905
  161SOL     OW  481   3.074   2.271   2.903  1.2021  0.2724  0.2073
  161SOL    HW1  482   0.051   2.353   2.925 -0.4239 -1.0121 -1.0231
  161SOL    HW2  483   2.995   2.266   2.968 -0.9455  1.3920 -0.2166
  162SOL     OW  484   0.499   2.589   0.828  0.2118  0.1190 -0.3865
  162SOL    HW1  485   0.578   2.570   0.891  0.1690 -2.0483  0.3923
  162SOL    HW2  486   0.420   2.608   0.886  2.1270 -0.5264 -2.1409
  163SOL     OW  487   2.529   0.626   3.049  0.7321  0.1351 -0.3889
  163SOL    HW1  488   2.542   0.551   0.042  0.2858 -2.8022  1.5489
  163SOL    HW2  489   2.434   0.613   3.011  1.4797  0.0696  0.1767
  164SOL     OW  490   3.032   2.678   0.512 -0.2366 -0.0382 -0.3572
  164SOL    HW1  491   2.997   2.619   0.435 -1.1278 -0.4190 -1.0824
  164SOL    HW2  492   3.011   2.774   0.503  2.3419  0.4572 -2.3084
  165SOL     OW  493   2.388   0.428   1.228  0.4847  0.4221  0.3779
  165SOL    HW1  494   2.411   0.390   1.323  0.5095 -0.5424  0.3536
  165SOL    HW2  495   2.320   0.503   1.237 -0.9615 -1.2166 -1.4632
  166SOL     OW  496   2.011   0.241   1.005 -0.2570  0.0861 -0.4329
  166SOL    HW1  497   2.115   0.231   1.003  2.0428 -1.4733 -0.0150
  166SOL    HW2  498   1.987   0.301   1.086  1.0394 -0.1056  0.0414
  167SOL     OW  499   0.332   0.622   1.397  0.5934 -0.1839  0.1592
  167SOL    HW1  500   0.283   0.594   1.482  2.9606  1.5712 -0.5754
  167SOL    HW2  501   0.269   0.632   1.319  1.5780  0.8587 -1.7002
  168SOL     OW  502   2.650   3.012   2.208  0.3010  0.1888  0.7881
  168SOL    HW1  503   2.612   2.934   2.258  2.0125  2.0942  2.0863
  168SOL    HW2  504   2.669   0.006   2.281  0.8518  0.0357  0.3563
  169SOL     OW  505   0.002   1.376   0.758 -0.0613  0.4611  0.3194
  169SOL    HW1  506   0.018   1.463   0.706  1.5066  1.7869 -1.6580
  169SOL    HW2  507   3.072   1.408   0.856 -0.0301 -1.9807 -0.4745
  170SOL     OW  508   2.968   0.725   1.489 -0.0303 -0.7336 -0.0235
  170SOL    HW1  509   3.058   0.685   1.517  3.0094 -0.1801  3.1708
  170SOL    HW2  510   2.904   0.723   1.564 -0.6485 -1.4076 -1.2325
  171SOL     OW  511   1.050   2.221   1.521  0.2342 -0.3693 -0.3336
  171SOL    HW1  512   1.148   2.212   1.494 -1.2792  1.4755  0.1774
  171SOL    HW2  513   1.038   2.290   1.593 -0.9968  0.1174  0.4918
  172SOL     OW  514   0.381   2.434   1.100 -0.0237  0.2338  0.3286
  172SOL    HW1  515   0.380   2.340   1.062 -0.4128 -1.6265 -0.0384
  172SOL    HW2  516   0.319   2.488   1.039 -1.1433 -0.5604 -1.5130
  173SOL     OW  517   1.131   0.067   0.216  0.1872 -0.2561  0.2273
  173SOL    HW1  518   1.068   0.122   0.161 -2.6286  1.0633 -1.1916
  173SOL    HW2  519   1.212   0.122   0.234 -2.9403  2.5703  0.0686
  174SOL     OW  520   0.835   2.616   2.651 -0.2423 -0.4837  0.9845
  174SOL    HW1  521   0.935   2.589   2.630  2.3511  0.2154 -1.1769
  174SOL    HW2  522   0.821   2.591   2.748 -1.3557 -0.1761 -1.8027
  175SOL     OW  523   1.557   0.605   0.320 -0.7536  0.0326 -0.4769
  175SOL    HW1  524   1.628   0.554   0.376 -0.6329  0.5606 -1.2792
  175SOL    HW2  525   1.579   0.703   0.315 -2.1519 -1.2482  0.3760
  176SOL     OW  526   1.345   0.231   0.298  0.0820  0.1347  0.2133
  176SOL    HW1  527   1.404   0.277   0.227  0.0912  0.9021 -3.1550
  176SOL    HW2  528   1.405   0.179   0.366  2.1729 -0.9416  0.9697
  177SOL     OW  529   1.318   1.102   1.004  0.3886  0.0630  0.3766
  177SOL    HW1  530   1.389   1.149   0.948  1.4960  0.3460 -1.0116
  177SOL    HW2  531   1.232   1.161   1.009 -0.7723  0.8048 -0.0167
  178SOL     OW  532   2.116   1.736   2.119  0.0816 -0.0084 -0.2772
  178SOL    HW1  533   2.215   1.719   2.127  0.9287  1.1581 -0.0593
  178SOL    HW2  534   2.064   1.646   2.131 -4.0681  0.0828  0.0851
  179SOL     OW  535   0.568   2.518   2.649  0.2608 -0.1203 -0.1553
  179SOL    HW1  536   0.671   2.524   2.635 -1.0163 -0.8309 -1.6700
  179SOL    HW2  537   0.520   2.502   2.562  0.5016  1.6649  1.4465
  180SOL     OW  538   1.560   1.954   1.766  0.4780 -0.0399 -0.7875
  180SOL    HW1  539   1.607   1.906   1.846  1.6136 -0.4265  4.0350
  180SOL    HW2  540   1.581   1.913   1.677  0.1742 -1.6577  3.1524
  181SOL     OW  541   1.517   1.249   2.462  0.3470 -0.0351 -0.1971
  181SOL    HW1  542   1.470   1.261   2.551  0.2900 -1.6926 -1.9762
  181SOL    HW2  543   1.473   1.183   2.399  0.3850  0.9402 -2.4307
  182SOL     OW  544   0.008   0.691   2.657  0.2797  0.5150  0.0018
  182SOL    HW1  545   3.008   0.634   2.690 -1.6775 -0.6107  2.2646
  182SOL    HW2  546   0.079   0.635   2.609  2.1895 -0.3288  1.2569
  183SOL     OW  547   1.132   0.188   2.657  0.3936 -0.2251 -0.4852
  183SOL    HW1  548   1.217   0.236   2.683 -1.4746  0.5272  1.6823
  183SOL    HW2  549   1.050   0.250   2.657 -1.0739 -0.7202  0.8077
  184SOL     OW  550   0.934   0.541   1.421  0.2508  0.0435 -0.2476
  184SOL    HW1  551   0.921   0.642   1.442  0.2703 -0.9976 -1.0158
  184SOL    HW2  552   0.936   0.531   1.317  3.1798 -1.3463 -2.2088
  185SOL     OW  553   3.063   1.400   1.022  0.5637  0.2461 -0.4247
  185SOL    HW1  554   2.982   1.412   1.083  1.0647 -1.0564 -2.7687
  185SOL    HW2  555   0.032   1.312   1.041 -1.0343 -1.7519  0.1935
  186SOL     OW  556   0.504   1.822   2.841 -0.6116  0.3953 -0.5791
  186SOL    HW1  557   0.503   1.862   2.932  1.1609 -0.4975  0.1781
  186SOL    HW2  558   0.482   1.883   2.765 -0.1072 -4.5810  0.7130
  187SOL     OW  559   2.421   1.393   0.201  0.3706 -0.1252 -0.2869
  187SOL    HW1  560   2.479   1.316   0.167 -0.3933 -0.4193 -0.3515
  187SOL    HW2  561   2.353   1.417   0.131 -2.0677  0.6077  0.4660
  188SOL     OW  562   0.188   2.510   0.516 -0.3621 -0.3155 -0.0715
  188SOL    HW1  563   0.214   2.482   0.425  0.8158  1.7010  0.0117
  188SOL    HW2  564   0.106   2.572   0.519 -1.4216 -0.1755  1.2873
  189SOL     OW  565   2.537   0.774   0.218  0.0346 -0.1613  0.6203
  189SOL    HW1  566   2.527   0.713   0.138 -1.2309 -2.8190  0.6792
  189SOL    HW2  567   2.617   0.739   0.279 -0.3457 -1.1472  1.3329
  190SOL     OW  568   1.411   1.680   2.156  0.1135 -0.1474 -0.0951
  190SOL    HW1  569   1.421   1.643   2.249 -1.1299 -1.0247  2.4883
  190SOL    HW2  570   1.396   1.780   2.160 -0.6743  3.0338 -0.1000
  191SOL     OW  571   2.428   0.347   1.473 -0.2505 -0.0868 -0.1794
  191SOL    HW1  572   2.524   0.326   1.458 -0.6313 -0.8971  1.4387
  191SOL    HW2  573   2.416   0.389   1.567  1.0299  2.3530 -0.8914
  192SOL     OW  574   2.123   0.317   1.862 -0.1037  0.2555  0.1809
  192SOL    HW1  575   2.089   0.240   1.920 -0.5203 -0.9488 -0.1707
  192SOL    HW2  576   2.221   0.307   1.839 -0.1966  0.5402 -2.0703
  193SOL     OW  577   0.899   0.508   0.305  0.9921 -0.0965 -0.3471
  193SOL    HW1  578   0.919   0.466   0.393  1.6027 -1.6332  0.3242
  193SOL    HW2  579   0.810   0.560   0.305 -0.3002  0.3907 -3.8274
  194SOL     OW  580   0.935   2.786   1.222  0.1270  0.0576 -0.2050
  194SOL    HW1  581   0.979   2.824   1.143 -0.8065 -0.8967 -0.4193
  194SOL    HW2  582   0.910   2.857   1.287 -0.6251  1.9343 -1.4342
  195SOL     OW  583   2.117   0.752   0.980 -0.0032 -0.0291 -0.3329
  195SOL    HW1  584   2.175   0.773   0.899 -0.8660  0.9281  0.4049
  195SOL    HW2  585   2.118   0.829   1.045  0.1316 -0.5192 -0.6977
  196SOL     OW  586   1.683   1.832   2.050  0.2265 -0.3067  0.6681
  196SOL    HW1  587   1.709   1.931   2.047 -0.7023 -0.7681  1.7373
  196SOL    HW2  588   1.599   1.817   2.105 -2.3905 -1.9917  1.2014
  197SOL     OW  589   0.167   0.133   0.100  0.5041  0.1387 -0.1530
  197SOL    HW1  590   0.228   0.149   0.181  0.9737  1.4565 -1.3991
  197SOL    HW2  591   0.216   0.077   0.030  0.1720 -0.6943  0.8698
  198SOL     OW  592   0.966   1.150   0.718 -0.1968  0.2149 -0.0206
  198SOL    HW1  593   0.982   1.241   0.753  0.0387 -1.0484 -1.2298
  198SOL    HW2  594   0.940   1.084   0.784 -1.3651  1.3870 -1.1290
  199SOL     OW  595   0.072   0.933   1.946 -0.3351 -0.8690 -0.4162
  199SOL    HW1  596   0.054   0.866   2.019 -0.0358 -1.9961 -2.3768
  199SOL    HW2  597   0.139   1.008   1.978  1.2532  1.9058  1.8509
  200SOL     OW  598   2.689   1.995   2.683 -0.7400  0.4894 -0.2637
  200SOL    HW1  599   2.645   1.991   2.592  1.2731  0.4541  0.7776
  200SOL    HW2  600   2.700   2.094   2.714  0.8435  1.6230 -0.1694
  201SOL     OW  601   2.377   0.166   1.183  0.0820  0.7045  0.5294
  201SOL    HW1  602   2.392   0.266   1.196 -0.3631 -1.5437 -1.2400
  201SOL    HW2  603   2.327   0.142   1.092 -0.8472  0.9156 -2.0009
  202SOL     OW  604   2.364   0.643   0.374  0.2938  0.0821 -0.2095
  202SOL    HW1  605   2.389   0.664   0.473  0.4000  2.5207  1.4769
  202SOL    HW2  606   2.427   0.701   0.315  1.5767  0.7740 -0.7224
  203SOL     OW  607   1.618   2.023   2.311 -0.3628  0.3800 -0.5924
  203SOL    HW1  608   1.555   2.027   2.233  1.5219 -0.6920 -2.3141
  203SOL    HW2  609   1.596   1.945   2.374 -0.2094 -0.7913  2.3869
  204SOL     OW  610   0.971   1.748   2.255  0.1159  0.1690 -0.3604
  204SOL    HW1  611   0.927   1.657   2.230 -2.1339  0.2799 -0.5817
  204SOL    HW2  612   0.996   1.751   2.350 -1.8567 -0.3912 -0.9838
  205SOL     OW  613   0.888   2.014   1.539 -0.0301  0.0351 -0.1312
  205SOL    HW1  614   0.964   2.084   1.533 -0.1752 -0.2314  1.7270
  205SOL    HW2  615   0.911   1.945   1.611 -2.9174  2.1604  1.7970
  206SOL     OW  616   0.095   0.386   3.061  0.8304 -0.6121  0.1199
  206SOL    HW1  617   0.133   0.306   0.031  0.4191 -0.3575  1.2264
  206SOL    HW2  618   0.003   0.369   3.016 -2.5575 -0.7454 -3.7005
  207SOL     OW  619   1.793   2.649   2.137  0.7086  0.4599  0.5097
  207SOL    HW1  620   1.711   2.700   2.155  0.4344  0.0894  1.7090
  207SOL    HW2  621   1.866   2.697   2.087  2.4418  0.1074 -2.2522
  208SOL     OW  622   0.358   2.116   1.553  0.2371  0.0541  0.0711
  208SOL    HW1  623   0.285   2.169   1.506  0.8275  1.0027 -0.7267
  208SOL    HW2  624   0.386   2.157   1.644 -1.9182  1.8053 -0.3782
  209SOL     OW  625   1.597   0.873   2.649  0.5765  0.1133 -0.5261
  209SOL    HW1  626   1.501   0.898   2.623 -2.4629 -0.4254 -0.2628
  209SOL    HW2  627   1.656   0.870   2.566 -0.3638 -1.0922  2.3864
  210SOL     OW  628   2.034   0.973   1.173 -0.1459  0.3021  0.0471
  210SOL    HW1  629   2.051   1.019   1.261 -1.7476  2.2710  2.1530
  210SOL    HW2  630   1.966   0.900   1.184 -0.9530  0.4167 -1.0342
  211SOL     OW  631   0.598   0.381   0.552  0.1457  0.1418  0.2788
  211SOL    HW1  632   0.634   0.461   0.594  3.1162 -1.3859  0.6561
  211SOL    HW2  633   0.509   0.348   0.591  1.4601  1.3362  0.4975
  212SOL     OW  634   1.807   1.359   0.355  0.0914  0.1847  0.5399
  212SOL    HW1  635   1.819   1.351   0.257 -0.4045  2.8023  1.7137
  212SOL    HW2  636   1.725   1.314   0.387  2.7057 -0.7234 -1.8861
  213SOL     OW  637   1.693   0.073   2.483 -0.5385 -0.3432 -0.3779
  213SOL    HW1  638   1.728   0.070   2.575 -1.0039 -1.2554 -1.6527
  213SOL    HW2  639   1.591   0.069   2.479 -0.2075  2.2038 -0.0648
  214SOL     OW  640   1.555   1.503   2.329  0.4684 -0.1755  0.5099
  214SOL    HW1  641   1.623   1.545   2.390  1.1886  0.1911  0.6975
  214SOL    HW2  642   1.513   1.417   2.354 -1.9083 -0.6800  1.2792
  215SOL     OW  643   0.273   1.766   0.384 -0.3243 -0.2259  0.4706
  215SOL    HW1  644   0.344   1.690   0.389  0.3319 -0.9058  2.5459
  215SOL    HW2  645   0.295   1.839   0.315 -1.1784 -0.4444 -2.2422
  216SOL     OW  646   0.586   2.784   2.206  0.0083 -0.0964 -0.0144
  216SOL    HW1  647   0.677   2.778   2.158  1.5591 -0.2472 -1.3019
  216SOL    HW2  648   0.596   2.790   2.309  0.2883  0.3410  0.6999
  217SOL     OW  649   2.513   1.086   0.509  0.1382  0.4894 -0.2907
  217SOL    HW1  650   2.547   0.999   0.553  1.3500 -0.6286 -3.1103
  217SOL    HW2  651   2.463   1.147   0.573  0.4720  0.0995  0.5269
  218SOL     OW  652   2.074   1.967   1.992  0.0841 -0.0168  0.4906
  218SOL    HW1  653   1.981   2.004   1.987 -1.3155 -0.3376  1.3303
  218SOL    HW2  654   2.082   1.886   2.053  0.7260  1.8955 -2.8862
  219SOL     OW  655   1.830   1.256   0.078 -0.2404  0.4847 -0.2951
  219SOL    HW1  656   1.770   1.331   0.050  1.0815  0.9033  2.1943
  219SOL    HW2  657   1.917   1.253   0.028 -0.6382  1.6622  1.8626
  220SOL     OW  658   1.083   1.652   1.113  0.2492 -0.0729  0.3797
  220SOL    HW1  659   1.112   1.702   1.194 -4.3529 -1.1370 -4.0923
  220SOL    HW2  660   1.148   1.578   1.099 -0.6444 -0.4819  1.0552
  221SOL     OW  661   0.368   0.732   2.798  0.1906  0.4901 -0.0041
  221SOL    HW1  662   0.416   0.824   2.803 -1.6383  0.5254  1.0609
  221SOL    HW2  663   0.383   0.688   2.703  0.8707  1.2520 -3.0994
  222SOL     OW  664   0.714   1.587   1.311 -0.5263  0.4268  0.0019
  222SOL    HW1  665   0.725   1.684   1.331  1.1327 -0.0929 -0.9987
  222SOL    HW2  666   0.773   1.562   1.230  2.2026  1.0994 -1.3933
  223SOL     OW  667   1.418   0.085   2.556  0.1795 -0.4315  0.0135
  223SOL    HW1  668   1.362   3.078   2.558  0.1117  0.6058  1.1176
  223SOL    HW2  669   1.477   0.089   2.639 -0.7091  1.5159  1.7758
  224SOL     OW  670   2.511   0.808   1.010 -0.1269  0.0136 -0.3567
  224SOL    HW1  671   2.498   0.709   0.994  0.5841 -1.7418  3.1281
  224SOL    HW2  672   2.434   0.846   1.067  0.1296 -3.3910  0.9056
  225SOL     OW  673   1.075   0.404   1.597  0.2323 -0.2012 -0.2367
  225SOL    HW1  674   1.176   0.383   1.580  4.8274 -0.2643 -0.9258
  225SOL    HW2  675   1.034   0.462   1.527  0.1130  1.5222 -1.9294
  226SOL     OW  676   1.597   1.963   2.748  0.1982 -0.4261  0.1244
  226SOL    HW1  677   1.584   1.897   2.671 -1.5375  1.9731  0.7477
  226SOL    HW2  678   1.613   1.917   2.838 -1.2352  1.9443 -2.2173
  227SOL     OW  679   1.184   1.780   1.331  0.2153 -0.0754 -0.4381
  227SOL    HW1  680   1.275   1.756   1.360  0.2592  0.6179 -2.6139
  227SOL    HW2  681   1.121   1.775   1.414 -1.4812  2.0543  1.1876
  228SOL     OW  682   0.518   1.781   0.750 -0.3012 -0.4882  0.0526
  228SOL    HW1  683   0.607   1.810   0.793 -0.8852  2.1664  0.0013
  228SOL    HW2  684   0.478   1.713   0.814  0.4286  0.4657  2.2844
  229SOL     OW  685   1.722   0.463   0.077 -0.9098  0.7038 -0.2513
  229SOL    HW1  686   1.741   0.493   3.058 -1.0609 -2.5107  1.2746
  229SOL    HW2  687   1.793   0.499   0.139 -2.1786 -0.0286 -0.7463
  230SOL     OW  688   1.049   0.475   2.269  0.1575  0.4533  0.4048
  230SOL    HW1  689   1.141   0.485   2.228 -1.4769  0.5877  0.4545
  230SOL    HW2  690   1.011   0.561   2.305  2.1321 -1.4215  1.4936
  231SOL     OW  691   1.319   1.689   2.470 -0.7017  0.1971 -0.0384
  231SOL    HW1  692   1.278   1.598   2.485 -2.0460  1.0952  0.3490
  231SOL    HW2  693   1.248   1.749   2.434  1.4531 -1.3119 -0.5694
  232SOL     OW  694   2.197   1.885   0.928  0.4216  0.2924  0.2643
  232SOL    HW1  695   2.122   1.816   0.924  3.6553  2.6267  1.5707
  232SOL    HW2  696   2.277   1.857   0.868  0.9747 -0.2252 -2.3678
  233SOL     OW  697   1.957   2.822   0.065 -0.1531 -0.6240  0.0554
  233SOL    HW1  698   1.909   2.732   0.055 -0.4192 -0.3817  0.1639
  233SOL    HW2  699   2.056   2.816   0.050 -2.5431  0.5184  0.2107
  234SOL     OW  700   0.969   2.878   2.716  0.6938  0.1016 -0.4310
  234SOL    HW1  701   0.936   2.787   2.685  1.2622 -0.2380 -0.0496
  234SOL    HW2  702   1.059   2.880   2.762 -1.9726  1.4606  0.6644
  235SOL     OW  703   2.526   3.065   0.019 -0.4664 -0.0585 -0.2832
  235SOL    HW1  704   2.441   0.017   3.051  0.1121 -1.0393 -2.2446
  235SOL    HW2  705   2.545   2.968   0.020 -0.1436  3.0310  1.5792
  236SOL     OW  706   2.537   2.255   2.456  0.5991  0.1487  0.2949
  236SOL    HW1  707   2.503   2.344   2.493 -1.0197  1.6309 -0.0055
  236SOL    HW2  708   2.632   2.266   2.426 -2.5549 -0.4969 -0.2850
  237SOL     OW  709   1.237   1.329   1.805 -0.0937  0.4991 -0.0717
  237SOL    HW1  710   1.329   1.301   1.838 -2.4544  0.7242 -0.5945
  237SOL    HW2  711   1.171   1.278   1.865 -2.3574  0.9598  0.0375
  238SOL     OW  712   2.205   0.196   2.421 -0.6104  0.0200 -0.0533
  238SOL    HW1  713   2.190   0.236   2.332 -0.0824  0.9103  2.6722
  238SOL    HW2  714   2.131   0.215   2.482 -0.1889  0.5648 -0.1546
  239SOL     OW  715   0.289   1.854   2.084  0.0813  0.0337  0.0893
  239SOL    HW1  716   0.373   1.813   2.113 -4.1276  1.2922 -2.9603
  239SOL    HW2  717   0.251   1.814   1.994 -3.5169  0.2449  1.6174
  240SOL     OW  718   2.777   2.826   0.852  0.6312  0.2019 -0.1125
  240SOL    HW1  719   2.748   2.765   0.928  1.7826  1.0725 -2.4603
  240SOL    HW2  720   2.790   2.763   0.771 -2.1104  0.3072  0.9663
  241SOL     OW  721   1.784   2.034   0.585 -0.2100 -0.1411 -0.0607
  241SOL    HW1  722   1.838   1.949   0.565  1.8293 -0.6235  0.2371
  241SOL    HW2  723   1.684   2.010   0.600 -2.2424 -1.9249  1.2343
  242SOL     OW  724   1.340   1.791   2.726  0.1462  0.0708 -0.0511
  242SOL    HW1  725   1.408   1.747   2.789 -0.8093  1.7363  3.8103
  242SOL    HW2  726   1.339   1.745   2.637  0.2038  2.8714  0.4420
  243SOL     OW  727   0.664   2.394   2.155 -0.1012 -0.0118  0.3496
  243SOL    HW1  728   0.712   2.461   2.096  0.3311 -2.4168 -1.1653
  243SOL    HW2  729   0.735   2.342   2.204  0.6125  0.0963 -1.0381
  244SOL     OW  730   2.348   3.068   2.877 -0.1750  0.5872  0.1526
  244SOL    HW1  731   2.393   0.047   2.805  0.5247  3.1343  0.6658
  244SOL    HW2  732   2.284   2.998   2.834  2.4689 -3.0974  0.5667
  245SOL     OW  733   1.428   2.838   0.516  0.1710  0.2061 -0.1151
  245SOL    HW1  734   1.407   2.781   0.595 -1.2660 -0.0643 -1.4823
  245SOL    HW2  735   1.343   2.859   0.466  0.8603  1.0451 -0.7866
  246SOL     OW  736   0.933   2.895   0.280  0.0089 -0.0310 -0.1615
  246SOL    HW1  737   0.943   2.949   0.192  1.4661 -0.6970  1.1920
  246SOL    HW2  738   0.951   2.956   0.364  1.2294  1.0393 -1.7629
  247SOL     OW  739   0.688   0.902   2.037 -0.8018 -0.2227 -0.6016
  247SOL    HW1  740   0.760   0.871   1.971  0.7338  1.9050 -0.2563
  247SOL    HW2  741   0.655   0.818   2.086 -0.6416  1.2217 -1.9562
  248SOL     OW  742   1.219   1.320   2.269 -0.1014  0.3613 -0.3934
  248SOL    HW1  743   1.196   1.385   2.192  0.1620  0.4666  3.7109
  248SOL    HW2  744   1.194   1.366   2.355 -1.4812  1.7544 -1.3316
  249SOL     OW  745   2.115   0.453   0.532  0.2362  0.0369 -0.2862
  249SOL    HW1  746   2.185   0.463   0.605  1.5876  1.3490  1.5046
  249SOL    HW2  747   2.052   0.536   0.540  0.4321 -1.5553 -0.8508
  250SOL     OW  748   0.814   0.101   0.426  0.0390 -0.1309 -0.3255
  250SOL    HW1  749   0.752   0.071   0.503 -2.1883  0.9636 -0.6083
  250SOL    HW2  750   0.905   0.065   0.451 -1.5579  3.0883 -0.0174
  251SOL     OW  751   1.593   0.196   2.756 -0.3145 -0.1933  0.0528
  251SOL    HW1  752   1.694   0.200   2.755  1.5369 -1.7271 -0.7646
  251SOL    HW2  753   1.545   0.285   2.747 -0.4848  2.2889 -0.2640
  252SOL     OW  754   1.731   1.256   2.009 -0.3319  0.2735  0.3696
  252SOL    HW1  755   1.832   1.249   2.042  1.8546  1.8247  2.8204
  252SOL    HW2  756   1.682   1.343   2.041 -0.4938  1.5194 -0.0210
  253SOL     OW  757   2.552   2.520   1.877 -0.1976 -0.1671 -0.0352
  253SOL    HW1  758   2.590   2.591   1.937 -0.9288 -2.3813 -0.0015
  253SOL    HW2  759   2.559   2.429   1.918 -1.0227  2.0352 -4.1847
  254SOL     OW  760   0.408   1.276   1.032  0.1920  0.8056  0.3618
  254SOL    HW1  761   0.454   1.305   0.948  1.2692 -0.1325  2.1523
  254SOL    HW2  762   0.407   1.342   1.102 -1.6147 -3.9162  0.8874
  255SOL     OW  763   1.139   0.852   1.288  0.4169  0.2510 -0.3316
  255SOL    HW1  764   1.053   0.895   1.260  1.1796 -2.4446  2.1938
  255SOL    HW2  765   1.195   0.922   1.331  0.1549 -3.9894  2.4792
  256SOL     OW  766   1.832   2.588   1.772 -0.3633 -0.0116  0.1053
  256SOL    HW1  767   1.756   2.545   1.828 -1.2221 -2.8950 -0.6331
  256SOL    HW2  768   1.903   2.518   1.751 -0.7566  2.0462 -0.3970
  257SOL     OW  769   0.123   2.695   2.754 -0.9636  0.2593  0.3045
  257SOL    HW1  770   0.105   2.784   2.808 -2.1198  2.9662  0.5019
  257SOL    HW2  771   0.227   2.676   2.753  2.3052 -0.7225 -1.0306
  258SOL     OW  772   0.830   2.644   2.176 -0.5122 -0.4832 -0.1724
  258SOL    HW1  773   0.825   2.684   2.274  0.4894  0.1925  0.4904
  258SOL    HW2  774   0.928   2.634   2.143 -0.1913 -1.2771 -1.1370
  259SOL     OW  775   1.268   0.061   2.232 -0.0581 -0.6425 -0.0880
  259SOL    HW1  776   1.356   0.103   2.197  0.1497 -0.6607  0.8938
  259SOL    HW2  777   1.227   0.008   2.154  4.4437 -0.2216 -1.3067
  260SOL     OW  778   1.635   0.473   1.040  0.3802  1.1548  0.1492
  260SOL    HW1  779   1.614   0.416   0.964  1.5883  0.7247  3.0109
  260SOL    HW2  780   1.699   0.546   1.012  0.7342 -0.1412 -1.0380
  261SOL     OW  781   0.198   0.504   2.565 -0.0436 -0.2125  0.6861
  261SOL    HW1  782   0.137   0.432   2.601 -0.6690  0.4910  0.7325
  261SOL    HW2  783   0.292   0.491   2.605 -1.4077  2.0897  2.5231
  262SOL     OW  784   3.013   2.498   1.950 -0.2888 -0.0529 -0.1544
  262SOL    HW1  785   0.031   2.522   1.951 -1.3199 -0.6629  0.8858
  262SOL    HW2  786   2.961   2.565   1.889 -0.9063 -1.9864  2.9551
  263SOL     OW  787   2.672   1.730   2.293  0.0558 -0.0932 -0.1707
  263SOL    HW1  788   2.721   1.814   2.302  2.7825  0.0438 -0.4349
  263SOL    HW2  789   2.600   1.721   2.364  1.4449  1.8651 -2.1050
  264SOL     OW  790   0.541   0.939   0.734 -0.2455  0.2185 -0.7926
  264SOL    HW1  791   0.599   0.937   0.816  0.7916  0.2163 -1.9254
  264SOL    HW2  792   0.591   0.906   0.657 -1.4896 -0.2008  1.4346
  265SOL     OW  793   0.751   2.063   0.198 -0.2137 -0.9032 -0.8143
  265SOL    HW1  794   0.817   1.988   0.187 -2.4619  3.0104 -2.0018
  265SOL    HW2  795   0.685   2.055   0.273  1.0380  0.3334 -2.6108
  266SOL     OW  796   1.402   0.617   1.027  0.2488  0.2425  0.2274
  266SOL    HW1  797   1.477   0.561   1.065 -1.1519  1.0563  0.5718
  266SOL    HW2  798   1.379   0.587   0.936 -0.4256  0.0765  0.0272
  267SOL     OW  799   2.787   1.085   0.147  0.5214  0.4427  0.6559
  267SOL    HW1  800   2.862   1.097   0.212 -0.5377 -0.3031 -4.4775
  267SOL    HW2  801   2.816   1.012   0.079 -0.0686  0.9165 -0.7901
  268SOL     OW  802   1.914   0.208   0.200 -0.3844 -0.8169  0.1906
  268SOL    HW1  803   1.925   0.225   0.302  1.3880 -2.0449  0.7141
  268SOL    HW2  804   1.818   0.184   0.166 -0.9230 -1.8139 -0.8203
  269SOL     OW  805   1.851   0.894   2.728  0.5053 -0.0062  0.2755
  269SOL    HW1  806   1.750   0.882   2.713  0.7464 -0.1797  0.9592
  269SOL    HW2  807   1.871   0.904   2.828  3.6850  0.2223 -0.3634
  270SOL     OW  808   0.459   0.748   3.052 -0.7101  0.3262  0.1021
  270SOL    HW1  809   0.438   0.737   2.953  1.5924 -1.3343 -1.0178
  270SOL    HW2  810   0.374   0.775   0.020  1.8825 -0.1434 -1.7975
  271SOL     OW  811   3.002   0.795   0.245  0.1067  0.1724  0.0928
  271SOL    HW1  812   3.048   0.749   0.162 -1.2855 -0.4920 -1.8123
  271SOL    HW2  813   3.034   0.892   0.253 -1.2117 -1.5109 -1.1527
  272SOL     OW  814   3.074   2.025   2.807 -0.1476  0.2018 -0.0557
  272SOL    HW1  815   3.029   2.001   2.717  0.8042  1.3267 -0.6193
  272SOL    HW2  816   3.076   2.127   2.830 -1.2680  0.6365  0.9283
  273SOL     OW  817   2.401   3.040   0.614 -0.2877 -0.2583 -0.2513
  273SOL    HW1  818   2.313   3.026   0.662  0.2787 -2.5399  0.9209
  273SOL    HW2  819   2.384   0.034   0.548  0.2000 -0.4018 -1.6131
  274SOL     OW  820   0.272   2.160   0.734  0.3499  0.9294 -0.4879
  274SOL    HW1  821   0.297   2.087   0.671  1.7995  1.1584  2.8290
  274SOL    HW2  822   0.310   2.252   0.708  0.7819 -0.3960  1.5461
  275SOL     OW  823   2.538   1.705   0.534  0.8451 -0.7699  0.2502
  275SOL    HW1  824   2.641   1.691   0.540  0.5884 -0.1528  1.2821
  275SOL    HW2  825   2.485   1.629   0.494 -0.8431  0.0291  0.1984
  276SOL     OW  826   0.228   1.069   2.130  0.0570 -0.1280 -0.0746
  276SOL    HW1  827   0.314   1.113   2.094 -1.4151  0.0941 -0.1627
  276SOL    HW2  828   0.160   1.139   2.166 -0.9212  0.3965  0.5226
  277SOL     OW  829   1.924   2.530   1.259 -0.0868  0.5249  0.5322
  277SOL    HW1  830   2.007   2.493   1.209  0.5011  0.4607 -0.1393
  277SOL    HW2  831   1.916   2.632   1.247 -0.5626 -1.2764 -0.6023
  278SOL     OW  832   1.213   2.977   2.020  0.0673 -0.1442 -0.3044
  278SOL    HW1  833   1.120   2.940   2.032  2.1201 -3.5544  2.1387
  278SOL    HW2  834   1.215   3.056   1.953  1.8335 -1.3460  0.3740
  279SOL     OW  835   1.538   1.915   0.657 -0.1981 -0.0887 -0.0227
  279SOL    HW1  836   1.520   1.978   0.736  2.2896 -0.7118  0.2558
  279SOL    HW2  837   1.458   1.917   0.596  0.5494  1.1946 -1.6930
  280SOL     OW  838   3.053   1.822   0.977 -0.5851 -0.6095  0.3879
  280SOL    HW1  839   3.049   1.855   0.880 -0.8410  1.4048 -4.3301
  280SOL    HW2  840   2.978   1.756   0.999  2.4835 -1.6631  0.8152
  281SOL     OW  841   0.051   0.802   2.380 -0.0876 -0.0716 -0.3313
  281SOL    HW1  842   3.050   0.802   2.315  2.9027 -1.2455  1.8357
  281SOL    HW2  843   0.035   0.764   2.470  2.5979  0.2548 -2.2467
  282SOL     OW  844   0.739   0.870   0.568 -0.4671  0.6208  0.4643
  282SOL    HW1  845   0.685   0.860   0.482 -1.3354 -1.0256 -0.1088
  282SOL    HW2  846   0.827   0.912   0.545 -0.3110  0.1154 -2.2311
  283SOL     OW  847   1.636   2.261   3.009  0.2458 -0.6840  0.3817
  283SOL    HW1  848   1.555   2.304   3.055 -0.5326  1.7537 -0.8277
  283SOL    HW2  849   1.681   2.327   2.942 -0.1294  2.3994 -3.4094
  284SOL     OW  850   1.310   0.508   0.346 -0.1086  0.0161  0.1019
  284SOL    HW1  851   1.302   0.418   0.304  0.7357 -0.2611 -1.5590
  284SOL    HW2  852   1.390   0.563   0.319 -1.5151  0.9006 -0.8803
  285SOL     OW  853   2.296   1.017   2.720  0.1199  0.2047 -0.3093
  285SOL    HW1  854   2.381   1.030   2.677 -1.7264 -0.4273  2.9173
  285SOL    HW2  855   2.218   1.050   2.668 -0.4989  0.4191  1.3087
  286SOL     OW  856   1.213   2.667   1.525 -0.5220 -0.3367 -0.2505
  286SOL    HW1  857   1.245   2.737   1.457 -1.2165  3.4239  0.9098
  286SOL    HW2  858   1.290   2.604   1.551  1.1650 -0.3581 -0.4255
  287SOL     OW  859   0.948   0.924   0.902  0.1772  0.0104  0.2293
  287SOL    HW1  860   0.887   0.843   0.911 -0.7418 -0.0508  2.4460
  287SOL    HW2  861   1.030   0.903   0.848  0.3551  0.5701 -3.1918
  288SOL     OW  862   1.159   2.701   0.118 -0.3588 -0.0013  0.4539
  288SOL    HW1  863   1.085   2.747   0.163  0.9161  0.6996  0.2452
  288SOL    HW2  864   1.136   2.662   0.023 -0.7823 -1.4561 -3.7143
  289SOL     OW  865   0.331   1.370   1.382 -0.0745 -0.0790  0.5426
  289SOL    HW1  866   0.392   1.411   1.449  0.7114 -0.2943  0.4245
  289SOL    HW2  867   0.315   1.270   1.413 -0.5790 -2.4998  3.0605
  290SOL     OW  868   1.730   2.468   0.954 -0.0919 -0.0439 -0.0634
  290SOL    HW1  869   1.664   2.419   1.019 -2.4413 -0.2705  2.5954
  290SOL    HW2  870   1.683   2.550   0.921  2.3350 -1.4675  0.8271
  291SOL     OW  871   1.850   3.056   3.035 -0.2017 -0.1985  0.0426
  291SOL    HW1  872   1.945   0.012   3.040 -1.2993 -2.0021 -2.1995
  291SOL    HW2  873   1.855   2.959   3.068 -0.5113 -4.0744  1.6944
  292SOL     OW  874   0.918   0.459   2.040  0.0446  0.2720 -0.3567
  292SOL    HW1  875   0.938   0.538   1.985 -0.8428 -0.9143 -0.7838
  292SOL    HW2  876   0.949   0.468   2.139 -1.4706  2.3769  2.3740
  293SOL     OW  877   1.991   2.414   0.890  0.0572  0.5424  0.8377
  293SOL    HW1  878   2.008   2.328   0.939 -3.2768  0.4315  0.4439
  293SOL    HW2  879   1.892   2.428   0.898  0.0546 -2.9345  1.6576
  294SOL     OW  880   0.614   0.686   2.186  0.6448  0.1303 -0.0548
  294SOL    HW1  881   0.577   0.748   2.253  4.0647 -1.2913  2.4400
  294SOL    HW2  882   0.607   0.594   2.226 -1.4983  2.8148 -0.0441
  295SOL     OW  883   1.423   1.639   1.085 -0.2139 -0.3266  0.6913
  295SOL    HW1  884   1.407   1.616   1.181  0.9911 -1.7582  1.4562
  295SOL    HW2  885   1.476   1.726   1.069 -1.1959  1.1111  0.5609
  296SOL     OW  886   2.511   1.811   0.103 -0.4810  0.0323 -0.2306
  296SOL    HW1  887   2.525   1.910   0.129 -0.1937  1.9414 -0.5187
  296SOL    HW2  888   2.600   1.761   0.111 -0.6189  2.2347 -0.7706
  297SOL     OW  889   2.126   0.021   0.205 -0.7970 -0.6296 -0.1527
  297SOL    HW1  890   2.047   0.081   0.217  0.9062 -0.7173  1.9378
  297SOL    HW2  891   2.160   0.031   0.110  0.5231  0.1514 -0.9279
  298SOL     OW  892   1.017   2.318   2.481 -0.2945  0.4867 -0.3119
  298SOL    HW1  893   0.954   2.334   2.563  3.2047 -0.3766 -0.2312
  298SOL    HW2  894   1.095   2.376   2.499 -1.7604  0.6847  1.3133
  299SOL     OW  895   1.326   2.590   2.136 -0.2287 -0.0479 -0.2165
  299SOL    HW1  896   1.300   2.686   2.166  1.8003 -0.5922 -0.6397
  299SOL    HW2  897   1.410   2.563   2.187 -0.8315  1.8332  0.8538
  300SOL     OW  898   2.597   0.064   2.685 -0.3294 -0.5759 -0.0695
  300SOL    HW1  899   2.622   0.103   2.773  2.2087 -1.6460 -2.6276
  300SOL    HW2  900   2.532   0.119   2.627  1.6809  1.1530 -1.4135
  301SOL     OW  901   1.518   0.630   2.271  0.5457  0.0636 -0.0206
  301SOL    HW1  902   1.511   0.726   2.232 -0.4215  2.5031  1.5892
  301SOL    HW2  903   1.430   0.581   2.285  0.7838 -1.2588 -0.5612
  302SOL     OW  904   2.537   2.444   0.319  0.7429 -0.1628  0.6381
  302SOL    HW1  905   2.456   2.400   0.275  0.2325  1.9692  1.6371
  302SOL    HW2  906   2.520   2.530   0.374  1.0083  0.3332  1.3814
  303SOL     OW  907   2.879   2.374   2.142  0.2254  0.5853  0.1815
  303SOL    HW1  908   2.805   2.311   2.101 -1.5900 -1.9740 -1.2271
  303SOL    HW2  909   2.923   2.438   2.077 -1.6817  0.2118  2.0673
  304SOL     OW  910   2.770   0.677   1.783  0.1305  0.3322 -0.4450
  304SOL    HW1  911   2.707   0.745   1.831 -0.8211 -1.0657 -0.6538
  304SOL    HW2  912   2.860   0.667   1.833 -2.7014 -0.5631  1.1791
  305SOL     OW  913   0.553   1.753   1.582  0.4856 -0.1942 -0.4860
  305SOL    HW1  914   0.534   1.814   1.506 -0.5845  0.6525  1.7044
  305SOL    HW2  915   0.542   1.803   1.671  0.6899  1.2084  0.1292
  306SOL     OW  916   2.938   1.053   1.818  0.0379  0.2517 -0.0684
  306SOL    HW1  917   3.014   1.019   1.875  0.5552  2.7153 -0.6682
  306SOL    HW2  918   2.958   1.067   1.721 -0.8976  1.8692  0.2568
  307SOL     OW  919   1.161   0.392   1.885 -0.6389  0.3495 -0.3908
  307SOL    HW1  920   1.066   0.410   1.910  1.5046  0.2101 -1.1204
  307SOL    HW2  921   1.168   0.403   1.784 -1.4534  4.8963 -1.0554
  308SOL     OW  922   2.778   0.830   1.043  0.0272  0.0767  0.0465
  308SOL    HW1  923   2.798   0.781   1.127 -0.7085  3.1559 -0.4111
  308SOL    HW2  924   2.678   0.830   1.015 -1.1281 -2.3338 -4.5666
  309SOL     OW  925   2.253   1.346   0.883 -0.3355  0.1542  0.3590
  309SOL    HW1  926   2.165   1.355   0.934  0.1647  3.1848 -0.1391
  309SOL    HW2  927   2.306   1.433   0.884 -1.5957  0.5838 -1.0563
  310SOL     OW  928   2.964   1.958   2.566  0.1934 -0.1228 -0.4087
  310SOL    HW1  929   2.965   1.930   2.469  0.1062 -0.4328 -1.7628
  310SOL    HW2  930   2.867   1.972   2.595  2.5364  0.0250 -0.5956
  311SOL     OW  931   3.029   2.693   2.530  0.6231  0.5148 -0.6634
  311SOL    HW1  932   2.933   2.726   2.561 -3.1214  2.2888  0.6080
  311SOL    HW2  933   0.016   2.692   2.606 -0.9574 -0.8756  0.0840
  312SOL     OW  934   2.179   1.917   0.088 -0.1339  0.4041 -0.4845
  312SOL    HW1  935   2.257   1.959   0.134  2.0907  0.9131 -0.4502
  312SOL    HW2  936   2.165   1.816   0.114 -1.6345 -1.8859 -0.1614
  313SOL     OW  937   2.551   2.989   0.839 -0.5699  0.5353  0.6890
  313SOL    HW1  938   2.645   2.961   0.818 -4.5770  0.7364  0.7657
  313SOL    HW2  939   2.501   3.004   0.752 -0.9248 -1.3762 -4.0343
  314SOL     OW  940   1.515   1.183   0.467  0.2972  0.0980 -0.3940
  314SOL    HW1  941   1.538   1.165   0.368  2.3457  1.5762 -2.2013
  314SOL    HW2  942   1.422   1.223   0.480  0.8831 -1.5551 -0.7979
  315SOL     OW  943   1.355   2.471   1.889 -0.0094 -0.4524  0.1623
  315SOL    HW1  944   1.356   2.539   1.967 -0.3881 -1.5641  1.7886
  315SOL    HW2  945   1.276   2.408   1.892 -1.4281 -0.0402  0.2291
  316SOL     OW  946   0.106   0.657   0.383  0.4135 -0.4648 -0.2667
  316SOL    HW1  947   0.081   0.567   0.345  0.8687  0.7867 -1.5909
  316SOL    HW2  948   0.029   0.723   0.365 -0.0604  1.1195  0.7335
  317SOL     OW  949   0.453   2.967   0.252 -0.2506 -0.1541 -0.3454
  317SOL    HW1  950   0.401   3.043   0.301 -2.0465  0.9057 -1.3678
  317SOL    HW2  951   0.392   2.915   0.194 -0.9217  1.2873 -0.1772
  318SOL     OW  952   2.159   2.415   0.419 -0.4597 -0.6639 -0.0395
  318SOL    HW1  953   2.079   2.352   0.397  2.9785 -0.6054  1.8771
  318SOL    HW2  954   2.171   2.490   0.351 -0.0756 -1.0065 -0.2030
  319SOL     OW  955   1.068   1.537   2.909 -0.1601  0.1691 -0.3416
  319SOL    HW1  956   0.976   1.572   2.934  0.0559 -1.8501  1.7190
  319SOL    HW2  957   1.067   1.440   2.880 -0.0624  0.5113 -1.0327
  320SOL     OW  958   0.213   2.347   2.100 -0.0755  0.3258 -0.1127
  320SOL    HW1  959   0.130   2.293   2.117  3.7230  0.2189  0.7554
  320SOL    HW2  960   0.196   2.422   2.034  2.1996 -1.4377  2.3350
  321SOL     OW  961   1.627   2.839   2.665  0.2698  0.2962 -0.2849
  321SOL    HW1  962   1.592   2.833   2.570  0.5981  0.6251  0.8838
  321SOL    HW2  963   1.581   2.920   2.711 -3.0867  2.2418  1.2924
  322SOL     OW  964   2.807   1.490   2.367 -0.5400 -0.2086  0.0461
  322SOL    HW1  965   2.761   1.490   2.459 -2.5947 -2.6004  2.6989
  322SOL    HW2  966   2.778   1.572   2.309 -1.1914 -2.0662 -3.4363
  323SOL     OW  967   2.302   1.276   0.623 -0.1785  0.0398 -0.4143
  323SOL    HW1  968   2.276   1.297   0.721 -0.1696  2.0457 -0.1000
  323SOL    HW2  969   2.224   1.243   0.570 -0.6981 -1.0060  2.7723
  324SOL     OW  970   2.992   3.033   2.538  0.0983  0.3025  0.5849
  324SOL    HW1  971   2.967   0.054   2.543  0.3926 -0.4856 -0.2493
  324SOL    HW2  972   2.918   2.965   2.516 -0.2095  3.0078  0.5607
  325SOL     OW  973   1.099   0.489   2.785  0.5344 -0.0491 -0.1070
  325SOL    HW1  974   0.999   0.466   2.794  1.4234  1.6032 -1.6519
  325SOL    HW2  975   1.148   0.502   2.873 -0.4104  1.7458  0.1995
  326SOL     OW  976   2.215   2.797   1.819 -0.2959 -0.1461  0.3099
  326SOL    HW1  977   2.225   2.840   1.729  0.0413  0.7218 -1.2653
  326SOL    HW2  978   2.276   2.835   1.888 -2.3069  0.3426 -0.3015
  327SOL     OW  979   2.049   0.337   2.887  0.2878  0.2714  0.4714
  327SOL    HW1  980   2.136   0.350   2.835  0.4256  0.0902  0.4487
  327SOL    HW2  981   2.055   0.375   2.981  1.4911 -0.5907 -0.1784
  328SOL     OW  982   0.193   1.306   2.444  0.2860  0.0442  0.7593
  328SOL    HW1  983   0.156   1.211   2.449  0.6668  1.4849  2.4260
  328SOL    HW2  984   0.160   1.351   2.362 -1.9359 -1.0077  1.9011
  329SOL     OW  985   1.962   3.023   1.873 -0.2965  0.1169  0.5612
  329SOL    HW1  986   1.960   2.927   1.906  1.4889  0.5803 -0.4282
  329SOL    HW2  987   2.031   0.004   1.914  3.3315 -0.8977 -0.0243
  330SOL     OW  988   2.820   1.419   1.172  0.2722  0.3127 -0.3691
  330SOL    HW1  989   2.783   1.322   1.155  0.2680 -2.2883  0.1321
  330SOL    HW2  990   2.768   1.470   1.243 -2.1577  1.4885 -1.1172
  331SOL     OW  991   0.535   1.749   2.177 -0.1284  0.2111  0.1410
  331SOL    HW1  992   0.609   1.787   2.236  0.6558 -0.0599 -0.7726
  331SOL    HW2  993   0.573   1.722   2.086 -1.1955 -0.1423  2.3874
  332SOL     OW  994   0.211   2.765   1.453  0.5860 -0.3328 -0.2645
  332SOL    HW1  995   0.229   2.782   1.551  0.1158  0.1807 -1.7202
  332SOL    HW2  996   0.115   2.802   1.437  0.1554  1.4586 -1.9819
  333SOL     OW  997   2.199   2.439   1.157 -0.4174 -0.2058  0.5849
  333SOL    HW1  998   2.271   2.442   1.234  3.1313  2.1201  2.5571
  333SOL    HW2  999   2.245   2.413   1.069 -3.1295 -0.8960  1.8803
  334SOL     OW 1000   0.773   1.802   0.839 -0.1721  0.0340  0.4816
  334SOL    HW1 1001   0.774   1.701   0.820  0.3489 -1.5381  2.1423
  334SOL    HW2 1002   0.753   1.819   0.935 -0.9648  1.5234 -3.1655
  335SOL     OW 1003   0.151   2.490   2.935 -0.2082 -0.0285 -0.0349
  335SOL    HW1 1004   0.243   2.459   2.908 -0.9122 -0.4554  1.1689
  335SOL    HW2 1005   0.127   2.575   2.888 -1.7909  0.3431 -0.6072
  336SOL     OW 1006   0.529   3.022   2.082  0.2541 -0.0663 -0.3188
  336SOL    HW1 1007   0.442   3.049   2.130 -1.7347 -0.4032 -0.8004
  336SOL    HW2 1008   0.545   2.923   2.102 -1.2188 -1.7269 -1.2245
  337SOL     OW 1009   2.369   2.158   2.893 -0.2771 -0.0384  0.0631
  337SOL    HW1 1010   2.445   2.141   2.959 -0.2128  2.1137  0.5372
  337SOL    HW2 1011   2.349   2.076   2.835  0.6625  0.6301 -0.3198
  338SOL     OW 1012   0.838   1.554   1.067 -0.2346  0.3482 -0.1989
  338SOL    HW1 1013   0.819   1.524   0.969  1.6295 -0.9087 -0.2032
  338SOL    HW2 1014   0.930   1.599   1.075  0.0458  1.1251  0.0709
  339SOL     OW 1015   0.117   0.861   1.695  0.9844 -0.0504  0.0057
  339SOL    HW1 1016   0.107   0.886   1.796  0.4806  2.8210 -0.7476
  339SOL    HW2 1017   0.052   0.923   1.644 -1.5183  0.2672 -1.1004
  340SOL     OW 1018   1.415   2.655   0.169  0.6117 -0.4110  0.4329
  340SOL    HW1 1019   1.314   2.641   0.180 -2.1964  0.4160  0.5661
  340SOL    HW2 1020   1.419   2.738   0.109  0.0761  1.7568  0.3966
  341SOL     OW 1021   2.004   1.345   0.961  0.0644  0.0016 -0.3516
  341SOL    HW1 1022   1.979   1.247   0.966  0.8937  2.9311 -0.7949
  341SOL    HW2 1023   1.935   1.401   1.006  1.6745  1.2158  2.3366
  342SOL     OW 1024   2.660   2.844   0.305 -0.1459  0.0275 -0.0413
  342SOL    HW1 1025   2.623   2.775   0.372  1.3425 -1.4585  0.0383
  342SOL    HW2 1026   2.613   2.827   0.215 -1.1402  0.1207  1.7046
  343SOL     OW 1027   1.378   2.212   1.209  0.7887  0.2777  0.3104
  343SOL    HW1 1028   1.356   2.307   1.180 -2.8549  1.7818  0.6360
  343SOL    HW2 1029   1.302   2.151   1.181 -0.0586  0.9746  0.1870
  344SOL     OW 1030   2.289   2.078   0.556 -0.2504  0.4958 -0.8886
  344SOL    HW1 1031   2.189   2.067   0.583 -3.3262 -1.1208  3.4916
  344SOL    HW2 1032   2.326   2.163   0.599  1.0351 -0.9286  1.3097
  345SOL     OW 1033   2.631   2.418   0.047 -0.0455 -0.2073 -0.6678
  345SOL    HW1 1034   2.631   2.322   0.019  2.0194  2.2902  1.8160
  345SOL    HW2 1035   2.622   2.419   0.149  0.9198  0.4770 -0.6207
  346SOL     OW 1036   2.820   1.444   0.771 -0.3233  0.4036 -0.7503
  346SOL    HW1 1037   2.828   1.494   0.862 -2.3408  2.0722  1.2965
  346SOL    HW2 1038   2.905   1.389   0.757 -1.7150 -0.5375  0.3596
  347SOL     OW 1039   1.915   2.147   1.475  0.7758  0.3754 -0.1798
  347SOL    HW1 1040   1.842   2.210   1.450  1.2376 -0.8952  0.4886
  347SOL    HW2 1041   2.001   2.169   1.430  1.6622  0.3057 -0.7290
  348SOL     OW 1042   0.822   1.616   2.993 -0.0195  0.8175  0.0542
  348SOL    HW1 1043   0.791   1.710   2.968 -0.2097 -0.5281 -3.5542
  348SOL    HW2 1044   0.751   1.547   2.967  0.7859  1.1006  3.1390
  349SOL     OW 1045   2.353   1.363   1.691 -0.2971 -0.1762 -0.2963
  349SOL    HW1 1046   2.262   1.333   1.647  1.1899  2.4900 -3.7169
  349SOL    HW2 1047   2.378   1.464   1.677  1.4276  2.0685  2.1729
  350SOL     OW 1048   0.017   2.578   0.828  0.9594  0.1179  0.0397
  350SOL    HW1 1049   3.033   2.566   0.904  1.1185  0.1116 -1.7172
  350SOL    HW2 1050   0.025   2.491   0.772  0.0001 -2.1615 -0.8308
  351SOL     OW 1051   0.379   0.437   2.102  0.4976  0.5439 -0.2689
  351SOL    HW1 1052   0.449   0.448   2.180 -1.3917  0.3868 -1.0390
  351SOL    HW2 1053   0.359   0.335   2.082  0.9335 -2.3826 -2.7313
  352SOL     OW 1054   0.481   1.936   1.399 -0.0743  0.1724 -0.2338
  352SOL    HW1 1055   0.449   2.015   1.458 -0.1148  2.7075 -1.3161
  352SOL    HW2 1056   0.399   1.885   1.363  0.1023  1.2906  4.4311
  353SOL     OW 1057   1.571   1.796   2.513 -0.2629 -0.3823 -0.5052
  353SOL    HW1 1058   1.485   1.767   2.467  1.3057 -1.0286  0.3427
  353SOL    HW2 1059   1.644   1.719   2.516  2.6034 -0.4795 -1.6323
  354SOL     OW 1060   1.247   0.607   1.259  0.1572 -0.1944  0.3285
  354SOL    HW1 1061   1.325   0.605   1.193  0.7056  1.1542 -1.9132
  354SOL    HW2 1062   1.207   0.701   1.266 -0.6544 -1.7369  0.1388
  355SOL     OW 1063   2.620   0.870   0.645 -0.2362  0.3312 -0.3059
  355SOL    HW1 1064   2.671   0.781   0.663 -0.2361 -1.6594  1.0086
  355SOL    HW2 1065   2.679   0.952   0.664  0.9346  1.4038  0.0848
  356SOL     OW 1066   2.498   1.740   2.501 -0.1303 -0.1735 -0.1760
  356SOL    HW1 1067   2.489   1.843   2.496 -1.3360  1.0733  3.2191
  356SOL    HW2 1068   2.423   1.699   2.554  1.0495  1.3076  0.2251
  357SOL     OW 1069   0.529   2.485   1.309  0.0053  0.4957 -0.3311
  357SOL    HW1 1070   0.625   2.488   1.279 -2.1023  4.5750 -1.5913
  357SOL    HW2 1071   0.466   2.477   1.229  1.7864 -2.5032 -1.9842
  358SOL     OW 1072   2.305   0.866   1.754 -0.1296  0.0863 -0.2818
  358SOL    HW1 1073   2.373   0.899   1.687 -1.4056  0.9014  2.4548
  358SOL    HW2 1074   2.249   0.791   1.717  0.7334  0.7283 -1.2856
  359SOL     OW 1075   2.287   2.391   2.800  0.1037 -0.2358 -0.1487
  359SOL    HW1 1076   2.320   2.306   2.845 -2.4005  0.1918 -0.0109
  359SOL    HW2 1077   2.337   2.408   2.714 -1.2570 -0.2080  1.9838
  360SOL     OW 1078   1.824   0.698   0.978 -0.2693 -0.5735 -0.3060
  360SOL    HW1 1079   1.920   0.721   0.968 -1.6774  0.2693  1.7178
  360SOL    HW2 1080   1.789   0.729   1.069  2.8950 -0.7145 -0.0862
  361SOL     OW 1081   2.270   0.072   0.962 -0.0456 -0.1826 -0.1339
  361SOL    HW1 1082   2.253   0.054   0.861 -0.1008 -1.5403 -1.7105
  361SOL    HW2 1083   2.195   0.027   1.020 -2.2433 -1.9180 -0.2325
  362SOL     OW 1084   1.256   1.260   0.563 -0.1682 -0.2917  0.1853
  362SOL    HW1 1085   1.210   1.248   0.652 -1.9816  2.0511 -2.5585
  362SOL    HW2 1086   1.226   1.341   0.506 -2.8240  3.3259 -2.6301
  363SOL     OW 1087   2.336   1.548   2.641  0.0426  0.1955 -0.3029
  363SOL    HW1 1088   2.390   1.538   2.728  0.6715  3.0016  3.7302
  363SOL    HW2 1089   2.237   1.526   2.666 -0.3631 -0.5643  0.5638
  364SOL     OW 1090   0.885   0.284   1.759 -0.3053  0.0887 -0.1176
  364SOL    HW1 1091   0.954   0.340   1.705 -0.9574 -1.0387  0.0788
  364SOL    HW2 1092   0.921   0.253   1.852  2.6604 -1.3490  1.8505
  365SOL     OW 1093   0.325   3.039   0.657  0.1550 -0.0701 -0.2762
  365SOL    HW1 1094   0.285   2.978   0.586 -0.5991 -1.2050  1.4138
  365SOL    HW2 1095   0.289   3.007   0.749 -1.1012 -0.4360 -1.3757
  366SOL     OW 1096   2.789   1.386   2.958 -0.0834 -0.1182 -0.0143
  366SOL    HW1 1097   2.797   1.429   3.055 -2.0820 -1.5601  0.1282
  366SOL    HW2 1098   2.845   1.302   2.947 -1.2685 -0.7753  0.6139
  367SOL     OW 1099   2.890   2.473   2.757  0.3071  0.0397 -0.3586
  367SOL    HW1 1100   2.793   2.511   2.756 -1.6877 -0.2699 -0.4436
  367SOL    HW2 1101   2.933   2.491   2.848  0.6361  0.7900 -1.4702
  368SOL     OW 1102   3.062   1.914   0.723  0.5138  0.5889 -0.0035
  368SOL    HW1 1103   3.022   1.980   0.655  0.5197  1.4710 -0.4402
  368SOL    HW2 1104   0.083   1.925   0.718 -1.1685  1.4727 -0.4014
  369SOL     OW 1105   0.644   0.083   0.222  0.7329  0.1701  0.2018
  369SOL    HW1 1106   0.579   0.005   0.248 -0.8348  0.0766 -0.9390
  369SOL    HW2 1107   0.714   0.104   0.293  0.3815 -0.6040 -2.6859
  370SOL     OW 1108   0.271   0.945   0.737 -0.4409  0.4583 -0.3062
  370SOL    HW1 1109   0.259   1.043   0.747  1.4661 -3.4445 -1.1785
  370SOL    HW2 1110   0.373   0.923   0.737  1.5797 -0.2179  0.8272
  371SOL     OW 1111   2.108   2.546   0.659 -0.6092  0.4686 -0.0982
  371SOL    HW1 1112   2.120   2.483   0.579 -0.8403  0.5302  1.2436
  371SOL    HW2 1113   2.066   2.500   0.744 -2.2209 -1.5203  1.8238
  372SOL     OW 1114   0.276   1.042   2.664 -0.5880 -0.5461  0.5218
  372SOL    HW1 1115   0.212   1.037   2.583  1.1484  1.8446 -1.0622
  372SOL    HW2 1116   0.285   1.132   2.708  0.7371 -2.6767 -0.3666
  373SOL     OW 1117   2.796   1.667   0.612  0.2858 -0.3698  0.1403
  373SOL    HW1 1118   2.793   1.608   0.689  3.9968  1.7228  0.0023
  373SOL    HW2 1119   2.888   1.703   0.615  1.2736  1.9353  0.3545
  374SOL     OW 1120   0.375   2.536   0.266  0.5071 -0.4860 -0.0695
  374SOL    HW1 1121   0.327   2.448   0.274 -1.5171  0.3287  1.0167
  374SOL    HW2 1122   0.455   2.543   0.326 -0.0470 -0.7690 -0.6398
  375SOL     OW 1123   0.341   0.452   0.103  0.2714 -0.4873 -0.0546
  375SOL    HW1 1124   0.404   0.401   0.165  1.2067  0.0236 -1.1481
  375SOL    HW2 1125   0.368   0.548   0.094 -1.0899  0.8104 -1.9975
  376SOL     OW 1126   0.319   2.861   1.699 -0.2572  0.1644  0.2258
  376SOL    HW1 1127   0.415   2.825   1.695  0.6252 -1.1307  0.0782
  376SOL    HW2 1128   0.325   2.964   1.703 -0.7985 -1.1151 -0.8853
  377SOL     OW 1129   0.968   2.066   2.552 -0.3081  0.1667 -0.6903
  377SOL    HW1 1130   0.993   2.159   2.515 -0.5241 -1.8719  0.3008
  377SOL    HW2 1131   0.876   2.072   2.600 -0.5408 -1.9287  0.0887
  378SOL     OW 1132   1.154   0.794   0.694  0.0937 -0.1381  0.3616
  378SOL    HW1 1133   1.069   0.796   0.636  1.7187 -2.4606 -1.7664
  378SOL    HW2 1134   1.216   0.875   0.666  2.0298  2.9309 -1.3765
  379SOL     OW 1135   0.905   1.636   0.160 -0.4380  0.0738 -0.1853
  379SOL    HW1 1136   0.906   1.547   0.214 -0.0139 -1.0310  2.2654
  379SOL    HW2 1137   0.893   1.610   0.063 -0.7189 -3.2894 -1.6592
  380SOL     OW 1138   2.955   2.017   1.773  0.7021  0.5303  0.7838
  380SOL    HW1 1139   3.032   1.996   1.712 -1.2952 -0.3468  0.7587
  380SOL    HW2 1140   2.983   2.002   1.870  1.3110  2.2887 -3.2422
  381SOL     OW 1141   0.151   1.250   1.766  0.3915  0.4594  0.8328
  381SOL    HW1 1142   0.111   1.281   1.676 -0.8614  0.8533 -1.5209
  381SOL    HW2 1143   0.218   1.174   1.761 -0.9043 -0.9767 -1.4537
  382SOL     OW 1144   2.737   2.133   0.520 -0.1235 -0.4989 -0.1745
  382SOL    HW1 1145   2.671   2.060   0.489  0.4913 -1.0305  2.2346
  382SOL    HW2 1146   2.711   2.221   0.480 -1.5191 -0.9513  1.3477
  383SOL     OW 1147   2.152   1.903   2.342 -0.5619  0.2617  0.0927
  383SOL    HW1 1148   2.122   1.821   2.290 -0.8698 -1.0499  2.3753
  383SOL    HW2 1149   2.181   1.878   2.437 -2.9296  3.5334 -0.6327
  384SOL     OW 1150   0.709   1.836   2.357  0.4311  0.4599 -0.1383
  384SOL    HW1 1151   0.802   1.808   2.312  0.8535  1.8070  2.3203
  384SOL    HW2 1152   0.721   1.892   2.442 -2.4319  1.2178  0.2886
  385SOL     OW 1153   2.893   2.219   0.918 -0.9460  0.9017  0.3822
  385SOL    HW1 1154   2.966   2.283   0.884 -0.7093  0.2353 -0.2807
  385SOL    HW2 1155   2.935   2.152   0.986 -0.5463  1.5487 -1.0380
  386SOL     OW 1156   1.907   0.717   0.213  0.5924 -0.0446  0.0120
  386SOL    HW1 1157   1.822   0.749   0.267 -2.2130  0.4411  0.9559
  386SOL    HW2 1158   1.996   0.733   0.261 -4.3152  3.5306  2.3517
  387SOL     OW 1159   0.301   1.042   1.691  0.1982 -0.3050 -0.4203
  387SOL    HW1 1160   0.242   0.962   1.671 -0.4170  0.2136 -0.9464
  387SOL    HW2 1161   0.392   1.025   1.733 -1.0642  3.4202  1.6523
  388SOL     OW 1162   2.704   0.992   2.172  0.4365 -0.1571  0.4365
  388SOL    HW1 1163   2.760   1.075   2.208  0.0222  3.4253  2.1703
  388SOL    HW2 1164   2.641   0.968   2.248  2.2046  1.3115 -1.0425
  389SOL     OW 1165   1.717   0.880   2.394 -0.0198 -0.0336 -0.3290
  389SOL    HW1 1166   1.649   0.884   2.316 -0.2662 -0.2720  0.5649
  389SOL    HW2 1167   1.805   0.844   2.357 -1.4145 -0.2775  0.6231
  390SOL     OW 1168   1.971   2.519   3.000 -0.4608 -0.1357  0.2984
  390SOL    HW1 1169   1.897   2.554   3.055  3.1115 -1.3147 -0.0719
  390SOL    HW2 1170   1.929   2.465   2.926 -1.3408  0.8099  0.7729
  391SOL     OW 1171   1.862   2.256   1.148 -0.2855  0.2081 -0.2211
  391SOL    HW1 1172   1.917   2.224   1.222 -0.5217  0.3204 -0.7960
  391SOL    HW2 1173   1.876   2.355   1.134  0.0103  0.4101  1.0536
  392SOL     OW 1174   3.008   2.498   1.365  0.4920 -0.8354 -0.2782
  392SOL    HW1 1175   3.072   2.562   1.313  0.6050  0.8181  0.9806
  392SOL    HW2 1176   2.960   2.429   1.303  0.4265  1.6464 -0.7204
  393SOL     OW 1177   1.871   1.777   2.898 -0.2793 -0.1083  0.1068
  393SOL    HW1 1178   1.888   1.871   2.869 -0.3277 -0.6965  0.4487
  393SOL    HW2 1179   1.799   1.775   2.968  1.7581 -3.0701  0.3554
  394SOL     OW 1180   0.310   3.055   3.013  0.1566 -0.3370 -0.1897
  394SOL    HW1 1181   0.354   2.966   2.992 -2.5767  1.5962  0.8729
  394SOL    HW2 1182   0.360   0.051   2.967 -2.8271  0.1583 -1.6418
  395SOL     OW 1183   1.481   1.127   1.390  0.3078  0.2142  0.7658
  395SOL    HW1 1184   1.493   1.188   1.311  0.9346  0.8271 -2.1325
  395SOL    HW2 1185   1.542   1.046   1.375  0.1048 -1.0310 -2.1016
  396SOL     OW 1186   1.690   0.846   0.332 -0.3248 -0.4123  0.3460
  396SOL    HW1 1187   1.733   0.929   0.295  0.9178  0.4054  2.2211
  396SOL    HW2 1188   1.670   0.848   0.429  1.9182 -0.0055 -3.6618
  397SOL     OW 1189   0.120   0.808   2.883 -0.2189 -0.2718 -0.1758
  397SOL    HW1 1190   0.066   0.791   2.798  0.9428  1.5525  1.8000
  397SOL    HW2 1191   0.217   0.787   2.861  0.4962  1.3231 -1.6888
  398SOL     OW 1192   1.310   0.330   2.978  0.3842  0.2959  0.3511
  398SOL    HW1 1193   1.388   0.322   3.044  1.7244  0.6226  0.0659
  398SOL    HW2 1194   1.268   0.238   2.967  0.1055  2.0594  0.0431
  399SOL     OW 1195   2.428   2.808   1.996  0.4547 -0.7449 -0.5704
  399SOL    HW1 1196   2.521   2.832   1.993 -3.6361  0.3945 -0.1354
  399SOL    HW2 1197   2.411   2.710   2.019 -0.3148 -0.0728 -0.6202
  400SOL     OW 1198   0.018   1.644   2.317 -0.1716  0.0033 -0.3370
  400SOL    HW1 1199   0.100   1.597   2.289 -0.6852  0.3710  1.9436
  400SOL    HW2 1200   3.024   1.581   2.349 -0.8905 -1.3959  0.2665
  401SOL     OW 1201   0.519   0.318   2.516  0.1930  0.0637 -0.1064
  401SOL    HW1 1202   0.576   0.315   2.605  0.3085 -2.7033  2.3857
  401SOL    HW2 1203   0.512   0.219   2.490  4.4529 -0.9134  0.7445
  402SOL     OW 1204   0.487   2.288   1.723  0.2212 -0.3220  0.4778
  402SOL    HW1 1205   0.570   2.253   1.677 -1.8567  3.2265  1.1467
  402SOL    HW2 1206   0.497   2.289   1.824 -2.4521  1.6485 -1.1365
  403SOL     OW 1207   0.729   1.319   1.373  0.0112 -0.1669  0.1748
  403SOL    HW1 1208   0.695   1.295   1.463 -0.1772 -0.3020 -1.4887
  403SOL    HW2 1209   0.711   1.415   1.347 -1.7093 -0.1676 -0.9383
  404SOL     OW 1210   2.913   2.647   1.566  0.1341  0.3675  0.4852
  404SOL    HW1 1211   2.814   2.653   1.551  1.8629 -1.4316 -2.1169
  404SOL    HW2 1212   2.957   2.587   1.499 -0.4468 -0.7693  0.9253
  405SOL     OW 1213   3.002   0.318   1.905  0.1561  0.7934 -0.3958
  405SOL    HW1 1214   3.000   0.236   1.844  0.5043 -0.5408 -3.1255
  405SOL    HW2 1215   3.044   0.299   1.998 -1.8280 -2.3984  1.6417
  406SOL     OW 1216   1.449   2.426   2.751  0.6328  0.0860  0.5768
  406SOL    HW1 1217   1.429   2.337   2.712 -1.6412  1.6774  2.2900
  406SOL    HW2 1218   1.495   2.487   2.686 -2.8774  2.4123 -1.5284
  407SOL     OW 1219   1.684   1.452   1.335 -0.0710 -0.3970 -0.1489
  407SOL    HW1 1220   1.736   1.386   1.389 -0.7650 -0.9773 -1.7908
  407SOL    HW2 1221   1.688   1.546   1.382 -1.2318  0.1169  0.7635
  408SOL     OW 1222   0.652   0.180   2.163  0.1899 -0.2711 -0.0656
  408SOL    HW1 1223   0.614   0.090   2.139  1.4686  0.1066  2.5843
  408SOL    HW2 1224   0.756   0.178   2.185  1.4451 -1.7245  2.0601
  409SOL     OW 1225   2.731   2.398   0.792  0.7473  0.6463 -0.1037
  409SOL    HW1 1226   2.648   2.434   0.837  0.1183  1.9024  1.9553
  409SOL    HW2 1227   2.774   2.334   0.859 -0.4838 -0.5149  0.0374
  410SOL     OW 1228   2.286   1.720   0.271 -0.3704  0.0123 -0.4523
  410SOL    HW1 1229   2.317   1.660   0.344 -0.5327  2.6783 -1.8805
  410SOL    HW2 1230   2.358   1.740   0.203 -1.0896  0.1968 -0.8147
  411SOL     OW 1231   0.047   0.524   0.667 -0.1148  0.7912  0.5015
  411SOL    HW1 1232   0.127   0.490   0.613  3.0546  1.6492  1.5139
  411SOL    HW2 1233   3.054   0.577   0.621  3.3789  1.1945  1.7142
  412SOL     OW 1234   1.975   0.687   0.552  0.2925 -0.4737  0.2343
  412SOL    HW1 1235   1.946   0.756   0.618 -0.4137 -1.5682 -1.3353
  412SOL    HW2 1236   2.019   0.732   0.469  0.5778 -0.1064 -0.1501
  413SOL     OW 1237   0.874   0.516   1.140  0.6052 -0.3082  0.4518
  413SOL    HW1 1238   0.781   0.479   1.161  2.9413 -2.0516 -0.0844
  413SOL    HW2 1239   0.924   0.455   1.074  0.4400  0.0005  2.3993
  414SOL     OW 1240   0.241   1.645   0.129 -0.6118  0.5967  0.0835
  414SOL    HW1 1241   0.168   1.576   0.120 -1.2534 -0.0233 -1.2115
  414SOL    HW2 1242   0.325   1.611   0.183  0.8655  1.8185  1.6923
  415SOL     OW 1243   0.286   2.217   0.023 -0.4925  0.2279  0.4278
  415SOL    HW1 1244   0.384   2.187   0.013  1.1741 -1.5585 -0.0857
  415SOL    HW2 1245   0.223   2.160   3.051  1.0845  1.2780 -1.2232
  416SOL     OW 1246   1.595   0.823   0.605  0.4942 -0.2925  0.4342
  416SOL    HW1 1247   1.583   0.724   0.625  0.9605 -0.0704 -0.0966
  416SOL    HW2 1248   1.679   0.862   0.639 -2.8822 -1.5587 -0.2864
  417SOL     OW 1249   0.252   0.848   0.470 -0.0804 -0.5126 -0.6797
  417SOL    HW1 1250   0.190   0.772   0.452  0.7471  1.4087  1.2027
  417SOL    HW2 1251   0.219   0.899   0.551  3.2000 -2.1694 -0.4724
  418SOL     OW 1252   2.714   1.085   2.702 -0.4037 -0.3615  0.2354
  418SOL    HW1 1253   2.654   1.163   2.669  0.9384  0.5562 -0.4322
  418SOL    HW2 1254   2.663   1.036   2.775 -0.3447  0.1174 -2.5145
  419SOL     OW 1255   0.310   0.448   2.878 -0.2726 -0.5191  0.1478
  419SOL    HW1 1256   0.286   0.426   2.972 -2.2304 -2.7031 -1.2484
  419SOL    HW2 1257   0.333   0.548   2.862  2.0402 -1.5779 -1.7336
  420SOL     OW 1258   0.222   1.196   0.802 -0.0187  0.0241 -0.5274
  420SOL    HW1 1259   0.120   1.218   0.803 -1.5182  1.0174  0.1566
  420SOL    HW2 1260   0.268   1.237   0.887  1.0086  2.4533 -0.6429
  421SOL     OW 1261   0.572   1.937   0.391  0.0268  0.1220 -0.2859
  421SOL    HW1 1262   0.478   1.960   0.360  0.4716  0.7154  3.3338
  421SOL    HW2 1263   0.587   1.988   0.482  0.7272 -0.7772  1.3454
  422SOL     OW 1264   2.791   0.714   1.290  0.2403  0.2630  0.2436
  422SOL    HW1 1265   2.862   0.730   1.366 -0.0256  0.5934  2.1369
  422SOL    HW2 1266   2.769   0.615   1.288 -2.6075  1.5979 -1.1568
  423SOL     OW 1267   1.789   1.480   1.068  0.5456 -0.4902 -0.1757
  423SOL    HW1 1268   1.752   1.463   1.162 -0.7703 -0.0812 -0.4641
  423SOL    HW2 1269   1.788   1.581   1.051 -0.8766 -0.2248 -1.9084
  424SOL     OW 1270   2.064   1.268   0.459 -0.4681  0.0740  0.2470
  424SOL    HW1 1271   2.125   1.244   0.383  1.3768  1.3958 -3.1966
  424SOL    HW2 1272   1.974   1.296   0.429 -0.5689  1.4207  1.2856
  425SOL     OW 1273   0.125   2.874   2.120  0.0963  0.4171 -0.0528
  425SOL    HW1 1274   0.167   2.941   2.183  0.9681  0.8877  1.7790
  425SOL    HW2 1275   0.038   2.836   2.162 -0.3156 -0.2783  1.3205
  426SOL     OW 1276   2.631   2.594   2.774 -0.2611  0.2202  0.1340
  426SOL    HW1 1277   2.587   2.571   2.868  0.8761 -2.0362  3.9601
  426SOL    HW2 1278   2.645   2.692   2.756 -1.6345 -2.3235  0.7494
  427SOL     OW 1279   0.959   0.961   2.435 -0.1439 -0.0501  0.3427
  427SOL    HW1 1280   0.927   0.870   2.394 -0.5764 -0.7781  1.3310
  427SOL    HW2 1281   1.019   0.940   2.514  1.7494  2.2388 -0.3159
  428SOL     OW 1282   2.195   0.798   2.499  0.6188  0.2416  0.0041
  428SOL    HW1 1283   2.218   0.750   2.586  0.5275 -1.2384 -2.0106
  428SOL    HW2 1284   2.122   0.872   2.509 -0.8617 -0.8216 -0.5479
  429SOL     OW 1285   2.425   0.312   0.612 -0.2137  0.4528 -0.3708
  429SOL    HW1 1286   2.389   0.260   0.536  2.2440  0.4036  2.5435
  429SOL    HW2 1287   2.359   0.380   0.657  0.4306 -1.8832  0.8036
  430SOL     OW 1288   2.005   1.253   2.031  0.4140  0.0314 -0.4194
  430SOL    HW1 1289   2.049   1.208   2.113 -0.9538  2.5416 -1.0406
  430SOL    HW2 1290   2.018   1.201   1.947  2.8553  0.1133  1.1761
  431SOL     OW 1291   2.956   2.029   1.408  0.0714  0.4386 -0.8307
  431SOL    HW1 1292   2.953   2.112   1.467 -0.6682  1.5768  1.1186
  431SOL    HW2 1293   2.988   1.945   1.453  0.8792  3.4466 -2.8451
  432SOL     OW 1294   1.578   2.901   2.387  0.5644 -0.3458 -0.0032
  432SOL    HW1 1295   1.663   2.961   2.394 -0.8415  1.5240  0.4263
  432SOL    HW2 1296   1.557   2.880   2.288  0.3913  2.2646 -1.8146
  433SOL     OW 1297   1.451   2.867   1.604  0.1755 -0.6695 -0.3226
  433SOL    HW1 1298   1.513   2.790   1.613 -3.4308  2.1061 -0.0879
  433SOL    HW2 1299   1.425   2.874   1.508 -1.2053 -0.8483 -0.5028
  434SOL     OW 1300   0.263   2.251   2.356  0.1541  0.1959  0.0934
  434SOL    HW1 1301   0.304   2.323   2.416  1.3320  1.2708  0.0388
  434SOL    HW2 1302   0.240   2.296   2.267 -0.3978 -1.0507 -2.4146
  435SOL     OW 1303   2.990   1.968   0.152  0.6183  0.7216 -0.8767
  435SOL    HW1 1304   0.005   1.934   0.152  1.2645  0.2377  0.4654
  435SOL    HW2 1305   2.923   1.902   0.185 -0.2515 -0.1607  0.4756
  436SOL     OW 1306   0.951   1.092   1.705 -0.1804 -0.2626  0.2082
  436SOL    HW1 1307   1.010   1.023   1.659 -2.1840 -2.1566  0.1938
  436SOL    HW2 1308   0.988   1.138   1.784 -0.7382 -2.8548 -2.0132
  437SOL     OW 1309   0.312   0.112   2.647 -0.1886  0.2174 -0.0075
  437SOL    HW1 1310   0.392   0.108   2.714 -0.2573 -1.1883  0.7459
  437SOL    HW2 1311   0.276   0.019   2.628 -0.0123 -0.1091 -2.0601
  438SOL     OW 1312   0.454   1.509   1.591  0.2540 -0.1176 -0.4384
  438SOL    HW1 1313   0.493   1.604   1.585  0.9143 -1.1596  1.9262
  438SOL    HW2 1314   0.508   1.448   1.656  0.5504 -0.8759  1.8103
  439SOL     OW 1315   1.900   0.999   2.996  0.4566 -0.5012  0.0722
  439SOL    HW1 1316   1.896   1.058   3.075 -2.1882 -1.1584 -0.2466
  439SOL    HW2 1317   1.997   0.991   2.968  0.0601 -1.5612 -0.2132
  440SOL     OW 1318   0.816   1.060   0.201 -0.1859 -0.1552 -0.1697
  440SOL    HW1 1319   0.844   1.048   0.301  0.7396 -0.1465  0.9508
  440SOL    HW2 1320   0.733   1.004   0.181  1.3056  1.0372 -0.1609
  441SOL     OW 1321   0.715   2.569   1.625  0.0266 -0.4963  0.1809
  441SOL    HW1 1322   0.660   2.545   1.542 -2.7200 -1.5201 -0.7255
  441SOL    HW2 1323   0.777   2.647   1.607 -0.2585  1.1655 -1.7558
  442SOL     OW 1324   2.530   1.961   0.487 -0.1792  0.9030 -0.0931
  442SOL    HW1 1325   2.433   1.980   0.507 -0.5646  0.6686 -0.3803
  442SOL    HW2 1326   2.535   1.862   0.511 -0.0222 -3.3687  2.0134
  443SOL     OW 1327   2.699   1.566   2.607  0.0440 -0.2390  0.3187
  443SOL    HW1 1328   2.663   1.660   2.598  2.2146  1.0560 -1.0331
  443SOL    HW2 1329   2.771   1.575   2.680  1.6390  1.0396  2.1757
  444SOL     OW 1330   1.241   1.066   0.139 -0.0449 -0.2594 -0.3424
  444SOL    HW1 1331   1.168   1.055   0.075  1.1466  1.8137  0.2092
  444SOL    HW2 1332   1.208   1.021   0.223 -1.3833  1.3975 -1.9951
  445SOL     OW 1333   2.323   2.546   1.750  0.0330 -0.1208  0.1335
  445SOL    HW1 1334   2.407   2.527   1.804 -1.5203 -2.2546  0.2098
  445SOL    HW2 1335   2.281   2.635   1.771  0.6495 -0.8546 -0.2243
  446SOL     OW 1336   3.068   1.638   0.666  0.1998  0.6038  0.3473
  446SOL    HW1 1337   0.018   1.647   0.569 -0.9557 -0.3502  1.8262
  446SOL    HW2 1338   0.015   1.720   0.720  0.0864 -1.5112 -1.0314
  447SOL     OW 1339   0.961   2.170   1.263  0.0935  0.5304 -0.7192
  447SOL    HW1 1340   0.992   2.186   1.358  1.8890 -0.5522 -0.2105
  447SOL    HW2 1341   0.869   2.126   1.258  0.8542 -1.3992  1.4606
  448SOL     OW 1342   1.414   1.629   1.826 -0.2553 -0.8616 -0.3313
  448SOL    HW1 1343   1.342   1.561   1.829  3.5220  2.9044 -4.2328
  448SOL    HW2 1344   1.381   1.725   1.805 -3.3351  0.6619 -1.4640
  449SOL     OW 1345   0.144   1.990   2.257 -0.2542  0.3945  0.0230
  449SOL    HW1 1346   0.102   2.067   2.202 -0.8640  1.1167  2.7910
  449SOL    HW2 1347   0.197   1.936   2.191 -0.7757  0.4133 -0.2067
  450SOL     OW 1348   2.765   2.060   2.214 -0.1133 -0.4689  0.3662
  450SOL    HW1 1349   2.751   2.138   2.274 -1.4815  0.3671 -1.2161
  450SOL    HW2 1350   2.847   2.011   2.242  0.0998 -0.1911  1.8715
  451SOL     OW 1351   2.124   0.664   1.602  0.0764 -0.2264  0.4995
  451SOL    HW1 1352   2.180   0.696   1.523 -0.7355 -1.0886 -1.7835
  451SOL    HW2 1353   2.100   0.565   1.589 -2.2052  0.6615  0.7307
  452SOL     OW 1354   0.784   1.528   0.801 -0.0565  0.4045  0.1311
  452SOL    HW1 1355   0.738   1.436   0.808 -2.2781  1.1632 -0.7325
  452SOL    HW2 1356   0.827   1.547   0.708 -2.2499 -0.2687 -0.4494
  453SOL     OW 1357   1.338   2.411   0.963 -0.7282  0.4134  0.4524
  453SOL    HW1 1358   1.372   2.394   0.869  1.7755  0.5458  0.6770
  453SOL    HW2 1359   1.239   2.395   0.970 -0.7447 -1.0732  0.7364
  454SOL     OW 1360   0.068   1.384   0.305  0.2005  0.7132  0.0326
  454SOL    HW1 1361   0.036   1.339   0.390  1.7158  1.9442 -1.3865
  454SOL    HW2 1362   0.114   1.316   0.239 -0.7670 -1.8090 -0.3930
  455SOL     OW 1363   0.926   1.031   0.477 -0.1392  0.5157  0.0345
  455SOL    HW1 1364   1.016   1.016   0.426  0.8132  0.8369  0.7596
  455SOL    HW2 1365   0.929   1.091   0.557 -0.3311  0.6636  0.1557
  456SOL     OW 1366   2.289   2.370   0.905  0.2881  0.2886  0.1459
  456SOL    HW1 1367   2.195   2.343   0.879  0.5306 -3.2748  0.4228
  456SOL    HW2 1368   2.354   2.311   0.861 -3.7213 -1.4140  1.0293
  457SOL     OW 1369   1.602   3.022   2.911 -0.2111  0.3883  0.3397
  457SOL    HW1 1370   1.578   0.037   2.878 -1.8255  2.3658  0.4140
  457SOL    HW2 1371   1.702   3.014   2.928 -1.9851 -2.4990 -0.1786
  458SOL     OW 1372   2.506   0.433   0.147 -0.1763 -0.7773 -0.6512
  458SOL    HW1 1373   2.408   0.426   0.179  0.1192 -1.3673  3.5803
  458SOL    HW2 1374   2.566   0.413   0.227 -0.2704  1.7812 -1.0535
  459SOL     OW 1375   2.261   0.316   2.179  1.0782 -0.4951  0.1617
  459SOL    HW1 1376   2.244   0.410   2.209  0.6519 -0.0564 -2.2907
  459SOL    HW2 1377   2.345   0.320   2.121 -0.5152 -0.0799  1.8606
  460SOL     OW 1378   2.884   0.554   2.801  0.3661 -0.5339  0.2643
  460SOL    HW1 1379   2.908   0.475   2.858  0.2970 -1.2663 -1.7446
  460SOL    HW2 1380   2.856   0.527   2.708  2.4889 -1.1830 -2.1177
  461SOL     OW 1381   0.037   2.311   0.740  0.1455 -0.1920 -0.8066
  461SOL    HW1 1382   0.119   2.255   0.750 -2.7270  0.7002  1.8087
  461SOL    HW2 1383   3.048   2.272   0.679  2.3241  0.8691  0.4146
  462SOL     OW 1384   2.831   0.124   1.129  0.0283 -0.5557 -0.2851
  462SOL    HW1 1385   2.732   0.109   1.094 -2.8520  0.0037 -0.8083
  462SOL    HW2 1386   2.861   0.220   1.126 -0.0338 -1.3932  0.2035
  463SOL     OW 1387   2.062   1.252   3.032  0.7779  0.5796  0.1844
  463SOL    HW1 1388   2.145   1.313   3.040 -0.1203  1.0145  0.7671
  463SOL    HW2 1389   2.083   1.164   2.986 -2.0140 -1.5586 -0.1676
  464SOL     OW 1390   0.794   2.436   1.256  0.2053 -0.2463  0.5536
  464SOL    HW1 1391   0.801   2.340   1.286  0.6725  1.3345 -2.6600
  464SOL    HW2 1392   0.876   2.493   1.275  3.0913  0.8688  0.3346
  465SOL     OW 1393   0.910   0.231   1.428 -0.1901 -0.0080 -0.9350
  465SOL    HW1 1394   0.999   0.269   1.466  1.2226 -2.8422 -0.4302
  465SOL    HW2 1395   0.827   0.282   1.468 -1.5698  2.2763  1.5373
  466SOL     OW 1396   1.619   2.439   1.892  0.3850 -0.5065  0.3899
  466SOL    HW1 1397   1.662   2.406   1.977  0.0436  1.8159  1.6719
  466SOL    HW2 1398   1.520   2.448   1.903 -0.7899 -2.7171  1.3582
  467SOL     OW 1399   0.601   2.198   1.320 -0.1407  0.0723  0.0007
  467SOL    HW1 1400   0.538   2.266   1.272 -1.0755 -0.4126 -0.2875
  467SOL    HW2 1401   0.576   2.102   1.299  0.8435 -0.0446  1.8366
  468SOL     OW 1402   2.676   1.599   2.075  0.2697 -0.6230 -0.3871
  468SOL    HW1 1403   2.665   1.651   2.165 -0.5421 -1.5306  0.1172
  468SOL    HW2 1404   2.645   1.504   2.087  0.5043  2.0109 -0.6145
  469SOL     OW 1405   0.897   2.000   0.665  0.1174 -0.0933  0.4134
  469SOL    HW1 1406   0.817   2.044   0.625 -1.2059  1.1741  2.7002
  469SOL    HW2 1407   0.867   1.928   0.726  1.8047  3.2781 -0.4298
  470SOL     OW 1408   2.101   1.130   2.243 -0.0721  0.4245  0.4005
  470SOL    HW1 1409   2.137   1.033   2.237 -2.2232  1.2195 -2.3283
  470SOL    HW2 1410   2.126   1.172   2.333 -0.5874  0.3539 -0.5109
  471SOL     OW 1411   0.564   2.489   0.058 -0.0126  0.3198  0.5304
  471SOL    HW1 1412   0.471   2.473   0.100  1.6424  0.1094 -0.5588
  471SOL    HW2 1413   0.632   2.467   0.131 -0.8257  0.5497  1.2089
  472SOL     OW 1414   0.348   2.718   2.093 -0.0869 -0.0855 -0.5270
  472SOL    HW1 1415   0.270   2.784   2.106  1.3548  0.4808 -0.1555
  472SOL    HW2 1416   0.434   2.751   2.135 -1.1207 -0.3553  0.4010
  473SOL     OW 1417   0.450   2.818   2.991  0.0823  0.1554  0.2295
  473SOL    HW1 1418   0.408   2.782   3.076 -1.1254  1.0466 -0.4931
  473SOL    HW2 1419   0.551   2.827   3.008  1.3005  0.8529 -0.2403
  474SOL     OW 1420   2.071   3.003   1.067 -0.0789 -0.4474  0.1472
  474SOL    HW1 1421   1.988   3.020   1.006 -2.4199  0.5562 -2.1932
  474SOL    HW2 1422   2.121   2.918   1.058 -1.8268  0.3643  0.5557
  475SOL     OW 1423   1.765   3.071   1.695 -0.1019  0.4402 -0.0334
  475SOL    HW1 1424   1.849   3.054   1.747 -2.1780 -0.3868  3.1471
  475SOL    HW2 1425   1.777   3.067   1.594  1.2620 -2.4622 -1.1780
  476SOL     OW 1426   0.665   1.253   0.751  1.1533  0.2143 -0.3336
  476SOL    HW1 1427   0.578   1.301   0.744  1.9229 -2.3496  0.7509
  476SOL    HW2 1428   0.644   1.158   0.770 -1.1922  3.3566 -1.4944
  477SOL     OW 1429   0.279   1.899   0.620 -0.0020 -0.1882  0.0832
  477SOL    HW1 1430   0.369   1.863   0.652  0.1706 -2.3826 -1.9916
  477SOL    HW2 1431   0.253   1.856   0.528 -1.2145  0.2974 -4.5854
  478SOL     OW 1432   0.040   2.479   2.382 -0.3019 -0.0474  0.3037
  478SOL    HW1 1433   3.077   2.547   2.441  0.6832 -1.5592  1.5486
  478SOL    HW2 1434   0.001   2.389   2.409 -2.3149 -2.0289 -0.2273
  479SOL     OW 1435   2.832   0.450   1.288  0.1539 -0.5077  0.1770
  479SOL    HW1 1436   2.926   0.443   1.328 -0.0855  1.2131  1.3799
  479SOL    HW2 1437   2.768   0.396   1.346 -1.8309  1.4037  2.1530
  480SOL     OW 1438   2.878   2.556   3.026 -0.3513  0.1285 -0.7801
  480SOL    HW1 1439   2.964   2.524   3.075 -0.3015  2.1749  0.1975
  480SOL    HW2 1440   2.793   2.510   3.066 -3.4667 -0.3149  0.5158
  481SOL     OW 1441   2.278   1.838   1.831  0.3248  0.3248 -0.8324
  481SOL    HW1 1442   2.188   1.872   1.863 -3.1813  1.9541  3.2950
  481SOL    HW2 1443   2.325   1.917   1.791 -2.0309  0.0455  0.9976
  482SOL     OW 1444   1.868   2.092   2.436 -0.3860 -1.0390  0.0740
  482SOL    HW1 1445   1.939   2.118   2.371 -3.1868 -0.7091  1.2566
  482SOL    HW2 1446   1.787   2.060   2.382  3.2648  1.2968  1.2145
  483SOL     OW 1447   0.889   1.506   2.182 -0.0684  0.1462 -0.0284
  483SOL    HW1 1448   0.839   1.444   2.252 -1.4665 -0.4603  1.0593
  483SOL    HW2 1449   0.863   1.490   2.084  2.0162  0.2275 -2.8551
  484SOL     OW 1450   0.008   0.446   1.387 -0.1501 -0.2728  0.2261
  484SOL    HW1 1451   0.044   0.496   1.307  0.2723  1.2768 -1.1651
  484SOL    HW2 1452   0.050   0.473   1.478  1.1963 -0.8846  2.9827
  485SOL     OW 1453   2.381   0.990   0.287 -0.2861 -0.5198 -0.1140
  485SOL    HW1 1454   2.432   0.913   0.248  2.5764  0.8513 -0.1201
  485SOL    HW2 1455   2.429   1.038   0.366 -1.4796  0.9995  0.4142
  486SOL     OW 1456   1.494   0.191   2.133 -0.3098  0.1643  0.5125
  486SOL    HW1 1457   1.529   0.155   2.046 -1.7006 -1.3540 -1.7507
  486SOL    HW2 1458   1.568   0.222   2.194 -0.8174 -1.0706 -1.9096
  487SOL     OW 1459   0.739   1.862   1.332 -0.1215  0.1644  0.0931
  487SOL    HW1 1460   0.643   1.895   1.343  0.7067  0.4766  0.7620
  487SOL    HW2 1461   0.798   1.907   1.396 -1.4510 -0.2095 -1.9947
  488SOL     OW 1462   2.289   1.418   3.025 -0.1269  0.4121  0.2657
  488SOL    HW1 1463   2.369   1.393   2.968 -1.6214 -3.0546 -1.8664
  488SOL    HW2 1464   2.255   1.507   2.989  0.2592  1.7042  0.0934
  489SOL     OW 1465   2.321   2.731   0.610 -0.4376  0.7783  0.1647
  489SOL    HW1 1466   2.246   2.668   0.635  0.5471 -2.6310 -0.5696
  489SOL    HW2 1467   2.305   2.775   0.522 -0.0819 -1.9845 -0.1988
  490SOL     OW 1468   1.075   2.690   2.931  0.4068  0.1366  0.2722
  490SOL    HW1 1469   1.133   2.613   2.891 -1.4040 -0.6175  0.2605
  490SOL    HW2 1470   0.975   2.673   2.913 -0.1335  0.2217  0.3972
  491SOL     OW 1471   0.835   1.212   1.155  0.1260  0.1083 -0.0959
  491SOL    HW1 1472   0.797   1.258   1.241 -1.3697 -1.6758  1.1855
  491SOL    HW2 1473   0.904   1.277   1.117 -0.1264 -2.4474  0.1382
  492SOL     OW 1474   1.364   0.353   2.473 -0.2884  0.5207  0.8077
  492SOL    HW1 1475   1.381   0.255   2.489 -0.1927  4.1198  1.7900
  492SOL    HW2 1476   1.433   0.411   2.522  0.5113  0.7988 -0.5111
  493SOL     OW 1477   1.810   2.219   0.134  0.7375  0.0819  0.6429
  493SOL    HW1 1478   1.749   2.236   0.052 -1.5048  0.8842 -2.7146
  493SOL    HW2 1479   1.899   2.183   0.094  0.4054 -3.2241 -1.2267
  494SOL     OW 1480   0.719   1.359   0.498  0.6492 -0.5714 -0.0477
  494SOL    HW1 1481   0.670   1.451   0.515 -0.9117  0.3089  2.0573
  494SOL    HW2 1482   0.717   1.311   0.587 -1.0570 -0.1817  1.2678
  495SOL     OW 1483   2.795   2.636   0.645 -0.2305 -0.1616  0.2862
  495SOL    HW1 1484   2.886   2.656   0.607 -3.0716 -2.8471 -0.6174
  495SOL    HW2 1485   2.794   2.546   0.695  0.1236 -3.7427  3.1809
  496SOL     OW 1486   2.624   0.025   1.537 -0.0454 -0.1043 -0.2398
  496SOL    HW1 1487   2.551   0.017   1.463  0.5229 -1.0731 -4.0572
  496SOL    HW2 1488   2.590   0.031   1.632 -0.6253  0.2059  0.2869
  497SOL     OW 1489   2.398   1.082   2.372  0.1366  0.5910  0.1004
  497SOL    HW1 1490   2.416   1.083   2.271  0.6343 -1.6479  2.7166
  497SOL    HW2 1491   2.338   1.152   2.409  0.3178  1.2309  0.1300
  498SOL     OW 1492   0.354   2.183   0.999 -0.0640  0.2764 -0.1421
  498SOL    HW1 1493   0.311   2.180   0.907  1.1076 -1.7537  1.9623
  498SOL    HW2 1494   0.290   2.155   1.075 -1.5384 -0.7833  0.8265
  499SOL     OW 1495   0.990   2.458   1.653  0.6240  0.1576  0.0886
  499SOL    HW1 1496   0.896   2.490   1.631  0.7835 -1.5414 -0.1376
  499SOL    HW2 1497   1.051   2.537   1.660 -0.5904 -2.1006 -1.7771
  500SOL     OW 1498   1.053   2.201   0.229  0.1106  0.0046 -0.7224
  500SOL    HW1 1499   1.049   2.100   0.212  1.5006  2.4168 -0.1148
  500SOL    HW2 1500   1.090   2.249   0.149  0.7070  1.0462  0.2210
  501SOL     OW 1501   2.216   2.863   1.328 -0.2652 -0.1193 -0.4003
  501SOL    HW1 1502   2.177   2.814   1.408  2.0884  1.0535 -2.2378
  501SOL    HW2 1503   2.191   2.818   1.243 -1.0280  1.5055  2.1048
  502SOL     OW 1504   2.690   0.334   1.491  0.4689 -0.1678 -0.1279
  502SOL    HW1 1505   2.665   0.245   1.534 -0.6177 -0.7132 -0.5814
  502SOL    HW2 1506   2.759   0.383   1.554  1.7802  2.0511  2.4043
  503SOL     OW 1507   2.701   0.916   1.901  0.3477  0.0728 -0.2303
  503SOL    HW1 1508   2.798   0.933   1.870 -0.8530  1.2491 -2.1798
  503SOL    HW2 1509   2.700   0.933   2.003  0.0318  0.7927  2.6289
  504SOL     OW 1510   1.459   0.620   1.748  0.0273  0.0467 -0.0503
  504SOL    HW1 1511   1.522   0.588   1.823 -1.6235 -1.0766 -5.3518
  504SOL    HW2 1512   1.373   0.651   1.790 -0.0239  0.5016 -1.1084
  505SOL     OW 1513   0.937   2.972   2.018  0.2211 -0.2554 -0.4551
  505SOL    HW1 1514   0.904   2.890   1.962 -1.8463 -1.8276 -0.7851
  505SOL    HW2 1515   0.893   2.970   2.111  1.6179  0.0041 -1.9820
  506SOL     OW 1516   0.375   0.244   0.683 -0.3500  1.2332  0.3903
  506SOL    HW1 1517   0.372   0.155   0.635 -1.4315  1.0432 -0.8019
  506SOL    HW2 1518   0.391   0.235   0.783 -0.7772 -0.3066 -2.9219
  507SOL     OW 1519   2.069   0.384   0.074 -0.0704  0.0522 -0.0499
  507SOL    HW1 1520   2.152   0.392   0.126  0.3309 -0.8835 -0.3198
  507SOL    HW2 1521   2.007   0.317   0.120  0.7889 -0.4669  1.8147
  508SOL     OW 1522   1.771   0.213   2.264 -0.4112  0.0357  0.0255
  508SOL    HW1 1523   1.799   0.309   2.281  0.0191  0.0586 -0.4691
  508SOL    HW2 1524   1.770   0.169   2.357 -0.0506  0.8343  0.7997
  509SOL     OW 1525   1.028   1.445   1.678 -0.5111  0.2668  0.8039
  509SOL    HW1 1526   1.108   1.400   1.722 -1.9911  0.9429 -0.6171
  509SOL    HW2 1527   1.005   1.396   1.593  1.5748  2.8724 -0.0529
  510SOL     OW 1528   2.736   1.090   0.740  0.3145 -0.0778 -0.2775
  510SOL    HW1 1529   2.812   1.068   0.801 -1.8224  1.9304 -0.2703
  510SOL    HW2 1530   2.677   1.164   0.776 -0.1364 -1.8730 -0.9475
  511SOL     OW 1531   1.964   1.975   1.194  0.0425 -0.1501 -0.3452
  511SOL    HW1 1532   1.968   2.030   1.279  0.0497 -2.5573 -3.3134
  511SOL    HW2 1533   2.057   1.939   1.177  1.2180 -0.0862 -4.0057
  512SOL     OW 1534   0.044   1.641   0.397  0.0052  0.3953  0.6170
  512SOL    HW1 1535   0.059   1.538   0.377  0.7356 -2.2653 -0.4055
  512SOL    HW2 1536   0.124   1.706   0.389  1.0776 -1.1404  0.4791
  513SOL     OW 1537   2.998   2.207   0.293 -0.0733  0.2400  0.4234
  513SOL    HW1 1538   2.984   2.135   0.220 -0.7085 -0.0676  0.8480
  513SOL    HW2 1539   2.913   2.264   0.310  1.5614 -1.1977  1.3308
  514SOL     OW 1540   2.468   1.997   2.510  0.2381  0.6468  0.1580
  514SOL    HW1 1541   2.489   2.095   2.485 -0.9799  0.7457 -0.5551
  514SOL    HW2 1542   2.409   1.983   2.593  3.1891 -0.2189 -2.2065
  515SOL     OW 1543   2.065   1.557   0.672  0.1699 -0.6319 -0.8305
  515SOL    HW1 1544   1.977   1.513   0.654  1.8948  0.7039  2.0025
  515SOL    HW2 1545   2.147   1.514   0.633 -1.6348 -2.0629 -0.4556
  516SOL     OW 1546   1.992   3.056   0.481 -0.2119  0.1939  0.4746
  516SOL    HW1 1547   1.982   0.076   0.465 -3.6186 -3.8631  0.3661
  516SOL    HW2 1548   1.936   2.992   0.423  1.2018 -0.9779  0.1782
  517SOL     OW 1549   0.880   1.843   2.817  0.0992 -0.7840  0.3835
  517SOL    HW1 1550   0.972   1.865   2.855  1.8110  0.9659 -2.5509
  517SOL    HW2 1551   0.840   1.919   2.760  0.1193  1.3122 -2.4070
  518SOL     OW 1552   0.515   0.627   1.876 -0.1005 -0.5312 -0.9007
  518SOL    HW1 1553   0.426   0.586   1.863 -3.0621  1.1421  0.3485
  518SOL    HW2 1554   0.553   0.603   1.967 -3.4695 -0.5823 -1.5359
  519SOL     OW 1555   3.054   1.068   0.270  0.5507 -0.4071  0.0924
  519SOL    HW1 1556   0.024   1.123   0.192 -2.8264  0.6904 -1.4948
  519SOL    HW2 1557   3.078   1.112   0.357 -0.2154  0.3286  0.1237
  520SOL     OW 1558   2.658   1.589   1.669 -0.0268  0.3575 -0.0450
  520SOL    HW1 1559   2.711   1.651   1.734 -0.5909 -1.5276 -1.6803
  520SOL    HW2 1560   2.628   1.645   1.593  1.4803 -0.1475  2.3491
  521SOL     OW 1561   0.512   2.455   2.372  0.1043  0.0164  0.6204
  521SOL    HW1 1562   0.567   2.446   2.286 -0.8479  1.2305 -1.8985
  521SOL    HW2 1563   0.429   2.515   2.352 -1.0887  1.1477  0.3649
  522SOL     OW 1564   1.820   3.047   2.133 -0.5989 -0.3739  0.4494
  522SOL    HW1 1565   1.827   3.051   2.034 -2.4932  0.0888  2.7104
  522SOL    HW2 1566   1.801   0.063   2.171  2.9368  1.5215 -0.1906
  523SOL     OW 1567   1.912   1.809   1.744  0.0505 -0.6512 -0.0715
  523SOL    HW1 1568   1.940   1.907   1.753  1.2912  1.1539  1.4409
  523SOL    HW2 1569   1.896   1.762   1.833  1.7772  4.0951 -2.2570
  524SOL     OW 1570   0.701   2.775   0.248  0.2858 -0.3957  0.3538
  524SOL    HW1 1571   0.624   2.837   0.249 -0.8867 -0.1115  1.3902
  524SOL    HW2 1572   0.790   2.820   0.274  0.6359  0.9034  1.5985
  525SOL     OW 1573   2.942   0.350   0.236  0.6983  0.2183 -0.0427
  525SOL    HW1 1574   2.899   0.425   0.183 -0.9867  2.6064 -0.5046
  525SOL    HW2 1575   3.040   0.363   0.250 -4.2870 -1.9111  0.9702
  526SOL     OW 1576   0.748   2.812   0.672  0.2756 -0.2044  0.7467
  526SOL    HW1 1577   0.787   2.805   0.766  3.4379 -0.4591 -0.6474
  526SOL    HW2 1578   0.679   2.738   0.650 -0.0893  2.4659  1.4872
  527SOL     OW 1579   2.670   1.811   0.941 -0.1891  0.0155  0.4636
  527SOL    HW1 1580   2.614   1.854   1.017 -0.7482 -3.8283 -1.1208
  527SOL    HW2 1581   2.684   1.879   0.868 -0.9963 -2.4846  2.0677
  528SOL     OW 1582   2.896   0.502   2.270 -0.0830 -0.1781  0.6901
  528SOL    HW1 1583   2.995   0.519   2.268 -1.5438  2.9208  1.7617
  528SOL    HW2 1584   2.851   0.448   2.193  0.6486  1.4347 -0.1212
  529SOL     OW 1585   1.175   1.447   2.494 -0.1775  0.4279  0.1244
  529SOL    HW1 1586   1.251   1.417   2.554  1.6512 -1.5405 -2.7443
  529SOL    HW2 1587   1.086   1.414   2.534 -1.0041 -1.8723  1.0975
  530SOL     OW 1588   1.800   1.216   2.693 -0.2751 -0.0421 -0.0215
  530SOL    HW1 1589   1.802   1.194   2.597 -0.0502 -0.9502 -0.1241
  530SOL    HW2 1590   1.811   1.136   2.753  0.1458  1.9554  1.5378
  531SOL     OW 1591   0.625   1.597   2.531 -0.3626 -0.7282  0.6207
  531SOL    HW1 1592   0.540   1.647   2.502 -0.9486 -2.3694  1.1973
  531SOL    HW2 1593   0.646   1.523   2.466  0.7131 -0.4237  3.7335
  532SOL     OW 1594   1.807   1.476   0.595  0.2459  0.3687 -0.1580
  532SOL    HW1 1595   1.809   1.442   0.500  0.5381  1.8053  0.9750
  532SOL    HW2 1596   1.726   1.539   0.607 -0.7586  2.2302  1.5567
  533SOL     OW 1597   0.305   0.179   2.062  0.1520  0.1905  0.3474
  533SOL    HW1 1598   0.295   0.178   1.963 -0.1058 -0.0560  3.6192
  533SOL    HW2 1599   0.221   0.143   2.105 -0.5847 -2.7438 -0.9988
  534SOL     OW 1600   0.810   2.596   2.913 -0.2894 -1.1545  0.2994
  534SOL    HW1 1601   0.786   2.506   2.949 -1.4304  2.1126 -0.3732
  534SOL    HW2 1602   0.765   2.670   2.964  0.3083 -3.7349 -2.8649
  535SOL     OW 1603   0.286   0.115   0.337 -0.0581  0.1600 -0.2024
  535SOL    HW1 1604   0.335   0.208   0.332  2.2320 -2.4550 -1.6915
  535SOL    HW2 1605   0.203   0.118   0.391 -0.8298  0.8399 -1.0474
  536SOL     OW 1606   0.271   1.500   1.808 -0.3155  0.3687 -0.2986
  536SOL    HW1 1607   0.234   1.402   1.802  0.4678 -1.1748 -0.2465
  536SOL    HW2 1608   0.349   1.512   1.742  1.0148  0.9123 -2.1407
  537SOL     OW 1609   0.898   2.774   1.586  0.0521 -0.2293  0.4739
  537SOL    HW1 1610   0.942   2.832   1.655 -0.9106  0.2961 -0.2212
  537SOL    HW2 1611   0.942   2.803   1.499 -0.4097  1.6355 -1.5760
  538SOL     OW 1612   2.886   1.738   0.270 -0.1094  0.5692 -0.2106
  538SOL    HW1 1613   2.974   1.706   0.308  2.1510 -1.3455 -1.5014
  538SOL    HW2 1614   2.820   1.664   0.257 -0.1113  0.2748  1.0967
  539SOL     OW 1615   2.879   1.036   2.479  0.1116 -0.0964  0.3393
  539SOL    HW1 1616   2.828   0.958   2.431 -1.3021 -2.0705 -1.2004
  539SOL    HW2 1617   2.843   1.060   2.570 -0.2715  3.1725 -0.7096
  540SOL     OW 1618   1.532   0.887   2.184  0.2713  0.3272 -0.2320
  540SOL    HW1 1619   1.595   0.934   2.122 -1.4972  1.8316 -0.9869
  540SOL    HW2 1620   1.468   0.956   2.217  0.9867  0.0445 -2.9681
  541SOL     OW 1621   0.841   0.877   1.831  0.2616 -0.0692  0.3974
  541SOL    HW1 1622   0.798   0.811   1.761  0.4524 -3.2234 -2.0470
  541SOL    HW2 1623   0.875   0.962   1.784 -1.8372  2.6804 -2.8573
  542SOL     OW 1624   2.310   0.362   2.779  0.0340 -0.1330 -0.0224
  542SOL    HW1 1625   2.383   0.339   2.845  2.0859  1.5206 -1.3483
  542SOL    HW2 1626   2.343   0.343   2.686  0.1024 -2.0481  2.2748
  543SOL     OW 1627   0.970   0.190   3.009 -0.4783 -0.1879  0.1310
  543SOL    HW1 1628   0.987   0.264   0.001  1.6016 -0.2518  1.9594
  543SOL    HW2 1629   1.060   0.155   2.978 -0.8310  1.5083 -2.5293
  544SOL     OW 1630   2.936   1.645   1.976 -0.6091  0.1177  0.8643
  544SOL    HW1 1631   3.001   1.574   1.952 -1.0048  0.3370  0.0861
  544SOL    HW2 1632   2.855   1.600   2.014  1.2999 -0.2016  0.4385
  545SOL     OW 1633   1.934   2.124   1.743 -0.3474 -0.0362  0.0457
  545SOL    HW1 1634   1.913   2.121   1.646  0.9360 -0.1376  3.4970
  545SOL    HW2 1635   1.946   2.225   1.764  0.6360  2.1701 -0.2327
  546SOL     OW 1636   0.092   2.965   2.864 -0.5468  0.1032 -0.7335
  546SOL    HW1 1637   0.129   2.948   2.769  0.5917 -2.3302 -0.0615
  546SOL    HW2 1638   0.165   3.003   2.924  1.7691  2.4344 -0.0414
  547SOL     OW 1639   1.659   1.029   0.933  0.2895  0.1608 -0.3093
  547SOL    HW1 1640   1.632   1.069   0.847  1.7597  0.0523 -1.0461
  547SOL    HW2 1641   1.585   0.975   0.980  3.3490 -1.6018  0.6914
  548SOL     OW 1642   1.999   1.510   2.130 -0.1538 -0.2490 -0.3384
  548SOL    HW1 1643   2.012   1.420   2.080  1.9721  1.2919 -0.0155
  548SOL    HW2 1644   1.950   1.490   2.216 -0.5483  0.2601 -2.2967
  549SOL     OW 1645   1.750   0.524   0.487  0.4951  0.4722 -0.2005
  549SOL    HW1 1646   1.831   0.580   0.504  1.4087 -2.6979  1.6317
  549SOL    HW2 1647   1.750   0.442   0.551 -0.1689 -1.0435 -0.2268
  550SOL     OW 1648   2.015   1.701   0.943 -0.1263  0.6707 -0.3273
  550SOL    HW1 1649   1.925   1.710   0.994 -1.3238 -1.9233 -0.3126
  550SOL    HW2 1650   2.009   1.680   0.844 -1.2741 -1.2462 -0.8307
  551SOL     OW 1651   0.652   2.944   1.482  0.2017 -0.7337  0.1539
  551SOL    HW1 1652   0.735   2.917   1.430 -1.9895  1.3494  0.1117
  551SOL    HW2 1653   0.630   2.885   1.563 -1.3750 -0.6956  0.5971
  552SOL     OW 1654   0.098   2.134   2.530 -0.1658  0.3295 -0.0242
  552SOL    HW1 1655   0.038   2.051   2.519 -1.2358 -1.3424  0.8999
  552SOL    HW2 1656   0.159   2.150   2.450  0.5541  1.1262 -2.5664
  553SOL     OW 1657   0.414   0.199   0.942 -0.4040  0.5373 -0.0992
  553SOL    HW1 1658   0.503   0.176   0.984 -1.0553  2.7450 -0.6248
  553SOL    HW2 1659   0.340   0.155   0.993  1.0793 -1.1182  1.1838
  554SOL     OW 1660   2.470   2.046   1.755  0.5595  0.1988 -0.2346
  554SOL    HW1 1661   2.553   2.059   1.816 -1.6360 -0.3836  0.1846
  554SOL    HW2 1662   2.442   2.138   1.725 -0.2937 -0.6923 -1.2815
  555SOL     OW 1663   1.172   2.271   1.870 -0.0156 -0.0431 -0.0998
  555SOL    HW1 1664   1.207   2.193   1.813 -0.8531 -2.6833 -0.1549
  555SOL    HW2 1665   1.073   2.286   1.863 -0.1600 -4.4113 -2.6387
  556SOL     OW 1666   1.189   1.860   1.791  0.3043  0.2397  0.0041
  556SOL    HW1 1667   1.256   1.930   1.754  2.4318  1.9022 -0.1114
  556SOL    HW2 1668   1.127   1.818   1.722 -0.6211  2.1701 -0.7631
  557SOL     OW 1669   1.966   2.243   2.101 -0.6517  0.2005 -0.6395
  557SOL    HW1 1670   2.041   2.265   2.032  0.0884 -0.7667 -1.1621
  557SOL    HW2 1671   2.008   2.213   2.192 -1.3892 -0.0609  0.0645
  558SOL     OW 1672   0.601   2.819   1.743  0.0917  0.1707  0.6490
  558SOL    HW1 1673   0.672   2.772   1.802 -1.8193  0.7136  1.8193
  558SOL    HW2 1674   0.592   2.918   1.767 -1.3704 -2.9070  1.2799
  559SOL     OW 1675   2.187   2.748   1.078 -0.1950 -0.1378 -0.5437
  559SOL    HW1 1676   2.245   2.776   1.000  0.1302  0.0411 -1.4644
  559SOL    HW2 1677   2.133   2.665   1.052 -1.3047 -0.4977  0.3843
  560SOL     OW 1678   1.708   2.380   0.488  0.0065  0.2105  0.7883
  560SOL    HW1 1679   1.678   2.333   0.574 -0.1331 -0.1717  0.5875
  560SOL    HW2 1680   1.787   2.324   0.447 -0.4920 -2.6718 -1.1756
  561SOL     OW 1681   1.022   0.388   0.090  1.0322 -0.1743 -0.0184
  561SOL    HW1 1682   1.086   0.466   0.068  0.4717 -0.9047 -2.3155
  561SOL    HW2 1683   0.955   0.419   0.163 -1.9620  0.4133 -1.0469
  562SOL     OW 1684   0.613   0.441   2.291 -0.1390  0.0659 -0.2866
  562SOL    HW1 1685   0.595   0.373   2.369 -1.1773 -0.1475 -0.9862
  562SOL    HW2 1686   0.661   0.390   2.211  1.7167 -2.0736  0.8798
  563SOL     OW 1687   1.684   1.697   0.026 -0.2644  0.2858  0.5564
  563SOL    HW1 1688   1.751   1.674   0.093 -0.7033  0.3034  0.2776
  563SOL    HW2 1689   1.650   1.794   0.043 -1.9856  2.9845  0.6788
  564SOL     OW 1690   2.386   1.179   1.370  0.1210  0.2502  0.2574
  564SOL    HW1 1691   2.395   1.210   1.469 -4.0955  2.2370  2.1966
  564SOL    HW2 1692   2.463   1.123   1.331  0.3581 -0.2971 -3.7078
  565SOL     OW 1693   0.854   0.370   2.603  0.4893  0.0709  0.0966
  565SOL    HW1 1694   0.843   0.461   2.551 -0.0706  1.3737 -0.2635
  565SOL    HW2 1695   0.803   0.367   2.688  1.9532  0.6618  0.0261
  566SOL     OW 1696   1.846   0.159   2.791  0.1534  0.1417 -0.7013
  566SOL    HW1 1697   1.935   0.204   2.812  1.2001  0.0788 -0.8878
  566SOL    HW2 1698   1.848   0.064   2.837  1.1256 -0.1949 -0.4746
  567SOL     OW 1699   1.992   1.821   0.558 -0.0477  0.3056  0.0286
  567SOL    HW1 1700   2.058   1.877   0.613 -0.5940  2.2970  0.8858
  567SOL    HW2 1701   2.001   1.723   0.585 -1.0835 -0.2683  1.7177
  568SOL     OW 1702   1.679   1.941   0.273 -0.3011  0.1412 -0.0227
  568SOL    HW1 1703   1.772   1.934   0.313  0.2469 -0.0606 -0.2316
  568SOL    HW2 1704   1.678   1.993   0.190 -3.1799  1.5102  0.0742
  569SOL     OW 1705   2.172   0.993   2.966  0.3979  0.0420  0.0285
  569SOL    HW1 1706   2.210   0.986   2.872 -1.4249  2.3915  2.3881
  569SOL    HW2 1707   2.242   0.990   3.036 -2.7715 -0.1702  0.4078
  570SOL     OW 1708   0.279   2.448   1.678 -0.5290  0.7681 -0.1766
  570SOL    HW1 1709   0.251   2.470   1.585 -0.2657 -0.0133  1.8738
  570SOL    HW2 1710   0.363   2.386   1.667  2.5919 -1.4417 -0.3810
  571SOL     OW 1711   0.505   1.011   1.861 -0.1717 -0.3290 -0.4862
  571SOL    HW1 1712   0.457   1.078   1.921  1.3841  0.1612  2.5656
  571SOL    HW2 1713   0.573   0.960   1.916 -1.7757  1.9533  1.2995
  572SOL     OW 1714   0.929   1.576   0.566 -0.2864 -0.4331 -0.2755
  572SOL    HW1 1715   0.873   1.559   0.483  4.0584 -0.4217  1.2300
  572SOL    HW2 1716   0.983   1.660   0.547  0.8711  0.5934 -0.3628
  573SOL     OW 1717   1.653   1.970   3.027 -0.3811  0.0779 -0.0688
  573SOL    HW1 1718   1.551   1.950   3.046 -2.3950 -3.7199  0.6696
  573SOL    HW2 1719   1.668   2.068   3.009  2.3758 -1.1104  0.0408
  574SOL     OW 1720   0.953   0.283   0.994  0.3271  0.0844 -0.1776
  574SOL    HW1 1721   0.954   0.207   1.062  1.5987 -1.5513  0.4204
  574SOL    HW2 1722   0.905   0.253   0.907 -1.3177 -0.5140 -2.2096
  575SOL     OW 1723   0.272   1.098   1.426 -0.1542  0.0151  0.3329
  575SOL    HW1 1724   0.285   1.071   1.522  0.7681 -0.0175 -0.4574
  575SOL    HW2 1725   0.347   1.060   1.369 -0.2256 -1.7913  1.3271
  576SOL     OW 1726   2.112   2.468   1.476  0.2206 -0.3304 -0.4041
  576SOL    HW1 1727   2.197   2.426   1.434  1.5731  0.7297 -1.2721
  576SOL    HW2 1728   2.042   2.460   1.404  0.6920 -3.2822 -1.5186
  577SOL     OW 1729   1.094   1.162   1.957  0.9382 -0.5031  0.1837
  577SOL    HW1 1730   1.140   1.074   1.941  1.5208  3.2234 -2.1150
  577SOL    HW2 1731   1.052   1.175   2.050 -4.3879 -0.0624  1.7341
  578SOL     OW 1732   1.967   0.639   2.654  0.7649  0.4766  0.1298
  578SOL    HW1 1733   1.945   0.739   2.671  0.0326  0.5179 -0.8763
  578SOL    HW2 1734   1.888   0.588   2.617 -1.1043 -1.4710  0.6430
  579SOL     OW 1735   2.022   2.400   1.729 -0.2183 -0.2602 -0.6227
  579SOL    HW1 1736   2.084   2.385   1.808 -0.2204  1.0268 -0.4454
  579SOL    HW2 1737   2.070   2.428   1.642 -1.0050  0.4519 -1.9984
  580SOL     OW 1738   2.225   1.268   2.472  0.6914 -0.3192  0.5374
  580SOL    HW1 1739   2.172   1.269   2.559  4.7281  1.1209 -4.6319
  580SOL    HW2 1740   2.250   1.365   2.446 -0.2856 -0.5301 -1.0081
  581SOL     OW 1741   1.376   1.291   2.695 -0.2125  0.3174 -0.2494
  581SOL    HW1 1742   1.466   1.314   2.729 -2.1914 -2.6123 -0.9367
  581SOL    HW2 1743   1.338   1.207   2.744  0.9132 -1.1021  0.7301
  582SOL     OW 1744   1.037   1.729   1.960  0.2287 -0.0212 -0.1464
  582SOL    HW1 1745   1.110   1.768   1.898  2.7800  0.8902 -2.5874
  582SOL    HW2 1746   1.040   1.787   2.043  4.0411  0.3132 -3.7016
  583SOL     OW 1747   1.749   1.206   1.510 -0.1232 -0.2935  0.5312
  583SOL    HW1 1748   1.654   1.174   1.511 -0.2957  1.5672  0.1549
  583SOL    HW2 1749   1.761   1.263   1.594 -0.6481 -1.7185 -2.7958
  584SOL     OW 1750   1.842   2.597   0.578  0.2149 -0.2611  0.6184
  584SOL    HW1 1751   1.940   2.587   0.581 -1.0175 -0.5350  0.2060
  584SOL    HW2 1752   1.794   2.506   0.560 -1.0158 -1.9801 -1.9017
  585SOL     OW 1753   2.156   2.905   2.771 -0.1329  0.2435 -0.3606
  585SOL    HW1 1754   2.077   2.931   2.710 -0.2223  3.1197 -0.2308
  585SOL    HW2 1755   2.151   2.805   2.796  1.3510  2.2589 -1.4983
  586SOL     OW 1756   2.863   2.300   1.212 -0.3529  0.3705 -0.6106
  586SOL    HW1 1757   2.873   2.361   1.127  0.6382  0.6121 -0.4472
  586SOL    HW2 1758   2.903   2.212   1.184 -2.7701  2.1178  0.0241
  587SOL     OW 1759   1.407   1.921   0.016 -0.2604 -0.4466  0.3503
  587SOL    HW1 1760   1.347   1.998   3.069 -2.9347 -1.5987 -0.1252
  587SOL    HW2 1761   1.358   1.833   0.003  5.5018  2.8900  1.7476
  588SOL     OW 1762   0.496   0.456   0.913 -0.4720  0.2585  0.2315
  588SOL    HW1 1763   0.553   0.446   0.998  0.5177 -1.0797 -1.9434
  588SOL    HW2 1764   0.458   0.365   0.893  0.6183 -2.1660 -1.4273
  589SOL     OW 1765   1.076   0.194   0.540  0.2698  0.7519 -0.5988
  589SOL    HW1 1766   0.999   0.259   0.552  1.8668 -0.3779  1.8740
  589SOL    HW2 1767   1.122   0.206   0.449  1.9938 -0.0825 -2.4723
  590SOL     OW 1768   1.474   0.460   2.741  0.6112  0.0660  0.5131
  590SOL    HW1 1769   1.493   0.560   2.757  0.3823  0.3188 -0.3263
  590SOL    HW2 1770   1.408   0.426   2.809 -1.7633 -0.4910 -1.5082
  591SOL     OW 1771   3.076   2.181   2.137 -0.2127 -0.1525  0.4660
  591SOL    HW1 1772   3.054   2.127   2.054  0.1542  1.1264  3.1353
  591SOL    HW2 1773   2.997   2.242   2.166  0.5898  0.4164  2.4444
  592SOL     OW 1774   2.338   1.552   2.194 -0.2503 -0.6201  1.0717
  592SOL    HW1 1775   2.323   1.471   2.136  2.1763 -0.3681  2.2107
  592SOL    HW2 1776   2.385   1.621   2.136 -0.0311 -0.9569 -2.3306
  593SOL     OW 1777   1.470   1.228   1.902  0.6972 -0.2106  0.1155
  593SOL    HW1 1778   1.478   1.174   1.816  0.5788  0.7240 -1.4263
  593SOL    HW2 1779   1.564   1.234   1.948  2.4971  0.6168  0.9702
  594SOL     OW 1780   2.604   1.238   0.030  0.2186 -0.2764  0.1395
  594SOL    HW1 1781   2.655   1.293   3.038 -0.2303  0.7694 -0.1838
  594SOL    HW2 1782   2.670   1.182   0.078 -1.5274  2.5676 -2.0236
  595SOL     OW 1783   0.456   0.636   0.484  0.1186  0.2886 -0.6181
  595SOL    HW1 1784   0.391   0.712   0.488 -0.9675  0.2549 -0.3982
  595SOL    HW2 1785   0.509   0.635   0.570 -0.9205  1.5835 -1.0906
  596SOL     OW 1786   0.048   1.177   1.331 -0.0526 -0.2057 -0.8091
  596SOL    HW1 1787   0.027   1.274   1.356 -1.1330  1.2062 -0.5667
  596SOL    HW2 1788   0.140   1.152   1.371 -1.5678  0.0317  0.2129
  597SOL     OW 1789   1.124   1.895   0.939  0.1249  0.5797 -0.2655
  597SOL    HW1 1790   1.083   1.800   0.953  1.4702 -2.0695 -1.0552
  597SOL    HW2 1791   1.147   1.931   1.030 -0.7274  0.6529 -0.2982
  598SOL     OW 1792   0.257   0.183   1.757 -0.0972 -0.1209 -0.2160
  598SOL    HW1 1793   0.356   0.186   1.733 -1.0714 -1.0997  1.8805
  598SOL    HW2 1794   0.199   0.127   1.696  1.5315 -1.1670 -0.6386
  599SOL     OW 1795   0.239   1.677   2.806  0.2670  0.4616 -0.1756
  599SOL    HW1 1796   0.240   1.587   2.757 -1.3130 -2.5262  0.4810
  599SOL    HW2 1797   0.329   1.714   2.824 -1.4423 -1.3737 -0.7360
  600SOL     OW 1798   0.489   1.165   2.916  0.4149 -0.3062  0.1611
  600SOL    HW1 1799   0.412   1.212   2.865 -0.3785 -1.6167 -2.3669
  600SOL    HW2 1800   0.517   1.079   2.872 -1.3643  3.9902  1.6649
  601SOL     OW 1801   0.713   0.866   1.260 -0.0763  0.1221  0.2939
  601SOL    HW1 1802   0.801   0.899   1.213  1.2493 -0.7656  0.7190
  601SOL    HW2 1803   0.651   0.817   1.197  0.4033 -0.3830  1.1936
  602SOL     OW 1804   0.763   0.002   0.002 -0.3442  0.1540 -0.8165
  602SOL    HW1 1805   0.834   0.068   3.042  0.7854  1.1818  0.2566
  602SOL    HW2 1806   0.713   0.044   0.082 -0.4757 -0.5845  0.2623
  603SOL     OW 1807   1.518   2.465   2.271  0.6251  0.2165 -0.5018
  603SOL    HW1 1808   1.598   2.427   2.216 -1.5718  0.9516 -2.8219
  603SOL    HW2 1809   1.466   2.389   2.306  3.5332  1.6487  0.1567
  604SOL     OW 1810   0.396   2.738   2.723  0.3501 -0.5692 -0.6090
  604SOL    HW1 1811   0.440   2.773   2.807 -0.0405 -1.9007 -0.0070
  604SOL    HW2 1812   0.450   2.657   2.697 -2.7529  1.8179  0.6183
  605SOL     OW 1813   2.551   1.203   1.602 -0.2373  0.1501  0.1847
  605SOL    HW1 1814   2.636   1.255   1.588 -1.0300 -0.5250  0.4952
  605SOL    HW2 1815   2.485   1.248   1.662 -1.7938 -0.8818 -0.1699
  606SOL     OW 1816   0.944   1.075   2.847  0.2846  0.2314  0.0695
  606SOL    HW1 1817   0.998   1.150   2.879 -2.7291 -1.8231  1.3122
  606SOL    HW2 1818   0.910   1.089   2.753  1.7264 -0.5008  1.9837
  607SOL     OW 1819   0.866   0.376   0.570  0.0295 -0.0671  0.4964
  607SOL    HW1 1820   0.767   0.347   0.564  0.9657  1.8240  0.9013
  607SOL    HW2 1821   0.891   0.422   0.663  0.8280  2.0294  2.0677
  608SOL     OW 1822   2.781   1.383   1.565  0.2584  0.4406 -0.3268
  608SOL    HW1 1823   2.766   1.466   1.624 -0.4476 -1.4753  4.2905
  608SOL    HW2 1824   2.724   1.395   1.483  0.2282 -1.1515  1.6773
  609SOL     OW 1825   2.300   0.531   0.771 -0.4744  0.3650  0.1787
  609SOL    HW1 1826   2.329   0.527   0.866 -1.1339 -1.8434 -1.4538
  609SOL    HW2 1827   2.315   0.622   0.727 -2.4971 -2.9791 -0.8074
  610SOL     OW 1828   0.267   2.497   1.419 -0.0553 -0.0184 -0.3650
  610SOL    HW1 1829   0.232   2.594   1.414  0.1791 -0.5930  0.0246
  610SOL    HW2 1830   0.365   2.492   1.397  0.9316 -4.8087  0.4697
  611SOL     OW 1831   1.527   1.727   0.325  0.1398  0.1537 -0.0831
  611SOL    HW1 1832   1.567   1.683   0.409  1.0750 -2.5982  0.4944
  611SOL    HW2 1833   1.583   1.814   0.310  1.5323 -2.8261  1.6166
  612SOL     OW 1834   0.586   0.002   1.828 -0.2943  0.1314 -0.2460
  612SOL    HW1 1835   0.548   3.063   1.920 -0.9800 -0.0817  3.1327
  612SOL    HW2 1836   0.573   0.100   1.809 -0.4400  0.1016 -1.9630
  613SOL     OW 1837   0.581   2.324   0.542  0.2405  0.6427  0.0579
  613SOL    HW1 1838   0.616   2.388   0.473 -1.4947 -0.7094 -2.5441
  613SOL    HW2 1839   0.506   2.368   0.601 -0.2467  1.5292  2.1239
  614SOL     OW 1840   2.136   0.091   2.032  0.9046 -0.5142  0.4674
  614SOL    HW1 1841   2.155   0.174   2.086 -0.5853  2.5432  0.8617
  614SOL    HW2 1842   2.217   0.030   2.025  0.7920  0.4215 -0.6844
  615SOL     OW 1843   1.316   1.628   0.608  0.0074 -0.6657 -0.1678
  615SOL    HW1 1844   1.268   1.568   0.540 -0.7316  0.0883  0.3409
  615SOL    HW2 1845   1.329   1.722   0.573 -0.5339 -0.2587 -3.9967
  616SOL     OW 1846   1.592   1.646   0.587  0.4776 -0.2112  0.6329
  616SOL    HW1 1847   1.490   1.626   0.600 -0.7519 -0.8576 -0.9874
  616SOL    HW2 1848   1.611   1.735   0.629  1.3785  0.2846  2.2620
  617SOL     OW 1849   1.441   0.966   3.067 -0.2169 -0.5587 -0.0168
  617SOL    HW1 1850   1.460   0.864   3.075 -1.2548  0.2455 -0.5931
  617SOL    HW2 1851   1.357   0.996   0.040 -0.7309 -0.7168 -0.5825
  618SOL     OW 1852   0.666   0.370   1.960 -0.1680  0.3016  0.1553
  618SOL    HW1 1853   0.763   0.395   1.984 -1.1319 -0.1450 -1.4490
  618SOL    HW2 1854   0.623   0.313   2.032  1.0335  3.2217 -1.9315
  619SOL     OW 1855   3.065   1.347   1.543 -0.4708  0.4708 -0.4583
  619SOL    HW1 1856   2.964   1.347   1.542 -2.3970 -0.6342 -2.2726
  619SOL    HW2 1857   0.021   1.437   1.508 -2.7515  0.6294  0.7977
  620SOL     OW 1858   2.720   0.076   2.423 -0.4057 -0.0072  0.2358
  620SOL    HW1 1859   2.759   0.175   2.417 -0.5158 -1.9918  2.1673
  620SOL    HW2 1860   2.680   0.052   2.516 -1.1273 -0.6805  2.8194
  621SOL     OW 1861   2.316   1.956   2.718  0.5878  0.9095 -0.5204
  621SOL    HW1 1862   2.329   1.890   2.798  0.8154  2.3674 -2.2267
  621SOL    HW2 1863   2.214   1.960   2.691 -3.0682  1.9509  2.5941
  622SOL     OW 1864   1.198   0.566   3.044 -0.0254  0.0449  0.0428
  622SOL    HW1 1865   1.230   0.470   3.023 -0.7114  3.9214 -0.6634
  622SOL    HW2 1866   1.277   0.624   3.068 -1.4237 -1.3043  2.1128
  623SOL     OW 1867   0.874   1.519   1.884  0.0969 -0.2617 -0.5359
  623SOL    HW1 1868   0.931   1.483   1.809 -1.4333  2.9839 -1.0648
  623SOL    HW2 1869   0.931   1.590   1.924 -3.3867 -1.0664 -1.7614
  624SOL     OW 1870   2.746   0.242   0.406  0.1917  0.3032 -0.2309
  624SOL    HW1 1871   2.818   0.296   0.361  0.4897 -3.3315  2.4073
  624SOL    HW2 1872   2.790   0.154   0.439 -2.0864 -0.0122 -2.4951
  625SOL     OW 1873   0.733   2.317   0.799 -0.0051 -0.1520 -0.2362
  625SOL    HW1 1874   0.736   2.304   0.697 -0.0031  0.2816 -0.8551
  625SOL    HW2 1875   0.690   2.239   0.844  3.8817 -1.6358 -0.7869
  626SOL     OW 1876   2.584   0.877   2.419  0.6497 -0.1378  0.0138
  626SOL    HW1 1877   2.576   0.835   2.510 -2.8029 -1.8920  1.4862
  626SOL    HW2 1878   2.505   0.941   2.408  1.1944  1.9627 -1.1315
  627SOL     OW 1879   1.204   2.017   2.664  0.1185  0.5999  0.2674
  627SOL    HW1 1880   1.111   2.023   2.618 -1.6472 -0.1422 -0.8199
  627SOL    HW2 1881   1.233   1.922   2.686 -3.7777  0.4484 -1.3726
  628SOL     OW 1882   2.798   2.848   2.515  0.2129  0.1483 -0.0084
  628SOL    HW1 1883   2.749   2.850   2.426  2.2811 -2.0445  0.1378
  628SOL    HW2 1884   2.731   2.848   2.592 -1.6882 -1.7346  0.6148
  629SOL     OW 1885   1.371   2.676   2.467  0.1813 -0.1653  0.5957
  629SOL    HW1 1886   1.354   2.737   2.389  0.4486  1.4343 -1.0071
  629SOL    HW2 1887   1.466   2.637   2.453  0.1784 -2.8363  1.9957
  630SOL     OW 1888   0.905   0.228   2.261 -0.2805 -0.3982  1.2580
  630SOL    HW1 1889   0.935   0.317   2.293  2.4746 -4.2787 -1.1422
  630SOL    HW2 1890   0.962   0.165   2.318  1.4192  0.2034 -0.1282
  631SOL     OW 1891   2.003   1.125   0.717  0.1566  0.1595  0.3246
  631SOL    HW1 1892   1.966   1.168   0.799  1.6835 -0.2043 -2.2108
  631SOL    HW2 1893   2.030   1.187   0.640 -1.3216 -1.4740 -0.8911
  632SOL     OW 1894   2.534   0.060   1.784 -0.0670  0.0023 -0.3049
  632SOL    HW1 1895   2.479   0.142   1.786 -2.1379 -0.6518  1.0850
  632SOL    HW2 1896   2.607   0.064   1.856  1.1445  0.4482  1.1467
  633SOL     OW 1897   1.164   1.493   0.435 -0.1252  0.0812 -0.4458
  633SOL    HW1 1898   1.205   1.526   0.346 -1.7273  2.8971  1.5618
  633SOL    HW2 1899   1.065   1.494   0.426 -0.9478 -0.3051 -0.7713
  634SOL     OW 1900   2.700   2.734   1.998 -0.3578 -0.0258  0.6350
  634SOL    HW1 1901   2.777   2.740   1.933 -2.9385 -0.5456  2.4668
  634SOL    HW2 1902   2.727   2.708   2.095 -0.5573 -2.7654 -0.5332
  635SOL     OW 1903   1.410   0.378   0.597 -0.4327  0.5316  0.2329
  635SOL    HW1 1904   1.361   0.423   0.522 -2.9062  0.6501  0.5598
  635SOL    HW2 1905   1.484   0.313   0.558  0.7474 -0.9743  0.0053
  636SOL     OW 1906   0.706   1.319   2.911 -0.0269 -0.3408 -0.2593
  636SOL    HW1 1907   0.645   1.238   2.912  2.3732  1.7818 -3.9427
  636SOL    HW2 1908   0.652   1.398   2.873 -1.8406  3.3965  0.4180
  637SOL     OW 1909   2.876   2.105   3.026  0.2523  0.1418  0.2913
  637SOL    HW1 1910   2.915   2.060   0.029  1.8869  0.1074  0.3656
  637SOL    HW2 1911   2.911   2.060   2.944  0.2652  0.6897  1.7462
  638SOL     OW 1912   1.121   2.568   2.579  0.0141 -0.3903  0.1393
  638SOL    HW1 1913   1.199   2.603   2.527 -1.3595 -4.0977  0.7543
  638SOL    HW2 1914   1.152   2.536   2.668 -0.9531  1.5116 -3.0511
  639SOL     OW 1915   1.554   1.892   1.076  0.2034  0.1208 -0.3525
  639SOL    HW1 1916   1.527   1.947   1.163  1.0228 -0.3586  3.5395
  639SOL    HW2 1917   1.505   1.927   0.991 -1.3021 -1.1217 -0.8002
  640SOL     OW 1918   2.269   2.888   0.387  0.0827 -0.1855  0.2701
  640SOL    HW1 1919   2.360   2.922   0.414  0.2690 -0.9367  0.5955
  640SOL    HW2 1920   2.211   2.965   0.366  1.7586  0.3817  1.3921
  641SOL     OW 1921   2.852   0.343   2.988 -0.3779 -0.4905 -0.3944
  641SOL    HW1 1922   2.818   0.382   3.078 -0.9268  1.7922  0.1154
  641SOL    HW2 1923   2.800   0.258   2.971 -0.6763 -0.5693  3.3110
  642SOL     OW 1924   0.312   0.644   1.010 -0.1183  0.3816 -0.0522
  642SOL    HW1 1925   0.251   0.601   1.082  0.1064  0.9040 -2.3224
  642SOL    HW2 1926   0.356   0.571   0.957  0.7371  2.8630  2.3604
  643SOL     OW 1927   0.725   1.357   2.340 -0.6434  0.3256  0.1495
  643SOL    HW1 1928   0.774   1.323   2.421 -0.9542 -0.2064 -1.2707
  643SOL    HW2 1929   0.719   1.282   2.272  0.2573 -0.2456  0.0768
  644SOL     OW 1930   2.045   2.086   0.671 -0.3266  0.0851 -0.0417
  644SOL    HW1 1931   1.950   2.088   0.637  1.0025 -0.1228  0.9516
  644SOL    HW2 1932   2.046   2.111   0.768 -0.5443  0.7675 -0.4775
  645SOL     OW 1933   1.685   2.248   0.740  0.4635 -0.2648  0.1699
  645SOL    HW1 1934   1.754   2.187   0.706 -1.1041 -0.3266  0.6689
  645SOL    HW2 1935   1.673   2.243   0.846 -2.0215 -1.8122  1.4533
  646SOL     OW 1936   0.208   2.010   2.954  0.0930 -0.2255 -0.2803
  646SOL    HW1 1937   0.121   1.998   2.899  0.6660 -0.9894 -1.3763
  646SOL    HW2 1938   0.271   2.070   2.899 -1.0648 -1.7484 -0.5432
  647SOL     OW 1939   1.169   3.038   1.308  0.1858 -0.0557  0.4313
  647SOL    HW1 1940   1.171   0.016   1.223 -1.6556 -2.1010  2.2560
  647SOL    HW2 1941   1.205   0.017   1.384 -3.1813  0.2234  1.0036
  648SOL     OW 1942   1.209   0.323   0.920 -0.6904  0.5867 -0.2249
  648SOL    HW1 1943   1.108   0.321   0.934  0.0998 -1.4051 -3.4609
  648SOL    HW2 1944   1.251   0.411   0.887  2.3044  0.9486 -0.8348
  649SOL     OW 1945   1.315   1.863   0.467  0.2932 -0.0282  0.2138
  649SOL    HW1 1946   1.375   1.830   0.395  1.1330  1.1007 -1.1271
  649SOL    HW2 1947   1.323   1.967   0.471  0.4365  1.4350  2.2752
  650SOL     OW 1948   2.235   1.622   1.640  0.1693  0.2352  0.3595
  650SOL    HW1 1949   2.266   1.707   1.691  1.1210  1.7564  3.3537
  650SOL    HW2 1950   2.165   1.570   1.691 -0.1662 -1.7241 -1.8759
  651SOL     OW 1951   1.603   2.613   2.867  0.2201 -0.4407 -0.4287
  651SOL    HW1 1952   1.609   2.682   2.793  0.2760  1.9460  1.2935
  651SOL    HW2 1953   1.527   2.546   2.853 -1.6252 -0.2696 -1.8896
  652SOL     OW 1954   2.650   1.571   0.225 -0.4972  0.3237 -0.4167
  652SOL    HW1 1955   2.565   1.534   0.198 -0.5496 -0.8230  0.9083
  652SOL    HW2 1956   2.686   1.535   0.317 -1.8945  2.4492 -1.0382
  653SOL     OW 1957   0.037   0.176   0.956 -0.3597 -0.0104 -0.0857
  653SOL    HW1 1958   0.006   0.193   0.861  1.9863  0.8159 -0.1692
  653SOL    HW2 1959   3.044   0.148   1.019  0.1541 -0.3627 -0.1511
  654SOL     OW 1960   3.025   0.060   1.790 -0.2237 -0.2159  0.2302
  654SOL    HW1 1961   3.038   0.039   1.694 -1.2555  0.0567  2.7221
  654SOL    HW2 1962   0.002   3.069   1.842 -0.0011 -1.5675  4.1653
  655SOL     OW 1963   0.374   2.402   0.700 -0.3066 -0.6691  0.4150
  655SOL    HW1 1964   0.420   2.476   0.755 -1.0550 -1.3787 -2.0716
  655SOL    HW2 1965   0.302   2.446   0.640 -1.1801 -1.6093 -1.9301
  656SOL     OW 1966   3.041   3.070   2.267  0.4933 -0.5284  0.6699
  656SOL    HW1 1967   2.992   2.981   2.252 -4.1005  0.0996 -0.9625
  656SOL    HW2 1968   3.032   0.018   2.365 -1.2318  0.3905 -2.8350
  657SOL     OW 1969   0.072   1.314   2.948  0.0094 -0.0856 -0.1663
  657SOL    HW1 1970   3.071   1.254   2.909 -1.7380 -1.2698 -1.6803
  657SOL    HW2 1971   0.044   1.406   2.988 -1.9445 -0.2300  0.0853
  658SOL     OW 1972   2.532   1.959   1.142  0.0086 -0.1950  0.3709
  658SOL    HW1 1973   2.581   2.004   1.219  0.6450  0.4972  0.7211
  658SOL    HW2 1974   2.437   1.923   1.165 -4.1098  0.4705 -1.2377
  659SOL     OW 1975   1.469   2.880   0.023  0.1082 -0.7768  0.7729
  659SOL    HW1 1976   1.489   2.926   0.111  0.2387 -2.4619 -3.0145
  659SOL    HW2 1977   1.522   2.926   3.027 -0.3525  0.2607  1.1687
  660SOL     OW 1978   1.565   1.114   0.198 -0.1257  0.5553  0.8411
  660SOL    HW1 1979   1.557   1.201   0.144  2.2883  0.7285  0.8902
  660SOL    HW2 1980   1.526   1.034   0.140 -3.0727 -3.1452 -0.9761
  661SOL     OW 1981   0.148   2.075   1.200 -0.4819  0.0430 -0.3729
  661SOL    HW1 1982   0.057   2.093   1.162  1.1029  0.1673  2.3721
  661SOL    HW2 1983   0.165   2.131   1.285  0.4088 -1.2127  0.7858
  662SOL     OW 1984   0.253   0.800   0.140  0.1116  0.0061  0.4212
  662SOL    HW1 1985   0.171   0.758   0.094  0.1531  0.1262  0.2848
  662SOL    HW2 1986   0.231   0.795   0.237  0.7045 -1.0777 -3.0787
  663SOL     OW 1987   2.189   1.572   1.137 -0.1567 -1.0396  0.4597
  663SOL    HW1 1988   2.102   1.594   1.082 -0.7016  1.3571 -1.2668
  663SOL    HW2 1989   2.202   1.471   1.146  1.4387  0.4805  1.4284
  664SOL     OW 1990   1.096   1.296   1.057 -0.0642 -0.1852 -0.2971
  664SOL    HW1 1991   1.167   1.334   1.122  0.2764 -1.5266  0.8928
  664SOL    HW2 1992   1.100   1.341   0.969 -0.5616 -0.2656  1.6211
  665SOL     OW 1993   2.045   2.651   2.291 -0.1255  0.2227  0.4483
  665SOL    HW1 1994   2.017   2.746   2.281 -4.0895 -0.9622  0.6239
  665SOL    HW2 1995   1.962   2.594   2.301 -2.0690 -0.0031 -0.2906
  666SOL     OW 1996   2.781   2.838   2.974  0.1481 -0.0313 -0.8191
  666SOL    HW1 1997   2.828   2.747   2.993 -1.3115 -1.1192 -0.9897
  666SOL    HW2 1998   2.845   2.918   2.977 -0.9945  0.9373 -0.9032
  667SOL     OW 1999   2.430   1.129   2.100 -0.1054  0.1753 -0.0965
  667SOL    HW1 2000   2.412   1.034   2.056  0.7212 -0.3751 -0.5950
  667SOL    HW2 2001   2.375   1.204   2.056 -1.8430 -0.3181 -0.5977
  668SOL     OW 2002   0.493   0.826   2.387 -0.1841 -0.1643  0.4214
  668SOL    HW1 2003   0.518   0.904   2.451  1.1941  0.3387  1.0462
  668SOL    HW2 2004   0.411   0.848   2.337  2.1462 -2.7373  3.0888
  669SOL     OW 2005   2.099   2.167   2.341  0.5626 -0.1758 -0.7541
  669SOL    HW1 2006   2.133   2.069   2.354 -1.9360 -0.6266  0.7226
  669SOL    HW2 2007   2.172   2.242   2.343  5.6676  3.2129  1.7805
  670SOL     OW 2008   2.292   1.370   2.003  0.7551  0.0887  0.3589
  670SOL    HW1 2009   2.337   1.370   1.912 -1.9918 -1.9774  1.5114
  670SOL    HW2 2010   2.188   1.378   1.987 -0.3152 -0.0470 -0.6968
  671SOL     OW 2011   2.794   1.480   0.427 -0.4610 -0.4182 -0.6571
  671SOL    HW1 2012   2.805   1.388   0.471  0.9561 -1.1318 -0.3610
  671SOL    HW2 2013   2.807   1.562   0.491  1.4705  0.3494  0.1536
  672SOL     OW 2014   2.491   0.622   2.278  0.1653  0.1881  0.3637
  672SOL    HW1 2015   2.411   0.626   2.216  1.4977 -2.4999 -1.3195
  672SOL    HW2 2016   2.527   0.717   2.297 -1.7818 -2.3242  0.8722
  673SOL     OW 2017   2.739   0.082   1.969 -0.3087 -0.2880  0.1248
  673SOL    HW1 2018   2.828   0.052   1.925  3.5198  0.3205  0.4855
  673SOL    HW2 2019   2.712   0.017   2.046  0.3197 -1.1891  0.8782
  674SOL     OW 2020   1.649   1.869   1.512 -0.4305 -0.0628 -0.5252
  674SOL    HW1 2021   1.709   1.787   1.509 -2.1052  1.3580  1.6226
  674SOL    HW2 2022   1.650   1.930   1.429 -1.6829  0.6861 -1.7014
  675SOL     OW 2023   0.642   0.618   0.681  0.0071 -0.1817  0.0832
  675SOL    HW1 2024   0.663   0.570   0.769 -1.5258 -3.6328 -1.4540
  675SOL    HW2 2025   0.691   0.705   0.669  0.7532 -1.1107  0.2392
  676SOL     OW 2026   1.471   0.889   1.077 -0.2857 -0.1188  0.1975
  676SOL    HW1 2027   1.394   0.949   1.074  0.9914 -0.1031  0.8244
  676SOL    HW2 2028   1.438   0.797   1.045  0.2502  0.3776  1.9917
  677SOL     OW 2029   2.495   1.365   2.356  0.0789  0.0367 -0.3686
  677SOL    HW1 2030   2.552   1.322   2.288  0.3187 -0.6726 -0.0975
  677SOL    HW2 2031   2.449   1.441   2.309  1.4793  1.1493 -0.6109
  678SOL     OW 2032   2.858   1.609   0.977  0.7160  0.2897 -0.0337
  678SOL    HW1 2033   2.842   1.533   1.044 -1.2079 -0.3146  2.0334
  678SOL    HW2 2034   2.789   1.685   0.980  0.2163  3.2782 -0.0091
  679SOL     OW 2035   2.226   2.819   3.062  0.2597  0.5082  0.2846
  679SOL    HW1 2036   2.229   2.917   3.059  0.2410 -1.4301 -0.7114
  679SOL    HW2 2037   2.251   2.773   2.974  1.1426  0.1413  3.8373
  680SOL     OW 2038   0.311   2.082   1.890 -0.5370 -0.5963 -0.6251
  680SOL    HW1 2039   0.317   2.010   1.965 -0.0048 -3.7075  1.1220
  680SOL    HW2 2040   0.363   2.165   1.917  0.8519  1.6581 -0.8463
  681SOL     OW 2041   0.515   1.054   1.309  0.5516  0.5562  0.0238
  681SOL    HW1 2042   0.579   0.983   1.272 -1.8349 -0.8677  1.0129
  681SOL    HW2 2043   0.532   1.146   1.274 -2.2720 -1.0638 -0.9459
  682SOL     OW 2044   1.330   2.669   0.716 -0.0946  0.0764 -0.3242
  682SOL    HW1 2045   1.364   2.580   0.745 -1.3120  2.0865 -1.6277
  682SOL    HW2 2046   1.228   2.667   0.722  0.8162  2.1127  0.8353
  683SOL     OW 2047   2.582   1.299   0.745 -0.1582 -0.2251  0.0656
  683SOL    HW1 2048   2.533   1.341   0.670 -0.1917 -1.2749  2.1057
  683SOL    HW2 2049   2.656   1.364   0.771 -1.5543 -2.7562  0.5213
  684SOL     OW 2050   0.643   1.909   1.790  0.4440  0.0447 -0.1420
  684SOL    HW1 2051   0.645   1.958   1.880  3.6159 -0.4011  2.8814
  684SOL    HW2 2052   0.628   1.977   1.719  0.2971 -2.3481  0.8082
  685SOL     OW 2053   1.576   1.393   3.042 -0.2714  0.0953 -0.0483
  685SOL    HW1 2054   1.481   1.361   3.030 -2.9844  2.0170  3.0008
  685SOL    HW2 2055   1.576   1.493   3.043 -1.1424 -0.3223 -0.4484
  686SOL     OW 2056   0.210   0.908   0.993 -0.2428  0.3621 -0.3043
  686SOL    HW1 2057   0.229   0.940   0.901 -0.1373  0.3550  0.9660
  686SOL    HW2 2058   0.234   0.807   0.995 -0.8443  0.9561  2.1030
  687SOL     OW 2059   0.848   2.186   2.940  0.1802 -0.1479 -0.4737
  687SOL    HW1 2060   0.847   2.211   3.043 -0.1377 -0.4047  0.0250
  687SOL    HW2 2061   0.762   2.213   2.896  0.8534 -1.5951 -0.9479
  688SOL     OW 2062   2.436   1.741   2.030 -0.4316 -0.3097 -0.4109
  688SOL    HW1 2063   2.519   1.685   2.003  1.3476 -1.9002 -2.4352
  688SOL    HW2 2064   2.378   1.767   1.954 -0.1829  0.4079  0.5457
  689SOL     OW 2065   2.248   0.645   2.089 -0.1736 -0.0444 -0.3306
  689SOL    HW1 2066   2.326   0.700   2.057 -0.5161 -3.0633  1.7641
  689SOL    HW2 2067   2.190   0.611   2.016  2.7387 -0.5407  2.3559
  690SOL     OW 2068   2.176   1.000   1.423  0.1494  0.1608 -0.3971
  690SOL    HW1 2069   2.087   1.028   1.466 -1.4801 -1.5634  0.3318
  690SOL    HW2 2070   2.244   1.075   1.424 -1.9344  0.5539 -0.4375
  691SOL     OW 2071   0.913   1.807   1.726 -0.2695  0.3975  0.6855
  691SOL    HW1 2072   0.818   1.841   1.745  1.7940  2.5532  0.2795
  691SOL    HW2 2073   0.970   1.798   1.813  0.8822 -0.7280  0.8907
  692SOL     OW 2074   2.032   0.001   1.365  0.3794 -0.2378  0.4970
  692SOL    HW1 2075   2.073   0.094   1.370  1.9044 -2.3678  0.7318
  692SOL    HW2 2076   2.096   3.002   1.362 -1.7044 -1.2094  0.9449
  693SOL     OW 2077   0.716   1.145   2.127  0.6863  0.1340  0.1185
  693SOL    HW1 2078   0.817   1.153   2.149  0.7853 -0.3788 -1.3353
  693SOL    HW2 2079   0.699   1.057   2.079 -0.2226  3.4779  0.1956
  694SOL     OW 2080   1.657   2.546   1.346 -0.2731 -0.5654 -0.2007
  694SOL    HW1 2081   1.750   2.572   1.306  0.2690  1.1035 -0.3420
  694SOL    HW2 2082   1.581   2.553   1.279  0.2015 -0.2378 -0.2254
  695SOL     OW 2083   1.312   1.010   1.979 -0.0672  0.0761 -0.2582
  695SOL    HW1 2084   1.342   0.983   2.075 -0.2689  0.5224 -1.6315
  695SOL    HW2 2085   1.364   1.095   1.952 -0.9788 -0.7106  0.9114
  696SOL     OW 2086   1.642   2.970   0.603 -0.2331 -0.1992 -0.2533
  696SOL    HW1 2087   1.564   2.910   0.572 -2.2338  0.9513 -0.3508
  696SOL    HW2 2088   1.725   2.915   0.617 -2.0771  1.8541 -0.2202
  697SOL     OW 2089   1.284   0.138   0.690  0.0213 -0.2810 -0.5277
  697SOL    HW1 2090   1.289   0.190   0.779  2.0430  0.5589  0.7826
  697SOL    HW2 2091   1.204   0.172   0.635  0.6938 -1.0394  1.6005
  698SOL     OW 2092   1.788   1.152   2.433 -0.0251 -0.2367 -0.2901
  698SOL    HW1 2093   1.757   1.057   2.427  0.5979  0.2651  2.2585
  698SOL    HW2 2094   1.713   1.214   2.410  0.9786 -1.2063 -1.4862
  699SOL     OW 2095   1.244   1.463   1.253  0.6119 -0.0105 -0.3304
  699SOL    HW1 2096   1.334   1.418   1.241  0.2153  0.6739  2.3132
  699SOL    HW2 2097   1.221   1.456   1.354 -0.2102  0.0576  1.5536
  700SOL     OW 2098   1.511   0.129   0.529  0.3359 -0.5114 -0.1764
  700SOL    HW1 2099   1.431   0.124   0.592 -1.2696  0.7907 -0.3693
  700SOL    HW2 2100   1.570   0.047   0.545  1.0423 -0.5048  1.2669
  701SOL     OW 2101   0.528   0.263   1.753 -0.0579  0.4101  0.1237
  701SOL    HW1 2102   0.587   0.268   1.670 -0.0051  2.2312 -1.2344
  701SOL    HW2 2103   0.586   0.303   1.827  1.7823 -4.0225 -0.5621
  702SOL     OW 2104   1.205   2.897   0.378 -0.6585  0.3232  0.0515
  702SOL    HW1 2105   1.174   2.945   0.293 -0.8802  2.8814  3.1356
  702SOL    HW2 2106   1.133   2.834   0.408 -0.3578 -0.2088  0.1472
  703SOL     OW 2107   2.557   2.817   2.364 -0.6287  0.1237 -0.2755
  703SOL    HW1 2108   2.486   2.851   2.429 -3.1429  0.7942 -0.0115
  703SOL    HW2 2109   2.544   2.720   2.353 -3.1754  2.2272 -0.0749
  704SOL     OW 2110   0.633   2.060   0.622 -0.4705 -0.2605  0.1163
  704SOL    HW1 2111   0.610   2.154   0.588 -2.8088 -1.8008  1.9748
  704SOL    HW2 2112   0.628   2.053   0.725 -1.2817 -1.6180 -1.7089
  705SOL     OW 2113   2.997   0.602   1.913 -0.6817 -0.2571  0.2206
  705SOL    HW1 2114   3.003   0.503   1.898 -2.2746 -0.5598  0.6631
  705SOL    HW2 2115   0.006   0.636   1.952  0.0007  1.2837 -1.4177
  706SOL     OW 2116   1.581   2.939   0.269  0.5078 -0.3311  0.0742
  706SOL    HW1 2117   1.680   2.922   0.285  0.2316  0.8866  1.4215
  706SOL    HW2 2118   1.523   2.916   0.352 -0.7369  0.2172  0.0994
  707SOL     OW 2119   1.410   1.974   2.129 -0.1277  0.0651 -0.4010
  707SOL    HW1 2120   1.414   1.974   2.027  0.9817 -2.0191 -1.5458
  707SOL    HW2 2121   1.345   2.038   2.167  1.8738 -1.2174 -2.0627
  708SOL     OW 2122   3.006   2.270   1.579 -0.2119  0.0651  0.6623
  708SOL    HW1 2123   2.953   2.356   1.580  1.2184  1.1113  0.3705
  708SOL    HW2 2124   3.071   2.276   1.657  1.6818  2.0037  3.9021
  709SOL     OW 2125   2.002   0.404   1.627 -0.1309 -0.2474  0.0404
  709SOL    HW1 2126   2.036   0.370   1.720  0.4392  0.2372  3.2958
  709SOL    HW2 2127   1.913   0.360   1.603  1.1129  1.5578  0.9508
  710SOL     OW 2128   2.867   3.061   1.382 -0.7131 -0.0555  0.4514
  710SOL    HW1 2129   2.863   0.041   1.298  0.3257 -1.4596  0.7769
  710SOL    HW2 2130   2.792   0.002   1.449  0.9529 -0.6139  2.1318
  711SOL     OW 2131   0.195   2.299   0.267 -0.4009  0.1941  0.3344
  711SOL    HW1 2132   0.216   2.258   0.177  0.2766 -1.2290 -0.1540
  711SOL    HW2 2133   0.101   2.268   0.308 -2.8984 -0.0967 -0.4520
  712SOL     OW 2134   0.668   2.193   2.398  0.4463  0.5663  0.2716
  712SOL    HW1 2135   0.583   2.189   2.348  1.4399  0.2453 -0.3440
  712SOL    HW2 2136   0.751   2.205   2.344  0.3520 -1.6103  1.1134
  713SOL     OW 2137   1.985   0.679   3.036 -0.0018  0.1984  0.3037
  713SOL    HW1 2138   1.975   0.672   0.060  1.9666  1.8887  2.4990
  713SOL    HW2 2139   1.966   0.774   3.016 -0.7967  0.3896  1.6794
  714SOL     OW 2140   1.030   1.824   0.481  0.5758  0.5959 -0.0792
  714SOL    HW1 2141   0.978   1.902   0.526  0.3367 -0.3884 -1.6067
  714SOL    HW2 2142   1.129   1.826   0.499 -0.0419  1.4890 -0.5566
  715SOL     OW 2143   1.966   0.247   0.461 -0.1539 -0.0807  0.3437
  715SOL    HW1 2144   1.876   0.266   0.508 -0.2399 -0.6161 -0.7600
  715SOL    HW2 2145   2.032   0.319   0.490 -1.0235 -1.5336 -1.8834
  716SOL     OW 2146   0.661   0.733   1.676  0.2057 -0.7688  0.1016
  716SOL    HW1 2147   0.611   0.673   1.747 -1.4353 -0.3147  1.5971
  716SOL    HW2 2148   0.590   0.789   1.626 -0.5528  1.2272 -0.5730
  717SOL     OW 2149   0.033   0.676   0.018 -0.1964 -0.2237 -0.0848
  717SOL    HW1 2150   0.049   0.728   3.011 -1.6183 -1.1555 -0.9496
  717SOL    HW2 2151   0.057   0.578   0.019 -1.2018  2.3873  1.1394
  718SOL     OW 2152   1.150   0.930   0.359  0.0088  0.0707 -0.3270
  718SOL    HW1 2153   1.229   0.928   0.421 -1.5572  3.8314  0.6997
  718SOL    HW2 2154   1.104   0.837   0.355 -1.1142 -0.4409 -2.0666
  719SOL     OW 2155   2.606   1.752   2.810  0.0101  0.2019  0.0184
  719SOL    HW1 2156   2.696   1.708   2.825 -0.5920  0.6417  1.6414
  719SOL    HW2 2157   2.613   1.842   2.767  0.6186 -2.1237  0.9053
  720SOL     OW 2158   1.580   0.883   1.332 -0.1293 -0.0068 -0.2072
  720SOL    HW1 2159   1.542   0.890   1.237  0.1401  0.6672 -0.9881
  720SOL    HW2 2160   1.534   0.810   1.392  1.2329 -2.6605  1.0216
  721SOL     OW 2161   2.764   0.712   0.348 -0.2819 -0.4947 -0.1317
  721SOL    HW1 2162   2.854   0.766   0.326  1.8138  0.9447  0.8366
  721SOL    HW2 2163   2.765   0.688   0.445  1.0737  1.7571 -1.3673
  722SOL     OW 2164   0.933   1.364   2.586  0.0809  0.0760  0.2006
  722SOL    HW1 2165   0.903   1.460   2.603  1.6332  1.6044 -1.9437
  722SOL    HW2 2166   0.884   1.309   2.653  0.9008  0.0443 -0.2237
  723SOL     OW 2167   0.490   0.953   0.397 -0.0109 -0.0092 -0.0757
  723SOL    HW1 2168   0.503   1.046   0.423 -2.8061 -2.2636 -1.6245
  723SOL    HW2 2169   0.393   0.922   0.423  0.2107 -0.5932  0.9663
  724SOL     OW 2170   0.916   2.328   1.959 -0.2188 -0.2487  0.3128
  724SOL    HW1 2171   0.829   2.369   1.913  0.4232 -1.5948 -1.2470
  724SOL    HW2 2172   0.983   2.401   1.985  1.0281 -0.7277 -1.2022
  725SOL     OW 2173   2.558   0.939   1.661 -0.5828  0.5766  0.0982
  725SOL    HW1 2174   2.550   1.035   1.627  0.7784 -2.5169 -0.7251
  725SOL    HW2 2175   2.616   0.945   1.742 -1.8425 -1.2611  3.3077
  726SOL     OW 2176   1.848   2.859   0.321  0.2128 -0.1220 -0.7773
  726SOL    HW1 2177   1.909   2.833   0.245 -0.6532 -0.2899  0.3815
  726SOL    HW2 2178   1.775   2.789   0.335  1.1952 -2.4120  2.0179
  727SOL     OW 2179   1.340   0.959   2.566  0.4911 -0.1999  0.2056
  727SOL    HW1 2180   1.337   1.015   2.652  2.2234  0.3842 -2.2946
  727SOL    HW2 2181   1.263   0.889   2.577  0.6552 -1.8443  1.0050
  728SOL     OW 2182   1.444   2.571   1.139  0.2036 -0.5765  0.1344
  728SOL    HW1 2183   1.368   2.515   1.106  0.6454 -2.7632  0.3632
  728SOL    HW2 2184   1.412   2.657   1.184  0.3613 -0.4858 -0.1938
  729SOL     OW 2185   1.475   0.656   1.483 -0.2258 -0.2556  0.1179
  729SOL    HW1 2186   1.386   0.646   1.439 -0.7032 -0.2314 -4.3044
  729SOL    HW2 2187   1.465   0.636   1.582  0.3213  0.8001 -3.1053
  730SOL     OW 2188   0.619   2.027   2.018 -0.2083 -0.2678  0.0314
  730SOL    HW1 2189   0.719   2.050   2.007 -0.0417  1.1581  0.1120
  730SOL    HW2 2190   0.577   2.053   2.106 -1.2437 -0.6466  0.2799
  731SOL     OW 2191   0.474   0.313   0.291  0.3360  0.0514 -0.4207
  731SOL    HW1 2192   0.512   0.378   0.360  0.3562 -0.4548  0.0037
  731SOL    HW2 2193   0.542   0.236   0.273  1.4441 -0.7015 -2.0083
  732SOL     OW 2194   0.573   0.365   2.808 -0.5482  0.0955  0.5108
  732SOL    HW1 2195   0.652   0.418   2.846 -0.1284 -0.1938 -1.2402
  732SOL    HW2 2196   0.478   0.389   2.843  0.7847 -0.2848  0.3238
  733SOL     OW 2197   1.081   2.366   1.132 -0.1801  0.0054  0.4128
  733SOL    HW1 2198   1.026   2.288   1.163 -0.6337 -1.3167  1.9818
  733SOL    HW2 2199   1.075   2.434   1.207 -0.3654 -1.6235 -0.9765
  734SOL     OW 2200   2.952   2.301   2.553 -0.4453  0.6333 -0.0937
  734SOL    HW1 2201   3.042   2.250   2.568  4.2699  0.2373  0.6619
  734SOL    HW2 2202   2.936   2.364   2.632  0.8490 -1.8918 -1.3749
  735SOL     OW 2203   1.021   2.942   1.034 -0.8559  0.3982 -0.3505
  735SOL    HW1 2204   0.991   3.032   1.071  2.8177  0.3889 -2.7262
  735SOL    HW2 2205   1.123   2.933   1.020  1.5845  0.0333 -3.6177
  736SOL     OW 2206   1.467   0.681   0.022 -0.7354 -0.4753 -0.4083
  736SOL    HW1 2207   1.510   0.707   3.013  0.3385  0.7296 -0.0899
  736SOL    HW2 2208   1.533   0.634   0.087  2.2035 -0.5108  2.1030
  737SOL     OW 2209   0.114   0.112   0.543  0.1859  0.2444 -0.2534
  737SOL    HW1 2210   0.195   0.085   0.599 -1.3765 -0.1982 -5.9072
  737SOL    HW2 2211   0.070   0.198   0.573 -1.3326 -2.2434 -0.9800
  738SOL     OW 2212   2.521   2.825   1.169  0.2133 -0.6329  0.1316
  738SOL    HW1 2213   2.556   2.921   1.178 -1.1188 -0.6839 -1.0405
  738SOL    HW2 2214   2.416   2.830   1.162 -0.2300  2.1284  1.5173
  739SOL     OW 2215   1.652   2.652   0.326 -0.1272 -0.2642  0.0026
  739SOL    HW1 2216   1.565   2.629   0.280  0.0679 -3.6996 -0.0812
  739SOL    HW2 2217   1.671   2.596   0.404 -2.3212  2.1901  0.5616
  740SOL     OW 2218   1.896   2.795   1.187  0.0995 -0.0332  0.4087
  740SOL    HW1 2219   1.940   2.885   1.201  0.2967  0.7320  0.5953
  740SOL    HW2 2220   1.859   2.792   1.093  4.1901 -2.1244 -1.8321
  741SOL     OW 2221   1.880   0.442   0.829  0.2237 -0.1562  0.0163
  741SOL    HW1 2222   1.918   0.387   0.899 -1.3067  4.1766 -2.3793
  741SOL    HW2 2223   1.879   0.539   0.859 -2.4403 -0.7728 -0.1334
  742SOL     OW 2224   1.252   2.154   2.229  0.5020  0.4272 -0.5550
  742SOL    HW1 2225   1.319   2.195   2.294  1.1853  2.4965  1.1095
  742SOL    HW2 2226   1.199   2.218   2.172 -2.2826 -2.3203 -1.5241
  743SOL     OW 2227   2.416   0.303   1.855  0.4827 -0.3965  0.1168
  743SOL    HW1 2228   2.419   0.372   1.778 -0.9250  2.9828 -1.5513
  743SOL    HW2 2229   2.478   0.335   1.925 -0.9890 -1.1396  0.1451
  744SOL     OW 2230   2.183   0.603   1.208  0.1950 -0.0474  0.0269
  744SOL    HW1 2231   2.208   0.676   1.275  0.5480 -0.0510  2.0519
  744SOL    HW2 2232   2.183   0.640   1.114  0.7628 -0.7524  2.7287
  745SOL     OW 2233   1.750   1.318   1.746  0.1303 -0.4036 -0.1702
  745SOL    HW1 2234   1.721   1.287   1.836 -2.3347  0.5699 -1.5870
  745SOL    HW2 2235   1.697   1.399   1.719 -1.0490  0.4126  2.9580
  746SOL     OW 2236   1.103   1.429   0.770 -0.1443 -0.7036  0.0071
  746SOL    HW1 2237   1.186   1.481   0.797 -0.8581 -0.6765  1.6292
  746SOL    HW2 2238   1.039   1.479   0.708 -0.2629 -0.5281  1.7260
  747SOL     OW 2239   1.481   1.323   1.199  0.4553  0.1582  0.6309
  747SOL    HW1 2240   1.490   1.302   1.101 -0.8335  0.5572  0.6567
  747SOL    HW2 2241   1.562   1.375   1.236 -2.3889 -2.2679  1.8904
  748SOL     OW 2242   3.071   2.946   0.452 -0.4838 -0.1699  0.3952
  748SOL    HW1 2243   3.017   2.941   0.366 -0.8465  0.4186  1.6687
  748SOL    HW2 2244   3.067   3.037   0.489  1.3116 -0.4293 -1.2616
  749SOL     OW 2245   0.025   0.247   2.138  0.0654 -0.0551  0.7836
  749SOL    HW1 2246   0.001   0.162   2.185 -0.8685  0.9659 -1.4556
  749SOL    HW2 2247   0.057   0.324   2.197 -1.2061 -2.9153  0.5522
  750SOL     OW 2248   1.768   0.055   1.402 -0.4319  0.0819  0.3627
  750SOL    HW1 2249   1.739   0.121   1.335  2.3451  0.5477  3.4926
  750SOL    HW2 2250   1.868   0.037   1.396 -2.7201  1.8169 -0.7316
  751SOL     OW 2251   3.031   0.270   0.721 -0.0115 -0.0741  0.2926
  751SOL    HW1 2252   2.930   0.257   0.717  0.9151 -2.8016 -1.6091
  751SOL    HW2 2253   3.065   0.369   0.709  1.9231  1.7894  1.2904
  752SOL     OW 2254   0.255   2.620   0.952 -0.0378  0.2325 -0.2456
  752SOL    HW1 2255   0.248   2.702   1.012  0.2558 -0.3118  1.0895
  752SOL    HW2 2256   0.170   2.595   0.900 -0.0592  0.3203  1.0472
  753SOL     OW 2257   1.225   0.109   1.843 -0.4165 -0.9136  0.0943
  753SOL    HW1 2258   1.156   0.169   1.894  1.2712  0.3928  1.4511
  753SOL    HW2 2259   1.323   0.148   1.851  2.6367  2.0797  1.3256
  754SOL     OW 2260   1.408   2.487   1.602 -0.5236 -0.5154 -0.4311
  754SOL    HW1 2261   1.489   2.548   1.590 -2.1171 -0.2619 -0.5967
  754SOL    HW2 2262   1.389   2.470   1.699 -1.6332  0.4309 -1.7026
  755SOL     OW 2263   2.776   1.194   0.491 -1.0048  0.6527 -0.8101
  755SOL    HW1 2264   2.772   1.167   0.589 -4.3614  1.1617 -0.0572
  755SOL    HW2 2265   2.685   1.169   0.450 -2.0308  0.8992  1.0648
  756SOL     OW 2266   1.746   1.592   2.527 -0.4428 -0.6348 -0.3101
  756SOL    HW1 2267   1.814   1.550   2.467  0.2613 -0.3748 -0.7267
  756SOL    HW2 2268   1.735   1.537   2.612 -2.1550 -0.5967 -2.1690
  757SOL     OW 2269   1.879   2.852   0.668 -1.0659  0.2963 -0.3401
  757SOL    HW1 2270   1.944   2.920   0.619  0.5474  0.1774  1.7335
  757SOL    HW2 2271   1.870   2.767   0.608  0.5783  0.9616 -0.4948
  758SOL     OW 2272   0.808   2.820   0.934 -0.3232  0.0966  0.3739
  758SOL    HW1 2273   0.794   2.723   0.961 -1.2467 -0.8866 -1.8013
  758SOL    HW2 2274   0.888   2.860   0.976 -0.2886 -0.8708 -0.6607
  759SOL     OW 2275   3.032   0.619   0.901  0.3770  0.4928  0.6592
  759SOL    HW1 2276   0.007   0.582   0.825  0.9225 -0.9538 -0.0778
  759SOL    HW2 2277   3.035   0.718   0.893 -1.3100 -3.5004 -0.1924
  760SOL     OW 2278   2.198   1.304   1.206 -0.1310  0.1238 -0.2057
  760SOL    HW1 2279   2.261   1.262   1.271 -1.3059 -0.1863 -0.7521
  760SOL    HW2 2280   2.103   1.292   1.227 -2.2472 -0.0668 -0.7365
  761SOL     OW 2281   0.937   0.975   1.152  0.3127 -0.4017  0.2430
  761SOL    HW1 2282   0.912   1.077   1.154 -0.4287  1.9987 -2.4622
  761SOL    HW2 2283   0.956   0.954   1.050 -1.0434 -2.6539  0.1786
  762SOL     OW 2284   2.257   2.015   1.349  0.0523  0.0266 -0.7774
  762SOL    HW1 2285   2.284   1.945   1.279  0.1525  1.9995  3.3599
  762SOL    HW2 2286   2.313   2.005   1.435 -0.9184  1.7154 -1.8116
  763SOL     OW 2287   1.205   1.510   2.072  0.3312  0.0019 -0.6921
  763SOL    HW1 2288   1.294   1.549   2.104  0.7377 -0.8385 -0.1347
  763SOL    HW2 2289   1.133   1.581   2.078 -2.7203 -2.1915  0.8297
  764SOL     OW 2290   2.980   1.898   2.302  0.2122  0.1795  0.2271
  764SOL    HW1 2291   3.062   1.952   2.270 -2.0890  1.6113 -0.0390
  764SOL    HW2 2292   3.004   1.799   2.293 -2.9836  3.5818  0.3096
  765SOL     OW 2293   1.026   2.540   1.330 -0.0752 -0.4789 -0.0947
  765SOL    HW1 2294   1.077   2.549   1.417 -0.2940  1.2785  0.9560
  765SOL    HW2 2295   0.998   2.632   1.297  0.9883 -0.8972  1.2064
  766SOL     OW 2296   0.773   2.297   2.627 -0.2445 -0.0772 -0.1279
  766SOL    HW1 2297   0.711   2.252   2.695 -2.6449  0.4834  1.5550
  766SOL    HW2 2298   0.738   2.292   2.528 -0.2880 -0.8974 -2.0756
  767SOL     OW 2299   1.552   0.693   2.854  0.7983  0.0442 -0.0941
  767SOL    HW1 2300   1.637   0.643   2.873  0.3186  1.0672 -0.9923
  767SOL    HW2 2301   1.569   0.781   2.804 -3.0648  0.0815  0.6719
  768SOL     OW 2302   1.198   2.481   2.843  0.1544  0.2671 -0.5653
  768SOL    HW1 2303   1.292   2.462   2.862 -1.6144 -1.9343 -1.2886
  768SOL    HW2 2304   1.149   2.391   2.838  0.3614 -0.3610 -0.0769
  769SOL     OW 2305   0.039   2.700   1.225 -0.2490  0.3049 -0.1579
  769SOL    HW1 2306   3.045   2.767   1.208  1.0491 -2.1820  1.2242
  769SOL    HW2 2307   0.132   2.742   1.198  1.3453  2.4021 -0.4707
  770SOL     OW 2308   0.745   3.038   2.809 -0.5890 -0.7148 -0.5606
  770SOL    HW1 2309   0.808   2.963   2.770 -0.6320  0.2640 -0.8816
  770SOL    HW2 2310   0.752   3.063   2.910 -0.7885 -0.2078  0.8609
  771SOL     OW 2311   0.793   3.015   2.256 -0.5628 -0.4798  0.1688
  771SOL    HW1 2312   0.765   0.023   2.304  1.5404  3.4356  0.2382
  771SOL    HW2 2313   0.771   2.939   2.313  0.9472  0.5018  0.9671
  772SOL     OW 2314   2.366   3.038   2.089  0.2531 -0.3671  0.7889
  772SOL    HW1 2315   2.443   0.027   2.072  0.9442 -0.5882 -2.1821
  772SOL    HW2 2316   2.402   2.945   2.055  1.8944 -1.3768  1.0932
  773SOL     OW 2317   0.701   2.459   1.861  0.2800  0.0143  0.0048
  773SOL    HW1 2318   0.692   2.499   1.768 -0.5627 -0.2795  2.0730
  773SOL    HW2 2319   0.615   2.418   1.890  3.5951  1.2812 -3.5030
  774SOL     OW 2320   1.300   0.465   2.114  0.0373 -0.1119  0.8358
  774SOL    HW1 2321   1.300   0.368   2.147 -0.1627 -0.9715  1.7547
  774SOL    HW2 2322   1.259   0.471   2.022 -1.8919 -1.0115  0.1286
  775SOL     OW 2323   2.154   2.632   2.818  0.5473 -0.1573  0.3000
  775SOL    HW1 2324   2.071   2.608   2.879 -0.4496 -2.5453 -0.2634
  775SOL    HW2 2325   2.212   2.549   2.806 -2.9216  1.2933 -2.2992
  776SOL     OW 2326   1.928   0.712   2.312  0.3088  0.0186  0.0725
  776SOL    HW1 2327   2.026   0.705   2.321  0.8715  1.2754 -1.6013
  776SOL    HW2 2328   1.906   0.712   2.210 -0.5424 -0.6963 -0.5679
  777SOL     OW 2329   2.827   1.210   2.281  0.2922 -0.1127  0.0842
  777SOL    HW1 2330   2.857   1.162   2.365 -0.3375  0.9211 -3.7521
  777SOL    HW2 2331   2.825   1.309   2.300  0.2375 -0.1072  1.0527
  778SOL     OW 2332   2.181   0.517   2.401  0.7312  0.6073 -0.6760
  778SOL    HW1 2333   2.196   0.599   2.456  0.8788 -2.8863 -0.0558
  778SOL    HW2 2334   2.121   0.452   2.453 -1.2050  0.8875 -1.6837
  779SOL     OW 2335   2.981   0.098   0.137  0.1075  0.0888 -0.2784
  779SOL    HW1 2336   2.942   0.176   0.190 -0.6644 -1.7437 -1.6142
  779SOL    HW2 2337   0.005   0.103   0.135 -0.7065 -0.6473  0.5241
  780SOL     OW 2338   2.455   0.252   2.538 -0.6166  0.5672  0.6622
  780SOL    HW1 2339   2.503   0.342   2.516  1.8298  0.2923  2.0963
  780SOL    HW2 2340   2.364   0.233   2.493 -1.7486  0.5188 -0.0090
  781SOL     OW 2341   0.175   0.040   1.545  0.3194  0.2709  0.1153
  781SOL    HW1 2342   0.114   3.042   1.517 -1.6658 -1.6617 -0.6882
  781SOL    HW2 2343   0.199   0.101   1.468 -2.0612  0.1143  0.9013
  782SOL     OW 2344   1.762   2.604   0.072 -0.0594  0.6081 -0.2173
  782SOL    HW1 2345   1.681   2.601   0.005 -0.5340  0.0604 -1.4659
  782SOL    HW2 2346   1.720   2.623   0.166 -1.0340 -0.6456  0.5643
  783SOL     OW 2347   0.621   1.405   1.780 -0.2155 -0.4198 -0.4378
  783SOL    HW1 2348   0.709   1.437   1.823 -1.0487 -0.8528  1.4353
  783SOL    HW2 2349   0.642   1.311   1.749 -2.5714 -1.5181  0.4356
  784SOL     OW 2350   1.741   0.492   2.337 -0.1907 -0.2434  0.3123
  784SOL    HW1 2351   1.647   0.514   2.303  2.3960  1.2345 -3.1299
  784SOL    HW2 2352   1.804   0.569   2.314  0.1075  0.2224 -1.4453
  785SOL     OW 2353   2.786   0.218   0.815  0.1526 -0.1916  0.1764
  785SOL    HW1 2354   2.814   0.289   0.882 -0.1389 -0.1455  0.4089
  785SOL    HW2 2355   2.686   0.199   0.831  0.5999  2.3098 -0.2733
  786SOL     OW 2356   1.914   0.030   0.855 -0.3908 -0.1828  0.2411
  786SOL    HW1 2357   1.935   0.117   0.907 -1.9172  0.8744  1.6274
  786SOL    HW2 2358   1.815   0.015   0.852  1.2501 -2.5260  0.2815
  787SOL     OW 2359   1.475   3.057   1.091 -0.0592 -0.1682  0.2544
  787SOL    HW1 2360   1.392   0.033   1.113 -0.2591  1.2279  0.9066
  787SOL    HW2 2361   1.532   3.031   1.170 -1.1925  1.6026 -5.1117
  788SOL     OW 2362   2.929   0.721   0.596  0.4737 -0.2413  0.1423
  788SOL    HW1 2363   2.981   0.797   0.644  0.5536  1.7361  1.3095
  788SOL    HW2 2364   2.866   0.675   0.659  1.3344 -0.2422 -0.1178
  789SOL     OW 2365   0.453   1.192   2.054  0.2015  0.5553 -0.1937
  789SOL    HW1 2366   0.556   1.187   2.066 -0.1279  0.4172 -1.0664
  789SOL    HW2 2367   0.428   1.288   2.039  3.0282 -2.0719  2.2164
  790SOL     OW 2368   0.512   0.596   2.566 -0.6664  0.0805  0.0062
  790SOL    HW1 2369   0.506   0.495   2.538  1.4566  0.5260 -2.5750
  790SOL    HW2 2370   0.506   0.658   2.488  1.3870 -2.3220  0.7440
  791SOL     OW 2371   2.271   0.386   0.273  0.2713  0.7867  0.2547
  791SOL    HW1 2372   2.250   0.304   0.338  1.1999 -1.1855  0.4244
  791SOL    HW2 2373   2.241   0.467   0.326  1.3018  2.1666 -0.1596
  792SOL     OW 2374   1.171   0.336   1.287 -0.6170 -0.5228 -0.1730
  792SOL    HW1 2375   1.213   0.432   1.285  0.2329  3.5211 -1.7748
  792SOL    HW2 2376   1.069   0.341   1.273 -1.2966  0.1254  0.7362
  793SOL     OW 2377   0.277   2.843   1.097 -0.4011 -0.9144 -0.4884
  793SOL    HW1 2378   0.342   2.861   1.175  1.0105 -1.1585  2.3142
  793SOL    HW2 2379   0.267   2.934   1.038  1.6787  2.3187  1.5008
  794SOL     OW 2380   0.194   0.681   2.007 -0.2542  0.4971 -0.2670
  794SOL    HW1 2381   0.223   0.744   2.082  0.5188  1.8913  0.5676
  794SOL    HW2 2382   0.266   0.616   1.980  1.6810 -1.2002  1.2967
  795SOL     OW 2383   0.256   2.463   2.609  0.3246 -0.2658 -0.3292
  795SOL    HW1 2384   0.257   2.508   2.516  0.3778  0.2338  0.9994
  795SOL    HW2 2385   0.167   2.460   2.653  0.9971  2.7470 -2.4849
  796SOL     OW 2386   2.023   0.336   2.558  0.0360 -0.4904  0.0175
  796SOL    HW1 2387   2.058   0.383   2.642 -1.0178 -0.0105  0.5965
  796SOL    HW2 2388   1.922   0.344   2.569  1.4285  0.7352  0.7687
  797SOL     OW 2389   2.680   2.247   2.791 -0.1125  0.7486 -0.9446
  797SOL    HW1 2390   2.747   2.313   2.750 -0.3753 -0.7637  2.1946
  797SOL    HW2 2391   2.591   2.297   2.816 -1.8232  0.8323  2.2268
  798SOL     OW 2392   0.127   0.605   1.593 -0.3818  0.3048  0.5448
  798SOL    HW1 2393   0.135   0.537   1.672  1.0773 -0.8488  2.5144
  798SOL    HW2 2394   0.123   0.693   1.635 -0.5551 -0.0284 -0.8424
  799SOL     OW 2395   0.972   0.163   2.007 -0.1775  0.1119 -0.5260
  799SOL    HW1 2396   0.954   0.203   2.103  0.2997  3.9225 -1.1164
  799SOL    HW2 2397   0.945   0.063   2.000 -1.4482 -1.8149  1.0575
  800SOL     OW 2398   2.964   2.603   0.267 -0.0791  0.1133 -0.5044
  800SOL    HW1 2399   3.021   2.550   0.199 -2.1719 -0.4263  1.5744
  800SOL    HW2 2400   2.923   2.682   0.222 -1.5505 -0.7066 -0.1974
  801SOL     OW 2401   1.814   1.777   1.095 -0.2433 -0.1445  0.3922
  801SOL    HW1 2402   1.726   1.806   1.052 -1.1364 -0.5680  0.0076
  801SOL    HW2 2403   1.853   1.850   1.160  0.3296  1.0544  1.4723
  802SOL     OW 2404   0.659   0.644   0.307 -0.4952 -0.3512 -0.1217
  802SOL    HW1 2405   0.588   0.638   0.384 -1.4719  0.4955 -1.0415
  802SOL    HW2 2406   0.637   0.724   0.250  0.1673 -0.0750 -1.6321
  803SOL     OW 2407   1.354   1.075   2.303  0.5744 -0.1312  0.5556
  803SOL    HW1 2408   1.343   1.031   2.393 -0.0896  2.4541 -1.0366
  803SOL    HW2 2409   1.292   1.158   2.298 -0.3155  3.1765  0.9968
  804SOL     OW 2410   2.068   2.133   0.939  0.8351  0.2649  0.1237
  804SOL    HW1 2411   1.995   2.147   1.008 -0.5907 -2.8336 -2.1370
  804SOL    HW2 2412   2.124   2.049   0.958 -0.1323 -1.1900  0.3083
  805SOL     OW 2413   0.424   1.991   2.656 -0.4242  0.5871 -0.8327
  805SOL    HW1 2414   0.392   2.081   2.696  0.2305  3.7569 -0.6820
  805SOL    HW2 2415   0.359   1.954   2.592  1.6620 -0.0901  1.1057
  806SOL     OW 2416   0.615   2.567   0.389  1.0546  0.2875  0.2870
  806SOL    HW1 2417   0.657   2.641   0.334 -1.6893  0.4424  1.0585
  806SOL    HW2 2418   0.578   2.621   0.470  0.2845 -0.5051  0.2760
  807SOL     OW 2419   2.587   0.959   2.912 -0.6056  0.1900 -0.1901
  807SOL    HW1 2420   2.629   0.879   2.953 -0.1630 -1.3138 -0.5851
  807SOL    HW2 2421   2.520   0.997   2.976  0.8707 -3.1246  1.4711
  808SOL     OW 2422   1.608   2.221   1.019  0.1411  0.4300  0.0537
  808SOL    HW1 2423   1.528   2.255   1.071  2.2885  2.3612 -0.1421
  808SOL    HW2 2424   1.691   2.212   1.079 -1.7206  1.2138  0.8042
  809SOL     OW 2425   0.252   0.417   0.526 -0.5223  0.4408  0.1645
  809SOL    HW1 2426   0.317   0.487   0.490 -0.3504  0.7748 -2.3783
  809SOL    HW2 2427   0.308   0.358   0.587 -2.4650 -0.7861  0.3301
  810SOL     OW 2428   1.319   1.577   0.225  0.2389 -0.6229  0.6957
  810SOL    HW1 2429   1.284   1.621   0.145 -0.0639 -5.0904  2.9409
  810SOL    HW2 2430   1.403   1.627   0.254 -1.0846 -1.1083  0.9276
  811SOL     OW 2431   1.362   2.827   1.315  0.1950  0.0020 -0.5727
  811SOL    HW1 2432   1.452   2.879   1.313  1.5157  2.1542  0.0375
  811SOL    HW2 2433   1.287   2.896   1.317 -0.0561  0.5497  0.3612
  812SOL     OW 2434   1.619   0.058   0.847  0.5371 -0.7634  0.1120
  812SOL    HW1 2435   1.624   3.068   0.770  0.6449 -0.0942  1.6847
  812SOL    HW2 2436   1.563   0.025   0.925 -1.3627  0.6908  1.3670
  813SOL     OW 2437   1.436   2.915   1.872 -0.3003 -0.0704  0.3080
  813SOL    HW1 2438   1.334   2.917   1.891  0.6986 -1.2090  0.7057
  813SOL    HW2 2439   1.447   2.911   1.769 -0.8394 -0.4916  0.3137
  814SOL     OW 2440   1.063   2.558   2.026  0.3138  0.1187 -0.5257
  814SOL    HW1 2441   1.086   2.627   1.958  0.5005 -1.2006 -0.3621
  814SOL    HW2 2442   1.139   2.552   2.093 -1.8790 -2.1660  0.6245
  815SOL     OW 2443   0.521   0.104   2.797  0.2167  0.1624  0.0144
  815SOL    HW1 2444   0.602   0.041   2.802  0.0167  1.4934  1.8842
  815SOL    HW2 2445   0.551   0.198   2.805  0.0221 -3.4256 -0.1793
  816SOL     OW 2446   2.402   1.043   0.019 -0.0428  0.0870  0.8230
  816SOL    HW1 2447   2.477   1.113   0.019  0.1989  1.1093 -1.2724
  816SOL    HW2 2448   2.374   1.013   0.111 -2.9103  1.0975  1.3086
  817SOL     OW 2449   2.776   2.277   2.359 -0.2218 -0.3507 -0.4494
  817SOL    HW1 2450   2.841   2.270   2.438 -0.3696 -1.9939 -0.0616
  817SOL    HW2 2451   2.824   2.320   2.281 -0.6861 -0.9574 -0.7989
  818SOL     OW 2452   0.879   1.403   0.286  0.2965  0.0516  0.0177
  818SOL    HW1 2453   0.826   1.362   0.368 -0.8669  2.4891  3.2377
  818SOL    HW2 2454   0.883   1.334   0.208 -4.8156 -2.3902  0.4566
  819SOL     OW 2455   1.641   1.410   2.769  0.0899 -0.1117 -0.0385
  819SOL    HW1 2456   1.716   1.358   2.733  0.2326  2.4582  1.7116
  819SOL    HW2 2457   1.639   1.389   2.868  1.7115  1.1534 -2.6913
  820SOL     OW 2458   0.487   1.245   0.391  0.7412 -0.0621  0.2333
  820SOL    HW1 2459   0.573   1.281   0.433 -2.6969  2.9346 -0.5213
  820SOL    HW2 2460   0.496   1.252   0.289 -0.5970 -0.8861  2.3979
  821SOL     OW 2461   0.564   2.967   1.014  0.0569 -0.0532  0.0379
  821SOL    HW1 2462   0.639   2.900   1.001 -0.7631  0.7136  0.2323
  821SOL    HW2 2463   0.470   2.927   1.015 -2.8600 -2.0467  1.1725
  822SOL     OW 2464   1.949   2.066   2.860  0.1314  0.0972  0.7506
  822SOL    HW1 2465   1.991   2.115   2.939  0.4954 -0.7761  1.8723
  822SOL    HW2 2466   1.894   2.130   2.805  0.4681  1.6898 -1.0987
  823SOL     OW 2467   0.903   0.719   2.326 -0.4941  0.3908 -0.0316
  823SOL    HW1 2468   0.867   0.685   2.415 -0.1530 -0.4325  0.4010
  823SOL    HW2 2469   0.831   0.699   2.256  3.9015  0.2332  2.0384
  824SOL     OW 2470   2.613   2.679   1.651 -0.0467  0.4248 -0.1294
  824SOL    HW1 2471   2.590   2.610   1.722  0.6681 -1.6522 -0.7658
  824SOL    HW2 2472   2.653   2.758   1.699 -0.7439  1.5461 -1.4151
  825SOL     OW 2473   0.239   1.866   2.461 -0.3264 -0.2439 -0.3505
  825SOL    HW1 2474   0.202   1.923   2.388 -0.6698 -2.3436  0.0785
  825SOL    HW2 2475   0.169   1.840   2.529 -0.6969  1.1029  0.1513
  826SOL     OW 2476   1.503   0.291   0.088  0.0457 -0.2018  0.0910
  826SOL    HW1 2477   1.574   0.357   0.094 -0.3680 -1.6588  2.7443
  826SOL    HW2 2478   1.552   0.201   0.084  1.7841  0.8831 -0.0166
  827SOL     OW 2479   3.041   1.900   2.001  0.8458  0.2567 -0.1157
  827SOL    HW1 2480   2.985   1.818   2.016  0.0627  0.2525 -1.6851
  827SOL    HW2 2481   0.052   1.877   1.957  1.5760  1.6796 -2.0771
  828SOL     OW 2482   0.217   0.270   1.353 -0.4303  0.2483 -0.2315
  828SOL    HW1 2483   0.142   0.335   1.367 -1.9710 -4.1327 -0.3734
  828SOL    HW2 2484   0.302   0.328   1.344  2.3547  0.7908  0.0741
  829SOL     OW 2485   1.010   1.800   2.513  0.2245  0.3313  0.2330
  829SOL    HW1 2486   0.992   1.900   2.522 -0.7358 -3.0401 -0.5660
  829SOL    HW2 2487   0.971   1.738   2.583  2.6426  0.6685  1.3289
  830SOL     OW 2488   0.859   0.785   1.519  0.1163 -0.1116 -0.0141
  830SOL    HW1 2489   0.804   0.820   1.440 -1.9656 -3.8884 -1.2335
  830SOL    HW2 2490   0.790   0.752   1.592 -1.2891 -0.6808  1.9837
  831SOL     OW 2491   2.509   1.430   2.848 -0.3437 -0.2413  0.2430
  831SOL    HW1 2492   2.520   1.370   2.764 -2.8437 -0.3750  1.1883
  831SOL    HW2 2493   2.601   1.452   2.885  0.9587  1.4561 -0.9892
  832SOL     OW 2494   1.073   2.233   2.813 -0.1224  0.3188  0.0668
  832SOL    HW1 2495   0.979   2.214   2.850  1.9007 -3.0997  1.7624
  832SOL    HW2 2496   1.104   2.146   2.767  0.7340  0.0420 -1.0990
  833SOL     OW 2497   0.223   0.438   1.813 -0.3208  1.2185 -0.4776
  833SOL    HW1 2498   0.215   0.411   1.912 -0.6481 -2.1580  0.9170
  833SOL    HW2 2499   0.258   0.355   1.762  0.7950  1.5428  0.9445
  834SOL     OW 2500   0.110   0.885   1.257  0.4175  0.1701 -0.0589
  834SOL    HW1 2501   0.137   0.950   1.330 -0.3036 -2.4279  0.9868
  834SOL    HW2 2502   0.150   0.907   1.165  0.9939 -0.5373  0.0213
  835SOL     OW 2503   2.636   0.461   0.536  0.1824 -0.4427  0.2899
  835SOL    HW1 2504   2.710   0.399   0.497  0.3989 -0.4222 -0.6486
  835SOL    HW2 2505   2.544   0.408   0.541 -0.7646 -1.6845  0.6621
  836SOL     OW 2506   0.797   2.334   0.140 -0.0695  0.4652  0.7515
  836SOL    HW1 2507   0.875   2.366   0.194 -1.6821 -2.3112 -1.9789
  836SOL    HW2 2508   0.771   2.239   0.169  1.2851 -0.3542 -2.5737
  837SOL     OW 2509   1.358   2.122   0.423 -0.2794  0.1810  0.2594
  837SOL    HW1 2510   1.426   2.176   0.373  0.2017  0.2661  1.2012
  837SOL    HW2 2511   1.288   2.186   0.460  1.2179  2.2601  1.4136
  838SOL     OW 2512   2.191   0.876   2.238  0.2201 -0.5185 -0.1165
  838SOL    HW1 2513   2.200   0.796   2.168  4.2020 -3.2542 -2.0435
  838SOL    HW2 2514   2.201   0.847   2.339 -4.1956 -2.5005  2.2302
  839SOL     OW 2515   1.318   1.048   2.834  0.4852 -0.2026 -0.3121
  839SOL    HW1 2516   1.231   1.078   2.869 -0.1631 -0.3127  0.9897
  839SOL    HW2 2517   1.374   1.013   2.912  2.9853 -0.8429 -1.1369
  840SOL     OW 2518   0.874   1.276   0.046  0.4220  0.6699  0.0138
  840SOL    HW1 2519   0.842   1.202   0.104 -0.5055 -1.3805 -2.1022
  840SOL    HW2 2520   0.810   1.288   3.047 -0.9565 -2.7366 -0.4251
  841SOL     OW 2521   1.190   2.268   0.010  0.1854 -0.0954  0.5058
  841SOL    HW1 2522   1.272   2.328   0.031 -1.2744 -1.5271  0.9430
  841SOL    HW2 2523   1.166   2.257   2.990  2.0163 -3.5832  1.6287
  842SOL     OW 2524   0.121   0.399   0.264 -0.1414  0.0093 -0.2260
  842SOL    HW1 2525   0.167   0.394   0.361 -0.2604  0.2395  3.4469
  842SOL    HW2 2526   0.195   0.397   0.191  1.6325 -0.7537 -1.8660
  843SOL     OW 2527   0.553   0.776   1.056  0.3062 -0.0722 -0.1667
  843SOL    HW1 2528   0.531   0.871   1.033 -0.7118 -2.5016 -0.6705
  843SOL    HW2 2529   0.473   0.714   1.043 -2.0384  1.3691  0.6902
  844SOL     OW 2530   2.248   2.568   2.449 -0.1328 -0.1864 -0.0453
  844SOL    HW1 2531   2.255   2.663   2.491 -0.7249  2.3766  2.3496
  844SOL    HW2 2532   2.161   2.557   2.397  2.9689  0.0559  2.7746
  845SOL     OW 2533   2.928   2.724   1.832 -0.2343  0.1100  0.4094
  845SOL    HW1 2534   3.013   2.782   1.851  2.8923  1.4437  1.8648
  845SOL    HW2 2535   2.927   2.677   1.738  1.3706 -1.6710 -0.5581
  846SOL     OW 2536   2.013   0.988   2.514 -0.9222  0.0742 -0.1586
  846SOL    HW1 2537   1.942   0.984   2.585  1.5129 -2.7246 -1.1508
  846SOL    HW2 2538   1.973   1.029   2.426 -0.8433  2.0839 -2.8688
  847SOL     OW 2539   2.813   0.430   1.704  0.3571  0.4197 -0.5491
  847SOL    HW1 2540   2.808   0.532   1.716 -0.7535 -1.5388  0.4595
  847SOL    HW2 2541   2.869   0.379   1.774  1.9652 -1.8457 -0.9740
  848SOL     OW 2542   2.578   2.765   0.059  0.1921 -0.4639  0.0304
  848SOL    HW1 2543   2.656   2.783   3.076  0.2124  1.1775  1.8122
  848SOL    HW2 2544   2.508   2.701   0.015 -1.4515 -0.7102 -2.2052
  849SOL     OW 2545   0.617   3.059   0.640 -0.0028 -0.2831 -0.5497
  849SOL    HW1 2546   0.662   2.969   0.657  1.9778 -2.1002 -0.3862
  849SOL    HW2 2547   0.517   3.053   0.643  0.6663  0.2992 -0.1382
  850SOL     OW 2548   0.864   2.491   0.488  0.1591 -0.0526 -0.6151
  850SOL    HW1 2549   0.774   2.526   0.455 -1.0014  0.7034 -1.2445
  850SOL    HW2 2550   0.931   2.489   0.412  0.2875  1.0806 -1.1122
  851SOL     OW 2551   1.789   0.550   2.891  0.2515 -0.2173  0.6206
  851SOL    HW1 2552   1.874   0.567   2.944  0.2363 -1.7477  1.0677
  851SOL    HW2 2553   1.800   0.506   2.796  0.7759 -2.2695 -0.9886
  852SOL     OW 2554   1.603   2.520   2.527  0.6547  0.0624 -0.5754
  852SOL    HW1 2555   1.581   2.480   2.442 -1.5917 -0.9832  3.5907
  852SOL    HW2 2556   1.699   2.494   2.552 -0.0181 -0.9349  1.5010
  853SOL     OW 2557   0.017   2.457   0.089  0.3713 -0.8044 -0.5442
  853SOL    HW1 2558   0.081   2.490   0.015  2.3887  3.2310 -0.6597
  853SOL    HW2 2559   0.046   2.371   0.134 -1.7146 -0.7566 -4.0554
  854SOL     OW 2560   1.181   0.569   2.551  0.5847 -0.0693  0.5770
  854SOL    HW1 2561   1.251   0.498   2.524 -0.0706  1.4737  0.3912
  854SOL    HW2 2562   1.143   0.537   2.637  1.1762  2.3940 -2.1430
  855SOL     OW 2563   0.245   2.828   0.479  0.5792  0.0692 -0.2069
  855SOL    HW1 2564   0.150   2.858   0.476  1.7188 -0.9210 -0.5851
  855SOL    HW2 2565   0.281   2.799   0.387 -1.1949 -1.4423 -1.1718
  856SOL     OW 2566   0.352   2.797   2.468 -0.1937 -0.3331 -0.4353
  856SOL    HW1 2567   0.314   2.724   2.408 -0.6878  0.7202 -0.0664
  856SOL    HW2 2568   0.368   2.761   2.562  0.6663 -0.8366 -0.1408
  857SOL     OW 2569   1.039   2.957   1.732 -0.7361  0.3371  0.4899
  857SOL    HW1 2570   0.942   2.994   1.730  0.4643 -0.0113 -3.5203
  857SOL    HW2 2571   1.109   3.029   1.740 -2.2546 -1.3526 -0.2382
  858SOL     OW 2572   0.256   1.860   1.599 -0.1894 -0.1962  0.0553
  858SOL    HW1 2573   0.294   1.954   1.604  0.3527 -0.8233  1.6244
  858SOL    HW2 2574   0.316   1.799   1.541  0.9670 -0.5127  0.2586
  859SOL     OW 2575   1.977   2.747   1.954 -0.0739 -0.3005 -0.3769
  859SOL    HW1 2576   2.066   2.766   1.908 -0.3480 -2.5388  2.4637
  859SOL    HW2 2577   1.912   2.693   1.893 -2.0626  0.1355 -1.8913
  860SOL     OW 2578   1.747   0.312   0.642  0.3864 -0.0102 -0.5788
  860SOL    HW1 2579   1.671   0.254   0.671  1.5724  0.2404 -1.5878
  860SOL    HW2 2580   1.789   0.349   0.725 -0.7698  0.8275  0.1458
  861SOL     OW 2581   2.717   0.628   0.735  0.6269  0.1938 -0.4621
  861SOL    HW1 2582   2.660   0.554   0.694  0.6168 -3.3569  0.8771
  861SOL    HW2 2583   2.702   0.636   0.836 -1.3725  1.2036  1.9306
  862SOL     OW 2584   1.831   0.713   2.056 -0.0124  0.6955 -0.0999
  862SOL    HW1 2585   1.910   0.684   2.003  0.4587  0.7766  1.7586
  862SOL    HW2 2586   1.777   0.776   2.000  1.3527 -0.1888  1.0045
  863SOL     OW 2587   0.801   0.709   0.942 -0.3107  0.1687 -0.1748
  863SOL    HW1 2588   0.705   0.735   0.970  1.6604 -1.0870  3.6943
  863SOL    HW2 2589   0.838   0.655   1.021 -0.0418  1.2251  0.3029
  864SOL     OW 2590   2.997   2.798   2.286  0.2057  0.6622 -0.1359
  864SOL    HW1 2591   2.918   2.735   2.267 -0.4164  2.1712 -2.8478
  864SOL    HW2 2592   3.030   2.768   2.379  0.4814  0.4671  1.1360
  865SOL     OW 2593   1.098   0.815   2.616 -0.3667  0.5053 -0.1548
  865SOL    HW1 2594   1.132   0.722   2.591 -0.0394 -3.7466  0.3778
  865SOL    HW2 2595   1.008   0.806   2.664 -2.6864  0.6160 -0.5717
  866SOL     OW 2596   2.548   2.658   0.473 -0.5147 -0.8496  0.1747
  866SOL    HW1 2597   2.470   2.673   0.538 -1.6618 -0.8826 -1.5222
  866SOL    HW2 2598   2.626   2.614   0.513 -1.7955  0.1163  0.1566
  867SOL     OW 2599   2.921   2.920   0.198  0.7792  0.0916  0.3290
  867SOL    HW1 2600   2.829   2.888   0.222 -0.5433  1.6305  1.6783
  867SOL    HW2 2601   2.918   3.023   0.195  1.7655 -0.7567 -2.1217
  868SOL     OW 2602   1.893   1.062   0.269 -1.1373  0.0461 -0.5127
  868SOL    HW1 2603   1.838   1.127   0.212 -1.7431 -0.9905 -1.2769
  868SOL    HW2 2604   1.995   1.075   0.255  0.3088  1.4462  0.4517
  869SOL     OW 2605   3.013   2.101   0.538 -0.6415  0.4353 -0.1590
  869SOL    HW1 2606   2.915   2.110   0.556  3.1259 -0.5188 -0.0940
  869SOL    HW2 2607   3.030   2.146   0.447 -4.1836  1.2494 -2.1468
  870SOL     OW 2608   1.940   1.945   0.312  0.2116  0.2140  0.0395
  870SOL    HW1 2609   1.968   1.885   0.387  1.6345 -0.6434 -2.2652
  870SOL    HW2 2610   1.992   1.917   0.228  2.8962  0.0604 -2.9133
  871SOL     OW 2611   0.624   1.068   1.028  0.5829 -1.0048  0.4469
  871SOL    HW1 2612   0.538   1.114   1.050  0.2675  3.1168 -0.2427
  871SOL    HW2 2613   0.709   1.117   1.069  2.4507  1.9568  1.5427
  872SOL     OW 2614   1.056   1.971   2.131  0.0451  0.1927  0.5129
  872SOL    HW1 2615   1.107   2.028   2.200  0.9892 -0.6365  0.4493
  872SOL    HW2 2616   1.017   1.887   2.170 -1.9904 -0.6347  0.4834
  873SOL     OW 2617   0.479   2.317   1.992 -0.7012  0.3317  0.2350
  873SOL    HW1 2618   0.558   2.328   2.055  0.8879  0.9970 -0.1205
  873SOL    HW2 2619   0.393   2.331   2.045  0.1003  0.5146 -2.2237
  874SOL     OW 2620   0.918   0.081   1.149 -0.4365  0.2843 -0.8994
  874SOL    HW1 2621   0.939   0.039   1.241  0.0979 -1.0875  0.6128
  874SOL    HW2 2622   0.820   0.083   1.131 -1.0605 -2.4665 -0.6740
  875SOL     OW 2623   2.835   0.395   1.018  0.0834  0.4325 -0.4514
  875SOL    HW1 2624   2.914   0.436   0.973 -1.6555 -1.1573  1.9755
  875SOL    HW2 2625   2.823   0.443   1.108  0.7272  2.1495 -0.7633
  876SOL     OW 2626   0.610   0.877   0.165 -0.3853  0.4075  0.2526
  876SOL    HW1 2627   0.558   0.906   0.248  1.6468 -2.9394 -0.6827
  876SOL    HW2 2628   0.549   0.820   0.107 -0.7809 -0.4385 -0.2878
  877SOL     OW 2629   0.723   0.404   1.546  0.3572  0.2277 -0.0673
  877SOL    HW1 2630   0.739   0.407   1.649  0.1895  1.6322  1.4238
  877SOL    HW2 2631   0.792   0.457   1.494  0.8349 -2.0619 -0.3177
  878SOL     OW 2632   2.164   2.684   0.236 -0.2986 -0.1752  0.5813
  878SOL    HW1 2633   2.177   2.721   0.139  1.6541 -0.9398 -1.8977
  878SOL    HW2 2634   2.189   2.758   0.299  0.6183 -4.4049 -0.1733
  879SOL     OW 2635   2.606   1.467   1.346 -0.1606  0.1752 -0.3587
  879SOL    HW1 2636   2.558   1.421   1.268 -0.4973 -1.0567 -0.1331
  879SOL    HW2 2637   2.533   1.528   1.386 -2.3950  0.3189 -3.2476
  880SOL     OW 2638   1.445   2.399   0.722 -0.7438  0.2145  0.2667
  880SOL    HW1 2639   1.545   2.375   0.720 -2.8748 -0.6379  3.2327
  880SOL    HW2 2640   1.397   2.353   0.648  0.0947  0.4175 -1.1735
  881SOL     OW 2641   1.056   2.456   0.296  0.4538 -0.5514 -0.2455
  881SOL    HW1 2642   1.129   2.513   0.250  1.2398 -0.2657  1.5354
  881SOL    HW2 2643   1.080   2.357   0.301 -0.9731 -0.2155  0.5087
  882SOL     OW 2644   1.827   0.790   1.252 -0.7848  0.0522 -0.4982
  882SOL    HW1 2645   1.878   0.735   1.325  1.5139 -0.7234  1.0253
  882SOL    HW2 2646   1.736   0.828   1.280 -1.0739  1.8244  1.2494
  883SOL     OW 2647   1.629   0.844   1.747 -0.3934  0.2171 -0.1523
  883SOL    HW1 2648   1.721   0.814   1.708  4.5038  1.6948 -1.5343
  883SOL    HW2 2649   1.573   0.762   1.764  1.5067  0.8723  1.1625
  884SOL     OW 2650   2.805   0.557   0.113 -0.3330 -0.1772  0.2947
  884SOL    HW1 2651   2.789   0.594   0.209 -2.4905  0.6862  2.9031
  884SOL    HW2 2652   2.784   0.623   0.041 -0.3523 -0.7085  1.1428
  885SOL     OW 2653   1.303   1.649   3.035 -0.1563  0.5024  0.0168
  885SOL    HW1 2654   1.223   1.617   2.977 -0.2349  1.3844  2.3285
  885SOL    HW2 2655   1.392   1.645   2.985  0.8745  2.0682 -1.6885
  886SOL     OW 2656   1.532   1.647   2.896 -0.1596  0.6136  0.2308
  886SOL    HW1 2657   1.600   1.662   2.971  0.6476  0.2897  1.8962
  886SOL    HW2 2658   1.565   1.579   2.832 -0.2564 -0.2642  0.3042
  887SOL     OW 2659   1.270   0.094   1.523  0.3917 -0.3270 -0.7980
  887SOL    HW1 2660   1.272   0.098   1.624  0.0434 -2.4737  0.3083
  887SOL    HW2 2661   1.327   0.164   1.477 -1.9730 -1.4077  0.0117
  888SOL     OW 2662   2.481   0.513   1.685 -0.6021  0.1072 -0.3155
  888SOL    HW1 2663   2.547   0.536   1.755  0.0115  2.2820 -1.9661
  888SOL    HW2 2664   2.485   0.579   1.608 -1.8788  0.7236  0.7852
  889SOL     OW 2665   3.057   2.847   0.836  0.5067 -0.1383 -0.6083
  889SOL    HW1 2666   0.007   2.759   0.804 -0.7117  3.3121  2.2235
  889SOL    HW2 2667   2.959   2.848   0.852  0.4938 -1.4739 -0.9432
  890SOL     OW 2668   2.180   2.461   0.065  0.2867 -0.1190 -0.4964
  890SOL    HW1 2669   2.201   2.538   0.129  0.2988 -1.3728  1.5483
  890SOL    HW2 2670   2.101   2.479   0.008  3.0083 -0.1554 -2.3440
  891SOL     OW 2671   0.523   1.035   2.557  0.1649  0.7121 -0.0041
  891SOL    HW1 2672   0.509   1.083   2.471  1.5098 -0.7964 -0.5133
  891SOL    HW2 2673   0.432   1.021   2.604  0.2151 -1.2124  0.6391
  892SOL     OW 2674   0.228   0.094   1.137  0.4071  0.9380 -0.0698
  892SOL    HW1 2675   0.247   0.154   1.218  2.6807 -2.0687  0.6448
  892SOL    HW2 2676   0.153   0.131   1.082 -1.1759  0.9453  2.2778
  893SOL     OW 2677   1.437   0.285   1.370  0.5593 -0.0911 -0.1415
  893SOL    HW1 2678   1.353   0.291   1.313  0.5405 -0.2117 -0.0005
  893SOL    HW2 2679   1.523   0.292   1.313  4.4574  2.7412  0.3959
  894SOL     OW 2680   2.365   0.764   0.642 -0.1538 -0.0670 -0.1748
  894SOL    HW1 2681   2.300   0.841   0.654  0.2207 -0.2186  0.3998
  894SOL    HW2 2682   2.461   0.800   0.650 -0.5240 -1.0023 -2.8887
  895SOL     OW 2683   1.937   1.445   2.386  0.4051  0.1147  0.1402
  895SOL    HW1 2684   1.961   1.349   2.359  2.1950  1.3162  0.9295
  895SOL    HW2 2685   2.023   1.491   2.422  2.2472  0.6206  2.0893
  896SOL     OW 2686   1.644   0.325   1.803  0.0313 -0.0030 -0.7420
  896SOL    HW1 2687   1.622   0.405   1.867 -3.5196  1.0729  0.8076
  896SOL    HW2 2688   1.602   0.238   1.836  1.0279 -1.8024 -1.3886
  897SOL     OW 2689   0.578   1.661   1.931 -0.1070 -0.2784  0.0452
  897SOL    HW1 2690   0.593   1.580   1.870 -0.8346  0.5911 -0.2561
  897SOL    HW2 2691   0.594   1.747   1.877  0.1529  0.0851 -1.0193
  898SOL     OW 2692   2.522   2.549   2.292 -0.6472  0.1450 -0.1216
  898SOL    HW1 2693   2.456   2.570   2.222 -0.0669  1.8686  1.2207
  898SOL    HW2 2694   2.517   2.450   2.309 -0.0509  0.5150 -1.7521
  899SOL     OW 2695   1.211   1.076   1.428  0.0500 -0.0806 -0.4586
  899SOL    HW1 2696   1.142   1.146   1.417  4.6670 -1.6544 -0.7093
  899SOL    HW2 2697   1.303   1.115   1.426 -0.6384 -2.2621 -3.0646
  900SOL     OW 2698   1.411   2.183   2.666  0.3580 -0.3129 -0.5732
  900SOL    HW1 2699   1.320   2.140   2.659 -3.3799  0.0060  1.2103
  900SOL    HW2 2700   1.484   2.113   2.677  0.2250 -2.4574  0.1263
  901SOL     OW 2701   0.693   2.021   2.605  0.4612  0.0463  0.4210
  901SOL    HW1 2702   0.614   2.022   2.666  1.9781  0.7847 -1.2025
  901SOL    HW2 2703   0.669   2.069   2.520  0.5689  2.5148  1.2921
  902SOL     OW 2704   2.055   1.672   0.139  0.2557  0.0677 -0.3262
  902SOL    HW1 2705   2.092   1.616   0.062  0.3835  0.1262 -0.2284
  902SOL    HW2 2706   2.118   1.665   0.220 -0.1908 -0.5022 -1.7824
  903SOL     OW 2707   2.149   1.112   0.239  0.3246 -0.1508 -0.7386
  903SOL    HW1 2708   2.231   1.070   0.280 -2.7368  2.1894 -0.0532
  903SOL    HW2 2709   2.160   1.125   0.139  1.5036 -0.0791  2.7992
  904SOL     OW 2710   0.551   0.937   2.811  0.0284 -0.4426 -0.3250
  904SOL    HW1 2711   0.565   0.960   2.712  0.2411 -1.3798 -0.8952
  904SOL    HW2 2712   0.637   0.915   2.858 -2.5490 -2.9008  2.1672
  905SOL     OW 2713   2.479   0.515   0.985  0.4888  0.3573 -0.3066
  905SOL    HW1 2714   2.532   0.454   0.925 -0.0050  3.4024 -0.2151
  905SOL    HW2 2715   2.458   0.468   1.077 -2.5071  2.0860  2.7680
  906SOL     OW 2716   2.718   2.044   0.814 -0.4767 -0.4432 -0.3359
  906SOL    HW1 2717   2.720   2.044   0.716  2.9099  1.9730  1.5490
  906SOL    HW2 2718   2.783   2.120   0.857  3.2119  2.0097  1.6020
  907SOL     OW 2719   1.303   0.548   0.782 -0.0329 -0.2907 -0.3458
  907SOL    HW1 2720   1.347   0.480   0.718 -0.6555  1.4620  0.2331
  907SOL    HW2 2721   1.258   0.624   0.735 -1.2800 -2.1310 -0.8001
  908SOL     OW 2722   2.100   2.736   1.540  0.0934  0.2731  0.3510
  908SOL    HW1 2723   2.090   2.636   1.525  0.3866 -1.6377  0.4058
  908SOL    HW2 2724   2.050   2.770   1.620 -1.0264 -0.2106  1.4731
  909SOL     OW 2725   2.528   0.724   1.500 -0.0984 -0.4485  0.0548
  909SOL    HW1 2726   2.611   0.687   1.451 -1.1322  0.7970 -0.7730
  909SOL    HW2 2727   2.550   0.811   1.549 -0.7897 -0.1561  2.0186
  910SOL     OW 2728   1.257   2.820   2.254  0.2452 -0.2991  0.1388
  910SOL    HW1 2729   1.185   2.847   2.324  1.1144 -2.4455 -2.5653
  910SOL    HW2 2730   1.265   2.899   2.189 -0.3891 -1.7818 -0.7507
  911SOL     OW 2731   2.042   0.609   1.895  0.5023  0.2056  0.3922
  911SOL    HW1 2732   2.052   0.508   1.908  0.2007 -1.0259  1.1697
  911SOL    HW2 2733   2.078   0.645   1.805 -2.0700 -0.3879  0.2995
  912SOL     OW 2734   2.477   1.931   1.507 -0.1989 -0.0450 -0.1132
  912SOL    HW1 2735   2.547   1.995   1.457  2.5844  2.8057 -2.1577
  912SOL    HW2 2736   2.458   1.968   1.598  3.8835 -0.9697 -2.9527
  913SOL     OW 2737   2.644   2.066   1.359  0.6155 -0.6556  0.2331
  913SOL    HW1 2738   2.637   2.169   1.370 -2.6952  1.9420  1.3876
  913SOL    HW2 2739   2.742   2.047   1.337  0.2972  2.8317 -3.2074
  914SOL     OW 2740   2.060   1.577   1.402  0.2143 -0.2366 -0.2312
  914SOL    HW1 2741   2.120   1.588   1.487  0.5854  2.3776  1.1731
  914SOL    HW2 2742   2.112   1.604   1.318  1.3596  0.0948  1.2429
  915SOL     OW 2743   1.028   1.274   1.415  0.0894  0.2470 -0.3553
  915SOL    HW1 2744   0.945   1.206   1.434 -1.2946 -2.1116 -0.7822
  915SOL    HW2 2745   0.999   1.353   1.360  0.7522 -1.4043 -0.0748
  916SOL     OW 2746   2.366   2.440   1.354 -0.5783 -0.3054 -0.8360
  916SOL    HW1 2747   2.443   2.373   1.352 -1.7798 -0.2859  1.2408
  916SOL    HW2 2748   2.406   2.531   1.380  0.3315  2.9557 -3.0790
  917SOL     OW 2749   2.357   1.787   2.913  0.1070  0.0682  0.0659
  917SOL    HW1 2750   2.385   1.798   3.010 -1.8048  0.8766  1.8703
  917SOL    HW2 2751   2.435   1.753   2.854  0.7879  0.4135 -1.7119
  918SOL     OW 2752   1.851   2.387   2.510 -0.5680 -0.2908  0.4059
  918SOL    HW1 2753   1.850   2.284   2.504  1.3994  0.7021  1.9297
  918SOL    HW2 2754   1.941   2.414   2.560 -0.1339  1.0868  2.8479
  919SOL     OW 2755   1.318   2.092   1.687 -0.7318 -0.0156  0.3518
  919SOL    HW1 2756   1.413   2.070   1.726  0.0158 -1.5521  1.4772
  919SOL    HW2 2757   1.322   2.156   1.607  1.2368 -1.0494  0.3627
  920SOL     OW 2758   2.921   0.231   2.621 -0.4410 -0.2163 -0.4193
  920SOL    HW1 2759   2.990   0.227   2.695 -1.7596  0.6665  0.7495
  920SOL    HW2 2760   2.889   0.327   2.599 -1.1098 -0.0504  0.3140
  921SOL     OW 2761   2.775   0.345   2.064 -0.7481 -0.4602 -0.0013
  921SOL    HW1 2762   2.758   0.247   2.036 -2.1975 -2.2046  1.0218
  921SOL    HW2 2763   2.857   0.382   2.008 -1.8380 -0.6401  1.3401
  922SOL     OW 2764   1.917   2.246   0.361  0.0597  0.4316  0.0101
  922SOL    HW1 2765   1.883   2.260   0.262 -1.2274  1.7231 -3.4640
  922SOL    HW2 2766   1.909   2.146   0.386 -0.4791 -0.6085 -0.0330
  923SOL     OW 2767   0.344   2.018   0.277  0.2386  0.3256 -0.1990
  923SOL    HW1 2768   0.276   1.976   0.208  1.8598  1.1756 -0.7439
  923SOL    HW2 2769   0.305   2.105   0.321 -3.3009  0.7088  2.2018
  924SOL     OW 2770   0.848   0.417   2.882  0.1796 -0.1375  0.4315
  924SOL    HW1 2771   0.874   0.332   2.933  0.5953  0.0223 -3.9030
  924SOL    HW2 2772   0.812   0.483   2.947 -0.7177 -0.5107 -4.5873
  925SOL     OW 2773   2.421   1.121   0.954 -0.2316 -0.0093 -0.3808
  925SOL    HW1 2774   2.367   1.205   0.937 -0.2378 -0.2094 -0.7360
  925SOL    HW2 2775   2.521   1.141   0.935  1.4115  0.2943  1.3213
  926SOL     OW 2776   2.930   0.989   0.914 -0.0442  0.2870  1.0704
  926SOL    HW1 2777   2.885   0.919   0.972 -0.7502 -0.4550  1.1710
  926SOL    HW2 2778   2.982   1.058   0.965 -0.5642  2.2437  0.9558
  927SOL     OW 2779   0.147   1.204   0.124 -0.0775  0.3306  0.4088
  927SOL    HW1 2780   0.232   1.146   0.111  0.4500 -0.8291 -0.5833
  927SOL    HW2 2781   0.121   1.242   0.038  3.0374 -0.3236  1.9701
  928SOL     OW 2782   0.163   0.415   2.304  0.0324 -0.3675  0.3965
  928SOL    HW1 2783   0.234   0.452   2.244 -1.9356  1.4857 -1.3107
  928SOL    HW2 2784   0.163   0.469   2.390 -1.0304 -0.2036 -1.6905
  929SOL     OW 2785   2.928   2.868   1.159 -0.2048 -0.8055  0.1802
  929SOL    HW1 2786   2.882   2.913   1.239  1.2996 -0.9770 -1.3271
  929SOL    HW2 2787   2.937   2.934   1.077 -1.0002 -0.3481 -0.7801
  930SOL     OW 2788   1.825   1.671   1.526 -0.1070  0.3803  0.2201
  930SOL    HW1 2789   1.903   1.642   1.468 -1.4626  0.3601  0.1408
  930SOL    HW2 2790   1.857   1.728   1.602 -0.2116 -1.8074  0.7692
  931SOL     OW 2791   1.329   1.531   0.856  0.6057  0.5082 -0.4057
  931SOL    HW1 2792   1.371   1.580   0.934 -0.0704 -1.6392  1.1262
  931SOL    HW2 2793   1.330   1.577   0.770 -1.8720 -1.3669  1.5576
  932SOL     OW 2794   2.689   1.197   1.130 -0.4209 -0.0786 -0.3635
  932SOL    HW1 2795   2.670   1.111   1.184 -1.2335 -0.7144 -0.9322
  932SOL    HW2 2796   2.605   1.252   1.108 -0.8175  1.8221 -0.0151
  933SOL     OW 2797   2.391   1.663   1.432 -0.6789 -0.0353  0.3811
  933SOL    HW1 2798   2.329   1.628   1.502  1.2690 -0.9869  0.2351
  933SOL    HW2 2799   2.428   1.753   1.454 -0.6878 -0.9168 -1.0959
  934SOL     OW 2800   1.636   2.939   1.295 -0.4421 -0.4533 -0.2945
  934SOL    HW1 2801   1.673   3.011   1.358 -1.3835  0.1779 -0.9093
  934SOL    HW2 2802   1.713   2.881   1.270 -2.5212 -0.9405 -0.1150
  935SOL     OW 2803   0.444   1.408   0.781  0.1332  0.8700  0.6441
  935SOL    HW1 2804   0.447   1.484   0.847 -2.1722 -3.1500  1.0019
  935SOL    HW2 2805   0.374   1.415   0.707  2.1195 -0.9394 -0.1822
  936SOL     OW 2806   3.033   1.214   0.515  0.4712  0.5453  0.4388
  936SOL    HW1 2807   2.936   1.187   0.501  0.6710  0.7172 -2.1852
  936SOL    HW2 2808   3.051   1.237   0.618 -2.6997 -1.0793  2.2535
  937SOL     OW 2809   1.778   2.812   0.918  0.0717 -0.0686  0.5179
  937SOL    HW1 2810   1.679   2.787   0.917 -0.5392  0.0455  2.0059
  937SOL    HW2 2811   1.834   2.810   0.832  2.0359 -2.0081 -1.1542
  938SOL     OW 2812   2.503   2.528   0.866  0.0852  0.2615  0.7847
  938SOL    HW1 2813   2.472   2.617   0.825  1.3015 -1.0584 -2.3781
  938SOL    HW2 2814   2.425   2.474   0.902  0.3299  1.2662  1.3530
  939SOL     OW 2815   0.544   2.094   0.016  0.1924  0.5094  0.0798
  939SOL    HW1 2816   0.615   2.127   0.077 -0.2589  1.4065  1.1041
  939SOL    HW2 2817   0.539   1.997   0.027  3.0093  1.7109  0.1430
  940SOL     OW 2818   2.922   3.078   2.955 -0.2928  0.2078 -0.0204
  940SOL    HW1 2819   2.981   0.027   3.030 -0.9099 -0.1909 -0.4889
  940SOL    HW2 2820   2.982   3.059   2.875 -0.4269 -0.2653 -0.8684
  941SOL     OW 2821   1.205   0.086   2.894 -0.1510  0.7949  1.0272
  941SOL    HW1 2822   1.205   3.066   2.923  2.2049  1.0739 -0.0466
  941SOL    HW2 2823   1.165   0.100   2.801 -2.0132  0.3246 -0.0182
  942SOL     OW 2824   1.053   1.698   1.544  0.0441  0.2976  0.4859
  942SOL    HW1 2825   1.064   1.606   1.578 -1.2145 -0.9945 -2.0141
  942SOL    HW2 2826   0.973   1.732   1.597  0.4780  1.7855 -0.5949
  943SOL     OW 2827   2.113   1.287   1.522  0.4444  0.3895  0.2113
  943SOL    HW1 2828   2.049   1.225   1.572  0.5411  1.9887  0.2634
  943SOL    HW2 2829   2.063   1.347   1.455 -0.5581  0.1039 -0.6778
  944SOL     OW 2830   1.866   0.766   1.610  0.0434  0.3291  0.0882
  944SOL    HW1 2831   1.814   0.699   1.553  0.9694  0.1360  1.9280
  944SOL    HW2 2832   1.969   0.745   1.613  0.7511 -2.6529  0.3775
  945SOL     OW 2833   0.194   3.010   0.901 -0.1713 -0.0105 -0.2733
  945SOL    HW1 2834   0.116   2.943   0.895 -1.1525  0.7884 -2.3765
  945SOL    HW2 2835   0.165   0.026   0.921 -2.2384 -0.9504 -0.7396
  946SOL     OW 2836   0.478   0.810   1.499 -0.0020 -0.3611  0.3413
  946SOL    HW1 2837   0.420   0.745   1.448  2.1848 -0.2867  1.9791
  946SOL    HW2 2838   0.486   0.893   1.440 -0.7452  1.2490  0.4006
  947SOL     OW 2839   0.487   2.715   0.585 -0.1004 -0.0608 -0.1042
  947SOL    HW1 2840   0.402   2.758   0.548 -1.1101  1.2913 -2.3885
  947SOL    HW2 2841   0.481   2.684   0.681  0.0680  0.2047 -3.4969
  948SOL     OW 2842   2.603   1.334   2.056  0.1626  0.1276 -0.0074
  948SOL    HW1 2843   2.563   1.248   2.089 -0.1132 -0.2542 -1.9585
  948SOL    HW2 2844   2.651   1.319   1.967  1.2447 -1.0809  0.7907
  949SOL     OW 2845   0.446   1.197   2.343 -0.3643 -0.1883  0.0249
  949SOL    HW1 2846   0.441   1.191   2.243  0.1327 -0.5152  0.0555
  949SOL    HW2 2847   0.379   1.257   2.383  1.3400  1.3832  0.0866
  950SOL     OW 2848   0.961   0.560   0.782 -0.3405  0.7072  0.4346
  950SOL    HW1 2849   0.905   0.622   0.838 -0.5066 -0.3025 -0.8323
  950SOL    HW2 2850   1.059   0.562   0.799 -0.6418 -2.6291 -0.4076
  951SOL     OW 2851   0.897   2.064   1.920 -0.2292 -0.0423  0.5329
  951SOL    HW1 2852   0.892   2.167   1.926  0.9096 -0.3034  0.7282
  951SOL    HW2 2853   0.957   2.036   1.993  0.3613 -2.3891  0.2050
  952SOL     OW 2854   0.485   1.829   0.053 -0.2344 -0.2083 -0.0706
  952SOL    HW1 2855   0.553   1.838   0.127  0.8953 -1.7770 -1.2398
  952SOL    HW2 2856   0.430   1.748   0.072  1.8127  0.3503  0.1755
  953SOL     OW 2857   1.976   2.974   2.362 -0.4303 -0.0978 -1.0592
  953SOL    HW1 2858   2.076   2.969   2.350 -2.2949 -1.5570  0.1833
  953SOL    HW2 2859   1.922   3.014   2.288  1.2723 -0.8608  0.2306
  954SOL     OW 2860   1.479   1.278   0.915  0.1059  0.1966  0.2259
  954SOL    HW1 2861   1.568   1.262   0.863 -0.3577 -2.5380 -0.2586
  954SOL    HW2 2862   1.426   1.360   0.889 -0.6565  1.7092  1.1421
  955SOL     OW 2863   0.441   2.088   2.249  0.4120 -0.5008  0.0956
  955SOL    HW1 2864   0.417   1.991   2.249 -1.7588 -0.4023  1.3576
  955SOL    HW2 2865   0.362   2.143   2.288  0.4532 -0.5139  0.0887
  956SOL     OW 2866   1.732   0.582   1.461  0.0169  0.1025  0.3151
  956SOL    HW1 2867   1.633   0.597   1.443  0.7888  0.4023  0.4446
  956SOL    HW2 2868   1.754   0.485   1.489  1.8187  0.6573  0.6736
  957SOL     OW 2869   2.068   1.997   2.652 -0.2686  0.0682  0.0488
  957SOL    HW1 2870   1.999   2.021   2.579 -0.2694  3.3713  0.4947
  957SOL    HW2 2871   2.030   2.027   2.742  1.6666 -0.0123  1.9246
  958SOL     OW 2872   1.001   2.297   0.877  0.6361  0.4313 -0.0328
  958SOL    HW1 2873   0.912   2.319   0.849  3.2571 -0.7882  2.1776
  958SOL    HW2 2874   1.027   2.343   0.964 -1.0755 -1.1410  0.5526
  959SOL     OW 2875   1.781   2.162   2.684 -0.5725 -0.3343  0.1818
  959SOL    HW1 2876   1.705   2.099   2.720  1.4874  3.1474 -0.9764
  959SOL    HW2 2877   1.799   2.139   2.585  0.6180  0.6009 -1.0147
  960SOL     OW 2878   0.117   0.288   2.730 -0.1549 -0.3488  0.7973
  960SOL    HW1 2879   0.155   0.196   2.733  2.0339  0.1812  2.2181
  960SOL    HW2 2880   0.180   0.347   2.784  1.7923 -1.7072 -3.4145
  961SOL     OW 2881   0.983   1.157   2.232 -0.3221  0.1169  0.2116
  961SOL    HW1 2882   1.050   1.228   2.251 -1.2910  0.9745 -1.8926
  961SOL    HW2 2883   0.977   1.087   2.310 -0.2615 -1.3836 -0.4139
  962SOL     OW 2884   1.111   1.260   2.966 -0.0044 -0.2655  0.4394
  962SOL    HW1 2885   1.206   1.287   2.995  3.5597 -0.5111 -1.7416
  962SOL    HW2 2886   1.044   1.269   3.043 -0.0923 -0.8237 -1.0624
  963SOL     OW 2887   2.125   1.632   2.955  0.3320 -0.2188  0.3278
  963SOL    HW1 2888   2.035   1.675   2.939 -0.3288  0.5884 -2.4190
  963SOL    HW2 2889   2.199   1.699   2.971  0.3707 -2.3843  1.1419
  964SOL     OW 2890   1.515   2.754   0.922  0.4945 -0.5104  0.1697
  964SOL    HW1 2891   1.465   2.718   0.839 -0.3339 -1.3053 -3.5440
  964SOL    HW2 2892   1.487   2.698   1.007  1.0260 -3.3766  0.5654
  965SOL     OW 2893   0.779   1.957   1.072 -0.3603 -0.6201 -0.1462
  965SOL    HW1 2894   0.772   1.911   1.165 -3.0728  2.1713 -0.2634
  965SOL    HW2 2895   0.873   1.950   1.032  3.0726  0.1719 -0.6291
  966SOL     OW 2896   0.012   1.540   3.058 -0.4379  0.2533 -0.4453
  966SOL    HW1 2897   3.067   1.639   3.043  0.7021 -0.5245 -1.3126
  966SOL    HW2 2898   3.019   1.492   0.037 -2.0379 -1.7289 -0.8425
  967SOL     OW 2899   1.568   0.083   1.872 -0.1640  0.0474  0.6411
  967SOL    HW1 2900   1.527   3.072   1.899 -1.2942 -1.8564 -1.3740
  967SOL    HW2 2901   1.638   0.064   1.801  3.4015  0.2823  0.7163
  968SOL     OW 2902   1.845   0.906   0.696 -0.3172  0.3751 -0.0876
  968SOL    HW1 2903   1.796   0.916   0.789 -0.2320  0.5145  2.1456
  968SOL    HW2 2904   1.919   0.973   0.690  0.1986 -2.5664  2.2856
  969SOL     OW 2905   3.027   1.382   1.877  0.0165 -0.5689  0.3113
  969SOL    HW1 2906   2.936   1.337   1.873  0.2247 -0.2802  1.7333
  969SOL    HW2 2907   0.022   1.335   1.817  1.8340  0.5629  1.9154
  970SOL     OW 2908   2.471   1.380   1.108  0.3638  0.0300  0.1863
  970SOL    HW1 2909   2.372   1.352   1.124 -3.7269 -0.1093 -1.3409
  970SOL    HW2 2910   2.469   1.459   1.048 -0.0953 -0.3148  0.2324
  971SOL     OW 2911   0.511   0.324   1.367  0.2253  0.4103  0.7793
  971SOL    HW1 2912   0.528   0.379   1.451 -2.9621  0.8150 -1.8950
  971SOL    HW2 2913   0.482   0.226   1.392  0.4634 -2.9176  1.6067
  972SOL     OW 2914   0.776   0.647   2.578 -0.3816 -0.0556 -0.4202
  972SOL    HW1 2915   0.801   0.716   2.652  0.0943  3.4653 -1.6759
  972SOL    HW2 2916   0.683   0.607   2.586  0.5096  0.7012  1.0622
  973SOL     OW 2917   0.052   1.143   1.053 -0.5934  0.1452  0.5440
  973SOL    HW1 2918   0.049   1.155   1.157  0.1099  0.7956  0.1563
  973SOL    HW2 2919   0.130   1.075   1.028  2.2784 -1.7584  0.0397
  974SOL     OW 2920   2.091   1.092   1.798 -0.1261  0.0226  0.3070
  974SOL    HW1 2921   2.036   1.063   1.714  0.7504  0.3205 -0.9129
  974SOL    HW2 2922   2.176   1.036   1.802  0.2575  1.2973  0.5870
  975SOL     OW 2923   2.532   0.134   0.253 -0.0006  0.1749 -0.7241
  975SOL    HW1 2924   2.556   0.092   0.159  2.6433 -2.8396 -1.7035
  975SOL    HW2 2925   2.615   0.163   0.310 -1.3134 -0.6028  1.2566
  976SOL     OW 2926   2.772   1.283   1.824  0.0740 -0.4025  0.2632
  976SOL    HW1 2927   2.793   1.330   1.737  0.9283 -0.7966  0.9027
  976SOL    HW2 2928   2.795   1.184   1.815 -1.1416 -2.0035  1.8622
  977SOL     OW 2929   0.721   2.808   3.051  0.1080 -0.4531 -0.2353
  977SOL    HW1 2930   0.743   2.909   3.053 -0.8135  1.4499 -1.2046
  977SOL    HW2 2931   0.711   2.769   0.066 -1.1931 -0.2340  0.8610
  978SOL     OW 2932   0.468   1.593   0.283 -0.5122 -0.3655 -0.3106
  978SOL    HW1 2933   0.459   1.492   0.255  0.1621 -0.2084  2.1302
  978SOL    HW2 2934   0.566   1.616   0.309  1.0917  0.2887 -1.8527
  979SOL     OW 2935   1.442   1.725   1.421  0.4509 -0.4270 -0.5513
  979SOL    HW1 2936   1.518   1.785   1.463  4.1399 -0.9676  1.1937
  979SOL    HW2 2937   1.408   1.656   1.486  0.9556  1.3882 -1.3344
  980SOL     OW 2938   0.415   1.454   2.029  0.3768 -0.1400  0.1920
  980SOL    HW1 2939   0.492   1.524   2.047  1.7477  1.1908 -0.1350
  980SOL    HW2 2940   0.369   1.483   1.942 -0.4443 -0.4980  0.4185
  981SOL     OW 2941   2.907   1.438   0.146  0.3242  0.2257  0.1348
  981SOL    HW1 2942   2.828   1.478   0.199 -2.7015  1.0048 -1.0815
  981SOL    HW2 2943   2.977   1.397   0.214  0.9739 -2.5982  0.6239
  982SOL     OW 2944   2.458   2.475   2.602 -0.4740 -0.4778 -0.3778
  982SOL    HW1 2945   2.413   2.534   2.531  0.0677 -2.5240 -0.0569
  982SOL    HW2 2946   2.516   2.533   2.665  3.6301 -0.0944 -0.3634
  983SOL     OW 2947   1.341   0.348   1.632  0.1377 -0.1418  0.1712
  983SOL    HW1 2948   1.387   0.347   1.540  0.6138 -1.8251  2.5708
  983SOL    HW2 2949   1.398   0.407   1.692  1.0519  2.6958 -2.6129
  984SOL     OW 2950   1.082   0.092   2.408  0.3594  0.2007  0.3409
  984SOL    HW1 2951   1.164   0.106   2.344 -1.0594 -0.7676  0.7009
  984SOL    HW2 2952   1.093   0.145   2.495  0.1857 -0.7564 -0.7473
  985SOL     OW 2953   1.655   2.232   1.716  0.2611 -0.1467 -0.2260
  985SOL    HW1 2954   1.640   2.307   1.784 -2.0526  0.8912 -0.5614
  985SOL    HW2 2955   1.646   2.139   1.759  0.4611 -0.2644  1.8123
  986SOL     OW 2956   2.249   3.003   2.366 -0.4467  1.1213  0.2099
  986SOL    HW1 2957   2.300   2.999   2.279 -0.8788  2.7826 -1.0096
  986SOL    HW2 2958   2.222   0.018   2.387  2.2191 -1.2797  1.7664
  987SOL     OW 2959   2.524   0.411   2.072  0.1775  0.0400 -0.3927
  987SOL    HW1 2960   2.617   0.367   2.072  0.8529 -1.8184 -0.9847
  987SOL    HW2 2961   2.519   0.474   2.153 -1.2928 -1.2541  0.5576
  988SOL     OW 2962   2.539   0.530   2.524 -0.5209  0.5884  0.2145
  988SOL    HW1 2963   2.561   0.618   2.567  3.4909 -1.2375 -1.1712
  988SOL    HW2 2964   2.504   0.556   2.431 -0.9566 -1.4941 -0.3956
  989SOL     OW 2965   2.340   2.289   2.233 -0.4051  0.2491  0.6606
  989SOL    HW1 2966   2.331   2.235   2.147  0.3838  0.6352 -2.6623
  989SOL    HW2 2967   2.395   2.237   2.301 -1.0401 -0.0500 -1.8145
  990SOL     OW 2968   0.282   1.294   2.782 -0.1918 -0.1328  0.1173
  990SOL    HW1 2969   0.211   1.302   2.853  3.8162 -3.5727  0.1296
  990SOL    HW2 2970   0.279   1.368   2.708  0.8167 -0.4186 -1.9663
  991SOL     OW 2971   0.802   1.108   2.612  0.3418  0.1162  0.1176
  991SOL    HW1 2972   0.853   1.061   2.538  1.6309 -3.1221  0.7765
  991SOL    HW2 2973   0.700   1.088   2.617 -1.8726 -3.1569  0.1828
  992SOL     OW 2974   2.864   2.267   1.860  0.4075 -0.0840 -0.1122
  992SOL    HW1 2975   2.938   2.336   1.872 -0.3188 -2.9823 -0.7358
  992SOL    HW2 2976   2.890   2.195   1.795 -1.3518  1.5359 -0.2571
  993SOL     OW 2977   0.669   0.132   1.015  0.4057 -0.3857 -0.6313
  993SOL    HW1 2978   0.624   0.040   1.028 -0.5267  0.5816 -0.0007
  993SOL    HW2 2979   0.732   0.126   0.938 -0.0467  1.1566  0.2792
  994SOL     OW 2980   0.285   1.831   1.276 -0.2210  0.1591 -0.0328
  994SOL    HW1 2981   0.248   1.757   1.212  0.4964  0.2061  1.3370
  994SOL    HW2 2982   0.258   1.925   1.244 -1.1921 -0.0533 -1.7992
  995SOL     OW 2983   2.189   1.530   2.414  0.6853  0.9568 -0.0902
  995SOL    HW1 2984   2.244   1.556   2.493 -2.5575 -2.5357 -1.5055
  995SOL    HW2 2985   2.249   1.546   2.335  0.5990  0.7000  0.8977
  996SOL     OW 2986   2.063   1.296   2.681  0.2356 -0.0668 -0.1802
  996SOL    HW1 2987   2.060   1.398   2.701 -1.4919  0.4097 -1.9177
  996SOL    HW2 2988   1.977   1.252   2.668  2.1847 -0.2895  0.5550
  997SOL     OW 2989   1.685   0.969   1.973  0.0220  0.2097 -0.6118
  997SOL    HW1 2990   1.648   0.945   1.881 -2.5909 -0.9187  0.3937
  997SOL    HW2 2991   1.712   1.065   1.984 -2.0219 -1.2288  0.7004
  998SOL     OW 2992   2.485   2.223   0.792 -0.3421  0.4629  0.3574
  998SOL    HW1 2993   2.515   2.299   0.735 -0.2173  1.9905 -0.4895
  998SOL    HW2 2994   2.558   2.151   0.791  1.1863  0.7935 -1.7226
  999SOL     OW 2995   2.320   2.264   0.231 -0.0332  0.2150 -0.3478
  999SOL    HW1 2996   2.284   2.275   0.325  1.2383  0.0337 -1.1986
  999SOL    HW2 2997   2.279   2.321   0.156  2.2629 -1.3421 -1.1445
 1000SOL     OW 2998   1.072   2.910   2.436 -0.2192 -0.0216  0.3796
 1000SOL    HW1 2999   1.071   3.011   2.423 -1.3476  2.1932  0.5179
 1000SOL    HW2 3000   1.091   2.885   2.533 -0.6015 -0.3012 -1.0900
   3.07816   3.07816   3.07816
