1000 SPC/Fw water molecules t= 317.00000 step= 317000
 3000
    1SOL     OW    1   2.552   3.081   0.874  0.4070  0.0737 -0.2157
    1SOL    HW1    2   2.503   2.996   0.852 -0.4590  0.6132 -0.7009
    1SOL    HW2    3   2.646   3.057   0.901 -2.4641  1.1232 -1.3272
    2SOL     OW    4   2.980   2.251   0.898  0.1874  0.0627 -0.0475
    2SOL    HW1    5   2.889   2.276   0.923  1.4833  2.5965  1.3256
    2SOL    HW2    6   3.037   2.241   0.985 -1.1933  1.6718 -0.2818
    3SOL     OW    7   0.680   2.871   2.845  0.1019  0.9758 -0.1577
    3SOL    HW1    8   0.655   2.790   2.897  1.2837  1.7748  0.8910
    3SOL    HW2    9   0.666   2.954   2.901  1.6779 -1.0401 -1.1511
    4SOL     OW   10   2.201   2.442   2.055 -0.0102  0.3009 -0.0415
    4SOL    HW1   11   2.145   2.372   2.002  1.8908 -2.7448 -1.7252
    4SOL    HW2   12   2.295   2.410   2.084  0.5815 -0.0789  1.4893
    5SOL     OW   13   1.903   0.870   1.457 -0.1802 -0.4878  0.0427
    5SOL    HW1   14   1.936   0.906   1.367  1.2225 -2.1387 -0.0606
    5SOL    HW2   15   1.823   0.803   1.442 -4.3966  0.0089 -2.2190
    6SOL     OW   16   1.942   2.778   0.461  0.3712  0.4124 -0.0427
    6SOL    HW1   17   1.914   2.862   0.507  0.6420 -2.8815 -2.3343
    6SOL    HW2   18   1.876   2.741   0.392 -0.8476 -1.4094  2.2944
    7SOL     OW   19   2.551   1.374   1.135  0.1061 -0.2238  0.2329
    7SOL    HW1   20   2.648   1.403   1.104  3.1791 -1.4642 -0.4634
    7SOL    HW2   21   2.514   1.426   1.214 -0.1045 -0.3470  1.2519
    8SOL     OW   22   1.415   2.154   1.193 -0.1544 -0.1238  0.5159
    8SOL    HW1   23   1.468   2.144   1.105  3.7796 -1.6981 -1.4538
    8SOL    HW2   24   1.446   2.235   1.244  1.7073  0.1783  0.4493
    9SOL     OW   25   1.435   2.681   2.322  0.3403  0.1736  0.3026
    9SOL    HW1   26   1.350   2.672   2.373 -0.8330  2.8938 -2.5786
    9SOL    HW2   27   1.410   2.659   2.220 -2.7834 -0.1990 -0.1422
   10SOL     OW   28   0.496   1.670   1.264  0.1579 -0.2193 -0.2324
   10SOL    HW1   29   0.555   1.601   1.214  0.5055 -0.8588  1.9930
   10SOL    HW2   30   0.523   1.763   1.256  0.3568  0.6837 -1.1659
   11SOL     OW   31   1.826   1.623   1.245  0.4973  0.7595 -1.0193
   11SOL    HW1   32   1.921   1.623   1.220 -2.3715 -0.8639  2.5331
   11SOL    HW2   33   1.800   1.698   1.303  0.5044 -0.5861 -0.4112
   12SOL     OW   34   2.771   2.524   1.873  0.3363 -0.0680  0.2951
   12SOL    HW1   35   2.748   2.478   1.961  2.1140  0.0889 -0.2349
   12SOL    HW2   36   2.809   2.618   1.893 -1.1779  1.1412  0.6889
   13SOL     OW   37   2.340   3.051   0.431 -0.3173 -0.3947 -0.1370
   13SOL    HW1   38   2.366   2.953   0.438  1.5172 -0.6392  0.8343
   13SOL    HW2   39   2.428   0.021   0.435  2.2670  1.6115  2.4042
   14SOL     OW   40   1.491   2.081   0.252 -0.1931  0.1061  0.2496
   14SOL    HW1   41   1.451   2.034   0.333 -2.4002  1.0762 -2.0500
   14SOL    HW2   42   1.594   2.090   0.261  2.7361  0.4455 -0.1954
   15SOL     OW   43   3.010   2.267   1.962  0.1926 -0.1187  0.1084
   15SOL    HW1   44   2.920   2.232   1.994 -1.3669  2.7741  1.5787
   15SOL    HW2   45   3.020   2.363   1.988 -0.0725  0.7410  0.1306
   16SOL     OW   46   2.207   2.679   0.397 -0.0391 -0.2404  0.4299
   16SOL    HW1   47   2.115   2.708   0.426  0.8201  2.5486 -0.4095
   16SOL    HW2   48   2.274   2.735   0.445 -0.4287 -0.4414  0.2472
   17SOL     OW   49   0.395   0.170   1.108 -0.0401  0.7437 -0.2619
   17SOL    HW1   50   0.422   0.250   1.162 -1.3048  0.5220 -1.1349
   17SOL    HW2   51   0.467   0.099   1.109 -0.2794 -1.2835 -2.5619
   18SOL     OW   52   2.182   0.850   0.288 -0.1163 -0.1281 -0.4915
   18SOL    HW1   53   2.164   0.846   0.186  2.6811  1.1836 -0.2348
   18SOL    HW2   54   2.269   0.903   0.304  0.6600  1.7601  0.0980
   19SOL     OW   55   1.733   1.837   0.615 -0.2847 -0.0596 -0.6621
   19SOL    HW1   56   1.790   1.759   0.641 -0.0420 -0.5065 -2.5733
   19SOL    HW2   57   1.746   1.867   0.518 -1.5618 -0.2952 -1.4046
   20SOL     OW   58   2.240   2.021   2.133  0.1944 -0.2731 -0.2800
   20SOL    HW1   59   2.185   2.042   2.216 -1.5722  2.9122  1.4854
   20SOL    HW2   60   2.239   2.100   2.072 -3.1218 -0.7530 -1.3781
   21SOL     OW   61   1.929   0.350   0.817  0.3876 -0.2047  0.4412
   21SOL    HW1   62   1.867   0.400   0.750 -1.0138 -2.4844 -2.6248
   21SOL    HW2   63   1.876   0.269   0.847  0.1793  2.7469 -2.3117
   22SOL     OW   64   2.492   0.149   1.557  0.6172  0.0985  0.4087
   22SOL    HW1   65   2.467   0.172   1.461  0.6979 -0.4715 -0.2940
   22SOL    HW2   66   2.414   0.098   1.601  0.4886  2.4579 -0.8304
   23SOL     OW   67   3.040   0.469   1.951  0.6401  0.1036  0.9458
   23SOL    HW1   68   2.985   0.386   1.923 -3.1469 -0.5080  1.2132
   23SOL    HW2   69   3.027   0.548   1.885 -2.0892 -0.6961  1.0393
   24SOL     OW   70   2.518   2.707   0.292  1.3723  0.4567 -0.6522
   24SOL    HW1   71   2.455   2.716   0.369  0.1197 -1.0464  1.3615
   24SOL    HW2   72   2.617   2.714   0.311 -2.8802 -1.1347  1.5714
   25SOL     OW   73   1.412   0.007   2.493 -0.3996 -0.1371 -0.1967
   25SOL    HW1   74   1.461   3.004   2.498 -0.9032 -1.0077  1.3422
   25SOL    HW2   75   1.372   0.013   2.401 -3.2826 -1.1923  0.6271
   26SOL     OW   76   1.364   2.345   0.272  0.0627 -0.1311  0.4198
   26SOL    HW1   77   1.419   2.268   0.235 -1.6322  2.4164  0.4602
   26SOL    HW2   78   1.331   2.406   0.202  2.3929 -1.7957  1.9010
   27SOL     OW   79   2.347   1.342   2.907  0.0786  0.0167  0.0626
   27SOL    HW1   80   2.294   1.427   2.918 -1.4789 -0.5576  0.8131
   27SOL    HW2   81   2.430   1.354   2.845  1.8487  0.4378 -2.2224
   28SOL     OW   82   1.136   1.362   1.452  0.2871  0.2685 -0.2401
   28SOL    HW1   83   1.061   1.305   1.410 -0.3731  0.5617 -1.5298
   28SOL    HW2   84   1.100   1.450   1.485 -2.1790 -0.3425 -0.5849
   29SOL     OW   85   2.872   2.435   1.647 -0.0298  0.2795 -0.2142
   29SOL    HW1   86   2.884   2.520   1.585  0.4965  0.4395 -1.1765
   29SOL    HW2   87   2.837   2.465   1.738 -0.3260 -0.6472 -0.0899
   30SOL     OW   88   1.079   0.397   1.092  0.6027  0.1912  0.1402
   30SOL    HW1   89   1.048   0.435   1.003 -0.3759  1.8907  3.1749
   30SOL    HW2   90   1.178   0.378   1.099 -0.8395  0.7638  1.9132
   31SOL     OW   91   2.217   2.821   1.984 -0.2551 -0.0176  0.0025
   31SOL    HW1   92   2.189   2.741   2.040  0.9428 -0.4977 -0.4304
   31SOL    HW2   93   2.244   2.793   1.888  2.5910  0.6580 -1.2699
   32SOL     OW   94   1.094   1.671   0.533  0.6053 -0.9975 -0.1672
   32SOL    HW1   95   1.069   1.677   0.632 -2.3544  0.3161  1.2930
   32SOL    HW2   96   1.072   1.584   0.486  0.1857  0.3087 -0.1073
   33SOL     OW   97   0.358   0.522   2.359 -0.4335 -0.0306  0.1292
   33SOL    HW1   98   0.378   0.601   2.421  1.9052  3.2315 -1.9472
   33SOL    HW2   99   0.378   0.529   2.259  0.3590  0.4740 -0.6873
   34SOL     OW  100   1.879   3.026   0.559 -0.3733  0.0503  0.4582
   34SOL    HW1  101   1.847   3.039   0.654  1.5241 -2.0755 -1.4619
   34SOL    HW2  102   1.974   3.073   0.544  0.8356  1.0051 -0.2277
   35SOL     OW  103   2.182   2.578   1.422  0.0198 -0.2966  0.8019
   35SOL    HW1  104   2.137   2.626   1.496  2.3000  0.9049 -4.9897
   35SOL    HW2  105   2.282   2.576   1.442  0.5828 -1.5949 -0.8310
   36SOL     OW  106   1.880   2.306   3.029 -0.1537  0.5860 -0.1973
   36SOL    HW1  107   1.947   2.244   3.072 -2.0058  4.5762  0.1169
   36SOL    HW2  108   1.903   2.333   2.935  0.9757 -1.8118  4.2408
   37SOL     OW  109   1.249   0.609   2.420  0.5289  0.1908  0.2790
   37SOL    HW1  110   1.153   0.634   2.398  0.5580  0.4175 -0.2498
   37SOL    HW2  111   1.255   0.512   2.452 -3.0261 -0.8300  4.5119
   38SOL     OW  112   0.443   0.258   2.681 -0.0819  0.1647  0.1370
   38SOL    HW1  113   0.513   0.315   2.731  1.9267  0.2189 -0.2040
   38SOL    HW2  114   0.482   0.212   2.599 -0.4273 -2.3448  0.8840
   39SOL     OW  115   2.626   1.234   1.704 -0.3324  0.2654 -0.0529
   39SOL    HW1  116   2.619   1.325   1.747  1.4325 -0.2942 -2.7139
   39SOL    HW2  117   2.692   1.167   1.743 -0.0462  2.3504 -0.9462
   40SOL     OW  118   1.235   2.890   0.245 -0.2113 -0.1081  0.4206
   40SOL    HW1  119   1.185   2.979   0.264 -1.9762  1.6841  0.4598
   40SOL    HW2  120   1.200   2.811   0.297  0.0402 -0.6133  2.3901
   41SOL     OW  121   2.521   1.491   0.865 -0.3460  0.0259  0.0085
   41SOL    HW1  122   2.536   1.471   0.967 -0.2156  0.2785  1.5992
   41SOL    HW2  123   2.489   1.588   0.856 -0.0625  0.1951  1.7597
   42SOL     OW  124   0.758   0.264   1.281 -0.0366 -0.0732 -0.3381
   42SOL    HW1  125   0.668   0.307   1.287 -1.4213 -1.8603 -2.0605
   42SOL    HW2  126   0.832   0.307   1.336  0.2875 -0.2381  0.8151
   43SOL     OW  127   0.070   2.134   2.614 -0.4598  0.2136  0.3375
   43SOL    HW1  128   0.070   2.129   2.716  0.6807 -1.9006  2.8308
   43SOL    HW2  129   0.167   2.111   2.586 -0.2191 -1.0278  0.8655
   44SOL     OW  130   2.300   0.020   1.689  0.7005 -0.5193  0.1945
   44SOL    HW1  131   2.302   3.034   1.620  0.9550  1.6262  1.3563
   44SOL    HW2  132   2.203   0.025   1.720 -1.1583 -1.5066 -2.2233
   45SOL     OW  133   1.198   0.147   2.194  0.1954  0.1735 -0.0949
   45SOL    HW1  134   1.203   0.153   2.090 -2.0623  1.3204  2.4114
   45SOL    HW2  135   1.139   0.066   2.217  0.0751 -0.4599  0.7398
   46SOL     OW  136   1.051   2.846   2.645  0.3832  0.2925  0.6251
   46SOL    HW1  137   0.972   2.783   2.628 -2.9208 -0.9753 -0.1514
   46SOL    HW2  138   1.089   2.827   2.739  2.7905 -1.4229 -3.5245
   47SOL     OW  139   1.903   1.652   0.727 -0.3995 -0.6355  0.1175
   47SOL    HW1  140   1.921   1.706   0.812  1.7707  0.5583  0.7460
   47SOL    HW2  141   1.937   1.553   0.739 -1.8570  0.4319  1.1714
   48SOL     OW  142   1.130   2.239   0.623  0.3654  0.2833 -0.1341
   48SOL    HW1  143   1.113   2.285   0.529  3.5203 -1.1527 -2.3413
   48SOL    HW2  144   1.119   2.137   0.608 -0.3135 -0.7789 -0.2771
   49SOL     OW  145   2.071   2.844   2.510 -0.6202 -0.3489 -0.3001
   49SOL    HW1  146   2.098   2.887   2.417  1.2173  0.2783 -0.2063
   49SOL    HW2  147   2.157   2.808   2.553  0.4488 -1.3549  1.7156
   50SOL     OW  148   1.642   2.933   0.166  0.4021  0.4054 -0.2860
   50SOL    HW1  149   1.725   2.969   0.212 -1.0237  0.8897 -1.0239
   50SOL    HW2  150   1.567   3.004   0.156 -0.1133 -1.2156  0.9667
   51SOL     OW  151   2.117   0.674   1.013  0.3501  0.5554 -0.2704
   51SOL    HW1  152   2.113   0.611   1.089 -0.0844 -0.9403 -1.3291
   51SOL    HW2  153   2.200   0.735   1.023 -1.9477  1.8072 -1.6174
   52SOL     OW  154   1.106   1.538   1.010 -0.3168 -0.0707 -1.0003
   52SOL    HW1  155   1.181   1.470   1.018 -3.0434 -1.2257  0.1394
   52SOL    HW2  156   1.092   1.568   1.106 -0.3518 -0.8613  0.3588
   53SOL     OW  157   0.506   1.671   2.604 -0.3437 -0.0698 -0.1242
   53SOL    HW1  158   0.437   1.660   2.682  0.0018 -0.3782  2.3631
   53SOL    HW2  159   0.597   1.656   2.640  0.6419  1.9114 -1.4370
   54SOL     OW  160   2.787   1.067   1.863 -0.1161 -0.4366  0.0367
   54SOL    HW1  161   2.840   1.018   1.789 -0.3459 -1.9908 -1.3057
   54SOL    HW2  162   2.768   0.989   1.926  0.8834  0.7056  0.7492
   55SOL     OW  163   2.629   1.840   0.580  0.5470 -0.2744  0.4734
   55SOL    HW1  164   2.673   1.859   0.488 -0.1765 -2.0047 -3.6570
   55SOL    HW2  165   2.662   1.902   0.653  1.0549 -2.7304  1.6254
   56SOL     OW  166   1.504   0.060   1.581  0.4761 -0.4975  0.3972
   56SOL    HW1  167   1.552   3.081   1.642  2.4811 -1.5417  1.4037
   56SOL    HW2  168   1.506   0.154   1.627 -2.9298 -1.0080  0.4821
   57SOL     OW  169   1.289   1.477   2.827 -0.2277  0.3276  0.5841
   57SOL    HW1  170   1.321   1.432   2.738  1.2876 -0.5857  1.2668
   57SOL    HW2  171   1.350   1.461   2.905 -1.2020 -0.6906 -3.1428
   58SOL     OW  172   0.042   0.943   1.859  0.0054 -0.1907  0.8362
   58SOL    HW1  173   0.139   0.974   1.859 -1.0036 -0.2167  1.2191
   58SOL    HW2  174   3.080   0.987   1.782  0.4891 -2.1179 -1.0094
   59SOL     OW  175   1.753   2.707   0.281  0.4415  0.0832  0.4951
   59SOL    HW1  176   1.762   2.625   0.214  0.3595 -3.8414 -1.6552
   59SOL    HW2  177   1.731   2.798   0.237 -1.3933  1.9342 -1.6449
   60SOL     OW  178   2.857   1.735   0.118  0.0885 -0.7007 -0.6091
   60SOL    HW1  179   2.926   1.775   0.178 -1.2764 -1.4855 -0.1190
   60SOL    HW2  180   2.860   1.779   0.026  1.8810 -4.8087  1.0229
   61SOL     OW  181   1.090   2.759   0.854 -0.3979  0.0825 -0.3624
   61SOL    HW1  182   1.067   2.825   0.934  1.6012 -0.9210  3.5690
   61SOL    HW2  183   1.000   2.724   0.817 -1.7505 -0.3416 -0.7180
   62SOL     OW  184   1.747   1.748   2.522 -0.3458 -0.3498  0.2487
   62SOL    HW1  185   1.810   1.668   2.524  1.3662 -0.6421 -2.2841
   62SOL    HW2  186   1.708   1.741   2.427  0.5214  2.1518  1.2443
   63SOL     OW  187   2.119   2.343   0.590 -0.0987 -0.2375 -0.5514
   63SOL    HW1  188   2.127   2.353   0.487  0.9422 -1.4893  0.6029
   63SOL    HW2  189   2.096   2.246   0.611  0.4092 -1.3295  1.7623
   64SOL     OW  190   1.591   0.924   2.689 -0.9247  0.5741 -0.1675
   64SOL    HW1  191   1.509   0.872   2.655  0.6612 -1.1383 -0.4961
   64SOL    HW2  192   1.658   0.858   2.730  1.3779  0.3514  0.6784
   65SOL     OW  193   1.900   1.538   2.420  0.0010  0.6498 -0.0092
   65SOL    HW1  194   1.917   1.443   2.385  0.2788  2.0024 -0.5774
   65SOL    HW2  195   1.969   1.601   2.378  1.0128  0.6382 -1.2132
   66SOL     OW  196   0.179   1.058   1.532 -0.5305 -0.2875  0.0377
   66SOL    HW1  197   0.122   1.135   1.498  3.1700  0.7331 -0.3593
   66SOL    HW2  198   0.235   1.018   1.457 -0.7141  0.5815  3.4060
   67SOL     OW  199   2.312   2.776   2.598 -0.4014  0.2822 -0.0722
   67SOL    HW1  200   2.320   2.740   2.694  0.3783 -1.3429 -2.3561
   67SOL    HW2  201   2.362   2.862   2.583 -3.9522 -1.3676 -0.4335
   68SOL     OW  202   1.312   2.576   1.205  0.2270 -0.3285  0.2865
   68SOL    HW1  203   1.296   2.673   1.235 -3.3168 -2.9012  2.2160
   68SOL    HW2  204   1.335   2.577   1.105  0.6305  1.8913  2.7172
   69SOL     OW  205   0.592   2.463   0.091  0.9138  0.0290 -0.2285
   69SOL    HW1  206   0.674   2.454   0.148 -0.6750 -1.3108 -0.8753
   69SOL    HW2  207   0.594   2.396   0.016 -1.0874 -1.3709 -1.8667
   70SOL     OW  208   2.855   0.342   2.356  0.7343  0.1016  0.0933
   70SOL    HW1  209   2.863   0.248   2.400 -0.0979 -0.0431  0.8002
   70SOL    HW2  210   2.940   0.383   2.326 -0.6012 -0.6513  3.3300
   71SOL     OW  211   0.273   1.313   2.506 -0.3133  0.6140 -0.4762
   71SOL    HW1  212   0.189   1.262   2.507  2.6144 -1.4127 -0.3664
   71SOL    HW2  213   0.338   1.274   2.575  0.9536 -0.5303 -0.8503
   72SOL     OW  214   0.098   2.112   2.878  0.5422 -0.0568  0.0383
   72SOL    HW1  215   0.011   2.156   2.908 -1.5747  0.7849  2.1821
   72SOL    HW2  216   0.170   2.161   2.927 -2.0969 -4.3593  0.3968
   73SOL     OW  217   1.477   1.215   0.119 -0.1392 -0.1516 -0.2980
   73SOL    HW1  218   1.506   1.259   0.208  1.3971 -1.2372 -0.0234
   73SOL    HW2  219   1.460   1.291   0.055 -1.4106  2.2017 -0.4576
   74SOL     OW  220   2.084   2.569   2.757  0.1730 -0.0114  0.3545
   74SOL    HW1  221   2.062   2.600   2.661 -3.5064  2.4823 -2.2729
   74SOL    HW2  222   2.145   2.637   2.799  0.8947  1.2817 -0.9688
   75SOL     OW  223   2.120   1.973   1.024 -0.7127 -0.5541 -0.2288
   75SOL    HW1  224   2.147   1.938   0.933  0.7686 -3.1174  2.0793
   75SOL    HW2  225   2.019   1.981   1.034 -1.9493  0.5542  1.8850
   76SOL     OW  226   2.469   2.605   1.859  0.1449  0.1678  0.0050
   76SOL    HW1  227   2.572   2.597   1.841  4.5003  0.0665 -1.1730
   76SOL    HW2  228   2.456   2.558   1.948 -0.6361  0.8936  2.2818
   77SOL     OW  229   2.581   0.056   2.152  0.9543  0.0474  0.3217
   77SOL    HW1  230   2.488   0.097   2.144 -2.3060 -1.2287 -1.6688
   77SOL    HW2  231   2.572   3.049   2.105 -3.6223 -1.2323 -3.1296
   78SOL     OW  232   1.839   0.944   3.046  0.1990 -0.0957  0.2153
   78SOL    HW1  233   1.840   0.841   3.060 -0.1244 -0.3220  1.4904
   78SOL    HW2  234   1.740   0.970   3.017 -1.3768  1.6157  0.3490
   79SOL     OW  235   2.574   1.500   2.499 -0.2204  0.6686  0.2003
   79SOL    HW1  236   2.635   1.575   2.527 -1.6355 -1.1737 -0.7302
   79SOL    HW2  237   2.481   1.530   2.471 -1.8500  3.0469 -1.6229
   80SOL     OW  238   1.972   1.618   1.598  0.1192 -0.1391 -0.3326
   80SOL    HW1  239   1.918   1.533   1.575  1.6490  0.7503  1.2165
   80SOL    HW2  240   1.986   1.626   1.698  2.3925 -0.4841  1.0309
   81SOL     OW  241   1.920   0.540   1.555  0.0214 -0.3751 -0.2546
   81SOL    HW1  242   2.013   0.511   1.526 -0.9815 -1.5009  1.3455
   81SOL    HW2  243   1.908   0.634   1.523  0.4121 -1.9186  0.0009
   82SOL     OW  244   2.143   2.309   1.642  0.5331 -0.6790  0.6639
   82SOL    HW1  245   2.235   2.357   1.646  1.7627 -0.7736  1.6085
   82SOL    HW2  246   2.148   2.228   1.584 -0.1818 -1.9394 -2.1986
   83SOL     OW  247   2.851   2.947   0.220  0.3817 -0.3399  0.5520
   83SOL    HW1  248   2.854   3.037   0.269 -2.4000 -1.9810 -1.3459
   83SOL    HW2  249   2.819   2.957   0.127 -0.4920  0.0645  2.9516
   84SOL     OW  250   0.426   1.301   0.099  0.4278 -0.1320 -0.2767
   84SOL    HW1  251   0.515   1.257   0.119 -1.7120  1.0929  0.3252
   84SOL    HW2  252   0.396   1.368   0.165 -2.1432 -2.1498 -0.4285
   85SOL     OW  253   2.734   2.033   1.551 -0.3294 -0.0055  0.0988
   85SOL    HW1  254   2.761   1.952   1.611 -0.5356 -0.4024  1.4050
   85SOL    HW2  255   2.686   1.998   1.468 -1.2733  1.6370  0.0884
   86SOL     OW  256   0.398   2.620   1.408  0.7576 -0.1230 -0.3146
   86SOL    HW1  257   0.462   2.539   1.387  0.3875 -0.0528  0.0698
   86SOL    HW2  258   0.444   2.695   1.457 -0.5421 -0.5177 -1.6191
   87SOL     OW  259   0.446   2.699   2.606 -0.3784 -0.7883  0.3484
   87SOL    HW1  260   0.501   2.616   2.588 -1.1476  3.7575  1.2444
   87SOL    HW2  261   0.362   2.680   2.656  0.8538  1.5450  0.2088
   88SOL     OW  262   0.523   1.918   1.065 -0.5029  0.2119 -0.1692
   88SOL    HW1  263   0.503   2.005   1.119 -1.8632  2.4125  0.6957
   88SOL    HW2  264   0.613   1.874   1.085  1.3129 -1.1763  1.7449
   89SOL     OW  265   0.917   0.628   1.559  0.0006 -0.3018  0.1893
   89SOL    HW1  266   0.999   0.675   1.599  0.4008 -0.0403  0.1123
   89SOL    HW2  267   0.941   0.563   1.486 -3.2229  1.0209 -1.4158
   90SOL     OW  268   2.948   1.326   1.691 -0.0672  0.1834  0.2543
   90SOL    HW1  269   3.049   1.337   1.717  2.7900  1.2829  2.6692
   90SOL    HW2  270   2.897   1.382   1.762  0.1971 -0.4837  0.7192
   91SOL     OW  271   1.128   0.927   0.996 -0.3986 -0.1264 -0.5674
   91SOL    HW1  272   1.095   0.995   1.067 -2.6229 -1.4300  1.7815
   91SOL    HW2  273   1.220   0.951   0.959  0.1551 -0.1642  1.2744
   92SOL     OW  274   2.244   1.161   0.631 -0.1352  0.0875 -0.7628
   92SOL    HW1  275   2.332   1.116   0.618  1.6595  1.2787 -2.3386
   92SOL    HW2  276   2.253   1.235   0.699  1.0294 -2.5817 -1.8185
   93SOL     OW  277   2.362   0.749   2.629 -0.2471  0.0018  0.6246
   93SOL    HW1  278   2.393   0.662   2.584 -2.2722  1.0920  2.3637
   93SOL    HW2  279   2.266   0.774   2.599 -0.8522 -0.4145  0.5028
   94SOL     OW  280   2.336   1.848   2.464  1.1205  0.4162 -0.9198
   94SOL    HW1  281   2.256   1.905   2.442 -0.1898 -2.9087  2.3776
   94SOL    HW2  282   2.334   1.810   2.559  1.0145  1.1310 -1.8755
   95SOL     OW  283   2.358   0.557   1.158  0.1941 -0.5623 -0.0343
   95SOL    HW1  284   2.265   0.518   1.180  0.4112 -1.9346 -0.1874
   95SOL    HW2  285   2.417   0.537   1.235 -1.9582  2.7064 -0.3026
   96SOL     OW  286   2.727   2.964   1.859 -0.3157 -0.2597 -0.1383
   96SOL    HW1  287   2.632   2.931   1.878 -0.7187 -0.7274 -0.2324
   96SOL    HW2  288   2.799   2.930   1.917 -0.8607  0.2241 -1.7125
   97SOL     OW  289   2.597   0.940   1.274 -0.1159  0.2675  0.3755
   97SOL    HW1  290   2.554   0.999   1.202  0.9612 -0.5548  0.6389
   97SOL    HW2  291   2.672   0.995   1.320 -1.4052  0.5281  0.1620
   98SOL     OW  292   1.623   1.943   1.558  0.0116  0.3989  0.3549
   98SOL    HW1  293   1.538   1.923   1.614 -0.1087  0.4700  2.7004
   98SOL    HW2  294   1.650   2.043   1.575  1.2749  2.3251 -1.4900
   99SOL     OW  295   0.061   2.381   1.633 -0.0881  0.0265 -0.3683
   99SOL    HW1  296   3.049   2.398   1.646 -1.3311 -1.4177 -1.1739
   99SOL    HW2  297   0.106   2.462   1.663  0.7566 -2.1723 -1.5515
  100SOL     OW  298   1.068   0.826   2.832  0.7241  0.2643  0.4488
  100SOL    HW1  299   0.993   0.831   2.903  0.1598  0.5356  0.4178
  100SOL    HW2  300   1.118   0.916   2.828 -3.0270 -1.2598 -2.2913
  101SOL     OW  301   2.183   0.082   2.612 -0.0169 -0.7199  0.0351
  101SOL    HW1  302   2.250   0.094   2.539  1.4087 -0.0776  0.6340
  101SOL    HW2  303   2.172   0.171   2.664 -1.3758 -0.2734  1.3199
  102SOL     OW  304   0.440   0.556   1.581  0.1679 -0.3107 -0.4487
  102SOL    HW1  305   0.523   0.615   1.583 -3.6241 -1.1294  1.5727
  102SOL    HW2  306   0.459   0.463   1.608  0.8712  1.1146  0.7708
  103SOL     OW  307   0.181   0.569   2.939  0.1473  0.3506  0.9080
  103SOL    HW1  308   0.186   0.661   2.974  3.1745  0.7788 -1.8159
  103SOL    HW2  309   0.268   0.515   2.965 -0.6205  0.4333  1.5350
  104SOL     OW  310   0.969   0.603   2.363 -0.1674 -0.0211  0.1048
  104SOL    HW1  311   0.897   0.648   2.301 -0.3301  1.3571 -2.4070
  104SOL    HW2  312   0.923   0.553   2.441  0.0350 -0.2918 -0.9321
  105SOL     OW  313   2.189   1.745   1.822 -0.1327  0.2757 -0.0688
  105SOL    HW1  314   2.108   1.773   1.879 -1.2972  0.1506  1.3613
  105SOL    HW2  315   2.246   1.826   1.795  2.1075 -0.1908  1.3978
  106SOL     OW  316   1.705   0.366   0.594  0.5965  0.2783 -0.3594
  106SOL    HW1  317   1.615   0.323   0.620  1.4715 -0.1401 -1.0376
  106SOL    HW2  318   1.737   0.342   0.501 -0.3116  0.2302 -1.4096
  107SOL     OW  319   2.716   2.285   0.969 -0.3061  0.1268  0.1380
  107SOL    HW1  320   2.712   2.255   1.065  2.5274  0.4640 -0.0805
  107SOL    HW2  321   2.658   2.232   0.910  2.2044 -0.1062  0.3800
  108SOL     OW  322   2.961   2.659   1.489 -0.0502  0.1094 -0.0401
  108SOL    HW1  323   2.877   2.719   1.485  1.8253  0.4559  1.0719
  108SOL    HW2  324   3.036   2.694   1.430 -1.0286 -1.6307 -0.1063
  109SOL     OW  325   2.164   2.792   0.680 -0.4236  0.7737 -0.4189
  109SOL    HW1  326   2.113   2.701   0.665 -0.6502 -2.3548 -0.4890
  109SOL    HW2  327   2.128   2.853   0.753 -0.1784  1.6397  1.6894
  110SOL     OW  328   0.651   1.929   2.471 -0.1194  0.7415 -0.0345
  110SOL    HW1  329   0.584   1.854   2.487  0.5343 -2.7276 -0.3655
  110SOL    HW2  330   0.704   1.964   2.550  1.2631 -2.8535 -2.1805
  111SOL     OW  331   1.842   2.445   2.057  0.0730  0.4284  0.2875
  111SOL    HW1  332   1.856   2.544   2.051 -0.6611  0.2439  0.2960
  111SOL    HW2  333   1.895   2.395   1.985  0.2979  1.0401  2.4771
  112SOL     OW  334   1.854   1.675   3.050 -0.0951 -0.1125  0.4754
  112SOL    HW1  335   1.940   1.677   0.018 -2.1559  2.1740  1.9704
  112SOL    HW2  336   1.834   1.761   2.999 -2.2410 -2.6568 -0.8270
  113SOL     OW  337   2.031   2.084   1.431 -0.2533  0.0684 -0.1121
  113SOL    HW1  338   2.098   2.025   1.382 -0.0099  2.9496 -0.7456
  113SOL    HW2  339   1.977   2.026   1.495  1.1646 -0.4339 -0.1296
  114SOL     OW  340   2.956   1.032   0.719  0.4522 -0.0974 -0.4434
  114SOL    HW1  341   2.921   1.112   0.668 -0.3684  2.9327  0.2861
  114SOL    HW2  342   2.982   0.954   0.662  0.7701  2.8503 -1.5393
  115SOL     OW  343   0.791   0.733   3.000 -0.2532 -0.0632  0.5691
  115SOL    HW1  344   0.691   0.719   2.996  1.5025 -0.5855  0.8953
  115SOL    HW2  345   0.840   0.674   2.930  0.0376  1.8530 -1.4784
  116SOL     OW  346   2.747   1.712   2.587  0.2485  0.3446  0.0081
  116SOL    HW1  347   2.712   1.804   2.557 -2.9077 -0.0894 -2.0722
  116SOL    HW2  348   2.715   1.686   2.678 -2.5879 -0.0471 -0.5116
  117SOL     OW  349   2.963   2.838   0.591 -0.3221  0.0483  0.2903
  117SOL    HW1  350   3.021   2.758   0.558  1.2424  3.2446  1.6995
  117SOL    HW2  351   2.869   2.818   0.624 -0.5240 -2.1991 -0.2932
  118SOL     OW  352   0.902   1.797   2.919 -0.1654 -0.0018  0.1649
  118SOL    HW1  353   0.853   1.784   3.009  1.1398 -1.8373 -0.5013
  118SOL    HW2  354   1.000   1.765   2.931 -2.2848  0.1435 -0.6161
  119SOL     OW  355   0.368   2.222   0.190 -0.6575  0.4859 -0.1567
  119SOL    HW1  356   0.390   2.316   0.234 -1.7772  4.3746  1.6969
  119SOL    HW2  357   0.416   2.144   0.238 -0.3580 -0.3763  2.4856
  120SOL     OW  358   1.161   0.563   2.960 -0.2606  0.4640 -0.3032
  120SOL    HW1  359   1.264   0.570   2.970  1.7681  1.2785 -3.2697
  120SOL    HW2  360   1.116   0.635   2.895 -0.6230  3.0641  0.5560
  121SOL     OW  361   1.240   2.627   0.356 -0.3026  0.7993  0.3512
  121SOL    HW1  362   1.311   2.612   0.427  1.3033 -2.1960 -0.5073
  121SOL    HW2  363   1.263   2.586   0.267 -0.6639  0.3934  1.3431
  122SOL     OW  364   2.462   2.554   1.462  0.1426  0.2801  0.0914
  122SOL    HW1  365   2.520   2.635   1.466 -0.6475  0.6040 -2.9234
  122SOL    HW2  366   2.444   2.509   1.552  1.9044  2.3541 -0.0676
  123SOL     OW  367   0.839   1.937   0.542 -0.5931  0.4150  0.0874
  123SOL    HW1  368   0.861   1.919   0.441  1.2575  0.9877 -0.0276
  123SOL    HW2  369   0.766   2.008   0.553 -0.5588 -1.2799 -1.1773
  124SOL     OW  370   2.776   0.489   0.330  0.8990 -0.0154  0.5577
  124SOL    HW1  371   2.868   0.530   0.294  3.7915  2.0726  1.0067
  124SOL    HW2  372   2.786   0.414   0.398 -1.4679 -0.6432  0.9147
  125SOL     OW  373   0.505   0.978   0.352  0.0687 -0.2957 -0.5741
  125SOL    HW1  374   0.530   0.896   0.294  2.0265  0.4479 -0.3514
  125SOL    HW2  375   0.422   0.965   0.406  2.5436  0.9285 -1.2513
  126SOL     OW  376   0.220   1.883   1.140  0.1736 -0.2154  0.3234
  126SOL    HW1  377   0.289   1.846   1.074 -0.4156 -0.6003 -0.9849
  126SOL    HW2  378   0.150   1.811   1.151 -1.1724  0.7991 -0.8264
  127SOL     OW  379   1.421   1.896   1.735  0.7428  0.9757 -0.2610
  127SOL    HW1  380   1.435   1.873   1.835 -0.3910 -0.8188 -3.0139
  127SOL    HW2  381   1.341   1.964   1.725  0.8745 -0.5130  0.5656
  128SOL     OW  382   1.184   1.038   0.308  0.4629  0.2887  0.3986
  128SOL    HW1  383   1.153   1.103   0.240  0.3549 -2.7651 -0.8640
  128SOL    HW2  384   1.284   1.054   0.332  2.2870  2.5727  0.6354
  129SOL     OW  385   2.039   1.053   0.911 -0.5811  0.4281  0.4965
  129SOL    HW1  386   2.018   0.956   0.875 -2.2277 -1.6854 -0.4053
  129SOL    HW2  387   1.987   1.126   0.857  1.2962 -1.5042  1.7303
  130SOL     OW  388   2.669   1.630   1.636 -0.2372 -0.5880 -0.2155
  130SOL    HW1  389   2.590   1.681   1.595  0.8916  1.2178  0.5138
  130SOL    HW2  390   2.706   1.560   1.573 -1.8810  1.8049 -0.8824
  131SOL     OW  391   2.918   2.719   2.945 -0.7242 -0.7307 -0.3592
  131SOL    HW1  392   2.823   2.731   2.983  0.3597  0.1156 -3.2258
  131SOL    HW2  393   2.921   2.759   2.851  1.1731  0.6208  0.7565
  132SOL     OW  394   0.021   1.341   0.344  0.0714 -0.4527 -1.0497
  132SOL    HW1  395   3.053   1.428   0.310 -1.5167  1.7718 -1.6933
  132SOL    HW2  396   3.086   1.253   0.294 -1.5849  1.0007 -2.3886
  133SOL     OW  397   0.510   0.292   1.528  0.0391  0.2746  0.4938
  133SOL    HW1  398   0.431   0.279   1.594 -2.3777  1.6233  3.4450
  133SOL    HW2  399   0.602   0.250   1.554 -3.0747  1.9061 -0.6849
  134SOL     OW  400   0.345   1.710   0.006 -0.5249  0.0545 -0.1690
  134SOL    HW1  401   0.267   1.643   0.019  0.7154 -0.2021  0.1968
  134SOL    HW2  402   0.339   1.756   3.003  0.8211 -3.0755  0.8988
  135SOL     OW  403   1.641   0.584   1.913 -0.6312 -0.0732  0.0158
  135SOL    HW1  404   1.590   0.670   1.896  1.7217 -0.0712 -1.1264
  135SOL    HW2  405   1.591   0.530   1.981  2.8871 -0.1813 -3.2540
  136SOL     OW  406   2.898   0.860   0.177  0.7046  0.3772  0.3550
  136SOL    HW1  407   2.991   0.823   0.195  0.6984  1.9533  1.0396
  136SOL    HW2  408   2.851   0.825   0.090 -1.9314  0.9857  1.2401
  137SOL     OW  409   0.321   1.265   1.249 -0.2938  0.5685 -0.2673
  137SOL    HW1  410   0.252   1.235   1.317 -1.3029 -0.0020  2.4671
  137SOL    HW2  411   0.294   1.246   1.150 -1.6429 -0.2072 -3.4092
  138SOL     OW  412   2.105   0.484   1.200 -0.4258  0.1008  0.4550
  138SOL    HW1  413   2.071   0.399   1.149  0.0808 -2.7403 -0.8311
  138SOL    HW2  414   2.113   0.452   1.297 -1.3865  0.0542 -2.0801
  139SOL     OW  415   1.289   2.522   0.085  0.0953 -0.0776 -0.3291
  139SOL    HW1  416   1.321   2.619   0.072  0.0833 -1.5541  1.4840
  139SOL    HW2  417   1.228   2.488   0.008 -1.2181 -0.3648 -1.8927
  140SOL     OW  418   1.381   1.298   1.365 -0.1347  0.0204  0.3906
  140SOL    HW1  419   1.285   1.316   1.411 -4.0341  1.5142  0.9083
  140SOL    HW2  420   1.431   1.382   1.327  0.6547  0.9209  0.5866
  141SOL     OW  421   1.377   1.982   0.475  0.5318 -0.5643 -0.4567
  141SOL    HW1  422   1.331   1.908   0.417  0.0210 -1.9789 -0.3220
  141SOL    HW2  423   1.404   1.939   0.563  2.5013 -0.5122 -2.6749
  142SOL     OW  424   0.870   0.385   0.316 -0.6255 -0.5873  0.2817
  142SOL    HW1  425   0.866   0.321   0.237 -0.5417 -1.8369 -1.5487
  142SOL    HW2  426   0.820   0.472   0.302 -0.1229 -0.5284 -0.5544
  143SOL     OW  427   0.335   1.963   2.891 -0.2317  0.5261 -0.0093
  143SOL    HW1  428   0.252   2.016   2.910 -0.5511 -0.2921  1.1308
  143SOL    HW2  429   0.357   1.951   2.791 -0.9769  0.1535 -1.8730
  144SOL     OW  430   1.580   2.575   0.799 -0.3636  0.1154 -0.4062
  144SOL    HW1  431   1.618   2.490   0.843  3.0053 -0.9911 -0.5479
  144SOL    HW2  432   1.658   2.638   0.772 -1.2856  0.2522  0.4729
  145SOL     OW  433   1.799   0.761   2.798  0.1668  0.4200  0.6946
  145SOL    HW1  434   1.839   0.721   2.712  2.5515  1.4489 -2.1276
  145SOL    HW2  435   1.848   0.726   2.884 -0.1025 -0.0017  2.3740
  146SOL     OW  436   0.179   2.694   0.990 -0.2051 -0.4936 -0.2635
  146SOL    HW1  437   0.142   2.772   0.931 -0.6829  1.6745 -2.5712
  146SOL    HW2  438   0.144   2.601   0.960 -5.7024 -0.1571  1.3691
  147SOL     OW  439   2.106   0.022   2.070  0.3370 -0.0875 -0.0351
  147SOL    HW1  440   2.120   3.028   2.006  1.9312 -1.4668 -1.6612
  147SOL    HW2  441   2.018   0.070   2.055  0.6022 -2.3278  1.0503
  148SOL     OW  442   1.157   0.094   1.797 -0.0264 -0.3381 -0.3877
  148SOL    HW1  443   1.229   0.145   1.849  0.0377  2.6139  2.1069
  148SOL    HW2  444   1.143   0.002   1.840  0.6885  1.6457  1.2953
  149SOL     OW  445   1.484   0.460   2.103  0.0150  0.2692  0.0440
  149SOL    HW1  446   1.508   0.426   2.195  0.1779 -3.7774 -2.2174
  149SOL    HW2  447   1.394   0.506   2.110  0.0932  1.9073  1.0742
  150SOL     OW  448   2.738   3.004   3.061  0.4587  0.3226 -0.3436
  150SOL    HW1  449   2.829   3.053   3.053  2.2575 -1.4794 -1.3565
  150SOL    HW2  450   2.702   2.991   2.963 -0.9820 -1.0947 -2.6689
  151SOL     OW  451   0.765   1.665   0.574 -0.1931  0.3600  0.0661
  151SOL    HW1  452   0.752   1.765   0.584  3.0985  1.4088 -0.0613
  151SOL    HW2  453   0.787   1.643   0.475 -2.7675 -2.5972 -0.2609
  152SOL     OW  454   3.027   0.569   0.297  0.2939  0.5032  0.1857
  152SOL    HW1  455   0.003   0.562   0.377 -0.8257  0.3270  1.1579
  152SOL    HW2  456   3.061   0.637   0.229 -0.1519 -1.8364 -1.2619
  153SOL     OW  457   2.847   0.464   1.601  0.1174  0.5594  0.4266
  153SOL    HW1  458   2.859   0.559   1.566  0.5966 -0.6731  1.6008
  153SOL    HW2  459   2.801   0.461   1.690 -0.2236 -3.0510  0.7099
  154SOL     OW  460   1.435   2.990   2.194  0.8067 -0.2855  0.0219
  154SOL    HW1  461   1.424   2.910   2.254 -0.2386  1.3468  0.6794
  154SOL    HW2  462   1.400   2.977   2.099 -0.7899  0.7355 -2.6950
  155SOL     OW  463   0.381   1.770   0.885  0.0012  0.3109 -0.2267
  155SOL    HW1  464   0.416   1.773   0.789  1.1405 -1.4831  0.8006
  155SOL    HW2  465   0.439   1.836   0.938 -0.1392  0.6585 -1.3222
  156SOL     OW  466   2.148   2.155   3.026 -0.0798  0.1669  0.4131
  156SOL    HW1  467   2.181   2.239   2.974  3.0615  1.9839 -1.6335
  156SOL    HW2  468   2.102   2.184   0.023 -0.1608  0.8312 -1.6421
  157SOL     OW  469   1.067   0.448   0.081  0.4984 -0.3021  0.1790
  157SOL    HW1  470   1.013   0.515   0.138  0.7914  0.9981  2.5930
  157SOL    HW2  471   1.105   0.495   3.084 -2.1063  0.7562 -1.0470
  158SOL     OW  472   2.298   3.003   2.831  0.2874  0.4897 -0.0651
  158SOL    HW1  473   2.317   3.080   2.897  0.4328  0.4988  0.4711
  158SOL    HW2  474   2.282   3.036   2.738 -0.0700 -1.9828  3.3652
  159SOL     OW  475   2.847   0.097   0.335 -0.0746  0.3908 -0.0939
  159SOL    HW1  476   2.914   0.163   0.293 -2.8323 -0.7403 -1.0834
  159SOL    HW2  477   2.891   0.052   0.418  0.7002  0.7234 -0.6802
  160SOL     OW  478   1.453   1.921   2.318 -0.2337 -0.4096  0.3018
  160SOL    HW1  479   1.410   1.887   2.407 -0.8670  1.5820  2.4915
  160SOL    HW2  480   1.394   1.905   2.238 -0.4654  0.7585  0.9554
  161SOL     OW  481   2.629   0.902   2.729 -0.2852 -0.0022 -0.9600
  161SOL    HW1  482   2.701   0.831   2.718 -0.4506  0.5349  1.5592
  161SOL    HW2  483   2.536   0.869   2.743  1.7325  0.7647 -1.1356
  162SOL     OW  484   0.578   2.396   1.408 -0.4725  0.5699  0.1192
  162SOL    HW1  485   0.678   2.391   1.386 -0.4060 -0.7916  1.3359
  162SOL    HW2  486   0.565   2.396   1.506 -0.4764 -1.4417 -1.8377
  163SOL     OW  487   1.976   0.279   2.303  0.0385 -0.1154 -0.1106
  163SOL    HW1  488   1.990   0.180   2.309 -2.0396  2.9685 -0.5562
  163SOL    HW2  489   2.030   0.318   2.229 -0.8552 -0.6268  2.6865
  164SOL     OW  490   2.021   1.747   0.339  0.2878 -0.1336  0.3952
  164SOL    HW1  491   2.043   1.732   0.245  1.3912  0.8267  2.1712
  164SOL    HW2  492   2.007   1.656   0.382  0.3682 -0.4698 -1.7277
  165SOL     OW  493   3.044   0.259   1.532 -0.1655 -0.3784 -0.0817
  165SOL    HW1  494   2.972   0.332   1.534  0.6759  1.1666 -0.5399
  165SOL    HW2  495   0.032   0.288   1.475  1.9211 -0.0995  3.2614
  166SOL     OW  496   2.277   1.054   3.012  0.2055  0.5760  0.1447
  166SOL    HW1  497   2.228   1.140   2.992  2.3672 -3.4087 -2.1879
  166SOL    HW2  498   2.238   1.006   0.005  0.3572 -0.3783  0.0287
  167SOL     OW  499   2.757   0.773   3.060 -0.0187 -0.6613 -0.5020
  167SOL    HW1  500   2.668   0.740   0.011 -1.0828 -0.9250 -0.3063
  167SOL    HW2  501   2.818   0.696   3.034  1.1749  2.0539 -2.0567
  168SOL     OW  502   1.477   2.759   2.666 -0.4124  0.7187  0.0947
  168SOL    HW1  503   1.550   2.739   2.731  2.0136 -2.8398 -0.8414
  168SOL    HW2  504   1.517   2.791   2.581 -0.2193 -1.9567  3.7157
  169SOL     OW  505   0.075   1.372   0.640 -0.2683 -0.2088  0.1853
  169SOL    HW1  506   0.177   1.365   0.665  1.5222 -0.8658  2.3614
  169SOL    HW2  507   0.064   1.314   0.560 -1.0247 -0.1936 -0.5341
  170SOL     OW  508   0.090   0.374   1.288  0.0838  0.2550  0.3599
  170SOL    HW1  509   0.125   0.434   1.369  1.1928 -0.9442 -1.4687
  170SOL    HW2  510   0.037   0.429   1.215 -0.2895  1.7950 -1.2377
  171SOL     OW  511   1.800   2.016   2.534 -0.4385 -0.2114  0.4635
  171SOL    HW1  512   1.734   2.059   2.467 -3.3328  0.8577  1.8479
  171SOL    HW2  513   1.780   1.916   2.543  0.6725 -4.2431 -2.2171
  172SOL     OW  514   0.022   2.709   1.269  0.3386 -0.3858 -0.2989
  172SOL    HW1  515   3.049   2.647   1.217  2.4730 -1.7099 -0.3678
  172SOL    HW2  516   0.115   2.719   1.225 -0.4556 -0.4350 -3.3976
  173SOL     OW  517   1.184   0.788   0.219  0.0184 -0.4729 -0.1131
  173SOL    HW1  518   1.168   0.883   0.266  1.7301  1.1082  1.4260
  173SOL    HW2  519   1.267   0.786   0.166 -1.6797  0.8187  0.6673
  174SOL     OW  520   0.906   0.157   2.558  0.3694  0.6765  0.7511
  174SOL    HW1  521   0.889   0.178   2.658 -1.7877  1.2014  0.1152
  174SOL    HW2  522   0.982   0.090   2.541 -2.6491 -4.0188 -1.4229
  175SOL     OW  523   2.156   1.930   0.753  0.8329  0.0331  0.3502
  175SOL    HW1  524   2.077   1.983   0.710  1.6009 -0.1016  0.8242
  175SOL    HW2  525   2.232   1.934   0.686 -0.9793  0.4400  0.1479
  176SOL     OW  526   1.206   0.093   0.051 -0.1692 -0.0251 -0.4430
  176SOL    HW1  527   1.115   0.074   0.091 -3.5615  3.2967  0.9096
  176SOL    HW2  528   1.189   0.112   3.038 -2.2262  0.5105 -0.5488
  177SOL     OW  529   1.026   1.442   0.393 -0.2434  0.4075  0.3230
  177SOL    HW1  530   0.970   1.515   0.352 -0.0038  1.4175  1.7885
  177SOL    HW2  531   1.111   1.429   0.335  1.5616 -2.1110 -0.6912
  178SOL     OW  532   2.553   2.325   3.037 -0.3558 -0.7374  0.2144
  178SOL    HW1  533   2.616   2.251   3.066  0.3788  1.4152  3.1643
  178SOL    HW2  534   2.526   2.376   0.029 -0.4721 -0.6449  0.3622
  179SOL     OW  535   2.579   2.992   2.804 -0.6356  0.4876 -0.2390
  179SOL    HW1  536   2.504   2.946   2.857  1.1252  0.5818 -0.7794
  179SOL    HW2  537   2.552   2.990   2.705  1.9393 -0.4605  1.7076
  180SOL     OW  538   1.498   1.414   0.696  0.2106  0.3148  0.4498
  180SOL    HW1  539   1.481   1.322   0.661 -1.0241  1.3669  2.5039
  180SOL    HW2  540   1.457   1.486   0.636 -2.8911  1.1968  0.5514
  181SOL     OW  541   1.887   1.271   2.325  0.0954 -0.8000  0.2798
  181SOL    HW1  542   1.867   1.190   2.388 -0.1513 -1.2217  0.5081
  181SOL    HW2  543   1.807   1.294   2.265 -1.6828 -1.6173  0.4159
  182SOL     OW  544   2.496   2.990   2.526 -0.4230  0.0150 -0.0188
  182SOL    HW1  545   2.446   3.064   2.480  1.8908  0.8197 -0.3610
  182SOL    HW2  546   2.584   2.975   2.477  0.1469 -1.6505  0.2640
  183SOL     OW  547   1.883   0.554   2.285 -0.3599 -0.3588 -0.3451
  183SOL    HW1  548   1.854   0.603   2.197 -0.7395  0.3173 -0.3399
  183SOL    HW2  549   1.910   0.454   2.270  0.8811  1.0441  2.3225
  184SOL     OW  550   0.024   1.257   1.411 -0.0644  0.0882  0.2732
  184SOL    HW1  551   3.036   1.241   1.351  2.2477  0.1283  0.2594
  184SOL    HW2  552   0.009   1.334   1.474  0.9494  0.4376 -1.8514
  185SOL     OW  553   1.839   0.671   0.654 -0.1409 -0.1902  0.1639
  185SOL    HW1  554   1.902   0.713   0.721 -3.6843  0.9655 -1.5194
  185SOL    HW2  555   1.890   0.605   0.593  2.0732  1.3230  0.1926
  186SOL     OW  556   0.277   2.699   2.946  0.7202 -0.3118 -0.1720
  186SOL    HW1  557   0.195   2.678   3.005  0.2935 -0.2123 -3.0475
  186SOL    HW2  558   0.248   2.776   2.884  1.1420  2.1957  0.0141
  187SOL     OW  559   2.637   0.955   0.173  0.0903 -0.1101  0.4115
  187SOL    HW1  560   2.728   0.934   0.147 -2.2330  1.9652  0.0568
  187SOL    HW2  561   2.596   1.024   0.111 -0.3290  2.8387  0.5160
  188SOL     OW  562   2.957   1.539   1.324 -0.1143 -0.3463 -0.5040
  188SOL    HW1  563   2.883   1.512   1.393 -0.8539  0.2141  1.9308
  188SOL    HW2  564   2.990   1.629   1.360 -1.9616 -1.2249 -1.0249
  189SOL     OW  565   2.546   0.362   2.981 -0.2681 -0.0027  0.0964
  189SOL    HW1  566   2.554   0.424   2.903 -1.9837 -4.3475  4.6042
  189SOL    HW2  567   2.566   0.414   3.067  0.4801 -0.0849  1.6793
  190SOL     OW  568   1.380   1.296   1.937 -0.0936 -0.3989 -0.0442
  190SOL    HW1  569   1.340   1.298   1.844  2.1997  2.3218  0.4087
  190SOL    HW2  570   1.355   1.213   1.988 -1.5601  2.5859  2.4656
  191SOL     OW  571   0.553   0.350   1.847  0.9003  0.7036 -0.1008
  191SOL    HW1  572   0.597   0.260   1.851  0.3845 -2.5458  0.4764
  191SOL    HW2  573   0.456   0.322   1.838 -0.6287  1.7967 -1.4594
  192SOL     OW  574   2.052   1.360   1.200  0.3049  0.4778 -0.3438
  192SOL    HW1  575   1.978   1.378   1.136 -0.5667  0.0670  0.3274
  192SOL    HW2  576   2.011   1.339   1.292  0.1788 -0.7161 -0.0649
  193SOL     OW  577   1.500   0.778   0.994 -0.4412  0.0764  0.2744
  193SOL    HW1  578   1.587   0.807   1.043  0.6924 -2.0377  0.3623
  193SOL    HW2  579   1.473   0.847   0.927 -2.0368  0.9458  3.0953
  194SOL     OW  580   1.091   2.214   1.391  0.0432  0.4818  0.1443
  194SOL    HW1  581   1.110   2.316   1.378  1.0737 -1.0080 -0.9635
  194SOL    HW2  582   1.005   2.200   1.440  1.8736  2.1428  1.4962
  195SOL     OW  583   1.861   0.038   2.946 -0.0393 -1.0454  0.0382
  195SOL    HW1  584   1.927   3.073   3.009  2.3592  0.0345  0.0473
  195SOL    HW2  585   1.896   0.040   2.851 -0.0003  1.7133  0.2865
  196SOL     OW  586   0.645   1.763   1.859 -0.0332  0.0621  0.1712
  196SOL    HW1  587   0.651   1.778   1.757  2.0554 -0.7588 -1.6512
  196SOL    HW2  588   0.727   1.714   1.894 -0.3792  2.4516  0.0490
  197SOL     OW  589   0.850   0.018   1.263 -0.0353  0.4663 -0.1972
  197SOL    HW1  590   0.950   0.033   1.252 -1.5203 -1.9063 -0.6831
  197SOL    HW2  591   0.798   0.103   1.278  0.2534 -0.5127 -0.6126
  198SOL     OW  592   0.730   0.976   1.211 -0.3492 -0.1584  0.5360
  198SOL    HW1  593   0.761   0.888   1.250  0.5026  1.4026  2.4016
  198SOL    HW2  594   0.751   0.974   1.113  0.6707  1.0095 -0.2096
  199SOL     OW  595   0.235   2.588   1.636  0.0684  0.1215 -0.3918
  199SOL    HW1  596   0.285   2.583   1.724 -0.2663  0.7065  2.9251
  199SOL    HW2  597   0.295   2.590   1.553  1.1959  0.4529 -3.7666
  200SOL     OW  598   1.723   1.640   2.008  0.1343  0.1158  0.1789
  200SOL    HW1  599   1.826   1.632   2.033  0.5104  1.3690  1.9105
  200SOL    HW2  600   1.674   1.559   1.977  0.2658  0.9275  1.4189
  201SOL     OW  601   0.324   1.583   2.416 -0.1183 -0.2004 -0.4691
  201SOL    HW1  602   0.294   1.486   2.438  0.2818  0.1996 -0.4611
  201SOL    HW2  603   0.406   1.605   2.475  2.0416 -0.3677 -2.2891
  202SOL     OW  604   1.694   0.488   3.050 -0.0199  0.4954 -0.5887
  202SOL    HW1  605   1.755   0.408   3.062 -1.4954 -2.9290 -0.4897
  202SOL    HW2  606   1.633   0.503   0.046  0.9232 -0.3380  0.2619
  203SOL     OW  607   1.132   2.510   2.081 -0.2511  0.2850  0.0175
  203SOL    HW1  608   1.061   2.484   2.155 -0.8496  0.3445  0.8384
  203SOL    HW2  609   1.092   2.548   1.994 -0.2699  1.4768 -0.8518
  204SOL     OW  610   1.079   1.869   1.623 -0.2021  0.0691 -0.0402
  204SOL    HW1  611   0.994   1.923   1.600 -3.5162  2.0812  0.4664
  204SOL    HW2  612   1.144   1.934   1.658 -2.8359 -0.0483 -3.7667
  205SOL     OW  613   1.529   1.862   2.004  0.5229 -0.4086 -0.5494
  205SOL    HW1  614   1.597   1.793   1.975 -2.9860 -0.5010 -1.0895
  205SOL    HW2  615   1.450   1.825   2.052 -0.9179 -0.0687  0.4022
  206SOL     OW  616   0.070   1.129   2.447  0.5204 -0.0888  0.0876
  206SOL    HW1  617   0.008   1.077   2.505  1.3807  1.4911 -1.3750
  206SOL    HW2  618   0.087   1.073   2.360 -0.7988 -0.7667 -0.8418
  207SOL     OW  619   1.082   2.949   1.911  0.1971 -0.3333 -0.0762
  207SOL    HW1  620   1.049   2.946   2.004  0.7013  0.5659 -0.9855
  207SOL    HW2  621   1.001   2.951   1.847 -0.1519 -0.1050 -1.9481
  208SOL     OW  622   0.806   2.943   1.827 -0.0611  0.4467  0.0626
  208SOL    HW1  623   0.773   2.901   1.914  0.5606  2.3297 -3.0509
  208SOL    HW2  624   0.750   2.911   1.748  1.2343 -2.8701  2.6067
  209SOL     OW  625   1.464   0.057   0.074  0.0667 -0.0814  0.0218
  209SOL    HW1  626   1.498   0.140   0.119 -3.1314 -1.0666  1.2953
  209SOL    HW2  627   1.360   0.050   0.071  0.5351 -2.1968 -1.3565
  210SOL     OW  628   2.792   0.870   0.867 -0.3682 -0.4925  0.2646
  210SOL    HW1  629   2.821   0.796   0.931  0.2971  1.8577 -1.6868
  210SOL    HW2  630   2.878   0.922   0.842 -0.4132  1.7035 -0.7307
  211SOL     OW  631   0.488   0.368   1.275 -0.1351 -0.8189  0.3593
  211SOL    HW1  632   0.509   0.459   1.229 -0.1859  0.9688  0.4247
  211SOL    HW2  633   0.481   0.359   1.378 -1.1904 -2.2351 -1.7736
  212SOL     OW  634   1.677   1.877   1.299  0.2584 -0.3278  0.1608
  212SOL    HW1  635   1.640   1.895   1.393 -3.0141 -0.0762  0.0071
  212SOL    HW2  636   1.734   1.949   1.264  0.2491 -4.7257 -0.1790
  213SOL     OW  637   2.298   0.347   1.666 -0.2359 -0.6320 -0.1385
  213SOL    HW1  638   2.362   0.272   1.673  0.1525  4.0729  0.5186
  213SOL    HW2  639   2.349   0.433   1.657  0.9083 -1.4883 -0.3887
  214SOL     OW  640   0.710   2.566   2.311  0.3521 -0.1820 -0.3095
  214SOL    HW1  641   0.733   2.666   2.334 -1.0814  0.1680 -0.0829
  214SOL    HW2  642   0.686   2.510   2.387  0.5072  1.6481 -4.6336
  215SOL     OW  643   2.815   1.831   1.750 -0.6401  0.4616 -0.1828
  215SOL    HW1  644   2.759   1.745   1.738  0.8680 -2.7292 -0.4059
  215SOL    HW2  645   2.900   1.830   1.691 -1.6524 -1.1015 -3.3935
  216SOL     OW  646   0.711   0.983   1.717  0.0621  0.1439 -0.4053
  216SOL    HW1  647   0.803   1.026   1.691 -0.2475  0.9766  0.9989
  216SOL    HW2  648   0.655   1.055   1.755  2.1891 -1.3383 -3.9379
  217SOL     OW  649   2.713   0.376   0.659 -0.0540 -0.5826 -0.2484
  217SOL    HW1  650   2.704   0.477   0.657  0.8842  0.9807  1.3907
  217SOL    HW2  651   2.673   0.333   0.741  0.4341 -1.1528 -2.2192
  218SOL     OW  652   1.855   2.029   1.040 -0.1996  0.4309  0.6558
  218SOL    HW1  653   1.793   2.033   0.960  1.0357 -2.5987  1.3631
  218SOL    HW2  654   1.849   2.103   1.106  0.0176 -3.1174 -2.0689
  219SOL     OW  655   1.593   0.002   0.502 -0.0974 -0.4646 -0.4640
  219SOL    HW1  656   1.693   3.073   0.513 -0.4024  1.9415 -1.0367
  219SOL    HW2  657   1.550   2.996   0.492  0.8046  0.2504 -1.3944
  220SOL     OW  658   1.672   2.075   0.712 -0.7046  0.0671 -0.2379
  220SOL    HW1  659   1.609   2.120   0.643  0.5978 -2.9368 -0.9638
  220SOL    HW2  660   1.695   1.980   0.681 -1.6196 -0.5522 -1.9442
  221SOL     OW  661   2.770   1.264   0.304  0.6452 -0.0301 -0.0104
  221SOL    HW1  662   2.668   1.283   0.314 -1.7063  2.1367 -1.6182
  221SOL    HW2  663   2.820   1.353   0.294 -0.0137  2.2317  1.1841
  222SOL     OW  664   0.738   2.147   1.190  0.1469 -0.0692 -0.5786
  222SOL    HW1  665   0.795   2.153   1.101  1.1069  2.7978  0.2735
  222SOL    HW2  666   0.756   2.229   1.251  2.3808  0.6975 -0.7342
  223SOL     OW  667   1.233   0.252   0.349  0.1647 -0.0805 -0.6467
  223SOL    HW1  668   1.214   0.323   0.276 -2.2352  0.2164  0.7127
  223SOL    HW2  669   1.175   0.168   0.345 -1.0292 -1.9523 -1.0685
  224SOL     OW  670   2.846   1.183   1.259 -0.0735  0.1112  0.2518
  224SOL    HW1  671   2.764   1.193   1.328  0.3076  0.6537 -1.6963
  224SOL    HW2  672   2.832   1.247   1.182 -0.2932  1.6273 -1.3954
  225SOL     OW  673   0.493   1.519   1.566 -0.2835 -0.2706 -0.1695
  225SOL    HW1  674   0.529   1.426   1.538 -0.0912 -2.7597  1.5339
  225SOL    HW2  675   0.406   1.542   1.513 -0.3114 -0.6266  1.7798
  226SOL     OW  676   0.837   2.674   0.759 -0.5183  0.7656  0.0468
  226SOL    HW1  677   0.845   2.614   0.677  0.6556  0.0671  0.7057
  226SOL    HW2  678   0.754   2.652   0.815  2.0698  1.8827  0.0135
  227SOL     OW  679   1.338   1.615   1.698 -0.3162 -0.6374 -0.4495
  227SOL    HW1  680   1.250   1.569   1.683 -0.3787 -0.2334 -0.8533
  227SOL    HW2  681   1.334   1.717   1.692  3.3086 -1.0888  0.8140
  228SOL     OW  682   0.792   0.197   1.555 -0.2020 -0.4970  0.0071
  228SOL    HW1  683   0.837   0.279   1.598 -1.1969  0.0905  0.4666
  228SOL    HW2  684   0.859   0.123   1.539 -0.5047  1.6491 -2.1069
  229SOL     OW  685   2.833   0.715   2.751 -0.0325 -0.0600 -0.3196
  229SOL    HW1  686   2.852   0.687   2.654 -0.8160  1.3002 -0.6546
  229SOL    HW2  687   2.893   0.679   2.823 -0.7945 -0.0002 -0.6074
  230SOL     OW  688   0.316   0.955   1.340 -0.4562 -0.0950  0.0099
  230SOL    HW1  689   0.320   0.983   1.243 -0.9972 -1.7255 -0.3352
  230SOL    HW2  690   0.332   0.853   1.353  0.1686 -0.2694  0.8278
  231SOL     OW  691   1.109   2.746   1.632 -0.6110 -0.2344 -0.8211
  231SOL    HW1  692   1.034   2.740   1.562 -4.2023  1.0046 -2.1286
  231SOL    HW2  693   1.147   2.841   1.628  1.1284  1.7329  1.1518
  232SOL     OW  694   2.965   2.036   0.162 -0.1082  0.2911  0.2608
  232SOL    HW1  695   2.971   1.981   0.244  0.3590 -1.3260  0.4366
  232SOL    HW2  696   2.902   2.117   0.173 -0.5199 -1.4543  2.2557
  233SOL     OW  697   1.098   2.513   2.925  0.1679  0.1347 -0.3274
  233SOL    HW1  698   1.037   2.502   2.846  2.5583  0.9217  4.6644
  233SOL    HW2  699   1.192   2.529   2.885 -2.2526  1.2256 -0.1654
  234SOL     OW  700   0.554   1.200   1.761 -0.4908  0.4914  0.7103
  234SOL    HW1  701   0.576   1.231   1.665  1.1493  0.0650 -0.7494
  234SOL    HW2  702   0.472   1.246   1.804  0.1746 -1.0764 -2.1905
  235SOL     OW  703   0.013   2.563   2.469  0.2347  0.2521  0.2668
  235SOL    HW1  704   0.092   2.496   2.472 -0.8935  0.9489  1.6021
  235SOL    HW2  705   3.019   2.519   2.510  2.3856 -2.4329  0.6957
  236SOL     OW  706   1.685   2.110   2.793 -0.5846 -0.1060  0.2098
  236SOL    HW1  707   1.725   2.061   2.715  2.6831 -1.3491  1.4862
  236SOL    HW2  708   1.708   2.208   2.781 -1.1924 -0.3691  0.5309
  237SOL     OW  709   1.745   0.903   0.844  0.4601 -0.2225  0.1355
  237SOL    HW1  710   1.672   0.847   0.792 -1.5342 -1.5338 -1.8955
  237SOL    HW2  711   1.840   0.869   0.832  2.0895  0.7158  0.9276
  238SOL     OW  712   1.363   2.626   2.068 -0.0562 -0.0170  0.1123
  238SOL    HW1  713   1.271   2.576   2.058 -2.0063 -3.7556 -1.2636
  238SOL    HW2  714   1.356   2.719   2.026  1.5496 -0.0629  2.4378
  239SOL     OW  715   0.967   2.276   1.819  0.7649 -0.4136 -0.6282
  239SOL    HW1  716   0.967   2.268   1.918 -0.5239  3.3035 -1.7877
  239SOL    HW2  717   1.055   2.298   1.779 -3.2914 -0.5455  1.7403
  240SOL     OW  718   2.301   0.096   0.868 -0.6198 -0.0627 -0.0650
  240SOL    HW1  719   2.403   0.080   0.882  1.3008 -0.5117 -0.2957
  240SOL    HW2  720   2.297   0.163   0.789  0.2561  0.1380  0.3997
  241SOL     OW  721   1.160   1.713   2.953 -0.2905  0.4195  0.6279
  241SOL    HW1  722   1.204   1.729   3.047 -1.5933 -0.2626  1.3379
  241SOL    HW2  723   1.205   1.640   2.898  0.5436 -0.1346 -2.9974
  242SOL     OW  724   2.817   0.989   2.899  0.4985  0.1375 -0.6338
  242SOL    HW1  725   2.792   0.920   2.972 -0.5059  1.1991  0.6529
  242SOL    HW2  726   2.755   0.971   2.820 -0.6810  0.2983 -0.7979
  243SOL     OW  727   0.892   0.400   1.692  0.6320  0.5322 -0.5881
  243SOL    HW1  728   0.943   0.396   1.780  0.6398 -1.5371  2.8006
  243SOL    HW2  729   0.870   0.493   1.657 -0.3888 -0.9270 -3.1434
  244SOL     OW  730   1.120   2.805   2.907 -0.3068  0.0814  0.4355
  244SOL    HW1  731   1.101   2.717   2.957 -1.1367 -2.6505  2.6976
  244SOL    HW2  732   1.211   2.842   2.925  0.3443 -1.4021 -1.6672
  245SOL     OW  733   1.572   2.527   2.982  0.0464 -0.5127  0.1010
  245SOL    HW1  734   1.561   2.454   3.051 -1.2005 -0.8455  0.3284
  245SOL    HW2  735   1.620   2.605   3.027  0.5511  1.2296 -0.2281
  246SOL     OW  736   0.648   1.058   2.103 -0.0065  0.0295  0.2326
  246SOL    HW1  737   0.668   1.141   2.048  0.6835 -1.9782 -1.0768
  246SOL    HW2  738   0.601   0.989   2.045  0.0372  1.5079  0.6379
  247SOL     OW  739   0.049   0.673   2.395 -0.7244 -0.7931 -0.3470
  247SOL    HW1  740   0.047   0.591   2.333 -0.7904  1.5976 -1.3976
  247SOL    HW2  741   0.093   0.650   2.482 -0.3489  0.7547 -0.4796
  248SOL     OW  742   0.119   1.246   2.085  0.5663 -0.1857  0.4147
  248SOL    HW1  743   0.018   1.236   2.085  0.0304  3.3804  0.3626
  248SOL    HW2  744   0.163   1.161   2.118  0.2586  0.8713  2.5970
  249SOL     OW  745   3.021   0.279   0.249  0.5305 -0.1670 -0.3792
  249SOL    HW1  746   0.035   0.258   0.253  2.4656  2.3766 -0.1486
  249SOL    HW2  747   3.016   0.364   0.312  1.4937  3.0124  0.9876
  250SOL     OW  748   2.736   0.179   2.931 -0.0154 -0.1638 -0.0282
  250SOL    HW1  749   2.750   0.185   2.832 -1.6370 -0.2073  0.2631
  250SOL    HW2  750   2.655   0.231   2.959 -0.7134 -2.4279  2.6613
  251SOL     OW  751   1.068   1.805   1.901  0.0803  0.6941  0.0241
  251SOL    HW1  752   1.128   1.877   1.931 -2.2957 -1.5471  0.2562
  251SOL    HW2  753   1.056   1.824   1.802 -1.1993  3.2935  2.4315
  252SOL     OW  754   2.200   1.648   1.418  0.1661  0.0811  0.5242
  252SOL    HW1  755   2.156   1.637   1.327  0.1590  2.1022 -0.6289
  252SOL    HW2  756   2.127   1.638   1.493 -0.4474  0.0552  0.5267
  253SOL     OW  757   1.785   2.202   2.129  0.1650 -0.2930 -0.0828
  253SOL    HW1  758   1.798   2.305   2.118  1.1225  1.2840  2.2666
  253SOL    HW2  759   1.717   2.169   2.059 -0.3815 -1.6303  0.4464
  254SOL     OW  760   0.571   2.526   2.086  0.2217  0.0767  0.0978
  254SOL    HW1  761   0.627   2.493   2.006 -1.6354 -0.8296  0.8365
  254SOL    HW2  762   0.623   2.555   2.164 -1.8870  1.3570 -1.3388
  255SOL     OW  763   1.027   0.454   0.827  0.2241 -0.2668  0.2059
  255SOL    HW1  764   1.006   0.434   0.726 -3.5242  1.0720  0.3828
  255SOL    HW2  765   1.009   0.556   0.837 -0.3720 -0.2710 -2.3441
  256SOL     OW  766   2.321   2.080   1.508  0.0585  0.0973 -0.2148
  256SOL    HW1  767   2.367   2.157   1.465 -1.5048  0.2129 -2.2526
  256SOL    HW2  768   2.287   2.012   1.439  1.5413  0.6766 -0.0595
  257SOL     OW  769   0.542   2.429   2.802  0.6830 -0.7839 -0.1268
  257SOL    HW1  770   0.566   2.359   2.876  0.4315 -0.7429 -1.3213
  257SOL    HW2  771   0.555   2.528   2.827  0.9545  0.0940 -1.5097
  258SOL     OW  772   0.433   0.822   2.136  0.4200 -0.2379  0.1975
  258SOL    HW1  773   0.421   0.724   2.128  3.0835  3.4209  1.5889
  258SOL    HW2  774   0.463   0.863   2.051  0.9176 -0.0719  2.7537
  259SOL     OW  775   0.773   1.227   2.263 -0.2210 -0.0737  0.1611
  259SOL    HW1  776   0.710   1.297   2.299  1.1114  1.7221 -1.8207
  259SOL    HW2  777   0.732   1.144   2.220 -0.7681  0.9159 -0.7702
  260SOL     OW  778   2.008   0.794   0.810  0.0109 -0.3669 -0.4177
  260SOL    HW1  779   2.048   0.767   0.904  0.8538  0.2057 -0.8943
  260SOL    HW2  780   2.074   0.795   0.737 -1.5986  3.9534  2.3913
  261SOL     OW  781   0.877   0.186   0.774  0.1758 -0.5935 -0.2971
  261SOL    HW1  782   0.863   0.180   0.672  3.7279 -0.3697  0.4162
  261SOL    HW2  783   0.973   0.207   0.795  1.6646  0.7778  1.5027
  262SOL     OW  784   2.163   2.500   2.407 -0.5897 -0.2315 -0.1591
  262SOL    HW1  785   2.077   2.474   2.458 -2.1712 -1.8367 -2.2843
  262SOL    HW2  786   2.246   2.469   2.453 -2.8061  0.0916  2.2201
  263SOL     OW  787   0.577   1.596   0.084  0.0350 -0.4241 -0.4493
  263SOL    HW1  788   0.586   1.550   3.083  0.5155  1.4010  2.4138
  263SOL    HW2  789   0.480   1.638   0.098 -2.3872  2.2254  2.4915
  264SOL     OW  790   0.313   1.832   1.549 -0.3670 -0.1416 -0.5671
  264SOL    HW1  791   0.349   1.860   1.640  1.8921 -0.2896  1.6333
  264SOL    HW2  792   0.324   1.905   1.476 -1.3211 -2.8002 -2.2752
  265SOL     OW  793   0.921   0.779   0.549 -0.7601  0.0138  0.0862
  265SOL    HW1  794   0.852   0.736   0.484 -0.7912 -1.2104  2.3254
  265SOL    HW2  795   0.898   0.754   0.645  1.0289 -1.1681  2.4149
  266SOL     OW  796   1.484   1.914   0.027  0.5765  0.0201 -0.4770
  266SOL    HW1  797   1.492   1.980   0.101 -0.5430 -1.0832  0.0941
  266SOL    HW2  798   1.456   1.953   3.022  0.9351  0.1826  0.6322
  267SOL     OW  799   0.424   0.436   2.967  0.2501  0.4860  0.2555
  267SOL    HW1  800   0.384   0.343   2.959 -1.7119  0.7076  1.0995
  267SOL    HW2  801   0.503   0.453   2.899  1.8730  0.9481 -1.2050
  268SOL     OW  802   0.854   0.630   2.749 -0.1019  0.2331 -0.4185
  268SOL    HW1  803   0.872   0.540   2.707 -2.8788  2.6639 -1.1605
  268SOL    HW2  804   0.815   0.698   2.678  1.6710 -0.1815 -2.3122
  269SOL     OW  805   1.757   0.102   2.469  0.6231  0.6272  0.3319
  269SOL    HW1  806   1.706   0.103   2.380 -3.2191  0.7000  2.3624
  269SOL    HW2  807   1.692   0.139   2.539 -0.0481 -0.8190 -0.1742
  270SOL     OW  808   0.742   0.802   2.547  0.1367 -0.5419 -0.2154
  270SOL    HW1  809   0.748   0.823   2.447 -0.9480  0.9270  0.0036
  270SOL    HW2  810   0.700   0.880   2.600 -3.7688 -0.3464 -0.9481
  271SOL     OW  811   0.100   0.782   0.215 -0.0299  0.2716 -0.1585
  271SOL    HW1  812   0.107   0.877   0.254  1.4289  0.8190  3.0253
  271SOL    HW2  813   0.172   0.719   0.253 -1.5571 -1.2454  0.6959
  272SOL     OW  814   2.302   1.185   2.443 -0.1132  0.0960 -0.1505
  272SOL    HW1  815   2.258   1.193   2.353  0.1377 -1.2394 -1.3554
  272SOL    HW2  816   2.356   1.098   2.454 -0.4568 -0.5089 -0.0295
  273SOL     OW  817   3.079   0.441   2.225 -0.3768 -0.0336  0.2850
  273SOL    HW1  818   0.060   0.367   2.239  4.1056 -2.6959 -0.8712
  273SOL    HW2  819   3.084   0.469   2.124 -0.1093 -2.1744 -0.6927
  274SOL     OW  820   2.654   0.260   1.946 -0.0244 -0.1076 -0.5235
  274SOL    HW1  821   2.570   0.219   1.984 -1.6982  0.3830  0.8127
  274SOL    HW2  822   2.686   0.207   1.866 -0.6045  0.4055  1.8041
  275SOL     OW  823   1.792   1.357   0.270 -0.0489 -0.2275  0.0290
  275SOL    HW1  824   1.794   1.362   0.170 -0.5872 -1.5820  0.2637
  275SOL    HW2  825   1.697   1.342   0.310  1.7525 -1.3049  1.2338
  276SOL     OW  826   0.208   1.127   2.793 -0.0310  0.7401  0.0608
  276SOL    HW1  827   0.134   1.055   2.805 -1.7142 -1.0814  1.9001
  276SOL    HW2  828   0.160   1.218   2.784 -1.1025 -0.8952 -1.6083
  277SOL     OW  829   1.885   2.760   2.180  0.3870  0.1842  0.8113
  277SOL    HW1  830   1.980   2.728   2.198  2.2809  2.4645  3.3396
  277SOL    HW2  831   1.870   2.832   2.250 -1.3458 -0.9154 -0.0847
  278SOL     OW  832   1.684   3.084   1.344  0.0578  0.1184  0.1108
  278SOL    HW1  833   1.767   3.042   1.390  2.0089  2.4783 -0.7236
  278SOL    HW2  834   1.625   0.024   1.422 -0.5235 -0.3225 -1.5371
  279SOL     OW  835   1.029   1.357   2.830  0.1896  0.3283 -0.1462
  279SOL    HW1  836   1.117   1.412   2.831  1.4810  0.3921 -1.0275
  279SOL    HW2  837   0.968   1.392   2.901 -1.5624  0.5150 -1.3197
  280SOL     OW  838   0.847   1.246   0.420  0.5237  0.3517  0.3513
  280SOL    HW1  839   0.914   1.325   0.410 -0.6907  1.7212 -2.7967
  280SOL    HW2  840   0.899   1.165   0.444 -1.0448 -0.6511  0.4165
  281SOL     OW  841   0.263   3.079   1.623 -0.2121  0.2405  0.0123
  281SOL    HW1  842   0.302   3.022   1.696  0.7314  0.7076  0.4629
  281SOL    HW2  843   0.311   3.069   1.533  2.6986  0.0783  0.5525
  282SOL     OW  844   0.124   2.168   1.022  0.0827 -0.2643 -0.2713
  282SOL    HW1  845   0.215   2.172   0.974 -1.8961 -0.4547  0.4643
  282SOL    HW2  846   0.127   2.103   1.103  0.4851  0.7981  0.2215
  283SOL     OW  847   1.303   2.301   2.032 -0.8920  0.0755 -0.8060
  283SOL    HW1  848   1.249   2.380   2.072 -1.7694  0.9835 -1.1968
  283SOL    HW2  849   1.390   2.333   1.987 -1.2522 -2.5195 -0.9990
  284SOL     OW  850   2.430   0.962   0.327 -0.5716 -0.3647 -0.0877
  284SOL    HW1  851   2.452   0.905   0.410 -1.0428  1.0687 -0.2289
  284SOL    HW2  852   2.511   0.958   0.258  3.2578  1.1969 -1.8228
  285SOL     OW  853   2.950   2.796   2.687  0.5782  0.1700 -0.4213
  285SOL    HW1  854   2.902   2.737   2.615 -2.0630 -0.1381  0.7924
  285SOL    HW2  855   3.000   2.875   2.650  2.1004 -3.7860  0.1481
  286SOL     OW  856   2.064   2.587   0.989 -0.2050  0.1164 -0.4096
  286SOL    HW1  857   2.053   2.683   1.021  1.4414 -2.3701  1.0972
  286SOL    HW2  858   2.011   2.520   1.048 -0.4455  2.4456 -3.0063
  287SOL     OW  859   0.623   1.476   1.128  0.2193 -0.0822 -0.3722
  287SOL    HW1  860   0.702   1.497   1.065  2.0493 -0.5996 -0.5733
  287SOL    HW2  861   0.630   1.382   1.165  4.0668 -0.8448  0.7995
  288SOL     OW  862   1.584   2.259   3.086  0.2906  0.6726 -0.0027
  288SOL    HW1  863   1.594   2.169   0.047  0.1011  1.1289  0.3723
  288SOL    HW2  864   1.675   2.274   3.038  1.5603  3.5679 -1.2241
  289SOL     OW  865   0.381   2.011   2.616  0.6940  0.5875  0.1871
  289SOL    HW1  866   0.393   2.111   2.613 -0.1016  0.0501 -1.0463
  289SOL    HW2  867   0.388   1.979   2.519  0.7430  0.2406 -1.4913
  290SOL     OW  868   1.522   2.185   0.930  0.3100 -0.4066  0.1789
  290SOL    HW1  869   1.429   2.221   0.917  0.3071  1.5341 -0.3982
  290SOL    HW2  870   1.548   2.136   0.846  0.3877  3.7258 -0.3729
  291SOL     OW  871   1.498   1.429   3.016  0.0311 -0.5414 -0.0391
  291SOL    HW1  872   1.553   1.379   2.947 -3.1167 -1.2961  0.5869
  291SOL    HW2  873   1.552   1.505   3.058 -1.3561 -0.4351 -0.6116
  292SOL     OW  874   1.477   1.544   1.296 -0.1832  0.3934 -0.1397
  292SOL    HW1  875   1.472   1.527   1.191 -0.4328 -1.9598 -1.4039
  292SOL    HW2  876   1.439   1.633   1.320  1.5165 -2.3267 -2.1359
  293SOL     OW  877   1.851   2.968   0.821 -1.0205  0.3246 -0.3501
  293SOL    HW1  878   1.941   2.971   0.863 -3.3516 -1.5235  0.1207
  293SOL    HW2  879   1.826   2.869   0.802 -1.3595  0.7358  0.1616
  294SOL     OW  880   2.984   1.521   2.651  0.1646  0.5088 -0.3238
  294SOL    HW1  881   2.899   1.563   2.677  1.4770  0.3360  0.9047
  294SOL    HW2  882   2.961   1.435   2.607  1.3465  1.6502  1.8559
  295SOL     OW  883   1.186   2.206   2.734 -0.4614 -0.3670 -0.3588
  295SOL    HW1  884   1.226   2.228   2.643 -0.0227 -2.0847  0.5739
  295SOL    HW2  885   1.254   2.231   2.811 -0.2810 -1.7258 -3.0111
  296SOL     OW  886   1.604   1.394   2.055 -0.6603  0.3181 -0.3680
  296SOL    HW1  887   1.682   1.335   2.033  0.8807  0.3923 -2.1021
  296SOL    HW2  888   1.515   1.375   2.003 -2.0003 -1.6797  1.0009
  297SOL     OW  889   2.883   0.717   2.462 -0.2591  0.0960  0.4824
  297SOL    HW1  890   2.973   0.699   2.414 -1.5927 -0.8985 -0.8397
  297SOL    HW2  891   2.805   0.697   2.399 -1.1826  0.9037 -0.7965
  298SOL     OW  892   0.929   2.412   2.269 -0.0649  0.0334  0.5480
  298SOL    HW1  893   0.850   2.471   2.284 -2.8580  0.2352 -0.8359
  298SOL    HW2  894   0.893   2.334   2.211 -0.2313  0.3339 -1.7198
  299SOL     OW  895   0.790   2.741   2.629  0.1248  0.0813 -0.2983
  299SOL    HW1  896   0.760   2.795   2.548  1.2683 -0.0263  2.3099
  299SOL    HW2  897   0.738   2.775   2.711 -0.9208 -1.3232 -0.7732
  300SOL     OW  898   2.966   0.579   2.948  0.0114  0.9051  0.0681
  300SOL    HW1  899   2.906   0.496   2.956 -0.5339  0.0314 -1.5680
  300SOL    HW2  900   3.060   0.556   2.976 -2.6702  0.8458 -1.0970
  301SOL     OW  901   1.675   0.702   1.433 -0.3701  0.2476  0.4519
  301SOL    HW1  902   1.646   0.612   1.465 -0.6515  2.4304 -1.5659
  301SOL    HW2  903   1.593   0.744   1.395 -1.8817  1.7776 -0.6558
  302SOL     OW  904   2.639   1.970   2.823  0.0962  0.6025  0.3769
  302SOL    HW1  905   2.632   1.959   2.719 -0.1901 -0.6160  2.1907
  302SOL    HW2  906   2.717   1.908   2.854  1.9474  3.6942 -1.6334
  303SOL     OW  907   0.066   0.161   2.489 -0.2858  0.0707 -0.5418
  303SOL    HW1  908   0.105   0.210   2.409 -0.2197 -2.9074 -1.1024
  303SOL    HW2  909   0.043   0.233   2.560  0.4598  0.5054 -0.1756
  304SOL     OW  910   2.930   0.728   1.499  0.4230 -0.5593 -0.4475
  304SOL    HW1  911   2.964   0.817   1.466  0.2521 -0.6853  2.9381
  304SOL    HW2  912   2.871   0.693   1.426  0.5300 -0.2476  1.3503
  305SOL     OW  913   0.075   0.100   1.957 -0.4464 -0.0792  0.1965
  305SOL    HW1  914   0.025   0.049   2.030  2.3762 -1.4711  3.0600
  305SOL    HW2  915   0.009   0.145   1.893 -0.8409  0.7320 -2.3142
  306SOL     OW  916   2.782   1.425   1.500  0.6391  0.6110  0.0063
  306SOL    HW1  917   2.851   1.395   1.573 -0.0496  0.2000  3.4424
  306SOL    HW2  918   2.719   1.347   1.474 -0.5084  2.6260  2.4464
  307SOL     OW  919   1.967   0.260   1.127  0.0056  0.5747 -0.0475
  307SOL    HW1  920   1.892   0.297   1.189 -1.1288 -2.2306  3.5431
  307SOL    HW2  921   1.925   0.210   1.049 -0.3802  1.7972  1.2751
  308SOL     OW  922   0.346   2.021   1.360  0.4783  0.0698  0.7600
  308SOL    HW1  923   0.296   1.967   1.283 -0.7159 -0.8541 -0.9376
  308SOL    HW2  924   0.306   2.114   1.372  2.4336 -0.3985  0.2692
  309SOL     OW  925   2.446   1.765   1.560  0.2029 -0.0565  0.5377
  309SOL    HW1  926   2.372   1.695   1.543  1.3065 -1.4140 -0.7360
  309SOL    HW2  927   2.402   1.845   1.607 -1.7269 -1.0279  1.2561
  310SOL     OW  928   2.618   1.635   0.067 -0.5321 -0.3847 -0.6254
  310SOL    HW1  929   2.710   1.679   0.060 -1.4016  2.5718 -0.5030
  310SOL    HW2  930   2.556   1.690   0.124  0.5767 -1.4289 -1.1096
  311SOL     OW  931   2.288   1.463   2.475  0.0785  0.3536 -0.0517
  311SOL    HW1  932   2.302   1.362   2.457  1.1113 -1.4139 -0.6402
  311SOL    HW2  933   2.226   1.481   2.553  0.3388 -2.3254 -0.6240
  312SOL     OW  934   2.178   2.275   1.128 -0.0767 -0.3912  0.3815
  312SOL    HW1  935   2.163   2.176   1.136  0.6167  1.3965  0.3570
  312SOL    HW2  936   2.264   2.299   1.077  0.8406 -0.3998 -0.6937
  313SOL     OW  937   2.996   2.474   1.094 -0.5879  0.1250  0.0060
  313SOL    HW1  938   3.051   2.465   1.011  1.1374 -1.1484  0.7845
  313SOL    HW2  939   2.903   2.511   1.079 -2.7390  0.2799 -1.3823
  314SOL     OW  940   1.188   1.954   1.367 -0.3805 -0.3205 -0.0866
  314SOL    HW1  941   1.160   2.048   1.369  0.5624  0.8039  0.7706
  314SOL    HW2  942   1.180   1.911   1.458  1.8532  2.0304 -0.8168
  315SOL     OW  943   0.474   3.044   2.301 -0.1248  0.4862 -0.5191
  315SOL    HW1  944   0.558   0.010   2.302  0.2627 -0.8140 -0.1680
  315SOL    HW2  945   0.393   0.014   2.277 -2.3558  0.5276  0.2283
  316SOL     OW  946   2.925   1.838   0.950  0.0889 -0.1101 -0.0270
  316SOL    HW1  947   3.009   1.819   0.898  0.0274  1.5100  1.1165
  316SOL    HW2  948   2.862   1.759   0.970 -2.5463 -0.5515  0.1171
  317SOL     OW  949   1.770   0.235   0.222  0.8206  0.1366 -0.0724
  317SOL    HW1  950   1.677   0.230   0.268 -1.7305 -1.0968  1.1662
  317SOL    HW2  951   1.847   0.250   0.291 -0.2122 -3.8284  0.5199
  318SOL     OW  952   2.770   2.497   0.150  0.2462 -0.2287  0.1741
  318SOL    HW1  953   2.720   2.558   0.087 -0.2248 -1.8669  1.5756
  318SOL    HW2  954   2.790   2.555   0.235  0.3459  0.0822  1.3345
  319SOL     OW  955   1.442   1.543   0.251 -0.8551 -0.3323 -0.8509
  319SOL    HW1  956   1.449   1.601   0.334 -0.2222 -2.7923 -0.3522
  319SOL    HW2  957   1.491   1.587   0.174 -3.2152 -0.3889  0.4381
  320SOL     OW  958   0.570   2.972   2.626  0.9110 -0.4771  0.1158
  320SOL    HW1  959   0.625   2.934   2.700 -1.3193 -2.4356 -5.4334
  320SOL    HW2  960   0.509   2.895   2.593  1.6721  1.4599 -3.2835
  321SOL     OW  961   0.915   3.085   0.079 -0.4805  0.5546 -0.0634
  321SOL    HW1  962   0.910   2.987   0.115 -1.6828 -3.8935  0.0984
  321SOL    HW2  963   0.924   3.075   3.065  2.1529 -1.3001 -0.6869
  322SOL     OW  964   2.380   1.031   2.009  0.1276 -0.5432  0.3560
  322SOL    HW1  965   2.317   0.994   2.081  0.3159 -1.5202  1.4380
  322SOL    HW2  966   2.405   1.125   2.032 -1.2256 -2.5792  0.3366
  323SOL     OW  967   2.691   0.950   0.460  0.5176 -0.1318  0.2820
  323SOL    HW1  968   2.638   0.866   0.479 -1.2870  0.7034 -0.9578
  323SOL    HW2  969   2.689   0.982   0.364 -0.0574  0.7947  2.1511
  324SOL     OW  970   0.144   0.621   2.653  0.1916  0.9884 -0.2659
  324SOL    HW1  971   0.151   0.617   2.754 -0.3897  0.2081  1.3271
  324SOL    HW2  972   0.236   0.634   2.614 -2.1463 -1.0473 -0.3614
  325SOL     OW  973   1.373   2.858   1.936 -0.1162 -0.2076  0.5368
  325SOL    HW1  974   1.443   2.875   1.863  0.6939 -2.2043  2.5620
  325SOL    HW2  975   1.286   2.909   1.924  1.1419 -0.7348  1.5255
  326SOL     OW  976   2.532   2.936   1.277  0.3158  0.4870  0.3627
  326SOL    HW1  977   2.585   3.018   1.241 -1.2303 -2.6966  1.0224
  326SOL    HW2  978   2.464   2.899   1.211 -0.9993 -0.6135  0.3773
  327SOL     OW  979   1.910   0.678   3.036  0.0057 -0.1825 -0.2603
  327SOL    HW1  980   1.823   0.627   3.047 -2.9356  0.4476  1.0136
  327SOL    HW2  981   1.987   0.616   3.012 -0.5612 -1.5752 -0.6965
  328SOL     OW  982   2.799   1.651   2.171 -0.3374 -0.1062 -0.4306
  328SOL    HW1  983   2.854   1.712   2.234 -0.5629 -1.0804 -1.0536
  328SOL    HW2  984   2.831   1.554   2.189  0.3063 -1.6390 -0.2390
  329SOL     OW  985   1.813   2.600   1.767 -0.3927  0.7222 -0.6129
  329SOL    HW1  986   1.714   2.612   1.774  2.7151  1.9503 -2.5780
  329SOL    HW2  987   1.833   2.520   1.707 -2.2953 -0.8763 -0.0575
  330SOL     OW  988   2.567   1.511   1.855 -0.1672 -0.0952  0.2153
  330SOL    HW1  989   2.623   1.563   1.785 -0.4576  2.3478  1.0974
  330SOL    HW2  990   2.546   1.571   1.937 -0.0897 -1.2466 -1.5841
  331SOL     OW  991   0.031   2.052   0.749  0.4541 -0.1672 -0.2738
  331SOL    HW1  992   0.072   1.982   0.814 -1.3391  0.8369  0.6835
  331SOL    HW2  993   3.074   2.127   0.806 -2.6423  0.6783  3.4680
  332SOL     OW  994   0.362   0.192   0.473  0.5463  0.6444 -0.3979
  332SOL    HW1  995   0.291   0.187   0.403 -0.6017 -2.9339  0.6558
  332SOL    HW2  996   0.388   0.286   0.497 -1.3752  1.1061  0.6954
  333SOL     OW  997   2.180   2.926   2.284  0.7245  0.5823  0.3901
  333SOL    HW1  998   2.210   2.832   2.250 -0.8746 -2.2693 -1.6389
  333SOL    HW2  999   2.179   2.995   2.210  0.5799  0.1358 -0.2208
  334SOL     OW 1000   0.836   1.523   0.973  0.6335 -0.1256  0.1429
  334SOL    HW1 1001   0.800   1.496   0.878 -2.4070 -2.3897 -2.9149
  334SOL    HW2 1002   0.935   1.523   0.977 -2.2015  0.1788  1.9170
  335SOL     OW 1003   0.082   2.804   2.319  0.1458 -0.3693  0.6342
  335SOL    HW1 1004   0.183   2.789   2.303  3.4457 -1.7352  0.9213
  335SOL    HW2 1005   0.038   2.720   2.354  0.5740 -0.1884 -0.1178
  336SOL     OW 1006   2.952   2.779   1.912  0.7416  0.3326 -0.4122
  336SOL    HW1 1007   2.995   2.825   1.990  1.4642 -0.6235  2.8242
  336SOL    HW2 1008   2.981   2.819   1.826 -2.8071 -4.1761  0.5398
  337SOL     OW 1009   2.049   1.422   0.738  0.3132 -0.2934  0.2549
  337SOL    HW1 1010   2.131   1.396   0.794 -0.4361  0.2239  2.0543
  337SOL    HW2 1011   1.995   1.336   0.727 -2.0551  1.0032  1.7521
  338SOL     OW 1012   1.165   1.636   1.259 -0.0853  0.1344  0.3253
  338SOL    HW1 1013   1.087   1.624   1.318 -1.4611  0.8029 -1.4778
  338SOL    HW2 1014   1.221   1.719   1.279  1.5516  1.8793 -1.0638
  339SOL     OW 1015   2.880   0.696   1.073 -0.1301  0.0050 -0.3619
  339SOL    HW1 1016   2.958   0.634   1.081 -1.1928  0.4896 -2.1754
  339SOL    HW2 1017   2.832   0.708   1.168 -0.0577  1.9371  2.8339
  340SOL     OW 1018   1.775   2.834   1.949 -0.2788 -0.0313 -0.5191
  340SOL    HW1 1019   1.787   2.761   1.883 -0.9441 -1.0492  1.8249
  340SOL    HW2 1020   1.822   2.802   2.036 -0.0710 -1.2713  0.2326
  341SOL     OW 1021   2.301   1.329   0.860  0.4486  0.4633 -0.0183
  341SOL    HW1 1022   2.385   1.382   0.852 -3.4685 -1.0417 -0.0975
  341SOL    HW2 1023   2.294   1.286   0.951  1.2233 -0.5118  1.0105
  342SOL     OW 1024   0.092   1.766   0.825  0.2106  0.4162  0.0158
  342SOL    HW1 1025   0.188   1.750   0.858  1.1161  1.7586  1.5064
  342SOL    HW2 1026   0.072   1.702   0.744  1.0125  0.3590  0.1556
  343SOL     OW 1027   2.632   1.211   1.419 -0.2421  0.0623  0.2770
  343SOL    HW1 1028   2.539   1.242   1.379 -0.3533  1.6827 -0.9793
  343SOL    HW2 1029   2.639   1.204   1.519 -1.2117  2.4035 -1.7819
  344SOL     OW 1030   2.141   0.487   0.829  0.2680  0.3703  0.0522
  344SOL    HW1 1031   2.065   0.418   0.837 -1.5773 -0.3739 -0.8306
  344SOL    HW2 1032   2.140   0.555   0.905  0.0119 -1.2987 -1.1391
  345SOL     OW 1033   3.023   2.987   2.120  0.0235  0.4144 -0.0814
  345SOL    HW1 1034   3.062   2.938   2.202  0.2647  1.0841 -0.2002
  345SOL    HW2 1035   2.950   3.056   2.143 -1.4881 -2.2646  0.1527
  346SOL     OW 1036   2.893   1.483   0.207  0.0528  0.2526 -0.2151
  346SOL    HW1 1037   2.870   1.584   0.197 -1.5506  1.3539  0.9850
  346SOL    HW2 1038   2.879   1.431   0.121  2.1074  1.0766  0.6197
  347SOL     OW 1039   1.796   2.682   1.438 -0.4250 -0.1613  0.3455
  347SOL    HW1 1040   1.845   2.629   1.507 -1.9136  1.0997 -2.0151
  347SOL    HW2 1041   1.757   2.621   1.367 -1.2694  0.8461 -3.1348
  348SOL     OW 1042   1.167   1.037   1.709  0.1685  0.7597 -0.9314
  348SOL    HW1 1043   1.150   1.034   1.809  1.5361 -0.0410  1.5086
  348SOL    HW2 1044   1.228   1.112   1.675 -0.1802  0.3988 -0.4234
  349SOL     OW 1045   2.198   1.606   2.252  0.6791 -0.6185  0.3539
  349SOL    HW1 1046   2.233   1.559   2.340  1.4424 -1.7794 -0.6502
  349SOL    HW2 1047   2.272   1.669   2.224 -0.3703  0.1789  0.3747
  350SOL     OW 1048   2.766   2.241   0.523 -0.1690 -0.0820 -0.5028
  350SOL    HW1 1049   2.747   2.213   0.427 -0.8312  1.2248  0.7404
  350SOL    HW2 1050   2.866   2.249   0.537 -1.5904  1.5113 -1.9028
  351SOL     OW 1051   0.303   0.247   1.701 -0.5596 -0.1976  0.1027
  351SOL    HW1 1052   0.256   0.164   1.662 -1.4419  5.2425  0.3121
  351SOL    HW2 1053   0.239   0.303   1.754  0.2333 -1.7990  1.5488
  352SOL     OW 1054   1.321   2.546   1.647  0.3453 -0.2700  0.3416
  352SOL    HW1 1055   1.245   2.612   1.639  1.2454 -1.4956  1.9395
  352SOL    HW2 1056   1.390   2.591   1.702  0.1632  0.5806  0.6071
  353SOL     OW 1057   0.652   1.354   2.515 -0.0536 -0.0408  0.3201
  353SOL    HW1 1058   0.701   1.420   2.576  0.0816 -0.2870  0.4955
  353SOL    HW2 1059   0.567   1.322   2.557 -0.7776  0.3993 -0.4339
  354SOL     OW 1060   1.373   1.664   0.506 -0.4939  0.0042 -0.4708
  354SOL    HW1 1061   1.411   1.731   0.568 -1.3302 -2.6795  0.6557
  354SOL    HW2 1062   1.269   1.674   0.505 -3.2292 -2.1737 -0.3834
  355SOL     OW 1063   1.827   0.129   0.929 -0.5396  0.2544 -0.4410
  355SOL    HW1 1064   1.731   0.160   0.943  1.1282 -0.7359  0.7024
  355SOL    HW2 1065   1.836   0.035   0.884 -0.6859  0.1254 -3.2500
  356SOL     OW 1066   0.047   1.319   0.038  0.2038 -0.2440 -0.5223
  356SOL    HW1 1067   0.093   1.234   0.069 -2.5922 -0.2752 -1.6379
  356SOL    HW2 1068   3.058   1.294   3.068  3.2983  2.0256  0.5268
  357SOL     OW 1069   0.395   2.947   1.824  0.4111 -0.0068 -0.3688
  357SOL    HW1 1070   0.439   3.007   1.893  0.5443 -3.9121 -1.8084
  357SOL    HW2 1071   0.307   2.901   1.858  3.2517  1.0004  1.3689
  358SOL     OW 1072   0.296   1.403   2.973  0.2272  0.0658  0.5263
  358SOL    HW1 1073   0.201   1.371   2.961  0.9231  0.1851  1.6026
  358SOL    HW2 1074   0.345   1.357   3.047 -0.9461  3.1817 -4.1322
  359SOL     OW 1075   2.642   2.489   2.564 -0.6130  0.2466  0.2704
  359SOL    HW1 1076   2.604   2.505   2.659  1.5616  1.1878  1.2058
  359SOL    HW2 1077   2.689   2.573   2.534 -0.8650  0.5046 -0.1621
  360SOL     OW 1078   1.803   1.424   1.076 -0.2068  0.2055 -0.3614
  360SOL    HW1 1079   1.756   1.449   0.992  1.1779 -1.7957  2.2571
  360SOL    HW2 1080   1.783   1.495   1.147  2.5991  0.6334  1.3528
  361SOL     OW 1081   2.004   2.445   1.251  0.4821 -0.0669 -0.7645
  361SOL    HW1 1082   2.055   2.371   1.207  1.1448  2.0323 -0.0942
  361SOL    HW2 1083   2.072   2.504   1.299 -0.1924  3.1851 -0.1660
  362SOL     OW 1084   1.679   1.527   0.858  0.1126  0.5076  0.1427
  362SOL    HW1 1085   1.724   1.596   0.793  0.0352  1.8432 -2.9393
  362SOL    HW2 1086   1.617   1.469   0.801  1.3889 -0.7895 -0.2382
  363SOL     OW 1087   2.446   2.213   0.365  0.7426  0.8434 -0.1643
  363SOL    HW1 1088   2.448   2.215   0.466  0.3881 -1.6965 -1.7762
  363SOL    HW2 1089   2.522   2.152   0.330  2.9268 -4.2486  2.0265
  364SOL     OW 1090   2.878   0.207   1.257  0.0954 -0.2638 -0.1240
  364SOL    HW1 1091   2.929   0.266   1.318 -0.0781 -0.9853 -0.9057
  364SOL    HW2 1092   2.918   0.113   1.258  0.9164 -1.4642  2.2521
  365SOL     OW 1093   0.828   2.618   1.074 -0.1179 -0.2669 -0.1844
  365SOL    HW1 1094   0.779   2.589   0.993  1.2784  0.3612  1.6618
  365SOL    HW2 1095   0.879   2.543   1.120  1.5407  0.6054  1.1467
  366SOL     OW 1096   0.451   1.691   0.641  0.4812 -0.2134  0.4156
  366SOL    HW1 1097   0.378   1.624   0.655 -0.1001  1.1982 -0.4246
  366SOL    HW2 1098   0.457   1.713   0.543  1.4528  1.2447 -1.5337
  367SOL     OW 1099   2.547   2.505   2.815 -0.1033 -0.1639  0.3134
  367SOL    HW1 1100   2.469   2.575   2.819 -1.0319  0.9304 -1.2403
  367SOL    HW2 1101   2.526   2.424   2.876 -0.2234 -1.4167 -1.5622
  368SOL     OW 1102   2.502   2.094   0.897  0.0862 -0.4161 -0.2907
  368SOL    HW1 1103   2.470   2.029   0.970  1.2315 -1.2779 -1.9766
  368SOL    HW2 1104   2.596   2.073   0.866 -0.4743  2.2372 -1.4282
  369SOL     OW 1105   0.991   1.044   0.541  0.0786  0.4017  0.3976
  369SOL    HW1 1106   0.953   0.951   0.548  1.0610  0.3604 -0.5925
  369SOL    HW2 1107   1.069   1.045   0.475  1.8642 -0.8293  1.7968
  370SOL     OW 1108   0.520   2.949   0.824  0.3050  0.3898  0.2209
  370SOL    HW1 1109   0.619   2.948   0.852 -1.5739  2.4143  2.1234
  370SOL    HW2 1110   0.486   2.859   0.788 -2.5863  1.6962  0.8275
  371SOL     OW 1111   2.547   1.350   2.710 -0.2571  0.2474  0.1799
  371SOL    HW1 1112   2.554   1.386   2.614 -0.4175 -0.7396 -1.7942
  371SOL    HW2 1113   2.586   1.256   2.719  0.0404  1.2346 -3.0454
  372SOL     OW 1114   0.732   0.594   2.213 -0.1288 -0.1742  0.5540
  372SOL    HW1 1115   0.695   0.594   2.118 -0.4377  2.3697 -1.5512
  372SOL    HW2 1116   0.696   0.514   2.266 -0.0708  0.8790  2.6774
  373SOL     OW 1117   0.657   0.431   2.803  0.2261  0.1746 -0.1241
  373SOL    HW1 1118   0.694   0.525   2.781  1.7685 -3.4685 -0.3988
  373SOL    HW2 1119   0.731   0.366   2.812 -1.1686 -0.1540 -0.6325
  374SOL     OW 1120   0.950   2.167   0.167  0.1512  0.3675 -0.1227
  374SOL    HW1 1121   1.024   2.168   0.094 -1.1970 -0.2431 -1.6869
  374SOL    HW2 1122   0.855   2.168   0.125 -0.5228 -0.3877  0.5785
  375SOL     OW 1123   0.787   3.016   0.889  0.1901  0.4314  0.4746
  375SOL    HW1 1124   0.841   2.995   0.972  0.2476  3.2127 -2.9028
  375SOL    HW2 1125   0.797   0.027   0.861 -0.6652  2.0059 -0.3157
  376SOL     OW 1126   0.342   2.538   1.866  0.1801  0.2370 -0.4207
  376SOL    HW1 1127   0.278   2.561   1.942 -3.5020 -1.9377 -0.5953
  376SOL    HW2 1128   0.442   2.528   1.898  1.5649 -1.4267 -3.7206
  377SOL     OW 1129   2.245   1.913   0.008  0.1856 -0.4638  0.3280
  377SOL    HW1 1130   2.210   2.008   3.080  0.6247 -3.5419  0.6428
  377SOL    HW2 1131   2.307   1.894   3.014 -3.0734 -0.3292  2.0750
  378SOL     OW 1132   1.952   0.240   0.419 -0.1345  0.6705 -0.0308
  378SOL    HW1 1133   1.968   0.335   0.455 -2.9448  1.2406 -1.7617
  378SOL    HW2 1134   1.981   0.169   0.492  2.3188  1.3504  2.0980
  379SOL     OW 1135   1.357   0.998   0.835  1.0505  0.0435  0.1425
  379SOL    HW1 1136   1.293   1.076   0.820  0.8938  0.4374  1.5099
  379SOL    HW2 1137   1.384   0.960   0.743  0.8674  1.0922 -1.2947
  380SOL     OW 1138   2.486   2.174   1.930  0.2486 -0.0591 -0.2974
  380SOL    HW1 1139   2.514   2.078   1.949  1.7601 -0.1699  0.7010
  380SOL    HW2 1140   2.523   2.207   1.842  1.6955  1.6276  1.6169
  381SOL     OW 1141   2.850   1.391   2.220  0.4948  0.2172 -0.4092
  381SOL    HW1 1142   2.897   1.385   2.310 -1.5533  0.3724 -2.4513
  381SOL    HW2 1143   2.876   1.322   2.155 -2.0900  0.5174  1.1277
  382SOL     OW 1144   2.982   2.239   3.016  0.1399  0.1451  0.0104
  382SOL    HW1 1145   2.989   2.309   2.942  3.0383 -4.0164 -2.2887
  382SOL    HW2 1146   2.988   2.292   0.019 -1.0821  0.0364  0.2038
  383SOL     OW 1147   1.117   0.980   2.270  0.0682  0.3270  0.2551
  383SOL    HW1 1148   1.038   1.004   2.209  1.8879  0.7268  0.9057
  383SOL    HW2 1149   1.097   0.919   2.349 -3.1112  0.8395  1.5565
  384SOL     OW 1150   1.217   2.196   2.298  0.2159  0.4693  0.3546
  384SOL    HW1 1151   1.247   2.227   2.208  2.5112  0.1217  0.0141
  384SOL    HW2 1152   1.197   2.098   2.308  2.1752 -3.8933  3.0179
  385SOL     OW 1153   2.288   2.547   0.006 -0.1946 -0.3690  0.7467
  385SOL    HW1 1154   2.273   2.481   3.016  2.0837 -1.3744 -0.3762
  385SOL    HW2 1155   2.339   2.503   0.079  0.8493 -0.3499  0.8084
  386SOL     OW 1156   1.369   1.196   0.546 -0.4899 -0.1852 -0.4280
  386SOL    HW1 1157   1.305   1.199   0.624  2.1649 -0.8598 -0.4596
  386SOL    HW2 1158   1.419   1.109   0.545 -2.7867  2.1892  2.2786
  387SOL     OW 1159   0.127   1.723   1.822 -0.6035  0.1496 -0.1002
  387SOL    HW1 1160   0.081   1.662   1.886  0.4737  0.8574 -2.6384
  387SOL    HW2 1161   0.161   1.665   1.738  0.8065  0.1334 -4.5776
  388SOL     OW 1162   0.635   1.254   1.514  0.0549 -0.6178 -0.4984
  388SOL    HW1 1163   0.733   1.240   1.550  2.1601 -0.1844  0.0747
  388SOL    HW2 1164   0.618   1.220   1.418  1.5433  0.9023 -2.2797
  389SOL     OW 1165   2.236   0.941   2.218  0.0571  0.5171 -0.0262
  389SOL    HW1 1166   2.304   0.932   2.293  1.1199 -0.7807  0.6270
  389SOL    HW2 1167   2.168   1.017   2.221  0.6235 -5.8113 -4.7046
  390SOL     OW 1168   1.182   1.850   0.334  0.0778  0.8410  0.4345
  390SOL    HW1 1169   1.144   1.946   0.338 -2.0001 -0.3063  0.8158
  390SOL    HW2 1170   1.148   1.794   0.411  2.4045  2.4965 -0.4476
  391SOL     OW 1171   1.084   1.973   0.653 -0.6397  0.2445  0.1880
  391SOL    HW1 1172   1.121   1.894   0.704 -0.0439 -3.1143 -1.6043
  391SOL    HW2 1173   0.999   1.946   0.609 -0.0591  2.2429 -0.9557
  392SOL     OW 1174   2.655   2.667   2.162  0.4040 -0.5268  0.4789
  392SOL    HW1 1175   2.576   2.674   2.225 -1.3875 -0.6033  0.2918
  392SOL    HW2 1176   2.712   2.593   2.197 -4.4961  2.1683 -0.7285
  393SOL     OW 1177   1.380   2.273   2.899 -0.0245 -0.2996  0.4168
  393SOL    HW1 1178   1.449   2.263   2.971  2.1378 -0.1623  0.1016
  393SOL    HW2 1179   1.388   2.364   2.854  0.4049 -0.3018  0.9800
  394SOL     OW 1180   0.194   0.297   2.291 -0.1058 -0.4963 -0.3715
  394SOL    HW1 1181   0.255   0.373   2.314  1.8836 -2.7780  0.0114
  394SOL    HW2 1182   0.236   0.238   2.215  0.2915  0.5523 -0.7506
  395SOL     OW 1183   0.082   0.844   1.192 -0.8418 -0.6440  0.5183
  395SOL    HW1 1184   0.152   0.915   1.192  0.4025  0.1786 -0.4363
  395SOL    HW2 1185   0.055   0.821   1.093  2.7314  0.9332  0.4332
  396SOL     OW 1186   2.140   1.503   2.708 -0.0993 -0.4203  0.3330
  396SOL    HW1 1187   2.109   1.415   2.754 -1.2133  0.2936 -1.6901
  396SOL    HW2 1188   2.068   1.575   2.702  0.8404 -0.9797  1.8261
  397SOL     OW 1189   0.449   0.894   2.850  0.6163 -0.1763 -0.1656
  397SOL    HW1 1190   0.369   0.900   2.783 -0.7254 -1.7372 -1.2469
  397SOL    HW2 1191   0.524   0.960   2.830  3.1759 -0.6236  1.8495
  398SOL     OW 1192   0.947   2.610   0.426 -0.5094 -0.1320 -0.3312
  398SOL    HW1 1193   1.052   2.601   0.405  3.6338 -1.0394 -1.7733
  398SOL    HW2 1194   0.915   2.702   0.402  0.1458  1.5097  1.4956
  399SOL     OW 1195   2.135   2.655   2.191  0.2365 -0.6351 -0.1320
  399SOL    HW1 1196   2.148   2.604   2.277  0.5015  2.6004 -1.1668
  399SOL    HW2 1197   2.160   2.583   2.123  3.1087 -1.5260  0.3532
  400SOL     OW 1198   0.339   1.317   1.902 -0.2177 -0.2533  0.1124
  400SOL    HW1 1199   0.316   1.241   1.963 -0.3900 -0.4208 -2.1904
  400SOL    HW2 1200   0.323   1.411   1.945  0.3499  0.3441  1.4097
  401SOL     OW 1201   0.592   0.997   0.600  0.3333  0.0567 -0.2658
  401SOL    HW1 1202   0.591   0.906   0.652 -1.8372  0.4616 -1.1668
  401SOL    HW2 1203   0.591   0.978   0.502 -0.0446  0.4717  3.9080
  402SOL     OW 1204   0.817   3.064   2.279  0.1295  0.1928  0.5035
  402SOL    HW1 1205   0.839   0.009   2.376  1.3700  0.4413  2.6030
  402SOL    HW2 1206   0.809   0.055   2.211 -0.6809 -0.1495  1.7526
  403SOL     OW 1207   2.638   1.942   1.904  0.0270 -0.2295 -0.2122
  403SOL    HW1 1208   2.590   1.858   1.943  0.4526 -0.3190  1.3030
  403SOL    HW2 1209   2.714   1.909   1.850  2.0641 -0.1312  2.9664
  404SOL     OW 1210   2.640   2.274   1.658  0.2124 -0.3073 -0.6964
  404SOL    HW1 1211   2.726   2.325   1.652  1.4687 -2.3045 -2.8184
  404SOL    HW2 1212   2.657   2.175   1.634 -0.0001 -0.9015  1.0830
  405SOL     OW 1213   1.912   0.014   2.691  0.0428  0.0509  0.1733
  405SOL    HW1 1214   1.843   0.021   2.616 -0.6855 -0.7138 -4.3686
  405SOL    HW2 1215   2.008   0.022   2.659  1.1350  1.7482  0.2277
  406SOL     OW 1216   1.271   1.754   0.093 -0.1396 -0.5984  0.0246
  406SOL    HW1 1217   1.361   1.798   0.090 -0.3930 -0.4759  1.9485
  406SOL    HW2 1218   1.224   1.781   0.179 -2.9551 -0.6617  2.0108
  407SOL     OW 1219   1.536   1.318   0.361  0.0702  0.2729 -0.6230
  407SOL    HW1 1220   1.495   1.407   0.334 -0.9112  2.9624  0.0423
  407SOL    HW2 1221   1.485   1.282   0.444  1.6254  1.5652  3.2226
  408SOL     OW 1222   0.160   0.486   1.526 -0.1006  0.2011  0.0211
  408SOL    HW1 1223   0.140   0.535   1.614  1.0205  0.9238  1.2677
  408SOL    HW2 1224   0.256   0.448   1.527  0.3312 -1.6869  0.2857
  409SOL     OW 1225   2.711   1.373   0.009 -0.2597  0.3652  0.0939
  409SOL    HW1 1226   2.661   1.290   3.075 -1.8476  1.1985  1.1266
  409SOL    HW2 1227   2.657   1.431   0.076 -0.0674  0.0962  3.1885
  410SOL     OW 1228   2.704   2.737   0.641  0.1704 -0.0387  0.4498
  410SOL    HW1 1229   2.742   2.727   0.735  0.0635  1.2834 -1.8958
  410SOL    HW2 1230   2.673   2.645   0.601  0.0692 -3.0308 -0.8008
  411SOL     OW 1231   0.435   0.368   0.225 -0.3934  0.2426 -0.1489
  411SOL    HW1 1232   0.511   0.364   0.289 -0.7412 -0.6167  0.1544
  411SOL    HW2 1233   0.463   0.351   0.132  2.5169 -1.0346 -1.8032
  412SOL     OW 1234   1.402   2.899   0.464 -0.1620 -0.1040 -0.4732
  412SOL    HW1 1235   1.343   2.918   0.382  0.3410  1.6060  1.0209
  412SOL    HW2 1236   1.351   2.867   0.548  0.5183 -0.0042 -0.8348
  413SOL     OW 1237   1.838   0.675   2.057  0.3633 -0.1167 -0.2464
  413SOL    HW1 1238   1.900   0.737   2.002 -1.5316  0.3402  2.4742
  413SOL    HW2 1239   1.748   0.671   2.011 -2.0952  1.9756 -1.6934
  414SOL     OW 1240   0.130   0.763   0.620 -0.0652 -0.1053 -0.5320
  414SOL    HW1 1241   0.032   0.778   0.640  0.5140  1.1525  1.0261
  414SOL    HW2 1242   0.183   0.848   0.638 -0.2862  0.7840 -2.8277
  415SOL     OW 1243   2.973   1.101   0.259 -0.3272 -0.0408 -0.5622
  415SOL    HW1 1244   2.898   1.175   0.257 -1.8213 -0.3274 -2.2291
  415SOL    HW2 1245   2.939   1.011   0.222  0.8793 -2.4411  1.2278
  416SOL     OW 1246   2.614   0.543   2.786  0.2277 -0.0334  0.3315
  416SOL    HW1 1247   2.563   0.550   2.702  0.1403 -1.4169  0.1171
  416SOL    HW2 1248   2.671   0.627   2.806 -0.7273  3.4081  0.2083
  417SOL     OW 1249   2.271   0.292   0.675  0.6217 -0.0318  0.4139
  417SOL    HW1 1250   2.229   0.368   0.727 -0.7111  0.3619  0.3195
  417SOL    HW2 1251   2.313   0.335   0.596  0.6339 -1.0775  1.5419
  418SOL     OW 1252   0.630   0.014   2.961 -0.7313 -0.3984 -0.1218
  418SOL    HW1 1253   0.624   0.060   3.049 -0.6454 -1.0425 -2.7729
  418SOL    HW2 1254   0.539   3.080   2.924  1.8453  1.4615  1.7243
  419SOL     OW 1255   0.432   0.630   0.942 -0.3854 -0.2126  0.0380
  419SOL    HW1 1256   0.482   0.648   1.030 -0.6730  0.3132  0.7674
  419SOL    HW2 1257   0.426   0.526   0.927 -0.7477  0.0788 -0.2314
  420SOL     OW 1258   2.984   0.970   1.360  0.5265  0.1615 -0.2696
  420SOL    HW1 1259   3.059   0.926   1.308  0.9251  0.7033 -0.9583
  420SOL    HW2 1260   2.934   1.037   1.304 -0.9555 -4.6907  0.2893
  421SOL     OW 1261   0.753   1.803   0.046 -0.9916  0.6780 -0.3355
  421SOL    HW1 1262   0.688   1.728   0.080 -2.2687 -2.6815 -0.3407
  421SOL    HW2 1263   0.699   1.860   3.068  0.9121 -0.4945  3.4016
  422SOL     OW 1264   2.397   0.366   2.353 -0.2583 -0.2706  0.2251
  422SOL    HW1 1265   2.452   0.382   2.268 -0.3945 -0.3508  0.0320
  422SOL    HW2 1266   2.324   0.434   2.365  1.4437 -1.3149 -0.0800
  423SOL     OW 1267   1.847   1.418   3.077  0.0256 -0.6190  0.3442
  423SOL    HW1 1268   1.853   1.519   3.085 -1.8082 -0.6596  2.0968
  423SOL    HW2 1269   1.785   1.391   3.000 -1.5500  0.2916  0.9472
  424SOL     OW 1270   1.049   1.239   1.989  0.3438  0.1256  0.0121
  424SOL    HW1 1271   1.012   1.297   1.909  0.8265 -0.4692 -0.7870
  424SOL    HW2 1272   1.084   1.294   2.062 -1.4473 -0.7596 -0.8656
  425SOL     OW 1273   0.242   2.682   2.075 -0.0673  0.0177  0.1679
  425SOL    HW1 1274   0.311   2.687   2.149  2.7336 -0.1826  0.8481
  425SOL    HW2 1275   0.225   2.773   2.036  0.8763 -3.0603  3.4672
  426SOL     OW 1276   2.394   2.785   0.545 -0.0597 -0.0735  0.2266
  426SOL    HW1 1277   2.489   2.810   0.566 -0.0775 -1.3612  2.8619
  426SOL    HW2 1278   2.331   2.807   0.622  3.6852  1.8845  1.4163
  427SOL     OW 1279   0.261   0.890   2.591  0.0010 -0.1259 -0.1551
  427SOL    HW1 1280   0.168   0.913   2.601  4.9277  0.4611  0.0135
  427SOL    HW2 1281   0.304   0.935   2.514  0.7787  1.1620  1.3291
  428SOL     OW 1282   2.738   1.570   2.838 -0.4703 -0.2162  0.4920
  428SOL    HW1 1283   2.739   1.546   2.938 -1.8274 -1.0157  1.6051
  428SOL    HW2 1284   2.682   1.494   2.793 -0.1471  0.4353 -1.6848
  429SOL     OW 1285   2.266   0.380   0.279 -0.2263 -0.6761 -0.2252
  429SOL    HW1 1286   2.218   0.363   0.187 -1.2120  1.2537 -1.1737
  429SOL    HW2 1287   2.292   0.298   0.333 -0.1026 -1.8417  1.1302
  430SOL     OW 1288   1.632   2.123   2.354 -0.5788  0.5830  0.1148
  430SOL    HW1 1289   1.557   2.061   2.321  2.7780 -2.0049 -1.8114
  430SOL    HW2 1290   1.672   2.176   2.277 -0.8412  0.1628  1.6597
  431SOL     OW 1291   0.358   1.870   1.816 -0.0893  0.3574 -0.5213
  431SOL    HW1 1292   0.274   1.818   1.844  1.5072  0.4898  2.7583
  431SOL    HW2 1293   0.447   1.841   1.865  1.6788 -0.4800 -0.4377
  432SOL     OW 1294   1.518   2.322   1.854  0.0749 -0.1526 -0.5897
  432SOL    HW1 1295   1.574   2.248   1.903  1.8857 -0.9757  1.0491
  432SOL    HW2 1296   1.463   2.275   1.787  2.3683  2.6770  1.0216
  433SOL     OW 1297   1.110   2.284   0.349  0.3872 -0.6182  0.2682
  433SOL    HW1 1298   1.212   2.285   0.320  2.6295 -2.5874 -0.9710
  433SOL    HW2 1299   1.051   2.247   0.279  0.7677  1.8630  2.0232
  434SOL     OW 1300   0.353   2.291   2.653  0.4154  0.3991 -0.2876
  434SOL    HW1 1301   0.434   2.324   2.699 -0.9600  0.3057  0.0947
  434SOL    HW2 1302   0.265   2.316   2.704 -0.8260 -1.7483  0.3356
  435SOL     OW 1303   0.130   1.001   0.382  0.0820  0.4012  0.0369
  435SOL    HW1 1304   0.038   1.048   0.387 -2.1901  0.2957  0.9527
  435SOL    HW2 1305   0.210   1.053   0.415 -0.8999  0.7871 -3.0604
  436SOL     OW 1306   0.598   2.818   1.698 -0.2083  0.1813  0.1580
  436SOL    HW1 1307   0.523   2.855   1.758  1.4086 -0.4537  0.1223
  436SOL    HW2 1308   0.576   2.826   1.598  0.4205 -0.5030 -1.9501
  437SOL     OW 1309   0.762   0.185   0.485 -0.3103 -0.2476  0.3523
  437SOL    HW1 1310   0.813   0.230   0.414 -3.5041 -2.9881  1.9563
  437SOL    HW2 1311   0.694   0.124   0.449  4.2007  1.4040 -0.0487
  438SOL     OW 1312   0.531   2.016   0.629 -0.2870 -0.6219 -0.2023
  438SOL    HW1 1313   0.540   2.064   0.715 -1.6607 -0.3558 -2.6085
  438SOL    HW2 1314   0.437   2.030   0.597  0.8416  1.3503  1.4461
  439SOL     OW 1315   0.711   2.579   1.695 -0.1923 -0.1774 -0.1491
  439SOL    HW1 1316   0.707   2.520   1.781  3.7661 -0.3702  0.9635
  439SOL    HW2 1317   0.669   2.671   1.706  0.6020 -1.9705  0.4387
  440SOL     OW 1318   2.055   2.710   1.620 -0.0808  0.6067 -0.2613
  440SOL    HW1 1319   1.998   2.653   1.681  0.6207  2.0248 -1.4260
  440SOL    HW2 1320   2.138   2.747   1.666  0.4240 -0.8322 -0.4248
  441SOL     OW 1321   2.666   0.523   1.833  0.1034 -0.5249  0.8013
  441SOL    HW1 1322   2.639   0.440   1.880 -0.6512  1.6539 -1.5897
  441SOL    HW2 1323   2.682   0.602   1.896 -0.8027 -0.2820 -1.8853
  442SOL     OW 1324   1.849   2.320   0.788  0.6617  0.3543 -0.4656
  442SOL    HW1 1325   1.937   2.357   0.753 -2.6681 -1.2581  1.8945
  442SOL    HW2 1326   1.825   2.234   0.735  3.0018 -3.2822  0.0746
  443SOL     OW 1327   2.646   0.672   2.298  0.3191  0.0356 -0.3541
  443SOL    HW1 1328   2.668   0.600   2.227  0.7250  3.7906 -3.0819
  443SOL    HW2 1329   2.629   0.760   2.255 -0.9742 -3.5028  1.9745
  444SOL     OW 1330   2.167   1.075   1.799  0.0517 -0.0112 -0.0038
  444SOL    HW1 1331   2.126   1.006   1.866  1.1848 -0.3228  0.7111
  444SOL    HW2 1332   2.267   1.061   1.778  1.7046  1.4697  2.8689
  445SOL     OW 1333   2.999   2.252   1.242 -0.6962  0.3960  0.3920
  445SOL    HW1 1334   2.939   2.249   1.321  0.9307  1.4066 -2.9741
  445SOL    HW2 1335   3.000   2.345   1.199  2.0910  2.5083 -2.2303
  446SOL     OW 1336   2.778   1.603   0.757  0.1743  0.3578 -0.2043
  446SOL    HW1 1337   2.701   1.596   0.821  1.0830  1.9805 -0.2922
  446SOL    HW2 1338   2.864   1.565   0.804  3.2456 -3.2202  1.8161
  447SOL     OW 1339   0.492   1.102   0.889  0.1747 -0.1032 -0.0805
  447SOL    HW1 1340   0.581   1.054   0.886 -0.2411  1.7658  1.2650
  447SOL    HW2 1341   0.511   1.198   0.862  0.0077 -1.4655  2.6397
  448SOL     OW 1342   1.304   1.326   1.663 -0.6752 -0.0404 -0.0599
  448SOL    HW1 1343   1.401   1.308   1.636  0.0006  2.0387 -1.4552
  448SOL    HW2 1344   1.248   1.360   1.584 -1.1359 -0.9025 -1.1588
  449SOL     OW 1345   1.132   1.177   0.074  0.1028 -0.1371  0.2622
  449SOL    HW1 1346   1.171   1.117   0.008 -1.2129  0.4353  2.3020
  449SOL    HW2 1347   1.032   1.199   0.055 -2.1983  0.5599 -1.0460
  450SOL     OW 1348   2.740   2.397   2.134 -0.0159 -0.0379 -0.4024
  450SOL    HW1 1349   2.814   2.404   2.209 -0.7634  0.4130  1.4999
  450SOL    HW2 1350   2.747   2.307   2.081  1.0757 -1.4203 -1.3296
  451SOL     OW 1351   1.861   2.940   2.365  0.2973  0.2971 -0.2898
  451SOL    HW1 1352   1.932   2.902   2.422 -4.3260 -1.2145 -3.6016
  451SOL    HW2 1353   1.842   3.037   2.392  2.6417 -1.1565  0.9134
  452SOL     OW 1354   1.458   2.854   1.273  0.6633  0.3413  0.3674
  452SOL    HW1 1355   1.376   2.839   1.216  0.8697 -2.2855 -2.2377
  452SOL    HW2 1356   1.513   2.937   1.243  1.3408  1.6346 -1.5920
  453SOL     OW 1357   1.750   0.840   1.104 -0.0403 -0.0950 -0.4699
  453SOL    HW1 1358   1.740   0.873   1.008  0.8608  2.0862  0.0899
  453SOL    HW2 1359   1.847   0.833   1.127 -0.7831 -2.0240 -0.0195
  454SOL     OW 1360   0.190   1.296   0.954  0.4056 -0.5163 -0.3643
  454SOL    HW1 1361   0.276   1.352   0.949  2.8074 -2.3603 -1.3316
  454SOL    HW2 1362   0.124   1.347   1.014 -0.1741 -1.2193  2.5188
  455SOL     OW 1363   2.574   0.088   0.340 -0.3977  0.4132 -0.5646
  455SOL    HW1 1364   2.546   0.067   0.245  1.2679 -2.3742  2.4577
  455SOL    HW2 1365   2.674   0.083   0.343 -2.5972  2.3595 -2.2945
  456SOL     OW 1366   2.732   2.531   1.040 -0.3752  0.1295  0.3308
  456SOL    HW1 1367   2.646   2.562   1.086  1.1358 -0.4858 -0.3957
  456SOL    HW2 1368   2.719   2.433   1.012 -2.1399 -2.0250  1.1506
  457SOL     OW 1369   1.083   0.010   0.352 -0.0226  0.2145 -0.8044
  457SOL    HW1 1370   1.087   0.004   0.454 -1.7454 -0.6051  0.9940
  457SOL    HW2 1371   1.001   3.052   0.315  2.5416  0.0900  3.8183
  458SOL     OW 1372   2.468   0.746   0.508 -0.2427 -0.0635 -0.3806
  458SOL    HW1 1373   2.507   0.708   0.594  0.0528 -1.9654 -1.4683
  458SOL    HW2 1374   2.403   0.677   0.472 -0.0717 -1.1978 -0.5189
  459SOL     OW 1375   1.930   0.360   2.574  0.5706 -0.4053 -0.3114
  459SOL    HW1 1376   1.935   0.345   2.474  0.3536 -0.5128  1.0385
  459SOL    HW2 1377   2.000   0.303   2.627  0.3712  0.8504  0.7351
  460SOL     OW 1378   2.821   3.075   2.713 -0.7086 -0.2889 -0.1940
  460SOL    HW1 1379   2.735   3.039   2.752 -1.4738  1.2755  3.3383
  460SOL    HW2 1380   2.901   3.047   2.774 -1.0021 -0.7391  0.7516
  461SOL     OW 1381   1.062   1.711   0.797  0.2250  0.1391  0.3021
  461SOL    HW1 1382   1.095   1.672   0.885 -0.3093 -0.8707 -0.9052
  461SOL    HW2 1383   0.976   1.762   0.809  0.6960 -0.6076 -0.5982
  462SOL     OW 1384   2.638   2.760   1.478  0.3085 -0.2330 -0.3162
  462SOL    HW1 1385   2.703   2.802   1.546 -0.9140  1.6173 -0.1967
  462SOL    HW2 1386   2.625   2.819   1.399 -1.4917  0.7208 -0.6579
  463SOL     OW 1387   2.502   1.079   0.611  0.0215 -0.2191 -0.1533
  463SOL    HW1 1388   2.556   1.041   0.536  1.1160  1.8449 -1.0987
  463SOL    HW2 1389   2.525   1.043   0.704  1.2825 -1.5095  0.0811
  464SOL     OW 1390   0.439   2.584   1.089  0.3758  0.1530  0.0182
  464SOL    HW1 1391   0.359   2.645   1.091  0.9456 -1.9402  1.8490
  464SOL    HW2 1392   0.419   2.488   1.124 -0.9778 -3.3372  0.6084
  465SOL     OW 1393   0.144   1.574   0.108 -0.2065  0.4388  0.3009
  465SOL    HW1 1394   0.115   1.481   0.091 -3.0765  3.7539  0.0921
  465SOL    HW2 1395   0.103   1.614   0.193 -1.6813 -0.3586  0.1053
  466SOL     OW 1396   1.567   0.160   2.656 -0.6143 -0.4726 -0.7249
  466SOL    HW1 1397   1.501   0.116   2.593 -0.7871 -0.8909  1.1474
  466SOL    HW2 1398   1.560   0.115   2.750  0.8265 -1.4842  2.6573
  467SOL     OW 1399   1.029   0.790   2.006 -0.8239  0.1327  0.7837
  467SOL    HW1 1400   1.125   0.811   1.976  1.2579  3.2746 -3.7440
  467SOL    HW2 1401   0.988   0.865   2.064  1.5189  0.2947 -3.7509
  468SOL     OW 1402   0.426   1.015   2.379  0.0942  0.1706  0.5531
  468SOL    HW1 1403   0.463   0.948   2.313 -0.1629 -4.3211  0.4168
  468SOL    HW2 1404   0.423   1.109   2.334  1.4635 -0.4326 -0.6547
  469SOL     OW 1405   0.150   2.031   0.130 -0.0475 -0.0470 -0.1032
  469SOL    HW1 1406   0.198   2.124   0.122 -0.0724  0.9131  1.3576
  469SOL    HW2 1407   0.050   2.050   0.132 -0.1626  0.3779 -1.2320
  470SOL     OW 1408   2.341   1.685   2.749  0.4832  0.3030 -0.2143
  470SOL    HW1 1409   2.267   1.625   2.705 -0.2466 -2.0562 -2.1490
  470SOL    HW2 1410   2.370   1.653   2.847  1.4320 -1.1617  1.5518
  471SOL     OW 1411   2.154   0.643   2.291 -0.6484 -0.2846 -0.0577
  471SOL    HW1 1412   2.058   0.635   2.273  0.7236 -1.5005 -1.4840
  471SOL    HW2 1413   2.180   0.698   2.370  1.1514 -0.3770  1.2943
  472SOL     OW 1414   0.602   2.610   0.892 -0.1748  0.1921  0.0730
  472SOL    HW1 1415   0.545   2.656   0.820  0.6323 -0.6298 -1.2000
  472SOL    HW2 1416   0.545   2.596   0.975  1.0843  0.8148 -1.1127
  473SOL     OW 1417   0.632   0.148   2.500 -0.1447 -0.0136  0.0814
  473SOL    HW1 1418   0.592   0.058   2.536  0.8647  0.1860  0.3630
  473SOL    HW2 1419   0.731   0.155   2.520  0.3472  0.8072  1.0003
  474SOL     OW 1420   1.626   0.101   2.186 -0.1054  0.0043 -0.3358
  474SOL    HW1 1421   1.593   0.194   2.168  0.2136 -1.5902  0.5956
  474SOL    HW2 1422   1.557   0.034   2.227  0.6694 -1.7318  2.8589
  475SOL     OW 1423   1.780   2.742   0.714 -0.1851 -0.4246 -0.1227
  475SOL    HW1 1424   1.856   2.678   0.696 -0.9061 -2.2638  0.2611
  475SOL    HW2 1425   1.716   2.742   0.635  0.3574 -1.2012  1.9124
  476SOL     OW 1426   0.180   0.691   0.905  0.0934 -0.5088  0.5042
  476SOL    HW1 1427   0.175   0.691   0.803  0.6220 -1.5182 -0.6171
  476SOL    HW2 1428   0.275   0.702   0.933 -4.2976  0.9330 -0.3507
  477SOL     OW 1429   1.453   2.243   0.537  0.6198 -0.4999  0.1423
  477SOL    HW1 1430   1.465   2.298   0.455 -0.4732 -1.1017  1.1769
  477SOL    HW2 1431   1.390   2.166   0.512 -3.9855  1.2918  0.0736
  478SOL     OW 1432   0.250   2.426   2.432  0.4205  0.1000  0.2301
  478SOL    HW1 1433   0.304   2.374   2.499 -0.2338 -0.1796 -1.2881
  478SOL    HW2 1434   0.285   2.423   2.336 -2.8472  0.9797  0.7667
  479SOL     OW 1435   2.439   0.532   0.837 -0.0642 -1.0551 -0.3452
  479SOL    HW1 1436   2.341   0.514   0.850 -0.6334 -2.9124 -2.6114
  479SOL    HW2 1437   2.495   0.453   0.857  1.5508  2.0360  1.2820
  480SOL     OW 1438   0.005   2.983   0.062 -0.1607  0.3833  0.1103
  480SOL    HW1 1439   3.083   2.922   0.141 -3.5949  3.3928  1.0496
  480SOL    HW2 1440   0.095   3.034   0.059 -0.6160 -4.0479  2.0025
  481SOL     OW 1441   2.851   2.247   1.453  0.2615 -0.8598 -0.0812
  481SOL    HW1 1442   2.811   2.172   1.509 -0.0555  1.3185 -0.5039
  481SOL    HW2 1443   2.869   2.330   1.510 -1.8166 -0.7328  1.6039
  482SOL     OW 1444   0.970   2.533   2.661 -0.0586  0.2326  0.3194
  482SOL    HW1 1445   1.016   2.551   2.569  1.2318  0.1669 -0.2322
  482SOL    HW2 1446   0.882   2.588   2.670 -2.0787 -0.6677  0.2114
  483SOL     OW 1447   0.579   2.230   2.411  0.3603 -0.5506 -0.9013
  483SOL    HW1 1448   0.644   2.155   2.413  2.2534 -1.2207  0.9875
  483SOL    HW2 1449   0.515   2.208   2.335  0.7627  2.8984  2.1200
  484SOL     OW 1450   1.166   0.774   1.625 -0.1659 -0.0309  0.4583
  484SOL    HW1 1451   1.161   0.871   1.653 -0.3148  1.5353 -0.4591
  484SOL    HW2 1452   1.247   0.734   1.668  1.2569 -0.7846  0.5245
  485SOL     OW 1453   2.396   0.825   2.896 -0.6599 -0.0373  0.5396
  485SOL    HW1 1454   2.345   0.803   2.810 -0.8280 -1.0315 -2.5391
  485SOL    HW2 1455   2.352   0.907   2.940 -0.5520 -0.5613 -0.0320
  486SOL     OW 1456   2.362   2.838   1.104  0.5462  0.0917 -0.0709
  486SOL    HW1 1457   2.263   2.837   1.118  0.5583 -0.5483  0.5578
  486SOL    HW2 1458   2.388   2.837   1.007 -0.4248 -1.4384 -2.3231
  487SOL     OW 1459   0.610   1.958   1.354 -0.1115 -0.1708 -0.0238
  487SOL    HW1 1460   0.659   2.037   1.315 -0.4074 -1.0473  1.7650
  487SOL    HW2 1461   0.507   1.976   1.361 -1.1761  0.2505 -0.5894
  488SOL     OW 1462   2.564   1.131   3.027 -0.1787  0.0417 -0.5892
  488SOL    HW1 1463   2.492   1.199   3.018  1.8581 -1.2694  1.2213
  488SOL    HW2 1464   2.552   1.049   2.965  0.5348 -0.9827 -3.5298
  489SOL     OW 1465   1.597   0.232   0.946  0.0297  0.4909  0.2688
  489SOL    HW1 1466   1.546   0.243   1.035 -1.0504 -1.2725  0.5786
  489SOL    HW2 1467   1.595   0.312   0.883 -0.0867 -1.0713 -1.8708
  490SOL     OW 1468   0.746   0.682   0.355  0.2905  0.0667  0.4973
  490SOL    HW1 1469   0.651   0.683   0.313 -3.1292  0.9119  1.4330
  490SOL    HW2 1470   0.819   0.691   0.284 -0.3541  1.6199 -0.9754
  491SOL     OW 1471   0.568   2.359   0.827  0.0296 -0.0855 -0.0799
  491SOL    HW1 1472   0.661   2.321   0.825  0.9496  0.3386 -1.6091
  491SOL    HW2 1473   0.575   2.464   0.827 -3.8060  0.5141 -1.0073
  492SOL     OW 1474   1.316   1.739   2.128  0.3508  0.4083  0.3093
  492SOL    HW1 1475   1.276   1.724   2.219  1.0970  0.6395 -1.3063
  492SOL    HW2 1476   1.288   1.664   2.061 -1.2343 -2.2904 -4.6897
  493SOL     OW 1477   2.633   2.479   0.531 -0.4568  0.0603 -0.0395
  493SOL    HW1 1478   2.672   2.386   0.517  0.3728 -0.2830 -0.6444
  493SOL    HW2 1479   2.534   2.474   0.555 -1.5375  2.9054 -0.1034
  494SOL     OW 1480   2.638   1.999   0.247  0.0226  0.2728 -0.2698
  494SOL    HW1 1481   2.577   1.921   0.231  1.0160  0.3121  0.6614
  494SOL    HW2 1482   2.727   1.978   0.200  1.6962  0.8535  0.1024
  495SOL     OW 1483   2.729   2.119   3.031 -0.2828 -0.2006  0.3251
  495SOL    HW1 1484   2.684   2.075   2.952 -1.5065  1.4205 -1.3027
  495SOL    HW2 1485   2.834   2.120   3.027 -0.5539  0.5605  2.2199
  496SOL     OW 1486   2.714   0.120   1.723 -0.0830 -0.4147 -0.3548
  496SOL    HW1 1487   2.628   0.131   1.669  2.8049 -3.2472 -4.0087
  496SOL    HW2 1488   2.725   0.021   1.753 -1.5342 -1.2448 -3.4833
  497SOL     OW 1489   2.923   1.236   2.975  0.0281 -0.4597  0.0446
  497SOL    HW1 1490   2.885   1.151   2.927  1.8359  0.7757  0.1501
  497SOL    HW2 1491   2.850   1.272   3.035  0.4138  1.9104  0.1822
  498SOL     OW 1492   0.108   1.768   2.149  0.0235 -0.3000  0.1712
  498SOL    HW1 1493   0.064   1.837   2.097  1.7829 -2.0984  2.2131
  498SOL    HW2 1494   0.106   1.777   2.250  1.5356  1.8742 -0.7624
  499SOL     OW 1495   0.721   2.303   3.003 -0.0461  0.0653  0.4999
  499SOL    HW1 1496   0.806   2.293   2.946  1.0935  3.0072  0.9957
  499SOL    HW2 1497   0.712   2.233   3.078 -0.3854  0.8549  0.0294
  500SOL     OW 1498   1.595   0.008   2.892  0.1805 -0.2978 -0.0729
  500SOL    HW1 1499   1.560   0.008   2.987 -1.1555 -1.0420  1.0530
  500SOL    HW2 1500   1.694   0.011   2.882 -3.5493  0.7597  2.7170
  501SOL     OW 1501   1.225   2.956   1.462  0.3172 -0.1773 -0.1134
  501SOL    HW1 1502   1.235   2.863   1.423 -2.3473  2.4861  0.0059
  501SOL    HW2 1503   1.284   3.030   1.413  0.8304  1.7939  0.4761
  502SOL     OW 1504   2.594   0.811   1.861  0.0461 -0.9428  0.0905
  502SOL    HW1 1505   2.518   0.879   1.889 -1.5076  1.7177  3.0377
  502SOL    HW2 1506   2.611   0.802   1.761 -0.6071 -0.9679 -2.3336
  503SOL     OW 1507   2.095   2.020   2.391 -0.1358  0.8403  0.2673
  503SOL    HW1 1508   2.058   2.063   2.475 -2.9024 -1.3526 -0.7814
  503SOL    HW2 1509   2.011   2.002   2.338  1.8886 -0.8176  1.3443
  504SOL     OW 1510   1.431   0.508   1.423  0.2893  0.4203 -0.0929
  504SOL    HW1 1511   1.361   0.503   1.346 -0.6581 -2.3135 -0.2237
  504SOL    HW2 1512   1.421   0.432   1.491  0.8052 -1.8055 -0.5613
  505SOL     OW 1513   0.820   0.743   1.859 -0.0784 -0.0019 -0.1780
  505SOL    HW1 1514   0.777   0.811   1.794 -0.0935 -0.0980 -2.9952
  505SOL    HW2 1515   0.906   0.781   1.908 -1.6169 -0.6512 -2.3652
  506SOL     OW 1516   0.436   0.688   2.546  0.1797  0.1971  0.4899
  506SOL    HW1 1517   0.374   0.763   2.578 -1.7791  0.4333  0.9574
  506SOL    HW2 1518   0.537   0.716   2.551 -0.3583  1.8598  0.7342
  507SOL     OW 1519   0.246   0.048   0.051 -0.0426 -0.4887 -0.3791
  507SOL    HW1 1520   0.290   3.044   0.071 -1.7585  2.4688  1.7978
  507SOL    HW2 1521   0.282   0.097   3.055 -0.3112 -1.8498  1.2915
  508SOL     OW 1522   1.144   0.867   1.360 -0.3491 -0.1689  0.5046
  508SOL    HW1 1523   1.112   0.789   1.300 -3.4316 -2.2264  0.4039
  508SOL    HW2 1524   1.141   0.835   1.455 -0.0008  0.3514  1.1580
  509SOL     OW 1525   1.833   2.202   1.266 -0.1652  0.0324  0.2495
  509SOL    HW1 1526   1.849   2.294   1.229 -2.7335 -0.5553  0.2915
  509SOL    HW2 1527   1.905   2.178   1.334 -0.8046  1.9540 -1.6574
  510SOL     OW 1528   2.460   1.281   2.055 -0.0839  0.0148 -0.0785
  510SOL    HW1 1529   2.508   1.323   1.977 -2.7725  0.9891  0.4121
  510SOL    HW2 1530   2.494   1.302   2.148  0.4398  1.7382  0.7561
  511SOL     OW 1531   0.877   2.026   1.546  0.0331 -0.0336  0.1547
  511SOL    HW1 1532   0.823   1.977   1.474 -3.2030 -2.0929 -3.1195
  511SOL    HW2 1533   0.814   2.058   1.619  0.8333 -1.1119  2.0967
  512SOL     OW 1534   2.721   2.058   0.752  0.5653 -0.1557 -0.8907
  512SOL    HW1 1535   2.752   2.103   0.664 -1.0870  3.1116 -2.2711
  512SOL    HW2 1536   2.805   2.014   0.799  2.8094  2.7111 -1.0607
  513SOL     OW 1537   0.031   1.821   2.941 -0.1710 -0.1255 -0.3232
  513SOL    HW1 1538   0.035   1.925   2.950  0.6870  0.5371  2.2314
  513SOL    HW2 1539   0.071   1.782   3.025  0.1058 -0.3915 -1.8014
  514SOL     OW 1540   2.940   2.557   2.256 -0.0972 -0.3031  0.6841
  514SOL    HW1 1541   3.013   2.549   2.324 -0.4759  0.5501 -2.0863
  514SOL    HW2 1542   2.985   2.564   2.163  1.8689  0.3461  0.9909
  515SOL     OW 1543   2.246   1.175   1.073 -0.0706  0.6406 -0.0671
  515SOL    HW1 1544   2.187   1.120   1.012  3.1684  1.4332 -0.1379
  515SOL    HW2 1545   2.186   1.237   1.122 -0.3519 -2.5364 -0.5003
  516SOL     OW 1546   2.095   2.006   0.405 -0.1981 -0.0040  0.2457
  516SOL    HW1 1547   2.181   1.997   0.452  1.5240 -1.6888 -0.9271
  516SOL    HW2 1548   2.070   1.914   0.371 -1.9147 -2.5381 -0.8821
  517SOL     OW 1549   0.797   1.170   3.087  0.3842 -0.2711  0.2675
  517SOL    HW1 1550   0.815   1.267   3.058  0.5945  0.2895  0.6636
  517SOL    HW2 1551   0.752   1.170   0.093  0.4121 -0.0983  1.6525
  518SOL     OW 1552   0.139   2.902   1.905  0.5373  0.6292 -0.1217
  518SOL    HW1 1553   0.150   3.001   1.938  0.2638 -1.3497  1.2099
  518SOL    HW2 1554   0.079   2.884   1.824 -0.5518 -0.7242  0.0265
  519SOL     OW 1555   1.334   1.799   2.564  0.3301 -0.1720  0.2292
  519SOL    HW1 1556   1.248   1.836   2.608 -1.3286  0.8752 -0.1169
  519SOL    HW2 1557   1.407   1.796   2.636  2.2893  1.0997 -1.6459
  520SOL     OW 1558   2.730   2.951   2.369  0.2156  0.4990  0.1672
  520SOL    HW1 1559   2.707   2.945   2.272  0.2357 -0.9209 -0.9071
  520SOL    HW2 1560   2.792   3.026   2.386  0.4352  1.1218  0.6306
  521SOL     OW 1561   0.005   1.998   2.038 -0.2274 -0.5396  0.1031
  521SOL    HW1 1562   0.045   2.085   2.077 -2.3904  2.0053  0.7745
  521SOL    HW2 1563   0.001   2.001   1.937 -0.7193 -0.9720 -0.3910
  522SOL     OW 1564   1.025   2.617   1.861  0.0667  0.0798  0.3625
  522SOL    HW1 1565   0.958   2.549   1.823  1.0919  0.6003  2.5829
  522SOL    HW2 1566   1.073   2.662   1.782  0.7730 -0.1130  0.7256
  523SOL     OW 1567   0.157   2.223   1.367 -0.1313  0.3076 -0.4919
  523SOL    HW1 1568   0.153   2.252   1.464  1.1669  1.6237  0.0812
  523SOL    HW2 1569   0.068   2.237   1.326  0.8192 -0.6349 -1.6451
  524SOL     OW 1570   1.406   2.532   0.559 -0.4754 -0.3483 -0.1289
  524SOL    HW1 1571   1.411   2.432   0.541  1.6450  1.2637  0.8756
  524SOL    HW2 1572   1.482   2.558   0.622  0.2040 -0.6995 -3.0191
  525SOL     OW 1573   2.509   1.110   1.088  0.2204 -0.4982  0.3096
  525SOL    HW1 1574   2.547   1.206   1.105 -3.2102  2.8486  1.3846
  525SOL    HW2 1575   2.407   1.122   1.081 -0.4420 -1.4151  0.5087
  526SOL     OW 1576   0.815   2.266   0.785 -0.0167 -0.1663  0.0848
  526SOL    HW1 1577   0.801   2.329   0.705  0.4057  1.3076 -0.4665
  526SOL    HW2 1578   0.904   2.210   0.772 -3.6355 -0.9663 -0.0936
  527SOL     OW 1579   2.425   2.173   0.631  0.4553 -0.0123 -0.1357
  527SOL    HW1 1580   2.443   2.126   0.722 -0.6491 -1.3850 -1.6467
  527SOL    HW2 1581   2.398   2.271   0.641  0.7386 -0.4139  1.5342
  528SOL     OW 1582   2.158   0.253   0.038  0.1451 -0.0388  0.0628
  528SOL    HW1 1583   2.054   0.247   0.042 -2.5928 -0.8324  1.2430
  528SOL    HW2 1584   2.193   0.176   0.094 -0.3025  3.9985  1.8417
  529SOL     OW 1585   1.205   1.426   2.212  0.0066 -0.1952  0.0898
  529SOL    HW1 1586   1.238   1.487   2.291 -1.8064 -0.5087  3.7597
  529SOL    HW2 1587   1.194   1.470   2.121 -1.4205 -0.7300  2.5330
  530SOL     OW 1588   2.392   0.944   2.443  0.1403 -0.5283 -0.8804
  530SOL    HW1 1589   2.479   0.979   2.414 -2.8736  0.9301 -0.3781
  530SOL    HW2 1590   2.401   0.885   2.525  0.8359  2.8444  0.4334
  531SOL     OW 1591   0.823   0.977   2.909 -0.0442 -0.1917 -0.2503
  531SOL    HW1 1592   0.824   1.054   2.980  0.4123 -0.9424 -0.2456
  531SOL    HW2 1593   0.800   0.886   2.952 -1.3802 -0.0185 -0.1539
  532SOL     OW 1594   1.477   0.965   0.571  0.3341 -0.1854  0.4058
  532SOL    HW1 1595   1.531   0.892   0.617 -0.1573 -2.4231  1.9423
  532SOL    HW2 1596   1.462   0.947   0.471  0.3575 -1.3208 -0.0452
  533SOL     OW 1597   0.418   0.568   2.103  0.4897 -0.0001 -0.5033
  533SOL    HW1 1598   0.352   0.514   2.047  1.4556 -0.6554 -0.1205
  533SOL    HW2 1599   0.505   0.577   2.051 -4.5394 -1.0901  1.5536
  534SOL     OW 1600   1.510   0.392   2.362 -0.2237 -0.4119  0.0866
  534SOL    HW1 1601   1.557   0.436   2.443 -1.2656 -2.0745  0.3681
  534SOL    HW2 1602   1.412   0.372   2.385  0.1608 -1.6768  0.8141
  535SOL     OW 1603   0.574   0.049   0.337  0.0643 -0.5735 -0.0923
  535SOL    HW1 1604   0.542   3.043   0.344 -2.4114 -0.4529  2.3747
  535SOL    HW2 1605   0.506   0.113   0.382 -1.6149  2.2376 -1.4808
  536SOL     OW 1606   0.993   0.448   0.561 -0.0487 -0.0174 -0.1841
  536SOL    HW1 1607   1.072   0.504   0.552 -3.6548 -0.0973  3.0182
  536SOL    HW2 1608   0.962   0.414   0.474 -0.0849 -1.5825  0.4998
  537SOL     OW 1609   1.557   2.935   1.750 -0.4758 -0.0223  0.1986
  537SOL    HW1 1610   1.638   2.912   1.811  2.3228  0.5993  2.0569
  537SOL    HW2 1611   1.559   2.877   1.670  2.2537  0.9340  1.8164
  538SOL     OW 1612   0.267   2.724   0.220 -0.1451 -0.0914 -0.2612
  538SOL    HW1 1613   0.172   2.765   0.229 -1.3991 -0.6273  0.8479
  538SOL    HW2 1614   0.311   2.750   0.133  2.3123  0.8463  1.5569
  539SOL     OW 1615   2.864   1.479   1.905  0.2676  0.6516 -0.2205
  539SOL    HW1 1616   2.960   1.511   1.916 -1.2456  3.3206 -2.0605
  539SOL    HW2 1617   2.798   1.498   1.979  2.5355  0.3620 -2.4665
  540SOL     OW 1618   2.481   2.431   2.088  0.0805  0.5706 -0.5506
  540SOL    HW1 1619   2.567   2.452   2.136 -3.5694  0.0059 -0.8841
  540SOL    HW2 1620   2.479   2.333   2.054 -2.5494 -1.2447  0.0955
  541SOL     OW 1621   0.625   2.750   1.217  0.1749  0.1800 -0.5934
  541SOL    HW1 1622   0.545   2.690   1.192 -2.3508  0.1795  0.6729
  541SOL    HW2 1623   0.706   2.724   1.164 -1.4235  1.6017 -0.1895
  542SOL     OW 1624   2.628   0.423   2.185  0.2440  0.2553 -0.3770
  542SOL    HW1 1625   2.693   0.374   2.248  1.3381 -1.4597  1.5687
  542SOL    HW2 1626   2.637   0.390   2.090 -0.5739 -1.4797 -0.9220
  543SOL     OW 1627   0.755   0.652   0.988 -0.5335 -0.5451  0.2974
  543SOL    HW1 1628   0.698   0.670   1.070 -1.4236 -1.4151  0.2195
  543SOL    HW2 1629   0.759   0.550   0.977 -2.9228 -2.5321  1.2130
  544SOL     OW 1630   2.367   2.305   1.319  0.2847 -0.9345  0.0387
  544SOL    HW1 1631   2.286   2.290   1.257  0.5171  0.4429 -0.0614
  544SOL    HW2 1632   2.381   2.406   1.346 -1.6548  0.8313 -1.8823
  545SOL     OW 1633   1.292   1.339   1.008 -0.0241  0.9736  0.4651
  545SOL    HW1 1634   1.361   1.410   0.993 -0.2728  1.9630 -4.3056
  545SOL    HW2 1635   1.328   1.257   1.064 -0.2032 -2.8365 -1.3595
  546SOL     OW 1636   2.784   0.401   2.641  0.0072 -0.1737  0.6316
  546SOL    HW1 1637   2.730   0.468   2.696 -0.6442  2.2416 -0.6480
  546SOL    HW2 1638   2.778   0.428   2.546  1.3888  1.3331  2.0853
  547SOL     OW 1639   2.170   0.301   2.761 -0.0928  0.5230  0.1916
  547SOL    HW1 1640   2.134   0.387   2.802 -0.0078 -0.6145 -0.2064
  547SOL    HW2 1641   2.234   0.254   2.825  0.2582  1.5729  0.7731
  548SOL     OW 1642   2.393   1.912   2.869  0.1711 -0.3089 -0.3750
  548SOL    HW1 1643   2.383   1.825   2.816  1.4502  0.3269 -0.6676
  548SOL    HW2 1644   2.487   1.947   2.854 -2.8407 -3.3026  2.6234
  549SOL     OW 1645   2.024   0.494   0.521 -0.3567  0.5055  0.1519
  549SOL    HW1 1646   2.058   0.445   0.603  1.7136  2.8825  1.1546
  549SOL    HW2 1647   2.101   0.550   0.484  1.5327 -2.8502  1.2066
  550SOL     OW 1648   2.493   1.287   0.314  0.2938  0.3135 -0.2641
  550SOL    HW1 1649   2.428   1.302   0.391  0.8924  0.2771  1.7318
  550SOL    HW2 1650   2.473   1.199   0.263 -0.9989  0.0037 -1.3761
  551SOL     OW 1651   1.498   2.389   1.309 -0.0796  0.2327 -0.2698
  551SOL    HW1 1652   1.446   2.472   1.286 -1.4431 -0.7161 -1.1959
  551SOL    HW2 1653   1.596   2.406   1.282  2.7987  0.6381  3.5171
  552SOL     OW 1654   2.905   2.427   2.597 -0.5836  0.3870  0.2125
  552SOL    HW1 1655   2.944   2.338   2.558  0.2182 -1.1628  0.6868
  552SOL    HW2 1656   2.803   2.432   2.596 -0.5098  0.8159 -0.3298
  553SOL     OW 1657   0.329   2.984   0.584 -0.6444  0.3029  0.1453
  553SOL    HW1 1658   0.242   3.039   0.579 -1.9518 -3.9104  1.9911
  553SOL    HW2 1659   0.399   3.012   0.655  0.4871  1.2129 -0.2041
  554SOL     OW 1660   1.888   1.899   1.570 -0.0444 -0.1281  0.5220
  554SOL    HW1 1661   1.792   1.905   1.536  1.9803 -1.8059 -1.3317
  554SOL    HW2 1662   1.922   1.799   1.572 -3.1279 -2.3895 -0.3667
  555SOL     OW 1663   1.547   2.586   1.832  0.1255 -0.0114 -0.0147
  555SOL    HW1 1664   1.549   2.482   1.829  1.2908 -3.0018 -2.0327
  555SOL    HW2 1665   1.517   2.627   1.917  2.9223  0.9747  0.8709
  556SOL     OW 1666   1.586   0.752   0.695  0.6944  0.1951  0.7873
  556SOL    HW1 1667   1.678   0.709   0.675 -1.4468 -0.9410  3.2572
  556SOL    HW2 1668   1.509   0.690   0.676  1.0083  0.0770  0.4988
  557SOL     OW 1669   1.735   2.229   1.533  0.1025 -0.3319 -0.3916
  557SOL    HW1 1670   1.735   2.221   1.430 -2.5683 -1.4887  2.0081
  557SOL    HW2 1671   1.642   2.260   1.569  1.8687 -0.9808  2.1282
  558SOL     OW 1672   2.914   1.310   2.497  0.3804 -0.4761  0.3908
  558SOL    HW1 1673   2.843   1.233   2.509 -1.8513  0.8011  1.1680
  558SOL    HW2 1674   3.008   1.281   2.503 -0.2630  2.1787 -3.3337
  559SOL     OW 1675   2.492   2.674   2.383  0.3656  0.1731 -0.0558
  559SOL    HW1 1676   2.539   2.603   2.433 -0.5582  1.6738 -3.5448
  559SOL    HW2 1677   2.421   2.718   2.440 -2.5266  2.5016  1.2814
  560SOL     OW 1678   0.108   2.994   2.535  0.4258 -0.1091  0.8448
  560SOL    HW1 1679   0.121   0.007   2.519  0.0390 -0.3992  0.9337
  560SOL    HW2 1680   0.089   2.941   2.443  0.0133 -0.5816 -3.6988
  561SOL     OW 1681   1.365   0.589   0.660  0.1758  0.3316  0.3157
  561SOL    HW1 1682   1.303   0.646   0.599  1.7530 -0.6712 -1.1784
  561SOL    HW2 1683   1.352   0.491   0.638 -1.8346 -0.3622  0.1675
  562SOL     OW 1684   0.608   1.464   2.146  0.3847  0.2608 -0.2383
  562SOL    HW1 1685   0.687   1.525   2.167 -1.4037  0.2911 -1.7898
  562SOL    HW2 1686   0.550   1.500   2.071 -0.1570 -0.7424 -2.6277
  563SOL     OW 1687   1.800   2.050   0.132  0.3858 -0.0607  0.4760
  563SOL    HW1 1688   1.815   2.012   0.041 -1.5384  1.4836  1.0817
  563SOL    HW2 1689   1.880   2.112   0.165  0.5297  1.9901 -0.5175
  564SOL     OW 1690   0.240   2.052   0.559 -0.1258 -0.0317 -0.1549
  564SOL    HW1 1691   0.235   1.965   0.499 -1.1707 -0.8602 -0.6781
  564SOL    HW2 1692   0.162   2.053   0.622  2.2691 -1.9459 -0.8777
  565SOL     OW 1693   0.429   2.907   0.053 -0.6603  0.3152  0.3409
  565SOL    HW1 1694   0.518   2.943   0.095 -1.7063  0.8134 -1.0565
  565SOL    HW2 1695   0.446   2.853   3.057 -1.5365  1.8699  1.1764
  566SOL     OW 1696   1.360   2.557   2.824 -0.1785  0.4034  0.7618
  566SOL    HW1 1697   1.415   2.593   2.904  0.0001  0.5604  0.8158
  566SOL    HW2 1698   1.373   2.612   2.738  0.8195  0.9010 -2.7764
  567SOL     OW 1699   2.565   1.758   1.281 -0.0661 -0.5195 -0.3476
  567SOL    HW1 1700   2.630   1.838   1.297  1.3726  0.6413  0.0794
  567SOL    HW2 1701   2.510   1.735   1.361  1.5605  2.0149  0.5476
  568SOL     OW 1702   1.812   1.099   2.516  0.3232  0.9369  0.0163
  568SOL    HW1 1703   1.755   1.021   2.544  0.8662  0.3426 -0.2635
  568SOL    HW2 1704   1.869   1.131   2.595  6.1801 -0.3921  0.0874
  569SOL     OW 1705   2.040   1.856   2.016 -0.4175 -0.2590  0.6095
  569SOL    HW1 1706   1.986   1.851   2.103 -2.2345  1.3851 -1.6261
  569SOL    HW2 1707   2.127   1.911   2.035  2.5405 -0.6331  1.2575
  570SOL     OW 1708   0.031   2.776   1.683 -0.0022 -0.2344  0.4407
  570SOL    HW1 1709   0.122   2.738   1.662  0.0110  0.0680 -2.1841
  570SOL    HW2 1710   3.045   2.732   1.625  0.4309 -0.5295 -0.5730
  571SOL     OW 1711   0.286   0.675   1.292  0.4157  0.0295  0.2084
  571SOL    HW1 1712   0.204   0.732   1.261 -3.3626  0.6210 -1.7944
  571SOL    HW2 1713   0.261   0.583   1.303  0.7027  1.3351  1.9030
  572SOL     OW 1714   0.342   1.390   0.702 -0.2885 -0.4040 -0.4070
  572SOL    HW1 1715   0.349   1.417   0.801  0.1952  1.9340  2.0923
  572SOL    HW2 1716   0.432   1.377   0.654 -0.8335 -0.4241 -2.0787
  573SOL     OW 1717   0.922   0.676   0.145 -0.4553  0.3876  0.2160
  573SOL    HW1 1718   0.871   0.692   0.057 -1.1736 -0.7296  0.7369
  573SOL    HW2 1719   0.999   0.741   0.160  1.2563 -2.1954  1.8184
  574SOL     OW 1720   0.198   0.214   0.252  0.8185 -0.0106 -0.2544
  574SOL    HW1 1721   0.208   0.137   0.191 -1.5310  4.0068  1.7416
  574SOL    HW2 1722   0.275   0.279   0.241 -1.1202 -0.6524  3.8363
  575SOL     OW 1723   0.931   2.090   0.993 -0.3085  0.4277  0.3773
  575SOL    HW1 1724   0.898   2.024   0.921 -0.2824  0.1811 -2.4863
  575SOL    HW2 1725   1.033   2.089   1.004 -1.5760 -1.4869 -1.6881
  576SOL     OW 1726   2.958   0.226   1.803 -0.3525 -0.2951  0.3297
  576SOL    HW1 1727   2.957   0.254   1.708  0.6327  0.4459  0.8630
  576SOL    HW2 1728   2.884   0.159   1.813 -1.3562  3.5361  1.2139
  577SOL     OW 1729   2.582   1.710   2.043 -0.2581  0.8717  0.4709
  577SOL    HW1 1730   2.516   1.748   2.112  0.7591 -1.2935  0.5086
  577SOL    HW2 1731   2.664   1.688   2.098 -3.2068  1.8448  0.2782
  578SOL     OW 1732   1.139   0.023   2.556  0.0755 -0.2762 -0.2103
  578SOL    HW1 1733   1.231   0.062   2.543 -0.2872 -0.1731 -0.6579
  578SOL    HW2 1734   1.148   3.016   2.600  0.2547 -0.1188  0.3017
  579SOL     OW 1735   1.670   1.759   2.252  0.1684 -0.2143  0.3855
  579SOL    HW1 1736   1.661   1.703   2.166 -0.3037  1.7240 -1.6794
  579SOL    HW2 1737   1.589   1.818   2.265 -0.4661 -1.1626  3.0491
  580SOL     OW 1738   1.615   1.017   1.975  0.5647 -0.2762  0.1870
  580SOL    HW1 1739   1.695   1.007   2.032 -1.8332 -2.2848  1.2880
  580SOL    HW2 1740   1.528   1.020   2.026 -0.7170 -2.0129  1.1565
  581SOL     OW 1741   0.977   1.250   2.449  0.1506 -0.3170  0.4249
  581SOL    HW1 1742   0.966   1.183   2.523  3.0475  1.1696 -3.5967
  581SOL    HW2 1743   0.907   1.231   2.373 -0.4687  2.8762 -1.7003
  582SOL     OW 1744   3.077   2.558   2.029 -0.0540  0.4311 -0.3789
  582SOL    HW1 1745   0.090   2.569   2.044  0.7736  0.8272  2.2064
  582SOL    HW2 1746   3.044   2.623   1.960  0.5951  0.6555 -0.4229
  583SOL     OW 1747   1.774   1.191   1.216 -0.4291  0.0272  0.1530
  583SOL    HW1 1748   1.765   1.272   1.152 -2.6478 -0.5462 -4.2104
  583SOL    HW2 1749   1.843   1.200   1.296 -0.3248  0.2869  1.6278
  584SOL     OW 1750   0.920   2.284   2.786  0.0067  0.1016 -0.6378
  584SOL    HW1 1751   1.010   2.231   2.775  1.7350  0.9665  3.2770
  584SOL    HW2 1752   0.935   2.369   2.730  1.0248 -0.5769 -0.0865
  585SOL     OW 1753   0.105   2.425   0.352 -0.0016 -0.0270  0.0536
  585SOL    HW1 1754   0.059   2.453   0.267 -0.5406 -0.2682 -1.3315
  585SOL    HW2 1755   0.184   2.372   0.324 -2.7030 -1.2444  1.3256
  586SOL     OW 1756   1.987   1.467   0.436 -0.2623  0.3197 -0.5110
  586SOL    HW1 1757   1.914   1.422   0.376 -2.4539 -1.4231 -1.3601
  586SOL    HW2 1758   1.978   1.438   0.532  0.0050  1.4695 -0.3383
  587SOL     OW 1759   3.019   1.808   0.325 -0.4729  0.0026 -0.0155
  587SOL    HW1 1760   0.027   1.795   0.358  2.1748 -0.9211  1.1698
  587SOL    HW2 1761   2.954   1.758   0.387 -1.0811  2.2570  0.1715
  588SOL     OW 1762   2.622   0.289   0.912  0.3738 -0.5155  0.0424
  588SOL    HW1 1763   2.652   0.321   1.006  1.8087  1.8074  0.4872
  588SOL    HW2 1764   2.612   0.187   0.911 -1.6808 -0.4778 -2.0281
  589SOL     OW 1765   0.967   0.723   0.838  0.2347 -0.0521 -0.1924
  589SOL    HW1 1766   1.030   0.776   0.891 -2.4156 -0.3912  1.3299
  589SOL    HW2 1767   0.872   0.724   0.875  1.1333 -0.9205 -0.0872
  590SOL     OW 1768   2.430   2.439   0.209  0.4030 -0.0366  1.0716
  590SOL    HW1 1769   2.440   2.365   0.276  0.4527 -0.0928  1.2531
  590SOL    HW2 1770   2.457   2.533   0.247  1.2509  2.1772  0.0954
  591SOL     OW 1771   0.711   2.399   1.900  0.1428 -0.0298  0.2844
  591SOL    HW1 1772   0.799   2.360   1.866  0.6598  0.8173 -0.4376
  591SOL    HW2 1773   0.642   2.323   1.908  1.1859  2.9252  2.7958
  592SOL     OW 1774   0.875   1.636   1.952 -0.5715  0.2929 -0.1270
  592SOL    HW1 1775   0.930   1.721   1.953 -0.6650 -0.8026  0.4489
  592SOL    HW2 1776   0.890   1.581   2.037  4.5000  0.1939  0.8334
  593SOL     OW 1777   1.402   1.814   1.259  0.0779  0.3976  0.2349
  593SOL    HW1 1778   1.503   1.829   1.248  0.4024  1.9130  1.1211
  593SOL    HW2 1779   1.358   1.903   1.281 -2.4907 -1.9449  1.6878
  594SOL     OW 1780   0.456   1.225   2.687  0.0986  0.6467  0.3786
  594SOL    HW1 1781   0.412   1.192   2.773 -0.9704 -0.1926 -1.0318
  594SOL    HW2 1782   0.521   1.151   2.666  2.0797 -0.4705 -1.5855
  595SOL     OW 1783   1.503   0.513   0.880  0.0319  0.0005 -0.1371
  595SOL    HW1 1784   1.529   0.597   0.932  1.6693 -3.0974  0.3352
  595SOL    HW2 1785   1.470   0.541   0.789  1.6442 -2.2624  1.1563
  596SOL     OW 1786   0.299   1.031   1.069 -0.5722  0.2126  0.5390
  596SOL    HW1 1787   0.373   1.062   1.008  0.6726 -3.3347 -1.3852
  596SOL    HW2 1788   0.220   1.032   1.009  0.1030  1.0825  0.0549
  597SOL     OW 1789   0.157   2.422   2.844  0.4071 -0.0426  0.4686
  597SOL    HW1 1790   0.204   2.511   2.841 -0.2973 -1.2097  0.0036
  597SOL    HW2 1791   0.054   2.433   2.847 -2.8134  0.1257 -0.5773
  598SOL     OW 1792   2.054   1.960   2.836  0.4451 -0.3455  0.2499
  598SOL    HW1 1793   2.035   2.022   2.758 -1.2457 -1.6827  1.9070
  598SOL    HW2 1794   2.135   1.997   2.885 -0.0727 -0.5276 -0.9418
  599SOL     OW 1795   1.572   0.563   0.190  0.0920  0.1113 -0.2626
  599SOL    HW1 1796   1.490   0.566   0.249 -0.0062  1.4799  1.1663
  599SOL    HW2 1797   1.644   0.627   0.226  0.8329  1.7652  1.6392
  600SOL     OW 1798   0.871   0.258   0.077 -0.2626 -0.1011 -0.5427
  600SOL    HW1 1799   0.916   0.162   0.069  1.1599 -2.6056  0.4508
  600SOL    HW2 1800   0.945   0.332   0.069  0.0429  3.4383 -1.0142
  601SOL     OW 1801   0.427   0.034   1.388 -0.0270 -0.1178 -0.0212
  601SOL    HW1 1802   0.440   0.133   1.402 -2.1574  0.0972  3.5205
  601SOL    HW2 1803   0.478   3.083   1.307 -1.6590 -0.4145 -2.0152
  602SOL     OW 1804   0.079   2.902   0.843 -0.5202 -0.5457  0.3237
  602SOL    HW1 1805   0.017   2.913   0.761 -1.9318 -1.6615  0.6646
  602SOL    HW2 1806   0.153   2.968   0.839  2.5657  0.8663 -0.1499
  603SOL     OW 1807   0.696   2.818   2.386  0.5594  0.2959  0.1815
  603SOL    HW1 1808   0.754   2.886   2.342  0.2324 -0.8055 -0.0911
  603SOL    HW2 1809   0.600   2.848   2.370 -3.9261  0.5980  0.6642
  604SOL     OW 1810   0.928   2.627   0.056  0.3785  0.8195 -0.7626
  604SOL    HW1 1811   0.902   2.549   0.116  0.6914  1.2600  2.3266
  604SOL    HW2 1812   0.959   2.600   3.052 -1.8391  0.2291  1.0291
  605SOL     OW 1813   1.383   0.652   1.670  0.9675  0.8209 -0.2778
  605SOL    HW1 1814   1.398   0.625   1.575  1.2694 -1.0802  5.2630
  605SOL    HW2 1815   1.461   0.706   1.708  0.1000  1.6317 -1.7875
  606SOL     OW 1816   1.255   0.284   2.666  0.2541  0.3111  0.5860
  606SOL    HW1 1817   1.291   0.368   2.707  0.9176 -1.7042 -2.2885
  606SOL    HW2 1818   1.226   0.205   2.728  0.2145 -0.6698 -1.2513
  607SOL     OW 1819   0.588   1.204   1.251  0.3463  0.0730 -0.6233
  607SOL    HW1 1820   0.617   1.113   1.215  1.1919  1.8898 -0.6407
  607SOL    HW2 1821   0.485   1.217   1.245 -3.1344  0.3026 -1.5690
  608SOL     OW 1822   2.643   2.219   2.529  0.1803 -0.3362  0.0300
  608SOL    HW1 1823   2.626   2.320   2.543 -0.3635  3.7749 -1.2113
  608SOL    HW2 1824   2.743   2.199   2.522 -1.5211  1.7321 -1.6516
  609SOL     OW 1825   2.202   0.043   0.174  0.4246 -0.0615 -0.0912
  609SOL    HW1 1826   2.196   3.048   0.114 -1.6821  0.1352 -1.4284
  609SOL    HW2 1827   2.273   0.034   0.247  0.2291 -1.4119 -2.6631
  610SOL     OW 1828   0.831   2.364   1.343 -0.0617  0.0426 -0.1896
  610SOL    HW1 1829   0.901   2.336   1.273 -1.4977  1.4059  2.4245
  610SOL    HW2 1830   0.872   2.424   1.413  1.1661  0.8630 -2.3143
  611SOL     OW 1831   0.758   1.455   0.732  0.3019  0.2421  0.3264
  611SOL    HW1 1832   0.759   1.519   0.654  0.5146 -1.8941 -1.3494
  611SOL    HW2 1833   0.687   1.380   0.715 -2.1246  0.2423 -1.6897
  612SOL     OW 1834   0.847   0.153   2.088 -0.3142 -0.0444  0.1075
  612SOL    HW1 1835   0.816   0.156   1.992 -1.2122 -0.2175 -2.4084
  612SOL    HW2 1836   0.903   0.235   2.116 -1.0846 -1.1874 -0.5408
  613SOL     OW 1837   2.567   1.576   0.500 -0.4279 -0.7483  0.2756
  613SOL    HW1 1838   2.559   1.475   0.522 -0.1067 -3.1059  0.2759
  613SOL    HW2 1839   2.605   1.633   0.576 -0.1187 -0.9516  1.9942
  614SOL     OW 1840   1.726   0.428   1.712 -0.0745 -0.2548 -0.1952
  614SOL    HW1 1841   1.683   0.485   1.785 -2.4439  0.2308 -0.3028
  614SOL    HW2 1842   1.812   0.480   1.679  2.2090  3.4205 -0.5499
  615SOL     OW 1843   0.945   1.886   1.276 -0.3330 -0.0233 -0.5314
  615SOL    HW1 1844   1.041   1.887   1.313 -2.1457  0.1590 -4.2623
  615SOL    HW2 1845   0.938   1.977   1.229  0.1519 -2.2335 -0.4455
  616SOL     OW 1846   1.373   1.340   2.622  0.2551 -0.2540  0.2233
  616SOL    HW1 1847   1.470   1.347   2.590 -1.9881  2.6204 -0.4616
  616SOL    HW2 1848   1.315   1.310   2.542  0.8781  1.0148  0.5786
  617SOL     OW 1849   1.605   2.715   0.519 -0.4991  0.1115 -0.3211
  617SOL    HW1 1850   1.661   2.690   0.440 -1.0442  0.7573 -1.3814
  617SOL    HW2 1851   1.517   2.757   0.489  1.9966  0.1872  0.2733
  618SOL     OW 1852   0.654   1.033   2.694  0.3355  0.3673 -0.2055
  618SOL    HW1 1853   0.705   1.000   2.780 -2.4266  2.5454  2.0924
  618SOL    HW2 1854   0.716   1.084   2.632  1.2892  1.8700  1.7813
  619SOL     OW 1855   2.847   1.233   0.573 -0.4805 -0.0656  0.2086
  619SOL    HW1 1856   2.846   1.219   0.471  0.2299 -1.5595 -1.1060
  619SOL    HW2 1857   2.759   1.279   0.603  1.9833 -0.2729  0.2933
  620SOL     OW 1858   2.081   2.695   0.106  0.0840  0.1265 -0.6060
  620SOL    HW1 1859   2.146   2.638   0.059 -2.4709  1.3258 -4.3273
  620SOL    HW2 1860   2.127   2.736   0.186  0.5199 -0.3524 -1.9540
  621SOL     OW 1861   2.194   1.258   0.162  0.1585  0.0411 -0.0642
  621SOL    HW1 1862   2.212   1.232   0.258  1.8021 -1.6655 -0.4306
  621SOL    HW2 1863   2.108   1.211   0.128  0.3341 -1.7233  0.0604
  622SOL     OW 1864   1.125   2.520   2.411  0.0486 -0.0567  0.1104
  622SOL    HW1 1865   1.046   2.471   2.372  0.4693 -1.5621 -0.1537
  622SOL    HW2 1866   1.189   2.448   2.448  1.2360 -0.7959  1.8384
  623SOL     OW 1867   0.759   1.611   0.307 -0.1229 -0.1842  0.0351
  623SOL    HW1 1868   0.851   1.617   0.265  0.6559 -1.2910 -2.2623
  623SOL    HW2 1869   0.695   1.598   0.229  3.4437  0.4109  0.5139
  624SOL     OW 1870   0.392   2.987   2.828  0.1486  0.3950  0.3481
  624SOL    HW1 1871   0.446   3.016   2.747 -0.7355  0.2957  3.2249
  624SOL    HW2 1872   0.302   2.951   2.795  0.3541 -1.0343 -2.8492
  625SOL     OW 1873   0.867   1.919   0.254  0.4586 -0.0718 -0.6451
  625SOL    HW1 1874   0.902   2.012   0.231  0.4218 -1.3882 -0.6710
  625SOL    HW2 1875   0.810   1.889   0.177  1.9930  0.3741  4.3746
  626SOL     OW 1876   2.347   0.165   2.964 -0.5941  0.0516 -0.4470
  626SOL    HW1 1877   2.269   0.204   3.019 -3.0611  0.7404 -1.7032
  626SOL    HW2 1878   2.428   0.230   2.953 -2.0278  2.6684 -1.9021
  627SOL     OW 1879   1.245   1.182   2.414 -0.0499  0.2005 -0.6679
  627SOL    HW1 1880   1.224   1.102   2.347 -0.0763 -1.2184 -0.5328
  627SOL    HW2 1881   1.157   1.229   2.430 -1.9757  0.7507  0.1298
  628SOL     OW 1882   0.730   0.849   2.288 -0.2387  0.2455 -0.2863
  628SOL    HW1 1883   0.708   0.925   2.226  0.6986  1.9749 -0.3648
  628SOL    HW2 1884   0.703   0.759   2.253  3.5014  2.1925 -1.1216
  629SOL     OW 1885   0.521   0.040   2.009 -0.2672 -0.0113  0.6538
  629SOL    HW1 1886   0.564   3.045   2.049 -0.1966  0.8604  0.4788
  629SOL    HW2 1887   0.580   0.069   1.933 -0.4691 -2.4056  0.5145
  630SOL     OW 1888   2.312   0.764   1.692  0.9542  0.7094  0.1798
  630SOL    HW1 1889   2.340   0.854   1.722  0.7842 -1.3454  1.4922
  630SOL    HW2 1890   2.263   0.757   1.597 -1.8641 -1.1371 -3.2536
  631SOL     OW 1891   2.235   1.334   0.433 -0.5213 -0.8715 -0.4049
  631SOL    HW1 1892   2.242   1.275   0.518  0.0465 -1.9935  4.3302
  631SOL    HW2 1893   2.139   1.369   0.433 -0.1797  1.2206 -1.0731
  632SOL     OW 1894   2.116   0.371   1.876  0.5009 -0.0571  0.4001
  632SOL    HW1 1895   2.179   0.339   1.802  2.1235  0.2202  1.1821
  632SOL    HW2 1896   2.024   0.329   1.873  1.7998  0.8290  0.7861
  633SOL     OW 1897   0.752   2.814   0.386 -0.4374  0.0917 -0.4052
  633SOL    HW1 1898   0.653   2.808   0.383 -0.8156 -1.0669 -0.2963
  633SOL    HW2 1899   0.782   2.859   0.474  1.6824  2.2389  0.3480
  634SOL     OW 1900   1.351   2.968   2.815 -0.1136  0.0515  0.2073
  634SOL    HW1 1901   1.430   3.026   2.835  0.6435 -2.4237 -1.2749
  634SOL    HW2 1902   1.379   2.874   2.780 -0.9210 -3.5441 -1.3811
  635SOL     OW 1903   2.562   0.498   0.144  0.2291 -0.2251  0.0058
  635SOL    HW1 1904   2.652   0.494   0.194  1.8185 -0.1830  2.4985
  635SOL    HW2 1905   2.495   0.447   0.195  0.6365 -0.1790 -1.1655
  636SOL     OW 1906   0.746   1.783   1.095 -0.0494  0.4521 -0.1918
  636SOL    HW1 1907   0.802   1.860   1.122  1.0870  0.3821 -1.4115
  636SOL    HW2 1908   0.798   1.698   1.071 -0.4883  2.1653  0.7933
  637SOL     OW 1909   0.050   2.641   0.503  0.5973  0.0893 -0.7354
  637SOL    HW1 1910   0.023   2.614   0.599 -0.9083 -0.7401  1.3613
  637SOL    HW2 1911   0.091   2.562   0.454 -0.4110 -3.8649  2.0477
  638SOL     OW 1912   0.004   2.762   0.252 -0.3330 -0.3239  0.3629
  638SOL    HW1 1913   2.996   2.756   0.217  1.3310 -0.5862 -3.3823
  638SOL    HW2 1914   0.012   2.722   0.347  0.1625 -2.6687  1.4541
  639SOL     OW 1915   1.212   1.411   0.191 -0.1288 -0.1676 -0.1579
  639SOL    HW1 1916   1.193   1.316   0.153  1.0002 -1.7438  0.3446
  639SOL    HW2 1917   1.316   1.440   0.187  6.7510  2.7518  0.8468
  640SOL     OW 1918   1.312   2.565   0.941  0.7496  0.2804 -0.2130
  640SOL    HW1 1919   1.392   2.579   0.876 -1.2329 -1.3397 -0.4273
  640SOL    HW2 1920   1.242   2.640   0.929  0.1568 -0.2367  3.3028
  641SOL     OW 1921   3.016   2.560   0.741 -0.3104  0.0567  0.3264
  641SOL    HW1 1922   2.965   2.610   0.806  0.4527 -2.0893 -2.1092
  641SOL    HW2 1923   3.039   2.472   0.772 -0.4046  1.7843 -2.5488
  642SOL     OW 1924   1.024   0.008   1.581 -0.2002  0.4274  0.2430
  642SOL    HW1 1925   1.085   3.037   1.525  1.7034  1.4089  1.7409
  642SOL    HW2 1926   1.077   0.058   1.656 -2.2779  0.6832  2.8033
  643SOL     OW 1927   0.853   2.210   2.128  0.1459 -0.4355 -0.4854
  643SOL    HW1 1928   0.763   2.214   2.087 -1.0975  0.6479 -1.9750
  643SOL    HW2 1929   0.862   2.114   2.160 -1.0829  2.1473 -0.3763
  644SOL     OW 1930   0.852   2.932   0.599 -0.6426  0.0215 -0.1767
  644SOL    HW1 1931   0.929   2.991   0.624 -1.8198 -0.7566 -1.6874
  644SOL    HW2 1932   0.868   2.842   0.650  2.2922 -3.0381  3.2898
  645SOL     OW 1933   1.236   1.657   2.368  0.0772  0.1973 -0.1732
  645SOL    HW1 1934   1.139   1.659   2.393 -0.3484  1.8268  2.0184
  645SOL    HW2 1935   1.294   1.684   2.445 -3.2665 -0.8897 -2.2498
  646SOL     OW 1936   0.638   1.199   0.265  0.0101 -0.3161  0.3770
  646SOL    HW1 1937   0.585   1.128   0.316  1.7530  3.7632  0.8424
  646SOL    HW2 1938   0.731   1.211   0.301  2.5421 -0.5138 -0.3370
  647SOL     OW 1939   1.151   0.202   0.824  0.1465  0.1748  0.3945
  647SOL    HW1 1940   1.155   0.296   0.866 -0.4724  0.7333 -1.0244
  647SOL    HW2 1941   1.207   0.138   0.870 -1.5804  0.6384 -0.6693
  648SOL     OW 1942   2.825   2.879   1.605  0.2405 -0.1226  0.6156
  648SOL    HW1 1943   2.777   2.910   1.688 -1.9222 -0.0233 -0.1818
  648SOL    HW2 1944   2.909   2.940   1.597  1.4559  0.2633 -0.9479
  649SOL     OW 1945   0.681   2.117   0.089  0.3683 -0.3550  0.2868
  649SOL    HW1 1946   0.621   2.072   0.017 -0.8499 -0.8449  1.4319
  649SOL    HW2 1947   0.660   2.084   0.186 -0.0681 -1.5572 -0.0582
  650SOL     OW 1948   3.027   1.809   1.381  0.8342 -0.3533 -0.5762
  650SOL    HW1 1949   3.048   1.845   1.474  0.2680 -0.4640 -4.7080
  650SOL    HW2 1950   3.005   1.888   1.322  2.1436 -0.7321 -0.8059
  651SOL     OW 1951   3.035   3.046   2.897  0.1793  0.2446 -0.4504
  651SOL    HW1 1952   3.044   3.019   2.999  0.2198 -3.1547  2.6787
  651SOL    HW2 1953   3.042   0.058   2.881  0.0463 -0.8948  1.4143
  652SOL     OW 1954   2.418   1.801   0.200 -0.4649 -0.5587 -0.6190
  652SOL    HW1 1955   2.350   1.835   0.135  2.9195 -4.2973  1.8877
  652SOL    HW2 1956   2.382   1.758   0.284 -2.3212  1.8044 -1.6514
  653SOL     OW 1957   0.414   0.327   0.880  0.2504  0.0826  0.3117
  653SOL    HW1 1958   0.444   0.259   0.809 -1.5263  0.3518 -2.6719
  653SOL    HW2 1959   0.391   0.278   0.963 -0.1705  3.1895 -0.5082
  654SOL     OW 1960   1.357   2.800   0.010 -0.3904 -0.3363 -0.0859
  654SOL    HW1 1961   1.320   2.848   0.090 -1.4203 -0.7749 -0.0006
  654SOL    HW2 1962   1.449   2.828   3.062  1.1798  0.4780  1.5522
  655SOL     OW 1963   0.965   2.372   1.109 -0.0223 -0.0141  0.3885
  655SOL    HW1 1964   1.055   2.393   1.069 -2.5527 -0.1568 -1.0611
  655SOL    HW2 1965   0.934   2.289   1.057  0.4460  1.0883  1.7105
  656SOL     OW 1966   0.617   2.805   2.075  0.3250 -0.1401 -0.5437
  656SOL    HW1 1967   0.715   2.790   2.096 -1.1034 -1.0875  2.7415
  656SOL    HW2 1968   0.567   2.721   2.094 -1.3747  0.6673 -1.3630
  657SOL     OW 1969   1.826   0.968   2.128  0.1054  0.6016  0.0477
  657SOL    HW1 1970   1.913   0.946   2.081 -2.0510 -0.3360 -1.9748
  657SOL    HW2 1971   1.819   0.943   2.225  1.7221  0.5109  1.1582
  658SOL     OW 1972   2.456   1.907   1.070  0.0900  0.1886 -0.8329
  658SOL    HW1 1973   2.484   1.857   1.153  1.8604  1.1936 -0.2042
  658SOL    HW2 1974   2.456   1.837   0.994 -0.8184 -0.8160 -1.8102
  659SOL     OW 1975   2.462   2.850   0.052  0.3438  0.0304 -0.6102
  659SOL    HW1 1976   2.477   2.948   0.080  1.9030  2.3544  0.5093
  659SOL    HW2 1977   2.463   2.788   0.133  0.4171 -2.9537 -1.5334
  660SOL     OW 1978   0.941   1.116   2.711 -0.0542  0.0909  0.2976
  660SOL    HW1 1979   0.981   1.202   2.755  0.0830  1.3503 -1.0832
  660SOL    HW2 1980   0.900   1.051   2.776  0.9788  1.9471  0.5139
  661SOL     OW 1981   2.330   2.552   0.865  0.1059  0.3627  0.1546
  661SOL    HW1 1982   2.248   2.583   0.923  0.4030  0.2297 -1.1163
  661SOL    HW2 1983   2.388   2.472   0.905  2.3440 -3.1308 -1.8685
  662SOL     OW 1984   0.498   0.745   0.209 -0.4393  0.2855 -0.1057
  662SOL    HW1 1985   0.426   0.684   0.250 -1.8018  0.5900  0.9693
  662SOL    HW2 1986   0.516   0.714   0.115  1.1111 -1.1415  3.3059
  663SOL     OW 1987   1.299   2.331   2.508  0.0645  0.3682  0.2905
  663SOL    HW1 1988   1.402   2.336   2.518  1.4634  0.7860  1.7395
  663SOL    HW2 1989   1.276   2.271   2.427  1.0978  2.7079  0.7704
  664SOL     OW 1990   1.123   2.486   1.368  0.0192  0.4466  0.4061
  664SOL    HW1 1991   1.081   2.571   1.403  0.0740 -1.4811 -0.2560
  664SOL    HW2 1992   1.211   2.512   1.318 -0.2134  2.1699 -0.7954
  665SOL     OW 1993   1.570   1.510   1.571 -0.0560 -0.7897 -0.2200
  665SOL    HW1 1994   1.487   1.522   1.632 -1.3848 -1.9362  1.1066
  665SOL    HW2 1995   1.554   1.542   1.474 -3.2292  1.1780 -0.3207
  666SOL     OW 1996   0.402   2.482   0.270  0.4653 -0.0594  0.1873
  666SOL    HW1 1997   0.470   2.513   0.202  1.4221  1.5370 -0.1164
  666SOL    HW2 1998   0.333   2.553   0.295  1.5132  3.0184  2.9042
  667SOL     OW 1999   1.938   1.272   1.436 -0.3219 -0.0828 -0.1135
  667SOL    HW1 2000   2.023   1.265   1.488 -0.3006  2.0168  0.3719
  667SOL    HW2 2001   1.872   1.343   1.477 -0.1367 -2.7889 -1.5776
  668SOL     OW 2002   0.284   0.106   2.118 -0.0330 -0.7740 -0.5098
  668SOL    HW1 2003   0.372   0.089   2.066 -0.2963 -0.8746 -0.3461
  668SOL    HW2 2004   0.209   0.112   2.045 -1.1006 -1.9496 -1.9822
  669SOL     OW 2005   1.867   1.956   2.217  0.2388  1.1477 -0.0577
  669SOL    HW1 2006   1.848   2.043   2.173  0.6800 -2.1975  0.4789
  669SOL    HW2 2007   1.788   1.893   2.216  0.1129  1.5608 -0.4701
  670SOL     OW 2008   2.338   1.928   0.556 -0.3872 -0.5104  0.3277
  670SOL    HW1 2009   2.379   1.874   0.481  0.7101  1.1406  0.4388
  670SOL    HW2 2010   2.396   2.011   0.563  1.4960  1.6921  0.0319
  671SOL     OW 2011   0.917   1.121   1.613 -0.5566 -0.0655  0.2289
  671SOL    HW1 2012   0.929   1.158   1.516  0.1000  1.2329 -0.2777
  671SOL    HW2 2013   1.011   1.096   1.647  2.2465  0.9715 -1.4608
  672SOL     OW 2014   2.599   1.308   2.302  0.1444  0.2559 -0.3509
  672SOL    HW1 2015   2.573   1.354   2.387 -3.2084  0.4758 -3.2247
  672SOL    HW2 2016   2.692   1.341   2.271  0.5938 -0.6684 -1.6434
  673SOL     OW 2017   2.924   1.787   2.368 -0.0423  0.3278  0.1970
  673SOL    HW1 2018   2.883   1.738   2.445 -0.4083  2.4464 -1.9888
  673SOL    HW2 2019   3.022   1.784   2.369 -1.2761  0.0995 -0.2983
  674SOL     OW 2020   1.052   2.994   2.214 -1.1820 -0.2559  0.1693
  674SOL    HW1 2021   1.086   2.918   2.275  0.0515  1.8275  0.9530
  674SOL    HW2 2022   0.953   3.019   2.238 -0.2391 -0.3392  0.8415
  675SOL     OW 2023   0.632   0.742   1.561 -0.5185 -0.3063  0.4519
  675SOL    HW1 2024   0.732   0.729   1.583  1.2915  0.4788 -1.1273
  675SOL    HW2 2025   0.610   0.841   1.549 -0.3120  2.3638 -0.6836
  676SOL     OW 2026   1.937   0.863   0.407 -0.2374 -0.0499  0.6477
  676SOL    HW1 2027   1.937   0.843   0.501 -0.7749  1.6849 -3.5392
  676SOL    HW2 2028   2.023   0.851   0.360 -1.9578  1.6367  0.4837
  677SOL     OW 2029   2.830   1.801   2.918  0.0109 -0.1482 -0.6031
  677SOL    HW1 2030   2.806   1.707   2.882 -0.2582 -1.6242  2.2527
  677SOL    HW2 2031   2.931   1.812   2.930  0.7382 -2.4490  0.2954
  678SOL     OW 2032   3.017   3.046   1.279  0.0697  0.1653 -0.2447
  678SOL    HW1 2033   0.019   0.004   1.245  1.3593  0.1723  1.2714
  678SOL    HW2 2034   3.024   3.058   1.380 -1.6908  0.4227 -0.4268
  679SOL     OW 2035   2.112   0.070   0.540  0.4200  0.3851  0.0352
  679SOL    HW1 2036   2.163   0.140   0.594  0.2441  0.0507  0.0722
  679SOL    HW2 2037   2.176   0.027   0.475 -1.7848  0.7565  2.3235
  680SOL     OW 2038   0.344   2.346   2.175  0.4374 -0.0790 -0.0820
  680SOL    HW1 2039   0.397   2.262   2.186 -2.4437 -1.0413  0.2412
  680SOL    HW2 2040   0.408   2.409   2.130  0.5366  1.9141  1.1092
  681SOL     OW 2041   0.220   1.585   1.502 -0.3636  0.4934 -0.0037
  681SOL    HW1 2042   0.180   1.602   1.412  2.5191 -1.3119  1.5297
  681SOL    HW2 2043   0.242   1.680   1.541 -1.5842 -0.9009 -0.6050
  682SOL     OW 2044   0.467   2.332   1.701 -0.3650 -0.4799 -1.0306
  682SOL    HW1 2045   0.398   2.257   1.710  2.6573 -0.9727 -0.7708
  682SOL    HW2 2046   0.434   2.411   1.756 -2.8479 -0.3413  0.6730
  683SOL     OW 2047   3.074   1.907   1.628  0.3973  0.0731  0.6224
  683SOL    HW1 2048   0.008   1.996   1.665 -0.7117  1.3488 -0.2064
  683SOL    HW2 2049   0.052   1.837   1.655  0.3235  1.9460  0.9007
  684SOL     OW 2050   2.413   1.602   2.999 -0.4410 -0.1442 -0.4274
  684SOL    HW1 2051   2.353   1.562   3.070 -1.2065 -0.9119 -0.2034
  684SOL    HW2 2052   2.506   1.627   3.039 -0.4670 -1.6383 -1.2705
  685SOL     OW 2053   1.458   0.991   0.284 -0.0696  0.0975  0.1515
  685SOL    HW1 2054   1.536   0.930   0.252  0.7364 -2.8377  1.7887
  685SOL    HW2 2055   1.450   1.076   0.225  1.0409  1.5652 -1.8845
  686SOL     OW 2056   0.121   0.119   0.680  0.3099  0.4724 -0.6763
  686SOL    HW1 2057   0.188   0.083   0.750  2.7719 -0.6382  1.2484
  686SOL    HW2 2058   0.139   0.220   0.671  0.2494 -1.0419  1.4495
  687SOL     OW 2059   0.885   1.475   2.609  0.1122  0.0022  0.2067
  687SOL    HW1 2060   0.900   1.423   2.523  4.6721 -0.7616  0.8802
  687SOL    HW2 2061   0.945   1.433   2.680  1.7635  1.3751 -0.3446
  688SOL     OW 2062   1.045   1.615   1.532 -0.3627  0.0335  0.1108
  688SOL    HW1 2063   0.963   1.610   1.467  0.2001  0.1535 -1.5144
  688SOL    HW2 2064   1.053   1.704   1.577 -0.3626  2.7977 -2.1595
  689SOL     OW 2065   2.440   0.189   1.289 -0.0134  0.2749  0.0106
  689SOL    HW1 2066   2.518   0.142   1.243 -2.0232 -3.0266 -0.3871
  689SOL    HW2 2067   2.357   0.183   1.233 -3.7722 -0.0223 -1.8426
  690SOL     OW 2068   2.981   1.447   0.866  0.5712  0.2737  0.0109
  690SOL    HW1 2069   3.042   1.470   0.942  0.1781 -0.0585  0.6484
  690SOL    HW2 2070   3.026   1.400   0.789 -1.3053 -4.7833  3.0866
  691SOL     OW 2071   0.375   2.354   1.220 -0.0951  0.2460  0.4781
  691SOL    HW1 2072   0.456   2.351   1.283  0.2989 -2.9279 -0.3088
  691SOL    HW2 2073   0.292   2.320   1.273 -2.3303 -0.2815 -0.4811
  692SOL     OW 2074   2.128   3.031   1.319 -0.4355  0.1457 -0.0135
  692SOL    HW1 2075   2.143   0.028   1.261  0.0657 -0.6744  1.8897
  692SOL    HW2 2076   2.040   3.020   1.369  4.6707  0.4694  0.1799
  693SOL     OW 2077   0.232   2.015   2.348 -0.3423 -0.1549 -1.1031
  693SOL    HW1 2078   0.172   1.941   2.384 -1.2922 -2.6041  0.1304
  693SOL    HW2 2079   0.172   2.089   2.306 -1.5718  2.8245 -0.4613
  694SOL     OW 2080   1.686   0.969   1.566 -0.9232  0.6017  0.0186
  694SOL    HW1 2081   1.780   0.928   1.549  2.0932  0.0983 -0.4200
  694SOL    HW2 2082   1.647   1.000   1.478  0.0107  0.4600 -2.1040
  695SOL     OW 2083   0.807   0.726   1.269  0.1729 -0.0423 -0.1846
  695SOL    HW1 2084   0.827   0.689   1.358  2.4296  0.2600 -0.5622
  695SOL    HW2 2085   0.895   0.722   1.215  0.7449  0.4742  2.1301
  696SOL     OW 2086   1.425   0.015   0.738  0.3548  0.5008  0.0764
  696SOL    HW1 2087   1.493   3.079   0.813  1.6335 -0.6557  1.5319
  696SOL    HW2 2088   1.463   0.015   0.644  2.2725  0.9954 -1.8371
  697SOL     OW 2089   0.966   0.449   1.363  0.0698 -0.2492 -0.0684
  697SOL    HW1 2090   1.040   0.414   1.424  2.4397  1.8588 -1.9208
  697SOL    HW2 2091   0.987   0.441   1.266 -0.3159  1.4390  0.4598
  698SOL     OW 2092   1.322   1.071   2.116 -0.5749  0.5752 -0.3286
  698SOL    HW1 2093   1.228   1.043   2.152 -0.4786 -0.4036  0.7680
  698SOL    HW2 2094   1.376   1.115   2.188 -0.0746 -0.0894 -1.5824
  699SOL     OW 2095   1.825   0.571   1.065  0.0009 -0.0774 -0.0087
  699SOL    HW1 2096   1.802   0.529   0.978  1.5278  0.1029  1.8537
  699SOL    HW2 2097   1.790   0.667   1.078  1.1576  0.3145  1.1688
  700SOL     OW 2098   0.844   2.443   0.234  0.5609  0.2112 -0.1369
  700SOL    HW1 2099   0.883   2.513   0.298  2.2886  1.4085  1.7162
  700SOL    HW2 2100   0.845   2.351   0.282  0.3404 -2.3156 -0.4477
  701SOL     OW 2101   2.222   2.383   2.894  0.0002  0.3895 -0.0867
  701SOL    HW1 2102   2.162   2.447   2.838 -0.3487  0.1547 -1.1269
  701SOL    HW2 2103   2.282   2.325   2.838  0.4553  1.1362 -0.5946
  702SOL     OW 2104   0.680   0.507   0.694 -0.0097  0.2681 -0.4654
  702SOL    HW1 2105   0.680   0.454   0.782  2.6274 -2.1782  2.1521
  702SOL    HW2 2106   0.763   0.490   0.637  0.7222  0.6657  2.4749
  703SOL     OW 2107   2.355   0.103   2.405 -0.2171 -0.0758  0.0103
  703SOL    HW1 2108   2.323   0.058   2.320  0.3572 -0.2259 -1.3057
  703SOL    HW2 2109   2.364   0.203   2.392  2.1042 -0.3333 -2.5379
  704SOL     OW 2110   3.040   2.253   0.488 -0.0495 -0.2490 -0.1758
  704SOL    HW1 2111   0.009   2.323   0.436 -0.7310 -0.1524 -1.6961
  704SOL    HW2 2112   0.002   2.181   0.537 -0.5752 -1.4442 -0.0153
  705SOL     OW 2113   2.804   2.691   2.466  0.2105 -0.0223 -0.1898
  705SOL    HW1 2114   2.850   2.656   2.384  0.9101  2.1025 -0.7862
  705SOL    HW2 2115   2.769   2.781   2.435  2.8611 -3.9821 -1.6317
  706SOL     OW 2116   2.051   2.831   1.147 -0.6993  0.7728  0.4326
  706SOL    HW1 2117   1.950   2.814   1.144  0.6070  1.2943  0.7857
  706SOL    HW2 2118   2.076   2.911   1.208 -0.7596 -0.3148  0.1232
  707SOL     OW 2119   0.890   2.768   2.084  0.6779 -0.7587 -0.5964
  707SOL    HW1 2120   0.932   2.713   2.011  0.9953 -0.2108  0.6156
  707SOL    HW2 2121   0.949   2.784   2.164  2.1582  1.6669  3.3101
  708SOL     OW 2122   0.097   2.206   2.188  0.1153 -0.2404 -0.6892
  708SOL    HW1 2123   0.033   2.259   2.249 -0.8902 -1.3528 -0.7904
  708SOL    HW2 2124   0.173   2.266   2.153  0.4135  0.5636 -1.6975
  709SOL     OW 2125   1.889   0.209   1.826  0.0014  0.1075 -0.4352
  709SOL    HW1 2126   1.829   0.289   1.807 -0.8101 -1.0848  1.0260
  709SOL    HW2 2127   1.846   0.134   1.886  0.3041 -1.1276  2.0373
  710SOL     OW 2128   1.416   0.546   2.680  0.3744  0.3123 -0.8500
  710SOL    HW1 2129   1.505   0.503   2.659 -0.4563  1.6426  0.3881
  710SOL    HW2 2130   1.401   0.642   2.638  0.3218  1.9524  1.0085
  711SOL     OW 2131   0.810   2.012   2.723 -0.0196  0.1173 -0.1458
  711SOL    HW1 2132   0.826   2.110   2.739 -2.2205 -0.4512  0.0414
  711SOL    HW2 2133   0.885   1.960   2.774 -0.5281  0.3192 -0.3597
  712SOL     OW 2134   0.556   2.467   2.539  0.0473 -0.7690  0.5787
  712SOL    HW1 2135   0.565   2.454   2.639 -0.7542 -0.0470 -1.3096
  712SOL    HW2 2136   0.550   2.380   2.491 -1.6089  0.0849  2.4763
  713SOL     OW 2137   1.639   1.322   2.557 -0.4776  0.8509 -0.0642
  713SOL    HW1 2138   1.696   1.242   2.542  1.5443  0.3540  1.8144
  713SOL    HW2 2139   1.641   1.382   2.476  1.4101  0.5527 -0.9823
  714SOL     OW 2140   1.188   1.548   1.981 -0.1215 -0.1206  0.1623
  714SOL    HW1 2141   1.127   1.614   1.929  0.5427  1.1154 -2.2043
  714SOL    HW2 2142   1.261   1.505   1.922  1.3817  3.1105 -1.0807
  715SOL     OW 2143   1.928   0.634   2.549  0.2376  0.0721  0.3942
  715SOL    HW1 2144   1.935   0.549   2.607 -0.4288  0.1885  2.3933
  715SOL    HW2 2145   1.910   0.618   2.451  2.1315 -0.4704  0.7325
  716SOL     OW 2146   0.043   2.154   1.756  0.1384  0.2215 -0.4558
  716SOL    HW1 2147   3.086   2.173   1.845  0.0100  0.0645 -3.1450
  716SOL    HW2 2148   0.057   2.242   1.707 -1.6515 -3.7602 -2.1437
  717SOL     OW 2149   2.568   1.333   0.631  0.3116 -0.0672 -0.2916
  717SOL    HW1 2150   2.549   1.383   0.721 -1.7421  2.1349  3.1029
  717SOL    HW2 2151   2.548   1.233   0.638 -0.2480 -0.3593 -0.3972
  718SOL     OW 2152   1.205   2.006   2.030 -0.0440  0.8674  0.4393
  718SOL    HW1 2153   1.238   2.102   2.033  0.0611 -1.5140  2.7249
  718SOL    HW2 2154   1.164   1.987   2.119  1.1132 -1.0192 -1.6792
  719SOL     OW 2155   2.143   0.821   2.518  0.1983  0.5199  0.2721
  719SOL    HW1 2156   2.073   0.757   2.553 -2.7477 -2.0270 -0.2603
  719SOL    HW2 2157   2.117   0.905   2.466 -1.2389 -0.7112 -1.2005
  720SOL     OW 2158   0.762   0.365   0.953  0.0167 -0.1333 -0.1553
  720SOL    HW1 2159   0.798   0.338   1.044 -1.8230 -0.8741 -3.6172
  720SOL    HW2 2160   0.793   0.298   0.882  1.0716  3.6504  0.1327
  721SOL     OW 2161   2.969   0.833   0.527 -0.0945  0.1081  0.4891
  721SOL    HW1 2162   3.002   0.800   0.434  0.2289 -0.5246 -2.3772
  721SOL    HW2 2163   2.870   0.860   0.529 -2.6431  1.9221  0.6572
  722SOL     OW 2164   3.075   0.397   2.667  0.0893  0.8548 -0.6383
  722SOL    HW1 2165   2.977   0.421   2.657 -0.0814  1.0017  1.1659
  722SOL    HW2 2166   0.048   0.470   2.695 -0.1150 -3.7665  0.7370
  723SOL     OW 2167   1.529   0.204   0.344  0.3589 -0.3497  0.8886
  723SOL    HW1 2168   1.431   0.229   0.355 -1.3620 -2.3960  0.2485
  723SOL    HW2 2169   1.551   0.128   0.410  0.6101  1.9788 -2.1269
  724SOL     OW 2170   0.830   1.942   2.239  0.2792  0.2855  0.0360
  724SOL    HW1 2171   0.770   1.921   2.160  0.4347 -2.9065  1.4630
  724SOL    HW2 2172   0.786   1.904   2.321  2.1450  1.1005 -2.7600
  725SOL     OW 2173   1.575   3.008   0.953  0.7713 -0.3022  0.5600
  725SOL    HW1 2174   1.667   2.985   0.929 -1.8467  0.1702 -1.1196
  725SOL    HW2 2175   1.576   0.005   1.008 -1.8911 -0.6596 -0.9497
  726SOL     OW 2176   1.839   2.560   0.057  0.1015 -0.4880 -0.0538
  726SOL    HW1 2177   1.842   2.464   0.027 -0.2759 -1.7510 -0.9870
  726SOL    HW2 2178   1.931   2.594   0.090  2.8568 -0.2043 -0.6174
  727SOL     OW 2179   1.467   1.569   1.015 -0.4548 -0.4299  0.3899
  727SOL    HW1 2180   1.418   1.655   0.993  1.2267 -3.1326 -0.7422
  727SOL    HW2 2181   1.550   1.564   0.955 -0.2145 -3.7064  0.0241
  728SOL     OW 2182   2.315   2.762   1.712  0.5773  0.0619 -0.9419
  728SOL    HW1 2183   2.343   2.806   1.625 -2.3779 -1.7587  0.9072
  728SOL    HW2 2184   2.394   2.714   1.753 -3.3929  1.5784  2.3919
  729SOL     OW 2185   2.243   1.921   1.297 -0.1472 -0.1166  0.1431
  729SOL    HW1 2186   2.261   1.823   1.320  2.5793 -0.6828 -1.4158
  729SOL    HW2 2187   2.247   1.930   1.199  1.1178  0.6578  2.2116
  730SOL     OW 2188   1.467   0.594   2.935 -0.1557  0.3040 -0.0122
  730SOL    HW1 2189   1.467   0.576   2.836  0.9181 -0.5395 -0.4134
  730SOL    HW2 2190   1.538   0.536   2.985 -1.7402  0.9834 -1.8758
  731SOL     OW 2191   0.508   0.153   0.683  0.1595 -0.3865 -0.3390
  731SOL    HW1 2192   0.446   0.131   0.606 -0.7683  0.9904  0.1571
  731SOL    HW2 2193   0.592   0.094   0.681  0.9300 -0.1250 -1.6301
  732SOL     OW 2194   1.424   0.306   0.642 -0.1185 -0.0494  0.3287
  732SOL    HW1 2195   1.384   0.246   0.571  0.5046 -4.3119 -0.9130
  732SOL    HW2 2196   1.433   0.254   0.733 -0.6982 -2.2060  1.9995
  733SOL     OW 2197   0.828   1.660   1.381 -0.3916  0.0005 -0.0187
  733SOL    HW1 2198   0.736   1.634   1.355  2.9296 -1.3618  1.0235
  733SOL    HW2 2199   0.863   1.746   1.337 -0.9329 -1.7228 -1.3189
  734SOL     OW 2200   2.661   2.675   3.049 -0.2605  0.6901 -0.1554
  734SOL    HW1 2201   2.587   2.753   3.057 -2.0709  3.6333 -0.7289
  734SOL    HW2 2202   2.634   2.622   2.971  0.9994 -0.5855  0.7135
  735SOL     OW 2203   1.201   2.823   1.160  0.1708 -0.0806 -0.7889
  735SOL    HW1 2204   1.103   2.840   1.171  0.5143 -1.5722  3.0674
  735SOL    HW2 2205   1.238   2.839   1.066  2.4952 -0.2888  1.8965
  736SOL     OW 2206   1.794   1.886   0.350  0.2656 -0.0864  0.2980
  736SOL    HW1 2207   1.787   1.947   0.267 -0.3908  0.4376 -0.5117
  736SOL    HW2 2208   1.875   1.829   0.341 -1.4457 -0.0942  0.3877
  737SOL     OW 2209   0.034   1.458   1.116  0.2941 -0.3752 -0.1338
  737SOL    HW1 2210   0.122   1.495   1.152  2.7483 -1.7492 -2.5150
  737SOL    HW2 2211   3.053   1.469   1.188 -2.1465 -2.7396  0.0939
  738SOL     OW 2212   2.095   2.182   2.615 -0.5801  0.0717 -0.1998
  738SOL    HW1 2213   2.148   2.243   2.552  1.5857  2.2117 -0.3843
  738SOL    HW2 2214   2.024   2.236   2.664  1.1364 -1.4922 -1.5648
  739SOL     OW 2215   1.137   1.908   2.732 -0.6746  0.4170  0.5842
  739SOL    HW1 2216   1.157   2.006   2.742  1.1919  0.7229 -0.5352
  739SOL    HW2 2217   1.160   1.858   2.821 -0.3870 -0.5928 -0.5476
  740SOL     OW 2218   1.366   2.853   0.956 -0.7063 -0.7703 -0.3983
  740SOL    HW1 2219   1.448   2.910   0.984 -2.7975 -1.2220 -0.2007
  740SOL    HW2 2220   1.338   2.863   0.858 -3.1462 -2.2531 -0.5689
  741SOL     OW 2221   0.308   0.972   0.727  0.0274  0.6326  0.2729
  741SOL    HW1 2222   0.252   1.000   0.808  1.9518  2.0397 -1.4343
  741SOL    HW2 2223   0.409   0.984   0.749  2.6345 -0.4023  0.4673
  742SOL     OW 2224   0.992   1.762   2.536 -0.3043 -0.1841 -0.1310
  742SOL    HW1 2225   1.053   1.832   2.581 -0.2036  0.2012 -1.9908
  742SOL    HW2 2226   0.908   1.752   2.591  0.7434  1.3980  1.5152
  743SOL     OW 2227   0.924   1.016   2.089  0.0515  0.0320  0.5258
  743SOL    HW1 2228   0.823   1.030   2.091 -1.2190  0.6056 -2.5726
  743SOL    HW2 2229   0.969   1.084   2.032 -0.1912 -1.9229  0.0490
  744SOL     OW 2230   2.035   0.073   1.663 -0.1353  0.0785 -0.0033
  744SOL    HW1 2231   1.976   0.104   1.742 -0.2306 -2.4762 -0.0701
  744SOL    HW2 2232   2.071   0.146   1.604 -1.7971  0.2328 -0.4415
  745SOL     OW 2233   2.145   1.261   1.613 -0.0610 -0.4137 -0.3131
  745SOL    HW1 2234   2.179   1.348   1.652  1.4680 -2.0377 -0.6856
  745SOL    HW2 2235   2.132   1.192   1.684  1.2503  3.4403 -2.8811
  746SOL     OW 2236   1.875   1.150   0.475  0.6433 -0.2006  0.7336
  746SOL    HW1 2237   1.840   1.205   0.396  0.9089  1.9129  1.4721
  746SOL    HW2 2238   1.902   1.054   0.447  0.0469 -1.6952 -1.0944
  747SOL     OW 2239   2.474   1.737   0.826  0.0173 -0.6561 -0.4108
  747SOL    HW1 2240   2.516   1.784   0.746 -1.1449 -2.7010  0.2985
  747SOL    HW2 2241   2.375   1.721   0.814  2.3282 -3.7254  0.9715
  748SOL     OW 2242   0.169   1.772   0.433  0.5974 -0.4485  0.0894
  748SOL    HW1 2243   0.259   1.735   0.407 -0.5134 -0.2591 -2.0020
  748SOL    HW2 2244   0.126   1.718   0.508  1.0423  3.6130 -1.0598
  749SOL     OW 2245   2.975   2.466   2.851  0.3208 -0.2746 -0.7025
  749SOL    HW1 2246   2.951   2.450   2.750  0.6264  0.1504  1.7077
  749SOL    HW2 2247   2.922   2.540   2.890  0.8829 -0.5757  1.2903
  750SOL     OW 2248   2.168   0.843   0.610  0.0785 -0.0899  0.7440
  750SOL    HW1 2249   2.237   0.777   0.576  1.8153 -0.7685  0.8035
  750SOL    HW2 2250   2.204   0.938   0.612  0.3829 -1.1203 -1.1921
  751SOL     OW 2251   2.506   0.053   0.090 -0.2843  0.0839  0.7184
  751SOL    HW1 2252   2.433   0.094   0.032  0.1651 -1.4511 -1.3828
  751SOL    HW2 2253   2.582   0.019   0.029  2.4578  0.8015  1.0397
  752SOL     OW 2254   2.782   2.725   0.891  0.0948 -0.3483  0.3223
  752SOL    HW1 2255   2.836   2.786   0.948 -0.7573 -2.3025 -0.7785
  752SOL    HW2 2256   2.758   2.637   0.945 -3.4676  1.0359  2.6150
  753SOL     OW 2257   1.484   1.207   2.295  0.5013 -0.1500  0.1941
  753SOL    HW1 2258   1.500   1.306   2.259  1.0180  4.3228 -2.3852
  753SOL    HW2 2259   1.408   1.195   2.365 -1.3997 -1.8016  1.1044
  754SOL     OW 2260   1.881   1.993   1.842  0.0668  0.3216  0.1302
  754SOL    HW1 2261   1.908   1.983   1.741  2.8763 -2.8659 -0.5239
  754SOL    HW2 2262   1.932   1.929   1.900 -3.5402  0.2379 -2.0346
  755SOL     OW 2263   2.560   0.986   0.850 -1.0484 -0.1761 -0.1367
  755SOL    HW1 2264   2.660   0.960   0.844 -1.7784  2.1812 -0.7679
  755SOL    HW2 2265   2.544   1.036   0.936 -2.1290 -0.9697  1.2816
  756SOL     OW 2266   0.585   1.505   2.915  0.5164  0.0488  0.7055
  756SOL    HW1 2267   0.495   1.509   2.874  1.6921  1.0148 -1.0935
  756SOL    HW2 2268   0.642   1.577   2.865  1.8918  2.7763 -0.8495
  757SOL     OW 2269   1.739   2.520   1.245 -0.4019 -0.1014  0.0119
  757SOL    HW1 2270   1.717   2.473   1.161  0.8077  1.1425 -0.3482
  757SOL    HW2 2271   1.841   2.509   1.256  3.8096 -2.7796  0.6387
  758SOL     OW 2272   1.457   2.318   1.559 -0.1114 -0.1245  0.4263
  758SOL    HW1 2273   1.463   2.322   1.459  1.6498  2.4903  0.9100
  758SOL    HW2 2274   1.427   2.413   1.586  2.4608  0.2941 -2.5336
  759SOL     OW 2275   2.786   1.424   1.060  0.1274  0.2529 -0.3198
  759SOL    HW1 2276   2.795   1.514   1.103  0.6046  1.1629 -1.3907
  759SOL    HW2 2277   2.860   1.408   0.988  1.7418 -0.0290 -0.8308
  760SOL     OW 2278   2.348   1.220   1.366  0.3127  0.5224 -0.1472
  760SOL    HW1 2279   2.310   1.180   1.281 -1.2758  0.2978  1.2721
  760SOL    HW2 2280   2.313   1.184   1.455 -0.6348  4.0088 -0.9841
  761SOL     OW 2281   1.871   3.046   0.255  0.5536 -0.7170  0.1398
  761SOL    HW1 2282   1.900   3.043   0.356  0.0089  0.4531  1.3007
  761SOL    HW2 2283   1.862   0.057   0.221 -0.0042  0.4244  0.9067
  762SOL     OW 2284   1.704   1.585   2.777 -0.1499  0.0946 -0.4112
  762SOL    HW1 2285   1.719   1.483   2.774 -1.5188  1.6038 -1.9073
  762SOL    HW2 2286   1.791   1.639   2.778 -2.4170  0.1963 -1.1286
  763SOL     OW 2287   0.647   2.111   1.684  0.2417  0.5015 -0.1441
  763SOL    HW1 2288   0.590   2.029   1.674 -1.0317 -1.3286  1.5533
  763SOL    HW2 2289   0.583   2.187   1.684 -1.7737 -2.1720 -0.8400
  764SOL     OW 2290   3.021   2.412   0.138  0.4760 -0.2214  0.0135
  764SOL    HW1 2291   2.925   2.440   0.157 -0.1144  0.4317 -0.4219
  764SOL    HW2 2292   3.063   2.474   0.074 -2.9766  0.3281 -0.3814
  765SOL     OW 2293   0.566   3.045   1.178  0.3787  0.1341  0.5923
  765SOL    HW1 2294   0.652   3.081   1.209 -1.4277 -3.0066 -1.4630
  765SOL    HW2 2295   0.574   2.944   1.155 -1.4966 -2.3445 -1.2113
  766SOL     OW 2296   2.778   2.136   2.042  0.7705 -0.8135  0.2163
  766SOL    HW1 2297   2.808   2.100   2.132 -2.4676  0.6279  0.4159
  766SOL    HW2 2298   2.736   2.059   1.985 -0.5078 -1.7049 -2.7202
  767SOL     OW 2299   2.716   0.885   2.107 -0.1450  0.5886 -0.4242
  767SOL    HW1 2300   2.671   0.818   2.043 -1.5201 -1.3133 -2.5166
  767SOL    HW2 2301   2.817   0.879   2.101  0.9619 -1.0069  1.8579
  768SOL     OW 2302   0.834   0.449   2.542 -0.3937 -0.2009  0.5514
  768SOL    HW1 2303   0.739   0.456   2.504 -1.4382  3.7268 -0.3434
  768SOL    HW2 2304   0.863   0.350   2.540 -1.8059  0.2041  0.6543
  769SOL     OW 2305   2.439   2.788   0.830  0.6335  0.3141  0.1346
  769SOL    HW1 2306   2.520   2.742   0.787 -2.0429 -0.6854 -1.1990
  769SOL    HW2 2307   2.372   2.713   0.846  1.6077  0.8698  0.5840
  770SOL     OW 2308   0.154   2.883   2.765 -0.2067 -0.0520 -0.7126
  770SOL    HW1 2309   0.155   2.917   2.666 -0.9054  0.0969 -1.9620
  770SOL    HW2 2310   0.079   2.930   2.817 -1.6148  0.6074  0.4756
  771SOL     OW 2311   1.632   2.094   1.920  0.0328  0.1900 -0.1505
  771SOL    HW1 2312   1.722   2.056   1.901 -0.5444  2.3205 -0.0410
  771SOL    HW2 2313   1.578   2.024   1.977  3.9228 -0.6598  0.9762
  772SOL     OW 2314   1.150   0.076   2.871  0.0483 -0.0752  0.2188
  772SOL    HW1 2315   1.054   0.043   2.876 -0.3795  0.8967 -0.8116
  772SOL    HW2 2316   1.215   3.085   2.858  0.8839 -1.1126 -0.1228
  773SOL     OW 2317   2.456   0.558   1.647 -0.6843 -0.0926  0.4296
  773SOL    HW1 2318   2.535   0.550   1.709 -1.1809  0.3804  3.1328
  773SOL    HW2 2319   2.402   0.642   1.668  0.7033 -0.1809  1.7196
  774SOL     OW 2320   0.938   1.209   1.352  0.7358  0.4954  0.3821
  774SOL    HW1 2321   1.006   1.177   1.288 -1.1791  2.0588  4.3365
  774SOL    HW2 2322   0.842   1.201   1.317  2.8615 -0.9192  0.3164
  775SOL     OW 2323   2.287   2.727   2.867 -0.1231 -0.1547 -0.2981
  775SOL    HW1 2324   2.284   2.826   2.860  1.9751 -1.6221 -1.6869
  775SOL    HW2 2325   2.261   2.696   2.962 -1.0955  1.1989  1.6100
  776SOL     OW 2326   2.413   1.033   1.730 -0.9090 -0.6255  0.4908
  776SOL    HW1 2327   2.418   1.029   1.832  0.5584 -2.4582 -1.0559
  776SOL    HW2 2328   2.470   1.105   1.691  0.6421 -6.1530 -1.0834
  777SOL     OW 2329   0.288   1.038   2.133  0.3368  0.3555 -0.4642
  777SOL    HW1 2330   0.327   0.946   2.146 -1.1896  2.1475 -0.3257
  777SOL    HW2 2331   0.351   1.104   2.175 -0.6144 -0.3950  1.4769
  778SOL     OW 2332   0.524   0.690   3.036 -0.3361 -0.2787 -0.2513
  778SOL    HW1 2333   0.489   0.761   2.974  2.5831 -0.1252 -2.4470
  778SOL    HW2 2334   0.477   0.605   3.012  1.1722  1.9439  0.9193
  779SOL     OW 2335   0.599   0.412   2.404 -0.0525  0.2124  0.3558
  779SOL    HW1 2336   0.604   0.318   2.446 -1.3884 -1.2522  1.6311
  779SOL    HW2 2337   0.499   0.440   2.403  0.0617  1.6062  0.6856
  780SOL     OW 2338   2.173   1.209   2.707 -0.1494  0.7518 -0.1898
  780SOL    HW1 2339   2.247   1.231   2.776  0.4666 -0.3902 -2.4683
  780SOL    HW2 2340   2.202   1.213   2.607  2.6877  3.2210 -2.6389
  781SOL     OW 2341   2.945   1.165   2.060  0.0786 -0.2230 -0.2680
  781SOL    HW1 2342   2.872   1.160   1.994  2.6063  4.6514  1.9227
  781SOL    HW2 2343   2.970   1.067   2.084  1.4391 -3.3907 -0.9229
  782SOL     OW 2344   0.315   1.628   2.791  0.0067  0.3766 -0.0636
  782SOL    HW1 2345   0.300   1.566   2.873 -0.5080 -2.5293  0.9379
  782SOL    HW2 2346   0.234   1.636   2.736  2.4373 -1.9015 -0.0641
  783SOL     OW 2347   1.193   2.080   1.023  0.5239  0.8339 -0.2259
  783SOL    HW1 2348   1.242   2.109   1.111  0.3833 -0.0521  0.2741
  783SOL    HW2 2349   1.223   2.137   0.947  0.1415 -0.5597  0.4574
  784SOL     OW 2350   1.653   0.418   2.622 -1.0146  0.3490 -0.7891
  784SOL    HW1 2351   1.616   0.332   2.658  1.4193 -0.1505 -1.6621
  784SOL    HW2 2352   1.748   0.405   2.590 -0.7783 -2.5362 -0.9718
  785SOL     OW 2353   0.722   0.115   1.827  0.3380 -0.6314 -0.0379
  785SOL    HW1 2354   0.763   0.023   1.810  0.2311 -0.1639 -0.2707
  785SOL    HW2 2355   0.716   0.160   1.733 -1.0470 -2.4656 -2.8815
  786SOL     OW 2356   0.572   2.054   0.335 -1.0160 -0.1158  0.4805
  786SOL    HW1 2357   0.529   1.985   0.273 -0.8387 -0.1977 -0.6491
  786SOL    HW2 2358   0.561   2.026   0.431  1.8483 -0.8363  1.3181
  787SOL     OW 2359   1.162   0.671   0.484  0.3482  0.2612 -0.0961
  787SOL    HW1 2360   1.182   0.702   0.386 -1.0979 -1.4155 -1.2002
  787SOL    HW2 2361   1.076   0.717   0.520  0.1341  0.2339  1.7647
  788SOL     OW 2362   2.780   1.676   1.130 -0.2552  0.5125  0.0262
  788SOL    HW1 2363   2.861   1.657   1.189 -1.0723  1.2234  0.2823
  788SOL    HW2 2364   2.711   1.721   1.186  1.8967  0.8046 -3.9282
  789SOL     OW 2365   2.613   1.039   2.303 -0.0620 -0.4685  0.3247
  789SOL    HW1 2366   2.645   0.979   2.227 -0.6201 -1.6924  1.0774
  789SOL    HW2 2367   2.609   1.140   2.276  0.4409  3.4221 -1.0498
  790SOL     OW 2368   0.643   0.158   0.094  0.1857  0.1317 -0.2478
  790SOL    HW1 2369   0.622   0.130   0.187  4.2301  0.1761  0.7899
  790SOL    HW2 2370   0.721   0.220   0.089 -0.8183  1.7238 -2.2890
  791SOL     OW 2371   2.924   0.327   3.058  0.0648  0.1096 -0.1929
  791SOL    HW1 2372   2.848   0.266   3.019 -0.6151 -2.9871 -1.0891
  791SOL    HW2 2373   2.942   0.316   0.070  1.7785 -2.8542 -0.3295
  792SOL     OW 2374   1.391   0.792   2.580  0.1541 -0.2977  0.0124
  792SOL    HW1 2375   1.310   0.799   2.633  5.0262  0.6407 -3.8014
  792SOL    HW2 2376   1.364   0.758   2.488 -0.9925 -1.5538  1.0905
  793SOL     OW 2377   0.019   0.301   0.960  0.1953 -0.1894  0.2621
  793SOL    HW1 2378   3.038   0.237   0.919  1.8304  0.6630 -0.3599
  793SOL    HW2 2379   0.050   0.263   1.049 -0.3151  0.4681 -0.0583
  794SOL     OW 2380   0.216   0.460   1.894 -0.2135  0.3137 -0.6279
  794SOL    HW1 2381   0.233   0.541   1.843 -2.0388 -3.6787  2.9491
  794SOL    HW2 2382   0.121   0.465   1.942 -4.2637 -0.1389  0.5455
  795SOL     OW 2383   0.309   1.136   0.527 -0.8593 -0.2834 -0.7742
  795SOL    HW1 2384   0.412   1.144   0.534  2.4137 -1.4600 -1.1365
  795SOL    HW2 2385   0.282   1.073   0.602 -1.2297  0.7838 -0.6276
  796SOL     OW 2386   0.159   0.847   3.042  0.5162 -0.2489  0.8248
  796SOL    HW1 2387   0.159   0.827   0.051 -1.0700  1.4958  0.8543
  796SOL    HW2 2388   0.233   0.912   3.018 -2.3212 -1.1886 -1.3545
  797SOL     OW 2389   1.878   2.569   2.560  0.4348 -0.3225 -0.4833
  797SOL    HW1 2390   1.852   2.631   2.638  1.1673  0.9820  0.2502
  797SOL    HW2 2391   1.805   2.560   2.491 -0.5917 -0.8423  1.4132
  798SOL     OW 2392   0.154   0.119   1.211 -0.3440  0.1921  0.4905
  798SOL    HW1 2393   0.129   0.193   1.278  0.7421 -3.0200 -2.5788
  798SOL    HW2 2394   0.255   0.125   1.189 -1.2396 -0.1798  0.1143
  799SOL     OW 2395   2.134   0.638   1.859  0.9844  0.5352 -0.1404
  799SOL    HW1 2396   2.209   0.671   1.793  2.4736  1.2858 -2.4467
  799SOL    HW2 2397   2.131   0.534   1.857  0.6554  1.1592 -1.7970
  800SOL     OW 2398   0.050   1.633   0.593  0.4637  0.6011 -0.4030
  800SOL    HW1 2399   0.070   1.534   0.613 -3.4954  0.2527 -1.9282
  800SOL    HW2 2400   3.041   1.636   0.562  1.6610  1.6345  0.6349
  801SOL     OW 2401   1.473   1.850   0.706 -0.1247  0.1281  0.3410
  801SOL    HW1 2402   1.468   1.845   0.803 -2.1830 -0.1471 -3.5482
  801SOL    HW2 2403   1.574   1.845   0.678  2.2454 -0.1465  0.4022
  802SOL     OW 2404   1.432   1.137   2.790 -0.3140  0.1165  0.4183
  802SOL    HW1 2405   1.405   1.221   2.739 -0.1712  0.1084  2.8202
  802SOL    HW2 2406   1.467   1.064   2.725 -1.2707 -1.9607  0.3770
  803SOL     OW 2407   0.307   2.139   1.776  0.4832  0.4545  0.2793
  803SOL    HW1 2408   0.206   2.146   1.760 -2.0239 -1.1665 -1.4170
  803SOL    HW2 2409   0.340   2.045   1.803  2.1208 -1.0290 -0.9288
  804SOL     OW 2410   1.707   2.369   1.020  0.6138 -0.2539 -0.2845
  804SOL    HW1 2411   1.769   2.354   0.941 -1.4998  1.9223  0.8585
  804SOL    HW2 2412   1.634   2.300   1.023  1.2857  0.9757  0.5218
  805SOL     OW 2413   2.411   2.202   2.825  0.3081 -0.3263 -0.5913
  805SOL    HW1 2414   2.454   2.254   2.903 -1.4947  2.7150  0.3181
  805SOL    HW2 2415   2.385   2.107   2.844  0.9221  1.4622  0.4773
  806SOL     OW 2416   2.891   0.174   0.750 -0.1911 -0.5374 -0.2038
  806SOL    HW1 2417   2.858   0.267   0.757  1.4203 -1.1069  0.9067
  806SOL    HW2 2418   2.878   0.130   0.660  1.6926 -0.4748 -0.3807
  807SOL     OW 2419   0.037   1.326   2.810 -0.0250 -0.0943  0.0079
  807SOL    HW1 2420   3.056   1.286   2.874 -0.9896  2.7838  3.3595
  807SOL    HW2 2421   3.086   1.403   2.751  1.8686 -0.5492 -1.2271
  808SOL     OW 2422   0.850   1.894   0.820 -0.4659 -0.6752  0.1845
  808SOL    HW1 2423   0.849   1.878   0.723 -0.3165 -1.0323  1.2208
  808SOL    HW2 2424   0.766   1.852   0.864 -3.0036  1.4810  0.8118
  809SOL     OW 2425   2.849   0.110   2.163 -0.0894  0.1629 -0.0032
  809SOL    HW1 2426   2.749   0.083   2.150 -1.2801 -1.1563 -0.0198
  809SOL    HW2 2427   2.858   0.195   2.221  0.0346 -0.7514 -0.1467
  810SOL     OW 2428   1.323   0.657   1.164 -0.0374 -0.5369  0.1169
  810SOL    HW1 2429   1.386   0.658   1.086 -3.2605  1.0538  0.1206
  810SOL    HW2 2430   1.356   0.724   1.237  1.0947  1.6696 -0.0413
  811SOL     OW 2431   1.794   0.016   1.994  0.7745 -0.3713 -0.2394
  811SOL    HW1 2432   1.812   3.007   1.978 -0.1643  0.9800  1.2162
  811SOL    HW2 2433   1.737   0.034   2.073  1.2783  0.3550 -2.6045
  812SOL     OW 2434   1.957   2.079   0.625  0.6548 -0.0568  0.0842
  812SOL    HW1 2435   1.856   2.058   0.641 -0.5595  1.1102  1.7718
  812SOL    HW2 2436   2.001   2.040   0.540  1.3118  1.4879  3.1922
  813SOL     OW 2437   1.231   0.457   1.780 -0.5940  0.1514  0.2973
  813SOL    HW1 2438   1.156   0.481   1.845  3.1101  0.2037  0.4130
  813SOL    HW2 2439   1.269   0.536   1.727  0.6037  2.0955  0.2739
  814SOL     OW 2440   0.268   0.019   0.901 -0.5348  0.2144  0.3214
  814SOL    HW1 2441   0.349   3.043   0.890  0.5228  0.0126  0.9833
  814SOL    HW2 2442   0.265   0.074   0.988  0.0758  0.4185  0.0434
  815SOL     OW 2443   3.000   0.019   0.533 -0.0663 -0.4643  0.4832
  815SOL    HW1 2444   3.005   3.006   0.527 -1.6964  1.6731  0.1498
  815SOL    HW2 2445   3.078   0.055   0.587 -2.0364  0.1342 -0.1498
  816SOL     OW 2446   2.405   1.813   2.201 -0.4374  0.3173  0.0886
  816SOL    HW1 2447   2.347   1.885   2.153 -0.3826  1.4406  1.5438
  816SOL    HW2 2448   2.381   1.810   2.300 -0.1577 -2.2006  0.1521
  817SOL     OW 2449   1.120   3.076   0.640 -0.2206  0.0993 -0.4651
  817SOL    HW1 2450   1.120   0.078   0.684 -1.7563 -0.1085 -0.7842
  817SOL    HW2 2451   1.196   3.014   0.673 -0.2835 -0.7132  2.3944
  818SOL     OW 2452   1.883   0.287   3.073  0.9482  0.1557 -0.0959
  818SOL    HW1 2453   1.850   0.215   3.008  2.1581  0.5206 -1.2125
  818SOL    HW2 2454   1.833   0.268   0.072  0.2516 -2.0757  0.8405
  819SOL     OW 2455   1.994   2.972   0.040 -0.2238  0.4486  0.0169
  819SOL    HW1 2456   2.034   2.877   0.050 -0.3817  0.8172 -0.1300
  819SOL    HW2 2457   1.945   2.995   0.132 -2.2899 -1.9074 -1.1695
  820SOL     OW 2458   1.910   1.133   2.805 -0.1562  0.3946  0.2370
  820SOL    HW1 2459   1.877   1.045   2.844 -2.5264  1.0693 -0.8261
  820SOL    HW2 2460   2.011   1.144   2.805 -1.8291 -1.3469 -1.7196
  821SOL     OW 2461   3.078   0.530   1.091 -0.2497 -0.0148 -0.1710
  821SOL    HW1 2462   3.050   0.443   1.041 -0.5975 -1.3301  0.0423
  821SOL    HW2 2463   0.059   0.582   1.035  1.1923  0.9594 -1.4364
  822SOL     OW 2464   1.140   2.785   2.378 -0.5286 -0.2315 -0.2488
  822SOL    HW1 2465   1.145   2.684   2.384  1.7815 -1.3514  0.9164
  822SOL    HW2 2466   1.125   2.828   2.470  0.8433 -2.0529 -0.1375
  823SOL     OW 2467   0.484   1.557   1.878 -0.2063  0.2345  0.5847
  823SOL    HW1 2468   0.457   1.522   1.786 -2.2092 -1.9925  0.2000
  823SOL    HW2 2469   0.546   1.635   1.867  0.8198 -0.6097 -0.2531
  824SOL     OW 2470   1.678   2.544   2.372  0.0821 -0.3270 -0.3842
  824SOL    HW1 2471   1.722   2.540   2.280 -1.0059 -0.1931  3.2284
  824SOL    HW2 2472   1.586   2.587   2.359 -1.3528 -1.3265 -0.8294
  825SOL     OW 2473   1.737   0.855   0.217  0.1795 -0.4300 -0.0764
  825SOL    HW1 2474   1.792   0.879   0.136 -1.3667 -0.6605  0.4923
  825SOL    HW2 2475   1.797   0.857   0.298 -0.9175  1.4332  1.7008
  826SOL     OW 2476   2.150   0.811   0.032  0.1239  0.6928  0.0375
  826SOL    HW1 2477   2.060   0.786   3.076 -2.3629  1.0666  0.9607
  826SOL    HW2 2478   2.224   0.744   0.002  0.9980  1.0733  0.0293
  827SOL     OW 2479   0.607   1.967   2.959 -0.0824 -1.2216 -0.6153
  827SOL    HW1 2480   0.513   1.961   2.924  0.2161 -0.1211  1.7207
  827SOL    HW2 2481   0.674   2.002   2.894 -2.1672 -1.0077  2.4091
  828SOL     OW 2482   2.386   1.488   1.332 -0.2135  0.3246  0.0490
  828SOL    HW1 2483   2.329   1.568   1.357 -2.7993  1.8304 -0.8712
  828SOL    HW2 2484   2.341   1.400   1.342 -1.5516  1.6445 -1.0347
  829SOL     OW 2485   0.402   1.474   0.948  0.1899  0.0204 -0.1904
  829SOL    HW1 2486   0.378   1.571   0.939  0.1373 -1.5258 -1.4641
  829SOL    HW2 2487   0.479   1.479   1.017  1.8803  0.6378 -0.1507
  830SOL     OW 2488   1.147   1.086   1.200  0.8870 -0.7850 -0.4526
  830SOL    HW1 2489   1.243   1.106   1.167 -0.4549 -0.8690  2.3308
  830SOL    HW2 2490   1.151   1.002   1.261  3.7477  2.6168 -0.5602
  831SOL     OW 2491   0.392   1.919   0.164  0.0428  0.1429  0.3012
  831SOL    HW1 2492   0.303   1.969   0.175  0.9219 -0.1456 -1.2672
  831SOL    HW2 2493   0.378   1.845   0.095 -4.1632  1.4941 -0.8505
  832SOL     OW 2494   0.802   0.183   2.810 -0.5231 -0.3230  0.4501
  832SOL    HW1 2495   0.869   0.251   2.854 -0.5556 -0.2123  1.2032
  832SOL    HW2 2496   0.746   0.131   2.876  0.0219  0.0991 -1.3458
  833SOL     OW 2497   0.645   0.580   1.958  0.6508  0.0304  0.0971
  833SOL    HW1 2498   0.712   0.637   1.909 -0.2088  0.3820  2.0684
  833SOL    HW2 2499   0.614   0.503   1.895  1.4053 -2.0577 -2.4041
  834SOL     OW 2500   0.181   0.375   0.759 -0.0564 -0.7262  0.1619
  834SOL    HW1 2501   0.108   0.353   0.824 -1.9398  1.0659 -0.9125
  834SOL    HW2 2502   0.272   0.382   0.815  2.2401  0.1313  3.5783
  835SOL     OW 2503   2.803   0.014   0.964 -0.3204  0.4341  0.7365
  835SOL    HW1 2504   2.859   0.063   0.895 -0.9745 -1.7261  1.8587
  835SOL    HW2 2505   2.848   3.015   0.994  0.1976  2.8333  0.0948
  836SOL     OW 2506   0.275   2.261   3.025 -0.0402 -0.6755 -0.2712
  836SOL    HW1 2507   0.241   2.336   2.962 -0.4501 -0.1608  3.3305
  836SOL    HW2 2508   0.340   2.286   0.010 -0.3142  1.6154  0.9778
  837SOL     OW 2509   1.551   1.800   2.736  0.3724  0.8853 -0.4486
  837SOL    HW1 2510   1.596   1.784   2.649 -1.1002 -1.2985  2.7092
  837SOL    HW2 2511   1.562   1.719   2.798  1.1540 -0.2184  0.8386
  838SOL     OW 2512   2.965   1.048   1.640  0.3321  0.0049  0.9436
  838SOL    HW1 2513   2.987   1.014   1.550  0.8232  0.2555  2.0450
  838SOL    HW2 2514   2.953   1.149   1.643  0.3787 -2.4541  1.9165
  839SOL     OW 2515   0.740   0.969   0.943 -0.3069 -0.0485  0.1937
  839SOL    HW1 2516   0.815   1.019   0.899  0.9885 -0.0837  0.3543
  839SOL    HW2 2517   0.723   0.876   0.902  0.0727  4.4894 -0.9978
  840SOL     OW 2518   1.554   2.764   1.520 -0.0257 -0.1597  0.1496
  840SOL    HW1 2519   1.649   2.731   1.506  0.0125  0.2909 -2.4273
  840SOL    HW2 2520   1.516   2.803   1.431 -0.5667 -0.0209  2.0639
  841SOL     OW 2521   0.521   2.467   0.544 -0.2471 -0.4348 -0.0681
  841SOL    HW1 2522   0.495   2.473   0.447  0.5491  0.8983 -1.0472
  841SOL    HW2 2523   0.438   2.453   0.606  1.4941  0.0363 -0.6787
  842SOL     OW 2524   0.596   0.758   0.750  0.3667 -0.5432 -0.8027
  842SOL    HW1 2525   0.521   0.769   0.822 -1.1367 -0.1801  1.9442
  842SOL    HW2 2526   0.639   0.664   0.741 -0.2976 -0.3885  1.2674
  843SOL     OW 2527   0.911   1.448   2.167  0.5596  0.0336  0.1003
  843SOL    HW1 2528   1.005   1.422   2.194  0.6630  0.2319 -2.2395
  843SOL    HW2 2529   0.842   1.374   2.182  0.0775  2.7954  1.5676
  844SOL     OW 2530   1.162   2.158   0.004  0.0909  0.5226  0.3725
  844SOL    HW1 2531   1.250   2.113   3.067  0.3232  1.2085 -1.0572
  844SOL    HW2 2532   1.152   2.226   3.013  1.0320  2.3157 -1.1626
  845SOL     OW 2533   2.351   2.324   2.591 -0.4881 -0.0876 -0.0325
  845SOL    HW1 2534   2.429   2.374   2.554 -1.4090  0.0677  0.4959
  845SOL    HW2 2535   2.379   2.250   2.657  2.5350 -0.8801  1.7358
  846SOL     OW 2536   1.814   1.939   2.966  0.1273 -0.4229  0.0410
  846SOL    HW1 2537   1.736   1.982   2.913  0.0045  0.5631 -0.1301
  846SOL    HW2 2538   1.900   1.940   2.912 -1.8848 -0.2623 -1.3799
  847SOL     OW 2539   1.797   2.797   2.740  0.3759  0.2897  0.2368
  847SOL    HW1 2540   1.885   2.837   2.706 -1.5923  0.5827 -2.2358
  847SOL    HW2 2541   1.764   2.844   2.820  0.7688  0.7024 -3.1232
  848SOL     OW 2542   0.553   0.375   0.481  0.0167  0.3648  0.4124
  848SOL    HW1 2543   0.602   0.290   0.510 -0.2974 -0.1118 -0.5278
  848SOL    HW2 2544   0.562   0.453   0.545 -0.7927  1.3262 -1.8976
  849SOL     OW 2545   0.801   2.939   1.505 -0.2253 -0.5465 -0.3349
  849SOL    HW1 2546   0.873   2.993   1.558  3.1097  1.2334 -2.6316
  849SOL    HW2 2547   0.784   2.987   1.421 -0.0678 -0.3281  1.7124
  850SOL     OW 2548   0.406   1.644   0.379  0.1865 -0.0189  0.1161
  850SOL    HW1 2549   0.377   1.542   0.378 -0.9449 -0.1345 -0.2287
  850SOL    HW2 2550   0.472   1.667   0.306  2.2706  1.2350 -1.1753
  851SOL     OW 2551   0.107   1.038   0.894 -0.1039 -0.3858  0.0706
  851SOL    HW1 2552   0.013   1.039   0.849  0.4549 -2.5047 -0.2304
  851SOL    HW2 2553   0.126   1.144   0.895  1.7733  2.7925 -3.2123
  852SOL     OW 2554   2.011   2.270   1.902  0.7362  0.0779  0.7199
  852SOL    HW1 2555   1.959   2.183   1.891  0.0178 -1.7186  2.8977
  852SOL    HW2 2556   2.039   2.304   1.809 -1.2775 -0.4668  1.7552
  853SOL     OW 2557   0.294   1.410   0.406  0.2209 -0.1627  0.4680
  853SOL    HW1 2558   0.198   1.389   0.374  1.9511 -0.5037 -1.2480
  853SOL    HW2 2559   0.328   1.351   0.484 -1.4512  0.5561  3.0828
  854SOL     OW 2560   1.649   1.196   1.712  0.0287  0.1834  0.2207
  854SOL    HW1 2561   1.664   1.117   1.648  0.3619  0.8787 -1.9141
  854SOL    HW2 2562   1.614   1.162   1.801 -0.0434 -1.7250 -1.0359
  855SOL     OW 2563   0.578   2.661   2.962 -0.4562  0.4217 -0.4146
  855SOL    HW1 2564   0.479   2.671   2.942 -0.0424 -3.1108  1.5810
  855SOL    HW2 2565   0.595   2.625   3.058 -1.2350 -1.0149 -0.8385
  856SOL     OW 2566   3.012   0.687   1.788 -0.2165  0.0202 -0.3379
  856SOL    HW1 2567   3.053   0.774   1.814 -0.1789  0.2497 -2.6947
  856SOL    HW2 2568   3.009   0.680   1.683  0.3374 -0.8364 -3.3232
  857SOL     OW 2569   0.512   0.917   1.880  0.2702  0.2972 -0.0023
  857SOL    HW1 2570   0.431   0.949   1.829  2.6078  0.5851  0.1917
  857SOL    HW2 2571   0.587   0.896   1.811  1.9133  0.2386 -0.9077
  858SOL     OW 2572   0.409   1.264   2.272 -0.0626  0.6246  0.0228
  858SOL    HW1 2573   0.351   1.289   2.351  3.0796 -1.5250 -1.7417
  858SOL    HW2 2574   0.467   1.337   2.238 -4.1675 -0.0759  0.3901
  859SOL     OW 2575   2.501   0.315   0.479 -0.0732  0.0037  0.3431
  859SOL    HW1 2576   2.576   0.341   0.545  1.5082  1.1565  1.0886
  859SOL    HW2 2577   2.542   0.244   0.420  1.1216  1.8949  2.4929
  860SOL     OW 2578   1.656   2.776   3.038  0.4041  0.4297 -0.0709
  860SOL    HW1 2579   1.642   2.845   0.021  1.6035  2.4056 -0.0097
  860SOL    HW2 2580   1.740   2.725   3.063 -0.6523 -2.5125 -0.9177
  861SOL     OW 2581   0.315   0.583   0.323 -0.4172  0.4000 -0.7194
  861SOL    HW1 2582   0.347   0.497   0.279  4.3177 -3.1343 -1.1983
  861SOL    HW2 2583   0.246   0.561   0.395  1.4910  0.3557 -2.0984
  862SOL     OW 2584   1.309   0.248   1.941 -0.2084  0.5317  0.2261
  862SOL    HW1 2585   1.290   0.312   1.864 -0.4031 -0.5371 -0.7525
  862SOL    HW2 2586   1.351   0.293   2.019 -0.2114  1.2649 -0.3167
  863SOL     OW 2587   2.629   2.264   1.255  0.2021 -0.2400 -0.2425
  863SOL    HW1 2588   2.534   2.280   1.292  2.3556  0.3141 -0.3912
  863SOL    HW2 2589   2.695   2.287   1.328 -1.7784  1.2281  0.7655
  864SOL     OW 2590   2.515   2.883   2.042 -0.6545 -0.4503 -0.2293
  864SOL    HW1 2591   2.421   2.857   2.019  1.8321 -1.7010  0.5609
  864SOL    HW2 2592   2.578   2.798   2.047 -0.3030 -4.4681  0.0273
  865SOL     OW 2593   1.178   0.374   1.512  0.0886 -0.4169 -0.0601
  865SOL    HW1 2594   1.192   0.279   1.485 -1.9257 -0.2515  1.6549
  865SOL    HW2 2595   1.190   0.387   1.615 -1.6333 -2.5959 -1.9131
  866SOL     OW 2596   2.107   2.977   0.894  0.1804  0.5385 -0.5163
  866SOL    HW1 2597   2.163   3.062   0.886 -0.2677 -0.3891  0.7135
  866SOL    HW2 2598   2.111   2.945   0.993 -1.0589 -3.0655  4.0821
  867SOL     OW 2599   2.809   2.697   0.347  0.1099  0.1144  0.0904
  867SOL    HW1 2600   2.815   2.788   0.307 -0.1565  2.7635 -0.6412
  867SOL    HW2 2601   2.804   2.700   0.450  0.6168  2.4570  1.1378
  868SOL     OW 2602   1.207   2.060   1.754  0.0563 -0.2344  0.0721
  868SOL    HW1 2603   1.215   2.058   1.856 -0.1792 -0.4596  3.4584
  868SOL    HW2 2604   1.184   2.155   1.727  1.9064 -2.7198  1.2190
  869SOL     OW 2605   2.030   2.193   0.185 -0.2546  0.1339  0.0600
  869SOL    HW1 2606   2.074   2.117   0.235 -2.7646  3.3652 -0.9574
  869SOL    HW2 2607   2.048   2.285   0.234 -1.6546  1.1690  0.4673
  870SOL     OW 2608   2.361   2.463   0.607 -0.9772 -0.1041  0.1151
  870SOL    HW1 2609   2.268   2.448   0.569  0.7262 -1.7667 -0.0867
  870SOL    HW2 2610   2.351   2.513   0.698 -1.0904 -0.7705  1.1893
  871SOL     OW 2611   0.129   1.378   1.723 -0.1981  0.0783 -0.7157
  871SOL    HW1 2612   0.170   1.417   1.641 -0.3509  2.7193  0.9467
  871SOL    HW2 2613   0.198   1.365   1.796 -0.3048  0.1293  1.1597
  872SOL     OW 2614   0.746   1.648   2.748  0.2917 -0.2568 -0.3680
  872SOL    HW1 2615   0.802   1.719   2.798  1.8784  1.9917  2.4965
  872SOL    HW2 2616   0.807   1.597   2.683  0.9863  0.9271 -2.1227
  873SOL     OW 2617   0.881   2.679   1.491 -0.4124 -0.2937  0.7204
  873SOL    HW1 2618   0.826   2.629   1.561  1.5420 -0.5096 -1.3422
  873SOL    HW2 2619   0.847   2.777   1.483  1.6121  0.2724 -1.2002
  874SOL     OW 2620   1.275   0.869   1.944 -0.0695 -0.1016  0.8000
  874SOL    HW1 2621   1.293   0.944   2.011  0.4142 -2.4167  1.2159
  874SOL    HW2 2622   1.355   0.832   1.896 -2.2091 -0.0789 -0.4258
  875SOL     OW 2623   2.496   2.587   1.169 -0.0125  0.2440 -0.1282
  875SOL    HW1 2624   2.499   2.599   1.272  1.4815 -3.0133  0.8686
  875SOL    HW2 2625   2.454   2.670   1.127 -0.1981 -0.3358  0.6346
  876SOL     OW 2626   0.925   1.176   0.761  0.2092 -0.2320 -0.2789
  876SOL    HW1 2627   0.936   1.124   0.671 -1.1506 -3.6457 -0.6309
  876SOL    HW2 2628   0.883   1.265   0.746  1.6290  0.7994  0.2880
  877SOL     OW 2629   2.697   0.370   1.151 -0.5128  0.0667 -0.2988
  877SOL    HW1 2630   2.626   0.398   1.216 -0.6594 -0.1011 -0.8989
  877SOL    HW2 2631   2.778   0.324   1.192  2.5676  1.4916  1.4732
  878SOL     OW 2632   2.281   1.506   0.127 -0.1107 -0.0263  0.3584
  878SOL    HW1 2633   2.320   1.544   0.215  0.7055 -1.1015  1.1583
  878SOL    HW2 2634   2.263   1.406   0.130  1.7732  0.2644 -1.4249
  879SOL     OW 2635   2.694   1.984   1.280  0.2925  0.4636  0.1090
  879SOL    HW1 2636   2.785   1.978   1.233 -0.3390  1.4316  2.0136
  879SOL    HW2 2637   2.644   2.066   1.251  1.2710 -0.4284 -2.5213
  880SOL     OW 2638   0.398   2.196   0.983 -0.3336 -0.4235  0.3524
  880SOL    HW1 2639   0.397   2.208   1.084 -1.0192  0.7479  0.2106
  880SOL    HW2 2640   0.477   2.251   0.950  2.3950  0.8901  1.0267
  881SOL     OW 2641   1.401   1.105   1.107 -1.0344 -0.1670 -0.4559
  881SOL    HW1 2642   1.472   1.076   1.176  0.5740  0.9580 -0.6035
  881SOL    HW2 2643   1.412   1.048   1.027 -1.5925  2.7239  1.1556
  882SOL     OW 2644   2.693   1.111   2.557 -0.0539 -0.4893 -0.6321
  882SOL    HW1 2645   2.665   1.078   2.467  1.5400  2.2549  0.9592
  882SOL    HW2 2646   2.697   1.026   2.612  1.6164 -0.8922 -1.8107
  883SOL     OW 2647   1.116   0.127   1.243 -0.1336 -1.1390 -0.0684
  883SOL    HW1 2648   1.211   0.117   1.274  0.3661  1.9460 -0.7129
  883SOL    HW2 2649   1.093   0.226   1.224 -1.3941  0.3073 -0.9363
  884SOL     OW 2650   2.959   2.889   1.032  0.0344  0.1882 -0.0605
  884SOL    HW1 2651   2.995   2.929   1.118  0.8471 -0.2262 -1.9398
  884SOL    HW2 2652   3.038   2.885   0.968 -3.0799  1.8703 -2.5509
  885SOL     OW 2653   1.432   0.844   1.356 -0.0541 -0.3526  0.1524
  885SOL    HW1 2654   1.478   0.933   1.340  1.0279  1.0233 -0.3282
  885SOL    HW2 2655   1.338   0.862   1.400 -3.2114  1.0992  1.2211
  886SOL     OW 2656   1.258   1.012   2.974 -0.1337 -0.2299  0.7795
  886SOL    HW1 2657   1.324   0.940   3.003 -2.3900  2.2605 -1.6586
  886SOL    HW2 2658   1.302   1.078   2.911 -1.5860  0.7386 -0.1402
  887SOL     OW 2659   1.356   0.416   1.080  0.5381 -0.0658  1.2370
  887SOL    HW1 2660   1.406   0.436   0.996 -2.0612  0.2389  3.4318
  887SOL    HW2 2661   1.351   0.505   1.134 -0.8355  0.3923  0.6246
  888SOL     OW 2662   2.130   1.328   1.940 -0.0256 -0.7654  0.3153
  888SOL    HW1 2663   2.194   1.393   1.899 -2.0717 -1.2303  1.5259
  888SOL    HW2 2664   2.137   1.242   1.882  1.5586  0.5647 -0.9447
  889SOL     OW 2665   2.422   2.320   1.017  0.6672  0.0858 -0.1295
  889SOL    HW1 2666   2.456   2.226   0.988  0.1296 -1.0899 -0.3822
  889SOL    HW2 2667   2.477   2.361   1.092  0.1239 -1.5570  0.7702
  890SOL     OW 2668   1.363   1.842   0.974 -0.4236 -0.8135  0.2560
  890SOL    HW1 2669   1.311   1.927   0.950 -1.2435 -0.2535  0.8265
  890SOL    HW2 2670   1.360   1.830   1.075 -1.8820 -0.5204 -1.4462
  891SOL     OW 2671   2.503   0.529   2.535 -0.4715 -0.5876  0.4352
  891SOL    HW1 2672   2.555   0.570   2.455  4.0060 -0.9557 -0.7830
  891SOL    HW2 2673   2.455   0.445   2.492 -0.7739 -1.4301 -1.2903
  892SOL     OW 2674   0.988   0.364   2.160  0.1870  0.1747 -0.3132
  892SOL    HW1 2675   1.074   0.318   2.199  1.2793 -0.5150  0.3487
  892SOL    HW2 2676   0.973   0.450   2.215 -0.0771 -1.5028 -0.5880
  893SOL     OW 2677   1.377   0.099   1.312 -0.0732 -0.0687  0.1546
  893SOL    HW1 2678   1.408   0.091   1.408  1.4132  2.0002  2.8270
  893SOL    HW2 2679   1.452   0.144   1.259  0.3451  0.8835  1.0722
  894SOL     OW 2680   2.656   0.637   0.704 -0.4497 -0.4032  0.4583
  894SOL    HW1 2681   2.587   0.613   0.774  0.0617  2.1094 -2.5531
  894SOL    HW2 2682   2.731   0.695   0.743  1.1275  1.5595 -2.4762
  895SOL     OW 2683   1.941   2.350   2.762 -0.0733 -0.1509 -0.4554
  895SOL    HW1 2684   1.995   2.435   2.750 -1.7735 -5.8479  0.9453
  895SOL    HW2 2685   1.841   2.373   2.750  1.0112  0.9774 -1.7991
  896SOL     OW 2686   1.907   2.944   1.429 -0.0828  0.3477  0.4615
  896SOL    HW1 2687   1.944   2.967   1.517  1.3563  0.8475 -0.6238
  896SOL    HW2 2688   1.874   2.846   1.427 -2.4144 -0.0907 -1.1744
  897SOL     OW 2689   0.592   1.878   2.078  0.3128 -0.8477 -0.3630
  897SOL    HW1 2690   0.519   1.834   2.133  1.0826  0.4823 -1.4716
  897SOL    HW2 2691   0.608   1.828   1.990 -1.8472  0.5315  0.4564
  898SOL     OW 2692   1.975   1.575   2.080  0.3435 -0.7489 -0.5218
  898SOL    HW1 2693   1.991   1.523   1.996  0.0495 -1.3195 -0.1267
  898SOL    HW2 2694   2.061   1.589   2.137 -1.9675 -0.8779  1.3541
  899SOL     OW 2695   2.028   2.560   0.707 -0.4632  0.5352 -0.6327
  899SOL    HW1 2696   2.082   2.481   0.667  1.6264  0.0117  2.8958
  899SOL    HW2 2697   2.031   2.564   0.806  0.1220 -1.3644 -2.6420
  900SOL     OW 2698   0.927   3.010   2.900 -0.3869  0.0731  0.3685
  900SOL    HW1 2699   0.986   2.935   2.883 -1.2209  1.9552  2.6830
  900SOL    HW2 2700   0.832   2.992   2.872 -2.0342  0.7935  1.4398
  901SOL     OW 2701   1.104   1.939   2.297 -0.0540 -0.6382 -0.0753
  901SOL    HW1 2702   1.005   1.977   2.277 -2.5976  1.3770 -2.3305
  901SOL    HW2 2703   1.103   1.876   2.371 -2.0453  2.3823 -2.6612
  902SOL     OW 2704   2.107   0.505   2.971 -0.3155  0.6169  0.0330
  902SOL    HW1 2705   2.198   0.547   2.993  1.9665  3.5045  2.4868
  902SOL    HW2 2706   2.098   0.413   3.016 -2.1757  0.0043 -0.9138
  903SOL     OW 2707   2.081   0.866   1.987  0.7898 -0.7444 -0.0255
  903SOL    HW1 2708   2.093   0.782   1.933 -1.9920  1.1337  2.0595
  903SOL    HW2 2709   2.142   0.856   2.066 -0.2549 -0.5802 -2.1975
  904SOL     OW 2710   1.563   0.826   1.787  0.1374  0.5838  0.6212
  904SOL    HW1 2711   1.612   0.857   1.699  2.0951  3.1486  0.6405
  904SOL    HW2 2712   1.568   0.896   1.859 -3.1845 -1.5664  0.4399
  905SOL     OW 2713   2.218   0.130   1.132 -0.2794  0.4518  0.0365
  905SOL    HW1 2714   2.247   0.101   1.040  0.4401  1.0881 -0.5783
  905SOL    HW2 2715   2.129   0.173   1.122 -1.6841 -0.5891 -1.0001
  906SOL     OW 2716   2.199   1.676   0.827  0.6475  0.0035  0.0119
  906SOL    HW1 2717   2.171   1.766   0.795  1.5510  1.4336  2.9635
  906SOL    HW2 2718   2.137   1.599   0.793 -0.3498  0.1853  1.1995
  907SOL     OW 2719   1.272   2.753   0.654 -1.0847 -0.7623 -0.0378
  907SOL    HW1 2720   1.304   2.659   0.626 -1.5116 -0.3299 -1.2063
  907SOL    HW2 2721   1.197   2.750   0.725 -0.4810  1.1580  0.0925
  908SOL     OW 2722   1.575   2.329   2.505 -0.1381  0.1597  0.6759
  908SOL    HW1 2723   1.598   2.234   2.477  3.7219 -3.3670 -2.5782
  908SOL    HW2 2724   1.604   2.392   2.435 -0.2546 -2.1542 -1.5332
  909SOL     OW 2725   2.181   0.398   2.138  0.3354  0.0192  0.2521
  909SOL    HW1 2726   2.187   0.485   2.187  0.3627 -0.2650  1.2950
  909SOL    HW2 2727   2.156   0.400   2.040  2.9348 -0.6677 -0.7041
  910SOL     OW 2728   1.040   0.848   2.492 -0.3595  0.1965 -0.1830
  910SOL    HW1 2729   1.011   0.868   2.592 -1.7333  3.0117 -0.3072
  910SOL    HW2 2730   0.981   0.782   2.449  1.9489  0.0905  0.4567
  911SOL     OW 2731   3.074   0.931   2.849  0.0260 -0.1064 -0.2468
  911SOL    HW1 2732   0.038   0.891   2.929  0.2963  0.9447  3.1296
  911SOL    HW2 2733   2.977   0.950   2.870  0.5184 -0.0273 -1.9198
  912SOL     OW 2734   0.159   2.424   0.905  0.7392 -0.4609 -0.0023
  912SOL    HW1 2735   0.225   2.381   0.837  1.6667 -3.1646  0.1099
  912SOL    HW2 2736   0.129   2.346   0.962 -2.2787  1.7079  0.4759
  913SOL     OW 2737   2.606   1.944   2.556 -0.5540 -0.6327 -0.3912
  913SOL    HW1 2738   2.539   1.908   2.490  1.1253 -1.0776 -0.2467
  913SOL    HW2 2739   2.618   2.049   2.554  1.6678  4.2078 -2.3293
  914SOL     OW 2740   1.895   1.219   0.728  0.3638 -0.3743  0.3899
  914SOL    HW1 2741   1.891   1.185   0.630 -3.2289  0.3548 -2.2061
  914SOL    HW2 2742   1.806   1.194   0.770 -1.7824 -1.0289  0.0085
  915SOL     OW 2743   0.374   2.774   2.324 -0.2130  0.1622 -0.3425
  915SOL    HW1 2744   0.407   2.870   2.299 -0.1951  0.2062 -1.4612
  915SOL    HW2 2745   0.383   2.742   2.417 -0.9063 -2.2655 -0.2448
  916SOL     OW 2746   0.916   2.872   1.108 -0.3201  0.0109  0.4918
  916SOL    HW1 2747   0.868   2.786   1.095  1.6645  1.1461 -0.6028
  916SOL    HW2 2748   0.883   2.932   1.182 -1.3118  0.2777 -1.5253
  917SOL     OW 2749   2.360   0.590   3.022  0.1720 -0.0460 -0.0174
  917SOL    HW1 2750   2.437   0.569   3.087  1.8508 -0.7566 -0.8589
  917SOL    HW2 2751   2.373   0.678   2.974 -1.7358  2.3142  3.2763
  918SOL     OW 2752   1.675   2.393   2.775 -0.3743 -0.0093  0.1103
  918SOL    HW1 2753   1.634   2.452   2.849 -0.2465 -2.1053 -0.0698
  918SOL    HW2 2754   1.633   2.407   2.683  0.1575  2.2442  1.1529
  919SOL     OW 2755   1.790   2.847   1.125  0.2301  0.3828  0.0650
  919SOL    HW1 2756   1.767   2.923   1.190  0.4910 -0.4965 -0.5863
  919SOL    HW2 2757   1.717   2.773   1.118 -1.8241 -1.7797  1.1383
  920SOL     OW 2758   1.240   0.322   2.401  0.0303 -0.3935 -0.0945
  920SOL    HW1 2759   1.226   0.287   2.498 -0.3437 -0.7193  0.6780
  920SOL    HW2 2760   1.212   0.247   2.333 -1.2398 -0.6162 -0.9059
  921SOL     OW 2761   3.064   0.919   2.585  0.3747  0.3841 -0.3326
  921SOL    HW1 2762   3.028   0.830   2.547  0.5803 -1.5012  0.1189
  921SOL    HW2 2763   3.075   0.913   2.690 -2.0512 -1.0679  3.1158
  922SOL     OW 2764   2.956   1.981   1.185 -0.3835 -0.0452 -0.4797
  922SOL    HW1 2765   3.011   2.066   1.185  2.4052 -0.2116  2.2814
  922SOL    HW2 2766   2.949   1.940   1.091  2.8303 -0.1785 -0.8813
  923SOL     OW 2767   0.379   1.753   2.184 -0.5501  0.6402  0.1914
  923SOL    HW1 2768   0.396   1.682   2.257 -0.7087 -2.4792  0.9812
  923SOL    HW2 2769   0.282   1.768   2.167  0.7544 -2.6145 -0.9360
  924SOL     OW 2770   1.589   2.864   2.463  0.0666  0.2374  0.0041
  924SOL    HW1 2771   1.558   2.792   2.395 -2.2196  2.4079  0.4877
  924SOL    HW2 2772   1.686   2.890   2.452  2.5360 -2.0605  1.9268
  925SOL     OW 2773   2.865   1.634   0.496  0.0844 -0.4831  0.2493
  925SOL    HW1 2774   2.779   1.603   0.450 -0.8192 -1.5399  2.0609
  925SOL    HW2 2775   2.836   1.634   0.593 -1.2111 -0.4943  1.5447
  926SOL     OW 2776   2.359   0.790   0.986  0.1876  0.5297  0.7291
  926SOL    HW1 2777   2.391   0.693   0.982  0.9187  0.8775  0.7820
  926SOL    HW2 2778   2.415   0.854   0.930  0.2131  0.4881 -0.2092
  927SOL     OW 2779   1.627   0.222   1.221 -0.5081 -0.1878 -0.0269
  927SOL    HW1 2780   1.690   0.297   1.256  4.0520  0.1379  1.1893
  927SOL    HW2 2781   1.658   0.124   1.253 -0.8178 -2.4073  0.5735
  928SOL     OW 2782   0.061   0.920   2.277 -0.2050  0.3614 -0.2435
  928SOL    HW1 2783   0.158   0.939   2.250 -0.3714 -0.7772 -2.1876
  928SOL    HW2 2784   0.054   0.827   2.315 -1.0066 -0.4181 -1.9555
  929SOL     OW 2785   2.335   0.854   1.257  0.4104  0.3132  0.2830
  929SOL    HW1 2786   2.341   0.835   1.157 -3.0549 -0.3151 -4.2886
  929SOL    HW2 2787   2.429   0.874   1.291  2.1270  0.9113  0.8255
  930SOL     OW 2788   2.382   2.403   1.699 -0.1881  0.1742  0.2664
  930SOL    HW1 2789   2.476   2.367   1.687  1.2140  1.8178  1.7348
  930SOL    HW2 2790   2.385   2.484   1.761  0.2227  0.9013 -1.5441
  931SOL     OW 2791   2.011   0.918   1.205 -0.0826 -0.2970  0.3610
  931SOL    HW1 2792   2.004   1.009   1.155  0.4369 -0.4550 -0.9204
  931SOL    HW2 2793   2.106   0.890   1.213 -0.2170  0.4717 -1.1928
  932SOL     OW 2794   0.247   0.679   1.731 -0.4072  0.6685 -0.7974
  932SOL    HW1 2795   0.317   0.648   1.668 -1.0247 -0.9177  0.5916
  932SOL    HW2 2796   0.239   0.776   1.735 -0.5418 -1.2778  1.3350
  933SOL     OW 2797   2.362   1.985   1.763 -0.6128  0.2523  0.1420
  933SOL    HW1 2798   2.363   2.019   1.667 -0.7344  0.0384  1.0946
  933SOL    HW2 2799   2.403   2.064   1.815  2.4784  0.3719  0.1289
  934SOL     OW 2800   1.172   2.328   1.651 -0.2971  0.0328  0.0125
  934SOL    HW1 2801   1.232   2.410   1.669  2.9171  0.3456  0.4611
  934SOL    HW2 2802   1.171   2.292   1.556  1.8869 -0.5298  0.1903
  935SOL     OW 2803   0.028   1.551   2.020 -0.0225  0.3580  0.8291
  935SOL    HW1 2804   0.064   1.466   2.058  0.6195 -0.6222  0.0500
  935SOL    HW2 2805   0.058   1.632   2.078  0.6188 -0.9370  1.7429
  936SOL     OW 2806   2.715   0.692   1.303 -0.5879  0.0434 -0.7393
  936SOL    HW1 2807   2.670   0.778   1.274  1.1105  1.6484 -1.6161
  936SOL    HW2 2808   2.664   0.607   1.292  0.6481  0.4653  0.4221
  937SOL     OW 2809   1.809   0.412   1.287  0.0422 -0.2145 -0.0294
  937SOL    HW1 2810   1.836   0.480   1.214 -0.9791 -0.7699 -2.0131
  937SOL    HW2 2811   1.837   0.448   1.375 -1.3322  2.4971  0.4888
  938SOL     OW 2812   0.395   2.720   0.755 -0.2218  0.2285 -0.0846
  938SOL    HW1 2813   0.333   2.697   0.831  0.7943  0.6975  1.1374
  938SOL    HW2 2814   0.340   2.727   0.668 -0.6577  0.8308 -3.5383
  939SOL     OW 2815   2.929   2.177   2.487 -0.2109  0.0810 -0.3417
  939SOL    HW1 2816   3.011   2.142   2.539  0.1206 -1.5509 -1.2410
  939SOL    HW2 2817   2.919   2.128   2.395  1.9732  0.7543  0.3456
  940SOL     OW 2818   1.597   1.667   0.071  0.2596  0.2169 -0.0918
  940SOL    HW1 2819   1.698   1.659   0.057 -1.4632 -0.5392 -0.3565
  940SOL    HW2 2820   1.566   1.759   0.049  2.1982 -0.8254  1.2949
  941SOL     OW 2821   2.144   2.408   0.290  0.4334 -0.7338  0.2556
  941SOL    HW1 2822   2.238   2.397   0.251 -0.2620  1.1085  0.4624
  941SOL    HW2 2823   2.111   2.504   0.305 -2.2974 -0.5935 -2.0436
  942SOL     OW 2824   1.839   1.753   0.986 -0.0755 -0.1580 -0.3187
  942SOL    HW1 2825   1.842   1.853   1.012 -0.3247 -0.1518  1.4680
  942SOL    HW2 2826   1.778   1.697   1.047 -3.5953  1.8613 -0.0632
  943SOL     OW 2827   2.197   0.726   1.452 -0.6049  0.5150  0.4234
  943SOL    HW1 2828   2.259   0.752   1.375  2.7216  0.8945 -1.2739
  943SOL    HW2 2829   2.123   0.792   1.466 -0.4715  0.1492  0.6069
  944SOL     OW 2830   1.260   0.587   2.129 -0.2758 -0.2217 -0.5834
  944SOL    HW1 2831   1.243   0.606   2.224  1.0279 -1.9873  0.0660
  944SOL    HW2 2832   1.186   0.609   2.070  2.4793  1.5002 -0.7792
  945SOL     OW 2833   2.338   2.924   1.499 -0.1889 -0.0653  0.0296
  945SOL    HW1 2834   2.424   2.919   1.442 -0.6089 -0.9449 -0.3524
  945SOL    HW2 2835   2.251   2.944   1.443 -1.5640 -0.3754 -0.2355
  946SOL     OW 2836   0.588   1.264   0.600 -0.0493 -0.5750 -0.1481
  946SOL    HW1 2837   0.596   1.162   0.598 -0.3565 -1.9611  1.7521
  946SOL    HW2 2838   0.630   1.306   0.517 -2.2371  0.8410 -3.4603
  947SOL     OW 2839   1.283   2.293   0.869 -0.3555 -0.3013  0.1618
  947SOL    HW1 2840   1.301   2.395   0.884  0.5979  3.5411 -2.1128
  947SOL    HW2 2841   1.235   2.290   0.777 -1.0845 -0.8077  1.0317
  948SOL     OW 2842   0.258   1.562   1.236  0.2488  0.9330  0.0696
  948SOL    HW1 2843   0.337   1.620   1.249 -1.2244 -1.9480 -1.2258
  948SOL    HW2 2844   0.294   1.466   1.225  0.9993 -0.0969 -0.3476
  949SOL     OW 2845   0.720   1.267   1.954 -0.3387  0.1447  0.9800
  949SOL    HW1 2846   0.794   1.334   1.932  2.8962 -0.9173  1.3951
  949SOL    HW2 2847   0.653   1.268   1.878  0.7708 -1.1124  0.8455
  950SOL     OW 2848   0.561   0.622   1.202 -0.2649 -0.4964 -0.3886
  950SOL    HW1 2849   0.648   0.637   1.252 -0.8522  2.3299 -0.8901
  950SOL    HW2 2850   0.483   0.675   1.241  1.7917  1.0810  2.0221
  951SOL     OW 2851   0.597   2.155   1.968  0.8293 -0.0302  0.0819
  951SOL    HW1 2852   0.502   2.138   1.986  3.0535  1.1451 -0.7814
  951SOL    HW2 2853   0.624   2.116   1.877  1.9835  0.9003 -0.8149
  952SOL     OW 2854   0.998   1.622   0.183  0.3478 -0.1567  0.8349
  952SOL    HW1 2855   0.993   1.721   0.185 -0.9888 -3.4033  2.4303
  952SOL    HW2 2856   1.089   1.587   0.163 -0.5850 -1.1867  3.0992
  953SOL     OW 2857   0.927   2.850   0.205 -0.1174 -0.5264  0.0502
  953SOL    HW1 2858   0.866   2.822   0.282  0.1638  0.0282  1.0372
  953SOL    HW2 2859   0.921   2.769   0.141 -1.7040 -1.3371 -1.0649
  954SOL     OW 2860   1.583   1.048   3.024 -0.4381 -0.3048 -0.3822
  954SOL    HW1 2861   1.537   1.095   2.946 -0.4353  0.0068 -0.3111
  954SOL    HW2 2862   1.571   1.102   0.022 -0.2675 -3.1989  0.9314
  955SOL     OW 2863   0.046   2.625   0.005  0.2549 -0.2209  0.4678
  955SOL    HW1 2864   0.043   2.687   0.087  2.4289 -1.5071  1.2915
  955SOL    HW2 2865   3.059   2.653   3.024  2.1340 -0.0836 -0.8222
  956SOL     OW 2866   1.054   0.693   1.147 -0.1243 -0.1559 -0.1431
  956SOL    HW1 2867   1.075   0.755   1.069  1.9153 -0.8800  0.7199
  956SOL    HW2 2868   1.134   0.641   1.166 -1.6450 -1.4878 -0.4984
  957SOL     OW 2869   1.805   1.407   1.634 -0.8341  0.2814  0.1128
  957SOL    HW1 2870   1.723   1.468   1.620  1.8121 -2.0190  1.0802
  957SOL    HW2 2871   1.772   1.323   1.679 -1.9992  1.9997  0.2462
  958SOL     OW 2872   0.629   1.800   1.588 -0.1298  0.4420  0.4570
  958SOL    HW1 2873   0.599   1.703   1.581 -2.7705 -0.9816  0.8340
  958SOL    HW2 2874   0.637   1.845   1.495 -0.1756 -1.2695 -1.4287
  959SOL     OW 2875   1.564   1.084   1.343  0.4122  0.0474  0.5146
  959SOL    HW1 2876   1.655   1.122   1.311 -0.1346  0.3801  0.8230
  959SOL    HW2 2877   1.499   1.164   1.354 -0.0492  2.7400 -1.1408
  960SOL     OW 2878   0.181   1.111   0.127  0.3557 -0.1396  0.2943
  960SOL    HW1 2879   0.179   1.080   0.225 -0.6934 -2.7514  0.9829
  960SOL    HW2 2880   0.265   1.164   0.107  2.4545  0.7364 -1.3576
  961SOL     OW 2881   0.940   1.408   1.800  0.3722 -0.0804 -0.7085
  961SOL    HW1 2882   0.934   1.422   1.702  0.9276  0.1511  0.9836
  961SOL    HW2 2883   0.912   1.485   1.852  0.8400 -0.1471  2.4025
  962SOL     OW 2884   1.187   1.193   0.795  0.3221 -0.1424 -0.0410
  962SOL    HW1 2885   1.202   1.249   0.881 -2.4214  0.1147 -0.9963
  962SOL    HW2 2886   1.084   1.175   0.787 -0.6021  0.2664  0.9602
  963SOL     OW 2887   1.418   1.994   2.872 -0.6520  0.8196 -0.3902
  963SOL    HW1 2888   1.444   2.088   2.861  0.6673  0.7080 -0.0253
  963SOL    HW2 2889   1.480   1.929   2.821  3.2126 -3.3514  0.3393
  964SOL     OW 2890   0.471   2.853   0.386 -0.5835  0.1116  0.6244
  964SOL    HW1 2891   0.437   2.871   0.482 -0.3409 -0.3014  3.0901
  964SOL    HW2 2892   0.400   2.806   0.328 -0.2719  0.8812 -0.5760
  965SOL     OW 2893   0.313   2.312   0.699 -0.3080 -0.1125  0.3976
  965SOL    HW1 2894   0.413   2.290   0.723  3.2287  1.5017  3.6557
  965SOL    HW2 2895   0.275   2.248   0.635 -1.4820  1.2742  0.9450
  966SOL     OW 2896   0.065   1.740   2.660  0.1040  0.0564 -0.0842
  966SOL    HW1 2897   3.083   1.665   2.657  3.0651  0.5876 -1.4824
  966SOL    HW2 2898   0.076   1.773   2.758  0.0056 -3.0873  1.4725
  967SOL     OW 2899   2.909   0.088   2.467  0.0007 -0.0237 -0.0463
  967SOL    HW1 2900   3.013   0.102   2.476  0.8080  0.0095  0.8955
  967SOL    HW2 2901   2.879   0.053   2.558  0.2231  0.2520 -0.7135
  968SOL     OW 2902   2.250   0.597   0.426 -0.1567  0.0375  0.0181
  968SOL    HW1 2903   2.276   0.510   0.384 -1.1295 -0.5725  0.8197
  968SOL    HW2 2904   2.222   0.655   0.350 -1.1576 -1.3911  2.3644
  969SOL     OW 2905   0.303   1.040   1.763 -0.0495 -0.1058  0.8777
  969SOL    HW1 2906   0.275   1.047   1.662  1.1492 -2.0430 -2.3378
  969SOL    HW2 2907   0.352   1.122   1.793 -0.0716 -2.5459 -2.6655
  970SOL     OW 2908   2.086   1.666   1.178  0.5647  0.1791  0.0723
  970SOL    HW1 2909   2.037   1.727   1.114 -0.9154 -2.1331  2.0473
  970SOL    HW2 2910   2.128   1.584   1.137  2.7573  0.4200  1.0752
  971SOL     OW 2911   2.642   0.062   1.179  0.0478  0.3313 -0.0807
  971SOL    HW1 2912   2.700   0.068   1.095  0.8184 -0.6399  0.6827
  971SOL    HW2 2913   2.700   0.097   1.256 -0.4396 -0.8142 -0.7335
  972SOL     OW 2914   0.503   2.862   1.449 -0.1805  0.1553 -0.5255
  972SOL    HW1 2915   0.483   2.964   1.438  1.0870  2.4446  2.3620
  972SOL    HW2 2916   0.566   2.829   1.375 -2.5786 -3.0280 -0.8345
  973SOL     OW 2917   0.303   0.213   2.915  0.1157 -0.2629  0.3402
  973SOL    HW1 2918   0.344   0.205   2.820 -1.2228 -0.1062  1.1834
  973SOL    HW2 2919   0.200   0.201   2.902 -1.9910 -0.2828 -0.0289
  974SOL     OW 2920   1.643   1.466   2.297  0.3925 -0.7109 -0.1629
  974SOL    HW1 2921   1.651   1.468   2.197  1.6681  0.4421  2.6593
  974SOL    HW2 2922   1.708   1.528   2.332  0.4826 -0.9653 -2.6924
  975SOL     OW 2923   3.063   3.077   1.552  0.0441  0.9987 -0.0400
  975SOL    HW1 2924   0.069   3.045   1.580  1.3340 -0.7621 -0.8573
  975SOL    HW2 2925   3.052   0.091   1.557  0.1563  2.3931 -0.2839
  976SOL     OW 2926   0.463   2.094   2.219  0.0124  0.0394 -0.4849
  976SOL    HW1 2927   0.386   2.043   2.264  0.9315  0.0612 -1.6001
  976SOL    HW2 2928   0.521   2.031   2.160 -0.2210 -4.6852 -0.1089
  977SOL     OW 2929   0.787   2.460   0.602 -0.2302 -0.5191 -0.4871
  977SOL    HW1 2930   0.689   2.460   0.576 -1.2628 -2.3997  0.7886
  977SOL    HW2 2931   0.851   2.496   0.529 -2.3467  0.3387 -0.6221
  978SOL     OW 2932   0.127   1.764   2.403 -0.5137  0.3968 -0.1249
  978SOL    HW1 2933   0.197   1.693   2.400 -1.5185  0.4818 -1.5595
  978SOL    HW2 2934   0.084   1.772   2.494  1.1573  2.5885 -1.9859
  979SOL     OW 2935   1.902   2.432   1.563  0.1962  0.3360 -0.0296
  979SOL    HW1 2936   2.002   2.409   1.566  1.6610 -1.0771 -0.6036
  979SOL    HW2 2937   1.842   2.343   1.561 -1.9119 -1.6278  1.4591
  980SOL     OW 2938   0.877   1.459   3.039  0.2518  0.6533  0.2756
  980SOL    HW1 2939   0.792   1.517   3.029  2.9327  0.8333  1.4471
  980SOL    HW2 2940   0.929   1.492   0.029 -0.9175  1.4593 -0.5260
  981SOL     OW 2941   2.337   0.170   2.103  0.4475 -0.3896 -0.3599
  981SOL    HW1 2942   2.303   0.266   2.124 -1.4689  0.2715  1.3690
  981SOL    HW2 2943   2.257   0.111   2.078  1.0905 -2.1759 -2.8416
  982SOL     OW 2944   0.027   0.229   2.883 -0.6905  0.0483  0.2673
  982SOL    HW1 2945   3.053   0.272   2.950  0.8444 -0.6937 -0.4831
  982SOL    HW2 2946   0.036   0.292   2.805  1.9562 -2.7947  1.9231
  983SOL     OW 2947   2.129   1.182   2.214 -0.7159 -0.6078  0.5546
  983SOL    HW1 2948   2.060   1.223   2.267 -0.0123 -1.0433 -1.0277
  983SOL    HW2 2949   2.160   1.238   2.132  1.9681  2.3617 -3.2797
  984SOL     OW 2950   1.462   0.314   1.656  0.0429 -0.4644  0.2711
  984SOL    HW1 2951   1.435   0.309   1.755 -0.9819  0.8141  2.3971
  984SOL    HW2 2952   1.545   0.371   1.644 -1.2691 -0.0768 -2.4704
  985SOL     OW 2953   1.822   1.260   1.955 -0.2066  0.2734  0.0855
  985SOL    HW1 2954   1.799   1.189   1.890 -2.5921 -0.8050  0.6347
  985SOL    HW2 2955   1.926   1.269   1.967  1.8800 -2.2401  1.4013
  986SOL     OW 2956   2.165   0.443   1.460 -0.0522  0.4182  0.2736
  986SOL    HW1 2957   2.220   0.391   1.528 -0.4575 -0.1770 -0.3384
  986SOL    HW2 2958   2.190   0.541   1.470 -2.0632 -0.2624  0.1929
  987SOL     OW 2959   2.520   0.471   1.370 -0.5051  0.2791 -0.0496
  987SOL    HW1 2960   2.504   0.493   1.472 -1.3996  0.8653  3.0811
  987SOL    HW2 2961   2.491   0.380   1.348  0.9500  0.6703  1.8895
  988SOL     OW 2962   2.987   0.882   2.081  0.0590 -0.1809 -0.4999
  988SOL    HW1 2963   3.027   0.900   1.987  3.1978  1.1141 -0.5065
  988SOL    HW2 2964   3.055   0.890   2.157 -1.6339 -1.0063  2.1752
  989SOL     OW 2965   2.091   1.680   0.076  0.0187  0.5511 -0.3221
  989SOL    HW1 2966   2.128   1.766   0.040  0.9754 -0.5932 -1.9305
  989SOL    HW2 2967   2.165   1.611   0.091  0.0863 -1.5476  0.0913
  990SOL     OW 2968   0.966   0.380   2.879 -0.7077 -0.0450  0.3241
  990SOL    HW1 2969   1.046   0.385   2.813  0.5026  3.5429 -1.2238
  990SOL    HW2 2970   0.993   0.434   2.960  0.8412 -0.4826 -1.6580
  991SOL     OW 2971   1.415   0.801   0.008  0.0525 -0.1043  0.3134
  991SOL    HW1 2972   1.495   0.866   0.004 -0.0105  0.2910 -1.2532
  991SOL    HW2 2973   1.422   0.728   3.026 -0.6132  0.7690 -0.5421
  992SOL     OW 2974   1.970   1.166   0.039 -0.0809  0.0209 -0.0445
  992SOL    HW1 2975   1.932   1.261   0.020 -0.2411  1.9775  3.1854
  992SOL    HW2 2976   1.908   1.089   0.006 -0.3402 -2.6972  0.2010
  993SOL     OW 2977   0.110   0.519   0.490 -0.3961 -0.5811  0.4640
  993SOL    HW1 2978   0.126   0.607   0.540 -3.4450  0.8796 -0.2495
  993SOL    HW2 2979   0.090   0.440   0.550  0.0189  0.0840  1.0759
  994SOL     OW 2980   2.914   2.032   2.253 -0.1459  0.0853  0.0061
  994SOL    HW1 2981   2.896   1.948   2.306  1.4287 -0.8873  2.1169
  994SOL    HW2 2982   2.967   2.015   2.171 -2.2909  1.3646  2.8232
  995SOL     OW 2983   1.721   1.326   2.808  0.3584 -0.6618  0.1825
  995SOL    HW1 2984   1.677   1.306   2.720 -2.1638  0.9012  0.9642
  995SOL    HW2 2985   1.792   1.255   2.828 -1.7086  0.3100 -0.9659
  996SOL     OW 2986   1.955   1.720   2.738  0.2124  0.2143 -0.2202
  996SOL    HW1 2987   2.011   1.780   2.800 -2.6531  0.7325 -0.9899
  996SOL    HW2 2988   1.895   1.762   2.669  1.2100 -0.6901  2.3707
  997SOL     OW 2989   2.289   1.497   1.799  1.2175 -0.1330 -0.0867
  997SOL    HW1 2990   2.389   1.508   1.798 -2.5588  0.0355 -1.1716
  997SOL    HW2 2991   2.244   1.589   1.810 -0.9307 -2.9218 -1.2472
  998SOL     OW 2992   2.330   1.626   0.395  0.3564  0.1990 -0.1050
  998SOL    HW1 2993   2.427   1.610   0.430 -1.1428 -0.4188 -1.7830
  998SOL    HW2 2994   2.263   1.562   0.439 -0.4862  0.6777 -0.3598
  999SOL     OW 2995   2.784   2.232   0.249  0.4073 -0.4462 -0.0493
  999SOL    HW1 2996   2.705   2.171   0.240 -1.0792  1.4761  1.0665
  999SOL    HW2 2997   2.773   2.320   0.199 -1.8571 -1.6752 -2.5727
 1000SOL     OW 2998   1.033   0.509   1.926  0.1674  0.0811  0.3796
 1000SOL    HW1 2999   1.001   0.458   2.011 -0.5114  0.7770  2.3848
 1000SOL    HW2 3000   0.994   0.601   1.912  0.3343  4.2079 -0.8548
   3.08743   3.08743   3.08743
