1000 SPC/Fw water molecules t= 448.00000 step= 448000
 3000
    1SOL     OW    1   0.139   3.106   1.525 -0.1193  0.4561  0.2137
    1SOL    HW1    2   0.195   3.107   1.440 -1.2344 -2.6872  2.5181
    1SOL    HW2    3   0.183   3.042   1.594  0.9746 -1.7247  0.7568
    2SOL     OW    4   2.722   0.140   0.096 -0.0961  0.6153 -0.5901
    2SOL    HW1    5   2.775   0.142   0.184 -2.0846 -1.4583  0.1738
    2SOL    HW2    6   2.638   0.089   0.098  0.9907  0.7710  0.6186
    3SOL     OW    7   1.252   2.801   0.068  0.3814  0.0240 -0.3022
    3SOL    HW1    8   1.246   2.701   0.041 -1.5412 -0.5365  3.9303
    3SOL    HW2    9   1.348   2.830   0.070 -3.6792 -1.2632 -0.7353
    4SOL     OW   10   1.279   2.680   2.485 -0.2256 -0.7183 -0.5220
    4SOL    HW1   11   1.334   2.599   2.454 -0.1409  2.6566 -0.2732
    4SOL    HW2   12   1.180   2.668   2.476 -0.1916 -0.2669 -0.8189
    5SOL     OW   13   2.438   0.321   1.950 -0.0243  0.0725 -0.5070
    5SOL    HW1   14   2.434   0.256   1.867  1.8781  1.0918 -0.7557
    5SOL    HW2   15   2.537   0.333   1.966 -0.6049 -0.2560 -0.3062
    6SOL     OW   16   2.468   2.248   1.232 -0.4361  0.2880  0.5460
    6SOL    HW1   17   2.538   2.203   1.176 -1.4273  3.2410 -0.5158
    6SOL    HW2   18   2.486   2.348   1.228  2.7492  1.2946 -0.3299
    7SOL     OW   19   1.470   1.906   0.453 -0.4596  0.1092 -0.0774
    7SOL    HW1   20   1.393   1.951   0.399  0.3381  0.3937 -0.4952
    7SOL    HW2   21   1.437   1.864   0.544  0.8159  0.9591  0.8370
    8SOL     OW   22   0.499   0.981   0.790 -0.1885 -0.4098 -0.2163
    8SOL    HW1   23   0.594   0.935   0.794 -1.0215 -0.9045 -0.3188
    8SOL    HW2   24   0.494   1.051   0.717 -4.3394  2.2176 -2.7787
    9SOL     OW   25   0.489   2.996   1.576 -0.0926 -0.5814 -0.2431
    9SOL    HW1   26   0.520   2.907   1.532 -1.9663 -0.0156  0.5011
    9SOL    HW2   27   0.409   2.979   1.636  0.6421  1.1968 -0.9537
   10SOL     OW   28   1.157   2.385   0.526 -0.0146 -0.2156 -0.2707
   10SOL    HW1   29   1.242   2.410   0.578 -0.4188  1.8558  0.5636
   10SOL    HW2   30   1.079   2.392   0.589  1.0260  1.0354 -3.9847
   11SOL     OW   31   2.343   1.166   1.223 -0.5597  0.3600 -0.8125
   11SOL    HW1   32   2.278   1.088   1.218 -1.4253 -1.1734  0.2180
   11SOL    HW2   33   2.322   1.221   1.145  0.7052 -0.6141  1.5862
   12SOL     OW   34   0.047   0.922   2.084 -0.4480  0.1314 -0.6588
   12SOL    HW1   35   0.089   0.949   1.998 -0.6044  1.2066  0.5273
   12SOL    HW2   36   0.115   0.873   2.143 -1.0510 -1.2924 -0.3310
   13SOL     OW   37   2.282   0.201   0.028  0.0524  0.3226  0.0961
   13SOL    HW1   38   2.213   0.189   0.103 -0.0002  1.0430  0.8397
   13SOL    HW2   39   2.247   0.170   3.053  0.4737 -0.5230  0.1883
   14SOL     OW   40   1.367   2.031   0.104 -0.0375  0.2293 -0.1932
   14SOL    HW1   41   1.324   2.003   0.192  3.5808  2.6960  0.5383
   14SOL    HW2   42   1.361   2.133   0.093 -1.3005  3.3265 -1.7556
   15SOL     OW   43   2.979   2.360   1.943  0.1936  0.3589  1.0047
   15SOL    HW1   44   3.036   2.435   1.978  0.0121 -1.4823  2.4826
   15SOL    HW2   45   3.000   2.272   1.987 -0.9987 -2.3178 -0.8047
   16SOL     OW   46   2.825   0.481   1.055 -0.1736 -0.4438 -0.4919
   16SOL    HW1   47   2.828   0.385   1.033 -0.4127 -0.4249  1.3659
   16SOL    HW2   48   2.844   0.496   1.155 -0.0972  0.5793  0.9849
   17SOL     OW   49   0.801   0.361   0.869 -0.2173  0.0551 -0.0312
   17SOL    HW1   50   0.851   0.428   0.809  0.9750  0.9143  0.3859
   17SOL    HW2   51   0.855   0.290   0.913  0.8482  1.9274 -0.5376
   18SOL     OW   52   0.459   3.087   0.352 -0.0878 -0.4683  0.0102
   18SOL    HW1   53   0.535   3.040   0.402 -1.2432 -0.7336 -1.8662
   18SOL    HW2   54   0.490   0.023   0.269 -2.2665 -2.8091 -0.6169
   19SOL     OW   55   1.456   0.990   1.060  0.4065  0.1774  0.6688
   19SOL    HW1   56   1.381   1.025   1.002  2.9772  0.9286  0.3512
   19SOL    HW2   57   1.429   0.967   1.157 -0.1026 -3.9493 -1.8180
   20SOL     OW   58   2.245   1.823   2.646  0.5171  0.0096  0.1214
   20SOL    HW1   59   2.257   1.923   2.626 -0.0547 -1.7941 -1.5324
   20SOL    HW2   60   2.333   1.790   2.686  1.0110 -0.5608  2.0770
   21SOL     OW   61   1.428   2.875   0.416  0.1277  0.9283 -0.5198
   21SOL    HW1   62   1.476   2.791   0.382 -0.0277 -2.0064 -2.4195
   21SOL    HW2   63   1.487   2.956   0.419 -0.2325  0.6722  0.3973
   22SOL     OW   64   2.510   0.927   0.401  0.3114  0.0426 -0.1330
   22SOL    HW1   65   2.502   0.914   0.503  1.2026  1.0582  0.2807
   22SOL    HW2   66   2.457   1.007   0.371 -2.5991 -1.4430  2.6913
   23SOL     OW   67   0.730   0.463   1.997 -0.5035  0.1320 -0.2679
   23SOL    HW1   68   0.721   0.495   1.907 -1.2846  0.5221  3.4068
   23SOL    HW2   69   0.826   0.437   2.009 -3.0658 -0.9560 -2.7351
   24SOL     OW   70   1.863   2.484   0.486 -0.1669  0.0359  0.0134
   24SOL    HW1   71   1.947   2.449   0.531  0.5263  3.1714 -2.2078
   24SOL    HW2   72   1.811   2.407   0.441  0.0022  0.8606 -0.0055
   25SOL     OW   73   1.816   0.260   2.417 -0.3041  0.3553 -0.0983
   25SOL    HW1   74   1.756   0.295   2.494 -1.3417 -0.9267  1.4535
   25SOL    HW2   75   1.780   0.286   2.325 -1.3873  1.5687 -2.5811
   26SOL     OW   76   1.496   2.814   2.830  0.1000  0.2672  0.0149
   26SOL    HW1   77   1.412   2.759   2.836 -0.7768  1.1125 -0.5428
   26SOL    HW2   78   1.549   2.817   2.914 -0.6831  1.5349 -2.7326
   27SOL     OW   79   1.265   0.267   1.049  0.0679  0.3537 -0.6900
   27SOL    HW1   80   1.201   0.288   1.130 -0.8310  0.5082  0.4054
   27SOL    HW2   81   1.256   0.169   1.031  1.8116  0.3186  1.8611
   28SOL     OW   82   0.483   1.672   0.922 -0.0444  0.1641 -0.0654
   28SOL    HW1   83   0.553   1.600   0.941  1.6806 -1.4910 -2.8447
   28SOL    HW2   84   0.431   1.690   1.011  0.4227  0.5908 -1.7965
   29SOL     OW   85   2.541   0.562   1.298 -0.3410  0.6412  0.1260
   29SOL    HW1   86   2.595   0.573   1.386 -0.3270  2.2477  0.1726
   29SOL    HW2   87   2.476   0.486   1.299 -1.8907  2.5814  2.2125
   30SOL     OW   88   1.645   2.500   1.452  0.5342  0.3001  0.4795
   30SOL    HW1   89   1.669   2.572   1.385 -1.3114  0.4400  0.1198
   30SOL    HW2   90   1.566   2.451   1.406 -0.7014 -4.9075 -3.1720
   31SOL     OW   91   1.769   2.890   1.507 -0.3464  0.5318 -0.4201
   31SOL    HW1   92   1.768   2.817   1.437 -0.8134 -0.4979  1.4523
   31SOL    HW2   93   1.859   2.895   1.545 -3.1039 -0.1838 -2.7046
   32SOL     OW   94   2.102   1.552   2.061  0.3939 -0.3200  0.7073
   32SOL    HW1   95   2.156   1.476   2.106 -1.2469 -0.6455  0.5568
   32SOL    HW2   96   2.155   1.603   1.985 -0.0665  0.7385 -3.5371
   33SOL     OW   97   2.415   3.097   2.368 -0.2541  0.2176  0.7914
   33SOL    HW1   98   2.353   0.058   2.348 -2.0109 -0.1267 -1.4100
   33SOL    HW2   99   2.407   3.029   2.292 -1.2302 -3.8582  0.4873
   34SOL     OW  100   2.061   0.458   0.737  0.4261  0.2611  0.4646
   34SOL    HW1  101   2.049   0.405   0.651 -0.3079  1.7063 -0.0140
   34SOL    HW2  102   2.044   0.558   0.720 -0.0645  0.6277  1.6114
   35SOL     OW  103   0.233   1.454   1.937 -0.1343  0.3636  0.1544
   35SOL    HW1  104   0.257   1.411   2.028  0.4476  1.9091  0.6959
   35SOL    HW2  105   0.262   1.393   1.859  1.3927 -0.0476  3.4337
   36SOL     OW  106   2.682   2.228   2.948  0.5895  0.0011  0.1107
   36SOL    HW1  107   2.698   2.264   2.852  1.9541  1.5842  1.5704
   36SOL    HW2  108   2.638   2.296   3.012 -0.5219 -1.4421  1.0946
   37SOL     OW  109   1.265   2.824   1.832  0.1328 -0.3759 -0.5673
   37SOL    HW1  110   1.298   2.864   1.920  0.0759  0.9895 -0.0581
   37SOL    HW2  111   1.283   2.724   1.830 -0.7324  2.7518 -1.2007
   38SOL     OW  112   0.909   0.881   2.371  1.4376 -0.1491 -0.6401
   38SOL    HW1  113   0.918   0.782   2.389  0.9368  0.2853 -1.0039
   38SOL    HW2  114   0.921   0.893   2.274 -0.9530  2.3660  1.3726
   39SOL     OW  115   1.977   0.758   1.690  0.6298 -0.1376  0.3481
   39SOL    HW1  116   2.003   0.696   1.608  3.0383 -2.0533 -1.3830
   39SOL    HW2  117   1.994   0.708   1.777  1.6558 -0.7482 -0.7696
   40SOL     OW  118   0.902   2.237   0.850  0.1963  0.4696  0.5495
   40SOL    HW1  119   0.919   2.155   0.794 -1.9876  2.2595 -0.5718
   40SOL    HW2  120   0.821   2.213   0.910  0.2497  0.9736  0.9914
   41SOL     OW  121   2.229   2.112   1.111 -0.4207 -0.4431  0.3225
   41SOL    HW1  122   2.184   2.168   1.042  0.1496 -3.8669 -3.8339
   41SOL    HW2  123   2.305   2.164   1.155  0.1807  1.7095 -0.9388
   42SOL     OW  124   2.571   0.637   0.639 -0.6943  0.3913 -0.2120
   42SOL    HW1  125   2.555   0.544   0.682  0.5424  0.9438  1.2480
   42SOL    HW2  126   2.597   0.631   0.540  1.2650  0.0207  1.6325
   43SOL     OW  127   0.783   1.027   2.591 -0.0813 -0.2304  0.5689
   43SOL    HW1  128   0.839   0.986   2.518 -1.8435 -1.7602  1.8582
   43SOL    HW2  129   0.752   1.122   2.563 -0.0879  1.0940  0.1003
   44SOL     OW  130   1.753   2.726   1.265 -0.5982 -0.0396 -0.0358
   44SOL    HW1  131   1.839   2.672   1.247  0.7583  0.6040 -2.8600
   44SOL    HW2  132   1.743   2.781   1.179 -1.1672 -0.8540 -1.9532
   45SOL     OW  133   0.493   2.663   2.861 -0.4049  0.2079  0.4725
   45SOL    HW1  134   0.455   2.699   2.946 -1.6815  0.6753 -0.7652
   45SOL    HW2  135   0.586   2.707   2.837 -0.6554 -0.7861  0.9385
   46SOL     OW  136   0.471   2.721   2.071  0.0699 -0.0858 -0.0768
   46SOL    HW1  137   0.567   2.709   2.051 -0.9344  1.7739  0.2442
   46SOL    HW2  138   0.432   2.655   2.139  2.4691 -2.5078  0.4804
   47SOL     OW  139   0.573   1.959   0.605  0.1016 -0.0595  0.2664
   47SOL    HW1  140   0.644   1.887   0.609 -1.1666  1.3459 -0.4478
   47SOL    HW2  141   0.515   1.953   0.693  2.2408 -0.1800  1.4939
   48SOL     OW  142   0.861   2.946   1.222 -0.4023 -0.3883 -0.0053
   48SOL    HW1  143   0.841   2.883   1.296  2.5515 -0.3722 -0.7403
   48SOL    HW2  144   0.780   2.965   1.162 -2.6493 -0.9203  2.0789
   49SOL     OW  145   3.053   2.796   2.913  0.4703  1.0450 -0.6774
   49SOL    HW1  146   3.108   2.820   2.999 -0.3659  1.8671 -0.7303
   49SOL    HW2  147   2.987   2.712   2.921 -3.3288 -4.2079 -1.3754
   50SOL     OW  148   1.267   1.098   0.242 -0.3073 -0.0578  0.4171
   50SOL    HW1  149   1.184   1.127   0.189  0.3008 -0.1361 -1.6562
   50SOL    HW2  150   1.339   1.165   0.238 -1.2340  1.3844  1.0639
   51SOL     OW  151   1.818   0.122   0.519 -0.2930  0.2127 -0.6791
   51SOL    HW1  152   1.801   0.168   0.434 -1.6093 -0.5586  1.2786
   51SOL    HW2  153   1.828   0.184   0.600 -1.7122  2.7605 -0.8333
   52SOL     OW  154   0.534   1.611   0.663  0.6062  0.3160  1.1390
   52SOL    HW1  155   0.528   1.648   0.753  0.9932 -1.2111 -1.9090
   52SOL    HW2  156   0.622   1.621   0.617  1.2806  1.1307  0.8620
   53SOL     OW  157   0.281   1.190   3.015  0.1469 -0.0869 -0.0982
   53SOL    HW1  158   0.202   1.156   2.965  2.4272 -1.6585  2.2980
   53SOL    HW2  159   0.289   1.152   3.107 -1.2534  2.6017 -1.5505
   54SOL     OW  160   2.518   2.073   3.114 -0.3184  0.3003  0.1200
   54SOL    HW1  161   2.584   2.090   0.074  0.7245 -0.0903  0.5925
   54SOL    HW2  162   2.550   2.116   3.031 -1.3743 -2.6854  0.8995
   55SOL     OW  163   2.618   2.480   1.095 -0.1453  0.1376 -0.1498
   55SOL    HW1  164   2.706   2.458   1.142  1.5501 -0.5429  0.9395
   55SOL    HW2  165   2.631   2.554   1.026  0.2800  1.0487 -0.3700
   56SOL     OW  166   1.865   0.317   1.547 -0.0646 -1.0072  0.0417
   56SOL    HW1  167   1.789   0.378   1.502 -1.6204  3.5857  0.9148
   56SOL    HW2  168   1.833   0.289   1.640  1.0714  1.1947 -2.3276
   57SOL     OW  169   1.830   1.903   1.060  0.7397  0.1632  0.1878
   57SOL    HW1  170   1.852   1.999   1.090  1.3538 -0.6444  0.9987
   57SOL    HW2  171   1.745   1.873   1.106  1.3575  1.4751  0.0913
   58SOL     OW  172   2.701   0.427   2.027 -0.1329 -0.4256 -0.4436
   58SOL    HW1  173   2.652   0.388   2.107 -0.7612  2.2315 -0.9274
   58SOL    HW2  174   2.684   0.527   2.019  1.1649  0.6590 -1.7738
   59SOL     OW  175   1.098   2.435   2.042  0.1487 -0.2111 -0.4709
   59SOL    HW1  176   1.025   2.464   2.109  0.9737  4.3341 -1.5917
   59SOL    HW2  177   1.062   2.407   1.951  0.5021  1.2360 -1.0689
   60SOL     OW  178   0.783   2.667   2.797  0.6585  0.4095  0.6645
   60SOL    HW1  179   0.800   2.636   2.894  2.0423  1.1221  0.7523
   60SOL    HW2  180   0.848   2.739   2.760 -0.0007  1.7787 -2.8898
   61SOL     OW  181   0.643   2.198   0.468 -0.2990  0.4352 -0.2035
   61SOL    HW1  182   0.681   2.161   0.379  1.4930 -1.5758  0.7799
   61SOL    HW2  183   0.625   2.122   0.532 -0.4987  1.9561  1.7725
   62SOL     OW  184   1.151   1.566   1.731 -0.8070 -0.4010  0.2901
   62SOL    HW1  185   1.084   1.623   1.685 -0.2718 -0.1796  1.1819
   62SOL    HW2  186   1.230   1.626   1.752  1.6970  0.0029 -1.7814
   63SOL     OW  187   0.967   1.983   0.747 -0.7843  0.0235 -0.0752
   63SOL    HW1  188   0.911   1.913   0.803  0.7525  1.7282  2.1610
   63SOL    HW2  189   0.943   1.981   0.647 -3.3298 -0.9125 -0.4256
   64SOL     OW  190   1.253   1.670   2.761 -0.1136 -0.5028 -0.1701
   64SOL    HW1  191   1.227   1.762   2.795  2.0128 -0.2589  2.0165
   64SOL    HW2  192   1.182   1.630   2.706 -1.0297  0.6217  0.8786
   65SOL     OW  193   1.641   2.105   2.127 -0.3967  0.0769  0.3271
   65SOL    HW1  194   1.721   2.072   2.073  0.1599 -0.6994  0.9901
   65SOL    HW2  195   1.656   2.091   2.227 -2.6000 -3.5137 -1.9084
   66SOL     OW  196   3.099   0.795   1.147 -0.0377 -0.2591  0.1701
   66SOL    HW1  197   3.002   0.781   1.168  0.6543 -0.1578  0.4676
   66SOL    HW2  198   0.036   0.817   1.232  0.4613 -4.2303  0.1977
   67SOL     OW  199   2.372   2.461   0.451  0.0328  0.3802  0.0877
   67SOL    HW1  200   2.359   2.360   0.466 -1.6805  0.1180  0.3548
   67SOL    HW2  201   2.289   2.504   0.415 -1.0442 -1.1479 -1.7091
   68SOL     OW  202   2.660   2.615   1.394 -0.1717 -0.6986 -0.3257
   68SOL    HW1  203   2.693   2.693   1.446  0.6241 -2.0805  0.3872
   68SOL    HW2  204   2.733   2.544   1.394 -0.6484  1.8029  3.3833
   69SOL     OW  205   2.598   2.719   2.946 -0.0346  0.6960 -0.3935
   69SOL    HW1  206   2.515   2.742   2.894 -0.0495 -0.3735 -0.2702
   69SOL    HW2  207   2.602   2.762   3.037 -0.0862  0.0261 -0.5734
   70SOL     OW  208   0.470   1.262   2.796  0.7580  0.1645 -0.2037
   70SOL    HW1  209   0.548   1.332   2.785  0.1818 -0.0321 -1.3136
   70SOL    HW2  210   0.427   1.266   2.889 -0.1033  1.8648 -0.5407
   71SOL     OW  211   0.735   1.232   2.073 -0.0905  0.1012 -0.1554
   71SOL    HW1  212   0.650   1.177   2.058  0.1301 -1.8391  3.4009
   71SOL    HW2  213   0.794   1.243   1.992  0.6632 -0.6794  1.2941
   72SOL     OW  214   2.572   1.267   1.719 -0.5038  0.3687  0.2865
   72SOL    HW1  215   2.558   1.178   1.760  1.3170  0.6561  1.7423
   72SOL    HW2  216   2.623   1.331   1.785 -0.0061  0.2318  0.9186
   73SOL     OW  217   0.776   1.999   2.496 -0.4947  0.1292 -0.3231
   73SOL    HW1  218   0.682   2.032   2.503  0.5041  0.5091 -1.2673
   73SOL    HW2  219   0.833   2.070   2.449  0.3810 -0.0309  2.2873
   74SOL     OW  220   1.602   2.903   1.845  0.6119  0.0311 -0.3828
   74SOL    HW1  221   1.556   2.898   1.938 -0.4166  0.9511 -1.6498
   74SOL    HW2  222   1.698   2.879   1.858 -2.3613 -0.8630 -2.1280
   75SOL     OW  223   1.148   2.641   0.906 -0.6817 -0.7188  0.2169
   75SOL    HW1  224   1.122   2.571   0.970 -0.1642  1.4338 -0.5685
   75SOL    HW2  225   1.252   2.650   0.897  2.8434  2.5930 -0.9351
   76SOL     OW  226   0.518   1.872   2.865 -0.0380  0.3488 -0.1757
   76SOL    HW1  227   0.556   1.937   2.933 -0.7855  0.0118  1.4653
   76SOL    HW2  228   0.568   1.887   2.778  3.1135  0.7630  0.1748
   77SOL     OW  229   0.654   2.552   1.057  0.1281 -0.4507 -0.2590
   77SOL    HW1  230   0.605   2.639   1.072  1.0570 -1.5561  1.2891
   77SOL    HW2  231   0.714   2.535   1.135 -1.2976  0.1086 -0.7521
   78SOL     OW  232   2.622   1.326   0.191 -0.9821  0.0238 -0.1243
   78SOL    HW1  233   2.708   1.278   0.208  0.9769  0.0284  2.4071
   78SOL    HW2  234   2.593   1.397   0.261 -0.4844  3.2133  1.3612
   79SOL     OW  235   0.373   1.659   2.983  0.3828 -0.5700 -0.0839
   79SOL    HW1  236   0.408   1.567   3.011  0.1453 -1.1958 -0.2085
   79SOL    HW2  237   0.445   1.715   2.933  2.9981 -0.3228 -1.6415
   80SOL     OW  238   1.962   1.683   1.641  0.2222 -0.0594  0.5682
   80SOL    HW1  239   1.972   1.782   1.666 -0.9352  1.1869 -0.6419
   80SOL    HW2  240   1.952   1.617   1.720  1.1067  0.4136  2.7967
   81SOL     OW  241   2.241   0.805   2.380  0.0159  0.3674 -0.1194
   81SOL    HW1  242   2.277   0.735   2.321 -1.6376 -0.4346  0.5035
   81SOL    HW2  243   2.303   0.822   2.459 -1.8241 -1.9511  0.4689
   82SOL     OW  244   1.590   1.740   1.645 -0.1123  0.0921 -0.3015
   82SOL    HW1  245   1.641   1.728   1.737  2.7706  2.4418  0.3585
   82SOL    HW2  246   1.581   1.655   1.591  1.3842  1.2006 -0.4292
   83SOL     OW  247   3.047   0.167   2.804 -0.0512 -0.0144 -0.0009
   83SOL    HW1  248   3.070   0.068   2.804 -0.8077  1.3435  0.5054
   83SOL    HW2  249   2.950   0.184   2.824  1.0874  0.9574  0.7416
   84SOL     OW  250   0.691   1.274   0.197  0.4202  0.2862  0.6770
   84SOL    HW1  251   0.703   1.262   0.096 -0.8844 -2.7403  0.7509
   84SOL    HW2  252   0.763   1.325   0.238 -3.1375 -1.3017 -2.1027
   85SOL     OW  253   2.034   1.711   1.158  0.5066 -0.2243 -0.1063
   85SOL    HW1  254   1.960   1.757   1.114  3.1004  1.1869  4.1433
   85SOL    HW2  255   2.074   1.633   1.101 -0.3333 -2.7374 -1.0974
   86SOL     OW  256   0.746   0.855   1.212 -0.4462  0.1394  0.0343
   86SOL    HW1  257   0.711   0.951   1.232  0.9238  0.4084  1.1846
   86SOL    HW2  258   0.833   0.831   1.266  1.2801  0.7038 -1.9856
   87SOL     OW  259   2.662   2.101   2.385  0.5655  0.0046  0.1166
   87SOL    HW1  260   2.675   2.113   2.487  0.8936  1.0319  1.8194
   87SOL    HW2  261   2.562   2.098   2.366  3.8142 -0.5328 -2.3195
   88SOL     OW  262   0.053   2.902   0.056  0.3957 -0.5676  0.4531
   88SOL    HW1  263   0.021   2.989   0.002 -2.5565  0.9637 -1.3492
   88SOL    HW2  264   0.102   2.929   0.138  0.0547 -0.8154  0.0269
   89SOL     OW  265   1.366   0.084   0.399 -0.5681 -0.0975 -0.2153
   89SOL    HW1  266   1.335   0.025   0.319 -0.5474  0.2779  0.3701
   89SOL    HW2  267   1.450   0.041   0.444  0.7182 -0.2801  3.5129
   90SOL     OW  268   2.843   1.271   2.352 -0.2150  0.6722  0.6539
   90SOL    HW1  269   2.782   1.197   2.391  0.8564  1.9743 -0.0278
   90SOL    HW2  270   2.941   1.234   2.353  3.4297  0.1381  2.2880
   91SOL     OW  271   2.067   3.057   1.122  0.2721  0.1747 -0.5405
   91SOL    HW1  272   2.096   3.050   1.219 -3.1166  0.5433  3.3923
   91SOL    HW2  273   2.058   2.963   1.082 -1.4641 -0.3394  1.5515
   92SOL     OW  274   1.645   1.529   0.753 -0.5687  0.2957  0.2841
   92SOL    HW1  275   1.586   1.448   0.737  0.4590 -1.3722  1.1697
   92SOL    HW2  276   1.600   1.593   0.823  2.2477  2.2302  2.7616
   93SOL     OW  277   0.234   1.639   0.356  0.2148  0.0088  0.4679
   93SOL    HW1  278   0.198   1.732   0.384  0.0610  1.7686  0.7333
   93SOL    HW2  279   0.284   1.645   0.265  1.1982  0.1750 -0.6803
   94SOL     OW  280   0.826   2.585   1.600  0.3257  0.1093  0.2407
   94SOL    HW1  281   0.923   2.567   1.624 -0.6842  0.7805 -0.4595
   94SOL    HW2  282   0.773   2.501   1.568 -2.5520 -2.0328 -0.5095
   95SOL     OW  283   0.032   0.718   0.831  0.1915 -0.6914 -0.6227
   95SOL    HW1  284   0.028   0.817   0.843 -0.3040  1.2865  0.2385
   95SOL    HW2  285   3.062   0.677   0.862  0.0526 -1.8548  0.1555
   96SOL     OW  286   0.687   2.916   1.906  1.0502 -0.7778  0.0709
   96SOL    HW1  287   0.750   2.964   1.839  1.4710  1.5275 -2.8850
   96SOL    HW2  288   0.727   2.827   1.926 -0.2066  1.2906  0.8062
   97SOL     OW  289   2.288   0.639   0.898  0.5749  0.0323  0.1146
   97SOL    HW1  290   2.214   0.587   0.942 -1.4804 -0.8089 -2.1037
   97SOL    HW2  291   2.249   0.724   0.854 -2.4133  1.2500 -1.8599
   98SOL     OW  292   3.116   2.512   1.557  0.1067  0.0078  0.3207
   98SOL    HW1  293   3.019   2.481   1.571 -0.5548 -1.4498  2.5453
   98SOL    HW2  294   0.014   2.612   1.575  3.3795 -0.3784  0.4067
   99SOL     OW  295   3.059   0.331   1.689 -0.0391 -0.1822 -0.2869
   99SOL    HW1  296   3.041   0.250   1.628  0.6273  0.7281  1.0075
   99SOL    HW2  297   2.976   0.381   1.720  1.1922 -0.0521  0.8693
  100SOL     OW  298   1.974   0.376   2.676  0.4788  0.3047  0.1005
  100SOL    HW1  299   2.067   0.382   2.634 -1.3661  1.8536  0.1028
  100SOL    HW2  300   1.907   0.326   2.617 -0.8662  1.2015  0.9522
  101SOL     OW  301   0.963   0.159   2.225 -0.4392  0.6651 -0.1257
  101SOL    HW1  302   0.942   0.067   2.189  0.8468 -0.6287  0.8875
  101SOL    HW2  303   1.012   0.135   2.315  0.1217  1.1111  3.3411
  102SOL     OW  304   0.847   0.742   1.477 -0.2016  0.7002 -0.1408
  102SOL    HW1  305   0.755   0.720   1.513  0.2421  1.0922 -1.8183
  102SOL    HW2  306   0.869   0.842   1.463  0.9367  1.6522 -1.0448
  103SOL     OW  307   0.981   0.780   2.908  0.6340  0.4846  0.2135
  103SOL    HW1  308   1.048   0.734   2.853  0.1664  0.7784 -0.9073
  103SOL    HW2  309   0.905   0.720   2.928  1.3486  2.4554  0.8370
  104SOL     OW  310   0.288   0.307   2.013 -1.1469 -0.5787 -0.3425
  104SOL    HW1  311   0.372   0.289   2.066 -2.7675  1.0457  0.5838
  104SOL    HW2  312   0.220   0.234   2.019  2.9366  0.8957 -0.4989
  105SOL     OW  313   2.829   2.385   1.448  0.5113  0.4145 -0.2470
  105SOL    HW1  314   2.793   2.299   1.408  0.8154  0.4318  0.6792
  105SOL    HW2  315   2.848   2.371   1.549  3.1632  0.3633  3.9768
  106SOL     OW  316   1.064   0.051   0.804 -0.3124 -0.1259  0.1510
  106SOL    HW1  317   1.091   0.080   0.709  0.6957 -0.2774  2.5605
  106SOL    HW2  318   1.140   0.047   0.866 -2.5801 -0.2476 -2.4968
  107SOL     OW  319   3.003   2.108   1.263 -0.1696 -0.1919 -0.2560
  107SOL    HW1  320   3.023   2.024   1.210  0.2879 -2.5345  0.5953
  107SOL    HW2  321   2.904   2.105   1.286 -0.6279 -3.6273  1.0062
  108SOL     OW  322   0.050   2.185   0.551  0.6354 -0.4202 -0.4973
  108SOL    HW1  323   0.094   2.109   0.600 -1.2472 -0.1535 -0.3816
  108SOL    HW2  324   0.094   2.268   0.585 -0.6063  1.3082  0.9158
  109SOL     OW  325   1.447   0.047   0.755 -0.4757  0.3506 -0.0248
  109SOL    HW1  326   1.518   0.074   0.822 -2.2916 -0.6843  0.2519
  109SOL    HW2  327   1.422   0.131   0.698  1.3874  2.7882 -0.5969
  110SOL     OW  328   1.509   1.666   0.948 -0.0518  0.0417  0.0125
  110SOL    HW1  329   1.564   1.742   0.983  0.7717 -1.1813 -2.4985
  110SOL    HW2  330   1.501   1.596   1.026 -2.4309  0.9872 -1.0492
  111SOL     OW  331   1.820   2.598   1.847 -0.2854 -0.2414 -0.1880
  111SOL    HW1  332   1.916   2.575   1.823 -0.9012  5.6862 -0.3820
  111SOL    HW2  333   1.787   2.568   1.936 -0.3218  0.9176 -1.5610
  112SOL     OW  334   1.692   2.141   2.391  0.2774  0.0409  0.1023
  112SOL    HW1  335   1.601   2.120   2.433  0.6974 -1.1774  4.0017
  112SOL    HW2  336   1.702   2.242   2.395  1.1180 -0.0391 -0.4824
  113SOL     OW  337   2.117   1.936   2.054  0.2121  0.0914 -0.0130
  113SOL    HW1  338   2.175   1.864   2.097  3.4911 -1.6503  0.8261
  113SOL    HW2  339   2.159   1.936   1.959  0.1347 -1.7283  1.5904
  114SOL     OW  340   0.102   1.039   1.164 -0.1002  0.1954 -0.3579
  114SOL    HW1  341   0.040   0.964   1.144  0.4396  3.1227 -1.5490
  114SOL    HW2  342   0.052   1.126   1.143 -0.6456 -0.9538  3.0508
  115SOL     OW  343   2.705   0.748   2.790 -0.3396  0.0608 -0.2763
  115SOL    HW1  344   2.793   0.792   2.768 -2.1737 -2.4632 -1.6801
  115SOL    HW2  345   2.656   0.718   2.705 -1.4243  1.3597 -0.9609
  116SOL     OW  346   2.680   0.494   2.906  0.1217 -0.2376  0.2032
  116SOL    HW1  347   2.725   0.578   2.873 -0.6951  2.8522  0.3582
  116SOL    HW2  348   2.666   0.418   2.841  1.1505  1.2373  0.9866
  117SOL     OW  349   2.558   2.738   0.505 -0.6591  0.1993  0.0559
  117SOL    HW1  350   2.582   2.661   0.569 -0.6977 -3.4643 -1.5918
  117SOL    HW2  351   2.513   2.688   0.427  0.8305  0.5855 -0.5503
  118SOL     OW  352   0.600   1.969   2.144 -0.6793  0.0167  0.2045
  118SOL    HW1  353   0.579   2.057   2.187 -2.2230 -0.7806  0.9380
  118SOL    HW2  354   0.670   1.991   2.072  1.5906  0.2161 -1.4289
  119SOL     OW  355   0.718   2.907   0.392  0.5072  0.2324  0.3432
  119SOL    HW1  356   0.804   2.917   0.346 -3.6653 -3.2828  0.7223
  119SOL    HW2  357   0.726   2.877   0.492 -2.0273 -0.2318  2.0730
  120SOL     OW  358   1.414   0.697   0.300 -0.5821 -0.2014 -0.1899
  120SOL    HW1  359   1.489   0.712   0.367 -1.5612  0.2076  2.0830
  120SOL    HW2  360   1.440   0.709   0.201 -3.1076 -0.4862  1.4529
  121SOL     OW  361   1.755   0.511   0.782 -1.4362 -0.2228  0.2936
  121SOL    HW1  362   1.686   0.507   0.858 -0.5242  1.1789  1.3591
  121SOL    HW2  363   1.815   0.594   0.784  1.9680  1.3652 -0.0855
  122SOL     OW  364   2.224   1.233   2.392 -0.6985  0.4264 -0.1644
  122SOL    HW1  365   2.267   1.320   2.357 -0.8628  0.8735 -2.7856
  122SOL    HW2  366   2.124   1.242   2.395  1.4857 -1.9488 -0.1997
  123SOL     OW  367   0.860   1.224   1.045 -0.3267 -0.3709 -0.6506
  123SOL    HW1  368   0.934   1.153   1.053  0.6339 -0.0946 -0.7155
  123SOL    HW2  369   0.856   1.264   0.948 -3.0627  1.4765 -1.2566
  124SOL     OW  370   0.585   0.412   2.919 -0.6207 -0.4564  0.0785
  124SOL    HW1  371   0.500   0.417   2.971 -0.2226  0.9702 -1.6405
  124SOL    HW2  372   0.654   0.355   2.971 -0.8741  0.6631  1.1176
  125SOL     OW  373   0.906   0.041   0.004 -0.1833 -0.0399 -0.5891
  125SOL    HW1  374   0.866   3.066   3.115 -1.2786  1.4775 -0.2506
  125SOL    HW2  375   1.008   0.049   3.112 -0.9543 -0.0593 -0.7038
  126SOL     OW  376   0.557   1.601   0.284  0.2437 -0.4929  0.1866
  126SOL    HW1  377   0.508   1.509   0.276 -1.4435 -1.5130  1.0109
  126SOL    HW2  378   0.592   1.608   0.380 -0.6600  0.9618  3.5124
  127SOL     OW  379   1.091   2.521   1.638  0.0830 -0.0032 -0.0642
  127SOL    HW1  380   1.088   2.532   1.535 -0.3766 -0.1809  0.9949
  127SOL    HW2  381   1.185   2.502   1.666 -2.5233  0.2394  0.3375
  128SOL     OW  382   0.873   1.954   0.494  0.6390 -0.2427  0.0370
  128SOL    HW1  383   0.809   1.931   0.416 -0.7857  0.8464 -0.7622
  128SOL    HW2  384   0.927   2.035   0.460 -0.4991 -0.3410  0.9862
  129SOL     OW  385   1.893   1.556   2.279  0.2986 -0.1074  0.3098
  129SOL    HW1  386   1.838   1.466   2.295 -2.3010 -3.9550  0.0789
  129SOL    HW2  387   1.977   1.538   2.223  1.0855 -0.1014 -1.5877
  130SOL     OW  388   2.140   1.901   1.781  0.5382  0.2569  0.0073
  130SOL    HW1  389   2.183   1.914   1.690 -0.4758  2.6800 -1.4119
  130SOL    HW2  390   2.039   1.913   1.765 -0.5567 -0.9951 -3.5069
  131SOL     OW  391   0.369   2.287   2.029  0.2172  0.0772  0.3610
  131SOL    HW1  392   0.359   2.198   1.985  0.2661  2.3461  0.5732
  131SOL    HW2  393   0.271   2.327   2.040  0.8618  1.6120  0.4405
  132SOL     OW  394   2.458   1.649   0.633 -0.4708 -0.1356 -0.2372
  132SOL    HW1  395   2.499   1.565   0.599 -2.5728  4.1960  0.3360
  132SOL    HW2  396   2.511   1.731   0.599 -0.5004 -0.2631 -1.2732
  133SOL     OW  397   0.482   1.481   1.680 -0.3986 -0.0670  0.4644
  133SOL    HW1  398   0.441   1.573   1.700 -0.6863  1.5361 -1.0554
  133SOL    HW2  399   0.417   1.406   1.697  1.0349 -3.5788  2.1122
  134SOL     OW  400   2.824   1.311   0.674 -0.4321 -1.2079  0.5860
  134SOL    HW1  401   2.813   1.213   0.694  0.2381  1.6919 -1.7177
  134SOL    HW2  402   2.909   1.339   0.623 -0.1525 -0.4028 -0.4745
  135SOL     OW  403   1.882   1.126   2.910 -0.3239 -0.4545  0.3385
  135SOL    HW1  404   1.841   1.213   2.946  1.9211  0.1099 -0.3665
  135SOL    HW2  405   1.896   1.049   2.974  1.2352  0.5671 -0.0117
  136SOL     OW  406   2.920   1.675   0.970 -0.5463  0.1454 -0.6114
  136SOL    HW1  407   3.001   1.726   0.931 -0.6298 -2.5839  1.4616
  136SOL    HW2  408   2.841   1.709   0.916  1.0547 -1.4712  2.1977
  137SOL     OW  409   2.230   1.712   0.480  0.4597  0.0061  0.8203
  137SOL    HW1  410   2.165   1.643   0.519  1.9103 -0.5401  1.4944
  137SOL    HW2  411   2.320   1.698   0.527  0.3867 -1.9847 -0.7197
  138SOL     OW  412   2.545   0.358   0.663  0.0310  1.1636  0.8658
  138SOL    HW1  413   2.570   0.292   0.590 -1.1034  0.2560  0.9922
  138SOL    HW2  414   2.447   0.359   0.698 -0.4108  1.1464 -2.1073
  139SOL     OW  415   2.785   0.137   2.911  0.0641 -0.2382 -0.2699
  139SOL    HW1  416   2.762   0.150   3.010  0.2027 -0.2468 -1.8158
  139SOL    HW2  417   2.764   0.043   2.878  0.7966  1.6290 -1.9452
  140SOL     OW  418   0.936   1.207   1.609  0.1345 -0.2954  0.4706
  140SOL    HW1  419   0.932   1.218   1.710 -1.4044  0.5744 -0.4022
  140SOL    HW2  420   0.842   1.223   1.574 -1.1186 -0.8080  0.0351
  141SOL     OW  421   1.226   1.528   0.747 -0.4330  0.0317  0.2944
  141SOL    HW1  422   1.236   1.489   0.842 -1.1631 -1.2928 -0.0887
  141SOL    HW2  423   1.282   1.611   0.745  0.5273  1.0976 -0.8616
  142SOL     OW  424   1.350   0.705   1.171 -0.4840  0.2165 -0.4819
  142SOL    HW1  425   1.382   0.639   1.239  0.7949 -1.9459 -0.4050
  142SOL    HW2  426   1.382   0.797   1.202  4.2335  3.3620 -1.0691
  143SOL     OW  427   0.764   0.632   2.954 -0.4033 -0.6841 -0.5638
  143SOL    HW1  428   0.697   0.714   2.954 -2.2124  0.5265 -2.1841
  143SOL    HW2  429   0.722   0.548   2.908  2.8370  2.1117 -1.4321
  144SOL     OW  430   2.497   3.093   0.127  0.1315 -0.1298  0.5388
  144SOL    HW1  431   2.422   0.009   0.071  0.2434 -0.5900  1.2140
  144SOL    HW2  432   2.469   3.115   0.220  2.6372  0.8280 -4.6682
  145SOL     OW  433   2.151   3.101   2.533  0.0053  0.2341 -0.4703
  145SOL    HW1  434   2.188   0.013   2.623  1.0515 -1.4675  3.3362
  145SOL    HW2  435   2.192   0.043   2.463  0.0296  0.3856  5.4470
  146SOL     OW  436   2.924   3.003   0.367  0.1777  0.3524 -0.1617
  146SOL    HW1  437   2.919   2.940   0.289  0.7353  2.8911  3.1977
  146SOL    HW2  438   2.946   3.094   0.330  0.6304  0.7838  0.5935
  147SOL     OW  439   1.318   0.868   2.601 -0.6157  0.1725 -0.4026
  147SOL    HW1  440   1.416   0.891   2.638  3.8684  0.5892  0.7854
  147SOL    HW2  441   1.257   0.949   2.608  1.2308 -1.2277  1.5407
  148SOL     OW  442   1.119   0.111   0.555  0.4685 -0.2383  0.0914
  148SOL    HW1  443   1.210   0.096   0.511  1.0614  0.4030  1.2089
  148SOL    HW2  444   1.041   0.108   0.491 -1.2697  2.2602  0.2640
  149SOL     OW  445   1.285   0.831   2.278 -0.1747  0.1900 -0.6608
  149SOL    HW1  446   1.260   0.912   2.218 -1.1690  1.2389 -0.9235
  149SOL    HW2  447   1.303   0.870   2.371 -1.8525  1.2589  3.2282
  150SOL     OW  448   1.816   3.086   2.857 -0.4195 -0.3902  0.3481
  150SOL    HW1  449   1.856   0.053   2.886 -0.1350 -2.7157 -1.6428
  150SOL    HW2  450   1.900   3.029   2.835  2.9325 -1.4761 -0.4028
  151SOL     OW  451   0.447   1.366   0.209  0.1214 -0.9825 -0.2472
  151SOL    HW1  452   0.380   1.289   0.204  0.7310 -1.4142 -0.1709
  151SOL    HW2  453   0.540   1.328   0.216  0.0985  1.0891 -2.3084
  152SOL     OW  454   0.919   0.539   1.189  0.3838  0.0140 -0.3312
  152SOL    HW1  455   0.832   0.532   1.241 -3.0318 -0.8838  0.8558
  152SOL    HW2  456   0.971   0.451   1.181  1.9785 -1.7928  2.0272
  153SOL     OW  457   2.535   3.020   1.863  0.1040 -0.1715 -0.0424
  153SOL    HW1  458   2.565   3.113   1.901  0.1947  2.4780  0.5484
  153SOL    HW2  459   2.439   3.003   1.897  1.7836 -1.1899 -1.0466
  154SOL     OW  460   2.276   2.989   1.893  0.5533 -0.0043 -0.0434
  154SOL    HW1  461   2.232   3.077   1.875  0.0674  0.2923  2.0180
  154SOL    HW2  462   2.252   2.906   1.835 -2.7974 -3.5558 -1.1063
  155SOL     OW  463   3.079   1.028   0.713  0.2895  0.3898  0.1629
  155SOL    HW1  464   0.007   0.959   0.651 -1.7542  0.6852 -2.1110
  155SOL    HW2  465   0.025   1.110   0.722  0.4806  0.2712  1.5196
  156SOL     OW  466   2.066   1.525   0.587 -0.0907  0.1516  0.0985
  156SOL    HW1  467   2.129   1.444   0.596 -0.4532  1.0092 -0.5422
  156SOL    HW2  468   2.011   1.509   0.502  1.0187  2.5661  1.0992
  157SOL     OW  469   0.718   3.026   2.831  0.1237  0.0431  0.2341
  157SOL    HW1  470   0.658   3.022   2.910  0.5377  2.1296  0.7339
  157SOL    HW2  471   0.678   3.076   2.751  0.8558 -0.1154 -3.4527
  158SOL     OW  472   1.925   1.158   1.284 -0.1349 -0.9707 -1.1091
  158SOL    HW1  473   1.998   1.183   1.355 -0.8205  1.2808 -1.9887
  158SOL    HW2  474   1.919   1.223   1.213  1.6768 -3.9855  4.2787
  159SOL     OW  475   0.066   0.176   0.265  0.4316 -0.2716  0.2500
  159SOL    HW1  476   0.112   0.146   0.181 -0.0458 -0.6921 -0.9968
  159SOL    HW2  477   0.115   0.142   0.345 -2.1777  0.5926  0.0143
  160SOL     OW  478   2.649   2.265   1.853 -0.0020  0.1079 -0.4810
  160SOL    HW1  479   2.626   2.282   1.950  1.8098  0.0286 -0.6934
  160SOL    HW2  480   2.598   2.334   1.804  1.7282 -1.0140  2.5402
  161SOL     OW  481   0.362   0.760   3.034 -0.6327  0.1086 -0.1295
  161SOL    HW1  482   0.445   0.810   3.001  1.1073 -1.1387 -2.1222
  161SOL    HW2  483   0.323   0.697   2.962 -1.8680 -0.6510  2.0291
  162SOL     OW  484   0.860   0.513   1.712 -0.2495 -0.2030 -0.4958
  162SOL    HW1  485   0.947   0.543   1.665  0.5418 -0.0442 -2.9723
  162SOL    HW2  486   0.836   0.415   1.697  1.5856  0.2438 -0.8350
  163SOL     OW  487   2.685   3.031   2.362  0.1487  0.4393  0.1544
  163SOL    HW1  488   2.703   2.950   2.304  0.3075  1.1957  1.6434
  163SOL    HW2  489   2.589   3.059   2.373  2.2573 -1.5074 -0.3290
  164SOL     OW  490   2.160   1.737   0.229  0.0074  0.4586  0.0868
  164SOL    HW1  491   2.144   1.827   0.186 -1.4066 -1.4884 -0.6395
  164SOL    HW2  492   2.202   1.740   0.321  0.0618  0.4468  0.0992
  165SOL     OW  493   0.317   0.118   0.902 -0.1691  0.2913 -0.2282
  165SOL    HW1  494   0.325   0.203   0.843 -1.1967  1.2462  1.4413
  165SOL    HW2  495   0.384   0.122   0.980  1.4062 -1.3684 -2.2210
  166SOL     OW  496   2.784   0.398   0.002  0.4541  0.6650 -0.0096
  166SOL    HW1  497   2.728   0.426   3.039  1.4270 -1.4374 -0.5935
  166SOL    HW2  498   2.743   0.307   0.040 -0.6070 -0.6048  0.4791
  167SOL     OW  499   2.104   0.583   0.311 -0.2069  0.2926 -0.5557
  167SOL    HW1  500   2.079   0.676   0.334  1.0871 -4.6236  0.4481
  167SOL    HW2  501   2.181   0.591   0.244  1.5215 -0.0013  1.7184
  168SOL     OW  502   1.552   0.179   2.128  0.5034  0.5609 -0.1214
  168SOL    HW1  503   1.497   0.191   2.214  3.0942  0.5403 -1.1087
  168SOL    HW2  504   1.625   0.247   2.115  1.0953 -1.2072 -1.9135
  169SOL     OW  505   0.472   1.941   0.851 -0.6426 -0.3240  0.2755
  169SOL    HW1  506   0.478   1.845   0.889  1.7128 -2.0193 -0.3232
  169SOL    HW2  507   0.498   1.996   0.932 -0.2681 -1.2922 -0.8301
  170SOL     OW  508   0.505   0.028   1.358  0.1356 -0.3829 -0.4747
  170SOL    HW1  509   0.495   0.123   1.394  1.1389 -3.3013 -2.0303
  170SOL    HW2  510   0.503   3.077   1.433  0.0568 -0.8673 -0.0527
  171SOL     OW  511   2.700   1.471   2.519 -0.3323 -0.1498  0.7329
  171SOL    HW1  512   2.731   1.387   2.470 -0.5767  0.5025 -1.8579
  171SOL    HW2  513   2.693   1.552   2.458 -2.8085 -0.1046  0.3153
  172SOL     OW  514   0.986   1.742   1.199  0.5301  0.2413  0.2449
  172SOL    HW1  515   0.929   1.678   1.144 -0.4893 -0.2488 -1.0046
  172SOL    HW2  516   1.037   1.703   1.277  0.6302  0.9077 -1.5479
  173SOL     OW  517   1.965   2.042   3.030  0.3216 -0.0024  0.0241
  173SOL    HW1  518   1.884   1.983   3.011  1.4626  1.0910  0.3134
  173SOL    HW2  519   1.929   2.133   3.064 -3.4233  0.3565 -1.6542
  174SOL     OW  520   1.764   0.645   3.102  0.3898  0.0560 -0.0721
  174SOL    HW1  521   1.849   0.705   3.098  1.1310  1.5339 -0.8417
  174SOL    HW2  522   1.710   0.682   0.064 -0.7079 -0.0613 -1.6512
  175SOL     OW  523   0.332   1.681   1.808  0.0255 -0.3592 -0.5920
  175SOL    HW1  524   0.259   1.731   1.759  1.3629 -1.1177 -0.0743
  175SOL    HW2  525   0.291   1.613   1.872 -1.4168  1.0676 -2.2183
  176SOL     OW  526   0.751   0.340   0.424 -0.2299  0.0611  0.4463
  176SOL    HW1  527   0.812   0.422   0.436  0.9288 -2.9787  1.4429
  176SOL    HW2  528   0.672   0.341   0.485 -0.6906  3.7167 -0.3476
  177SOL     OW  529   0.007   1.479   0.060 -0.1227 -0.2134 -0.2925
  177SOL    HW1  530   3.099   1.398   0.003  0.5781  4.2347 -0.9011
  177SOL    HW2  531   0.060   1.453   0.145 -1.4757  0.9082  0.2162
  178SOL     OW  532   0.140   2.031   2.253  0.4976  0.5948  0.3589
  178SOL    HW1  533   0.191   1.951   2.216 -0.0339  0.2181  0.1117
  178SOL    HW2  534   0.066   2.064   2.189 -0.1932 -0.1912  2.6738
  179SOL     OW  535   2.260   0.056   2.780  0.5264  0.0048 -0.7573
  179SOL    HW1  536   2.326   0.134   2.776  2.5975 -0.4526  0.1251
  179SOL    HW2  537   2.214   0.049   2.871 -0.0544 -2.6344 -0.9635
  180SOL     OW  538   2.309   0.055   1.085 -0.0524 -0.4549  0.0471
  180SOL    HW1  539   2.216   0.009   1.078 -2.6013  0.3270 -3.6414
  180SOL    HW2  540   2.310   0.154   1.062 -1.7974  1.5477  0.0921
  181SOL     OW  541   2.891   2.926   2.512 -0.4734 -0.4749  0.5079
  181SOL    HW1  542   2.825   2.976   2.453  1.8233 -1.3374 -0.1440
  181SOL    HW2  543   2.966   2.885   2.455  0.8248 -1.0919 -0.1111
  182SOL     OW  544   2.301   2.515   2.227  0.2130 -0.2598 -0.9311
  182SOL    HW1  545   2.321   2.481   2.321  0.8491 -0.8180 -0.9800
  182SOL    HW2  546   2.330   2.441   2.165  2.5520  1.0108  1.3087
  183SOL     OW  547   2.602   1.437   1.512 -0.0718 -0.6669 -0.3729
  183SOL    HW1  548   2.597   1.390   1.604 -1.9127 -1.3207  2.3034
  183SOL    HW2  549   2.506   1.449   1.482  1.1573  2.8798  0.2770
  184SOL     OW  550   2.879   1.404   0.919 -0.7057  0.5593  0.4390
  184SOL    HW1  551   2.909   1.503   0.928 -0.5899  2.0936 -0.9334
  184SOL    HW2  552   2.858   1.385   0.820 -0.0180  3.2695 -0.9447
  185SOL     OW  553   0.059   0.095   1.006  0.1624  0.4707 -0.3866
  185SOL    HW1  554   0.143   0.107   0.952 -1.8316 -1.6832  0.9400
  185SOL    HW2  555   3.091   0.063   0.949 -1.8370  0.4898 -1.6951
  186SOL     OW  556   2.077   2.620   2.134  0.1701  0.7569  0.8413
  186SOL    HW1  557   2.051   2.714   2.150 -2.4219  0.2650 -0.9637
  186SOL    HW2  558   2.163   2.593   2.183  1.3682  0.4489 -0.1391
  187SOL     OW  559   0.257   1.651   0.631  0.5238  0.0377  0.0968
  187SOL    HW1  560   0.230   1.627   0.534 -1.7618 -0.2334  2.2326
  187SOL    HW2  561   0.358   1.645   0.644 -1.9695 -0.2376 -1.2320
  188SOL     OW  562   1.743   1.869   0.446  0.2318  0.2271 -0.3875
  188SOL    HW1  563   1.728   1.769   0.470 -1.4152  1.8792  0.5930
  188SOL    HW2  564   1.651   1.921   0.446 -1.4209  0.1137  1.2501
  189SOL     OW  565   2.993   1.266   3.048 -0.4575 -0.0807 -0.6729
  189SOL    HW1  566   3.046   1.216   2.978  0.5866  2.2804  0.2826
  189SOL    HW2  567   2.918   1.319   3.003 -1.5744 -1.1248 -0.2076
  190SOL     OW  568   2.433   0.452   2.366  0.1932  0.1571  0.1837
  190SOL    HW1  569   2.406   0.524   2.300  1.4633 -1.9527 -0.8515
  190SOL    HW2  570   2.536   0.450   2.376  2.3438 -0.8423  0.4521
  191SOL     OW  571   0.938   1.042   2.144 -0.3182  0.3856 -0.3025
  191SOL    HW1  572   0.896   0.956   2.104  0.0275 -1.4422 -0.7895
  191SOL    HW2  573   0.884   1.120   2.103 -2.0470 -0.4551  1.1321
  192SOL     OW  574   1.651   1.397   2.163  0.6816  0.6866  0.1497
  192SOL    HW1  575   1.614   1.461   2.090  0.0413 -0.0748  1.3475
  192SOL    HW2  576   1.708   1.329   2.118  3.1469  1.9173  1.7885
  193SOL     OW  577   1.372   2.796   1.192  0.4164 -0.4200  0.3939
  193SOL    HW1  578   1.450   2.858   1.163  1.2131 -0.0786  1.4829
  193SOL    HW2  579   1.283   2.833   1.165  4.0033 -0.7158 -1.1768
  194SOL     OW  580   1.540   1.352   1.852  0.5528  0.4879  0.0706
  194SOL    HW1  581   1.626   1.326   1.798  2.0864  0.6791 -0.8492
  194SOL    HW2  582   1.479   1.273   1.862  2.0839  1.2916  1.0592
  195SOL     OW  583   1.811   0.235   0.772  0.8223  0.2365  0.2357
  195SOL    HW1  584   1.789   0.336   0.762 -0.6794  0.5461 -0.5239
  195SOL    HW2  585   1.895   0.226   0.820 -2.9869 -1.7668 -0.9102
  196SOL     OW  586   1.036   1.283   2.517 -0.9347 -0.0125  0.2981
  196SOL    HW1  587   0.935   1.273   2.523 -3.6653 -0.2661 -0.5707
  196SOL    HW2  588   1.088   1.199   2.487 -2.0901 -1.5346  0.6605
  197SOL     OW  589   0.335   0.185   2.377 -0.0120  0.5402  0.4655
  197SOL    HW1  590   0.255   0.244   2.352  0.5478 -1.9669  0.7434
  197SOL    HW2  591   0.308   0.106   2.441  0.2164  0.3013  1.0933
  198SOL     OW  592   3.049   1.242   1.038  0.7008  0.2747 -0.3877
  198SOL    HW1  593   2.974   1.302   1.005  1.0556  1.4049 -1.0777
  198SOL    HW2  594   0.004   1.230   0.974 -2.1703  0.3109  2.5774
  199SOL     OW  595   0.338   2.242   0.849 -0.0334  0.0353 -0.1904
  199SOL    HW1  596   0.388   2.290   0.770 -1.2896  1.3516 -0.8205
  199SOL    HW2  597   0.403   2.243   0.930  3.0199 -0.1301 -1.9475
  200SOL     OW  598   2.598   1.990   2.682  0.0669  0.4647  0.1077
  200SOL    HW1  599   2.680   2.004   2.740 -0.1254 -1.6283 -0.8039
  200SOL    HW2  600   2.564   1.893   2.699 -0.4785 -0.9549 -0.5280
  201SOL     OW  601   0.836   1.917   1.340 -0.3941 -0.1494 -0.2809
  201SOL    HW1  602   0.874   2.003   1.381 -0.8523  0.9425 -2.6629
  201SOL    HW2  603   0.910   1.871   1.282 -0.8643  1.4583  0.8636
  202SOL     OW  604   1.022   2.420   0.035 -0.3155 -0.0204 -0.1668
  202SOL    HW1  605   1.027   2.478   0.116  0.3667  1.8380  0.1849
  202SOL    HW2  606   1.106   2.448   3.099  3.5714 -0.5255  0.7995
  203SOL     OW  607   2.024   0.404   2.317 -0.5625 -0.7644 -0.3983
  203SOL    HW1  608   2.059   0.363   2.233  2.0992 -0.7153  5.6800
  203SOL    HW2  609   1.966   0.342   2.372 -1.0814  0.9654  0.6424
  204SOL     OW  610   0.285   1.300   1.708 -0.3729 -0.1831  0.1516
  204SOL    HW1  611   0.231   1.287   1.623 -1.2381 -0.6140 -0.9722
  204SOL    HW2  612   0.332   1.214   1.741 -0.6157  2.1718 -1.1317
  205SOL     OW  613   2.453   1.450   2.612  0.6822 -0.0715  0.1606
  205SOL    HW1  614   2.546   1.470   2.582 -2.2949  0.8155 -0.1381
  205SOL    HW2  615   2.387   1.519   2.573  0.9429  0.7900  1.2189
  206SOL     OW  616   0.168   2.035   2.522  0.4126 -0.0254 -0.2237
  206SOL    HW1  617   0.097   1.982   2.568  1.9431  0.3707 -1.2541
  206SOL    HW2  618   0.143   2.035   2.422  2.0775 -2.7538  1.1915
  207SOL     OW  619   0.875   3.019   1.745 -0.1294 -0.2111  0.2292
  207SOL    HW1  620   0.832   3.049   1.661  1.9867 -0.6785  3.5563
  207SOL    HW2  621   0.971   2.993   1.721  3.8862  0.0600 -0.7261
  208SOL     OW  622   0.491   2.479   1.512 -0.1814 -0.1053  0.1486
  208SOL    HW1  623   0.460   2.447   1.606  0.7160 -2.0248  3.7586
  208SOL    HW2  624   0.507   2.402   1.449  0.3675  0.2844 -0.4878
  209SOL     OW  625   1.015   2.572   2.370  0.7273 -0.0632 -0.4902
  209SOL    HW1  626   1.022   2.511   2.451 -0.4973  0.9761  0.1379
  209SOL    HW2  627   0.997   2.666   2.403  0.1750 -3.2087 -0.2501
  210SOL     OW  628   2.788   1.477   2.167 -0.0928  0.0545  0.2824
  210SOL    HW1  629   2.794   1.395   2.226 -0.4999  0.5996  1.6727
  210SOL    HW2  630   2.863   1.545   2.192 -1.5097  1.8053 -1.9561
  211SOL     OW  631   1.317   0.032   2.052 -0.0393 -0.2610  0.0971
  211SOL    HW1  632   1.411   0.062   2.074 -4.1029  1.1574 -1.2901
  211SOL    HW2  633   1.273   3.095   2.129 -0.5370  0.0906 -1.0269
  212SOL     OW  634   1.357   2.560   1.687  0.2280  0.1838 -0.4978
  212SOL    HW1  635   1.411   2.499   1.748  1.6701 -3.1521 -0.0476
  212SOL    HW2  636   1.418   2.634   1.649  2.7622 -0.3088 -0.0530
  213SOL     OW  637   2.419   0.835   1.747 -0.1167  0.3434 -0.1321
  213SOL    HW1  638   2.329   0.847   1.704 -1.3253 -0.0122 -1.0955
  213SOL    HW2  639   2.490   0.848   1.673  1.3336  1.1078  0.6723
  214SOL     OW  640   1.003   2.132   1.412  0.3953  0.2048 -0.2494
  214SOL    HW1  641   0.956   2.200   1.473 -0.6552  1.2668  1.9363
  214SOL    HW2  642   1.100   2.159   1.404  1.9061 -0.4146  1.1715
  215SOL     OW  643   2.531   2.105   0.723  0.2592 -0.1385  0.3624
  215SOL    HW1  644   2.545   2.193   0.771  1.6316 -3.1820  0.0884
  215SOL    HW2  645   2.577   2.033   0.773 -0.9468 -0.1823 -1.2578
  216SOL     OW  646   0.103   0.771   1.471  0.5973  0.3872 -0.5066
  216SOL    HW1  647   0.091   0.672   1.497  0.2617 -1.3778  1.2767
  216SOL    HW2  648   0.010   0.822   1.478 -3.3394  0.1189 -0.7491
  217SOL     OW  649   2.292   0.377   1.347 -0.0170  0.3607 -0.1216
  217SOL    HW1  650   2.372   0.326   1.310 -1.7739 -0.1510 -1.1774
  217SOL    HW2  651   2.205   0.321   1.328  0.7958 -2.6905  1.5172
  218SOL     OW  652   1.671   2.475   0.991 -0.1511 -0.5061 -0.1987
  218SOL    HW1  653   1.690   2.553   0.926 -3.7793  0.0459 -3.7967
  218SOL    HW2  654   1.591   2.510   1.042  1.4671  0.6819  0.1880
  219SOL     OW  655   1.340   2.300   0.078  0.3097  0.0347  0.3188
  219SOL    HW1  656   1.375   2.368   0.013 -1.3185 -2.0666 -2.1946
  219SOL    HW2  657   1.295   2.350   0.157 -0.0429  3.1921  1.1857
  220SOL     OW  658   1.651   2.365   2.841 -0.3020 -0.2490  0.2548
  220SOL    HW1  659   1.565   2.389   2.783  0.3861 -1.9418  0.8871
  220SOL    HW2  660   1.656   2.261   2.840  1.7276 -0.6021 -1.4288
  221SOL     OW  661   0.242   2.527   1.428 -0.9558 -0.6682 -0.0599
  221SOL    HW1  662   0.325   2.532   1.485  0.8548  2.4044  0.4460
  221SOL    HW2  663   0.158   2.518   1.482  1.2320 -0.0739 -0.7251
  222SOL     OW  664   2.153   2.659   0.605  0.1561  0.7635 -0.6768
  222SOL    HW1  665   2.074   2.708   0.638  2.7364  1.3036 -1.8069
  222SOL    HW2  666   2.207   2.725   0.553  0.6988  0.0280  1.5548
  223SOL     OW  667   0.734   2.296   1.802 -0.0882  0.1926 -0.1125
  223SOL    HW1  668   0.668   2.218   1.790  2.5938  1.6020  1.3251
  223SOL    HW2  669   0.702   2.363   1.867  0.7555  0.7512 -0.4398
  224SOL     OW  670   2.881   2.484   1.197 -0.7466 -0.8088 -0.0199
  224SOL    HW1  671   2.905   2.582   1.213  0.1420 -0.8655 -0.5169
  224SOL    HW2  672   2.898   2.430   1.287 -2.8122 -0.1593  1.8785
  225SOL     OW  673   2.328   2.192   0.524  0.0635  0.4544 -0.5115
  225SOL    HW1  674   2.414   2.174   0.574 -4.3012 -3.5944  1.7652
  225SOL    HW2  675   2.263   2.112   0.536 -0.9671 -0.7903 -0.1247
  226SOL     OW  676   1.440   2.577   0.404  0.4513 -0.7304 -0.0689
  226SOL    HW1  677   1.349   2.554   0.361  0.0295 -0.1571 -0.9903
  226SOL    HW2  678   1.445   2.545   0.502 -0.3618 -1.8061  1.6211
  227SOL     OW  679   2.083   1.068   0.975  0.2201 -0.5796  0.2193
  227SOL    HW1  680   1.992   1.117   0.958 -4.9354  1.4138 -0.4983
  227SOL    HW2  681   2.153   1.143   0.980 -0.7432  1.0855 -1.8839
  228SOL     OW  682   1.337   0.482   2.479  0.3306  0.2163  0.1355
  228SOL    HW1  683   1.328   0.478   2.584  0.1231  1.4092  0.7039
  228SOL    HW2  684   1.404   0.544   2.442 -1.9074  0.3874  1.8381
  229SOL     OW  685   0.035   1.161   2.870 -0.1075  0.1383 -0.2818
  229SOL    HW1  686   0.043   1.063   2.840 -2.4103 -0.8033  0.7713
  229SOL    HW2  687   0.041   1.226   2.788 -0.0110  0.8841 -0.5323
  230SOL     OW  688   0.498   1.443   1.214 -0.8977 -0.1330 -0.2400
  230SOL    HW1  689   0.443   1.398   1.141 -1.0015 -0.2978  1.5325
  230SOL    HW2  690   0.527   1.373   1.285 -1.6295  0.4286  1.3407
  231SOL     OW  691   2.429   3.008   2.636  0.3368  0.2358  0.8409
  231SOL    HW1  692   2.365   3.063   2.691  0.2058  0.0578 -1.4198
  231SOL    HW2  693   2.427   3.044   2.543  0.5662 -2.0804  0.9127
  232SOL     OW  694   0.301   2.231   0.225  0.3626  0.4044  0.0047
  232SOL    HW1  695   0.361   2.294   0.175  1.5998  1.1331  0.1537
  232SOL    HW2  696   0.309   2.135   0.179  0.1525  0.2013 -0.2490
  233SOL     OW  697   1.238   2.283   2.213  0.1594  0.0194  0.5348
  233SOL    HW1  698   1.192   2.361   2.161 -3.4202  0.3250  1.7523
  233SOL    HW2  699   1.220   2.284   2.317  0.3359  1.0271  2.0445
  234SOL     OW  700   1.345   1.410   1.591  0.0185 -0.0920 -0.1195
  234SOL    HW1  701   1.434   1.456   1.569 -3.2209  0.4741 -0.6891
  234SOL    HW2  702   1.286   1.473   1.650  1.9687  1.1961 -1.1614
  235SOL     OW  703   1.035   1.868   1.872  0.0365 -0.5688 -0.3589
  235SOL    HW1  704   1.127   1.909   1.857 -0.7862  0.3152  0.4543
  235SOL    HW2  705   1.041   1.801   1.944  4.0066  0.7356  0.1217
  236SOL     OW  706   1.541   3.092   2.914  0.2838 -0.2379 -0.0649
  236SOL    HW1  707   1.634   0.013   2.885 -1.0333  1.2115 -1.0473
  236SOL    HW2  708   1.524   2.999   2.883  0.8052  1.5945 -0.2669
  237SOL     OW  709   1.391   0.373   1.619 -0.4399  0.4252 -0.3196
  237SOL    HW1  710   1.448   0.355   1.703  2.3520 -1.6611  0.8752
  237SOL    HW2  711   1.407   0.289   1.559  1.3719 -3.5155 -1.0120
  238SOL     OW  712   1.277   0.455   3.102  0.1493 -0.1150 -0.0232
  238SOL    HW1  713   1.292   0.546   3.048  1.0975  0.9733 -0.7148
  238SOL    HW2  714   1.221   0.475   0.069 -1.9605 -0.8302  1.1431
  239SOL     OW  715   2.923   0.882   2.715 -0.0503  0.1839  0.1604
  239SOL    HW1  716   2.887   0.975   2.717 -2.7950 -1.3007  1.4803
  239SOL    HW2  717   3.017   0.891   2.752 -1.0077 -0.3736  2.3301
  240SOL     OW  718   2.534   2.525   0.678 -0.2834 -0.4515 -0.3540
  240SOL    HW1  719   2.527   2.451   0.743 -1.0668  1.5330 -0.5998
  240SOL    HW2  720   2.473   2.500   0.600  1.7252 -2.4386  1.6560
  241SOL     OW  721   1.079   1.443   1.205 -0.4652  0.3127  0.0788
  241SOL    HW1  722   1.097   1.428   1.304 -1.9057  1.6241 -0.1573
  241SOL    HW2  723   0.995   1.402   1.173  0.4169 -0.7742  1.7106
  242SOL     OW  724   0.609   0.630   0.773 -0.0237  0.1035 -0.4547
  242SOL    HW1  725   0.705   0.656   0.809  1.5886  2.9024  0.7600
  242SOL    HW2  726   0.537   0.672   0.826 -2.3150 -2.7982 -0.0896
  243SOL     OW  727   0.289   0.460   1.037 -0.1612 -0.2841  0.4715
  243SOL    HW1  728   0.280   0.556   1.021 -0.6652  0.2975  2.7921
  243SOL    HW2  729   0.380   0.426   0.998  3.1374  0.7351 -0.9562
  244SOL     OW  730   0.943   0.125   0.368  0.3122  0.3673 -0.2380
  244SOL    HW1  731   0.870   0.187   0.402 -0.4602  2.3100 -3.1777
  244SOL    HW2  732   1.010   0.179   0.318  1.1536 -2.0118  2.6504
  245SOL     OW  733   2.013   0.855   0.296  0.0273  0.1686 -0.3717
  245SOL    HW1  734   1.975   0.840   0.200 -0.3911  1.6682  2.1050
  245SOL    HW2  735   2.081   0.926   0.304 -1.9478 -1.3885  1.9320
  246SOL     OW  736   0.425   0.643   1.881  0.2101  0.1807 -0.0122
  246SOL    HW1  737   0.343   0.682   1.836 -1.1292 -2.1663 -1.7099
  246SOL    HW2  738   0.413   0.636   1.984  2.7003 -1.0413 -1.0175
  247SOL     OW  739   0.678   0.016   2.056  0.4173  0.3860  0.7066
  247SOL    HW1  740   0.648   3.058   1.993 -0.1396 -0.3420  0.7075
  247SOL    HW2  741   0.770   3.101   2.088  1.7172  1.0691 -0.2334
  248SOL     OW  742   0.648   1.574   2.356  0.0015 -0.9231  0.1381
  248SOL    HW1  743   0.678   1.650   2.418  0.6671  2.5561  0.2326
  248SOL    HW2  744   0.708   1.490   2.355 -1.9372 -1.3496  0.0967
  249SOL     OW  745   0.492   2.979   0.019  0.2455 -0.0589  0.2163
  249SOL    HW1  746   0.442   3.007   3.046  0.9570  1.6936  0.1553
  249SOL    HW2  747   0.499   2.876   0.024 -2.9146 -3.6053  0.6594
  250SOL     OW  748   0.461   0.462   2.385  0.2863 -0.1783  0.2197
  250SOL    HW1  749   0.538   0.489   2.443 -2.3543 -0.1559 -0.3630
  250SOL    HW2  750   0.427   0.366   2.390  2.6603 -0.7428 -1.5747
  251SOL     OW  751   3.044   1.517   1.193 -0.3017 -0.0563 -0.6115
  251SOL    HW1  752   2.967   1.570   1.151 -0.8728  1.1775  2.0209
  251SOL    HW2  753   3.044   1.523   1.293 -0.7416 -0.5065 -3.0661
  252SOL     OW  754   1.870   3.096   1.953 -0.6851  0.1960 -0.2729
  252SOL    HW1  755   1.812   3.116   2.033  2.0021 -3.3179 -0.1445
  252SOL    HW2  756   1.870   2.997   1.935  0.2710  1.1193 -0.6281
  253SOL     OW  757   2.256   1.615   2.470 -0.5175  0.1250 -0.0767
  253SOL    HW1  758   2.177   1.553   2.494 -1.0541  0.4380  1.8288
  253SOL    HW2  759   2.248   1.705   2.521  1.1987 -0.7491 -3.7132
  254SOL     OW  760   0.740   1.541   1.847 -0.5704 -0.9208  0.1851
  254SOL    HW1  761   0.705   1.638   1.830 -1.9117  2.8333 -1.4412
  254SOL    HW2  762   0.680   1.469   1.803  0.9456 -2.0391  0.6768
  255SOL     OW  763   0.794   0.250   1.690 -0.0978  0.2696  0.4500
  255SOL    HW1  764   0.876   0.233   1.631  3.9803 -1.2164 -0.3193
  255SOL    HW2  765   0.802   0.187   1.771  0.1241  2.5835 -1.9733
  256SOL     OW  766   0.243   2.609   0.725 -0.2083  0.0120 -0.7558
  256SOL    HW1  767   0.209   2.511   0.725  0.4686 -4.3094 -2.3361
  256SOL    HW2  768   0.249   2.659   0.821 -0.8465  0.8423  2.8428
  257SOL     OW  769   0.391   2.542   2.253  0.6409 -0.3073 -0.4622
  257SOL    HW1  770   0.339   2.462   2.286  1.3634  1.5653  1.6688
  257SOL    HW2  771   0.463   2.570   2.318 -0.1141 -1.9167 -0.3642
  258SOL     OW  772   1.509   1.563   2.003  0.0067 -0.1212  0.0969
  258SOL    HW1  773   1.504   1.482   1.946 -1.9422 -3.5427 -1.0194
  258SOL    HW2  774   1.425   1.620   1.999 -2.0864  0.2054 -1.7853
  259SOL     OW  775   1.133   1.394   1.957 -0.0570 -0.4912 -0.0834
  259SOL    HW1  776   1.101   1.434   2.046  0.4611 -1.0467  0.0648
  259SOL    HW2  777   1.137   1.461   1.879 -0.0705 -0.2175 -1.3283
  260SOL     OW  778   2.335   0.636   2.159  0.2747 -0.1744 -0.0378
  260SOL    HW1  779   2.230   0.624   2.149 -1.5470  0.5598  1.6673
  260SOL    HW2  780   2.370   0.694   2.084 -1.6112 -0.4126  2.1697
  261SOL     OW  781   0.815   1.310   0.805 -0.1931  0.5778 -0.2554
  261SOL    HW1  782   0.712   1.309   0.785 -0.5821  0.3580  1.8240
  261SOL    HW2  783   0.867   1.241   0.752 -0.1869  0.2316  3.6925
  262SOL     OW  784   2.333   2.114   2.640 -0.2115 -0.4498 -0.0865
  262SOL    HW1  785   2.430   2.071   2.656  1.4532 -2.9388 -2.2594
  262SOL    HW2  786   2.281   2.151   2.722  2.2479  3.1155 -1.1368
  263SOL     OW  787   0.858   2.288   1.232 -0.3702  0.5313 -0.6011
  263SOL    HW1  788   0.926   2.250   1.296 -0.7841 -0.4513  1.1284
  263SOL    HW2  789   0.833   2.219   1.160  0.0383  2.3273  2.9571
  264SOL     OW  790   0.012   2.286   0.300  0.3414 -0.1571  0.3818
  264SOL    HW1  791   0.020   2.247   0.396  1.1851  1.6401  0.4869
  264SOL    HW2  792   0.092   2.267   0.244 -3.2227  0.9896 -0.9816
  265SOL     OW  793   1.347   1.263   2.949  0.6232  0.4876  0.5825
  265SOL    HW1  794   1.393   1.175   2.929  0.0759  1.9886 -1.1440
  265SOL    HW2  795   1.257   1.269   2.898  2.6068 -0.6732  1.0041
  266SOL     OW  796   1.010   1.816   2.169  0.7362 -0.6075  0.0659
  266SOL    HW1  797   0.987   1.916   2.183  1.2224 -2.1741  0.9125
  266SOL    HW2  798   0.923   1.772   2.142  0.5465  0.7775  0.2461
  267SOL     OW  799   2.498   1.092   2.678 -0.0372  0.5065 -1.0424
  267SOL    HW1  800   2.540   1.088   2.772 -0.7115  0.7919  2.6965
  267SOL    HW2  801   2.415   1.150   2.679  0.8787  2.6443 -0.6581
  268SOL     OW  802   0.963   1.355   0.233  0.2441  0.1315 -0.3809
  268SOL    HW1  803   1.001   1.297   0.158  0.5740 -3.1763 -3.1678
  268SOL    HW2  804   0.997   1.329   0.322  0.0054  2.2256 -2.0377
  269SOL     OW  805   2.846   1.863   2.361 -0.0554  0.2493 -0.0478
  269SOL    HW1  806   2.770   1.929   2.346 -0.8439  2.3669 -0.8736
  269SOL    HW2  807   2.875   1.864   2.458 -2.3459  0.8875  3.0979
  270SOL     OW  808   0.587   2.434   2.964  0.4498  0.4713  0.1608
  270SOL    HW1  809   0.663   2.484   3.009  0.4654  1.4678 -0.4761
  270SOL    HW2  810   0.539   2.490   2.899  1.9359 -2.3723  2.6848
  271SOL     OW  811   0.161   0.485   0.157  0.6168 -0.4116 -0.2266
  271SOL    HW1  812   0.194   0.410   0.218 -2.0539 -1.4182 -0.8327
  271SOL    HW2  813   0.117   0.559   0.211  0.2335 -2.2562  2.6535
  272SOL     OW  814   2.917   0.151   0.277 -0.7499 -0.5767 -0.3523
  272SOL    HW1  815   3.014   0.176   0.257 -0.5457  0.5833  0.6851
  272SOL    HW2  816   2.881   0.222   0.342 -0.5719 -2.2497  1.0682
  273SOL     OW  817   0.290   2.956   1.767  0.2700 -0.5094  0.0679
  273SOL    HW1  818   0.342   2.911   1.842  3.2709 -0.5974  1.3663
  273SOL    HW2  819   0.260   3.038   1.816  1.2363 -1.9852  2.3377
  274SOL     OW  820   0.056   0.515   1.482  0.2809  0.4391  0.4147
  274SOL    HW1  821   0.004   0.461   1.550  0.9884 -0.3805 -1.0629
  274SOL    HW2  822   0.151   0.478   1.475  1.2484 -0.6088 -1.5207
  275SOL     OW  823   0.667   1.499   1.009 -0.7832  0.0914 -0.3687
  275SOL    HW1  824   0.719   1.417   0.978 -0.8227  1.1192  0.5271
  275SOL    HW2  825   0.608   1.484   1.093  0.4918 -1.0793 -0.4700
  276SOL     OW  826   0.422   1.084   1.789 -0.1729 -0.2059  0.5424
  276SOL    HW1  827   0.455   1.094   1.887  0.3157  1.3006 -0.9201
  276SOL    HW2  828   0.477   1.023   1.726  1.7727  1.3559 -0.4480
  277SOL     OW  829   1.267   1.974   1.882 -0.0007  0.5574 -0.1887
  277SOL    HW1  830   1.297   2.002   1.979  0.2244  2.6420  2.5890
  277SOL    HW2  831   1.254   2.058   1.826  0.9103 -1.4600  0.1140
  278SOL     OW  832   2.414   2.753   2.138  0.3224  0.2924 -0.0828
  278SOL    HW1  833   2.352   2.828   2.168  1.8696 -1.2625 -0.5966
  278SOL    HW2  834   2.369   2.665   2.171 -3.0800 -2.0961 -0.8666
  279SOL     OW  835   1.134   1.930   3.115  0.5411 -0.0623  0.2149
  279SOL    HW1  836   1.234   1.940   0.020 -1.4792  2.0715  0.9007
  279SOL    HW2  837   1.085   2.019   3.109 -0.5453 -3.1350 -0.7252
  280SOL     OW  838   1.250   0.409   0.374 -0.1244 -0.5221  0.3824
  280SOL    HW1  839   1.306   0.367   0.449 -0.8973 -3.4981  1.1766
  280SOL    HW2  840   1.290   0.501   0.342  1.4157 -0.1940 -0.7235
  281SOL     OW  841   0.596   0.475   1.268 -0.4548 -0.3006 -0.1281
  281SOL    HW1  842   0.551   0.564   1.290  0.3662 -0.2655  1.9588
  281SOL    HW2  843   0.592   0.414   1.349 -1.7785  1.8718 -1.5958
  282SOL     OW  844   0.090   2.788   0.560  0.6658  0.5392  0.4631
  282SOL    HW1  845   0.149   2.741   0.626 -2.3099  1.1452  0.8654
  282SOL    HW2  846   0.137   2.799   0.470 -1.3643  0.3892 -4.0622
  283SOL     OW  847   1.341   1.736   1.830  0.3662  0.0082 -0.3099
  283SOL    HW1  848   1.407   1.754   1.753 -1.1080 -1.0972  0.9409
  283SOL    HW2  849   1.310   1.828   1.866 -1.0425 -1.0354 -0.5407
  284SOL     OW  850   2.819   2.807   1.501  0.1356  0.1113  0.5685
  284SOL    HW1  851   2.864   2.891   1.536  0.6457 -2.8620  1.7539
  284SOL    HW2  852   2.878   2.766   1.432 -0.7120  2.6437 -1.4562
  285SOL     OW  853   0.296   2.404   0.425  0.3538  0.7061 -0.1356
  285SOL    HW1  854   0.308   2.327   0.360  0.7815  0.1087 -0.4042
  285SOL    HW2  855   0.338   2.381   0.514 -1.8902 -1.9739 -1.0254
  286SOL     OW  856   0.498   2.800   1.105 -0.4706 -0.1066 -0.8206
  286SOL    HW1  857   0.553   2.887   1.097 -0.2850 -0.5379 -0.2952
  286SOL    HW2  858   0.417   2.817   1.167 -2.0034 -1.6641 -0.9169
  287SOL     OW  859   0.537   1.358   0.764  0.2742 -0.2994 -0.3989
  287SOL    HW1  860   0.470   1.346   0.839  0.4973 -1.6891 -1.3422
  287SOL    HW2  861   0.519   1.449   0.715  1.2135  0.5494  0.5967
  288SOL     OW  862   1.449   2.085   2.507  0.1561  0.3140  0.2784
  288SOL    HW1  863   1.442   2.040   2.596  2.9587 -1.3328 -1.6987
  288SOL    HW2  864   1.435   2.011   2.437  1.1668 -1.4624 -2.3833
  289SOL     OW  865   2.362   1.631   0.054  0.4662 -0.1627  0.3855
  289SOL    HW1  866   2.300   1.665   0.123 -2.4634  0.4808 -2.1313
  289SOL    HW2  867   2.310   1.576   3.097 -3.0329  0.2784 -1.8790
  290SOL     OW  868   1.287   1.426   1.017 -0.1081  0.0891 -0.6706
  290SOL    HW1  869   1.378   1.432   1.052 -3.4647  0.4552 -2.0721
  290SOL    HW2  870   1.219   1.434   1.094  0.3451 -0.8577 -0.2156
  291SOL     OW  871   1.503   1.006   2.952 -0.1730  0.0497  0.0078
  291SOL    HW1  872   1.428   0.952   2.992  3.2670  0.8724  0.5160
  291SOL    HW2  873   1.526   0.977   2.857 -1.1389  0.5673  2.7094
  292SOL     OW  874   1.514   1.623   0.321  0.8158  0.3730 -0.8453
  292SOL    HW1  875   1.515   1.716   0.365 -2.9934 -2.6718  0.0831
  292SOL    HW2  876   1.532   1.625   0.220  1.4481  2.0247  0.0894
  293SOL     OW  877   1.603   3.109   1.372 -0.0056 -0.4031  0.2270
  293SOL    HW1  878   1.643   3.043   1.436 -0.5492 -0.0666 -2.6341
  293SOL    HW2  879   1.532   0.054   1.417 -1.0217 -0.7085 -2.1791
  294SOL     OW  880   2.068   1.045   2.717  0.3398 -0.0392  0.5477
  294SOL    HW1  881   2.000   1.064   2.792 -1.8496 -0.0302 -0.3173
  294SOL    HW2  882   2.138   1.119   2.698  0.9841  0.9032 -2.4964
  295SOL     OW  883   1.779   1.809   2.944 -0.1376 -0.5498 -0.3856
  295SOL    HW1  884   1.725   1.784   3.030  0.3189  3.2252  0.0668
  295SOL    HW2  885   1.729   1.772   2.862  0.7259  1.5145 -0.0818
  296SOL     OW  886   1.452   1.285   1.268 -0.0762 -0.7433  0.1789
  296SOL    HW1  887   1.391   1.260   1.346 -0.4884  0.1080  0.2272
  296SOL    HW2  888   1.527   1.219   1.250  0.7456 -1.9445 -0.1608
  297SOL     OW  889   0.224   0.782   2.234 -0.1950 -0.2231  0.5408
  297SOL    HW1  890   0.292   0.706   2.222 -1.7574  1.4416 -0.6577
  297SOL    HW2  891   0.184   0.776   2.331 -1.2498  1.6455 -0.8226
  298SOL     OW  892   1.674   1.847   1.384 -0.8723  0.1759  0.2867
  298SOL    HW1  893   1.617   1.828   1.467  0.3222  3.3347 -0.6680
  298SOL    HW2  894   1.656   1.941   1.351  1.4553 -4.2649  2.7390
  299SOL     OW  895   1.150   3.065   2.675 -0.4823 -0.2832  0.0383
  299SOL    HW1  896   1.224   3.000   2.658 -1.2285  0.4295  0.3946
  299SOL    HW2  897   1.070   3.025   2.733 -3.0983 -0.2004  1.5120
  300SOL     OW  898   2.674   2.095   0.430  0.1364 -0.1995  0.6503
  300SOL    HW1  899   2.744   2.086   0.501 -1.2407  1.0362  1.2293
  300SOL    HW2  900   2.642   2.191   0.417  2.6892  0.9245 -1.3074
  301SOL     OW  901   2.238   0.370   2.538 -0.2811 -0.0122  0.5805
  301SOL    HW1  902   2.314   0.401   2.480 -1.2536 -0.7242  2.3089
  301SOL    HW2  903   2.272   0.319   2.620 -0.1878 -0.6240 -1.3436
  302SOL     OW  904   2.335   2.264   3.084 -0.5377 -0.0790 -0.2094
  302SOL    HW1  905   2.371   2.183   0.020 -0.8101  0.8713 -1.6090
  302SOL    HW2  906   2.406   2.337   3.072  0.1072  2.7249 -0.4378
  303SOL     OW  907   0.011   2.549   2.584 -0.4065 -0.4324  0.1845
  303SOL    HW1  908   0.071   2.610   2.641 -0.3102  3.9530 -1.3165
  303SOL    HW2  909   0.011   2.453   2.629  0.6479 -3.8405 -2.4629
  304SOL     OW  910   0.173   1.526   1.065 -0.2882  0.4693  0.2098
  304SOL    HW1  911   0.084   1.536   1.115  2.1579 -0.2275 -1.6440
  304SOL    HW2  912   0.245   1.594   1.093  0.7344  0.3343  2.9928
  305SOL     OW  913   0.131   0.461   1.863 -0.2370 -0.0029 -0.1551
  305SOL    HW1  914   0.193   0.399   1.920  0.4534 -3.1727  0.1842
  305SOL    HW2  915   0.058   0.405   1.822 -2.8723 -0.2849  0.4338
  306SOL     OW  916   1.254   1.319   0.568 -0.6022  0.5781  0.7090
  306SOL    HW1  917   1.235   1.381   0.645  1.9932 -2.5951 -2.1870
  306SOL    HW2  918   1.289   1.370   0.487  2.3409 -1.2959  1.3472
  307SOL     OW  919   0.234   0.077   0.478 -0.0935 -0.6429 -0.1152
  307SOL    HW1  920   0.314   0.049   0.425 -0.6772 -0.4261  1.5151
  307SOL    HW2  921   0.183   3.111   0.491  1.7909  1.5037 -0.8465
  308SOL     OW  922   3.014   1.043   2.394 -0.2060 -0.2261 -0.0137
  308SOL    HW1  923   3.014   1.013   2.492  3.0302  0.9083  1.3799
  308SOL    HW2  924   2.989   0.969   2.333 -1.0856  0.4602  0.6753
  309SOL     OW  925   3.001   1.885   2.611 -0.0132  0.5591 -0.9779
  309SOL    HW1  926   3.075   1.818   2.633  1.5210 -0.4077  0.4418
  309SOL    HW2  927   2.944   1.902   2.691  1.1372  0.2173 -1.5004
  310SOL     OW  928   2.279   0.636   0.126 -0.1742 -0.0306 -0.3518
  310SOL    HW1  929   2.362   0.683   0.164  2.7650  0.7467  2.4731
  310SOL    HW2  930   2.239   0.680   0.044  0.9867  0.9093 -0.3685
  311SOL     OW  931   1.997   0.806   0.018  0.2289 -0.2856  0.1657
  311SOL    HW1  932   2.029   0.901   0.001 -0.8567 -0.8327 -1.3402
  311SOL    HW2  933   2.060   0.749   3.076  0.4904 -0.4050 -0.3016
  312SOL     OW  934   1.420   1.937   2.726  0.1116 -0.0585  0.5537
  312SOL    HW1  935   1.465   1.843   2.726 -0.7078 -1.0474 -0.0312
  312SOL    HW2  936   1.334   1.931   2.778  1.6472  0.9761  0.2103
  313SOL     OW  937   0.298   0.555   0.517  0.5161  0.5482  0.2246
  313SOL    HW1  938   0.318   0.472   0.460 -1.9105  2.4583 -1.9722
  313SOL    HW2  939   0.221   0.543   0.587 -0.2965  2.3016 -1.5356
  314SOL     OW  940   0.685   1.764   1.176  0.5379  0.3083 -0.5944
  314SOL    HW1  941   0.631   1.681   1.168  0.3745  2.5252 -3.5921
  314SOL    HW2  942   0.702   1.788   1.274 -0.9720  0.4314 -1.1521
  315SOL     OW  943   0.804   1.675   2.117  0.2672  0.2391 -0.3536
  315SOL    HW1  944   0.777   1.621   2.034 -0.8011 -2.7515 -0.2000
  315SOL    HW2  945   0.728   1.664   2.185 -0.7485 -0.6130 -0.7582
  316SOL     OW  946   0.498   2.643   0.629  0.0298  0.0584 -0.5636
  316SOL    HW1  947   0.408   2.625   0.671  0.0579 -2.2858 -0.4496
  316SOL    HW2  948   0.507   2.748   0.614  1.5292  2.5460 -1.4096
  317SOL     OW  949   2.557   0.229   1.286  0.2091  0.2019 -0.5032
  317SOL    HW1  950   2.600   0.220   1.197  0.1346  0.3980  0.7552
  317SOL    HW2  951   2.616   0.285   1.348  0.8500 -0.8936 -0.7009
  318SOL     OW  952   1.579   3.086   0.506 -0.2919 -0.2855 -0.1733
  318SOL    HW1  953   1.585   3.076   0.605  0.9170  1.7273 -1.4291
  318SOL    HW2  954   1.672   0.005   0.483  1.1412 -3.0108 -0.9932
  319SOL     OW  955   1.603   0.629   2.728 -0.4077 -0.7322 -0.3670
  319SOL    HW1  956   1.553   0.589   2.653 -0.3287  0.7913  0.6016
  319SOL    HW2  957   1.707   0.634   2.719  1.4088 -3.2228  1.1230
  320SOL     OW  958   2.958   1.917   1.748  0.1076 -0.2941  0.0615
  320SOL    HW1  959   2.904   1.966   1.827 -0.8322  0.1633  1.3263
  320SOL    HW2  960   2.909   1.832   1.733  2.3101  0.7041  1.0173
  321SOL     OW  961   0.131   2.486   2.921  0.1319  0.5195  0.2364
  321SOL    HW1  962   0.165   2.521   3.011 -0.5869 -1.8765  1.4844
  321SOL    HW2  963   0.031   2.454   2.927 -0.3862  2.3273 -2.0432
  322SOL     OW  964   2.652   0.724   2.518 -0.1692  0.3796 -0.0940
  322SOL    HW1  965   2.682   0.774   2.435 -1.7572  0.3470 -1.0686
  322SOL    HW2  966   2.668   0.623   2.503 -1.4132  2.2439  0.0097
  323SOL     OW  967   2.223   1.303   0.593  0.3623 -0.4324  0.8668
  323SOL    HW1  968   2.287   1.279   0.667  2.0486 -1.2855 -2.7604
  323SOL    HW2  969   2.170   1.229   0.550 -0.5046  2.5207 -1.4794
  324SOL     OW  970   0.264   0.300   1.266 -0.3563 -0.6043 -1.2167
  324SOL    HW1  971   0.278   0.354   1.185  0.2827 -4.4887  5.3919
  324SOL    HW2  972   0.273   0.360   1.349 -0.8099  1.6380 -0.2444
  325SOL     OW  973   2.722   0.147   1.724  0.5093  0.4190  0.1572
  325SOL    HW1  974   2.757   0.188   1.807 -1.6385 -1.2910 -0.4305
  325SOL    HW2  975   2.621   0.151   1.728  3.0715 -0.5788  0.9357
  326SOL     OW  976   1.524   2.838   0.077 -0.6468 -0.0229  0.0185
  326SOL    HW1  977   1.569   2.776   0.147 -1.4592 -2.4548 -1.5987
  326SOL    HW2  978   1.594   2.851   0.004 -3.0707  0.0243 -2.7509
  327SOL     OW  979   1.775   2.080   0.243  0.6948  0.5416  0.3067
  327SOL    HW1  980   1.732   2.167   0.284  0.1748  2.0308 -0.6901
  327SOL    HW2  981   1.782   2.002   0.309 -0.7529  1.1973 -0.0027
  328SOL     OW  982   3.051   2.086   2.035 -0.2484 -0.2717  0.0297
  328SOL    HW1  983   2.952   2.069   2.023 -0.7272  1.1144  1.0145
  328SOL    HW2  984   3.114   2.022   1.994 -0.9501  1.0086  2.2899
  329SOL     OW  985   0.000   2.347   1.151 -0.1577 -0.1750  0.2488
  329SOL    HW1  986   3.038   2.406   1.132 -0.5526 -3.1432 -0.5254
  329SOL    HW2  987   3.096   2.254   1.191  1.2674 -0.7663 -0.7528
  330SOL     OW  988   2.417   0.852   2.568 -0.1837 -0.6255  0.4189
  330SOL    HW1  989   2.504   0.796   2.546  0.4062 -1.2468 -1.8453
  330SOL    HW2  990   2.437   0.945   2.613 -0.4983  1.7420  0.4548
  331SOL     OW  991   2.294   1.648   0.874 -0.4255  0.3604 -0.3205
  331SOL    HW1  992   2.299   1.746   0.909 -0.2701 -0.0165 -1.0761
  331SOL    HW2  993   2.339   1.638   0.787  2.1985  1.6954  2.9322
  332SOL     OW  994   0.268   2.989   0.850 -0.5213  0.1676 -0.4264
  332SOL    HW1  995   0.279   3.093   0.875  0.9925  0.5128 -0.3117
  332SOL    HW2  996   0.305   2.940   0.931  0.9440 -0.2328  1.5347
  333SOL     OW  997   2.983   1.653   2.239 -0.3666 -0.3291 -0.0357
  333SOL    HW1  998   3.043   1.594   2.302  0.5686 -0.6239  1.4404
  333SOL    HW2  999   2.936   1.727   2.286  1.1376 -3.7094 -0.0945
  334SOL     OW 1000   0.750   0.916   0.953 -0.0580 -0.3223  0.9285
  334SOL    HW1 1001   0.738   0.882   1.051  1.8156 -1.1162  2.7607
  334SOL    HW2 1002   0.757   1.014   0.957  0.4310 -4.4501 -1.3936
  335SOL     OW 1003   0.036   1.502   2.385 -0.2637 -0.3650 -0.4029
  335SOL    HW1 1004   0.112   1.516   2.454 -0.6710  3.4499  2.6398
  335SOL    HW2 1005   0.040   1.408   2.351 -0.7369 -3.1928  1.7505
  336SOL     OW 1006   2.251   2.957   2.182 -0.4337  0.4597  0.1966
  336SOL    HW1 1007   2.154   2.954   2.213 -0.8326  0.0665 -0.0419
  336SOL    HW2 1008   2.261   2.983   2.084  0.0354 -0.8432 -1.8283
  337SOL     OW 1009   0.863   0.679   0.931 -0.6776  0.3657  0.4226
  337SOL    HW1 1010   0.834   0.776   0.925 -0.1272  2.7229 -2.5420
  337SOL    HW2 1011   0.856   0.639   1.027  1.2446  2.0585  0.3362
  338SOL     OW 1012   1.537   1.890   1.094 -0.1771  0.0815  0.0431
  338SOL    HW1 1013   1.485   1.846   1.164  4.3135  1.6800 -0.8317
  338SOL    HW2 1014   1.490   1.974   1.062  1.2275  1.8878 -1.5681
  339SOL     OW 1015   0.341   1.714   1.151  0.3692  0.2227  0.3605
  339SOL    HW1 1016   0.342   1.670   1.243  1.6872  1.1120  0.8772
  339SOL    HW2 1017   0.301   1.806   1.156  1.7533  1.1840 -0.8595
  340SOL     OW 1018   0.985   2.775   2.045  0.1980  0.2299  0.0732
  340SOL    HW1 1019   1.083   2.761   2.029 -1.8587 -0.5022 -0.5757
  340SOL    HW2 1020   0.925   2.711   1.994 -1.0398 -2.1300  2.1459
  341SOL     OW 1021   1.907   1.483   0.815 -0.7709 -0.7357 -0.6192
  341SOL    HW1 1022   1.806   1.504   0.797 -1.8222 -0.9977  0.1691
  341SOL    HW2 1023   1.969   1.500   0.733 -2.0364 -0.6557  0.7736
  342SOL     OW 1024   2.168   1.093   0.263 -0.2904  0.4772  0.1586
  342SOL    HW1 1025   2.260   1.129   0.247  0.6368 -0.8816  1.4484
  342SOL    HW2 1026   2.093   1.142   0.211 -0.5567  0.8754 -0.4522
  343SOL     OW 1027   1.995   0.177   0.974  0.3218 -0.1304 -0.7464
  343SOL    HW1 1028   2.003   0.253   1.040  0.7664  1.4425 -2.9077
  343SOL    HW2 1029   2.026   0.089   1.024 -0.0307 -2.7953  0.0198
  344SOL     OW 1030   2.660   0.521   0.241 -0.1216  0.3655  0.1196
  344SOL    HW1 1031   2.748   0.537   0.198  1.3107 -0.9017 -0.3773
  344SOL    HW2 1032   2.596   0.481   0.175  1.3689  2.3134  1.4230
  345SOL     OW 1033   1.006   2.319   1.811  0.3990 -0.2608 -0.4191
  345SOL    HW1 1034   1.030   2.380   1.734 -0.3634  1.8308 -0.0096
  345SOL    HW2 1035   0.910   2.287   1.801  3.5033  2.1127 -1.4120
  346SOL     OW 1036   2.504   2.327   0.888  0.1548  0.1156 -0.0782
  346SOL    HW1 1037   2.400   2.328   0.892 -1.2735 -1.7175 -1.5131
  346SOL    HW2 1038   2.547   2.383   0.961 -1.0380 -1.4258 -1.0262
  347SOL     OW 1039   2.157   3.072   1.459  0.5828 -0.3711 -0.1977
  347SOL    HW1 1040   2.237   0.017   1.451 -0.8995 -0.9894  0.8141
  347SOL    HW2 1041   2.066   0.008   1.442 -1.3157  0.5965 -3.8159
  348SOL     OW 1042   0.915   0.991   1.449 -0.5487 -0.4023  0.0569
  348SOL    HW1 1043   0.931   1.057   1.524  0.4767 -3.5202 -0.5336
  348SOL    HW2 1044   0.847   1.018   1.378 -0.0767 -0.6704  0.0872
  349SOL     OW 1045   2.397   0.503   2.943  0.1596 -0.2194  0.1390
  349SOL    HW1 1046   2.471   0.551   2.900 -3.0084 -3.2281 -0.8029
  349SOL    HW2 1047   2.422   0.457   3.031  0.1034 -2.7191  0.0862
  350SOL     OW 1048   2.171   2.202   2.881  0.1376  0.0275 -0.4163
  350SOL    HW1 1049   2.113   2.133   2.921 -2.1571 -0.1620 -0.5968
  350SOL    HW2 1050   2.244   2.225   2.950  1.2249  1.1201  1.3799
  351SOL     OW 1051   0.938   0.521   0.445  0.2289 -0.0249  0.0777
  351SOL    HW1 1052   0.906   0.613   0.477  0.6101  0.7350  0.3123
  351SOL    HW2 1053   1.035   0.523   0.413  0.3436 -1.8072 -1.3851
  352SOL     OW 1054   1.644   2.083   2.832 -0.3922  0.2060  0.3855
  352SOL    HW1 1055   1.725   2.030   2.798  1.6565  0.2941 -0.2483
  352SOL    HW2 1056   1.562   2.058   2.777  1.3132 -0.9807 -1.4294
  353SOL     OW 1057   0.612   0.859   2.958 -0.3680 -0.2495 -0.2636
  353SOL    HW1 1058   0.581   0.910   2.877  1.0267 -1.4552 -0.7801
  353SOL    HW2 1059   0.691   0.901   3.001 -2.3404 -0.2930 -0.5901
  354SOL     OW 1060   0.728   2.479   2.613 -0.3960  0.4885 -0.8224
  354SOL    HW1 1061   0.708   2.380   2.638  1.8509 -3.2356  1.5118
  354SOL    HW2 1062   0.750   2.538   2.698  1.0424  1.1844  1.5982
  355SOL     OW 1063   2.697   2.715   1.742 -1.0906 -0.1431  0.2936
  355SOL    HW1 1064   2.743   2.773   1.816  0.4537  1.3424  1.5274
  355SOL    HW2 1065   2.725   2.749   1.651 -1.1476 -1.2921  1.9172
  356SOL     OW 1066   2.725   1.314   1.306 -0.5887 -0.0410 -0.1738
  356SOL    HW1 1067   2.676   1.374   1.369 -2.4375  0.1316 -1.7018
  356SOL    HW2 1068   2.722   1.344   1.209  0.1758 -0.8235 -0.5761
  357SOL     OW 1069   2.776   0.314   1.466 -0.4262  0.2319  0.3892
  357SOL    HW1 1070   2.760   0.337   1.563 -0.6218 -4.0957 -0.2217
  357SOL    HW2 1071   2.831   0.229   1.454 -1.4263 -0.2168  1.2001
  358SOL     OW 1072   0.645   1.895   1.545  0.1167 -0.3322  0.4057
  358SOL    HW1 1073   0.704   1.903   1.461 -0.9020  0.4506 -0.3997
  358SOL    HW2 1074   0.562   1.942   1.516 -0.3461 -1.6312  1.2881
  359SOL     OW 1075   2.872   2.655   2.582 -0.0167  0.3331  0.2273
  359SOL    HW1 1076   2.873   2.752   2.556 -1.3946 -0.7984  2.1363
  359SOL    HW2 1077   2.964   2.612   2.593 -1.0665  2.2864  3.0189
  360SOL     OW 1078   1.177   0.878   1.731 -0.2953 -0.3479 -0.3454
  360SOL    HW1 1079   1.105   0.880   1.801  0.2743  2.7413 -0.9668
  360SOL    HW2 1080   1.264   0.840   1.766 -0.4045 -2.6968 -2.2843
  361SOL     OW 1081   2.307   0.059   0.684 -0.4109 -0.0666  0.2479
  361SOL    HW1 1082   2.319   0.153   0.717  0.1349 -0.7121 -1.4737
  361SOL    HW2 1083   2.299   0.063   0.581 -0.4428  2.8003  1.3463
  362SOL     OW 1084   0.607   0.014   0.635 -0.1772  0.1050  0.1093
  362SOL    HW1 1085   0.692   0.008   0.697  1.1859  0.2552  0.8128
  362SOL    HW2 1086   0.575   0.117   0.636  1.5121  3.2930  0.4388
  363SOL     OW 1087   0.761   1.433   0.460  0.3447  0.0788 -0.4107
  363SOL    HW1 1088   0.690   1.360   0.470 -1.3495 -2.1160 -2.4514
  363SOL    HW2 1089   0.851   1.389   0.468  0.1100 -2.8644 -0.1710
  364SOL     OW 1090   0.569   0.948   1.597  0.4732  0.1207  0.2366
  364SOL    HW1 1091   0.610   0.859   1.633  0.1018 -3.8166  2.7637
  364SOL    HW2 1092   0.487   0.919   1.537 -1.1426 -0.3992 -1.2428
  365SOL     OW 1093   2.709   0.868   0.921  0.1849 -0.1735 -1.1672
  365SOL    HW1 1094   2.661   0.837   1.008 -1.7488  4.5686  0.8552
  365SOL    HW2 1095   2.753   0.792   0.871  0.7733  4.3964  3.1157
  366SOL     OW 1096   2.578   1.391   0.589  0.6458  0.0348  0.7546
  366SOL    HW1 1097   2.607   1.447   0.506 -0.4944  0.5177 -3.2169
  366SOL    HW2 1098   2.661   1.343   0.620 -1.2510 -2.5901 -0.4008
  367SOL     OW 1099   2.149   2.153   2.211  0.3905 -0.2012  0.0898
  367SOL    HW1 1100   2.119   2.058   2.190  1.3581 -0.6494 -0.0416
  367SOL    HW2 1101   2.102   2.186   2.296 -2.3932 -1.1038 -0.7676
  368SOL     OW 1102   2.713   1.800   0.834  0.0317 -0.0407 -0.2400
  368SOL    HW1 1103   2.641   1.759   0.897  0.6588  0.4080  2.4242
  368SOL    HW2 1104   2.670   1.802   0.736  1.3019  0.2941 -4.4297
  369SOL     OW 1105   2.088   2.347   2.657  0.2419 -0.1741 -0.1910
  369SOL    HW1 1106   2.116   2.298   2.742 -1.7230  0.0202  2.0398
  369SOL    HW2 1107   1.993   2.383   2.671 -0.3463 -2.6387  0.2272
  370SOL     OW 1108   0.173   0.051   1.240 -0.3221  0.0937 -0.6227
  370SOL    HW1 1109   0.225   0.132   1.277  0.0873  0.4449  2.6238
  370SOL    HW2 1110   0.124   0.071   1.155  2.5122  0.3107 -0.8862
  371SOL     OW 1111   0.529   2.115   3.045 -0.3336 -0.7556 -0.4884
  371SOL    HW1 1112   0.460   2.175   3.004  3.0630  2.4425 -0.3260
  371SOL    HW2 1113   0.501   2.079   0.020  1.6630 -0.1456 -2.0069
  372SOL     OW 1114   1.087   1.189   0.060 -0.8474 -0.3882 -0.6507
  372SOL    HW1 1115   1.150   1.235   3.108  1.0729  0.8740  0.5843
  372SOL    HW2 1116   1.070   1.092   0.036  0.5993  0.2959  0.1200
  373SOL     OW 1117   1.454   2.481   2.418 -0.2704  0.0903 -0.0147
  373SOL    HW1 1118   1.434   2.449   2.322 -2.0537 -1.1107 -1.5243
  373SOL    HW2 1119   1.536   2.545   2.430 -0.0986  0.9180 -0.3075
  374SOL     OW 1120   0.352   2.238   2.851 -0.1171  0.2519  0.2677
  374SOL    HW1 1121   0.292   2.166   2.817  2.0098  1.7874  0.2087
  374SOL    HW2 1122   0.294   2.314   2.882  1.4881  2.1417  0.7589
  375SOL     OW 1123   0.652   1.203   1.602  0.3922 -0.2430 -0.0412
  375SOL    HW1 1124   0.633   1.105   1.585  0.3076  1.1311 -3.9010
  375SOL    HW2 1125   0.579   1.245   1.666 -4.9809 -0.3887  1.3798
  376SOL     OW 1126   0.395   2.378   1.753 -0.6198  0.0039  0.3149
  376SOL    HW1 1127   0.460   2.302   1.753  0.4931  3.3814 -3.4441
  376SOL    HW2 1128   0.298   2.348   1.739 -1.4547  0.1418 -0.3229
  377SOL     OW 1129   2.939   1.504   2.669 -0.2457  0.0107  0.0788
  377SOL    HW1 1130   2.854   1.502   2.620  1.4675  0.1851  4.3799
  377SOL    HW2 1131   2.995   1.418   2.655  3.0262  0.6209  0.1410
  378SOL     OW 1132   1.285   3.072   0.162 -0.2268 -0.4050  0.3378
  378SOL    HW1 1133   1.327   3.106   0.076 -0.2851 -0.0552 -0.4835
  378SOL    HW2 1134   1.265   2.973   0.159 -0.2411  1.1464  2.8178
  379SOL     OW 1135   1.919   0.740   0.809 -0.1374 -0.1419  0.0837
  379SOL    HW1 1136   1.868   0.799   0.879  2.2990 -1.3304 -0.1597
  379SOL    HW2 1137   1.903   0.776   0.712  1.9779 -0.3821  0.4744
  380SOL     OW 1138   0.254   1.951   1.184  0.1629 -0.5592 -0.2905
  380SOL    HW1 1139   0.220   1.972   1.282  0.5020  2.1210  2.0674
  380SOL    HW2 1140   0.203   2.014   1.118 -0.1028  0.6557  0.9164
  381SOL     OW 1141   2.285   1.695   2.212 -0.3309  0.3503 -0.7040
  381SOL    HW1 1142   2.284   1.659   2.308  2.1265  1.3692  1.5467
  381SOL    HW2 1143   2.212   1.651   2.167  1.3507  3.7233  0.8846
  382SOL     OW 1144   3.115   0.121   2.497  0.1358  0.7185 -0.5370
  382SOL    HW1 1145   3.092   0.146   2.595 -0.9926  0.1105  1.0993
  382SOL    HW2 1146   0.082   0.063   2.499  2.3817  0.2018  1.4580
  383SOL     OW 1147   1.790   1.377   2.962 -0.2395  0.3289  0.4451
  383SOL    HW1 1148   1.852   1.448   2.999 -0.5102  0.7070 -1.1344
  383SOL    HW2 1149   1.705   1.380   3.015  4.5632 -1.7202  1.8792
  384SOL     OW 1150   1.361   2.110   1.504 -0.4757 -0.0374 -0.0264
  384SOL    HW1 1151   1.365   2.165   1.589 -0.8434 -1.2071  2.5951
  384SOL    HW2 1152   1.453   2.103   1.465 -2.0068  1.3514 -0.4690
  385SOL     OW 1153   1.667   2.705   0.838  0.2884 -0.5379  0.2762
  385SOL    HW1 1154   1.720   2.786   0.876  0.1611  0.4183  0.0190
  385SOL    HW2 1155   1.690   2.698   0.737  2.0629  0.3077  0.0969
  386SOL     OW 1156   1.870   2.306   1.076 -0.2708  0.0344 -0.3547
  386SOL    HW1 1157   1.908   2.286   0.983 -0.0532 -0.7799 -1.1656
  386SOL    HW2 1158   1.808   2.386   1.065 -1.0664 -1.4773  0.8051
  387SOL     OW 1159   3.116   2.078   1.590 -0.3340  0.1537 -0.0946
  387SOL    HW1 1160   3.077   2.124   1.507  2.3543 -0.2354 -0.9306
  387SOL    HW2 1161   3.048   2.016   1.629  0.6236  0.4048  0.2457
  388SOL     OW 1162   2.630   0.606   1.571 -0.1656  0.1835 -0.3298
  388SOL    HW1 1163   2.623   0.707   1.562 -0.9488  0.2230 -2.7069
  388SOL    HW2 1164   2.537   0.564   1.586 -0.1243 -2.7853 -0.1170
  389SOL     OW 1165   1.875   0.827   0.545  0.1628  0.6542 -0.2922
  389SOL    HW1 1166   1.942   0.826   0.468  0.7661 -2.1889 -0.7590
  389SOL    HW2 1167   1.785   0.786   0.516 -4.1529 -2.3460 -0.9993
  390SOL     OW 1168   1.007   1.949   2.617  0.7945  0.1440 -0.2769
  390SOL    HW1 1169   0.910   1.967   2.589 -1.1569 -0.8060 -0.9709
  390SOL    HW2 1170   1.047   1.890   2.543  0.8223  2.0148 -0.7088
  391SOL     OW 1171   0.998   2.151   3.084 -0.1394 -0.2778  0.1000
  391SOL    HW1 1172   1.006   2.246   0.007 -1.7373 -0.3954 -0.9052
  391SOL    HW2 1173   0.923   2.141   3.021  1.1195 -2.4430  1.5722
  392SOL     OW 1174   0.056   2.817   1.669 -0.4921 -0.0232 -0.0254
  392SOL    HW1 1175   0.134   2.832   1.725 -0.8547  1.9648 -2.4745
  392SOL    HW2 1176   3.091   2.861   1.712 -1.7654 -0.5463 -0.2329
  393SOL     OW 1177   1.649   2.688   0.246  0.2995  0.3714 -0.6394
  393SOL    HW1 1178   1.691   2.624   0.176 -0.8633  0.1529 -2.1767
  393SOL    HW2 1179   1.606   2.636   0.321 -1.3028  1.7751 -2.0440
  394SOL     OW 1180   0.762   0.595   2.229  0.6136  0.2282  0.3667
  394SOL    HW1 1181   0.747   0.530   2.155  3.1938  1.3224  0.7856
  394SOL    HW2 1182   0.669   0.598   2.277  0.6304 -3.6135  0.5807
  395SOL     OW 1183   0.233   1.150   1.385  0.1231 -0.4800  0.0120
  395SOL    HW1 1184   0.198   1.093   1.306 -1.8764 -4.3044 -1.3216
  395SOL    HW2 1185   0.161   1.214   1.420 -0.6209 -0.4805 -1.6298
  396SOL     OW 1186   1.967   1.217   2.312  0.5799  0.9960 -0.5305
  396SOL    HW1 1187   1.883   1.261   2.353  1.2486  0.7462 -1.4210
  396SOL    HW2 1188   1.940   1.160   2.232  1.2798  0.3732  1.5646
  397SOL     OW 1189   0.791   0.271   3.060  0.4842  0.5380 -0.7245
  397SOL    HW1 1190   0.835   0.181   3.086  0.7527 -0.7760 -1.0077
  397SOL    HW2 1191   0.751   0.307   0.028  1.9927 -1.4152 -0.6748
  398SOL     OW 1192   0.765   2.162   2.905  0.1222  0.7394  0.0801
  398SOL    HW1 1193   0.689   2.153   2.971  1.0127 -1.6283  2.3391
  398SOL    HW2 1194   0.724   2.189   2.814  1.8460  1.2915 -0.8814
  399SOL     OW 1195   2.567   1.508   2.868 -0.4822  0.2365 -0.7057
  399SOL    HW1 1196   2.509   1.478   2.790 -2.0046  0.5011 -0.7479
  399SOL    HW2 1197   2.533   1.457   2.951  1.3109  0.9426 -0.1134
  400SOL     OW 1198   2.377   1.446   1.361  0.1951  0.3662 -0.5975
  400SOL    HW1 1199   2.395   1.475   1.267 -0.4424 -3.0809  0.7649
  400SOL    HW2 1200   2.342   1.349   1.356 -0.1012 -0.5496  1.0252
  401SOL     OW 1201   1.386   1.739   1.275  0.0189 -0.2310 -0.1752
  401SOL    HW1 1202   1.419   1.642   1.250  0.7676 -2.3403  1.9151
  401SOL    HW2 1203   1.382   1.751   1.372 -2.7352 -1.3400 -1.2013
  402SOL     OW 1204   0.021   2.537   2.060  0.0486 -0.0610  0.6911
  402SOL    HW1 1205   0.017   2.522   2.162 -0.1482  1.5577  3.2597
  402SOL    HW2 1206   0.106   2.592   2.035  0.4628 -1.7494  1.9997
  403SOL     OW 1207   0.156   1.061   2.565 -0.0715 -0.4934 -0.1554
  403SOL    HW1 1208   0.184   1.153   2.568  1.0268 -3.3771  0.3342
  403SOL    HW2 1209   0.219   1.003   2.620  0.2122  1.9444  0.5948
  404SOL     OW 1210   2.077   1.987   1.285  0.1327 -0.8242  0.2793
  404SOL    HW1 1211   2.134   2.044   1.224 -2.4708  0.9374  1.7412
  404SOL    HW2 1212   2.067   1.894   1.238  1.8469 -0.0302 -1.1376
  405SOL     OW 1213   2.663   0.282   2.702  0.0087  0.6328  0.2232
  405SOL    HW1 1214   2.667   0.236   2.615 -3.3782  0.9939  2.9930
  405SOL    HW2 1215   2.707   0.219   2.772  0.9009  0.3914 -0.2579
  406SOL     OW 1216   0.773   1.044   3.114  0.2891 -0.0925  0.2736
  406SOL    HW1 1217   0.866   1.006   0.011  2.5097 -2.7023  0.8979
  406SOL    HW2 1218   0.771   1.115   3.048  0.7286 -5.0261  1.2248
  407SOL     OW 1219   1.849   2.442   2.665 -0.3872 -0.0559 -0.2918
  407SOL    HW1 1220   1.782   2.405   2.732  1.8230 -0.1117 -0.0844
  407SOL    HW2 1221   1.869   2.539   2.682 -0.9233 -2.1976  2.0051
  408SOL     OW 1222   0.005   0.028   3.079  0.3569  0.4325  0.2310
  408SOL    HW1 1223   0.084   0.084   3.106  1.5965 -0.7240  1.8305
  408SOL    HW2 1224   3.045   0.087   3.054 -2.0417  1.7720 -0.3205
  409SOL     OW 1225   2.121   1.493   0.975  0.3118  0.9871 -0.3332
  409SOL    HW1 1226   2.035   1.489   0.919 -2.8224 -2.2726  0.3123
  409SOL    HW2 1227   2.191   1.554   0.938  0.0834  0.0045 -0.3275
  410SOL     OW 1228   2.440   1.857   2.999  0.3217  0.3901 -0.0798
  410SOL    HW1 1229   2.430   1.768   3.049 -1.8321 -1.9788  0.3533
  410SOL    HW2 1230   2.473   1.929   3.063  1.0960 -0.8315  0.4206
  411SOL     OW 1231   0.136   1.202   0.855  0.2201  0.6210  0.2244
  411SOL    HW1 1232   0.127   1.300   0.841  0.7213 -2.9670  1.2084
  411SOL    HW2 1233   0.230   1.171   0.844  0.6954  3.2788  0.4430
  412SOL     OW 1234   1.757   2.701   0.574 -0.0722  0.2031 -0.0566
  412SOL    HW1 1235   1.745   2.762   0.493  0.2487 -1.3549  1.2558
  412SOL    HW2 1236   1.791   2.609   0.540 -0.8044  0.5963  1.2109
  413SOL     OW 1237   2.066   0.659   2.163  0.1453  0.0387  0.4359
  413SOL    HW1 1238   2.002   0.736   2.166 -0.0560 -1.3639  0.5520
  413SOL    HW2 1239   2.037   0.592   2.238 -1.8805 -1.5351  1.8927
  414SOL     OW 1240   2.984   0.435   0.529 -0.3310 -0.3456 -0.0669
  414SOL    HW1 1241   2.893   0.419   0.482 -0.7740 -0.3472 -0.5024
  414SOL    HW2 1242   2.974   0.389   0.619  0.4405 -1.5539 -0.3070
  415SOL     OW 1243   0.954   1.796   1.641  0.6234  0.2230 -0.0445
  415SOL    HW1 1244   0.965   1.832   1.737  1.0590 -0.0329  0.8711
  415SOL    HW2 1245   0.867   1.839   1.603  0.1768 -0.3004  1.6572
  416SOL     OW 1246   0.405   3.070   2.885 -0.4713  0.0696  0.4060
  416SOL    HW1 1247   0.454   0.006   2.816  0.3767 -0.5603 -1.0809
  416SOL    HW2 1248   0.337   3.017   2.828  1.2453 -0.0653 -1.0157
  417SOL     OW 1249   2.505   3.033   0.996 -0.1116  0.5093 -0.0419
  417SOL    HW1 1250   2.559   2.994   1.074  1.7382 -1.1776  0.7852
  417SOL    HW2 1251   2.428   3.095   1.030 -0.0451 -0.2314  2.7105
  418SOL     OW 1252   0.258   0.401   2.599  0.2165 -0.5111 -0.0696
  418SOL    HW1 1253   0.190   0.327   2.587 -1.4897 -0.3491 -0.3397
  418SOL    HW2 1254   0.305   0.436   2.513  0.2532  0.6791 -0.3157
  419SOL     OW 1255   0.025   1.310   1.431  0.2171 -0.2248 -0.1509
  419SOL    HW1 1256   3.103   1.401   1.443  0.2549  1.2038 -0.9921
  419SOL    HW2 1257   3.078   1.256   1.377  1.8680  0.7434  1.2876
  420SOL     OW 1258   0.816   1.797   0.907 -0.4697  0.4083  0.4760
  420SOL    HW1 1259   0.871   1.719   0.872 -0.7493 -0.5991 -0.8730
  420SOL    HW2 1260   0.756   1.775   0.987 -0.4043  1.7647  0.6642
  421SOL     OW 1261   2.016   2.266   2.416  0.4415  0.3716  0.1729
  421SOL    HW1 1262   2.071   2.289   2.497 -0.3750 -2.1250 -1.4763
  421SOL    HW2 1263   1.930   2.322   2.397 -2.2262 -2.1247 -1.1375
  422SOL     OW 1264   2.919   0.447   2.709  0.3950 -0.0686  0.6573
  422SOL    HW1 1265   2.828   0.416   2.679 -1.5625 -0.3011 -0.8535
  422SOL    HW2 1266   2.962   0.402   2.790 -1.8402  1.1544 -3.0917
  423SOL     OW 1267   1.405   2.121   1.028  0.2687 -0.3612 -0.5565
  423SOL    HW1 1268   1.333   2.070   0.975 -1.5090  0.7996 -0.8470
  423SOL    HW2 1269   1.363   2.154   1.117 -3.4637 -2.4805  2.1189
  424SOL     OW 1270   0.621   1.786   1.801  0.9203 -0.2955  0.0623
  424SOL    HW1 1271   0.639   1.815   1.706  0.5505  0.7157  0.9670
  424SOL    HW2 1272   0.523   1.775   1.830  2.4688  0.4351  1.7576
  425SOL     OW 1273   3.049   2.808   2.097  0.4870  0.4262 -0.3494
  425SOL    HW1 1274   3.074   2.719   2.053  1.7119  3.1899  1.6780
  425SOL    HW2 1275   2.969   2.852   2.049 -1.1036  0.3581 -1.2258
  426SOL     OW 1276   1.667   0.452   0.516 -0.3741  0.1059 -0.1633
  426SOL    HW1 1277   1.710   0.393   0.441  1.2060 -1.5276 -2.5817
  426SOL    HW2 1278   1.721   0.453   0.602  0.0385 -3.1966  2.5720
  427SOL     OW 1279   1.123   0.710   0.145 -0.2012 -0.0091 -0.0953
  427SOL    HW1 1280   1.067   0.746   0.225 -0.8124  0.1120 -0.3671
  427SOL    HW2 1281   1.103   0.612   0.129  0.7453  1.0773 -0.4284
  428SOL     OW 1282   1.527   1.290   0.217 -0.3580 -0.2529 -0.3075
  428SOL    HW1 1283   1.467   1.351   0.271 -0.6544  1.8180 -1.4660
  428SOL    HW2 1284   1.556   1.338   0.130 -0.0914  2.2724 -2.6529
  429SOL     OW 1285   2.936   2.780   0.555  0.1839  0.1751 -0.0160
  429SOL    HW1 1286   3.035   2.776   0.562 -3.7504 -0.7397  0.6193
  429SOL    HW2 1287   2.914   2.864   0.499  0.9631  1.5194 -0.1605
  430SOL     OW 1288   0.465   3.108   2.225  0.2916  0.2813 -0.2238
  430SOL    HW1 1289   0.413   0.066   2.270  1.6824 -1.5234 -2.7881
  430SOL    HW2 1290   0.545   0.022   2.179 -4.3292 -0.6809 -0.5268
  431SOL     OW 1291   2.617   0.793   1.159  0.8824 -0.4940  0.4963
  431SOL    HW1 1292   2.593   0.710   1.208 -1.0981  1.9297 -0.0326
  431SOL    HW2 1293   2.564   0.874   1.193  0.5245  0.3321  0.6992
  432SOL     OW 1294   2.098   2.526   1.879  0.3875 -0.2405  0.0802
  432SOL    HW1 1295   2.098   2.550   1.978  0.7110  3.0241  1.5853
  432SOL    HW2 1296   2.096   2.422   1.866 -2.3315 -0.3489 -0.0244
  433SOL     OW 1297   1.393   2.444   0.649 -0.2605  0.3096 -0.0221
  433SOL    HW1 1298   1.422   2.357   0.697 -0.7742  0.0411  1.6750
  433SOL    HW2 1299   1.385   2.523   0.716  2.9723 -1.3432  0.9483
  434SOL     OW 1300   0.313   2.032   1.939  0.0134 -0.0103  1.1720
  434SOL    HW1 1301   0.328   1.973   2.017 -0.5615  1.2684 -2.9964
  434SOL    HW2 1302   0.222   2.013   1.901  1.3908  1.4034  3.3317
  435SOL     OW 1303   0.146   0.898   0.291 -0.1252  0.3240  0.0351
  435SOL    HW1 1304   0.150   0.895   0.395 -0.0081 -2.7977  1.0118
  435SOL    HW2 1305   0.237   0.892   0.243 -0.4046 -2.1008 -1.5008
  436SOL     OW 1306   0.249   2.603   1.913  0.2802  0.4108  0.5844
  436SOL    HW1 1307   0.325   2.657   1.938 -4.2388 -2.3579 -6.3013
  436SOL    HW2 1308   0.278   2.547   1.835 -0.0820 -0.5105  1.0150
  437SOL     OW 1309   1.660   2.409   1.695  0.0673 -0.2099  0.0179
  437SOL    HW1 1310   1.661   2.445   1.599  0.2288  2.1488  0.4797
  437SOL    HW2 1311   1.718   2.471   1.747 -1.1980 -0.7207 -0.0944
  438SOL     OW 1312   0.125   1.923   0.396 -0.2582 -0.1866  0.4716
  438SOL    HW1 1313   0.217   1.954   0.421  0.4030  0.9623 -1.2431
  438SOL    HW2 1314   0.095   1.965   0.309  0.8756  0.1913 -2.6345
  439SOL     OW 1315   0.126   0.493   0.743 -0.1027 -0.3418  0.1802
  439SOL    HW1 1316   0.106   0.588   0.770  0.5032  1.0834  1.1605
  439SOL    HW2 1317   0.047   0.438   0.767  2.5867  0.4382 -1.5336
  440SOL     OW 1318   3.087   2.791   2.364  0.2403 -0.0753  0.1066
  440SOL    HW1 1319   0.073   2.797   2.382  1.9338  0.1769  0.7864
  440SOL    HW2 1320   3.067   2.773   2.266  1.3122  0.2987  2.1719
  441SOL     OW 1321   2.989   0.384   0.810 -0.0476 -0.1118 -0.5130
  441SOL    HW1 1322   3.041   0.385   0.902 -0.3247 -1.1225  1.4546
  441SOL    HW2 1323   2.901   0.335   0.824 -1.3018 -1.0733  1.1641
  442SOL     OW 1324   1.209   2.231   2.480  0.5590  0.9648  0.5710
  442SOL    HW1 1325   1.184   2.214   2.576 -1.9078 -0.4165 -0.7844
  442SOL    HW2 1326   1.291   2.173   2.465  2.6155  0.3265 -0.7178
  443SOL     OW 1327   0.646   0.919   0.198 -0.2189  0.1877 -0.1129
  443SOL    HW1 1328   0.729   0.894   0.246 -2.1506  0.4749 -0.4437
  443SOL    HW2 1329   0.677   0.954   0.109  2.3559 -0.4859 -1.0593
  444SOL     OW 1330   1.701   1.361   2.705  0.0213  0.4423 -0.1761
  444SOL    HW1 1331   1.613   1.415   2.699 -3.6315 -1.7327 -1.3453
  444SOL    HW2 1332   1.738   1.354   2.800 -1.5566  1.1384 -1.7560
  445SOL     OW 1333   2.963   0.010   0.870 -0.6029  0.3244  0.3490
  445SOL    HW1 1334   3.033   3.085   0.808  0.5756 -0.4160 -0.7630
  445SOL    HW2 1335   2.871   3.095   0.843 -0.6863  2.0230  2.6375
  446SOL     OW 1336   2.093   0.479   1.000  0.0844  0.2454 -0.0255
  446SOL    HW1 1337   2.070   0.457   0.900  1.4619  2.9778  1.8091
  446SOL    HW2 1338   2.020   0.434   1.061 -3.4773  1.3771 -0.5402
  447SOL     OW 1339   0.085   0.631   2.972 -0.5558 -0.0592  0.2349
  447SOL    HW1 1340   0.075   0.532   2.948 -0.9096 -0.4450 -0.5345
  447SOL    HW2 1341   0.066   0.648   3.068 -1.2065  2.4696  1.1550
  448SOL     OW 1342   1.863   1.935   1.704  0.2492 -0.2479 -0.1075
  448SOL    HW1 1343   1.869   2.029   1.665 -1.2469  1.0475 -0.6289
  448SOL    HW2 1344   1.771   1.898   1.700  2.3608  0.1703  0.3100
  449SOL     OW 1345   0.913   1.556   0.835  0.1363  0.1410 -0.1650
  449SOL    HW1 1346   1.007   1.530   0.805  1.3136 -1.3684  1.7934
  449SOL    HW2 1347   0.842   1.483   0.816 -0.9692 -1.1257 -0.4894
  450SOL     OW 1348   2.826   2.450   2.156 -0.7472 -0.5926  0.1139
  450SOL    HW1 1349   2.890   2.429   2.078  2.3905  0.2712 -0.5860
  450SOL    HW2 1350   2.757   2.378   2.172  1.4242  2.0001 -0.6167
  451SOL     OW 1351   2.637   1.098   2.917  0.1015 -0.0870 -0.1810
  451SOL    HW1 1352   2.659   1.033   2.998  0.9396 -1.0522  1.7243
  451SOL    HW2 1353   2.598   1.187   2.952  0.0611  1.7536 -0.3022
  452SOL     OW 1354   1.924   0.904   1.145  0.2872 -0.1620  0.1135
  452SOL    HW1 1355   1.917   0.988   1.201 -1.8138  0.6809 -0.2553
  452SOL    HW2 1356   1.984   0.914   1.063  0.4073  1.4995 -0.9380
  453SOL     OW 1357   2.303   0.831   1.364  0.2117 -0.2981 -0.0246
  453SOL    HW1 1358   2.252   0.874   1.446  0.0522  0.0727  1.0181
  453SOL    HW2 1359   2.246   0.756   1.329  1.2706 -1.2013  1.2821
  454SOL     OW 1360   3.008   1.059   0.362  0.1243  0.2077 -0.0791
  454SOL    HW1 1361   3.081   0.991   0.338 -2.0129 -0.5783  0.5537
  454SOL    HW2 1362   2.923   1.016   0.393  3.1823  2.0519  1.2713
  455SOL     OW 1363   2.463   1.531   1.106  0.0237 -0.4712  0.0869
  455SOL    HW1 1364   2.535   1.462   1.081  1.3028  1.8822  1.1120
  455SOL    HW2 1365   2.394   1.533   1.030 -1.2874 -0.9850 -2.1095
  456SOL     OW 1366   1.136   0.376   1.507 -0.3940  0.1886  0.1730
  456SOL    HW1 1367   1.115   0.474   1.494  0.5548  2.9396  0.5266
  456SOL    HW2 1368   1.218   0.373   1.570  1.2713  0.0951 -1.1692
  457SOL     OW 1369   1.806   2.914   0.968 -0.4815  0.2451  0.7509
  457SOL    HW1 1370   1.909   2.896   0.972  3.4103 -0.4728 -1.9975
  457SOL    HW2 1371   1.791   3.006   0.935 -0.4007 -0.4882  1.7509
  458SOL     OW 1372   2.759   0.328   0.406 -0.0163 -0.6263  0.0518
  458SOL    HW1 1373   2.724   0.407   0.354  1.8877 -1.2665  1.0210
  458SOL    HW2 1374   2.686   0.263   0.428 -2.0219 -0.1296  0.0171
  459SOL     OW 1375   1.643   0.802   0.192  0.1252 -0.3845 -0.8512
  459SOL    HW1 1376   1.636   0.891   0.144  2.3277 -1.1690  0.8140
  459SOL    HW2 1377   1.638   0.805   0.291  0.4018  2.5311  0.4363
  460SOL     OW 1378   0.247   2.748   2.434 -0.1044  0.6774 -0.4947
  460SOL    HW1 1379   0.248   2.704   2.528  0.9804  0.0075  1.8757
  460SOL    HW2 1380   0.264   2.674   2.361  1.8496  1.8273 -2.2990
  461SOL     OW 1381   0.355   1.728   0.118  0.2054  0.2294  0.0007
  461SOL    HW1 1382   0.439   1.698   0.166 -0.8871  1.0699 -0.4331
  461SOL    HW2 1383   0.360   1.705   0.021 -0.0458 -1.5346  1.0078
  462SOL     OW 1384   2.095   2.387   0.604 -0.0543  0.2597 -0.3206
  462SOL    HW1 1385   2.173   2.345   0.555 -2.9966 -1.2218  0.7009
  462SOL    HW2 1386   2.123   2.485   0.623  0.9754  0.1595  1.8581
  463SOL     OW 1387   3.006   0.692   0.591 -0.4012  0.3325 -0.1581
  463SOL    HW1 1388   2.953   0.683   0.680 -0.1183  2.1006  0.3119
  463SOL    HW2 1389   3.041   0.603   0.561  0.0272 -0.1391  2.8161
  464SOL     OW 1390   0.617   2.641   0.274  0.1702  0.3150  0.3344
  464SOL    HW1 1391   0.637   2.730   0.319  1.5624  0.7384  2.3244
  464SOL    HW2 1392   0.639   2.569   0.338 -0.8394  3.5203  0.6150
  465SOL     OW 1393   2.293   0.323   0.761 -0.3203 -0.4393 -0.2885
  465SOL    HW1 1394   2.327   0.326   0.858 -1.3387 -1.3963  1.2157
  465SOL    HW2 1395   2.202   0.361   0.761  1.9437  0.0100  1.0454
  466SOL     OW 1396   2.060   0.196   0.203 -0.1048 -0.7371  0.3922
  466SOL    HW1 1397   2.002   0.280   0.210 -0.7018  3.2471  1.1857
  466SOL    HW2 1398   2.017   0.112   0.160 -2.5377 -2.0112 -1.0054
  467SOL     OW 1399   1.001   0.368   2.063 -0.3198 -0.0147 -0.2346
  467SOL    HW1 1400   0.991   0.290   2.127  1.7020  2.1314  1.8512
  467SOL    HW2 1401   1.079   0.434   2.079 -0.1852  0.7501  1.2953
  468SOL     OW 1402   2.928   0.843   2.216  0.1799 -0.5171 -0.2578
  468SOL    HW1 1403   3.015   0.857   2.161  3.4661 -1.0484  0.3257
  468SOL    HW2 1404   2.933   0.748   2.260  0.4999 -1.3135  0.6460
  469SOL     OW 1405   0.920   2.203   2.403 -0.1507  0.0104 -0.3876
  469SOL    HW1 1406   1.013   2.194   2.446  1.1570 -0.2204  0.4368
  469SOL    HW2 1407   0.928   2.179   2.304 -1.8268 -1.9480 -0.6084
  470SOL     OW 1408   2.078   1.222   1.881  0.0077 -0.3493  0.0158
  470SOL    HW1 1409   2.174   1.247   1.901  1.5112 -1.6674 -1.7398
  470SOL    HW2 1410   2.044   1.149   1.944  0.4577 -2.4657  1.3286
  471SOL     OW 1411   2.842   1.138   0.142 -0.3943  0.0734 -0.2314
  471SOL    HW1 1412   2.889   1.186   0.067  1.9097 -0.5218 -0.3279
  471SOL    HW2 1413   2.909   1.108   0.212 -0.2958 -3.7047  0.8929
  472SOL     OW 1414   0.261   2.684   0.370  0.5597 -0.0072 -0.2547
  472SOL    HW1 1415   0.242   2.588   0.394  0.5374  0.1546  2.1170
  472SOL    HW2 1416   0.353   2.714   0.401 -1.4701 -0.2814 -0.9426
  473SOL     OW 1417   0.831   2.491   2.164  0.0132 -0.1497  0.3660
  473SOL    HW1 1418   0.776   2.432   2.229 -0.6464  0.7483  0.7611
  473SOL    HW2 1419   0.886   2.554   2.220 -3.7466 -0.1891 -2.4749
  474SOL     OW 1420   1.437   0.067   2.608  0.1465  0.5859  0.5147
  474SOL    HW1 1421   1.419   0.077   2.705  1.9994 -0.5924 -3.4598
  474SOL    HW2 1422   1.432   3.082   2.581 -2.6506 -1.5976 -0.6561
  475SOL     OW 1423   0.994   2.569   0.260  0.0051 -0.1224  0.4576
  475SOL    HW1 1424   1.046   2.647   0.306 -3.8719  1.4198 -1.0636
  475SOL    HW2 1425   0.918   2.532   0.317 -2.9081 -0.7649  0.3606
  476SOL     OW 1426   0.541   0.383   1.007 -0.3910 -0.6363 -0.0753
  476SOL    HW1 1427   0.544   0.444   1.093 -0.2634  0.5726  4.3959
  476SOL    HW2 1428   0.636   0.377   0.969  1.4522  1.0818 -0.6733
  477SOL     OW 1429   1.859   2.151   1.331  0.7101 -0.0893  0.1711
  477SOL    HW1 1430   1.866   2.211   1.249 -1.5032 -0.7100 -0.1306
  477SOL    HW2 1431   1.930   2.077   1.328 -0.1140  2.8825 -2.1409
  478SOL     OW 1432   0.040   0.877   2.828  0.6055  0.0397  0.2965
  478SOL    HW1 1433   0.125   0.855   2.778 -0.2737 -0.6383 -2.7943
  478SOL    HW2 1434   0.012   0.808   2.900 -0.8260 -1.0831  0.5638
  479SOL     OW 1435   0.812   3.070   0.808  0.0372 -0.0294 -0.4175
  479SOL    HW1 1436   0.824   2.984   0.752  3.1152 -1.4742  1.4581
  479SOL    HW2 1437   0.905   0.004   0.811  1.7347  1.8607 -1.1295
  480SOL     OW 1438   2.520   2.697   0.197  0.2643  0.0242  0.0723
  480SOL    HW1 1439   2.573   2.771   0.147 -0.6491  3.5041 -0.5446
  480SOL    HW2 1440   2.558   2.605   0.180  0.0108  2.6999  1.0462
  481SOL     OW 1441   2.903   0.528   1.330  0.3482 -0.4775 -0.3088
  481SOL    HW1 1442   2.852   0.454   1.372  0.2634 -0.3086  0.0184
  481SOL    HW2 1443   2.998   0.538   1.364  0.6463 -0.8215 -0.2715
  482SOL     OW 1444   1.123   2.583   1.379  0.2726 -0.4786  0.4238
  482SOL    HW1 1445   1.163   2.528   1.305 -2.8260  1.2211  0.5283
  482SOL    HW2 1446   1.174   2.674   1.380  1.5289 -1.6227 -0.8282
  483SOL     OW 1447   0.434   1.407   3.050  0.0404  0.4630 -0.1779
  483SOL    HW1 1448   0.457   1.411   0.032  0.2551  1.8976 -1.1319
  483SOL    HW2 1449   0.383   1.322   3.030  2.5779  0.8541  0.0239
  484SOL     OW 1450   1.507   1.472   2.380  0.4538  0.1743 -0.1365
  484SOL    HW1 1451   1.527   1.437   2.286  1.7279  0.1096  2.1031
  484SOL    HW2 1452   1.535   1.567   2.378 -1.4067 -0.9284 -0.6828
  485SOL     OW 1453   0.247   3.079   2.508 -0.1503  0.3259  0.3336
  485SOL    HW1 1454   0.223   3.038   2.601 -0.3394  1.3704 -0.4628
  485SOL    HW2 1455   0.324   3.031   2.464 -0.4124  0.2265 -1.7866
  486SOL     OW 1456   1.337   2.900   0.657  0.3529 -0.1253 -0.2321
  486SOL    HW1 1457   1.357   2.990   0.697  0.7241  0.3476 -0.6464
  486SOL    HW2 1458   1.381   2.894   0.566 -1.6817 -1.0982  0.3559
  487SOL     OW 1459   1.510   3.014   1.107 -0.1223  0.1745  0.4396
  487SOL    HW1 1460   1.538   3.059   1.194  1.8828  0.5792  4.2928
  487SOL    HW2 1461   1.578   3.024   1.034 -1.3030 -3.8884  1.4871
  488SOL     OW 1462   2.222   0.906   0.775 -0.0079  0.1620 -0.0436
  488SOL    HW1 1463   2.192   0.964   0.849 -0.7997 -2.4503 -4.0428
  488SOL    HW2 1464   2.168   0.934   0.693  2.5936 -2.1722  1.0284
  489SOL     OW 1465   1.211   0.008   1.338  0.1794  0.2619  0.1554
  489SOL    HW1 1466   1.126   0.015   1.397 -1.8781 -0.1712  1.7322
  489SOL    HW2 1467   1.187   0.018   1.240  1.8116 -0.9401  2.2671
  490SOL     OW 1468   0.899   0.770   0.553  0.0804 -0.4686 -0.1116
  490SOL    HW1 1469   0.824   0.837   0.551 -2.6732  0.8644 -0.1503
  490SOL    HW2 1470   0.962   0.777   0.633 -0.7407  1.2798 -0.8068
  491SOL     OW 1471   1.152   2.769   0.401  0.4649 -0.0951 -0.4547
  491SOL    HW1 1472   1.135   2.758   0.499  1.2607  2.3477 -3.0285
  491SOL    HW2 1473   1.245   2.798   0.397  2.4280 -0.9448 -0.3728
  492SOL     OW 1474   0.829   1.381   2.272  0.1904  0.0987 -0.5150
  492SOL    HW1 1475   0.911   1.430   2.247  1.4567 -0.8491  0.4924
  492SOL    HW2 1476   0.791   1.338   2.187  2.2413  1.7583 -0.6361
  493SOL     OW 1477   3.033   1.932   0.131  0.1381  0.7120 -0.4593
  493SOL    HW1 1478   3.097   1.959   0.053  0.3760 -0.5443  1.1792
  493SOL    HW2 1479   2.938   1.955   0.114  1.5906  2.7101  1.6334
  494SOL     OW 1480   1.906   1.454   0.371  0.7098 -0.5863 -0.2945
  494SOL    HW1 1481   1.829   1.512   0.413 -5.1361 -1.2228  0.1485
  494SOL    HW2 1482   1.885   1.357   0.367  1.4459  0.1913  0.3273
  495SOL     OW 1483   0.455   1.181   2.455 -0.1263  0.4572 -0.2396
  495SOL    HW1 1484   0.411   1.123   2.383 -1.3758  2.3605 -0.8209
  495SOL    HW2 1485   0.391   1.229   2.517  1.1116  0.1836 -1.2248
  496SOL     OW 1486   3.071   0.153   2.252  0.1294 -0.2320  0.0119
  496SOL    HW1 1487   3.080   0.145   2.354  1.8795  1.6711  1.9677
  496SOL    HW2 1488   0.000   0.071   2.207  0.6139 -0.8333  1.1617
  497SOL     OW 1489   2.098   1.049   0.531 -0.3476  0.3271  0.0452
  497SOL    HW1 1490   2.156   1.048   0.448 -0.0053 -2.7995 -1.5498
  497SOL    HW2 1491   2.000   1.025   0.514  1.5118 -0.5044 -0.5960
  498SOL     OW 1492   2.809   2.580   2.845  0.1448 -0.1643 -0.0227
  498SOL    HW1 1493   2.715   2.614   2.874 -2.2839 -0.7912  0.6481
  498SOL    HW2 1494   2.838   2.608   2.752 -0.6806 -2.0992  1.3740
  499SOL     OW 1495   1.948   2.814   0.690 -0.3449  0.2008  0.2219
  499SOL    HW1 1496   1.950   2.897   0.626 -1.9678  2.2259 -0.2033
  499SOL    HW2 1497   1.877   2.754   0.645  2.3779 -1.2864 -0.4122
  500SOL     OW 1498   1.151   0.667   2.711 -0.2016  0.2376 -0.1675
  500SOL    HW1 1499   1.198   0.583   2.741  1.3677  2.1782 -0.1240
  500SOL    HW2 1500   1.216   0.739   2.678  1.2627  3.3196 -0.8111
  501SOL     OW 1501   1.398   0.123   1.507  1.0589  0.2424  0.4702
  501SOL    HW1 1502   1.410   0.070   1.594 -1.5106 -1.2992 -0.1474
  501SOL    HW2 1503   1.331   0.071   1.445  0.4646 -1.8613 -0.4303
  502SOL     OW 1504   0.025   0.168   1.961 -0.3763 -0.0924  0.3282
  502SOL    HW1 1505   0.031   0.093   2.028 -0.9917  0.8737  2.1461
  502SOL    HW2 1506   0.088   0.156   1.881 -0.4592  2.3896  0.1461
  503SOL     OW 1507   1.574   2.371   2.140 -0.0738 -0.2961 -0.2891
  503SOL    HW1 1508   1.650   2.424   2.185 -0.0020  2.1077  0.3448
  503SOL    HW2 1509   1.589   2.272   2.154 -3.0704 -0.9020 -0.2553
  504SOL     OW 1510   2.108   0.095   1.876 -0.2282  0.2777 -0.2442
  504SOL    HW1 1511   2.112   0.127   1.781  1.5958  0.8534 -0.1279
  504SOL    HW2 1512   2.018   0.058   1.905 -2.3088 -1.0130  2.2364
  505SOL     OW 1513   2.751   1.655   1.407 -0.5037 -0.1036  0.6253
  505SOL    HW1 1514   2.702   1.564   1.416 -2.0853 -1.9145  1.0909
  505SOL    HW2 1515   2.731   1.711   1.492 -0.3086 -2.0283 -0.5819
  506SOL     OW 1516   0.054   1.248   2.270 -0.1315 -0.3321  0.1308
  506SOL    HW1 1517   0.035   1.153   2.311 -0.8630 -2.3647  2.4384
  506SOL    HW2 1518   0.014   1.243   2.173  0.3362  0.6094 -2.0407
  507SOL     OW 1519   0.308   2.875   1.270  0.0836  0.8178 -0.3636
  507SOL    HW1 1520   0.318   2.969   1.237  1.9441  0.5688  0.2861
  507SOL    HW2 1521   0.211   2.840   1.274 -2.1268  0.6940  0.5151
  508SOL     OW 1522   1.464   0.803   1.577 -0.4462  0.0644  0.1741
  508SOL    HW1 1523   1.416   0.759   1.501  4.5542  0.9029  3.5376
  508SOL    HW2 1524   1.435   0.762   1.668 -1.8992  1.1728  0.6295
  509SOL     OW 1525   1.486   2.373   1.882 -0.7716  0.7673  0.4656
  509SOL    HW1 1526   1.559   2.395   1.815  1.8704  4.2786 -1.0530
  509SOL    HW2 1527   1.523   2.377   1.976 -0.1033  3.0210 -4.4578
  510SOL     OW 1528   2.473   1.329   3.056  0.5670  0.3275  0.7564
  510SOL    HW1 1529   2.496   1.351   0.038  0.5785  0.1352  0.7216
  510SOL    HW2 1530   2.384   1.282   3.052  3.6602  1.0486  0.7191
  511SOL     OW 1531   0.342   1.581   1.391  0.6113  0.6829  0.6235
  511SOL    HW1 1532   0.400   1.522   1.332  1.2361  1.0479  0.8569
  511SOL    HW2 1533   0.375   1.582   1.490  2.6147  1.5201 -0.1826
  512SOL     OW 1534   2.699   2.440   0.150  0.2447 -1.2134 -0.4936
  512SOL    HW1 1535   2.800   2.445   0.139  0.2166  1.1326  0.8900
  512SOL    HW2 1536   2.670   2.394   0.236  1.6580  0.5460 -2.6846
  513SOL     OW 1537   0.660   1.787   2.599  0.3454  0.1746  0.0403
  513SOL    HW1 1538   0.720   1.730   2.654 -1.2089  0.6767  0.1672
  513SOL    HW2 1539   0.708   1.871   2.556  0.5689 -2.4947 -3.9392
  514SOL     OW 1540   0.218   2.317   2.327  0.5521 -0.1449  0.1161
  514SOL    HW1 1541   0.203   2.212   2.328  0.4795 -0.2086 -2.3871
  514SOL    HW2 1542   0.126   2.367   2.328 -2.8395  0.7670 -1.5230
  515SOL     OW 1543   1.951   1.201   1.656 -0.0727 -0.4961 -0.1208
  515SOL    HW1 1544   1.992   1.213   1.748  2.6279  0.2803  0.0180
  515SOL    HW2 1545   2.011   1.238   1.584 -1.0095  0.3632  2.3200
  516SOL     OW 1546   1.732   2.496   0.058 -0.2456 -0.4648  0.0562
  516SOL    HW1 1547   1.793   2.555   3.114  0.3359 -0.9305  1.9235
  516SOL    HW2 1548   1.782   2.407   0.073  0.9935  0.1665 -1.4008
  517SOL     OW 1549   0.772   1.696   0.543  0.3038 -0.0621  0.0507
  517SOL    HW1 1550   0.842   1.761   0.514 -2.8345 -1.8340  0.3662
  517SOL    HW2 1551   0.786   1.599   0.518 -0.8747 -0.9269 -0.6886
  518SOL     OW 1552   2.029   2.527   1.501  0.4539  0.0514  0.0559
  518SOL    HW1 1553   1.948   2.568   1.548  0.3896 -0.7450 -1.1378
  518SOL    HW2 1554   2.007   2.506   1.405  1.1972 -0.6605  0.1995
  519SOL     OW 1555   2.225   2.373   0.916 -0.2988 -0.2885  0.2690
  519SOL    HW1 1556   2.193   2.454   0.971 -0.7837 -0.4622  0.1659
  519SOL    HW2 1557   2.151   2.335   0.860 -0.7229 -1.4519  0.4075
  520SOL     OW 1558   2.876   2.182   2.553  0.2967 -0.1592 -0.6256
  520SOL    HW1 1559   2.876   2.130   2.465  0.1490  1.1180  2.8741
  520SOL    HW2 1560   2.974   2.206   2.572  1.4748  1.9645  0.9157
  521SOL     OW 1561   2.672   1.100   2.466 -0.0244 -0.0299  0.4478
  521SOL    HW1 1562   2.659   1.003   2.432 -0.1857 -1.0395 -0.4724
  521SOL    HW2 1563   2.598   1.140   2.522  0.0935  2.2921 -3.3258
  522SOL     OW 1564   0.984   0.612   2.382 -0.1310 -0.2652 -0.2066
  522SOL    HW1 1565   1.068   0.601   2.327  1.9574  0.8497  1.3040
  522SOL    HW2 1566   0.899   0.584   2.333 -2.2630  0.5525  0.0645
  523SOL     OW 1567   0.126   2.151   1.016  0.8065 -0.0133  0.3072
  523SOL    HW1 1568   0.196   2.168   0.947 -1.4101  1.7773  2.5793
  523SOL    HW2 1569   0.092   2.239   1.050 -0.1439  0.6428  0.1478
  524SOL     OW 1570   1.925   2.696   3.104  0.1617 -0.5517  0.0080
  524SOL    HW1 1571   1.907   2.719   0.088 -3.2332 -0.0470  0.7100
  524SOL    HW2 1572   2.021   2.723   3.075 -0.1481  2.3128  1.3063
  525SOL     OW 1573   2.179   0.618   1.238 -0.1492 -0.1276 -0.5669
  525SOL    HW1 1574   2.140   0.605   1.143  1.7356 -0.9843  1.4699
  525SOL    HW2 1575   2.193   0.534   1.297  2.9895 -1.4626  1.4779
  526SOL     OW 1576   0.921   2.444   0.668 -0.1244 -0.2519  0.0938
  526SOL    HW1 1577   0.840   2.502   0.688  1.1527 -0.6782  1.6454
  526SOL    HW2 1578   0.927   2.366   0.731  0.4436  1.7285 -0.4252
  527SOL     OW 1579   2.208   2.945   0.350 -0.2157 -0.1843 -0.0339
  527SOL    HW1 1580   2.249   2.919   0.439 -0.9220 -0.1520  0.3772
  527SOL    HW2 1581   2.241   2.884   0.275 -1.2370  0.5931 -2.2960
  528SOL     OW 1582   1.625   0.738   0.476  0.8371 -0.7384  0.1978
  528SOL    HW1 1583   1.569   0.768   0.558 -1.5099 -0.1252  1.2822
  528SOL    HW2 1584   1.641   0.640   0.472  1.9127  3.5408 -0.4956
  529SOL     OW 1585   1.476   1.516   2.654  0.6950  0.1711  0.2879
  529SOL    HW1 1586   1.385   1.535   2.697  0.2815  1.2679 -0.2093
  529SOL    HW2 1587   1.476   1.505   2.549 -0.2091  0.0916 -2.3484
  530SOL     OW 1588   2.419   0.411   0.117 -0.3114 -0.4368 -0.4252
  530SOL    HW1 1589   2.352   0.486   0.139 -0.7424  0.8223  0.3178
  530SOL    HW2 1590   2.367   0.334   0.078 -0.0928  0.8147 -2.4011
  531SOL     OW 1591   1.581   0.908   2.712 -0.3439  0.1329  0.1216
  531SOL    HW1 1592   1.649   0.962   2.661 -0.6538 -0.1497 -1.1163
  531SOL    HW2 1593   1.599   0.806   2.702 -3.0242 -0.2954  1.3981
  532SOL     OW 1594   1.575   0.600   0.975  0.6499 -0.6891 -0.0589
  532SOL    HW1 1595   1.491   0.639   0.930  0.4432 -0.9308  0.6103
  532SOL    HW2 1596   1.628   0.670   1.024 -1.0865 -0.4997  0.6919
  533SOL     OW 1597   0.559   1.000   2.739 -0.3926  0.4868 -0.0781
  533SOL    HW1 1598   0.530   1.098   2.763 -0.6347 -0.2352  2.8492
  533SOL    HW2 1599   0.641   1.006   2.675  3.7992  1.5148  2.8845
  534SOL     OW 1600   1.651   0.320   2.636  0.4049 -0.1166 -0.3888
  534SOL    HW1 1601   1.659   0.352   2.730 -0.1576 -2.1875  0.0082
  534SOL    HW2 1602   1.555   0.298   2.612  1.2857  0.2342  1.1629
  535SOL     OW 1603   0.196   2.945   2.739  0.0704  0.2181  0.1336
  535SOL    HW1 1604   0.217   2.841   2.734 -1.3308 -0.5231 -0.5409
  535SOL    HW2 1605   0.099   2.965   2.734  2.2962 -2.3166  0.9568
  536SOL     OW 1606   0.320   0.304   0.343  0.3205 -0.4000 -0.1275
  536SOL    HW1 1607   0.406   0.266   0.305  0.6805  0.3970 -0.1642
  536SOL    HW2 1608   0.282   0.246   0.419 -1.7934 -0.4147  0.5086
  537SOL     OW 1609   1.554   0.186   0.231 -0.6247  0.4511  0.3297
  537SOL    HW1 1610   1.529   0.227   0.138  1.0622  1.3209 -0.0918
  537SOL    HW2 1611   1.473   0.176   0.291  1.2813 -0.9477 -0.6781
  538SOL     OW 1612   2.830   2.026   2.851 -0.5547 -0.0539 -0.2326
  538SOL    HW1 1613   2.894   1.950   2.885  2.6366  1.4835  1.5399
  538SOL    HW2 1614   2.785   2.079   2.929 -0.7737  0.7663  1.9189
  539SOL     OW 1615   2.189   1.915   0.004  0.2116 -0.3459 -0.6356
  539SOL    HW1 1616   2.106   1.946   3.073 -1.7935  2.8672  1.8060
  539SOL    HW2 1617   2.273   1.901   3.062  2.7153  1.3560 -0.1571
  540SOL     OW 1618   0.803   2.659   1.856 -0.0160 -0.0812 -0.2674
  540SOL    HW1 1619   0.739   2.593   1.893  0.3305 -0.0931  2.0589
  540SOL    HW2 1620   0.803   2.659   1.754 -1.4299 -1.5826 -0.4041
  541SOL     OW 1621   2.539   0.261   2.208 -0.3390  0.6969 -0.2372
  541SOL    HW1 1622   2.497   0.319   2.282 -0.8352 -1.3862 -1.5258
  541SOL    HW2 1623   2.463   0.232   2.147  2.6789 -1.1038 -0.0840
  542SOL     OW 1624   0.264   0.639   2.754  0.0169 -0.1650 -0.8416
  542SOL    HW1 1625   0.271   0.551   2.709 -0.7450  0.5331  2.6595
  542SOL    HW2 1626   0.191   0.634   2.821  0.0268 -0.2968 -1.2675
  543SOL     OW 1627   0.277   0.750   1.128  0.0608 -0.2064 -1.0355
  543SOL    HW1 1628   0.312   0.787   1.042  3.5001  0.5896  0.6024
  543SOL    HW2 1629   0.175   0.766   1.141 -1.6879 -0.0340 -0.2862
  544SOL     OW 1630   2.515   0.486   0.967  0.1511 -0.0177 -0.1272
  544SOL    HW1 1631   2.598   0.522   1.016  3.0920 -1.6148 -1.0700
  544SOL    HW2 1632   2.456   0.558   0.929 -2.6370  2.2799 -0.3164
  545SOL     OW 1633   1.553   2.186   0.598  0.0934  0.2393 -0.4134
  545SOL    HW1 1634   1.542   2.086   0.591 -2.0931 -1.5033  1.2164
  545SOL    HW2 1635   1.558   2.222   0.696  1.0045  0.9384  1.8073
  546SOL     OW 1636   2.366   2.877   1.422  0.0679  0.0005  0.4628
  546SOL    HW1 1637   2.453   2.903   1.465 -1.4422  1.1983  0.3129
  546SOL    HW2 1638   2.291   2.950   1.440 -1.6406  2.9483  0.0466
  547SOL     OW 1639   0.509   2.888   2.386  0.1635  0.4457  0.2570
  547SOL    HW1 1640   0.414   2.864   2.387  1.2081 -0.5594  0.7228
  547SOL    HW2 1641   0.524   2.956   2.312 -1.4781  0.0787 -0.3889
  548SOL     OW 1642   1.413   0.646   2.929 -0.0141  0.4430  0.6134
  548SOL    HW1 1643   1.424   0.716   2.996 -0.4214 -1.5764  0.1478
  548SOL    HW2 1644   1.492   0.646   2.868 -0.9717  1.7613 -0.7636
  549SOL     OW 1645   2.773   0.958   0.462  0.0342  0.6506  0.2432
  549SOL    HW1 1646   2.769   0.972   0.565 -1.5125  4.4872  0.9052
  549SOL    HW2 1647   2.678   0.943   0.420 -0.3583  0.7842 -1.7146
  550SOL     OW 1648   1.911   2.001   0.638 -0.2265 -0.6119 -0.2814
  550SOL    HW1 1649   1.866   1.978   0.554 -1.1505 -0.2550 -0.1090
  550SOL    HW2 1650   1.900   1.928   0.710 -1.3314  1.0128 -4.2584
  551SOL     OW 1651   1.251   0.000   1.020 -0.1411 -0.3353  0.1382
  551SOL    HW1 1652   1.344   3.082   1.038  0.1150 -1.2361 -3.3010
  551SOL    HW2 1653   1.183   3.054   1.065  2.3783  3.0689  4.3046
  552SOL     OW 1654   2.685   2.799   2.187 -0.3373  0.1893  0.0411
  552SOL    HW1 1655   2.585   2.791   2.167  1.2292 -0.2677  2.6771
  552SOL    HW2 1656   2.709   2.740   2.263 -3.9328  0.8982  0.3524
  553SOL     OW 1657   0.318   2.924   2.094 -0.0080 -0.0656  0.1138
  553SOL    HW1 1658   0.381   2.846   2.071 -2.7058 -2.1551  1.8672
  553SOL    HW2 1659   0.376   2.996   2.142  0.0975  0.6731  1.2914
  554SOL     OW 1660   0.655   3.034   1.022  0.1254 -0.7663 -0.2988
  554SOL    HW1 1661   0.584   3.108   1.031 -0.0350  1.9133  2.0899
  554SOL    HW2 1662   0.717   3.048   0.940 -0.0836  0.1377 -0.6932
  555SOL     OW 1663   2.628   2.267   2.134 -0.0175  0.1040  0.0035
  555SOL    HW1 1664   2.659   2.184   2.184 -0.2451  1.0824  1.7879
  555SOL    HW2 1665   2.531   2.290   2.155  0.0066 -0.3039 -1.8787
  556SOL     OW 1666   1.191   0.210   2.829  0.2989  0.5699 -0.1121
  556SOL    HW1 1667   1.127   0.274   2.872 -1.7225 -1.0960  0.3888
  556SOL    HW2 1668   1.140   0.143   2.771 -0.3539  0.9791  1.1429
  557SOL     OW 1669   0.384   1.553   2.275 -0.3280  0.1712  0.4914
  557SOL    HW1 1670   0.304   1.572   2.330  0.4393 -2.0144  0.8935
  557SOL    HW2 1671   0.468   1.562   2.334  0.7507  0.4166  0.2975
  558SOL     OW 1672   2.374   0.942   0.015 -0.0290  0.4518 -0.0725
  558SOL    HW1 1673   2.410   0.896   3.046  1.6192  2.1074 -0.4544
  558SOL    HW2 1674   2.408   0.887   0.094  0.6650  1.7449 -0.8336
  559SOL     OW 1675   2.657   2.080   1.639 -0.0083  0.3435  0.1923
  559SOL    HW1 1676   2.566   2.124   1.624  2.6596 -1.9241 -0.2854
  559SOL    HW2 1677   2.702   2.132   1.705 -2.9092 -2.6583 -2.1190
  560SOL     OW 1678   2.538   1.038   1.859  0.4653 -0.0008  0.1594
  560SOL    HW1 1679   2.482   0.960   1.827  1.6740  1.4702  2.5403
  560SOL    HW2 1680   2.620   1.001   1.908 -0.8565 -3.6935 -0.3638
  561SOL     OW 1681   3.046   3.020   2.744  0.0737 -0.3102  0.0530
  561SOL    HW1 1682   2.970   3.007   2.673  0.5912 -0.0567  2.4564
  561SOL    HW2 1683   3.045   2.944   2.814 -3.8210 -2.2776  2.8285
  562SOL     OW 1684   1.102   1.372   1.468  0.2855 -0.0951 -0.0241
  562SOL    HW1 1685   1.195   1.345   1.499 -0.8772 -2.5267 -1.4644
  562SOL    HW2 1686   1.027   1.317   1.513 -1.1060 -0.7388 -0.9258
  563SOL     OW 1687   1.298   0.067   3.029  0.2666  0.4611  0.1169
  563SOL    HW1 1688   1.382   0.023   2.990  0.9442  0.2900  1.5723
  563SOL    HW2 1689   1.265   0.136   2.964 -1.2668 -2.6323 -2.2584
  564SOL     OW 1690   0.137   2.361   0.733 -0.0158 -0.3462  0.2044
  564SOL    HW1 1691   0.198   2.311   0.791 -1.2670  1.7227 -0.4841
  564SOL    HW2 1692   0.047   2.375   0.782 -2.2098  1.9210 -1.4145
  565SOL     OW 1693   0.594   2.223   1.339  0.0715 -0.3253  0.1324
  565SOL    HW1 1694   0.547   2.178   1.262 -0.2610 -1.9808  1.1622
  565SOL    HW2 1695   0.678   2.271   1.304 -0.0668 -0.9790 -0.5038
  566SOL     OW 1696   1.344   2.552   2.012 -0.7073 -0.2659  0.7972
  566SOL    HW1 1697   1.256   2.495   2.017  0.6945 -1.1295 -0.7122
  566SOL    HW2 1698   1.424   2.497   1.970 -1.4777 -1.1946  0.1028
  567SOL     OW 1699   2.314   2.862   0.559  0.4830  0.1566 -0.5848
  567SOL    HW1 1700   2.304   2.884   0.661 -1.5910  1.0072 -0.6966
  567SOL    HW2 1701   2.394   2.804   0.539 -1.0724 -1.2048 -1.1494
  568SOL     OW 1702   1.690   1.059   0.699 -0.1275  0.0833 -0.1818
  568SOL    HW1 1703   1.710   0.985   0.766 -2.2354  0.6318  0.4027
  568SOL    HW2 1704   1.747   1.044   0.616  0.4138  0.0540 -1.0423
  569SOL     OW 1705   0.066   1.699   2.704  0.5344  0.0001  0.3430
  569SOL    HW1 1706   0.106   1.701   2.796 -0.6319  0.0041 -0.7203
  569SOL    HW2 1707   3.103   1.636   2.699  0.4027 -2.9801  0.0912
  570SOL     OW 1708   3.022   0.121   1.503  0.0529  0.1775 -0.0955
  570SOL    HW1 1709   3.012   0.156   1.410  1.2850 -0.0861 -1.5630
  570SOL    HW2 1710   3.114   0.075   1.515  1.6827  0.8381 -0.7784
  571SOL     OW 1711   0.429   0.388   1.750  0.1339  0.2434 -0.2125
  571SOL    HW1 1712   0.464   0.319   1.811  0.4344 -1.4023 -3.4858
  571SOL    HW2 1713   0.420   0.480   1.791 -0.6918 -3.1382  0.5221
  572SOL     OW 1714   0.236   2.465   1.156 -1.1053 -0.0465 -0.4381
  572SOL    HW1 1715   0.146   2.421   1.145  2.5923  3.1441 -1.5540
  572SOL    HW2 1716   0.234   2.508   1.244 -0.7825 -0.4288 -0.1884
  573SOL     OW 1717   1.055   0.458   0.156 -0.3114  0.7240  0.2212
  573SOL    HW1 1718   0.956   0.473   0.141 -0.9256  1.1735  0.3875
  573SOL    HW2 1719   1.080   0.359   0.169  1.4988  2.9390  2.8076
  574SOL     OW 1720   2.671   2.863   0.040  0.0159  0.0388 -0.4783
  574SOL    HW1 1721   2.770   2.848   0.071  2.6176 -1.2052 -0.5161
  574SOL    HW2 1722   2.635   2.958   0.047 -2.5929 -0.9058  1.1828
  575SOL     OW 1723   1.459   2.526   1.163 -0.4860 -0.2096  0.3608
  575SOL    HW1 1724   1.373   2.469   1.149 -0.2474 -1.1191  0.9816
  575SOL    HW2 1725   1.433   2.628   1.175 -0.8737  1.0236  0.1578
  576SOL     OW 1726   1.125   2.885   1.107  0.0564 -0.1248  0.5201
  576SOL    HW1 1727   1.122   2.834   1.019  2.0371  0.3143  0.7614
  576SOL    HW2 1728   1.031   2.906   1.144 -0.7969  0.1573 -0.6435
  577SOL     OW 1729   2.412   1.256   0.782 -0.2153 -0.1659 -0.4713
  577SOL    HW1 1730   2.477   1.314   0.731 -1.6708 -0.2496  0.2945
  577SOL    HW2 1731   2.452   1.165   0.810 -1.4537 -0.1497  1.1294
  578SOL     OW 1732   1.397   0.335   0.582 -0.6323  0.6356 -0.4680
  578SOL    HW1 1733   1.500   0.353   0.564  3.5831 -0.4439 -1.2805
  578SOL    HW2 1734   1.362   0.357   0.673  1.0268  4.2530 -0.9296
  579SOL     OW 1735   2.200   0.701   2.973 -0.2134  0.2348 -0.0292
  579SOL    HW1 1736   2.266   0.624   2.972  2.0117 -3.1134 -1.4107
  579SOL    HW2 1737   2.203   0.751   2.879  1.3136  0.1382  0.3135
  580SOL     OW 1738   1.582   0.583   2.373  0.4097  0.0785 -0.5156
  580SOL    HW1 1739   1.670   0.553   2.410 -0.5419  3.3717 -1.5330
  580SOL    HW2 1740   1.582   0.685   2.375 -1.7973 -3.5637 -1.0986
  581SOL     OW 1741   0.342   0.766   0.861  0.4090 -0.3444 -0.8204
  581SOL    HW1 1742   0.386   0.847   0.818 -0.6199  0.8619 -0.3546
  581SOL    HW2 1743   0.260   0.734   0.805 -1.9888 -0.2831 -2.1246
  582SOL     OW 1744   2.869   0.218   1.945  0.0145 -0.3092 -0.6813
  582SOL    HW1 1745   2.817   0.296   1.987 -2.5607  0.9578  0.8400
  582SOL    HW2 1746   2.971   0.238   1.952 -1.0079 -0.3301  0.8147
  583SOL     OW 1747   0.380   0.571   2.151  0.3389  0.2065 -0.1007
  583SOL    HW1 1748   0.422   0.537   2.239  2.1072 -2.4025 -0.8711
  583SOL    HW2 1749   0.344   0.496   2.094  0.8707  2.9287 -0.1070
  584SOL     OW 1750   1.263   2.188   2.942  0.3433  0.2537  0.5866
  584SOL    HW1 1751   1.337   2.119   2.938 -1.2405 -1.0011 -0.3991
  584SOL    HW2 1752   1.268   2.245   3.023 -0.2495 -0.6392  1.9018
  585SOL     OW 1753   0.248   2.660   2.730  0.1165 -0.0855  0.0543
  585SOL    HW1 1754   0.214   2.599   2.803  1.1332 -2.4303 -1.0844
  585SOL    HW2 1755   0.350   2.666   2.732  1.1732  1.6790  1.1501
  586SOL     OW 1756   1.826   1.757   2.551 -0.1588  0.2039 -0.3409
  586SOL    HW1 1757   1.848   1.836   2.490  2.1104  0.2481 -2.4874
  586SOL    HW2 1758   1.909   1.694   2.559  0.2835 -2.8595  0.6782
  587SOL     OW 1759   2.141   2.307   0.155 -0.3403  0.1046  0.0458
  587SOL    HW1 1760   2.222   2.296   0.090 -0.7913  0.6976 -1.8726
  587SOL    HW2 1761   2.126   2.222   0.211  0.3139 -0.7714  1.0378
  588SOL     OW 1762   2.778   0.179   1.118  0.0408 -0.3377 -0.3058
  588SOL    HW1 1763   2.756   0.101   1.182 -1.9671 -3.1514 -0.1823
  588SOL    HW2 1764   2.765   0.151   1.022 -0.6266 -2.5685 -1.7599
  589SOL     OW 1765   0.521   0.717   0.533 -0.1333  0.0249  0.6686
  589SOL    HW1 1766   0.555   0.687   0.623 -1.9859  0.1553  1.1804
  589SOL    HW2 1767   0.446   0.647   0.516  0.6826 -1.7779  0.7801
  590SOL     OW 1768   2.087   2.091   0.297 -0.5456  0.2712 -0.5516
  590SOL    HW1 1769   2.113   2.027   0.370 -2.2327 -0.7728  0.5002
  590SOL    HW2 1770   1.999   2.076   0.250  0.3797  4.1005  0.6555
  591SOL     OW 1771   0.461   2.334   1.070  0.3217  0.4551 -0.2786
  591SOL    HW1 1772   0.382   2.387   1.110 -0.4021  0.6934 -2.4456
  591SOL    HW2 1773   0.537   2.396   1.046 -0.0358 -0.5813  1.4119
  592SOL     OW 1774   1.351   0.583   1.428 -0.1482 -0.1985 -0.3781
  592SOL    HW1 1775   1.252   0.613   1.423  0.3223  1.1487  3.0867
  592SOL    HW2 1776   1.362   0.506   1.496  0.0436 -1.7256  0.7853
  593SOL     OW 1777   1.077   1.654   1.444 -0.1458  0.9610 -0.1926
  593SOL    HW1 1778   1.088   1.553   1.463  0.4794  0.1631  0.2909
  593SOL    HW2 1779   1.022   1.701   1.514  2.1680 -0.8315 -1.0674
  594SOL     OW 1780   1.027   2.152   0.423  0.7306 -0.0585  0.2970
  594SOL    HW1 1781   0.998   2.189   0.330  0.2669 -0.6152 -0.5597
  594SOL    HW2 1782   1.078   2.220   0.476 -2.5276  1.1026  1.1995
  595SOL     OW 1783   1.721   0.774   1.489  0.1137 -0.1662 -0.0893
  595SOL    HW1 1784   1.786   0.851   1.502 -0.5665  1.8233  3.1510
  595SOL    HW2 1785   1.627   0.783   1.526 -1.8178 -1.0677 -1.6805
  596SOL     OW 1786   2.619   0.891   1.580 -0.0437  0.7873  0.1956
  596SOL    HW1 1787   2.711   0.931   1.611  0.4689  1.1814 -0.8578
  596SOL    HW2 1788   2.592   0.934   1.488 -1.1584  1.8803 -1.3164
  597SOL     OW 1789   0.713   2.358   2.375  0.3157 -0.1616  1.1304
  597SOL    HW1 1790   0.709   2.430   2.445  1.0925  0.6736 -2.0034
  597SOL    HW2 1791   0.787   2.295   2.382 -2.4972  2.9779  1.7567
  598SOL     OW 1792   2.645   1.810   1.654  0.3292  0.5681 -0.0186
  598SOL    HW1 1793   2.666   1.910   1.664 -0.2119  1.3796  1.9257
  598SOL    HW2 1794   2.555   1.792   1.611 -1.5823  1.8783  0.0460
  599SOL     OW 1795   0.833   2.892   0.053  0.7405 -0.0372  0.6738
  599SOL    HW1 1796   0.733   2.899   0.070 -1.0294 -1.2583 -0.5969
  599SOL    HW2 1797   0.887   2.917   0.131  0.0853 -1.7545  1.3939
  600SOL     OW 1798   3.082   2.199   2.884  0.6502  0.1482 -0.6430
  600SOL    HW1 1799   3.041   2.270   2.946 -0.3537 -1.1857 -0.0523
  600SOL    HW2 1800   3.002   2.142   2.855 -2.1769 -0.1574 -1.4758
  601SOL     OW 1801   0.416   0.686   1.350 -0.1119  0.0145 -0.2233
  601SOL    HW1 1802   0.348   0.690   1.273 -1.6742 -0.3736 -1.2971
  601SOL    HW2 1803   0.416   0.776   1.399 -1.5331 -2.5235 -1.6679
  602SOL     OW 1804   0.577   0.299   0.647  0.1724  0.3242 -0.3549
  602SOL    HW1 1805   0.637   0.353   0.711  0.6896 -1.0571  3.2471
  602SOL    HW2 1806   0.476   0.306   0.664 -1.9712  1.4935 -1.8162
  603SOL     OW 1807   0.488   0.252   2.738  0.4770  0.0191  0.2997
  603SOL    HW1 1808   0.402   0.285   2.694 -2.0928 -4.0952  1.3709
  603SOL    HW2 1809   0.504   0.300   2.828 -0.7884 -3.3291 -0.6910
  604SOL     OW 1810   0.742   2.799   1.442 -0.9372  0.6894 -0.1330
  604SOL    HW1 1811   0.644   2.772   1.428  1.0404 -2.6490  0.0482
  604SOL    HW2 1812   0.781   2.757   1.526 -0.1291  0.3380  0.2234
  605SOL     OW 1813   1.531   1.024   2.128  0.2014  0.2397 -0.1424
  605SOL    HW1 1814   1.450   1.066   2.077 -0.5391 -0.2306 -0.0998
  605SOL    HW2 1815   1.612   1.088   2.118  0.1861  0.0425 -0.4595
  606SOL     OW 1816   2.157   2.800   3.024  0.5931  0.0595 -0.4335
  606SOL    HW1 1817   2.202   2.794   0.001 -0.9893  1.5705  0.9790
  606SOL    HW2 1818   2.230   2.807   2.951  1.2788  3.8661  0.5822
  607SOL     OW 1819   1.062   0.307   1.224  0.5579 -0.2752  0.0839
  607SOL    HW1 1820   1.093   0.324   1.317  0.1214 -0.1121 -3.7399
  607SOL    HW2 1821   1.031   0.210   1.206 -0.1488 -0.8132  0.5059
  608SOL     OW 1822   0.241   1.554   2.546  0.0198  0.0880  0.1521
  608SOL    HW1 1823   0.334   1.564   2.589 -2.9242  1.1430 -1.4542
  608SOL    HW2 1824   0.172   1.609   2.594  1.4808 -0.8668 -2.5388
  609SOL     OW 1825   1.313   1.445   0.296  0.1431 -0.1259 -0.0122
  609SOL    HW1 1826   1.382   1.514   0.322 -0.6260 -1.7152 -1.7235
  609SOL    HW2 1827   1.237   1.490   0.246 -0.1769  2.1791 -0.0632
  610SOL     OW 1828   0.036   0.367   1.030 -0.6668  0.1507  0.2101
  610SOL    HW1 1829   0.019   0.267   1.037  1.1834 -1.6931 -0.5307
  610SOL    HW2 1830   0.134   0.396   1.035  0.2684  2.4184  1.5751
  611SOL     OW 1831   1.299   1.045   0.626  0.8835  0.2696  0.2542
  611SOL    HW1 1832   1.278   1.139   0.596 -1.4683 -1.5892  1.3230
  611SOL    HW2 1833   1.277   0.979   0.553  0.8268  1.5161 -1.0071
  612SOL     OW 1834   2.032   1.507   0.135  0.2448  0.3591  0.1253
  612SOL    HW1 1835   1.973   1.485   0.215 -0.7076  1.3006  1.4503
  612SOL    HW2 1836   2.097   1.583   0.161  1.9891 -1.6102  0.7331
  613SOL     OW 1837   1.605   1.052   0.087 -0.0854 -0.9768 -0.9450
  613SOL    HW1 1838   1.582   1.054   3.101 -2.1669 -1.2577 -1.2283
  613SOL    HW2 1839   1.577   1.138   0.137 -1.0527  2.3139  0.1108
  614SOL     OW 1840   2.757   0.173   2.456  0.5203  0.1499  0.2367
  614SOL    HW1 1841   2.861   0.167   2.450  1.4672  0.4213  2.2584
  614SOL    HW2 1842   2.708   0.100   2.400 -1.3903  1.6306 -2.8953
  615SOL     OW 1843   0.784   2.082   1.053  0.3105  0.3360 -0.9854
  615SOL    HW1 1844   0.829   2.001   1.014 -0.7346 -1.1461  1.3381
  615SOL    HW2 1845   0.688   2.059   1.090 -0.4966  0.4001 -0.4251
  616SOL     OW 1846   1.730   1.019   2.489  0.3323 -0.4562  0.0704
  616SOL    HW1 1847   1.754   1.115   2.468  1.0172 -0.2854  0.3349
  616SOL    HW2 1848   1.822   0.970   2.491  1.3928  0.9082 -1.0633
  617SOL     OW 1849   1.145   0.220   0.233 -0.2144  0.1353  0.0533
  617SOL    HW1 1850   1.206   0.281   0.289 -0.8475  0.0321  0.7462
  617SOL    HW2 1851   1.195   0.133   0.207  0.2635 -1.1277 -0.0393
  618SOL     OW 1852   2.376   2.088   2.358  0.2708  0.2825  0.0440
  618SOL    HW1 1853   2.295   2.094   2.296 -1.0554 -3.0198 -2.2987
  618SOL    HW2 1854   2.348   2.120   2.451 -1.4899  0.1915 -2.3476
  619SOL     OW 1855   2.288   1.936   0.901  0.2195  0.6814 -0.1116
  619SOL    HW1 1856   2.288   1.990   0.986  3.0326  0.6473 -0.6105
  619SOL    HW2 1857   2.342   1.980   0.825  0.2209 -0.5699 -2.4670
  620SOL     OW 1858   2.250   2.737   1.770  0.0727 -0.0478 -0.2208
  620SOL    HW1 1859   2.340   2.707   1.805  1.1231 -0.9473  2.0985
  620SOL    HW2 1860   2.189   2.654   1.778  1.0544  0.3859 -1.6638
  621SOL     OW 1861   3.088   1.845   0.835  0.2771  0.0665  0.0941
  621SOL    HW1 1862   3.035   1.848   0.747 -0.9534 -0.2392 -1.4943
  621SOL    HW2 1863   0.058   1.899   0.818  1.7712  2.5136 -3.6960
  622SOL     OW 1864   1.164   1.915   2.856  0.1790  0.7012  0.3648
  622SOL    HW1 1865   1.089   1.944   2.789  1.7199 -1.3393 -1.9781
  622SOL    HW2 1866   1.123   1.904   2.946  0.9026 -2.0877 -2.2304
  623SOL     OW 1867   2.706   2.551   2.384 -0.1533  0.1760  0.5400
  623SOL    HW1 1868   2.736   2.511   2.292  0.5705  0.7660 -3.1154
  623SOL    HW2 1869   2.779   2.551   2.448 -3.7084  3.0313  0.0728
  624SOL     OW 1870   0.804   2.451   0.432 -0.1046  0.2333 -0.4356
  624SOL    HW1 1871   0.876   2.445   0.509 -2.1442 -0.2029  0.9724
  624SOL    HW2 1872   0.731   2.377   0.443  0.8037 -0.2810 -0.0726
  625SOL     OW 1873   0.358   1.867   2.170  0.2945  0.1571 -0.0024
  625SOL    HW1 1874   0.351   1.769   2.198 -2.2328 -1.8628 -0.2990
  625SOL    HW2 1875   0.452   1.897   2.148  2.0504 -0.5539 -1.0694
  626SOL     OW 1876   0.466   2.713   0.016 -0.0141 -0.3206  0.6503
  626SOL    HW1 1877   0.518   2.686   0.101  0.7266  0.4019  0.3172
  626SOL    HW2 1878   0.364   2.694   0.019 -1.2216  0.4621  1.7836
  627SOL     OW 1879   1.543   1.681   3.037 -0.1190 -0.2046 -0.3166
  627SOL    HW1 1880   1.545   1.732   2.951  0.7050 -0.1068  1.3259
  627SOL    HW2 1881   1.540   1.737   0.006 -2.5894 -1.3532  1.2968
  628SOL     OW 1882   1.528   2.293   0.838 -0.6974 -0.4175 -0.2823
  628SOL    HW1 1883   1.478   2.233   0.906  0.6026  1.4998 -2.5100
  628SOL    HW2 1884   1.596   2.358   0.887  1.7010  0.5238  3.3817
  629SOL     OW 1885   0.573   0.303   1.496  0.0508  0.8202 -0.0101
  629SOL    HW1 1886   0.519   0.353   1.566 -0.7534 -1.4353 -0.5783
  629SOL    HW2 1887   0.659   0.261   1.531  0.3157  0.1307  0.3374
  630SOL     OW 1888   2.385   0.449   1.584 -0.1024  0.0666  0.0787
  630SOL    HW1 1889   2.328   0.495   1.654  1.1904  1.8221 -1.1411
  630SOL    HW2 1890   2.326   0.430   1.500 -1.0683  1.4265 -1.5368
  631SOL     OW 1891   1.495   0.377   1.145  0.4094  0.1229 -0.2959
  631SOL    HW1 1892   1.544   0.439   1.088  0.8189 -4.2390  2.0400
  631SOL    HW2 1893   1.401   0.356   1.110 -0.2377 -0.9877 -2.3446
  632SOL     OW 1894   2.772   0.899   1.925 -0.7107 -0.2608  0.6724
  632SOL    HW1 1895   2.807   0.915   1.826  0.1692  0.4349 -2.5196
  632SOL    HW2 1896   2.852   0.917   1.985 -2.5022 -0.7845 -1.2594
  633SOL     OW 1897   1.343   0.852   0.037 -0.5825  0.4021  0.2566
  633SOL    HW1 1898   1.273   0.790   0.068 -0.3968 -0.6363 -1.4069
  633SOL    HW2 1899   1.353   0.935   0.098  1.7762  1.4098  1.9412
  634SOL     OW 1900   0.500   2.398   0.124  0.0081 -0.1473 -0.1471
  634SOL    HW1 1901   0.546   2.477   0.171  3.2010  1.5459  2.7701
  634SOL    HW2 1902   0.519   2.394   0.025 -0.7173 -1.6976  1.3778
  635SOL     OW 1903   2.993   1.592   1.749  0.5189  0.2137  0.5155
  635SOL    HW1 1904   2.905   1.627   1.792 -0.7165 -0.2394  0.5597
  635SOL    HW2 1905   3.064   1.609   1.824  3.5100 -0.4726  2.9644
  636SOL     OW 1906   3.007   1.684   0.206  0.0549  0.3389 -0.5440
  636SOL    HW1 1907   3.072   1.618   0.166 -2.2486 -0.3054 -0.4777
  636SOL    HW2 1908   3.024   1.782   0.180  0.0538 -0.2372  0.8666
  637SOL     OW 1909   2.856   2.524   0.531  0.0241  0.1101 -0.1811
  637SOL    HW1 1910   2.865   2.623   0.546 -2.2367 -2.0443  0.1170
  637SOL    HW2 1911   2.915   2.468   0.602  1.6815 -1.4479 -0.5677
  638SOL     OW 1912   2.923   2.841   0.131 -0.3621 -0.0140 -0.0456
  638SOL    HW1 1913   2.936   2.748   0.172 -0.2692 -2.8371 -0.6994
  638SOL    HW2 1914   3.012   2.884   0.103  0.0179  1.1565  1.7513
  639SOL     OW 1915   1.469   0.263   3.085  0.2695  0.5116  0.0551
  639SOL    HW1 1916   1.400   0.334   3.081  3.4741  0.6916  1.9743
  639SOL    HW2 1917   1.429   0.169   3.081  1.5091  1.2368  0.9023
  640SOL     OW 1918   2.429   2.203   1.514  0.1267  0.2120  0.5074
  640SOL    HW1 1919   2.445   2.187   1.415 -0.2598 -0.9852 -3.1834
  640SOL    HW2 1920   2.380   2.293   1.529  1.5750 -0.7549  0.1375
  641SOL     OW 1921   3.053   2.990   1.206  0.3700  0.1401  1.0661
  641SOL    HW1 1922   2.962   3.029   1.229  0.6153  2.2264 -0.9262
  641SOL    HW2 1923   0.015   3.047   1.235  0.9987  2.3967 -1.0567
  642SOL     OW 1924   1.618   1.078   1.346  0.0099  0.0837 -0.4159
  642SOL    HW1 1925   1.710   1.108   1.312  0.5195 -2.6988  1.4162
  642SOL    HW2 1926   1.632   1.052   1.440 -0.3910  2.6218 -0.6272
  643SOL     OW 1927   1.147   1.824   2.400  0.3691  0.2236 -0.4799
  643SOL    HW1 1928   1.243   1.860   2.396  2.9032 -4.7669  0.0354
  643SOL    HW2 1929   1.103   1.809   2.309 -0.4426  1.0067 -1.5402
  644SOL     OW 1930   1.726   3.091   2.184 -0.2646  0.2405  0.3049
  644SOL    HW1 1931   1.801   3.095   2.255  0.6242 -1.3179 -3.2162
  644SOL    HW2 1932   1.670   0.059   2.180 -1.2211 -0.9622  1.4859
  645SOL     OW 1933   1.624   1.042   1.798 -0.3927  0.5162 -0.2568
  645SOL    HW1 1934   1.531   1.067   1.770 -0.2086 -4.6866 -0.7531
  645SOL    HW2 1935   1.682   1.035   1.713 -0.0071  0.1467  0.6833
  646SOL     OW 1936   1.248   2.533   3.040 -0.1063  0.4683  0.5430
  646SOL    HW1 1937   1.217   2.569   2.950 -0.6440 -1.9563 -2.0822
  646SOL    HW2 1938   1.346   2.504   3.028 -1.3561  0.5825  0.3803
  647SOL     OW 1939   1.217   2.409   1.186  0.6267 -0.2438  0.3186
  647SOL    HW1 1940   1.137   2.432   1.126 -0.8141 -1.7202 -2.1321
  647SOL    HW2 1941   1.216   2.309   1.206 -1.3199 -0.1728  0.0486
  648SOL     OW 1942   2.960   2.741   1.254  0.4130 -0.3672  0.9010
  648SOL    HW1 1943   3.043   2.710   1.299 -1.5622 -1.1999  0.2551
  648SOL    HW2 1944   2.964   2.834   1.216 -2.9269 -3.7844  0.2828
  649SOL     OW 1945   1.015   2.460   2.619 -0.2463 -1.2562 -0.1560
  649SOL    HW1 1946   1.049   2.371   2.653  1.5405  2.4264 -0.5959
  649SOL    HW2 1947   0.915   2.473   2.623  2.9133  0.3500 -0.6630
  650SOL     OW 1948   2.971   1.814   2.948  0.3990 -0.1758  0.0205
  650SOL    HW1 1949   2.919   1.772   3.028 -2.8158  1.1580  0.2729
  650SOL    HW2 1950   3.055   1.761   2.940 -0.7067  4.2455  2.1335
  651SOL     OW 1951   2.352   2.296   2.062  0.1207 -0.5593  0.1406
  651SOL    HW1 1952   2.269   2.243   2.093  0.7096  3.4144  2.7610
  651SOL    HW2 1953   2.361   2.306   1.961  1.4045 -0.0155  2.3815
  652SOL     OW 1954   2.117   2.835   0.908 -0.0761  0.4146 -0.1169
  652SOL    HW1 1955   2.208   2.881   0.886  1.5007  1.7033 -0.9137
  652SOL    HW2 1956   2.054   2.817   0.830 -2.3283 -1.2671 -1.4917
  653SOL     OW 1957   2.951   1.159   1.288 -0.2792 -0.6258  0.5491
  653SOL    HW1 1958   2.874   1.222   1.314 -0.6148  0.3923 -2.7638
  653SOL    HW2 1959   2.961   1.153   1.185 -0.7296 -0.6858 -1.2583
  654SOL     OW 1960   0.971   0.392   2.885 -0.3893 -0.0395  0.3210
  654SOL    HW1 1961   0.923   0.449   2.815 -0.6837 -1.9975 -0.9849
  654SOL    HW2 1962   0.906   0.354   2.955  2.4181  0.5509  1.1135
  655SOL     OW 1963   1.087   0.766   1.134 -0.2824 -0.0289  0.0616
  655SOL    HW1 1964   1.011   0.707   1.166  0.7260  3.2591 -1.1395
  655SOL    HW2 1965   1.183   0.728   1.149  1.9231  0.6008  0.9198
  656SOL     OW 1966   0.602   2.482   1.963 -0.0842 -0.7577 -0.8996
  656SOL    HW1 1967   0.506   2.445   1.952  2.1012  0.8899  1.4455
  656SOL    HW2 1968   0.642   2.495   2.056  2.1088  0.7163  0.2393
  657SOL     OW 1969   2.424   1.151   0.205  0.1641 -0.4185  0.4775
  657SOL    HW1 1970   2.423   1.084   0.127 -2.8080 -1.2019 -1.4476
  657SOL    HW2 1971   2.508   1.203   0.205 -1.7484 -0.0270  1.4965
  658SOL     OW 1972   1.598   2.112   1.345  0.6689 -0.1127  0.1587
  658SOL    HW1 1973   1.559   2.155   1.265 -2.5724 -0.4789 -0.3361
  658SOL    HW2 1974   1.699   2.141   1.363 -0.7608  1.3630  0.4509
  659SOL     OW 1975   2.636   1.824   0.131  0.2143 -0.0899  0.5550
  659SOL    HW1 1976   2.719   1.776   0.092 -0.8292  1.3105  2.1869
  659SOL    HW2 1977   2.555   1.773   0.158 -1.4844  1.1325  0.8955
  660SOL     OW 1978   1.022   0.378   0.650  0.0297 -0.0407  0.5456
  660SOL    HW1 1979   1.026   0.280   0.631  0.5242 -0.4298  2.3114
  660SOL    HW2 1980   0.982   0.432   0.569  1.9612  0.2415  0.9320
  661SOL     OW 1981   1.784   0.300   0.328  0.4193  0.0120 -0.6342
  661SOL    HW1 1982   1.691   0.283   0.291 -1.1254 -2.3711 -1.7495
  661SOL    HW2 1983   1.833   0.369   0.264  0.0028  1.8810  0.4874
  662SOL     OW 1984   0.301   0.288   0.659  0.1681 -0.5264  0.0157
  662SOL    HW1 1985   0.246   0.366   0.695  1.8703  0.8398 -0.0136
  662SOL    HW2 1986   0.246   0.223   0.609  4.3262 -0.6284 -0.2697
  663SOL     OW 1987   1.258   2.909   2.252 -0.0367  0.4292  0.0489
  663SOL    HW1 1988   1.198   2.974   2.304 -1.4130  4.3360 -0.2715
  663SOL    HW2 1989   1.232   2.814   2.286 -1.5547 -1.7291 -0.0724
  664SOL     OW 1990   0.842   2.274   1.562 -0.2897 -0.2596 -0.5337
  664SOL    HW1 1991   0.796   2.262   1.658 -0.5512 -0.4910  1.1401
  664SOL    HW2 1992   0.778   2.294   1.488  2.5198  0.5266 -1.8921
  665SOL     OW 1993   1.275   2.209   1.755  0.1978 -0.3611  0.0323
  665SOL    HW1 1994   1.178   2.235   1.780  0.0191  1.6516  2.0538
  665SOL    HW2 1995   1.345   2.272   1.801 -1.1930  1.6902  0.6442
  666SOL     OW 1996   0.790   2.972   2.374 -0.1225 -0.8276  0.0251
  666SOL    HW1 1997   0.700   2.932   2.391 -0.3802  2.3237 -1.4649
  666SOL    HW2 1998   0.789   3.074   2.391 -1.6705 -0.0579  2.0943
  667SOL     OW 1999   2.585   1.071   1.377  0.1784  0.3377 -0.1231
  667SOL    HW1 2000   2.505   1.073   1.318  0.0378 -0.0821  2.7480
  667SOL    HW2 2001   2.643   1.154   1.372 -0.3067  0.8261  0.7360
  668SOL     OW 2002   1.808   0.216   1.781  0.3864 -0.9695  0.5691
  668SOL    HW1 2003   1.857   0.141   1.830 -0.8008  0.5474  0.7194
  668SOL    HW2 2004   1.706   0.202   1.793 -0.1773 -0.8281 -0.2792
  669SOL     OW 2005   2.646   2.846   1.174 -0.1633 -0.4260  0.1081
  669SOL    HW1 2006   2.563   2.805   1.212  2.7133  0.2784 -1.4590
  669SOL    HW2 2007   2.681   2.798   1.092 -0.1022  0.2027  2.3486
  670SOL     OW 2008   1.421   2.420   2.700  0.1164  0.0641 -0.3211
  670SOL    HW1 2009   1.326   2.438   2.725  0.9141 -0.3245 -1.1614
  670SOL    HW2 2010   1.428   2.420   2.598  0.9200 -0.4296  0.5623
  671SOL     OW 2011   0.592   1.160   0.444 -0.2347  0.6157 -0.1430
  671SOL    HW1 2012   0.612   1.157   0.343  1.0069 -0.4546 -2.1116
  671SOL    HW2 2013   0.497   1.139   0.469  2.3214  0.3063 -0.8332
  672SOL     OW 2014   2.716   0.943   0.005 -0.2831  0.3390  0.4596
  672SOL    HW1 2015   2.771   1.015   0.054  0.4002  1.1622 -1.0933
  672SOL    HW2 2016   2.763   0.851   0.010  0.7491 -1.5665 -2.9962
  673SOL     OW 2017   0.195   1.970   1.453 -0.6137 -0.4296  0.2481
  673SOL    HW1 2018   0.121   2.014   1.510 -0.6484 -1.4446  1.1382
  673SOL    HW2 2019   0.182   1.868   1.456  0.3912  0.8787  2.1555
  674SOL     OW 2020   0.948   2.106   2.158 -0.4063 -0.3644  0.0686
  674SOL    HW1 2021   1.001   2.174   2.101  3.8938 -1.5001  0.3681
  674SOL    HW2 2022   0.869   2.068   2.107  1.3860 -2.5294  2.4293
  675SOL     OW 2023   1.198   1.011   1.497  0.2657  0.4395  0.9950
  675SOL    HW1 2024   1.207   0.975   1.595  0.0915  0.4744  2.2929
  675SOL    HW2 2025   1.106   1.007   1.460  5.2869 -0.2045 -0.4788
  676SOL     OW 2026   2.063   0.242   1.246 -0.3289 -0.3985 -0.0408
  676SOL    HW1 2027   1.998   0.321   1.234 -1.0573  2.0978  1.7923
  676SOL    HW2 2028   2.017   0.161   1.286 -0.9939  1.2801  0.9134
  677SOL     OW 2029   2.885   0.706   0.335 -0.2857  0.2921 -0.5642
  677SOL    HW1 2030   2.934   0.687   0.421  0.3608 -0.5891 -4.4847
  677SOL    HW2 2031   2.844   0.798   0.336  2.3624  0.8342 -1.2305
  678SOL     OW 2032   2.654   1.315   1.052  0.3335 -0.2535  0.7994
  678SOL    HW1 2033   2.730   1.334   0.983 -0.8486  0.9922  0.1203
  678SOL    HW2 2034   2.609   1.223   1.040  1.0172  3.3461  0.3848
  679SOL     OW 2035   2.521   0.793   2.972  0.5118 -0.1427  0.3205
  679SOL    HW1 2036   2.589   0.789   2.900 -3.0601  0.7451 -0.4104
  679SOL    HW2 2037   2.570   0.790   3.059 -0.2101  1.0849 -0.4750
  680SOL     OW 2038   0.459   1.109   2.065 -0.6108 -0.4910  0.1887
  680SOL    HW1 2039   0.457   1.049   2.150  3.9700  0.1493  0.0057
  680SOL    HW2 2040   0.402   1.192   2.077  0.1725 -2.2927 -2.6020
  681SOL     OW 2041   2.739   2.151   1.358 -0.3379  0.1405 -0.5261
  681SOL    HW1 2042   2.699   2.104   1.442  0.6592 -2.4730  3.8863
  681SOL    HW2 2043   2.678   2.127   1.278 -0.2428  1.1443 -2.3911
  682SOL     OW 2044   0.091   2.026   3.061  0.3483 -0.0671 -0.4706
  682SOL    HW1 2045   0.045   2.100   3.006 -2.4264  0.1343 -2.8247
  682SOL    HW2 2046   0.150   1.974   2.998  2.2438  2.6147  0.9966
  683SOL     OW 2047   2.774   2.246   0.897 -0.6152 -0.2001  0.7093
  683SOL    HW1 2048   2.809   2.168   0.949 -0.4679 -0.7673 -1.0683
  683SOL    HW2 2049   2.675   2.263   0.909  1.1752 -1.3908 -0.3462
  684SOL     OW 2050   2.582   1.140   2.129  0.0848  0.2541 -0.3574
  684SOL    HW1 2051   2.617   1.147   2.225 -0.2756  2.1288 -1.8643
  684SOL    HW2 2052   2.497   1.195   2.113  0.3108  0.0777 -1.9408
  685SOL     OW 2053   1.311   0.688   0.873 -0.1591  0.3332  0.4066
  685SOL    HW1 2054   1.262   0.600   0.858 -2.1344 -1.6402  2.9401
  685SOL    HW2 2055   1.320   0.702   0.976 -1.0179  1.2871  1.4942
  686SOL     OW 2056   0.645   0.354   0.170 -0.1772 -0.3571 -0.3298
  686SOL    HW1 2057   0.637   0.455   0.173 -1.4487 -2.3293 -0.5196
  686SOL    HW2 2058   0.694   0.319   0.255  1.0114 -1.7702  0.9455
  687SOL     OW 2059   0.484   2.084   2.523 -0.4891 -0.0422  0.1949
  687SOL    HW1 2060   0.483   2.129   2.431  0.0759  0.2814 -0.5639
  687SOL    HW2 2061   0.394   2.030   2.528 -1.3450 -1.5402  0.4194
  688SOL     OW 2062   2.100   0.213   1.622 -0.2674  0.5051  0.1483
  688SOL    HW1 2063   2.164   0.278   1.579 -0.0365 -0.6343  0.4985
  688SOL    HW2 2064   2.002   0.243   1.618 -0.9506  0.3820 -0.2653
  689SOL     OW 2065   1.729   0.929   0.924 -0.1204 -0.1012 -0.9728
  689SOL    HW1 2066   1.764   0.995   0.994 -1.1455 -1.2776  0.3458
  689SOL    HW2 2067   1.638   0.903   0.957  0.7942  0.5810  2.0720
  690SOL     OW 2068   2.985   0.915   1.438  0.1722 -0.1088  0.3951
  690SOL    HW1 2069   2.977   1.008   1.404 -0.0404  2.0101 -1.2555
  690SOL    HW2 2070   2.923   0.857   1.386 -1.0462 -1.4803  2.6565
  691SOL     OW 2071   2.904   1.230   1.739  0.1927  0.0001 -0.0563
  691SOL    HW1 2072   2.944   1.285   1.660  1.3127 -0.6473  0.7206
  691SOL    HW2 2073   2.818   1.266   1.776 -3.4295  1.3033  0.6003
  692SOL     OW 2074   1.080   0.716   1.951  0.2465  0.1983 -0.2813
  692SOL    HW1 2075   1.127   0.630   1.926 -1.6097 -0.6603 -0.0541
  692SOL    HW2 2076   1.129   0.751   2.033  0.2105  0.6043 -0.3522
  693SOL     OW 2077   0.724   1.268   2.498 -0.2349 -0.7290 -0.4719
  693SOL    HW1 2078   0.772   1.302   2.415 -1.5517  0.4460  1.4491
  693SOL    HW2 2079   0.633   1.231   2.474 -0.4117  1.6715  1.7332
  694SOL     OW 2080   1.716   1.608   0.506 -0.0056 -0.1605 -0.2426
  694SOL    HW1 2081   1.706   1.605   0.609  0.6528 -1.6763  0.9664
  694SOL    HW2 2082   1.635   1.566   0.461  1.1928  0.5290  1.0264
  695SOL     OW 2083   0.500   1.223   1.356 -0.5829  0.2018 -0.1815
  695SOL    HW1 2084   0.402   1.195   1.371 -0.7858  0.6427  0.4210
  695SOL    HW2 2085   0.541   1.210   1.450  2.2044  1.8408  0.4281
  696SOL     OW 2086   0.228   2.952   0.255  0.6209  0.1847  0.1244
  696SOL    HW1 2087   0.311   2.996   0.290  0.0335 -0.7571 -0.3613
  696SOL    HW2 2088   0.226   2.856   0.278 -0.2907 -0.1964 -1.0333
  697SOL     OW 2089   1.859   0.418   1.192 -0.0488  1.2306  0.5023
  697SOL    HW1 2090   1.854   0.516   1.180  4.9600 -0.4198  1.4008
  697SOL    HW2 2091   1.774   0.371   1.226 -0.1745  1.3318  2.1633
  698SOL     OW 2092   1.760   1.384   1.689  0.5714 -0.6212 -0.0787
  698SOL    HW1 2093   1.777   1.456   1.759  0.4479  1.1444  0.6757
  698SOL    HW2 2094   1.838   1.317   1.669  1.2464 -0.1735 -2.5313
  699SOL     OW 2095   0.135   0.348   2.301  0.7409  0.1657 -0.0742
  699SOL    HW1 2096   0.091   0.421   2.357  0.3849 -0.1432 -2.5052
  699SOL    HW2 2097   0.064   0.285   2.260 -1.9353  1.0470  0.0035
  700SOL     OW 2098   1.396   2.695   0.819 -0.1227  0.4444 -0.3630
  700SOL    HW1 2099   1.495   2.694   0.814 -4.5976  0.0099 -0.8905
  700SOL    HW2 2100   1.366   2.778   0.765  0.0588  2.0576 -0.4878
  701SOL     OW 2101   0.274   1.290   2.611  0.6438 -0.4431  0.3996
  701SOL    HW1 2102   0.261   1.390   2.589 -1.6718  0.7623  0.6369
  701SOL    HW2 2103   0.340   1.284   2.685 -1.1057 -0.9807 -1.5292
  702SOL     OW 2104   0.332   0.369   3.024  0.1084 -0.5584  0.5205
  702SOL    HW1 2105   0.231   0.362   2.992 -1.0141 -1.6015 -1.7100
  702SOL    HW2 2106   0.339   0.428   3.107  1.9518  0.3734 -2.4975
  703SOL     OW 2107   1.900   3.114   2.413 -0.0721  0.2068 -0.2792
  703SOL    HW1 2108   1.968   3.087   2.486 -0.7341  1.1009  0.8947
  703SOL    HW2 2109   1.852   0.088   2.428  1.0318  0.0478 -2.9353
  704SOL     OW 2110   2.635   1.845   0.563 -0.2345  0.3209  0.4820
  704SOL    HW1 2111   2.638   1.938   0.514  1.2813  1.7656 -0.5147
  704SOL    HW2 2112   2.686   1.777   0.497  3.2183  0.2864  1.4016
  705SOL     OW 2113   2.799   2.033   1.923 -0.2464  0.4122  0.4986
  705SOL    HW1 2114   2.750   1.960   1.975 -0.8817  2.6924 -1.6436
  705SOL    HW2 2115   2.739   2.113   1.914 -2.1902 -1.4160 -0.0262
  706SOL     OW 2116   2.939   2.692   0.822 -0.2175 -0.0923 -0.1756
  706SOL    HW1 2117   2.991   2.754   0.887  0.5458 -1.6970 -2.8770
  706SOL    HW2 2118   2.936   2.735   0.727  0.3527 -0.2286 -3.0519
  707SOL     OW 2119   0.957   2.957   0.286 -0.1235 -0.4676  1.0572
  707SOL    HW1 2120   1.026   2.896   0.326 -0.0473  1.3237 -0.9358
  707SOL    HW2 2121   0.976   3.051   0.312 -0.7961 -2.2892 -1.9048
  708SOL     OW 2122   0.434   2.081   1.534  0.5285 -0.5012  0.0789
  708SOL    HW1 2123   0.336   2.063   1.513 -2.5855  2.3984 -2.6605
  708SOL    HW2 2124   0.485   2.127   1.457 -0.5622  1.5200  0.9586
  709SOL     OW 2125   1.431   2.808   2.059  0.0591  0.0944  0.1854
  709SOL    HW1 2126   1.398   2.708   2.051 -0.0193 -0.7415  0.8720
  709SOL    HW2 2127   1.370   2.863   2.122 -2.9576  1.3989  1.5700
  710SOL     OW 2128   1.686   2.678   2.425 -0.0290  0.0522 -0.2923
  710SOL    HW1 2129   1.729   2.704   2.514  0.9700  0.4488 -0.3297
  710SOL    HW2 2130   1.672   2.757   2.360 -1.2111  0.6424  2.4166
  711SOL     OW 2131   1.169   2.624   2.788  0.5256  1.0076 -0.1340
  711SOL    HW1 2132   1.156   2.722   2.800  0.1567 -2.8797  0.6042
  711SOL    HW2 2133   1.117   2.580   2.711  0.4563 -0.6808 -0.6979
  712SOL     OW 2134   1.100   2.221   2.709 -0.1030  0.3212 -0.4641
  712SOL    HW1 2135   1.127   2.214   2.808 -0.1236  0.1678  1.1347
  712SOL    HW2 2136   1.056   2.131   2.680 -2.6476  0.1873 -1.6688
  713SOL     OW 2137   1.370   1.163   1.704 -0.1557 -0.4323  0.1551
  713SOL    HW1 2138   1.403   1.254   1.668 -0.1867  0.6159  2.0820
  713SOL    HW2 2139   1.314   1.111   1.632 -0.0410  0.5521 -0.5359
  714SOL     OW 2140   1.515   1.523   1.163  0.0781  0.3652  0.4729
  714SOL    HW1 2141   1.491   1.427   1.194 -0.0044 -0.1224 -1.3658
  714SOL    HW2 2142   1.605   1.558   1.204  2.1843  2.3271 -3.9508
  715SOL     OW 2143   2.694   2.983   0.532  0.0684  0.3235 -0.3541
  715SOL    HW1 2144   2.763   3.006   0.459 -0.5583  0.8554  1.8039
  715SOL    HW2 2145   2.645   2.898   0.519 -1.0025 -1.3754  1.9319
  716SOL     OW 2146   0.836   2.822   0.687 -0.2036 -0.5242 -0.4546
  716SOL    HW1 2147   0.936   2.798   0.684 -4.0210 -1.6226  1.3628
  716SOL    HW2 2148   0.792   2.743   0.727  1.5264  3.4382  1.5106
  717SOL     OW 2149   3.046   0.297   0.031  0.1939 -0.2172 -0.2686
  717SOL    HW1 2150   2.947   0.321   0.036  0.4073 -0.1646 -1.0497
  717SOL    HW2 2151   3.101   0.360   0.088 -0.2327  1.4490 -2.8062
  718SOL     OW 2152   1.752   1.576   1.274  0.1855  0.0897  0.1968
  718SOL    HW1 2153   1.853   1.559   1.291  0.5895 -0.4547  2.9147
  718SOL    HW2 2154   1.722   1.664   1.315  2.1966  0.0754  0.1106
  719SOL     OW 2155   2.969   2.578   0.261  0.0351 -0.1678 -0.9709
  719SOL    HW1 2156   3.037   2.504   0.262  0.2748  2.5389  0.3888
  719SOL    HW2 2157   2.907   2.569   0.341 -0.3988 -3.5656  1.5519
  720SOL     OW 2158   1.019   1.019   1.073 -0.2273 -0.4588  0.2517
  720SOL    HW1 2159   1.042   0.930   1.114 -0.3138  0.8459 -0.5501
  720SOL    HW2 2160   1.089   1.044   1.003  0.4968 -3.0397 -0.0600
  721SOL     OW 2161   1.684   0.210   1.235 -0.1104 -0.3238  0.2550
  721SOL    HW1 2162   1.611   0.273   1.193 -0.4251  2.9568 -1.5499
  721SOL    HW2 2163   1.643   0.124   1.270  2.1426 -0.0948  1.3035
  722SOL     OW 2164   1.085   1.499   2.200 -0.0273 -0.0665 -0.0382
  722SOL    HW1 2165   1.055   1.597   2.199 -0.2428 -1.0185 -0.3090
  722SOL    HW2 2166   1.170   1.484   2.259 -0.0839 -2.0535  1.8053
  723SOL     OW 2167   1.016   0.123   1.572  0.4121  0.1995 -0.3253
  723SOL    HW1 2168   1.066   0.210   1.548 -0.8522  0.2886  1.2631
  723SOL    HW2 2169   1.080   0.059   1.622 -0.4974 -0.7186 -3.1903
  724SOL     OW 2170   1.864   2.005   1.991 -0.2959 -0.2723  0.0660
  724SOL    HW1 2171   1.834   1.990   1.895  3.4579  1.1431 -2.8890
  724SOL    HW2 2172   1.957   1.963   2.006 -0.4430 -1.9823 -0.2645
  725SOL     OW 2173   1.329   2.855   1.491  0.0363 -0.8130 -0.0850
  725SOL    HW1 2174   1.406   2.823   1.545 -3.0914  1.3372  3.0066
  725SOL    HW2 2175   1.347   2.864   1.392 -0.0693  1.3069  4.0174
  726SOL     OW 2176   1.717   2.888   3.009  0.0241  0.8343  0.3152
  726SOL    HW1 2177   1.747   2.963   2.952 -1.1787 -2.8718  3.8423
  726SOL    HW2 2178   1.800   2.827   3.023  1.5596 -0.7055  0.2631
  727SOL     OW 2179   1.399   1.799   0.722  0.1812 -0.4390  0.0008
  727SOL    HW1 2180   1.338   1.866   0.770 -0.8525 -1.2008  1.3133
  727SOL    HW2 2181   1.445   1.747   0.797 -1.6334  0.3318 -0.7740
  728SOL     OW 2182   2.031   2.868   2.295 -0.0931  0.4818  0.5876
  728SOL    HW1 2183   1.963   2.943   2.316  0.5963  0.1312 -0.7188
  728SOL    HW2 2184   2.067   2.825   2.380  1.4908  0.6283  3.6593
  729SOL     OW 2185   2.255   1.987   1.534  0.6202 -0.0223 -0.3946
  729SOL    HW1 2186   2.287   2.083   1.543 -2.9853  0.5987 -1.1169
  729SOL    HW2 2187   2.185   1.988   1.461  0.0301 -2.5081  1.0484
  730SOL     OW 2188   1.855   0.604   2.411  0.1862  0.3636 -0.3767
  730SOL    HW1 2189   1.925   0.541   2.392 -0.1032  1.8196  2.1166
  730SOL    HW2 2190   1.861   0.634   2.509  1.0742  0.5216  0.6339
  731SOL     OW 2191   0.508   0.122   1.094 -0.1377  0.2347 -0.0927
  731SOL    HW1 2192   0.512   0.093   1.188 -0.0240  2.5803 -2.6598
  731SOL    HW2 2193   0.521   0.224   1.089 -0.7384  0.6201  1.1266
  732SOL     OW 2194   1.677   0.071   0.951  0.2545  0.5293 -0.2566
  732SOL    HW1 2195   1.735   0.128   0.893 -1.0500 -0.2483  2.2751
  732SOL    HW2 2196   1.697   0.096   1.046  1.7204  1.2973  0.0172
  733SOL     OW 2197   0.761   1.120   1.278 -0.1865 -0.3485  0.1687
  733SOL    HW1 2198   0.675   1.160   1.321 -1.6703 -1.4733  1.7561
  733SOL    HW2 2199   0.800   1.176   1.201  1.7153  2.0683 -4.9233
  734SOL     OW 2200   2.646   2.395   0.410  0.7152 -0.5162  0.0768
  734SOL    HW1 2201   2.556   2.446   0.399 -2.3500  1.3557 -0.9838
  734SOL    HW2 2202   2.717   2.438   0.473 -1.4664 -0.1448  0.2240
  735SOL     OW 2203   0.422   0.567   0.093  0.3355 -0.3423 -0.2267
  735SOL    HW1 2204   0.417   0.651   0.030 -0.2427  4.9921  1.6787
  735SOL    HW2 2205   0.330   0.541   0.126 -1.7086 -1.5536  0.9907
  736SOL     OW 2206   1.766   2.423   2.398  0.0354  0.3394 -0.2721
  736SOL    HW1 2207   1.754   2.521   2.374 -0.0893 -1.4597  0.9070
  736SOL    HW2 2208   1.782   2.409   2.498 -1.2760  1.8559  0.4945
  737SOL     OW 2209   1.256   2.157   1.255  0.8584  0.6678  0.0373
  737SOL    HW1 2210   1.235   2.062   1.220 -2.0832 -1.8042 -0.6127
  737SOL    HW2 2211   1.275   2.144   1.354 -2.4520 -0.9220  1.1796
  738SOL     OW 2212   1.671   2.821   2.187 -0.2500 -0.1235 -0.9045
  738SOL    HW1 2213   1.588   2.787   2.133 -0.8469 -1.0811 -2.0124
  738SOL    HW2 2214   1.690   2.923   2.181 -1.2781  0.1136  2.3672
  739SOL     OW 2215   1.368   2.068   2.091  0.3526 -0.0312  0.4785
  739SOL    HW1 2216   1.467   2.085   2.082 -1.5485 -0.2444 -0.4276
  739SOL    HW2 2217   1.331   2.149   2.134  3.4651 -4.8705  0.4073
  740SOL     OW 2218   1.851   2.216   1.666  0.3527  0.1827  0.7041
  740SOL    HW1 2219   1.860   2.223   1.562 -0.9201  0.7275 -0.2911
  740SOL    HW2 2220   1.765   2.267   1.696  0.6293  0.9721 -0.5848
  741SOL     OW 2221   2.061   1.733   2.870  0.2669 -0.2823 -0.6672
  741SOL    HW1 2222   1.977   1.791   2.890 -2.1384  2.3763  0.7280
  741SOL    HW2 2223   2.118   1.781   2.802 -1.9431 -1.8156  1.6214
  742SOL     OW 2224   0.789   1.280   2.978 -0.0043  0.0680  0.4481
  742SOL    HW1 2225   0.740   1.341   2.915  0.2718  0.2765 -0.3626
  742SOL    HW2 2226   0.853   1.230   2.918 -0.1985 -0.7675 -0.9600
  743SOL     OW 2227   2.199   0.793   2.717 -0.5090  0.0150 -0.0757
  743SOL    HW1 2228   2.286   0.789   2.663  1.7001  1.7315 -1.2592
  743SOL    HW2 2229   2.180   0.891   2.728  1.1977  0.6795 -4.3406
  744SOL     OW 2230   2.047   2.876   1.626  0.0106  0.1501 -0.0692
  744SOL    HW1 2231   2.091   2.946   1.566 -0.9888  0.8399 -1.7324
  744SOL    HW2 2232   2.118   2.801   1.654 -0.4942  0.2249  1.0663
  745SOL     OW 2233   2.641   2.019   1.153  0.1381  0.4956 -0.1303
  745SOL    HW1 2234   2.726   2.000   1.104 -0.1104 -0.4159  1.0900
  745SOL    HW2 2235   2.596   1.935   1.192 -2.0339  0.7075 -4.5443
  746SOL     OW 2236   2.859   1.999   0.989 -0.0247 -0.3793  0.2796
  746SOL    HW1 2237   2.825   1.940   0.915  0.7846  3.2109  0.5825
  746SOL    HW2 2238   2.959   2.014   0.988  0.6088  0.3120 -0.1201
  747SOL     OW 2239   1.935   2.802   0.252  0.0111  0.6163  0.5534
  747SOL    HW1 2240   1.835   2.813   0.276 -2.4186 -0.2950  0.0603
  747SOL    HW2 2241   1.995   2.863   0.306 -1.5699 -0.3697 -1.6365
  748SOL     OW 2242   0.764   2.082   0.231  0.0547 -0.6408  0.0175
  748SOL    HW1 2243   0.795   1.994   0.199  0.4407  1.5289  2.9540
  748SOL    HW2 2244   0.758   2.154   0.158  0.0588  1.8468 -2.7843
  749SOL     OW 2245   2.706   0.458   2.420 -0.0816 -0.7321  0.5358
  749SOL    HW1 2246   2.716   0.359   2.442  0.6183  0.1102 -1.9330
  749SOL    HW2 2247   2.795   0.493   2.388 -1.6949  0.2859 -0.6355
  750SOL     OW 2248   1.395   0.744   1.822 -0.1060 -0.0364 -0.1455
  750SOL    HW1 2249   1.470   0.780   1.888  3.0303 -2.2875  1.4276
  750SOL    HW2 2250   1.346   0.659   1.858  1.1424 -1.7918  0.6554
  751SOL     OW 2251   2.395   2.406   1.806  0.0983 -0.2007 -0.1044
  751SOL    HW1 2252   2.359   2.396   1.712  0.9914 -3.3585 -1.1910
  751SOL    HW2 2253   2.415   2.501   1.829 -1.7636 -2.1031 -0.7607
  752SOL     OW 2254   1.898   1.790   0.811 -0.5028 -0.6775 -0.1345
  752SOL    HW1 2255   1.851   1.824   0.891  0.9836 -2.7606 -3.9579
  752SOL    HW2 2256   1.922   1.691   0.813  1.7685 -1.5193 -0.9774
  753SOL     OW 2257   1.591   0.849   2.343  0.5129 -0.7539  0.5052
  753SOL    HW1 2258   1.530   0.900   2.279  0.0307 -0.0470 -0.6334
  753SOL    HW2 2259   1.623   0.911   2.420  2.5714  0.9860  0.8675
  754SOL     OW 2260   0.253   2.684   0.994 -0.2381 -0.1389  0.4709
  754SOL    HW1 2261   0.351   2.703   1.013  0.0740 -3.8866  0.0961
  754SOL    HW2 2262   0.221   2.596   1.041 -1.7337 -0.9086  1.0220
  755SOL     OW 2263   2.390   0.063   1.391 -0.0135  0.4672 -0.0566
  755SOL    HW1 2264   2.444   3.093   1.402  2.3201 -1.5736 -1.1772
  755SOL    HW2 2265   2.444   0.131   1.335  0.5859  0.5482 -0.9264
  756SOL     OW 2266   1.768   1.325   2.448  0.3602  0.1146  0.0195
  756SOL    HW1 2267   1.763   1.326   2.547 -0.1525  1.0683 -0.1106
  756SOL    HW2 2268   1.677   1.344   2.411  0.1630  1.8034  0.8759
  757SOL     OW 2269   2.977   2.980   1.790 -0.0466 -0.0836 -0.1919
  757SOL    HW1 2270   2.889   2.997   1.831  2.8332  0.0518 -0.6501
  757SOL    HW2 2271   3.041   3.060   1.796 -2.0405 -1.9244  0.7205
  758SOL     OW 2272   0.484   2.752   1.441 -0.5981  0.4963 -0.3079
  758SOL    HW1 2273   0.416   2.794   1.381 -0.3752 -3.2784  1.7650
  758SOL    HW2 2274   0.471   2.652   1.468 -1.4697 -2.0341 -2.0472
  759SOL     OW 2275   2.253   1.259   1.003 -0.3434 -0.2664 -0.0442
  759SOL    HW1 2276   2.308   1.245   0.919 -2.2883  1.1623  1.1491
  759SOL    HW2 2277   2.206   1.349   0.995 -0.4979  0.4123 -1.7609
  760SOL     OW 2278   1.541   0.196   1.819  0.1783 -0.2136  0.0022
  760SOL    HW1 2279   1.497   0.108   1.787  0.4965 -1.4165 -1.9412
  760SOL    HW2 2280   1.524   0.211   1.919  1.2599 -0.5016 -1.5152
  761SOL     OW 2281   2.040   0.341   0.470 -0.2799 -0.3661 -0.3932
  761SOL    HW1 2282   2.011   0.262   0.415  0.8422 -0.2512 -0.3827
  761SOL    HW2 2283   2.049   0.426   0.412  1.0320  1.1366 -0.9128
  762SOL     OW 2284   2.267   2.768   0.163 -0.3307 -0.0806  0.5720
  762SOL    HW1 2285   2.370   2.751   0.169  1.6074  0.2607 -3.3967
  762SOL    HW2 2286   2.220   2.684   0.201 -1.2674 -0.1995 -0.8103
  763SOL     OW 2287   1.084   0.652   1.513  0.9028 -0.2120  0.7461
  763SOL    HW1 2288   1.127   0.721   1.576  0.1650 -0.7398 -2.4790
  763SOL    HW2 2289   0.988   0.684   1.500  0.1550  1.2918  0.3978
  764SOL     OW 2290   2.263   2.572   2.638  0.0086 -0.1156  0.2958
  764SOL    HW1 2291   2.351   2.548   2.590  2.2121 -3.2057  0.6791
  764SOL    HW2 2292   2.222   2.485   2.670 -2.6161 -0.9938 -1.9638
  765SOL     OW 2293   0.103   0.812   2.468 -0.1763  0.7557  0.0584
  765SOL    HW1 2294   0.044   0.764   2.532  0.8030  2.4469 -1.4952
  765SOL    HW2 2295   0.113   0.914   2.488  0.9175 -0.2392 -1.0840
  766SOL     OW 2296   2.815   1.499   2.946 -0.3406 -0.3569  0.0102
  766SOL    HW1 2297   2.715   1.511   2.927  1.7153  1.5777 -1.6591
  766SOL    HW2 2298   2.871   1.509   2.860 -0.8986  0.6859  0.5012
  767SOL     OW 2299   0.074   1.909   1.877 -0.2629  0.4078 -0.0149
  767SOL    HW1 2300   3.106   1.937   1.826 -0.5185  1.3082 -1.6747
  767SOL    HW2 2301   0.075   1.809   1.901  2.3569 -0.1543  0.2427
  768SOL     OW 2302   1.025   0.930   0.004 -0.4801  0.6116  0.0998
  768SOL    HW1 2303   1.019   0.863   0.080 -1.2751 -0.6372 -1.7384
  768SOL    HW2 2304   1.019   0.880   3.029 -1.4110 -0.7364 -3.1497
  769SOL     OW 2305   1.758   2.776   2.666  0.0100  0.7858  0.2704
  769SOL    HW1 2306   1.826   2.788   2.743 -1.0484 -1.1019 -0.4392
  769SOL    HW2 2307   1.659   2.755   2.699 -2.0453 -1.5508 -1.1512
  770SOL     OW 2308   0.776   0.108   2.455  0.2229 -0.8633 -0.7938
  770SOL    HW1 2309   0.773   0.152   2.363  0.9462  0.4131 -1.4350
  770SOL    HW2 2310   0.836   0.166   2.520 -0.9431  2.1036  0.1539
  771SOL     OW 2311   0.714   2.581   0.790 -0.3669 -0.5008  0.5262
  771SOL    HW1 2312   0.635   2.623   0.735 -2.1065  0.3149  1.4620
  771SOL    HW2 2313   0.696   2.561   0.889  1.4369  0.3044 -3.9330
  772SOL     OW 2314   0.146   0.826   0.562 -0.0771  0.0258 -0.7926
  772SOL    HW1 2315   0.220   0.754   0.542  2.3592 -1.2539  1.2678
  772SOL    HW2 2316   0.059   0.779   0.594 -0.2345  0.1453  0.4920
  773SOL     OW 2317   1.986   1.038   2.051 -0.1000 -0.0896  0.5225
  773SOL    HW1 2318   1.936   0.954   2.073  1.5996  2.5458 -1.0032
  773SOL    HW2 2319   2.072   1.035   2.106 -0.0988 -0.3646 -0.4476
  774SOL     OW 2320   0.695   0.937   0.539 -0.3854 -0.5678 -0.6022
  774SOL    HW1 2321   0.677   1.025   0.490 -0.7278  1.0605  0.1301
  774SOL    HW2 2322   0.620   0.870   0.524  0.3648  0.2046 -1.5196
  775SOL     OW 2323   1.668   3.049   0.189 -0.2575 -0.4911  0.7456
  775SOL    HW1 2324   1.608   2.987   0.136  0.5227 -1.0935  1.9845
  775SOL    HW2 2325   1.614   0.020   0.203  0.6109  1.0288 -1.3028
  776SOL     OW 2326   2.221   0.186   2.353 -0.1050 -0.7156  0.4824
  776SOL    HW1 2327   2.207   0.258   2.420  1.4642  1.8793 -1.0096
  776SOL    HW2 2328   2.194   0.226   2.263  0.3601  0.1074 -1.4978
  777SOL     OW 2329   0.855   1.581   0.129 -0.2686  0.4780  0.1340
  777SOL    HW1 2330   0.898   1.493   0.168 -0.2537 -3.1351  0.6221
  777SOL    HW2 2331   0.756   1.588   0.150  4.7068  2.3872  0.1975
  778SOL     OW 2332   0.206   2.633   0.039  0.1058 -0.1663 -0.1219
  778SOL    HW1 2333   0.147   2.715   0.026  2.6889 -1.8894  3.5515
  778SOL    HW2 2334   0.208   2.598   0.137 -0.3764 -1.6180  0.4562
  779SOL     OW 2335   0.284   1.147   0.156  0.3059 -0.6388 -0.2248
  779SOL    HW1 2336   0.187   1.173   0.172 -2.0673  1.6935  0.4951
  779SOL    HW2 2337   0.302   1.047   0.164 -0.8661  1.2218 -0.0462
  780SOL     OW 2338   2.168   0.274   2.104 -0.1166 -1.0130  0.4580
  780SOL    HW1 2339   2.224   0.347   2.063 -0.2364 -0.0504 -1.7031
  780SOL    HW2 2340   2.145   0.206   2.031 -1.2692  2.1949  1.3470
  781SOL     OW 2341   1.823   0.994   1.570 -0.5792 -0.1236  0.0199
  781SOL    HW1 2342   1.858   1.089   1.584  0.7286 -3.8923 -0.5779
  781SOL    HW2 2343   1.882   0.929   1.615  0.1443 -2.4406 -1.8312
  782SOL     OW 2344   1.783   1.785   2.164  0.0976  0.0410  0.0596
  782SOL    HW1 2345   1.856   1.855   2.174 -1.5020 -1.7946  1.2127
  782SOL    HW2 2346   1.816   1.695   2.206 -0.9119  1.4170  0.3721
  783SOL     OW 2347   1.415   3.078   1.723  0.1690 -0.3897 -0.0716
  783SOL    HW1 2348   1.330   3.031   1.685 -3.0978 -0.4514  1.7223
  783SOL    HW2 2349   1.476   3.013   1.776  2.6607 -2.6258  0.5953
  784SOL     OW 2350   1.977   0.920   2.482 -0.7648 -0.7715  0.0588
  784SOL    HW1 2351   2.002   0.958   2.577  3.2949 -0.1139  1.2563
  784SOL    HW2 2352   2.062   0.883   2.431  1.0108 -0.2782  1.2138
  785SOL     OW 2353   1.903   0.476   0.173  0.1070 -0.3017 -0.7552
  785SOL    HW1 2354   1.862   0.522   0.091 -1.7061  0.2139  0.4098
  785SOL    HW2 2355   1.994   0.522   0.196  0.7887  1.4915  1.6502
  786SOL     OW 2356   2.993   1.897   0.569  0.1192 -0.5286  0.1168
  786SOL    HW1 2357   2.947   1.990   0.577  2.2129  0.4846  1.6149
  786SOL    HW2 2358   3.069   1.906   0.506 -0.9533  0.0438  1.1077
  787SOL     OW 2359   1.695   2.305   0.390 -0.1454 -0.0038  0.5579
  787SOL    HW1 2360   1.636   2.270   0.465  1.8065 -0.2613 -2.4679
  787SOL    HW2 2361   1.641   2.364   0.332  1.1988 -1.0063  1.3473
  788SOL     OW 2362   2.022   1.570   1.399  0.3141 -0.3859  0.1762
  788SOL    HW1 2363   2.033   1.638   1.323 -1.5787 -0.7077  0.3211
  788SOL    HW2 2364   2.006   1.621   1.487  2.7262 -2.3207  2.9625
  789SOL     OW 2365   3.047   1.251   2.629 -0.1344 -0.6258 -0.3933
  789SOL    HW1 2366   3.099   1.217   2.551 -3.7224 -2.0364  1.7552
  789SOL    HW2 2367   2.963   1.208   2.659  2.7302  0.4609 -0.7659
  790SOL     OW 2368   0.558   0.039   2.606  0.2747  0.3164  0.5404
  790SOL    HW1 2369   0.531   0.122   2.656 -0.3127  1.4077  0.6701
  790SOL    HW2 2370   0.617   0.072   2.528 -0.8659  0.8521 -0.1511
  791SOL     OW 2371   0.944   2.885   2.761 -0.8877 -0.8583 -0.0434
  791SOL    HW1 2372   0.858   2.944   2.762  1.3475  1.6040  0.9534
  791SOL    HW2 2373   0.983   2.866   2.855  1.7091  2.0010 -2.6217
  792SOL     OW 2374   1.714   0.385   2.197  0.4167  0.6717  0.1507
  792SOL    HW1 2375   1.766   0.417   2.116 -3.8372 -0.7309  3.7540
  792SOL    HW2 2376   1.629   0.445   2.207 -3.1156 -0.0450  0.7390
  793SOL     OW 2377   2.825   0.497   1.725 -0.4925 -0.1914  0.5312
  793SOL    HW1 2378   2.758   0.545   1.663  0.2574 -0.5177 -0.1300
  793SOL    HW2 2379   2.799   0.502   1.824  1.5426 -0.5624  2.2514
  794SOL     OW 2380   0.619   0.687   1.672  0.2628 -0.3121  0.4830
  794SOL    HW1 2381   0.686   0.608   1.678 -2.2818  0.2499  3.0161
  794SOL    HW2 2382   0.556   0.696   1.751 -0.5472 -0.8926  1.7692
  795SOL     OW 2383   3.083   1.412   0.616 -0.2711 -0.5125  0.0396
  795SOL    HW1 2384   3.059   1.504   0.577  1.2707 -1.2118  2.7360
  795SOL    HW2 2385   0.028   1.430   0.694 -0.7583 -2.8216 -0.5595
  796SOL     OW 2386   2.970   2.420   3.003 -0.8134 -0.2804  0.3012
  796SOL    HW1 2387   2.954   2.364   3.089 -0.8998 -3.4429  1.5576
  796SOL    HW2 2388   2.889   2.460   2.960  2.7903 -1.6380 -1.4891
  797SOL     OW 2389   2.143   2.532   0.311 -0.7045  0.4336  0.1930
  797SOL    HW1 2390   2.061   2.566   0.357 -0.9850  0.7867 -1.2020
  797SOL    HW2 2391   2.126   2.474   0.231 -1.4785 -0.7674  0.4429
  798SOL     OW 2392   0.329   0.899   1.486  0.1587  0.1389 -0.1315
  798SOL    HW1 2393   0.247   0.841   1.483 -0.9670  3.6438  2.1869
  798SOL    HW2 2394   0.291   0.993   1.492  3.2074  0.5908  1.0934
  799SOL     OW 2395   2.938   0.574   2.333 -0.7694 -0.1703  0.2628
  799SOL    HW1 2396   2.969   0.614   2.424 -1.1156 -0.8460 -1.6329
  799SOL    HW2 2397   3.015   0.568   2.264  2.2578  0.0799  0.2925
  800SOL     OW 2398   2.915   2.134   0.647 -0.5090 -0.0281  0.2155
  800SOL    HW1 2399   3.007   2.172   0.624  0.6080 -0.7916  0.5586
  800SOL    HW2 2400   2.873   2.164   0.733  0.1423 -3.1724 -1.7026
  801SOL     OW 2401   1.253   1.112   0.949  0.1298  0.1579  0.2210
  801SOL    HW1 2402   1.209   1.102   0.860  0.1290 -2.3792  1.0685
  801SOL    HW2 2403   1.276   1.208   0.970  0.1469  2.4135 -0.1320
  802SOL     OW 2404   1.315   1.799   1.521  0.0485  0.4987  0.2189
  802SOL    HW1 2405   1.228   1.771   1.473 -0.6847  0.0863 -0.2193
  802SOL    HW2 2406   1.330   1.897   1.525 -0.3154 -2.9366 -2.1734
  803SOL     OW 2407   2.859   1.703   0.427  0.1493  0.0652 -0.2338
  803SOL    HW1 2408   2.923   1.679   0.351  1.1213  0.6310  1.5980
  803SOL    HW2 2409   2.903   1.767   0.494 -1.8022  1.2304 -1.7720
  804SOL     OW 2410   0.975   2.470   1.031  0.2382  0.0272 -0.7252
  804SOL    HW1 2411   0.935   2.423   0.951  0.1064 -0.3413  3.2527
  804SOL    HW2 2412   0.926   2.444   1.120 -1.0384 -0.2553  0.1354
  805SOL     OW 2413   1.552   1.401   3.082  0.1287 -0.1896  0.5366
  805SOL    HW1 2414   1.552   1.494   3.043  1.6943  1.0186  0.6940
  805SOL    HW2 2415   1.456   1.366   3.068 -0.8643 -0.6245 -1.3365
  806SOL     OW 2416   1.547   2.781   1.626 -0.3266  0.1843  0.1532
  806SOL    HW1 2417   1.553   2.819   1.717 -1.2496  0.6263 -0.3689
  806SOL    HW2 2418   1.617   2.822   1.566 -1.7330 -1.5179  0.0762
  807SOL     OW 2419   1.980   2.825   2.805  0.2994 -0.3226  0.2294
  807SOL    HW1 2420   2.020   2.816   2.709 -0.8884 -1.1186  0.3329
  807SOL    HW2 2421   2.056   2.832   2.874 -1.1334 -0.9207  0.9043
  808SOL     OW 2422   0.138   1.394   0.288  0.3353  0.0780 -1.1648
  808SOL    HW1 2423   0.130   1.341   0.375  0.3673 -0.1521 -1.2985
  808SOL    HW2 2424   0.182   1.485   0.307 -0.8285  0.2997 -2.2408
  809SOL     OW 2425   2.672   0.901   2.221 -0.0718 -0.0801  0.0113
  809SOL    HW1 2426   2.775   0.877   2.226  2.6223 -0.1705 -0.1009
  809SOL    HW2 2427   2.654   0.987   2.174 -1.4213 -0.4056  0.8256
  810SOL     OW 2428   2.658   0.060   2.033 -0.4699  0.3584 -0.2301
  810SOL    HW1 2429   2.643   0.105   2.123  0.8575  0.4883 -0.6633
  810SOL    HW2 2430   2.754   0.082   1.998  1.2782 -0.2785  0.4509
  811SOL     OW 2431   2.317   2.464   1.536 -0.2454  0.0332 -0.2336
  811SOL    HW1 2432   2.222   2.495   1.556 -0.1082 -2.1952 -0.3397
  811SOL    HW2 2433   2.356   2.518   1.456  1.4747  2.2388 -0.9900
  812SOL     OW 2434   1.684   0.396   2.971  0.1478 -0.2655 -0.1730
  812SOL    HW1 2435   1.601   0.350   3.008 -0.2430 -1.7181 -0.3704
  812SOL    HW2 2436   1.693   0.492   3.007  0.4988  1.5805  1.6492
  813SOL     OW 2437   1.806   0.490   1.981 -0.3619  0.4240  0.5494
  813SOL    HW1 2438   1.733   0.522   1.924  2.8335 -1.3608  1.5243
  813SOL    HW2 2439   1.890   0.483   1.929  1.0142 -2.1142 -1.7380
  814SOL     OW 2440   2.105   1.284   1.453 -0.4008 -0.2600 -0.0755
  814SOL    HW1 2441   2.205   1.268   1.462  0.4134  0.1602 -1.3411
  814SOL    HW2 2442   2.079   1.384   1.448  1.1288  0.7074  0.1497
  815SOL     OW 2443   0.326   1.073   0.503  0.3029 -0.1877  0.0140
  815SOL    HW1 2444   0.243   1.133   0.513 -1.4836 -1.6918  1.9908
  815SOL    HW2 2445   0.297   0.976   0.516 -1.3242  2.0807  0.3952
  816SOL     OW 2446   1.613   1.743   2.732  0.4246  0.1197 -0.6024
  816SOL    HW1 2447   1.692   1.760   2.671 -1.8818  0.8582  0.7841
  816SOL    HW2 2448   1.558   1.667   2.708 -0.4051  2.2774  1.2620
  817SOL     OW 2449   0.035   3.004   0.721 -0.3963 -0.2254  0.1399
  817SOL    HW1 2450   0.112   2.998   0.780 -0.7846  3.1857 -1.9169
  817SOL    HW2 2451   0.031   2.919   0.663 -2.4128  0.6217  0.3303
  818SOL     OW 2452   1.322   0.441   2.749 -0.1837 -0.0582  0.1882
  818SOL    HW1 2453   1.354   0.482   2.837 -1.4148  0.3129 -1.5413
  818SOL    HW2 2454   1.272   0.355   2.777 -2.9037  0.0475 -0.2675
  819SOL     OW 2455   0.908   1.057   0.666  0.3171  0.0132 -0.7584
  819SOL    HW1 2456   0.977   0.988   0.696  0.9327 -0.9292  0.1399
  819SOL    HW2 2457   0.824   1.018   0.631  0.5393  0.8491  0.1162
  820SOL     OW 2458   2.361   0.870   1.076 -0.1407  0.3870 -0.1172
  820SOL    HW1 2459   2.375   0.773   1.052  0.9566  3.7122  1.9447
  820SOL    HW2 2460   2.310   0.876   1.163  0.0438 -0.7911  0.4935
  821SOL     OW 2461   2.283   0.160   0.429 -0.1529 -0.1368  0.1314
  821SOL    HW1 2462   2.230   0.104   0.366  1.1235  0.2317  0.9455
  821SOL    HW2 2463   2.237   0.251   0.422 -0.1718 -3.5153 -1.4338
  822SOL     OW 2464   0.554   2.625   2.456 -0.1832 -0.3559 -0.2967
  822SOL    HW1 2465   0.604   2.592   2.533 -0.4605  1.2080  0.1451
  822SOL    HW2 2466   0.560   2.729   2.467 -0.8831  1.4943  1.6974
  823SOL     OW 2467   0.132   2.329   1.710 -0.0977 -0.1806 -0.0125
  823SOL    HW1 2468   0.061   2.394   1.675 -0.3807  0.6639  0.8558
  823SOL    HW2 2469   0.122   2.231   1.679  1.8407  0.2861 -1.4086
  824SOL     OW 2470   0.910   3.013   2.151 -0.2505  0.4195 -0.5702
  824SOL    HW1 2471   0.874   2.991   2.245  1.2278  0.1125  0.8665
  824SOL    HW2 2472   0.942   2.932   2.101  1.7866  2.3238  1.3614
  825SOL     OW 2473   1.224   1.951   0.332 -0.1539  0.4034 -0.0515
  825SOL    HW1 2474   1.148   1.886   0.322  4.0223  1.8504  1.9168
  825SOL    HW2 2475   1.185   2.034   0.378  0.0694 -0.7860 -0.5173
  826SOL     OW 2476   1.050   2.834   3.023  0.3073 -0.1646 -0.1223
  826SOL    HW1 2477   0.960   2.846   3.071  2.1693  2.6404  0.6464
  826SOL    HW2 2478   1.131   2.823   3.088  0.8679  0.0926 -2.4599
  827SOL     OW 2479   0.110   1.694   1.438 -0.1570  0.1059  0.2127
  827SOL    HW1 2480   0.024   1.652   1.463  1.2325  1.2334 -1.5920
  827SOL    HW2 2481   0.179   1.622   1.407  1.5119 -1.0201 -1.6323
  828SOL     OW 2482   2.559   1.755   1.197  0.1483 -0.0293 -0.3553
  828SOL    HW1 2483   2.520   1.673   1.150  2.7772  2.1720 -0.0318
  828SOL    HW2 2484   2.632   1.744   1.274 -2.1263 -1.1715  0.3160
  829SOL     OW 2485   2.939   2.287   0.117  0.9019  0.2036 -0.1244
  829SOL    HW1 2486   3.013   2.278   0.188  1.1166  1.5888 -0.2388
  829SOL    HW2 2487   2.872   2.210   0.115  1.7106 -2.6970  1.0988
  830SOL     OW 2488   1.053   0.810   0.791 -0.3760 -0.3851  0.1560
  830SOL    HW1 2489   1.145   0.772   0.813  1.4888  0.7575  0.6624
  830SOL    HW2 2490   0.989   0.756   0.846  1.3448 -1.0889 -3.1254
  831SOL     OW 2491   2.770   2.054   0.138 -0.1765 -0.4221 -1.0338
  831SOL    HW1 2492   2.726   1.964   0.116  1.4946 -1.0026 -1.7767
  831SOL    HW2 2493   2.758   2.082   0.238  0.1618  2.3432  0.4786
  832SOL     OW 2494   1.103   2.756   0.680  0.2091 -0.0297 -0.0878
  832SOL    HW1 2495   1.113   2.718   0.772  1.1825  2.4632  1.2493
  832SOL    HW2 2496   1.171   2.830   0.670  1.0865  0.7699 -1.9744
  833SOL     OW 2497   0.917   0.551   2.649 -0.1589 -0.1805 -0.4606
  833SOL    HW1 2498   0.939   0.575   2.552 -0.5351 -0.8784 -0.6312
  833SOL    HW2 2499   0.997   0.591   2.700 -0.0999 -0.5658 -0.3059
  834SOL     OW 2500   2.815   0.635   0.811  0.2631 -1.0360  0.2077
  834SOL    HW1 2501   2.741   0.610   0.740 -1.2879 -1.9346 -1.2065
  834SOL    HW2 2502   2.828   0.562   0.882 -0.5074  1.4623  2.5378
  835SOL     OW 2503   2.626   0.689   2.043 -0.1733 -0.1516  0.1289
  835SOL    HW1 2504   2.631   0.778   1.993 -2.1061  0.3849  0.5453
  835SOL    HW2 2505   2.610   0.717   2.142 -2.2473 -0.3824 -0.0151
  836SOL     OW 2506   0.478   2.347   0.647  0.1861  0.1123  0.1227
  836SOL    HW1 2507   0.520   2.439   0.669 -2.5084  0.8546  1.0966
  836SOL    HW2 2508   0.545   2.298   0.587  0.7992 -0.3233  0.4043
  837SOL     OW 2509   2.488   1.866   2.236 -0.2961 -0.3567 -0.3450
  837SOL    HW1 2510   2.409   1.807   2.214 -1.0746  1.2239 -1.8029
  837SOL    HW2 2511   2.462   1.947   2.295 -2.3845  2.8356  1.8293
  838SOL     OW 2512   3.080   1.192   2.010 -0.1667 -0.0803 -0.2311
  838SOL    HW1 2513   0.014   1.109   1.981  0.6258  0.0822  3.7079
  838SOL    HW2 2514   3.011   1.215   1.944  0.7091 -1.6252  1.7630
  839SOL     OW 2515   0.250   0.054   0.064 -0.2291 -0.3009 -0.4426
  839SOL    HW1 2516   0.333   0.105   0.084 -4.5488 -0.6554 -0.2860
  839SOL    HW2 2517   0.252   3.071   0.070  1.4973  2.6229 -1.2144
  840SOL     OW 2518   3.002   0.657   2.574 -0.7151  0.9010  0.2387
  840SOL    HW1 2519   2.996   0.742   2.636 -3.0882 -1.4989 -0.4119
  840SOL    HW2 2520   2.969   0.570   2.622 -0.6185 -1.1059 -2.4594
  841SOL     OW 2521   0.602   2.245   2.703  0.0908 -0.6022 -0.2936
  841SOL    HW1 2522   0.537   2.278   2.775 -1.4441  0.8110  1.6061
  841SOL    HW2 2523   0.556   2.174   2.643  0.2085 -1.8104  1.3165
  842SOL     OW 2524   0.962   0.062   1.148 -0.1210  0.0439  0.6158
  842SOL    HW1 2525   0.935   3.096   1.202  0.8652  2.5288 -0.7287
  842SOL    HW2 2526   0.917   0.068   1.057 -1.7423 -0.5276 -0.4012
  843SOL     OW 2527   0.491   1.581   2.646  0.1233 -0.0319  0.3603
  843SOL    HW1 2528   0.553   1.663   2.631  1.2287  2.6055 -1.2717
  843SOL    HW2 2529   0.547   1.506   2.691  0.7446  0.4173  0.2394
  844SOL     OW 2530   1.408   1.901   2.305 -0.2059 -0.2276 -0.0926
  844SOL    HW1 2531   1.391   1.927   2.209 -2.1573  0.9166  1.0691
  844SOL    HW2 2532   1.492   1.838   2.314  1.1578 -0.7785  0.1066
  845SOL     OW 2533   2.371   2.785   2.793  0.0158 -0.0619  0.1841
  845SOL    HW1 2534   2.388   2.876   2.748  0.1274  0.1933  0.4802
  845SOL    HW2 2535   2.332   2.719   2.724 -0.1159  0.3071 -0.8674
  846SOL     OW 2536   2.148   1.526   3.008 -0.0954 -0.5147 -0.5073
  846SOL    HW1 2537   2.135   1.612   2.959 -1.8434 -1.9247 -0.8408
  846SOL    HW2 2538   2.101   1.516   3.098 -1.0443 -1.9811 -0.0375
  847SOL     OW 2539   2.400   0.283   2.758  0.3557  0.2277  0.2924
  847SOL    HW1 2540   2.497   0.278   2.731  3.7069 -0.0859 -1.2893
  847SOL    HW2 2541   2.378   0.374   2.798 -0.8794  1.2982 -0.1528
  848SOL     OW 2542   3.082   0.724   0.158  0.3828 -0.2443 -0.1829
  848SOL    HW1 2543   0.027   0.792   0.193  0.5688 -3.3697 -1.3809
  848SOL    HW2 2544   3.003   0.713   0.219  0.0222  0.5826  0.0088
  849SOL     OW 2545   1.401   0.213   2.363 -0.0475  0.1774 -0.2897
  849SOL    HW1 2546   1.421   0.147   2.438 -1.0846  0.2357  0.9492
  849SOL    HW2 2547   1.384   0.304   2.408 -2.5120  0.2022  1.2755
  850SOL     OW 2548   2.806   1.039   0.732  0.8058 -0.2524  0.3395
  850SOL    HW1 2549   2.784   0.982   0.813 -0.8800 -0.0234 -3.5076
  850SOL    HW2 2550   2.905   1.044   0.714 -1.0610  0.1795 -0.8117
  851SOL     OW 2551   0.349   1.094   1.035  0.3952  0.3344  0.4835
  851SOL    HW1 2552   0.261   1.058   1.074 -0.7577 -2.3555 -3.1923
  851SOL    HW2 2553   0.391   1.028   0.967  1.5197  0.6287  0.3103
  852SOL     OW 2554   1.331   1.190   1.971 -0.4018 -0.3841  0.2533
  852SOL    HW1 2555   1.288   1.283   1.980  2.0564  1.3575  0.5186
  852SOL    HW2 2556   1.325   1.161   1.875  1.2776  0.6642 -1.1099
  853SOL     OW 2557   1.960   1.250   0.117 -0.8423  0.3027  0.0982
  853SOL    HW1 2558   1.953   1.213   0.028  2.6036 -4.3353 -1.3664
  853SOL    HW2 2559   2.008   1.339   0.123  0.0726 -0.1729  0.3247
  854SOL     OW 2560   1.752   1.156   2.020 -0.0251 -0.3005 -0.0055
  854SOL    HW1 2561   1.849   1.137   2.029 -2.4407 -0.6139 -0.0006
  854SOL    HW2 2562   1.715   1.119   1.936 -0.2336  1.9657  2.9574
  855SOL     OW 2563   0.545   2.221   2.243  0.1695 -0.0916 -0.1229
  855SOL    HW1 2564   0.472   2.266   2.185 -1.2554  0.7082  1.5628
  855SOL    HW2 2565   0.591   2.293   2.301 -0.3436 -0.5581  1.9401
  856SOL     OW 2566   1.200   1.039   2.147 -0.6213  0.5734 -0.1282
  856SOL    HW1 2567   1.100   1.049   2.148  2.1105  1.8719  0.4331
  856SOL    HW2 2568   1.246   1.112   2.089 -2.1980 -0.9232 -0.0529
  857SOL     OW 2569   1.117   1.046   2.412  0.0117 -0.0682 -0.3771
  857SOL    HW1 2570   1.034   0.990   2.397  1.1820 -0.1953 -3.0576
  857SOL    HW2 2571   1.178   1.047   2.330 -1.2702  1.8431  1.5107
  858SOL     OW 2572   0.179   0.717   1.761  0.3395  0.0796 -0.2375
  858SOL    HW1 2573   0.146   0.725   1.665  0.1280 -0.6630  0.6832
  858SOL    HW2 2574   0.142   0.633   1.795  2.7238  2.6921 -2.0989
  859SOL     OW 2575   2.337   2.942   0.804  0.4483  0.5123 -0.0304
  859SOL    HW1 2576   2.331   3.020   0.740  0.0024 -2.9812  2.3934
  859SOL    HW2 2577   2.405   2.958   0.877  0.0056  0.7042 -3.3990
  860SOL     OW 2578   1.672   0.505   1.454 -0.0844 -0.1507  0.3081
  860SOL    HW1 2579   1.721   0.598   1.462 -1.1353 -1.9609 -0.3314
  860SOL    HW2 2580   1.589   0.500   1.394 -3.7393  0.8812  1.7398
  861SOL     OW 2581   1.767   0.691   1.211  0.2957  0.3204 -0.2076
  861SOL    HW1 2582   1.831   0.767   1.187 -1.2214  4.2451 -4.1501
  861SOL    HW2 2583   1.708   0.717   1.285  0.6887 -2.3478  0.1949
  862SOL     OW 2584   1.421   2.919   2.581 -0.3222  0.4930  0.5465
  862SOL    HW1 2585   1.381   2.835   2.531 -1.4174 -0.8318  0.4950
  862SOL    HW2 2586   1.478   2.881   2.654 -0.5001  0.0278 -1.7411
  863SOL     OW 2587   2.845   3.078   1.566  0.1294 -0.9737  0.3482
  863SOL    HW1 2588   2.799   3.113   1.653 -0.6039 -1.9700  0.9949
  863SOL    HW2 2589   2.930   0.016   1.550 -1.6819  0.9358  2.8466
  864SOL     OW 2590   2.759   2.910   1.944 -0.5457  0.6898 -0.2489
  864SOL    HW1 2591   2.726   2.860   2.029 -0.9478  0.8193  0.5334
  864SOL    HW2 2592   2.683   2.960   1.900 -2.0477  1.1439 -0.5113
  865SOL     OW 2593   1.125   1.223   2.803 -0.6719  0.1075  0.2084
  865SOL    HW1 2594   1.062   1.140   2.813 -3.1825  2.8750 -0.1273
  865SOL    HW2 2595   1.104   1.277   2.721  0.0209 -0.5054  2.9429
  866SOL     OW 2596   2.808   3.062   1.296 -0.1109  0.1358  1.0401
  866SOL    HW1 2597   2.823   3.061   1.396  0.1401  3.1882 -0.9640
  866SOL    HW2 2598   2.771   2.975   1.263 -0.5162 -0.0126 -0.8707
  867SOL     OW 2599   3.089   2.826   0.982 -0.0788  0.0886 -0.1495
  867SOL    HW1 2600   0.066   2.793   0.994 -0.7639  1.3742  2.0080
  867SOL    HW2 2601   3.081   2.913   1.036  0.7057 -2.4301 -1.6352
  868SOL     OW 2602   3.007   1.547   1.486  0.5109  0.1536  0.4568
  868SOL    HW1 2603   2.914   1.572   1.453 -0.0621  1.9104  1.2483
  868SOL    HW2 2604   2.996   1.548   1.588 -0.5583  1.0579 -0.6621
  869SOL     OW 2605   1.903   1.966   2.368  0.0598  0.5674  0.5660
  869SOL    HW1 2606   1.826   2.031   2.363  3.2157 -3.4885  0.2638
  869SOL    HW2 2607   1.987   2.015   2.396 -0.0641 -0.0860 -0.3439
  870SOL     OW 2608   1.470   0.822   0.693 -0.0828 -0.1979  0.1408
  870SOL    HW1 2609   1.423   0.914   0.693 -0.5669  1.4230 -0.0203
  870SOL    HW2 2610   1.421   0.761   0.756 -1.2943  1.2171 -1.6842
  871SOL     OW 2611   2.772   1.701   1.861 -0.2099 -0.2558 -0.5578
  871SOL    HW1 2612   2.716   1.741   1.790  1.8109  0.1605  0.2995
  871SOL    HW2 2613   2.759   1.732   1.961  3.5919 -1.0740  0.5241
  872SOL     OW 2614   0.879   1.685   2.995  0.0915  0.5578  0.5723
  872SOL    HW1 2615   0.926   1.775   3.008  0.3676  0.8974  1.6426
  872SOL    HW2 2616   0.880   1.636   3.085 -0.2547 -2.3717 -0.8051
  873SOL     OW 2617   0.900   1.299   1.868 -0.2488  0.1849 -0.2987
  873SOL    HW1 2618   0.847   1.384   1.858 -0.1683 -1.7346 -1.8076
  873SOL    HW2 2619   0.993   1.317   1.903 -1.0552 -0.0353  3.4040
  874SOL     OW 2620   1.390   0.928   1.320  0.0643  0.5994  0.2607
  874SOL    HW1 2621   1.481   0.978   1.332  1.4862 -0.9007  1.1865
  874SOL    HW2 2622   1.309   0.966   1.368 -1.9655 -1.1917 -0.1163
  875SOL     OW 2623   2.674   3.007   2.834  0.1355  0.6495 -0.0615
  875SOL    HW1 2624   2.639   2.998   2.740  1.0067 -0.0393 -1.4754
  875SOL    HW2 2625   2.651   2.922   2.887 -1.2107 -0.9539  1.7544
  876SOL     OW 2626   0.986   1.264   0.513  0.3007 -0.2371 -0.3970
  876SOL    HW1 2627   0.945   1.183   0.559 -1.1756 -2.5508  0.6450
  876SOL    HW2 2628   1.086   1.281   0.539  0.6097  1.3026 -1.2463
  877SOL     OW 2629   1.979   2.994   0.496  0.6724  0.1174  0.1759
  877SOL    HW1 2630   1.955   3.092   0.508  1.4397  0.7919 -0.1082
  877SOL    HW2 2631   2.072   2.991   0.457  0.3572 -1.1641  0.0722
  878SOL     OW 2632   1.883   2.265   0.069 -0.3861 -0.2327  0.3241
  878SOL    HW1 2633   1.977   2.286   0.099  0.3313 -0.3615 -0.6152
  878SOL    HW2 2634   1.835   2.208   0.132  3.9651  3.9800 -0.9841
  879SOL     OW 2635   0.536   2.123   1.784 -0.0571 -0.3170  0.2677
  879SOL    HW1 2636   0.500   2.091   1.692 -0.1126 -1.7820  0.8534
  879SOL    HW2 2637   0.472   2.084   1.853 -2.2183 -1.4243  2.4545
  880SOL     OW 2638   0.188   1.958   0.702  0.1759 -0.1251 -0.5318
  880SOL    HW1 2639   0.273   1.996   0.738  0.1612 -1.9439  1.9431
  880SOL    HW2 2640   0.198   1.863   0.665 -0.4736  2.1031  0.6137
  881SOL     OW 2641   1.163   0.010   2.387 -0.2204  0.2487  0.5198
  881SOL    HW1 2642   1.159   0.002   2.488 -2.1720 -1.2655 -1.2984
  881SOL    HW2 2643   1.215   0.092   2.363  0.5289 -0.8079  0.3112
  882SOL     OW 2644   2.520   1.071   0.987  0.3856 -0.6078 -0.5954
  882SOL    HW1 2645   2.602   1.029   0.944 -1.4607  1.0890 -1.4080
  882SOL    HW2 2646   2.454   1.006   1.020 -0.0845  1.6924 -0.5710
  883SOL     OW 2647   1.484   0.549   2.089  0.0385  0.0719  0.2321
  883SOL    HW1 2648   1.491   0.599   2.180  1.5654 -0.0873  0.9618
  883SOL    HW2 2649   1.554   0.594   2.024  4.1866  0.0907 -1.6852
  884SOL     OW 2650   0.222   0.136   1.771  0.2409 -0.2189  0.6868
  884SOL    HW1 2651   0.207   0.125   1.672 -0.0212 -0.2252 -2.1497
  884SOL    HW2 2652   0.269   0.222   1.802  2.1365  0.1513 -0.6140
  885SOL     OW 2653   2.282   1.235   2.658  0.2700 -0.6846 -0.0115
  885SOL    HW1 2654   2.334   1.323   2.662  0.9601 -0.9481  0.5077
  885SOL    HW2 2655   2.256   1.222   2.559  0.6482  1.0956  0.3193
  886SOL     OW 2656   1.921   0.248   2.897 -0.3069 -0.4919 -0.0104
  886SOL    HW1 2657   1.962   0.307   2.826  0.9704  0.3773 -0.4722
  886SOL    HW2 2658   1.832   0.288   2.925 -0.6538 -0.1924 -0.8310
  887SOL     OW 2659   1.134   2.980   1.654  0.3180  0.2167  0.5300
  887SOL    HW1 2660   1.150   2.931   1.748  1.9929 -1.5192 -1.3067
  887SOL    HW2 2661   1.183   2.927   1.583  0.2172 -0.4525  0.0669
  888SOL     OW 2662   2.233   1.657   1.851  0.3139 -0.4430 -0.3367
  888SOL    HW1 2663   2.227   1.761   1.828 -1.7967  1.9113 -0.4798
  888SOL    HW2 2664   2.298   1.613   1.789 -0.4595  1.1296 -0.6850
  889SOL     OW 2665   1.972   2.524   1.228  0.2088  0.4820  0.3986
  889SOL    HW1 2666   2.055   2.566   1.186  0.1572 -1.2949 -0.0701
  889SOL    HW2 2667   1.951   2.431   1.191  2.0341 -0.1713 -0.8641
  890SOL     OW 2668   1.218   1.938   0.858 -0.0955  0.4844  0.0115
  890SOL    HW1 2669   1.185   1.905   0.949  0.3761  0.3634 -0.7692
  890SOL    HW2 2670   1.143   1.974   0.798  0.1230 -1.5980 -0.1158
  891SOL     OW 2671   0.087   1.203   0.503  0.3091  0.0595 -0.2926
  891SOL    HW1 2672   0.012   1.144   0.461 -4.5326  0.9592 -1.9010
  891SOL    HW2 2673   0.036   1.278   0.551 -1.1903 -0.0456 -1.9943
  892SOL     OW 2674   2.486   1.751   2.755  0.3463 -0.4039 -0.1934
  892SOL    HW1 2675   2.543   1.665   2.766 -0.3588 -0.0011  0.4779
  892SOL    HW2 2676   2.475   1.788   2.849  0.7596 -0.4257 -0.4405
  893SOL     OW 2677   2.194   2.606   1.073 -0.0039 -0.3073 -0.1281
  893SOL    HW1 2678   2.178   2.694   1.024  0.6418  2.2484 -2.5354
  893SOL    HW2 2679   2.280   2.609   1.124 -0.5041  0.3176 -2.1902
  894SOL     OW 2680   2.755   0.251   0.801 -0.1820 -0.5729 -0.1544
  894SOL    HW1 2681   2.738   0.153   0.794  0.4087  2.1311  0.4043
  894SOL    HW2 2682   2.673   0.300   0.759 -4.4622 -2.3253 -0.5482
  895SOL     OW 2683   2.453   2.476   2.482  0.3019  0.3871 -0.6221
  895SOL    HW1 2684   2.540   2.522   2.460  1.1119 -0.7733  1.3479
  895SOL    HW2 2685   2.473   2.414   2.559  0.5745 -1.3367  1.8040
  896SOL     OW 2686   2.101   2.817   2.564  0.0041 -0.8985  0.3533
  896SOL    HW1 2687   2.184   2.758   2.558  0.6201  3.1276  0.6622
  896SOL    HW2 2688   2.128   2.913   2.550 -0.7406  1.1747  1.8833
  897SOL     OW 2689   0.292   1.327   2.150 -0.1730  0.0042  0.6739
  897SOL    HW1 2690   0.208   1.304   2.202 -2.1772 -0.9174 -1.1410
  897SOL    HW2 2691   0.357   1.381   2.200 -1.9868 -1.0182 -0.4814
  898SOL     OW 2692   0.035   1.642   2.007 -0.7724 -0.2585  0.3247
  898SOL    HW1 2693   3.104   1.656   2.095  1.3433  2.3828  1.5332
  898SOL    HW2 2694   0.097   1.559   2.007 -0.2465  0.8464  2.8833
  899SOL     OW 2695   1.919   0.086   1.412  0.4895  0.4663  0.0008
  899SOL    HW1 2696   1.911   0.182   1.441 -1.8908 -0.0073  0.9558
  899SOL    HW2 2697   1.834   0.029   1.425 -1.7986 -0.2984  2.3309
  900SOL     OW 2698   1.224   0.888   0.405 -0.1668 -0.1817  0.3350
  900SOL    HW1 2699   1.286   0.810   0.377 -0.0256  0.4797 -0.4869
  900SOL    HW2 2700   1.247   0.972   0.347  0.5826  2.6260  0.1237
  901SOL     OW 2701   0.935   1.029   2.819 -0.4505 -0.1032  0.2146
  901SOL    HW1 2702   0.964   0.939   2.855 -1.2814 -0.9901 -0.6424
  901SOL    HW2 2703   0.863   1.018   2.742 -3.7047  1.7342 -1.9840
  902SOL     OW 2704   2.986   2.427   0.823  0.2970  0.2811 -0.0125
  902SOL    HW1 2705   2.967   2.525   0.831  1.0082 -2.7403 -2.0164
  902SOL    HW2 2706   2.901   2.368   0.838 -3.8462 -1.3949 -0.5457
  903SOL     OW 2707   2.706   1.426   1.899  0.2838  0.8210 -0.0185
  903SOL    HW1 2708   2.722   1.527   1.880 -1.9195 -0.2022 -2.8281
  903SOL    HW2 2709   2.743   1.404   1.993  1.4419 -1.1448 -0.0687
  904SOL     OW 2710   1.539   1.267   0.763  0.6938 -0.0814  0.2971
  904SOL    HW1 2711   1.445   1.235   0.745  0.7518 -2.0441 -0.5910
  904SOL    HW2 2712   1.602   1.188   0.743  1.7847 -1.5289 -0.5921
  905SOL     OW 2713   2.415   2.627   1.312 -0.1931 -0.3390 -0.2011
  905SOL    HW1 2714   2.399   2.721   1.352 -0.9481 -1.5230  2.2201
  905SOL    HW2 2715   2.509   2.600   1.338 -0.7616 -1.5250  0.5452
  906SOL     OW 2716   1.505   2.433   3.038 -0.0894  0.3115  0.5312
  906SOL    HW1 2717   1.569   2.447   3.114  0.4134  0.1166 -1.1626
  906SOL    HW2 2718   1.557   2.394   2.952  2.7648 -1.9360  0.4342
  907SOL     OW 2719   0.448   2.930   0.641 -0.1021 -0.4640  0.0995
  907SOL    HW1 2720   0.371   2.957   0.704 -2.0482  2.3675 -1.3223
  907SOL    HW2 2721   0.520   3.003   0.642  2.2285  1.6985  2.3159
  908SOL     OW 2722   0.565   0.263   2.066  0.4948  0.4139 -0.2889
  908SOL    HW1 2723   0.613   0.173   2.067 -0.8289 -0.4378 -0.3143
  908SOL    HW2 2724   0.623   0.338   2.034  0.3138 -0.4697  2.3285
  909SOL     OW 2725   2.014   0.579   1.501  0.0333 -0.3305  0.5134
  909SOL    HW1 2726   1.953   0.496   1.495 -0.4194  1.5300  1.1396
  909SOL    HW2 2727   2.040   0.621   1.412 -1.1809 -0.8175 -1.2282
  910SOL     OW 2728   0.954   0.887   0.307  0.8618  0.1396  0.3728
  910SOL    HW1 2729   0.907   0.829   0.382 -0.3303 -2.2615  5.0684
  910SOL    HW2 2730   1.051   0.917   0.330  1.2586  1.5136  0.9341
  911SOL     OW 2731   0.073   0.345   2.916 -0.0469  0.0590 -0.1138
  911SOL    HW1 2732   0.039   0.333   3.012 -1.5212 -0.2314  1.7692
  911SOL    HW2 2733   0.040   0.270   2.855  0.0252 -1.6012  1.4592
  912SOL     OW 2734   2.695   2.316   2.702  0.0777 -0.2055  0.4974
  912SOL    HW1 2735   2.739   2.406   2.698  1.4308  0.7015 -4.7630
  912SOL    HW2 2736   2.750   2.245   2.646  0.6156 -1.1841 -2.6988
  913SOL     OW 2737   2.529   2.467   3.061 -0.0071  0.1984 -0.3454
  913SOL    HW1 2738   2.578   2.457   0.032 -1.1918 -1.6596 -0.0195
  913SOL    HW2 2739   2.558   2.551   3.017 -0.6694 -2.0198  2.7778
  914SOL     OW 2740   1.877   1.561   1.874 -0.0117  0.0279 -0.4308
  914SOL    HW1 2741   1.970   1.560   1.920  1.4442  2.7889 -2.6098
  914SOL    HW2 2742   1.820   1.638   1.902  0.7625 -0.4262  0.0953
  915SOL     OW 2743   3.083   2.486   2.319  0.0526 -0.1790  0.1626
  915SOL    HW1 2744   3.090   2.538   2.406  2.4786 -0.8934  2.5516
  915SOL    HW2 2745   2.990   2.480   2.277  0.3957 -1.3734  0.7308
  916SOL     OW 2746   2.868   0.979   1.682 -0.5506  0.3394  0.1695
  916SOL    HW1 2747   2.879   1.081   1.712 -0.5229  1.8042  1.8188
  916SOL    HW2 2748   2.943   0.945   1.617  0.8932 -3.5853 -3.8903
  917SOL     OW 2749   2.077   0.059   3.004  0.1788  0.1014  0.6326
  917SOL    HW1 2750   2.029   0.011   3.079  1.0716  0.5014 -2.6497
  917SOL    HW2 2751   2.021   0.132   2.960 -1.1424  0.2802 -0.9808
  918SOL     OW 2752   1.774   2.565   2.150 -0.0976  0.4863  0.2046
  918SOL    HW1 2753   1.868   2.546   2.174  0.8962  2.0519  0.4927
  918SOL    HW2 2754   1.743   2.658   2.175 -0.3395  0.9731  0.6694
  919SOL     OW 2755   2.012   2.247   1.879  0.6635  0.3994 -0.2179
  919SOL    HW1 2756   1.953   2.238   1.797  0.6511  1.8064  1.7654
  919SOL    HW2 2757   1.972   2.194   1.951  1.6898  0.8077  0.4146
  920SOL     OW 2758   0.380   0.886   0.156 -0.7153  0.0554  0.0997
  920SOL    HW1 2759   0.475   0.880   0.191 -0.2451  1.8586  0.6887
  920SOL    HW2 2760   0.365   0.845   0.058 -0.3097  0.3341  1.0459
  921SOL     OW 2761   2.819   1.134   2.712  0.1833 -0.1353  0.0531
  921SOL    HW1 2762   2.757   1.140   2.794 -1.9200 -0.8314  4.0030
  921SOL    HW2 2763   2.760   1.131   2.628  1.0863 -0.1024 -1.0086
  922SOL     OW 2764   0.308   1.990   0.113 -0.2532 -0.3219  0.2768
  922SOL    HW1 2765   0.223   2.004   0.059  1.1702  0.2292 -0.2757
  922SOL    HW2 2766   0.334   1.894   0.141 -1.7695  0.2522 -1.9942
  923SOL     OW 2767   0.430   0.962   2.283  0.0671 -0.0011  0.0463
  923SOL    HW1 2768   0.343   0.920   2.246 -0.4948 -2.7754  0.5281
  923SOL    HW2 2769   0.483   0.886   2.325  0.3506 -1.3946 -1.0075
  924SOL     OW 2770   0.973   2.805   2.497 -0.0478 -0.6384 -0.1558
  924SOL    HW1 2771   0.956   2.882   2.432  1.7454 -2.4782  0.0788
  924SOL    HW2 2772   0.985   2.835   2.592  1.3709 -2.6132 -0.7235
  925SOL     OW 2773   1.612   1.203   1.011 -0.1064  0.7871 -0.0519
  925SOL    HW1 2774   1.601   1.223   0.914  3.1649  0.6886  1.2226
  925SOL    HW2 2775   1.562   1.117   1.036  0.8767 -3.8900  0.9088
  926SOL     OW 2776   1.847   0.837   2.175 -0.3703 -0.2275 -0.1979
  926SOL    HW1 2777   1.791   0.787   2.107 -3.4399 -1.8879  1.0961
  926SOL    HW2 2778   1.800   0.835   2.268 -3.7643 -0.6912 -1.6668
  927SOL     OW 2779   2.882   2.460   1.704 -0.4837  0.1388 -0.1416
  927SOL    HW1 2780   2.929   2.410   1.781 -0.9463  0.4766 -0.9924
  927SOL    HW2 2781   2.841   2.546   1.739 -0.2899 -1.3246  2.9924
  928SOL     OW 2782   0.321   0.890   2.695 -0.2427 -0.2679  0.4015
  928SOL    HW1 2783   0.315   0.788   2.694 -2.0967  1.6566 -1.4906
  928SOL    HW2 2784   0.416   0.924   2.701 -2.5802  0.0571  1.4199
  929SOL     OW 2785   2.707   3.082   0.794  0.1416 -0.1463 -0.1982
  929SOL    HW1 2786   2.622   3.052   0.841  0.9470  0.4783  1.6854
  929SOL    HW2 2787   2.708   3.042   0.705 -1.1528  1.6335  1.3270
  930SOL     OW 2788   2.456   0.179   1.725 -0.3839 -0.1646  0.9745
  930SOL    HW1 2789   2.427   0.091   1.678  1.0401 -0.1170 -0.9255
  930SOL    HW2 2790   2.446   0.256   1.658 -0.7928  0.8513 -0.3667
  931SOL     OW 2791   2.126   1.042   3.061  0.3142  0.1537  1.1028
  931SOL    HW1 2792   2.199   0.985   3.099  0.3471  0.4587  2.4384
  931SOL    HW2 2793   2.161   1.135   3.029 -3.0221  0.1336  0.6773
  932SOL     OW 2794   2.444   1.770   1.495  0.5044 -0.2312 -0.2427
  932SOL    HW1 2795   2.356   1.825   1.508  0.8882  1.4197 -2.5486
  932SOL    HW2 2796   2.448   1.719   1.409  1.2056 -2.3437 -0.6502
  933SOL     OW 2797   0.083   2.744   1.399  0.1021  0.1765 -0.4728
  933SOL    HW1 2798   0.164   2.688   1.396  1.2210  3.1250  1.2595
  933SOL    HW2 2799   0.068   2.774   1.492  0.1594  2.9584 -0.3861
  934SOL     OW 2800   0.840   2.584   1.288  0.2525 -0.6366 -0.2415
  934SOL    HW1 2801   0.800   2.656   1.353  1.6553  1.3839  2.6003
  934SOL    HW2 2802   0.940   2.590   1.281  0.1942 -0.1417 -0.8937
  935SOL     OW 2803   2.265   1.375   2.159 -0.1032  0.4381  0.1803
  935SOL    HW1 2804   2.360   1.391   2.189  0.7282 -0.1318 -0.4374
  935SOL    HW2 2805   2.268   1.295   2.095 -0.2864  1.0185  0.5365
  936SOL     OW 2806   2.336   1.202   1.530  0.4995  0.8050  0.1149
  936SOL    HW1 2807   2.420   1.152   1.500  1.9111 -0.0475 -0.3234
  936SOL    HW2 2808   2.343   1.245   1.621 -0.2509  0.1545 -0.8710
  937SOL     OW 2809   2.222   1.037   2.181 -0.0772  0.5495 -0.3337
  937SOL    HW1 2810   2.233   1.113   2.246 -1.6763 -2.2069 -1.6224
  937SOL    HW2 2811   2.215   0.947   2.235  0.8590 -0.7040 -0.4929
  938SOL     OW 2812   0.824   2.583   3.053 -0.2886  0.6091  0.2695
  938SOL    HW1 2813   0.890   2.516   3.090 -0.0636  0.2108  1.2589
  938SOL    HW2 2814   0.814   2.664   3.116 -0.8020 -1.3704  0.6480
  939SOL     OW 2815   2.840   0.698   0.001 -0.1931 -0.2047 -0.2385
  939SOL    HW1 2816   2.821   0.598   3.104  0.4226  0.6279  0.3601
  939SOL    HW2 2817   2.929   0.710   0.049  3.5259 -2.7748  1.2113
  940SOL     OW 2818   1.210   1.910   1.158 -0.2592 -0.0661 -0.0245
  940SOL    HW1 2819   1.280   1.866   1.213 -0.3426  1.7578 -0.9577
  940SOL    HW2 2820   1.116   1.877   1.179 -1.9577 -0.6773  3.2052
  941SOL     OW 2821   0.810   2.008   1.928 -0.3591 -0.1690  0.0329
  941SOL    HW1 2822   0.736   1.993   1.862  0.2360 -0.8200  0.2965
  941SOL    HW2 2823   0.891   1.949   1.904  2.6765 -0.0186  2.3240
  942SOL     OW 2824   0.264   1.956   2.847  0.1942  0.5156 -0.0650
  942SOL    HW1 2825   0.243   1.895   2.765  2.8631  0.0667  0.0089
  942SOL    HW2 2826   0.358   1.943   2.871 -0.2839 -0.2667 -1.4152
  943SOL     OW 2827   1.900   2.856   1.852 -0.3308  0.2562 -0.5492
  943SOL    HW1 2828   1.891   2.754   1.862 -0.9744  1.1539 -0.2573
  943SOL    HW2 2829   1.947   2.879   1.765 -0.7009  1.7880  1.5279
  944SOL     OW 2830   0.947   1.840   0.201  0.1110  0.3633 -0.3773
  944SOL    HW1 2831   1.030   1.846   0.144  0.7665 -3.0413  0.1404
  944SOL    HW2 2832   0.905   1.748   0.201  1.0225  1.6525  1.0756
  945SOL     OW 2833   2.670   2.670   0.901  0.2201 -0.2847 -0.3841
  945SOL    HW1 2834   2.766   2.686   0.873 -1.7437 -0.9375 -1.1566
  945SOL    HW2 2835   2.605   2.653   0.821  0.4693 -1.5002 -2.9731
  946SOL     OW 2836   0.872   1.606   2.728  0.1828  0.3268  0.6966
  946SOL    HW1 2837   0.961   1.604   2.681 -1.0992  0.3265  1.9773
  946SOL    HW2 2838   0.884   1.633   2.825  1.5978  0.4344 -0.2943
  947SOL     OW 2839   0.047   0.581   2.144 -0.0776  0.2059  0.4982
  947SOL    HW1 2840   0.110   0.657   2.159 -2.5057 -0.3010 -1.5202
  947SOL    HW2 2841   0.068   0.539   2.053  0.9894 -0.5419  0.2349
  948SOL     OW 2842   0.138   1.479   0.806 -0.4512 -0.7657  0.1022
  948SOL    HW1 2843   0.200   1.531   0.742 -0.1649 -0.8111 -1.0984
  948SOL    HW2 2844   0.130   1.526   0.895 -1.1127 -1.3877  3.6319
  949SOL     OW 2845   0.586   0.781   2.406 -0.0867  0.1796 -0.3002
  949SOL    HW1 2846   0.594   0.732   2.495  3.5218 -3.2153  1.8434
  949SOL    HW2 2847   0.676   0.819   2.385  0.4452 -0.2866  1.1663
  950SOL     OW 2848   0.319   0.458   1.505 -0.0007  0.2670 -0.2965
  950SOL    HW1 2849   0.381   0.520   1.452 -1.3925 -0.4424 -1.5961
  950SOL    HW2 2850   0.351   0.438   1.599  2.3090 -2.4197  1.1937
  951SOL     OW 2851   0.693   1.407   2.723  0.7409 -0.1044  0.4139
  951SOL    HW1 2852   0.756   1.486   2.718  1.3101 -0.9180  0.1909
  951SOL    HW2 2853   0.690   1.362   2.631 -3.3795 -1.5440  0.3087
  952SOL     OW 2854   2.022   2.210   0.843  0.2222 -0.1505  0.6009
  952SOL    HW1 2855   2.018   2.108   0.836 -0.4522  0.1060  0.4396
  952SOL    HW2 2856   1.990   2.247   0.751 -0.9122  1.7353  0.2214
  953SOL     OW 2857   0.627   0.610   0.298 -0.3182 -0.4012 -0.0974
  953SOL    HW1 2858   0.603   0.670   0.383 -2.7283  1.0309  4.2730
  953SOL    HW2 2859   0.551   0.617   0.232  1.4099  0.2205  1.8977
  954SOL     OW 2860   2.311   0.318   1.036  0.0552  0.2090  0.1270
  954SOL    HW1 2861   2.394   0.381   1.032 -1.5743  1.4282  1.7219
  954SOL    HW2 2862   2.223   0.375   1.041 -0.4284 -0.8790  0.1909
  955SOL     OW 2863   1.768   1.206   0.318 -0.7041  0.7093  0.0223
  955SOL    HW1 2864   1.825   1.203   0.231  1.3905  0.9428  0.4010
  955SOL    HW2 2865   1.673   1.236   0.298 -1.3663  0.4102 -1.3347
  956SOL     OW 2866   1.186   0.580   2.189 -0.0530 -0.3736  0.4312
  956SOL    HW1 2867   1.227   0.669   2.230  1.0671  3.1791  3.4253
  956SOL    HW2 2868   1.243   0.499   2.212 -1.3009 -1.0469 -2.9087
  957SOL     OW 2869   1.257   0.510   1.915  0.2970  0.5497 -0.0469
  957SOL    HW1 2870   1.218   0.427   1.869 -0.6424 -0.8875 -0.8988
  957SOL    HW2 2871   1.339   0.485   1.971 -2.5374 -4.3402  1.4059
  958SOL     OW 2872   0.384   1.998   0.418  1.0460  0.3020 -0.2942
  958SOL    HW1 2873   0.411   2.075   0.352 -0.7480 -0.1093  4.1032
  958SOL    HW2 2874   0.463   1.975   0.479 -2.5088 -0.5467 -0.0365
  959SOL     OW 2875   2.191   0.907   1.598  0.1846  0.1211  0.0678
  959SOL    HW1 2876   2.176   1.006   1.583  1.6807 -0.3751  0.6925
  959SOL    HW2 2877   2.106   0.853   1.619  2.2233  2.0373  2.4773
  960SOL     OW 2878   0.087   1.658   2.984  1.0614 -0.1950 -0.2919
  960SOL    HW1 2879   0.190   1.650   2.983  0.1275  1.1215  0.3952
  960SOL    HW2 2880   0.052   1.595   3.056  0.4781 -1.4416 -2.3547
  961SOL     OW 2881   0.527   1.992   1.112 -0.5826 -0.6431  0.2929
  961SOL    HW1 2882   0.434   1.989   1.152 -1.8035  0.8357  0.1449
  961SOL    HW2 2883   0.581   1.915   1.138 -1.9883  1.0935  0.5969
  962SOL     OW 2884   0.369   1.347   0.988 -0.0954  0.2788  0.1734
  962SOL    HW1 2885   0.372   1.246   1.010  0.4924 -0.3256 -0.0235
  962SOL    HW2 2886   0.280   1.390   1.014 -1.0676  0.5182  1.3361
  963SOL     OW 2887   1.610   1.734   2.379 -0.3488  0.2619 -0.3943
  963SOL    HW1 2888   1.665   1.761   2.459 -0.9840  1.0706 -2.5485
  963SOL    HW2 2889   1.669   1.733   2.297 -0.7121 -3.7955  0.0599
  964SOL     OW 2890   0.081   3.051   2.105 -0.6719  0.0651  0.3292
  964SOL    HW1 2891   0.008   2.983   2.090  0.6962 -0.7594  3.1983
  964SOL    HW2 2892   0.175   3.008   2.110 -0.5106 -1.3739 -3.3591
  965SOL     OW 2893   0.042   2.280   2.636 -0.4088 -0.7771 -0.2370
  965SOL    HW1 2894   0.023   2.239   2.728 -3.2296 -0.3912 -0.0489
  965SOL    HW2 2895   0.117   2.240   2.589 -0.3822  3.9034 -1.1868
  966SOL     OW 2896   2.834   1.689   0.010 -0.2165 -0.4019 -0.2664
  966SOL    HW1 2897   2.832   1.615   3.055 -2.5014  1.6571  0.4686
  966SOL    HW2 2898   2.889   1.664   0.092 -0.0326  1.9803 -0.0415
  967SOL     OW 2899   1.953   3.066   0.110  0.6272  0.6596 -0.0918
  967SOL    HW1 2900   2.005   2.986   0.144  1.2065  2.5697  3.7733
  967SOL    HW2 2901   1.853   3.056   0.127  1.2343  0.1784 -0.2341
  968SOL     OW 2902   2.561   0.135   0.467  0.3521  0.0664 -0.2529
  968SOL    HW1 2903   2.605   0.054   0.514 -2.7058 -0.5602  0.4113
  968SOL    HW2 2904   2.458   0.117   0.467  0.7965  3.2659  2.2112
  969SOL     OW 2905   0.155   0.963   1.848 -0.6011  0.1854  0.4398
  969SOL    HW1 2906   0.237   1.014   1.820 -1.0644  1.4098 -0.4853
  969SOL    HW2 2907   0.167   0.867   1.819 -1.2604  0.3746  0.3576
  970SOL     OW 2908   1.576   1.870   0.129 -0.3798  0.6967  0.9006
  970SOL    HW1 2909   1.655   1.919   0.163  1.0484 -3.0139 -0.5934
  970SOL    HW2 2910   1.501   1.937   0.105  0.9262  0.9124  0.5834
  971SOL     OW 2911   2.560   3.018   1.593 -0.0533 -0.4497  0.0258
  971SOL    HW1 2912   2.661   2.997   1.576  0.9244 -0.7387 -0.7408
  971SOL    HW2 2913   2.548   3.004   1.690 -0.5362  1.8723 -4.3573
  972SOL     OW 2914   3.038   0.270   1.281  0.5725  0.5452 -0.5893
  972SOL    HW1 2915   0.006   0.311   1.242  0.5415 -3.0432 -0.2997
  972SOL    HW2 2916   2.974   0.242   1.207 -1.1332  0.7417  2.0942
  973SOL     OW 2917   0.662   0.499   2.596 -0.3245 -0.3169 -0.3432
  973SOL    HW1 2918   0.763   0.494   2.616 -1.9897 -0.1280 -0.1615
  973SOL    HW2 2919   0.612   0.453   2.670  0.9223 -1.0518 -2.5498
  974SOL     OW 2920   2.523   1.479   2.251 -0.0136 -0.2347 -0.5694
  974SOL    HW1 2921   2.475   1.569   2.268  0.2407 -2.7747 -0.5047
  974SOL    HW2 2922   2.608   1.487   2.194 -0.2136  0.8986 -1.3344
  975SOL     OW 2923   1.155   0.200   1.859  0.2700  0.0116 -0.1628
  975SOL    HW1 2924   1.069   0.214   1.905  1.2564  0.0886  2.1678
  975SOL    HW2 2925   1.207   0.116   1.896  1.7221 -0.8091  2.4391
  976SOL     OW 2926   1.592   1.496   1.519 -0.0820  0.0807  0.3785
  976SOL    HW1 2927   1.667   1.447   1.576  1.5657 -1.2736  2.4099
  976SOL    HW2 2928   1.625   1.529   1.428 -2.9670 -0.0789  0.9227
  977SOL     OW 2929   0.523   0.110   0.140  0.3329 -0.4012  0.0828
  977SOL    HW1 2930   0.567   0.195   0.108  0.1116 -2.1875 -0.2437
  977SOL    HW2 2931   0.526   0.033   0.076 -0.6341 -0.7782  0.2951
  978SOL     OW 2932   2.341   1.176   1.981  0.3217  0.7264  0.2773
  978SOL    HW1 2933   2.424   1.144   1.926  0.2488  0.7519 -1.7632
  978SOL    HW2 2934   2.301   1.104   2.045 -2.0244 -3.1817  0.5017
  979SOL     OW 2935   1.613   0.814   1.986 -0.8489 -0.2692  0.2842
  979SOL    HW1 2936   1.592   0.895   2.046 -1.1264 -1.1341  1.2929
  979SOL    HW2 2937   1.633   0.839   1.888  0.5161 -2.2379 -2.0798
  980SOL     OW 2938   2.017   1.472   2.525  0.0945  0.0266  0.1953
  980SOL    HW1 2939   1.952   1.494   2.447 -0.4525  2.9036 -2.0691
  980SOL    HW2 2940   1.965   1.430   2.597  1.6990  2.2962 -0.9734
  981SOL     OW 2941   1.697   0.602   1.757 -0.2572 -0.3165 -0.1130
  981SOL    HW1 2942   1.677   0.551   1.673  3.6141 -1.3391  1.7610
  981SOL    HW2 2943   1.749   0.684   1.740 -1.5984 -1.7623 -1.4664
  982SOL     OW 2944   0.815   0.567   0.100  1.1177  1.0171  0.1625
  982SOL    HW1 2945   0.767   0.596   0.186 -0.3468  0.5896 -0.8459
  982SOL    HW2 2946   0.783   0.599   0.007 -1.5338  0.5295  1.2002
  983SOL     OW 2947   2.511   0.746   0.203  0.2928  0.1467  0.2615
  983SOL    HW1 2948   2.498   0.817   0.277 -0.4220 -0.8122 -0.8194
  983SOL    HW2 2949   2.584   0.677   0.218 -2.2445  1.0820 -1.1758
  984SOL     OW 2950   0.930   0.265   2.610  0.5486  0.5090  0.6361
  984SOL    HW1 2951   0.936   0.210   2.697 -0.5704 -0.9830 -3.3843
  984SOL    HW2 2952   0.953   0.364   2.623 -0.1139 -2.1089 -1.3025
  985SOL     OW 2953   1.691   1.735   1.906  0.4944 -0.5284 -0.5682
  985SOL    HW1 2954   1.612   1.670   1.932 -2.1298  0.2811 -2.0961
  985SOL    HW2 2955   1.719   1.782   1.991 -0.1227  0.5369 -0.2915
  986SOL     OW 2956   2.476   2.668   1.885  0.3060 -0.2000 -0.7610
  986SOL    HW1 2957   2.562   2.692   1.835 -0.3281  0.7846 -0.3037
  986SOL    HW2 2958   2.473   2.710   1.978  0.1503 -1.4067  1.1551
  987SOL     OW 2959   1.879   1.238   0.977 -0.1738  0.1249 -0.3447
  987SOL    HW1 2960   1.908   1.315   0.916  0.8081  4.2030 -0.2082
  987SOL    HW2 2961   1.780   1.232   0.999 -0.5384 -0.6060  1.5320
  988SOL     OW 2962   2.708   1.820   2.091  0.0534 -0.4560  0.1486
  988SOL    HW1 2963   2.775   1.788   2.160  1.7510  2.0212  2.0306
  988SOL    HW2 2964   2.614   1.819   2.132 -2.6194 -0.6273 -1.5335
  989SOL     OW 2965   1.238   2.450   0.277 -0.2414 -0.3674  0.1126
  989SOL    HW1 2966   1.155   2.502   0.270  1.2706 -1.4891 -2.0352
  989SOL    HW2 2967   1.233   2.396   0.364  0.9905 -0.1817 -1.9969
  990SOL     OW 2968   1.879   0.622   2.681 -0.4207 -0.1000  0.2025
  990SOL    HW1 2969   1.940   0.671   2.747 -0.1540  2.0708  0.8327
  990SOL    HW2 2970   1.916   0.527   2.681 -2.1680 -0.4173  0.0146
  991SOL     OW 2971   1.243   0.426   0.826 -0.5204 -0.8688  0.2687
  991SOL    HW1 2972   1.157   0.421   0.765 -1.9739 -1.4825  1.4750
  991SOL    HW2 2973   1.240   0.364   0.902  2.9122  0.8978 -2.5094
  992SOL     OW 2974   2.865   0.768   1.255  0.0472  0.9654  0.6733
  992SOL    HW1 2975   2.774   0.783   1.213  0.6952  0.7737  2.2413
  992SOL    HW2 2976   2.875   0.663   1.263 -0.1063 -4.6770 -1.4256
  993SOL     OW 2977   2.335   0.564   1.835 -0.3711  0.0401 -0.5972
  993SOL    HW1 2978   2.386   0.490   1.885  0.5122 -2.8993  0.0968
  993SOL    HW2 2979   2.393   0.646   1.813  2.0209 -0.4164  0.5001
  994SOL     OW 2980   1.109   1.553   2.538 -0.1183 -0.2588 -0.3109
  994SOL    HW1 2981   1.115   1.457   2.500 -0.7820 -0.5608 -2.9890
  994SOL    HW2 2982   1.143   1.628   2.474  1.2664 -0.0625 -0.1501
  995SOL     OW 2983   2.222   1.269   2.971  0.3560  0.0915 -0.3036
  995SOL    HW1 2984   2.208   1.231   2.879  0.8033 -0.9303  1.1511
  995SOL    HW2 2985   2.181   1.364   2.978 -1.1537  0.4956  3.3691
  996SOL     OW 2986   2.169   1.962   0.546 -0.5592 -0.0257  0.3840
  996SOL    HW1 2987   2.078   1.970   0.589  2.9381 -1.4400 -0.3323
  996SOL    HW2 2988   2.191   1.869   0.511 -0.0953  2.1108  0.3961
  997SOL     OW 2989   2.068   0.566   1.913  0.3705 -0.4948  0.1216
  997SOL    HW1 2990   2.061   0.584   2.014 -0.2918 -0.4901  0.2537
  997SOL    HW2 2991   2.161   0.538   1.886  2.3666 -0.5485 -0.1596
  998SOL     OW 2992   2.467   0.881   0.668 -0.0067 -0.0213  0.1467
  998SOL    HW1 2993   2.377   0.892   0.715 -0.2849  1.1830 -2.7177
  998SOL    HW2 2994   2.494   0.785   0.676  0.3175  0.3327  2.0059
  999SOL     OW 2995   2.621   1.575   0.379 -0.0967 -0.5043 -0.0513
  999SOL    HW1 2996   2.557   1.646   0.353 -1.7930  0.1354 -1.0513
  999SOL    HW2 2997   2.717   1.596   0.362 -0.0591 -3.7834 -0.7939
 1000SOL     OW 2998   0.852   0.802   2.072 -0.4421  0.5063 -1.2472
 1000SOL    HW1 2999   0.909   0.751   2.007  0.9728  0.2911  1.1182
 1000SOL    HW2 3000   0.798   0.742   2.132  2.2521  1.9901  1.8411
   3.11641   3.11641   3.11641
