1000 SPC/Fw water molecules t= 371.00000 step= 371000
 3000
    1SOL     OW    1   2.481   2.741   1.607  0.9184  0.1475  0.2877
    1SOL    HW1    2   2.418   2.809   1.649  1.8220  2.3611  1.1233
    1SOL    HW2    3   2.529   2.787   1.526  2.6224  1.1240 -0.2041
    2SOL     OW    4   2.410   2.475   0.405  0.1160  0.2926 -0.2247
    2SOL    HW1    5   2.512   2.486   0.393  1.6497  3.2196 -1.3393
    2SOL    HW2    6   2.374   2.570   0.400  0.4751 -0.4338  1.0471
    3SOL     OW    7   1.185   0.228   0.167 -0.0276 -0.2742 -0.4511
    3SOL    HW1    8   1.123   0.297   0.214 -1.5558  1.6060 -0.6044
    3SOL    HW2    9   1.150   0.216   0.069  2.6244 -1.5664  0.7200
    4SOL     OW   10   1.165   2.703   2.230  0.3437 -0.3676 -0.1806
    4SOL    HW1   11   1.172   2.613   2.182  1.2804  1.4335 -2.4886
    4SOL    HW2   12   1.074   2.748   2.211 -2.7035 -0.8676  0.0552
    5SOL     OW   13   2.312   0.524   1.629 -0.0256  0.1993 -0.1244
    5SOL    HW1   14   2.350   0.599   1.688 -0.2450 -0.7303  0.8522
    5SOL    HW2   15   2.213   0.504   1.656  0.0678  2.3246  1.6452
    6SOL     OW   16   2.211   2.353   0.267 -0.5154 -0.0490  0.0218
    6SOL    HW1   17   2.291   2.388   0.322  1.1742 -0.2129 -2.9525
    6SOL    HW2   18   2.124   2.375   0.315 -0.7409 -0.7357 -0.7978
    7SOL     OW   19   1.948   1.232   1.172  0.2130  0.1395  0.2474
    7SOL    HW1   20   2.004   1.208   1.252  0.7472  0.4529  0.1710
    7SOL    HW2   21   1.852   1.242   1.202 -1.3778 -1.4884 -0.4339
    8SOL     OW   22   0.961   1.221   1.115 -0.4057 -0.0210 -0.3783
    8SOL    HW1   23   0.895   1.300   1.100 -2.9612  1.3300  0.1826
    8SOL    HW2   24   0.917   1.149   1.172  2.6729  1.0179 -1.7929
    9SOL     OW   25   0.851   2.559   1.595 -0.0847 -0.2695 -0.0802
    9SOL    HW1   26   0.813   2.638   1.649 -0.1365  0.2697  2.2200
    9SOL    HW2   27   0.812   2.472   1.633 -0.1042  0.8675  1.1119
   10SOL     OW   28   1.019   2.295   0.668 -0.3123  0.0066 -0.2468
   10SOL    HW1   29   1.033   2.207   0.717  1.3669  1.5993  0.6962
   10SOL    HW2   30   1.069   2.297   0.580  1.8881 -0.0205 -1.4463
   11SOL     OW   31   1.589   1.823   1.334  0.1233  0.3746  0.4022
   11SOL    HW1   32   1.537   1.901   1.372 -1.4858 -2.5948  0.7376
   11SOL    HW2   33   1.545   1.771   1.258 -1.0961  1.1719 -1.4863
   12SOL     OW   34   2.653   0.503   2.222  0.1296 -0.1155  0.0053
   12SOL    HW1   35   2.590   0.424   2.197 -3.1560 -1.3168  1.2576
   12SOL    HW2   36   2.624   0.587   2.172 -0.6675 -0.3303  1.4719
   13SOL     OW   37   2.646   0.142   0.481  0.1239 -0.0369 -0.1902
   13SOL    HW1   38   2.558   0.115   0.502  3.2528  0.0628 -2.3820
   13SOL    HW2   39   2.701   0.148   0.564 -0.5480  0.2646  0.1859
   14SOL     OW   40   1.664   1.555   0.104 -0.2175  0.0874 -0.0447
   14SOL    HW1   41   1.712   1.647   0.097 -0.0928  2.9501  0.5240
   14SOL    HW2   42   1.570   1.568   0.074 -0.3817 -0.0635  2.4821
   15SOL     OW   43   2.297   2.538   1.511 -0.5093  0.3807 -0.0506
   15SOL    HW1   44   2.305   2.532   1.409 -2.5379  2.5574  0.5923
   15SOL    HW2   45   2.377   2.600   1.537  2.5578 -2.1448 -2.0431
   16SOL     OW   46   2.290   2.895   0.994 -0.1616 -0.6651 -0.3543
   16SOL    HW1   47   2.294   2.998   1.001  1.2267  0.6550 -1.2156
   16SOL    HW2   48   2.352   2.853   0.926 -2.8508 -0.0878  1.0293
   17SOL     OW   49   0.778   0.177   1.354  0.7076 -0.0313  0.0105
   17SOL    HW1   50   0.678   0.187   1.357 -0.8468  2.6836  0.1674
   17SOL    HW2   51   0.809   0.191   1.258  1.7947 -0.6992 -0.4019
   18SOL     OW   52   2.024   0.408   0.454  0.1377  0.2801 -0.7341
   18SOL    HW1   53   2.013   0.326   0.512 -2.6842 -0.5790  1.0203
   18SOL    HW2   54   2.017   0.377   0.356  3.7689 -0.9342  2.8597
   19SOL     OW   55   2.052   1.591   0.337 -0.0730  0.0616 -0.5578
   19SOL    HW1   56   2.097   1.608   0.244  0.5672  2.1859 -1.9222
   19SOL    HW2   57   1.960   1.641   0.346 -0.6272  3.8662  0.4782
   20SOL     OW   58   2.247   1.650   2.474 -0.8100  0.2161 -0.0949
   20SOL    HW1   59   2.295   1.657   2.385 -2.1919 -2.9318  3.8309
   20SOL    HW2   60   2.186   1.571   2.484  0.7815 -0.6859 -0.0496
   21SOL     OW   61   1.415   0.352   0.568 -0.2280  0.3387  0.0715
   21SOL    HW1   62   1.395   0.365   0.669  2.3193  0.8787  0.1093
   21SOL    HW2   63   1.474   0.421   0.524 -0.0424  3.5138  2.5928
   22SOL     OW   64   2.386   0.612   1.348 -0.0265  0.2304 -0.7752
   22SOL    HW1   65   2.410   0.708   1.367  0.5032 -1.4978 -1.1149
   22SOL    HW2   66   2.344   0.567   1.429 -0.2804 -0.8209 -0.3471
   23SOL     OW   67   0.254   0.284   1.982 -0.1122 -0.4455  0.3536
   23SOL    HW1   68   0.306   0.319   1.903 -2.3953  0.3428 -0.1213
   23SOL    HW2   69   0.287   0.333   2.062  0.4818  1.9722 -0.0318
   24SOL     OW   70   2.647   2.760   0.189 -0.1183 -0.1441 -0.7240
   24SOL    HW1   71   2.650   2.665   0.152  3.3916 -0.4147  1.8754
   24SOL    HW2   72   2.555   2.803   0.163  0.0397 -0.8686  0.1566
   25SOL     OW   73   1.203   3.013   2.508  0.2772 -0.2184  0.1907
   25SOL    HW1   74   1.301   2.981   2.500  0.9637  0.0009  2.2935
   25SOL    HW2   75   1.186   3.056   2.601 -1.0446  0.0204 -0.4335
   26SOL     OW   76   1.408   2.635   0.299  0.7049  0.3273  0.3307
   26SOL    HW1   77   1.322   2.644   0.244  2.6253 -1.3781 -0.0333
   26SOL    HW2   78   1.390   2.655   0.396 -2.2577  0.0952  2.7869
   27SOL     OW   79   1.867   0.702   1.114 -0.1153  0.8582  0.4248
   27SOL    HW1   80   1.820   0.732   1.028  2.3037 -1.1908  0.0722
   27SOL    HW2   81   1.966   0.726   1.109  3.3969 -0.9867 -0.0048
   28SOL     OW   82   1.256   1.358   0.812  0.1215 -0.2577  0.2067
   28SOL    HW1   83   1.165   1.397   0.799  1.3002 -2.2203  0.9027
   28SOL    HW2   84   1.321   1.388   0.744 -5.0075  0.6342  0.9347
   29SOL     OW   85   3.039   3.077   1.900  0.1478 -0.1738 -0.1117
   29SOL    HW1   86   2.994   0.063   1.959 -0.0158 -0.2503 -0.0506
   29SOL    HW2   87   3.013   3.080   1.800  0.0826  0.5150 -1.4226
   30SOL     OW   88   1.220   0.100   1.257  0.1561 -0.1515  0.2910
   30SOL    HW1   89   1.269   0.011   1.221  1.3633 -1.3461 -1.2347
   30SOL    HW2   90   1.180   0.088   1.351 -0.4958  0.5200 -0.6661
   31SOL     OW   91   1.647   2.626   2.003  0.4779 -0.0728  0.1166
   31SOL    HW1   92   1.701   2.684   2.065  0.2783  2.2683 -1.0240
   31SOL    HW2   93   1.704   2.580   1.933 -1.0620 -0.9000 -1.3749
   32SOL     OW   94   0.865   1.674   0.060 -0.1716 -0.6386 -0.0710
   32SOL    HW1   95   0.871   1.720   3.056 -1.7396 -1.2374  0.7692
   32SOL    HW2   96   0.879   1.743   0.133  1.0535  3.3120  1.5760
   33SOL     OW   97   3.059   0.943   2.297  0.1045  0.0451 -0.3917
   33SOL    HW1   98   3.034   0.852   2.343  1.3086 -1.7572  2.2907
   33SOL    HW2   99   0.068   0.943   2.270  0.3231  0.5557 -2.5506
   34SOL     OW  100   2.359   0.037   0.611  0.3277 -0.2718 -0.3133
   34SOL    HW1  101   2.270   0.079   0.644 -1.7052  1.5352 -1.0838
   34SOL    HW2  102   2.435   0.060   0.675  1.3890  1.3694  2.0264
   35SOL     OW  103   2.533   2.366   1.870 -0.5885 -0.4352  0.7159
   35SOL    HW1  104   2.448   2.310   1.854  1.0871 -0.0916 -1.2142
   35SOL    HW2  105   2.517   2.453   1.825 -1.7060 -0.3959 -0.3383
   36SOL     OW  106   2.473   2.028   3.030 -0.1834 -0.3359  0.2149
   36SOL    HW1  107   2.405   2.080   2.968 -0.9944  1.7713 -0.4415
   36SOL    HW2  108   2.549   1.999   2.971 -0.6017 -0.7183 -2.1805
   37SOL     OW  109   2.058   0.419   1.687 -0.3328  0.0594  0.0737
   37SOL    HW1  110   1.968   0.401   1.646  2.6170  1.5956  1.0514
   37SOL    HW2  111   2.038   0.445   1.783  2.1237 -2.2552 -2.4181
   38SOL     OW  112   0.033   0.198   2.701  0.0485  0.0979  0.7182
   38SOL    HW1  113   3.078   0.292   2.703  1.4292  0.9999 -0.4685
   38SOL    HW2  114   0.093   0.175   2.780 -0.4925  2.7458  1.3485
   39SOL     OW  115   1.875   1.227   1.911  0.4187  0.1017  0.5207
   39SOL    HW1  116   1.909   1.196   2.004  0.4818 -0.7975  0.7422
   39SOL    HW2  117   1.924   1.314   1.887 -0.8553  0.8681  0.5520
   40SOL     OW  118   1.271   2.037   0.756  0.5591 -0.6365 -0.0897
   40SOL    HW1  119   1.224   1.987   0.835 -0.0863 -2.7258  1.7449
   40SOL    HW2  120   1.226   2.009   0.669 -2.0536  0.1118  0.5013
   41SOL     OW  121   1.928   1.901   0.989 -0.1391 -0.2409 -0.6077
   41SOL    HW1  122   2.022   1.942   0.986  0.9185  0.9970 -0.3745
   41SOL    HW2  123   1.880   1.906   0.900 -0.2943  0.9869  1.1058
   42SOL     OW  124   0.348   0.487   1.216  0.2967 -0.2922  0.3858
   42SOL    HW1  125   0.280   0.491   1.288 -1.0849 -2.2290  0.5624
   42SOL    HW2  126   0.402   0.572   1.218 -0.9672 -0.6400  3.3118
   43SOL     OW  127   0.177   1.672   2.581 -0.4161  0.1612 -0.1971
   43SOL    HW1  128   0.147   1.737   2.653 -0.1784 -0.0044 -0.5926
   43SOL    HW2  129   0.247   1.605   2.617  2.3105  2.3637  1.0767
   44SOL     OW  130   1.736   2.893   1.333  0.1484  0.5027 -0.1433
   44SOL    HW1  131   1.820   2.889   1.390 -0.5128  1.6502  0.4292
   44SOL    HW2  132   1.653   2.893   1.388 -0.0893  2.9716 -1.6992
   45SOL     OW  133   0.986   3.051   2.293  0.5764  0.2030  0.0583
   45SOL    HW1  134   1.039   3.062   2.379 -2.7924  1.4818  0.9629
   45SOL    HW2  135   0.939   2.961   2.266 -0.7422 -0.2810 -0.6379
   46SOL     OW  136   0.716   2.661   2.373 -0.2806 -0.2929  0.2038
   46SOL    HW1  137   0.644   2.710   2.320  0.5088 -2.2163 -1.4142
   46SOL    HW2  138   0.725   2.687   2.471  0.4793 -0.8927  2.5937
   47SOL     OW  139   0.829   2.299   0.850  0.1064 -0.0792  0.1616
   47SOL    HW1  140   0.894   2.314   0.779 -1.3105 -1.3197  0.6440
   47SOL    HW2  141   0.841   2.369   0.921 -0.5660  1.2911  0.1630
   48SOL     OW  142   1.157   2.367   1.010 -0.2300  0.3809 -0.4760
   48SOL    HW1  143   1.101   2.289   1.040 -1.3094 -1.9282  0.6256
   48SOL    HW2  144   1.215   2.398   1.085 -3.5133  1.0625 -0.5191
   49SOL     OW  145   2.251   0.323   0.010 -0.3601  0.4519  0.4519
   49SOL    HW1  146   2.236   0.221   3.079 -1.6708  0.4218  2.8976
   49SOL    HW2  147   2.335   0.340   3.043 -1.0855  4.0467  2.0777
   50SOL     OW  148   1.688   0.310   0.233  0.0708  0.5087 -0.2225
   50SOL    HW1  149   1.740   0.398   0.223  0.9265 -1.1842  1.2705
   50SOL    HW2  150   1.598   0.326   0.186 -2.1282 -1.0290 -1.8084
   51SOL     OW  151   2.176   0.907   1.284 -0.5294  0.3152  0.4272
   51SOL    HW1  152   2.222   0.997   1.266  0.7026  0.4394 -2.1409
   51SOL    HW2  153   2.083   0.915   1.333  0.7397  1.7289  0.2062
   52SOL     OW  154   0.624   1.522   0.166 -0.6579 -0.2881 -0.1486
   52SOL    HW1  155   0.712   1.565   0.132  0.5979 -1.7376 -3.0299
   52SOL    HW2  156   0.548   1.556   0.105  1.1613  3.5402  0.4183
   53SOL     OW  157   0.358   1.504   2.685  0.0412 -0.0214 -0.4115
   53SOL    HW1  158   0.309   1.438   2.626 -2.0864 -1.0102 -0.5702
   53SOL    HW2  159   0.362   1.475   2.785  0.8472  0.0728  1.5483
   54SOL     OW  160   2.643   1.317   1.852  0.3785 -0.7679 -0.1644
   54SOL    HW1  161   2.612   1.220   1.858  0.1652 -0.0382  0.9908
   54SOL    HW2  162   2.714   1.342   1.916 -0.8296  0.4642 -2.1690
   55SOL     OW  163   2.510   1.817   0.311  0.4046  0.1494  0.2350
   55SOL    HW1  164   2.605   1.832   0.278 -2.0212 -1.8488 -3.5588
   55SOL    HW2  165   2.493   1.850   0.406 -2.0341 -0.4953 -1.2492
   56SOL     OW  166   1.813   0.082   1.482  0.0362 -0.4368 -0.2746
   56SOL    HW1  167   1.754   0.041   1.551  0.8977  1.4587  2.2980
   56SOL    HW2  168   1.843   0.015   1.413  0.2269 -1.5993  4.1355
   57SOL     OW  169   1.593   1.217   2.915 -0.2407 -0.8175  0.3816
   57SOL    HW1  170   1.635   1.125   2.924  3.1191  0.0691  3.1218
   57SOL    HW2  171   1.575   1.241   2.819  0.9769 -3.7198  2.9272
   58SOL     OW  172   2.739   0.426   1.651 -0.3020  0.5064 -0.0893
   58SOL    HW1  173   2.706   0.404   1.555  0.0288 -1.2999  0.6462
   58SOL    HW2  174   2.763   0.526   1.659 -1.5918  0.9914 -0.4363
   59SOL     OW  175   1.190   2.791   0.130  0.3971 -0.3201 -0.4746
   59SOL    HW1  176   1.200   2.720   0.063 -4.0250  3.0724  0.2075
   59SOL    HW2  177   1.256   2.867   0.108  1.4723 -1.0007 -2.1067
   60SOL     OW  178   0.042   2.089   2.929  0.0510  0.1111  0.1506
   60SOL    HW1  179   0.134   2.089   2.972  0.3702  0.5744 -3.1635
   60SOL    HW2  180   0.052   2.112   2.832  1.1993  2.6408 -0.1669
   61SOL     OW  181   0.623   2.671   0.837  0.6918  0.0069  0.2677
   61SOL    HW1  182   0.670   2.619   0.908  0.1525  0.8698  0.0758
   61SOL    HW2  183   0.650   2.773   0.839  1.5875  3.1965 -1.8678
   62SOL     OW  184   1.888   1.531   2.760  0.1963 -0.2922  0.4508
   62SOL    HW1  185   1.827   1.600   2.709 -2.4208  2.2955 -1.1065
   62SOL    HW2  186   1.830   1.475   2.820  2.3194 -0.0466 -1.1419
   63SOL     OW  187   1.914   1.938   0.242  0.3013  0.0972 -0.5106
   63SOL    HW1  188   1.838   2.005   0.239 -1.3046  0.3413  0.2966
   63SOL    HW2  189   1.915   1.875   0.161  0.0337  2.7478 -2.9658
   64SOL     OW  190   2.083   0.867   0.076 -0.4277 -0.1901  0.2171
   64SOL    HW1  191   2.052   0.951   0.029  0.6180 -0.1293  0.0625
   64SOL    HW2  192   2.110   0.889   0.173  0.4539  3.5992  0.0637
   65SOL     OW  193   1.857   2.016   2.096  0.1021  0.0648 -0.3138
   65SOL    HW1  194   1.876   2.045   2.192  0.0625  0.2488 -0.6625
   65SOL    HW2  195   1.948   2.013   2.050 -0.9176  0.5203 -2.6589
   66SOL     OW  196   0.435   0.986   1.594  0.1425  0.2137 -0.4875
   66SOL    HW1  197   0.362   1.056   1.594  0.6855 -0.3508  1.1913
   66SOL    HW2  198   0.442   0.937   1.509 -1.1332  0.3838  3.0717
   67SOL     OW  199   2.175   0.061   3.019 -0.2022 -0.4889 -0.1875
   67SOL    HW1  200   2.089   0.023   3.050  3.9055 -0.1138 -0.2030
   67SOL    HW2  201   2.204   0.025   2.931 -1.2826 -1.9683  1.6238
   68SOL     OW  202   1.506   2.020   1.510  0.0468  0.0310 -0.5435
   68SOL    HW1  203   1.505   2.122   1.527 -0.1985  1.5230  0.8110
   68SOL    HW2  204   1.536   1.974   1.600 -3.5891  0.0946  1.2954
   69SOL     OW  205   0.236   2.877   0.313  0.1883  0.1994  0.3606
   69SOL    HW1  206   0.231   2.775   0.294  3.2985 -1.0225  1.9387
   69SOL    HW2  207   0.180   2.918   0.391  0.0946  2.2980  0.3813
   70SOL     OW  208   0.351   0.673   2.056  0.3099  0.0447  0.0008
   70SOL    HW1  209   0.251   0.698   2.039 -2.5208  1.0200 -0.8223
   70SOL    HW2  210   0.397   0.676   1.967 -0.9187 -1.8118  0.8364
   71SOL     OW  211   0.967   1.178   2.571  0.3550 -0.2776  0.0586
   71SOL    HW1  212   1.038   1.153   2.635 -3.2065 -2.8114 -0.2483
   71SOL    HW2  213   0.996   1.171   2.473  2.4997  1.3466 -0.8529
   72SOL     OW  214   3.017   1.767   1.972 -0.3773  0.0087  0.4592
   72SOL    HW1  215   2.917   1.749   1.958  0.1396  2.9696  0.5570
   72SOL    HW2  216   3.062   1.804   1.886 -2.2251  3.2091  0.3066
   73SOL     OW  217   1.375   1.759   0.225  0.1256  0.1877 -0.0365
   73SOL    HW1  218   1.407   1.680   0.171 -2.8045  2.7674  3.8578
   73SOL    HW2  219   1.274   1.768   0.222  0.2809 -1.2683 -1.2640
   74SOL     OW  220   2.259   2.966   2.766  0.4561  0.3049  0.7336
   74SOL    HW1  221   2.290   3.051   2.715  1.3407  0.3655 -1.7573
   74SOL    HW2  222   2.326   2.945   2.837  0.1163  0.1576 -3.2837
   75SOL     OW  223   1.782   2.103   1.132 -0.1024 -0.1158 -0.3180
   75SOL    HW1  224   1.694   2.054   1.140  3.1199  0.8953  2.3654
   75SOL    HW2  225   1.844   2.036   1.085  0.1481 -0.6533 -2.0216
   76SOL     OW  226   2.952   2.054   1.653 -0.2964 -0.2899  0.6159
   76SOL    HW1  227   2.880   2.032   1.590  3.0285  0.7884  3.9209
   76SOL    HW2  228   3.028   1.987   1.639 -2.0693 -0.8895 -1.2675
   77SOL     OW  229   0.299   2.953   1.755  0.1218  0.1587 -0.3360
   77SOL    HW1  230   0.398   2.962   1.740 -2.3039 -2.7180 -0.4218
   77SOL    HW2  231   0.272   3.009   1.840  1.7253  1.3141 -1.4014
   78SOL     OW  232   2.336   0.886   0.242  0.5416 -0.4558 -0.5481
   78SOL    HW1  233   2.320   0.988   0.222 -1.5719 -1.0715  2.9569
   78SOL    HW2  234   2.397   0.845   0.175 -1.8574 -2.3728  2.9232
   79SOL     OW  235   3.052   1.557   2.435  0.3996 -0.4107  0.4424
   79SOL    HW1  236   3.037   1.466   2.477 -0.7434 -0.7311 -0.5015
   79SOL    HW2  237   0.040   1.617   2.477 -1.6543 -0.0628  0.3430
   80SOL     OW  238   1.743   1.619   1.733  0.2786 -0.3125 -0.6534
   80SOL    HW1  239   1.741   1.683   1.810 -2.1848  1.9149  0.3739
   80SOL    HW2  240   1.759   1.664   1.642 -0.7159 -0.7663 -0.6856
   81SOL     OW  241   2.058   1.386   2.179 -0.4954  0.8065  0.4646
   81SOL    HW1  242   2.031   1.285   2.194 -0.9130 -0.6618 -0.2513
   81SOL    HW2  243   2.004   1.435   2.108 -1.9516 -3.2118  1.3838
   82SOL     OW  244   1.505   1.502   1.907 -0.5582  0.2331  0.5850
   82SOL    HW1  245   1.467   1.595   1.893 -1.8676  1.3629 -1.8103
   82SOL    HW2  246   1.541   1.459   1.820  0.7654 -0.6635  1.2970
   83SOL     OW  247   0.428   0.497   0.298  0.0391 -0.1197 -0.5259
   83SOL    HW1  248   0.511   0.460   0.346  0.7867 -0.8817  0.0572
   83SOL    HW2  249   0.347   0.518   0.364 -2.5666  3.4495 -0.5092
   84SOL     OW  250   0.030   0.690   0.216  0.0234  0.0726  0.2093
   84SOL    HW1  251   3.017   0.697   0.194  0.1939  0.0381  1.0898
   84SOL    HW2  252   0.071   0.783   0.228 -0.7525 -1.0732 -1.1576
   85SOL     OW  253   2.324   2.535   1.226 -0.4333  0.1639 -0.3071
   85SOL    HW1  254   2.239   2.580   1.200 -0.0796  0.3694  1.6193
   85SOL    HW2  255   2.337   2.445   1.176  0.1801  0.3187 -2.7661
   86SOL     OW  256   0.245   0.247   1.524 -0.6862  0.0490  0.4942
   86SOL    HW1  257   0.335   0.237   1.476  0.6759 -0.2762 -1.3295
   86SOL    HW2  258   0.198   0.156   1.532 -2.3164 -0.3431  1.5520
   87SOL     OW  259   0.323   2.467   1.774 -0.8317  0.0389 -0.1311
   87SOL    HW1  260   0.407   2.465   1.713  2.6307  2.9979 -2.7928
   87SOL    HW2  261   0.275   2.374   1.782 -0.5994 -0.1948 -0.8701
   88SOL     OW  262   0.285   2.151   3.053  0.4070 -0.0903  0.1866
   88SOL    HW1  263   0.261   2.103   0.053 -0.7465  1.8365 -0.7356
   88SOL    HW2  264   0.370   2.116   3.004  1.5974  0.8319 -0.1818
   89SOL     OW  265   1.033   0.878   0.667  0.4769  0.1326 -0.0722
   89SOL    HW1  266   1.115   0.826   0.635 -1.9060  2.7786  2.8697
   89SOL    HW2  267   0.944   0.840   0.638 -1.9787  2.7727  1.7201
   90SOL     OW  268   0.267   1.551   2.219 -0.1143  0.1871 -0.1787
   90SOL    HW1  269   0.202   1.557   2.137 -2.1679  1.4709 -3.4152
   90SOL    HW2  270   0.280   1.642   2.261  1.3012 -1.2168  2.4139
   91SOL     OW  271   1.730   0.803   0.905  0.4037 -0.7552 -0.0367
   91SOL    HW1  272   1.659   0.734   0.890  4.3512 -0.1740  1.3447
   91SOL    HW2  273   1.786   0.825   0.823  1.2785  0.2163 -0.8242
   92SOL     OW  274   2.211   1.158   0.830  0.3677 -0.5030  0.1072
   92SOL    HW1  275   2.184   1.169   0.728 -2.2857  0.5322  0.3651
   92SOL    HW2  276   2.296   1.211   0.860  1.5421 -2.3131  0.3021
   93SOL     OW  277   0.038   0.925   2.630  0.1161 -0.7454 -0.1357
   93SOL    HW1  278   0.117   0.948   2.566  0.7340 -0.4711  2.0955
   93SOL    HW2  279   3.071   1.013   2.652 -0.3600  0.7769 -1.8536
   94SOL     OW  280   1.909   2.201   2.632 -0.1470 -0.2634  0.3113
   94SOL    HW1  281   2.008   2.219   2.615  2.4083 -2.1736  0.1495
   94SOL    HW2  282   1.860   2.177   2.545  1.6013  2.2673 -2.3381
   95SOL     OW  283   0.036   0.064   1.125 -0.0494  0.1023  0.1051
   95SOL    HW1  284   0.134   0.064   1.161  1.8295 -0.9582  0.8305
   95SOL    HW2  285   3.059   0.127   1.173 -0.2180  0.0838 -1.2103
   96SOL     OW  286   3.033   2.641   1.297 -0.2896 -0.4857 -0.0585
   96SOL    HW1  287   2.929   2.654   1.290  1.8881  0.8136  0.3789
   96SOL    HW2  288   3.060   2.586   1.380  2.7243 -1.3195  0.0962
   97SOL     OW  289   2.431   0.863   1.409  0.1290 -0.3086  0.5331
   97SOL    HW1  290   2.345   0.883   1.355  1.3255 -0.6030 -0.7881
   97SOL    HW2  291   2.479   0.947   1.435 -0.6709 -1.0193 -0.7663
   98SOL     OW  292   1.779   2.559   1.775  0.2054  0.2381 -0.2782
   98SOL    HW1  293   1.786   2.457   1.759 -1.0716  1.2047 -2.1207
   98SOL    HW2  294   1.709   2.603   1.715  2.9901  1.1926 -0.0170
   99SOL     OW  295   0.341   2.760   1.404 -0.3933 -0.4392 -0.7152
   99SOL    HW1  296   0.407   2.690   1.365  0.7057 -2.0564  0.3970
   99SOL    HW2  297   0.298   2.722   1.486  0.0927  0.2714 -1.8861
  100SOL     OW  298   1.614   0.301   2.646 -0.3083 -0.3869  0.2037
  100SOL    HW1  299   1.667   0.389   2.647  0.2513  1.0000 -0.1634
  100SOL    HW2  300   1.684   0.239   2.675 -2.1612  1.0038 -0.3859
  101SOL     OW  301   2.754   0.316   2.552  0.7463 -0.7026 -0.0416
  101SOL    HW1  302   2.772   0.240   2.491 -0.2418 -0.9699  0.3820
  101SOL    HW2  303   2.767   0.409   2.512 -1.6041  0.2995  0.7149
  102SOL     OW  304   0.302   0.623   1.630 -0.3601  0.7334 -0.1829
  102SOL    HW1  305   0.221   0.642   1.691  0.5439  1.8379  0.1913
  102SOL    HW2  306   0.386   0.671   1.653  0.8104  0.7286 -1.3292
  103SOL     OW  307   0.873   0.612   2.642  0.1431 -0.2340  0.5999
  103SOL    HW1  308   0.914   0.520   2.646  0.7004  1.0226  0.6895
  103SOL    HW2  309   0.938   0.666   2.587 -0.5789 -3.5259  1.2775
  104SOL     OW  310   0.255   0.931   2.450 -0.1772 -0.4401 -0.4244
  104SOL    HW1  311   0.329   0.907   2.516  0.9359 -1.0867 -1.4190
  104SOL    HW2  312   0.222   0.840   2.413  2.8295 -1.1114 -1.7852
  105SOL     OW  313   2.206   2.066   1.571 -0.1614 -0.3624 -0.3487
  105SOL    HW1  314   2.205   2.155   1.614 -0.9334 -1.8179  0.6292
  105SOL    HW2  315   2.203   2.078   1.472  0.6518  0.8283 -0.5517
  106SOL     OW  316   1.702   2.998   0.526 -0.0791 -0.7369  0.2934
  106SOL    HW1  317   1.653   3.082   0.488 -2.2922  1.1963 -0.6207
  106SOL    HW2  318   1.681   2.919   0.466  0.9379  3.1671  2.2891
  107SOL     OW  319   1.819   2.307   0.946 -0.5044  0.5080  0.3154
  107SOL    HW1  320   1.816   2.239   1.024 -1.6526  2.0628  2.6235
  107SOL    HW2  321   1.725   2.333   0.910 -2.5190  1.6995  1.1499
  108SOL     OW  322   3.085   2.483   1.084  0.0735  0.0395 -0.2350
  108SOL    HW1  323   3.067   2.542   0.998 -1.3284  4.3853  0.0487
  108SOL    HW2  324   3.048   2.536   1.165 -0.6266  0.2312  0.6852
  109SOL     OW  325   2.161   2.266   0.825 -0.5135 -0.0357  0.2022
  109SOL    HW1  326   2.230   2.271   0.752 -1.5863 -0.4707 -2.2593
  109SOL    HW2  327   2.094   2.345   0.815 -0.8877  0.1055  1.6267
  110SOL     OW  328   1.150   1.707   1.932  0.1034 -0.2523 -0.0388
  110SOL    HW1  329   1.128   1.610   1.912  2.4816 -1.9738  1.2194
  110SOL    HW2  330   1.114   1.773   1.859 -0.6222  0.0997 -1.9378
  111SOL     OW  331   1.437   2.222   2.080 -0.1643 -0.0982  0.0808
  111SOL    HW1  332   1.389   2.255   1.995  1.5230  2.0596 -0.5667
  111SOL    HW2  333   1.496   2.296   2.112 -0.3333 -0.1221 -0.4087
  112SOL     OW  334   1.553   1.914   2.690 -0.3000  0.4509  0.3815
  112SOL    HW1  335   1.576   2.015   2.679  1.6781  0.2552  0.0720
  112SOL    HW2  336   1.611   1.860   2.759 -1.4494 -1.3791  2.0083
  113SOL     OW  337   1.582   1.940   1.756  0.3912  0.7864 -0.2288
  113SOL    HW1  338   1.513   1.882   1.800 -0.1370  3.9527  0.7898
  113SOL    HW2  339   1.612   2.012   1.824 -1.4927  0.6093  0.5703
  114SOL     OW  340   2.921   1.186   1.452 -0.5308  0.0875  0.3975
  114SOL    HW1  341   2.955   1.193   1.357 -3.7989  1.4284  2.2123
  114SOL    HW2  342   2.874   1.096   1.468  0.5727 -0.8133 -1.7047
  115SOL     OW  343   0.815   0.738   3.079  0.2999 -0.1013  0.2692
  115SOL    HW1  344   0.743   0.751   3.004  0.8177 -0.6923 -1.2296
  115SOL    HW2  345   0.802   0.642   0.024 -5.5174  0.7285 -0.0107
  116SOL     OW  346   2.646   2.026   2.264 -0.3196  0.1157 -0.1928
  116SOL    HW1  347   2.633   2.037   2.162  1.5213  0.3380 -1.2450
  116SOL    HW2  348   2.590   1.950   2.302 -2.1680  2.1583 -2.3775
  117SOL     OW  349   3.048   2.546   0.403 -0.4129 -0.3821 -0.2804
  117SOL    HW1  350   3.044   2.518   0.498  0.1491  0.8967 -2.5134
  117SOL    HW2  351   3.022   2.643   0.388 -0.6075 -0.2683  0.1844
  118SOL     OW  352   0.698   1.855   2.772  0.1981 -0.1319  0.1935
  118SOL    HW1  353   0.635   1.857   2.853 -1.9523  0.5689 -0.7938
  118SOL    HW2  354   0.646   1.876   2.688 -0.5133  0.0489  0.3123
  119SOL     OW  355   0.549   2.037   0.723  0.0514  0.8754  0.5827
  119SOL    HW1  356   0.572   2.123   0.764  0.6741 -1.4575 -1.3927
  119SOL    HW2  357   0.535   2.046   0.624  0.3495  1.8255  3.0866
  120SOL     OW  358   1.451   0.802   0.181  0.6841 -0.3113  0.4199
  120SOL    HW1  359   1.511   0.765   0.255 -0.9227  0.5161 -1.2818
  120SOL    HW2  360   1.370   0.739   0.165 -0.8821  0.6030  0.5523
  121SOL     OW  361   1.325   2.293   0.834  0.4395  0.0231 -0.1475
  121SOL    HW1  362   1.253   2.303   0.907  2.4478 -0.9538 -0.5276
  121SOL    HW2  363   1.310   2.204   0.780 -0.6649 -0.4475 -0.0586
  122SOL     OW  364   2.819   2.341   1.919  0.6491  0.0275 -0.4512
  122SOL    HW1  365   2.849   2.243   1.915 -0.6422  0.4631 -2.0633
  122SOL    HW2  366   2.719   2.354   1.934 -3.7111  2.7003  0.0572
  123SOL     OW  367   0.813   1.667   0.763 -0.4154  0.3244  0.2869
  123SOL    HW1  368   0.872   1.705   0.837 -0.7359  0.1747 -0.0127
  123SOL    HW2  369   0.741   1.604   0.789 -0.4804  1.2398 -1.4941
  124SOL     OW  370   2.845   0.917   0.460 -0.1373 -0.0616 -0.6828
  124SOL    HW1  371   2.856   1.008   0.421  1.2252 -2.6992 -0.1622
  124SOL    HW2  372   2.880   0.843   0.400  2.1003 -0.1262  1.3321
  125SOL     OW  373   0.143   0.514   3.075  0.1323  0.5224 -0.1123
  125SOL    HW1  374   0.113   0.577   0.065 -2.1130  2.0585  1.5181
  125SOL    HW2  375   0.097   0.422   3.074 -3.0302  0.2051 -0.4317
  126SOL     OW  376   0.030   1.649   0.737  0.6725 -0.3639  0.1074
  126SOL    HW1  377   0.079   1.724   0.687  0.8818 -2.1825  0.6841
  126SOL    HW2  378   0.060   1.648   0.836 -0.5495 -0.6842  0.0343
  127SOL     OW  379   1.139   2.548   1.555 -0.6595 -0.2702  0.5945
  127SOL    HW1  380   1.042   2.567   1.567  2.4119  0.3017  1.0280
  127SOL    HW2  381   1.193   2.614   1.619 -0.4008  0.4875  2.1043
  128SOL     OW  382   1.321   1.552   0.045 -0.7920 -0.4793 -0.0892
  128SOL    HW1  383   1.240   1.550   0.110 -3.6133  0.9491 -0.7814
  128SOL    HW2  384   1.365   1.462   0.039  2.7381  0.9320 -0.8259
  129SOL     OW  385   1.886   2.081   1.518 -0.3717 -0.6186 -0.1269
  129SOL    HW1  386   1.842   2.150   1.460 -0.0653  0.5471  1.3454
  129SOL    HW2  387   1.980   2.054   1.491 -2.6178  1.4430  2.3793
  130SOL     OW  388   1.868   1.944   1.748 -1.1475  0.1221  0.0962
  130SOL    HW1  389   1.777   1.911   1.769  3.2195  0.0054  0.2318
  130SOL    HW2  390   1.866   2.004   1.666  0.8876 -0.7690  2.2139
  131SOL     OW  391   2.680   2.580   2.516 -0.5782  0.3641 -0.0251
  131SOL    HW1  392   2.592   2.609   2.560 -0.0359  0.6767  2.2089
  131SOL    HW2  393   2.742   2.538   2.584  0.2465  0.7764 -1.5344
  132SOL     OW  394   2.748   1.995   0.669  0.1234 -0.2905  0.5015
  132SOL    HW1  395   2.813   2.067   0.706  2.2218 -1.2689  0.8799
  132SOL    HW2  396   2.794   1.906   0.669 -0.6846  0.6067 -0.2325
  133SOL     OW  397   0.832   0.182   2.363  0.1786 -0.2879 -0.5948
  133SOL    HW1  398   0.872   0.098   2.330  0.1828 -0.4696  1.5558
  133SOL    HW2  399   0.794   0.236   2.286 -0.6655 -1.7475  0.9899
  134SOL     OW  400   2.957   2.195   0.164 -0.4769  0.1685  0.3692
  134SOL    HW1  401   3.038   2.257   0.171  0.0918 -0.4912  1.9510
  134SOL    HW2  402   2.885   2.217   0.230  0.1079 -1.3762 -1.2152
  135SOL     OW  403   1.718   0.851   2.311 -0.0461 -0.4853  0.3322
  135SOL    HW1  404   1.647   0.839   2.380 -0.4480  1.9851 -4.0529
  135SOL    HW2  405   1.678   0.875   2.218  3.7594  3.0528  0.5361
  136SOL     OW  406   2.481   1.735   0.861  0.1988 -0.2064 -0.4933
  136SOL    HW1  407   2.572   1.713   0.846 -3.8952  0.8402  2.3457
  136SOL    HW2  408   2.474   1.829   0.897  1.7265  3.9356  0.0213
  137SOL     OW  409   2.721   1.600   0.786 -0.1685  0.1452  0.1199
  137SOL    HW1  410   2.683   1.542   0.716 -1.6073 -0.3340 -0.0213
  137SOL    HW2  411   2.736   1.547   0.868 -1.4074 -0.9019 -0.0248
  138SOL     OW  412   2.731   0.563   1.123  0.2468 -0.1808 -0.3679
  138SOL    HW1  413   2.660   0.635   1.125  0.0454 -2.9030 -0.7337
  138SOL    HW2  414   2.804   0.588   1.055 -0.5567 -2.2392  0.1655
  139SOL     OW  415   3.071   2.553   2.839 -0.1790 -0.2832  0.4208
  139SOL    HW1  416   3.059   2.470   2.898  1.0365  0.6358  1.9275
  139SOL    HW2  417   0.015   2.523   2.748  0.6753 -1.2277  1.0398
  140SOL     OW  418   0.729   1.968   1.511  0.1662  0.0301 -0.0485
  140SOL    HW1  419   0.816   1.944   1.466  1.1490  1.5537  3.3349
  140SOL    HW2  420   0.750   1.951   1.609  1.4120  0.6757  2.0863
  141SOL     OW  421   1.234   1.763   0.896 -0.3607 -0.2985  0.1641
  141SOL    HW1  422   1.283   1.739   0.813 -1.6595  1.1868  0.3536
  141SOL    HW2  423   1.284   1.740   0.980 -3.4897  0.9300  0.5573
  142SOL     OW  424   1.051   0.689   1.055  0.5238  0.2804  0.2627
  142SOL    HW1  425   1.067   0.782   1.016  0.3929  0.5763  0.5107
  142SOL    HW2  426   1.107   0.682   1.141  0.0605 -1.8957  0.0016
  143SOL     OW  427   0.892   1.111   2.899 -0.3717 -0.1826  0.1630
  143SOL    HW1  428   0.861   1.118   2.996 -1.7997 -2.7470  0.2928
  143SOL    HW2  429   0.987   1.076   2.887  1.3813 -1.4449  2.6010
  144SOL     OW  430   1.978   2.475   0.807  0.3920 -0.2054  0.1510
  144SOL    HW1  431   1.936   2.493   0.713 -0.3181  0.9685  0.4638
  144SOL    HW2  432   1.905   2.433   0.865  0.1027  0.1128 -0.2746
  145SOL     OW  433   2.022   0.585   2.714 -0.4289 -0.0290 -0.1311
  145SOL    HW1  434   2.021   0.610   2.812  0.3805  0.4676 -0.8965
  145SOL    HW2  435   2.046   0.673   2.664 -0.4907  0.1774 -1.7375
  146SOL     OW  436   2.651   2.667   0.593  0.4094 -0.1415 -0.0183
  146SOL    HW1  437   2.582   2.604   0.632 -2.4866 -0.0758  2.6234
  146SOL    HW2  438   2.641   2.761   0.635 -0.0190 -3.3515 -2.2617
  147SOL     OW  439   1.244   0.946   2.154 -0.1502 -0.4852 -0.1602
  147SOL    HW1  440   1.162   1.004   2.165  0.5954  0.2904 -1.7702
  147SOL    HW2  441   1.330   1.002   2.156 -0.2128 -3.2146  1.4637
  148SOL     OW  442   1.550   0.600   2.057  0.4331 -0.2415 -0.4315
  148SOL    HW1  443   1.638   0.558   2.080 -2.3367 -0.8619  0.7240
  148SOL    HW2  444   1.478   0.571   2.126  0.7907 -1.7581  0.4632
  149SOL     OW  445   1.788   2.803   2.151 -0.0713  0.0443  0.3135
  149SOL    HW1  446   1.842   2.889   2.158 -0.8585  1.7279  0.3465
  149SOL    HW2  447   1.829   2.727   2.204  0.0366  0.6944  0.5474
  150SOL     OW  448   2.462   2.928   2.951  0.7691  0.0315 -0.4896
  150SOL    HW1  449   2.512   2.857   2.902  0.2946  1.2453 -1.3639
  150SOL    HW2  450   2.528   3.002   2.965  0.8989 -3.3886 -1.4341
  151SOL     OW  451   0.517   1.370   2.899  0.8860 -0.5391 -0.2634
  151SOL    HW1  452   0.475   1.290   2.948  0.0916 -0.5743  0.6860
  151SOL    HW2  453   0.516   1.451   2.966 -0.0241  0.6616 -1.4527
  152SOL     OW  454   3.055   0.247   0.686  0.2836  0.0212  0.1906
  152SOL    HW1  455   0.026   0.167   0.710  0.8338 -0.2437  1.3547
  152SOL    HW2  456   3.044   0.313   0.766 -0.4726  0.7157 -1.2191
  153SOL     OW  457   2.364   0.268   1.603 -0.4868  0.0719  0.2390
  153SOL    HW1  458   2.277   0.225   1.642 -2.0516  2.6696 -0.0709
  153SOL    HW2  459   2.365   0.373   1.621  0.5075  3.2018 -0.4198
  154SOL     OW  460   1.934   0.215   2.202  0.0849  0.4435 -0.0164
  154SOL    HW1  461   1.957   0.312   2.226 -1.4873 -0.0570  1.3484
  154SOL    HW2  462   1.886   0.211   2.112  2.1651 -0.3587  0.4979
  155SOL     OW  463   0.010   1.718   0.234  0.5533  0.1524  0.3784
  155SOL    HW1  464   0.049   1.644   0.289 -3.2512 -0.1823 -0.9761
  155SOL    HW2  465   3.030   1.774   0.287 -1.1101 -1.5359 -0.0646
  156SOL     OW  466   3.002   1.750   3.051  0.0276 -0.0392 -0.1158
  156SOL    HW1  467   2.974   1.846   3.060 -1.2154 -1.4960 -1.7576
  156SOL    HW2  468   3.040   1.711   0.059 -0.5462 -2.4504  2.3521
  157SOL     OW  469   0.695   0.533   0.656  0.2670 -0.3102 -0.2486
  157SOL    HW1  470   0.608   0.540   0.710 -0.1153  1.0401  2.6981
  157SOL    HW2  471   0.727   0.629   0.629  1.7161 -0.3217 -1.9338
  158SOL     OW  472   2.181   0.796   1.700 -0.4988  0.2560 -0.1178
  158SOL    HW1  473   2.166   0.891   1.673 -0.9331 -2.1952  0.0143
  158SOL    HW2  474   2.279   0.778   1.728 -2.9781  1.1760 -0.5982
  159SOL     OW  475   0.180   0.525   0.411 -0.7665  0.2284  1.0625
  159SOL    HW1  476   0.128   0.441   0.427  2.3109 -0.7580 -1.2563
  159SOL    HW2  477   0.122   0.579   0.344 -2.0284 -2.1309 -1.1040
  160SOL     OW  478   2.098   2.302   1.880  0.0315  0.1942 -0.2180
  160SOL    HW1  479   2.098   2.349   1.970  2.2254 -1.0488 -0.7014
  160SOL    HW2  480   2.004   2.303   1.844 -0.2230  2.2960  0.4118
  161SOL     OW  481   0.178   0.707   2.756  0.2108 -0.3215  0.1489
  161SOL    HW1  482   0.268   0.746   2.727  0.1500  0.2102  3.2928
  161SOL    HW2  483   0.105   0.760   2.711  1.7142 -0.7017  1.1814
  162SOL     OW  484   0.784   2.603   1.345 -0.0003  0.0521  0.2042
  162SOL    HW1  485   0.829   2.582   1.433 -1.3906  2.1269 -1.6730
  162SOL    HW2  486   0.796   2.702   1.324 -0.6083  0.6910 -1.6566
  163SOL     OW  487   2.826   0.150   2.367  0.0665  0.2540  0.0825
  163SOL    HW1  488   2.780   0.063   2.339 -0.8099 -4.0926  1.8127
  163SOL    HW2  489   2.891   0.189   2.299  2.1936  0.7975 -1.4617
  164SOL     OW  490   2.328   1.913   0.130  0.0174 -0.3481 -0.0870
  164SOL    HW1  491   2.385   1.866   0.200 -0.0013  0.7931  1.8126
  164SOL    HW2  492   2.386   1.949   0.052 -1.2932  0.8084  0.8755
  165SOL     OW  493   2.906   0.259   1.231  0.2945  0.0627  0.0484
  165SOL    HW1  494   2.949   0.353   1.229  0.9784  0.6554 -1.2406
  165SOL    HW2  495   2.810   0.262   1.203  0.5870 -2.2320 -3.2299
  166SOL     OW  496   1.919   0.887   0.704  0.0651  0.2944 -0.0586
  166SOL    HW1  497   1.975   0.919   0.777 -2.5841 -1.5719  2.3389
  166SOL    HW2  498   1.941   0.941   0.615  0.7614  2.5076 -1.7774
  167SOL     OW  499   2.671   0.921   0.077  0.0447  0.8261 -0.3622
  167SOL    HW1  500   2.630   0.881   3.079  1.5232 -0.1500 -2.5560
  167SOL    HW2  501   2.613   0.995   0.105  1.2115 -0.8137 -1.8635
  168SOL     OW  502   1.380   0.187   2.790 -0.7592  0.1906 -0.2254
  168SOL    HW1  503   1.366   0.097   2.744 -1.2049 -0.4586 -3.1557
  168SOL    HW2  504   1.480   0.215   2.778  0.0195 -1.4803  0.1571
  169SOL     OW  505   0.168   1.291   0.946 -0.2124  0.1262  0.1774
  169SOL    HW1  506   0.120   1.340   1.020 -2.2838 -0.9736 -1.1418
  169SOL    HW2  507   0.131   1.316   0.858  1.8006  1.7781  2.1957
  170SOL     OW  508   2.881   0.958   1.093  0.8225  0.2435  0.2023
  170SOL    HW1  509   2.927   0.873   1.130 -2.1038 -1.6160 -1.0493
  170SOL    HW2  510   2.780   0.949   1.120 -0.1462 -2.3468  0.8183
  171SOL     OW  511   2.394   2.140   1.966  0.5193  0.4065 -0.6156
  171SOL    HW1  512   2.494   2.133   1.963 -2.0681  0.4339 -0.4179
  171SOL    HW2  513   2.353   2.064   1.911  1.8846  2.0807 -1.4556
  172SOL     OW  514   0.323   1.961   1.231 -0.2002 -0.4038 -0.2428
  172SOL    HW1  515   0.225   1.965   1.265  0.2092 -1.4852  0.8601
  172SOL    HW2  516   0.383   2.012   1.298  0.2775  1.9551  1.3608
  173SOL     OW  517   1.833   1.349   3.021  0.1871 -0.6940 -0.3613
  173SOL    HW1  518   1.750   1.302   2.969 -2.1524 -1.4035 -1.3749
  173SOL    HW2  519   1.810   1.410   0.014  0.0744  0.7321  1.9458
  174SOL     OW  520   1.313   0.571   2.733 -0.3592 -0.1807  0.2781
  174SOL    HW1  521   1.352   0.548   2.643 -2.6539 -0.7001 -0.0862
  174SOL    HW2  522   1.380   0.571   2.810 -1.2304  1.5019 -0.3585
  175SOL     OW  523   1.422   1.329   1.306  0.1277 -0.0138  0.3111
  175SOL    HW1  524   1.448   1.418   1.347 -0.6720  1.2260  1.3947
  175SOL    HW2  525   1.336   1.290   1.351  1.4696  2.0692  2.7725
  176SOL     OW  526   1.271   0.168   0.437  0.0477  0.2262 -0.0353
  176SOL    HW1  527   1.249   0.189   0.339  0.1884  0.1997 -1.6886
  176SOL    HW2  528   1.308   0.254   0.477 -0.0245 -0.0704 -0.9944
  177SOL     OW  529   0.301   0.899   0.036  0.0949  0.1276 -0.4929
  177SOL    HW1  530   0.244   0.927   0.118 -3.7258  3.5105 -0.6115
  177SOL    HW2  531   0.375   0.831   0.065  2.0217 -0.8101  2.7142
  178SOL     OW  532   2.491   2.404   2.252  0.0623  0.3080  0.2763
  178SOL    HW1  533   2.573   2.354   2.285  0.3112  2.2134 -1.4651
  178SOL    HW2  534   2.524   2.475   2.187  1.1938 -0.4937 -0.7714
  179SOL     OW  535   0.007   3.067   2.505  0.0445  0.1030  0.0845
  179SOL    HW1  536   0.007   0.057   2.572  2.3044  1.2049  1.7816
  179SOL    HW2  537   3.002   3.045   2.464 -3.2728 -0.7872 -0.3951
  180SOL     OW  538   2.029   0.564   0.876  0.3963 -0.0156  0.3780
  180SOL    HW1  539   2.111   0.521   0.835 -1.2418  0.9977  2.4072
  180SOL    HW2  540   2.060   0.644   0.926 -0.1858  0.9927  0.4905
  181SOL     OW  541   2.059   0.850   2.594 -0.0590 -0.4190  0.0095
  181SOL    HW1  542   2.155   0.847   2.633 -0.4708 -0.1770  0.8009
  181SOL    HW2  543   1.999   0.915   2.644  2.3046  0.0571  1.2436
  182SOL     OW  544   2.593   2.600   2.110  0.0758 -0.0211  0.5024
  182SOL    HW1  545   2.675   2.594   2.165 -2.1982 -1.9388  1.0366
  182SOL    HW2  546   2.605   2.571   2.015 -2.7050  0.5835 -0.3538
  183SOL     OW  547   2.143   0.679   2.010  0.1604 -0.1989 -1.0556
  183SOL    HW1  548   2.226   0.619   2.007  1.0660  0.5563  2.9837
  183SOL    HW2  549   2.166   0.773   2.028 -0.3507 -0.5800  0.7343
  184SOL     OW  550   0.025   1.410   1.163  0.0552 -0.1740  0.8210
  184SOL    HW1  551   3.068   1.317   1.154 -2.1048  2.2285 -0.9358
  184SOL    HW2  552   0.065   1.425   1.256 -0.2736  1.3416  0.3517
  185SOL     OW  553   2.297   0.076   0.981  0.5799  0.6502  0.1892
  185SOL    HW1  554   2.228   0.118   0.915 -0.8644  0.9636 -3.1328
  185SOL    HW2  555   2.394   0.082   0.947 -1.2886  0.4209 -0.3544
  186SOL     OW  556   2.829   2.435   2.703 -0.1896  0.0418 -0.3672
  186SOL    HW1  557   2.865   2.367   2.636 -1.7753  0.7029 -0.3431
  186SOL    HW2  558   2.769   2.391   2.771  0.9242 -0.9212  0.2587
  187SOL     OW  559   0.097   1.483   0.362 -0.0364 -0.4238  0.2829
  187SOL    HW1  560   0.089   1.446   0.266  1.0892  0.1423  1.7494
  187SOL    HW2  561   0.088   1.414   0.434  0.6763  1.0004 -1.1668
  188SOL     OW  562   2.229   1.473   1.442  0.0788 -0.2394 -0.0510
  188SOL    HW1  563   2.224   1.447   1.344  1.1578 -1.2375  0.8705
  188SOL    HW2  564   2.320   1.509   1.465 -4.5944  0.6511  1.3656
  189SOL     OW  565   0.051   0.459   2.434  0.1065 -0.1218  0.1778
  189SOL    HW1  566   0.129   0.400   2.452 -1.4229 -0.6769  0.3947
  189SOL    HW2  567   0.079   0.543   2.387  1.0845 -0.9979  0.7262
  190SOL     OW  568   1.865   0.803   1.937  0.0026 -0.1562  0.0572
  190SOL    HW1  569   1.839   0.779   1.842  1.8105 -4.1936 -1.9277
  190SOL    HW2  570   1.951   0.753   1.962  3.3104 -0.0201  2.1405
  191SOL     OW  571   1.070   0.118   2.093 -0.1527 -0.0196 -0.3133
  191SOL    HW1  572   1.106   0.051   2.023  1.7148 -0.7968  1.6552
  191SOL    HW2  573   1.038   0.069   2.180 -0.5698  0.8913 -1.1479
  192SOL     OW  574   1.085   1.936   1.789  0.2843 -0.2350  0.7783
  192SOL    HW1  575   1.094   1.986   1.877 -1.1751  1.7933 -0.8552
  192SOL    HW2  576   1.162   1.954   1.722 -0.4816  0.1904  0.2011
  193SOL     OW  577   1.370   0.405   0.839 -0.3405  0.1435 -0.1855
  193SOL    HW1  578   1.288   0.464   0.849 -0.5735  0.7865 -0.3395
  193SOL    HW2  579   1.348   0.311   0.872 -1.3962  0.4235 -0.9092
  194SOL     OW  580   1.026   2.175   1.479 -0.1094 -0.0323  0.3939
  194SOL    HW1  581   0.996   2.244   1.406 -0.3792 -1.9571 -0.2618
  194SOL    HW2  582   1.008   2.083   1.443  0.1288  1.1882 -1.2934
  195SOL     OW  583   1.477   0.537   0.355 -0.2812 -0.1469 -0.4022
  195SOL    HW1  584   1.572   0.531   0.334 -3.6044  1.4718  0.9160
  195SOL    HW2  585   1.422   0.477   0.292 -0.2201 -1.5363 -0.2394
  196SOL     OW  586   0.769   1.599   2.106  0.0776  0.5278  0.4314
  196SOL    HW1  587   0.790   1.638   2.014 -0.8039  2.2738  0.4311
  196SOL    HW2  588   0.704   1.524   2.094  1.6130 -0.2402  0.4433
  197SOL     OW  589   0.939   0.383   1.479 -0.0385 -0.3362  0.5998
  197SOL    HW1  590   0.889   0.318   1.421 -0.5209  0.4285 -0.7320
  197SOL    HW2  591   0.995   0.448   1.425  1.8157 -3.1451 -0.2473
  198SOL     OW  592   0.770   0.989   1.048 -0.0650  0.0097 -0.6395
  198SOL    HW1  593   0.869   0.976   1.012  0.6348 -1.1141 -2.4099
  198SOL    HW2  594   0.758   1.005   1.149  0.7388  1.8986  0.2099
  199SOL     OW  595   0.097   2.285   1.396  0.1498 -0.3025 -0.1857
  199SOL    HW1  596   0.041   2.262   1.307  2.0940 -3.9396  0.3827
  199SOL    HW2  597   0.194   2.313   1.369 -0.5673 -1.0542  0.2667
  200SOL     OW  598   1.470   1.098   2.083  0.2767 -0.2187  0.6158
  200SOL    HW1  599   1.506   1.164   2.007  2.6094  4.5384 -2.3092
  200SOL    HW2  600   1.522   1.013   2.090 -1.6175  3.1369  1.3598
  201SOL     OW  601   0.582   2.102   1.861  0.0059  0.4670  0.1476
  201SOL    HW1  602   0.678   2.069   1.839  0.0559 -0.4407 -0.9730
  201SOL    HW2  603   0.529   2.132   1.777 -0.0583 -0.1365  0.6053
  202SOL     OW  604   1.000   3.066   0.293 -0.8889  0.2812  0.1474
  202SOL    HW1  605   1.071   0.038   0.249  0.5442 -0.9411 -0.8864
  202SOL    HW2  606   0.996   2.977   0.242  0.4895  0.7845 -4.0608
  203SOL     OW  607   1.643   0.003   2.288  0.0425 -0.1520 -0.1596
  203SOL    HW1  608   1.567   3.036   2.338 -1.8741 -2.2566 -1.4016
  203SOL    HW2  609   1.725   0.009   2.346  0.9764 -0.4530 -1.6300
  204SOL     OW  610   0.499   1.760   1.724 -0.4944  0.4286 -0.0484
  204SOL    HW1  611   0.588   1.814   1.731  1.3405 -0.4853 -1.5814
  204SOL    HW2  612   0.514   1.665   1.763 -0.4724 -1.2182 -3.9032
  205SOL     OW  613   2.118   1.251   2.570  0.2196 -0.5085  0.0360
  205SOL    HW1  614   2.188   1.238   2.497  2.1747 -1.7450  0.3283
  205SOL    HW2  615   2.072   1.343   2.570 -0.6635 -1.1732  1.1983
  206SOL     OW  616   0.252   1.788   2.346 -0.3204 -0.1795  0.2160
  206SOL    HW1  617   0.315   1.868   2.368  0.3872 -1.6305  0.5875
  206SOL    HW2  618   0.242   1.729   2.427  2.7582  1.0320 -1.7523
  207SOL     OW  619   1.212   2.895   1.472 -0.3654  1.0579  0.1886
  207SOL    HW1  620   1.200   2.855   1.567 -0.4385 -0.2204  1.5944
  207SOL    HW2  621   1.195   2.996   1.480 -1.2815 -0.1991  0.9953
  208SOL     OW  622   0.339   2.357   1.303 -0.1191  0.0321  0.4499
  208SOL    HW1  623   0.396   2.423   1.350  0.8316  0.8316  0.0590
  208SOL    HW2  624   0.316   2.381   1.203  1.3128  0.6915 -2.4202
  209SOL     OW  625   1.412   2.745   0.564 -0.1371  0.0929 -0.3357
  209SOL    HW1  626   1.371   2.690   0.638 -0.4178  0.1903 -0.8721
  209SOL    HW2  627   1.374   2.836   0.557  1.2786 -0.8769 -0.6592
  210SOL     OW  628   2.652   1.331   0.947  0.7846 -0.4111  0.0151
  210SOL    HW1  629   2.604   1.267   0.888  0.5151  0.3292  0.7203
  210SOL    HW2  630   2.749   1.312   0.931 -0.8016 -1.6153  0.1669
  211SOL     OW  631   0.617   0.553   1.939 -0.5352 -0.1782  0.1606
  211SOL    HW1  632   0.621   0.453   1.918 -2.0432  2.8636 -0.2771
  211SOL    HW2  633   0.601   0.597   1.852  2.1768 -0.4970  0.7768
  212SOL     OW  634   1.207   2.292   1.637  0.2735 -0.1008 -0.1928
  212SOL    HW1  635   1.180   2.388   1.606 -0.2636 -0.4219 -0.3687
  212SOL    HW2  636   1.142   2.227   1.584 -0.3680 -0.2679 -3.0790
  213SOL     OW  637   2.899   0.278   1.791  0.6640 -0.2335  0.3800
  213SOL    HW1  638   2.943   0.202   1.740  2.4505 -0.8242  0.5482
  213SOL    HW2  639   2.844   0.329   1.722 -0.0815  0.2738  0.5540
  214SOL     OW  640   0.697   2.711   1.760 -0.1874 -0.4362 -0.4208
  214SOL    HW1  641   0.612   2.711   1.815  3.7801  0.8895 -1.5057
  214SOL    HW2  642   0.723   2.809   1.737  1.0605  0.2478  0.5815
  215SOL     OW  643   2.497   1.897   1.525 -0.5299  0.1364  0.3331
  215SOL    HW1  644   2.455   1.954   1.454 -2.6684  0.1991  2.1346
  215SOL    HW2  645   2.462   1.804   1.512 -1.0253  2.9578 -3.6572
  216SOL     OW  646   0.417   0.917   1.839 -0.2750 -0.6600 -0.4213
  216SOL    HW1  647   0.332   0.955   1.876  1.5024 -2.2765 -1.6206
  216SOL    HW2  648   0.423   0.945   1.738  0.6945  0.7287 -2.6192
  217SOL     OW  649   2.629   3.031   1.193 -0.1456  0.0382 -0.1208
  217SOL    HW1  650   2.634   0.043   1.168 -1.2166 -1.5306  1.9031
  217SOL    HW2  651   2.707   3.010   1.254  2.7280  2.6398  1.1616
  218SOL     OW  652   1.374   2.152   1.221 -0.2669 -0.2129 -0.0962
  218SOL    HW1  653   1.444   2.092   1.174  0.7759 -1.2663 -0.8626
  218SOL    HW2  654   1.387   2.245   1.192 -2.1569 -0.8159  1.1805
  219SOL     OW  655   1.618   2.796   0.372  0.0859 -0.0658  0.5042
  219SOL    HW1  656   1.544   2.777   0.436  2.4034  2.1272 -2.8798
  219SOL    HW2  657   1.576   2.827   0.282 -1.8341  0.5115  1.6870
  220SOL     OW  658   1.588   2.525   0.124 -0.0046 -0.1933 -0.6794
  220SOL    HW1  659   1.525   2.541   0.205  0.1427 -3.9920 -0.0926
  220SOL    HW2  660   1.629   2.613   0.092 -0.8186 -0.2930 -2.0881
  221SOL     OW  661   2.521   2.143   0.648  0.1742  0.4995 -0.1847
  221SOL    HW1  662   2.471   2.109   0.568  3.4020  0.9657  0.4253
  221SOL    HW2  663   2.610   2.092   0.650  2.4218 -0.8811 -0.6547
  222SOL     OW  664   0.975   2.066   0.831 -0.4253  0.2721  0.1682
  222SOL    HW1  665   0.924   1.978   0.815  0.1086 -1.6334 -1.9688
  222SOL    HW2  666   0.911   2.134   0.877 -3.1343 -0.1129  2.2194
  223SOL     OW  667   1.011   2.769   2.763  0.5718  0.0473  0.4454
  223SOL    HW1  668   1.021   2.717   2.675 -0.6430 -3.4672 -2.2134
  223SOL    HW2  669   0.954   2.715   2.831 -0.6279 -2.6242  0.3668
  224SOL     OW  670   2.604   1.222   1.178  0.0309 -0.0500  0.2419
  224SOL    HW1  671   2.643   1.275   1.102  0.5122  0.7731 -1.2774
  224SOL    HW2  672   2.569   1.135   1.134  1.9278 -1.4847 -0.0095
  225SOL     OW  673   2.890   1.545   1.024  0.0207 -0.3023 -0.1621
  225SOL    HW1  674   2.955   1.598   0.969 -0.1485  1.7750 -0.2646
  225SOL    HW2  675   2.930   1.458   1.058 -2.5339 -1.5133 -1.2745
  226SOL     OW  676   1.012   2.582   0.882 -0.6138  0.2489 -0.3586
  226SOL    HW1  677   1.042   2.604   0.786  1.0426 -0.8614 -0.2048
  226SOL    HW2  678   1.063   2.503   0.911  2.8073  2.1014 -1.9738
  227SOL     OW  679   1.181   1.238   1.377 -0.1710 -0.4001  0.1455
  227SOL    HW1  680   1.153   1.159   1.441 -3.1892 -1.5673  1.3834
  227SOL    HW2  681   1.118   1.241   1.294  0.1981 -0.8732 -1.0468
  228SOL     OW  682   1.583   0.235   2.151  0.1589 -0.0759  0.2870
  228SOL    HW1  683   1.587   0.139   2.187  2.5887  1.6842  0.0174
  228SOL    HW2  684   1.487   0.264   2.142 -1.6032 -1.2657 -1.2222
  229SOL     OW  685   2.990   0.723   2.455  0.4411 -0.0238 -0.0617
  229SOL    HW1  686   2.913   0.653   2.471 -0.0525 -1.9557  0.4391
  229SOL    HW2  687   3.011   0.784   2.533  0.8238 -1.4957  0.8917
  230SOL     OW  688   0.147   1.010   0.929 -0.2554  0.0354  0.3528
  230SOL    HW1  689   0.073   1.018   0.854 -1.3180  0.9598  1.0827
  230SOL    HW2  690   0.162   1.095   0.985  0.5329  1.7683  4.2321
  231SOL     OW  691   1.869   0.054   2.420  0.2779  0.3924  0.4767
  231SOL    HW1  692   1.960   0.004   2.432  4.5033  2.3936 -0.7846
  231SOL    HW2  693   1.885   0.128   2.353  1.2386  0.5804  0.5096
  232SOL     OW  694   0.448   1.594   3.046  0.7026 -0.0564 -0.3255
  232SOL    HW1  695   0.472   1.691   3.037 -1.7537  0.5357  0.1276
  232SOL    HW2  696   0.350   1.582   3.007  0.5914  4.3675  3.1476
  233SOL     OW  697   1.201   2.585   3.001 -0.3953 -0.3037 -0.0266
  233SOL    HW1  698   1.260   2.514   3.045 -0.4237 -0.3982 -0.0794
  233SOL    HW2  699   1.245   2.626   2.917 -1.4354  1.6027 -0.4989
  234SOL     OW  700   1.098   1.420   1.878  0.6246 -0.2738 -0.6416
  234SOL    HW1  701   1.153   1.412   1.965 -0.5017 -0.0666  1.2389
  234SOL    HW2  702   1.021   1.355   1.872  0.7352 -0.6435 -2.5872
  235SOL     OW  703   0.031   1.864   1.749 -0.1024  0.1545 -0.6611
  235SOL    HW1  704   0.038   1.853   1.651 -0.9265  3.3297  1.0840
  235SOL    HW2  705   0.127   1.859   1.789 -0.7760  0.7397 -3.4105
  236SOL     OW  706   1.588   2.196   2.715  0.7365 -0.2046  0.2997
  236SOL    HW1  707   1.515   2.233   2.770  1.2726 -1.5617 -0.9941
  236SOL    HW2  708   1.675   2.229   2.750 -2.6279 -1.8035  1.6898
  237SOL     OW  709   1.590   0.591   0.829  0.3293 -0.3056 -0.2503
  237SOL    HW1  710   1.676   0.552   0.791 -0.7091  1.0910 -0.5569
  237SOL    HW2  711   1.513   0.524   0.824  0.3345  2.5101 -0.6286
  238SOL     OW  712   1.041   0.348   2.403  0.4293 -0.0171  0.0440
  238SOL    HW1  713   0.961   0.288   2.388  1.0757  1.8757  0.4456
  238SOL    HW2  714   1.128   0.293   2.408 -0.6504  0.0746 -3.1261
  239SOL     OW  715   0.791   2.971   1.712  0.3013  0.9872  0.0037
  239SOL    HW1  716   0.709   3.023   1.738  0.7145 -0.7067 -0.8358
  239SOL    HW2  717   0.828   3.009   1.621 -0.7319 -2.1888 -2.3402
  240SOL     OW  718   2.283   2.647   0.829  0.0107 -0.4677  0.3923
  240SOL    HW1  719   2.214   2.681   0.894  2.9036 -1.0657 -0.8124
  240SOL    HW2  720   2.299   2.709   0.745 -0.2314 -1.2452 -1.6105
  241SOL     OW  721   1.181   1.421   1.610 -0.4818  0.1546  0.6064
  241SOL    HW1  722   1.095   1.392   1.562 -2.3307  0.5306  1.0843
  241SOL    HW2  723   1.163   1.428   1.712  0.6102 -0.3270  1.0562
  242SOL     OW  724   2.811   0.738   0.658 -0.6503  0.4818  0.3602
  242SOL    HW1  725   2.827   0.812   0.591 -0.2076  1.4307 -0.5691
  242SOL    HW2  726   2.814   0.646   0.611 -2.4856 -0.5128 -0.7174
  243SOL     OW  727   0.778   0.603   1.291 -0.6588 -0.1629 -0.7786
  243SOL    HW1  728   0.832   0.693   1.301  1.4249 -0.0955 -0.9197
  243SOL    HW2  729   0.804   0.564   1.204  0.9242 -1.1022  1.3181
  244SOL     OW  730   1.064   0.461   0.007  0.0216  0.4512 -0.0094
  244SOL    HW1  731   0.966   0.434   0.006  0.0847 -2.6836 -1.8271
  244SOL    HW2  732   1.109   0.448   3.001  1.2054  0.1122  0.7237
  245SOL     OW  733   2.203   0.544   2.944  0.4596  0.8393 -0.5369
  245SOL    HW1  734   2.199   0.507   2.850  1.4859 -0.2303  2.7572
  245SOL    HW2  735   2.198   0.465   3.007 -0.0871 -0.1135  1.9167
  246SOL     OW  736   0.922   0.814   1.366 -0.0674  0.6002 -0.3961
  246SOL    HW1  737   0.912   0.766   1.457  0.4920  0.4989  1.0287
  246SOL    HW2  738   1.007   0.789   1.314  0.5294 -0.0521 -2.3699
  247SOL     OW  739   0.602   2.858   2.167 -0.1078 -0.3721  0.2928
  247SOL    HW1  740   0.532   2.912   2.210  3.3041  1.0490 -0.5338
  247SOL    HW2  741   0.674   2.928   2.131  3.3410 -0.6405 -0.8606
  248SOL     OW  742   0.157   1.558   1.966  0.7756 -0.2585 -0.3844
  248SOL    HW1  743   0.093   1.516   1.900  3.4838  0.1376 -1.7195
  248SOL    HW2  744   0.157   1.661   1.951  0.0603 -0.1579  0.0535
  249SOL     OW  745   0.197   2.944   2.881  0.3886 -0.0921  0.2250
  249SOL    HW1  746   0.202   2.942   2.779 -0.1163  1.6762  0.1459
  249SOL    HW2  747   0.216   3.033   2.924  0.9757 -2.3439 -1.5559
  250SOL     OW  748   2.888   0.173   0.268 -0.2798 -0.2412 -0.9268
  250SOL    HW1  749   2.923   0.080   0.294  0.2175 -0.7135 -0.1017
  250SOL    HW2  750   2.924   0.194   0.178 -0.9866 -0.1989  1.0209
  251SOL     OW  751   0.510   1.167   1.064  0.0952 -0.1819  0.4961
  251SOL    HW1  752   0.583   1.097   1.052 -1.5980 -1.3736  2.5815
  251SOL    HW2  753   0.476   1.195   0.972 -0.0681  0.5540 -0.8243
  252SOL     OW  754   1.503   2.877   1.480  0.0154  0.2742  0.2125
  252SOL    HW1  755   1.546   2.939   1.545 -0.2989 -3.3571  0.4933
  252SOL    HW2  756   1.397   2.873   1.489 -0.1515  0.6145 -2.9970
  253SOL     OW  757   2.089   1.979   2.732  0.0949 -0.8498 -0.2037
  253SOL    HW1  758   2.170   2.032   2.776 -1.4821  4.0950  1.8327
  253SOL    HW2  759   2.080   1.885   2.766  2.0570  2.9496 -2.5134
  254SOL     OW  760   0.283   1.839   1.856  0.2573  0.0200  0.6907
  254SOL    HW1  761   0.355   1.820   1.784  0.2330  0.5188 -1.3259
  254SOL    HW2  762   0.325   1.845   1.944 -1.3437  1.4639  0.1867
  255SOL     OW  763   0.890   3.052   1.468 -0.0965  0.2874 -0.7031
  255SOL    HW1  764   0.844   0.047   1.424 -1.5405 -0.8820  0.4271
  255SOL    HW2  765   0.901   2.979   1.401  0.2079 -0.2593 -1.4063
  256SOL     OW  766   2.324   2.330   1.045 -0.0572 -0.0416 -0.5707
  256SOL    HW1  767   2.422   2.314   1.023 -1.0857  0.7712  0.9154
  256SOL    HW2  768   2.265   2.320   0.961  1.1106  1.3495 -1.2613
  257SOL     OW  769   0.582   2.175   3.029  0.0998 -0.1094 -0.6671
  257SOL    HW1  770   0.684   2.180   3.045  2.3328 -0.3886 -1.1840
  257SOL    HW2  771   0.560   2.254   2.974  1.9055 -1.4814  2.7624
  258SOL     OW  772   0.930   1.993   2.657 -0.7984  0.2192  0.6357
  258SOL    HW1  773   0.966   1.997   2.751  0.3136 -0.6258 -1.8890
  258SOL    HW2  774   0.883   1.904   2.647  0.5697  0.4801  1.2785
  259SOL     OW  775   0.879   1.742   2.562 -0.0861  0.0100  0.0811
  259SOL    HW1  776   0.895   1.720   2.463 -1.2318 -1.9777 -1.3994
  259SOL    HW2  777   0.805   1.687   2.603  2.1871  2.5008  0.8226
  260SOL     OW  778   2.325   1.397   2.064 -0.4079  0.8520 -0.0915
  260SOL    HW1  779   2.308   1.473   1.996 -1.5112 -2.8526 -1.0693
  260SOL    HW2  780   2.246   1.381   2.126  0.6837 -0.1141  2.1638
  261SOL     OW  781   1.400   0.821   0.864 -0.7041 -0.1965  0.5527
  261SOL    HW1  782   1.454   0.737   0.869 -1.8118  0.7290  0.8796
  261SOL    HW2  783   1.398   0.868   0.950  0.3643  0.1583 -2.0397
  262SOL     OW  784   1.648   2.147   2.426 -0.6205 -0.1775 -0.0999
  262SOL    HW1  785   1.748   2.126   2.404 -1.0006  1.9574 -1.6303
  262SOL    HW2  786   1.642   2.203   2.508  0.6035  0.3263 -1.1427
  263SOL     OW  787   0.197   1.539   2.960  0.2123 -0.0499  0.7038
  263SOL    HW1  788   0.139   1.522   3.040 -0.3098 -2.0834  0.0178
  263SOL    HW2  789   0.179   1.463   2.892 -0.9844 -0.4556  0.6712
  264SOL     OW  790   0.508   1.916   1.001  0.0497  0.2028  0.0411
  264SOL    HW1  791   0.515   1.976   0.915 -2.0953  1.5716 -1.7180
  264SOL    HW2  792   0.451   1.955   1.078 -0.5706 -0.2693 -1.0682
  265SOL     OW  793   0.850   1.188   0.099 -0.2580  0.2582 -0.0594
  265SOL    HW1  794   0.902   1.127   0.165  0.8965  0.7714 -2.0785
  265SOL    HW2  795   0.894   1.279   0.078 -2.3333  0.5138  2.1733
  266SOL     OW  796   1.427   1.834   2.981 -0.2181  0.1802 -0.1961
  266SOL    HW1  797   1.388   1.740   3.000 -0.8891  2.2012 -0.4609
  266SOL    HW2  798   1.391   1.874   2.895 -0.8950  0.2886 -0.8168
  267SOL     OW  799   0.828   0.864   2.102  0.9302  0.1847  0.0286
  267SOL    HW1  800   0.859   0.768   2.118  0.6942 -1.8191  1.3152
  267SOL    HW2  801   0.899   0.933   2.118 -0.0975 -0.6098 -1.0849
  268SOL     OW  802   0.407   0.832   2.648  0.6008  0.1368  0.1988
  268SOL    HW1  803   0.483   0.777   2.613 -3.4671  0.2622  0.4293
  268SOL    HW2  804   0.443   0.905   2.708  0.3667  0.6922  0.6241
  269SOL     OW  805   1.881   2.687   2.731  0.2718 -0.2913 -0.2324
  269SOL    HW1  806   1.878   2.661   2.632 -0.4223 -1.9148 -0.3986
  269SOL    HW2  807   1.799   2.655   2.781 -2.3137 -0.6041 -0.0452
  270SOL     OW  808   1.000   1.465   2.399 -0.0137 -0.3682  0.0963
  270SOL    HW1  809   0.914   1.409   2.415 -0.4115 -0.3228  0.0364
  270SOL    HW2  810   0.982   1.562   2.373  1.9633 -0.4703  1.2486
  271SOL     OW  811   0.211   0.091   3.011 -0.0204 -0.3977 -0.1631
  271SOL    HW1  812   0.277   0.159   3.042  0.9616  0.9261  4.1104
  271SOL    HW2  813   0.168   0.058   0.012 -0.8833  2.4880 -0.8946
  272SOL     OW  814   2.377   0.757   0.472 -0.4059 -0.3278  0.3542
  272SOL    HW1  815   2.327   0.668   0.468  1.1568  0.0334 -0.4687
  272SOL    HW2  816   2.379   0.807   0.380  1.1856  2.5383 -1.9631
  273SOL     OW  817   0.218   0.013   1.941 -0.1273 -0.2823  0.0035
  273SOL    HW1  818   0.121   3.081   1.918  1.0705  0.6798 -0.1306
  273SOL    HW2  819   0.220   0.114   1.944 -1.4147 -0.1084 -0.7277
  274SOL     OW  820   2.867   0.181   2.019 -0.2854 -0.6801  0.2480
  274SOL    HW1  821   2.912   0.227   2.093  1.2356  0.9551 -1.6186
  274SOL    HW2  822   2.867   0.232   1.930 -1.1241 -0.2147 -0.3121
  275SOL     OW  823   1.427   1.720   0.713  0.1671  0.2655 -0.0389
  275SOL    HW1  824   1.488   1.641   0.735  0.8913  0.2644 -0.3081
  275SOL    HW2  825   1.465   1.764   0.628 -0.3476  0.4047  0.1882
  276SOL     OW  826   0.565   0.916   2.090 -0.6909  0.5023 -0.7227
  276SOL    HW1  827   0.664   0.893   2.098 -2.4292  2.2491 -0.6849
  276SOL    HW2  828   0.526   0.903   1.996  0.1763  1.3663  0.5072
  277SOL     OW  829   1.594   2.415   2.176 -0.1506 -0.4587 -0.1621
  277SOL    HW1  830   1.574   2.433   2.274 -1.1975 -0.7494 -4.4798
  277SOL    HW2  831   1.611   2.505   2.131  0.9458  2.1526 -0.1524
  278SOL     OW  832   1.904   2.667   2.459 -0.1228 -0.1766 -0.1891
  278SOL    HW1  833   1.877   2.592   2.397  1.6467  0.8929  0.8040
  278SOL    HW2  834   1.995   2.706   2.434  0.5845  1.3515  0.0924
  279SOL     OW  835   1.922   1.175   0.245 -0.2057  0.1882 -0.2167
  279SOL    HW1  836   1.896   1.270   0.270  0.6011 -1.4278  0.5982
  279SOL    HW2  837   1.974   1.182   0.158 -0.2767 -0.1371  3.8389
  280SOL     OW  838   0.976   1.431   0.031  0.3431 -0.3656  0.0310
  280SOL    HW1  839   0.915   1.514   0.048 -1.1547  1.0840  2.0220
  280SOL    HW2  840   1.003   1.422   3.025 -0.8678  0.7738  0.7508
  281SOL     OW  841   3.000   0.076   1.648 -0.1824 -0.3820 -0.5266
  281SOL    HW1  842   3.083   0.032   1.611 -1.5041  1.1442 -0.2324
  281SOL    HW2  843   2.929   0.079   1.571 -0.9646 -0.6306 -1.6297
  282SOL     OW  844   2.803   2.421   0.787 -0.1651 -0.2537  0.1208
  282SOL    HW1  845   2.886   2.476   0.766 -0.0856 -0.4081  0.2243
  282SOL    HW2  846   2.715   2.473   0.792  0.6691  0.4158  0.8212
  283SOL     OW  847   1.499   1.793   2.160  0.0437  0.5338 -0.0276
  283SOL    HW1  848   1.492   1.882   2.204  4.0631  1.1450  1.8266
  283SOL    HW2  849   1.424   1.730   2.191 -0.1129  0.1141  0.0574
  284SOL     OW  850   1.602   0.149   0.459  0.3163  0.0959 -0.6374
  284SOL    HW1  851   1.636   0.218   0.393 -2.5984 -1.4985 -0.6328
  284SOL    HW2  852   1.519   0.185   0.511 -0.4505 -1.0341  1.6025
  285SOL     OW  853   0.053   2.438   2.583  0.4991  0.0530  0.5238
  285SOL    HW1  854   0.012   2.460   2.491 -0.5300 -0.0355 -0.8442
  285SOL    HW2  855   0.046   2.338   2.597  0.7531  0.1090 -1.0407
  286SOL     OW  856   2.700   2.580   1.473 -0.0438 -0.4749  0.8177
  286SOL    HW1  857   2.737   2.663   1.518 -0.9413 -1.6506 -0.0071
  286SOL    HW2  858   2.720   2.504   1.535  2.0104 -2.0353  0.6183
  287SOL     OW  859   0.409   1.295   0.836 -0.1193  0.2086 -0.5509
  287SOL    HW1  860   0.323   1.285   0.887  0.6985 -2.6623 -1.8352
  287SOL    HW2  861   0.395   1.351   0.753 -0.3910  1.2660  3.1208
  288SOL     OW  862   2.302   1.708   2.914 -0.3365 -0.2931 -0.2008
  288SOL    HW1  863   2.341   1.645   2.844 -0.5624  2.3170 -1.9200
  288SOL    HW2  864   2.368   1.717   2.992  1.7970  2.0956  0.5964
  289SOL     OW  865   0.242   1.805   2.953  0.3503  0.0424  0.3595
  289SOL    HW1  866   0.182   1.830   2.869 -2.4563 -1.0462 -1.0339
  289SOL    HW2  867   0.249   1.701   2.961 -0.2524 -0.8433  0.8549
  290SOL     OW  868   1.068   1.545   1.012  0.2954 -0.2781 -0.7955
  290SOL    HW1  869   1.147   1.487   1.036  1.6286  0.6070 -0.6120
  290SOL    HW2  870   1.093   1.616   0.940  1.2165  0.3841 -0.0059
  291SOL     OW  871   1.696   0.973   2.894  0.4547  0.0215 -0.3346
  291SOL    HW1  872   1.662   0.887   2.846 -0.8942 -0.4127 -0.4831
  291SOL    HW2  873   1.693   0.957   2.997  0.3978 -2.5039 -0.9152
  292SOL     OW  874   1.175   1.407   0.487  0.4732  0.0283 -0.1236
  292SOL    HW1  875   1.127   1.431   0.574 -2.5036  1.4879 -0.2116
  292SOL    HW2  876   1.274   1.416   0.501  0.1556 -0.2350 -0.6062
  293SOL     OW  877   1.503   2.640   1.005  0.3501 -0.3485 -0.2367
  293SOL    HW1  878   1.580   2.690   1.049 -1.2541  0.3051  0.5304
  293SOL    HW2  879   1.479   2.692   0.918 -0.4336  0.3131  1.2716
  294SOL     OW  880   2.478   1.373   2.977  0.3159 -0.2320 -0.5107
  294SOL    HW1  881   2.417   1.301   2.941 -1.1242 -0.4001 -0.0434
  294SOL    HW2  882   2.575   1.337   2.974 -0.6588 -0.0811  1.9635
  295SOL     OW  883   1.475   2.031   2.264  0.3574  0.2808  0.6149
  295SOL    HW1  884   1.543   2.076   2.325 -1.5383  0.6103 -0.1725
  295SOL    HW2  885   1.461   2.088   2.180  0.4880  2.3491 -0.8831
  296SOL     OW  886   1.987   0.473   1.954 -0.1028  0.4656  0.3041
  296SOL    HW1  887   2.057   0.550   1.966  0.7192  1.1344  0.0335
  296SOL    HW2  888   1.911   0.480   2.021  1.5548 -1.4996 -0.6419
  297SOL     OW  889   0.064   0.687   2.034  0.1007 -0.7721 -0.0934
  297SOL    HW1  890   0.013   0.597   2.039  0.8880  1.5385  0.9158
  297SOL    HW2  891   0.047   0.740   1.949  2.7778  0.3752  1.6443
  298SOL     OW  892   0.878   2.629   1.953  0.3645  0.4673  0.1625
  298SOL    HW1  893   0.790   2.637   1.900 -0.4584  1.3873 -1.2148
  298SOL    HW2  894   0.852   2.593   2.046  2.4220  0.8244  2.8451
  299SOL     OW  895   1.301   2.733   2.761  0.0429  0.3825 -0.2818
  299SOL    HW1  896   1.361   2.807   2.799 -0.5935 -1.1961 -0.2925
  299SOL    HW2  897   1.202   2.752   2.748  1.8576 -2.7217 -0.3484
  300SOL     OW  898   3.022   1.046   3.010 -0.0273 -0.1524 -0.0209
  300SOL    HW1  899   2.939   1.032   2.955  2.3890  1.5973 -1.0567
  300SOL    HW2  900   3.083   0.965   2.997 -1.7045  0.7502  0.6463
  301SOL     OW  901   1.839   1.004   1.689 -0.9985  0.1275 -0.0930
  301SOL    HW1  902   1.817   0.908   1.693  1.5105  0.5133  0.4489
  301SOL    HW2  903   1.806   1.045   1.779  0.6434 -0.0526  0.7177
  302SOL     OW  904   2.499   1.839   2.385  0.7405  0.4130 -0.8723
  302SOL    HW1  905   2.460   1.755   2.336 -0.3924 -0.7015  1.2879
  302SOL    HW2  906   2.431   1.913   2.398 -1.4851 -2.1121 -0.7681
  303SOL     OW  907   0.327   2.532   2.035 -0.5611 -0.7762 -0.5188
  303SOL    HW1  908   0.308   2.629   2.060 -0.2259  2.9624  0.7553
  303SOL    HW2  909   0.310   2.521   1.935  0.1002  3.3547  2.2305
  304SOL     OW  910   3.000   0.712   1.162  0.4430  0.4311 -0.1451
  304SOL    HW1  911   0.002   0.760   1.142 -1.6773 -0.4725 -2.0073
  304SOL    HW2  912   3.012   0.612   1.153 -0.2809 -0.5124 -0.0552
  305SOL     OW  913   2.782   0.622   1.897  0.3273 -0.2390  0.1008
  305SOL    HW1  914   2.866   0.585   1.943 -1.8208 -0.6821 -2.2110
  305SOL    HW2  915   2.703   0.556   1.905 -1.3910 -0.2170  0.8744
  306SOL     OW  916   2.390   1.248   1.570  0.1518  0.3172  0.7010
  306SOL    HW1  917   2.299   1.203   1.581  0.7371  0.7346 -0.6585
  306SOL    HW2  918   2.399   1.342   1.607  2.3410  0.4240 -0.0453
  307SOL     OW  919   2.535   0.077   0.853  0.4627 -0.5899  0.4505
  307SOL    HW1  920   2.618   0.135   0.829  1.7177  1.5565 -1.2010
  307SOL    HW2  921   2.554   3.079   0.905  1.2112 -0.1939 -0.0147
  308SOL     OW  922   2.922   1.808   1.298 -0.9262 -0.1669  0.0631
  308SOL    HW1  923   2.842   1.763   1.264  1.9154  1.0125  3.2389
  308SOL    HW2  924   2.892   1.887   1.357  0.2099 -1.5645  1.2755
  309SOL     OW  925   2.284   2.306   1.651 -1.0195 -0.1822 -0.3768
  309SOL    HW1  926   2.287   2.390   1.594  1.6061 -1.5547  1.9149
  309SOL    HW2  927   2.246   2.330   1.742  2.2009 -0.1498  2.8083
  310SOL     OW  928   2.307   1.285   2.775  0.1808  0.6572  0.2005
  310SOL    HW1  929   2.350   1.375   2.752 -2.0312  0.4659 -1.0220
  310SOL    HW2  930   2.235   1.253   2.711 -0.8159 -0.3124  0.5375
  311SOL     OW  931   2.045   1.107   3.036 -0.1915  0.0123 -0.6256
  311SOL    HW1  932   1.988   1.135   2.956 -2.9810 -1.6462  1.5182
  311SOL    HW2  933   2.142   1.137   3.028  1.0602 -0.7741  0.2708
  312SOL     OW  934   1.095   2.362   2.220 -0.8767 -0.2313  0.5242
  312SOL    HW1  935   1.142   2.389   2.137 -0.0103  0.3606  0.0638
  312SOL    HW2  936   1.004   2.401   2.236  3.1700 -1.5046  0.8145
  313SOL     OW  937   0.430   0.522   0.782 -0.1102  0.1233  0.1055
  313SOL    HW1  938   0.344   0.571   0.763  1.0450 -0.0210  2.7557
  313SOL    HW2  939   0.420   0.425   0.809  0.4444  0.1235 -2.7665
  314SOL     OW  940   0.534   1.661   1.098 -0.1639 -0.2090  0.3627
  314SOL    HW1  941   0.529   1.664   1.200  0.6638 -3.6552  1.7958
  314SOL    HW2  942   0.533   1.753   1.057 -1.8817  0.3683  0.8238
  315SOL     OW  943   0.643   2.253   2.077  0.1061  0.7543 -0.1193
  315SOL    HW1  944   0.612   2.187   2.009 -2.0651  1.6032 -1.0840
  315SOL    HW2  945   0.567   2.316   2.095 -1.9507 -0.4240 -0.5783
  316SOL     OW  946   0.121   2.233   0.840  0.3123 -0.0013 -0.0410
  316SOL    HW1  947   0.208   2.269   0.870 -0.9904 -0.2143 -2.9273
  316SOL    HW2  948   0.107   2.146   0.893 -0.6629  0.4345 -1.7770
  317SOL     OW  949   1.886   0.625   0.475  0.1421 -0.2517  0.1304
  317SOL    HW1  950   1.924   0.717   0.500  1.2205  0.3078 -0.2965
  317SOL    HW2  951   1.957   0.554   0.476 -1.1664  0.9217  0.0057
  318SOL     OW  952   2.150   2.450   3.060  0.1629 -0.4522 -0.0797
  318SOL    HW1  953   2.243   2.469   3.027  1.7535 -0.4479 -1.7726
  318SOL    HW2  954   2.149   2.421   0.070 -0.6649 -0.2424 -2.3369
  319SOL     OW  955   1.687   1.798   2.871 -0.0973 -0.3265  0.2931
  319SOL    HW1  956   1.603   1.817   2.927  1.8691 -0.3939 -0.6305
  319SOL    HW2  957   1.768   1.861   2.880  2.0131  0.2333 -0.2337
  320SOL     OW  958   0.683   2.525   2.706 -0.1704  0.4284 -0.5975
  320SOL    HW1  959   0.627   2.458   2.647 -2.2671 -0.4437 -2.1981
  320SOL    HW2  960   0.776   2.492   2.709 -0.9328  0.1776 -0.6107
  321SOL     OW  961   0.744   2.651   3.072  0.2048  0.0347  0.6270
  321SOL    HW1  962   0.832   2.603   3.033  2.6747 -0.6462 -2.2644
  321SOL    HW2  963   0.757   2.745   0.018  2.5034 -0.7038 -1.7402
  322SOL     OW  964   2.270   0.411   2.135 -0.3278  0.0554  0.4246
  322SOL    HW1  965   2.232   0.347   2.070  0.4905 -0.2651  1.1769
  322SOL    HW2  966   2.198   0.424   2.211 -2.3649 -1.4427  1.0654
  323SOL     OW  967   2.786   0.955   0.811 -0.0177 -0.0806  0.0095
  323SOL    HW1  968   2.819   0.946   0.906  0.0969  1.4892 -2.9368
  323SOL    HW2  969   2.798   0.867   0.763  0.8060  0.9169 -1.7342
  324SOL     OW  970   0.165   0.713   2.288 -0.4577  0.1339 -0.5419
  324SOL    HW1  971   0.109   0.702   2.204 -1.2368  1.0700  0.0981
  324SOL    HW2  972   0.253   0.673   2.276 -0.3904  0.8392 -0.2688
  325SOL     OW  973   0.339   3.045   2.170 -0.0523 -0.1723  0.0452
  325SOL    HW1  974   0.321   0.025   2.243  1.3091 -1.9929 -0.2270
  325SOL    HW2  975   0.290   3.074   2.081 -2.9862  2.0729 -0.2426
  326SOL     OW  976   2.630   2.506   0.106  0.6734  0.0207  0.0600
  326SOL    HW1  977   2.694   2.474   0.033 -2.5022  1.2474 -2.3907
  326SOL    HW2  978   2.656   2.471   0.194 -1.3844  0.2210 -2.5155
  327SOL     OW  979   2.402   1.466   0.786 -0.5617 -0.5475 -0.1170
  327SOL    HW1  980   2.304   1.462   0.777  1.1220 -0.5399 -0.2107
  327SOL    HW2  981   2.432   1.564   0.778  1.5677  0.1863 -2.5372
  328SOL     OW  982   3.079   1.863   2.254 -0.7469 -0.4249  0.2458
  328SOL    HW1  983   0.081   1.820   2.286  1.6440 -0.8709 -1.2370
  328SOL    HW2  984   3.077   1.857   2.156 -0.6887 -1.0651 -0.3283
  329SOL     OW  985   3.043   2.314   1.622 -0.2214 -0.5717 -0.0513
  329SOL    HW1  986   3.077   2.327   1.524  2.8185 -2.5006 -0.9942
  329SOL    HW2  987   3.015   2.219   1.637 -2.2915  1.9195  0.2635
  330SOL     OW  988   2.519   1.269   2.430 -0.0411 -0.0819  0.1495
  330SOL    HW1  989   2.421   1.241   2.431 -0.8241  0.6595  0.8913
  330SOL    HW2  990   2.545   1.307   2.337 -1.1921  3.4933 -0.3243
  331SOL     OW  991   2.532   2.537   0.804 -0.1407  0.1589  0.0637
  331SOL    HW1  992   2.543   2.438   0.815  0.8221  1.6902  0.1057
  331SOL    HW2  993   2.436   2.570   0.813 -2.8880 -0.9300  2.4244
  332SOL     OW  994   0.686   2.923   0.863  0.1473  0.4286 -0.8769
  332SOL    HW1  995   0.603   2.933   0.809  1.4563 -0.4945  0.1128
  332SOL    HW2  996   0.677   2.953   0.961 -2.1959  0.0691 -1.6246
  333SOL     OW  997   2.113   2.823   2.353  0.5394  0.1189  0.0121
  333SOL    HW1  998   2.194   2.762   2.365 -0.6412 -0.2109 -1.9262
  333SOL    HW2  999   2.119   2.911   2.406  0.2485  3.7775  0.6466
  334SOL     OW 1000   1.023   0.976   0.301 -0.1234  0.0869  0.0566
  334SOL    HW1 1001   1.046   1.026   0.386  0.1255  1.5195  1.8366
  334SOL    HW2 1002   0.984   0.882   0.322 -0.5751 -1.0095  0.2584
  335SOL     OW 1003   0.113   2.090   2.023  0.5545 -0.6475 -0.7325
  335SOL    HW1 1004   0.186   2.035   2.064 -2.9796 -0.8989 -1.6984
  335SOL    HW2 1005   0.124   2.190   2.058  1.8215  3.1354  1.8473
  336SOL     OW 1006   2.892   2.817   2.448 -0.4114  0.0394  0.2291
  336SOL    HW1 1007   2.887   2.831   2.554  1.2116  2.8342  3.2962
  336SOL    HW2 1008   2.807   2.776   2.426  1.6254  2.4512 -0.5079
  337SOL     OW 1009   1.216   1.165   1.005  0.5574  0.2262 -1.2436
  337SOL    HW1 1010   1.236   1.221   0.923  1.7563 -1.6823  1.7330
  337SOL    HW2 1011   1.147   1.213   1.064  1.5107  2.1397 -1.8304
  338SOL     OW 1012   0.956   1.801   0.937 -0.0522  0.0640  0.8007
  338SOL    HW1 1013   1.052   1.829   0.935 -1.2155  0.9405 -0.9761
  338SOL    HW2 1014   0.920   1.820   1.034  0.9164  1.4199  2.7309
  339SOL     OW 1015   0.029   1.297   1.620  0.4189 -0.1915  0.8156
  339SOL    HW1 1016   3.037   1.252   1.582  1.8991  0.6853 -0.4437
  339SOL    HW2 1017   0.000   1.365   1.696  2.6503 -1.1523  1.6342
  340SOL     OW 1018   1.420   2.846   2.143 -0.2963 -0.0246 -0.1234
  340SOL    HW1 1019   1.510   2.807   2.176  2.7877  0.0065  1.6135
  340SOL    HW2 1020   1.343   2.787   2.181 -2.1411  0.1426 -0.9305
  341SOL     OW 1021   1.714   1.535   1.115 -0.1550 -0.3083  0.2916
  341SOL    HW1 1022   1.691   1.477   1.196 -0.2024 -1.4538 -2.2340
  341SOL    HW2 1023   1.813   1.552   1.114 -1.5234  1.6694 -0.4919
  342SOL     OW 1024   2.889   1.237   0.907 -0.4302 -0.5033 -0.9160
  342SOL    HW1 1025   2.950   1.305   0.862  1.4646 -0.2800 -1.5992
  342SOL    HW2 1026   2.924   1.144   0.886 -0.9478  0.4297  0.0062
  343SOL     OW 1027   2.890   0.606   1.460 -0.3977 -0.3298  0.0897
  343SOL    HW1 1028   2.945   0.691   1.452  0.7323 -2.5983  0.5792
  343SOL    HW2 1029   2.926   0.533   1.398  1.7143 -2.1822  0.7142
  344SOL     OW 1030   1.712   0.265   1.072 -0.1558 -0.4845 -0.3932
  344SOL    HW1 1031   1.805   0.298   1.048 -1.2896 -0.2749 -0.8434
  344SOL    HW2 1032   1.643   0.343   1.060 -2.0369  0.6245  2.3919
  345SOL     OW 1033   0.511   2.898   2.448  0.0843 -0.5783  0.7564
  345SOL    HW1 1034   0.551   2.844   2.530  0.5620 -3.9587  0.5182
  345SOL    HW2 1035   0.546   2.997   2.446  2.2183 -0.3731 -1.8197
  346SOL     OW 1036   2.640   1.605   0.445  0.3851 -0.1271 -0.0282
  346SOL    HW1 1037   2.658   1.610   0.343 -0.3437 -1.1517 -4.5312
  346SOL    HW2 1038   2.578   1.679   0.484 -0.2105  1.3101 -0.2671
  347SOL     OW 1039   2.446   0.179   1.964  0.6697  0.0452 -0.0740
  347SOL    HW1 1040   2.471   0.107   1.900 -2.0075  2.1880 -0.2357
  347SOL    HW2 1041   2.348   0.164   2.001  1.1150  2.6110  2.4281
  348SOL     OW 1042   1.397   1.123   1.570  0.1436  0.7390  1.0557
  348SOL    HW1 1043   1.342   1.212   1.567 -2.6316  1.8147 -2.2293
  348SOL    HW2 1044   1.494   1.140   1.554  1.0031 -0.8040 -0.9517
  349SOL     OW 1045   2.702   0.861   1.814  0.0547 -0.2109 -0.3522
  349SOL    HW1 1046   2.736   0.773   1.842 -2.3027  1.5952 -3.2053
  349SOL    HW2 1047   2.774   0.933   1.829 -1.5081  2.0042 -1.0226
  350SOL     OW 1048   2.166   2.142   0.072 -0.7068 -0.7044 -0.3567
  350SOL    HW1 1049   2.193   2.209   0.138 -0.9402 -0.3004 -1.2431
  350SOL    HW2 1050   2.209   2.054   0.100 -2.9612 -1.4128  1.8191
  351SOL     OW 1051   0.737   0.219   2.091  0.1413  0.3080  0.1905
  351SOL    HW1 1052   0.828   0.256   2.059 -0.5511 -1.3947  0.4134
  351SOL    HW2 1053   0.669   0.260   2.029  1.8967 -1.2687  1.8878
  352SOL     OW 1054   1.956   2.735   1.850 -0.2660  0.1466  0.1851
  352SOL    HW1 1055   2.017   2.748   1.932 -2.5702  0.0501  1.1393
  352SOL    HW2 1056   1.892   2.654   1.846  0.6404  0.4636 -0.5180
  353SOL     OW 1057   0.618   0.956   2.443 -0.0597 -0.8219  0.4154
  353SOL    HW1 1058   0.675   1.011   2.374  1.6358  1.0456 -1.1219
  353SOL    HW2 1059   0.681   0.935   2.519  0.9363 -1.7212 -0.8216
  354SOL     OW 1060   0.933   1.796   2.898 -0.3151 -0.3708 -0.2137
  354SOL    HW1 1061   1.011   1.759   2.846  0.0345  2.1930  1.0586
  354SOL    HW2 1062   0.846   1.811   2.842  0.2632 -0.5311 -0.4371
  355SOL     OW 1063   1.732   2.745   1.112  0.5264 -0.1630  0.2745
  355SOL    HW1 1064   1.825   2.728   1.080  1.3604 -0.2422 -0.3750
  355SOL    HW2 1065   1.723   2.805   1.192 -1.5450 -1.6944 -1.1712
  356SOL     OW 1066   2.246   1.176   0.167  0.0705 -0.5874  0.4023
  356SOL    HW1 1067   2.350   1.181   0.161  0.3903 -1.1996  1.1147
  356SOL    HW2 1068   2.218   1.255   0.221 -0.0806  0.0790  0.9894
  357SOL     OW 1069   0.059   0.010   2.237 -1.0093 -0.4277 -0.1500
  357SOL    HW1 1070   0.068   2.999   2.232  0.6328  1.1790  0.7000
  357SOL    HW2 1071   0.052   0.037   2.336 -1.1007 -1.4990 -0.3099
  358SOL     OW 1072   3.084   1.375   0.762 -0.3657 -0.7025  0.2133
  358SOL    HW1 1073   0.003   1.313   0.682 -0.5363  2.5730 -1.6408
  358SOL    HW2 1074   3.082   1.472   0.731  0.1728  1.3229 -0.3596
  359SOL     OW 1075   2.712   0.254   2.814 -0.3944  0.3033 -0.0584
  359SOL    HW1 1076   2.724   0.311   2.732 -0.4531  1.1984  0.6356
  359SOL    HW2 1077   2.756   0.164   2.790 -1.0341 -1.3013  1.1838
  360SOL     OW 1078   1.412   0.890   1.377  0.3932  0.5749 -0.0320
  360SOL    HW1 1079   1.501   0.850   1.371 -2.6628 -0.8018 -2.3265
  360SOL    HW2 1080   1.412   0.972   1.439 -2.2655  1.0352 -0.2965
  361SOL     OW 1081   2.577   2.609   1.224  1.2372 -0.4521 -0.6048
  361SOL    HW1 1082   2.617   2.589   1.316 -0.5941  1.2417 -2.3262
  361SOL    HW2 1083   2.474   2.600   1.230 -0.6314  2.4108  0.6214
  362SOL     OW 1084   1.108   0.493   0.886  0.2836 -0.1758  0.1471
  362SOL    HW1 1085   1.027   0.443   0.861  0.0887  1.1383 -0.8294
  362SOL    HW2 1086   1.087   0.569   0.951  1.5306 -0.9938 -0.4837
  363SOL     OW 1087   1.839   1.715   0.720 -0.2719  0.1844 -0.3530
  363SOL    HW1 1088   1.931   1.688   0.754  0.2441 -0.9441  3.8361
  363SOL    HW2 1089   1.839   1.728   0.620 -0.4935  1.7653 -0.3369
  364SOL     OW 1090   0.652   0.499   1.524 -0.5841  0.6556 -0.3407
  364SOL    HW1 1091   0.626   0.580   1.580 -2.0309 -0.4469  1.0935
  364SOL    HW2 1092   0.711   0.523   1.440  0.8304  0.2078  0.5249
  365SOL     OW 1093   0.315   0.091   1.191 -0.3559  0.2487 -0.1283
  365SOL    HW1 1094   0.337   0.004   1.143  0.2803 -0.5595  0.5135
  365SOL    HW2 1095   0.387   0.163   1.176 -0.3717  0.4883 -0.6271
  366SOL     OW 1096   2.815   1.354   0.190 -0.1232 -0.2441  0.2407
  366SOL    HW1 1097   2.787   1.327   0.095 -3.0282  1.1104  0.8816
  366SOL    HW2 1098   2.787   1.450   0.206 -0.8023 -3.4564  1.9770
  367SOL     OW 1099   2.172   2.495   2.613  0.3670  0.1455 -0.1189
  367SOL    HW1 1100   2.152   2.590   2.638 -0.9682 -1.0079 -0.2170
  367SOL    HW2 1101   2.233   2.457   2.686  1.0037 -1.5360  2.5026
  368SOL     OW 1102   2.425   1.779   0.564 -0.2812 -0.3686  0.0256
  368SOL    HW1 1103   2.436   1.802   0.664  1.9146 -0.0364  0.5539
  368SOL    HW2 1104   2.336   1.732   0.561  0.1608  0.1590  0.4873
  369SOL     OW 1105   1.744   0.541   2.678 -0.0487  0.6506  0.3755
  369SOL    HW1 1106   1.842   0.550   2.696 -0.5173  0.7523  1.6880
  369SOL    HW2 1107   1.694   0.617   2.723 -2.2970  1.0013  0.9237
  370SOL     OW 1108   0.488   0.271   1.125  0.6506 -0.0721 -0.4549
  370SOL    HW1 1109   0.443   0.359   1.123  2.3382 -0.4238 -0.5057
  370SOL    HW2 1110   0.541   0.258   1.041 -0.7149  0.1016  0.1641
  371SOL     OW 1111   2.953   1.507   2.939 -0.1891  0.1821 -0.4049
  371SOL    HW1 1112   3.025   1.465   2.882 -1.1758 -0.7070  0.1834
  371SOL    HW2 1113   2.970   1.606   2.967 -1.0344  0.9824 -1.0221
  372SOL     OW 1114   0.502   0.732   2.342 -0.3891  0.2683 -0.1611
  372SOL    HW1 1115   0.486   0.759   2.248  0.2282 -0.2285  1.1734
  372SOL    HW2 1116   0.527   0.812   2.394 -2.1793 -0.6428 -0.4536
  373SOL     OW 1117   0.531   3.003   2.903  0.3364 -0.5018  0.4558
  373SOL    HW1 1118   0.494   3.033   2.814 -0.3656 -0.3072 -2.2959
  373SOL    HW2 1119   0.631   2.972   2.898  0.3370  0.3206  1.8119
  374SOL     OW 1120   1.047   1.406   2.860  0.0184  0.5273 -0.4868
  374SOL    HW1 1121   1.138   1.446   2.832 -0.2122  0.4401  0.0193
  374SOL    HW2 1122   1.039   1.305   2.856  0.6079 -1.1716 -2.1167
  375SOL     OW 1123   0.953   0.332   1.991 -0.0957  0.3818  0.0356
  375SOL    HW1 1124   0.988   0.342   1.897 -1.5409  0.1478  1.1654
  375SOL    HW2 1125   1.007   0.256   2.034  1.2006  0.5513 -1.3207
  376SOL     OW 1126   0.229   2.714   1.646 -0.5985  0.1790  0.1492
  376SOL    HW1 1127   0.235   2.808   1.686  0.7392 -2.7790  1.8001
  376SOL    HW2 1128   0.260   2.638   1.711 -2.0732 -0.2566  1.1533
  377SOL     OW 1129   2.657   2.205   2.787 -0.0605  0.0972 -0.0179
  377SOL    HW1 1130   2.590   2.184   2.710 -2.3470  1.4782  0.4621
  377SOL    HW2 1131   2.709   2.121   2.821  0.5874  0.7834  3.1270
  378SOL     OW 1132   2.030   0.308   0.214  0.4155 -0.1070 -0.0553
  378SOL    HW1 1133   2.048   0.212   0.242 -2.2086 -0.1766  0.2583
  378SOL    HW2 1134   2.085   0.323   0.131 -1.8407 -0.0464  5.4926
  379SOL     OW 1135   1.735   0.575   0.237 -0.1395 -0.0743  0.0266
  379SOL    HW1 1136   1.782   0.603   0.322  1.5096  0.5562 -1.6925
  379SOL    HW2 1137   1.770   0.618   0.152 -1.1832 -1.3489  1.2370
  380SOL     OW 1138   2.549   1.892   1.784 -0.3664 -0.7061 -0.1391
  380SOL    HW1 1139   2.552   1.910   1.682  1.4764  0.1431  1.3498
  380SOL    HW2 1140   2.452   1.908   1.813  0.6839 -0.6776 -1.6611
  381SOL     OW 1141   2.579   1.355   2.170  0.3304  0.0511 -0.3331
  381SOL    HW1 1142   2.614   1.452   2.159 -0.5995  1.0101  2.7933
  381SOL    HW2 1143   2.480   1.353   2.141 -1.0129  1.1404 -1.2884
  382SOL     OW 1144   2.938   2.211   2.558 -0.1430 -0.8714  0.1079
  382SOL    HW1 1145   2.907   2.141   2.491 -1.1741 -0.4175  1.1348
  382SOL    HW2 1146   3.032   2.181   2.586  0.5346 -0.2305  0.3854
  383SOL     OW 1147   1.154   1.093   2.749  0.4360 -0.0465  0.2161
  383SOL    HW1 1148   1.178   0.996   2.760  0.9349  1.6881 -0.8538
  383SOL    HW2 1149   1.200   1.144   2.822 -1.3732  0.0709  0.4003
  384SOL     OW 1150   1.787   1.705   2.581  0.1591 -0.2364 -0.6037
  384SOL    HW1 1151   1.796   1.804   2.601 -2.1257  0.7252 -0.4298
  384SOL    HW2 1152   1.781   1.682   2.483 -2.3120 -1.3244  0.8155
  385SOL     OW 1153   2.032   2.752   0.366 -1.1054 -0.5872  0.3440
  385SOL    HW1 1154   1.984   2.660   0.392  2.7191 -1.2526 -1.4911
  385SOL    HW2 1155   2.004   2.833   0.419 -0.8005 -0.4775 -0.0512
  386SOL     OW 1156   1.918   1.388   0.623  0.1820  0.5301  0.1019
  386SOL    HW1 1157   1.853   1.322   0.670 -1.1932  0.1304  1.8597
  386SOL    HW2 1158   1.901   1.393   0.518  0.6287  1.8750 -1.7597
  387SOL     OW 1159   2.616   1.925   1.184  0.4813  0.1048 -0.2698
  387SOL    HW1 1160   2.552   1.934   1.101 -0.7751 -1.6550  0.4890
  387SOL    HW2 1161   2.645   1.830   1.204 -1.0025  1.3443 -2.5555
  388SOL     OW 1162   0.294   1.231   1.649  0.8173 -0.0022  0.3053
  388SOL    HW1 1163   0.320   1.254   1.749 -0.9273  0.5152  3.3049
  388SOL    HW2 1164   0.197   1.263   1.631 -0.7003  0.5333 -1.8748
  389SOL     OW 1165   2.264   0.859   2.753 -0.4923 -0.0055 -0.7048
  389SOL    HW1 1166   2.257   0.811   2.841  0.1432 -0.4312 -0.1855
  389SOL    HW2 1167   2.340   0.929   2.756  2.3509  2.4025 -0.6991
  390SOL     OW 1168   0.818   1.541   2.770  0.4569  0.3803 -0.1459
  390SOL    HW1 1169   0.909   1.495   2.789  0.6849 -0.4849 -0.4967
  390SOL    HW2 1170   0.772   1.575   2.851  1.8699 -0.4569 -1.6662
  391SOL     OW 1171   0.805   2.004   0.198  0.1464  0.3022  0.0780
  391SOL    HW1 1172   0.800   2.102   0.176  3.1542 -1.7964  2.4717
  391SOL    HW2 1173   0.711   1.965   0.190 -1.2979 -0.9572 -1.3576
  392SOL     OW 1174   2.805   2.610   2.278  0.0305 -0.3495 -0.2190
  392SOL    HW1 1175   2.886   2.664   2.289 -2.9546 -1.9794 -0.9736
  392SOL    HW2 1176   2.770   2.574   2.367 -1.6482 -1.1120  1.0908
  393SOL     OW 1177   1.353   2.074   0.316 -0.1475  0.2290 -0.1337
  393SOL    HW1 1178   1.413   2.047   0.395  1.7665 -0.7139  1.1449
  393SOL    HW2 1179   1.393   2.034   0.227  2.0627  1.1234  0.0352
  394SOL     OW 1180   0.577   0.075   2.449  0.5399  0.1279  0.8396
  394SOL    HW1 1181   0.523   0.125   2.379 -0.0914  1.2790  2.4997
  394SOL    HW2 1182   0.673   0.100   2.444 -0.7574  1.4898  1.4795
  395SOL     OW 1183   0.380   1.181   1.318  0.2258  0.2048 -0.0008
  395SOL    HW1 1184   0.402   1.185   1.218  0.8012  0.9859 -0.9946
  395SOL    HW2 1185   0.372   1.270   1.370 -0.5603  0.7989  2.8932
  396SOL     OW 1186   2.134   1.413   2.998 -0.0708  0.1611  0.2163
  396SOL    HW1 1187   2.043   1.364   2.992  0.4966 -1.3564  0.6121
  396SOL    HW2 1188   2.186   1.400   2.917  0.8738 -0.9265  1.2346
  397SOL     OW 1189   0.407   0.557   2.949 -0.0917  0.3643  0.1901
  397SOL    HW1 1190   0.306   0.562   2.969 -0.5155  2.5706  2.5767
  397SOL    HW2 1191   0.456   0.579   3.034  0.5424  1.0676 -0.9971
  398SOL     OW 1192   1.109   2.463   0.380  0.0716  0.0707 -0.5551
  398SOL    HW1 1193   1.183   2.421   0.323 -0.9236  1.5161 -0.9618
  398SOL    HW2 1194   1.021   2.430   0.339 -0.6193 -1.6830 -1.0092
  399SOL     OW 1195   1.849   2.503   2.196  0.6724  0.3015  0.3805
  399SOL    HW1 1196   1.762   2.440   2.179 -2.7277 -2.6751 -2.1876
  399SOL    HW2 1197   1.931   2.469   2.144  1.5759  0.4983 -1.4761
  400SOL     OW 1198   2.467   1.610   1.501  0.2842  0.4413 -0.4585
  400SOL    HW1 1199   2.471   1.574   1.599 -1.0834 -0.4038  0.5068
  400SOL    HW2 1200   2.535   1.559   1.441 -1.4816  2.0134 -1.1074
  401SOL     OW 1201   1.616   1.037   0.994  0.4632 -0.2143  0.1501
  401SOL    HW1 1202   1.670   0.954   0.959  2.3408 -2.2641  0.5340
  401SOL    HW2 1203   1.553   1.007   1.070 -0.2361 -0.8490  1.3579
  402SOL     OW 1204   0.266   2.786   2.409 -0.6980  0.3338  0.1386
  402SOL    HW1 1205   0.358   2.839   2.407  5.1536  2.6062  0.7600
  402SOL    HW2 1206   0.283   2.687   2.413  0.2602 -1.5899 -1.2163
  403SOL     OW 1207   2.811   1.609   1.625 -0.5993  0.3104  0.1773
  403SOL    HW1 1208   2.762   1.528   1.588 -2.3113 -3.4542 -1.5898
  403SOL    HW2 1209   2.799   1.695   1.571  0.5721 -0.7887 -2.5119
  404SOL     OW 1210   2.282   1.939   1.803 -0.2228  0.2751 -0.4562
  404SOL    HW1 1211   2.191   1.930   1.844 -0.5207  1.0024  1.4311
  404SOL    HW2 1212   2.282   1.975   1.706  3.3499 -2.0132  0.9428
  405SOL     OW 1213   2.506   0.283   2.457 -0.2179 -0.5153  0.8359
  405SOL    HW1 1214   2.515   0.296   2.356 -0.3073  1.0759  1.6582
  405SOL    HW2 1215   2.598   0.291   2.496  0.0771 -0.5614  2.6842
  406SOL     OW 1216   0.776   1.349   2.445  1.0132  1.2169  0.1302
  406SOL    HW1 1217   0.796   1.272   2.513 -1.0150 -0.8582  1.3606
  406SOL    HW2 1218   0.713   1.416   2.485  0.6597 -0.7191 -0.5879
  407SOL     OW 1219   2.006   2.165   0.623  0.0303 -0.1445 -0.3523
  407SOL    HW1 1220   2.051   2.076   0.603 -0.9663 -0.2267  1.3470
  407SOL    HW2 1221   2.059   2.221   0.689  0.2630 -0.4669 -2.6461
  408SOL     OW 1222   0.121   0.052   0.856  0.4166  0.2895  0.3397
  408SOL    HW1 1223   0.087   0.070   0.954 -0.2047 -0.1442  1.1452
  408SOL    HW2 1224   0.098   3.040   0.827  0.2535 -4.1441  1.2589
  409SOL     OW 1225   2.115   1.478   0.772  0.0499  0.5191  0.2720
  409SOL    HW1 1226   2.098   1.463   0.867  2.1309 -0.4864 -1.9223
  409SOL    HW2 1227   2.055   1.417   0.718  1.3325 -0.5554 -1.7985
  410SOL     OW 1228   1.897   2.154   0.018 -0.1194 -0.0138 -0.0692
  410SOL    HW1 1229   1.998   2.150   0.044 -2.1264 -1.7063  0.6454
  410SOL    HW2 1230   1.848   2.208   0.086  0.6024  0.0534  0.8922
  411SOL     OW 1231   0.093   2.957   0.541  0.4018 -0.3691  0.4145
  411SOL    HW1 1232   0.051   2.913   0.626  0.0030 -0.9075 -2.0705
  411SOL    HW2 1233   0.018   3.000   0.485 -2.0121 -1.7266  0.1382
  412SOL     OW 1234   1.521   2.813   0.809  0.5806 -0.5356 -0.0112
  412SOL    HW1 1235   1.519   2.796   0.710 -2.4676  2.2389  0.3363
  412SOL    HW2 1236   1.593   2.873   0.847 -1.0577 -0.6812 -0.1461
  413SOL     OW 1237   1.838   0.144   2.693  0.3709  0.5185 -0.4916
  413SOL    HW1 1238   1.847   0.108   2.602 -0.5165  0.3275  1.8149
  413SOL    HW2 1239   1.854   0.074   2.764  2.0870  0.0044  3.0367
  414SOL     OW 1240   0.460   0.742   0.448  0.2616  0.3640 -0.0268
  414SOL    HW1 1241   0.469   0.753   0.347  1.5067 -2.6771  2.2174
  414SOL    HW2 1242   0.432   0.650   0.485  2.8684  1.2067  2.3670
  415SOL     OW 1243   0.152   1.009   1.322  0.0656 -0.3721  0.1670
  415SOL    HW1 1244   0.166   0.911   1.328  0.8419 -0.1915 -3.0729
  415SOL    HW2 1245   0.239   1.057   1.333 -1.5847 -1.2368 -0.2322
  416SOL     OW 1246   0.349   0.307   0.062  0.4524  0.4864  0.4380
  416SOL    HW1 1247   0.441   0.331   0.046 -3.9738  1.1182  1.4310
  416SOL    HW2 1248   0.286   0.390   0.045  0.4337  1.2483 -0.7076
  417SOL     OW 1249   2.161   0.189   0.713  0.2499 -0.4200 -0.5564
  417SOL    HW1 1250   2.190   0.274   0.756  0.4828  0.3525 -1.5695
  417SOL    HW2 1251   2.064   0.197   0.683 -0.5113 -2.1974 -0.6365
  418SOL     OW 1252   0.612   0.656   2.596 -0.1190 -0.2877  0.2421
  418SOL    HW1 1253   0.708   0.647   2.637  0.6362  1.2128 -1.1306
  418SOL    HW2 1254   0.620   0.667   2.496  1.7428  1.8312  2.8046
  419SOL     OW 1255   0.572   0.971   0.480 -0.0275  0.1381  0.4681
  419SOL    HW1 1256   0.518   0.879   0.480  2.6902 -0.1069 -0.5354
  419SOL    HW2 1257   0.582   1.012   0.570 -0.0487  1.6348 -3.4160
  420SOL     OW 1258   2.153   1.875   1.275 -0.0355  0.6934  0.1043
  420SOL    HW1 1259   2.145   1.969   1.235  0.8171 -1.1817  1.4801
  420SOL    HW2 1260   2.250   1.849   1.260 -1.1882 -1.5957 -0.6756
  421SOL     OW 1261   1.129   1.727   2.707  0.3042  0.2192  0.6579
  421SOL    HW1 1262   1.048   1.710   2.646  1.4521 -1.0328  1.5461
  421SOL    HW2 1263   1.187   1.641   2.715  0.0134 -2.6166  0.9579
  422SOL     OW 1264   2.621   0.517   0.012  0.3681 -0.1490 -0.4613
  422SOL    HW1 1265   2.602   0.548   0.107 -1.2645 -0.1634  0.6134
  422SOL    HW2 1266   2.724   0.503   3.082  1.6822 -0.6583  0.8618
  423SOL     OW 1267   1.846   1.752   0.429 -0.3257 -0.7078  0.6113
  423SOL    HW1 1268   1.889   1.838   0.392  0.5180  2.2250  2.3820
  423SOL    HW2 1269   1.752   1.734   0.390  0.2538  0.5045 -2.8109
  424SOL     OW 1270   0.543   1.524   1.860 -0.4591 -0.1456  0.0294
  424SOL    HW1 1271   0.554   1.451   1.790 -0.4996 -1.5428 -2.1085
  424SOL    HW2 1272   0.513   1.485   1.947  0.3416  0.9288 -1.2078
  425SOL     OW 1273   2.570   2.828   2.288  0.2870 -0.6947 -0.1373
  425SOL    HW1 1274   2.525   2.791   2.367 -0.2054  2.7190 -1.8899
  425SOL    HW2 1275   2.601   2.752   2.226  0.0144  1.1020 -0.1258
  426SOL     OW 1276   1.800   2.589   0.423  0.3165 -0.0268 -0.2229
  426SOL    HW1 1277   1.735   2.662   0.390  0.9418  3.0097  0.0433
  426SOL    HW2 1278   1.762   2.552   0.513  0.2547  0.2425  1.1043
  427SOL     OW 1279   0.371   0.482   2.701 -0.2156 -0.1798  0.1216
  427SOL    HW1 1280   0.433   0.526   2.635  1.4335  0.7510 -0.2851
  427SOL    HW2 1281   0.389   0.513   2.795 -0.3918  0.8680  0.3613
  428SOL     OW 1282   2.460   1.029   2.718  0.1733 -0.3235  0.4717
  428SOL    HW1 1283   2.560   1.045   2.688 -0.9062 -1.6740 -0.6329
  428SOL    HW2 1284   2.416   1.116   2.742  0.0371 -0.8238 -1.0426
  429SOL     OW 1285   0.002   0.282   0.427  0.2388  0.2241  0.4640
  429SOL    HW1 1286   3.001   0.265   0.375 -2.6696 -0.6923 -0.5859
  429SOL    HW2 1287   3.082   0.261   0.528 -0.6808 -1.2207 -0.6697
  430SOL     OW 1288   0.994   2.860   1.865  0.9322  0.5676  0.1974
  430SOL    HW1 1289   0.956   2.774   1.902  0.3594 -1.3145  0.8114
  430SOL    HW2 1290   0.923   2.915   1.811 -0.9903 -0.2125  0.4168
  431SOL     OW 1291   0.030   2.000   1.262 -0.5176 -0.3761  0.0064
  431SOL    HW1 1292   3.056   1.922   1.247  0.8935 -0.7261 -0.2230
  431SOL    HW2 1293   3.071   2.085   1.226 -0.6043  0.9414 -2.4972
  432SOL     OW 1294   2.397   2.785   2.012 -0.5321 -0.1740  0.1532
  432SOL    HW1 1295   2.488   2.739   2.022  0.6242  1.8795 -0.9255
  432SOL    HW2 1296   2.381   2.849   2.087  3.4680 -2.5852  2.3118
  433SOL     OW 1297   1.155   2.034   0.083 -0.8830 -0.0328  0.1069
  433SOL    HW1 1298   1.258   2.031   0.101  1.5660 -1.4418 -0.7566
  433SOL    HW2 1299   1.102   1.949   0.104 -0.9793 -0.3929 -0.7351
  434SOL     OW 1300   0.106   2.151   2.605  0.1123  0.1435  0.2065
  434SOL    HW1 1301   0.116   2.147   2.506  0.2983 -1.1652  1.4525
  434SOL    HW2 1302   0.186   2.191   2.653  1.9611  3.9818 -0.0780
  435SOL     OW 1303   3.054   1.043   0.728 -0.2638 -0.0961 -0.3631
  435SOL    HW1 1304   2.958   1.011   0.715  2.0886 -0.7758  1.5055
  435SOL    HW2 1305   3.085   1.103   0.651  1.2444  1.3801  2.0958
  436SOL     OW 1306   0.495   2.782   1.931 -0.2670  0.1723  0.1185
  436SOL    HW1 1307   0.521   2.800   2.031  3.4742  1.4772  0.4805
  436SOL    HW2 1308   0.393   2.801   1.922  0.5673 -1.8799  1.7731
  437SOL     OW 1309   1.208   1.925   1.203 -0.0582 -0.0422  0.2507
  437SOL    HW1 1310   1.278   2.000   1.193  2.1580  0.4908  0.6349
  437SOL    HW2 1311   1.123   1.961   1.241  0.9799  0.3082  1.3451
  438SOL     OW 1312   0.192   2.447   0.673 -0.3371  0.1469 -0.1858
  438SOL    HW1 1313   0.231   2.387   0.600  2.0682  4.0539  0.1460
  438SOL    HW2 1314   0.146   2.389   0.739  0.9011  2.7617 -0.2142
  439SOL     OW 1315   0.424   3.021   1.428 -0.2305  0.6872  0.1522
  439SOL    HW1 1316   0.390   0.013   1.371 -2.0879 -1.9777 -2.1513
  439SOL    HW2 1317   0.390   2.929   1.397 -0.6436 -2.2462  2.2740
  440SOL     OW 1318   2.321   2.598   2.411  0.1535 -0.5312 -0.9496
  440SOL    HW1 1319   2.356   2.531   2.346 -2.0435  1.3684  3.3107
  440SOL    HW2 1320   2.264   2.556   2.479 -0.8863 -1.6128 -0.2424
  441SOL     OW 1321   0.043   0.439   1.811  0.7194 -0.0477  0.3437
  441SOL    HW1 1322   3.039   0.396   1.824  2.6710  0.6833  0.2551
  441SOL    HW2 1323   0.110   0.402   1.877  0.8397  2.4290 -2.8057
  442SOL     OW 1324   1.795   2.345   0.184  0.7636  0.6397  0.0816
  442SOL    HW1 1325   1.867   2.375   0.245 -1.3670  0.0005 -2.3357
  442SOL    HW2 1326   1.727   2.420   0.166  0.4392  0.1269  3.0970
  443SOL     OW 1327   0.081   0.805   3.000 -0.2308  0.3189  0.2288
  443SOL    HW1 1328   0.149   0.839   3.069  1.5616  1.6238 -1.2590
  443SOL    HW2 1329   0.122   0.760   2.922  0.5147  1.6476 -0.9496
  444SOL     OW 1330   1.703   1.216   2.260 -0.0425 -0.2955  0.5999
  444SOL    HW1 1331   1.641   1.154   2.211 -0.2726  0.8832 -1.1580
  444SOL    HW2 1332   1.706   1.313   2.222  1.0217  5.0965 -0.4707
  445SOL     OW 1333   0.267   2.443   1.067  0.2726 -0.2963 -0.2446
  445SOL    HW1 1334   0.162   2.447   1.088 -2.3134  0.2731  0.2508
  445SOL    HW2 1335   0.282   2.527   1.016  0.6034 -1.3867 -1.2910
  446SOL     OW 1336   2.714   1.669   1.211 -0.3045 -0.1600 -0.1565
  446SOL    HW1 1337   2.675   1.587   1.256 -1.2859 -0.6027  2.5582
  446SOL    HW2 1338   2.771   1.641   1.134  0.9825  0.8883  1.5196
  447SOL     OW 1339   0.252   1.065   0.509 -0.1184  0.2360  0.3379
  447SOL    HW1 1340   0.324   1.105   0.445 -0.6855  1.3072  0.9743
  447SOL    HW2 1341   0.302   1.016   0.582  0.5588  0.0071 -0.2585
  448SOL     OW 1342   1.093   2.083   2.011  0.0121  0.3534 -0.3497
  448SOL    HW1 1343   1.144   2.148   1.951 -1.0225  0.2937  0.5300
  448SOL    HW2 1344   1.138   2.071   2.102  0.2939  0.1473 -2.1631
  449SOL     OW 1345   1.137   1.493   0.236  0.1066 -0.1633 -0.0995
  449SOL    HW1 1346   1.115   1.461   0.330 -0.3029  1.2725 -0.1875
  449SOL    HW2 1347   1.079   1.458   0.161 -1.3722  0.0791 -1.2397
  450SOL     OW 1348   2.790   2.797   1.893  0.4329 -0.8647  0.0393
  450SOL    HW1 1349   2.869   2.789   1.953 -0.3813 -1.4727  1.2437
  450SOL    HW2 1350   2.733   2.879   1.909 -1.2098 -1.8191  0.2921
  451SOL     OW 1351   2.420   0.670   2.603  0.3066  0.1651  0.2457
  451SOL    HW1 1352   2.375   0.747   2.644  0.4882 -0.7669 -1.0394
  451SOL    HW2 1353   2.523   0.681   2.612  0.6405  0.1594  1.8431
  452SOL     OW 1354   1.813   0.497   0.708  0.4232  0.3908 -0.2290
  452SOL    HW1 1355   1.837   0.542   0.620  2.3329  0.7709 -2.1891
  452SOL    HW2 1356   1.890   0.500   0.772 -1.5375  2.1271 -0.1014
  453SOL     OW 1357   1.913   0.913   1.382  0.0673 -0.4744  0.0386
  453SOL    HW1 1358   1.829   0.858   1.387 -0.9398  0.5600  1.5561
  453SOL    HW2 1359   1.889   1.013   1.362 -1.9861  2.2583  1.6161
  454SOL     OW 1360   2.868   1.185   0.390  0.6560 -0.3625  0.5329
  454SOL    HW1 1361   2.823   1.193   0.480 -1.6192  0.5776 -1.0482
  454SOL    HW2 1362   2.844   1.260   0.323 -0.2142  1.3051 -0.6549
  455SOL     OW 1363   2.457   2.903   1.376 -0.7213 -0.6485 -0.4507
  455SOL    HW1 1364   2.522   2.915   1.296  1.1037  0.6009 -2.4181
  455SOL    HW2 1365   2.366   2.885   1.342  2.4996 -1.0035  0.1423
  456SOL     OW 1366   0.131   2.869   1.313 -0.4255 -0.0869 -0.2890
  456SOL    HW1 1367   0.215   2.829   1.353 -0.3937  2.3439 -1.1527
  456SOL    HW2 1368   0.053   2.800   1.306 -1.8396 -1.4277  1.1250
  457SOL     OW 1369   1.331   3.006   0.554 -0.6013  0.0591  0.4040
  457SOL    HW1 1370   1.295   3.082   0.497  0.4120 -1.6117 -1.6046
  457SOL    HW2 1371   1.304   3.022   0.649  0.0965 -0.1782 -1.1158
  458SOL     OW 1372   2.587   2.878   0.964  0.2026  0.0292 -0.2672
  458SOL    HW1 1373   2.638   2.793   0.979  0.2770 -1.7004  0.2543
  458SOL    HW2 1374   2.578   2.929   1.053  0.9751 -0.8632  3.1930
  459SOL     OW 1375   2.501   0.290   2.970  0.3331  0.0523  0.0121
  459SOL    HW1 1376   2.539   0.357   3.033 -0.4723 -0.2206 -0.7731
  459SOL    HW2 1377   2.562   0.279   2.886  0.8251  0.1708 -1.5554
  460SOL     OW 1378   2.414   2.538   3.010 -0.0461  0.2324 -0.0300
  460SOL    HW1 1379   2.458   2.609   2.954 -1.1691  0.9125 -1.3815
  460SOL    HW2 1380   2.480   2.515   0.000  0.3020  2.3101 -1.2123
  461SOL     OW 1381   0.547   1.716   0.414 -0.2486 -0.4759  0.0482
  461SOL    HW1 1382   0.618   1.763   0.470 -1.0533  1.9147  2.5591
  461SOL    HW2 1383   0.558   1.614   0.425  0.5988 -0.3691 -1.3403
  462SOL     OW 1384   2.166   2.015   0.874  0.3787  1.1423  0.4441
  462SOL    HW1 1385   2.163   1.984   0.778  1.0596  0.9394  0.6014
  462SOL    HW2 1386   2.169   2.116   0.883 -3.6361 -1.8549 -0.9403
  463SOL     OW 1387   2.536   1.126   0.807 -0.0254 -0.3134 -0.2236
  463SOL    HW1 1388   2.582   1.065   0.876 -1.7008  1.0396  1.6222
  463SOL    HW2 1389   2.509   1.071   0.724 -0.9440 -1.9501 -0.2570
  464SOL     OW 1390   1.200   3.021   0.804 -0.5448  0.3458  0.2382
  464SOL    HW1 1391   1.097   3.023   0.813  1.5765 -1.6208 -1.3706
  464SOL    HW2 1392   1.244   2.936   0.847  1.7709 -0.3926 -0.7833
  465SOL     OW 1393   2.234   1.400   0.396  0.3834 -0.8777  0.4314
  465SOL    HW1 1394   2.169   1.477   0.372 -1.2133 -0.8001  0.3902
  465SOL    HW2 1395   2.308   1.377   0.329 -1.8060  0.7228  0.9542
  466SOL     OW 1396   2.130   0.223   2.631 -0.5458 -0.4885  0.4324
  466SOL    HW1 1397   2.170   0.316   2.611 -1.2279  2.3211 -0.4268
  466SOL    HW2 1398   2.036   0.237   2.671  2.0644  0.7365  0.4868
  467SOL     OW 1399   1.065   1.054   1.534  0.0089  0.3233 -0.1683
  467SOL    HW1 1400   1.044   0.965   1.579 -1.7287 -0.3445 -0.3840
  467SOL    HW2 1401   0.987   1.118   1.553 -1.6331  0.2079  2.1343
  468SOL     OW 1402   0.464   1.165   2.545 -0.0745  0.1290 -0.3465
  468SOL    HW1 1403   0.486   1.081   2.493 -0.4793  2.6869 -4.3244
  468SOL    HW2 1404   0.536   1.203   2.602 -1.5544  2.0148 -1.8633
  469SOL     OW 1405   0.567   2.169   0.495  0.3022 -0.1078  0.1812
  469SOL    HW1 1406   0.550   2.153   0.397 -0.4259 -2.0737  1.0150
  469SOL    HW2 1407   0.627   2.252   0.507  0.9854 -0.5416 -1.4765
  470SOL     OW 1408   2.742   1.310   2.986  0.2035 -0.0931  0.1133
  470SOL    HW1 1409   2.810   1.381   2.959 -1.2693  0.2412 -1.0177
  470SOL    HW2 1410   2.767   1.221   2.939  0.1148  0.1420  1.8007
  471SOL     OW 1411   2.648   1.098   2.129 -0.0506 -0.1056  0.9295
  471SOL    HW1 1412   2.645   1.195   2.146  1.7365 -2.4668 -0.1957
  471SOL    HW2 1413   2.608   1.081   2.037  2.1261 -3.0721  0.9328
  472SOL     OW 1414   0.487   2.902   0.682 -0.1463  0.1525  0.4935
  472SOL    HW1 1415   0.559   2.856   0.631  0.2594 -0.7132  0.8843
  472SOL    HW2 1416   0.398   2.850   0.678 -0.5586 -1.8480  3.2828
  473SOL     OW 1417   0.614   3.067   0.107  0.5895  0.8355  0.0871
  473SOL    HW1 1418   0.563   3.030   0.191 -1.2274  0.6941  2.4310
  473SOL    HW2 1419   0.556   3.045   0.024  0.5216 -0.5939 -1.2739
  474SOL     OW 1420   1.782   0.208   1.986  0.0231  0.1481  0.0464
  474SOL    HW1 1421   1.769   0.263   1.900  0.4597  2.4835 -1.3077
  474SOL    HW2 1422   1.696   0.206   2.045 -0.8622  0.0815  5.4898
  475SOL     OW 1423   1.244   2.279   0.207 -0.4629  0.0908 -0.7156
  475SOL    HW1 1424   1.174   2.215   0.169 -0.1697 -2.6593  0.2096
  475SOL    HW2 1425   1.313   2.223   0.262 -2.5856  0.4010  0.2557
  476SOL     OW 1426   0.597   1.111   0.728  0.4824 -0.0845  0.3249
  476SOL    HW1 1427   0.589   1.037   0.798 -1.1483  0.8959  1.3727
  476SOL    HW2 1428   0.530   1.184   0.753  1.0002 -0.9107 -1.7262
  477SOL     OW 1429   1.627   2.466   1.410 -0.2411 -0.0133 -0.0827
  477SOL    HW1 1430   1.581   2.396   1.473 -2.1124 -2.5056  1.9051
  477SOL    HW2 1431   1.589   2.473   1.317 -0.0716  0.0630  1.9646
  478SOL     OW 1432   0.564   1.702   2.352 -0.0282  0.3109 -0.4937
  478SOL    HW1 1433   0.545   1.657   2.263  1.9631  2.2932 -0.4155
  478SOL    HW2 1434   0.603   1.624   2.408  1.2359 -2.7219 -1.5674
  479SOL     OW 1435   2.944   2.947   1.139 -0.2953 -0.6846 -0.3275
  479SOL    HW1 1436   3.016   3.019   1.121  1.8138  0.5828 -3.7026
  479SOL    HW2 1437   2.932   2.944   1.241  0.9603  0.6060 -0.0859
  480SOL     OW 1438   2.976   2.993   0.346  0.3476  0.5793  0.2846
  480SOL    HW1 1439   2.883   2.952   0.378 -2.6397 -1.3835  1.5561
  480SOL    HW2 1440   3.003   2.949   0.258  0.5596 -2.7844 -0.0532
  481SOL     OW 1441   2.702   2.658   0.986 -0.0608  0.2136 -0.1563
  481SOL    HW1 1442   2.658   2.632   0.898  0.2921 -1.1980  0.0203
  481SOL    HW2 1443   2.667   2.609   1.071  2.5327 -0.0122  0.9872
  482SOL     OW 1444   1.225   2.342   2.452  0.7613 -0.6969 -0.1627
  482SOL    HW1 1445   1.175   2.343   2.360 -0.4478 -3.6730 -2.5451
  482SOL    HW2 1446   1.231   2.251   2.492 -0.7431  1.8983 -1.5966
  483SOL     OW 1447   0.530   1.895   2.556  0.0590 -0.2469  0.4913
  483SOL    HW1 1448   0.573   1.830   2.489  1.6681  0.5290  1.9587
  483SOL    HW2 1449   0.457   1.951   2.510 -0.9832 -1.0249 -0.2386
  484SOL     OW 1450   0.988   1.086   2.159  0.1093 -0.4117  0.3248
  484SOL    HW1 1451   1.009   1.121   2.065 -1.4242  0.9581 -1.1321
  484SOL    HW2 1452   1.053   1.133   2.228  0.3275  1.2973 -3.1659
  485SOL     OW 1453   2.672   0.376   0.295  1.0970 -0.2866 -0.7225
  485SOL    HW1 1454   2.581   0.325   0.314  1.8117  1.2314 -0.4808
  485SOL    HW2 1455   2.748   0.311   0.296  1.4307  4.2508 -0.5960
  486SOL     OW 1456   1.661   3.044   0.818 -0.4835  0.0549 -0.2724
  486SOL    HW1 1457   1.748   3.078   0.853 -1.7135  0.6196  1.1187
  486SOL    HW2 1458   1.666   3.050   0.718  0.6042 -0.2564  0.3084
  487SOL     OW 1459   0.565   2.245   0.891  0.2732 -0.5417 -0.0793
  487SOL    HW1 1460   0.668   2.256   0.897  0.3174  1.5261  0.4107
  487SOL    HW2 1461   0.538   2.311   0.822  2.2217 -1.2355  4.7849
  488SOL     OW 1462   2.452   1.443   0.169 -0.2072  0.6120  0.1188
  488SOL    HW1 1463   2.519   1.505   0.205 -3.4539  1.4639  1.1396
  488SOL    HW2 1464   2.437   1.463   0.074  0.1453  1.4399  2.6632
  489SOL     OW 1465   1.396   2.930   1.144 -0.4628  0.4756 -0.4552
  489SOL    HW1 1466   1.449   3.009   1.116  0.7861 -2.2140 -2.2270
  489SOL    HW2 1467   1.464   2.860   1.179  0.1996  2.3836  0.6383
  490SOL     OW 1468   1.180   1.042   0.101  0.4542  0.1347  0.4870
  490SOL    HW1 1469   1.266   1.073   0.148  0.6418 -1.0721 -1.8387
  490SOL    HW2 1470   1.114   1.004   0.174 -0.5957 -1.8671  0.1256
  491SOL     OW 1471   0.733   2.379   0.543 -0.0856  0.2809  0.0658
  491SOL    HW1 1472   0.688   2.437   0.610  0.3157  0.3976  0.1033
  491SOL    HW2 1473   0.824   2.351   0.572 -2.6355  1.8552 -0.0819
  492SOL     OW 1474   1.297   1.369   2.039 -0.6415 -0.3741  0.1767
  492SOL    HW1 1475   1.336   1.312   2.109 -1.5915  3.1999 -0.6704
  492SOL    HW2 1476   1.373   1.398   1.978  0.0730  1.8126  1.8152
  493SOL     OW 1477   3.046   2.562   0.700 -0.0556 -0.6436  0.1159
  493SOL    HW1 1478   0.062   2.536   0.694  4.2993  1.5716  1.3778
  493SOL    HW2 1479   3.034   2.663   0.718  0.3312  0.0934  2.8691
  494SOL     OW 1480   2.703   1.945   2.927 -0.2538  0.2300 -0.1890
  494SOL    HW1 1481   2.719   1.844   2.918  0.0868  0.5379  1.6824
  494SOL    HW2 1482   2.778   1.990   2.981  2.0404  0.8415  1.8648
  495SOL     OW 1483   2.758   1.692   2.866  0.0776  0.3411 -0.2868
  495SOL    HW1 1484   2.705   1.706   2.780 -0.7048  0.7791 -2.1191
  495SOL    HW2 1485   2.829   1.618   2.852  0.7555 -1.2674 -1.8160
  496SOL     OW 1486   2.531   0.075   1.485 -0.0561  0.0605  0.5245
  496SOL    HW1 1487   2.467   0.155   1.504  0.7696  0.1410 -0.3185
  496SOL    HW2 1488   2.479   3.078   1.447  1.4335  1.0560 -0.1090
  497SOL     OW 1489   2.587   1.040   0.382 -0.1102  0.2320  0.2144
  497SOL    HW1 1490   2.547   1.081   0.471 -1.5412 -1.1832  2.0970
  497SOL    HW2 1491   2.671   0.983   0.393  1.4364  0.4197 -1.9716
  498SOL     OW 1492   0.097   2.137   2.325 -0.6105  0.7032 -0.2774
  498SOL    HW1 1493   0.084   2.219   2.273 -1.6855 -4.1906  0.6384
  498SOL    HW2 1494   0.049   2.055   2.287 -0.0074  1.2698  1.5028
  499SOL     OW 1495   0.942   1.890   0.436 -0.3012  0.3794  0.1534
  499SOL    HW1 1496   0.877   1.862   0.511  1.2569 -0.7502 -0.2481
  499SOL    HW2 1497   0.912   1.969   0.384  0.7529  0.0551 -0.8986
  500SOL     OW 1498   1.135   3.029   2.790  0.3450  0.2322 -0.0500
  500SOL    HW1 1499   1.105   3.083   2.869  0.0256 -1.8377  2.4065
  500SOL    HW2 1500   1.096   2.932   2.807 -0.7301 -1.9480 -0.5940
  501SOL     OW 1501   1.441   0.239   1.260 -0.3297 -0.2374  0.0582
  501SOL    HW1 1502   1.494   0.181   1.198  0.2070  3.3907 -2.5237
  501SOL    HW2 1503   1.346   0.193   1.271 -1.0795 -0.0224  1.8432
  502SOL     OW 1504   3.031   0.286   2.230 -0.2861  0.1864  0.2795
  502SOL    HW1 1505   3.055   0.331   2.317  0.0344  1.5594  1.9930
  502SOL    HW2 1506   0.016   0.217   2.202 -1.1130  0.7482 -2.4409
  503SOL     OW 1507   2.327   2.059   2.421 -0.3969 -0.3362 -0.1006
  503SOL    HW1 1508   2.315   2.125   2.345  0.2462  1.4126 -1.0867
  503SOL    HW2 1509   2.237   2.011   2.431 -1.9522  1.0156  0.7670
  504SOL     OW 1510   1.332   0.340   1.776 -0.0332  0.1021 -0.3219
  504SOL    HW1 1511   1.356   0.355   1.676 -0.9447 -0.8806 -0.2250
  504SOL    HW2 1512   1.387   0.265   1.821 -2.4924 -1.2394 -0.3847
  505SOL     OW 1513   3.026   0.851   1.523 -0.8193  0.1570 -0.7687
  505SOL    HW1 1514   2.934   0.891   1.523 -0.8679 -0.6669  0.1735
  505SOL    HW2 1515   0.013   0.909   1.566  5.2096 -0.7808  1.4211
  506SOL     OW 1516   0.309   1.070   2.201  0.6713 -0.1827 -0.6273
  506SOL    HW1 1517   0.384   1.062   2.133 -0.0903  0.7792 -1.7479
  506SOL    HW2 1518   0.334   1.026   2.292  1.7965 -1.5111  3.2836
  507SOL     OW 1519   0.298   2.526   2.479  0.0436  0.6506 -0.3907
  507SOL    HW1 1520   0.369   2.554   2.553  2.2025  0.4494  2.5225
  507SOL    HW2 1521   0.212   2.485   2.525 -1.9880 -1.7203  1.6311
  508SOL     OW 1522   1.658   0.797   1.258 -0.4699  0.5954  0.3239
  508SOL    HW1 1523   1.618   0.708   1.290 -2.9284 -2.8152  0.6013
  508SOL    HW2 1524   1.734   0.775   1.195 -0.4705 -0.7412 -0.7265
  509SOL     OW 1525   0.979   1.898   1.438 -0.4041 -0.0347  0.2894
  509SOL    HW1 1526   1.035   1.895   1.523  0.4066  1.0476 -1.2159
  509SOL    HW2 1527   1.022   1.848   1.359  0.8264 -0.4366  0.5923
  510SOL     OW 1528   2.371   0.947   2.292  0.0709 -0.1768 -0.5469
  510SOL    HW1 1529   2.318   0.866   2.332  0.9921 -0.2593  0.5713
  510SOL    HW2 1530   2.475   0.932   2.307  5.4396  1.5191 -0.8946
  511SOL     OW 1531   0.614   1.493   0.913 -0.0850  0.0734  0.2816
  511SOL    HW1 1532   0.559   1.411   0.902 -1.2819  1.3298  2.0097
  511SOL    HW2 1533   0.571   1.553   0.983 -1.6620 -0.1235 -1.7547
  512SOL     OW 1534   2.396   2.101   0.423  0.4762 -0.4352  0.0628
  512SOL    HW1 1535   2.297   2.078   0.405 -0.4189  0.8471  0.8766
  512SOL    HW2 1536   2.433   2.137   0.338 -1.8983  2.3043  1.7919
  513SOL     OW 1537   2.931   1.820   2.566  0.0683  0.1302  0.3671
  513SOL    HW1 1538   2.968   1.738   2.510  0.0377 -0.1169 -1.0680
  513SOL    HW2 1539   2.931   1.911   2.523  2.0306  0.0755  1.2932
  514SOL     OW 1540   0.339   2.237   2.717  0.2034 -0.3593 -0.4422
  514SOL    HW1 1541   0.362   2.138   2.743  1.3077 -2.4576  1.5053
  514SOL    HW2 1542   0.410   2.299   2.748 -0.7966  0.2584 -3.7382
  515SOL     OW 1543   1.931   1.511   1.934  0.0041  0.1283  0.3432
  515SOL    HW1 1544   1.914   1.521   1.833 -0.5050  0.8926 -3.3951
  515SOL    HW2 1545   1.916   1.604   1.972 -3.1266 -0.0067  0.1969
  516SOL     OW 1546   2.267   2.146   2.902  0.0571 -0.4709  0.0391
  516SOL    HW1 1547   2.226   2.170   2.988  1.4524 -2.0280 -3.1481
  516SOL    HW2 1548   2.253   2.227   2.843 -0.9996  2.9560 -1.6675
  517SOL     OW 1549   1.441   1.317   0.037  0.4513 -0.2285  0.1786
  517SOL    HW1 1550   1.478   1.287   3.033  2.8200 -0.6458 -1.0830
  517SOL    HW2 1551   1.465   1.247   0.111  0.1968 -1.5430  0.0575
  518SOL     OW 1552   2.674   3.066   2.232  0.0004  0.6461 -0.0441
  518SOL    HW1 1553   2.680   3.069   2.128  0.5415 -4.0842  0.5989
  518SOL    HW2 1554   2.658   2.969   2.260  0.0698  0.0375 -1.2709
  519SOL     OW 1555   1.648   2.120   1.949  0.1887 -0.0156 -0.1849
  519SOL    HW1 1556   1.573   2.160   2.010  2.7681  0.5339  0.8496
  519SOL    HW2 1557   1.729   2.098   2.005  1.0935  2.8776 -0.4736
  520SOL     OW 1558   2.826   0.003   2.694 -0.4809 -0.1074  0.0571
  520SOL    HW1 1559   2.890   3.079   2.776  0.0941  0.4971  0.2808
  520SOL    HW2 1560   2.874   0.042   2.614  1.7075  1.7980 -0.9560
  521SOL     OW 1561   0.566   1.388   2.109 -0.0905  0.4070  0.0917
  521SOL    HW1 1562   0.501   1.424   2.180 -0.6772  1.1698 -1.5078
  521SOL    HW2 1563   0.624   1.310   2.138 -0.0366 -0.0799  1.6584
  522SOL     OW 1564   1.140   0.078   1.506  0.6855 -0.1110 -0.7311
  522SOL    HW1 1565   1.190   0.067   1.595  2.3643 -1.7606  0.6654
  522SOL    HW2 1566   1.043   0.046   1.513  0.0001  1.7829  1.7239
  523SOL     OW 1567   0.338   2.661   0.890 -0.3445  0.0252 -0.4465
  523SOL    HW1 1568   0.440   2.666   0.884 -1.8584  1.8775  1.4687
  523SOL    HW2 1569   0.288   2.691   0.807  1.1385 -0.6929  1.3316
  524SOL     OW 1570   1.733   2.431   0.634  0.2362  0.1158 -0.1664
  524SOL    HW1 1571   1.748   2.334   0.614  0.2347  0.9328  1.9780
  524SOL    HW2 1572   1.665   2.446   0.710 -2.1798 -2.1362 -0.3688
  525SOL     OW 1573   2.401   0.643   1.094  0.0242  0.0449  0.5852
  525SOL    HW1 1574   2.367   0.611   1.187 -1.7485  0.6340 -0.0981
  525SOL    HW2 1575   2.342   0.724   1.064 -2.5518 -1.6479 -0.3065
  526SOL     OW 1576   1.045   2.604   0.597 -0.5615  0.3087 -0.0041
  526SOL    HW1 1577   1.059   2.567   0.503  1.5719  2.8655  1.1670
  526SOL    HW2 1578   1.023   2.706   0.591  0.7098 -0.4351 -1.9348
  527SOL     OW 1579   2.138   1.925   0.593  0.1648 -0.8947  0.3088
  527SOL    HW1 1580   2.154   1.961   0.499  0.3015  0.9125 -1.3421
  527SOL    HW2 1581   2.146   1.822   0.593 -0.4104  0.7756  0.6897
  528SOL     OW 1582   2.288   0.484   0.496  0.4820 -0.6816 -0.3337
  528SOL    HW1 1583   2.187   0.481   0.471 -3.3476  0.4416 -1.7593
  528SOL    HW2 1584   2.343   0.408   0.453 -1.4473  1.4339  0.6955
  529SOL     OW 1585   1.133   1.215   2.344  0.2075  0.1469 -0.0621
  529SOL    HW1 1586   1.110   1.311   2.360  0.5205  0.3971 -3.0659
  529SOL    HW2 1587   1.227   1.195   2.378 -0.8358  0.5704 -1.1301
  530SOL     OW 1588   2.564   0.751   2.975  0.6067 -0.2281 -0.0787
  530SOL    HW1 1589   2.576   0.658   3.012  0.2820 -0.1054 -1.0456
  530SOL    HW2 1590   2.468   0.785   2.984 -3.4121  1.0161  1.2362
  531SOL     OW 1591   1.411   1.102   0.219 -0.6287  0.2176 -0.0400
  531SOL    HW1 1592   1.458   1.014   0.205 -0.5773 -0.6550  1.4860
  531SOL    HW2 1593   1.430   1.141   0.312 -0.0029  0.1589 -0.3633
  532SOL     OW 1594   2.063   2.911   0.807 -0.6318  0.2192  0.0580
  532SOL    HW1 1595   2.033   3.005   0.827  1.9320  3.1824 -0.0859
  532SOL    HW2 1596   2.149   2.893   0.858  0.4890  1.5098 -0.5754
  533SOL     OW 1597   1.123   0.853   1.684 -0.3356 -0.2711 -0.0508
  533SOL    HW1 1598   1.180   0.936   1.682  0.6569  0.7596 -0.4286
  533SOL    HW2 1599   1.175   0.775   1.727 -0.4730  0.5760 -0.7180
  534SOL     OW 1600   1.824   2.953   2.834  0.1953  0.7825  0.8278
  534SOL    HW1 1601   1.856   2.868   2.781  1.2910  0.2107 -0.6393
  534SOL    HW2 1602   1.872   2.964   2.922 -0.1973 -1.0266  0.3861
  535SOL     OW 1603   0.450   3.033   0.348 -0.2231 -0.4145  0.1222
  535SOL    HW1 1604   0.399   0.034   0.363 -3.6227  2.5518 -1.8135
  535SOL    HW2 1605   0.382   2.959   0.331  0.3836  1.1334  2.1984
  536SOL     OW 1606   0.820   2.508   1.071 -0.0963  0.3566 -0.5483
  536SOL    HW1 1607   0.798   2.550   1.164  2.2922  1.0116 -1.0065
  536SOL    HW2 1608   0.899   2.562   1.034  0.5645 -1.5434  0.7672
  537SOL     OW 1609   1.841   0.337   1.539  0.2253  0.1210  0.3937
  537SOL    HW1 1610   1.837   0.400   1.459 -1.9814  1.7745 -0.8835
  537SOL    HW2 1611   1.821   0.238   1.514 -2.1765 -0.4786 -0.6893
  538SOL     OW 1612   2.828   2.852   3.066 -0.1999 -0.0484  0.1524
  538SOL    HW1 1613   2.831   2.772   3.007 -0.3619  0.6602  1.2713
  538SOL    HW2 1614   2.748   2.852   0.045  1.2636  0.0733  0.9926
  539SOL     OW 1615   2.654   2.051   2.000  0.4481 -0.1952 -0.2545
  539SOL    HW1 1616   2.617   1.984   1.927 -0.8080 -1.8934 -1.4912
  539SOL    HW2 1617   2.737   2.092   1.963 -0.8903  2.5551 -0.0924
  540SOL     OW 1618   2.834   2.773   1.599 -0.7591 -0.4508  0.0419
  540SOL    HW1 1619   2.931   2.742   1.593 -2.5770  0.2273  1.0447
  540SOL    HW2 1620   2.820   2.797   1.697  1.8433 -0.7035  1.0046
  541SOL     OW 1621   2.506   0.010   1.768  1.0208  0.2586  0.1242
  541SOL    HW1 1622   2.521   0.044   1.671 -1.9529  0.0298 -0.7490
  541SOL    HW2 1623   2.426   3.030   1.771  0.9857  3.0723  1.7380
  542SOL     OW 1624   2.950   0.524   2.130  0.1104  0.3429 -0.3053
  542SOL    HW1 1625   2.989   0.442   2.182  0.9651 -2.1475  1.5243
  542SOL    HW2 1626   2.862   0.555   2.171  0.6781  0.3281  0.5012
  543SOL     OW 1627   0.791   0.765   0.568  0.8302  0.3120 -0.2700
  543SOL    HW1 1628   0.846   0.724   0.495 -1.7169  0.8684  0.3211
  543SOL    HW2 1629   0.706   0.806   0.529  0.9565 -0.5278  2.9143
  544SOL     OW 1630   2.576   2.247   0.910  0.2311 -0.1035  0.2284
  544SOL    HW1 1631   2.575   2.202   0.820 -0.4768 -2.0444 -2.8955
  544SOL    HW2 1632   2.668   2.268   0.945 -1.5214 -0.7608  0.7212
  545SOL     OW 1633   1.107   1.774   0.230 -0.2405  0.0221  0.1665
  545SOL    HW1 1634   1.055   1.819   0.302 -0.0789  0.4240 -1.9621
  545SOL    HW2 1635   1.086   1.675   0.227 -0.2560 -1.1452 -0.5077
  546SOL     OW 1636   2.417   0.587   1.997 -0.1065 -0.0211  0.1440
  546SOL    HW1 1637   2.359   0.524   2.055  0.1511 -1.6252 -0.0719
  546SOL    HW2 1638   2.476   0.525   1.940  0.9695 -1.6191 -1.7465
  547SOL     OW 1639   0.350   0.210   2.330 -0.0456 -0.6269  0.0208
  547SOL    HW1 1640   0.338   0.222   2.428 -0.7844  0.9703 -0.0920
  547SOL    HW2 1641   0.374   0.294   2.281  0.0601 -2.5956 -1.1513
  548SOL     OW 1642   1.927   2.125   2.341 -0.0194  0.1384 -0.0205
  548SOL    HW1 1643   1.990   2.198   2.351 -3.2023 -1.8972 -3.3737
  548SOL    HW2 1644   1.950   2.047   2.399 -2.6142  2.1945  2.5815
  549SOL     OW 1645   2.521   0.509   0.884 -0.8958  0.7160 -0.0865
  549SOL    HW1 1646   2.522   0.592   0.822  1.2848  3.1817  1.6859
  549SOL    HW2 1647   2.498   0.547   0.976 -0.5634  1.5023  0.9387
  550SOL     OW 1648   1.439   1.432   0.571  0.7676 -0.1033  0.3048
  550SOL    HW1 1649   1.480   1.467   0.481  0.4765  0.1214  0.3346
  550SOL    HW2 1650   1.505   1.465   0.640 -0.8678 -1.0513 -2.3812
  551SOL     OW 1651   1.125   0.350   1.168 -0.2216  0.4654  0.4109
  551SOL    HW1 1652   1.121   0.361   1.068 -0.7725 -0.9186  1.2890
  551SOL    HW2 1653   1.173   0.263   1.181  0.7064 -2.1956 -1.1514
  552SOL     OW 1654   2.114   2.445   2.106  0.0627  0.7270  0.1977
  552SOL    HW1 1655   2.135   2.540   2.080  1.9370 -0.9046 -2.0876
  552SOL    HW2 1656   2.196   2.404   2.152  1.5345 -0.8533  1.4930
  553SOL     OW 1657   0.105   0.016   0.147  0.5384  0.4035  0.5594
  553SOL    HW1 1658   0.149   0.011   0.236 -0.4488 -1.9154  2.5155
  553SOL    HW2 1659   0.039   3.025   0.139 -0.0960  1.9568 -1.5814
  554SOL     OW 1660   1.417   2.693   1.853 -0.7712  0.0017 -0.7572
  554SOL    HW1 1661   1.489   2.655   1.790  1.2490 -0.0262 -2.0174
  554SOL    HW2 1662   1.460   2.713   1.941 -0.7303  0.4527 -2.3421
  555SOL     OW 1663   2.315   2.896   1.759 -0.6551 -0.4370 -0.0869
  555SOL    HW1 1664   2.217   2.891   1.753  0.3065  1.1127 -0.1330
  555SOL    HW2 1665   2.352   2.859   1.847 -1.6183 -1.6897  1.4537
  556SOL     OW 1666   0.815   2.900   0.081 -0.5733  0.3696  0.4841
  556SOL    HW1 1667   0.863   2.857   0.159 -3.8100  0.0795 -0.3019
  556SOL    HW2 1668   0.742   2.961   0.110  1.0965  2.6345 -0.0763
  557SOL     OW 1669   0.624   2.228   2.349  0.2446 -0.1813  0.2948
  557SOL    HW1 1670   0.629   2.138   2.302  0.5555  0.9205 -2.4970
  557SOL    HW2 1671   0.606   2.298   2.276 -2.3338  0.2336  2.7252
  558SOL     OW 1672   2.811   1.082   2.827 -0.2126 -0.2269  0.5282
  558SOL    HW1 1673   2.789   0.986   2.807 -2.2042  0.6994 -0.2564
  558SOL    HW2 1674   2.803   1.139   2.750 -1.2297 -1.4307  4.1390
  559SOL     OW 1675   2.298   2.222   2.197  0.4900  0.2815  0.2483
  559SOL    HW1 1676   2.368   2.297   2.206  2.0047  1.2716  1.0305
  559SOL    HW2 1677   2.313   2.176   2.109  1.2731  3.2479 -1.1648
  560SOL     OW 1678   0.428   0.456   2.220  0.2154  0.0679 -0.6026
  560SOL    HW1 1679   0.485   0.521   2.277 -1.5468 -0.2584 -0.7346
  560SOL    HW2 1680   0.393   0.495   2.132  1.0801  2.8932 -2.8147
  561SOL     OW 1681   0.853   0.496   0.245 -0.2109  0.2584 -0.2882
  561SOL    HW1 1682   0.768   0.473   0.300  0.0685 -1.9506  0.5936
  561SOL    HW2 1683   0.852   0.444   0.152 -0.1333 -0.8227  0.0846
  562SOL     OW 1684   0.811   1.484   1.569 -0.7162  0.1015  0.1917
  562SOL    HW1 1685   0.712   1.460   1.571  3.1333 -2.0015 -1.1923
  562SOL    HW2 1686   0.844   1.506   1.471  0.6806 -1.2625  0.3750
  563SOL     OW 1687   1.611   2.973   0.119 -0.6999  0.3542 -0.1036
  563SOL    HW1 1688   1.654   2.897   0.066  2.0155 -0.2451 -2.3635
  563SOL    HW2 1689   1.678   3.023   0.181  0.8309 -0.8207  1.4481
  564SOL     OW 1690   3.077   2.076   0.519 -0.1603 -0.1668 -0.0147
  564SOL    HW1 1691   0.046   1.995   0.541 -1.9692 -0.7537 -1.1078
  564SOL    HW2 1692   3.033   2.111   0.603  1.2045  0.3606 -0.4777
  565SOL     OW 1693   0.452   2.419   2.243  0.4753 -0.5860 -0.0620
  565SOL    HW1 1694   0.402   2.472   2.172 -1.2096 -1.2253  3.3766
  565SOL    HW2 1695   0.416   2.448   2.338  0.2384 -0.0046  0.7959
  566SOL     OW 1696   1.521   2.459   2.439  0.2191  0.7458  0.8624
  566SOL    HW1 1697   1.525   2.465   2.540  0.6104  0.1678  0.0591
  566SOL    HW2 1698   1.433   2.410   2.411 -0.7797 -1.4422  2.9903
  567SOL     OW 1699   1.955   2.261   1.290 -0.2636  0.2961  0.1687
  567SOL    HW1 1700   1.946   2.358   1.322 -0.8775 -2.2349 -0.2453
  567SOL    HW2 1701   1.871   2.216   1.252  0.6955  1.8959 -0.8502
  568SOL     OW 1702   2.308   0.789   3.016 -0.4013 -0.1117  0.1370
  568SOL    HW1 1703   2.231   0.827   3.064  1.4378 -0.2080 -2.0420
  568SOL    HW2 1704   2.287   0.690   3.002  1.8621 -0.0201  1.0453
  569SOL     OW 1705   2.961   1.566   2.166 -0.7568  0.1498  0.4433
  569SOL    HW1 1706   2.990   1.647   2.118 -2.0725 -4.3964  1.6583
  569SOL    HW2 1707   2.987   1.574   2.263  3.3609  2.0644  1.2189
  570SOL     OW 1708   2.607   2.627   1.813  0.1073  0.1000  0.0042
  570SOL    HW1 1709   2.551   2.658   1.731  0.4031 -0.2493 -0.6586
  570SOL    HW2 1710   2.675   2.695   1.844 -0.8760  0.5992  2.4201
  571SOL     OW 1711   0.326   0.363   1.749 -0.2965  0.2728  0.4324
  571SOL    HW1 1712   0.295   0.284   1.689 -3.0965  0.6479 -1.9337
  571SOL    HW2 1713   0.323   0.445   1.690  4.1303 -0.1066 -1.0326
  572SOL     OW 1714   2.928   2.182   0.757 -0.1491 -0.9283  0.4497
  572SOL    HW1 1715   2.881   2.273   0.774  0.5094 -2.9349  0.0050
  572SOL    HW2 1716   3.021   2.196   0.796  2.5595 -2.1260  1.9938
  573SOL     OW 1717   1.104   0.816   3.049 -0.7136  0.3631 -0.7348
  573SOL    HW1 1718   1.140   0.900   0.010 -0.9537 -1.2136  0.8845
  573SOL    HW2 1719   1.004   0.801   3.068  0.3252 -1.4967  0.0402
  574SOL     OW 1720   3.056   2.871   0.115 -0.3576 -0.3472 -0.4482
  574SOL    HW1 1721   0.032   2.807   0.063 -1.8273  0.0865 -0.3917
  574SOL    HW2 1722   2.964   2.872   0.067 -1.4326 -0.9254 -1.7727
  575SOL     OW 1723   1.142   1.676   1.270 -0.0031  0.0088  0.8997
  575SOL    HW1 1724   1.121   1.626   1.187  1.2146  2.1673  2.3997
  575SOL    HW2 1725   1.193   1.761   1.246  0.6404 -0.1027 -0.7013
  576SOL     OW 1726   2.801   2.938   1.393  0.2104 -0.3551  0.1396
  576SOL    HW1 1727   2.802   3.036   1.415 -0.9112  0.1761  2.5821
  576SOL    HW2 1728   2.818   2.883   1.478 -1.8919  3.0006 -1.2246
  577SOL     OW 1729   2.037   1.738   1.744  0.4875  0.5074 -0.7004
  577SOL    HW1 1730   1.989   1.822   1.767 -1.4921 -2.3900  1.5964
  577SOL    HW2 1731   2.058   1.730   1.645  0.8958  1.4175 -0.1054
  578SOL     OW 1732   1.064   0.144   2.979 -0.0870 -0.4335 -0.1448
  578SOL    HW1 1733   0.973   0.159   3.033 -0.8678  0.8004 -1.2870
  578SOL    HW2 1734   1.101   0.238   2.953  0.6620  2.9847  2.7573
  579SOL     OW 1735   2.372   1.645   2.250 -0.5723  0.0279  0.3887
  579SOL    HW1 1736   2.296   1.605   2.195 -0.4290  0.6016 -0.7953
  579SOL    HW2 1737   2.457   1.639   2.195  0.5454  0.9229 -0.3637
  580SOL     OW 1738   1.717   0.362   1.788 -0.1772 -0.8242  0.6579
  580SOL    HW1 1739   1.771   0.368   1.701  0.2230  1.9397  1.1207
  580SOL    HW2 1740   1.664   0.444   1.812  0.7133 -2.1928 -2.0512
  581SOL     OW 1741   0.918   1.532   1.324  0.1127  0.6650  0.2569
  581SOL    HW1 1742   0.886   1.505   1.227 -0.3837 -0.5176 -2.7565
  581SOL    HW2 1743   1.005   1.578   1.323 -1.3061 -0.8591  0.1282
  582SOL     OW 1744   3.006   2.839   2.034 -0.1402 -0.6892  0.5337
  582SOL    HW1 1745   3.026   2.931   1.991  2.7612 -1.8022 -0.9264
  582SOL    HW2 1746   3.043   2.838   2.129  0.1467 -1.3181 -0.9594
  583SOL     OW 1747   1.979   1.431   1.532  0.3856 -0.0583 -0.4033
  583SOL    HW1 1748   1.925   1.510   1.558  2.5348 -0.5005 -1.5467
  583SOL    HW2 1749   2.072   1.454   1.494  3.1188 -0.1062  2.1805
  584SOL     OW 1750   1.289   1.925   2.747 -0.4598  0.4647 -0.0079
  584SOL    HW1 1751   1.384   1.923   2.712 -1.2904 -1.0592  0.0115
  584SOL    HW2 1752   1.235   1.845   2.708  1.0516 -1.4543 -1.7758
  585SOL     OW 1753   0.351   2.582   0.454  0.3617 -0.4004  0.1640
  585SOL    HW1 1754   0.326   2.481   0.459  1.4045 -1.2471 -0.2756
  585SOL    HW2 1755   0.301   2.628   0.379  1.5416 -1.7924  1.2264
  586SOL     OW 1756   1.823   2.303   2.867 -0.1768  0.8303  0.7239
  586SOL    HW1 1757   1.875   2.284   2.953 -1.9480 -1.6909 -2.2088
  586SOL    HW2 1758   1.875   2.257   2.791  0.1653 -0.0412 -2.4065
  587SOL     OW 1759   2.753   1.884   0.195 -0.2021 -0.0595 -0.0892
  587SOL    HW1 1760   2.806   1.926   0.117  2.1902  3.1998  2.5070
  587SOL    HW2 1761   2.809   1.889   0.280  2.8176  1.8603 -0.1923
  588SOL     OW 1762   2.144   0.209   1.159 -0.3208 -0.1165  0.1121
  588SOL    HW1 1763   2.211   0.149   1.115 -0.0504  1.2537  1.1331
  588SOL    HW2 1764   2.188   0.275   1.226 -0.6446  0.4478  0.3068
  589SOL     OW 1765   0.979   0.717   0.337 -0.0650 -0.2919  0.0500
  589SOL    HW1 1766   0.929   0.636   0.296  0.4776 -2.4154 -0.4881
  589SOL    HW2 1767   1.074   0.686   0.356  1.2205  1.3617 -0.3685
  590SOL     OW 1768   2.565   2.190   0.158 -0.0916  0.0165  0.1602
  590SOL    HW1 1769   2.566   2.268   0.092 -0.3810 -0.3318  0.3049
  590SOL    HW2 1770   2.525   2.108   0.111  1.1694 -1.6095 -0.9192
  591SOL     OW 1771   3.056   2.600   1.598  0.2085 -0.1636  0.4464
  591SOL    HW1 1772   0.063   2.639   1.617 -1.9688 -1.4912  0.1585
  591SOL    HW2 1773   3.051   2.509   1.637  0.9657 -0.6208 -0.2149
  592SOL     OW 1774   0.821   1.054   1.305  0.1526  0.1157  0.1012
  592SOL    HW1 1775   0.826   1.118   1.381  1.7242 -1.4499 -0.1589
  592SOL    HW2 1776   0.876   0.967   1.323 -1.1873  3.3090  0.1984
  593SOL     OW 1777   0.827   1.459   1.083 -0.5481  0.1796 -0.3760
  593SOL    HW1 1778   0.915   1.485   1.040 -0.8349 -0.3981 -3.5257
  593SOL    HW2 1779   0.749   1.508   1.039 -2.8456 -3.3475  0.4303
  594SOL     OW 1780   0.389   1.981   2.810  0.0321  0.6866  0.3385
  594SOL    HW1 1781   0.377   1.919   2.890  1.0578 -0.3713 -1.3359
  594SOL    HW2 1782   0.452   1.935   2.741  5.3568 -2.1378 -1.7519
  595SOL     OW 1783   1.496   0.459   1.133  0.0768  0.2193 -0.5724
  595SOL    HW1 1784   1.437   0.469   1.052  0.6188 -0.8683  1.7455
  595SOL    HW2 1785   1.454   0.384   1.195  0.3397 -2.1680  0.2155
  596SOL     OW 1786   0.019   1.235   0.534  0.0736  0.2903  0.6470
  596SOL    HW1 1787   3.040   1.242   0.455 -0.7342 -0.1644 -1.8205
  596SOL    HW2 1788   0.106   1.186   0.507  0.7413  0.4707 -2.9738
  597SOL     OW 1789   3.062   2.335   3.016 -0.1155  0.1741 -0.2923
  597SOL    HW1 1790   0.000   2.235   3.017 -0.9862  0.6448 -2.2308
  597SOL    HW2 1791   0.006   2.378   0.020 -1.1238  1.5560  1.4802
  598SOL     OW 1792   2.072   1.893   2.458  0.0840  0.2628  0.2818
  598SOL    HW1 1793   2.080   1.931   2.553 -0.0157  1.4314  0.7592
  598SOL    HW2 1794   2.100   1.793   2.456  1.5509 -2.1634 -0.1957
  599SOL     OW 1795   1.078   0.406   0.346 -0.0539  0.5266  0.3760
  599SOL    HW1 1796   0.995   0.443   0.301 -3.0873  2.9035 -1.5971
  599SOL    HW2 1797   1.146   0.480   0.372  1.4585  1.5788  1.8523
  600SOL     OW 1798   0.656   2.867   0.426  0.0725  0.1074 -0.4077
  600SOL    HW1 1799   0.589   2.933   0.383 -0.5572 -0.6219 -2.6093
  600SOL    HW2 1800   0.652   2.773   0.387 -0.6813  1.5651  2.2578
  601SOL     OW 1801   0.518   0.701   1.260  0.0383 -0.7422 -0.2363
  601SOL    HW1 1802   0.524   0.795   1.305 -1.1348  2.3566  1.3110
  601SOL    HW2 1803   0.590   0.639   1.299  1.0722 -1.3191 -1.5616
  602SOL     OW 1804   0.374   2.895   1.111 -0.0923  0.4908  0.2806
  602SOL    HW1 1805   0.321   2.868   1.197 -2.6961 -2.3726  1.2077
  602SOL    HW2 1806   0.364   2.816   1.046 -2.0912 -1.5944 -2.4359
  603SOL     OW 1807   1.065   2.766   2.467  0.0029  1.0465  0.6409
  603SOL    HW1 1808   1.134   2.755   2.392 -0.9556  0.9316  1.9131
  603SOL    HW2 1809   1.046   2.866   2.479  0.6681 -2.4187 -0.7723
  604SOL     OW 1810   0.667   2.783   2.653  0.0365 -0.3714 -0.2532
  604SOL    HW1 1811   0.660   2.687   2.685 -1.8032  0.6076 -2.3002
  604SOL    HW2 1812   0.734   2.842   2.706  0.7419  2.5417  3.7652
  605SOL     OW 1813   1.261   0.614   1.784  0.6715 -0.4023 -0.2745
  605SOL    HW1 1814   1.267   0.512   1.777 -0.1753 -1.3897  0.8280
  605SOL    HW2 1815   1.241   0.648   1.880 -0.3029 -0.7535 -0.0558
  606SOL     OW 1816   2.378   0.117   2.712  0.5449  0.0089  1.0143
  606SOL    HW1 1817   2.454   0.172   2.759  0.2633 -0.3096  0.6223
  606SOL    HW2 1818   2.304   0.173   2.670  0.8970  0.1090  3.6264
  607SOL     OW 1819   0.545   0.908   0.913  0.2082 -0.6512 -0.4571
  607SOL    HW1 1820   0.630   0.917   0.969  3.0229  0.4097  0.6471
  607SOL    HW2 1821   0.485   0.837   0.949  2.4444 -0.1209  2.2712
  608SOL     OW 1822   0.112   2.355   2.109  0.5175  0.2273 -1.3330
  608SOL    HW1 1823   0.198   2.397   2.075 -3.9282  1.4453 -0.2792
  608SOL    HW2 1824   0.032   2.419   2.090 -1.4150 -0.3620  2.3703
  609SOL     OW 1825   1.466   0.551   2.943  0.0507 -0.2932 -0.7329
  609SOL    HW1 1826   1.521   0.471   2.963 -1.6374  0.4139 -3.5392
  609SOL    HW2 1827   1.392   0.565   3.011  1.1523  0.1060  1.8408
  610SOL     OW 1828   0.855   2.861   1.273 -0.9751  0.3500  0.6987
  610SOL    HW1 1829   0.792   2.872   1.193 -0.8637  0.2369  1.7768
  610SOL    HW2 1830   0.944   2.830   1.235 -2.6296  2.2976  0.1966
  611SOL     OW 1831   1.596   0.821   0.476 -0.1734  0.3904  0.1973
  611SOL    HW1 1832   1.669   0.886   0.442  1.2830 -1.0169  0.0470
  611SOL    HW2 1833   1.635   0.738   0.518  0.5636  1.6696  1.4048
  612SOL     OW 1834   1.601   0.744   2.786  0.2564  0.4183  0.0652
  612SOL    HW1 1835   1.535   0.749   2.708  2.0082 -0.7478 -0.1846
  612SOL    HW2 1836   1.551   0.703   2.863  0.1780  0.7768 -1.1534
  613SOL     OW 1837   2.370   0.883   0.890 -0.0574  0.0923  0.4321
  613SOL    HW1 1838   2.311   0.949   0.845  1.5659 -2.6520 -1.0463
  613SOL    HW2 1839   2.414   0.822   0.817 -1.0537  1.2202  1.0431
  614SOL     OW 1840   2.552   0.242   2.208 -0.1284  0.1752  0.0677
  614SOL    HW1 1841   2.616   0.168   2.238 -0.2695  3.0703  0.2554
  614SOL    HW2 1842   2.503   0.219   2.120  2.3877 -1.8099 -0.9179
  615SOL     OW 1843   0.872   1.871   1.188 -0.7120  0.4835 -0.5470
  615SOL    HW1 1844   0.799   1.843   1.253 -0.2727 -0.1790  0.7278
  615SOL    HW2 1845   0.876   1.969   1.177 -1.7379 -1.7765 -1.5571
  616SOL     OW 1846   1.808   1.199   2.527  0.5473 -0.4969  0.0057
  616SOL    HW1 1847   1.806   1.177   2.426  1.1262  2.2207 -1.5253
  616SOL    HW2 1848   1.875   1.277   2.528  1.4336  0.6122 -2.0194
  617SOL     OW 1849   1.342   2.995   0.068 -0.0782 -0.1898 -0.4650
  617SOL    HW1 1850   1.446   2.982   0.080 -1.2167 -0.9581  0.0671
  617SOL    HW2 1851   1.319   0.007   0.088  2.2449  0.6549  0.8083
  618SOL     OW 1852   1.688   1.605   2.315  0.4174  0.1987 -0.1476
  618SOL    HW1 1853   1.625   1.682   2.292 -0.3286 -0.6866  0.4402
  618SOL    HW2 1854   1.699   1.547   2.234 -1.3331  1.7666  2.2660
  619SOL     OW 1855   2.504   1.543   1.051  0.0721  0.1267 -0.4530
  619SOL    HW1 1856   2.475   1.604   0.978 -0.0566 -1.6716 -1.6552
  619SOL    HW2 1857   2.540   1.457   1.007 -2.1085 -0.4957 -0.0548
  620SOL     OW 1858   2.158   2.750   2.651  0.1910  0.5602  0.4222
  620SOL    HW1 1859   2.192   2.828   2.704 -0.7608 -1.1309  0.7141
  620SOL    HW2 1860   2.057   2.743   2.668 -1.1684  0.7422 -0.2375
  621SOL     OW 1861   2.599   1.392   0.609  0.1722 -0.2669  0.1526
  621SOL    HW1 1862   2.590   1.453   0.529 -0.1445  0.9788  0.1421
  621SOL    HW2 1863   2.524   1.410   0.679 -2.0255  0.6485  2.9549
  622SOL     OW 1864   1.107   2.539   2.611 -0.2729  0.0886 -0.1540
  622SOL    HW1 1865   1.154   2.475   2.547 -0.1212  1.3247 -0.6257
  622SOL    HW2 1866   1.102   2.631   2.569  1.5870  0.8727  0.7837
  623SOL     OW 1867   0.275   2.391   0.087 -0.0590 -0.4894 -0.1522
  623SOL    HW1 1868   0.358   2.448   0.055  1.6004  0.3742 -2.4721
  623SOL    HW2 1869   0.262   2.308   0.032 -0.6148  0.8927  2.5824
  624SOL     OW 1870   0.422   2.842   0.013 -0.3170 -0.3414  0.4786
  624SOL    HW1 1871   0.349   2.905   0.034  1.3521  0.0688 -4.1278
  624SOL    HW2 1872   0.463   2.872   3.008  1.2015 -0.3470 -0.2305
  625SOL     OW 1873   0.916   2.288   2.885 -0.2418  0.0171 -0.0559
  625SOL    HW1 1874   0.904   2.317   2.787  0.4295  0.3828  0.2543
  625SOL    HW2 1875   0.984   2.214   2.886  1.4613 -0.9360 -3.2755
  626SOL     OW 1876   2.847   0.757   0.233 -0.5030 -0.3838 -0.2166
  626SOL    HW1 1877   2.810   0.830   0.181  0.2543 -0.6233  1.6732
  626SOL    HW2 1878   2.772   0.691   0.246  0.1189  0.7966 -2.4550
  627SOL     OW 1879   1.867   1.743   0.052 -0.3645  0.0409  0.4118
  627SOL    HW1 1880   1.954   1.688   0.072 -0.7490  0.8365  0.9187
  627SOL    HW2 1881   1.863   1.763   3.037 -2.4524  1.6908 -2.9880
  628SOL     OW 1882   1.334   1.125   2.535 -0.1250 -0.0394  0.4984
  628SOL    HW1 1883   1.254   1.102   2.595 -0.7690 -2.9771  1.9557
  628SOL    HW2 1884   1.412   1.160   2.587 -1.6250 -2.6737 -2.9796
  629SOL     OW 1885   0.542   0.025   1.666  0.1591  0.4244  0.2508
  629SOL    HW1 1886   0.511   3.083   1.573 -0.0281 -0.4184 -0.2771
  629SOL    HW2 1887   0.526   0.119   1.690  1.7280 -3.1133  0.7707
  630SOL     OW 1888   2.249   1.117   1.912 -0.2581  0.3577  0.1697
  630SOL    HW1 1889   2.247   1.213   1.947 -1.8205  2.3249 -0.9147
  630SOL    HW2 1890   2.216   1.048   1.985 -5.3866 -0.3358  2.9775
  631SOL     OW 1891   1.907   0.235   0.620  0.0719  0.2165  0.0857
  631SOL    HW1 1892   1.862   0.315   0.665 -1.7411  0.5448 -0.3127
  631SOL    HW2 1893   1.837   0.186   0.564  1.8835 -0.9510  1.3547
  632SOL     OW 1894   0.055   0.699   1.734 -0.5533 -0.2746 -0.4171
  632SOL    HW1 1895   0.015   0.754   1.663  0.8452 -1.3280  0.8821
  632SOL    HW2 1896   0.009   0.607   1.753 -0.1904 -1.3860 -0.1365
  633SOL     OW 1897   0.823   0.393   0.004  0.1091  0.1464  0.4824
  633SOL    HW1 1898   0.793   0.419   2.992 -2.0810 -0.3403 -1.4295
  633SOL    HW2 1899   0.812   0.291   0.016 -1.9745 -0.4705  0.9709
  634SOL     OW 1900   0.502   2.569   0.067  0.1936 -0.5927 -0.0324
  634SOL    HW1 1901   0.597   2.592   0.039  2.3053 -1.1706 -0.4772
  634SOL    HW2 1902   0.447   2.654   0.074  1.5402  3.2173  0.1593
  635SOL     OW 1903   0.228   0.638   0.668 -0.1404 -0.0177  0.6070
  635SOL    HW1 1904   0.196   0.594   0.576 -1.9050  0.0955 -3.5260
  635SOL    HW2 1905   0.265   0.731   0.654 -0.0539 -2.6752  0.1176
  636SOL     OW 1906   0.581   1.254   0.132  0.0788  0.2237 -0.1309
  636SOL    HW1 1907   0.676   1.208   0.134  2.0674  0.4260 -0.6206
  636SOL    HW2 1908   0.591   1.358   0.138  0.7873  1.6489  0.4752
  637SOL     OW 1909   0.238   2.740   0.659 -0.2221 -0.2200 -0.5307
  637SOL    HW1 1910   0.262   2.655   0.602 -3.4002  0.2281  0.4563
  637SOL    HW2 1911   0.192   2.812   0.599  0.7039  1.4761  0.1732
  638SOL     OW 1912   2.692   2.488   0.370  0.2686 -0.2400 -0.0096
  638SOL    HW1 1913   2.729   2.396   0.379 -2.0898  3.6406 -1.7729
  638SOL    HW2 1914   2.714   2.541   0.458 -3.4598 -0.4794  0.9549
  639SOL     OW 1915   1.678   0.940   0.081 -0.1410  0.0348  0.1415
  639SOL    HW1 1916   1.597   0.888   0.116  0.3741 -0.5807  1.3711
  639SOL    HW2 1917   1.728   0.983   0.157  0.5484 -0.1239 -1.2523
  640SOL     OW 1918   1.827   2.279   1.739  0.1440  0.3520  0.0694
  640SOL    HW1 1919   1.852   2.218   1.659 -1.7046  0.7489  1.1338
  640SOL    HW2 1920   1.785   2.217   1.807  0.4027  0.6440 -2.1560
  641SOL     OW 1921   3.029   2.880   0.737 -0.0969 -0.0664 -1.0565
  641SOL    HW1 1922   2.941   2.938   0.732 -0.6299 -0.1973  0.9466
  641SOL    HW2 1923   3.032   2.819   0.819 -1.8259  2.8126 -0.2740
  642SOL     OW 1924   1.062   0.340   1.744  0.0918 -0.1207 -0.4053
  642SOL    HW1 1925   1.033   0.383   1.657  0.1961  1.7324  2.7688
  642SOL    HW2 1926   1.166   0.334   1.749  0.2170 -0.0008  0.6375
  643SOL     OW 1927   0.898   2.381   2.625 -0.0745  0.1325  0.2194
  643SOL    HW1 1928   0.896   2.306   2.555 -1.1315 -0.5235  1.6643
  643SOL    HW2 1929   0.973   2.447   2.613  1.6747 -0.6549  0.2666
  644SOL     OW 1930   1.295   2.544   0.720  0.0192  0.3253 -0.1519
  644SOL    HW1 1931   1.317   2.448   0.749 -1.2677 -1.1455  1.1517
  644SOL    HW2 1932   1.203   2.547   0.676 -1.0869  0.5256 -1.2492
  645SOL     OW 1933   1.581   1.221   1.870  0.2790  0.3283 -0.2452
  645SOL    HW1 1934   1.678   1.195   1.855  0.0593  1.1638  1.9319
  645SOL    HW2 1935   1.542   1.277   1.795  1.7144 -1.6103  2.4806
  646SOL     OW 1936   0.486   0.667   0.101  0.1727  0.0314  0.0510
  646SOL    HW1 1937   0.485   0.593   0.174 -1.9269  1.2884 -0.4435
  646SOL    HW2 1938   0.567   0.723   0.109 -0.9540 -2.2716  1.3763
  647SOL     OW 1939   1.063   0.256   0.605 -0.2028 -0.1883 -0.3951
  647SOL    HW1 1940   1.059   0.334   0.540 -0.5600  0.2519 -0.1097
  647SOL    HW2 1941   1.152   0.205   0.588  3.6870 -4.7822  0.5907
  648SOL     OW 1942   2.204   2.894   1.249  0.7235 -0.3646 -0.0728
  648SOL    HW1 1943   2.254   2.882   1.162 -2.4725  0.9261 -2.8678
  648SOL    HW2 1944   2.164   2.803   1.263  0.1872  1.4332  0.4248
  649SOL     OW 1945   0.543   1.860   3.018  0.2120 -0.5171 -0.1875
  649SOL    HW1 1946   0.565   1.960   3.005 -0.5202  0.7280 -1.0489
  649SOL    HW2 1947   0.527   1.841   0.034  1.2145  0.1459  1.1686
  650SOL     OW 1948   2.056   2.038   1.916 -0.3911 -0.4042  0.2948
  650SOL    HW1 1949   2.093   2.135   1.903 -0.9935  1.9795 -1.0143
  650SOL    HW2 1950   1.978   2.017   1.852 -0.1360 -0.2910  2.4405
  651SOL     OW 1951   0.215   2.953   2.624  0.2072  0.2399 -0.0860
  651SOL    HW1 1952   0.259   2.890   2.558 -1.0836 -0.8976  1.3619
  651SOL    HW2 1953   0.135   3.001   2.578 -1.8849  0.5016 -1.3745
  652SOL     OW 1954   2.878   1.747   0.615 -0.3612  0.3260  0.8475
  652SOL    HW1 1955   2.796   1.708   0.655  1.7420  0.9037 -2.7551
  652SOL    HW2 1956   2.965   1.691   0.634 -0.6396 -0.2055 -1.9639
  653SOL     OW 1957   3.083   0.454   1.216 -0.3945 -0.1661  0.1358
  653SOL    HW1 1958   0.040   0.410   1.134  1.0992 -1.8912  0.7067
  653SOL    HW2 1959   0.061   0.470   1.294 -1.4061  1.3169 -0.0099
  654SOL     OW 1960   0.856   0.128   0.079 -0.2312 -0.4151  0.3287
  654SOL    HW1 1961   0.860   0.109   0.175 -1.4044  1.6759 -0.6012
  654SOL    HW2 1962   0.786   0.065   0.042 -1.5364 -1.0512  2.1809
  655SOL     OW 1963   0.639   2.982   1.151 -0.0500  0.6002 -0.4624
  655SOL    HW1 1964   0.658   3.071   1.191 -3.2224 -0.1931 -1.0773
  655SOL    HW2 1965   0.543   2.952   1.171 -2.8234 -2.8949  0.8714
  656SOL     OW 1966   0.251   2.783   2.104 -0.1216 -0.4998 -0.2829
  656SOL    HW1 1967   0.286   2.878   2.130  2.5722 -1.2900  2.3565
  656SOL    HW2 1968   0.169   2.764   2.158  0.4714 -1.6198 -0.7522
  657SOL     OW 1969   2.326   0.425   2.592  0.1685  0.0361  0.1000
  657SOL    HW1 1970   2.390   0.374   2.527  1.2837  0.5947 -1.5867
  657SOL    HW2 1971   2.355   0.523   2.610 -1.2419  1.6281  1.7009
  658SOL     OW 1972   1.985   1.679   1.157 -0.2432  1.4357 -0.0645
  658SOL    HW1 1973   1.946   1.747   1.096 -1.6378  0.0146 -0.0406
  658SOL    HW2 1974   2.058   1.733   1.214  1.7813  2.2149  0.6504
  659SOL     OW 1975   2.350   2.372   2.755 -0.0844 -0.0516  0.0277
  659SOL    HW1 1976   2.388   2.412   2.837  1.3923 -0.9414 -0.3637
  659SOL    HW2 1977   2.418   2.318   2.704 -2.1621 -0.4733  1.5471
  660SOL     OW 1978   1.231   0.625   0.410 -0.1751  0.2249  0.5100
  660SOL    HW1 1979   1.240   0.687   0.490  2.4938  1.3383 -1.4615
  660SOL    HW2 1980   1.324   0.608   0.373  0.9445  1.3829 -0.2559
  661SOL     OW 1981   2.358   2.834   0.654 -0.3480  0.0173 -0.2781
  661SOL    HW1 1982   2.356   2.796   0.558 -0.4160  0.7078 -0.9399
  661SOL    HW2 1983   2.362   2.934   0.651  0.6704 -3.1807 -2.3622
  662SOL     OW 1984   0.802   0.167   1.089 -0.1176 -0.8571  0.1276
  662SOL    HW1 1985   0.835   0.260   1.080 -1.0128 -2.0130 -1.7068
  662SOL    HW2 1986   0.784   0.131   0.996  0.2150 -0.6850  2.8022
  663SOL     OW 1987   1.598   2.740   2.387  0.4140  0.0051  0.5437
  663SOL    HW1 1988   1.697   2.728   2.405 -1.7510  3.6324 -0.8337
  663SOL    HW2 1989   1.552   2.650   2.398  0.1137  0.1280  0.9715
  664SOL     OW 1990   0.514   2.097   1.381 -0.4469 -0.4623 -0.2558
  664SOL    HW1 1991   0.554   2.150   1.305  1.0047  1.0366  2.2422
  664SOL    HW2 1992   0.585   2.063   1.443  0.1245  1.5474  1.8571
  665SOL     OW 1993   0.801   2.277   1.659  0.4588  0.1787 -0.2515
  665SOL    HW1 1994   0.828   2.252   1.756  3.0659 -1.5391  0.9161
  665SOL    HW2 1995   0.869   2.242   1.598 -0.6617  0.0116  0.3336
  666SOL     OW 1996   0.128   2.716   3.034 -0.2721 -0.0437  0.6306
  666SOL    HW1 1997   0.170   2.791   2.981  1.4003  1.4785 -0.4421
  666SOL    HW2 1998   0.083   2.649   2.970 -0.8181 -1.8718 -2.2906
  667SOL     OW 1999   1.517   1.552   1.439  0.4738 -0.2333 -0.9025
  667SOL    HW1 2000   1.433   1.610   1.466 -0.0856  1.5085  0.8629
  667SOL    HW2 2001   1.599   1.609   1.433 -0.4208  0.7437 -0.1448
  668SOL     OW 2002   1.310   0.254   2.117  0.6143 -0.8110  0.1239
  668SOL    HW1 2003   1.282   0.349   2.113  3.6463 -0.3021  1.5147
  668SOL    HW2 2004   1.242   0.185   2.084 -1.8901  1.0370 -0.1331
  669SOL     OW 2005   2.520   2.246   1.511 -0.2116  0.6762 -0.2446
  669SOL    HW1 2006   2.428   2.261   1.553  0.2051 -0.3485  3.6225
  669SOL    HW2 2007   2.601   2.285   1.561  0.1839 -0.3681 -1.1263
  670SOL     OW 2008   1.685   2.096   0.288 -0.7986  0.0351 -0.5439
  670SOL    HW1 2009   1.619   2.060   0.217  0.7343 -1.1740 -2.3976
  670SOL    HW2 2010   1.711   2.191   0.265 -2.0271 -2.2469 -2.5283
  671SOL     OW 2011   1.372   0.968   1.095 -0.2655  0.0388 -0.3613
  671SOL    HW1 2012   1.377   0.953   1.198 -1.7769 -1.8996  1.3961
  671SOL    HW2 2013   1.312   1.049   1.072 -0.4238 -0.7581 -0.6867
  672SOL     OW 2014   2.826   1.229   2.573 -0.0004 -0.3178  0.6752
  672SOL    HW1 2015   2.736   1.228   2.531 -1.9555  2.3871  0.7112
  672SOL    HW2 2016   2.895   1.222   2.502  1.2322  3.1808  2.2580
  673SOL     OW 2017   0.029   1.712   1.491  0.0093 -0.5110 -0.9694
  673SOL    HW1 2018   3.064   1.744   1.413  1.6068  2.0135 -1.4503
  673SOL    HW2 2019   0.123   1.749   1.488 -0.2084 -0.6230  0.9115
  674SOL     OW 2020   0.827   2.489   2.187  0.1340 -0.2288  0.0313
  674SOL    HW1 2021   0.754   2.436   2.139 -0.4533 -1.1658  0.3088
  674SOL    HW2 2022   0.786   2.536   2.268 -1.7786  2.9810 -1.7429
  675SOL     OW 2023   0.854   1.222   1.517 -0.2913 -0.1176  0.2198
  675SOL    HW1 2024   0.787   1.182   1.588 -1.1961 -1.6135  1.6261
  675SOL    HW2 2025   0.840   1.324   1.508  3.2411  1.0129 -0.2058
  676SOL     OW 2026   2.252   0.454   0.783 -0.4894  0.5440  0.1679
  676SOL    HW1 2027   2.252   0.472   0.682 -0.4255  0.4226 -0.8543
  676SOL    HW2 2028   2.347   0.458   0.827 -0.5019 -1.3640 -0.1057
  677SOL     OW 2029   2.553   1.622   3.036 -0.3629  0.4040  0.2449
  677SOL    HW1 2030   2.519   1.532   3.002 -1.4804  1.7496  2.4815
  677SOL    HW2 2031   2.627   1.655   2.977 -0.3535  2.0102 -0.2729
  678SOL     OW 2032   0.167   0.487   1.414  0.1182  0.0578 -0.3613
  678SOL    HW1 2033   0.191   0.390   1.433 -1.8422 -1.1886  2.1697
  678SOL    HW2 2034   0.181   0.543   1.501 -0.6483 -0.0133  0.2993
  679SOL     OW 2035   2.398   0.305   0.281 -0.2848  0.1060  0.3384
  679SOL    HW1 2036   2.342   0.315   0.198  1.9991  0.7743  1.8944
  679SOL    HW2 2037   2.416   0.206   0.305 -0.8318  0.8948  0.6023
  680SOL     OW 2038   0.185   2.196   1.768  0.4885 -0.3608 -0.0535
  680SOL    HW1 2039   0.099   2.235   1.732 -0.0126 -2.1570 -0.0023
  680SOL    HW2 2040   0.164   2.133   1.851 -0.5747 -1.2611  3.2514
  681SOL     OW 2041   2.192   2.156   1.228  0.4457 -0.3804 -0.0809
  681SOL    HW1 2042   2.097   2.195   1.229  0.9084  0.2753  0.6057
  681SOL    HW2 2043   2.241   2.214   1.161 -2.0514  1.6815 -1.1353
  682SOL     OW 2044   2.927   2.098   1.937  0.0320  0.0549 -0.1255
  682SOL    HW1 2045   2.939   2.063   1.838 -2.1427  0.0348 -0.6399
  682SOL    HW2 2046   3.012   2.069   1.986 -1.6668 -0.8520 -1.6415
  683SOL     OW 2047   3.010   2.230   1.177  0.3033  0.2393  0.2544
  683SOL    HW1 2048   3.038   2.307   1.119  1.4068 -0.0743 -2.0440
  683SOL    HW2 2049   2.914   2.194   1.158 -0.3715  0.5201 -3.0072
  684SOL     OW 2050   2.661   0.766   2.573  0.7786  0.2175 -0.3166
  684SOL    HW1 2051   2.670   0.834   2.498 -1.8275  0.8924  0.6879
  684SOL    HW2 2052   2.704   0.803   2.657 -1.3241  2.1296  0.6618
  685SOL     OW 2053   1.509   1.176   0.469 -0.1137  0.3387 -0.1278
  685SOL    HW1 2054   1.469   1.115   0.541 -0.3834 -0.2464  0.5055
  685SOL    HW2 2055   1.493   1.274   0.499  1.0591 -0.4287 -3.9552
  686SOL     OW 2056   0.287   0.168   0.327  0.0251 -0.3828  0.0186
  686SOL    HW1 2057   0.298   0.205   0.231 -1.3059  0.0725  0.8532
  686SOL    HW2 2058   0.206   0.209   0.377  0.9449 -0.6077  3.4051
  687SOL     OW 2059   1.566   1.238   2.631  0.3768 -0.0069 -0.3065
  687SOL    HW1 2060   1.542   1.322   2.581 -1.2071  0.0989  0.5979
  687SOL    HW2 2061   1.645   1.191   2.582  0.2220 -0.2855 -0.8891
  688SOL     OW 2062   1.601   1.401   1.658  0.6050 -0.0879 -0.3380
  688SOL    HW1 2063   1.674   1.469   1.688  2.2049  2.9463  2.4113
  688SOL    HW2 2064   1.551   1.436   1.578 -1.2251  1.2105  0.9542
  689SOL     OW 2065   2.147   0.014   1.401 -0.3946 -0.0368 -0.0377
  689SOL    HW1 2066   2.146   0.082   1.322 -1.7703  0.4276 -2.8194
  689SOL    HW2 2067   2.211   3.025   1.385 -0.2884  1.8934 -0.6835
  690SOL     OW 2068   3.028   1.157   1.213 -0.3702  0.0292 -0.0993
  690SOL    HW1 2069   2.966   1.083   1.173 -2.2249 -1.2414  1.4412
  690SOL    HW2 2070   0.019   1.112   1.263  3.6141 -0.4325  1.1519
  691SOL     OW 2071   0.582   2.261   1.171 -0.0734 -0.2437  0.0909
  691SOL    HW1 2072   0.560   2.268   1.072 -1.5683  0.0997  1.1591
  691SOL    HW2 2073   0.502   2.302   1.224 -0.3545  1.8364 -0.0775
  692SOL     OW 2074   2.450   0.727   1.783 -0.8942 -0.1216 -0.3608
  692SOL    HW1 2075   2.548   0.758   1.769  3.0320 -0.5729  0.6849
  692SOL    HW2 2076   2.439   0.688   1.875  0.2907 -0.5731  1.5813
  693SOL     OW 2077   0.627   1.958   2.235  0.1635 -0.0732 -0.5778
  693SOL    HW1 2078   0.720   1.968   2.192 -2.2408 -0.0353  0.8806
  693SOL    HW2 2079   0.618   1.863   2.270 -0.6669  0.8705  1.0340
  694SOL     OW 2080   1.747   1.329   1.350  0.1837 -0.6288  0.0615
  694SOL    HW1 2081   1.833   1.357   1.395  1.4679  0.2465 -2.0771
  694SOL    HW2 2082   1.693   1.253   1.388 -1.8325 -2.2304 -1.7480
  695SOL     OW 2083   0.878   1.220   0.816  0.3330  0.4529  0.6041
  695SOL    HW1 2084   0.930   1.188   0.898  0.4151  2.0554 -3.8666
  695SOL    HW2 2085   0.784   1.179   0.809 -1.6746  2.1599  1.1430
  696SOL     OW 2086   0.952   2.790   0.275  0.1882 -0.2753  0.3418
  696SOL    HW1 2087   0.928   2.821   0.366  0.0996 -0.2696 -1.9949
  696SOL    HW2 2088   1.048   2.764   0.261 -1.1413  0.0315 -2.6342
  697SOL     OW 2089   1.517   0.136   1.825  0.5754 -0.0349 -0.4778
  697SOL    HW1 2090   1.595   0.197   1.794 -2.7151 -0.1270  0.9622
  697SOL    HW2 2091   1.534   0.088   1.914  1.3628  0.0865 -2.2884
  698SOL     OW 2092   1.704   1.442   2.089 -0.5575 -0.1963  0.7500
  698SOL    HW1 2093   1.791   1.469   2.041  2.1082  0.5880 -1.6369
  698SOL    HW2 2094   1.627   1.438   2.027  1.5201 -1.5394  1.5929
  699SOL     OW 2095   2.566   0.410   1.874 -0.3704  0.0116  0.5192
  699SOL    HW1 2096   2.518   0.320   1.904 -2.1648 -2.6584  3.5863
  699SOL    HW2 2097   2.629   0.386   1.802 -0.1539 -0.6040 -2.2483
  700SOL     OW 2098   1.175   2.001   0.509 -0.8042 -0.2001  0.5811
  700SOL    HW1 2099   1.228   2.032   0.429  2.1487  0.2316 -0.0985
  700SOL    HW2 2100   1.086   1.961   0.484 -2.4827 -0.3225  0.6210
  701SOL     OW 2101   2.140   0.017   2.464  0.4233 -0.5108 -0.0846
  701SOL    HW1 2102   2.139   0.099   2.525 -0.3417  1.4475  1.5775
  701SOL    HW2 2103   2.233   3.075   2.444 -1.5418 -0.2546  2.3501
  702SOL     OW 2104   0.919   3.032   0.760 -0.0297 -0.0980  0.4808
  702SOL    HW1 2105   0.833   2.998   0.801 -0.9695  1.1348 -1.5871
  702SOL    HW2 2106   0.908   0.043   0.722  1.1866 -0.2578 -0.0687
  703SOL     OW 2107   2.289   3.025   2.127  0.6157 -0.0723 -0.0007
  703SOL    HW1 2108   2.187   3.026   2.133  2.8575  1.4015 -1.0644
  703SOL    HW2 2109   2.325   3.052   2.219 -0.5132 -0.0535  0.0163
  704SOL     OW 2110   2.738   2.225   0.366  0.0673  0.0434 -0.3663
  704SOL    HW1 2111   2.669   2.195   0.298 -0.9886  0.2813  0.4704
  704SOL    HW2 2112   2.707   2.199   0.459  0.1245 -1.3463  0.5016
  705SOL     OW 2113   2.488   2.748   2.618 -0.1078  0.2998  0.3852
  705SOL    HW1 2114   2.512   2.846   2.609  0.3541 -1.4437  0.9315
  705SOL    HW2 2115   2.388   2.741   2.604  2.3069 -0.2745 -4.0854
  706SOL     OW 2116   2.655   0.206   1.119  0.3048 -0.4979 -0.4865
  706SOL    HW1 2117   2.606   0.273   1.172  5.2631 -1.4544 -0.2434
  706SOL    HW2 2118   2.677   0.246   1.027  0.0040  0.9085  1.2234
  707SOL     OW 2119   0.919   2.991   2.587  0.3747  0.7646  0.0387
  707SOL    HW1 2120   0.932   2.921   2.658  3.1862  0.7114 -1.2877
  707SOL    HW2 2121   0.884   3.082   2.619 -2.8615  2.2281  0.1983
  708SOL     OW 2122   0.160   2.039   1.529  0.8571 -0.3477 -0.0585
  708SOL    HW1 2123   0.121   2.098   1.456  0.3981  0.4206  0.3907
  708SOL    HW2 2124   0.209   2.092   1.600 -0.5493  0.6631  1.5136
  709SOL     OW 2125   1.390   0.383   1.504 -0.1146 -0.3895 -0.2549
  709SOL    HW1 2126   1.471   0.441   1.484 -1.8488 -0.7625  0.6648
  709SOL    HW2 2127   1.371   0.313   1.437 -1.2751 -0.4487 -0.4859
  710SOL     OW 2128   0.792   2.952   2.877  0.3312 -0.3661  0.7705
  710SOL    HW1 2129   0.812   2.941   2.975 -1.2344  1.8595  1.8540
  710SOL    HW2 2130   0.827   3.038   2.835 -1.0080  1.1283 -2.6591
  711SOL     OW 2131   1.172   2.093   2.550  0.1385 -0.0398  0.1417
  711SOL    HW1 2132   1.223   2.043   2.621  0.5689 -0.8564  0.0433
  711SOL    HW2 2133   1.077   2.079   2.567  0.5836 -1.2398  0.7514
  712SOL     OW 2134   1.147   2.107   2.893  0.2389  0.2016  0.0381
  712SOL    HW1 2135   1.203   2.041   2.838 -4.1430  0.6746 -2.0674
  712SOL    HW2 2136   1.157   2.071   2.989  0.3189  0.4592 -0.9970
  713SOL     OW 2137   1.941   1.143   2.175  0.2443  0.2605  0.2870
  713SOL    HW1 2138   1.841   1.158   2.195 -1.1587 -2.0620  0.8171
  713SOL    HW2 2139   1.963   1.052   2.218 -0.8204  3.5618  1.1470
  714SOL     OW 2140   0.794   1.605   1.829 -0.7222 -0.2603  0.2044
  714SOL    HW1 2141   0.828   1.558   1.744 -0.8531  1.8045 -0.7565
  714SOL    HW2 2142   0.699   1.573   1.851  0.2516  0.8999  2.9015
  715SOL     OW 2143   2.595   0.636   0.267  0.1207  0.1922 -0.5684
  715SOL    HW1 2144   2.620   0.541   0.295  0.3316 -2.5359  3.1354
  715SOL    HW2 2145   2.560   0.694   0.343 -1.5562 -0.1738  0.0432
  716SOL     OW 2146   2.773   2.388   1.652  0.4415  0.6632 -0.7041
  716SOL    HW1 2147   2.865   2.355   1.622  0.6049 -0.7464  0.6008
  716SOL    HW2 2148   2.772   2.393   1.756 -1.4757 -0.3612  2.5143
  717SOL     OW 2149   2.324   1.121   1.208 -0.2536 -0.1691  0.3722
  717SOL    HW1 2150   2.320   1.217   1.186  0.1825 -0.7008  2.6542
  717SOL    HW2 2151   2.414   1.080   1.172 -0.0767 -0.5239 -0.6006
  718SOL     OW 2152   1.255   1.662   1.495  0.0401  0.3007  0.5055
  718SOL    HW1 2153   1.224   1.581   1.547 -1.7696  0.8304  2.3008
  718SOL    HW2 2154   1.216   1.660   1.404  0.8647  0.4593  2.3690
  719SOL     OW 2155   2.869   0.448   3.043  0.9671 -1.2294  0.8682
  719SOL    HW1 2156   2.889   0.525   2.979  0.3969 -0.0806 -1.3503
  719SOL    HW2 2157   2.959   0.404   3.066 -3.0124 -0.0475 -1.1269
  720SOL     OW 2158   0.901   0.368   0.786  0.6331  0.1366  0.2345
  720SOL    HW1 2159   0.942   0.293   0.735 -2.6881  0.7481  1.1365
  720SOL    HW2 2160   0.862   0.439   0.725 -0.0208 -0.6831  0.1668
  721SOL     OW 2161   2.535   0.739   0.720  0.0989 -1.0761 -0.0653
  721SOL    HW1 2162   2.479   0.759   0.638  0.3047  0.4318 -2.9405
  721SOL    HW2 2163   2.633   0.746   0.708  1.9638  2.1997  0.4487
  722SOL     OW 2164   0.517   2.372   2.559 -0.2506  0.0380 -0.1638
  722SOL    HW1 2165   0.446   2.318   2.603 -2.2039  2.3562 -0.4336
  722SOL    HW2 2166   0.553   2.317   2.480 -2.3733  2.6511 -1.3556
  723SOL     OW 2167   1.914   0.041   0.916  0.3629 -0.3387  0.3539
  723SOL    HW1 2168   1.931   0.138   0.932  2.1774  0.2894 -2.1346
  723SOL    HW2 2169   1.935   3.071   1.001 -0.1004  1.0958 -2.0780
  724SOL     OW 2170   1.214   1.710   2.197  0.4379 -0.4680  0.0308
  724SOL    HW1 2171   1.198   1.689   2.099  3.2719  0.6133  0.3707
  724SOL    HW2 2172   1.149   1.782   2.231 -0.0356  1.5773  0.8961
  725SOL     OW 2173   1.165   2.802   1.208  0.6804  0.0182 -0.3104
  725SOL    HW1 2174   1.181   2.833   1.301  1.2588  1.1538 -0.3354
  725SOL    HW2 2175   1.243   2.839   1.153 -3.4368 -1.6552 -1.0327
  726SOL     OW 2176   2.089   2.836   0.121 -0.2266  0.9322  0.4603
  726SOL    HW1 2177   2.056   2.762   0.057 -0.1597 -0.3099 -0.6763
  726SOL    HW2 2178   2.064   2.807   0.214 -0.3337 -2.6417  4.2541
  727SOL     OW 2179   1.466   1.684   1.095 -0.1516  0.0809 -0.4804
  727SOL    HW1 2180   1.562   1.657   1.081 -1.7636  0.1818 -0.2518
  727SOL    HW2 2181   1.412   1.600   1.119  0.7213  1.4450 -0.9317
  728SOL     OW 2182   2.142   2.727   2.059  0.3461  0.2532  0.1068
  728SOL    HW1 2183   2.119   2.789   2.143 -1.5694  0.1105  0.6457
  728SOL    HW2 2184   2.237   2.742   2.022  1.2407  1.9011 -0.9661
  729SOL     OW 2185   1.909   2.522   1.384  0.2218  0.3497 -0.1893
  729SOL    HW1 2186   1.808   2.508   1.395 -1.7231 -3.7065  0.6143
  729SOL    HW2 2187   1.954   2.560   1.469 -0.5073  2.8268 -1.3831
  730SOL     OW 2188   1.824   0.618   2.395 -0.1249  0.5103  0.2351
  730SOL    HW1 2189   1.799   0.704   2.343 -0.1137 -0.3236  0.6529
  730SOL    HW2 2190   1.792   0.625   2.492 -1.4811  3.5491 -2.0271
  731SOL     OW 2191   0.963   2.812   1.012 -0.2640 -0.0368 -0.1979
  731SOL    HW1 2192   1.027   2.803   1.090  0.7104  4.1989  1.3190
  731SOL    HW2 2193   0.982   2.741   0.940 -0.0421 -0.4561  2.3871
  732SOL     OW 2194   1.304   0.173   0.963 -0.4732 -0.1241 -0.0614
  732SOL    HW1 2195   1.240   0.102   0.917  0.6036  0.3337 -3.6660
  732SOL    HW2 2196   1.394   0.127   0.979 -1.1930  0.0454 -0.0690
  733SOL     OW 2197   1.491   1.051   0.732  0.1463  0.0761  0.0307
  733SOL    HW1 2198   1.505   1.105   0.818  0.9888  0.3655  0.6237
  733SOL    HW2 2199   1.463   0.958   0.767 -0.8888 -1.7634 -1.7027
  734SOL     OW 2200   2.490   2.211   2.585 -0.0447 -0.1318 -0.5356
  734SOL    HW1 2201   2.567   2.250   2.530 -2.9090 -2.7088  1.2863
  734SOL    HW2 2202   2.432   2.149   2.525 -0.1932  0.7665 -0.3377
  735SOL     OW 2203   0.643   0.257   0.857  0.0317 -0.3840 -0.0246
  735SOL    HW1 2204   0.608   0.188   0.785 -0.2274 -0.6431  0.5023
  735SOL    HW2 2205   0.717   0.311   0.816 -0.7584  1.7263  1.0184
  736SOL     OW 2206   1.364   2.297   2.843 -0.2558 -0.0844  0.2088
  736SOL    HW1 2207   1.357   2.333   2.941 -1.9605  1.4760  3.7867
  736SOL    HW2 2208   1.276   2.246   2.822 -1.0298 -0.9329  0.5572
  737SOL     OW 2209   0.868   2.146   1.149  0.0164 -0.7335  0.5067
  737SOL    HW1 2210   0.767   2.168   1.141 -0.9122 -0.5369  0.7696
  737SOL    HW2 2211   0.908   2.223   1.200  0.4706  0.8566  0.0527
  738SOL     OW 2212   1.412   2.981   2.804 -0.1616  0.2213 -0.4363
  738SOL    HW1 2213   1.320   3.007   2.831 -0.6036 -4.3306 -1.0063
  738SOL    HW2 2214   1.475   3.043   2.853 -0.7936 -3.1641  3.5421
  739SOL     OW 2215   0.872   2.220   1.917  0.1161  0.1116 -0.7225
  739SOL    HW1 2216   0.943   2.153   1.951 -0.2754 -1.6106  1.4570
  739SOL    HW2 2217   0.802   2.241   1.992 -0.7441  0.9607  0.7792
  740SOL     OW 2218   1.445   2.300   1.516  0.0478  0.0204  0.0893
  740SOL    HW1 2219   1.420   2.273   1.423 -1.0360 -0.1160 -2.0443
  740SOL    HW2 2220   1.360   2.283   1.574 -1.5467 -0.8579  2.1800
  741SOL     OW 2221   2.524   1.159   0.150  0.3182 -0.1825  0.9085
  741SOL    HW1 2222   2.562   1.122   0.239  1.1041 -1.9370  0.1332
  741SOL    HW2 2223   2.511   1.259   0.150  1.0214 -1.2285 -2.9146
  742SOL     OW 2224   0.917   1.754   2.282  0.1383 -0.0424 -0.0979
  742SOL    HW1 2225   0.920   1.855   2.258 -3.4150 -1.3343 -0.2117
  742SOL    HW2 2226   0.863   1.692   2.219  1.4826 -2.6016  0.4438
  743SOL     OW 2227   0.670   1.230   2.734 -0.3807 -1.0283 -0.0291
  743SOL    HW1 2228   0.764   1.204   2.768 -0.1862  1.5894 -1.2220
  743SOL    HW2 2229   0.618   1.281   2.807 -0.0465  2.9169  3.4805
  744SOL     OW 2230   2.089   2.654   1.209  0.2265  0.6452  0.9332
  744SOL    HW1 2231   2.043   2.674   1.115  0.5832 -0.3517 -4.0097
  744SOL    HW2 2232   2.023   2.606   1.269 -0.0022 -2.6873  1.7550
  745SOL     OW 2233   2.087   1.716   1.486 -0.1664  0.5376  0.0004
  745SOL    HW1 2234   2.138   1.628   1.464 -0.1251 -3.0917 -0.9549
  745SOL    HW2 2235   2.096   1.779   1.406  1.4420 -1.7487  1.5357
  746SOL     OW 2236   2.008   1.003   0.945 -0.3885 -0.1642 -0.3628
  746SOL    HW1 2237   2.079   1.057   0.902  1.0870  0.7752  1.6644
  746SOL    HW2 2238   1.973   1.050   1.027 -0.0407  1.8938 -3.5011
  747SOL     OW 2239   1.656   1.892   0.853  0.1107 -0.1398 -0.2424
  747SOL    HW1 2240   1.720   1.822   0.818 -1.0895 -0.8825  2.1679
  747SOL    HW2 2241   1.563   1.885   0.813 -1.6272  1.9774 -1.5105
  748SOL     OW 2242   0.397   1.455   0.616 -0.0613  0.1732  0.7914
  748SOL    HW1 2243   0.476   1.448   0.548 -0.2359  0.4444 -1.4169
  748SOL    HW2 2244   0.337   1.537   0.603  1.0007  0.8868  2.0073
  749SOL     OW 2245   0.021   2.779   2.283  0.4141  0.0012  0.0192
  749SOL    HW1 2246   3.023   2.792   2.339 -1.9497 -1.5591  0.3034
  749SOL    HW2 2247   0.099   2.760   2.345 -1.9808 -0.0996 -0.5778
  750SOL     OW 2248   1.951   0.316   0.970  0.5669 -0.2447  0.1991
  750SOL    HW1 2249   1.956   0.407   0.937  0.5996 -1.8127 -2.4965
  750SOL    HW2 2250   2.026   0.300   1.038 -1.5610  1.8800 -0.1829
  751SOL     OW 2251   2.325   0.021   0.316 -0.1980 -0.2893  0.6926
  751SOL    HW1 2252   2.392   3.044   0.271  1.0390  0.9582  2.1080
  751SOL    HW2 2253   2.331   0.005   0.413  1.9218 -1.5202 -0.1435
  752SOL     OW 2254   2.176   1.991   0.324 -0.2932 -0.3420 -0.3101
  752SOL    HW1 2255   2.079   1.974   0.299  0.7313  0.1050 -1.5684
  752SOL    HW2 2256   2.237   1.957   0.249 -0.0926 -1.6809  0.2982
  753SOL     OW 2257   2.012   1.490   2.482 -0.2632 -0.7915  0.2626
  753SOL    HW1 2258   1.952   1.529   2.411 -1.2249 -0.6541 -1.4544
  753SOL    HW2 2259   1.976   1.507   2.575 -0.0286  1.7071  0.6238
  754SOL     OW 2260   2.580   2.307   1.241  0.5777  0.0722 -0.2874
  754SOL    HW1 2261   2.556   2.256   1.328 -1.0345 -4.8348  0.7609
  754SOL    HW2 2262   2.594   2.405   1.262 -0.1653  3.1725  1.9689
  755SOL     OW 2263   2.109   0.783   1.032  0.4492  0.0915  0.4628
  755SOL    HW1 2264   2.097   0.864   0.977  0.5164 -0.5493  2.5963
  755SOL    HW2 2265   2.152   0.802   1.126 -1.5206  0.5609  2.3862
  756SOL     OW 2266   1.298   1.533   2.843 -0.0523  0.0849  0.1825
  756SOL    HW1 2267   1.279   1.542   2.943  2.3976 -1.2583 -0.1628
  756SOL    HW2 2268   1.395   1.512   2.825  0.7576 -0.2706 -3.6195
  757SOL     OW 2269   1.963   2.883   1.455 -0.2072  0.4093  0.2014
  757SOL    HW1 2270   2.001   2.808   1.512  2.2712  1.2706  1.0734
  757SOL    HW2 2271   2.031   2.958   1.445 -3.8111 -2.6900  1.0952
  758SOL     OW 2272   0.992   2.366   1.270 -0.1660 -1.0550  0.0688
  758SOL    HW1 2273   0.915   2.429   1.245  1.4741  0.8752 -0.0083
  758SOL    HW2 2274   1.085   2.407   1.279  0.9968  1.1961 -0.8928
  759SOL     OW 2275   2.279   1.435   1.160  0.1071  0.2776 -0.1638
  759SOL    HW1 2276   2.204   1.426   1.092  0.5558  0.9256 -2.1588
  759SOL    HW2 2277   2.356   1.486   1.119  0.4268 -5.0520  3.4242
  760SOL     OW 2278   2.044   1.178   1.428 -0.0072  0.1538 -0.4390
  760SOL    HW1 2279   2.095   1.137   1.509  3.2789  0.2939 -2.5384
  760SOL    HW2 2280   2.033   1.278   1.437  0.7648  1.8817  4.4585
  761SOL     OW 2281   2.030   0.046   0.338 -0.0237  0.6459  0.1609
  761SOL    HW1 2282   2.025   0.016   0.436  2.2472 -1.0400 -0.7692
  761SOL    HW2 2283   2.109   0.010   0.285 -1.4128 -0.5769 -1.5225
  762SOL     OW 2284   1.869   1.977   2.916  0.1958  0.3581 -0.3612
  762SOL    HW1 2285   1.927   2.025   2.848  1.3547 -0.2321  1.4637
  762SOL    HW2 2286   1.868   2.037   2.997  1.6070 -0.4308 -1.5991
  763SOL     OW 2287   0.571   0.968   1.337 -0.6544  0.5445 -0.8075
  763SOL    HW1 2288   0.514   1.049   1.326  0.9154 -2.5342  1.7513
  763SOL    HW2 2289   0.669   0.993   1.320 -2.8872  0.5139 -0.6295
  764SOL     OW 2290   2.759   2.377   2.996  0.2965 -0.8224 -0.3286
  764SOL    HW1 2291   2.853   2.356   3.027  0.6632 -0.7709 -2.6981
  764SOL    HW2 2292   2.722   2.311   2.925  1.7868  0.1229 -0.7791
  765SOL     OW 2293   0.766   3.015   2.021  0.2976 -0.1095 -0.6120
  765SOL    HW1 2294   0.815   3.025   1.936  3.2396  0.0999  2.5501
  765SOL    HW2 2295   0.749   0.022   2.060  0.3923 -1.4664 -1.9116
  766SOL     OW 2296   2.885   2.016   2.385 -0.1682 -0.0633  0.3308
  766SOL    HW1 2297   2.807   2.031   2.317 -2.0897  0.8751 -1.7462
  766SOL    HW2 2298   2.958   1.957   2.340 -2.6081  0.2036 -1.6287
  767SOL     OW 2299   3.036   1.485   1.801  0.0755 -0.2275  0.5248
  767SOL    HW1 2300   2.986   1.442   1.878  1.8883 -0.7909 -2.0352
  767SOL    HW2 2301   2.972   1.535   1.742  0.0643 -1.1177 -0.3519
  768SOL     OW 2302   1.207   0.839   2.776  0.5059 -0.0259 -0.0496
  768SOL    HW1 2303   1.180   0.816   2.873 -1.4060  0.6189  2.4287
  768SOL    HW2 2304   1.227   0.753   2.725  3.5308  3.1204 -0.6977
  769SOL     OW 2305   1.964   2.360   0.408 -0.4397 -0.4006 -0.1391
  769SOL    HW1 2306   1.954   2.295   0.486  1.0190 -3.9493  2.6323
  769SOL    HW2 2307   1.912   2.442   0.439  0.9894  0.7334 -0.4974
  770SOL     OW 2308   2.851   0.171   3.077  0.0354  0.4247 -0.0394
  770SOL    HW1 2309   2.801   0.256   3.049  1.0233  0.5521 -0.9561
  770SOL    HW2 2310   2.780   0.102   0.022 -3.1734  0.0954 -0.2799
  771SOL     OW 2311   1.226   2.304   1.898  0.3092  0.2434 -0.1855
  771SOL    HW1 2312   1.177   2.391   1.931 -0.1242 -0.2901  0.6161
  771SOL    HW2 2313   1.228   2.299   1.799  0.9233  1.6849  0.5126
  772SOL     OW 2314   0.752   0.445   2.843  0.6579  0.2442  0.3811
  772SOL    HW1 2315   0.794   0.510   2.776  1.8769 -2.8061 -2.9110
  772SOL    HW2 2316   0.703   0.366   2.792 -2.2419 -0.6563 -0.2497
  773SOL     OW 2317   2.779   0.962   1.524  1.2152 -0.0046 -0.6200
  773SOL    HW1 2318   2.696   1.007   1.484 -0.8046 -1.2320 -0.6191
  773SOL    HW2 2319   2.767   0.957   1.623  0.7395  1.9775 -3.3508
  774SOL     OW 2320   1.700   1.045   0.341 -0.2072  0.1980 -0.5330
  774SOL    HW1 2321   1.625   1.105   0.385 -2.4454  0.4955  0.0640
  774SOL    HW2 2322   1.772   1.105   0.293 -1.1899  2.9061 -0.9126
  775SOL     OW 2323   2.388   2.859   0.127  0.3579 -0.6645 -0.2014
  775SOL    HW1 2324   2.419   2.879   0.031 -1.0401 -0.2548  0.4617
  775SOL    HW2 2325   2.289   2.889   0.140  1.4871 -1.3051 -1.3901
  776SOL     OW 2326   2.655   0.915   2.315 -0.5051 -0.1269 -0.5910
  776SOL    HW1 2327   2.741   0.868   2.290 -0.3656  1.1213 -3.2515
  776SOL    HW2 2328   2.640   0.987   2.245  1.6935  1.8592  1.6318
  777SOL     OW 2329   0.217   1.272   2.565  0.6439 -0.4158  0.1049
  777SOL    HW1 2330   0.309   1.233   2.585  2.3479  1.3617  2.1301
  777SOL    HW2 2331   0.200   1.274   2.464  1.2198  2.4626 -1.7294
  778SOL     OW 2332   0.659   0.122   0.410 -0.8770 -0.1159 -0.0138
  778SOL    HW1 2333   0.749   0.100   0.449 -2.3346  0.8693 -1.0532
  778SOL    HW2 2334   0.599   0.040   0.393  0.1521 -0.5290 -2.2689
  779SOL     OW 2335   0.784   0.944   2.665 -0.1528 -0.0759 -0.3724
  779SOL    HW1 2336   0.861   1.010   2.683  0.2758 -0.1707  1.0245
  779SOL    HW2 2337   0.757   0.891   2.748  1.3645  1.5396 -0.7012
  780SOL     OW 2338   1.980   0.916   2.297 -0.0938 -0.2530 -0.3127
  780SOL    HW1 2339   2.011   0.887   2.391  0.9649 -1.5436  1.3521
  780SOL    HW2 2340   1.882   0.882   2.287  0.4203 -0.3038 -0.5006
  781SOL     OW 2341   2.886   1.048   1.800 -0.4196 -0.3978 -0.0738
  781SOL    HW1 2342   2.957   1.062   1.725  3.1850  0.4171 -0.3081
  781SOL    HW2 2343   2.923   1.090   1.887  0.4613  1.1001  1.7175
  782SOL     OW 2344   0.894   2.020   2.215 -0.0746 -0.3275  0.0744
  782SOL    HW1 2345   0.979   2.047   2.165 -1.5678 -0.2965 -1.5185
  782SOL    HW2 2346   0.883   2.059   2.309 -0.5256 -0.4434  1.4852
  783SOL     OW 2347   0.528   2.521   1.413  0.4649 -0.3824  0.0397
  783SOL    HW1 2348   0.520   2.489   1.512  0.2602 -0.2595  0.9006
  783SOL    HW2 2349   0.621   2.538   1.384 -3.3915 -1.6927 -2.2121
  784SOL     OW 2350   1.203   0.364   2.889  0.6249 -0.2777  0.0651
  784SOL    HW1 2351   1.253   0.281   2.862  0.5577 -0.7610 -2.2820
  784SOL    HW2 2352   1.238   0.442   2.834 -3.2386  1.4420 -0.6742
  785SOL     OW 2353   1.006   0.368   2.664 -0.3122  0.0990 -0.5550
  785SOL    HW1 2354   1.089   0.352   2.724  5.2690 -0.6262  0.1377
  785SOL    HW2 2355   1.034   0.360   2.565  1.2447  1.1699 -0.3013
  786SOL     OW 2356   0.279   1.676   0.472  0.4460  0.1689 -0.2614
  786SOL    HW1 2357   0.243   1.591   0.426  1.4322  0.7035 -0.6129
  786SOL    HW2 2358   0.375   1.697   0.444  0.8936  2.5690  1.1448
  787SOL     OW 2359   1.863   1.411   0.363 -0.4946  0.0421  0.4438
  787SOL    HW1 2360   1.927   1.486   0.337 -2.8624  0.8146  0.7105
  787SOL    HW2 2361   1.775   1.449   0.401 -1.3050  2.6831  1.9246
  788SOL     OW 2362   1.795   1.710   1.478 -0.3048 -0.5700 -0.1713
  788SOL    HW1 2363   1.732   1.759   1.413 -0.7815  1.8886 -2.4846
  788SOL    HW2 2364   1.894   1.735   1.469  1.4658  2.0332 -3.9544
  789SOL     OW 2365   0.282   1.325   1.970 -0.1890  0.0474  0.6200
  789SOL    HW1 2366   0.232   1.417   1.959  1.4025  2.1988  0.6020
  789SOL    HW2 2367   0.369   1.341   2.015 -3.6545 -0.3256  2.4365
  790SOL     OW 2368   0.586   2.613   0.324  0.0953 -0.4311  0.0189
  790SOL    HW1 2369   0.499   2.618   0.377 -0.2670  1.8744 -0.6780
  790SOL    HW2 2370   0.558   2.595   0.225 -0.8288 -1.6999 -1.5458
  791SOL     OW 2371   0.561   0.266   2.727  0.0083  0.4665 -0.0052
  791SOL    HW1 2372   0.502   0.335   2.766  0.3220 -0.7082  0.6088
  791SOL    HW2 2373   0.509   0.186   2.701  0.5012 -0.2583 -0.6126
  792SOL     OW 2374   2.132   0.454   2.373  0.2834 -0.3780  0.6537
  792SOL    HW1 2375   2.036   0.459   2.397  3.0086 -1.3776 -2.6622
  792SOL    HW2 2376   2.195   0.453   2.452 -2.5007 -0.7787 -3.0432
  793SOL     OW 2377   0.416   0.707   1.009  0.5765  0.3490 -0.4334
  793SOL    HW1 2378   0.456   0.632   0.952  0.3540  2.3650 -1.9739
  793SOL    HW2 2379   0.466   0.708   1.099 -1.1483  0.4115 -1.6471
  794SOL     OW 2380   0.594   0.308   1.840  0.5448  0.3373 -0.0013
  794SOL    HW1 2381   0.672   0.287   1.778 -1.1133  1.7324 -1.1419
  794SOL    HW2 2382   0.516   0.334   1.783  2.0506 -0.0580 -1.5390
  795SOL     OW 2383   0.037   1.430   0.093  0.0749  0.5283 -0.1648
  795SOL    HW1 2384   0.060   1.327   0.103  1.6606 -2.6054  3.2559
  795SOL    HW2 2385   3.026   1.442   0.084  1.9708 -1.1483 -1.9170
  796SOL     OW 2386   3.083   0.271   0.026 -0.7257  0.4235 -0.3254
  796SOL    HW1 2387   2.987   0.241   0.002 -1.8730 -1.1390  1.6147
  796SOL    HW2 2388   0.065   0.195   0.025  1.5972  0.5090 -0.0714
  797SOL     OW 2389   1.471   2.517   2.709 -1.2979 -0.1481 -0.2101
  797SOL    HW1 2390   1.395   2.582   2.707  0.7768 -0.2695  1.4757
  797SOL    HW2 2391   1.443   2.436   2.760  1.6488  1.4990 -0.1799
  798SOL     OW 2392   2.896   0.541   0.835 -0.0864  0.0204 -0.9247
  798SOL    HW1 2393   2.838   0.587   0.763  3.0435  1.7074 -2.0468
  798SOL    HW2 2394   2.992   0.576   0.844  0.3712 -0.7086  0.2626
  799SOL     OW 2395   2.278   0.726   2.385 -0.0082 -0.1307  0.3136
  799SOL    HW1 2396   2.224   0.643   2.359 -0.3448 -0.0478  2.5917
  799SOL    HW2 2397   2.343   0.711   2.464  0.6340  0.5592 -0.4633
  800SOL     OW 2398   0.179   2.134   0.326 -0.1628 -0.1553 -0.4573
  800SOL    HW1 2399   0.105   2.142   0.393 -2.6789 -0.6953 -0.4477
  800SOL    HW2 2400   0.174   2.043   0.289  2.1861  3.3332 -1.4414
  801SOL     OW 2401   1.343   1.448   1.073  0.2853 -0.0819 -0.1164
  801SOL    HW1 2402   1.388   1.395   1.148 -0.2423 -1.0850  0.7421
  801SOL    HW2 2403   1.368   1.415   0.982  1.3122  0.9056  1.9890
  802SOL     OW 2404   1.268   1.511   2.394  0.5740 -0.7119  0.0184
  802SOL    HW1 2405   1.270   1.592   2.324  3.0564  1.8697 -2.4933
  802SOL    HW2 2406   1.170   1.491   2.416 -2.3883 -0.3353  0.4112
  803SOL     OW 2407   0.153   2.007   0.979 -0.2142  0.0201 -0.0886
  803SOL    HW1 2408   0.192   2.000   1.071 -0.1272  0.7320 -2.3611
  803SOL    HW2 2409   0.209   1.947   0.918  1.5899  1.9500  2.3201
  804SOL     OW 2410   1.204   2.531   1.285 -0.1101  0.2795 -0.0141
  804SOL    HW1 2411   1.179   2.621   1.241 -0.1537  0.8914 -1.0554
  804SOL    HW2 2412   1.196   2.541   1.388  0.6809  0.7450  0.5900
  805SOL     OW 2413   2.120   1.623   0.075  0.1698  1.0579  0.3687
  805SOL    HW1 2414   2.191   1.696   0.050  2.1431 -0.5859  0.3846
  805SOL    HW2 2415   2.125   1.542   0.012 -0.0747 -0.2362 -0.9068
  806SOL     OW 2416   1.989   2.710   0.975  0.1052 -0.3634 -0.1385
  806SOL    HW1 2417   2.016   2.789   0.913  0.5083 -1.1120 -2.6234
  806SOL    HW2 2418   1.989   2.628   0.918 -0.9275 -0.4505 -0.7197
  807SOL     OW 2419   0.022   0.492   2.718 -0.0251  0.2897  0.1911
  807SOL    HW1 2420   0.028   0.482   2.618 -1.0675  0.9063  1.2820
  807SOL    HW2 2421   0.096   0.551   2.744  1.3002 -3.3675 -0.6214
  808SOL     OW 2422   0.422   1.135   0.323 -0.7191  0.3942  0.0610
  808SOL    HW1 2423   0.481   1.205   0.282  0.9082  0.1101  1.3352
  808SOL    HW2 2424   0.484   1.063   0.358 -1.1078  1.2575  0.4196
  809SOL     OW 2425   2.540   1.064   1.878  0.2924  0.7484 -0.1777
  809SOL    HW1 2426   2.437   1.057   1.878 -0.5989 -1.4660  0.4114
  809SOL    HW2 2427   2.585   0.986   1.837  2.0634 -0.4156  1.2058
  810SOL     OW 2428   1.177   0.507   1.391  0.0989 -0.0808 -0.2733
  810SOL    HW1 2429   1.174   0.446   1.311 -0.0473 -1.1004 -0.5929
  810SOL    HW2 2430   1.261   0.489   1.445 -0.4399  0.8244 -0.0696
  811SOL     OW 2431   2.046   3.078   1.837 -0.4003 -0.2801 -0.1978
  811SOL    HW1 2432   2.074   0.066   1.774  3.4801  0.1098  0.2158
  811SOL    HW2 2433   1.951   3.043   1.820  3.5206 -1.0772 -0.4329
  812SOL     OW 2434   1.369   2.392   0.006 -0.1041 -0.4052  0.0328
  812SOL    HW1 2435   1.327   2.351   0.092  2.3309 -1.7771 -1.2561
  812SOL    HW2 2436   1.460   2.430   0.023 -2.2098  0.7097  0.5983
  813SOL     OW 2437   1.794   0.738   1.685  0.9652  0.6181 -0.3483
  813SOL    HW1 2438   1.725   0.664   1.700 -0.7059 -0.1562  0.1209
  813SOL    HW2 2439   1.866   0.713   1.616  0.4911 -1.1263 -1.1766
  814SOL     OW 2440   0.798   0.258   1.677 -0.0432 -0.0541  0.5145
  814SOL    HW1 2441   0.811   0.328   1.598  4.7765  3.1107 -3.3802
  814SOL    HW2 2442   0.888   0.227   1.706  2.7096  1.6648 -0.0371
  815SOL     OW 2443   0.711   0.802   0.252 -0.1021 -0.7375  0.2531
  815SOL    HW1 2444   0.773   0.803   0.175  1.2604 -0.7667 -0.7679
  815SOL    HW2 2445   0.724   0.878   0.316 -1.1513 -0.0413 -1.2427
  816SOL     OW 2446   2.391   1.530   2.683  0.1829  0.3250 -0.2782
  816SOL    HW1 2447   2.340   1.602   2.626  1.1466  1.6293  1.1646
  816SOL    HW2 2448   2.489   1.530   2.659  3.1477  1.4616 -0.8653
  817SOL     OW 2449   0.847   2.446   0.299  0.3045  0.0539 -0.7263
  817SOL    HW1 2450   0.784   2.383   0.351 -0.2714 -1.9164 -1.0190
  817SOL    HW2 2451   0.809   2.542   0.302 -0.3188  2.7347  1.1041
  818SOL     OW 2452   1.599   0.303   3.024 -0.2571 -0.1539  0.0332
  818SOL    HW1 2453   1.683   0.365   3.034  0.2522 -0.6048  0.7693
  818SOL    HW2 2454   1.624   0.229   2.958  1.3411 -0.6858  1.2051
  819SOL     OW 2455   1.422   0.357   0.141  0.7013 -0.1105  0.1928
  819SOL    HW1 2456   1.466   0.329   0.056  0.8121  1.7804  0.8301
  819SOL    HW2 2457   1.334   0.303   0.148 -1.1788  1.1498  1.5072
  820SOL     OW 2458   1.869   0.424   0.001 -0.1754  0.5880 -0.2815
  820SOL    HW1 2459   1.906   0.395   0.094 -1.4005  0.9565  1.4117
  820SOL    HW2 2460   1.877   0.519   3.078  2.6620 -3.7457 -0.0134
  821SOL     OW 2461   2.604   3.042   0.255  0.2418  0.0006 -0.2434
  821SOL    HW1 2462   2.648   2.957   0.228 -0.1394 -0.2309 -3.0234
  821SOL    HW2 2463   2.651   0.006   0.328 -0.6203 -0.8353 -0.5180
  822SOL     OW 2464   0.581   2.438   1.678 -0.9822  0.2975 -0.2022
  822SOL    HW1 2465   0.628   2.515   1.727  0.4001  1.1125 -1.1129
  822SOL    HW2 2466   0.643   2.362   1.664  1.0170 -1.1367  2.1423
  823SOL     OW 2467   0.114   1.455   1.429  0.0544 -0.3370  0.5838
  823SOL    HW1 2468   0.059   1.539   1.445  0.5777  1.0940 -3.1969
  823SOL    HW2 2469   0.099   1.388   1.505  1.1959  1.9500  0.9862
  824SOL     OW 2470   1.482   2.952   2.493  0.0469 -0.2715 -0.1733
  824SOL    HW1 2471   1.524   2.867   2.464  1.3396  1.2785 -2.7133
  824SOL    HW2 2472   1.498   2.980   2.588  0.7998  1.0049  0.6325
  825SOL     OW 2473   1.769   1.147   0.697  0.1413 -0.6136 -0.0819
  825SOL    HW1 2474   1.799   1.101   0.783  3.8399  0.6834  2.2864
  825SOL    HW2 2475   1.670   1.129   0.682  0.0764 -2.6100  1.3634
  826SOL     OW 2476   1.831   0.734   0.022  0.1446  0.6347 -0.0669
  826SOL    HW1 2477   1.927   0.767   0.029 -2.0122  1.8088 -0.3929
  826SOL    HW2 2478   1.766   0.811   0.008 -0.3651 -2.0165  0.5401
  827SOL     OW 2479   0.545   1.404   1.590 -0.5334 -0.5926  0.6242
  827SOL    HW1 2480   0.536   1.301   1.599  1.4070  1.9503 -1.1474
  827SOL    HW2 2481   0.470   1.431   1.523 -1.1122  0.1575 -2.5928
  828SOL     OW 2482   2.262   1.624   1.861 -0.3917  0.4872  0.1017
  828SOL    HW1 2483   2.307   1.713   1.834  1.9726 -1.5424  0.8483
  828SOL    HW2 2484   2.165   1.635   1.842  4.2902  0.4712  1.7811
  829SOL     OW 2485   0.206   1.884   0.128 -0.1721 -0.8158  0.0205
  829SOL    HW1 2486   0.122   1.841   0.163 -0.9415  0.8039  0.9556
  829SOL    HW2 2487   0.229   1.849   0.033 -0.4636  0.4627 -0.5860
  830SOL     OW 2488   1.951   1.082   0.507  0.3663  0.0156  0.2806
  830SOL    HW1 2489   1.877   1.129   0.557 -2.4520 -0.7005  1.0966
  830SOL    HW2 2490   1.925   1.074   0.407 -1.3366 -2.8737 -3.3159
  831SOL     OW 2491   2.928   2.004   3.068 -0.2107  0.3568  0.4650
  831SOL    HW1 2492   2.983   2.021   2.984  0.6313 -2.3269  2.6735
  831SOL    HW2 2493   2.940   2.076   0.055 -1.6974  3.4091  0.8636
  832SOL     OW 2494   0.893   0.070   0.512  0.1992  0.3729  0.5948
  832SOL    HW1 2495   0.941   0.014   0.435  0.0035 -1.8108 -2.7043
  832SOL    HW2 2496   0.953   0.150   0.536  0.8619  1.9276 -0.2506
  833SOL     OW 2497   0.855   0.586   2.078  0.1246  0.8598  0.4010
  833SOL    HW1 2498   0.760   0.592   2.041  0.2311  0.7061 -2.6047
  833SOL    HW2 2499   0.903   0.521   2.014 -0.2176  1.1640 -3.9392
  834SOL     OW 2500   0.097   0.362   0.958  0.0871 -0.4804  0.4198
  834SOL    HW1 2501   0.191   0.338   0.918  1.7653  0.2852 -2.2900
  834SOL    HW2 2502   0.071   0.461   0.938  1.2243 -0.4067  1.2840
  835SOL     OW 2503   2.956   2.726   0.964 -0.2005 -0.2646  0.1929
  835SOL    HW1 2504   2.862   2.696   0.961  1.5167 -0.0943 -0.6046
  835SOL    HW2 2505   2.949   2.803   1.033  3.2125 -1.1548  0.4986
  836SOL     OW 2506   0.473   1.819   0.174 -0.2074 -0.1946 -0.7557
  836SOL    HW1 2507   0.379   1.852   0.193  1.0945  0.3247 -0.8837
  836SOL    HW2 2508   0.515   1.776   0.257 -1.0409  0.0652 -1.7669
  837SOL     OW 2509   1.562   1.543   2.790 -0.4810  0.4601  0.4555
  837SOL    HW1 2510   1.615   1.629   2.783 -0.5020 -2.0816  0.3389
  837SOL    HW2 2511   1.550   1.510   2.693 -0.7948  0.9343  0.5257
  838SOL     OW 2512   0.191   1.071   1.950 -0.0286 -0.2477 -0.1079
  838SOL    HW1 2513   0.139   1.063   2.035  0.5288  1.2278 -0.1281
  838SOL    HW2 2514   0.225   1.165   1.951 -2.1218 -1.5877 -2.1111
  839SOL     OW 2515   0.316   0.900   0.736 -0.1116  0.0136 -0.8192
  839SOL    HW1 2516   0.397   0.911   0.796 -2.1626  3.9259 -1.8639
  839SOL    HW2 2517   0.241   0.949   0.785  0.1252  0.3371  0.2464
  840SOL     OW 2518   2.405   3.078   2.407  0.3758 -0.3787  0.5150
  840SOL    HW1 2519   2.476   3.015   2.367  1.1586 -0.6702 -2.2498
  840SOL    HW2 2520   2.438   0.086   2.424  1.7504  2.2785  2.6126
  841SOL     OW 2521   0.822   2.276   0.085 -0.0906 -0.1658 -0.5120
  841SOL    HW1 2522   0.850   2.343   0.157 -3.8748  0.2671 -0.1887
  841SOL    HW2 2523   0.863   2.293   3.081 -0.5472 -1.1873 -1.0983
  842SOL     OW 2524   0.334   0.246   0.826  0.0426 -0.3862 -0.4278
  842SOL    HW1 2525   0.414   0.211   0.775 -1.2638 -1.7225 -0.0242
  842SOL    HW2 2526   0.266   0.170   0.833 -1.0864 -3.3166 -1.5166
  843SOL     OW 2527   0.127   0.964   0.256  0.6256  0.2074 -0.1081
  843SOL    HW1 2528   0.170   0.988   0.344 -2.1913 -0.6963  1.9920
  843SOL    HW2 2529   0.068   1.041   0.224  1.3072  1.2801  0.9155
  844SOL     OW 2530   0.948   2.547   2.953 -0.1497 -0.6489  0.4575
  844SOL    HW1 2531   0.950   2.449   2.927  0.5696  1.2622  0.5460
  844SOL    HW2 2532   1.045   2.568   2.986 -0.8235 -0.7892 -0.5427
  845SOL     OW 2533   2.573   3.005   2.614  0.0586 -0.0883 -0.5656
  845SOL    HW1 2534   2.669   3.035   2.641  2.2392 -0.1669  0.8945
  845SOL    HW2 2535   2.504   3.079   2.612  1.1574 -2.5473  1.6077
  846SOL     OW 2536   2.071   1.743   2.804  0.1142  0.4672 -0.7268
  846SOL    HW1 2537   2.032   1.648   2.788 -0.4906 -1.0953  0.2954
  846SOL    HW2 2538   2.148   1.746   2.868 -1.3003  1.8401 -0.9709
  847SOL     OW 2539   2.592   0.071   3.080  0.4347 -0.1531 -0.3808
  847SOL    HW1 2540   2.538   0.145   3.033 -1.0558  0.9092 -1.6252
  847SOL    HW2 2541   2.558   0.046   0.088 -0.6036 -0.5290 -1.6740
  848SOL     OW 2542   0.648   0.389   0.430 -0.4795 -0.3241 -0.0426
  848SOL    HW1 2543   0.645   0.434   0.521 -0.4569 -0.3175 -0.0411
  848SOL    HW2 2544   0.652   0.286   0.435 -0.2671 -3.2758 -0.0411
  849SOL     OW 2545   1.199   2.779   1.720 -0.4222  0.0400 -0.0194
  849SOL    HW1 2546   1.295   2.765   1.767  2.7480 -0.2329  3.6803
  849SOL    HW2 2547   1.128   2.805   1.783  3.0642 -3.0387 -1.8061
  850SOL     OW 2548   0.753   1.239   0.526  0.2996  0.5511  0.0552
  850SOL    HW1 2549   0.852   1.205   0.522 -1.5993  0.3844  0.4125
  850SOL    HW2 2550   0.695   1.205   0.608 -2.3883  0.2253  2.2249
  851SOL     OW 2551   0.416   1.154   3.037  0.0159 -0.1525  0.4021
  851SOL    HW1 2552   0.351   1.082   3.063  0.1712  4.1674  0.6655
  851SOL    HW2 2553   0.477   1.171   0.032  1.0901 -2.2925 -0.0945
  852SOL     OW 2554   1.262   0.014   1.723 -0.3024  0.3960 -0.6188
  852SOL    HW1 2555   1.238   3.075   1.819  0.7135 -1.4442 -0.4955
  852SOL    HW2 2556   1.365   0.034   1.717  2.0387  2.9841 -1.6912
  853SOL     OW 2557   2.685   1.611   0.175  0.4203  0.3806  0.2643
  853SOL    HW1 2558   2.638   1.613   0.084  1.3035  0.4183 -2.1732
  853SOL    HW2 2559   2.724   1.704   0.191  1.5458 -1.5015 -0.2845
  854SOL     OW 2560   1.006   1.139   1.897  0.2224  0.8985  0.2978
  854SOL    HW1 2561   0.929   1.079   1.869  0.5862 -0.3585  0.9661
  854SOL    HW2 2562   1.080   1.134   1.827 -1.7422  0.4044  1.5715
  855SOL     OW 2563   0.205   2.630   0.198  0.1780 -0.3737 -0.7543
  855SOL    HW1 2564   0.179   2.662   0.104  1.1746 -0.9577  0.6890
  855SOL    HW2 2565   0.236   2.537   0.193  0.2963 -1.5119 -0.4535
  856SOL     OW 2566   0.839   0.915   1.812 -0.7378  0.4340 -0.2607
  856SOL    HW1 2567   0.918   0.862   1.769  0.6904  0.2872 -4.3218
  856SOL    HW2 2568   0.804   0.882   1.904 -0.7747 -0.8768  0.9950
  857SOL     OW 2569   1.305   0.860   2.406  0.2227  0.5225  0.7314
  857SOL    HW1 2570   1.276   0.887   2.311 -2.0593  0.6650 -1.9407
  857SOL    HW2 2571   1.310   0.948   2.459 -0.8816  0.3661  0.5962
  858SOL     OW 2572   0.159   1.288   2.299  0.0604 -0.1959 -0.5132
  858SOL    HW1 2573   0.174   1.383   2.256  0.6170 -1.4173 -3.0745
  858SOL    HW2 2574   0.227   1.220   2.263  0.8619  0.2572 -1.8014
  859SOL     OW 2575   2.715   0.332   0.870 -0.6118  0.3905  0.2363
  859SOL    HW1 2576   2.634   0.392   0.869 -0.3071 -0.5838 -1.6809
  859SOL    HW2 2577   2.792   0.396   0.863  1.4451  0.6729 -0.6082
  860SOL     OW 2578   1.811   0.063   0.178  0.9083  0.1379  0.4959
  860SOL    HW1 2579   1.756   0.150   0.201  0.8987  3.0879 -4.2990
  860SOL    HW2 2580   1.881   0.055   0.251 -1.8474 -0.0031  1.0064
  861SOL     OW 2581   0.853   0.498   1.034  0.2259  0.1952 -0.4041
  861SOL    HW1 2582   0.851   0.457   0.943  2.0241  1.9244  0.0530
  861SOL    HW2 2583   0.909   0.581   1.038  0.7024  0.7653  0.3469
  862SOL     OW 2584   1.256   0.194   2.364  0.0413 -0.3748 -0.1426
  862SOL    HW1 2585   1.254   0.092   2.372 -0.5279 -0.8051 -1.2251
  862SOL    HW2 2586   1.293   0.219   2.268  1.3993  1.8225 -0.1654
  863SOL     OW 2587   2.330   2.332   0.632  0.2012 -0.0540  0.0279
  863SOL    HW1 2588   2.344   2.399   0.557  1.4106 -0.8463  0.5954
  863SOL    HW2 2589   2.405   2.266   0.630 -1.2312  0.7654  0.5543
  864SOL     OW 2590   2.716   3.052   1.946 -0.3862 -0.2709  0.5305
  864SOL    HW1 2591   2.780   0.047   1.964  2.1296 -0.8616 -3.8808
  864SOL    HW2 2592   2.647   3.082   1.873 -0.0792 -1.0535 -1.1160
  865SOL     OW 2593   1.560   0.620   1.786 -0.1359  0.1358  0.2548
  865SOL    HW1 2594   1.468   0.656   1.754 -1.2270  1.0982 -1.5118
  865SOL    HW2 2595   1.556   0.598   1.886 -1.5574  1.2144  0.7985
  866SOL     OW 2596   1.427   2.424   1.186  0.3934 -0.3161 -0.9045
  866SOL    HW1 2597   1.350   2.482   1.220 -0.3004 -0.1973 -0.7209
  866SOL    HW2 2598   1.477   2.486   1.119  0.5726 -1.7920 -1.2024
  867SOL     OW 2599   2.314   2.727   0.377  0.0255  0.0290  0.2160
  867SOL    HW1 2600   2.214   2.733   0.373 -0.2715 -0.4124  2.0108
  867SOL    HW2 2601   2.356   2.771   0.296 -1.7345  2.4093  1.8979
  868SOL     OW 2602   0.435   2.139   1.643  0.1044 -0.4430  0.4977
  868SOL    HW1 2603   0.415   2.141   1.542 -1.3978  0.6823 -0.7559
  868SOL    HW2 2604   0.346   2.162   1.689 -0.3292  2.8118  0.1158
  869SOL     OW 2605   2.111   2.315   2.434  0.6688 -0.0237  0.2779
  869SOL    HW1 2606   2.114   2.385   2.513  1.7068  1.5987  0.8766
  869SOL    HW2 2607   2.194   2.321   2.372 -0.6400  3.1004  0.4120
  870SOL     OW 2608   1.618   1.522   0.746  0.0008  0.6246 -0.0792
  870SOL    HW1 2609   1.705   1.577   0.730  0.6021 -0.2547 -0.2171
  870SOL    HW2 2610   1.631   1.444   0.807  2.2109  1.1169  0.5076
  871SOL     OW 2611   0.376   1.463   1.394 -0.1216 -0.0781  0.0874
  871SOL    HW1 2612   0.413   1.520   1.318 -1.6381  1.6082 -3.1463
  871SOL    HW2 2613   0.275   1.482   1.406 -0.3722  3.1336 -1.5685
  872SOL     OW 2614   0.621   1.535   2.575 -0.1531 -0.0969  0.3676
  872SOL    HW1 2615   0.524   1.526   2.611 -1.3877  1.3751  0.3060
  872SOL    HW2 2616   0.683   1.527   2.655 -3.7782 -1.0503 -1.0432
  873SOL     OW 2617   0.804   1.862   1.730  0.4403 -0.1254  0.3375
  873SOL    HW1 2618   0.886   1.910   1.767  1.3197 -0.4089  1.0228
  873SOL    HW2 2619   0.813   1.763   1.757 -1.3117 -1.4399 -1.1290
  874SOL     OW 2620   0.919   0.691   1.602 -0.3677  0.0747 -0.0179
  874SOL    HW1 2621   0.921   0.589   1.593 -0.3399 -1.5945  0.4342
  874SOL    HW2 2622   1.016   0.732   1.611  4.0034  0.2719  0.8588
  875SOL     OW 2623   2.772   2.854   0.396 -0.4907  0.6515 -0.5306
  875SOL    HW1 2624   2.743   2.814   0.309 -0.7565 -1.0626  0.4760
  875SOL    HW2 2625   2.746   2.797   0.477 -1.3357 -0.6124  0.6207
  876SOL     OW 2626   0.592   1.433   0.435 -0.1000  0.2282  0.2377
  876SOL    HW1 2627   0.659   1.358   0.468  0.6527 -1.1873 -0.3601
  876SOL    HW2 2628   0.600   1.444   0.335  1.8842  0.6566  0.4716
  877SOL     OW 2629   2.796   0.121   0.730 -0.2937 -0.4179 -0.2100
  877SOL    HW1 2630   2.891   0.139   0.692  0.9007  1.1552  1.2806
  877SOL    HW2 2631   2.775   0.206   0.784 -0.6407 -0.4590 -1.7933
  878SOL     OW 2632   2.125   1.671   0.599 -0.2987 -0.1116  0.7426
  878SOL    HW1 2633   2.088   1.639   0.512  2.1383 -0.3200  0.3688
  878SOL    HW2 2634   2.122   1.598   0.666 -0.4353  3.0355 -0.3817
  879SOL     OW 2635   2.400   1.740   1.241  0.1429  0.0457 -0.5943
  879SOL    HW1 2636   2.426   1.687   1.327 -0.4990 -0.5781  1.7036
  879SOL    HW2 2637   2.461   1.721   1.159  2.2382 -0.0338 -1.2496
  880SOL     OW 2638   0.487   2.446   0.725  0.1081 -0.0628  0.1504
  880SOL    HW1 2639   0.390   2.470   0.696 -0.0480  1.2005  0.5305
  880SOL    HW2 2640   0.537   2.530   0.754 -4.6460 -0.2838 -1.9123
  881SOL     OW 2641   1.035   0.941   0.944  0.3110 -0.0641 -0.1977
  881SOL    HW1 2642   1.048   0.909   0.846  0.9753 -0.9548 -2.9638
  881SOL    HW2 2643   1.099   1.020   0.967  1.8083  1.5927 -1.7459
  882SOL     OW 2644   2.407   1.013   0.597 -0.2629 -0.1941  0.6714
  882SOL    HW1 2645   2.326   1.072   0.593  4.0610 -1.9716  0.3222
  882SOL    HW2 2646   2.403   0.928   0.536  0.7443 -0.6315 -0.4979
  883SOL     OW 2647   1.585   3.044   2.021 -0.4266  0.2008  0.1501
  883SOL    HW1 2648   1.626   3.061   2.115 -0.5510  1.5702  0.3335
  883SOL    HW2 2649   1.519   2.968   2.023 -0.5556  0.9265 -2.2337
  884SOL     OW 2650   2.795   0.105   1.470 -0.1034 -0.5437  0.1954
  884SOL    HW1 2651   2.833   0.164   1.391  1.0897  3.0383 -0.9126
  884SOL    HW2 2652   2.693   0.110   1.478 -0.9209  0.3935  3.3323
  885SOL     OW 2653   1.140   0.701   2.011 -0.9557  0.0248  0.0908
  885SOL    HW1 2654   1.183   0.785   2.041 -1.0171 -1.3014  0.7247
  885SOL    HW2 2655   1.097   0.640   2.080 -0.0988  0.5324  0.0298
  886SOL     OW 2656   1.772   0.470   2.155  0.5136  0.2040  0.1093
  886SOL    HW1 2657   1.785   0.521   2.244  0.8449  0.4023  1.3512
  886SOL    HW2 2658   1.721   0.382   2.176 -0.4799 -0.6915  2.6518
  887SOL     OW 2659   1.583   0.545   1.383  0.3494 -0.9120  0.1521
  887SOL    HW1 2660   1.550   0.505   1.295  0.1451  1.8377 -1.4330
  887SOL    HW2 2661   1.682   0.540   1.394 -1.6221  2.2764  2.0821
  888SOL     OW 2662   2.633   1.638   2.151 -0.1670  0.0312 -0.6359
  888SOL    HW1 2663   2.658   1.651   2.053  3.1910 -1.9410  0.9173
  888SOL    HW2 2664   2.722   1.642   2.203  1.4466 -1.2405  0.5196
  889SOL     OW 2665   1.753   2.155   0.673  0.1742  0.1709  0.9255
  889SOL    HW1 2666   1.734   2.134   0.767 -1.7832  0.1023 -1.3740
  889SOL    HW2 2667   1.849   2.141   0.642 -1.2176  0.4747  1.3919
  890SOL     OW 2668   0.728   1.861   0.616  0.0423  0.1204 -0.1205
  890SOL    HW1 2669   0.762   1.780   0.666  1.2433 -0.5351 -0.6620
  890SOL    HW2 2670   0.676   1.919   0.684  0.6929  0.5269 -0.2773
  891SOL     OW 2671   2.752   0.817   2.811  0.1222 -0.1076 -0.5711
  891SOL    HW1 2672   2.832   0.755   2.830 -0.8916 -0.2933 -1.3226
  891SOL    HW2 2673   2.678   0.802   2.883 -1.0461 -4.8051  0.1459
  892SOL     OW 2674   1.072   0.545   2.252 -0.7897  0.3872 -0.1536
  892SOL    HW1 2675   0.983   0.569   2.205  0.3563 -0.4427 -0.9476
  892SOL    HW2 2676   1.061   0.463   2.315 -3.1789 -0.9352 -0.4156
  893SOL     OW 2677   1.542   0.057   1.045  0.7725  0.0289  0.1109
  893SOL    HW1 2678   1.618   0.124   1.055  0.0805 -2.0905 -1.4162
  893SOL    HW2 2679   1.559   3.081   0.964  1.4098 -0.0908  0.6345
  894SOL     OW 2680   2.736   2.927   0.744 -0.1326 -0.4008 -0.4745
  894SOL    HW1 2681   2.750   3.029   0.750 -1.8690  0.8037 -1.5972
  894SOL    HW2 2682   2.669   2.891   0.817 -0.4714 -2.6335  0.6476
  895SOL     OW 2683   1.702   2.744   3.074  0.0782  0.0777  0.2964
  895SOL    HW1 2684   1.651   2.690   3.001 -0.1376  0.8176 -2.7545
  895SOL    HW2 2685   1.805   2.733   3.059  2.7678 -2.2494  0.0241
  896SOL     OW 2686   2.002   3.044   2.131 -0.2257  0.0489 -0.4432
  896SOL    HW1 2687   2.034   3.045   2.035  0.0925 -0.9008  0.8697
  896SOL    HW2 2688   1.999   0.050   2.172 -0.8075  1.8934  1.4469
  897SOL     OW 2689   0.281   1.776   1.512 -0.1581  0.3208  0.3647
  897SOL    HW1 2690   0.356   1.718   1.552  0.6239 -1.9093 -0.1627
  897SOL    HW2 2691   0.288   1.869   1.545  2.3456 -2.3616  0.7705
  898SOL     OW 2692   2.716   1.710   1.893  0.2009  0.7071 -0.0420
  898SOL    HW1 2693   2.655   1.787   1.858 -1.1383  1.4040  2.3568
  898SOL    HW2 2694   2.732   1.648   1.815  0.2165  0.2725  2.1800
  899SOL     OW 2695   1.541   1.978   1.086  0.2563 -0.1448  0.8164
  899SOL    HW1 2696   1.578   1.972   0.990  0.0572 -2.8970 -1.4562
  899SOL    HW2 2697   1.517   1.881   1.115 -1.5723 -3.5441  0.7123
  900SOL     OW 2698   0.822   0.148   2.739  0.1593  0.3054  0.1389
  900SOL    HW1 2699   0.729   0.196   2.727 -1.9895  2.7560  1.1551
  900SOL    HW2 2700   0.891   0.223   2.718  1.2696  2.7070  1.4007
  901SOL     OW 2701   1.520   1.468   2.516  0.1903 -0.1392  0.0946
  901SOL    HW1 2702   1.423   1.489   2.498  0.7260 -0.1316  4.5162
  901SOL    HW2 2703   1.590   1.517   2.452  2.5133  1.9599 -3.4173
  902SOL     OW 2704   3.020   2.993   2.863 -0.1507 -0.3197 -0.0386
  902SOL    HW1 2705   2.965   2.960   2.942  0.0392 -4.2732 -2.6802
  902SOL    HW2 2706   0.033   2.974   2.877 -2.0968  0.4981 -0.4819
  903SOL     OW 2707   2.179   0.942   2.099 -0.7758 -0.2135 -0.0006
  903SOL    HW1 2708   2.104   0.928   2.167  1.8774 -1.0031 -2.1106
  903SOL    HW2 2709   2.264   0.937   2.153 -0.9390  2.6372 -3.2640
  904SOL     OW 2710   1.416   0.377   2.482 -0.2666 -0.3996  0.3757
  904SOL    HW1 2711   1.480   0.336   2.549 -0.3238 -0.2297  1.7543
  904SOL    HW2 2712   1.346   0.307   2.455 -1.6598  0.0064  0.2585
  905SOL     OW 2713   2.039   2.630   1.583  0.2511 -0.6582 -0.2452
  905SOL    HW1 2714   2.137   2.600   1.562  1.3462  2.0008  1.7708
  905SOL    HW2 2715   2.027   2.651   1.681  1.9364 -1.5192 -0.0009
  906SOL     OW 2716   1.524   1.783   0.447  0.1756 -0.1409 -0.2422
  906SOL    HW1 2717   1.457   1.788   0.372 -0.6982 -1.5144 -0.1036
  906SOL    HW2 2718   1.519   1.873   0.501 -2.5567  0.3368 -1.0461
  907SOL     OW 2719   0.902   2.840   0.547  0.0647  0.3904 -0.0131
  907SOL    HW1 2720   0.925   2.920   0.604 -1.1675 -0.1752 -4.3251
  907SOL    HW2 2721   0.805   2.851   0.520 -0.8227  0.4535  0.8692
  908SOL     OW 2722   1.133   2.532   2.005  0.3291  0.2702 -0.3650
  908SOL    HW1 2723   1.211   2.581   1.954  1.2856  0.1045 -1.6047
  908SOL    HW2 2724   1.043   2.575   1.996  0.5501  2.2108 -0.0079
  909SOL     OW 2725   2.162   0.189   1.979  0.6306  0.1195  0.1195
  909SOL    HW1 2726   2.157   0.094   1.944 -1.1129  0.2142 -0.3095
  909SOL    HW2 2727   2.069   0.224   1.963 -0.8837 -1.9804  0.8311
  910SOL     OW 2728   1.212   1.205   2.977  0.2614  0.1728  0.1463
  910SOL    HW1 2729   1.178   1.132   3.047 -0.1892 -1.2617  2.9988
  910SOL    HW2 2730   1.284   1.253   3.027 -4.9402  0.3345 -3.1565
  911SOL     OW 2731   3.049   1.170   0.159  0.2034  0.7937  0.3960
  911SOL    HW1 2732   2.967   1.217   0.195 -0.4061 -0.0771 -1.4549
  911SOL    HW2 2733   3.032   1.117   0.072  1.1922 -1.6748 -0.8780
  912SOL     OW 2734   0.319   2.308   0.479  0.0792  0.5236  0.2592
  912SOL    HW1 2735   0.261   2.242   0.429 -3.4118 -0.8003  0.4947
  912SOL    HW2 2736   0.390   2.254   0.532  0.1703 -2.0866  0.6577
  913SOL     OW 2737   2.679   2.254   2.404 -0.3352  0.4322 -0.5124
  913SOL    HW1 2738   2.693   2.162   2.361  1.1105  0.0219  4.0376
  913SOL    HW2 2739   2.768   2.286   2.444  2.3712  0.5857 -0.7465
  914SOL     OW 2740   1.242   1.922   1.564  0.2689 -0.3585  0.0805
  914SOL    HW1 2741   1.326   1.965   1.529  2.2526  3.5716 -1.1074
  914SOL    HW2 2742   1.251   1.819   1.560 -0.3668 -0.3528 -0.0650
  915SOL     OW 2743   0.907   2.796   2.197  0.5064  0.1307  0.1506
  915SOL    HW1 2744   0.826   2.834   2.151 -0.4871 -3.6724  1.1995
  915SOL    HW2 2745   0.868   2.739   2.272 -0.5026 -2.0934 -0.0994
  916SOL     OW 2746   0.621   0.700   1.706  0.1973 -0.1100  0.2700
  916SOL    HW1 2747   0.560   0.774   1.737  1.0222 -0.2432 -1.4324
  916SOL    HW2 2748   0.716   0.726   1.682 -2.1697  0.6015  0.5338
  917SOL     OW 2749   2.783   0.482   0.571  0.0200 -0.1148  0.1312
  917SOL    HW1 2750   2.865   0.428   0.596  1.7325 -2.1772  2.4857
  917SOL    HW2 2751   2.738   0.444   0.489 -2.1166  1.4948 -1.3100
  918SOL     OW 2752   1.679   2.554   2.870  0.1300  0.4237 -0.4257
  918SOL    HW1 2753   1.720   2.464   2.893  1.1553 -1.0975 -1.5343
  918SOL    HW2 2754   1.601   2.554   2.802 -0.0885 -2.0507 -1.6953
  919SOL     OW 2755   1.571   2.644   1.617  0.5165  0.6676 -0.0228
  919SOL    HW1 2756   1.586   2.573   1.551 -2.1126  1.2152  2.0099
  919SOL    HW2 2757   1.544   2.733   1.572 -0.6553 -2.1707 -0.0958
  920SOL     OW 2758   0.608   0.765   2.903  0.3094  0.5359  0.0456
  920SOL    HW1 2759   0.580   0.863   2.887  1.1119  2.2133  1.8065
  920SOL    HW2 2760   0.534   0.697   2.878 -0.2929 -1.2513  0.4415
  921SOL     OW 2761   2.963   0.660   2.898 -0.4292 -0.0942 -0.0290
  921SOL    HW1 2762   3.026   0.711   2.959 -0.9063  2.7675  1.3136
  921SOL    HW2 2763   3.013   0.606   2.829  0.6990  0.5965  0.9484
  922SOL     OW 2764   0.310   1.835   0.839  0.2107  0.2249 -0.5474
  922SOL    HW1 2765   0.395   1.849   0.899  0.0849  0.8441  0.1749
  922SOL    HW2 2766   0.334   1.769   0.764  1.1823  2.6794  1.4034
  923SOL     OW 2767   0.661   1.125   1.690  0.0638 -0.1763 -1.2037
  923SOL    HW1 2768   0.713   1.074   1.767 -3.9726  1.1722  1.9911
  923SOL    HW2 2769   0.577   1.071   1.663 -0.4299 -0.1138  0.4562
  924SOL     OW 2770   1.628   0.035   2.924 -0.1680 -0.3386 -0.0631
  924SOL    HW1 2771   1.635   0.014   3.021  0.3503  2.0004 -2.6514
  924SOL    HW2 2772   1.694   3.058   2.875 -1.4083 -0.3752 -1.1619
  925SOL     OW 2773   2.626   1.456   1.362 -0.5806  0.1648 -0.0620
  925SOL    HW1 2774   2.602   1.400   1.281  1.6322 -2.5677  1.8726
  925SOL    HW2 2775   2.667   1.393   1.436  1.0448 -2.4582  0.3519
  926SOL     OW 2776   2.312   0.316   1.358  0.2251 -0.0311  0.0021
  926SOL    HW1 2777   2.295   0.299   1.458  1.6666  0.3275 -1.9692
  926SOL    HW2 2778   2.407   0.342   1.338 -3.2664 -0.3590 -2.1153
  927SOL     OW 2779   1.961   2.975   1.129 -0.7144  0.0104 -0.1734
  927SOL    HW1 2780   1.890   2.962   1.198  0.2984  0.6789 -0.9944
  927SOL    HW2 2781   2.045   2.928   1.162 -1.4136  1.4441 -0.9713
  928SOL     OW 2782   3.009   1.180   2.391  0.1998 -0.6437  0.1504
  928SOL    HW1 2783   3.085   1.230   2.341  2.8830 -1.2708 -0.7543
  928SOL    HW2 2784   3.017   1.080   2.374  2.1214  2.1135  0.0362
  929SOL     OW 2785   2.525   0.971   1.077 -0.6169  0.5334  0.0531
  929SOL    HW1 2786   2.456   0.942   1.005  1.1368 -1.0411 -0.4125
  929SOL    HW2 2787   2.555   0.892   1.126  0.1105 -1.3246 -1.2807
  930SOL     OW 2788   3.008   2.511   2.031 -0.6094 -0.2395  0.6668
  930SOL    HW1 2789   2.994   2.613   2.016  0.6892 -0.7008 -1.1122
  930SOL    HW2 2790   2.958   2.447   1.968 -1.7626 -1.7383 -1.4497
  931SOL     OW 2791   1.848   0.542   1.348 -0.0424  0.0141 -0.3427
  931SOL    HW1 2792   1.848   0.553   1.247  1.0844  0.6558 -0.0130
  931SOL    HW2 2793   1.904   0.617   1.387  1.4802 -1.7764 -1.2141
  932SOL     OW 2794   0.051   1.040   1.706 -0.0436 -0.7059 -0.2748
  932SOL    HW1 2795   0.103   1.031   1.794 -0.3051  0.0875  3.0968
  932SOL    HW2 2796   0.091   1.120   1.659  0.8967 -1.3995  0.1543
  933SOL     OW 2797   2.759   1.998   1.477 -0.1879  0.0071 -0.2785
  933SOL    HW1 2798   2.743   2.091   1.431 -0.1121  1.5306 -1.5777
  933SOL    HW2 2799   2.671   1.946   1.489  0.5862 -1.5711 -3.0642
  934SOL     OW 2800   0.563   1.698   1.378  0.4863 -0.4145 -0.3148
  934SOL    HW1 2801   0.631   1.649   1.433  2.8260  0.3339 -3.5067
  934SOL    HW2 2802   0.549   1.793   1.412  2.1744 -2.1088  1.2748
  935SOL     OW 2803   2.727   1.357   1.574 -0.1709 -0.3823  0.1238
  935SOL    HW1 2804   2.808   1.303   1.539  0.9890  1.8028  0.1067
  935SOL    HW2 2805   2.679   1.314   1.651  1.1147 -0.2526  0.9202
  936SOL     OW 2806   2.417   1.464   1.728  0.2224  0.0804  0.0332
  936SOL    HW1 2807   2.478   1.418   1.797 -1.4538  0.3515  3.1317
  936SOL    HW2 2808   2.354   1.524   1.776 -0.3527  0.4072  0.9676
  937SOL     OW 2809   2.000   0.700   1.512 -0.0648  0.4020  0.0769
  937SOL    HW1 2810   2.071   0.709   1.587  1.1238  2.2067  2.1483
  937SOL    HW2 2811   1.994   0.787   1.457  2.2407 -1.2107 -0.2636
  938SOL     OW 2812   0.519   2.392   2.887 -0.1241 -0.5127 -0.2044
  938SOL    HW1 2813   0.518   2.454   2.971 -0.1667  0.4175  2.9206
  938SOL    HW2 2814   0.572   2.442   2.811  0.9554  1.5373 -1.9482
  939SOL     OW 2815   2.653   1.734   2.602  0.1389  0.3723 -0.2329
  939SOL    HW1 2816   2.757   1.756   2.598  0.8933  1.4862  0.5167
  939SOL    HW2 2817   2.599   1.786   2.525 -1.5668  1.1999 -0.3425
  940SOL     OW 2818   1.480   2.026   0.590 -0.1335  0.6123 -0.0071
  940SOL    HW1 2819   1.394   2.044   0.643 -1.8192 -0.1263 -2.5106
  940SOL    HW2 2820   1.549   2.094   0.616 -0.1380  0.9415  0.6729
  941SOL     OW 2821   1.980   2.670   3.013  0.4350  0.2080  0.0013
  941SOL    HW1 2822   2.035   2.590   3.043  3.6534  1.3390 -0.6157
  941SOL    HW2 2823   1.966   2.661   2.911  0.0984 -0.5874  1.2379
  942SOL     OW 2824   1.562   2.386   0.877 -0.5225 -0.3684 -0.5019
  942SOL    HW1 2825   1.547   2.482   0.910  0.5814  0.7849  0.9476
  942SOL    HW2 2826   1.474   2.343   0.856  0.3619  0.5628 -0.3443
  943SOL     OW 2827   2.155   1.087   1.664 -0.0939  0.1303  0.5498
  943SOL    HW1 2828   2.179   1.084   1.764  1.4892  0.4049 -3.2465
  943SOL    HW2 2829   2.053   1.087   1.653  1.1667 -1.2577 -1.3084
  944SOL     OW 2830   1.534   0.753   2.475 -0.4163  0.3459  0.0527
  944SOL    HW1 2831   1.537   0.662   2.430 -1.3313  1.9654 -1.8623
  944SOL    HW2 2832   1.442   0.796   2.467 -0.7918  0.4780  0.9851
  945SOL     OW 2833   2.773   2.134   1.171  0.5533  0.0818  0.1541
  945SOL    HW1 2834   2.738   2.040   1.168 -1.7114  1.3292  0.2996
  945SOL    HW2 2835   2.683   2.189   1.181 -0.9323 -1.0992 -4.6792
  946SOL     OW 2836   0.527   1.007   2.825  0.4481  0.3451 -0.1047
  946SOL    HW1 2837   0.483   1.052   2.905 -1.9453  1.2793  1.2522
  946SOL    HW2 2838   0.559   1.072   2.755 -2.1771  0.6750 -0.0097
  947SOL     OW 2839   1.796   2.980   1.850 -0.4494 -0.3540 -0.4097
  947SOL    HW1 2840   1.741   2.991   1.934 -3.7529  0.4526  0.2128
  947SOL    HW2 2841   1.854   2.898   1.859 -0.9134  1.6657 -1.0400
  948SOL     OW 2842   0.093   1.605   0.993 -0.2310  0.1982 -0.4108
  948SOL    HW1 2843   0.112   1.698   1.037 -2.6575  3.1320  1.7443
  948SOL    HW2 2844   0.063   1.531   1.063  1.4871 -1.5430  1.1081
  949SOL     OW 2845   1.274   1.098   1.821 -0.2997  0.2559  0.9113
  949SOL    HW1 2846   1.331   1.150   1.756 -0.4591 -0.0538  0.9765
  949SOL    HW2 2847   1.316   1.098   1.914 -0.2228  0.8897  1.5000
  950SOL     OW 2848   0.169   0.768   1.076  0.1962 -0.3116 -0.3080
  950SOL    HW1 2849   0.147   0.861   1.031 -0.5904 -0.0473 -0.3353
  950SOL    HW2 2850   0.265   0.736   1.059 -3.6372  3.0463 -0.0626
  951SOL     OW 2851   0.410   2.000   2.062  0.0045  0.2542 -0.3341
  951SOL    HW1 2852   0.482   1.998   2.133  0.1212  1.2727 -0.9218
  951SOL    HW2 2853   0.453   2.023   1.973 -0.3071  0.7333  0.4396
  952SOL     OW 2854   1.618   1.543   0.381  0.5074  0.5507  0.4150
  952SOL    HW1 2855   1.579   1.629   0.423 -0.5811 -2.1401  0.0592
  952SOL    HW2 2856   1.630   1.542   0.284 -2.1152 -3.3455 -0.7069
  953SOL     OW 2857   1.277   0.636   0.060  0.1763 -0.4462  0.1623
  953SOL    HW1 2858   1.210   0.562   0.077  1.9506  0.1076  2.6201
  953SOL    HW2 2859   1.230   0.713   0.022  1.9310 -0.0676  0.5060
  954SOL     OW 2860   2.202   1.183   0.548 -0.1847 -0.5189  0.1597
  954SOL    HW1 2861   2.226   1.277   0.515  3.6928  0.7750  1.5626
  954SOL    HW2 2862   2.114   1.149   0.504  0.8144 -0.6074 -2.0696
  955SOL     OW 2863   2.596   2.687   2.855  0.1446 -0.5488  0.2892
  955SOL    HW1 2864   2.538   2.693   2.770 -2.0655  0.9449  0.8558
  955SOL    HW2 2865   2.694   2.678   2.826 -0.2231  2.7917 -1.3577
  956SOL     OW 2866   1.174   0.763   1.293 -0.3839  0.3902 -0.4036
  956SOL    HW1 2867   1.253   0.823   1.319 -1.6178  2.3951  2.2349
  956SOL    HW2 2868   1.197   0.666   1.310  0.3614 -1.2017  0.6300
  957SOL     OW 2869   1.672   1.159   1.546 -0.3496  0.2921  0.1766
  957SOL    HW1 2870   1.740   1.099   1.579 -0.3757  1.9759 -1.6946
  957SOL    HW2 2871   1.666   1.239   1.608 -1.4082 -2.5589 -0.1433
  958SOL     OW 2872   0.129   1.865   0.600 -0.1400  0.4072  0.0782
  958SOL    HW1 2873   0.188   1.795   0.554 -0.6504  0.1336  1.6939
  958SOL    HW2 2874   0.187   1.906   0.678 -3.5363 -0.5757 -0.8063
  959SOL     OW 2875   2.042   1.444   1.022 -0.1405  0.0064 -0.1084
  959SOL    HW1 2876   2.026   1.529   1.077 -1.2866  4.9092  1.5167
  959SOL    HW2 2877   2.004   1.361   1.064  0.4611  0.7520  0.7706
  960SOL     OW 2878   0.086   1.317   2.821  0.3726  0.4666  0.4059
  960SOL    HW1 2879   0.102   1.327   2.718  0.5129  1.3895  1.6810
  960SOL    HW2 2880   0.050   1.225   2.844  3.8285  0.9989 -1.6235
  961SOL     OW 2881   1.017   1.441   0.715  0.0337  0.2057 -0.1045
  961SOL    HW1 2882   0.964   1.359   0.744  1.3115  0.1974  0.0353
  961SOL    HW2 2883   0.960   1.522   0.705  0.8862 -1.4466  0.7695
  962SOL     OW 2884   1.028   1.179   0.512 -0.2955  0.0662 -0.2778
  962SOL    HW1 2885   1.028   1.136   0.605  2.1215 -0.4917  2.5415
  962SOL    HW2 2886   1.077   1.270   0.512 -0.1506 -0.2728 -0.2383
  963SOL     OW 2887   1.179   2.035   2.273 -0.7642 -0.1086 -0.4397
  963SOL    HW1 2888   1.280   2.036   2.285  1.0431 -0.1606  2.0583
  963SOL    HW2 2889   1.131   2.097   2.341 -0.9633  0.6870  1.0985
  964SOL     OW 2890   2.861   2.718   2.798  0.5156  0.3276  0.7977
  964SOL    HW1 2891   2.914   2.803   2.796 -1.1644  0.2427  3.8842
  964SOL    HW2 2892   2.926   2.636   2.799  2.0205  1.4979 -1.6588
  965SOL     OW 2893   0.499   2.216   0.215  0.3414  0.0264 -0.4507
  965SOL    HW1 2894   0.525   2.234   0.117 -1.1380  0.4912 -1.9271
  965SOL    HW2 2895   0.412   2.264   0.235 -0.6538 -0.0840  0.0049
  966SOL     OW 2896   0.031   1.802   2.776  0.0425 -0.5401  0.7523
  966SOL    HW1 2897   3.078   1.783   2.868  0.5076 -0.7169  0.9784
  966SOL    HW2 2898   3.042   1.810   2.709  3.8048  1.9515  3.0685
  967SOL     OW 2899   1.940   3.005   3.076 -0.0093  0.5009 -0.4469
  967SOL    HW1 2900   1.869   3.048   0.050  2.2244  0.1597 -1.7731
  967SOL    HW2 2901   2.005   2.941   0.036 -2.0586  1.3059 -1.5169
  968SOL     OW 2902   1.962   2.945   0.549 -0.0333 -0.0688  0.2510
  968SOL    HW1 2903   1.860   2.978   0.545 -1.9217 -0.8855 -1.1275
  968SOL    HW2 2904   1.983   2.918   0.644 -2.4078  0.5875  3.1434
  969SOL     OW 2905   0.755   1.223   2.196 -0.3292  0.2295 -0.4100
  969SOL    HW1 2906   0.835   1.158   2.179  0.2019 -2.0564 -1.8197
  969SOL    HW2 2907   0.763   1.277   2.284 -1.2557 -1.0576 -1.3897
  970SOL     OW 2908   1.616   1.310   0.932 -0.4512 -0.2280 -0.5366
  970SOL    HW1 2909   1.597   1.221   0.978  2.2621  0.0412 -0.0031
  970SOL    HW2 2910   1.676   1.367   0.989 -1.8761 -0.5551  0.8452
  971SOL     OW 2911   2.124   0.144   1.639 -0.1466  0.1663 -0.5626
  971SOL    HW1 2912   2.105   0.245   1.640  1.9700 -0.5614 -0.7089
  971SOL    HW2 2913   2.115   0.097   1.547  1.5641 -0.7901 -0.5872
  972SOL     OW 2914   0.164   3.069   1.537  0.1074  0.4889 -0.3774
  972SOL    HW1 2915   0.240   3.030   1.596  1.0450 -0.4815  0.8076
  972SOL    HW2 2916   0.149   3.014   1.453  0.7963  1.4433 -1.8937
  973SOL     OW 2917   0.235   0.299   2.551  0.0558 -0.1939 -0.6781
  973SOL    HW1 2918   0.159   0.248   2.595 -0.9383 -1.1827 -0.0142
  973SOL    HW2 2919   0.274   0.364   2.623  1.2622  0.7493 -0.1348
  974SOL     OW 2920   2.277   1.201   2.339 -0.4532 -0.2845  0.4860
  974SOL    HW1 2921   2.304   1.104   2.321  1.2195 -0.9346  0.3912
  974SOL    HW2 2922   2.187   1.230   2.294 -0.7528  1.9470 -1.7984
  975SOL     OW 2923   0.494   0.280   1.412  0.7553 -0.2662 -0.0047
  975SOL    HW1 2924   0.487   0.299   1.312  0.4686  0.5045  1.3899
  975SOL    HW2 2925   0.546   0.356   1.457 -2.0443 -2.0132 -0.9448
  976SOL     OW 2926   0.895   2.178   2.453  0.2262  0.2334  0.0593
  976SOL    HW1 2927   0.804   2.210   2.425 -0.9841  1.8329 -0.1133
  976SOL    HW2 2928   0.885   2.101   2.523  1.1498 -1.8589  5.0061
  977SOL     OW 2929   0.524   0.093   0.683  0.7505 -0.5846 -0.7027
  977SOL    HW1 2930   0.499   0.125   0.591 -1.1126  0.0215 -2.0934
  977SOL    HW2 2931   0.519   3.078   0.677  0.2438  2.3605 -0.8021
  978SOL     OW 2932   2.893   1.351   2.003 -0.2243 -0.4271 -0.2887
  978SOL    HW1 2933   2.897   1.260   2.050  0.6721 -0.1307 -1.6938
  978SOL    HW2 2934   2.921   1.422   2.069 -0.1247 -0.8590  1.7687
  979SOL     OW 2935   1.632   3.022   1.650 -0.1976 -0.3947  0.5311
  979SOL    HW1 2936   1.588   0.026   1.680 -4.3668  0.3618 -0.4572
  979SOL    HW2 2937   1.704   2.994   1.717 -0.9704 -1.3782  0.0499
  980SOL     OW 2938   1.426   1.793   1.912 -0.2290 -0.0661  0.0910
  980SOL    HW1 2939   1.325   1.784   1.915 -1.0922 -1.6117  3.2046
  980SOL    HW2 2940   1.465   1.804   2.005 -0.1557  0.1506 -2.0911
  981SOL     OW 2941   2.660   0.804   1.258  0.2273 -0.8747 -0.0829
  981SOL    HW1 2942   2.582   0.824   1.325 -0.0863  0.0790  0.8601
  981SOL    HW2 2943   2.717   0.727   1.298  2.5350  1.3166  2.8102
  982SOL     OW 2944   0.422   0.026   2.677  0.2553  0.2605 -0.1553
  982SOL    HW1 2945   0.480   0.008   2.600 -2.2638  1.0360  2.5103
  982SOL    HW2 2946   0.339   3.052   2.664 -0.9535 -0.2769  1.1568
  983SOL     OW 2947   2.766   0.564   2.452  0.4610  0.4614 -0.5038
  983SOL    HW1 2948   2.713   0.637   2.505 -3.6037  2.6193  1.2498
  983SOL    HW2 2949   2.718   0.550   2.361 -2.1195 -1.0387  0.3128
  984SOL     OW 2950   1.222   3.006   1.975 -0.0011  0.0695  0.0441
  984SOL    HW1 2951   1.288   2.974   2.047 -2.3723  0.1105  0.9212
  984SOL    HW2 2952   1.157   2.931   1.952 -2.4463  2.3530 -3.1872
  985SOL     OW 2953   1.752   1.740   1.998 -0.0438  0.0800 -0.2817
  985SOL    HW1 2954   1.782   1.836   2.024 -0.4292  1.4776  3.4369
  985SOL    HW2 2955   1.661   1.720   2.036  0.8412 -3.2868 -2.8439
  986SOL     OW 2956   2.558   0.408   1.280 -0.4368  0.3643 -0.5018
  986SOL    HW1 2957   2.645   0.466   1.278  1.1936  1.0766 -0.5473
  986SOL    HW2 2958   2.475   0.471   1.287 -0.4091  0.3761  1.0143
  987SOL     OW 2959   2.553   1.095   1.424  0.1318  0.6887 -0.3498
  987SOL    HW1 2960   2.499   1.152   1.483  0.0667 -3.3230 -0.7989
  987SOL    HW2 2961   2.584   1.145   1.342 -1.7520 -2.1666 -0.0528
  988SOL     OW 2962   2.917   1.092   2.099  0.0724 -0.0155 -0.4972
  988SOL    HW1 2963   2.961   1.032   2.170 -1.0235 -0.5579 -2.7794
  988SOL    HW2 2964   2.816   1.079   2.107 -1.2812  0.4192  0.8249
  989SOL     OW 2965   1.437   2.057   0.058 -0.4257  0.3321  0.1182
  989SOL    HW1 2966   1.483   2.127   0.003 -0.4442  0.3789  0.4379
  989SOL    HW2 2967   1.437   1.965   0.013  0.2453 -1.2852 -1.4110
  990SOL     OW 2968   1.403   0.544   2.273  0.3952 -0.3950  0.1427
  990SOL    HW1 2969   1.426   0.477   2.352 -2.3409 -1.0581 -0.3973
  990SOL    HW2 2970   1.301   0.557   2.271 -0.2351 -2.0057  0.4165
  991SOL     OW 2971   1.289   0.759   0.627 -0.1719  0.4801  0.3622
  991SOL    HW1 2972   1.294   0.767   0.732 -0.8562 -4.0085 -0.4471
  991SOL    HW2 2973   1.342   0.834   0.589 -0.9666  0.0845  1.1813
  992SOL     OW 2974   2.473   2.006   0.955  0.1779 -0.1543  0.3241
  992SOL    HW1 2975   2.503   2.101   0.950  0.5184  1.1128  0.0975
  992SOL    HW2 2976   2.375   2.001   0.976  0.7978  1.3652 -2.5055
  993SOL     OW 2977   0.071   0.619   0.887 -0.0195 -0.3013 -0.4384
  993SOL    HW1 2978   0.117   0.671   0.964 -1.4194  1.6087  2.1521
  993SOL    HW2 2979   0.126   0.626   0.805  1.3474 -1.3517  1.4927
  994SOL     OW 2980   0.364   2.095   2.400  0.1544 -0.1391  0.2733
  994SOL    HW1 2981   0.426   2.153   2.346 -2.0500 -1.2066 -0.2265
  994SOL    HW2 2982   0.267   2.105   2.359 -2.7018  0.9988 -1.7466
  995SOL     OW 2983   1.880   1.084   2.756 -0.7728  1.0013  0.1695
  995SOL    HW1 2984   1.796   1.063   2.807  0.8009 -1.4708 -0.0664
  995SOL    HW2 2985   1.858   1.122   2.662  2.4269  0.8284  0.1308
  996SOL     OW 2986   2.765   1.190   0.634  0.5727 -0.0218 -0.5031
  996SOL    HW1 2987   2.722   1.118   0.685  2.2118  0.6736  2.2536
  996SOL    HW2 2988   2.700   1.271   0.635 -0.3405 -2.6514  0.5289
  997SOL     OW 2989   1.622   0.879   2.060  0.0744  0.1377  0.6127
  997SOL    HW1 2990   1.569   0.791   2.056  0.5758 -0.3363  1.0606
  997SOL    HW2 2991   1.701   0.870   1.994 -2.2939  1.2471 -0.1651
  998SOL     OW 2992   2.927   1.889   0.395  0.9104 -0.7266 -0.0076
  998SOL    HW1 2993   2.996   1.962   0.418  0.0955  0.4093  1.0988
  998SOL    HW2 2994   2.880   1.856   0.482 -4.3501  0.5755  1.2942
  999SOL     OW 2995   0.023   2.409   0.181  0.3035 -0.3755 -0.0379
  999SOL    HW1 2996   0.119   2.383   0.180 -2.1882 -2.9600  0.5571
  999SOL    HW2 2997   3.079   2.452   0.269 -2.2143  2.2265 -0.1513
 1000SOL     OW 2998   1.092   0.692   2.483 -0.1545  0.5321  0.3354
 1000SOL    HW1 2999   1.172   0.751   2.478 -0.3874 -2.4076 -0.6722
 1000SOL    HW2 3000   1.085   0.637   2.397  0.1916  0.6873  1.8803
   3.08566   3.08566   3.08566
