1000 SPC/Fw water molecules t= 450.00000 step= 450000
 3000
    1SOL     OW    1   3.035   3.058   1.463  0.2457  0.2926 -0.0755
    1SOL    HW1    2   3.062   3.025   1.367  0.2503  2.6524 -3.1081
    1SOL    HW2    3   3.079   2.991   1.530 -0.0654 -1.5032 -0.9985
    2SOL     OW    4   2.726   0.160   3.108 -0.8516 -1.0019  0.2563
    2SOL    HW1    5   2.810   0.100   3.111 -1.5736 -0.5014  2.3522
    2SOL    HW2    6   2.655   0.125   0.049 -0.1750  2.1404 -0.3857
    3SOL     OW    7   1.295   2.865   0.110  0.1806  0.3644 -0.0167
    3SOL    HW1    8   1.275   2.795   0.039 -1.6380  0.3902  0.6317
    3SOL    HW2    9   1.394   2.851   0.141  3.1125 -3.0564  1.7101
    4SOL     OW   10   1.169   2.732   2.377  0.1130  0.4033 -0.1143
    4SOL    HW1   11   1.261   2.688   2.374  3.2519  1.6170 -3.2884
    4SOL    HW2   12   1.105   2.692   2.447 -0.9534 -0.9524  0.4803
    5SOL     OW   13   2.265   0.372   2.055  0.3050 -0.1596 -0.2405
    5SOL    HW1   14   2.333   0.316   2.009 -1.3983  1.6255 -0.8068
    5SOL    HW2   15   2.300   0.464   2.079  2.7604  0.6510 -0.5304
    6SOL     OW   16   2.581   2.156   1.297  0.2358  0.1136 -0.1300
    6SOL    HW1   17   2.596   2.097   1.212  1.5013  1.4781 -1.3880
    6SOL    HW2   18   2.609   2.253   1.276  0.6938 -0.1418 -1.3676
    7SOL     OW   19   1.244   2.066   0.536  0.2931 -0.3264  0.0598
    7SOL    HW1   20   1.208   2.020   0.618  0.0701 -1.7398  0.4668
    7SOL    HW2   21   1.169   2.131   0.502  0.4146  0.2608  2.1360
    8SOL     OW   22   0.196   0.944   0.694 -0.4061 -0.6563  0.2676
    8SOL    HW1   23   0.225   0.984   0.781 -3.5516 -0.4895 -0.6509
    8SOL    HW2   24   0.268   0.968   0.622  4.9390 -1.7664 -2.5313
    9SOL     OW   25   0.415   3.056   1.580 -0.5019  1.0380  0.1091
    9SOL    HW1   26   0.443   2.968   1.537  0.3719  3.6423 -1.3090
    9SOL    HW2   27   0.336   3.031   1.643 -0.0688 -0.9178 -1.5885
   10SOL     OW   28   1.212   2.406   0.604 -0.2074  0.1750  0.0558
   10SOL    HW1   29   1.167   2.347   0.675  1.4711 -0.7897  0.0084
   10SOL    HW2   30   1.169   2.499   0.602 -1.8641 -1.4436  1.3258
   11SOL     OW   31   2.481   1.261   1.342 -0.2665  0.5122  0.5800
   11SOL    HW1   32   2.448   1.163   1.348  1.7351  0.0250 -1.0300
   11SOL    HW2   33   2.463   1.292   1.249  0.1464  0.2416  3.8492
   12SOL     OW   34   0.151   0.898   2.007 -0.2199  0.1265 -0.3047
   12SOL    HW1   35   0.175   0.905   1.910  0.9753  3.0955  1.9044
   12SOL    HW2   36   0.233   0.872   2.065  1.3706 -0.7928  0.1376
   13SOL     OW   37   2.283   0.162   0.097 -0.3973  0.4760  0.4481
   13SOL    HW1   38   2.258   0.175   0.195 -0.5800 -0.7468  0.8557
   13SOL    HW2   39   2.222   0.090   0.053  1.9567 -0.2040 -2.7657
   14SOL     OW   40   1.502   1.995   0.121  0.2738  0.3158  0.7679
   14SOL    HW1   41   1.568   2.025   0.186 -2.3540 -1.1839 -1.2648
   14SOL    HW2   42   1.428   2.066   0.103 -2.0829  0.9912 -0.7496
   15SOL     OW   43   2.936   2.368   2.199 -0.4678 -0.1443  0.3523
   15SOL    HW1   44   3.022   2.428   2.209  3.9581 -0.8066  0.8222
   15SOL    HW2   45   2.957   2.277   2.158 -0.6599 -0.2772 -0.8538
   16SOL     OW   46   2.789   0.550   1.098 -0.3672  0.5632 -0.3917
   16SOL    HW1   47   2.862   0.520   1.032  0.5058 -0.0707  1.8527
   16SOL    HW2   48   2.796   0.493   1.183 -1.3199 -0.3400  0.6438
   17SOL     OW   49   0.705   0.417   0.870 -0.0440 -0.3003 -0.4985
   17SOL    HW1   50   0.732   0.451   0.964  1.5622 -0.2839 -1.0928
   17SOL    HW2   51   0.787   0.395   0.815  1.7205  1.1845 -1.1743
   18SOL     OW   52   0.383   3.034   0.384 -0.5253 -0.3436  0.5058
   18SOL    HW1   53   0.442   3.074   0.453 -3.2254 -1.5567 -1.1521
   18SOL    HW2   54   0.410   3.051   0.286 -2.4800  2.0271  0.3512
   19SOL     OW   55   1.518   1.023   0.791  0.0217  0.2899 -0.7039
   19SOL    HW1   56   1.449   1.098   0.776 -0.9617  0.6795 -2.4700
   19SOL    HW2   57   1.493   0.986   0.884 -0.3655  1.4127  0.9380
   20SOL     OW   58   2.180   1.900   2.713 -0.2138  0.2365 -0.2322
   20SOL    HW1   59   2.136   1.989   2.718 -3.5792 -2.9151 -1.2763
   20SOL    HW2   60   2.283   1.910   2.708  0.8723  0.3697  0.6986
   21SOL     OW   61   1.357   2.782   0.573 -0.1047 -0.0829  0.0621
   21SOL    HW1   62   1.402   2.692   0.559  3.3592  0.2138 -1.2287
   21SOL    HW2   63   1.407   2.868   0.539  1.8476  0.0721 -1.8406
   22SOL     OW   64   2.433   0.999   0.341 -0.3949  0.0398  0.2508
   22SOL    HW1   65   2.401   0.980   0.436  1.9010  2.3509  0.3827
   22SOL    HW2   66   2.398   1.082   0.299 -0.7083 -2.9467 -0.0051
   23SOL     OW   67   0.780   0.449   1.930 -0.0300  0.2663 -0.1349
   23SOL    HW1   68   0.753   0.495   1.842  0.8598 -2.6489  0.0217
   23SOL    HW2   69   0.884   0.440   1.937  2.5539 -2.2854 -0.8678
   24SOL     OW   70   1.941   2.386   0.533  0.0769  0.1632 -0.2176
   24SOL    HW1   71   1.975   2.360   0.627 -0.9146 -1.8872 -0.0890
   24SOL    HW2   72   1.871   2.313   0.510 -0.9319 -1.5719 -2.4616
   25SOL     OW   73   1.683   0.232   2.525 -0.4448  0.3015 -0.2124
   25SOL    HW1   74   1.675   0.311   2.588  0.5303  1.7234 -1.6581
   25SOL    HW2   75   1.601   0.228   2.463 -0.2907 -2.2633  0.9516
   26SOL     OW   76   1.577   2.749   2.849  0.3060  0.1226 -0.0706
   26SOL    HW1   77   1.543   2.652   2.860  0.6402 -0.2978 -1.8112
   26SOL    HW2   78   1.603   2.785   2.942 -0.2595 -1.1979  1.5041
   27SOL     OW   79   1.220   0.275   1.096 -0.0686 -0.3145 -0.1385
   27SOL    HW1   80   1.129   0.288   1.144 -0.8877  2.0397  2.8349
   27SOL    HW2   81   1.277   0.197   1.126 -0.3696 -0.3897 -0.7245
   28SOL     OW   82   0.558   1.783   1.014 -0.0398 -0.0733  0.1460
   28SOL    HW1   83   0.654   1.777   1.040 -2.8014  2.9123 -0.3406
   28SOL    HW2   84   0.502   1.779   1.102  0.2228 -1.0332  2.4350
   29SOL     OW   85   2.580   0.840   1.493  0.2222 -0.0508  0.1256
   29SOL    HW1   86   2.480   0.826   1.484  0.2625  1.5229 -1.6686
   29SOL    HW2   87   2.598   0.936   1.526 -0.9545  1.5550  1.3047
   30SOL     OW   88   1.702   2.544   1.532  0.6519  0.2842 -0.0768
   30SOL    HW1   89   1.803   2.551   1.515 -1.7146 -2.1787  0.1300
   30SOL    HW2   90   1.646   2.554   1.449  0.7467  2.7054 -3.6462
   31SOL     OW   91   1.861   2.897   1.398 -0.0014 -0.2356  0.0304
   31SOL    HW1   92   1.839   2.811   1.347  0.2884 -1.2408 -0.0611
   31SOL    HW2   93   1.921   2.864   1.474  0.4420 -1.8252 -0.2237
   32SOL     OW   94   2.254   1.469   2.072 -0.0278 -0.3995 -0.6628
   32SOL    HW1   95   2.299   1.390   2.120 -0.0879  1.2454  2.8860
   32SOL    HW2   96   2.255   1.466   1.968  1.5306  1.6964  0.0509
   33SOL     OW   97   2.289   3.048   2.475 -0.2483 -0.3842 -0.0874
   33SOL    HW1   98   2.292   0.016   2.446  1.8272 -0.6507  1.7510
   33SOL    HW2   99   2.286   2.986   2.392 -0.6515 -3.9870 -0.7638
   34SOL     OW  100   2.150   0.770   0.761 -0.1597  0.0773  0.0632
   34SOL    HW1  101   2.185   0.714   0.680  0.3621 -1.1667 -0.5880
   34SOL    HW2  102   2.051   0.769   0.774  0.1585 -0.7421  3.5402
   35SOL     OW  103   0.320   1.525   1.896  0.6366  0.2195  1.0951
   35SOL    HW1  104   0.316   1.480   1.988 -1.7523 -2.1064  0.3498
   35SOL    HW2  105   0.294   1.455   1.828  0.4938  0.3113  1.7729
   36SOL     OW  106   2.592   2.289   2.786 -0.5250  0.3745  0.2762
   36SOL    HW1  107   2.684   2.335   2.791  0.9939  0.5979  1.6783
   36SOL    HW2  108   2.536   2.320   2.862  0.1056  1.4358 -0.8445
   37SOL     OW  109   1.114   2.813   1.748 -0.2201 -0.2174  0.3087
   37SOL    HW1  110   1.126   2.852   1.841  0.2303  0.0572 -1.0591
   37SOL    HW2  111   1.184   2.741   1.732 -0.3795  3.1326  1.5002
   38SOL     OW  112   0.994   0.939   2.307  0.1363 -0.1377  0.0979
   38SOL    HW1  113   1.004   0.839   2.294  0.2327  0.5868  0.0963
   38SOL    HW2  114   0.993   0.988   2.218 -1.1883 -0.1841  0.5934
   39SOL     OW  115   1.852   0.734   1.629  0.7460 -0.3520  0.1686
   39SOL    HW1  116   1.890   0.666   1.558  0.1576 -0.2114 -2.1993
   39SOL    HW2  117   1.817   0.685   1.708  4.7589 -1.5214 -2.2485
   40SOL     OW  118   0.741   2.433   0.950  0.3007  0.6053  0.3498
   40SOL    HW1  119   0.831   2.397   0.986  0.3798  0.4524  1.0937
   40SOL    HW2  120   0.679   2.361   0.920 -0.9356  0.1726 -2.5621
   41SOL     OW  121   2.237   2.062   1.016 -0.5521  0.3355 -0.2693
   41SOL    HW1  122   2.321   2.010   1.021 -1.6347  1.2013  0.9839
   41SOL    HW2  123   2.247   2.160   1.026  0.3963 -1.3505 -2.4313
   42SOL     OW  124   2.538   0.734   0.531  0.0575 -0.0744 -0.1756
   42SOL    HW1  125   2.631   0.775   0.537 -0.3875  1.2528 -0.0506
   42SOL    HW2  126   2.526   0.635   0.540 -2.1745  0.3156 -1.4434
   43SOL     OW  127   0.844   1.117   2.624 -0.1453 -0.5930 -0.2261
   43SOL    HW1  128   0.907   1.037   2.638 -1.5228  0.6591  0.8947
   43SOL    HW2  129   0.830   1.131   2.523  1.5490 -0.2934  2.5980
   44SOL     OW  130   1.821   2.658   1.267  0.6278 -0.6603  0.1955
   44SOL    HW1  131   1.731   2.605   1.269 -3.0133 -1.0340 -0.6557
   44SOL    HW2  132   1.904   2.598   1.254 -0.4252  0.1705 -1.1878
   45SOL     OW  133   0.512   2.786   2.983 -0.1106  0.1220 -0.1740
   45SOL    HW1  134   0.455   2.742   3.054 -1.3756  0.2114  2.1118
   45SOL    HW2  135   0.583   2.719   2.943  2.6105  0.5269 -0.5134
   46SOL     OW  136   0.391   2.785   1.998  0.1922  0.1983 -0.2187
   46SOL    HW1  137   0.461   2.835   1.943 -1.3719 -0.0292  1.1355
   46SOL    HW2  138   0.435   2.738   2.074 -0.3813  2.2030 -3.1105
   47SOL     OW  139   0.484   1.935   0.583 -0.7547  0.1026 -0.3907
   47SOL    HW1  140   0.558   1.865   0.567  1.6231  0.5190  0.8657
   47SOL    HW2  141   0.453   1.944   0.680 -1.2158  1.0261 -1.4453
   48SOL     OW  142   0.698   3.113   1.301 -0.2542  0.2448  0.2565
   48SOL    HW1  143   0.711   3.049   1.381  2.2261 -1.8836 -0.8201
   48SOL    HW2  144   0.650   3.073   1.221 -0.0794  0.9803  1.3964
   49SOL     OW  145   3.099   2.784   2.925  0.1747  0.0807  0.2157
   49SOL    HW1  146   3.015   2.777   2.981  0.4544 -0.5693  0.1593
   49SOL    HW2  147   0.022   2.693   2.927  1.8392 -1.5230  1.5768
   50SOL     OW  148   1.351   1.056   0.178  0.1800  0.0466  0.6813
   50SOL    HW1  149   1.276   1.073   0.110  0.2938  0.7488 -3.5821
   50SOL    HW2  150   1.419   1.132   0.162 -1.3690  0.2692  2.3238
   51SOL     OW  151   1.767   0.121   0.672  0.5204  0.8578  0.4420
   51SOL    HW1  152   1.775   0.182   0.586  0.1678  0.8888 -1.6643
   51SOL    HW2  153   1.777   0.176   0.755  0.5599 -1.2850 -2.2757
   52SOL     OW  154   0.524   1.591   0.831  0.2997 -0.1019  0.3805
   52SOL    HW1  155   0.526   1.660   0.910 -1.0226  0.5589 -0.7808
   52SOL    HW2  156   0.615   1.560   0.830 -3.8908  3.4066 -0.1484
   53SOL     OW  157   0.173   1.218   3.039 -0.2592  0.0478  0.5116
   53SOL    HW1  158   0.105   1.190   2.968 -1.2805  0.4811  0.0882
   53SOL    HW2  159   0.176   1.165   3.127  1.1517 -0.6242  1.3939
   54SOL     OW  160   2.691   2.009   3.086  0.0358 -0.0826 -0.1823
   54SOL    HW1  161   2.716   1.946   0.033 -0.6180  2.2588  0.0541
   54SOL    HW2  162   2.702   2.105   3.113 -0.2334 -0.2490 -0.0282
   55SOL     OW  163   2.685   2.384   1.129  0.2394 -0.0781  0.2902
   55SOL    HW1  164   2.771   2.402   1.181 -1.6445  0.2054  1.2934
   55SOL    HW2  165   2.668   2.469   1.070  3.3103  2.0255  0.3951
   56SOL     OW  166   1.887   0.233   1.583  0.0356  0.2379 -0.2741
   56SOL    HW1  167   1.830   0.316   1.588  0.8264  1.0580  1.0962
   56SOL    HW2  168   1.835   0.156   1.626  0.4792  1.0035  0.0714
   57SOL     OW  169   2.078   1.913   1.157 -0.0923  0.4962  0.1186
   57SOL    HW1  170   2.130   1.978   1.098 -1.0807 -0.7375  0.2512
   57SOL    HW2  171   1.997   1.870   1.113  0.6462 -1.5211  1.1499
   58SOL     OW  172   2.609   0.587   2.111 -0.5482  0.3463  0.2290
   58SOL    HW1  173   2.654   0.592   2.205 -0.7672 -1.0261 -0.2322
   58SOL    HW2  174   2.514   0.621   2.109 -0.6481  0.9559  0.7953
   59SOL     OW  175   1.196   2.512   2.017 -0.2310  0.6074  0.0480
   59SOL    HW1  176   1.130   2.559   2.083 -0.8507  0.2187  3.4062
   59SOL    HW2  177   1.140   2.477   1.941  2.0542 -1.5366 -0.0207
   60SOL     OW  178   0.672   2.637   2.827  0.1804  0.0053 -0.2595
   60SOL    HW1  179   0.735   2.607   2.899  0.5881 -0.3740 -1.7158
   60SOL    HW2  180   0.709   2.715   2.769  2.8988  1.7136 -1.2136
   61SOL     OW  181   0.581   2.153   0.474 -0.4017  0.0785 -0.8463
   61SOL    HW1  182   0.599   2.164   0.372 -1.7475 -0.6972 -0.4399
   61SOL    HW2  183   0.548   2.059   0.498  1.4619  2.7546  1.5730
   62SOL     OW  184   1.334   1.652   1.659 -0.3075 -0.3403 -0.1237
   62SOL    HW1  185   1.255   1.688   1.703  2.7763 -1.5889 -3.4872
   62SOL    HW2  186   1.396   1.734   1.637 -0.8988  1.2318  0.4463
   63SOL     OW  187   1.068   2.032   0.798  0.5141 -0.1788 -0.3698
   63SOL    HW1  188   0.967   2.007   0.786 -1.2831 -1.4199 -2.6899
   63SOL    HW2  189   1.119   1.965   0.860 -1.1565  0.5118  1.0701
   64SOL     OW  190   1.424   1.583   2.836  0.1854 -0.5632  0.4369
   64SOL    HW1  191   1.334   1.626   2.845  1.0442 -2.9240 -1.6618
   64SOL    HW2  192   1.415   1.490   2.875 -0.0330  0.4612  0.3314
   65SOL     OW  193   1.756   2.061   2.082  0.6254 -0.3436  0.0341
   65SOL    HW1  194   1.825   2.081   2.007  1.5753 -0.6968 -0.2425
   65SOL    HW2  195   1.805   2.025   2.163 -2.8839  0.4068 -2.7539
   66SOL     OW  196   3.114   0.851   1.060  0.2131  0.0767 -0.8656
   66SOL    HW1  197   3.033   0.864   1.119  1.1036 -0.3154  2.1650
   66SOL    HW2  198   3.088   0.850   0.961  0.5221 -0.0261 -2.7532
   67SOL     OW  199   2.358   2.355   0.542 -0.2617  0.2885  0.2750
   67SOL    HW1  200   2.316   2.271   0.579  2.4900 -0.1879 -0.4988
   67SOL    HW2  201   2.298   2.408   0.479  0.5540  3.3356 -0.4167
   68SOL     OW  202   2.607   2.570   1.534 -0.1829 -0.6857  0.4309
   68SOL    HW1  203   2.676   2.642   1.515 -1.5000  1.1523  0.3038
   68SOL    HW2  204   2.658   2.483   1.562  1.2978 -0.5988  0.8893
   69SOL     OW  205   2.518   2.653   3.034 -0.4415 -1.1769 -0.0791
   69SOL    HW1  206   2.447   2.679   2.969  0.3261  0.1448  1.6859
   69SOL    HW2  207   2.511   2.703   3.125 -2.7826  0.9011  1.8396
   70SOL     OW  208   0.499   1.360   2.733 -0.4525  0.0676 -0.3986
   70SOL    HW1  209   0.602   1.350   2.734  1.0976 -0.4869 -1.2017
   70SOL    HW2  210   0.456   1.311   2.814 -2.4786  0.2726 -1.3162
   71SOL     OW  211   0.773   1.297   2.016  0.5947  0.3359  0.3024
   71SOL    HW1  212   0.673   1.298   1.996  2.5234 -3.0027  0.1847
   71SOL    HW2  213   0.829   1.279   1.934  1.0313  0.4995  1.9054
   72SOL     OW  214   2.862   1.381   1.683 -0.0993  0.2560 -0.3493
   72SOL    HW1  215   2.963   1.383   1.663 -0.8104  2.1812  0.1827
   72SOL    HW2  216   2.854   1.401   1.782  1.1107  1.7583 -0.6241
   73SOL     OW  217   0.709   1.952   2.459  0.7850  0.8588  0.1766
   73SOL    HW1  218   0.628   1.999   2.499 -0.0505  0.0988  1.0743
   73SOL    HW2  219   0.705   1.957   2.359  1.1803 -2.2268 -0.3600
   74SOL     OW  220   1.566   2.907   1.794  0.0667 -0.0395  0.4342
   74SOL    HW1  221   1.559   2.912   1.897  2.8798  0.7281 -0.4635
   74SOL    HW2  222   1.664   2.928   1.768 -1.8100  1.3232 -1.1465
   75SOL     OW  223   1.093   2.653   0.990 -0.1863  0.3992  0.8155
   75SOL    HW1  224   1.033   2.650   0.909  0.7257  0.3591  1.3490
   75SOL    HW2  225   1.170   2.585   0.979 -1.3885  1.5586  0.3788
   76SOL     OW  226   0.542   1.776   2.898  0.4419  0.0746 -0.2078
   76SOL    HW1  227   0.624   1.781   2.960  1.0445  2.2658 -1.8895
   76SOL    HW2  228   0.564   1.756   2.800  1.5472 -1.4840 -2.0336
   77SOL     OW  229   0.528   2.651   1.153 -0.0546  0.1766  0.0429
   77SOL    HW1  230   0.498   2.747   1.179  0.2919  0.1553 -1.1702
   77SOL    HW2  231   0.628   2.653   1.134  0.5521  0.5351  1.5324
   78SOL     OW  232   2.516   1.360   0.135 -0.2061 -0.0927  0.1483
   78SOL    HW1  233   2.561   1.270   0.120 -0.8459  0.7804  3.5595
   78SOL    HW2  234   2.583   1.420   0.188 -0.1814  0.5485  2.4740
   79SOL     OW  235   0.426   1.622   3.092 -0.2008  0.0270 -0.6135
   79SOL    HW1  236   0.413   1.523   3.069 -0.2333  1.1972  0.3754
   79SOL    HW2  237   0.462   1.677   3.013 -0.7589  2.1166 -1.7705
   80SOL     OW  238   1.972   1.726   1.626 -0.2862 -0.0509  0.1960
   80SOL    HW1  239   1.939   1.819   1.604 -1.5718  0.4446  0.1524
   80SOL    HW2  240   1.901   1.663   1.675 -0.4613 -4.1032  2.6764
   81SOL     OW  241   2.214   0.745   2.340  0.4606  0.0670  0.6324
   81SOL    HW1  242   2.123   0.695   2.333 -0.1973  1.1246 -1.1072
   81SOL    HW2  243   2.235   0.782   2.429 -0.9642  1.1462 -0.1038
   82SOL     OW  244   1.764   1.935   1.544  0.3793  0.1036  0.2310
   82SOL    HW1  245   1.671   1.887   1.536  3.2063 -3.2227  1.5439
   82SOL    HW2  246   1.797   1.971   1.453 -0.4891 -3.2531  0.6182
   83SOL     OW  247   2.948   0.028   2.702 -0.5394  0.1607 -0.4096
   83SOL    HW1  248   2.919   3.073   2.642  1.4846 -1.8243 -1.0269
   83SOL    HW2  249   2.870   0.064   2.754  2.8524 -0.1812  0.7992
   84SOL     OW  250   0.786   1.197   0.298 -0.3586 -0.1353  0.0863
   84SOL    HW1  251   0.814   1.128   0.229  2.9220 -0.6828 -1.7164
   84SOL    HW2  252   0.779   1.157   0.391 -0.2825  0.1801 -1.0862
   85SOL     OW  253   2.237   1.706   1.289  0.7793 -0.1286 -0.5694
   85SOL    HW1  254   2.194   1.794   1.257  1.5718 -2.1098 -0.2636
   85SOL    HW2  255   2.251   1.639   1.218 -2.7468  0.2048  1.7740
   86SOL     OW  256   0.648   0.936   1.041  0.2394 -0.0409 -0.1244
   86SOL    HW1  257   0.656   1.018   1.098  0.4331 -1.0902 -0.4182
   86SOL    HW2  258   0.581   0.877   1.084  2.9210  2.1384 -0.5798
   87SOL     OW  259   2.856   2.113   2.529  0.5564  0.2357 -0.6133
   87SOL    HW1  260   2.840   2.101   2.628 -2.1592 -2.6625 -0.4890
   87SOL    HW2  261   2.800   2.182   2.484  2.6862  1.5915  2.1070
   88SOL     OW  262   0.055   2.810   0.108 -0.4161  0.0050 -0.0624
   88SOL    HW1  263   0.086   2.886   0.043  2.3441  0.0907 -1.2979
   88SOL    HW2  264   0.117   2.787   0.183  0.9696 -0.3744 -1.0241
   89SOL     OW  265   1.277   0.101   0.583 -0.4730  0.0039  0.3598
   89SOL    HW1  266   1.291   0.009   0.628 -0.4565 -2.0861  1.6900
   89SOL    HW2  267   1.366   0.149   0.607  0.2509 -1.5509 -1.1428
   90SOL     OW  268   2.757   1.055   2.326 -0.4619 -0.1968 -0.0207
   90SOL    HW1  269   2.731   1.121   2.398 -0.4433  0.4250  3.0391
   90SOL    HW2  270   2.851   1.021   2.342 -0.1618 -1.8959  0.8306
   91SOL     OW  271   2.066   3.027   1.012  0.2633  0.0246  0.1664
   91SOL    HW1  272   2.102   3.007   1.101 -1.3580  0.4338 -0.4305
   91SOL    HW2  273   2.115   2.975   0.936 -1.0014 -1.0083 -2.8631
   92SOL     OW  274   1.731   1.608   0.687 -0.2376 -0.2470  0.5672
   92SOL    HW1  275   1.676   1.529   0.717 -3.3637  2.1041 -1.4712
   92SOL    HW2  276   1.775   1.662   0.762  1.8639  0.7506  1.3871
   93SOL     OW  277   0.281   1.591   0.416  0.2076 -0.0753 -0.3337
   93SOL    HW1  278   0.227   1.668   0.454  0.5743  0.3012 -0.4602
   93SOL    HW2  279   0.346   1.628   0.342  0.3583  0.7139  0.3196
   94SOL     OW  280   0.963   2.729   1.492  0.2484  0.1328 -0.5242
   94SOL    HW1  281   1.013   2.735   1.578 -0.9907  0.1778 -3.1051
   94SOL    HW2  282   1.015   2.683   1.419 -0.7680  2.8130 -2.3755
   95SOL     OW  283   3.088   0.839   0.787  0.5972  0.4923 -0.9098
   95SOL    HW1  284   0.050   0.871   0.754 -0.0249  1.0556 -1.2160
   95SOL    HW2  285   3.054   0.760   0.733  2.1293  4.9606 -1.6535
   96SOL     OW  286   0.579   2.946   1.858 -0.2224 -0.2350 -0.7294
   96SOL    HW1  287   0.583   3.026   1.803 -0.6042 -1.5701  1.6278
   96SOL    HW2  288   0.658   2.879   1.841  3.8356 -2.0303  1.0266
   97SOL     OW  289   2.466   0.864   1.126  0.1615 -0.7964  0.8036
   97SOL    HW1  290   2.515   0.783   1.159 -1.7498  2.5774 -3.8705
   97SOL    HW2  291   2.418   0.826   1.041 -0.5587 -0.7947 -0.0036
   98SOL     OW  292   3.094   2.463   1.728  0.4266 -0.4540  0.4658
   98SOL    HW1  293   0.018   2.524   1.795 -0.4069 -0.1466 -0.1329
   98SOL    HW2  294   2.999   2.450   1.761  2.7307  1.2889  0.2481
   99SOL     OW  295   3.001   0.428   1.485 -0.8447 -0.0851 -0.1696
   99SOL    HW1  296   3.053   0.344   1.511  1.4493  3.1926 -1.3328
   99SOL    HW2  297   2.959   0.474   1.562 -2.0233 -1.3831  0.9264
  100SOL     OW  298   2.078   0.288   2.705  0.1166  0.1143 -0.0046
  100SOL    HW1  299   2.155   0.296   2.638  0.0014  4.9274  0.1029
  100SOL    HW2  300   1.993   0.321   2.654 -2.5284  0.9642 -0.5661
  101SOL     OW  301   1.056   0.093   2.035  0.4220  0.2463 -0.3663
  101SOL    HW1  302   0.969   0.046   2.010  0.0236 -2.0659 -1.6605
  101SOL    HW2  303   1.077   0.084   2.132  0.5222 -0.3512 -0.4997
  102SOL     OW  304   0.987   0.854   1.348 -0.6686 -0.5080 -0.1060
  102SOL    HW1  305   0.884   0.842   1.360 -2.5353 -0.8806  1.8287
  102SOL    HW2  306   1.014   0.937   1.294  0.2837 -1.3222 -0.0904
  103SOL     OW  307   0.921   0.725   2.890  0.1231  0.0781 -0.5482
  103SOL    HW1  308   0.972   0.642   2.869 -1.1313  2.7053  1.3851
  103SOL    HW2  309   0.828   0.706   2.925  1.5796 -0.6965 -0.3796
  104SOL     OW  310   0.340   0.318   2.173 -0.2322  0.4570  0.5015
  104SOL    HW1  311   0.406   0.270   2.111 -0.1959  1.2745  1.5317
  104SOL    HW2  312   0.310   0.254   2.237  1.8185 -0.7423 -2.4437
  105SOL     OW  313   2.797   2.354   1.546 -0.0087  0.4018  0.7385
  105SOL    HW1  314   2.782   2.253   1.551 -1.8035 -2.6747  1.4398
  105SOL    HW2  315   2.824   2.390   1.638 -0.2069 -2.5589  1.3796
  106SOL     OW  316   1.105   3.088   0.894 -0.1919 -0.2097 -0.0483
  106SOL    HW1  317   1.082   0.035   0.827  0.3313 -0.7002 -1.1329
  106SOL    HW2  318   1.168   3.019   0.854 -1.0623 -1.3333  0.6854
  107SOL     OW  319   3.044   2.114   1.358  0.3056 -0.1719  0.2837
  107SOL    HW1  320   3.065   2.031   1.303 -1.1528 -2.6542  2.1407
  107SOL    HW2  321   2.952   2.099   1.402 -0.1822 -1.9653 -1.7063
  108SOL     OW  322   0.064   2.250   0.452  0.0684  0.4635  0.0674
  108SOL    HW1  323   0.101   2.154   0.453 -1.8021  0.6698 -1.5031
  108SOL    HW2  324   0.055   2.286   0.549 -1.3223 -2.1955  0.3736
  109SOL     OW  325   1.549   3.123   0.780  0.0936 -0.6761  0.0384
  109SOL    HW1  326   1.634   0.028   0.736 -2.8346  0.3336 -1.3138
  109SOL    HW2  327   1.520   0.061   0.851  1.6006  1.7824  0.5131
  110SOL     OW  328   1.861   1.747   0.886  0.4822 -0.1330 -0.2455
  110SOL    HW1  329   1.805   1.800   0.950 -0.0935 -1.1435  0.5456
  110SOL    HW2  330   1.910   1.681   0.943  1.7520 -3.8507  0.8277
  111SOL     OW  331   1.833   2.723   1.935  0.1087 -0.4550 -0.0069
  111SOL    HW1  332   1.909   2.656   1.938  2.1945  1.0812  0.2180
  111SOL    HW2  333   1.820   2.780   2.016  0.4411 -1.7147 -1.2231
  112SOL     OW  334   1.654   2.211   2.577  0.1992  0.8298  0.3233
  112SOL    HW1  335   1.574   2.173   2.525 -0.2077 -0.4651  1.2284
  112SOL    HW2  336   1.651   2.313   2.571 -0.7015 -0.4784 -1.4101
  113SOL     OW  337   2.075   1.871   2.136 -0.5014  0.3120  0.2752
  113SOL    HW1  338   2.158   1.826   2.174  1.5034  2.5130 -2.4202
  113SOL    HW2  339   2.062   1.861   2.034  0.7773  1.1289  0.3417
  114SOL     OW  340   0.103   1.101   1.100  0.0950  0.6440  1.2185
  114SOL    HW1  341   0.067   1.006   1.093  0.0514 -2.1026 -1.4786
  114SOL    HW2  342   0.020   1.160   1.088  0.7881  1.1249 -2.6037
  115SOL     OW  343   2.777   0.743   2.741  0.0079 -0.0896  0.4448
  115SOL    HW1  344   2.855   0.806   2.738  0.5649  0.1071 -0.4637
  115SOL    HW2  345   2.725   0.735   2.654  0.5003  1.5893 -0.2964
  116SOL     OW  346   2.844   0.506   2.859 -0.0764 -0.0841 -0.6269
  116SOL    HW1  347   2.805   0.597   2.824 -0.3962 -0.6423 -1.0000
  116SOL    HW2  348   2.818   0.446   2.786 -0.7027  1.3834  0.2715
  117SOL     OW  349   2.545   2.734   0.515  0.2224 -0.1157  0.0372
  117SOL    HW1  350   2.607   2.650   0.514  1.1756  0.0086 -0.7117
  117SOL    HW2  351   2.489   2.743   0.427  1.4498  0.4944 -1.5024
  118SOL     OW  352   0.732   2.049   2.163  0.2366  0.1920 -0.2367
  118SOL    HW1  353   0.708   2.132   2.221 -1.9720 -0.1011 -0.1043
  118SOL    HW2  354   0.811   2.070   2.107  0.8069 -1.4015 -0.5336
  119SOL     OW  355   0.710   2.766   0.513 -0.1336 -0.0265  0.2158
  119SOL    HW1  356   0.760   2.824   0.442  2.7635  0.4880  1.7643
  119SOL    HW2  357   0.697   2.666   0.492  0.4026  1.1437 -0.5463
  120SOL     OW  358   1.152   0.591   0.498  0.1869 -0.4630 -0.2729
  120SOL    HW1  359   1.158   0.610   0.596  1.1928  1.3777 -1.7125
  120SOL    HW2  360   1.182   0.673   0.444 -3.1643  1.4571  0.4531
  121SOL     OW  361   1.752   0.554   0.938  0.2350 -0.3941  0.2847
  121SOL    HW1  362   1.667   0.593   0.977  1.4258 -4.1435  2.2895
  121SOL    HW2  363   1.806   0.620   0.886  0.5062 -1.5560  1.4769
  122SOL     OW  364   2.200   1.260   2.402  0.2269  0.5290  0.2140
  122SOL    HW1  365   2.281   1.224   2.355  0.3501 -0.3523  1.6710
  122SOL    HW2  366   2.139   1.311   2.335 -1.4251 -1.3641 -3.7433
  123SOL     OW  367   0.877   1.241   0.961  0.4845 -0.4546 -0.5237
  123SOL    HW1  368   0.921   1.172   0.902  1.5869 -1.1170 -1.2297
  123SOL    HW2  369   0.849   1.323   0.906 -2.3733 -0.3418 -1.0590
  124SOL     OW  370   0.552   0.477   2.710 -0.3367 -0.4881 -0.0824
  124SOL    HW1  371   0.528   0.399   2.777  0.7784 -3.5472  1.0389
  124SOL    HW2  372   0.657   0.479   2.705  2.7350 -0.3833  0.4511
  125SOL     OW  373   0.896   3.098   0.095  0.4359 -0.2129  0.0104
  125SOL    HW1  374   0.868   3.061   0.185 -1.4062 -0.5716  3.0341
  125SOL    HW2  375   0.995   3.082   0.077  0.4139 -2.6443  1.1865
  126SOL     OW  376   0.651   1.458   0.293 -0.2419 -0.3561  0.2516
  126SOL    HW1  377   0.703   1.372   0.301  1.3206  2.3982 -2.6223
  126SOL    HW2  378   0.630   1.506   0.378 -0.8941 -1.9965 -0.4311
  127SOL     OW  379   1.178   2.516   1.527 -0.6507 -0.2974  0.1437
  127SOL    HW1  380   1.158   2.550   1.431  0.6487 -1.7746 -2.6311
  127SOL    HW2  381   1.247   2.566   1.579 -0.1278 -2.2947 -3.1528
  128SOL     OW  382   0.822   1.764   0.304 -0.6395  0.2345 -0.5698
  128SOL    HW1  383   0.855   1.679   0.256 -2.3053  0.6188 -0.5673
  128SOL    HW2  384   0.906   1.816   0.330  0.4631  1.8198  0.6049
  129SOL     OW  385   2.028   1.425   2.243  0.3164 -0.0092  0.5160
  129SOL    HW1  386   1.949   1.374   2.206  0.1205  2.3162 -2.1305
  129SOL    HW2  387   2.091   1.452   2.161 -0.6695 -0.5921 -2.8094
  130SOL     OW  388   2.111   1.862   1.859  0.2183 -1.0122  0.2660
  130SOL    HW1  389   2.207   1.860   1.830  0.7899 -2.3447  2.2036
  130SOL    HW2  390   2.059   1.790   1.809  2.5909  1.7434 -0.2000
  131SOL     OW  391   0.543   2.415   2.057  0.7511  0.0454  0.2715
  131SOL    HW1  392   0.584   2.349   2.122  0.3675 -0.9026 -2.4215
  131SOL    HW2  393   0.481   2.368   1.996  1.9250  0.9667 -1.2593
  132SOL     OW  394   2.502   1.564   0.659 -0.2324 -0.3114  0.2355
  132SOL    HW1  395   2.576   1.493   0.640  1.5318  0.6344 -1.1388
  132SOL    HW2  396   2.527   1.649   0.613  1.5141 -0.1916 -0.4555
  133SOL     OW  397   0.557   1.430   1.755 -0.0041 -0.3373  0.3205
  133SOL    HW1  398   0.552   1.518   1.805 -1.3330  0.4958  3.2820
  133SOL    HW2  399   0.520   1.359   1.821 -2.2952 -0.5861  0.3901
  134SOL     OW  400   2.945   1.394   0.725 -0.1779  0.8344 -0.0599
  134SOL    HW1  401   2.939   1.293   0.704 -2.0978 -0.3883 -0.8684
  134SOL    HW2  402   3.006   1.440   0.657 -1.3736 -1.0533  0.7207
  135SOL     OW  403   1.774   1.093   2.892  0.4370 -0.0260  0.1653
  135SOL    HW1  404   1.803   1.186   2.880 -1.6625 -2.7816  1.1437
  135SOL    HW2  405   1.678   1.095   2.929  2.2080 -0.2127 -0.4665
  136SOL     OW  406   0.062   1.643   1.024 -0.4433  0.0097  0.7045
  136SOL    HW1  407   0.123   1.618   1.103  0.9233 -2.0454  0.1864
  136SOL    HW2  408   0.115   1.688   0.949 -0.9349  0.6606  0.9913
  137SOL     OW  409   2.237   1.595   0.519  0.3473 -0.1337  0.0970
  137SOL    HW1  410   2.168   1.520   0.536 -2.2076 -0.4532  0.9442
  137SOL    HW2  411   2.320   1.575   0.573 -0.6567  0.1213  0.7023
  138SOL     OW  412   2.563   0.432   0.656  0.2420 -0.2457 -0.5519
  138SOL    HW1  413   2.533   0.495   0.729 -3.6484 -0.6504 -0.2962
  138SOL    HW2  414   2.496   0.353   0.642  1.3473 -0.6526 -0.5183
  139SOL     OW  415   2.708   0.085   2.812 -0.3133 -0.1647 -0.6653
  139SOL    HW1  416   2.710   0.099   2.915 -1.9548  1.0661  3.2686
  139SOL    HW2  417   2.681   3.119   2.786  1.0106  0.6795  0.8291
  140SOL     OW  418   0.950   1.212   1.502 -0.4109 -0.3991  0.2527
  140SOL    HW1  419   0.984   1.226   1.596 -5.2972  1.1474 -1.6916
  140SOL    HW2  420   0.851   1.203   1.502 -2.9120  1.9148  0.7132
  141SOL     OW  421   1.381   1.628   0.760 -0.6853  0.1576 -0.0419
  141SOL    HW1  422   1.330   1.578   0.830  0.0707  1.8772 -2.8270
  141SOL    HW2  423   1.424   1.709   0.805 -1.4938 -1.2992  2.1476
  142SOL     OW  424   1.532   0.675   1.060 -0.0418 -0.0316 -0.0783
  142SOL    HW1  425   1.464   0.611   1.099  0.3155 -1.0819 -1.8122
  142SOL    HW2  426   1.492   0.770   1.066  1.4524  1.7299  0.3689
  143SOL     OW  427   0.663   0.598   2.997  0.2404  0.3997  0.0652
  143SOL    HW1  428   0.613   0.688   2.988 -0.1055  1.5197  2.8494
  143SOL    HW2  429   0.621   0.521   2.949 -1.0608 -1.1954 -0.5841
  144SOL     OW  430   2.549   0.046   0.150  0.0863 -0.2467 -0.2730
  144SOL    HW1  431   2.467   0.090   0.107 -1.0090  2.8952 -0.7228
  144SOL    HW2  432   2.552   0.060   0.252  2.2924  0.2952 -0.1536
  145SOL     OW  433   2.065   0.020   2.646 -0.1034  0.2878  0.1112
  145SOL    HW1  434   2.080   0.116   2.672 -0.0030  0.2945 -0.7156
  145SOL    HW2  435   2.156   3.103   2.636  0.4223  1.7272 -4.0571
  146SOL     OW  436   2.878   2.951   0.344 -0.0595 -0.0712 -0.5285
  146SOL    HW1  437   2.893   2.905   0.260 -1.2104  1.0266  2.5459
  146SOL    HW2  438   2.916   3.042   0.334  0.0242 -2.0474  0.0958
  147SOL     OW  439   1.245   0.746   2.802 -0.1161 -0.6384  0.2047
  147SOL    HW1  440   1.341   0.736   2.831 -2.5549  0.1793  2.2889
  147SOL    HW2  441   1.238   0.827   2.746 -0.8511 -3.4385 -1.9805
  148SOL     OW  442   1.016   0.118   0.672 -0.2691 -0.5515  0.3551
  148SOL    HW1  443   1.100   0.114   0.608 -1.7104 -1.5774  3.0192
  148SOL    HW2  444   0.932   0.089   0.623  1.1839 -0.4372  0.7450
  149SOL     OW  445   1.275   0.849   2.196 -0.0971  0.1239  0.4519
  149SOL    HW1  446   1.329   0.914   2.250 -2.4498  0.3214  0.4184
  149SOL    HW2  447   1.235   0.890   2.111 -1.2421 -1.1728 -0.8446
  150SOL     OW  448   1.749   3.072   2.914  0.1893 -0.1049  0.4643
  150SOL    HW1  449   1.790   0.036   2.932  2.5448  1.3150 -1.3341
  150SOL    HW2  450   1.806   3.023   2.849 -2.1065  1.8119  0.2699
  151SOL     OW  451   0.534   1.186   0.091 -0.8855  0.2075 -0.5130
  151SOL    HW1  452   0.460   1.137   0.140  2.1143  2.0498 -2.2165
  151SOL    HW2  453   0.594   1.247   0.147 -0.0577  0.1459 -0.0755
  152SOL     OW  454   0.788   0.545   1.108  0.0299  0.1672 -0.7293
  152SOL    HW1  455   0.715   0.559   1.178  0.5547 -1.0004  0.4924
  152SOL    HW2  456   0.860   0.487   1.152  0.4296  2.9557  2.3452
  153SOL     OW  457   2.549   3.040   1.932 -0.2842 -0.3383  0.0365
  153SOL    HW1  458   2.605   3.062   2.012 -3.6228  1.2309  0.1767
  153SOL    HW2  459   2.483   2.966   1.947  0.1743  0.7174 -2.1000
  154SOL     OW  460   2.305   2.943   1.987 -0.3155  0.1063 -0.0837
  154SOL    HW1  461   2.285   3.032   1.945  0.2622 -2.8332  0.4493
  154SOL    HW2  462   2.277   2.868   1.926  2.2468 -1.1993 -1.1125
  155SOL     OW  463   2.908   1.028   0.497 -0.6766 -0.0942 -0.8852
  155SOL    HW1  464   2.973   0.972   0.440 -0.7985 -0.7656 -0.9016
  155SOL    HW2  465   2.962   1.071   0.572 -0.7846  0.7895  1.3977
  156SOL     OW  466   2.026   1.415   0.567 -0.4732  0.0159 -0.3740
  156SOL    HW1  467   1.994   1.369   0.652 -1.5734  1.7095  0.1397
  156SOL    HW2  468   2.053   1.345   0.502 -1.3491 -1.2235  0.0681
  157SOL     OW  469   0.769   3.098   2.941  0.2401 -0.6005  0.3565
  157SOL    HW1  470   0.783   0.067   2.965 -0.3912  1.0480 -1.9341
  157SOL    HW2  471   0.686   3.085   2.888  3.5334 -1.1917 -0.3285
  158SOL     OW  472   2.092   1.138   1.272  0.6439 -0.7660 -0.3863
  158SOL    HW1  473   2.176   1.085   1.294  1.7718 -1.1845  0.6439
  158SOL    HW2  474   2.079   1.204   1.347 -0.2994  1.4712 -1.0835
  159SOL     OW  475   0.102   0.129   0.186  0.8328  0.0832  0.1582
  159SOL    HW1  476   0.128   0.054   0.125 -1.1534  2.1315 -0.4354
  159SOL    HW2  477   0.122   0.104   0.282 -0.0905 -1.3425 -2.4113
  160SOL     OW  478   2.653   2.232   1.946 -0.2953  0.1030 -0.6820
  160SOL    HW1  479   2.628   2.258   2.044  0.1569  1.2400  0.4354
  160SOL    HW2  480   2.572   2.251   1.887  3.1604 -0.0371  1.2372
  161SOL     OW  481   0.322   0.679   3.005  0.1029 -0.0090 -0.6058
  161SOL    HW1  482   0.363   0.776   3.001 -0.3763  2.8004  1.6043
  161SOL    HW2  483   0.292   0.654   2.908 -2.2614 -0.2595 -1.2902
  162SOL     OW  484   0.783   0.553   1.664  0.5360  0.3597 -0.1848
  162SOL    HW1  485   0.862   0.587   1.607 -1.7539  0.1177  1.6065
  162SOL    HW2  486   0.787   0.450   1.668  1.0030  1.4739  0.1037
  163SOL     OW  487   2.641   2.958   2.405 -0.3229  0.0429  0.4669
  163SOL    HW1  488   2.626   2.870   2.360  0.2940 -0.3924 -0.8038
  163SOL    HW2  489   2.566   3.027   2.378 -1.7114  2.3138 -1.2041
  164SOL     OW  490   2.300   1.748   0.317  0.3920 -0.2369  0.1813
  164SOL    HW1  491   2.255   1.840   0.331 -3.0497  0.4377 -3.2920
  164SOL    HW2  492   2.272   1.688   0.398 -0.1126  0.0135  3.1721
  165SOL     OW  493   0.334   0.003   0.885  1.1106  0.2019  0.3702
  165SOL    HW1  494   0.405   0.000   0.812 -0.9789  1.2200 -2.0743
  165SOL    HW2  495   0.360   0.031   0.978 -0.4406 -1.3629 -1.5332
  166SOL     OW  496   2.843   0.413   3.124 -0.4273 -0.7907  0.4471
  166SOL    HW1  497   2.849   0.449   3.031 -0.2095  0.7853  0.6250
  166SOL    HW2  498   2.807   0.318   3.120 -0.4017  2.3503 -1.3960
  167SOL     OW  499   2.053   0.666   0.437  0.5074  0.1761 -0.0231
  167SOL    HW1  500   1.972   0.724   0.461 -1.2544 -1.2209  2.5398
  167SOL    HW2  501   2.073   0.682   0.338 -0.8213  0.2872 -1.1149
  168SOL     OW  502   1.615   0.149   2.174 -0.6096  0.3254 -0.1283
  168SOL    HW1  503   1.557   0.131   2.255  0.4671  2.9048  2.8030
  168SOL    HW2  504   1.603   0.247   2.146 -0.3461 -1.7962  1.4426
  169SOL     OW  505   0.389   1.993   0.827  0.2994  0.2158 -0.1695
  169SOL    HW1  506   0.422   1.929   0.901  1.2507 -0.1749  1.2961
  169SOL    HW2  507   0.384   2.093   0.857  3.1753  1.1594 -1.4259
  170SOL     OW  508   0.417   0.164   1.401  0.3547  0.1230  0.7395
  170SOL    HW1  509   0.470   0.236   1.451  1.0065 -2.1958  2.7431
  170SOL    HW2  510   0.396   0.085   1.456  1.5824  0.4009  0.2488
  171SOL     OW  511   2.552   1.424   2.392  0.0167  0.2303  0.4522
  171SOL    HW1  512   2.491   1.354   2.356 -1.1414 -0.0563  1.3136
  171SOL    HW2  513   2.591   1.492   2.323 -0.6182  2.5553  0.4484
  172SOL     OW  514   0.930   1.879   1.310  0.2887 -0.1950  0.1127
  172SOL    HW1  515   0.897   1.823   1.228 -2.7847 -1.3358  0.7696
  172SOL    HW2  516   1.007   1.832   1.359 -1.0866  1.4048  0.2929
  173SOL     OW  517   1.788   2.091   3.084  0.6079  0.1773  0.2001
  173SOL    HW1  518   1.803   1.988   3.080  0.0115  1.8859  0.5192
  173SOL    HW2  519   1.818   2.139   0.045  0.7423  1.2147  1.9801
  174SOL     OW  520   1.811   0.495   0.110  0.4812 -0.1093 -0.0554
  174SOL    HW1  521   1.862   0.560   0.055 -2.0370 -0.7853 -0.0454
  174SOL    HW2  522   1.746   0.549   0.164  3.7078  2.6235 -0.7944
  175SOL     OW  523   0.574   1.712   1.826  0.0220 -0.5947  0.0503
  175SOL    HW1  524   0.495   1.755   1.777 -0.8995 -1.4840 -0.5543
  175SOL    HW2  525   0.564   1.745   1.922 -0.7568 -1.0737 -0.9186
  176SOL     OW  526   0.780   0.266   0.479  0.6336  0.3986 -0.0415
  176SOL    HW1  527   0.812   0.363   0.467 -0.3042  0.2864 -1.8151
  176SOL    HW2  528   0.713   0.257   0.561  0.9789  1.9676  0.4155
  177SOL     OW  529   0.102   1.451   0.047  0.6521 -0.2811  0.2008
  177SOL    HW1  530   0.040   1.471   3.096 -1.3903  1.8763 -1.2803
  177SOL    HW2  531   0.158   1.368   0.028  1.7127  0.2212  1.0732
  178SOL     OW  532   0.079   2.064   2.295 -1.1670  0.6068 -0.4047
  178SOL    HW1  533   0.058   1.965   2.287 -0.6895  1.4186  2.4064
  178SOL    HW2  534   0.069   2.107   2.204 -3.5787 -0.7188  1.2998
  179SOL     OW  535   2.298   0.112   2.870 -0.0203  0.5415 -0.3372
  179SOL    HW1  536   2.368   0.178   2.840  0.3879  0.1552  0.5393
  179SOL    HW2  537   2.209   0.153   2.893 -1.5383 -0.7775  2.3943
  180SOL     OW  538   2.559   0.265   0.965 -0.2343  0.6439  0.3970
  180SOL    HW1  539   2.498   0.206   0.906 -1.8181  0.5488 -1.6450
  180SOL    HW2  540   2.544   0.364   0.945 -0.4667 -0.7422 -0.5404
  181SOL     OW  541   2.909   2.931   2.565 -0.4248  0.3560 -0.4498
  181SOL    HW1  542   2.823   2.958   2.515 -2.4809 -0.7578  0.2971
  181SOL    HW2  543   2.978   2.879   2.506  1.3830  0.4514 -0.7732
  182SOL     OW  544   2.284   2.476   2.319  0.7863  0.1874  0.0981
  182SOL    HW1  545   2.311   2.437   2.409  0.0555 -0.3778 -3.2513
  182SOL    HW2  546   2.294   2.413   2.239 -0.2025 -0.8537  0.3222
  183SOL     OW  547   2.754   1.338   1.422 -0.2709  0.3448  0.3500
  183SOL    HW1  548   2.792   1.354   1.514  0.2316 -0.1782 -0.2796
  183SOL    HW2  549   2.666   1.386   1.420  1.4893  0.4561  0.2742
  184SOL     OW  550   2.938   1.578   0.943  0.2469  0.0795 -0.6116
  184SOL    HW1  551   3.030   1.611   0.977  0.8027 -0.5324  1.9586
  184SOL    HW2  552   2.956   1.521   0.862  1.3285  0.8916 -1.4124
  185SOL     OW  553   0.082   0.107   0.815 -0.2456 -0.0452  0.3263
  185SOL    HW1  554   0.168   0.073   0.779 -1.1864 -0.6133  1.8386
  185SOL    HW2  555   0.005   0.104   0.747 -1.2531 -0.9814 -4.6549
  186SOL     OW  556   2.042   2.599   2.287  0.2703 -0.3892 -0.2056
  186SOL    HW1  557   2.017   2.697   2.318 -0.1238  1.1972  2.6328
  186SOL    HW2  558   2.144   2.584   2.302  2.5555  1.4950  0.2401
  187SOL     OW  559   0.277   1.569   0.699  0.4662  0.4955 -0.4235
  187SOL    HW1  560   0.306   1.586   0.604  2.7935  2.4857  0.6018
  187SOL    HW2  561   0.364   1.579   0.752 -0.4972 -2.6411 -0.1738
  188SOL     OW  562   1.635   1.839   0.391  0.0110  0.0170  0.0482
  188SOL    HW1  563   1.631   1.747   0.440 -1.9133 -4.6615  4.0525
  188SOL    HW2  564   1.589   1.917   0.439 -0.0878 -1.8555  0.6671
  189SOL     OW  565   3.080   1.452   2.925 -0.5178 -0.6117 -0.3570
  189SOL    HW1  566   3.113   1.368   2.871  1.2723 -1.7042 -1.4791
  189SOL    HW2  567   2.985   1.477   2.902  0.7486  1.4007 -2.6596
  190SOL     OW  568   2.381   0.544   2.432  0.6788  0.1964 -0.1796
  190SOL    HW1  569   2.316   0.602   2.380 -1.2864  0.9425  1.7174
  190SOL    HW2  570   2.458   0.600   2.464  0.6476 -0.3545 -0.7080
  191SOL     OW  571   0.913   1.040   2.063 -0.6792  0.3634 -0.2210
  191SOL    HW1  572   0.846   0.974   2.017 -0.5440 -2.1532 -0.7556
  191SOL    HW2  573   0.879   1.137   2.058  0.3169  2.0195  1.3099
  192SOL     OW  574   1.840   1.270   2.131  0.3035 -0.9349  0.8976
  192SOL    HW1  575   1.779   1.225   2.054 -2.0133 -2.3518 -1.2659
  192SOL    HW2  576   1.882   1.193   2.192  0.9897 -3.4585  1.8823
  193SOL     OW  577   1.386   2.789   1.188  0.4248 -0.7474  0.2102
  193SOL    HW1  578   1.441   2.875   1.200  0.0508  0.3847 -1.5001
  193SOL    HW2  579   1.412   2.752   1.098 -0.4069  0.9935  0.6215
  194SOL     OW  580   1.519   1.485   1.826  0.3310  0.2682  0.6549
  194SOL    HW1  581   1.571   1.436   1.758  0.5868  0.5545  2.9197
  194SOL    HW2  582   1.474   1.566   1.786  1.0627 -3.7154 -0.4037
  195SOL     OW  583   1.830   0.297   0.878 -0.4582  0.0447  0.1423
  195SOL    HW1  584   1.791   0.385   0.920 -4.8229  2.1415  1.2441
  195SOL    HW2  585   1.888   0.254   0.950  1.0672  1.4311  1.4861
  196SOL     OW  586   1.030   1.358   2.421 -0.8197 -0.0051  0.1160
  196SOL    HW1  587   0.945   1.310   2.392  0.4106  1.0338 -0.6475
  196SOL    HW2  588   1.107   1.294   2.442 -1.2317  0.5889 -1.4590
  197SOL     OW  589   0.235   0.143   2.361  0.4060  0.0009 -0.0963
  197SOL    HW1  590   0.171   0.221   2.361  2.1110 -0.9397 -0.9302
  197SOL    HW2  591   0.198   0.059   2.408  1.0221  1.7622  0.9578
  198SOL     OW  592   2.977   1.261   1.054  0.7542 -0.5245 -0.4896
  198SOL    HW1  593   2.971   1.324   0.970  0.5697  1.2717  0.8071
  198SOL    HW2  594   2.880   1.236   1.074 -1.0782  1.2142 -0.2822
  199SOL     OW  595   0.362   2.230   0.939 -0.4913 -0.4715 -0.0010
  199SOL    HW1  596   0.399   2.277   0.854 -0.0133 -1.2501  2.1564
  199SOL    HW2  597   0.414   2.277   1.016 -0.1917  1.2676 -0.1595
  200SOL     OW  598   2.488   2.052   2.637  0.3881  0.5942 -0.3915
  200SOL    HW1  599   2.536   2.122   2.688 -0.5567 -0.5433 -0.3662
  200SOL    HW2  600   2.477   1.967   2.690  0.8712 -1.1485  0.7742
  201SOL     OW  601   0.850   2.152   1.332 -0.0886 -0.8996  0.6120
  201SOL    HW1  602   0.896   2.205   1.406  2.3511  1.5914 -2.9661
  201SOL    HW2  603   0.918   2.078   1.304  1.4550 -0.9462 -1.4917
  202SOL     OW  604   0.835   2.385   0.171  0.2596 -0.3265 -0.2672
  202SOL    HW1  605   0.914   2.424   0.225  1.3499  0.1578 -0.3676
  202SOL    HW2  606   0.853   2.292   0.148  1.8467  2.3591  2.2277
  203SOL     OW  607   1.938   0.340   2.470 -0.1103  1.1634  0.3194
  203SOL    HW1  608   1.976   0.291   2.393  0.6206  0.8405  3.0871
  203SOL    HW2  609   1.840   0.305   2.481  0.7202 -0.4939  0.8224
  204SOL     OW  610   0.223   1.328   1.707  0.4088 -0.4957 -0.5970
  204SOL    HW1  611   0.222   1.392   1.624 -0.3712  1.2637 -0.4395
  204SOL    HW2  612   0.291   1.252   1.701  2.2376 -1.3247  0.8791
  205SOL     OW  613   2.385   1.540   2.597 -0.2081  0.0874 -0.0984
  205SOL    HW1  614   2.447   1.509   2.521  1.1287  0.3710  0.8094
  205SOL    HW2  615   2.329   1.620   2.573  1.0725 -1.5741 -1.3678
  206SOL     OW  616   0.213   1.995   2.706  0.6321  0.0704  0.7642
  206SOL    HW1  617   0.177   1.901   2.693 -0.6159 -2.9098  0.9283
  206SOL    HW2  618   0.140   2.064   2.686  2.0683  3.4979  1.3703
  207SOL     OW  619   0.657   0.017   1.672  0.2870 -0.3592 -0.2095
  207SOL    HW1  620   0.559   3.128   1.641 -1.6203 -1.8834 -0.1100
  207SOL    HW2  621   0.721   3.095   1.615 -0.7730 -0.1280  3.0718
  208SOL     OW  622   0.459   2.581   1.466 -0.0068  0.2023 -0.0033
  208SOL    HW1  623   0.518   2.506   1.416  2.1295 -0.3571 -2.3430
  208SOL    HW2  624   0.381   2.535   1.516 -2.0268 -1.8706 -1.6264
  209SOL     OW  625   0.995   2.654   2.567 -0.1153 -0.2333 -0.0785
  209SOL    HW1  626   0.975   2.568   2.617  0.4667 -0.5621  3.6483
  209SOL    HW2  627   0.940   2.736   2.599  2.0840  1.5086  1.1795
  210SOL     OW  628   2.975   1.374   2.186 -0.5667  0.5354  0.0722
  210SOL    HW1  629   2.935   1.283   2.216  0.9452 -1.4504  3.3003
  210SOL    HW2  630   3.057   1.402   2.242 -1.4733 -1.5121  2.3758
  211SOL     OW  631   1.163   2.952   1.960  0.0638  0.5425 -0.6321
  211SOL    HW1  632   1.210   2.902   2.036  2.3292  0.8796  3.0175
  211SOL    HW2  633   1.097   3.017   2.009 -2.6984  3.6659  1.4529
  212SOL     OW  634   1.335   2.660   1.685 -0.2110  0.0295 -0.0903
  212SOL    HW1  635   1.434   2.650   1.717  3.0273  0.6238  0.5173
  212SOL    HW2  636   1.330   2.725   1.606 -0.4599 -0.8455 -0.4649
  213SOL     OW  637   2.621   0.778   1.788 -0.3615  0.2135  0.4427
  213SOL    HW1  638   2.640   0.773   1.687 -2.6136 -1.5292 -0.1324
  213SOL    HW2  639   2.694   0.730   1.834  0.8276 -0.9807 -1.3310
  214SOL     OW  640   0.843   2.467   1.303 -0.2543 -0.3221  0.5216
  214SOL    HW1  641   0.853   2.464   1.402 -1.6654  1.5793 -1.2524
  214SOL    HW2  642   0.800   2.554   1.268 -3.2373  0.6948 -3.0674
  215SOL     OW  643   2.537   2.080   0.745 -0.7637 -0.0425 -0.1234
  215SOL    HW1  644   2.597   2.142   0.802  0.3924  1.5776  1.2223
  215SOL    HW2  645   2.583   2.050   0.658 -0.7843 -0.2913 -2.5830
  216SOL     OW  646   0.130   0.829   1.480 -0.3957 -0.3862 -0.6134
  216SOL    HW1  647   0.118   0.739   1.430  1.7571  0.3680  0.8603
  216SOL    HW2  648   0.062   0.894   1.446 -0.6996 -1.2824  2.2321
  217SOL     OW  649   2.316   0.313   1.432  0.6541  0.3273  0.2929
  217SOL    HW1  650   2.408   0.281   1.408  0.2814  1.9941 -1.3578
  217SOL    HW2  651   2.248   0.281   1.360  0.7104 -0.6523 -0.4183
  218SOL     OW  652   1.716   2.380   0.997  0.3527 -0.1522 -0.1385
  218SOL    HW1  653   1.731   2.468   0.951 -1.9895  0.7661  0.1926
  218SOL    HW2  654   1.619   2.378   1.032 -1.8071  0.6133 -0.5351
  219SOL     OW  655   1.336   2.227   0.064  0.5484 -0.2468  0.8052
  219SOL    HW1  656   1.389   2.309   0.038 -1.9700 -0.3117 -1.8492
  219SOL    HW2  657   1.278   2.242   0.148 -0.7551 -0.6742  0.0673
  220SOL     OW  658   1.520   2.474   2.805  0.0899 -0.0939 -0.3062
  220SOL    HW1  659   1.453   2.488   2.727 -0.7206  0.4222 -2.2638
  220SOL    HW2  660   1.528   2.373   2.827  0.6605 -1.3353 -0.0142
  221SOL     OW  661   0.253   2.475   1.589 -0.2901 -0.2048  0.1487
  221SOL    HW1  662   0.251   2.451   1.687 -2.8151 -0.9232  1.1427
  221SOL    HW2  663   0.190   2.412   1.534  0.1596 -1.1696 -0.0524
  222SOL     OW  664   2.132   2.536   0.747 -0.0779  0.1890 -0.3060
  222SOL    HW1  665   2.097   2.622   0.705  3.1456  0.3326 -0.1022
  222SOL    HW2  666   2.214   2.504   0.700 -3.7436  1.1315  2.2861
  223SOL     OW  667   0.840   2.341   1.888 -0.4556 -0.0972  0.6685
  223SOL    HW1  668   0.766   2.329   1.817  1.6927  1.8692  0.4729
  223SOL    HW2  669   0.805   2.397   1.962 -1.5556  0.9865 -2.7103
  224SOL     OW  670   2.854   2.468   1.317 -0.2565 -0.0546 -0.2025
  224SOL    HW1  671   2.873   2.566   1.320  0.8695 -2.5993  0.3840
  224SOL    HW2  672   2.844   2.428   1.409 -1.8235 -1.4640 -3.9228
  225SOL     OW  673   2.283   2.142   0.679  0.0333 -0.6671 -0.0168
  225SOL    HW1  674   2.376   2.120   0.716  1.5121 -1.0623  2.6820
  225SOL    HW2  675   2.241   2.048   0.661 -1.3893 -1.0819 -1.1028
  226SOL     OW  676   1.465   2.488   0.529  0.1277 -0.2130  0.5451
  226SOL    HW1  677   1.374   2.447   0.546 -0.2757  1.0496  0.9121
  226SOL    HW2  678   1.531   2.454   0.599  0.7732 -0.9830  1.0415
  227SOL     OW  679   2.192   1.156   0.982  0.2152 -0.0622 -0.7564
  227SOL    HW1  680   2.158   1.153   1.078  0.8151 -0.3255 -0.8765
  227SOL    HW2  681   2.264   1.228   0.983  2.7095  0.3962 -0.2340
  228SOL     OW  682   1.358   0.506   2.440 -0.0220  0.1906 -0.3545
  228SOL    HW1  683   1.353   0.502   2.546 -0.6596  2.4820  0.9672
  228SOL    HW2  684   1.430   0.577   2.412 -0.2014  0.3661 -0.7296
  229SOL     OW  685   3.113   1.184   2.843 -0.0848 -0.0725 -0.0647
  229SOL    HW1  686   0.013   1.085   2.851 -0.9303 -0.5641  0.2545
  229SOL    HW2  687   3.019   1.187   2.802 -2.5042  0.5418  0.5677
  230SOL     OW  688   0.617   1.501   1.113 -0.3704  0.0373 -0.0627
  230SOL    HW1  689   0.553   1.532   1.039 -1.0945  2.5484 -0.3626
  230SOL    HW2  690   0.571   1.457   1.196 -2.2027 -2.2980  2.3583
  231SOL     OW  691   2.333   2.989   2.746 -0.2739  0.8407 -0.0349
  231SOL    HW1  692   2.316   3.074   2.798  2.6588  0.2490  2.1732
  231SOL    HW2  693   2.340   3.013   2.644 -0.2165 -0.9229 -1.9406
  232SOL     OW  694   0.303   2.213   0.187 -0.4041 -0.5737  0.1686
  232SOL    HW1  695   0.404   2.206   0.211  1.7731 -0.3443  1.8955
  232SOL    HW2  696   0.271   2.142   0.120 -1.0912  2.8560  0.0037
  233SOL     OW  697   1.368   2.288   2.059  0.3889 -0.4850 -0.1120
  233SOL    HW1  698   1.322   2.377   2.035 -0.2052 -1.3344  1.1353
  233SOL    HW2  699   1.468   2.288   2.045  0.3206  1.9356  0.9533
  234SOL     OW  700   1.373   1.432   1.492  0.3055  0.7999 -0.6538
  234SOL    HW1  701   1.474   1.443   1.461 -0.0874 -0.4553  0.0374
  234SOL    HW2  702   1.342   1.513   1.549  2.4550 -2.1342 -1.0256
  235SOL     OW  703   1.169   1.746   1.873 -0.3945 -0.1417 -0.1176
  235SOL    HW1  704   1.252   1.805   1.868 -0.6850  0.4646  0.7195
  235SOL    HW2  705   1.118   1.774   1.950  1.1669  0.4682 -1.8482
  236SOL     OW  706   1.465   3.035   2.799 -0.2909 -0.5626  0.3265
  236SOL    HW1  707   1.555   3.070   2.833 -1.0550  0.0060 -0.7388
  236SOL    HW2  708   1.469   2.934   2.798 -1.1985 -2.0256 -0.6029
  237SOL     OW  709   1.361   0.366   1.440  0.3495 -0.0179 -0.7061
  237SOL    HW1  710   1.452   0.401   1.432 -0.4571 -0.6897  1.4174
  237SOL    HW2  711   1.373   0.270   1.473  1.7859  1.7713 -3.3722
  238SOL     OW  712   1.326   0.464   3.098  0.3596 -0.1843 -0.3499
  238SOL    HW1  713   1.378   0.550   3.117 -0.2810  0.3724 -1.0268
  238SOL    HW2  714   1.226   0.471   3.119  2.4464  2.3133  0.4100
  239SOL     OW  715   2.950   0.935   2.718 -0.1258 -0.5923 -0.0327
  239SOL    HW1  716   2.893   1.019   2.707 -0.9962  0.6571 -0.1469
  239SOL    HW2  717   2.996   0.939   2.809  1.7224 -1.0179 -0.0386
  240SOL     OW  718   2.473   2.451   0.791  0.2979  0.4287  0.1593
  240SOL    HW1  719   2.494   2.374   0.847  1.0022  2.8854 -3.4895
  240SOL    HW2  720   2.427   2.433   0.700  1.2792 -0.8510  1.0086
  241SOL     OW  721   1.115   1.334   1.087 -0.2291  0.1329 -0.2700
  241SOL    HW1  722   1.111   1.387   1.172  0.5877 -2.7996 -0.1293
  241SOL    HW2  723   1.022   1.301   1.063  2.9829  2.0454 -1.8355
  242SOL     OW  724   0.609   0.653   0.744 -0.0332  0.1003 -0.3277
  242SOL    HW1  725   0.698   0.696   0.733 -2.0283 -1.0930  0.6020
  242SOL    HW2  726   0.612   0.563   0.796  2.0631 -0.7714  1.5472
  243SOL     OW  727   0.168   0.452   1.123  0.6393 -0.3029 -0.4162
  243SOL    HW1  728   0.160   0.533   1.188  1.0197 -3.8457 -0.9580
  243SOL    HW2  729   0.256   0.448   1.078 -1.5322  0.8051  0.8016
  244SOL     OW  730   0.943   0.076   0.388 -0.4251 -0.0724  0.4419
  244SOL    HW1  731   0.870   0.140   0.406  4.0204 -2.1759  0.9733
  244SOL    HW2  732   0.982   0.096   0.299 -0.9621 -0.0510  0.3517
  245SOL     OW  733   1.924   0.801   0.230  0.8755  0.0137  0.0428
  245SOL    HW1  734   1.868   0.798   0.139  0.6849 -1.9430 -1.7564
  245SOL    HW2  735   2.021   0.786   0.208 -1.1360  1.7794 -1.0997
  246SOL     OW  736   0.372   0.610   1.874  0.4418  0.1641 -0.5926
  246SOL    HW1  737   0.286   0.661   1.862 -2.0027 -0.9908  0.9672
  246SOL    HW2  738   0.384   0.599   1.973 -0.2222 -0.1740  1.0061
  247SOL     OW  739   0.618   0.010   2.099  0.2723 -0.1691 -0.3686
  247SOL    HW1  740   0.564   3.080   2.035  2.6517 -1.9079 -0.8570
  247SOL    HW2  741   0.716   3.102   2.107  1.7225 -0.2681  2.5514
  248SOL     OW  742   0.695   1.600   2.251 -0.0454  0.5522  0.0262
  248SOL    HW1  743   0.721   1.653   2.335 -0.3544  1.2961 -0.1759
  248SOL    HW2  744   0.778   1.563   2.207  2.5567 -0.7489 -0.5348
  249SOL     OW  745   0.678   2.902   0.050 -0.8223  0.0113  0.4283
  249SOL    HW1  746   0.745   2.966   0.009 -1.8759 -0.0917  1.1624
  249SOL    HW2  747   0.615   2.856   3.109  2.6285 -1.2620 -0.5868
  250SOL     OW  748   0.633   0.201   2.314 -0.1908  0.2131 -0.1346
  250SOL    HW1  749   0.546   0.216   2.373 -1.1171  1.8734 -0.5987
  250SOL    HW2  750   0.618   0.133   2.238  0.4436 -0.2720 -0.4238
  251SOL     OW  751   3.084   1.859   1.219  0.0981 -0.3535 -0.4342
  251SOL    HW1  752   3.111   1.814   1.137 -1.8343  1.2092  2.4531
  251SOL    HW2  753   3.007   1.813   1.269  1.1750  0.8225 -0.9892
  252SOL     OW  754   1.974   3.078   1.933  0.1633  0.6658  0.2079
  252SOL    HW1  755   1.919   3.080   2.020  1.4138 -0.4261  1.4678
  252SOL    HW2  756   1.915   3.081   1.850 -0.3440  0.3259  0.3336
  253SOL     OW  757   2.205   1.727   2.496  0.0147 -0.2154 -0.4707
  253SOL    HW1  758   2.121   1.661   2.503 -1.7718 -5.3724 -0.1270
  253SOL    HW2  759   2.197   1.807   2.556 -1.3244  1.4251 -0.8244
  254SOL     OW  760   0.819   1.530   1.656 -0.4024  0.9668 -0.7294
  254SOL    HW1  761   0.876   1.612   1.629  0.6727 -1.0540 -1.5839
  254SOL    HW2  762   0.731   1.554   1.695 -0.9027  2.0751  1.6147
  255SOL     OW  763   0.763   0.261   1.651  0.1488  0.1522  0.0188
  255SOL    HW1  764   0.864   0.252   1.659 -1.0186 -0.5754 -1.1505
  255SOL    HW2  765   0.725   0.167   1.670  0.4471  0.4901 -2.0321
  256SOL     OW  766   0.131   2.528   0.712  0.1529 -0.0835  0.0860
  256SOL    HW1  767   0.084   2.442   0.702 -0.7316  1.4710  1.9139
  256SOL    HW2  768   0.130   2.560   0.807 -1.5714 -2.6861  0.5569
  257SOL     OW  769   0.503   2.640   2.181  0.2238  0.7315 -0.1673
  257SOL    HW1  770   0.501   2.548   2.132  1.5219  1.8290  3.3968
  257SOL    HW2  771   0.547   2.633   2.273  0.8755 -1.8750 -0.9931
  258SOL     OW  772   1.442   1.440   2.087  0.0443  0.0837 -0.2112
  258SOL    HW1  773   1.463   1.444   1.985  1.0364 -1.5990 -0.1784
  258SOL    HW2  774   1.516   1.478   2.143 -1.6091 -3.9310  1.3317
  259SOL     OW  775   1.163   1.491   1.926  0.0055 -0.0409  0.4319
  259SOL    HW1  776   1.174   1.463   2.023 -0.6487 -1.5984 -0.5427
  259SOL    HW2  777   1.167   1.596   1.915  1.1174  0.1064  2.4518
  260SOL     OW  778   1.979   0.595   2.362 -0.0643  0.0842 -0.2994
  260SOL    HW1  779   1.990   0.500   2.389 -0.0845  1.9128 -1.3308
  260SOL    HW2  780   1.954   0.598   2.264 -1.4971 -1.8626 -1.1802
  261SOL     OW  781   0.785   1.440   0.812 -0.0577  0.1871  0.2118
  261SOL    HW1  782   0.700   1.383   0.826  1.1269 -0.1514 -1.5478
  261SOL    HW2  783   0.819   1.416   0.716  1.9645  0.4449 -1.0729
  262SOL     OW  784   2.098   2.160   2.681 -0.5952  0.0196 -0.4855
  262SOL    HW1  785   2.060   2.221   2.608  0.1582  1.8607  0.5050
  262SOL    HW2  786   2.117   2.216   2.767  2.4757  3.7798  2.4648
  263SOL     OW  787   0.976   2.364   1.087  0.0122  0.4645  0.0589
  263SOL    HW1  788   0.933   2.413   1.170 -2.3335  2.5279  0.3189
  263SOL    HW2  789   1.023   2.282   1.116 -3.5325 -1.1869 -1.0091
  264SOL     OW  790   0.089   2.361   0.218  0.8407  0.3540 -0.0441
  264SOL    HW1  791   0.056   2.322   0.306 -2.5090 -1.5129  1.3375
  264SOL    HW2  792   0.177   2.314   0.198 -0.9525 -0.2860  1.2628
  265SOL     OW  793   1.437   1.331   2.982 -0.3480  0.1611 -0.0565
  265SOL    HW1  794   1.465   1.234   2.957  0.8290 -1.6571 -0.4698
  265SOL    HW2  795   1.335   1.334   2.990 -0.1459  1.1372 -2.8424
  266SOL     OW  796   1.069   1.947   2.283  0.0292 -0.3364  0.1254
  266SOL    HW1  797   1.099   2.045   2.266  1.7299  1.8850  0.5537
  266SOL    HW2  798   1.010   1.915   2.203 -2.3850  0.3892  0.9618
  267SOL     OW  799   2.473   1.109   2.668 -0.5022  0.0556  0.0908
  267SOL    HW1  800   2.520   1.113   2.761 -1.2819  3.6788  0.4177
  267SOL    HW2  801   2.391   1.175   2.662 -1.6241  0.0532 -0.3639
  268SOL     OW  802   1.109   1.309   0.170 -0.1792 -0.3231  0.4549
  268SOL    HW1  803   1.172   1.378   0.131  3.3985 -1.4716  0.0201
  268SOL    HW2  804   1.137   1.219   0.135 -1.5125  2.8794  1.0287
  269SOL     OW  805   2.875   1.860   2.423  0.3354 -0.1636  0.3047
  269SOL    HW1  806   2.823   1.935   2.460  1.6142 -0.8080 -1.5667
  269SOL    HW2  807   2.901   1.801   2.501 -2.6819 -2.2856 -0.6690
  270SOL     OW  808   0.503   2.178   3.099  0.2637  0.0724 -0.1156
  270SOL    HW1  809   0.489   2.081   3.076 -1.5523  0.3344 -2.8156
  270SOL    HW2  810   0.421   2.237   3.084  1.7988 -0.5460  1.4469
  271SOL     OW  811   0.150   0.416   0.159  0.3097 -0.0697  0.0549
  271SOL    HW1  812   0.152   0.313   0.156  0.0527 -0.5771  1.5177
  271SOL    HW2  813   0.055   0.461   0.142 -0.0257 -0.0473 -1.5093
  272SOL     OW  814   2.960   0.075   0.272  0.1059 -0.2776 -0.5014
  272SOL    HW1  815   3.048   0.120   0.280  0.6063 -2.3858  1.0207
  272SOL    HW2  816   2.882   0.136   0.297 -0.7939 -2.7895 -0.5868
  273SOL     OW  817   0.252   3.046   1.822 -0.3160  0.4506  0.1371
  273SOL    HW1  818   0.271   3.021   1.921 -1.0218 -2.5401  1.5911
  273SOL    HW2  819   0.209   0.007   1.817 -0.1287 -1.6432 -3.2484
  274SOL     OW  820   0.106   0.572   1.356 -0.8247 -0.8372 -0.3019
  274SOL    HW1  821   0.022   0.524   1.387  1.8257 -0.1974 -0.8234
  274SOL    HW2  822   0.180   0.540   1.415  1.3642 -0.2906  0.8436
  275SOL     OW  823   0.809   1.690   1.127  0.4908 -0.0527 -0.5312
  275SOL    HW1  824   0.854   1.684   1.033  0.8847 -1.0631  0.2033
  275SOL    HW2  825   0.765   1.601   1.145  0.4303  0.1054  1.6446
  276SOL     OW  826   0.407   1.112   1.767  0.3541  0.2142  0.3628
  276SOL    HW1  827   0.436   1.153   1.851 -2.3319 -1.6380 -0.0726
  276SOL    HW2  828   0.476   1.040   1.745 -0.5236  3.3671  2.3202
  277SOL     OW  829   1.349   1.933   1.822  0.1161 -0.6102 -0.2649
  277SOL    HW1  830   1.394   1.959   1.906  0.0856 -1.8430 -1.7751
  277SOL    HW2  831   1.318   2.016   1.770 -0.7710 -3.3697  2.2032
  278SOL     OW  832   2.358   2.664   2.162 -0.2687 -0.0168  0.0277
  278SOL    HW1  833   2.306   2.749   2.166  1.2038 -0.2603 -0.2505
  278SOL    HW2  834   2.320   2.598   2.230 -0.3299  0.8447 -3.1770
  279SOL     OW  835   1.306   1.925   3.054  0.3292  0.1130 -0.1006
  279SOL    HW1  836   1.381   1.916   3.123  0.9882  1.6725 -0.4658
  279SOL    HW2  837   1.307   2.022   3.027 -0.1152  2.0818  0.0052
  280SOL     OW  838   1.262   0.278   0.345  0.1392  0.3316 -0.2740
  280SOL    HW1  839   1.276   0.197   0.407 -0.6806  1.5065 -1.3443
  280SOL    HW2  840   1.219   0.353   0.395  1.9038 -1.2801  1.3297
  281SOL     OW  841   0.495   0.545   1.279  0.6887  0.0338  0.4528
  281SOL    HW1  842   0.462   0.643   1.274  1.2139 -2.1704 -3.1959
  281SOL    HW2  843   0.438   0.504   1.354 -1.4529  0.2205 -0.8094
  282SOL     OW  844   0.072   2.716   0.514  0.0017 -0.5600 -0.5371
  282SOL    HW1  845   0.095   2.653   0.591 -0.4127  1.3466  2.5797
  282SOL    HW2  846   0.132   2.711   0.432  0.7228  0.3454  1.0188
  283SOL     OW  847   1.473   1.867   1.588  0.0570  0.0818 -0.3056
  283SOL    HW1  848   1.423   1.893   1.500 -1.7598  0.5616 -0.6430
  283SOL    HW2  849   1.448   1.916   1.675  1.5626  1.5827  1.1788
  284SOL     OW  850   2.782   2.784   1.554  0.5260 -0.0354  0.1896
  284SOL    HW1  851   2.746   2.878   1.549  2.8549 -0.5554  0.1154
  284SOL    HW2  852   2.877   2.782   1.531 -2.3891 -0.2024 -0.3836
  285SOL     OW  853   0.296   2.438   0.449  0.7679  0.1558  0.1781
  285SOL    HW1  854   0.224   2.380   0.405 -0.2646  1.0776  1.6842
  285SOL    HW2  855   0.320   2.416   0.545 -1.3625  0.0364 -2.4700
  286SOL     OW  856   0.454   2.895   1.199 -0.1661 -0.5984 -0.2659
  286SOL    HW1  857   0.502   2.954   1.126 -1.2256  1.5915  1.6459
  286SOL    HW2  858   0.354   2.899   1.194 -1.1085 -0.9041  0.0018
  287SOL     OW  859   0.506   1.286   0.817 -0.3139 -0.0100 -0.5648
  287SOL    HW1  860   0.440   1.316   0.889  0.2606 -0.4157 -1.3079
  287SOL    HW2  861   0.475   1.313   0.725  0.5592 -0.6128  0.4947
  288SOL     OW  862   1.425   2.088   2.503 -0.0344  0.2575  0.2446
  288SOL    HW1  863   1.435   2.034   2.584 -0.8226  2.1669 -1.8538
  288SOL    HW2  864   1.428   2.034   2.418  0.1368  3.1865  0.1292
  289SOL     OW  865   2.553   1.720   0.208 -0.3505 -0.1493  0.3450
  289SOL    HW1  866   2.456   1.738   0.235  0.0204 -0.5690  1.6535
  289SOL    HW2  867   2.587   1.647   0.269  1.1144  1.4796  2.3085
  290SOL     OW  868   1.296   1.477   0.961 -0.0706  0.0710  0.5515
  290SOL    HW1  869   1.369   1.508   1.025 -1.6504 -1.9611  0.7175
  290SOL    HW2  870   1.221   1.417   1.003 -3.2289 -1.2224  0.8129
  291SOL     OW  871   1.491   1.077   2.930 -0.0413 -0.3854  0.5227
  291SOL    HW1  872   1.417   1.026   2.982 -0.4636 -0.1466  0.9611
  291SOL    HW2  873   1.502   1.037   2.836  1.6256 -1.6978 -2.4811
  292SOL     OW  874   1.315   1.604   0.362  0.1833 -0.4819 -0.5387
  292SOL    HW1  875   1.289   1.700   0.340 -1.0927 -1.6893  0.4665
  292SOL    HW2  876   1.394   1.604   0.427 -0.4742 -0.2927 -2.7514
  293SOL     OW  877   1.578   0.118   1.421 -0.0395 -0.0767  0.1294
  293SOL    HW1  878   1.630   0.116   1.507 -1.5043 -0.4581  0.5188
  293SOL    HW2  879   1.482   0.092   1.450 -1.4543  2.7395 -0.9633
  294SOL     OW  880   2.001   1.010   2.753 -0.1890 -0.0928  0.0468
  294SOL    HW1  881   1.907   1.024   2.793 -0.2561 -1.6664  1.5927
  294SOL    HW2  882   2.072   1.076   2.792  0.4427  0.3911  0.2090
  295SOL     OW  883   1.831   1.824   3.037 -0.0462  0.0258  0.2170
  295SOL    HW1  884   1.822   1.775   3.125 -1.0274  1.0700 -2.3231
  295SOL    HW2  885   1.755   1.794   2.977  1.0840  0.2173  0.3133
  296SOL     OW  886   1.642   1.326   1.197 -0.6981 -0.6317  0.6905
  296SOL    HW1  887   1.696   1.344   1.114  1.3393  0.5461  0.5667
  296SOL    HW2  888   1.614   1.227   1.203 -2.2234 -0.9425  0.9006
  297SOL     OW  889   0.347   0.799   2.157 -0.3151 -0.4216  0.1488
  297SOL    HW1  890   0.413   0.722   2.141 -0.3993  1.6039 -2.9636
  297SOL    HW2  891   0.300   0.789   2.244  0.9374  1.0012 -0.8879
  298SOL     OW  892   1.543   1.970   1.284 -0.1992 -0.2252 -0.7129
  298SOL    HW1  893   1.444   1.943   1.301  2.1104 -1.0394  3.1266
  298SOL    HW2  894   1.566   2.057   1.338  0.7447 -2.5059  0.4455
  299SOL     OW  895   1.056   0.141   2.543  0.8299  0.0578  0.1924
  299SOL    HW1  896   1.070   0.042   2.545 -1.7955 -1.3128 -0.1820
  299SOL    HW2  897   0.959   0.162   2.526  0.0089 -0.2319  1.8839
  300SOL     OW  898   2.683   2.059   0.512 -0.9956  0.1451 -0.2109
  300SOL    HW1  899   2.782   2.047   0.522  0.9694 -0.0985  0.1216
  300SOL    HW2  900   2.658   2.133   0.448 -0.6991 -2.8382  0.2581
  301SOL     OW  901   2.323   0.306   2.551 -0.0374  0.7660 -0.7124
  301SOL    HW1  902   2.341   0.399   2.516 -1.3721 -1.6801  2.1422
  301SOL    HW2  903   2.378   0.285   2.634 -1.6360 -2.3084  1.0860
  302SOL     OW  904   2.252   2.210   3.070 -0.8718 -0.1543  0.3961
  302SOL    HW1  905   2.253   2.109   3.050  4.9418 -1.5760  0.0322
  302SOL    HW2  906   2.348   2.249   3.057  3.2747  2.4558  1.1240
  303SOL     OW  907   3.074   2.605   2.583  0.0181  0.2166 -0.7767
  303SOL    HW1  908   0.026   2.662   2.584 -1.7747 -1.3335 -1.2440
  303SOL    HW2  909   3.097   2.511   2.623  1.9636 -2.8248  0.0145
  304SOL     OW  910   0.249   1.559   1.194  0.4346  0.1544  0.0779
  304SOL    HW1  911   0.175   1.527   1.259 -1.3328 -0.3705 -3.1785
  304SOL    HW2  912   0.322   1.617   1.237  0.0015  0.8998  0.7857
  305SOL     OW  913   0.117   0.438   2.072  0.1820 -0.1850  0.1298
  305SOL    HW1  914   0.204   0.422   2.117  1.8238  2.0377 -2.0230
  305SOL    HW2  915   0.078   0.354   2.035  2.7938  0.2925  0.6593
  306SOL     OW  916   1.061   1.775   0.654 -0.2503 -0.3085 -0.0662
  306SOL    HW1  917   1.147   1.726   0.649 -0.8746 -0.1986  0.9560
  306SOL    HW2  918   1.033   1.821   0.566 -3.3000  0.5251 -1.0825
  307SOL     OW  919   0.138   0.028   0.429 -0.8523 -0.7090 -0.1006
  307SOL    HW1  920   0.232   3.114   0.413 -1.4763  0.2827  1.3235
  307SOL    HW2  921   0.076   3.089   0.473 -2.2392  1.3536  0.8132
  308SOL     OW  922   3.014   0.943   2.390  0.1710 -0.4030  0.2216
  308SOL    HW1  923   3.025   0.870   2.464 -0.2636 -1.6499 -0.3934
  308SOL    HW2  924   3.100   0.985   2.360 -0.9741  1.6147 -0.8943
  309SOL     OW  925   2.945   1.790   2.684  0.3345 -0.0842  0.3786
  309SOL    HW1  926   2.948   1.690   2.700 -1.3375 -2.7101 -1.9727
  309SOL    HW2  927   2.925   1.842   2.765  1.1338 -1.8703 -2.5003
  310SOL     OW  928   2.167   0.709   0.186  0.2959  0.0733  0.8355
  310SOL    HW1  929   2.267   0.715   0.210  3.6557  0.9172 -2.2996
  310SOL    HW2  930   2.163   0.694   0.085  2.0725 -0.1084  1.0720
  311SOL     OW  931   1.929   0.717   3.099  0.2123  0.7767 -0.3893
  311SOL    HW1  932   1.873   0.728   3.014 -0.0468  0.7084 -0.1183
  311SOL    HW2  933   2.025   0.707   3.079  0.0117 -1.4644 -1.7926
  312SOL     OW  934   1.404   1.890   2.721  0.2675 -0.4680  0.0413
  312SOL    HW1  935   1.473   1.851   2.781 -2.3682  1.8673  1.5854
  312SOL    HW2  936   1.315   1.849   2.741  3.0406 -0.3786 -1.4600
  313SOL     OW  937   0.197   0.645   0.397 -0.7854 -0.3838 -0.1689
  313SOL    HW1  938   0.205   0.591   0.310  0.5568 -1.9442 -1.2551
  313SOL    HW2  939   0.168   0.590   0.478  1.0813 -0.3120 -1.3666
  314SOL     OW  940   0.623   1.831   1.334  0.1637  0.5595  0.2214
  314SOL    HW1  941   0.717   1.853   1.329 -5.1820  1.5397 -0.3752
  314SOL    HW2  942   0.583   1.847   1.424  0.3741 -1.2196 -0.8962
  315SOL     OW  943   0.971   1.787   2.057  0.4979 -0.0256 -0.0584
  315SOL    HW1  944   0.964   1.690   2.095 -0.8328  1.6771  1.9403
  315SOL    HW2  945   0.895   1.803   1.996  2.0098  0.2904  0.5622
  316SOL     OW  946   0.407   2.602   0.707 -0.2583 -0.5369  0.1939
  316SOL    HW1  947   0.312   2.567   0.720  0.6635  1.2541  1.0535
  316SOL    HW2  948   0.410   2.699   0.677 -1.1575 -1.4042 -1.1803
  317SOL     OW  949   2.519   0.225   1.234 -0.6717  0.1235 -1.0795
  317SOL    HW1  950   2.519   0.238   1.133 -1.0755 -0.7577 -0.0043
  317SOL    HW2  951   2.610   0.192   1.275  1.9406  0.8285 -0.6527
  318SOL     OW  952   1.520   2.990   0.469 -0.1777  0.1609 -0.5732
  318SOL    HW1  953   1.595   3.057   0.492 -0.6948  1.7614 -2.5674
  318SOL    HW2  954   1.496   2.981   0.372  0.4128  0.7640  4.1938
  319SOL     OW  955   1.786   0.613   2.884 -0.1624  0.5721  0.4733
  319SOL    HW1  956   1.770   0.515   2.907  1.3122  0.6447  2.4603
  319SOL    HW2  957   1.866   0.624   2.821 -0.2404  0.8941 -0.9190
  320SOL     OW  958   3.015   1.982   1.798 -0.1591  0.5661  0.6354
  320SOL    HW1  959   2.942   2.022   1.857 -0.5368  1.9109 -0.5119
  320SOL    HW2  960   3.012   1.881   1.787  0.4003  0.6371 -1.0299
  321SOL     OW  961   0.090   2.522   2.931 -0.5180  0.3986 -0.3753
  321SOL    HW1  962   0.039   2.512   3.022 -2.6946  0.0059  2.9752
  321SOL    HW2  963   0.052   2.460   2.860 -1.0581  1.7718 -0.9015
  322SOL     OW  964   2.640   0.712   2.523 -0.3984 -0.6944 -0.4959
  322SOL    HW1  965   2.596   0.773   2.454 -0.4123 -0.5492 -0.3414
  322SOL    HW2  966   2.686   0.630   2.479  0.4152 -2.9760  0.6082
  323SOL     OW  967   1.993   1.215   0.805 -0.0419  0.1932  0.4998
  323SOL    HW1  968   2.070   1.199   0.869 -1.1668 -1.4232  1.2273
  323SOL    HW2  969   1.962   1.131   0.750  1.1988  2.6368  0.8648
  324SOL     OW  970   0.197   0.202   1.271 -0.0818 -0.0395  0.1687
  324SOL    HW1  971   0.295   0.184   1.305  1.9831  2.9596  6.3844
  324SOL    HW2  972   0.188   0.284   1.216 -1.5607 -2.0689 -0.0627
  325SOL     OW  973   2.805   3.113   1.790 -0.2217 -0.4124  0.4003
  325SOL    HW1  974   2.824   0.064   1.850  0.5487  0.0973 -0.4691
  325SOL    HW2  975   2.711   3.083   1.810  1.9830  2.2290 -0.8198
  326SOL     OW  976   1.554   2.843   0.179  0.1064 -0.2327  0.3744
  326SOL    HW1  977   1.580   2.757   0.233 -1.5409 -2.5046  0.8335
  326SOL    HW2  978   1.620   2.854   0.101  1.8035 -2.4180 -1.2893
  327SOL     OW  979   1.851   2.031   0.334 -0.2477  0.5013  0.3575
  327SOL    HW1  980   1.809   2.092   0.404 -2.1602 -3.8104  0.2482
  327SOL    HW2  981   1.824   1.935   0.356 -1.7540 -1.5553  0.9769
  328SOL     OW  982   3.117   2.147   2.043  0.0784 -0.3571  0.3052
  328SOL    HW1  983   3.026   2.104   2.020 -1.0690 -0.5264 -0.9769
  328SOL    HW2  984   0.017   2.198   1.956  1.5210  1.0133 -4.0666
  329SOL     OW  985   3.079   2.318   1.202 -0.2276 -0.2079  0.8432
  329SOL    HW1  986   2.993   2.363   1.214  1.9549 -2.8673 -3.5053
  329SOL    HW2  987   3.082   2.236   1.259  0.0648  0.6573  1.6053
  330SOL     OW  988   2.410   0.847   2.640  0.8940  0.0187  0.2313
  330SOL    HW1  989   2.490   0.790   2.617  1.2400 -1.5585  0.8478
  330SOL    HW2  990   2.433   0.946   2.631 -1.6973 -2.2959 -0.8638
  331SOL     OW  991   2.364   1.689   0.855  0.4078  0.0719  0.2681
  331SOL    HW1  992   2.428   1.647   0.789  0.0194  1.5687 -1.3019
  331SOL    HW2  993   2.379   1.784   0.880 -1.6362 -0.2008  0.6360
  332SOL     OW  994   0.246   2.865   0.918  0.1227  0.0060 -0.6426
  332SOL    HW1  995   0.277   2.847   0.821 -3.6741 -0.5918  1.5311
  332SOL    HW2  996   0.248   2.961   0.938 -1.6917 -3.6015 -0.6763
  333SOL     OW  997   0.008   1.748   2.276 -0.3519  0.0978  0.1139
  333SOL    HW1  998   0.007   1.669   2.342 -1.1211  3.8772 -0.4307
  333SOL    HW2  999   3.047   1.792   2.264 -0.9613  2.2332  2.0450
  334SOL     OW 1000   0.574   1.043   0.771 -0.3300  0.7150 -0.4830
  334SOL    HW1 1001   0.552   1.138   0.793  2.5507 -0.6887 -1.8699
  334SOL    HW2 1002   0.595   0.989   0.856  1.1220  0.0214  2.5210
  335SOL     OW 1003   0.067   1.512   2.419  0.2968 -0.0895  0.4935
  335SOL    HW1 1004   0.143   1.563   2.465  1.0430 -2.9641 -0.9209
  335SOL    HW2 1005   0.104   1.429   2.372 -0.4469 -0.1972  1.6953
  336SOL     OW 1006   2.214   2.914   2.253 -0.2240 -0.4614 -0.6609
  336SOL    HW1 1007   2.114   2.895   2.236 -1.7051  1.7184  0.5678
  336SOL    HW2 1008   2.259   2.933   2.168 -1.0209 -3.3419  3.2014
  337SOL     OW 1009   0.877   0.776   1.003 -0.1153 -0.0148  0.1074
  337SOL    HW1 1010   0.800   0.836   1.036  2.4056 -1.0404 -1.8154
  337SOL    HW2 1011   0.875   0.687   1.057  0.6354 -0.4647 -0.1842
  338SOL     OW 1012   1.762   1.812   1.142 -0.1241  0.2476 -0.8618
  338SOL    HW1 1013   1.819   1.752   1.202 -1.1554  1.9419  0.7311
  338SOL    HW2 1014   1.708   1.883   1.192  0.3083  1.0796 -0.7038
  339SOL     OW 1015   0.397   1.785   1.229 -0.0502 -0.1486 -0.1583
  339SOL    HW1 1016   0.478   1.797   1.292  1.9858 -1.2032  0.4500
  339SOL    HW2 1017   0.316   1.844   1.256 -0.6285 -0.1939  0.9231
  340SOL     OW 1018   0.872   3.004   2.085 -0.2560  1.1067  0.5075
  340SOL    HW1 1019   0.840   2.969   2.176  1.6351 -2.3657  4.2770
  340SOL    HW2 1020   0.855   2.931   2.019  0.9842  1.4962  1.5074
  341SOL     OW 1021   1.902   1.638   0.459  0.0724 -0.0619  0.3211
  341SOL    HW1 1022   1.830   1.655   0.531 -0.1648  0.6120  0.7141
  341SOL    HW2 1023   1.963   1.561   0.487 -0.7626  0.1474 -2.1050
  342SOL     OW 1024   2.125   1.231   0.403  0.0778  0.3609  0.0248
  342SOL    HW1 1025   2.207   1.207   0.347  0.4689  2.1846  1.5568
  342SOL    HW2 1026   2.049   1.243   0.337  1.2776  0.2525  2.0786
  343SOL     OW 1027   2.026   0.188   1.025  0.2836 -0.0151  0.4734
  343SOL    HW1 1028   2.051   0.192   1.125 -1.0914  0.8900 -1.7400
  343SOL    HW2 1029   2.022   0.089   1.000 -1.0070 -0.3691 -1.1961
  344SOL     OW 1030   2.632   0.434   0.202  0.1631  0.1420 -0.1145
  344SOL    HW1 1031   2.698   0.451   0.126 -0.0194  0.2220 -1.2877
  344SOL    HW2 1032   2.542   0.400   0.162 -3.3391 -0.7711  0.1908
  345SOL     OW 1033   1.090   2.416   1.764 -0.0909  0.5167  0.1710
  345SOL    HW1 1034   1.116   2.451   1.673 -1.1714  3.7645 -0.6600
  345SOL    HW2 1035   0.988   2.404   1.767 -1.9504 -1.3697 -1.4123
  346SOL     OW 1036   2.292   2.322   1.123  0.2204 -0.2955  0.3518
  346SOL    HW1 1037   2.231   2.402   1.120  1.2135  0.2776 -0.8866
  346SOL    HW2 1038   2.333   2.316   1.218 -1.3095  2.9360  0.4563
  347SOL     OW 1039   2.193   3.013   1.261 -0.1929  0.7034  0.3207
  347SOL    HW1 1040   2.292   3.042   1.276  1.2722  1.3995  2.3224
  347SOL    HW2 1041   2.130   3.057   1.328  3.2281  1.4770 -2.5621
  348SOL     OW 1042   1.015   1.129   1.258  0.2730 -0.1365  0.1019
  348SOL    HW1 1043   1.025   1.158   1.354 -1.6067 -2.3138  0.5323
  348SOL    HW2 1044   0.921   1.155   1.223 -0.5144 -0.8111 -0.7082
  349SOL     OW 1045   2.451   0.555   2.993 -0.1130  0.2908  0.4261
  349SOL    HW1 1046   2.533   0.611   3.002  0.4794  0.4333  0.1961
  349SOL    HW2 1047   2.467   0.471   3.051  2.9138  0.7223 -0.9421
  350SOL     OW 1048   1.983   2.241   2.962  0.0087  0.5681  0.1877
  350SOL    HW1 1049   1.919   2.180   3.014  0.9087  3.2978 -0.2283
  350SOL    HW2 1050   2.073   2.252   3.009 -0.4914 -2.0652 -2.2631
  351SOL     OW 1051   0.898   0.511   0.465 -0.1309  0.0142 -0.2554
  351SOL    HW1 1052   0.840   0.595   0.459 -0.9535  1.6470  1.0561
  351SOL    HW2 1053   0.995   0.537   0.438 -0.5371 -0.2215 -1.5313
  352SOL     OW 1054   1.577   2.205   2.898  0.8535 -0.4283  0.0265
  352SOL    HW1 1055   1.594   2.145   2.820 -2.6964  1.9272  1.6035
  352SOL    HW2 1056   1.646   2.196   2.971 -1.9674  3.6583  2.0289
  353SOL     OW 1057   0.522   0.870   2.942  0.2946 -0.1198 -0.6387
  353SOL    HW1 1058   0.539   0.847   2.846  0.0633 -1.2283 -0.2032
  353SOL    HW2 1059   0.592   0.939   2.976  0.2666  0.3812 -0.7147
  354SOL     OW 1060   0.664   2.395   2.696 -0.3258  0.8147  0.1880
  354SOL    HW1 1061   0.611   2.319   2.736  0.7287 -1.5102 -0.1454
  354SOL    HW2 1062   0.638   2.480   2.741  0.4585 -0.3509 -0.4791
  355SOL     OW 1063   2.651   2.727   1.802  0.9489  0.2920 -0.3551
  355SOL    HW1 1064   2.709   2.768   1.873  0.3398 -0.4401  0.5481
  355SOL    HW2 1065   2.675   2.749   1.708 -0.8800 -4.1497 -0.5576
  356SOL     OW 1066   2.719   1.253   1.143  0.0286  0.5849  0.3048
  356SOL    HW1 1067   2.740   1.249   1.242  0.1976  0.8836  1.7436
  356SOL    HW2 1068   2.700   1.349   1.112 -0.4820 -1.2389  0.2658
  357SOL     OW 1069   2.750   0.172   1.345 -0.4213  0.2792 -0.0390
  357SOL    HW1 1070   2.764   0.092   1.411 -1.4604 -0.9944  3.9015
  357SOL    HW2 1071   2.839   0.179   1.283  1.5955  1.2903 -0.8178
  358SOL     OW 1072   0.811   1.996   1.606 -0.0700 -0.0048  0.5296
  358SOL    HW1 1073   0.899   2.006   1.556 -0.4862 -0.0625  2.2897
  358SOL    HW2 1074   0.741   2.060   1.566  0.6829 -0.7241  1.3546
  359SOL     OW 1075   2.878   2.698   2.724  0.6210  0.0718 -0.5130
  359SOL    HW1 1076   2.843   2.791   2.700  3.1404 -1.8449  0.4345
  359SOL    HW2 1077   2.960   2.677   2.666  1.4021 -0.8109  1.3444
  360SOL     OW 1078   1.310   0.970   1.430 -0.2711  0.5648  0.1740
  360SOL    HW1 1079   1.209   0.978   1.444 -0.8134 -0.2599 -1.4224
  360SOL    HW2 1080   1.337   0.872   1.421 -0.4056  0.4452 -1.2143
  361SOL     OW 1081   2.379   0.155   0.798  0.2475  0.5972 -0.2455
  361SOL    HW1 1082   2.314   0.229   0.820 -0.4167  0.5557  0.9506
  361SOL    HW2 1083   2.356   0.130   0.704 -1.3014 -0.1410  0.9812
  362SOL     OW 1084   0.560   3.110   0.704 -0.4388 -0.2315 -0.1654
  362SOL    HW1 1085   0.643   3.055   0.727 -0.4410  3.4317  0.9655
  362SOL    HW2 1086   0.588   0.074   0.675  0.0792 -0.9769  0.5302
  363SOL     OW 1087   0.624   1.513   0.560  0.2051  0.0525 -0.1878
  363SOL    HW1 1088   0.538   1.460   0.562 -2.5842  0.0972 -0.8432
  363SOL    HW2 1089   0.703   1.454   0.557 -1.5893  1.0659  0.0507
  364SOL     OW 1090   0.576   0.963   1.632  0.3498  0.8678 -0.6054
  364SOL    HW1 1091   0.597   0.868   1.666 -4.4110  1.0859  0.5848
  364SOL    HW2 1092   0.526   0.958   1.544 -0.7918 -1.1192 -2.2474
  365SOL     OW 1093   2.874   1.046   0.796 -0.2403 -0.0013 -0.0593
  365SOL    HW1 1094   2.817   1.029   0.881  0.9951 -0.0175 -3.2931
  365SOL    HW2 1095   2.953   0.981   0.790  2.4960  1.6304 -2.9520
  366SOL     OW 1096   2.715   1.395   0.598  0.1558  0.1501  0.0091
  366SOL    HW1 1097   2.690   1.308   0.638  1.8339  1.5975 -0.3912
  366SOL    HW2 1098   2.811   1.408   0.627  1.1991  0.6708 -0.8479
  367SOL     OW 1099   2.136   2.131   2.284 -0.3530 -0.8817  0.1418
  367SOL    HW1 1100   2.104   2.054   2.230  1.1122  2.2408 -0.7255
  367SOL    HW2 1101   2.063   2.155   2.356 -1.3525 -1.5663  1.0690
  368SOL     OW 1102   2.799   1.806   0.831  0.9985 -0.0750  0.5145
  368SOL    HW1 1103   2.821   1.716   0.876 -1.7381  1.2000  0.1120
  368SOL    HW2 1104   2.731   1.794   0.757 -0.5390 -1.6710 -4.6332
  369SOL     OW 1105   1.985   2.454   2.815 -0.2980 -0.3291  0.8581
  369SOL    HW1 1106   1.980   2.385   2.891 -1.6285 -0.4795  1.9727
  369SOL    HW2 1107   1.893   2.472   2.779  1.1093 -1.7317  1.2822
  370SOL     OW 1108   0.039   0.037   1.091 -0.0383 -0.4869  0.2408
  370SOL    HW1 1109   0.108   0.091   1.140  0.8133  0.8298 -0.3893
  370SOL    HW2 1110   0.048   0.059   0.991  0.4848 -0.4823  2.3825
  371SOL     OW 1111   0.685   1.916   0.112 -0.2197  0.3478  0.3837
  371SOL    HW1 1112   0.728   1.853   0.185  0.6458 -3.0939  0.9508
  371SOL    HW2 1113   0.586   1.947   0.136 -0.1253  1.7915 -1.2173
  372SOL     OW 1114   1.183   1.116   3.110 -0.0102  0.0729  0.2304
  372SOL    HW1 1115   1.172   1.169   3.020  0.1466  1.8328 -2.1238
  372SOL    HW2 1116   1.140   1.025   3.105  1.1460 -0.7965 -1.1197
  373SOL     OW 1117   1.472   2.642   2.402  0.0549  0.1663 -0.0463
  373SOL    HW1 1118   1.532   2.564   2.418  2.1714  2.0971  0.7180
  373SOL    HW2 1119   1.525   2.728   2.393  1.2924  0.4679 -1.2443
  374SOL     OW 1120   0.279   2.312   3.016 -0.3646 -0.1768  0.4119
  374SOL    HW1 1121   0.196   2.254   3.040 -4.5353 -2.2483 -1.6483
  374SOL    HW2 1122   0.250   2.403   2.980 -1.9602  0.7544 -1.4074
  375SOL     OW 1123   0.668   1.242   1.531  0.2874  0.1710 -0.1346
  375SOL    HW1 1124   0.658   1.146   1.568 -0.9106 -2.2418  0.5767
  375SOL    HW2 1125   0.664   1.311   1.605  0.0349  0.9568  2.9379
  376SOL     OW 1126   0.345   2.346   1.875 -0.3990 -0.4150 -0.1594
  376SOL    HW1 1127   0.405   2.339   1.790  0.3294  0.6902 -1.5404
  376SOL    HW2 1128   0.305   2.256   1.901  1.1079  1.2915  0.0370
  377SOL     OW 1129   2.961   1.458   2.574 -0.0847  0.4730  0.1583
  377SOL    HW1 1130   3.052   1.491   2.535  2.4508  1.2048 -1.1492
  377SOL    HW2 1131   2.954   1.358   2.551 -0.6366  0.4566 -1.5246
  378SOL     OW 1132   1.170   3.110   0.048 -0.2155  0.7438  0.2316
  378SOL    HW1 1133   1.206   0.013   3.088 -1.0937  0.9404  2.5759
  378SOL    HW2 1134   1.222   3.025   0.080 -4.2021  1.4706 -0.7479
  379SOL     OW 1135   1.885   0.737   0.752  0.2525  0.1476 -0.0092
  379SOL    HW1 1136   1.854   0.822   0.797 -1.2130  2.6887  0.5765
  379SOL    HW2 1137   1.852   0.732   0.656 -0.2515  1.4937  0.0745
  380SOL     OW 1138   0.205   1.967   1.318 -0.2655 -0.5758  0.4537
  380SOL    HW1 1139   0.223   1.976   1.419 -0.4372  0.6056 -0.8535
  380SOL    HW2 1140   0.114   1.941   1.303  3.8360 -0.0164 -0.0579
  381SOL     OW 1141   2.294   1.721   2.228  0.2444 -0.3008 -0.7455
  381SOL    HW1 1142   2.265   1.735   2.323 -0.2306  1.7762 -1.6213
  381SOL    HW2 1143   2.302   1.624   2.199 -0.7677 -2.2325 -0.2066
  382SOL     OW 1144   3.117   0.312   2.646 -0.4505  0.9653  0.0210
  382SOL    HW1 1145   3.054   0.235   2.668  0.4536  0.9366  2.5589
  382SOL    HW2 1146   3.123   0.325   2.546  0.0097 -1.2627  0.4463
  383SOL     OW 1147   1.850   1.354   2.920  0.0763  0.4356  0.4505
  383SOL    HW1 1148   1.932   1.401   2.949 -0.7301  0.8729 -1.0706
  383SOL    HW2 1149   1.778   1.378   2.985  0.7392 -1.4747  1.1366
  384SOL     OW 1150   1.051   2.247   1.502 -0.1472  0.1793  0.0807
  384SOL    HW1 1151   1.119   2.227   1.572  1.3726  0.7174 -2.3990
  384SOL    HW2 1152   1.050   2.349   1.490 -2.4047  2.1405 -0.5431
  385SOL     OW 1153   1.738   2.608   0.801  0.1466  0.1249  0.3716
  385SOL    HW1 1154   1.793   2.682   0.840 -0.6540 -0.0891  0.9507
  385SOL    HW2 1155   1.769   2.591   0.702  3.1996 -1.3129 -1.1434
  386SOL     OW 1156   1.889   2.197   1.076 -0.3269  0.2152  0.6404
  386SOL    HW1 1157   1.906   2.108   1.025 -1.5608 -2.6389 -1.2415
  386SOL    HW2 1158   1.815   2.257   1.038 -1.7562  0.7287 -0.3643
  387SOL     OW 1159   0.063   2.320   1.494 -0.7943 -0.1415 -0.0557
  387SOL    HW1 1160   0.017   2.254   1.432 -3.1218  0.3718  0.9385
  387SOL    HW2 1161   3.124   2.381   1.541 -0.2562  1.6028 -0.3568
  388SOL     OW 1162   2.973   0.638   1.705  0.0657  0.4345  0.3324
  388SOL    HW1 1163   2.920   0.713   1.659 -3.2853  1.8185  1.7063
  388SOL    HW2 1164   2.946   0.629   1.801 -1.8198 -0.7812 -1.0095
  389SOL     OW 1165   1.823   0.844   0.470 -0.1017  0.3907 -0.3605
  389SOL    HW1 1166   1.858   0.840   0.375  2.4979  0.5248 -1.2507
  389SOL    HW2 1167   1.737   0.790   0.479  0.1740  0.9461  2.9586
  390SOL     OW 1168   0.963   1.981   2.536  0.1709 -0.6303 -0.3394
  390SOL    HW1 1169   0.875   1.980   2.489  1.4224 -0.0897 -0.5253
  390SOL    HW2 1170   1.033   1.934   2.472  0.9800 -1.9990  0.4849
  391SOL     OW 1171   0.769   2.092   2.872 -0.5355  0.2625 -0.4572
  391SOL    HW1 1172   0.852   2.135   2.839 -2.8905 -3.3217  0.0566
  391SOL    HW2 1173   0.683   2.141   2.848  1.0219 -0.5119  1.3011
  392SOL     OW 1174   0.039   2.892   1.656 -0.2390  0.3143  0.5222
  392SOL    HW1 1175   0.126   2.936   1.693  0.5629 -0.3072  0.8707
  392SOL    HW2 1176   3.097   2.881   1.728  2.4399 -1.2804  2.2642
  393SOL     OW 1177   1.618   2.610   0.333  0.0079 -0.7195 -0.1873
  393SOL    HW1 1178   1.648   2.553   0.256 -1.3735 -0.0502  1.6820
  393SOL    HW2 1179   1.558   2.555   0.395 -0.2977  1.2061 -1.8441
  394SOL     OW 1180   0.707   0.451   2.201 -0.3222 -0.7183 -0.2598
  394SOL    HW1 1181   0.758   0.459   2.113  1.0319  0.7117 -0.9629
  394SOL    HW2 1182   0.692   0.352   2.234 -1.2931 -4.1336  4.0923
  395SOL     OW 1183   0.264   1.233   1.270 -0.2216 -0.2914  0.4980
  395SOL    HW1 1184   0.200   1.170   1.218 -1.6078  1.2117 -1.4860
  395SOL    HW2 1185   0.202   1.301   1.317  0.5412 -1.0004 -2.4549
  396SOL     OW 1186   1.933   1.125   2.342  0.6346 -0.6455 -0.4486
  396SOL    HW1 1187   1.864   1.192   2.368  0.3376 -2.7007  0.8999
  396SOL    HW2 1188   1.959   1.064   2.420 -1.8846 -2.4839  0.4047
  397SOL     OW 1189   0.815   0.224   3.098 -0.1563 -0.0397 -0.0913
  397SOL    HW1 1190   0.878   0.192   0.043 -1.0885  1.0367  0.4856
  397SOL    HW2 1191   0.718   0.235   0.009 -1.4084  0.1132  2.6999
  398SOL     OW 1192   0.770   1.866   3.007 -0.4776 -0.0582 -0.3173
  398SOL    HW1 1193   0.744   1.889   3.101 -0.5181  1.5924 -1.2560
  398SOL    HW2 1194   0.766   1.950   2.948 -2.0632  0.9290  0.9352
  399SOL     OW 1195   2.570   1.547   2.821  0.4316  0.2630  0.8106
  399SOL    HW1 1196   2.519   1.525   2.735 -1.1228  0.5637  1.9646
  399SOL    HW2 1197   2.517   1.514   2.896 -0.5102  1.6784 -0.6475
  400SOL     OW 1198   2.523   1.500   1.475 -0.0299 -0.5438 -0.0639
  400SOL    HW1 1199   2.536   1.566   1.399 -1.8676  1.1690  0.6920
  400SOL    HW2 1200   2.492   1.407   1.441  1.0561  1.0148 -1.7351
  401SOL     OW 1201   1.196   1.874   0.989  0.0037 -0.4517 -0.0790
  401SOL    HW1 1202   1.142   1.791   1.008  0.7563  2.9376  0.0001
  401SOL    HW2 1203   1.297   1.854   0.976  1.3169 -0.2114 -0.5573
  402SOL     OW 1204   0.074   2.523   2.186  0.0347  0.9145 -0.3489
  402SOL    HW1 1205   0.126   2.475   2.262  0.4796 -0.4224  1.4774
  402SOL    HW2 1206   0.129   2.525   2.101 -1.0641  2.6870  0.0500
  403SOL     OW 1207   0.166   1.132   2.516 -0.1341 -0.3470 -0.1239
  403SOL    HW1 1208   0.214   1.226   2.517  1.1314 -1.9955 -0.1539
  403SOL    HW2 1209   0.219   1.057   2.560 -0.8172 -0.8920  1.0866
  404SOL     OW 1210   2.165   2.038   1.385  0.1436  0.2828  0.2873
  404SOL    HW1 1211   2.207   2.128   1.373 -0.1948 -0.0131 -2.3435
  404SOL    HW2 1212   2.139   1.988   1.302 -3.0563 -1.3103  2.0767
  405SOL     OW 1213   2.758   0.308   2.676  0.1739 -0.2729  0.2451
  405SOL    HW1 1214   2.752   0.312   2.571  0.7821  2.0382 -0.8685
  405SOL    HW2 1215   2.749   0.208   2.700  3.0305 -0.6402 -1.1683
  406SOL     OW 1216   0.848   1.014   0.110 -0.2570 -0.5097 -0.1007
  406SOL    HW1 1217   0.933   0.974   0.061  2.4447 -4.2576 -2.0501
  406SOL    HW2 1218   0.780   1.032   0.036  1.7938 -0.7418  0.4214
  407SOL     OW 1219   1.758   2.550   2.705  0.4598  0.7926 -0.0207
  407SOL    HW1 1220   1.670   2.532   2.756 -0.3116  0.8616  0.6742
  407SOL    HW2 1221   1.764   2.645   2.673  1.1457  0.2936  2.6738
  408SOL     OW 1222   2.963   0.026   3.114 -0.4787  0.0322  0.2350
  408SOL    HW1 1223   2.983   0.045   0.084  1.5903  0.5571 -1.0903
  408SOL    HW2 1224   3.047   0.034   3.054 -0.0567 -0.6045 -1.1255
  409SOL     OW 1225   2.253   1.547   1.063 -0.2610  0.3128  0.6351
  409SOL    HW1 1226   2.154   1.545   1.070  0.5729 -2.8583 -0.1798
  409SOL    HW2 1227   2.288   1.602   0.985  1.2120 -0.5843 -1.0730
  410SOL     OW 1228   2.488   1.821   3.078  0.4871 -0.1180 -0.3327
  410SOL    HW1 1229   2.520   1.752   0.022 -0.3074 -1.7991 -2.4753
  410SOL    HW2 1230   2.550   1.901   3.078 -2.1741 -1.4074 -0.6269
  411SOL     OW 1231   0.019   1.148   0.641  0.2749 -0.3843 -0.5651
  411SOL    HW1 1232   0.069   1.216   0.704 -0.4668 -1.0595  1.8644
  411SOL    HW2 1233   0.065   1.057   0.657 -1.3452 -0.6953 -1.7060
  412SOL     OW 1234   1.795   2.618   0.523  0.8353 -0.1408 -0.4444
  412SOL    HW1 1235   1.747   2.644   0.432 -0.6095  1.2035 -3.1521
  412SOL    HW2 1236   1.847   2.529   0.514  0.7625 -1.6614 -0.3848
  413SOL     OW 1237   1.940   0.593   2.102  0.1416  0.1047 -0.5060
  413SOL    HW1 1238   1.836   0.593   2.093 -1.2034  0.2190  0.5628
  413SOL    HW2 1239   1.980   0.566   2.019 -0.2891  2.2899  3.2683
  414SOL     OW 1240   2.984   0.379   0.428  0.2555  0.1123 -0.0850
  414SOL    HW1 1241   2.889   0.354   0.419 -0.8425 -0.0104  0.5681
  414SOL    HW2 1242   3.030   0.307   0.479  0.5366  1.4948 -4.7492
  415SOL     OW 1243   0.979   1.761   1.646  0.4477  0.0684 -0.0442
  415SOL    HW1 1244   1.030   1.753   1.735  0.3263 -1.0021  0.3828
  415SOL    HW2 1245   0.913   1.834   1.654  0.0517 -1.5541  2.1247
  416SOL     OW 1246   0.222   0.034   2.943  0.2368 -0.1516 -0.0795
  416SOL    HW1 1247   0.217   0.136   2.919  2.5662  2.1255  3.0886
  416SOL    HW2 1248   0.139   3.114   2.915 -1.4701  0.7209  0.4270
  417SOL     OW 1249   2.760   0.088   0.915  0.1262 -0.1681 -0.6369
  417SOL    HW1 1250   2.815   0.098   0.998  1.6903  2.9315  0.3853
  417SOL    HW2 1251   2.680   0.146   0.933  2.6710 -1.2664  0.0426
  418SOL     OW 1252   0.253   0.486   2.431  0.5146 -0.0129  0.0718
  418SOL    HW1 1253   0.163   0.443   2.425  0.7585  0.6279 -1.4208
  418SOL    HW2 1254   0.249   0.588   2.421  0.2726  1.7672  0.7399
  419SOL     OW 1255   0.103   1.443   1.382 -0.3487  0.4630 -0.1456
  419SOL    HW1 1256   0.087   1.499   1.468  1.4159  0.1290  2.0899
  419SOL    HW2 1257   0.019   1.400   1.354  2.8100 -0.5363  2.2434
  420SOL     OW 1258   0.805   1.929   0.772 -0.4085  0.5279 -0.2697
  420SOL    HW1 1259   0.756   1.893   0.689 -0.7392  0.0374  1.8168
  420SOL    HW2 1260   0.839   1.856   0.831  2.5079  1.4537 -4.3180
  421SOL     OW 1261   1.930   2.286   2.491 -0.4341 -0.0881  0.9878
  421SOL    HW1 1262   1.834   2.269   2.510  1.5685 -2.4835  1.0997
  421SOL    HW2 1263   1.945   2.386   2.501  0.2127  1.7571 -0.0690
  422SOL     OW 1264   3.105   0.550   2.764 -0.1261 -0.1032 -0.2597
  422SOL    HW1 1265   3.028   0.557   2.829  0.0420  1.1302 -0.4143
  422SOL    HW2 1266   3.105   0.457   2.714 -1.8854 -0.5399 -1.3124
  423SOL     OW 1267   1.487   2.075   1.050  0.1187  0.7164  0.6984
  423SOL    HW1 1268   1.434   2.157   1.048 -2.1270 -0.3627  2.4185
  423SOL    HW2 1269   1.521   2.053   1.145  0.0301  1.9853 -0.4979
  424SOL     OW 1270   0.805   1.882   1.837  0.0723 -0.1306 -0.3260
  424SOL    HW1 1271   0.798   1.925   1.743  0.8442  1.0241 -0.4090
  424SOL    HW2 1272   0.730   1.814   1.854  1.6444  0.6880  0.6809
  425SOL     OW 1273   3.058   2.735   2.160  0.0611 -0.4482 -0.8175
  425SOL    HW1 1274   3.112   2.651   2.164 -1.5527  2.7217  1.4266
  425SOL    HW2 1275   2.977   2.741   2.102  0.0727  1.8282  1.3692
  426SOL     OW 1276   1.769   0.455   0.632  0.4576 -0.2467 -0.1963
  426SOL    HW1 1277   1.735   0.373   0.583 -1.0778 -1.7404 -0.2605
  426SOL    HW2 1278   1.756   0.432   0.732  1.2985 -1.5802  1.4695
  427SOL     OW 1279   1.226   0.702   0.077  0.0644 -0.1194  0.6857
  427SOL    HW1 1280   1.222   0.720   0.176  1.2762 -0.6397  1.7355
  427SOL    HW2 1281   1.158   0.629   0.061  1.4401  0.3962 -1.1145
  428SOL     OW 1282   1.597   1.178   0.133  0.3934  0.5955  0.0329
  428SOL    HW1 1283   1.618   1.227   0.223  0.7326  1.3390  0.6939
  428SOL    HW2 1284   1.636   1.237   0.060  2.9026 -0.7412  2.0652
  429SOL     OW 1285   2.918   2.718   0.513 -0.4451  0.4920 -0.2133
  429SOL    HW1 1286   3.017   2.709   0.507 -1.5505 -0.7356  0.9602
  429SOL    HW2 1287   2.885   2.790   0.448 -0.8801 -1.5358 -0.9796
  430SOL     OW 1288   0.464   3.040   2.294  0.0026 -0.3260  0.1598
  430SOL    HW1 1289   0.450   3.074   2.388 -2.0075  1.1196 -2.7739
  430SOL    HW2 1290   0.550   3.077   2.249  0.7211  0.9161  1.3163
  431SOL     OW 1291   2.685   1.010   1.033 -0.0272 -0.3121 -0.2661
  431SOL    HW1 1292   2.608   0.951   1.071  2.7941 -1.4854  0.0910
  431SOL    HW2 1293   2.667   1.111   1.065 -1.4673  4.4007 -0.1930
  432SOL     OW 1294   2.064   2.550   2.018 -0.7634 -0.0637 -0.2785
  432SOL    HW1 1295   2.038   2.552   2.115  0.7407 -0.2823 -1.3460
  432SOL    HW2 1296   2.074   2.451   1.992 -0.8356 -2.6382  0.0021
  433SOL     OW 1297   1.594   2.360   0.722 -0.3954  0.1952  0.8947
  433SOL    HW1 1298   1.618   2.291   0.796 -1.1244  0.2085 -0.5219
  433SOL    HW2 1299   1.639   2.450   0.748  1.0854 -1.0029 -0.2213
  434SOL     OW 1300   0.543   2.095   1.952 -0.1218 -0.4317  0.4575
  434SOL    HW1 1301   0.606   2.079   2.030 -1.2796 -0.8339  2.9522
  434SOL    HW2 1302   0.453   2.054   1.970  0.8346  0.1040 -1.2602
  435SOL     OW 1303   3.063   0.958   0.116 -0.1423 -0.0763 -0.6326
  435SOL    HW1 1304   3.085   0.930   0.213  1.1499 -0.7113 -0.2200
  435SOL    HW2 1305   0.016   0.977   0.061  0.0687  3.0797 -1.4908
  436SOL     OW 1306   0.179   2.551   1.929  0.4614  0.0907 -0.6141
  436SOL    HW1 1307   0.237   2.633   1.946 -1.1229 -0.8803 -1.9745
  436SOL    HW2 1308   0.235   2.464   1.920 -0.3387 -3.1163  0.9587
  437SOL     OW 1309   1.604   2.560   1.778 -0.4137 -0.5383  0.5400
  437SOL    HW1 1310   1.648   2.554   1.688 -1.2194  0.9152  0.6519
  437SOL    HW2 1311   1.655   2.618   1.845  1.4698 -1.2444 -0.9047
  438SOL     OW 1312   0.164   1.794   0.524 -0.3959  0.4523  0.1970
  438SOL    HW1 1313   0.204   1.884   0.511 -0.5752 -1.8430  1.7844
  438SOL    HW2 1314   0.083   1.801   0.584 -0.7515  4.2234  1.3910
  439SOL     OW 1315   0.189   0.493   0.646  0.1322  0.2282 -0.8094
  439SOL    HW1 1316   0.223   0.583   0.677 -1.4954 -1.8497 -0.0581
  439SOL    HW2 1317   0.154   0.436   0.722  0.8300  1.5113 -0.2831
  440SOL     OW 1318   0.012   2.832   2.399 -0.3325 -0.1472 -0.0999
  440SOL    HW1 1319   0.105   2.793   2.383 -0.6976  1.5916 -0.3708
  440SOL    HW2 1320   3.079   2.782   2.330  0.1723 -1.5567  0.1615
  441SOL     OW 1321   3.027   0.575   0.705 -0.0490  0.5847 -0.2891
  441SOL    HW1 1322   3.113   0.531   0.732  2.3249  1.5652 -0.6101
  441SOL    HW2 1323   2.949   0.508   0.700  0.1775 -0.0049 -0.4398
  442SOL     OW 1324   1.199   2.279   2.539 -0.1907 -0.5051 -0.1160
  442SOL    HW1 1325   1.164   2.252   2.630 -0.6360  0.5342  0.5406
  442SOL    HW2 1326   1.252   2.204   2.495 -0.1080  3.3618  2.8030
  443SOL     OW 1327   0.720   0.817   0.238 -0.3294 -0.2950 -0.5275
  443SOL    HW1 1328   0.771   0.731   0.213 -0.3011  1.6962 -0.0171
  443SOL    HW2 1329   0.762   0.898   0.189  1.7098  0.9877 -0.1146
  444SOL     OW 1330   1.818   1.414   2.644  0.1782  0.0887  0.0900
  444SOL    HW1 1331   1.718   1.435   2.639  0.1256 -0.3885  1.1883
  444SOL    HW2 1332   1.842   1.392   2.742  2.5265  0.1903  0.4581
  445SOL     OW 1333   3.072   0.171   0.569 -0.5732 -0.0122 -0.1082
  445SOL    HW1 1334   3.127   0.119   0.504 -1.8733 -0.1905 -0.7553
  445SOL    HW2 1335   3.001   0.115   0.615  1.5915  0.5833  0.8196
  446SOL     OW 1336   2.324   0.594   0.997  0.1654 -0.3736 -0.1222
  446SOL    HW1 1337   2.251   0.659   0.966 -1.2707  2.5457 -0.0013
  446SOL    HW2 1338   2.288   0.502   0.979  1.1285  1.4328 -0.1141
  447SOL     OW 1339   0.043   0.684   3.063 -0.0354 -0.1789  0.3041
  447SOL    HW1 1340   0.127   0.639   3.032  1.2055 -1.9742 -0.0394
  447SOL    HW2 1341   3.120   0.622   0.000 -0.2596  2.7466 -1.9184
  448SOL     OW 1342   1.838   2.152   1.685  0.1424 -0.1092  0.1521
  448SOL    HW1 1343   1.752   2.195   1.714  2.2391 -1.4123 -0.4044
  448SOL    HW2 1344   1.821   2.081   1.617 -0.2769 -3.3035 -2.2300
  449SOL     OW 1345   0.902   1.677   0.854 -0.1047  0.1873 -0.1333
  449SOL    HW1 1346   0.976   1.706   0.792 -0.9815 -3.5307  2.2780
  449SOL    HW2 1347   0.852   1.595   0.821 -2.2089  1.3228  0.3101
  450SOL     OW 1348   2.737   2.299   2.362  0.2234  0.3524 -0.1548
  450SOL    HW1 1349   2.813   2.313   2.297 -0.4086  2.9121  0.5639
  450SOL    HW2 1350   2.649   2.296   2.308  1.7226  0.8105  1.6087
  451SOL     OW 1351   2.588   1.186   2.900  0.5922 -0.7092 -0.2002
  451SOL    HW1 1352   2.596   1.134   2.986 -0.1532  2.0109  0.4922
  451SOL    HW2 1353   2.549   1.281   2.915  1.6450  2.5843 -0.0016
  452SOL     OW 1354   1.871   0.999   1.147 -0.1485  0.2867 -0.1763
  452SOL    HW1 1355   1.959   1.050   1.178  0.7061  3.9460  0.0875
  452SOL    HW2 1356   1.877   0.900   1.158 -0.3332  0.6080 -2.3758
  453SOL     OW 1357   2.267   0.818   1.515  0.7273  0.7062  0.3644
  453SOL    HW1 1358   2.198   0.831   1.589 -0.2234 -0.5834 -3.0826
  453SOL    HW2 1359   2.254   0.727   1.467 -0.9201 -4.7451 -0.3714
  454SOL     OW 1360   2.945   1.191   0.188  0.5089 -0.0011  0.1001
  454SOL    HW1 1361   2.977   1.107   0.138 -1.5659  0.2381  1.3630
  454SOL    HW2 1362   2.847   1.173   0.228 -1.6148  2.3132  2.2940
  455SOL     OW 1363   2.568   1.646   1.246  0.2072  0.3471  0.4781
  455SOL    HW1 1364   2.613   1.593   1.172 -0.4588 -0.5201 -1.4975
  455SOL    HW2 1365   2.493   1.696   1.202  1.3055 -1.4525  1.6105
  456SOL     OW 1366   1.094   0.435   1.467 -0.1238  0.3923 -0.3009
  456SOL    HW1 1367   1.076   0.529   1.501  1.3427  1.2464 -0.0549
  456SOL    HW2 1368   1.192   0.411   1.473  0.8349 -0.2518 -1.8602
  457SOL     OW 1369   1.921   2.773   0.957  0.5842 -0.0646 -0.0213
  457SOL    HW1 1370   1.968   2.694   1.001  1.4863  1.4532 -0.5494
  457SOL    HW2 1371   1.989   2.847   0.960 -0.5905 -0.3487  0.3819
  458SOL     OW 1372   2.747   0.249   0.365 -0.1750 -0.0603  0.4608
  458SOL    HW1 1373   2.724   0.321   0.295  1.1167 -1.4569  0.8875
  458SOL    HW2 1374   2.670   0.184   0.377 -1.7387 -1.0522 -0.6738
  459SOL     OW 1375   1.618   0.643   0.239 -0.1076  0.0427  0.0490
  459SOL    HW1 1376   1.648   0.735   0.200  1.8332 -3.8324  2.0001
  459SOL    HW2 1377   1.620   0.647   0.337 -0.3194  0.1506 -2.2293
  460SOL     OW 1378   0.235   2.634   2.559 -0.1619 -0.3296 -0.6893
  460SOL    HW1 1379   0.250   2.654   2.663  1.8741  1.3546  0.4270
  460SOL    HW2 1380   0.307   2.685   2.511 -2.2271  0.4873  3.4629
  461SOL     OW 1381   0.447   1.667   0.224 -0.0021 -0.1060  0.0030
  461SOL    HW1 1382   0.530   1.611   0.226 -1.5200  2.0804  1.7009
  461SOL    HW2 1383   0.415   1.666   0.127  1.3338  0.3180 -1.1852
  462SOL     OW 1384   2.046   2.287   0.777  0.0557  0.0640 -0.2252
  462SOL    HW1 1385   2.130   2.231   0.762 -0.0293  0.8582  2.0419
  462SOL    HW2 1386   2.075   2.385   0.779 -1.1760  0.2843  0.0281
  463SOL     OW 1387   2.921   0.675   0.415  0.4203 -0.2698  0.4708
  463SOL    HW1 1388   2.874   0.722   0.494 -0.6699  1.7690  1.1704
  463SOL    HW2 1389   2.959   0.586   0.440 -0.6745  1.0984 -2.5742
  464SOL     OW 1390   0.715   2.510   0.441  0.0902 -0.1503  0.2027
  464SOL    HW1 1391   0.748   2.526   0.345 -3.6009 -0.7042 -3.3709
  464SOL    HW2 1392   0.765   2.430   0.482  2.8693 -2.2102  0.3304
  465SOL     OW 1393   2.222   0.356   0.919  0.2707  0.2596  0.0568
  465SOL    HW1 1394   2.155   0.306   0.978 -0.4665  2.5592 -0.3024
  465SOL    HW2 1395   2.173   0.384   0.832 -1.2754  0.1776 -1.5684
  466SOL     OW 1396   2.130   0.183   0.324 -0.3739 -0.1908 -0.6113
  466SOL    HW1 1397   2.082   0.270   0.351 -0.2819  2.8830 -0.1122
  466SOL    HW2 1398   2.065   0.107   0.303  2.6537 -0.1630 -1.9695
  467SOL     OW 1399   1.083   0.488   2.005  0.0355  0.1021 -0.0319
  467SOL    HW1 1400   1.147   0.519   2.080  0.7285  1.8741  2.9764
  467SOL    HW2 1401   1.131   0.404   1.967 -0.3928  0.0933 -1.4398
  468SOL     OW 1402   2.829   0.654   1.927 -0.3277  0.3535  0.4268
  468SOL    HW1 1403   2.907   0.661   1.991  0.9244 -0.3066 -0.3435
  468SOL    HW2 1404   2.753   0.604   1.968  0.5782  3.3757  0.4854
  469SOL     OW 1405   1.012   2.347   2.344  0.4562 -0.4559 -0.1780
  469SOL    HW1 1406   1.071   2.325   2.422 -0.3847  1.5277 -2.2658
  469SOL    HW2 1407   1.055   2.311   2.265 -1.6906  0.8517  0.9463
  470SOL     OW 1408   2.012   1.078   1.893  0.1216  0.3169 -0.5264
  470SOL    HW1 1409   2.110   1.096   1.895  1.1719 -0.8362  0.4735
  470SOL    HW2 1410   1.970   1.070   1.988 -2.6043 -0.4150 -0.6991
  471SOL     OW 1411   2.917   1.463   0.165 -0.4064  0.2097  0.3147
  471SOL    HW1 1412   2.988   1.493   0.231  1.3888  0.8171  0.3140
  471SOL    HW2 1413   2.925   1.360   0.152  0.6628 -0.7802 -1.2178
  472SOL     OW 1414   0.408   2.600   0.293  0.0843  0.2473  0.0186
  472SOL    HW1 1415   0.373   2.527   0.356  0.8672  0.1189  0.2504
  472SOL    HW2 1416   0.505   2.615   0.308  2.0252 -0.3596  0.4075
  473SOL     OW 1417   1.026   2.584   2.194  0.2533  0.5331 -0.2544
  473SOL    HW1 1418   1.013   2.495   2.244  1.4558 -0.5842  2.5414
  473SOL    HW2 1419   1.074   2.654   2.253  1.5841  2.9617 -0.1105
  474SOL     OW 1420   1.389   3.077   2.537 -0.4004 -0.1127 -0.6795
  474SOL    HW1 1421   1.441   3.096   2.623  0.6938 -1.7761  0.7709
  474SOL    HW2 1422   1.299   3.035   2.567 -1.0832  1.9789 -0.0903
  475SOL     OW 1423   1.022   2.531   0.343 -0.2199  0.2410 -0.6908
  475SOL    HW1 1424   0.994   2.617   0.293  0.3428  0.0010  0.9677
  475SOL    HW2 1425   1.089   2.547   0.414 -2.0242 -1.5463 -0.6299
  476SOL     OW 1426   0.451   0.453   1.024  0.5473  0.2732 -0.1433
  476SOL    HW1 1427   0.467   0.505   1.115 -0.8023 -1.4177  1.0811
  476SOL    HW2 1428   0.514   0.493   0.957  2.5333  5.0514  1.4563
  477SOL     OW 1429   1.891   2.116   1.342 -0.1341  0.2867 -0.0135
  477SOL    HW1 1430   1.889   2.133   1.241 -2.3933  1.6331  3.6484
  477SOL    HW2 1431   1.977   2.079   1.376 -1.5359  3.3023  0.4653
  478SOL     OW 1432   0.015   0.926   2.916  0.4690 -0.5026  0.0923
  478SOL    HW1 1433   0.109   0.929   2.876 -1.1528  1.6165 -2.3515
  478SOL    HW2 1434   0.013   0.860   2.994 -1.6557  2.9374 -0.3960
  479SOL     OW 1435   0.825   3.090   0.900  0.4278  0.1051  0.0931
  479SOL    HW1 1436   0.810   3.016   0.833  0.1482 -2.2862 -0.1116
  479SOL    HW2 1437   0.925   3.079   0.929 -0.5230 -0.3739  1.5160
  480SOL     OW 1438   2.469   2.772   0.254  0.0332  0.0982  0.3295
  480SOL    HW1 1439   2.502   2.855   0.201  0.5858 -0.5338  1.3285
  480SOL    HW2 1440   2.526   2.689   0.233 -2.6320  3.8654  1.9419
  481SOL     OW 1441   2.771   0.467   1.367  0.4140 -0.3740  0.5458
  481SOL    HW1 1442   2.712   0.386   1.351  0.6254  1.6340 -1.6083
  481SOL    HW2 1443   2.862   0.446   1.414  0.9445  1.0738 -0.3379
  482SOL     OW 1444   1.122   2.632   1.272 -0.1624  0.2815  0.3066
  482SOL    HW1 1445   1.084   2.591   1.186  0.2014 -0.6283 -0.1689
  482SOL    HW2 1446   1.153   2.726   1.253  1.0906  0.6740  0.1381
  483SOL     OW 1447   0.385   1.356   2.996 -0.8719 -0.2177 -0.5444
  483SOL    HW1 1448   0.441   1.312   3.071 -2.0718 -0.1194 -2.0885
  483SOL    HW2 1449   0.290   1.318   3.008 -1.3434 -1.3333  1.0767
  484SOL     OW 1450   1.658   1.502   2.255  0.1572 -0.0489 -0.3223
  484SOL    HW1 1451   1.745   1.469   2.213  0.6549  0.0882  0.9642
  484SOL    HW2 1452   1.677   1.585   2.319  0.0411  2.5426  1.3048
  485SOL     OW 1453   0.074   3.107   2.485  0.2869 -0.4485 -0.2850
  485SOL    HW1 1454   0.117   3.092   2.577  4.6018 -2.8665  3.3103
  485SOL    HW2 1455   0.043   3.017   2.445  0.4337  2.8787 -0.0051
  486SOL     OW 1456   1.312   2.944   0.775 -0.1628  0.1259 -0.3326
  486SOL    HW1 1457   1.388   3.010   0.757 -0.8906  1.0988  1.0892
  486SOL    HW2 1458   1.328   2.862   0.715  1.7560  1.7737 -0.6897
  487SOL     OW 1459   1.543   2.995   1.222 -0.3537  0.2818 -0.8710
  487SOL    HW1 1460   1.560   2.999   1.320  2.4503 -0.3217 -3.3150
  487SOL    HW2 1461   1.620   3.031   1.162 -0.0430  0.6532 -3.8784
  488SOL     OW 1462   2.356   0.927   0.877  0.0106 -0.5308 -0.6495
  488SOL    HW1 1463   2.310   1.005   0.923  0.5311 -1.2917  0.9051
  488SOL    HW2 1464   2.283   0.865   0.845  1.7557  1.7045  0.6544
  489SOL     OW 1465   1.177   3.056   1.339 -0.1228  0.0460 -0.1259
  489SOL    HW1 1466   1.119   3.045   1.419  0.7150  1.8239  0.0796
  489SOL    HW2 1467   1.150   3.003   1.256  0.4683 -1.1271 -1.8413
  490SOL     OW 1468   0.938   0.847   0.460  0.6020  0.3239  0.2949
  490SOL    HW1 1469   0.842   0.853   0.421 -2.2609 -1.9922  1.1380
  490SOL    HW2 1470   0.935   0.868   0.558  1.2537 -1.0508 -1.1748
  491SOL     OW 1471   1.162   2.807   0.329 -0.5017  0.0258  0.0233
  491SOL    HW1 1472   1.227   2.786   0.400 -2.9028  1.2548  0.2873
  491SOL    HW2 1473   1.210   2.820   0.240 -0.7162  1.2975 -1.0105
  492SOL     OW 1474   0.920   1.519   2.137  0.1494  0.0856 -0.5018
  492SOL    HW1 1475   1.017   1.494   2.166  2.1167 -2.6768  4.5451
  492SOL    HW2 1476   0.867   1.442   2.091 -1.5968  0.0948 -0.8311
  493SOL     OW 1477   0.090   1.885   0.228 -0.1290 -0.2774 -0.7854
  493SOL    HW1 1478   0.133   1.820   0.161 -3.7317 -0.7791 -1.7783
  493SOL    HW2 1479   0.162   1.929   0.285  3.1230  2.3866 -1.4436
  494SOL     OW 1480   1.921   1.538   0.195 -0.1494  0.2553  0.0350
  494SOL    HW1 1481   1.881   1.572   0.281 -1.9626 -2.6276  0.1460
  494SOL    HW2 1482   1.917   1.436   0.203 -1.2760  0.9812  0.4994
  495SOL     OW 1483   0.524   1.161   2.381 -0.3833 -0.2660 -0.1183
  495SOL    HW1 1484   0.485   1.137   2.290 -0.5570 -0.3276 -1.0503
  495SOL    HW2 1485   0.479   1.244   2.419  3.6028  2.7304  0.1084
  496SOL     OW 1486   2.998   0.069   2.313  0.2596 -0.7348 -0.1949
  496SOL    HW1 1487   3.064   0.052   2.389 -2.2786  1.5845 -0.3731
  496SOL    HW2 1488   3.013   0.005   2.235  3.6468  1.1130  0.0255
  497SOL     OW 1489   1.954   1.097   0.552 -0.0423 -0.1557  0.4044
  497SOL    HW1 1490   2.042   1.122   0.507  0.7960 -0.4332 -2.7198
  497SOL    HW2 1491   1.915   1.017   0.503 -2.3178 -0.2210  0.2355
  498SOL     OW 1492   2.798   2.711   2.989  0.3807  0.6318  0.3101
  498SOL    HW1 1493   2.702   2.676   3.002 -2.4109 -3.4971  0.7123
  498SOL    HW2 1494   2.820   2.714   2.887 -0.8650  3.3533 -2.9133
  499SOL     OW 1495   2.001   2.746   0.629  0.4441 -0.0927 -0.2789
  499SOL    HW1 1496   1.978   2.848   0.623 -1.0745  1.6155 -1.9973
  499SOL    HW2 1497   1.924   2.695   0.583  0.5844 -0.3967 -2.7039
  500SOL     OW 1498   1.063   0.601   2.611 -0.1938 -0.2101 -0.1834
  500SOL    HW1 1499   1.128   0.596   2.536 -2.9975 -2.0616 -2.0898
  500SOL    HW2 1500   1.108   0.650   2.691  1.9763  1.4496 -0.0772
  501SOL     OW 1501   1.339   0.094   1.535 -0.0090  0.4665 -0.1525
  501SOL    HW1 1502   1.338   0.023   1.617 -1.9815 -1.3874  3.5515
  501SOL    HW2 1503   1.276   0.065   1.459 -0.5290 -0.8002  0.9190
  502SOL     OW 1504   3.124   0.192   2.008  0.5141 -0.1189 -0.1158
  502SOL    HW1 1505   3.111   0.096   2.042  0.9649  0.9217 -0.4736
  502SOL    HW2 1506   0.040   0.187   1.916  2.7883  0.4230  3.8009
  503SOL     OW 1507   1.636   2.309   2.077 -0.1408  0.0243  0.5306
  503SOL    HW1 1508   1.650   2.408   2.105 -2.4811 -0.4426  1.1395
  503SOL    HW2 1509   1.688   2.239   2.125  0.5136 -0.2489 -4.3913
  504SOL     OW 1510   2.220   0.040   1.862  0.3211 -0.3525 -0.4003
  504SOL    HW1 1511   2.186   0.103   1.787 -0.2287 -0.2302  0.7177
  504SOL    HW2 1512   2.137   3.126   1.906 -0.0048 -0.2421 -1.8809
  505SOL     OW 1513   2.815   1.662   1.586 -0.0739  0.7091  0.3464
  505SOL    HW1 1514   2.770   1.572   1.592  0.2459 -2.2048 -1.7363
  505SOL    HW2 1515   2.779   1.723   1.663  1.4708  1.7824 -0.0775
  506SOL     OW 1516   0.154   1.272   2.276  0.0881 -0.2719  0.6229
  506SOL    HW1 1517   0.159   1.206   2.352  1.5993 -1.2899 -2.1742
  506SOL    HW2 1518   0.108   1.220   2.201  0.4053  0.1113  0.4436
  507SOL     OW 1519   0.168   2.892   1.272  0.2877 -0.7170 -0.1267
  507SOL    HW1 1520   0.079   2.920   1.228 -1.8434 -0.7370 -1.1786
  507SOL    HW2 1521   0.159   2.796   1.308  0.2913 -2.9583 -2.0963
  508SOL     OW 1522   1.351   0.702   1.393 -0.1624  0.7755  0.3854
  508SOL    HW1 1523   1.304   0.628   1.343  1.5726 -0.0820 -1.3614
  508SOL    HW2 1524   1.350   0.675   1.490 -2.8943  1.4721 -0.9428
  509SOL     OW 1525   1.580   2.296   1.796  0.0339 -0.1811 -0.3075
  509SOL    HW1 1526   1.584   2.391   1.755  1.7343 -2.1166 -1.3763
  509SOL    HW2 1527   1.610   2.303   1.892 -1.2620  2.0245 -1.1070
  510SOL     OW 1528   2.436   1.399   3.007 -0.3089 -0.5015  0.3475
  510SOL    HW1 1529   2.465   1.391   3.104  2.6834 -2.0615  0.1386
  510SOL    HW2 1530   2.350   1.449   2.995  2.5707  1.4415 -1.7901
  511SOL     OW 1531   0.401   1.569   1.555 -0.1466 -1.0436 -0.1277
  511SOL    HW1 1532   0.470   1.532   1.618 -0.3459  1.2320 -0.8330
  511SOL    HW2 1533   0.388   1.525   1.467 -0.8312 -0.8331  1.9459
  512SOL     OW 1534   2.677   2.268   0.113 -0.4175  0.5497 -0.6052
  512SOL    HW1 1535   2.775   2.260   0.099 -1.1310 -0.8705  0.4665
  512SOL    HW2 1536   2.659   2.266   0.212  0.4031 -0.6372 -2.5419
  513SOL     OW 1537   0.740   1.696   2.512 -0.0673 -0.4196  0.1356
  513SOL    HW1 1538   0.837   1.672   2.546  1.9659  1.6824 -0.1165
  513SOL    HW2 1539   0.733   1.794   2.488  2.3546  0.9616  0.1650
  514SOL     OW 1540   0.359   2.224   2.335  0.3327  0.5405  0.1508
  514SOL    HW1 1541   0.314   2.166   2.266  0.6127 -1.4287 -0.4393
  514SOL    HW2 1542   0.284   2.265   2.397 -2.6139 -0.2416  2.6987
  515SOL     OW 1543   1.881   1.188   1.664 -0.2043  0.4533  0.4946
  515SOL    HW1 1544   1.907   1.143   1.754  0.6977  1.2510 -1.3081
  515SOL    HW2 1545   1.962   1.224   1.612  0.3946 -1.0076 -0.7896
  516SOL     OW 1546   1.733   2.508   0.106 -0.1730 -0.2197  0.3897
  516SOL    HW1 1547   1.782   2.596   0.083  1.0695  0.2987 -0.0757
  516SOL    HW2 1548   1.804   2.434   0.115 -1.0952  1.2808  0.4711
  517SOL     OW 1549   0.710   1.784   0.557  0.0592 -0.6434  0.0687
  517SOL    HW1 1550   0.738   1.807   0.459 -0.3037  0.9593 -2.4629
  517SOL    HW2 1551   0.681   1.683   0.560 -2.1496  0.2766 -1.5054
  518SOL     OW 1552   1.981   2.528   1.464 -0.8964  0.5926 -0.0162
  518SOL    HW1 1553   2.054   2.588   1.502 -0.8185 -3.9059  0.6843
  518SOL    HW2 1554   2.003   2.484   1.375  4.3363 -2.7444  2.1123
  519SOL     OW 1555   2.145   2.586   1.030  0.2564 -0.2935  0.2766
  519SOL    HW1 1556   2.234   2.639   1.045  1.1015 -2.8964 -2.3749
  519SOL    HW2 1557   2.131   2.576   0.927  2.1979 -0.2464 -0.4522
  520SOL     OW 1558   3.122   2.181   2.530 -0.0021  0.1494 -0.4746
  520SOL    HW1 1559   3.021   2.164   2.514 -0.7971  0.3859  1.9848
  520SOL    HW2 1560   0.042   2.131   2.454 -0.6485  1.1603  1.0720
  521SOL     OW 1561   2.674   1.226   2.532 -0.4376  0.3715  0.3851
  521SOL    HW1 1562   2.596   1.184   2.579 -1.0319  1.4946 -1.4796
  521SOL    HW2 1563   2.645   1.313   2.485 -1.6885 -1.1861  2.4864
  522SOL     OW 1564   0.944   0.657   2.280 -0.0102  0.1142 -0.1479
  522SOL    HW1 1565   1.032   0.608   2.271 -1.5154 -1.3188 -0.6810
  522SOL    HW2 1566   0.874   0.599   2.236  1.3652  1.2034 -1.7388
  523SOL     OW 1567   0.088   2.242   0.956 -0.1813 -0.7353 -0.2749
  523SOL    HW1 1568   0.191   2.242   0.963  2.0381 -0.4627 -0.5652
  523SOL    HW2 1569   0.045   2.293   1.033  0.1103  0.3951  0.9658
  524SOL     OW 1570   1.909   2.743   0.034 -0.0642 -0.0009  0.5676
  524SOL    HW1 1571   1.940   2.767   0.127 -0.5043 -0.4895 -0.5153
  524SOL    HW2 1572   1.982   2.761   3.089  2.7214 -1.3252 -0.7923
  525SOL     OW 1573   2.253   0.592   1.363  0.3880  0.5960  0.1563
  525SOL    HW1 1574   2.315   0.640   1.298  1.9152  1.9253  2.2925
  525SOL    HW2 1575   2.296   0.508   1.395 -1.7639  3.6319  1.0700
  526SOL     OW 1576   0.869   2.644   0.805 -0.2990  0.0383 -0.5715
  526SOL    HW1 1577   0.816   2.723   0.762 -1.9659 -2.2181  0.2403
  526SOL    HW2 1578   0.794   2.586   0.844 -2.0270 -0.9723 -1.9310
  527SOL     OW 1579   2.210   2.978   0.496 -0.2798 -0.3857  0.0460
  527SOL    HW1 1580   2.294   2.953   0.553  1.0825  2.0225 -0.8686
  527SOL    HW2 1581   2.195   2.902   0.436 -3.3433  2.1191  1.7936
  528SOL     OW 1582   1.628   0.655   0.517  0.0399 -0.0755  0.0746
  528SOL    HW1 1583   1.537   0.685   0.555 -1.5377 -0.4242  1.2817
  528SOL    HW2 1584   1.669   0.584   0.576  1.2117  1.1942  1.4945
  529SOL     OW 1585   1.553   1.494   2.620 -0.0329  0.0823  0.2615
  529SOL    HW1 1586   1.527   1.536   2.707 -2.6419 -0.2184 -2.8431
  529SOL    HW2 1587   1.488   1.514   2.545 -0.8653  0.1680 -0.0021
  530SOL     OW 1588   2.480   0.321   0.001  0.0709 -0.3538  0.0721
  530SOL    HW1 1589   2.403   0.273   0.047  0.8630  0.1452  0.3882
  530SOL    HW2 1590   2.536   0.254   3.083 -3.2048  1.5344 -1.6961
  531SOL     OW 1591   1.463   0.939   2.695  0.3257  0.5537  0.0560
  531SOL    HW1 1592   1.519   0.955   2.612  0.0401  0.3085  2.5212
  531SOL    HW2 1593   1.485   0.849   2.740 -0.4920  0.2196 -0.1906
  532SOL     OW 1594   1.447   0.435   0.812  0.3479 -0.6323  0.4686
  532SOL    HW1 1595   1.346   0.442   0.835 -0.4742  1.0722  1.4808
  532SOL    HW2 1596   1.499   0.522   0.815  1.6022 -0.8585  0.7130
  533SOL     OW 1597   0.418   0.996   2.567  0.5504  0.2305  0.0020
  533SOL    HW1 1598   0.453   1.062   2.499  1.3601 -2.6270  1.8537
  533SOL    HW2 1599   0.483   0.916   2.584  1.0214  1.0069  2.1819
  534SOL     OW 1600   1.667   0.368   2.783 -0.1188  0.0300  0.1565
  534SOL    HW1 1601   1.667   0.309   2.864  1.0611  1.7539  0.5617
  534SOL    HW2 1602   1.575   0.403   2.761 -1.7759  1.0316 -0.3534
  535SOL     OW 1603   0.288   2.988   2.726  0.5415 -0.1477 -0.0633
  535SOL    HW1 1604   0.244   2.898   2.733 -0.5473  0.7251  4.0258
  535SOL    HW2 1605   0.291   3.044   2.816  2.4483 -0.3039  1.0850
  536SOL     OW 1606   0.546   0.156   0.344  0.2149  0.4332 -0.4136
  536SOL    HW1 1607   0.634   0.202   0.362 -3.4215 -0.1483 -3.6539
  536SOL    HW2 1608   0.475   0.202   0.398  2.3169  0.9550  0.0262
  537SOL     OW 1609   1.518   0.258   0.249  0.2756  0.2844  0.2591
  537SOL    HW1 1610   1.501   0.287   0.154  1.2794  1.3438  1.4993
  537SOL    HW2 1611   1.427   0.250   0.298 -2.6135 -1.2316 -0.9758
  538SOL     OW 1612   2.915   2.001   2.867 -0.2818 -0.4906 -0.2940
  538SOL    HW1 1613   3.006   1.970   2.911 -0.3501 -1.2360  1.0262
  538SOL    HW2 1614   2.841   2.008   2.934  0.0709 -2.1707  1.7389
  539SOL     OW 1615   2.253   1.943   3.027  0.2561  0.3704 -0.2169
  539SOL    HW1 1616   2.171   1.881   3.025 -0.5118 -0.2764 -0.2156
  539SOL    HW2 1617   2.340   1.894   3.058  0.7785 -2.4695  0.3884
  540SOL     OW 1618   0.856   2.811   1.874 -0.2640  0.3491  0.8493
  540SOL    HW1 1619   0.827   2.711   1.899  0.2855 -2.2568  1.7925
  540SOL    HW2 1620   0.949   2.812   1.833 -0.5641  0.0370 -1.3384
  541SOL     OW 1621   2.542   0.090   2.282  0.0393 -0.2250 -0.3737
  541SOL    HW1 1622   2.553   0.118   2.185 -0.1715 -0.0385 -0.0145
  541SOL    HW2 1623   2.451   0.124   2.315 -3.1523  0.0352 -1.5942
  542SOL     OW 1624   0.244   0.607   2.742 -0.0962 -0.3583  0.2629
  542SOL    HW1 1625   0.308   0.582   2.664 -0.4042 -0.3474  0.8491
  542SOL    HW2 1626   0.157   0.560   2.738  3.5317  2.8835 -1.5924
  543SOL     OW 1627   0.240   0.740   1.050 -0.4097 -0.6815  0.0803
  543SOL    HW1 1628   0.259   0.700   0.959  2.8364  1.3782 -1.2441
  543SOL    HW2 1629   0.143   0.765   1.057  1.3934 -0.9335 -1.6888
  544SOL     OW 1630   2.582   0.685   1.278  0.5489 -0.0405 -0.0259
  544SOL    HW1 1631   2.659   0.618   1.270  0.7304 -2.8441 -0.8159
  544SOL    HW2 1632   2.596   0.751   1.354 -2.2348  0.4972 -1.6601
  545SOL     OW 1633   1.511   2.042   0.550 -0.2327  0.0511 -0.7758
  545SOL    HW1 1634   1.409   2.053   0.541 -1.2260 -0.4842 -1.9987
  545SOL    HW2 1635   1.538   2.015   0.649  0.3123 -3.5231  2.1099
  546SOL     OW 1636   2.277   2.808   1.435  0.0382 -0.4515  0.2648
  546SOL    HW1 1637   2.340   2.846   1.506 -0.6778  0.3819 -0.6652
  546SOL    HW2 1638   2.240   2.891   1.384  0.1879  1.3734 -1.4651
  547SOL     OW 1639   0.319   2.817   2.343 -0.3072 -0.0537 -0.2824
  547SOL    HW1 1640   0.362   2.746   2.281  3.0334 -2.2375  1.0700
  547SOL    HW2 1641   0.366   2.906   2.340  0.4848  0.4467 -0.7484
  548SOL     OW 1642   1.516   0.687   2.846  0.3832 -0.0006  0.1493
  548SOL    HW1 1643   1.504   0.720   2.940  1.2489  0.0902 -1.6523
  548SOL    HW2 1644   1.609   0.646   2.843 -2.5125  1.0825 -1.8779
  549SOL     OW 1645   2.715   1.077   0.297  0.0834  0.2004 -0.0878
  549SOL    HW1 1646   2.765   1.064   0.386  1.6291 -2.6200  3.3023
  549SOL    HW2 1647   2.614   1.068   0.319  0.7019 -0.6881  1.6878
  550SOL     OW 1648   1.971   1.836   0.648  0.2020 -0.2410  0.5238
  550SOL    HW1 1649   1.931   1.794   0.734 -3.1372 -0.3231  0.4047
  550SOL    HW2 1650   1.965   1.780   0.566  0.7975 -0.8812  2.0028
  551SOL     OW 1651   1.353   0.069   1.186 -0.1491 -0.1279 -0.2020
  551SOL    HW1 1652   1.440   0.011   1.196 -0.3141 -0.0919  0.5660
  551SOL    HW2 1653   1.283   0.021   1.239  0.2782 -0.7848 -0.8353
  552SOL     OW 1654   2.625   2.695   2.241 -0.3009 -0.3779  0.2858
  552SOL    HW1 1655   2.526   2.674   2.214 -0.4898 -0.3055 -0.8673
  552SOL    HW2 1656   2.661   2.616   2.295 -2.6924  2.0821  2.0502
  553SOL     OW 1657   0.247   2.994   2.084 -0.4413  0.0057 -0.1847
  553SOL    HW1 1658   0.290   2.905   2.052 -0.5579  1.3745 -0.9958
  553SOL    HW2 1659   0.300   3.029   2.163  1.5126 -2.6554  0.7132
  554SOL     OW 1660   0.603   3.066   1.049 -0.0826 -0.1004  0.0573
  554SOL    HW1 1661   0.560   0.025   1.082  1.6152 -1.4026  2.3375
  554SOL    HW2 1662   0.686   3.080   0.989  1.9025  0.8816 -0.6602
  555SOL     OW 1663   2.517   2.279   2.205 -0.6220 -0.4187  0.3487
  555SOL    HW1 1664   2.499   2.198   2.262  0.8889  1.8960  1.6930
  555SOL    HW2 1665   2.433   2.319   2.167  3.2879  0.9116  0.3416
  556SOL     OW 1666   1.160   0.259   2.771  0.3670  0.5879  0.3217
  556SOL    HW1 1667   1.085   0.322   2.801  2.2013 -1.2191 -1.2025
  556SOL    HW2 1668   1.146   0.216   2.681 -1.6516  2.6918 -1.9851
  557SOL     OW 1669   0.461   1.567   2.360 -0.0763  0.4807  0.1853
  557SOL    HW1 1670   0.428   1.651   2.411 -1.0392  0.5808  0.9237
  557SOL    HW2 1671   0.550   1.570   2.309  0.7562 -2.6402  1.9271
  558SOL     OW 1672   2.436   0.884   3.103  0.1014 -0.0106  0.0409
  558SOL    HW1 1673   2.504   0.842   3.039  2.8998 -1.5775 -0.0586
  558SOL    HW2 1674   2.431   0.831   0.065  0.2533  1.0143  0.2062
  559SOL     OW 1675   2.649   2.048   1.739  0.4746 -0.1269  0.0102
  559SOL    HW1 1676   2.580   2.076   1.674  3.1057  0.0287  1.8813
  559SOL    HW2 1677   2.651   2.105   1.824 -1.5594  0.5901 -0.1848
  560SOL     OW 1678   2.528   0.997   1.922  0.3229 -0.1366  0.6780
  560SOL    HW1 1679   2.545   0.909   1.869  0.1095  1.0437 -2.3438
  560SOL    HW2 1680   2.617   1.024   1.958 -0.1585 -0.3884 -1.0074
  561SOL     OW 1681   3.122   3.045   2.865 -0.5023  0.3023  0.7299
  561SOL    HW1 1682   3.049   3.084   2.799 -0.4322  0.8472  1.0741
  561SOL    HW2 1683   3.099   2.953   2.891  0.5944  1.4880 -0.7792
  562SOL     OW 1684   1.146   1.439   1.367  0.3890  0.0527 -0.2205
  562SOL    HW1 1685   1.238   1.440   1.420  0.1572  1.1893  0.4365
  562SOL    HW2 1686   1.071   1.385   1.409 -0.9565 -1.1499  2.4034
  563SOL     OW 1687   1.284   0.074   2.945 -0.0769 -0.3956 -0.0063
  563SOL    HW1 1688   1.332   0.006   2.886 -0.2796  1.0157  0.3210
  563SOL    HW2 1689   1.235   0.139   2.880 -1.1521  0.6324 -4.9404
  564SOL     OW 1690   0.001   2.296   0.701  0.4922  0.0297 -0.4407
  564SOL    HW1 1691   0.041   2.260   0.789 -1.0499 -2.6802  1.9302
  564SOL    HW2 1692   3.029   2.323   0.713  0.2933 -1.0954  0.6952
  565SOL     OW 1693   0.594   2.355   1.359 -0.6511  0.0117 -0.4317
  565SOL    HW1 1694   0.689   2.354   1.323 -1.5221 -1.5919  2.2697
  565SOL    HW2 1695   0.533   2.380   1.282  0.6573  1.9397  3.2475
  566SOL     OW 1696   1.390   2.673   2.097  0.4594  0.0295 -0.1889
  566SOL    HW1 1697   1.316   2.616   2.048  0.0393 -0.6826  1.8466
  566SOL    HW2 1698   1.388   2.657   2.194  0.0414  0.3165  1.5900
  567SOL     OW 1699   2.414   2.901   0.663  0.6662 -0.1952 -0.2200
  567SOL    HW1 1700   2.465   2.952   0.737 -1.1608  0.2902  1.0231
  567SOL    HW2 1701   2.473   2.821   0.636  2.9256 -3.4521  2.6407
  568SOL     OW 1702   1.670   1.155   0.602  0.3731 -0.0509  0.0527
  568SOL    HW1 1703   1.633   1.083   0.665 -1.5277  0.2179 -1.0399
  568SOL    HW2 1704   1.773   1.154   0.591  1.3372  2.4826 -0.6289
  569SOL     OW 1705   0.079   1.753   2.756  0.7688  0.6071 -0.1498
  569SOL    HW1 1706   0.071   1.775   2.854  1.4104 -0.1303  0.6659
  569SOL    HW2 1707   3.110   1.755   2.720  0.3545  0.6691 -1.7911
  570SOL     OW 1708   0.028   0.203   1.511 -0.3267 -0.2041 -0.6535
  570SOL    HW1 1709   0.090   0.212   1.429 -0.6191 -1.4266 -1.9852
  570SOL    HW2 1710   3.087   0.134   1.495  0.2463 -0.3895 -0.7229
  571SOL     OW 1711   0.346   0.346   1.794 -0.8046  0.1454 -0.0411
  571SOL    HW1 1712   0.401   0.287   1.854  0.1970  0.1250  0.6048
  571SOL    HW2 1713   0.369   0.444   1.817  3.6570 -1.4370  1.0503
  572SOL     OW 1714   0.153   2.478   1.210 -0.3296  0.2486 -0.4724
  572SOL    HW1 1715   0.084   2.399   1.205 -0.4255 -0.6511 -1.0190
  572SOL    HW2 1716   0.148   2.531   1.293  0.1417 -0.4688 -2.6218
  573SOL     OW 1717   1.057   0.477   0.045  0.9490 -0.1574 -0.4977
  573SOL    HW1 1718   0.959   0.494   0.072  1.4310  1.4676  1.2058
  573SOL    HW2 1719   1.081   0.383   0.069 -1.0244 -1.8667 -1.6343
  574SOL     OW 1720   2.638   2.918   0.072 -0.1423  0.4337  0.4629
  574SOL    HW1 1721   2.738   2.919   0.066 -1.6195 -0.4898  1.8927
  574SOL    HW2 1722   2.608   3.020   0.079 -1.8663  2.3278 -4.0240
  575SOL     OW 1723   1.549   2.571   1.271  0.2270 -0.1028 -0.4514
  575SOL    HW1 1724   1.507   2.520   1.192 -1.6214 -0.0696 -2.5146
  575SOL    HW2 1725   1.488   2.644   1.307 -1.1428  1.1355 -0.6083
  576SOL     OW 1726   1.129   2.903   1.108 -0.1610  0.0376  0.0201
  576SOL    HW1 1727   1.135   2.810   1.067 -0.0876  2.7716 -1.4253
  576SOL    HW2 1728   1.146   2.973   1.039  1.1068  0.0041 -0.0011
  577SOL     OW 1729   2.532   1.328   0.852 -0.1670 -0.6037  0.0284
  577SOL    HW1 1730   2.502   1.384   0.774  1.8394  2.0024 -0.1131
  577SOL    HW2 1731   2.579   1.246   0.813 -0.4602  2.7324 -0.6244
  578SOL     OW 1732   1.476   0.264   0.595  0.5028 -0.4233 -0.7139
  578SOL    HW1 1733   1.474   0.331   0.673 -2.8815  0.5235  1.4858
  578SOL    HW2 1734   1.563   0.258   0.545  0.4818 -1.0021  0.5442
  579SOL     OW 1735   2.197   0.708   3.033 -0.0713 -0.4797  0.2525
  579SOL    HW1 1736   2.293   0.671   3.039  0.4092 -1.0285  0.4356
  579SOL    HW2 1737   2.183   0.738   2.936  0.7717 -1.6691 -2.0195
  580SOL     OW 1738   1.584   0.697   2.447  0.5589 -0.3651  0.3663
  580SOL    HW1 1739   1.675   0.677   2.492  1.2029  0.6210  1.6697
  580SOL    HW2 1740   1.566   0.797   2.445 -1.5843 -1.1180 -1.2562
  581SOL     OW 1741   0.328   0.710   0.790  0.4560  0.1672  0.3571
  581SOL    HW1 1742   0.427   0.695   0.768  0.5425  0.8955  0.6321
  581SOL    HW2 1743   0.286   0.787   0.743  3.6150 -1.8377 -0.5559
  582SOL     OW 1744   2.841   0.168   1.983  0.3817 -0.1503 -0.4152
  582SOL    HW1 1745   2.755   0.225   2.008 -1.2066 -1.7707 -0.6462
  582SOL    HW2 1746   2.926   0.224   1.991  2.3251 -1.5112 -1.2193
  583SOL     OW 1747   0.456   0.553   2.139  0.0529  0.4408  0.2871
  583SOL    HW1 1748   0.555   0.539   2.172  3.4567 -2.7296  2.3540
  583SOL    HW2 1749   0.393   0.483   2.180  1.0776 -0.6751 -0.1167
  584SOL     OW 1750   1.282   2.169   2.911  0.0404  0.3170 -0.0879
  584SOL    HW1 1751   1.377   2.181   2.885 -0.2009  2.8876  2.8654
  584SOL    HW2 1752   1.272   2.191   3.013 -0.1135 -0.7063 -0.0565
  585SOL     OW 1753   0.297   2.678   2.825 -0.0671  0.2114 -0.0946
  585SOL    HW1 1754   0.229   2.631   2.876  0.8711  1.4148 -4.4492
  585SOL    HW2 1755   0.375   2.712   2.874 -1.6724 -1.4728 -1.1544
  586SOL     OW 1756   1.795   1.713   2.655  0.0017  0.2969 -0.5867
  586SOL    HW1 1757   1.847   1.805   2.654  1.1822  2.4851 -0.3349
  586SOL    HW2 1758   1.848   1.629   2.637  3.0599  3.0385  1.6084
  587SOL     OW 1759   2.160   2.306   0.208 -0.2625  0.4456 -0.4128
  587SOL    HW1 1760   2.200   2.256   0.125  1.4887 -0.4677 -2.4032
  587SOL    HW2 1761   2.162   2.239   0.283 -0.2261 -1.2115 -1.3756
  588SOL     OW 1762   2.965   0.344   0.938  0.0656  0.3935 -0.2628
  588SOL    HW1 1763   2.914   0.318   0.855 -0.4415 -1.3764  3.4812
  588SOL    HW2 1764   3.064   0.346   0.908  1.5818  0.7934  3.2473
  589SOL     OW 1765   0.590   0.570   0.487 -0.0574  0.3586 -0.4539
  589SOL    HW1 1766   0.599   0.600   0.584  0.6547  0.9964  0.5015
  589SOL    HW2 1767   0.532   0.639   0.438 -0.9075  0.0336 -1.5376
  590SOL     OW 1768   2.112   2.081   0.387  0.0625  0.7157  0.0385
  590SOL    HW1 1769   2.154   2.030   0.464  1.6506  0.1109 -3.9835
  590SOL    HW2 1770   2.015   2.065   0.372  2.0050 -1.2468 -3.0360
  591SOL     OW 1771   0.414   2.403   1.161  0.0609  0.6786 -0.0825
  591SOL    HW1 1772   0.324   2.433   1.197 -2.2661 -0.2544  1.2184
  591SOL    HW2 1773   0.466   2.487   1.130 -1.1981  0.6999 -3.9679
  592SOL     OW 1774   1.369   0.501   1.184  0.1799 -0.1743 -0.0944
  592SOL    HW1 1775   1.319   0.436   1.122  1.3651 -1.8127  2.6448
  592SOL    HW2 1776   1.373   0.456   1.275 -1.9130 -3.0360  1.4926
  593SOL     OW 1777   1.113   1.725   1.427 -0.6492  0.0117 -0.0203
  593SOL    HW1 1778   1.129   1.631   1.392  2.8965  0.5353 -1.3315
  593SOL    HW2 1779   1.067   1.724   1.520 -0.3741 -0.9899  0.5607
  594SOL     OW 1780   1.006   2.176   0.432 -0.0953 -0.4470 -0.2882
  594SOL    HW1 1781   0.963   2.143   0.344 -2.4771  0.1284 -2.4381
  594SOL    HW2 1782   0.937   2.220   0.497  0.7552  1.1806  1.4886
  595SOL     OW 1783   1.621   0.751   1.386 -0.4149 -0.4255  0.1785
  595SOL    HW1 1784   1.642   0.821   1.453  0.3813 -2.3251 -2.5359
  595SOL    HW2 1785   1.520   0.740   1.372  1.5076 -0.9274 -1.1475
  596SOL     OW 1786   2.864   0.879   1.615  0.8083 -0.3443  0.1736
  596SOL    HW1 1787   2.965   0.910   1.626  0.2536 -0.3967 -0.0939
  596SOL    HW2 1788   2.812   0.940   1.558  1.3475 -0.1987  0.3674
  597SOL     OW 1789   0.758   2.390   2.435  0.3335  0.4355 -0.0152
  597SOL    HW1 1790   0.729   2.358   2.527 -0.9551  1.0167 -2.5263
  597SOL    HW2 1791   0.858   2.391   2.416  2.0954  1.1731 -0.1222
  598SOL     OW 1792   2.668   1.780   1.784  0.2953 -0.1494  0.0561
  598SOL    HW1 1793   2.646   1.879   1.788  0.2760 -0.6467  0.2846
  598SOL    HW2 1794   2.583   1.731   1.762  1.9147  1.6671 -0.6296
  599SOL     OW 1795   0.866   2.754   0.202 -0.0669 -0.1837 -0.0239
  599SOL    HW1 1796   0.794   2.805   0.150 -1.0101 -0.1077 -0.8866
  599SOL    HW2 1797   0.909   2.820   0.265 -0.6416  0.1535  2.3605
  600SOL     OW 1798   3.118   2.210   3.025 -0.0337 -0.1372 -0.7134
  600SOL    HW1 1799   3.035   2.193   3.085 -1.1761  0.9457  0.9409
  600SOL    HW2 1800   3.091   2.236   2.932 -1.4868  2.9748 -3.2383
  601SOL     OW 1801   0.452   0.832   1.170  0.1457 -0.7070 -0.3359
  601SOL    HW1 1802   0.379   0.784   1.122  1.8293 -0.2622  2.0992
  601SOL    HW2 1803   0.414   0.894   1.244 -2.8461  0.1788 -0.4211
  602SOL     OW 1804   0.598   0.255   0.682  0.1536  0.1714  0.3679
  602SOL    HW1 1805   0.619   0.309   0.763 -0.5988  1.2529 -4.4768
  602SOL    HW2 1806   0.507   0.272   0.651  2.1119  1.9296  0.2424
  603SOL     OW 1807   0.475   0.298   2.507 -0.4310 -0.6536  0.4869
  603SOL    HW1 1808   0.396   0.353   2.473 -0.6769  0.3914 -2.3566
  603SOL    HW2 1809   0.527   0.357   2.575 -1.0626 -0.2270  1.1665
  604SOL     OW 1810   0.778   2.927   1.508  0.1132  0.2361  0.2095
  604SOL    HW1 1811   0.682   2.897   1.503 -0.9011  0.3765  0.4290
  604SOL    HW2 1812   0.840   2.851   1.488 -2.4169  0.8673 -1.8139
  605SOL     OW 1813   1.443   1.148   2.064  0.0459  0.4019  0.0678
  605SOL    HW1 1814   1.401   1.242   2.073  2.4593 -0.4243 -2.3939
  605SOL    HW2 1815   1.530   1.154   2.016 -2.1161  0.7370 -0.3502
  606SOL     OW 1816   2.095   2.874   3.016 -0.1339 -0.5863 -0.4736
  606SOL    HW1 1817   2.103   2.965   3.060 -1.5780  0.5200  2.2439
  606SOL    HW2 1818   2.184   2.840   2.972  0.3848 -0.3808 -0.7263
  607SOL     OW 1819   0.979   0.392   1.222  0.1814  0.7778  0.5193
  607SOL    HW1 1820   1.023   0.411   1.311 -0.9207 -1.2126  0.8545
  607SOL    HW2 1821   0.942   0.298   1.218  2.1471  2.4365  0.6575
  608SOL     OW 1822   0.265   1.669   2.572 -0.3398  0.0749 -0.0935
  608SOL    HW1 1823   0.353   1.646   2.621  0.4514  2.0120 -2.0552
  608SOL    HW2 1824   0.187   1.686   2.641 -3.4458  2.0377  1.5891
  609SOL     OW 1825   1.094   1.396   0.429 -0.2034  0.0180  0.3073
  609SOL    HW1 1826   1.158   1.473   0.429 -1.0004  0.7938 -2.7934
  609SOL    HW2 1827   1.083   1.363   0.329  0.8130  1.2737  2.5786
  610SOL     OW 1828   0.094   0.364   0.875 -0.7018  0.3156 -0.2207
  610SOL    HW1 1829   0.099   0.266   0.867  0.2126  3.9842 -0.5467
  610SOL    HW2 1830   0.111   0.402   0.972 -0.2394  1.3353  1.3914
  611SOL     OW 1831   1.210   1.160   0.523 -0.2624  0.1489  0.0060
  611SOL    HW1 1832   1.158   1.224   0.461 -2.8224  0.6626 -3.5948
  611SOL    HW2 1833   1.279   1.101   0.472  2.8463 -0.0231 -1.3586
  612SOL     OW 1834   2.203   1.523   0.120  0.1948 -0.0914  0.2310
  612SOL    HW1 1835   2.113   1.531   0.155  0.3337 -0.2114  0.9511
  612SOL    HW2 1836   2.251   1.603   0.161 -1.0002  0.8412 -0.3122
  613SOL     OW 1837   1.663   0.902   0.118  0.6000  0.4543  0.6752
  613SOL    HW1 1838   1.745   0.949   0.081 -2.6706  2.4530 -0.6575
  613SOL    HW2 1839   1.601   0.975   0.160 -2.2636  1.5194  0.3983
  614SOL     OW 1840   2.763   0.250   2.383 -0.2416 -0.0329  0.0284
  614SOL    HW1 1841   2.839   0.182   2.381  0.1051 -0.1902 -0.1816
  614SOL    HW2 1842   2.677   0.214   2.341  0.1107  0.8641 -1.0152
  615SOL     OW 1843   0.686   2.161   0.896 -0.6622 -0.0327 -0.2905
  615SOL    HW1 1844   0.730   2.086   0.845 -0.0344 -0.3102 -1.0430
  615SOL    HW2 1845   0.679   2.141   1.000 -2.0525  0.9115  1.7715
  616SOL     OW 1846   1.630   1.035   2.475 -0.0570 -0.1889 -0.1041
  616SOL    HW1 1847   1.650   1.135   2.453  0.0562  0.0694  0.8614
  616SOL    HW2 1848   1.715   0.981   2.450 -2.0973 -0.6296 -2.0973
  617SOL     OW 1849   1.079   0.214   0.140 -0.0881 -0.0745  0.6182
  617SOL    HW1 1850   1.155   0.245   0.207  0.7273 -1.6963  2.0095
  617SOL    HW2 1851   1.122   0.130   0.095  2.1517  1.1398 -1.6571
  618SOL     OW 1852   2.424   2.086   2.374 -0.1824 -0.2201  0.2271
  618SOL    HW1 1853   2.327   2.111   2.364  0.5038  0.0725 -1.7724
  618SOL    HW2 1854   2.452   2.070   2.470  1.6733  1.2308 -2.5943
  619SOL     OW 1855   2.466   1.940   0.970 -0.0475  0.0611  0.7125
  619SOL    HW1 1856   2.551   1.937   1.028 -0.5509 -2.3172 -3.0448
  619SOL    HW2 1857   2.481   1.983   0.880 -2.1176 -2.3865 -0.0152
  620SOL     OW 1858   2.193   2.704   1.849 -0.7846 -0.2027 -0.9029
  620SOL    HW1 1859   2.280   2.648   1.841  0.2739 -1.5848 -1.6248
  620SOL    HW2 1860   2.136   2.661   1.917  2.0800  0.8123 -0.8321
  621SOL     OW 1861   0.029   1.977   0.946 -0.7248  0.1412  0.0685
  621SOL    HW1 1862   0.108   1.913   0.926  0.5515 -0.3575  1.2917
  621SOL    HW2 1863   0.059   2.071   0.964  0.3369 -2.4452 -0.8433
  622SOL     OW 1864   1.194   1.719   2.931 -0.0767 -0.1166  0.2122
  622SOL    HW1 1865   1.104   1.690   2.965  1.3695 -0.5703  0.6040
  622SOL    HW2 1866   1.239   1.780   3.004 -0.3492  0.5073 -0.2885
  623SOL     OW 1867   2.658   2.518   2.507  0.2715  0.2496  0.3484
  623SOL    HW1 1868   2.714   2.437   2.477  0.5595 -0.9834 -1.7426
  623SOL    HW2 1869   2.694   2.559   2.593 -0.6563 -0.1793  1.2535
  624SOL     OW 1870   0.796   2.282   0.591  0.2203 -0.3385 -0.3021
  624SOL    HW1 1871   0.793   2.321   0.683  0.2928 -2.3529 -3.7531
  624SOL    HW2 1872   0.717   2.223   0.578 -2.5258  1.1540 -0.0792
  625SOL     OW 1873   0.602   1.787   2.088 -0.1812  0.2458 -0.1059
  625SOL    HW1 1874   0.644   1.714   2.144 -0.2185  0.0451  0.9020
  625SOL    HW2 1875   0.648   1.871   2.124 -0.7293 -0.3547 -1.4904
  626SOL     OW 1876   0.357   2.638   0.027  0.3235 -0.3002  0.3749
  626SOL    HW1 1877   0.311   2.550   3.127 -1.9759  1.3659  0.7370
  626SOL    HW2 1878   0.383   2.643   0.125  1.5982 -0.4307  0.3429
  627SOL     OW 1879   1.280   1.539   0.107  0.1378 -0.3852  0.4211
  627SOL    HW1 1880   1.291   1.564   0.208  0.9592  1.0276  0.9030
  627SOL    HW2 1881   1.348   1.586   0.046 -1.2527 -0.7832  0.5094
  628SOL     OW 1882   1.610   2.003   0.796 -0.4607 -0.3225  0.1426
  628SOL    HW1 1883   1.572   2.022   0.890 -2.5221 -1.8002  3.0711
  628SOL    HW2 1884   1.708   2.031   0.801 -0.0785  1.1688  0.9135
  629SOL     OW 1885   0.514   0.355   1.575 -0.2697  0.7973  0.9720
  629SOL    HW1 1886   0.445   0.322   1.647 -0.0395  2.7633 -1.2025
  629SOL    HW2 1887   0.613   0.324   1.595  0.2945 -1.1245  1.8642
  630SOL     OW 1888   2.424   0.434   1.686  1.0533  0.8782  0.4702
  630SOL    HW1 1889   2.372   0.526   1.695  1.4518  2.0916 -0.3351
  630SOL    HW2 1890   2.471   0.414   1.600  0.4896 -0.5972  2.5307
  631SOL     OW 1891   1.487   0.213   0.973  0.2209 -0.2456 -0.5851
  631SOL    HW1 1892   1.470   0.295   0.918  1.0860  2.4400  0.7342
  631SOL    HW2 1893   1.420   0.187   1.043 -0.9932  0.1330 -2.3392
  632SOL     OW 1894   2.870   0.940   1.908  0.3690 -0.3147  0.3668
  632SOL    HW1 1895   2.934   0.980   1.846 -2.2811  1.2717  1.9603
  632SOL    HW2 1896   2.856   0.844   1.889  0.7573  1.4063  2.2831
  633SOL     OW 1897   1.457   0.737   3.111 -0.2650 -0.5499 -0.7471
  633SOL    HW1 1898   1.366   0.735   0.028 -0.7974  1.5402 -0.2524
  633SOL    HW2 1899   1.530   0.769   0.048 -2.2297  2.2478  1.9389
  634SOL     OW 1900   0.603   2.237   0.199  0.1075  0.5913 -0.0153
  634SOL    HW1 1901   0.654   2.324   0.209 -0.3856 -1.0513 -1.1610
  634SOL    HW2 1902   0.568   2.210   0.104 -3.4801 -1.2533 -0.5092
  635SOL     OW 1903   3.115   1.715   1.861 -0.0443 -0.0785  0.4406
  635SOL    HW1 1904   3.034   1.689   1.918 -2.3020 -2.1825  0.5406
  635SOL    HW2 1905   0.072   1.745   1.912  4.8853  1.6667 -1.2657
  636SOL     OW 1906   3.110   1.608   0.300  0.2398 -0.0997  0.0337
  636SOL    HW1 1907   0.049   1.555   0.243 -0.6456 -0.4544 -0.7239
  636SOL    HW2 1908   3.125   1.707   0.305  0.7241 -1.5171  0.0403
  637SOL     OW 1909   2.719   2.518   0.470  0.1036  0.5044  0.0354
  637SOL    HW1 1910   2.782   2.594   0.494  2.1258  0.6347  3.4668
  637SOL    HW2 1911   2.758   2.430   0.509 -0.8460  1.0488 -0.8286
  638SOL     OW 1912   2.920   2.817   0.101 -0.4666 -0.3734 -0.6878
  638SOL    HW1 1913   2.863   2.778   0.030 -1.5218 -0.8415  2.1986
  638SOL    HW2 1914   3.018   2.806   0.080 -1.0056  0.4351  1.2105
  639SOL     OW 1915   1.477   0.220   3.071  0.1147 -0.4716  0.5291
  639SOL    HW1 1916   1.413   0.302   3.072 -1.2013  0.0076 -0.4294
  639SOL    HW2 1917   1.424   0.153   3.013 -0.2415 -0.8711 -0.3129
  640SOL     OW 1918   2.462   2.121   1.545 -0.2051 -0.0489  0.1464
  640SOL    HW1 1919   2.503   2.136   1.450  0.5137  0.4688 -1.6084
  640SOL    HW2 1920   2.391   2.189   1.571  1.3037 -1.4742  0.8289
  641SOL     OW 1921   3.040   2.942   1.148 -0.3540  0.0170  0.7702
  641SOL    HW1 1922   2.940   2.973   1.145  3.8085  2.3489 -1.2613
  641SOL    HW2 1923   3.093   3.030   1.125 -0.2594  0.8204  0.6018
  642SOL     OW 1924   1.624   1.032   1.237 -0.4448  0.3080 -0.5267
  642SOL    HW1 1925   1.720   1.028   1.204 -2.0844  1.8562 -1.2777
  642SOL    HW2 1926   1.613   1.018   1.335 -1.3259  1.6144 -1.3510
  643SOL     OW 1927   1.198   1.789   2.465 -0.1149 -0.3404  0.0426
  643SOL    HW1 1928   1.295   1.786   2.491  2.1837  0.0468  0.4685
  643SOL    HW2 1929   1.178   1.836   2.378 -0.9272 -0.8174  2.2175
  644SOL     OW 1930   1.816   3.093   2.154 -1.2039  0.5894 -0.2909
  644SOL    HW1 1931   1.847   3.088   2.254  0.0476 -0.8339  3.3828
  644SOL    HW2 1932   1.736   0.017   2.150  2.8339  1.8615 -0.5584
  645SOL     OW 1933   1.560   1.000   1.706  0.2802  0.4263 -0.1117
  645SOL    HW1 1934   1.509   1.077   1.672  0.6484  0.9615 -0.0278
  645SOL    HW2 1935   1.651   1.001   1.665  1.4007 -1.7616  3.2536
  646SOL     OW 1936   1.276   2.650   3.068 -0.1591  0.1391 -0.5471
  646SOL    HW1 1937   1.231   2.623   2.984  1.7177  0.0913  0.6579
  646SOL    HW2 1938   1.298   2.569   3.127  0.3976  2.9792  1.0750
  647SOL     OW 1939   1.418   2.358   1.119 -0.0352 -0.2298 -0.3636
  647SOL    HW1 1940   1.371   2.398   1.037  2.5083 -0.2480 -0.6786
  647SOL    HW2 1941   1.355   2.338   1.197  0.8879 -0.7968  1.8941
  648SOL     OW 1942   2.985   2.743   1.329  0.3075  0.2199 -0.2295
  648SOL    HW1 1943   3.076   2.705   1.360  0.5349 -0.8952  2.6288
  648SOL    HW2 1944   2.995   2.812   1.252  1.2338  1.7657 -1.2593
  649SOL     OW 1945   0.929   2.412   2.755 -0.2298  0.2573  0.1944
  649SOL    HW1 1946   0.961   2.317   2.761 -0.7845  0.6528  0.5166
  649SOL    HW2 1947   0.831   2.410   2.726 -0.1853  0.2447  0.4373
  650SOL     OW 1948   3.083   1.825   3.008  0.4115  0.4858  0.0943
  650SOL    HW1 1949   3.005   1.755   3.015 -0.8380 -2.0563 -1.6438
  650SOL    HW2 1950   0.025   1.797   3.076  0.2461 -1.2132  0.5184
  651SOL     OW 1951   2.263   2.315   2.101 -0.3682  0.7779 -0.2898
  651SOL    HW1 1952   2.212   2.249   2.161 -0.3107 -0.6377  1.1418
  651SOL    HW2 1953   2.227   2.306   2.007  0.6151 -2.8942  1.7934
  652SOL     OW 1954   2.188   2.876   0.827 -0.9506 -0.0018 -0.3721
  652SOL    HW1 1955   2.272   2.882   0.771 -0.3539  0.2405 -0.1775
  652SOL    HW2 1956   2.104   2.847   0.774 -0.4076  1.1168 -3.3190
  653SOL     OW 1957   3.022   1.312   1.309  0.1595 -0.1177  0.5134
  653SOL    HW1 1958   2.937   1.337   1.347  3.1929  1.2045 -0.3485
  653SOL    HW2 1959   3.013   1.300   1.210 -0.8063 -1.1191  1.2914
  654SOL     OW 1960   0.953   0.392   2.931  0.7228 -0.0002 -0.4052
  654SOL    HW1 1961   0.992   0.461   2.997  0.6144  0.4316 -1.0921
  654SOL    HW2 1962   0.905   0.315   2.982 -0.6282 -1.8311 -0.6380
  655SOL     OW 1963   1.129   0.867   0.984  0.0766  0.2503  0.3170
  655SOL    HW1 1964   1.031   0.846   1.003  1.6872 -0.9548  1.9955
  655SOL    HW2 1965   1.166   0.933   1.054  2.1033  1.3055  0.4193
  656SOL     OW 1966   0.783   2.600   2.045 -0.1504  0.2654 -0.3306
  656SOL    HW1 1967   0.696   2.565   2.090  1.0961 -0.9358 -1.2899
  656SOL    HW2 1968   0.862   2.598   2.110  3.0949  1.1881 -0.9689
  657SOL     OW 1969   2.287   1.199   0.193  0.1149  0.3133 -0.4907
  657SOL    HW1 1970   2.255   1.148   0.114  1.4577 -0.4985 -2.1413
  657SOL    HW2 1971   2.352   1.275   0.169  0.9673 -0.0765 -2.7872
  658SOL     OW 1972   1.628   2.209   1.393 -0.7567 -0.5288  0.2169
  658SOL    HW1 1973   1.582   2.286   1.444 -0.8371 -0.4789 -0.1226
  658SOL    HW2 1974   1.726   2.210   1.401 -1.6266  4.5214 -1.2575
  659SOL     OW 1975   2.795   1.817   0.125  0.1640 -0.3225 -0.4255
  659SOL    HW1 1976   2.844   1.760   0.055  2.2433  1.1765  0.1776
  659SOL    HW2 1977   2.717   1.777   0.176 -0.3163  1.5533 -0.8601
  660SOL     OW 1978   0.930   0.365   0.710  0.6888 -0.4835  0.5839
  660SOL    HW1 1979   0.980   0.273   0.703  0.4891 -3.4962 -1.5309
  660SOL    HW2 1980   0.930   0.415   0.622  1.3568 -1.9944 -2.4794
  661SOL     OW 1981   1.703   0.269   0.437 -0.1318 -0.3475  0.5876
  661SOL    HW1 1982   1.627   0.261   0.370  0.5347  0.2714 -1.5666
  661SOL    HW2 1983   1.773   0.329   0.399 -0.4381 -3.6187  0.2629
  662SOL     OW 1984   0.331   0.277   0.501  0.9035  0.1299  0.1588
  662SOL    HW1 1985   0.277   0.362   0.499  0.6676  0.4009  1.1931
  662SOL    HW2 1986   0.267   0.200   0.491 -0.2289  0.9618 -1.0433
  663SOL     OW 1987   1.257   2.986   2.247 -0.2228 -0.4414  0.5608
  663SOL    HW1 1988   1.232   3.072   2.294  1.0066 -1.2040  0.6252
  663SOL    HW2 1989   1.234   2.903   2.308 -2.9203 -0.8959  1.3501
  664SOL     OW 1990   0.837   2.487   1.579 -0.6241  0.5860 -0.1057
  664SOL    HW1 1991   0.767   2.446   1.643 -2.8263  1.0978  4.2124
  664SOL    HW2 1992   0.833   2.587   1.581  0.3785  0.0090 -0.5715
  665SOL     OW 1993   1.295   2.192   1.707  0.8097  0.9486 -0.2305
  665SOL    HW1 1994   1.232   2.243   1.763  0.0308 -0.8467 -1.2144
  665SOL    HW2 1995   1.387   2.231   1.690 -0.7693 -1.2567 -0.5631
  666SOL     OW 1996   0.703   3.081   2.561  0.6132 -0.6745 -0.1576
  666SOL    HW1 1997   0.602   3.107   2.581 -2.2201 -0.7189 -1.2613
  666SOL    HW2 1998   0.759   0.039   2.547  0.7724  1.8168  0.7094
  667SOL     OW 1999   2.652   1.099   1.569 -0.5102 -0.3815  0.2575
  667SOL    HW1 2000   2.680   1.155   1.649 -0.6290 -0.0569  3.8318
  667SOL    HW2 2001   2.622   1.166   1.496  1.5799  0.2920 -0.3639
  668SOL     OW 2002   1.725   0.043   1.645  0.3015  0.4806 -0.7735
  668SOL    HW1 2003   1.703   3.076   1.606 -0.9454 -2.2532 -1.8453
  668SOL    HW2 2004   1.666   0.066   1.726 -1.8994 -1.7781  1.2771
  669SOL     OW 2005   2.659   2.766   1.118 -0.2775 -0.5110 -0.2601
  669SOL    HW1 2006   2.625   2.733   1.208 -0.2458 -1.0146  0.1674
  669SOL    HW2 2007   2.642   2.706   1.040 -1.5583  0.2108 -0.4786
  670SOL     OW 2008   1.334   2.493   2.621  0.6293  0.0335  0.1895
  670SOL    HW1 2009   1.365   2.556   2.549 -0.7279 -0.6360  0.6579
  670SOL    HW2 2010   1.297   2.405   2.584  1.3833 -2.2269 -0.1528
  671SOL     OW 2011   0.416   1.286   0.551  0.1125  0.0026  0.7401
  671SOL    HW1 2012   0.403   1.183   0.555 -2.6004  0.9838 -0.4395
  671SOL    HW2 2013   0.338   1.318   0.492  1.9915 -0.8089  1.2605
  672SOL     OW 2014   2.587   1.108   0.024  0.4509 -0.7822 -0.4759
  672SOL    HW1 2015   2.663   1.072   0.083 -2.2518 -0.6645  0.2015
  672SOL    HW2 2016   2.513   1.042   0.016  0.9121 -0.4120 -0.4227
  673SOL     OW 2017   0.336   2.072   1.617 -0.1699  0.0854 -0.2598
  673SOL    HW1 2018   0.275   2.143   1.657 -0.2115  0.4138  1.6966
  673SOL    HW2 2019   0.326   1.985   1.668 -1.5479  2.7669  1.1096
  674SOL     OW 2020   1.114   2.215   2.154 -0.1042  0.3982 -0.1379
  674SOL    HW1 2021   1.211   2.223   2.123  0.6230  0.6213  0.8226
  674SOL    HW2 2022   1.062   2.180   2.074 -0.2876 -1.4871  0.4823
  675SOL     OW 2023   1.247   1.038   1.166  0.0314 -0.0430 -0.3527
  675SOL    HW1 2024   1.318   1.057   1.235 -0.0784 -1.4300  0.0605
  675SOL    HW2 2025   1.162   1.093   1.181 -2.0998  0.5106 -1.0413
  676SOL     OW 2026   2.122   0.249   1.267 -0.5602 -0.1003 -0.0364
  676SOL    HW1 2027   2.044   0.314   1.247  1.2074  2.0093  0.8711
  676SOL    HW2 2028   2.087   0.167   1.320  0.4011 -2.2223 -2.2607
  677SOL     OW 2029   2.706   0.680   0.262 -0.4358 -0.4383 -0.4815
  677SOL    HW1 2030   2.793   0.684   0.312 -1.7702 -1.3449  0.5037
  677SOL    HW2 2031   2.664   0.588   0.254  0.9995  0.6066  1.0484
  678SOL     OW 2032   2.681   1.512   1.050 -0.4941  0.3157 -0.0496
  678SOL    HW1 2033   2.764   1.552   1.019 -3.7066  0.3673 -0.3054
  678SOL    HW2 2034   2.626   1.474   0.976 -1.2909 -3.4863 -1.5755
  679SOL     OW 2035   2.630   0.778   2.985 -0.7312  0.3058 -0.5783
  679SOL    HW1 2036   2.679   0.767   2.892  0.0274 -0.6692 -0.4008
  679SOL    HW2 2037   2.707   0.791   3.056  2.8835  0.5537  0.0807
  680SOL     OW 2038   0.505   1.245   1.992 -0.0449  0.3248  0.1022
  680SOL    HW1 2039   0.510   1.161   2.049 -0.1398  0.6925 -0.4935
  680SOL    HW2 2040   0.429   1.307   2.025 -0.0003  2.4750  0.7152
  681SOL     OW 2041   2.799   2.082   1.500  0.1079  0.0327 -0.2658
  681SOL    HW1 2042   2.770   2.031   1.584 -2.7375 -1.5632  2.5984
  681SOL    HW2 2043   2.732   2.085   1.430  1.3104  1.2467  0.5257
  682SOL     OW 2044   0.193   2.040   3.123  0.4864 -0.0454 -0.2917
  682SOL    HW1 2045   0.095   2.061   3.110  1.3163  0.2794 -0.7032
  682SOL    HW2 2046   0.231   1.996   3.043  1.3721 -2.1019 -1.9613
  683SOL     OW 2047   2.715   2.231   0.904 -0.1298  0.3409 -0.0025
  683SOL    HW1 2048   2.790   2.169   0.928 -1.0325  0.8527 -1.5435
  683SOL    HW2 2049   2.695   2.300   0.979 -0.2525  2.3488 -0.5532
  684SOL     OW 2050   2.731   1.092   2.063  1.0358  0.2772 -0.2594
  684SOL    HW1 2051   2.799   1.036   2.007 -0.6890 -1.4080 -0.9681
  684SOL    HW2 2052   2.751   1.080   2.163  3.3190 -0.2706 -0.1272
  685SOL     OW 2053   1.181   0.700   0.765  0.0236 -0.0649  0.6541
  685SOL    HW1 2054   1.189   0.611   0.816  2.2294  2.7185 -2.0167
  685SOL    HW2 2055   1.145   0.766   0.837 -1.3210 -0.6106 -0.6899
  686SOL     OW 2056   0.516   0.260   0.027 -0.1261 -0.6637  0.1182
  686SOL    HW1 2057   0.486   0.163   0.042 -0.1065 -2.1139 -0.8602
  686SOL    HW2 2058   0.535   0.307   0.120  0.9686 -0.2974  1.2130
  687SOL     OW 2059   0.478   2.046   2.575  0.2268 -0.2854  0.5453
  687SOL    HW1 2060   0.448   2.108   2.497 -1.5376  2.8616 -0.3515
  687SOL    HW2 2061   0.389   1.997   2.604 -2.4361 -1.2220 -1.8572
  688SOL     OW 2062   2.159   0.267   1.672  0.3246  0.5616  0.1044
  688SOL    HW1 2063   2.066   0.262   1.626  1.1720  1.1503 -2.0703
  688SOL    HW2 2064   2.235   0.276   1.605 -0.3916  0.5325  1.4290
  689SOL     OW 2065   1.786   0.956   0.852  0.4785 -0.1644 -0.1332
  689SOL    HW1 2066   1.798   1.008   0.943 -0.5395 -1.9621  3.8441
  689SOL    HW2 2067   1.687   0.967   0.821 -2.0509  0.8814  0.1844
  690SOL     OW 2068   3.046   0.990   1.338 -0.0787 -0.2906  0.2225
  690SOL    HW1 2069   2.994   1.072   1.342  0.4251 -3.0672  0.2049
  690SOL    HW2 2070   2.987   0.920   1.295 -1.8334 -2.5181 -0.0585
  691SOL     OW 2071   3.118   1.240   1.818 -0.0063 -0.2617 -0.3504
  691SOL    HW1 2072   0.072   1.285   1.773  0.3575  1.2046 -2.5063
  691SOL    HW2 2073   3.074   1.307   1.875  0.6827  0.1298 -2.7903
  692SOL     OW 2074   1.047   0.712   1.814 -0.0937 -0.0246  0.3658
  692SOL    HW1 2075   1.063   0.619   1.843 -1.2742  4.3385 -0.8943
  692SOL    HW2 2076   1.105   0.772   1.865 -2.4299 -1.5749 -2.8776
  693SOL     OW 2077   0.792   1.216   2.347 -0.3000  0.2915  0.4832
  693SOL    HW1 2078   0.804   1.229   2.247 -1.1539  0.7251 -1.2322
  693SOL    HW2 2079   0.702   1.186   2.383  0.0220  2.6328  1.7287
  694SOL     OW 2080   1.515   1.601   0.539  0.5377 -0.0312 -0.1856
  694SOL    HW1 2081   1.607   1.630   0.569 -2.2366  0.1635 -0.7005
  694SOL    HW2 2082   1.445   1.599   0.620 -4.5916  2.1111  2.8655
  695SOL     OW 2083   0.532   1.351   1.316  0.2721  0.8867  0.4225
  695SOL    HW1 2084   0.436   1.305   1.318 -0.9087 -1.0246  2.6186
  695SOL    HW2 2085   0.590   1.323   1.399 -0.9300 -0.4778  1.8632
  696SOL     OW 2086   0.228   2.796   0.305 -0.0191 -0.7179  0.1539
  696SOL    HW1 2087   0.264   2.887   0.336 -1.8276  0.6946  1.9593
  696SOL    HW2 2088   0.300   2.728   0.330  1.2085 -0.4361  0.4831
  697SOL     OW 2089   1.857   0.444   1.231 -0.2217  0.4101 -0.0517
  697SOL    HW1 2090   1.865   0.510   1.156 -3.7696 -0.1967  2.4998
  697SOL    HW2 2091   1.799   0.360   1.203 -3.8548 -2.2289 -0.2137
  698SOL     OW 2092   1.710   1.390   1.656 -0.2035 -0.7854 -0.1839
  698SOL    HW1 2093   1.770   1.460   1.698 -1.2689 -0.6673 -3.5478
  698SOL    HW2 2094   1.759   1.302   1.647  3.5432 -2.2082  4.1080
  699SOL     OW 2095   0.007   0.341   2.389  0.2634 -0.2424 -0.0540
  699SOL    HW1 2096   3.068   0.421   2.398 -1.9913 -1.4302 -0.9246
  699SOL    HW2 2097   3.091   0.278   2.321  0.5534 -1.0311  0.0522
  700SOL     OW 2098   1.496   2.724   0.913 -0.0702 -0.0480  0.3453
  700SOL    HW1 2099   1.590   2.700   0.879 -2.9709  0.2891 -2.0019
  700SOL    HW2 2100   1.469   2.813   0.876  0.1683  1.7800  0.2200
  701SOL     OW 2101   0.354   1.359   2.501  0.3074 -0.2704  0.3407
  701SOL    HW1 2102   0.366   1.448   2.455  0.6720 -2.9829  1.1387
  701SOL    HW2 2103   0.406   1.358   2.589 -0.5250 -1.1387  0.4299
  702SOL     OW 2104   0.448   0.320   2.900 -0.5619 -0.3798  0.3887
  702SOL    HW1 2105   0.353   0.296   2.882  1.4386 -1.7593 -2.0358
  702SOL    HW2 2106   0.477   0.317   2.995  0.1805  1.9424 -1.1902
  703SOL     OW 2107   1.870   0.010   2.430 -0.0182  0.5981 -0.1387
  703SOL    HW1 2108   1.941   0.022   2.503 -0.0676  1.4533  1.0908
  703SOL    HW2 2109   1.785   0.059   2.454  0.2412 -0.3933  0.4439
  704SOL     OW 2110   2.624   1.783   0.575 -0.3308 -0.4714  0.1303
  704SOL    HW1 2111   2.604   1.881   0.556  0.1782 -0.6409  0.4800
  704SOL    HW2 2112   2.718   1.760   0.535  1.0852 -0.3807 -1.2482
  705SOL     OW 2113   2.863   2.067   2.016  0.5296 -0.3004 -0.2454
  705SOL    HW1 2114   2.821   1.996   2.077 -1.3051 -0.9661  0.2883
  705SOL    HW2 2115   2.784   2.130   1.983  0.5247  0.9487  0.4658
  706SOL     OW 2116   2.869   2.644   0.759  0.0052 -0.0356  0.6171
  706SOL    HW1 2117   2.940   2.692   0.811  1.3581  0.7518 -0.4700
  706SOL    HW2 2118   2.875   2.669   0.660 -0.0619 -0.2120  0.2185
  707SOL     OW 2119   0.928   2.942   0.374 -0.0563  0.0108  0.1515
  707SOL    HW1 2120   1.017   2.888   0.375  0.2111 -1.6945  0.0631
  707SOL    HW2 2121   0.935   3.041   0.390  1.1955  0.4578  0.4819
  708SOL     OW 2122   0.601   2.125   1.506  0.9368 -0.1091  0.1831
  708SOL    HW1 2123   0.501   2.095   1.514  1.2029 -0.9366  0.9595
  708SOL    HW2 2124   0.600   2.194   1.428 -0.5739  0.1617  0.6786
  709SOL     OW 2125   1.501   2.918   2.075  0.4102  0.6989  0.3136
  709SOL    HW1 2126   1.468   2.819   2.071  1.8687  1.4365 -0.1698
  709SOL    HW2 2127   1.466   2.960   2.159  0.0319 -0.0823  1.4424
  710SOL     OW 2128   1.590   2.897   2.408 -0.0213 -0.7608  0.1485
  710SOL    HW1 2129   1.652   2.881   2.489 -0.7032  0.5180  4.1462
  710SOL    HW2 2130   1.506   2.946   2.435 -0.0970 -3.0403 -0.7332
  711SOL     OW 2131   1.073   2.613   2.886 -0.1334 -0.2761 -0.2184
  711SOL    HW1 2132   1.016   2.529   2.879  0.9120  3.7608  0.2210
  711SOL    HW2 2133   1.121   2.630   2.801  0.1568 -1.8480  0.9134
  712SOL     OW 2134   1.034   2.140   2.755 -0.5416  0.3018 -0.2623
  712SOL    HW1 2135   1.123   2.142   2.808  0.7409  1.5043 -0.5111
  712SOL    HW2 2136   1.031   2.055   2.699 -0.5718  0.5382  1.8609
  713SOL     OW 2137   1.382   1.185   1.591 -0.5125  0.0937 -0.8382
  713SOL    HW1 2138   1.372   1.270   1.534 -0.1230  0.5745 -0.1730
  713SOL    HW2 2139   1.367   1.102   1.534  2.3817 -0.9909 -1.0359
  714SOL     OW 2140   1.467   1.537   1.170  0.5326  0.4758 -0.3211
  714SOL    HW1 2141   1.514   1.448   1.164 -0.9496  4.4402  0.3321
  714SOL    HW2 2142   1.472   1.565   1.266  0.5243 -3.2654 -0.7578
  715SOL     OW 2143   2.704   3.018   0.530  0.2158  0.3181  0.4808
  715SOL    HW1 2144   2.769   2.993   0.452 -2.0238 -1.3907  0.3739
  715SOL    HW2 2145   2.657   2.932   0.564 -1.3140 -3.0941  0.8635
  716SOL     OW 2146   0.698   2.881   0.747 -1.0661  0.2859 -0.3289
  716SOL    HW1 2147   0.706   2.850   0.653 -0.8830  0.5828 -0.4862
  716SOL    HW2 2148   0.649   2.810   0.805  0.1862 -0.0555 -0.7523
  717SOL     OW 2149   0.003   0.273   3.069 -0.3211  0.1918  0.0007
  717SOL    HW1 2150   3.047   0.302   3.016 -0.0146 -2.9581 -2.5105
  717SOL    HW2 2151   3.107   0.234   0.029 -2.7052 -0.3654 -1.9620
  718SOL     OW 2152   1.898   1.618   1.307 -0.2198  0.3828  0.4596
  718SOL    HW1 2153   1.977   1.615   1.374  2.3053 -0.5636  0.9386
  718SOL    HW2 2154   1.816   1.565   1.342  1.2664  1.1159 -0.2267
  719SOL     OW 2155   2.635   2.542   0.199  0.1597 -0.1473 -0.3510
  719SOL    HW1 2156   2.672   2.472   0.140  2.1079 -0.5914  1.4328
  719SOL    HW2 2157   2.651   2.522   0.297 -0.2187 -2.1725  1.1282
  720SOL     OW 2158   1.014   1.032   0.682  0.3881  0.1702 -0.0285
  720SOL    HW1 2159   1.028   0.967   0.758  1.4216  1.1945 -0.6469
  720SOL    HW2 2160   1.102   1.066   0.642  3.6835  1.8762 -3.7146
  721SOL     OW 2161   1.686   0.233   1.201 -0.0231 -0.2205  0.0270
  721SOL    HW1 2162   1.631   0.229   1.113 -0.3947  2.1247  0.0193
  721SOL    HW2 2163   1.641   0.179   1.272  2.0505 -0.4024 -0.0601
  722SOL     OW 2164   1.189   1.429   2.181 -0.4838  0.3660  0.2042
  722SOL    HW1 2165   1.287   1.427   2.154  1.1327  1.2613 -0.6079
  722SOL    HW2 2166   1.171   1.410   2.281  1.6376 -1.2793  2.5360
  723SOL     OW 2167   1.023   0.228   1.652 -0.4070 -0.0896  0.2238
  723SOL    HW1 2168   1.055   0.292   1.575  0.5194 -1.6320 -1.3282
  723SOL    HW2 2169   1.054   0.134   1.630  0.5083 -3.5499  1.0238
  724SOL     OW 2170   1.964   2.083   1.906  0.5499 -0.0533  0.1641
  724SOL    HW1 2171   1.917   2.100   1.817 -1.2093  1.5963 -0.3470
  724SOL    HW2 2172   2.021   1.998   1.904  0.2892 -0.6542  0.9126
  725SOL     OW 2173   1.338   2.832   1.454  0.5743  0.2359  0.6396
  725SOL    HW1 2174   1.345   2.799   1.361 -0.1516 -0.8926 -0.1206
  725SOL    HW2 2175   1.280   2.916   1.460 -0.2823  2.2830  1.0656
  726SOL     OW 2176   1.695   2.883   3.090 -0.0778 -0.5454  0.1662
  726SOL    HW1 2177   1.725   2.946   3.013 -1.4307  0.7951 -0.3602
  726SOL    HW2 2178   1.771   2.819   3.113  1.6912 -0.4558  0.9959
  727SOL     OW 2179   1.465   1.793   0.955 -0.4227  0.0761 -0.0002
  727SOL    HW1 2180   1.534   1.835   0.894 -0.8823 -0.2166  0.4915
  727SOL    HW2 2181   1.495   1.783   1.050 -1.3955 -2.5148 -0.6909
  728SOL     OW 2182   1.952   2.851   2.361 -0.3192  0.0283 -0.3702
  728SOL    HW1 2183   1.919   2.947   2.379 -1.1225  0.5607 -1.2897
  728SOL    HW2 2184   2.011   2.817   2.439  0.3932 -0.4205 -1.2765
  729SOL     OW 2185   2.298   1.922   1.645 -0.0581 -0.5139 -0.1425
  729SOL    HW1 2186   2.370   1.999   1.642  0.4751  3.2765  0.3187
  729SOL    HW2 2187   2.243   1.915   1.561 -0.3234  1.5669  0.7129
  730SOL     OW 2188   1.817   0.645   2.560  0.0622 -0.0388  0.3124
  730SOL    HW1 2189   1.861   0.624   2.471  0.2655  1.9985 -1.0450
  730SOL    HW2 2190   1.874   0.610   2.636 -1.1433 -0.2496  0.0545
  731SOL     OW 2191   0.482   0.147   1.136  0.3612 -0.3881 -0.6254
  731SOL    HW1 2192   0.483   0.162   1.236 -2.4727  0.7548  0.0338
  731SOL    HW2 2193   0.479   0.242   1.090 -1.3322  4.4241 -0.8934
  732SOL     OW 2194   1.789   3.075   1.134  0.2956 -0.1541 -0.3686
  732SOL    HW1 2195   1.809   0.039   1.169  2.6729  0.2210  0.8150
  732SOL    HW2 2196   1.866   3.025   1.099 -0.1863  0.3413  0.7244
  733SOL     OW 2197   0.699   1.187   1.153 -0.0528  0.1594 -0.1830
  733SOL    HW1 2198   0.651   1.261   1.204 -0.0460 -0.8216 -1.6838
  733SOL    HW2 2199   0.764   1.218   1.079 -0.9651  0.0836  0.0932
  734SOL     OW 2200   2.572   2.261   0.384 -0.5306 -0.3886  0.4530
  734SOL    HW1 2201   2.489   2.209   0.348  2.9773 -1.2132  0.4213
  734SOL    HW2 2202   2.533   2.324   0.453  0.4517  0.1587  2.8832
  735SOL     OW 2203   0.382   0.561   0.108 -0.3066  0.1493  0.1965
  735SOL    HW1 2204   0.375   0.606   0.015  1.1096  1.0750  2.0174
  735SOL    HW2 2205   0.296   0.501   0.114 -1.1873 -0.5215  0.1300
  736SOL     OW 2206   1.666   2.463   2.460  0.3668  0.0008  0.4390
  736SOL    HW1 2207   1.709   2.457   2.369  2.1922 -0.0096 -1.6103
  736SOL    HW2 2208   1.730   2.509   2.529  2.4119  0.7321 -0.5553
  737SOL     OW 2209   1.242   2.228   1.286  0.9369  0.3655 -0.0080
  737SOL    HW1 2210   1.188   2.179   1.217  3.3148 -0.0895  3.0573
  737SOL    HW2 2211   1.182   2.280   1.354  2.5709 -0.7574  3.4188
  738SOL     OW 2212   1.723   2.808   2.180 -0.1782 -0.5367  0.4163
  738SOL    HW1 2213   1.653   2.832   2.110 -1.2164  0.1084 -1.2786
  738SOL    HW2 2214   1.708   2.862   2.266  0.8639  0.1363  2.2569
  739SOL     OW 2215   1.468   2.026   2.046 -0.3477  0.5496 -0.1895
  739SOL    HW1 2216   1.571   2.025   2.054  2.2980 -2.9723 -1.3407
  739SOL    HW2 2217   1.428   2.115   2.069  0.9975 -1.2809 -0.5150
  740SOL     OW 2218   2.033   2.326   1.632  0.3407  0.4140 -0.0806
  740SOL    HW1 2219   1.963   2.249   1.631 -1.7473 -0.8701  3.1480
  740SOL    HW2 2220   2.003   2.399   1.566  3.4297  3.2397 -0.4362
  741SOL     OW 2221   2.075   1.727   2.921 -0.4179 -0.5777 -0.8203
  741SOL    HW1 2222   1.986   1.767   2.937  2.1451 -1.2950  0.2270
  741SOL    HW2 2223   2.121   1.781   2.846  0.2809 -1.1440 -2.1354
  742SOL     OW 2224   0.706   1.077   3.025  0.5311 -0.5741 -0.0973
  742SOL    HW1 2225   0.640   1.150   3.059  1.7595  3.0806  1.1099
  742SOL    HW2 2226   0.756   1.099   2.941  0.0310 -1.2335 -0.1893
  743SOL     OW 2227   2.171   0.808   2.777  0.2996  0.6139  0.4636
  743SOL    HW1 2228   2.257   0.842   2.733  1.3076  0.0982 -0.1545
  743SOL    HW2 2229   2.093   0.874   2.758 -4.2754  2.2769 -3.4669
  744SOL     OW 2230   2.048   2.768   1.598  0.1302  0.0022 -0.3745
  744SOL    HW1 2231   2.134   2.771   1.545 -0.4377 -0.0809  3.1319
  744SOL    HW2 2232   2.071   2.738   1.690 -0.1229  0.1694 -0.5642
  745SOL     OW 2233   2.701   1.964   1.132  0.4364  0.1358 -0.3228
  745SOL    HW1 2234   2.772   1.996   1.072 -2.4849  0.6385 -0.9961
  745SOL    HW2 2235   2.735   1.902   1.206 -1.6445  0.8699 -3.7731
  746SOL     OW 2236   2.888   2.029   0.958  0.2065 -0.2909 -0.2110
  746SOL    HW1 2237   2.847   1.954   0.905  1.2156  1.9352 -1.1359
  746SOL    HW2 2238   2.988   2.027   0.955 -1.2161  1.1871 -0.7693
  747SOL     OW 2239   1.974   2.849   0.302 -0.6442  0.0461  0.0322
  747SOL    HW1 2240   2.064   2.803   0.328 -0.4692 -1.8252  0.8783
  747SOL    HW2 2241   1.914   2.861   0.384 -1.7080 -0.8928 -0.3110
  748SOL     OW 2242   0.896   2.093   0.184  0.1459  0.2997 -0.0036
  748SOL    HW1 2243   0.970   2.098   0.112 -0.5940 -0.8552 -0.4746
  748SOL    HW2 2244   0.809   2.054   0.149 -0.3530  0.1074  0.4719
  749SOL     OW 2245   2.778   0.523   2.356  0.1762 -0.2025 -0.1934
  749SOL    HW1 2246   2.780   0.422   2.352 -0.4454  2.2845 -2.4285
  749SOL    HW2 2247   2.873   0.560   2.383  3.0445  0.1746  2.8001
  750SOL     OW 2248   1.339   0.625   1.640  0.0262  0.1207 -0.1172
  750SOL    HW1 2249   1.314   0.670   1.728  1.0084  0.6421 -0.0697
  750SOL    HW2 2250   1.402   0.544   1.659  2.0650 -2.8019 -0.9334
  751SOL     OW 2251   2.453   2.324   1.800  0.0297 -0.0079 -0.1118
  751SOL    HW1 2252   2.398   2.321   1.711 -0.8946 -0.2292 -2.1808
  751SOL    HW2 2253   2.444   2.416   1.840  0.6705 -0.6555 -2.9885
  752SOL     OW 2254   1.982   1.548   1.061  0.7393  0.0510 -0.3883
  752SOL    HW1 2255   1.956   1.558   1.159  0.3741 -1.7799 -3.7069
  752SOL    HW2 2256   1.926   1.472   1.023 -2.5390 -2.6143  0.5202
  753SOL     OW 2257   1.416   1.061   2.320 -0.2155  0.2121 -0.1340
  753SOL    HW1 2258   1.430   1.115   2.230  1.9373  0.1976 -0.9678
  753SOL    HW2 2259   1.505   1.067   2.377  0.0669  0.5100  2.0659
  754SOL     OW 2260   0.169   2.616   0.969  0.2858  0.0671  0.7939
  754SOL    HW1 2261   0.218   2.705   0.978 -2.0976 -1.4272 -0.6701
  754SOL    HW2 2262   0.181   2.558   1.054  0.7828 -2.2270  5.1172
  755SOL     OW 2263   2.454   3.048   1.329 -0.3311  0.2738 -0.0102
  755SOL    HW1 2264   2.468   3.020   1.428  1.2253  0.6419  0.9410
  755SOL    HW2 2265   2.480   0.009   1.298  0.8958 -1.7836 -0.4901
  756SOL     OW 2266   1.702   1.290   2.427 -0.2755  0.1631  0.0929
  756SOL    HW1 2267   1.761   1.344   2.492  1.7838  0.8009 -0.1618
  756SOL    HW2 2268   1.654   1.352   2.362  0.5726 -4.0805  1.2589
  757SOL     OW 2269   2.942   2.885   1.837  0.1062 -0.0183 -0.5795
  757SOL    HW1 2270   2.905   2.855   1.920  2.4730 -0.1787 -4.2771
  757SOL    HW2 2271   2.907   2.979   1.824  0.8597  2.2945  1.7606
  758SOL     OW 2272   0.514   2.829   1.453  0.4613  0.1615 -0.1110
  758SOL    HW1 2273   0.477   2.860   1.360 -1.0479  0.8703 -3.8344
  758SOL    HW2 2274   0.502   2.726   1.461  1.3070 -1.0342  0.9837
  759SOL     OW 2275   2.392   1.312   1.083  0.1916  0.2916  0.2577
  759SOL    HW1 2276   2.471   1.308   1.014  2.1871 -0.6144  1.5730
  759SOL    HW2 2277   2.351   1.404   1.089  0.5529 -0.8916  0.7232
  760SOL     OW 2278   1.546   0.125   1.848 -0.1081 -0.0621 -0.4602
  760SOL    HW1 2279   1.482   0.046   1.828  1.0872 -3.1880  0.3534
  760SOL    HW2 2280   1.561   0.129   1.948 -1.1625 -0.0746 -1.6231
  761SOL     OW 2281   2.110   0.400   0.685  0.7074 -0.0857  0.5988
  761SOL    HW1 2282   2.013   0.366   0.678 -0.8708 -0.2799  2.2448
  761SOL    HW2 2283   2.126   0.483   0.627 -1.2341 -1.3524  1.7210
  762SOL     OW 2284   2.216   2.734   0.368  0.0047  0.0012  0.0149
  762SOL    HW1 2285   2.301   2.747   0.309  1.2198 -0.5947 -3.9768
  762SOL    HW2 2286   2.201   2.635   0.393  2.7348 -2.5810 -1.2020
  763SOL     OW 2287   0.998   0.674   1.547  0.2296  0.4798 -0.3930
  763SOL    HW1 2288   1.027   0.711   1.640  1.3981 -0.4996  0.4164
  763SOL    HW2 2289   1.011   0.736   1.472  0.8146  0.8961  3.0949
  764SOL     OW 2290   2.193   2.580   2.692 -0.4608  0.1516  0.2331
  764SOL    HW1 2291   2.238   2.507   2.641 -0.8229  0.5954 -1.2384
  764SOL    HW2 2292   2.111   2.549   2.745 -1.1831  0.0823  1.0385
  765SOL     OW 2293   0.231   0.768   2.425 -0.7832  0.0657  0.3116
  765SOL    HW1 2294   0.145   0.792   2.479  2.4018 -0.6852 -1.5908
  765SOL    HW2 2295   0.314   0.822   2.458  3.3796 -0.4668 -0.2246
  766SOL     OW 2296   2.836   1.524   2.824  0.0104  0.0840  0.3693
  766SOL    HW1 2297   2.734   1.517   2.820 -0.5309  0.5233 -1.7594
  766SOL    HW2 2298   2.879   1.500   2.733 -1.8056  0.0142 -1.4890
  767SOL     OW 2299   0.264   2.020   1.971  0.0794  0.2734  0.0432
  767SOL    HW1 2300   0.185   2.043   1.914  0.1004 -1.0399 -0.2474
  767SOL    HW2 2301   0.265   1.921   1.993  2.3313  0.9587  0.6409
  768SOL     OW 2302   1.067   0.878   3.084  0.1395  0.4553  0.1920
  768SOL    HW1 2303   1.136   0.822   0.010  3.7210  0.9505  2.6107
  768SOL    HW2 2304   1.020   0.820   3.011 -1.6200 -2.2459 -0.2288
  769SOL     OW 2305   1.733   2.826   2.643 -0.0633  0.2430 -0.1798
  769SOL    HW1 2306   1.824   2.853   2.684  4.3586  1.1335 -2.2705
  769SOL    HW2 2307   1.665   2.787   2.711 -0.1852  2.7092 -0.2764
  770SOL     OW 2308   0.799   0.205   2.537  0.2484  0.1119 -0.1264
  770SOL    HW1 2309   0.746   0.212   2.447 -0.8775  2.1190 -0.6950
  770SOL    HW2 2310   0.802   0.296   2.587 -0.7774  1.6524  0.3150
  771SOL     OW 2311   0.571   2.728   0.906 -0.6180 -0.4696 -0.7145
  771SOL    HW1 2312   0.519   2.673   0.838 -0.7298  2.6369 -0.0386
  771SOL    HW2 2313   0.529   2.730   0.999 -0.6608  2.4340 -1.5169
  772SOL     OW 2314   3.104   0.888   0.385  0.0354 -0.1086  0.1439
  772SOL    HW1 2315   0.069   0.865   0.403 -0.9007  0.0121  1.1551
  772SOL    HW2 2316   3.049   0.805   0.396 -0.4543  3.5444 -0.8853
  773SOL     OW 2317   1.816   0.873   2.053 -0.4166 -0.1958 -0.6050
  773SOL    HW1 2318   1.764   0.790   2.085 -2.0458 -1.1389 -0.6146
  773SOL    HW2 2319   1.915   0.870   2.076 -0.0866 -1.4435 -0.7082
  774SOL     OW 2320   0.393   1.009   0.556 -0.3756  0.1038 -0.0914
  774SOL    HW1 2321   0.455   1.013   0.630 -2.3195  0.6605 -1.7717
  774SOL    HW2 2322   0.435   0.957   0.478  2.4258 -0.2106  0.3590
  775SOL     OW 2323   1.619   3.106   0.208 -0.3409 -1.1027 -0.3581
  775SOL    HW1 2324   1.558   3.043   0.164 -0.7981  2.7801  2.1571
  775SOL    HW2 2325   1.581   0.072   0.222 -2.2854 -0.0363  4.0382
  776SOL     OW 2326   2.294   0.157   2.345  0.0340 -0.5613  0.1408
  776SOL    HW1 2327   2.310   0.219   2.428  0.2871  0.5979  1.7150
  776SOL    HW2 2328   2.205   0.186   2.301 -1.7309 -1.6907  0.0674
  777SOL     OW 2329   0.917   1.534   0.152 -0.5054  0.3341  0.2175
  777SOL    HW1 2330   0.985   1.469   0.191 -1.8819  0.0369  2.0469
  777SOL    HW2 2331   0.822   1.505   0.167  0.5894  0.5223  1.6635
  778SOL     OW 2332   3.128   2.539   0.049  0.6035  0.2042  0.4230
  778SOL    HW1 2333   0.043   2.474   0.117  0.3613 -2.3306 -0.4894
  778SOL    HW2 2334   0.016   2.635   0.083  0.8087  2.2334  0.7019
  779SOL     OW 2335   0.203   1.135   0.169 -0.6231  0.0237 -0.2448
  779SOL    HW1 2336   0.183   1.196   0.249  1.0535  0.1099  0.4942
  779SOL    HW2 2337   0.213   1.040   0.201  0.8050 -0.9466  1.1973
  780SOL     OW 2338   2.068   0.262   2.230 -0.0426  0.7266 -0.2853
  780SOL    HW1 2339   2.139   0.297   2.164  0.6141 -1.3411  3.0850
  780SOL    HW2 2340   2.003   0.187   2.197 -0.5977 -1.9678 -1.9276
  781SOL     OW 2341   1.764   0.973   1.522  0.1672  0.0329 -0.0819
  781SOL    HW1 2342   1.823   1.052   1.549  2.3310  1.0582  0.0449
  781SOL    HW2 2343   1.796   0.882   1.559  1.4307 -2.4134  0.5164
  782SOL     OW 2344   1.855   1.936   2.300  0.0868 -0.6290  0.2004
  782SOL    HW1 2345   1.878   1.971   2.393  1.0979 -1.4634 -0.1133
  782SOL    HW2 2346   1.931   1.882   2.253 -0.2855  1.3151 -2.7016
  783SOL     OW 2347   1.334   3.072   1.766 -0.2581 -0.7162 -0.2239
  783SOL    HW1 2348   1.267   3.065   1.842  0.4663  0.0958  0.3260
  783SOL    HW2 2349   1.393   2.988   1.754 -1.8513  0.7891 -3.9946
  784SOL     OW 2350   1.942   0.922   2.513  0.1154  0.0337 -0.4931
  784SOL    HW1 2351   1.992   0.971   2.592  1.9858 -1.1110 -1.2430
  784SOL    HW2 2352   1.936   0.825   2.536 -0.1447  0.1996 -0.6990
  785SOL     OW 2353   1.946   0.426   0.366 -0.4771 -0.1867 -0.5125
  785SOL    HW1 2354   1.928   0.455   0.269 -1.2968  1.5691 -0.7336
  785SOL    HW2 2355   1.958   0.512   0.424  1.2256  1.3572  0.7697
  786SOL     OW 2356   3.088   1.897   0.674 -0.1139  0.5814  0.2766
  786SOL    HW1 2357   3.045   1.970   0.620 -0.7259  1.7756 -0.4830
  786SOL    HW2 2358   3.116   1.934   0.765 -1.8626 -0.2374  0.4274
  787SOL     OW 2359   1.729   2.209   0.518 -0.5423 -0.8580 -0.1659
  787SOL    HW1 2360   1.672   2.123   0.516 -0.4089 -0.2868  0.6363
  787SOL    HW2 2361   1.701   2.272   0.589  0.1017 -1.0644 -1.1018
  788SOL     OW 2362   2.133   1.554   1.513  0.3229 -0.1227  0.4772
  788SOL    HW1 2363   2.181   1.617   1.452 -0.1632 -3.7662 -0.8323
  788SOL    HW2 2364   2.053   1.606   1.556 -2.9975  2.3732  1.5190
  789SOL     OW 2365   3.037   1.222   2.462 -0.5918 -0.2721 -0.7630
  789SOL    HW1 2366   3.115   1.185   2.522  3.5736 -1.3952 -0.4917
  789SOL    HW2 2367   2.992   1.148   2.414  1.4921  1.0841 -0.4725
  790SOL     OW 2368   0.434   0.016   2.535 -0.3066 -0.6784  0.2784
  790SOL    HW1 2369   0.436   0.115   2.509 -0.9611 -0.4336  1.1960
  790SOL    HW2 2370   0.370   0.007   2.613 -1.0802  2.4269 -1.0139
  791SOL     OW 2371   0.997   2.983   2.855 -1.1491  0.4283  0.2042
  791SOL    HW1 2372   0.932   3.046   2.901  1.1589  1.4813 -3.5290
  791SOL    HW2 2373   1.022   2.905   2.918  1.9886  0.4977  2.2705
  792SOL     OW 2374   1.579   0.394   2.033 -0.5632 -0.6226 -0.6554
  792SOL    HW1 2375   1.663   0.412   1.976 -0.5048 -0.3863  1.3332
  792SOL    HW2 2376   1.503   0.463   2.020 -1.1066 -0.5227 -3.7386
  793SOL     OW 2377   2.629   0.306   2.049  0.2771  0.4856  0.4051
  793SOL    HW1 2378   2.555   0.280   1.978  0.3662 -1.1015  0.5762
  793SOL    HW2 2379   2.634   0.406   2.068 -0.2125 -1.5062  0.8367
  794SOL     OW 2380   0.616   0.731   1.773  0.4952 -0.4761  0.5845
  794SOL    HW1 2381   0.672   0.667   1.720 -0.4777 -0.3820 -1.4441
  794SOL    HW2 2382   0.533   0.685   1.812 -0.1413 -0.6627  1.2761
  795SOL     OW 2383   3.115   1.476   0.553  0.0099 -0.1853 -0.3667
  795SOL    HW1 2384   0.014   1.394   0.499 -0.4853 -1.4965  0.3816
  795SOL    HW2 2385   0.062   1.540   0.564 -0.9736  1.9708 -1.7539
  796SOL     OW 2386   2.901   2.427   3.058  0.0964  0.2029 -0.4340
  796SOL    HW1 2387   2.889   2.334   3.096 -2.4199 -3.3629  2.2911
  796SOL    HW2 2388   2.971   2.482   3.101  0.4785 -2.3731  2.0542
  797SOL     OW 2389   2.177   2.474   0.409  0.1785  0.3723  0.0294
  797SOL    HW1 2390   2.094   2.436   0.462 -0.3192 -0.2648 -1.1119
  797SOL    HW2 2391   2.177   2.438   0.312  0.3307  1.4573 -1.1099
  798SOL     OW 2392   0.387   0.983   1.393  0.2603 -0.3429  0.1291
  798SOL    HW1 2393   0.295   0.940   1.418  0.0543  1.5323 -0.0924
  798SOL    HW2 2394   0.373   1.078   1.358  1.1725  3.0056  0.8243
  799SOL     OW 2395   3.055   0.603   2.390  0.3888  0.0791 -0.0515
  799SOL    HW1 2396   3.076   0.661   2.471 -0.8850 -0.6994  1.0677
  799SOL    HW2 2397   3.066   0.657   2.306 -2.4659 -3.0463 -0.8940
  800SOL     OW 2398   2.963   2.094   0.531  0.0931  0.2043  0.0137
  800SOL    HW1 2399   3.018   2.122   0.449  0.6284 -2.4564 -1.0702
  800SOL    HW2 2400   2.984   2.148   0.615  0.7325  1.5273  1.5007
  801SOL     OW 2401   1.336   1.247   0.800  0.1196 -0.1746 -0.2262
  801SOL    HW1 2402   1.262   1.238   0.728  0.1574 -0.1232 -1.6220
  801SOL    HW2 2403   1.321   1.305   0.873  3.1037 -1.6157 -2.6847
  802SOL     OW 2404   1.283   1.940   1.375  0.3943  0.1020 -0.4902
  802SOL    HW1 2405   1.214   1.869   1.396  4.2034 -0.9875  2.8446
  802SOL    HW2 2406   1.252   2.035   1.356  1.4453 -0.4365  1.7547
  803SOL     OW 2407   2.904   1.693   0.541  0.4755 -0.3727  0.2464
  803SOL    HW1 2408   2.954   1.614   0.509  0.7541  1.9407 -0.8926
  803SOL    HW2 2409   2.970   1.748   0.597 -1.7177 -0.6822  2.9284
  804SOL     OW 2410   1.339   2.496   0.900  0.2416  0.0704 -0.0652
  804SOL    HW1 2411   1.309   2.447   0.817 -0.3736  0.1472  0.2375
  804SOL    HW2 2412   1.382   2.584   0.881 -2.0026 -1.9666 -0.0702
  805SOL     OW 2413   1.658   1.414   3.107  0.1958  0.8538 -0.4317
  805SOL    HW1 2414   1.649   1.504   0.019  0.2307 -2.0675  1.4345
  805SOL    HW2 2415   1.567   1.384   3.082  1.3385  1.4435  1.0589
  806SOL     OW 2416   1.616   2.958   1.484  0.7294  0.2890  0.0527
  806SOL    HW1 2417   1.583   2.875   1.539 -0.8458 -2.3597  0.0338
  806SOL    HW2 2418   1.701   2.943   1.434 -1.1817  2.0238  0.0689
  807SOL     OW 2419   1.948   2.926   2.779 -0.0055 -0.2051  0.1924
  807SOL    HW1 2420   1.997   3.007   2.745 -0.6329 -0.8112  1.4846
  807SOL    HW2 2421   2.016   2.862   2.823  2.2930  1.3389 -0.5809
  808SOL     OW 2422   0.217   1.336   0.378  0.2372 -0.4248  0.2037
  808SOL    HW1 2423   0.121   1.298   0.377 -0.4154  0.4326  0.8280
  808SOL    HW2 2424   0.218   1.436   0.357 -0.7895  2.1951 -1.1550
  809SOL     OW 2425   2.543   0.903   2.347 -0.3296 -0.4970  0.2807
  809SOL    HW1 2426   2.482   0.930   2.273  0.5590 -0.1810  0.0054
  809SOL    HW2 2427   2.633   0.950   2.333 -0.8334  0.1235 -0.9385
  810SOL     OW 2428   2.745   3.088   2.114 -0.2990 -0.2296  0.7021
  810SOL    HW1 2429   2.726   3.128   2.205  2.0888 -1.4651 -0.3243
  810SOL    HW2 2430   2.788   0.032   2.055  0.9181  1.6406 -2.0917
  811SOL     OW 2431   2.288   2.315   1.570 -0.1594 -0.1018 -0.4276
  811SOL    HW1 2432   2.187   2.318   1.593 -2.3688  0.1033 -1.4411
  811SOL    HW2 2433   2.320   2.389   1.511 -1.9571 -1.1694  2.2169
  812SOL     OW 2434   1.740   0.300   3.054 -0.2133  0.2902 -0.0892
  812SOL    HW1 2435   1.650   0.264   3.089  1.4394  0.6176 -1.5472
  812SOL    HW2 2436   1.766   0.369   3.128  1.6505 -0.9042  0.3429
  813SOL     OW 2437   1.785   0.516   1.853 -0.2625  0.3687 -0.1858
  813SOL    HW1 2438   1.726   0.491   1.766 -1.9331 -1.2805 -2.1509
  813SOL    HW2 2439   1.885   0.495   1.839  1.5386 -1.2102 -1.0721
  814SOL     OW 2440   2.129   1.288   1.510  0.1250 -0.1421 -0.3179
  814SOL    HW1 2441   2.205   1.231   1.482 -0.4458  0.3966 -0.5379
  814SOL    HW2 2442   2.156   1.384   1.512  1.3746  0.9849 -0.8803
  815SOL     OW 2443   0.437   0.782   0.390 -0.1434 -0.4457  0.3191
  815SOL    HW1 2444   0.356   0.726   0.390  1.1507  0.3022  0.6341
  815SOL    HW2 2445   0.500   0.780   0.309  1.9583 -2.4626 -0.8479
  816SOL     OW 2446   1.632   1.764   2.872  0.0335 -0.1472 -0.6413
  816SOL    HW1 2447   1.689   1.743   2.790 -1.3886  0.0346  0.4572
  816SOL    HW2 2448   1.544   1.713   2.871 -0.8915  1.2305  1.3272
  817SOL     OW 2449   0.047   2.980   0.606 -0.3073 -0.3115  0.5245
  817SOL    HW1 2450   3.110   2.998   0.683 -1.1151  0.1505  1.2062
  817SOL    HW2 2451   0.052   2.881   0.589  1.3905  0.4620  1.2328
  818SOL     OW 2452   1.378   0.462   2.719  0.5798 -0.6156 -0.0801
  818SOL    HW1 2453   1.412   0.537   2.779 -1.9753  2.8800  2.5331
  818SOL    HW2 2454   1.296   0.413   2.759 -0.8129 -1.9679 -1.2019
  819SOL     OW 2455   0.773   1.087   0.573  0.7108  0.1699  0.3629
  819SOL    HW1 2456   0.859   1.071   0.632 -0.9528  1.3483  0.6659
  819SOL    HW2 2457   0.685   1.059   0.625  0.4884  0.7355  0.8480
  820SOL     OW 2458   2.345   1.015   1.314  0.0371  0.1572 -0.1908
  820SOL    HW1 2459   2.382   0.968   1.227  1.8943 -2.4608  1.5613
  820SOL    HW2 2460   2.304   0.946   1.376  0.9920 -1.1195 -3.8124
  821SOL     OW 2461   2.290   0.103   0.535  0.0073 -0.1148 -0.0911
  821SOL    HW1 2462   2.253   0.011   0.521 -0.2291  2.5017  0.1943
  821SOL    HW2 2463   2.250   0.167   0.466 -0.4429 -1.1867 -0.9018
  822SOL     OW 2464   0.681   2.652   2.420  0.4521  0.4290 -0.4751
  822SOL    HW1 2465   0.704   2.556   2.425 -0.2181  0.5915 -0.8957
  822SOL    HW2 2466   0.683   2.704   2.506  0.5160 -0.9214 -0.1590
  823SOL     OW 2467   0.097   2.179   1.787  0.5872 -0.4842  0.2436
  823SOL    HW1 2468   0.055   2.267   1.755  1.0475 -0.4513 -0.5430
  823SOL    HW2 2469   0.034   2.107   1.752 -0.3564 -0.0630 -0.5835
  824SOL     OW 2470   0.766   2.925   2.321  0.8137 -0.8335 -0.1504
  824SOL    HW1 2471   0.768   2.987   2.407  0.5943 -0.0719  4.2282
  824SOL    HW2 2472   0.730   2.830   2.335  2.7327 -0.3459 -0.4179
  825SOL     OW 2473   1.070   1.888   0.369  0.2078 -0.1431  0.2452
  825SOL    HW1 2474   1.070   1.911   0.272  0.0201 -0.4546 -1.5439
  825SOL    HW2 2475   1.116   1.958   0.426  2.1149  1.9582  3.4478
  826SOL     OW 2476   1.015   2.806   3.068 -0.2156 -0.1789  0.5308
  826SOL    HW1 2477   1.017   2.794   0.040  1.1529 -1.2703 -1.1219
  826SOL    HW2 2478   1.068   2.734   3.022  1.3352  3.8637 -0.0847
  827SOL     OW 2479   0.311   1.756   1.731 -0.3839 -0.1380 -0.0478
  827SOL    HW1 2480   0.283   1.724   1.825  0.2297 -0.6806 -4.1686
  827SOL    HW2 2481   0.325   1.676   1.669  0.7200  0.7131  0.7607
  828SOL     OW 2482   2.771   1.791   1.343 -0.9614  0.7301  0.6147
  828SOL    HW1 2483   2.679   1.749   1.325 -1.3947 -0.3565 -1.5975
  828SOL    HW2 2484   2.809   1.772   1.434 -0.3945  4.0738  1.9999
  829SOL     OW 2485   2.948   2.239   0.137  0.1781  0.2087 -0.3344
  829SOL    HW1 2486   3.033   2.285   0.169  1.5266  0.4519  2.0301
  829SOL    HW2 2487   2.949   2.146   0.168  0.7221  3.0946 -0.4160
  830SOL     OW 2488   0.878   0.763   0.730 -0.5000  0.1111 -0.1301
  830SOL    HW1 2489   0.955   0.708   0.693  0.7640 -0.4274  0.7872
  830SOL    HW2 2490   0.871   0.755   0.833 -0.3653 -0.9756 -0.7903
  831SOL     OW 2491   2.986   1.985   0.222  0.2519  0.5158  1.0090
  831SOL    HW1 2492   2.921   1.913   0.192 -1.1381  0.0207  1.6064
  831SOL    HW2 2493   3.085   1.960   0.219 -1.8518 -1.2493  0.6729
  832SOL     OW 2494   1.069   2.628   0.612 -0.7744  0.7909 -0.1043
  832SOL    HW1 2495   0.987   2.633   0.679 -0.9227  3.9220 -3.0222
  832SOL    HW2 2496   1.131   2.709   0.623  0.9876 -1.3822 -1.6213
  833SOL     OW 2497   0.817   0.742   2.515 -0.0864  0.1254  0.9092
  833SOL    HW1 2498   0.868   0.720   2.428  1.1231 -0.4330  1.9777
  833SOL    HW2 2499   0.883   0.730   2.591 -1.4646 -1.1381  0.6345
  834SOL     OW 2500   2.638   0.806   0.825 -0.0685  0.1246 -0.5255
  834SOL    HW1 2501   2.631   0.707   0.849  1.0590  0.6521  0.6004
  834SOL    HW2 2502   2.549   0.850   0.822  3.1697  1.1258  0.8569
  835SOL     OW 2503   2.350   0.677   2.070  1.1092 -0.1768 -0.3100
  835SOL    HW1 2504   2.319   0.699   1.976  1.8359  2.2188  3.3599
  835SOL    HW2 2505   2.308   0.743   2.133 -0.4620  0.0336 -0.3876
  836SOL     OW 2506   0.438   2.327   0.692 -0.0193  0.4721 -0.2381
  836SOL    HW1 2507   0.429   2.431   0.690  0.4360 -1.5213  1.6103
  836SOL    HW2 2508   0.516   2.288   0.646  0.3225  0.2365  2.4713
  837SOL     OW 2509   2.504   1.906   2.164 -0.2721 -0.2713 -0.2424
  837SOL    HW1 2510   2.414   1.855   2.166 -0.1751  2.3943  0.2193
  837SOL    HW2 2511   2.495   1.977   2.234 -2.2232 -0.0468 -0.6222
  838SOL     OW 2512   0.059   1.142   2.057 -0.1191  0.0177  0.5342
  838SOL    HW1 2513   0.078   1.040   2.049  1.5559 -1.2452  1.4783
  838SOL    HW2 2514   0.016   1.173   1.968  1.8696  0.5198  1.0655
  839SOL     OW 2515   0.238   3.029   0.063  0.2597 -0.0704  0.1610
  839SOL    HW1 2516   0.232   3.043   3.091  2.7694 -0.8365 -0.6239
  839SOL    HW2 2517   0.332   3.039   0.105 -2.4461  0.9532  1.2572
  840SOL     OW 2518   3.120   0.770   2.592  0.3092  0.0657 -0.6149
  840SOL    HW1 2519   3.068   0.846   2.636 -1.9262 -1.8667 -1.3777
  840SOL    HW2 2520   0.020   0.700   2.662  0.1428 -1.3163 -0.5970
  841SOL     OW 2521   0.524   2.190   2.793  0.0588 -0.2523  0.0696
  841SOL    HW1 2522   0.475   2.168   2.879  1.9356 -1.1148 -1.4381
  841SOL    HW2 2523   0.514   2.126   2.714  0.6201 -0.0139  2.2768
  842SOL     OW 2524   0.915   0.123   1.201 -0.0132  0.1290 -0.5935
  842SOL    HW1 2525   0.827   0.087   1.239 -0.7460 -0.4727  1.1176
  842SOL    HW2 2526   0.918   0.083   1.111  0.1970 -2.5669  2.6000
  843SOL     OW 2527   0.530   1.625   2.662  1.0287  0.1041 -0.3260
  843SOL    HW1 2528   0.611   1.635   2.601 -0.9972  0.2985 -0.1302
  843SOL    HW2 2529   0.517   1.528   2.690 -0.9063 -0.1248 -3.4235
  844SOL     OW 2530   1.477   1.908   2.301 -0.4741  0.2328  0.0353
  844SOL    HW1 2531   1.440   1.915   2.205 -1.1988  1.3872 -1.4852
  844SOL    HW2 2532   1.538   1.827   2.302  0.6015  0.8647 -2.9229
  845SOL     OW 2533   2.339   2.741   2.868 -0.2796 -0.1244  0.2660
  845SOL    HW1 2534   2.357   2.834   2.840 -2.3963 -1.7202 -2.8462
  845SOL    HW2 2535   2.292   2.682   2.796 -0.2176 -1.1276 -1.8239
  846SOL     OW 2536   2.075   1.448   3.010 -0.5397  0.4740  0.4851
  846SOL    HW1 2537   2.058   1.543   2.977  1.2684  1.1090  2.2185
  846SOL    HW2 2538   2.122   1.456   3.102 -1.1122 -0.6663  0.0783
  847SOL     OW 2539   2.459   0.332   2.792 -0.0552  0.2880 -0.0575
  847SOL    HW1 2540   2.559   0.331   2.783 -3.3139  0.3296  2.8169
  847SOL    HW2 2541   2.425   0.405   2.848 -1.1370 -4.4064 -0.4633
  848SOL     OW 2542   3.028   0.527   0.145 -0.2770  0.4689 -0.3520
  848SOL    HW1 2543   3.021   0.516   0.245 -0.9311 -0.1029  0.7557
  848SOL    HW2 2544   2.947   0.488   0.092 -2.8666 -1.3381 -0.7442
  849SOL     OW 2545   1.422   0.209   2.395 -0.3861 -0.0833  0.3719
  849SOL    HW1 2546   1.404   0.120   2.446  0.8988 -1.4536 -0.8887
  849SOL    HW2 2547   1.382   0.285   2.442 -0.0521 -0.3016  0.0401
  850SOL     OW 2548   2.790   0.816   0.602  0.7821  0.2283  0.0604
  850SOL    HW1 2549   2.766   0.807   0.700  3.1223 -1.4771 -2.2160
  850SOL    HW2 2550   2.819   0.908   0.582  1.3350 -2.0290 -1.5695
  851SOL     OW 2551   0.289   1.048   0.922 -0.2969  0.2198 -0.2286
  851SOL    HW1 2552   0.223   1.092   0.984 -1.0764  3.0145 -0.1129
  851SOL    HW2 2553   0.354   0.981   0.961  0.6420 -1.6066 -1.2005
  852SOL     OW 2554   1.238   1.234   1.843 -0.7933  0.0752 -0.5659
  852SOL    HW1 2555   1.233   1.333   1.845 -1.0896  0.2278  3.2420
  852SOL    HW2 2556   1.283   1.195   1.761 -0.8143  1.2622  1.3483
  853SOL     OW 2557   1.874   1.047   3.127  0.2546 -0.3641 -0.0720
  853SOL    HW1 2558   1.970   1.002   3.125 -0.3560 -0.5078 -0.4641
  853SOL    HW2 2559   1.850   1.074   3.034 -1.4929  3.6450  1.9071
  854SOL     OW 2560   1.705   1.109   1.950 -0.0068 -0.4847 -0.1907
  854SOL    HW1 2561   1.739   1.025   1.998 -1.8821  3.1344 -1.0023
  854SOL    HW2 2562   1.658   1.089   1.862  1.6358  0.0161  0.1554
  855SOL     OW 2563   0.599   2.249   2.260  0.0461 -0.0614 -0.1322
  855SOL    HW1 2564   0.497   2.248   2.269 -1.6696 -0.3553 -0.9459
  855SOL    HW2 2565   0.632   2.323   2.325 -0.0571  1.8092 -0.4228
  856SOL     OW 2566   1.186   0.998   1.974 -0.0364 -0.5958 -0.4785
  856SOL    HW1 2567   1.087   1.003   2.002 -1.9472 -0.0571  0.0420
  856SOL    HW2 2568   1.219   1.083   1.923  3.1598  0.1890 -1.5760
  857SOL     OW 2569   1.172   1.108   2.450 -0.2481 -0.5930 -0.0506
  857SOL    HW1 2570   1.103   1.040   2.419  4.1246  0.4148  0.9692
  857SOL    HW2 2571   1.255   1.084   2.398 -2.9579 -1.3420  2.1644
  858SOL     OW 2572   0.133   0.578   1.696  0.0252  0.2299 -0.4639
  858SOL    HW1 2573   0.047   0.618   1.665  2.8336 -1.1542 -0.7160
  858SOL    HW2 2574   0.115   0.508   1.766  0.2942 -1.9565 -0.1024
  859SOL     OW 2575   2.515   3.035   0.861 -0.1318 -0.0263  0.0575
  859SOL    HW1 2576   2.437   3.094   0.834  0.5249 -0.8000  1.6602
  859SOL    HW2 2577   2.606   3.086   0.872 -0.0130  0.6629 -0.5972
  860SOL     OW 2578   1.613   0.501   1.402  0.7647 -0.4977  0.1616
  860SOL    HW1 2579   1.618   0.603   1.417  2.0291  3.4555  0.7100
  860SOL    HW2 2580   1.680   0.477   1.329 -0.4974 -2.0977  0.2341
  861SOL     OW 2581   1.847   0.721   1.163  0.3492 -0.6759  0.1276
  861SOL    HW1 2582   1.769   0.720   1.101  0.4674 -1.3001  1.8201
  861SOL    HW2 2583   1.806   0.712   1.257  0.4746  0.1963  1.3173
  862SOL     OW 2584   1.143   2.980   2.635 -0.2026 -0.5629 -0.3165
  862SOL    HW1 2585   1.102   2.900   2.588 -1.0678 -1.2533 -0.5569
  862SOL    HW2 2586   1.092   2.997   2.722  1.6817 -1.9042 -0.2044
  863SOL     OW 2587   2.778   3.087   1.523  0.0570  0.7483  0.0988
  863SOL    HW1 2588   2.770   3.067   1.622  2.8992  2.1525  2.7401
  863SOL    HW2 2589   2.877   3.078   1.497 -1.1316 -3.0980 -1.0498
  864SOL     OW 2590   2.787   2.826   2.053 -0.1498 -0.3876  0.9168
  864SOL    HW1 2591   2.749   2.758   2.117  4.1117  1.5812 -0.7759
  864SOL    HW2 2592   2.761   2.921   2.083 -0.4275 -0.5060 -0.0696
  865SOL     OW 2593   1.173   1.291   2.897 -0.3366  0.3832  0.1493
  865SOL    HW1 2594   1.194   1.229   2.817  0.1915 -0.4714 -1.1786
  865SOL    HW2 2595   1.105   1.367   2.876  1.4658 -0.2454  1.5617
  866SOL     OW 2596   2.774   3.000   1.198 -0.3584  0.0230 -0.1995
  866SOL    HW1 2597   2.721   3.039   1.272  0.3383 -0.3141  1.2545
  866SOL    HW2 2598   2.718   2.926   1.154 -0.1795 -3.2933  0.7120
  867SOL     OW 2599   3.074   2.817   0.890  0.4420 -0.0416 -0.0502
  867SOL    HW1 2600   0.036   2.765   0.890 -0.9135  0.5800 -0.8356
  867SOL    HW2 2601   3.054   2.843   0.985  1.1553 -0.8825  0.6106
  868SOL     OW 2602   3.091   1.614   1.575 -0.0476  0.1712 -0.4458
  868SOL    HW1 2603   2.990   1.628   1.548 -1.7330 -0.1704 -0.8966
  868SOL    HW2 2604   3.111   1.659   1.667  1.6015  0.9693  0.5167
  869SOL     OW 2605   1.869   1.980   2.581 -0.2803  0.2505  0.2709
  869SOL    HW1 2606   1.785   2.025   2.606  1.1523  2.3064 -1.0734
  869SOL    HW2 2607   1.951   2.008   2.633  2.6341  3.5561  1.1678
  870SOL     OW 2608   1.431   0.765   0.670  0.6761  0.5481 -0.7538
  870SOL    HW1 2609   1.464   0.861   0.679  1.5363 -1.2483 -1.2644
  870SOL    HW2 2610   1.329   0.755   0.685 -2.2245 -0.1714  0.9030
  871SOL     OW 2611   2.858   1.698   1.960  0.6537 -0.3353  0.6189
  871SOL    HW1 2612   2.817   1.745   1.878 -0.1259  1.9172  0.9709
  871SOL    HW2 2613   2.830   1.751   2.038 -0.6308 -1.8447  0.0471
  872SOL     OW 2614   0.943   1.659   3.016  0.0607  0.1318  0.2176
  872SOL    HW1 2615   0.871   1.729   2.999 -0.8605  3.0570 -0.9791
  872SOL    HW2 2616   0.922   1.611   3.104 -0.7324 -1.2929  5.0416
  873SOL     OW 2617   0.943   1.328   1.796 -0.2415 -0.1173  0.5880
  873SOL    HW1 2618   0.898   1.411   1.758 -1.6907 -0.9251  0.5170
  873SOL    HW2 2619   1.019   1.365   1.855 -0.0492 -0.4025 -0.1323
  874SOL     OW 2620   1.468   0.939   1.039 -0.0338  0.7025 -0.2287
  874SOL    HW1 2621   1.525   0.975   1.113 -1.5886  0.7358 -1.3312
  874SOL    HW2 2622   1.366   0.952   1.055 -0.4131  1.2296  0.6831
  875SOL     OW 2623   2.602   2.998   2.670  0.0726 -0.2112 -0.1574
  875SOL    HW1 2624   2.510   2.985   2.707 -0.1950 -0.6887  0.1705
  875SOL    HW2 2625   2.612   2.958   2.576  2.4175 -0.1214 -0.4264
  876SOL     OW 2626   0.839   1.346   0.564  0.3229 -0.3044  0.0991
  876SOL    HW1 2627   0.789   1.257   0.561 -1.8443 -0.4290  1.0638
  876SOL    HW2 2628   0.921   1.350   0.502  2.0381 -3.0423 -0.5255
  877SOL     OW 2629   1.925   3.002   0.568  0.0471 -0.5844  0.4725
  877SOL    HW1 2630   1.892   3.093   0.606 -0.7680 -0.0382  0.9880
  877SOL    HW2 2631   2.027   3.008   0.545  2.7666 -3.6258 -1.8833
  878SOL     OW 2632   1.893   2.254   0.158 -0.3154  0.1091  0.1656
  878SOL    HW1 2633   1.991   2.283   0.174  1.0177 -1.2310  1.9461
  878SOL    HW2 2634   1.872   2.169   0.213  0.2052 -1.2437 -0.2262
  879SOL     OW 2635   0.622   2.264   1.748  0.1375  0.1275 -0.5955
  879SOL    HW1 2636   0.602   2.226   1.660  1.9160  1.2908  1.9202
  879SOL    HW2 2637   0.609   2.191   1.822 -1.2412  2.3775  2.2091
  880SOL     OW 2638   0.218   1.784   0.864 -0.2606  0.1170  0.4397
  880SOL    HW1 2639   0.275   1.868   0.852  0.4658 -0.6643  2.4331
  880SOL    HW2 2640   0.245   1.712   0.796 -0.0039 -0.4017 -1.8753
  881SOL     OW 2641   1.180   0.125   2.277  0.1028 -0.5747 -0.3353
  881SOL    HW1 2642   1.127   0.164   2.351  2.3577  0.4449 -0.7865
  881SOL    HW2 2643   1.272   0.170   2.271 -0.1698 -0.4213  0.6141
  882SOL     OW 2644   2.650   1.134   0.706  0.3912  0.5127  0.0882
  882SOL    HW1 2645   2.568   1.085   0.664 -0.4307  2.0452 -1.2107
  882SOL    HW2 2646   2.721   1.069   0.748 -0.1025 -1.6412  0.1083
  883SOL     OW 2647   1.434   0.678   2.053 -0.1441 -0.3212 -0.3981
  883SOL    HW1 2648   1.380   0.735   2.122  1.4715  0.5394  0.0745
  883SOL    HW2 2649   1.461   0.736   1.975  1.3413  2.1272  0.4286
  884SOL     OW 2650   0.133   0.175   1.766  0.2087  0.3662  0.0662
  884SOL    HW1 2651   0.098   0.184   1.667 -1.9969 -0.1029  0.1638
  884SOL    HW2 2652   0.207   0.246   1.778  2.6098  0.2149  2.5111
  885SOL     OW 2653   2.270   1.292   2.648  0.2279 -0.0712 -0.3059
  885SOL    HW1 2654   2.333   1.374   2.651  0.6468 -2.3162  0.2798
  885SOL    HW2 2655   2.232   1.288   2.554  0.6692  1.1559 -0.1838
  886SOL     OW 2656   1.932   0.156   2.934 -0.0307  0.2599  0.2550
  886SOL    HW1 2657   1.967   0.202   2.848 -1.6994  0.7374 -1.5108
  886SOL    HW2 2658   1.875   0.216   2.992  0.4046 -0.4534 -0.4477
  887SOL     OW 2659   1.021   3.030   1.580 -0.6602 -0.8618  0.6419
  887SOL    HW1 2660   1.061   2.959   1.634 -0.5506  0.9415 -1.2869
  887SOL    HW2 2661   0.926   3.001   1.558 -0.8324 -0.3127 -0.0627
  888SOL     OW 2662   2.300   1.411   1.810  0.0857  0.2110  0.4452
  888SOL    HW1 2663   2.233   1.412   1.732  3.4743  1.0169 -2.1191
  888SOL    HW2 2664   2.377   1.479   1.788 -0.3653  0.0244 -1.1235
  889SOL     OW 2665   2.009   2.437   1.217  0.0889  0.1116  0.3854
  889SOL    HW1 2666   2.058   2.474   1.137 -1.9511 -0.4912 -1.2689
  889SOL    HW2 2667   1.966   2.353   1.190  3.6198 -0.8074  0.5777
  890SOL     OW 2668   1.087   2.298   0.825 -0.1577  0.8094  0.0121
  890SOL    HW1 2669   1.080   2.195   0.806 -1.7572 -0.2646 -0.1702
  890SOL    HW2 2670   1.062   2.325   0.921 -0.8850 -1.4019  0.3344
  891SOL     OW 2671   3.115   1.216   0.376 -0.0103 -0.0889  0.1770
  891SOL    HW1 2672   3.063   1.193   0.293 -1.0295 -2.3715  1.6969
  891SOL    HW2 2673   3.080   1.170   0.457 -1.2174  1.7763 -0.0809
  892SOL     OW 2674   2.485   1.829   2.806 -0.9264 -0.6314  0.0440
  892SOL    HW1 2675   2.515   1.737   2.775 -1.1400  0.8685  0.3838
  892SOL    HW2 2676   2.497   1.846   2.908  0.6936  0.7666  2.3624
  893SOL     OW 2677   2.330   2.805   1.054 -0.0857  0.1412 -0.2181
  893SOL    HW1 2678   2.303   2.867   0.976 -0.5031  1.9366 -0.4782
  893SOL    HW2 2679   2.401   2.855   1.104 -2.9685 -0.4480 -0.8826
  894SOL     OW 2680   2.844   0.347   0.698  0.8985  0.6171  0.2739
  894SOL    HW1 2681   2.876   0.267   0.646  1.1811 -0.4141  0.6822
  894SOL    HW2 2682   2.761   0.380   0.644  2.0728  2.8257  0.9901
  895SOL     OW 2683   2.388   2.394   2.550 -0.6415  0.2614 -0.0335
  895SOL    HW1 2684   2.479   2.434   2.530  0.5708  0.7095  3.4576
  895SOL    HW2 2685   2.386   2.307   2.607  2.0648 -0.2590 -1.8365
  896SOL     OW 2686   2.108   2.797   2.574  0.3930 -0.1007  0.2703
  896SOL    HW1 2687   2.135   2.704   2.601  0.9153 -1.1361 -1.1592
  896SOL    HW2 2688   2.194   2.849   2.577 -0.3699 -0.4310 -3.1199
  897SOL     OW 2689   0.352   1.422   2.144 -0.0963  0.9062  0.2767
  897SOL    HW1 2690   0.275   1.360   2.177  1.6557 -1.4005 -2.3957
  897SOL    HW2 2691   0.397   1.474   2.219  1.4440  1.7749 -0.1792
  898SOL     OW 2692   0.205   1.748   2.041  0.2636  0.0861 -0.0155
  898SOL    HW1 2693   0.150   1.756   2.127  2.2163 -0.3081 -1.0244
  898SOL    HW2 2694   0.245   1.655   2.039  0.7767  0.7109  2.5561
  899SOL     OW 2695   1.984   0.027   1.386  0.3424  0.1890  0.3642
  899SOL    HW1 2696   1.944   0.100   1.443  1.2886 -0.5707 -2.2265
  899SOL    HW2 2697   1.928   3.075   1.397  0.9445  3.8171 -0.6806
  900SOL     OW 2698   1.394   0.971   0.443  0.1866  0.0009 -0.2085
  900SOL    HW1 2699   1.488   0.955   0.484 -0.6147 -0.2543  1.7480
  900SOL    HW2 2700   1.391   0.979   0.344  1.5804  1.4612  0.6273
  901SOL     OW 2701   1.224   1.086   2.703 -0.5957  0.0022 -0.0604
  901SOL    HW1 2702   1.308   1.029   2.691 -1.3473  1.1417  3.1274
  901SOL    HW2 2703   1.193   1.119   2.609 -0.4875 -0.1114  0.0364
  902SOL     OW 2704   2.876   2.370   0.728 -0.2629 -0.5051  0.5254
  902SOL    HW1 2705   2.862   2.468   0.740  0.7817 -2.3240  1.3523
  902SOL    HW2 2706   2.812   2.314   0.789 -1.6131  1.2804 -0.4375
  903SOL     OW 2707   2.940   1.435   1.934 -0.3125 -0.0606  0.0436
  903SOL    HW1 2708   2.905   1.533   1.932  1.8378  1.3283  0.3548
  903SOL    HW2 2709   2.955   1.409   2.033  0.0671 -2.2958  0.1256
  904SOL     OW 2710   1.653   1.310   0.370  0.1240 -0.0510 -0.5943
  904SOL    HW1 2711   1.616   1.403   0.374  2.7880 -1.8563  0.3353
  904SOL    HW2 2712   1.659   1.270   0.463 -0.1579 -0.6619 -1.7750
  905SOL     OW 2713   2.347   2.534   1.425  0.2060 -0.1100  0.2354
  905SOL    HW1 2714   2.298   2.625   1.415 -0.0258 -0.2283  0.2458
  905SOL    HW2 2715   2.441   2.547   1.466 -1.3832 -0.3798  0.0620
  906SOL     OW 2716   1.494   2.452   3.119 -0.3083 -0.1915 -0.2243
  906SOL    HW1 2717   1.580   2.445   0.046 -2.0743  5.0077 -1.3858
  906SOL    HW2 2718   1.501   2.479   3.022  1.0811 -1.7303  0.3051
  907SOL     OW 2719   0.395   2.885   0.665 -0.4978 -0.1785 -0.3285
  907SOL    HW1 2720   0.357   2.924   0.577  0.5152 -4.1979 -0.6351
  907SOL    HW2 2721   0.478   2.942   0.682 -1.7058  2.6345 -0.9158
  908SOL     OW 2722   0.528   0.237   1.989  0.4336  0.2016 -0.1185
  908SOL    HW1 2723   0.567   0.150   2.032 -0.2812 -0.0667  3.9399
  908SOL    HW2 2724   0.602   0.302   1.965  1.8043  0.6240  2.6091
  909SOL     OW 2725   1.969   0.575   1.464  0.2104  0.0340  0.0456
  909SOL    HW1 2726   1.921   0.518   1.394  0.6300 -3.0892  1.4728
  909SOL    HW2 2727   2.063   0.590   1.433 -0.0514  0.1096  0.9424
  910SOL     OW 2728   1.187   0.817   0.356 -0.4913 -0.3226  0.2640
  910SOL    HW1 2729   1.093   0.853   0.368  0.7079 -0.9506 -1.2184
  910SOL    HW2 2730   1.258   0.881   0.398  0.9893  1.1121  1.4261
  911SOL     OW 2731   0.187   0.285   2.850  0.3109 -0.1607 -0.0120
  911SOL    HW1 2732   0.119   0.293   2.925 -0.2632 -0.0258  2.7701
  911SOL    HW2 2733   0.142   0.289   2.761  0.5379  2.6984  1.0007
  912SOL     OW 2734   2.811   2.433   2.819 -0.4733 -0.6424  0.4602
  912SOL    HW1 2735   2.824   2.529   2.793  1.3867 -0.9525 -0.2499
  912SOL    HW2 2736   2.837   2.420   2.918 -0.7056 -0.5935  3.5539
  913SOL     OW 2737   2.504   2.368   3.043  0.1463  0.2738  0.2016
  913SOL    HW1 2738   2.565   2.319   3.106 -2.0956 -0.7714 -1.5255
  913SOL    HW2 2739   2.518   2.469   3.051 -1.5711  0.8233 -1.6976
  914SOL     OW 2740   1.843   1.570   1.818 -0.5561  0.2418  0.1247
  914SOL    HW1 2741   1.850   1.530   1.910  1.6789 -0.8290  0.7222
  914SOL    HW2 2742   1.782   1.650   1.824 -0.4135  0.7121  1.1487
  915SOL     OW 2743   0.161   2.384   2.432 -0.0290  0.1277 -0.2537
  915SOL    HW1 2744   0.188   2.453   2.502 -1.3659 -0.1944 -1.5786
  915SOL    HW2 2745   0.074   2.333   2.463 -1.8404  1.8252 -0.2974
  916SOL     OW 2746   3.087   0.975   1.731  0.0836  0.0520  0.0404
  916SOL    HW1 2747   3.085   1.073   1.767  0.2513  0.0441 -0.9320
  916SOL    HW2 2748   0.056   0.943   1.730 -0.0778 -1.1257  1.5605
  917SOL     OW 2749   2.087   3.123   3.118 -0.1879  0.3286 -0.0098
  917SOL    HW1 2750   2.023   3.117   0.065 -0.5992  0.1973  0.1508
  917SOL    HW2 2751   2.045   0.062   3.056  0.4824  0.3581  2.5022
  918SOL     OW 2752   1.762   2.520   2.211 -0.7853 -0.3152  0.2052
  918SOL    HW1 2753   1.860   2.510   2.229  0.9156  2.5647 -1.8882
  918SOL    HW2 2754   1.744   2.620   2.215  0.9751 -1.2730  3.1477
  919SOL     OW 2755   2.093   2.311   1.894 -0.7765  0.1802  0.1233
  919SOL    HW1 2756   2.095   2.344   1.798  0.0318 -0.9492 -0.7456
  919SOL    HW2 2757   2.057   2.216   1.898  0.0776  2.0586  2.0062
  920SOL     OW 2758   0.217   0.829   0.100 -0.4379  0.2990  0.7183
  920SOL    HW1 2759   0.316   0.797   0.084  2.2067 -2.9169  0.5725
  920SOL    HW2 2760   0.150   0.770   0.047  0.0628  4.2541  0.0610
  921SOL     OW 2761   2.846   1.194   2.735 -0.5181  0.5574  0.3236
  921SOL    HW1 2762   2.779   1.198   2.808  0.3879 -0.0295 -1.4278
  921SOL    HW2 2763   2.806   1.216   2.644 -1.9455 -2.6925  0.0012
  922SOL     OW 2764   0.420   1.936   0.186  0.0850 -0.2817  0.4527
  922SOL    HW1 2765   0.349   1.946   0.113  0.1493 -1.5311 -0.4024
  922SOL    HW2 2766   0.417   1.846   0.225  0.8983  1.2468 -0.5359
  923SOL     OW 2767   0.489   1.030   2.147  0.0145  0.2787 -0.1686
  923SOL    HW1 2768   0.422   0.952   2.143 -2.0060 -1.5964  0.7287
  923SOL    HW2 2769   0.573   1.005   2.199 -1.7638  2.6089 -2.6503
  924SOL     OW 2770   0.824   2.840   2.676  0.2891 -0.3764  0.0811
  924SOL    HW1 2771   0.773   2.920   2.639 -2.1658  1.2222 -1.7602
  924SOL    HW2 2772   0.886   2.874   2.749  0.1443  0.0288  0.3470
  925SOL     OW 2773   1.607   1.394   0.785  0.0260 -0.3496  0.5348
  925SOL    HW1 2774   1.522   1.396   0.835 -1.6928  1.0304 -0.8009
  925SOL    HW2 2775   1.614   1.306   0.728  1.8391 -0.7627  1.3397
  926SOL     OW 2776   1.679   0.671   2.155 -0.0246 -0.1011 -0.5606
  926SOL    HW1 2777   1.591   0.668   2.103  1.4426  0.4898 -1.8117
  926SOL    HW2 2778   1.671   0.695   2.249 -0.0783  1.1168 -3.8681
  927SOL     OW 2779   2.832   2.455   1.820  0.1024 -0.1786  0.2638
  927SOL    HW1 2780   2.798   2.389   1.891 -0.1771 -1.9115 -0.0666
  927SOL    HW2 2781   2.758   2.520   1.806 -0.9828  1.3290 -3.0349
  928SOL     OW 2782   0.253   0.974   2.810 -0.2799  0.3086  0.2560
  928SOL    HW1 2783   0.265   1.050   2.871  0.4993  0.5437 -1.2995
  928SOL    HW2 2784   0.341   0.965   2.757  1.2840  1.1460  2.9118
  929SOL     OW 2785   2.883   0.048   0.696 -0.4120  0.1774 -0.5093
  929SOL    HW1 2786   2.833   0.061   0.781  2.4869 -1.7366 -1.6954
  929SOL    HW2 2787   2.833   3.120   0.626 -1.8030 -1.1091 -2.5859
  930SOL     OW 2788   2.432   0.248   1.879 -0.1180 -0.2338  0.2221
  930SOL    HW1 2789   2.365   0.171   1.859 -1.3873 -2.5497 -0.0218
  930SOL    HW2 2790   2.429   0.328   1.817 -1.1424  0.0808  0.9748
  931SOL     OW 2791   2.199   1.033   3.104  0.3861 -0.1909  0.6963
  931SOL    HW1 2792   2.280   0.977   3.087 -1.8435  1.9936  2.4305
  931SOL    HW2 2793   2.177   1.090   3.023 -2.4076 -1.2718  0.0141
  932SOL     OW 2794   2.415   1.653   1.708  0.2277 -0.0598 -0.2756
  932SOL    HW1 2795   2.333   1.709   1.708  1.4202  0.6444 -1.0373
  932SOL    HW2 2796   2.422   1.602   1.621  0.0410  1.9743  0.3558
  933SOL     OW 2797   0.110   2.663   1.431 -0.2830 -0.4209  0.2228
  933SOL    HW1 2798   0.140   2.590   1.492 -1.2791 -1.3365  1.0660
  933SOL    HW2 2799   0.112   2.746   1.493  1.2113 -0.5311 -1.4065
  934SOL     OW 2800   0.803   2.697   1.109 -0.8478 -0.3969 -0.3182
  934SOL    HW1 2801   0.857   2.787   1.121  0.3624  1.4392 -1.5025
  934SOL    HW2 2802   0.844   2.642   1.037 -0.5670 -1.5948  0.2416
  935SOL     OW 2803   2.419   1.253   2.205 -0.1973  0.2001 -0.4593
  935SOL    HW1 2804   2.503   1.287   2.153  1.7699 -1.0359  0.9080
  935SOL    HW2 2805   2.412   1.152   2.198  1.5037 -0.7295 -0.9692
  936SOL     OW 2806   2.287   1.154   1.873 -0.4935  0.1452 -0.5582
  936SOL    HW1 2807   2.302   1.252   1.849  0.9739 -0.7277  0.6322
  936SOL    HW2 2808   2.370   1.098   1.856  0.1644 -0.1621 -1.9773
  937SOL     OW 2809   2.114   0.942   2.175 -0.2382  0.0018 -0.6879
  937SOL    HW1 2810   2.045   1.000   2.225 -1.4148  2.4586 -0.7613
  937SOL    HW2 2811   2.149   0.863   2.231  0.9315 -3.6909  3.1623
  938SOL     OW 2812   0.787   2.564   3.066  0.1885  0.0184 -0.6080
  938SOL    HW1 2813   0.808   2.493   0.012 -1.7553 -2.2874  2.1279
  938SOL    HW2 2814   0.859   2.639   3.059 -0.2331  0.3715  0.2756
  939SOL     OW 2815   2.819   0.835   0.050 -0.8127 -0.3742 -0.1048
  939SOL    HW1 2816   2.904   0.887   0.075 -0.5124  1.4750 -1.0517
  939SOL    HW2 2817   2.775   0.783   0.125 -0.7939  2.0637 -1.1156
  940SOL     OW 2818   1.073   2.096   1.106 -0.2009 -0.0677  0.3519
  940SOL    HW1 2819   0.972   2.091   1.086 -2.2659  0.8288 -0.3916
  940SOL    HW2 2820   1.127   2.018   1.069 -1.5276  1.5854  3.7018
  941SOL     OW 2821   0.918   2.096   1.971 -0.2221 -0.0549  0.2752
  941SOL    HW1 2822   0.912   2.197   1.936  1.3750  2.5881  2.1755
  941SOL    HW2 2823   0.867   2.028   1.912  1.1772 -0.5943  2.8827
  942SOL     OW 2824   0.351   1.953   2.919 -0.3008 -0.3747 -0.1761
  942SOL    HW1 2825   0.297   1.963   2.832 -0.6442  2.1881 -1.1767
  942SOL    HW2 2826   0.429   1.886   2.906  0.6502 -0.7927 -0.8020
  943SOL     OW 2827   1.825   2.907   1.741  0.3793  0.3549 -0.0223
  943SOL    HW1 2828   1.846   2.841   1.817 -0.6361 -1.7957  1.1188
  943SOL    HW2 2829   1.895   2.893   1.669  3.7408  0.0302  1.6757
  944SOL     OW 2830   1.090   1.934   0.080  0.1800  0.4676 -0.0479
  944SOL    HW1 2831   1.170   1.938   0.013  3.7556 -1.3895  2.0499
  944SOL    HW2 2832   1.014   1.892   0.034  0.0696  3.0166 -0.1606
  945SOL     OW 2833   2.664   2.567   0.920 -0.2731 -0.0622 -0.1235
  945SOL    HW1 2834   2.734   2.587   0.851 -0.9339 -0.6218  4.1491
  945SOL    HW2 2835   2.576   2.536   0.879  1.1036 -1.4958  1.5979
  946SOL     OW 2836   0.997   1.488   2.799 -0.2289  0.1098  0.4385
  946SOL    HW1 2837   0.994   1.523   2.704  1.8651 -1.4644  0.3891
  946SOL    HW2 2838   0.970   1.559   2.866 -0.2499  0.0609  1.1771
  947SOL     OW 2839   3.081   0.692   2.069  0.3055 -0.0722  0.4493
  947SOL    HW1 2840   0.011   0.780   2.063  2.0017  2.4966 -1.0383
  947SOL    HW2 2841   0.014   0.610   2.077  0.8607  0.3586 -1.2075
  948SOL     OW 2842   0.154   1.335   0.803  0.1184 -0.0362 -0.1727
  948SOL    HW1 2843   0.184   1.417   0.756 -1.2966 -1.4263  1.2558
  948SOL    HW2 2844   0.198   1.319   0.892 -2.4417  0.9508 -2.4247
  949SOL     OW 2845   0.718   0.926   2.265 -0.5527  0.2717  0.0112
  949SOL    HW1 2846   0.725   0.861   2.345  0.5744 -0.5874  1.6501
  949SOL    HW2 2847   0.809   0.965   2.244 -1.2874  2.3754 -0.4015
  950SOL     OW 2848   0.319   0.537   1.505  0.1566 -0.8806 -0.4771
  950SOL    HW1 2849   0.399   0.482   1.535 -0.2280  1.5165 -1.0364
  950SOL    HW2 2850   0.250   0.560   1.577 -1.0061 -1.2890 -2.1303
  951SOL     OW 2851   0.777   1.305   2.787  0.2177  0.6752 -0.7974
  951SOL    HW1 2852   0.855   1.373   2.797 -0.1536 -0.8211  0.8339
  951SOL    HW2 2853   0.806   1.227   2.726 -1.9496  1.2956  1.6787
  952SOL     OW 2854   1.912   2.044   0.809 -0.1416  0.0415  0.1672
  952SOL    HW1 2855   1.948   1.969   0.748 -0.8693 -0.5277  3.7558
  952SOL    HW2 2856   1.966   2.132   0.789 -0.2382  1.3470  0.2339
  953SOL     OW 2857   0.600   0.459   0.245  0.0157 -0.2061 -0.1114
  953SOL    HW1 2858   0.622   0.483   0.341 -0.3537  0.0889  1.0480
  953SOL    HW2 2859   0.514   0.503   0.206 -2.6987 -2.5230 -2.0985
  954SOL     OW 2860   2.564   0.545   0.904 -0.0463 -0.4018  0.3663
  954SOL    HW1 2861   2.635   0.557   0.972 -0.6747  0.0396  0.4722
  954SOL    HW2 2862   2.473   0.567   0.940  1.6800  2.4304 -1.0993
  955SOL     OW 2863   1.912   1.267   0.249  0.0214  0.2477 -0.9067
  955SOL    HW1 2864   1.909   1.193   0.177 -0.0300 -1.0790 -1.5828
  955SOL    HW2 2865   1.824   1.280   0.296 -0.2976 -2.2988  1.0837
  956SOL     OW 2866   1.199   0.580   2.235 -0.1662 -0.1768  0.7840
  956SOL    HW1 2867   1.224   0.676   2.212 -1.5709  0.5409  1.3527
  956SOL    HW2 2868   1.249   0.548   2.321  0.9276  0.3782  4.6288
  957SOL     OW 2869   1.433   0.346   1.741  0.7235 -0.4665  0.6958
  957SOL    HW1 2870   1.340   0.338   1.787 -1.7427  0.2695 -0.4377
  957SOL    HW2 2871   1.483   0.264   1.767  0.1682 -1.4528  0.9906
  958SOL     OW 2872   0.260   2.030   0.429  0.0317 -0.0728  0.4144
  958SOL    HW1 2873   0.283   2.111   0.372  0.4553  0.6710 -0.8449
  958SOL    HW2 2874   0.332   1.996   0.491 -2.7303  1.9011 -3.1095
  959SOL     OW 2875   2.087   0.858   1.726  0.3373  0.4206  0.0319
  959SOL    HW1 2876   2.064   0.951   1.759 -0.9631 -0.9138 -1.2747
  959SOL    HW2 2877   2.011   0.789   1.727 -1.8711  0.5572 -1.4517
  960SOL     OW 2878   0.165   1.714   0.041 -0.3437  0.2685 -0.2251
  960SOL    HW1 2879   0.252   1.695   3.118 -1.5741  0.0128  2.8541
  960SOL    HW2 2880   0.122   1.621   0.051 -0.4023 -2.3779 -1.1560
  961SOL     OW 2881   0.652   2.078   1.157  0.2916  0.3768  0.1319
  961SOL    HW1 2882   0.723   2.100   1.226 -0.2342 -0.8034 -0.1000
  961SOL    HW2 2883   0.581   2.015   1.190  0.3159  1.6046 -0.6983
  962SOL     OW 2884   0.341   1.366   1.019 -0.5598 -0.3832  0.0248
  962SOL    HW1 2885   0.316   1.289   1.078  1.3921 -0.6136  0.7986
  962SOL    HW2 2886   0.318   1.457   1.060  0.4591  1.6711 -1.3467
  963SOL     OW 2887   1.672   1.722   2.415 -0.0536 -0.5552  0.1731
  963SOL    HW1 2888   1.708   1.686   2.500 -0.7746  2.8857  1.1078
  963SOL    HW2 2889   1.722   1.814   2.401  0.4150  2.4264 -1.8482
  964SOL     OW 2890   3.100   3.027   2.123 -0.1610 -0.3458 -0.0734
  964SOL    HW1 2891   3.085   2.932   2.148  0.9197  2.2277 -1.2621
  964SOL    HW2 2892   0.074   3.037   2.098  2.6091  0.1270  0.0071
  965SOL     OW 2893   3.074   2.372   2.743  0.3681 -0.2559  0.0923
  965SOL    HW1 2894   2.977   2.393   2.768 -0.2472  1.4034  2.3413
  965SOL    HW2 2895   3.084   2.292   2.676 -1.6323  0.2837  1.2254
  966SOL     OW 2896   2.886   1.647   3.074 -0.3210 -0.1274  0.3840
  966SOL    HW1 2897   2.862   1.598   2.988 -0.4627 -0.8890 -0.6706
  966SOL    HW2 2898   2.890   1.573   0.015 -0.8150  0.6116 -0.3529
  967SOL     OW 2899   1.927   0.010   0.227 -0.5453  0.5128 -0.3093
  967SOL    HW1 2900   1.950   3.049   0.271  0.4938 -1.4541 -1.7061
  967SOL    HW2 2901   1.827   0.012   0.206 -0.2714 -1.6338  1.2888
  968SOL     OW 2902   2.542   0.078   0.414 -0.2975  0.2276  0.2067
  968SOL    HW1 2903   2.591   0.017   0.475 -0.1644 -0.3534 -3.6160
  968SOL    HW2 2904   2.443   0.083   0.433  3.1560  0.4766 -0.3395
  969SOL     OW 2905   0.225   0.912   1.741 -0.1044  0.4305 -0.2992
  969SOL    HW1 2906   0.295   0.989   1.744  0.8662  4.7276 -0.7213
  969SOL    HW2 2907   0.220   0.872   1.651 -0.4507  1.3619 -0.1577
  970SOL     OW 2908   1.561   1.715   0.125  0.1083  0.1628 -0.0670
  970SOL    HW1 2909   1.566   1.702   0.227  3.0551  3.0309  0.7280
  970SOL    HW2 2910   1.559   1.812   0.102  1.4961 -1.3328  1.1985
  971SOL     OW 2911   2.425   2.926   1.623 -0.0531 -0.1109 -0.0055
  971SOL    HW1 2912   2.472   2.841   1.664  0.6109 -3.0307 -0.5201
  971SOL    HW2 2913   2.396   2.990   1.698 -0.7944 -2.0235 -0.9513
  972SOL     OW 2914   2.938   0.181   1.162 -0.1831  0.2605  0.5213
  972SOL    HW1 2915   3.019   0.119   1.167  0.2220 -0.3363 -0.3696
  972SOL    HW2 2916   2.951   0.255   1.084 -1.5411  1.3228 -2.7113
  973SOL     OW 2917   0.574   0.766   2.683 -0.5158 -0.7622  0.0376
  973SOL    HW1 2918   0.666   0.752   2.646  1.7853 -1.2796  0.5588
  973SOL    HW2 2919   0.524   0.679   2.695 -1.1991 -0.8615  0.8036
  974SOL     OW 2920   2.643   1.358   2.073  0.6652 -0.0751 -0.5362
  974SOL    HW1 2921   2.706   1.440   2.057  0.4300  1.6080 -2.0123
  974SOL    HW2 2922   2.684   1.271   2.039  0.0070  0.6941  0.2361
  975SOL     OW 2923   1.191   0.273   1.884 -0.0890  0.0444  0.4113
  975SOL    HW1 2924   1.158   0.253   1.792 -0.6105  0.0337 -1.8851
  975SOL    HW2 2925   1.161   0.196   1.948  1.1161 -2.9307  0.9619
  976SOL     OW 2926   1.634   1.499   1.420 -0.3349 -0.0881 -0.4779
  976SOL    HW1 2927   1.657   1.444   1.502  1.1800 -0.7505 -1.1015
  976SOL    HW2 2928   1.643   1.432   1.339 -1.0531  1.1101 -2.4165
  977SOL     OW 2929   0.499   3.083   0.149 -0.7003  0.0111 -0.0783
  977SOL    HW1 2930   0.537   0.041   0.191 -0.4625  1.5853 -1.6438
  977SOL    HW2 2931   0.575   3.024   0.112  2.2600 -0.2642 -1.5559
  978SOL     OW 2932   2.379   0.991   2.152 -0.5441 -0.9617 -0.1108
  978SOL    HW1 2933   2.427   0.986   2.061 -1.3736  0.1501  0.0025
  978SOL    HW2 2934   2.280   1.011   2.136  0.4550  2.2900 -0.9982
  979SOL     OW 2935   1.399   0.841   1.852  0.1155  1.1423  0.1815
  979SOL    HW1 2936   1.342   0.917   1.889  0.5753 -1.2349 -1.5423
  979SOL    HW2 2937   1.471   0.875   1.790  2.1477 -0.7147  0.7920
  980SOL     OW 2938   1.984   1.550   2.481  0.0657  0.1437  0.0919
  980SOL    HW1 2939   2.004   1.502   2.393 -1.2344  0.0137  2.8101
  980SOL    HW2 2940   1.953   1.477   2.549 -2.1257 -0.3093  2.4912
  981SOL     OW 2941   1.669   0.401   1.647 -0.3825 -0.5137 -0.6011
  981SOL    HW1 2942   1.578   0.372   1.683  0.5445 -0.2237 -0.7786
  981SOL    HW2 2943   1.657   0.450   1.558  3.1019 -0.5842  1.0067
  982SOL     OW 2944   0.792   0.586   0.101  0.5037 -0.2990 -0.1816
  982SOL    HW1 2945   0.742   0.517   0.164  0.7154  1.0725 -0.9100
  982SOL    HW2 2946   0.757   0.577   0.007  1.6803  1.5637  0.4102
  983SOL     OW 2947   2.434   0.766   0.201  0.0148  0.0876  0.1866
  983SOL    HW1 2948   2.426   0.837   0.274  1.6040 -2.7420 -2.6466
  983SOL    HW2 2949   2.522   0.717   0.210 -0.1967  2.1731  0.3565
  984SOL     OW 2950   0.828   0.457   2.705 -0.3884 -0.0410  0.1830
  984SOL    HW1 2951   0.861   0.429   2.798 -1.3830 -0.0352  2.8429
  984SOL    HW2 2952   0.902   0.509   2.654  0.9361  0.1959 -0.8476
  985SOL     OW 2953   1.746   1.834   1.846  0.1091  0.1300 -0.8754
  985SOL    HW1 2954   1.756   1.908   1.774 -0.0048  1.5070 -3.2838
  985SOL    HW2 2955   1.754   1.861   1.942  2.6307 -0.4181  2.2234
  986SOL     OW 2956   2.449   2.566   1.928  0.2215 -0.0572  0.4322
  986SOL    HW1 2957   2.531   2.618   1.897  0.3976  1.5328 -1.5007
  986SOL    HW2 2958   2.406   2.602   2.014 -2.3099  1.1627 -0.6747
  987SOL     OW 2959   1.799   1.349   0.968 -0.0989 -0.4156 -0.0465
  987SOL    HW1 2960   1.868   1.304   0.911 -1.4904 -0.3826 -0.5978
  987SOL    HW2 2961   1.714   1.366   0.913 -0.4439  0.9768 -1.0853
  988SOL     OW 2962   2.773   1.874   2.172 -0.1644 -0.3185 -0.0066
  988SOL    HW1 2963   2.813   1.888   2.265  2.0292 -0.2710 -0.7276
  988SOL    HW2 2964   2.670   1.875   2.179 -1.5066  1.9304 -0.2584
  989SOL     OW 2965   1.162   2.283   0.251 -0.7079 -0.5677  0.3481
  989SOL    HW1 2966   1.132   2.381   0.257  2.2173 -0.0361  2.3532
  989SOL    HW2 2967   1.109   2.225   0.317  1.2193  0.1260  2.0685
  990SOL     OW 2968   2.027   0.569   2.749  0.1306 -0.1563  0.5765
  990SOL    HW1 2969   2.104   0.641   2.751  0.3822  1.0511  0.0513
  990SOL    HW2 2970   2.075   0.481   2.739 -0.7615 -2.1805  0.9357
  991SOL     OW 2971   1.151   0.396   0.869  0.3601  0.0200 -0.1417
  991SOL    HW1 2972   1.072   0.366   0.815 -0.7976  2.2412 -0.1787
  991SOL    HW2 2973   1.153   0.346   0.961  0.3657  0.2241  2.7621
  992SOL     OW 2974   2.868   0.865   1.160  0.0078 -0.0540 -0.1172
  992SOL    HW1 2975   2.792   0.923   1.131  2.8443 -2.2659  0.2827
  992SOL    HW2 2976   2.831   0.774   1.143 -0.6189 -1.5072 -2.3241
  993SOL     OW 2977   2.311   0.710   1.782 -0.2908  0.2656  0.4064
  993SOL    HW1 2978   2.220   0.752   1.794 -1.3911 -0.3110  1.5822
  993SOL    HW2 2979   2.377   0.781   1.759 -0.7981 -2.7060 -0.1220
  994SOL     OW 2980   1.023   1.603   2.539 -0.2027 -0.6992  0.3235
  994SOL    HW1 2981   1.022   1.534   2.463  1.0444  1.7919 -0.5810
  994SOL    HW2 2982   1.087   1.683   2.527  0.2203  0.3548  1.3033
  995SOL     OW 2983   2.160   1.199   2.880  0.2490 -0.5333  0.3822
  995SOL    HW1 2984   2.194   1.228   2.789 -0.4183  0.1231  0.9451
  995SOL    HW2 2985   2.128   1.278   2.937  0.7173 -3.2440  2.0773
  996SOL     OW 2986   2.223   1.882   0.621 -0.1392  0.6314 -0.2387
  996SOL    HW1 2987   2.126   1.852   0.621  0.7191  2.0267  1.4035
  996SOL    HW2 2988   2.291   1.809   0.652  0.8099  0.9716  1.4352
  997SOL     OW 2989   2.058   0.450   1.858  0.6147 -0.6173 -0.1216
  997SOL    HW1 2990   2.135   0.435   1.917  0.0448 -2.4619  2.0524
  997SOL    HW2 2991   2.076   0.398   1.772 -0.7922 -0.6650 -2.1974
  998SOL     OW 2992   2.436   0.982   0.615 -0.1721 -0.9242  0.0985
  998SOL    HW1 2993   2.397   0.977   0.710 -1.4519  1.5007 -0.4952
  998SOL    HW2 2994   2.464   0.889   0.577  0.3867  2.7119 -0.9670
  999SOL     OW 2995   2.691   1.472   0.318  0.4884  0.1138 -0.3322
  999SOL    HW1 2996   2.701   1.433   0.411  0.9998  0.6142  2.3417
  999SOL    HW2 2997   2.781   1.484   0.268  0.4647 -0.3015  1.1839
 1000SOL     OW 2998   0.817   0.849   1.911 -0.1727 -0.7283 -0.0725
 1000SOL    HW1 2999   0.914   0.819   1.887  1.0627 -0.2144 -0.1417
 1000SOL    HW2 3000   0.743   0.799   1.867  3.3063  0.5748 -1.1164
   3.12866   3.12866   3.12866
