1000 SPC/Fw water molecules t= 468.00000 step= 468000
 3000
    1SOL     OW    1   2.744   2.815   1.736  0.4685  0.3899 -0.0269
    1SOL    HW1    2   2.741   2.846   1.637 -1.1562  1.6739 -0.9235
    1SOL    HW2    3   2.689   2.880   1.795  0.5184 -2.0719  0.1008
    2SOL     OW    4   2.708   2.934   2.968  0.3765  0.6137 -0.2042
    2SOL    HW1    5   2.712   2.974   3.064 -0.4142 -1.4846  0.9883
    2SOL    HW2    6   2.792   2.873   2.958  1.1091  0.4871 -0.0027
    3SOL     OW    7   1.257   2.491   0.114  0.4555  0.0968 -0.1225
    3SOL    HW1    8   1.258   2.394   0.076 -0.2639 -2.7750 -2.0536
    3SOL    HW2    9   1.263   2.494   0.216  1.4671  1.9310  0.8308
    4SOL     OW   10   1.355   2.711   2.422 -0.0885  0.2430  0.4634
    4SOL    HW1   11   1.423   2.752   2.357  1.1928  1.2251 -0.6437
    4SOL    HW2   12   1.384   2.738   2.517  1.0774  1.8153 -0.3817
    5SOL     OW   13   2.095   0.271   2.272 -0.0577 -0.0755 -0.3928
    5SOL    HW1   14   2.077   0.176   2.301  0.7205  2.1628  0.8637
    5SOL    HW2   15   2.031   0.303   2.204  0.6389 -1.0124  3.3362
    6SOL     OW   16   3.058   1.643   1.120 -0.3984  0.1694  0.1604
    6SOL    HW1   17   0.000   1.713   1.052  0.5670 -0.1256  0.9044
    6SOL    HW2   18   2.965   1.661   1.161 -4.6440 -1.4554 -0.9136
    7SOL     OW   19   1.151   2.041   0.577  0.2831  0.4720 -0.8597
    7SOL    HW1   20   1.099   2.014   0.661 -2.7466  0.6227  0.4080
    7SOL    HW2   21   1.231   1.978   0.551 -0.5077  0.6722 -1.3083
    8SOL     OW   22   0.304   0.710   0.442 -0.1800 -0.7778  0.3182
    8SOL    HW1   23   0.399   0.694   0.415  0.1324 -3.2683  2.7010
    8SOL    HW2   24   0.246   0.723   0.360  2.2931  0.2116  3.1037
    9SOL     OW   25   0.181   2.901   1.588 -0.6880  0.3178 -0.0906
    9SOL    HW1   26   0.230   2.908   1.497  2.8844  1.2310 -3.4806
    9SOL    HW2   27   0.141   2.808   1.611  1.3176 -2.7982 -0.8250
   10SOL     OW   28   1.013   2.266   0.521  0.1505 -0.2891 -0.0922
   10SOL    HW1   29   1.077   2.186   0.536  0.5327 -0.0051  1.7005
   10SOL    HW2   30   1.055   2.353   0.552 -0.3559 -0.2728 -1.0254
   11SOL     OW   31   2.051   0.693   1.405  0.7840 -0.2100 -0.3303
   11SOL    HW1   32   2.129   0.633   1.434 -0.0377  1.1857 -1.4609
   11SOL    HW2   33   2.004   0.744   1.483  0.2224  1.2444  1.3841
   12SOL     OW   34   0.229   0.728   2.255 -0.0148 -0.3011 -0.1406
   12SOL    HW1   35   0.222   0.830   2.236 -0.0130  1.8693  0.3877
   12SOL    HW2   36   0.297   0.701   2.322 -2.3742  1.0878 -1.8598
   13SOL     OW   37   1.908   3.017   0.495  0.0219 -0.1937 -0.0738
   13SOL    HW1   38   1.986   3.046   0.560  0.6326  0.3329  1.1053
   13SOL    HW2   39   1.907   3.071   0.407 -0.7102  0.0381  1.0639
   14SOL     OW   40   2.018   2.011   0.203 -0.2419 -0.4470 -0.0297
   14SOL    HW1   41   2.110   2.055   0.190 -2.0781  0.3714 -0.5155
   14SOL    HW2   42   2.007   1.956   0.289  0.9174 -2.9579 -2.5193
   15SOL     OW   43   3.010   0.012   2.983 -0.0758  0.3454  0.7232
   15SOL    HW1   44   2.937   3.070   3.048  0.8605 -1.1820 -2.4658
   15SOL    HW2   45   0.012   3.061   3.013  0.0058 -0.7923 -1.2237
   16SOL     OW   46   2.871   0.611   1.080  0.4300  0.0337  0.5607
   16SOL    HW1   47   2.934   0.558   1.025  0.4946  3.5023  3.2467
   16SOL    HW2   48   2.813   0.553   1.140 -2.0978  0.0017 -1.8107
   17SOL     OW   49   0.574   0.339   1.004 -0.3347  0.2347 -0.2352
   17SOL    HW1   50   0.560   0.235   1.013  0.1985 -1.2457 -0.2098
   17SOL    HW2   51   0.501   0.391   1.048  2.9013 -0.6916 -1.9546
   18SOL     OW   52   2.867   0.248   0.713 -0.2274 -0.4316  0.3576
   18SOL    HW1   53   2.786   0.314   0.718  2.5352  2.0410 -0.8156
   18SOL    HW2   54   2.920   0.264   0.631 -0.0866 -3.0115  1.9986
   19SOL     OW   55   1.797   1.276   1.263 -0.4049 -0.2518 -0.2605
   19SOL    HW1   56   1.758   1.296   1.170 -0.0795  0.6401  2.0967
   19SOL    HW2   57   1.825   1.368   1.303 -0.8217  2.7003 -1.3839
   20SOL     OW   58   2.347   1.881   2.240  0.2082  0.7522  0.0197
   20SOL    HW1   59   2.416   1.916   2.180  0.1146 -2.5412  1.6048
   20SOL    HW2   60   2.389   1.870   2.332  0.8086 -0.3058  0.4754
   21SOL     OW   61   1.451   2.825   0.408  0.5491 -0.2883 -0.3757
   21SOL    HW1   62   1.498   2.735   0.394  1.8881  0.5876 -1.6844
   21SOL    HW2   63   1.371   2.838   0.342 -0.7107 -0.3443 -0.5683
   22SOL     OW   64   2.433   0.880   0.162  0.1737  0.2535  0.2843
   22SOL    HW1   65   2.471   0.976   0.178  0.2046  0.8959  0.4230
   22SOL    HW2   66   2.467   0.812   0.231  0.6638 -1.6484 -1.9748
   23SOL     OW   67   0.962   0.684   1.952 -0.2665  0.2462  0.2262
   23SOL    HW1   68   0.945   0.587   1.941 -1.4416  4.5131 -0.2620
   23SOL    HW2   69   1.046   0.708   2.001  0.5864 -0.9912  0.6558
   24SOL     OW   70   2.005   2.139   0.814  0.0117  0.2922 -0.4264
   24SOL    HW1   71   2.089   2.172   0.864  0.4118 -0.3238  3.4622
   24SOL    HW2   72   1.948   2.215   0.778 -0.2932  0.8536 -0.9377
   25SOL     OW   73   1.535   3.017   2.997 -0.4795 -0.2389  0.0317
   25SOL    HW1   74   1.567   3.060   2.915  0.1697  0.2136  2.1383
   25SOL    HW2   75   1.608   2.949   3.023 -1.1802  0.8763  0.3566
   26SOL     OW   76   1.165   2.904   2.618  0.3805  0.5957 -0.1232
   26SOL    HW1   77   1.260   2.872   2.590  1.6071 -0.3525 -0.6754
   26SOL    HW2   78   1.112   2.831   2.663  1.2858 -0.7399 -1.9543
   27SOL     OW   79   1.091   0.437   1.058 -0.0903  0.3213 -0.5717
   27SOL    HW1   80   1.075   0.410   0.959 -2.2256 -2.1295 -2.2212
   27SOL    HW2   81   1.013   0.418   1.122 -2.1870 -0.2958 -1.0718
   28SOL     OW   82   0.335   1.996   0.896 -0.1785  0.2562 -0.2913
   28SOL    HW1   83   0.404   2.041   0.835 -1.2383 -2.1091 -0.9902
   28SOL    HW2   84   0.342   2.042   0.986 -2.3578 -1.0009  2.9190
   29SOL     OW   85   2.291   1.225   1.195  0.2932  0.8650 -0.4425
   29SOL    HW1   86   2.281   1.300   1.261 -1.1371  1.0129  0.9973
   29SOL    HW2   87   2.329   1.146   1.248  0.4998 -0.3243  2.4818
   30SOL     OW   88   1.814   2.956   1.376 -0.0938 -0.4230 -0.1118
   30SOL    HW1   89   1.881   2.909   1.313 -0.7254  1.4553 -0.0086
   30SOL    HW2   90   1.734   3.007   1.334  0.1801  1.1973 -0.4282
   31SOL     OW   91   1.243   3.077   1.221  0.0453 -0.4133  0.4282
   31SOL    HW1   92   1.260   0.038   1.131  1.3185 -1.1542  1.3518
   31SOL    HW2   93   1.293   2.992   1.220  2.1066  1.8909 -0.1814
   32SOL     OW   94   2.323   1.363   1.943  0.3378 -0.1543  0.2402
   32SOL    HW1   95   2.364   1.357   1.852  1.1074  1.8458  0.6980
   32SOL    HW2   96   2.223   1.351   1.944  0.7814 -0.2242  1.7551
   33SOL     OW   97   2.279   2.925   2.798 -0.3848 -0.6033  0.3920
   33SOL    HW1   98   2.192   2.963   2.837  0.0865 -1.1575 -1.2245
   33SOL    HW2   99   2.299   2.971   2.709  2.3021 -0.5265 -0.9756
   34SOL     OW  100   2.048   0.927   3.056  0.2846 -0.0136 -0.2376
   34SOL    HW1  101   2.068   0.927   0.072 -0.4334  1.8743  1.4780
   34SOL    HW2  102   2.095   0.857   2.998  1.2662 -2.3344 -0.9892
   35SOL     OW  103   2.895   1.518   1.622  0.4261  0.6748  0.1684
   35SOL    HW1  104   2.945   1.545   1.707  0.3607 -0.9925  1.5982
   35SOL    HW2  105   2.827   1.446   1.648 -0.7636  4.0839  0.9381
   36SOL     OW  106   2.479   2.374   2.875  0.1314 -0.2091  0.0955
   36SOL    HW1  107   2.404   2.349   2.939  0.9674 -1.4874 -0.8478
   36SOL    HW2  108   2.469   2.471   2.849  2.7751  0.6633 -0.5960
   37SOL     OW  109   1.694   2.921   1.955  0.5877  0.0531 -0.4296
   37SOL    HW1  110   1.762   2.995   1.944 -2.5433  2.4380  1.2705
   37SOL    HW2  111   1.745   2.837   1.990  2.9058  0.6069 -1.2724
   38SOL     OW  112   0.787   1.276   2.471 -0.0492  1.0184  0.1972
   38SOL    HW1  113   0.835   1.215   2.538 -0.2041 -2.0879 -1.9007
   38SOL    HW2  114   0.720   1.221   2.416 -0.1542  2.1890 -0.0425
   39SOL     OW  115   1.727   0.472   1.848  0.1655 -0.2691 -0.2525
   39SOL    HW1  116   1.680   0.527   1.918 -1.9963 -1.5172  1.6915
   39SOL    HW2  117   1.718   0.371   1.856  0.7051  1.2641  1.2337
   40SOL     OW  118   0.714   2.387   0.678  0.1834  0.6385 -0.0441
   40SOL    HW1  119   0.712   2.299   0.623 -2.1751 -2.2099 -1.1174
   40SOL    HW2  120   0.782   2.384   0.755  4.4489  2.8058 -0.6146
   41SOL     OW  121   2.231   1.968   0.945  0.0721  0.1655  0.0854
   41SOL    HW1  122   2.253   2.060   0.907 -0.7865  0.7522  1.9633
   41SOL    HW2  123   2.318   1.928   0.978  0.4481 -3.2697 -3.2579
   42SOL     OW  124   2.154   0.374   0.490 -0.4996  0.3984  0.2077
   42SOL    HW1  125   2.108   0.353   0.402 -2.6173  3.0580  1.3543
   42SOL    HW2  126   2.227   0.305   0.510  0.3055  0.8019 -0.3578
   43SOL     OW  127   0.723   1.507   2.639  0.4933 -0.1344 -0.0578
   43SOL    HW1  128   0.677   1.580   2.587 -1.3459 -3.3624 -1.4690
   43SOL    HW2  129   0.714   1.415   2.593 -0.7544  2.0197 -1.1262
   44SOL     OW  130   1.933   2.776   1.209  0.1009 -0.0320 -0.3281
   44SOL    HW1  131   1.863   2.703   1.204  0.2371  2.9450 -0.7201
   44SOL    HW2  132   1.969   2.806   1.119 -1.7420  0.3650  1.0814
   45SOL     OW  133   0.571   2.269   2.813  0.1106  0.3928  0.0260
   45SOL    HW1  134   0.487   2.245   2.860  0.1186 -1.9388 -0.3844
   45SOL    HW2  135   0.554   2.356   2.754 -1.5321 -0.4644  0.6357
   46SOL     OW  136   0.563   2.691   2.294  0.4526  0.0189  0.5919
   46SOL    HW1  137   0.600   2.659   2.206 -1.0162  0.0420 -4.0106
   46SOL    HW2  138   0.604   2.643   2.373  2.7651 -0.0932  0.8495
   47SOL     OW  139   0.604   1.696   0.889 -0.5701 -0.5584  0.5122
   47SOL    HW1  140   0.619   1.669   0.790 -1.4435  0.7505  1.5606
   47SOL    HW2  141   0.684   1.752   0.915 -1.4839 -1.6491  0.1663
   48SOL     OW  142   0.788   2.632   1.395  0.0349 -0.1144  0.7192
   48SOL    HW1  143   0.856   2.561   1.424 -0.2573 -1.0595  1.3713
   48SOL    HW2  144   0.836   2.722   1.374  0.7003  2.5472 -0.3372
   49SOL     OW  145   0.129   2.951   0.011  0.4557 -0.4430  0.1451
   49SOL    HW1  146   0.121   2.940   0.112 -1.6648  0.1952 -1.0205
   49SOL    HW2  147   0.168   2.866   3.057 -0.4782  2.2149  0.3936
   50SOL     OW  148   1.629   0.619   0.451 -0.0714  0.1015  0.3597
   50SOL    HW1  149   1.539   0.630   0.403  0.3405 -0.9767 -0.1433
   50SOL    HW2  150   1.636   0.670   0.539 -0.8642  1.1411  0.8598
   51SOL     OW  151   1.905   3.023   0.805 -0.4989  0.3823 -0.4368
   51SOL    HW1  152   1.846   2.948   0.778 -0.5274 -1.0724  1.1170
   51SOL    HW2  153   1.976   3.044   0.729 -1.0746  0.0603 -0.0168
   52SOL     OW  154   0.347   1.621   1.327 -0.5258  0.6575  0.0509
   52SOL    HW1  155   0.433   1.582   1.361  0.4745  0.3794  3.1561
   52SOL    HW2  156   0.360   1.701   1.267 -0.1850  0.7425  3.1769
   53SOL     OW  157   0.154   1.069   2.824  0.0783 -0.2158 -0.5121
   53SOL    HW1  158   0.130   1.096   2.925 -2.2537 -0.2933  0.5868
   53SOL    HW2  159   0.235   1.125   2.788  0.4337  0.0819 -0.6594
   54SOL     OW  160   2.926   2.139   2.647  0.1566  0.2235 -0.5324
   54SOL    HW1  161   2.829   2.144   2.686  0.2867  0.9456 -1.3400
   54SOL    HW2  162   2.933   2.192   2.561  1.4298 -0.4584  2.4147
   55SOL     OW  163   2.532   2.133   1.319 -0.3806  0.5664 -0.5157
   55SOL    HW1  164   2.587   2.219   1.299 -0.6776 -0.6230 -1.6265
   55SOL    HW2  165   2.434   2.146   1.315 -0.9886 -0.4697  2.0198
   56SOL     OW  166   1.415   0.631   1.300  0.0657 -0.0046 -0.2260
   56SOL    HW1  167   1.426   0.732   1.309  2.4467 -0.6859 -1.4222
   56SOL    HW2  168   1.433   0.596   1.212  0.4436 -1.1853  3.3031
   57SOL     OW  169   1.839   1.669   0.962 -0.0584  0.3282 -0.0814
   57SOL    HW1  170   1.892   1.710   0.888 -1.4522  0.2022  1.9090
   57SOL    HW2  171   1.896   1.605   1.021  1.2118 -2.4583 -0.0402
   58SOL     OW  172   2.440   0.086   2.126  0.1268 -0.0740  0.5130
   58SOL    HW1  173   2.408   0.133   2.212 -0.0360  1.5451  0.0629
   58SOL    HW2  174   2.427   0.153   2.050  0.4641 -1.3537 -1.2037
   59SOL     OW  175   1.584   2.768   2.252  0.3947  0.1761  0.4238
   59SOL    HW1  176   1.563   2.720   2.164  0.5029 -2.7622 -2.5046
   59SOL    HW2  177   1.675   2.812   2.259  0.3361 -3.2396  2.0551
   60SOL     OW  178   1.177   1.930   2.966 -0.5236 -0.6218  0.6213
   60SOL    HW1  179   1.235   1.946   2.885 -0.3716  1.0582  1.0062
   60SOL    HW2  180   1.080   1.950   2.939  2.7754  0.5746  0.5213
   61SOL     OW  181   0.702   2.131   0.244  0.0787 -0.4946  0.1638
   61SOL    HW1  182   0.736   2.052   0.291 -2.3312  1.3215 -2.5930
   61SOL    HW2  183   0.778   2.201   0.247  1.7678  2.0316  0.8468
   62SOL     OW  184   1.426   1.856   1.520  0.5409 -0.0979  0.3259
   62SOL    HW1  185   1.393   1.811   1.610  0.2448 -0.4438  1.4237
   62SOL    HW2  186   1.514   1.816   1.484 -2.0634 -1.9580 -1.7430
   63SOL     OW  187   0.984   1.962   0.774 -0.6290 -0.3023  0.3082
   63SOL    HW1  188   0.921   2.015   0.715 -0.6391  0.7948  4.2829
   63SOL    HW2  189   0.930   1.900   0.836 -2.8827 -0.9472 -0.5950
   64SOL     OW  190   1.873   1.623   2.519  0.1907 -0.7118  0.1735
   64SOL    HW1  191   1.772   1.600   2.511  2.1610 -2.0489  1.0748
   64SOL    HW2  192   1.897   1.641   2.614  0.3328  0.4812 -0.9609
   65SOL     OW  193   1.704   1.727   1.513  0.4524  0.1799  0.1244
   65SOL    HW1  194   1.754   1.663   1.452 -1.7329  1.5310  0.5655
   65SOL    HW2  195   1.743   1.817   1.515 -3.2389  0.7434  0.7055
   66SOL     OW  196   3.025   0.941   0.881  0.1778 -0.3422 -0.0814
   66SOL    HW1  197   0.019   0.878   0.882 -1.3541 -1.0379  0.3502
   66SOL    HW2  198   2.942   0.887   0.881 -0.6227  0.9269 -0.9176
   67SOL     OW  199   2.243   2.256   0.914 -0.3624  0.6077 -0.2489
   67SOL    HW1  200   2.254   2.278   1.014  0.3465  1.1294 -1.0001
   67SOL    HW2  201   2.239   2.339   0.857  0.7379 -0.5240  0.9594
   68SOL     OW  202   2.355   2.731   1.601 -0.0191 -0.2173  0.3254
   68SOL    HW1  203   2.290   2.720   1.524  1.7019 -0.1525  0.2868
   68SOL    HW2  204   2.333   2.808   1.666  2.5020  1.8137  1.3830
   69SOL     OW  205   2.430   2.854   3.004 -0.2812  0.3115 -0.1118
   69SOL    HW1  206   2.400   2.891   2.912  0.3530  1.3766 -3.0124
   69SOL    HW2  207   2.532   2.866   3.012  0.1497 -1.6645  0.6202
   70SOL     OW  208   0.928   1.650   2.533  0.9083  0.2288  0.4483
   70SOL    HW1  209   0.906   1.694   2.444 -1.8177 -1.2406 -0.2821
   70SOL    HW2  210   0.857   1.574   2.559 -2.0802 -1.6458 -0.6014
   71SOL     OW  211   0.791   1.632   1.829  0.6108 -0.3610  0.0833
   71SOL    HW1  212   0.786   1.556   1.760  0.2299 -0.3972  3.4318
   71SOL    HW2  213   0.749   1.719   1.791  0.9775  1.1752  0.7503
   72SOL     OW  214   2.903   1.128   1.535 -0.1705  0.4841  0.3748
   72SOL    HW1  215   2.844   1.193   1.590  0.0780  1.3933 -1.2601
   72SOL    HW2  216   2.936   1.183   1.455 -1.2118 -0.6055 -1.1371
   73SOL     OW  217   0.879   2.091   2.538  0.2741  0.0276  0.0180
   73SOL    HW1  218   0.898   2.028   2.463 -0.7059 -0.4210 -2.0878
   73SOL    HW2  219   0.949   2.081   2.610  0.0979  0.6292 -1.6221
   74SOL     OW  220   1.095   0.319   2.023  0.1761 -0.1395  0.1732
   74SOL    HW1  221   1.091   0.312   2.124  1.3135  0.4074 -0.7615
   74SOL    HW2  222   1.012   0.363   1.982 -0.4073  2.4547  0.7266
   75SOL     OW  223   1.066   2.967   0.660  0.0874  0.1444  0.2978
   75SOL    HW1  224   1.057   2.976   0.559 -1.2323 -0.2865  0.3845
   75SOL    HW2  225   1.158   2.933   0.688 -1.9234  0.3484  0.3960
   76SOL     OW  226   0.319   1.846   2.682 -0.1849  0.0178 -0.1634
   76SOL    HW1  227   0.419   1.832   2.681 -0.8053 -1.9051 -0.1192
   76SOL    HW2  228   0.297   1.920   2.615 -1.4210  1.0736 -1.6050
   77SOL     OW  229   0.441   2.366   0.898  0.4637 -0.2738  0.3575
   77SOL    HW1  230   0.448   2.417   0.809 -0.6538 -0.9968  0.0104
   77SOL    HW2  231   0.347   2.382   0.932  0.7313  0.8257 -1.5141
   78SOL     OW  232   2.602   1.402   0.141 -0.1051  0.1175 -0.7731
   78SOL    HW1  233   2.553   1.408   0.052 -0.6339  0.1090  0.3043
   78SOL    HW2  234   2.574   1.473   0.215 -0.0453 -0.1177  1.8568
   79SOL     OW  235   0.562   1.450   2.870 -0.3996 -0.7305 -0.2559
   79SOL    HW1  236   0.597   1.464   2.773 -0.8124  0.0228 -3.1895
   79SOL    HW2  237   0.598   1.523   2.935 -1.1565  0.4212  1.0873
   80SOL     OW  238   2.103   1.243   1.448  0.7985 -0.0116  0.4577
   80SOL    HW1  239   2.020   1.212   1.500 -0.7619  1.0087 -1.2564
   80SOL    HW2  240   2.082   1.228   1.350 -1.1367 -0.0766 -0.6612
   81SOL     OW  241   1.979   0.798   2.480  1.0345 -0.4529 -0.5577
   81SOL    HW1  242   1.967   0.851   2.566  0.9088 -0.8471 -0.6810
   81SOL    HW2  243   1.909   0.828   2.409 -1.0568  1.1218 -0.3139
   82SOL     OW  244   2.184   1.875   1.368  0.3645 -0.1112  0.5179
   82SOL    HW1  245   2.134   1.935   1.303 -0.9535 -0.0269  1.2515
   82SOL    HW2  246   2.158   1.777   1.345 -1.4729  0.3278  2.1082
   83SOL     OW  247   2.133   2.831   3.065  0.0276 -0.0089 -0.2519
   83SOL    HW1  248   2.231   2.812   3.042 -1.9330  0.6029  0.2644
   83SOL    HW2  249   2.114   2.928   0.004  0.4808  0.4641  0.1994
   84SOL     OW  250   0.730   0.600   0.559 -0.0629  0.0419 -0.1069
   84SOL    HW1  251   0.772   0.692   0.577  1.7204 -0.8633  0.2220
   84SOL    HW2  252   0.709   0.544   0.637 -0.1554 -0.0418 -1.9245
   85SOL     OW  253   2.178   1.600   1.270  0.1332  0.6214  0.6531
   85SOL    HW1  254   2.092   1.549   1.268  2.8714 -0.0742  1.6513
   85SOL    HW2  255   2.239   1.586   1.193 -0.7078  2.0137  3.2632
   86SOL     OW  256   0.550   0.725   1.222  0.3772 -0.1759  0.0405
   86SOL    HW1  257   0.566   0.771   1.311  1.7053  0.7719  0.9331
   86SOL    HW2  258   0.524   0.786   1.143  1.6536  0.0363 -1.8293
   87SOL     OW  259   0.085   2.362   2.255  0.0617 -0.2341  0.1228
   87SOL    HW1  260   0.058   2.352   2.158  2.3390  0.8563  2.0714
   87SOL    HW2  261   0.005   2.353   2.318 -3.2882  2.6558 -1.1086
   88SOL     OW  262   0.188   2.958   0.312  0.1415 -0.3383  0.1490
   88SOL    HW1  263   0.142   2.925   0.393  0.6002 -3.2010 -0.6798
   88SOL    HW2  264   0.290   2.972   0.327 -2.4437 -0.4241 -2.2481
   89SOL     OW  265   1.255   0.092   0.978  0.2139 -0.2814  0.5243
   89SOL    HW1  266   1.296   0.060   0.892  0.0735  2.1031 -1.7304
   89SOL    HW2  267   1.298   0.179   1.011 -0.3991  1.3023 -0.7657
   90SOL     OW  268   2.832   0.753   1.962  0.3242 -0.3859 -0.2638
   90SOL    HW1  269   2.773   0.741   2.039  1.4375  2.5336 -0.9498
   90SOL    HW2  270   2.929   0.732   1.985  0.7800 -2.1664 -0.5704
   91SOL     OW  271   2.057   2.652   0.642  0.0105 -0.5580  0.2235
   91SOL    HW1  272   2.043   2.565   0.588 -0.5480 -0.6053 -1.5612
   91SOL    HW2  273   2.064   2.638   0.741 -1.3993  0.2422 -0.4497
   92SOL     OW  274   1.653   1.719   0.766  0.0336 -0.5406 -0.6106
   92SOL    HW1  275   1.707   1.691   0.847 -0.4968  1.5666 -2.0994
   92SOL    HW2  276   1.667   1.659   0.683  0.9757  1.1733 -1.2935
   93SOL     OW  277   0.490   1.390   0.482  0.0341  0.6930  0.2892
   93SOL    HW1  278   0.541   1.304   0.503 -0.2715 -1.6329  1.6696
   93SOL    HW2  279   0.532   1.474   0.521  0.8822 -3.0741  0.7965
   94SOL     OW  280   0.828   2.488   1.125 -0.0799 -0.3061 -0.7070
   94SOL    HW1  281   0.814   2.557   1.197  0.7960 -0.4165 -0.1649
   94SOL    HW2  282   0.758   2.414   1.116  0.7139 -1.9815 -1.8294
   95SOL     OW  283   0.212   0.955   0.564  0.1659 -0.1827 -0.9252
   95SOL    HW1  284   0.277   0.979   0.639 -0.0434  0.8298  1.5884
   95SOL    HW2  285   0.243   0.867   0.525  1.2387  2.3734 -1.0400
   96SOL     OW  286   0.755   2.665   2.044 -0.1768  0.3286 -0.0761
   96SOL    HW1  287   0.824   2.730   2.013 -1.2140 -1.4197  0.3069
   96SOL    HW2  288   0.739   2.579   1.985 -0.1963 -1.3783  1.4135
   97SOL     OW  289   2.535   0.909   0.961  0.3422 -0.4084  0.2958
   97SOL    HW1  290   2.487   0.839   1.017 -0.6956  4.6226 -0.6834
   97SOL    HW2  291   2.493   0.999   0.974 -0.5265 -1.5922 -0.2390
   98SOL     OW  292   0.332   1.924   2.020  0.0536  0.4989  0.4165
   98SOL    HW1  293   0.343   1.828   1.985  1.6743 -4.3512 -1.1095
   98SOL    HW2  294   0.241   1.960   1.992 -1.4870 -0.6078  1.1467
   99SOL     OW  295   2.870   0.360   1.468 -0.3013  0.5362 -0.3965
   99SOL    HW1  296   2.966   0.324   1.457 -2.0107 -1.6914  0.3437
   99SOL    HW2  297   2.856   0.404   1.556  0.3221  1.0518 -2.8780
  100SOL     OW  298   1.984   0.319   2.548 -0.0334  0.3377  0.8447
  100SOL    HW1  299   2.055   0.283   2.615  0.6062 -0.5841  0.0537
  100SOL    HW2  300   2.034   0.325   2.457 -0.2432  0.0148 -2.4277
  101SOL     OW  301   0.975   0.008   2.095  0.3596 -0.2728 -1.0389
  101SOL    HW1  302   0.971   0.109   2.088 -0.1555 -0.3265 -0.0734
  101SOL    HW2  303   0.907   3.060   2.162 -1.1751 -1.6834  2.1425
  102SOL     OW  304   0.598   0.658   1.735 -0.3861 -0.1881  0.2702
  102SOL    HW1  305   0.593   0.697   1.826 -2.5261 -2.4460 -0.7076
  102SOL    HW2  306   0.695   0.639   1.709  1.1753  0.3764  2.1404
  103SOL     OW  307   0.529   0.926   2.947 -0.2817 -0.1064  0.1668
  103SOL    HW1  308   0.428   0.903   2.946  2.5436 -1.6344 -1.3136
  103SOL    HW2  309   0.569   0.896   2.860 -1.0178 -0.7102 -0.9892
  104SOL     OW  310   0.680   0.247   1.927 -0.3947 -0.5724 -0.2985
  104SOL    HW1  311   0.685   0.155   1.880 -1.6944 -1.1479 -0.7894
  104SOL    HW2  312   0.689   0.241   2.030 -0.5920  1.0274 -2.2597
  105SOL     OW  313   2.534   2.428   1.954 -0.0078  0.9669  0.8398
  105SOL    HW1  314   2.554   2.454   1.858 -0.5917  0.9159 -3.0626
  105SOL    HW2  315   2.494   2.336   1.965 -1.7418  0.1482  0.8677
  106SOL     OW  316   0.551   2.973   0.812  0.0964  0.4986  0.2779
  106SOL    HW1  317   0.642   2.989   0.768  0.7939 -1.3899  0.6764
  106SOL    HW2  318   0.560   2.911   0.890 -1.3346  1.6217 -2.9355
  107SOL     OW  319   2.821   1.927   1.008  0.1623  0.1207  0.1641
  107SOL    HW1  320   2.799   2.028   1.003  1.6523  2.0685  2.2419
  107SOL    HW2  321   2.761   1.864   0.952 -1.3660 -0.8074 -4.0417
  108SOL     OW  322   0.169   2.510   0.694  1.0476 -0.5764 -0.4911
  108SOL    HW1  323   0.106   2.508   0.771 -0.0431 -0.8885  1.7533
  108SOL    HW2  324   0.227   2.429   0.693  2.6887  0.5006 -0.5619
  109SOL     OW  325   1.575   2.712   0.784  0.1009  0.1618  0.0819
  109SOL    HW1  326   1.568   2.744   0.880 -0.1307 -1.2218  0.9556
  109SOL    HW2  327   1.658   2.767   0.747  1.4664  2.0218 -0.9080
  110SOL     OW  328   1.635   1.983   0.778 -0.3239 -0.2983  0.6274
  110SOL    HW1  329   1.635   1.885   0.765  2.4059  0.1448  0.4490
  110SOL    HW2  330   1.686   2.015   0.857 -1.7424  1.2871 -0.4956
  111SOL     OW  331   1.869   2.679   1.986 -0.0730 -0.2068 -0.7352
  111SOL    HW1  332   1.962   2.689   1.944  1.4884  1.4997  1.1222
  111SOL    HW2  333   1.872   2.622   2.073  1.4783 -2.9011  2.8170
  112SOL     OW  334   1.584   2.200   2.554 -0.6150 -0.6530 -0.5837
  112SOL    HW1  335   1.663   2.252   2.594 -0.1627 -0.5828 -1.0702
  112SOL    HW2  336   1.498   2.217   2.607 -0.9772 -0.6368 -0.2645
  113SOL     OW  337   2.445   2.182   1.995  0.6520 -0.0344  0.3157
  113SOL    HW1  338   2.364   2.205   2.054 -0.5398 -0.7248  0.0844
  113SOL    HW2  339   2.414   2.134   1.913  2.2267  1.6724  1.2003
  114SOL     OW  340   0.158   0.995   1.497  0.2139  0.1722 -0.1560
  114SOL    HW1  341   0.119   1.012   1.587  1.9912  0.6902  0.9205
  114SOL    HW2  342   0.120   0.912   1.453  1.5102  2.0363 -3.2571
  115SOL     OW  343   2.485   0.534   2.662  0.0290 -0.1023  0.3167
  115SOL    HW1  344   2.496   0.621   2.720  2.2166  0.2134  0.1250
  115SOL    HW2  345   2.544   0.459   2.698  1.0994  0.4424 -1.3703
  116SOL     OW  346   2.662   0.328   2.764  0.1564  0.8290 -0.0583
  116SOL    HW1  347   2.593   0.254   2.778  0.1976 -1.3541  1.4671
  116SOL    HW2  348   2.755   0.286   2.767 -0.1278 -0.6036 -1.2880
  117SOL     OW  349   2.528   2.686   0.716 -0.1480 -0.5163 -0.1011
  117SOL    HW1  350   2.501   2.780   0.747 -1.5374 -1.1211  0.3624
  117SOL    HW2  351   2.599   2.644   0.778  0.9084 -2.4887  1.6509
  118SOL     OW  352   0.993   1.936   2.341 -0.0662 -0.4534 -0.4150
  118SOL    HW1  353   1.029   1.847   2.302  2.1801 -1.6333 -0.8201
  118SOL    HW2  354   1.012   2.017   2.281 -1.2509  1.3338 -0.4212
  119SOL     OW  355   0.625   2.702   0.300 -0.1316 -0.3841  0.3556
  119SOL    HW1  356   0.603   2.764   0.221  0.6416 -0.8024 -0.9517
  119SOL    HW2  357   0.700   2.638   0.275 -3.3189  1.4329 -1.6344
  120SOL     OW  358   1.465   0.977   0.664  0.3777 -0.7710 -0.3115
  120SOL    HW1  359   1.497   1.017   0.576 -0.0872  0.7909  0.1768
  120SOL    HW2  360   1.523   0.892   0.679  0.5144 -2.1201 -2.1438
  121SOL     OW  361   1.764   0.621   1.128  0.1641  0.1840  0.0733
  121SOL    HW1  362   1.857   0.603   1.161 -3.4673 -3.4931 -1.9888
  121SOL    HW2  363   1.738   0.722   1.133 -4.0128  0.7300 -0.3891
  122SOL     OW  364   2.027   1.573   2.185  0.0471  0.2673  0.0639
  122SOL    HW1  365   2.073   1.649   2.134  2.5158  0.0928 -1.2023
  122SOL    HW2  366   1.923   1.583   2.174 -2.3106  2.7699 -0.5285
  123SOL     OW  367   0.396   0.949   0.759 -0.4937  0.1854  0.3666
  123SOL    HW1  368   0.376   1.042   0.789  1.4284  1.7714 -0.1658
  123SOL    HW2  369   0.359   0.883   0.827 -0.3993  0.3509  0.7518
  124SOL     OW  370   0.745   0.356   2.688 -0.3435 -0.3450 -0.0293
  124SOL    HW1  371   0.750   0.341   2.789 -1.4894 -1.4450  1.6787
  124SOL    HW2  372   0.840   0.364   2.645  1.0219  0.1828  0.2367
  125SOL     OW  373   0.760   0.042   2.883  0.5817  0.0039  0.7421
  125SOL    HW1  374   0.859   0.029   2.915  1.7320  2.0566  0.3093
  125SOL    HW2  375   0.751   0.017   2.787 -1.2500  1.2224  2.1557
  126SOL     OW  376   0.766   1.232   0.208  0.3284 -0.0965 -0.1770
  126SOL    HW1  377   0.803   1.281   0.125 -0.4142 -1.6964 -0.4226
  126SOL    HW2  378   0.768   1.287   0.293 -4.0912 -0.7145 -1.2601
  127SOL     OW  379   1.106   2.550   0.983 -0.2033  0.1333  0.4757
  127SOL    HW1  380   1.138   2.606   1.060  2.2996 -0.7047  0.2450
  127SOL    HW2  381   1.175   2.554   0.912 -0.9975 -0.3418 -1.1410
  128SOL     OW  382   1.469   1.939   0.256  0.0608 -0.2265  0.5270
  128SOL    HW1  383   1.396   1.907   0.192  1.2145 -0.3797  0.0288
  128SOL    HW2  384   1.515   2.023   0.215  0.4162  1.9104  0.3312
  129SOL     OW  385   1.894   1.456   1.633 -0.6107  0.3760  0.1261
  129SOL    HW1  386   1.889   1.351   1.645  1.6889 -0.9613 -0.1642
  129SOL    HW2  387   1.798   1.488   1.636 -0.3849 -1.8933  0.2920
  130SOL     OW  388   2.118   1.628   1.640 -0.1110 -0.2108 -0.2782
  130SOL    HW1  389   2.044   1.557   1.629 -0.8897 -0.2312 -1.7883
  130SOL    HW2  390   2.200   1.609   1.577  3.1869  0.1541 -1.9636
  131SOL     OW  391   0.904   2.291   1.982  0.1089  0.3824  0.3149
  131SOL    HW1  392   0.985   2.335   1.946 -2.1825  2.4424  0.9787
  131SOL    HW2  393   0.817   2.343   1.971  1.3924 -1.4529  2.0127
  132SOL     OW  394   2.522   1.519   0.692  0.1435 -0.2362  0.0628
  132SOL    HW1  395   2.613   1.503   0.734 -0.5654 -0.3716  0.6869
  132SOL    HW2  396   2.502   1.622   0.683 -0.6236  0.8780  0.7587
  133SOL     OW  397   0.680   1.882   1.768 -0.1273  0.2522  0.3779
  133SOL    HW1  398   0.627   1.925   1.691 -0.8874 -0.8179  0.3605
  133SOL    HW2  399   0.673   1.937   1.853 -0.0304 -1.4442 -1.3430
  134SOL     OW  400   3.030   1.873   0.692 -0.0584 -0.2029  0.2092
  134SOL    HW1  401   3.004   1.776   0.670 -1.3199  0.2366  2.2212
  134SOL    HW2  402   0.020   1.892   0.765  3.4623  4.0477  2.3259
  135SOL     OW  403   1.886   1.384   2.754  0.2501 -0.4280 -0.6913
  135SOL    HW1  404   1.961   1.452   2.771 -2.6112 -0.8275 -1.2234
  135SOL    HW2  405   1.907   1.328   2.674 -0.1245  1.3422  1.4447
  136SOL     OW  406   0.111   1.460   1.316  0.2497 -0.1081 -0.1753
  136SOL    HW1  407   0.198   1.509   1.343 -2.3786  2.3890 -1.6556
  136SOL    HW2  408   0.059   1.523   1.251 -0.5671 -0.9241  0.2919
  137SOL     OW  409   2.455   1.417   2.998 -0.2076 -0.3969  0.0334
  137SOL    HW1  410   2.439   1.322   2.975 -0.5096  1.4380 -0.8774
  137SOL    HW2  411   2.466   1.469   2.907 -0.0568  2.1528 -1.7960
  138SOL     OW  412   2.521   0.553   0.693  0.3056  0.6737 -0.6149
  138SOL    HW1  413   2.476   0.491   0.624  2.7002 -1.0974  1.9814
  138SOL    HW2  414   2.480   0.646   0.700  2.0734  1.7761  0.8815
  139SOL     OW  415   2.249   2.513   2.577  0.1801 -0.3120 -0.1958
  139SOL    HW1  416   2.312   2.564   2.636 -1.5488 -1.7863  1.2778
  139SOL    HW2  417   2.297   2.441   2.525  0.9035 -1.7467 -0.5556
  140SOL     OW  418   0.571   1.459   1.023 -0.1927 -0.1868  0.1082
  140SOL    HW1  419   0.581   1.549   0.974 -1.6179  0.8158 -0.4293
  140SOL    HW2  420   0.518   1.385   0.977 -2.6988  0.5581  1.4399
  141SOL     OW  421   0.929   1.265   0.901  0.0321 -0.8491  0.3859
  141SOL    HW1  422   1.027   1.256   0.931 -0.8459 -1.1470  1.0838
  141SOL    HW2  423   0.922   1.325   0.818  1.7264 -4.9144 -1.6750
  142SOL     OW  424   1.192   0.664   0.964 -0.1578  0.1291  0.2093
  142SOL    HW1  425   1.173   0.575   1.020 -1.3883 -5.0022  3.5616
  142SOL    HW2  426   1.268   0.647   0.898  1.0185  1.6837 -0.5032
  143SOL     OW  427   0.370   0.525   2.890 -0.0350  0.4288  0.4194
  143SOL    HW1  428   0.274   0.542   2.860 -0.2884 -0.4817 -1.8409
  143SOL    HW2  429   0.437   0.531   2.810  1.1273  1.3925 -0.3186
  144SOL     OW  430   2.448   0.124   0.303 -0.1434 -0.4143 -0.3535
  144SOL    HW1  431   2.446   0.038   0.253 -0.6988 -1.0830 -0.5770
  144SOL    HW2  432   2.506   0.199   0.267 -0.2797  2.9655 -0.2324
  145SOL     OW  433   2.274   3.059   2.527 -0.4315  0.7419 -0.1042
  145SOL    HW1  434   2.351   0.040   2.549 -0.0488  1.5396 -1.7511
  145SOL    HW2  435   2.209   0.003   2.455  1.4760  1.5696  1.8386
  146SOL     OW  436   2.980   2.710   0.406  0.0990  0.7076 -0.0101
  146SOL    HW1  437   3.063   2.652   0.421  0.0026 -1.8853  0.7643
  146SOL    HW2  438   2.939   2.705   0.313  0.0790 -2.5432  0.1249
  147SOL     OW  439   1.471   0.849   2.983 -0.1875  0.1040 -0.1010
  147SOL    HW1  440   1.377   0.812   2.963 -0.9965 -0.4927  0.0214
  147SOL    HW2  441   1.529   0.787   3.043  0.1648 -0.2621 -3.9505
  148SOL     OW  442   1.200   0.061   0.151  0.0791 -0.1527  0.4024
  148SOL    HW1  443   1.168   0.083   0.247  1.3195 -0.3906  4.0103
  148SOL    HW2  444   1.289   0.104   0.127 -0.3288 -1.0377  0.7534
  149SOL     OW  445   1.411   1.236   2.707 -0.0639 -0.6449  0.0704
  149SOL    HW1  446   1.460   1.168   2.760 -0.5093  1.6446  3.0596
  149SOL    HW2  447   1.430   1.229   2.606 -0.3500 -0.9614  2.2407
  150SOL     OW  448   1.353   2.851   2.889  0.1336  0.2759 -0.6469
  150SOL    HW1  449   1.373   2.777   2.957  0.4187 -0.1933  1.3982
  150SOL    HW2  450   1.390   2.943   2.909 -2.2470 -2.1234 -2.5618
  151SOL     OW  451   0.120   1.156   3.083 -0.3144  0.0461  0.2546
  151SOL    HW1  452   0.066   1.199   0.073  2.1484 -0.1326 -0.5541
  151SOL    HW2  453   0.220   1.177   0.008  0.3755  1.1980 -0.5281
  152SOL     OW  454   0.717   0.352   1.493 -0.1171  0.4637  0.2205
  152SOL    HW1  455   0.709   0.254   1.463 -1.0493 -0.7456  2.5343
  152SOL    HW2  456   0.624   0.388   1.512 -0.3490 -3.2367  2.8178
  153SOL     OW  457   2.612   2.998   1.899  0.1306 -0.5342 -0.5305
  153SOL    HW1  458   2.522   3.018   1.947 -1.9134 -0.6907  0.4607
  153SOL    HW2  459   2.668   3.082   1.901  0.2291  0.1488  0.8727
  154SOL     OW  460   2.355   2.917   2.049  0.0558 -0.0870 -0.0012
  154SOL    HW1  461   2.349   2.835   2.109  0.1269  0.4280 -1.3915
  154SOL    HW2  462   2.356   3.005   2.103  1.0883 -0.5943  0.8516
  155SOL     OW  463   0.116   1.410   0.388 -0.7626 -0.2906 -0.1415
  155SOL    HW1  464   0.169   1.323   0.379  1.7366  0.3493 -0.4174
  155SOL    HW2  465   0.078   1.427   0.480 -0.6264  1.2587 -0.1595
  156SOL     OW  466   1.866   1.232   0.240  0.0857  0.4699 -0.9112
  156SOL    HW1  467   1.840   1.135   0.265  1.0289 -1.6538 -2.0235
  156SOL    HW2  468   1.932   1.233   0.162 -1.3828  2.1262 -0.1018
  157SOL     OW  469   1.027   2.614   0.011 -0.2187 -0.0904 -0.1104
  157SOL    HW1  470   1.112   2.567   0.036  0.2050 -1.0038 -2.5433
  157SOL    HW2  471   0.968   2.559   3.036  4.5936 -1.2352 -0.3254
  158SOL     OW  472   1.887   0.848   1.571  0.0925  0.2053 -0.4344
  158SOL    HW1  473   1.940   0.871   1.658 -0.1155 -1.5431 -0.5997
  158SOL    HW2  474   1.888   0.921   1.497  1.6524  1.9654 -1.6671
  159SOL     OW  475   3.056   0.065   0.271  0.0441 -0.0150  0.1621
  159SOL    HW1  476   0.032   3.082   0.307 -1.6859  1.3039  1.2101
  159SOL    HW2  477   0.020   0.147   0.241  2.1613  2.4957  0.6704
  160SOL     OW  478   2.449   2.004   1.765  0.2716 -0.1584  0.4058
  160SOL    HW1  479   2.540   1.967   1.740  1.4902 -0.0466  0.4835
  160SOL    HW2  480   2.375   1.957   1.717 -1.0322  0.7045  2.1984
  161SOL     OW  481   0.097   0.301   0.165  0.4727  0.4824 -0.7553
  161SOL    HW1  482   0.156   0.273   0.086 -2.1276 -0.7108 -0.2713
  161SOL    HW2  483   0.150   0.336   0.244 -0.3659  0.2497 -0.5253
  162SOL     OW  484   0.580   0.773   1.991  0.9907 -0.7165  0.7944
  162SOL    HW1  485   0.487   0.724   1.989 -0.1959  0.0104  1.6953
  162SOL    HW2  486   0.656   0.719   2.028 -3.3100 -0.9369 -0.7713
  163SOL     OW  487   2.871   0.049   2.552  0.2336  0.3342  0.0721
  163SOL    HW1  488   2.812   0.109   2.486 -0.5251  2.2422 -1.9513
  163SOL    HW2  489   2.877   3.043   2.508  0.7437 -0.7119 -0.9074
  164SOL     OW  490   2.352   1.632   0.026 -0.0908  0.4607 -0.5554
  164SOL    HW1  491   2.265   1.656   3.067  0.5140 -0.1589 -3.9642
  164SOL    HW2  492   2.390   1.549   3.070  1.0058  2.8567 -0.6798
  165SOL     OW  493   0.254   0.075   1.189  0.2733 -0.3241  0.6371
  165SOL    HW1  494   0.340   0.063   1.140 -0.3866 -2.8319 -1.8815
  165SOL    HW2  495   0.275   0.103   1.287 -1.8896 -2.9377  1.1969
  166SOL     OW  496   2.814   0.344   0.136  0.4210 -0.2621 -0.6941
  166SOL    HW1  497   2.858   0.275   0.079 -2.0665 -0.2001 -1.7689
  166SOL    HW2  498   2.783   0.304   0.222  1.6602  1.7982 -5.6471
  167SOL     OW  499   1.994   0.647   0.610  0.6282 -0.2719  0.3916
  167SOL    HW1  500   2.049   0.730   0.619  0.9844 -1.6242 -1.6888
  167SOL    HW2  501   2.019   0.582   0.683 -1.7735  1.5140 -0.0683
  168SOL     OW  502   1.000   0.572   2.322  0.2568  0.1125 -0.2236
  168SOL    HW1  503   1.018   0.575   2.425  0.0057 -1.3049  0.0563
  168SOL    HW2  504   1.083   0.598   2.269 -1.7103 -0.5504  0.8303
  169SOL     OW  505   0.498   1.824   1.161 -0.4162 -0.4213  0.1095
  169SOL    HW1  506   0.483   1.926   1.169 -1.1294 -0.0961  0.4219
  169SOL    HW2  507   0.518   1.789   1.066 -0.8437  0.3566  3.3962
  170SOL     OW  508   3.059   0.001   1.529 -0.0846  0.1785  0.3756
  170SOL    HW1  509   0.049   3.018   1.542 -0.7699 -2.0299 -0.7157
  170SOL    HW2  510   3.030   3.082   1.429 -1.0017  0.6429 -2.0972
  171SOL     OW  511   2.432   1.304   2.191  0.2019  0.6510 -0.0889
  171SOL    HW1  512   2.522   1.342   2.204 -0.8310  0.6144  2.0583
  171SOL    HW2  513   2.390   1.311   2.096 -0.1414 -2.8872 -1.9387
  172SOL     OW  514   1.353   2.064   1.194  0.3526 -0.1054 -0.1952
  172SOL    HW1  515   1.251   2.082   1.225 -3.5105 -1.8399  1.7392
  172SOL    HW2  516   1.354   1.974   1.141 -2.0211  1.1124  0.8315
  173SOL     OW  517   2.273   2.333   3.041 -0.6824  0.3663  0.2814
  173SOL    HW1  518   2.179   2.326   3.006  2.4775  1.4828 -0.8412
  173SOL    HW2  519   2.275   2.306   0.055 -1.1132 -1.4515  0.9880
  174SOL     OW  520   1.788   0.681   0.235 -0.5240  0.2691  0.4338
  174SOL    HW1  521   1.733   0.666   0.320 -0.6182  0.2718 -0.6924
  174SOL    HW2  522   1.882   0.636   0.249  1.5815 -2.0904  0.0761
  175SOL     OW  523   0.715   1.818   1.328 -0.2131 -0.6331 -0.0922
  175SOL    HW1  524   0.656   1.800   1.244 -0.2169  1.4017 -1.3709
  175SOL    HW2  525   0.760   1.739   1.370 -0.9814 -0.6302  3.7403
  176SOL     OW  526   0.392   0.078   0.734 -0.2720  0.1869 -0.3361
  176SOL    HW1  527   0.453   3.082   0.749 -2.0488  0.9623  2.3266
  176SOL    HW2  528   0.304   0.050   0.691 -0.1876 -2.0537  0.4966
  177SOL     OW  529   3.075   1.268   0.197 -0.2204 -0.7090  0.0135
  177SOL    HW1  530   2.978   1.255   0.220 -3.0167  0.5889  1.4192
  177SOL    HW2  531   0.033   1.349   0.243 -0.0271  1.6875  0.0353
  178SOL     OW  532   2.795   2.412   1.984 -1.4383  0.7284 -0.3955
  178SOL    HW1  533   2.697   2.426   1.995 -0.1283 -0.1468  0.1202
  178SOL    HW2  534   2.846   2.458   2.064  1.2953  1.4812 -0.3361
  179SOL     OW  535   2.136   0.018   0.058 -0.3556  0.0574 -0.0182
  179SOL    HW1  536   2.199   0.090   0.023  0.0310 -0.1770 -0.8842
  179SOL    HW2  537   2.045   0.053   0.096 -0.6958 -1.9329  0.2535
  180SOL     OW  538   2.298   0.620   0.473 -0.9998 -0.5871  0.3698
  180SOL    HW1  539   2.231   0.545   0.451 -0.2488 -1.9398 -2.4893
  180SOL    HW2  540   2.273   0.671   0.556  1.4717  1.1388  0.8816
  181SOL     OW  541   0.031   3.048   2.691  0.1790 -0.0421  0.2563
  181SOL    HW1  542   3.085   3.026   2.787  2.7012  0.5383  0.7560
  181SOL    HW2  543   3.040   3.069   2.628  0.1336  0.9209 -1.9278
  182SOL     OW  544   2.745   2.167   2.379  0.3800 -0.0130 -0.2095
  182SOL    HW1  545   2.713   2.264   2.406 -0.4495  0.7386  2.0298
  182SOL    HW2  546   2.679   2.133   2.310 -2.5211  0.8564  2.3748
  183SOL     OW  547   2.598   0.809   1.317 -0.2188  0.4371 -0.1665
  183SOL    HW1  548   2.679   0.842   1.264 -1.1588 -0.8176  1.1914
  183SOL    HW2  549   2.596   0.847   1.409  0.9643 -0.7597  0.2814
  184SOL     OW  550   2.950   1.415   0.977  0.4249 -0.5062 -0.3251
  184SOL    HW1  551   3.006   1.471   1.044 -1.4559 -1.8432  0.1938
  184SOL    HW2  552   2.989   1.326   0.965  1.3568  1.2336  2.4355
  185SOL     OW  553   0.009   0.258   1.137 -0.4799 -0.0085  0.2447
  185SOL    HW1  554   0.060   0.184   1.094  0.1253  1.2751  1.5441
  185SOL    HW2  555   3.057   0.320   1.060 -4.2987 -1.3476  0.5731
  186SOL     OW  556   2.203   2.264   2.206  0.9980 -0.1611 -0.3554
  186SOL    HW1  557   2.152   2.181   2.236  2.8010 -0.3462  3.2020
  186SOL    HW2  558   2.266   2.291   2.280 -0.6595 -1.0670 -1.1968
  187SOL     OW  559   0.314   1.293   0.648 -0.1387  0.6815  0.0184
  187SOL    HW1  560   0.364   1.344   0.572 -1.5456  1.5842 -2.1173
  187SOL    HW2  561   0.232   1.349   0.677 -0.2724  0.5520 -0.9504
  188SOL     OW  562   1.755   1.808   3.037  0.1516  0.5306 -0.4435
  188SOL    HW1  563   1.792   1.900   3.063 -0.3306  0.4360 -1.3368
  188SOL    HW2  564   1.728   1.753   0.032  0.5838  1.0186 -1.9509
  189SOL     OW  565   0.018   1.711   3.046  0.1488  0.1943 -0.1690
  189SOL    HW1  566   0.008   1.614   3.051  2.8068  2.6636  0.0311
  189SOL    HW2  567   0.111   1.728   3.005  1.5093 -0.2610 -2.3817
  190SOL     OW  568   2.210   0.554   2.574 -0.3833  0.0093 -0.5205
  190SOL    HW1  569   2.202   0.618   2.498  0.0746 -1.9376  1.4574
  190SOL    HW2  570   2.305   0.540   2.608 -0.7723  0.3415  0.4571
  191SOL     OW  571   0.849   1.385   2.232  0.2874 -0.2157  0.1417
  191SOL    HW1  572   0.823   1.307   2.174 -0.8434  0.2576  0.0389
  191SOL    HW2  573   0.840   1.351   2.329  0.6261 -1.3656 -0.7370
  192SOL     OW  574   1.744   1.349   1.916  0.2435  0.3226 -0.1002
  192SOL    HW1  575   1.691   1.397   1.846 -0.9694 -1.3474 -0.2830
  192SOL    HW2  576   1.725   1.251   1.920  0.0387  0.0964  0.7311
  193SOL     OW  577   0.827   3.035   0.770 -0.1159 -0.3671  0.1016
  193SOL    HW1  578   0.890   2.983   0.707  0.4126  0.6136 -2.8243
  193SOL    HW2  579   0.873   3.069   0.852 -0.2274 -2.8110 -0.5047
  194SOL     OW  580   1.356   1.419   1.570  0.0586  0.4727  0.3728
  194SOL    HW1  581   1.334   1.395   1.475 -1.1292 -0.9815  2.2344
  194SOL    HW2  582   1.278   1.480   1.609 -3.5501  0.0932  0.0468
  195SOL     OW  583   1.652   0.041   0.910 -0.2143 -0.0149 -0.2099
  195SOL    HW1  584   1.641   0.136   0.874 -0.8229  0.0681 -1.5667
  195SOL    HW2  585   1.741   0.006   0.872  3.3616 -1.0962 -2.2611
  196SOL     OW  586   0.883   1.781   2.026 -0.4562  0.1278 -0.1923
  196SOL    HW1  587   0.824   1.868   2.026 -0.7487  2.5624 -0.3247
  196SOL    HW2  588   0.849   1.715   1.959 -2.1902  1.2940 -0.8835
  197SOL     OW  589   0.647   0.254   2.452  0.2863 -0.1522  0.1603
  197SOL    HW1  590   0.682   0.296   2.542 -1.0117  4.7128  0.3406
  197SOL    HW2  591   0.568   0.193   2.481  1.2627  1.5046 -2.5875
  198SOL     OW  592   2.896   1.093   1.059 -0.2833  0.0577  0.1068
  198SOL    HW1  593   2.822   1.150   1.027  2.8841 -0.6359  3.0662
  198SOL    HW2  594   2.944   1.047   0.980 -0.8949  0.4356 -0.1620
  199SOL     OW  595   0.609   2.311   1.094  0.0932  0.1644 -0.0256
  199SOL    HW1  596   0.647   2.234   1.043  0.5060 -0.7790 -0.3786
  199SOL    HW2  597   0.545   2.365   1.035 -0.2012 -1.1673 -1.4901
  200SOL     OW  598   3.030   1.907   2.611 -0.0519 -0.5824 -0.1385
  200SOL    HW1  599   3.019   2.007   2.629  3.3409  0.8967 -0.8967
  200SOL    HW2  600   3.001   1.853   2.692  3.1024  1.5372  0.9186
  201SOL     OW  601   0.994   2.448   1.451 -0.1794 -0.0693 -0.3124
  201SOL    HW1  602   1.051   2.430   1.368 -0.8385  2.2414  0.7182
  201SOL    HW2  603   0.926   2.373   1.469  1.5907  0.8795 -2.3933
  202SOL     OW  604   0.848   2.563   0.218 -0.4099 -0.0160 -0.1866
  202SOL    HW1  605   0.880   2.468   0.228 -1.1482  0.8881  0.9421
  202SOL    HW2  606   0.910   2.608   0.146  2.9621 -0.6866  0.5637
  203SOL     OW  607   2.058   0.001   2.361 -0.2788  0.4140 -0.7759
  203SOL    HW1  608   2.019   3.063   2.271 -0.0929 -0.9303 -0.1508
  203SOL    HW2  609   2.014   3.035   2.439 -1.1808 -0.2635  1.0867
  204SOL     OW  610   0.178   1.331   1.605  0.3130 -0.3663 -0.3244
  204SOL    HW1  611   0.120   1.377   1.534  1.1321  1.0301  2.9772
  204SOL    HW2  612   0.264   1.297   1.564  3.1241 -0.6127  0.1262
  205SOL     OW  613   2.317   1.398   2.424  0.1529 -0.3413 -0.0040
  205SOL    HW1  614   2.359   1.395   2.330 -0.8621  0.4190  1.8884
  205SOL    HW2  615   2.219   1.439   2.415 -1.2069  1.6488 -1.4385
  206SOL     OW  616   0.168   2.304   2.597  0.1620 -0.4055  0.3065
  206SOL    HW1  617   0.108   2.265   2.526  2.7057  0.1027  2.0218
  206SOL    HW2  618   0.262   2.320   2.558  3.7064 -0.6887  2.4086
  207SOL     OW  619   0.621   2.841   1.843  0.6853  0.2100  0.3879
  207SOL    HW1  620   0.609   2.792   1.930  0.9646 -0.0467  0.1648
  207SOL    HW2  621   0.623   2.773   1.764 -1.8256 -0.2710  0.5689
  208SOL     OW  622   3.082   2.671   1.378  0.5950 -0.1674  0.1184
  208SOL    HW1  623   0.007   2.696   1.474  2.1890 -1.0298 -0.4064
  208SOL    HW2  624   0.078   2.706   1.326  1.9436  1.4318 -0.3271
  209SOL     OW  625   1.100   2.718   2.305  0.4824 -0.0147  0.0723
  209SOL    HW1  626   1.095   2.631   2.363 -1.4316 -0.6421 -1.8331
  209SOL    HW2  627   1.192   2.763   2.328  0.9292 -1.6564  0.7016
  210SOL     OW  628   2.752   1.016   1.995  0.3860 -0.3559  0.5016
  210SOL    HW1  629   2.810   0.937   1.978  0.6697  2.7414 -1.9570
  210SOL    HW2  630   2.675   1.001   2.063 -1.3246  0.9596  0.9212
  211SOL     OW  631   1.262   0.030   2.078  0.0022 -0.3598 -0.2319
  211SOL    HW1  632   1.322   3.060   2.023  1.2227  2.9840  1.8045
  211SOL    HW2  633   1.162   0.004   2.061  1.8754  1.7076  0.1020
  212SOL     OW  634   1.484   2.819   1.622 -0.1331  0.4216 -0.1809
  212SOL    HW1  635   1.439   2.897   1.670 -0.7370 -1.2682 -1.3483
  212SOL    HW2  636   1.587   2.834   1.620 -0.7806  3.2357 -1.2009
  213SOL     OW  637   2.343   0.646   1.679 -0.9591  0.3775 -0.2310
  213SOL    HW1  638   2.309   0.603   1.597  1.3432  0.2730  3.1270
  213SOL    HW2  639   2.414   0.581   1.726 -1.7904 -1.3258  0.5817
  214SOL     OW  640   0.731   2.108   0.923 -0.5471 -0.2938 -0.7392
  214SOL    HW1  641   0.821   2.125   0.881  1.3037 -0.3063  2.5490
  214SOL    HW2  642   0.657   2.106   0.856  1.9900 -0.6616  1.2867
  215SOL     OW  643   2.520   1.802   0.666  0.1863  0.0213  0.1764
  215SOL    HW1  644   2.618   1.824   0.658 -1.6415 -1.8983 -0.8060
  215SOL    HW2  645   2.461   1.863   0.609 -2.2114  0.7731  1.5787
  216SOL     OW  646   2.825   0.576   1.745  0.1925 -0.3600  0.3809
  216SOL    HW1  647   2.823   0.654   1.808 -0.8892  1.5011 -0.4914
  216SOL    HW2  648   2.730   0.553   1.715  1.1733  0.5491  0.5419
  217SOL     OW  649   2.095   0.320   1.302  0.4353 -0.1077 -0.2794
  217SOL    HW1  650   1.999   0.297   1.281  1.8050  2.1548 -0.4558
  217SOL    HW2  651   2.115   0.419   1.278 -0.8058  0.1479 -0.3574
  218SOL     OW  652   1.907   2.217   1.138 -0.2110  0.3062 -0.4640
  218SOL    HW1  653   1.904   2.288   1.067  2.5498 -0.6794  0.9288
  218SOL    HW2  654   1.935   2.258   1.229  0.3394 -0.1565  0.9586
  219SOL     OW  655   1.948   2.348   3.026  0.7270 -0.0143  0.0585
  219SOL    HW1  656   1.987   2.385   2.937 -0.1306  0.9493 -0.7846
  219SOL    HW2  657   1.960   2.417   0.014 -0.1549  0.6131 -1.2617
  220SOL     OW  658   1.685   2.597   0.077 -0.2653 -0.3582  0.5305
  220SOL    HW1  659   1.614   2.621   0.145 -0.1805  0.6719  0.4916
  220SOL    HW2  660   1.770   2.557   0.114  1.2213  0.9787 -3.3108
  221SOL     OW  661   0.157   2.447   1.817  0.3484 -0.0161  0.1135
  221SOL    HW1  662   0.135   2.352   1.789  0.8437 -2.6450  0.3889
  221SOL    HW2  663   0.112   2.464   1.906 -1.3413  0.2032  0.3461
  222SOL     OW  664   1.906   2.429   0.969 -0.9070  0.1329 -0.0168
  222SOL    HW1  665   1.960   2.518   0.941  2.3079  4.3017 -0.8235
  222SOL    HW2  666   1.867   2.396   0.882  4.7779 -0.0268 -1.1631
  223SOL     OW  667   1.302   2.388   1.700  0.1765 -0.4953 -0.5767
  223SOL    HW1  668   1.389   2.441   1.700 -0.5079 -2.8905  0.3519
  223SOL    HW2  669   1.313   2.300   1.650  1.9695  2.1305  0.0543
  224SOL     OW  670   2.673   2.347   1.277 -0.2221 -0.1012  0.1509
  224SOL    HW1  671   2.772   2.351   1.249 -0.4558 -0.7213  0.7542
  224SOL    HW2  672   2.665   2.385   1.368 -0.5781 -1.2202 -4.3631
  225SOL     OW  673   2.100   2.045   0.574 -0.1467 -0.6199  0.1954
  225SOL    HW1  674   2.043   1.985   0.520  0.4561  0.7426 -0.6972
  225SOL    HW2  675   2.052   2.088   0.652 -0.5112  2.7732  0.5023
  226SOL     OW  676   1.309   2.480   0.387  0.2819 -0.2869  0.2120
  226SOL    HW1  677   1.364   2.392   0.389 -1.5133 -1.3365 -0.0685
  226SOL    HW2  678   1.233   2.483   0.458 -1.1883 -1.2848 -1.0801
  227SOL     OW  679   2.075   1.033   0.656  0.6887 -0.0576  0.4946
  227SOL    HW1  680   2.037   1.035   0.749  1.4011  1.1416 -2.4659
  227SOL    HW2  681   1.995   1.059   0.596 -1.9420  2.0421 -1.4444
  228SOL     OW  682   1.557   0.410   0.000  0.0181  0.6097 -0.4113
  228SOL    HW1  683   1.617   0.366   3.019  2.2419  0.3209 -0.3630
  228SOL    HW2  684   1.491   0.337   0.028 -0.7983  2.1765 -1.2150
  229SOL     OW  685   2.759   1.024   2.365 -0.7485 -0.0431 -0.3604
  229SOL    HW1  686   2.726   0.948   2.426 -0.0452 -1.9702  2.4452
  229SOL    HW2  687   2.846   1.069   2.393 -0.5040  2.5631 -0.0387
  230SOL     OW  688   0.259   1.206   1.039  0.0536  0.1306 -0.3348
  230SOL    HW1  689   0.284   1.136   1.110 -0.1459  1.2639  1.2923
  230SOL    HW2  690   0.341   1.224   0.983 -0.4324 -0.8427  1.1288
  231SOL     OW  691   2.471   0.143   2.533 -0.4841  0.5342 -0.4251
  231SOL    HW1  692   2.433   0.202   2.461  0.4740  0.2015 -0.9406
  231SOL    HW2  693   2.573   0.143   2.529 -2.8406  1.8974 -0.8509
  232SOL     OW  694   2.822   2.210   0.363 -0.4225  0.1464  0.2195
  232SOL    HW1  695   2.870   2.161   0.441  2.0467 -0.5575  0.7933
  232SOL    HW2  696   2.731   2.252   0.397 -3.7370 -0.7334 -1.2289
  233SOL     OW  697   1.402   2.488   2.240  0.8657  0.4620 -0.1543
  233SOL    HW1  698   1.395   2.574   2.290  0.7971  1.2849 -3.9583
  233SOL    HW2  699   1.492   2.443   2.262 -0.0906 -0.6676  0.8255
  234SOL     OW  700   1.252   1.783   1.333 -0.5405  1.6228 -0.0890
  234SOL    HW1  701   1.313   1.805   1.412 -0.1776  0.2425 -1.4227
  234SOL    HW2  702   1.299   1.781   1.246  1.2998 -0.3151  2.4190
  235SOL     OW  703   0.932   1.860   1.656  0.2610 -0.2695 -0.2794
  235SOL    HW1  704   0.842   1.879   1.706  0.2278  1.4465  0.2091
  235SOL    HW2  705   0.961   1.764   1.672 -0.8467 -0.8714 -2.5741
  236SOL     OW  706   1.081   2.797   2.874  0.0750 -0.2545 -0.5260
  236SOL    HW1  707   1.065   2.716   2.927 -0.1594  1.0822 -1.4149
  236SOL    HW2  708   1.180   2.825   2.886  1.4426 -0.2063 -2.4739
  237SOL     OW  709   0.748   0.039   1.532 -0.1357 -0.3181 -0.5489
  237SOL    HW1  710   0.844   0.025   1.503 -0.0836 -1.7716  1.4422
  237SOL    HW2  711   0.747   0.035   1.631 -2.8155  1.7015 -3.3686
  238SOL     OW  712   1.097   0.729   0.373 -0.2506  0.0724 -0.1851
  238SOL    HW1  713   1.118   0.781   0.456 -2.5746 -0.2743 -0.2924
  238SOL    HW2  714   1.020   0.771   0.321  1.0861 -1.7918  0.8170
  239SOL     OW  715   2.515   0.773   2.778 -0.0075  0.2323 -0.6801
  239SOL    HW1  716   2.421   0.816   2.771 -1.4133  1.4187  0.4817
  239SOL    HW2  717   2.572   0.818   2.852 -0.8785 -2.9217  1.1280
  240SOL     OW  718   2.572   2.070   0.832  0.7010  0.0285 -0.0830
  240SOL    HW1  719   2.519   2.045   0.917 -3.0456 -0.1917  4.2189
  240SOL    HW2  720   2.595   1.993   0.769  1.9407 -2.7013 -1.7577
  241SOL     OW  721   0.814   1.393   1.117 -0.7575  0.1162 -0.5922
  241SOL    HW1  722   0.859   1.335   1.048 -0.8243  0.4469  0.3852
  241SOL    HW2  723   0.725   1.425   1.080  0.3214 -0.5075 -2.7558
  242SOL     OW  724   0.993   0.403   0.809  0.2996 -0.4707  0.0926
  242SOL    HW1  725   1.003   0.481   0.741 -1.9570 -0.6557 -0.3194
  242SOL    HW2  726   0.966   0.319   0.757  0.4880 -1.6510  0.0189
  243SOL     OW  727   0.413   0.502   1.162 -0.5434  0.0635  0.4592
  243SOL    HW1  728   0.314   0.518   1.168  2.9496 -0.9070 -1.9881
  243SOL    HW2  729   0.468   0.580   1.202 -0.5485 -0.4896 -4.2764
  244SOL     OW  730   1.268   0.188   0.593 -0.1262  0.0658 -1.1238
  244SOL    HW1  731   1.300   0.111   0.647 -0.4951  1.8870  1.2378
  244SOL    HW2  732   1.183   0.177   0.546 -0.3215  0.5224 -0.1603
  245SOL     OW  733   2.034   0.650   0.352 -0.0549 -0.4623  0.3037
  245SOL    HW1  734   2.012   0.652   0.453  0.7296 -3.0450  0.0651
  245SOL    HW2  735   2.081   0.733   0.319 -1.2489  3.0600  2.8894
  246SOL     OW  736   0.446   0.308   1.788 -0.3713  0.3097 -0.6234
  246SOL    HW1  737   0.540   0.291   1.813  1.0602  0.5612  0.1606
  246SOL    HW2  738   0.436   0.359   1.703 -0.5189 -0.6639  1.3909
  247SOL     OW  739   0.971   3.085   1.707  0.3621 -0.2636 -0.5581
  247SOL    HW1  740   1.027   0.082   1.738  1.3607  2.3903 -1.3057
  247SOL    HW2  741   1.028   3.016   1.661  0.6374 -0.0387  1.1505
  248SOL     OW  742   0.588   1.566   2.016 -0.3456  0.1880  0.2721
  248SOL    HW1  743   0.664   1.582   1.945 -0.3718 -2.9232  0.7738
  248SOL    HW2  744   0.608   1.595   2.110 -0.8398 -1.1271 -2.1640
  249SOL     OW  745   0.475   2.489   0.173  0.0613  0.5211  0.2399
  249SOL    HW1  746   0.397   2.546   0.197  0.8341 -0.6965 -0.4982
  249SOL    HW2  747   0.555   2.512   0.229 -0.9623  1.1316  2.2576
  250SOL     OW  748   0.882   0.431   1.895 -0.1868 -0.0304  0.0186
  250SOL    HW1  749   0.797   0.368   1.905 -2.6383 -0.3735 -2.6766
  250SOL    HW2  750   0.932   0.408   1.807 -0.6385 -0.0722 -1.8661
  251SOL     OW  751   2.754   1.990   1.361  0.3843 -0.0693  0.0411
  251SOL    HW1  752   2.740   1.888   1.342 -0.8707 -1.8063 -1.6334
  251SOL    HW2  753   2.664   2.042   1.356 -2.4114  1.7520  0.7664
  252SOL     OW  754   1.659   0.225   1.866 -0.4936  0.1454 -0.3364
  252SOL    HW1  755   1.577   0.234   1.925  0.3260  1.6818  1.0689
  252SOL    HW2  756   1.654   0.135   1.818 -0.1851 -0.6374 -0.4726
  253SOL     OW  757   2.155   1.791   2.073  0.2009  0.1439 -0.1077
  253SOL    HW1  758   2.134   1.874   2.018  0.8833 -1.2016 -1.5254
  253SOL    HW2  759   2.204   1.817   2.159 -1.2112  2.6849  0.9082
  254SOL     OW  760   0.579   1.463   1.342 -0.0921 -0.3146  0.0159
  254SOL    HW1  761   0.669   1.501   1.364 -0.2318 -0.9917  2.8139
  254SOL    HW2  762   0.567   1.432   1.248  0.0414 -0.6171  0.6945
  255SOL     OW  763   0.356   2.990   1.778  0.3024  0.1074  0.2027
  255SOL    HW1  764   0.445   2.944   1.770  0.0434 -2.3888  0.1100
  255SOL    HW2  765   0.292   2.972   1.699  0.1003  3.3486 -0.0237
  256SOL     OW  766   0.288   2.745   0.703 -0.2552  0.1278  0.5841
  256SOL    HW1  767   0.241   2.657   0.684  0.6878  0.4221 -1.3225
  256SOL    HW2  768   0.364   2.760   0.635 -1.4091 -2.3275  0.1741
  257SOL     OW  769   1.076   2.438   2.446  0.5369  0.0854 -0.0878
  257SOL    HW1  770   1.141   2.376   2.398 -0.7262  0.8631  0.0954
  257SOL    HW2  771   0.980   2.417   2.424 -1.0256  2.0283  0.8173
  258SOL     OW  772   1.497   2.089   1.827  0.0414  0.0552 -0.3464
  258SOL    HW1  773   1.501   1.993   1.870  1.1443  0.4707  2.7173
  258SOL    HW2  774   1.426   2.096   1.751 -1.0749 -0.4294 -2.0625
  259SOL     OW  775   0.917   0.922   2.416  0.2659  0.1106  0.0188
  259SOL    HW1  776   0.893   0.910   2.318 -0.0260  1.8394  2.1386
  259SOL    HW2  777   0.876   0.848   2.472  0.5577  0.1712 -1.9020
  260SOL     OW  778   2.650   0.517   2.450 -0.5392  0.0098 -0.1946
  260SOL    HW1  779   2.566   0.535   2.503  1.8323 -0.4718 -0.6438
  260SOL    HW2  780   2.665   0.420   2.427  2.1178 -0.6866  0.3541
  261SOL     OW  781   0.702   1.150   0.809  0.1090 -0.7943 -0.4325
  261SOL    HW1  782   0.790   1.184   0.852  1.6704 -0.5089  1.7219
  261SOL    HW2  783   0.704   1.153   0.707  0.3788 -0.4223  0.0590
  262SOL     OW  784   2.320   2.041   2.554  0.4417 -0.1922 -0.2008
  262SOL    HW1  785   2.254   1.966   2.527  0.5422 -2.0283  1.8680
  262SOL    HW2  786   2.415   2.013   2.589  1.4300 -1.5116  0.8262
  263SOL     OW  787   0.779   2.695   0.954 -0.1487  0.4006 -0.2843
  263SOL    HW1  788   0.835   2.765   1.005  0.2943  1.2805 -0.7851
  263SOL    HW2  789   0.799   2.607   0.998  1.2816  0.7673  0.0215
  264SOL     OW  790   2.713   2.246   0.120 -0.2446 -0.1879  0.3504
  264SOL    HW1  791   2.751   2.254   0.214  0.7006 -2.0201 -0.2389
  264SOL    HW2  792   2.715   2.149   0.088 -1.6312  1.0663 -0.2771
  265SOL     OW  793   2.187   1.134   2.694  0.3191 -0.4115 -0.0767
  265SOL    HW1  794   2.104   1.178   2.649  1.5984  0.9020  0.3189
  265SOL    HW2  795   2.268   1.144   2.631 -0.9554  1.5331  0.6878
  266SOL     OW  796   1.382   1.907   2.031 -0.6212 -0.1731  0.0230
  266SOL    HW1  797   1.362   1.961   2.116  0.1880 -2.2571  0.9942
  266SOL    HW2  798   1.295   1.867   2.002 -0.1684  1.0950 -0.4540
  267SOL     OW  799   2.478   0.763   2.379  0.4380  0.0733  0.6681
  267SOL    HW1  800   2.560   0.805   2.426  3.5330 -0.2883  0.7645
  267SOL    HW2  801   2.389   0.818   2.390 -1.9842  3.9548 -1.5007
  268SOL     OW  802   0.975   1.266   2.924 -0.2692  0.1058  0.4109
  268SOL    HW1  803   0.949   1.325   3.002  0.8754  0.0655 -0.6921
  268SOL    HW2  804   1.055   1.302   2.877 -1.9921  0.1573 -1.4893
  269SOL     OW  805   3.085   1.847   1.738  0.3613  0.0341 -0.1858
  269SOL    HW1  806   3.084   1.863   1.633 -1.0364 -0.0914 -2.9819
  269SOL    HW2  807   2.991   1.827   1.778  0.8225  2.2310  0.0853
  270SOL     OW  808   0.064   1.911   0.107 -0.5187 -0.1890  0.7184
  270SOL    HW1  809   0.047   1.873   0.199  2.2216  1.8158 -0.5375
  270SOL    HW2  810   0.045   1.840   0.038 -0.8919  0.1212 -1.0291
  271SOL     OW  811   0.200   0.419   0.384 -0.2034 -0.1087 -0.2714
  271SOL    HW1  812   0.278   0.389   0.445 -1.8477 -0.8781 -0.4102
  271SOL    HW2  813   0.195   0.519   0.381  2.3568 -2.0407  0.2240
  272SOL     OW  814   3.048   2.947   0.515 -0.2837 -0.5646 -0.2137
  272SOL    HW1  815   2.974   3.009   0.488 -0.8452 -0.4920  1.2692
  272SOL    HW2  816   3.026   2.849   0.497 -0.2684 -0.1999 -0.1595
  273SOL     OW  817   0.354   2.879   2.026 -0.5503 -0.3670 -0.4555
  273SOL    HW1  818   0.276   2.906   2.084  0.1374  0.3986  1.5872
  273SOL    HW2  819   0.356   2.933   1.938  2.3821 -3.4292  0.6142
  274SOL     OW  820   0.139   0.535   1.211 -0.5078  0.4686  0.1370
  274SOL    HW1  821   0.048   0.491   1.210  0.3402  2.1544 -0.9612
  274SOL    HW2  822   0.176   0.533   1.308 -0.1804 -0.9945  1.9766
  275SOL     OW  823   1.033   1.563   1.154 -0.2370  0.4744  0.1025
  275SOL    HW1  824   1.071   1.550   1.249 -0.9092 -0.9048 -1.8649
  275SOL    HW2  825   0.957   1.496   1.140 -0.4891  0.0830 -1.8864
  276SOL     OW  826   0.542   1.300   2.009  0.3932 -0.3523 -0.4871
  276SOL    HW1  827   0.550   1.402   2.034 -0.0391  1.0753  0.8744
  276SOL    HW2  828   0.458   1.248   2.041  1.7532 -0.2484  3.0906
  277SOL     OW  829   1.147   1.821   1.903  0.1770 -0.3455 -0.3307
  277SOL    HW1  830   1.057   1.803   1.951 -2.4335 -1.2872  1.3101
  277SOL    HW2  831   1.134   1.903   1.842 -1.3970  0.5272 -1.4372
  278SOL     OW  832   2.206   2.704   2.175  0.0436  0.1630 -0.0641
  278SOL    HW1  833   2.121   2.648   2.188 -1.8677 -0.2613  1.1515
  278SOL    HW2  834   2.239   2.733   2.266 -0.8890  1.1532 -2.5113
  279SOL     OW  835   1.554   1.658   2.928 -0.3119 -0.2149  0.2397
  279SOL    HW1  836   1.572   1.568   2.886 -0.8364  0.2405 -0.5039
  279SOL    HW2  837   1.632   1.711   2.963 -0.8594 -1.6365  0.0676
  280SOL     OW  838   1.671   0.336   0.431  0.3969 -0.2829 -0.3885
  280SOL    HW1  839   1.699   0.276   0.507 -0.2596 -0.2252 -0.6203
  280SOL    HW2  840   1.676   0.435   0.461  2.7196  0.4112  2.1999
  281SOL     OW  841   0.473   0.487   1.563 -0.5693  0.0445 -0.0995
  281SOL    HW1  842   0.388   0.532   1.540  0.7920 -0.2286  1.6948
  281SOL    HW2  843   0.518   0.546   1.636  1.0921 -1.8634  0.5143
  282SOL     OW  844   0.157   2.997   0.726 -0.1815 -0.3242 -0.1127
  282SOL    HW1  845   0.076   3.015   0.670  1.9529 -0.1488 -0.2952
  282SOL    HW2  846   0.196   2.907   0.702 -1.2521  0.8623 -1.2225
  283SOL     OW  847   1.553   2.092   1.395 -0.0525 -0.4837  0.1641
  283SOL    HW1  848   1.493   2.092   1.313  1.0101 -0.4305  0.1713
  283SOL    HW2  849   1.519   2.024   1.459 -1.3272 -0.8831 -1.0963
  284SOL     OW  850   2.373   2.768   1.193  0.6110  0.0820 -0.1923
  284SOL    HW1  851   2.452   2.706   1.213  1.0408 -0.6798 -0.2053
  284SOL    HW2  852   2.343   2.751   1.097 -0.8153  0.6426 -1.1628
  285SOL     OW  853   0.548   2.147   0.752 -0.0679 -0.0087 -0.5506
  285SOL    HW1  854   0.504   2.232   0.789 -0.3364 -2.7107  2.2996
  285SOL    HW2  855   0.542   2.151   0.654 -0.9466  0.6562  2.4926
  286SOL     OW  856   0.073   2.657   1.651  0.3041 -0.1141  0.5750
  286SOL    HW1  857   0.004   2.700   1.706  2.0016 -2.1157 -1.7005
  286SOL    HW2  858   0.104   2.568   1.690  0.2232 -1.1569 -1.2975
  287SOL     OW  859   0.472   1.266   0.850  0.3509  0.4472 -0.4964
  287SOL    HW1  860   0.565   1.235   0.826 -1.2681 -1.9316  1.8126
  287SOL    HW2  861   0.411   1.269   0.769  2.1098  0.4021 -0.1699
  288SOL     OW  862   1.203   1.935   2.516  0.4032  0.4699 -0.1586
  288SOL    HW1  863   1.283   1.916   2.461 -3.9037  0.9219 -0.3435
  288SOL    HW2  864   1.109   1.933   2.467 -3.0529  0.1417  1.9913
  289SOL     OW  865   2.511   1.539   2.756  0.4773  0.3446  0.0925
  289SOL    HW1  866   2.567   1.613   2.805  2.1110 -1.0276 -0.1116
  289SOL    HW2  867   2.446   1.576   2.685  0.1325 -0.5613 -2.8090
  290SOL     OW  868   1.151   1.243   1.040  0.4944  0.3883 -0.1020
  290SOL    HW1  869   1.138   1.215   1.135 -0.6093  1.3016 -2.8852
  290SOL    HW2  870   1.239   1.300   1.037  0.2036 -0.3201 -0.9158
  291SOL     OW  871   1.289   1.036   0.106 -0.0257  0.5882 -0.1508
  291SOL    HW1  872   1.357   0.986   0.045 -0.7978  0.4521  0.4125
  291SOL    HW2  873   1.199   1.045   0.061  3.5728 -1.0458  0.5584
  292SOL     OW  874   1.770   1.602   0.145 -0.1100 -0.1582 -0.4517
  292SOL    HW1  875   1.864   1.561   0.135  2.3077 -1.8868  2.5057
  292SOL    HW2  876   1.700   1.525   0.149 -2.0964 -2.0676  1.0899
  293SOL     OW  877   1.626   3.062   1.186 -0.1055 -0.4221  0.0673
  293SOL    HW1  878   1.554   0.008   1.251  0.2604 -1.5297 -0.4487
  293SOL    HW2  879   1.615   0.017   1.089 -1.6158 -0.7922 -0.0756
  294SOL     OW  880   2.161   0.874   0.262  0.1488 -0.1615  0.0295
  294SOL    HW1  881   2.258   0.841   0.259  1.8855 -0.0424 -0.9814
  294SOL    HW2  882   2.158   0.973   0.284 -0.6488  1.2267  1.9735
  295SOL     OW  883   1.943   1.962   2.719  0.0352 -0.7266  0.8593
  295SOL    HW1  884   1.919   1.867   2.745 -0.0791 -2.7869  0.5356
  295SOL    HW2  885   1.871   2.031   2.744 -0.4341  2.4530  0.2393
  296SOL     OW  886   1.351   1.321   1.313  0.0716 -0.1178 -0.2740
  296SOL    HW1  887   1.346   1.375   1.228  1.2202  1.0490  2.4658
  296SOL    HW2  888   1.264   1.266   1.321 -0.0319 -0.0091 -0.2761
  297SOL     OW  889   0.244   0.792   2.596 -0.0955  0.5952 -0.3551
  297SOL    HW1  890   0.312   0.723   2.559 -1.5001 -0.9783  1.2154
  297SOL    HW2  891   0.259   0.812   2.695  4.3624  0.9746 -2.3278
  298SOL     OW  892   1.685   2.343   1.350  0.1524 -0.3687  0.0819
  298SOL    HW1  893   1.648   2.255   1.382  2.5987 -1.0712  2.7804
  298SOL    HW2  894   1.745   2.387   1.419  0.8510  0.3567  0.1233
  299SOL     OW  895   1.055   0.605   2.594 -0.0666 -0.0111 -0.4726
  299SOL    HW1  896   1.138   0.653   2.625 -3.6601 -0.8550  0.6434
  299SOL    HW2  897   1.054   0.502   2.616  0.5115 -2.8079 -0.0965
  300SOL     OW  898   2.306   1.508   0.324  0.0527 -0.0801  0.2781
  300SOL    HW1  899   2.392   1.565   0.336  1.5826  0.4693  0.8091
  300SOL    HW2  900   2.265   1.529   0.230 -2.1295 -0.0170  1.8901
  301SOL     OW  901   2.180   0.259   2.729 -0.1822  0.5057 -0.1304
  301SOL    HW1  902   2.274   0.294   2.738 -0.4756  0.1503  2.0847
  301SOL    HW2  903   2.135   0.241   2.817 -0.7500  0.4919 -0.2648
  302SOL     OW  904   2.771   1.925   2.483  0.1747 -0.5554  0.3111
  302SOL    HW1  905   2.864   1.897   2.494 -2.6174 -1.3183 -0.8441
  302SOL    HW2  906   2.760   2.013   2.432 -0.2256  0.4380 -1.6303
  303SOL     OW  907   0.255   2.521   2.368  0.0570 -0.1070  0.0399
  303SOL    HW1  908   0.342   2.475   2.378  0.2138 -0.5213  1.4701
  303SOL    HW2  909   0.188   2.458   2.329 -0.1109 -0.0266  0.8415
  304SOL     OW  910   2.769   1.371   1.197  0.0029  0.1717  0.1450
  304SOL    HW1  911   2.843   1.325   1.258  0.0601 -2.3368  0.8785
  304SOL    HW2  912   2.754   1.329   1.106  1.4655 -0.6812 -0.8605
  305SOL     OW  913   0.370   0.324   2.098 -0.3490 -0.2059 -0.5645
  305SOL    HW1  914   0.402   0.303   2.003  0.1743  0.4558 -1.2266
  305SOL    HW2  915   0.347   0.240   2.145 -0.9615 -0.5248 -1.9675
  306SOL     OW  916   1.246   1.517   0.708  0.4943  0.4889  0.5397
  306SOL    HW1  917   1.222   1.423   0.677  0.7756  0.0585  1.3416
  306SOL    HW2  918   1.292   1.565   0.628  1.4985 -0.2187 -1.8803
  307SOL     OW  919   2.899   0.060   0.904 -0.4953 -0.2609  0.0921
  307SOL    HW1  920   2.892   0.122   0.822 -0.6617 -0.5945 -1.0643
  307SOL    HW2  921   2.995   0.031   0.919  0.7379 -0.9264  2.7604
  308SOL     OW  922   2.943   1.344   2.743 -0.1357 -0.0650 -0.3259
  308SOL    HW1  923   2.854   1.364   2.704  0.0917 -2.7458 -0.0738
  308SOL    HW2  924   2.961   1.242   2.747 -0.2559 -2.0388 -2.1736
  309SOL     OW  925   0.050   1.906   2.373 -0.6139  0.3791  0.1087
  309SOL    HW1  926   0.060   1.810   2.337  0.7913 -2.2046  1.3911
  309SOL    HW2  927   0.009   1.904   2.469 -0.5583 -2.0416  1.0035
  310SOL     OW  928   2.333   0.431   0.109  0.4227 -0.2395 -0.2954
  310SOL    HW1  929   2.334   0.512   0.049 -0.0236  0.5800  1.9321
  310SOL    HW2  930   2.239   0.412   0.143 -2.7820 -2.4172  0.3128
  311SOL     OW  931   2.221   1.106   2.977  0.2881 -0.8014 -0.1201
  311SOL    HW1  932   2.199   1.138   2.887  0.3205  0.0093  4.6286
  311SOL    HW2  933   2.159   1.029   2.997 -0.0294  0.5532  0.0959
  312SOL     OW  934   1.252   1.529   1.927  0.3588 -0.3811  0.5012
  312SOL    HW1  935   1.340   1.578   1.951  0.2006  1.7258  0.7313
  312SOL    HW2  936   1.215   1.475   2.006 -4.2979 -0.0628  1.9995
  313SOL     OW  937   0.135   0.690   0.239  0.1269  0.0016  0.1716
  313SOL    HW1  938   0.195   0.699   0.155  1.8164 -0.5343 -1.7777
  313SOL    HW2  939   0.049   0.635   0.225 -2.6005  1.4937 -0.4375
  314SOL     OW  940   0.309   2.028   1.367  0.4608  0.5328 -0.4800
  314SOL    HW1  941   0.332   2.101   1.436 -1.8475  0.2432 -0.3618
  314SOL    HW2  942   0.284   1.944   1.415  0.5194  4.5848 -0.5989
  315SOL     OW  943   1.086   1.603   1.423  0.1631 -0.0803 -0.0973
  315SOL    HW1  944   1.099   1.589   1.524  0.0097 -0.1086  2.6989
  315SOL    HW2  945   1.132   1.691   1.400 -3.4146 -1.7907  0.2682
  316SOL     OW  946   0.261   2.248   0.584  0.1827 -0.1518  0.2290
  316SOL    HW1  947   0.240   2.188   0.503  1.1305  0.2297  0.4797
  316SOL    HW2  948   0.357   2.287   0.584  0.4837  2.1654 -3.2462
  317SOL     OW  949   2.588   0.058   1.225 -0.1156 -0.0219 -0.1671
  317SOL    HW1  950   2.595   0.106   1.316 -1.6738  0.2342  0.9385
  317SOL    HW2  951   2.671   0.010   1.194 -2.0313 -0.7646  0.3747
  318SOL     OW  952   1.296   2.878   0.172  0.6277  0.1283 -0.6108
  318SOL    HW1  953   1.344   2.813   0.104 -0.5437  0.7619  0.1202
  318SOL    HW2  954   1.265   2.959   0.123  1.6499 -1.8709 -0.6716
  319SOL     OW  955   1.734   0.253   2.631 -0.1885 -0.1095 -0.0963
  319SOL    HW1  956   1.672   0.310   2.575 -0.6192 -0.4143 -2.0022
  319SOL    HW2  957   1.831   0.262   2.597 -0.9381 -1.1966  0.8010
  320SOL     OW  958   2.713   1.986   1.644 -0.1357 -0.6240 -0.3017
  320SOL    HW1  959   2.764   1.921   1.705 -0.0710  1.4903 -0.2716
  320SOL    HW2  960   2.732   1.968   1.545 -0.7972 -1.5577  2.1208
  321SOL     OW  961   0.290   2.492   3.009 -0.1861 -0.1081 -0.1845
  321SOL    HW1  962   0.216   2.473   3.077 -0.0663  1.5111  0.4263
  321SOL    HW2  963   0.322   2.407   2.960  0.0264  0.7567 -0.9378
  322SOL     OW  964   2.730   0.721   2.209  0.0141  0.1390  0.1259
  322SOL    HW1  965   2.807   0.771   2.257 -0.9702 -0.8828  3.5856
  322SOL    HW2  966   2.651   0.712   2.269 -1.5209  1.0188 -1.9626
  323SOL     OW  967   2.021   1.322   0.473 -0.4642  0.1383  0.4143
  323SOL    HW1  968   1.960   1.289   0.397 -0.6529 -1.6107 -2.6176
  323SOL    HW2  969   1.979   1.319   0.566  1.9101 -0.1019 -0.3591
  324SOL     OW  970   0.047   0.266   1.413 -0.1309 -0.3700  0.0842
  324SOL    HW1  971   0.050   0.179   1.466  2.9698 -0.2405  3.4644
  324SOL    HW2  972   0.045   0.259   1.313 -2.3689  1.4544  0.8970
  325SOL     OW  973   2.730   3.040   1.554 -0.0841 -0.3969  0.5850
  325SOL    HW1  974   2.825   3.014   1.542 -0.9064 -1.4090  0.5347
  325SOL    HW2  975   2.712   0.045   1.511 -1.9439  1.1340 -4.0890
  326SOL     OW  976   1.556   2.594   0.326 -0.9252  0.6830 -0.2578
  326SOL    HW1  977   1.471   2.535   0.304 -1.6412 -1.6324 -0.0352
  326SOL    HW2  978   1.608   2.562   0.406 -1.2578  2.3635 -3.0574
  327SOL     OW  979   1.839   2.244   0.374  0.2195 -0.4513  0.8819
  327SOL    HW1  980   1.792   2.184   0.440 -0.4695 -1.9339  2.5394
  327SOL    HW2  981   1.836   2.205   0.278  1.1093  2.3507 -0.3740
  328SOL     OW  982   2.817   2.231   1.708  0.4330  0.2139  0.4505
  328SOL    HW1  983   2.762   2.142   1.703 -0.2111  1.6138 -0.7398
  328SOL    HW2  984   2.816   2.269   1.803 -1.3372 -3.1345  0.0352
  329SOL     OW  985   0.200   2.288   1.209  0.3072  0.3731  0.2851
  329SOL    HW1  986   0.141   2.290   1.291  1.9845  0.2862 -1.7891
  329SOL    HW2  987   0.185   2.202   1.158  2.4615 -0.0322  2.3924
  330SOL     OW  988   2.222   0.872   2.387  0.4734  0.4325  0.5435
  330SOL    HW1  989   2.130   0.833   2.408  2.5820 -2.8998 -1.4108
  330SOL    HW2  990   2.210   0.964   2.350  1.0258 -0.5584 -0.2177
  331SOL     OW  991   2.391   1.337   0.499 -0.4535  0.3922  0.0150
  331SOL    HW1  992   2.339   1.382   0.422 -0.5207  1.5091 -1.5325
  331SOL    HW2  993   2.443   1.405   0.557 -0.4765 -1.2717  2.5788
  332SOL     OW  994   0.202   2.765   1.233 -0.1124  0.3394  0.1825
  332SOL    HW1  995   0.202   2.738   1.136 -0.1256  0.3453 -0.4764
  332SOL    HW2  996   0.249   2.855   1.243  1.3958  0.5451  0.1671
  333SOL     OW  997   0.136   1.561   2.080 -0.5363  0.2834  0.1426
  333SOL    HW1  998   0.207   1.593   2.011  0.8508 -1.0647  1.6886
  333SOL    HW2  999   0.110   1.462   2.059 -0.2267  0.2063 -1.6621
  334SOL     OW 1000   0.078   0.793   1.339  0.6863 -0.1444 -0.2747
  334SOL    HW1 1001   3.067   0.794   1.375  2.5063  0.8378  0.2091
  334SOL    HW2 1002   0.093   0.703   1.292  0.3508  0.6022 -1.6922
  335SOL     OW 1003   3.015   1.543   1.887 -0.7744 -0.4655 -0.8960
  335SOL    HW1 1004   3.066   1.566   1.970 -0.8986  1.2526 -0.4883
  335SOL    HW2 1005   2.918   1.543   1.900  1.6604  1.2955 -3.5490
  336SOL     OW 1006   2.019   2.765   2.442 -0.2384  0.7250  0.4014
  336SOL    HW1 1007   1.992   2.671   2.468  0.9675 -0.2004  0.3748
  336SOL    HW2 1008   1.995   2.829   2.512  0.3469 -2.7554 -1.9662
  337SOL     OW 1009   0.822   0.685   1.198 -0.2110 -0.2486 -0.0013
  337SOL    HW1 1010   0.730   0.703   1.233 -0.7039 -0.1621 -1.7008
  337SOL    HW2 1011   0.810   0.673   1.097  1.9270 -0.0809 -1.9486
  338SOL     OW 1012   1.472   2.276   1.084  0.0917  0.3340 -0.2945
  338SOL    HW1 1013   1.504   2.347   1.150  0.8880  0.4655  2.2786
  338SOL    HW2 1014   1.420   2.207   1.133  2.5739  0.5554 -0.8320
  339SOL     OW 1015   0.116   2.018   1.177  0.5523  0.4477 -0.5873
  339SOL    HW1 1016   0.205   2.002   1.223  1.2771 -0.3056 -2.4529
  339SOL    HW2 1017   0.045   2.051   1.242 -0.0318  0.8068 -0.7258
  340SOL     OW 1018   0.739   0.191   2.196  0.1811  0.2998 -0.4850
  340SOL    HW1 1019   0.773   0.091   2.196 -0.1579  3.2729  1.5081
  340SOL    HW2 1020   0.670   0.208   2.270 -0.5288 -0.2720  2.2701
  341SOL     OW 1021   1.832   1.566   0.618 -0.3808  0.3346 -0.6247
  341SOL    HW1 1022   1.920   1.613   0.605 -2.1478 -1.5545  0.1260
  341SOL    HW2 1023   1.851   1.475   0.663  1.0031  1.8915 -0.2790
  342SOL     OW 1024   1.624   1.511   0.460  0.4120  0.2086 -0.1358
  342SOL    HW1 1025   1.629   1.467   0.365  0.9480  0.2556  0.1450
  342SOL    HW2 1026   1.719   1.534   0.492  0.5579  1.1005 -1.6943
  343SOL     OW 1027   1.958   0.060   1.148 -0.2322 -0.1613 -0.0549
  343SOL    HW1 1028   2.036   0.017   1.198  2.8174 -1.1564  0.1271
  343SOL    HW2 1029   1.895   0.112   1.215  0.3861 -0.7038  3.5410
  344SOL     OW 1030   2.948   0.206   2.787  0.2684  0.3209 -0.1027
  344SOL    HW1 1031   2.985   0.158   2.867  0.2693  0.8108  0.4701
  344SOL    HW2 1032   2.950   0.149   2.702 -1.6655 -0.3777  0.4872
  345SOL     OW 1033   1.386   2.669   1.414  0.7048 -0.4361 -0.2200
  345SOL    HW1 1034   1.451   2.724   1.473 -0.4926  0.8401  1.2388
  345SOL    HW2 1035   1.301   2.648   1.463  2.6037 -0.7087  2.4909
  346SOL     OW 1036   2.294   2.217   1.393 -0.6485 -0.4480  0.3083
  346SOL    HW1 1037   2.199   2.190   1.406  0.8942  0.0330  0.0978
  346SOL    HW2 1038   2.333   2.239   1.481 -0.5019 -0.1267 -4.5048
  347SOL     OW 1039   2.042   2.865   0.988  0.0006 -0.0211  0.1276
  347SOL    HW1 1040   2.002   2.947   0.945 -0.4468 -1.8101  0.5699
  347SOL    HW2 1041   2.131   2.891   1.033  0.9953 -0.7759 -0.2076
  348SOL     OW 1042   0.825   1.017   1.390 -0.0468 -0.0742  0.2667
  348SOL    HW1 1043   0.843   1.032   1.291  0.3866  0.6232  0.6545
  348SOL    HW2 1044   0.753   0.947   1.407 -0.6615 -0.4862 -0.7728
  349SOL     OW 1045   2.289   0.200   3.024  0.1300 -0.8835  0.1067
  349SOL    HW1 1046   2.305   0.287   3.070 -1.0750  1.1166  1.4446
  349SOL    HW2 1047   2.349   0.181   2.946 -1.0366  0.6745  1.1553
  350SOL     OW 1048   2.384   1.955   2.883  0.0146  0.6148  0.2797
  350SOL    HW1 1049   2.412   1.948   2.984  1.1573  0.1550 -0.2747
  350SOL    HW2 1050   2.355   2.047   2.858  0.0476  0.3891  0.1438
  351SOL     OW 1051   1.278   0.483   0.612  0.8974 -0.6039 -0.4567
  351SOL    HW1 1052   1.254   0.384   0.618  0.5138  0.9663 -1.0709
  351SOL    HW2 1053   1.319   0.500   0.520 -3.4927  0.0976  2.4137
  352SOL     OW 1054   1.794   2.167   2.407 -0.1416 -0.6563 -0.1410
  352SOL    HW1 1055   1.694   2.167   2.430 -2.0771 -2.3557  0.3865
  352SOL    HW2 1056   1.838   2.241   2.462 -3.0755  1.5930 -0.5585
  353SOL     OW 1057   0.332   0.673   0.040  0.2930 -0.2705  0.5633
  353SOL    HW1 1058   0.362   0.611   3.048  0.9614 -0.2728  0.5951
  353SOL    HW2 1059   0.374   0.767   0.028 -0.7715  3.3253  0.0680
  354SOL     OW 1060   1.242   2.211   0.194 -0.2067  0.3544 -0.5053
  354SOL    HW1 1061   1.167   2.143   0.173 -0.2872 -2.9287 -2.4195
  354SOL    HW2 1062   1.274   2.206   0.292 -0.1480 -1.4068  3.7444
  355SOL     OW 1063   2.565   2.583   1.710 -0.2557 -0.1899  0.0779
  355SOL    HW1 1064   2.646   2.645   1.734  0.0403 -0.1352  1.0692
  355SOL    HW2 1065   2.488   2.637   1.664 -0.1425 -1.2326 -2.0978
  356SOL     OW 1066   2.744   1.103   0.716 -0.1287  0.0159 -0.7316
  356SOL    HW1 1067   2.719   1.030   0.649 -0.3515  2.6213  1.3431
  356SOL    HW2 1068   2.793   1.060   0.796 -1.7826  0.6609 -0.1087
  357SOL     OW 1069   2.698   0.236   1.020 -0.6362  0.3559 -0.2342
  357SOL    HW1 1070   2.636   0.171   1.064 -0.0164 -2.4594  0.7378
  357SOL    HW2 1071   2.764   0.184   0.966  0.0395  1.4342  1.8324
  358SOL     OW 1072   1.066   2.378   1.206  0.0363 -0.1531 -0.4133
  358SOL    HW1 1073   0.993   2.436   1.166  2.4719 -0.2617 -0.1164
  358SOL    HW2 1074   1.148   2.401   1.151  1.5214 -0.6945 -2.7711
  359SOL     OW 1075   0.086   2.759   2.738 -0.4117  0.6278 -0.0693
  359SOL    HW1 1076   0.139   2.766   2.820 -2.4454  1.1553  0.3275
  359SOL    HW2 1077   0.099   2.844   2.685  0.1383 -1.6150  0.6511
  360SOL     OW 1078   0.866   0.958   1.814  0.0987  0.1373  0.3179
  360SOL    HW1 1079   0.925   1.006   1.742  1.5436 -1.2578  0.8824
  360SOL    HW2 1080   0.764   0.964   1.798 -1.0322 -1.5754  0.2236
  361SOL     OW 1081   2.316   0.162   0.536  0.0511  0.2344 -0.2190
  361SOL    HW1 1082   2.369   0.198   0.621  2.3906  3.7130  2.0797
  361SOL    HW2 1083   2.374   0.150   0.454 -0.3270  0.9153 -1.8568
  362SOL     OW 1084   0.073   3.041   0.989  0.8670 -0.6047  0.7418
  362SOL    HW1 1085   0.119   3.020   0.900  1.3677 -0.8431 -1.4195
  362SOL    HW2 1086   0.140   3.065   1.063 -0.4717 -3.3566  0.3467
  363SOL     OW 1087   0.670   1.201   0.542  0.3065 -0.4910  0.0893
  363SOL    HW1 1088   0.664   1.110   0.505 -2.7351  2.1796 -0.8129
  363SOL    HW2 1089   0.747   1.258   0.503  0.9312 -1.2073 -0.1452
  364SOL     OW 1090   0.599   1.255   1.739 -0.4044 -0.1688  0.1490
  364SOL    HW1 1091   0.599   1.157   1.757 -0.8894  2.1584  1.2712
  364SOL    HW2 1092   0.615   1.307   1.828  1.0058  0.0789 -2.8008
  365SOL     OW 1093   2.797   1.269   0.247  0.5124  0.2423 -0.2251
  365SOL    HW1 1094   2.767   1.258   0.345  0.1838  3.8500 -1.3328
  365SOL    HW2 1095   2.720   1.321   0.207  0.6323  2.5565 -1.7181
  366SOL     OW 1096   2.618   1.695   1.011  0.2920  0.1824  0.4353
  366SOL    HW1 1097   2.645   1.642   0.933 -0.8024  1.7794  0.7941
  366SOL    HW2 1098   2.677   1.683   1.091  0.5066  1.2048  0.0825
  367SOL     OW 1099   2.129   2.028   1.893  0.3321 -0.0828  0.1871
  367SOL    HW1 1100   2.056   2.093   1.862  0.9034 -3.3790  1.8392
  367SOL    HW2 1101   2.167   1.981   1.808  0.3199 -0.0771 -0.5453
  368SOL     OW 1102   2.762   1.537   0.818 -0.1370  0.2187  0.0662
  368SOL    HW1 1103   2.833   1.586   0.764 -1.4418 -2.2630  2.7152
  368SOL    HW2 1104   2.810   1.470   0.878  0.7485 -1.2709  1.1974
  369SOL     OW 1105   2.337   2.355   0.278 -0.1039  0.1513  0.2092
  369SOL    HW1 1106   2.291   2.449   0.296 -1.7874  3.4077 -1.8011
  369SOL    HW2 1107   2.431   2.370   0.237 -0.2709  1.2799  1.7924
  370SOL     OW 1108   2.990   0.040   1.270  0.5656 -0.2853  0.7869
  370SOL    HW1 1109   2.909   0.007   1.224  2.7931  2.1226  2.1531
  370SOL    HW2 1110   3.024   0.112   1.208  0.0325  1.4010  0.4255
  371SOL     OW 1111   0.720   1.636   3.017  0.3093  0.0622 -0.2229
  371SOL    HW1 1112   0.822   1.623   3.007 -0.4025  1.4807  1.6909
  371SOL    HW2 1113   0.696   1.734   2.996  0.3822  0.3712 -1.9752
  372SOL     OW 1114   0.938   1.029   0.273 -0.4356 -0.0371  0.5937
  372SOL    HW1 1115   0.856   1.080   0.238 -0.5806 -3.1575  2.9787
  372SOL    HW2 1116   0.988   0.984   0.200  1.4768  2.9563  3.0017
  373SOL     OW 1117   1.568   2.426   2.774  0.5400  0.2607  0.0154
  373SOL    HW1 1118   1.611   2.518   2.793 -0.2357  2.4054 -0.5227
  373SOL    HW2 1119   1.464   2.432   2.776 -0.1845  0.8860  1.0445
  374SOL     OW 1120   0.206   2.094   0.276  0.3566 -0.0230  0.1520
  374SOL    HW1 1121   0.289   2.141   0.251 -1.3705 -1.7487  0.6200
  374SOL    HW2 1122   0.164   2.040   0.201 -0.6730 -1.2333  2.7295
  375SOL     OW 1123   0.794   1.425   1.658 -0.0738  0.1679  0.0288
  375SOL    HW1 1124   0.720   1.352   1.646 -1.7322 -4.3972 -2.1177
  375SOL    HW2 1125   0.882   1.378   1.671 -0.6094 -1.6368 -1.5459
  376SOL     OW 1126   0.705   2.439   1.879  0.6885  0.0152 -0.1655
  376SOL    HW1 1127   0.683   2.470   1.782 -2.3731  1.0123 -0.9196
  376SOL    HW2 1128   0.618   2.421   1.931 -2.1828  0.1813 -2.7475
  377SOL     OW 1129   2.671   1.452   2.146  0.5331 -0.0249  0.3699
  377SOL    HW1 1130   2.657   1.552   2.154  1.3999  1.4138  2.4164
  377SOL    HW2 1131   2.753   1.423   2.197 -0.4984 -0.4251 -1.3079
  378SOL     OW 1132   0.982   0.025   3.045  0.3279  0.3990 -0.3722
  378SOL    HW1 1133   0.905   3.053   0.000 -1.2960 -2.2566  1.0830
  378SOL    HW2 1134   1.049   0.057   0.022 -2.8075 -0.6676 -2.5315
  379SOL     OW 1135   2.081   0.411   0.758 -0.2021 -0.1672  0.3682
  379SOL    HW1 1136   2.127   0.392   0.672 -2.1981  2.1468  0.7634
  379SOL    HW2 1137   2.068   0.331   0.818  0.4079  1.5165  1.9876
  380SOL     OW 1138   2.983   2.117   1.311  0.0510  1.2213  0.5589
  380SOL    HW1 1139   2.896   2.068   1.321  0.9972 -0.9185  0.1755
  380SOL    HW2 1140   2.964   2.205   1.262 -3.2856 -1.4648 -1.3548
  381SOL     OW 1141   1.894   1.798   1.732 -0.3438  0.0281 -0.0260
  381SOL    HW1 1142   1.860   1.861   1.660  0.6785  1.0019 -1.0473
  381SOL    HW2 1143   1.983   1.758   1.710 -1.3239  0.2091 -0.6272
  382SOL     OW 1144   3.025   0.447   2.680 -0.1266 -0.7510 -0.1998
  382SOL    HW1 1145   3.080   0.414   2.601 -1.6662  0.2443 -1.8588
  382SOL    HW2 1146   2.992   0.368   2.739 -0.3259 -0.3427 -1.2243
  383SOL     OW 1147   1.610   1.494   2.560 -0.8386  0.3689  0.3434
  383SOL    HW1 1148   1.544   1.427   2.515 -2.1284 -1.9643  2.9521
  383SOL    HW2 1149   1.670   1.444   2.626  0.8424 -1.1055  2.5919
  384SOL     OW 1150   1.091   2.093   1.264  0.0261  0.4904  0.1826
  384SOL    HW1 1151   1.063   2.184   1.237 -3.6749  0.4588  3.0342
  384SOL    HW2 1152   1.024   2.061   1.333 -1.1229 -0.8165 -0.7478
  385SOL     OW 1153   1.837   2.346   0.712 -0.3616  0.1841 -0.2744
  385SOL    HW1 1154   1.746   2.393   0.691  0.6329  1.7226  0.8838
  385SOL    HW2 1155   1.896   2.362   0.629  0.6533 -0.0822 -0.0511
  386SOL     OW 1156   2.027   1.841   0.805 -0.0942 -0.1787  1.0769
  386SOL    HW1 1157   1.974   1.885   0.732 -0.0199  1.4446  0.7808
  386SOL    HW2 1158   2.087   1.909   0.852 -2.0168  0.0966 -0.3077
  387SOL     OW 1159   0.303   2.252   1.531 -0.3004  0.5069  0.1904
  387SOL    HW1 1160   0.224   2.311   1.512 -0.5294  1.8892  0.1507
  387SOL    HW2 1161   0.337   2.257   1.625  0.4399 -0.3829 -0.3215
  388SOL     OW 1162   3.075   0.487   1.677 -0.4920 -0.1168 -0.1299
  388SOL    HW1 1163   2.982   0.506   1.710  0.6240  0.8952  1.1097
  388SOL    HW2 1164   0.013   0.388   1.688  0.1476 -1.2161  2.1724
  389SOL     OW 1165   1.898   1.311   0.711 -0.2422  0.2330  0.0544
  389SOL    HW1 1166   1.950   1.304   0.802  1.4308 -0.8670  1.4126
  389SOL    HW2 1167   1.807   1.271   0.733  0.2348  1.1740 -0.8107
  390SOL     OW 1168   1.040   2.206   2.765 -0.3701 -0.3448 -0.2147
  390SOL    HW1 1169   1.015   2.305   2.790 -0.2810  2.5908  1.0025
  390SOL    HW2 1170   1.121   2.208   2.701  0.8328 -0.2362 -0.2512
  391SOL     OW 1171   0.786   2.224   3.018  0.1209  0.6343  0.2499
  391SOL    HW1 1172   0.720   2.254   2.945 -0.0974  1.4274  0.0359
  391SOL    HW2 1173   0.754   2.137   3.063 -1.6895  0.4107  3.7304
  392SOL     OW 1174   3.015   2.780   1.845 -0.0758 -0.0687  0.0998
  392SOL    HW1 1175   2.924   2.741   1.824 -1.9775 -0.9288 -1.0126
  392SOL    HW2 1176   3.007   2.862   1.909  0.6351  0.2809  3.1850
  393SOL     OW 1177   1.967   2.502   0.155 -0.1139  0.1451 -0.9584
  393SOL    HW1 1178   1.948   2.461   0.245 -3.6512 -1.8166 -0.5272
  393SOL    HW2 1179   1.994   2.599   0.162 -1.5156  1.3007 -0.2988
  394SOL     OW 1180   0.749   0.623   2.160 -0.6811 -0.1841 -0.0552
  394SOL    HW1 1181   0.688   0.541   2.166  0.6470  2.7349 -1.0934
  394SOL    HW2 1182   0.847   0.604   2.184  0.0813 -0.5619 -1.5818
  395SOL     OW 1183   0.342   1.058   1.289  0.0379 -0.0880  0.7423
  395SOL    HW1 1184   0.275   1.010   1.351  0.5643  1.1813 -1.8306
  395SOL    HW2 1185   0.388   1.135   1.342  0.7841 -0.3400  2.7382
  396SOL     OW 1186   1.763   1.549   2.113 -0.3626 -0.3642 -0.9696
  396SOL    HW1 1187   1.752   1.467   2.047  0.2956 -2.1381 -2.0004
  396SOL    HW2 1188   1.686   1.547   2.183  1.9096 -0.5646  1.5753
  397SOL     OW 1189   0.910   0.460   0.052 -0.1490 -0.4389  0.6935
  397SOL    HW1 1190   0.907   0.467   0.154 -1.2737 -3.2752  0.2784
  397SOL    HW2 1191   0.834   0.406   0.011  0.5210 -0.4321 -2.1967
  398SOL     OW 1192   0.577   1.811   2.552  0.4775  0.5866 -0.4052
  398SOL    HW1 1193   0.619   1.893   2.605  2.9509  1.6484 -0.5668
  398SOL    HW2 1194   0.568   1.828   2.451 -2.3381  1.3097 -2.2876
  399SOL     OW 1195   2.855   1.868   2.093  0.5795  0.4886 -0.4084
  399SOL    HW1 1196   2.907   1.951   2.115 -2.7016 -0.6877  0.5259
  399SOL    HW2 1197   2.881   1.799   2.164 -1.1792  0.2817  1.3069
  400SOL     OW 1198   2.358   0.911   1.788  0.4060  0.3473 -0.0702
  400SOL    HW1 1199   2.338   0.973   1.709 -1.2891  1.8800  1.7353
  400SOL    HW2 1200   2.355   0.812   1.772 -0.6060  1.1305  1.8667
  401SOL     OW 1201   1.013   1.545   0.828  0.0510 -0.1067  0.2929
  401SOL    HW1 1202   1.027   1.593   0.914  1.3765 -0.1122 -1.2026
  401SOL    HW2 1203   1.101   1.530   0.783  0.4775  0.5893  2.7416
  402SOL     OW 1204   0.030   2.618   2.056 -0.1716 -0.2877 -0.4182
  402SOL    HW1 1205   0.007   2.685   1.980 -1.8465  0.6535 -1.5268
  402SOL    HW2 1206   0.128   2.595   2.062 -0.3235  0.1919  1.7865
  403SOL     OW 1207   0.494   1.488   2.419  0.6428 -0.2318 -0.4964
  403SOL    HW1 1208   0.418   1.540   2.464 -1.5197  0.5589  0.7033
  403SOL    HW2 1209   0.451   1.405   2.384 -0.8170  2.1673 -1.9287
  404SOL     OW 1210   1.854   2.006   1.527 -0.5303 -0.0693  0.4720
  404SOL    HW1 1211   1.843   2.091   1.583  0.1773 -0.6932 -3.9520
  404SOL    HW2 1212   1.801   2.007   1.438  0.4050  0.9395 -1.0027
  405SOL     OW 1213   2.920   2.757   2.892 -0.2018 -0.1949 -0.2695
  405SOL    HW1 1214   2.929   2.679   2.957  0.2099  0.3014  0.8465
  405SOL    HW2 1215   2.983   2.747   2.812 -0.1958 -1.5118 -0.0035
  406SOL     OW 1216   0.601   1.001   0.140  0.1085 -0.6169 -0.3648
  406SOL    HW1 1217   0.582   0.944   0.057  1.1181  1.5676  0.1561
  406SOL    HW2 1218   0.661   1.080   0.122 -0.5912  0.4869  2.2726
  407SOL     OW 1219   2.087   2.403   2.780 -0.0905 -1.0015 -0.0003
  407SOL    HW1 1220   2.106   2.307   2.769  1.3334  1.7294  2.0097
  407SOL    HW2 1221   2.143   2.451   2.709  0.6161 -1.0434 -2.6211
  408SOL     OW 1222   2.852   2.992   0.126 -0.2691  0.1026 -0.6137
  408SOL    HW1 1223   2.859   2.889   0.143 -1.7298  0.6342 -2.6821
  408SOL    HW2 1224   2.923   3.044   0.178  0.5395  2.1509  0.9707
  409SOL     OW 1225   2.267   1.455   0.877 -0.4132  0.0680 -0.1453
  409SOL    HW1 1226   2.252   1.529   0.807  0.6331  3.9421  0.1749
  409SOL    HW2 1227   2.275   1.361   0.836 -2.1647 -0.0197  0.7318
  410SOL     OW 1228   2.583   2.079   0.469  0.1840 -0.0794  0.5228
  410SOL    HW1 1229   2.495   2.028   0.472  0.5151 -0.1573 -0.5007
  410SOL    HW2 1230   2.558   2.174   0.486 -3.0284 -1.6815  0.0875
  411SOL     OW 1231   0.208   1.512   0.891 -0.2685 -0.8150 -0.1953
  411SOL    HW1 1232   0.264   1.597   0.879  0.9234  1.4623 -1.4295
  411SOL    HW2 1233   0.211   1.465   0.981  1.2051  0.2841  1.1262
  412SOL     OW 1234   2.266   2.256   0.557 -0.3278 -0.2400 -0.0534
  412SOL    HW1 1235   2.282   2.293   0.463 -1.8300  1.8108 -1.8547
  412SOL    HW2 1236   2.197   2.186   0.563  2.1403  3.0836 -0.7758
  413SOL     OW 1237   1.840   0.860   2.238  0.2939 -0.5102 -0.0390
  413SOL    HW1 1238   1.762   0.833   2.181 -0.0371 -3.8013  1.5757
  413SOL    HW2 1239   1.927   0.844   2.193 -2.8791  2.5576  1.5423
  414SOL     OW 1240   2.814   0.188   0.382 -0.3141  0.2214 -0.1515
  414SOL    HW1 1241   2.902   0.159   0.340  1.4487 -1.7928  2.1982
  414SOL    HW2 1242   2.764   0.101   0.418 -1.6628 -0.0824 -0.4896
  415SOL     OW 1243   0.907   1.979   1.432  0.0898  0.2024  0.3732
  415SOL    HW1 1244   0.837   1.925   1.379  0.7771 -1.4837  0.8990
  415SOL    HW2 1245   0.930   1.928   1.522  1.8075  0.6549  0.4323
  416SOL     OW 1246   0.509   2.819   2.814 -0.2977 -0.1652 -0.1016
  416SOL    HW1 1247   0.485   2.813   2.712  1.3686  0.8737 -1.5489
  416SOL    HW2 1248   0.609   2.836   2.826  1.6879  0.0424  0.5242
  417SOL     OW 1249   2.526   0.503   1.001 -0.1837 -0.3279  0.3856
  417SOL    HW1 1250   2.547   0.530   0.903  2.3408 -1.5987 -2.6796
  417SOL    HW2 1251   2.590   0.434   1.030  0.1835 -0.1594 -0.5103
  418SOL     OW 1252   0.101   0.599   2.830  0.0123  0.1607  0.6706
  418SOL    HW1 1253   0.039   0.623   2.911 -0.5526  0.1567  2.9038
  418SOL    HW2 1254   0.042   0.549   2.761 -1.1883  0.1296  1.1302
  419SOL     OW 1255   0.009   1.141   1.735 -0.0847 -0.1435 -0.3234
  419SOL    HW1 1256   3.025   1.148   1.663 -1.2348 -1.6058 -0.0012
  419SOL    HW2 1257   0.088   1.197   1.713 -0.4723  1.3039  1.0773
  420SOL     OW 1258   0.619   1.655   0.632  0.0535  0.3413  0.6463
  420SOL    HW1 1259   0.586   1.705   0.546 -1.5188  1.2181  0.8317
  420SOL    HW2 1260   0.722   1.658   0.633  0.6800  0.1788  0.3697
  421SOL     OW 1261   2.394   2.304   2.447  0.2318  0.3816  0.4061
  421SOL    HW1 1262   2.397   2.204   2.462 -0.6634 -1.0608  0.0203
  421SOL    HW2 1263   2.488   2.337   2.435 -1.7879  0.8327 -0.7182
  422SOL     OW 1264   2.781   0.564   2.837 -0.3159 -0.7721  0.5373
  422SOL    HW1 1265   2.823   0.609   2.756  1.7969 -0.3519 -2.9467
  422SOL    HW2 1266   2.734   0.477   2.815 -1.6186 -1.1768 -1.4829
  423SOL     OW 1267   1.313   2.272   0.871 -0.1409  0.3952 -0.0485
  423SOL    HW1 1268   1.387   2.278   0.944  0.6560 -0.2476 -0.1112
  423SOL    HW2 1269   1.229   2.222   0.898 -1.6791 -1.4740  0.2569
  424SOL     OW 1270   0.596   1.990   1.520 -0.3687  0.1767  0.1919
  424SOL    HW1 1271   0.587   2.084   1.482 -0.5505 -2.4429  0.7366
  424SOL    HW2 1272   0.626   1.923   1.451 -0.9075  2.2984 -2.0874
  425SOL     OW 1273   0.160   2.762   2.404 -0.2079 -0.5470 -0.3684
  425SOL    HW1 1274   0.172   2.674   2.361 -0.9377  2.2902 -1.9110
  425SOL    HW2 1275   0.059   2.776   2.410 -0.5805 -1.6390 -0.4613
  426SOL     OW 1276   1.644   0.749   0.701 -0.4426 -0.2110 -0.0519
  426SOL    HW1 1277   1.697   0.677   0.749 -0.9368 -0.7992  2.7412
  426SOL    HW2 1278   1.677   0.835   0.748 -2.3971 -1.1307  4.3147
  427SOL     OW 1279   0.374   1.178   0.109 -0.6079 -0.3650 -0.1789
  427SOL    HW1 1280   0.336   1.127   0.191 -1.2942  1.0278  2.4582
  427SOL    HW2 1281   0.460   1.133   0.074 -0.0388 -1.1420  0.6645
  428SOL     OW 1282   1.382   1.260   0.228 -0.2970 -0.0756  0.2615
  428SOL    HW1 1283   1.354   1.170   0.185  0.4736  0.5666 -1.6423
  428SOL    HW2 1284   1.400   1.319   0.149  1.4176  0.9743  1.7131
  429SOL     OW 1285   2.831   2.540   0.545  0.4985 -0.2490  0.2865
  429SOL    HW1 1286   2.783   2.599   0.610  2.6394 -0.9187 -0.4752
  429SOL    HW2 1287   2.897   2.596   0.492 -0.6851 -1.7714 -0.9853
  430SOL     OW 1288   0.713   2.580   2.482 -0.0490  0.0834 -0.0690
  430SOL    HW1 1289   0.650   2.552   2.556 -1.4141 -1.0265 -1.0142
  430SOL    HW2 1290   0.772   2.498   2.453  0.7355 -2.6143 -1.3631
  431SOL     OW 1291   2.925   1.258   0.559  0.0229 -0.1030  0.5404
  431SOL    HW1 1292   2.856   1.221   0.623  0.4532  1.6493 -0.6757
  431SOL    HW2 1293   2.981   1.181   0.522  1.9589 -1.1395 -1.3570
  432SOL     OW 1294   2.085   2.368   2.016 -0.1797 -0.1930  0.4917
  432SOL    HW1 1295   2.138   2.324   2.089 -0.9985  1.4027 -2.3071
  432SOL    HW2 1296   2.009   2.307   1.986 -1.4054 -1.6448 -1.2715
  433SOL     OW 1297   1.325   2.554   0.816  0.8301 -0.2948  0.7198
  433SOL    HW1 1298   1.341   2.459   0.846  0.5542 -0.4545  0.8919
  433SOL    HW2 1299   1.414   2.606   0.813  0.9556  3.8326  0.4891
  434SOL     OW 1300   0.764   2.054   2.020 -0.1169  0.0760 -0.3915
  434SOL    HW1 1301   0.815   2.142   2.008 -0.1231  1.6687  0.2996
  434SOL    HW2 1302   0.746   2.043   2.121  0.3015  2.0456 -1.6587
  435SOL     OW 1303   2.933   0.928   2.996  0.0218  0.6629 -0.4338
  435SOL    HW1 1304   2.979   0.977   3.071  2.7278  1.4993 -0.5370
  435SOL    HW2 1305   2.949   0.828   3.009 -0.2022 -1.2079 -0.0737
  436SOL     OW 1306   0.307   2.604   2.090 -0.3608  0.2901  0.5054
  436SOL    HW1 1307   0.369   2.682   2.066 -1.7198  0.2526  2.0245
  436SOL    HW2 1308   0.289   2.593   2.189  1.2614 -0.6834  1.2388
  437SOL     OW 1309   2.009   2.723   1.621  0.9280  0.0629  0.2355
  437SOL    HW1 1310   2.084   2.720   1.557 -2.0418 -1.2962  1.0182
  437SOL    HW2 1311   2.032   2.681   1.712 -0.1892 -1.3748  1.6347
  438SOL     OW 1312   0.260   1.711   0.590 -0.5768  0.1510 -0.0525
  438SOL    HW1 1313   0.230   1.619   0.567  0.7338  4.4350  0.7635
  438SOL    HW2 1314   0.276   1.735   0.688  1.5872  0.8029  0.1341
  439SOL     OW 1315   0.173   0.403   0.734 -0.2284  0.1027 -0.1550
  439SOL    HW1 1316   0.223   0.492   0.723 -1.1905  0.0719  0.2721
  439SOL    HW2 1317   0.200   0.356   0.821 -0.6143 -0.1280  1.9803
  440SOL     OW 1318   0.417   2.843   2.557 -0.6641 -0.0299  0.5230
  440SOL    HW1 1319   0.463   2.788   2.485 -1.7792 -0.6878 -1.6185
  440SOL    HW2 1320   0.329   2.873   2.515  1.1771 -1.9693 -0.0743
  441SOL     OW 1321   3.014   0.999   0.540  0.0445 -0.4658  0.4684
  441SOL    HW1 1322   0.023   0.992   0.579  0.4497 -1.4656  0.5642
  441SOL    HW2 1323   2.947   0.964   0.608 -1.0843  0.0448  0.3197
  442SOL     OW 1324   1.285   2.234   2.637 -0.1156  0.7574 -0.3232
  442SOL    HW1 1325   1.261   2.213   2.540  0.7554  0.1559  1.7104
  442SOL    HW2 1326   1.282   2.334   2.647 -0.5235 -1.4616  1.0641
  443SOL     OW 1327   0.649   0.048   0.286  0.0856 -0.1783  0.4182
  443SOL    HW1 1328   0.748   0.044   0.273  1.6270  2.1066  1.2574
  443SOL    HW2 1329   0.617   0.141   0.251 -1.6720  2.6348  0.9138
  444SOL     OW 1330   1.571   1.638   2.330  0.3353 -0.3032  0.7692
  444SOL    HW1 1331   1.636   1.715   2.316 -0.4251 -1.2130 -1.4765
  444SOL    HW2 1332   1.590   1.590   2.413  0.5098 -0.0769 -0.4735
  445SOL     OW 1333   2.911   0.540   0.526 -0.0914 -0.8025  0.3514
  445SOL    HW1 1334   2.987   0.479   0.555 -0.4585  0.4709 -0.0552
  445SOL    HW2 1335   2.892   0.526   0.428 -0.7970  2.1896  0.9222
  446SOL     OW 1336   1.995   1.005   0.987  0.3442  0.2868  0.4597
  446SOL    HW1 1337   1.925   0.932   0.983 -0.3905 -3.5068 -2.7963
  446SOL    HW2 1338   2.065   0.980   1.054 -1.4216  1.3304 -0.9974
  447SOL     OW 1339   3.072   0.933   0.282 -0.3367  0.1626 -0.1237
  447SOL    HW1 1340   0.042   0.855   0.246 -0.2113 -0.6006 -0.0967
  447SOL    HW2 1341   3.060   0.929   0.383 -0.9537  2.7114 -0.9780
  448SOL     OW 1342   1.924   1.782   1.248  1.2613 -0.4536 -0.1719
  448SOL    HW1 1343   1.827   1.799   1.218 -1.7913  1.5981 -0.3997
  448SOL    HW2 1344   1.973   1.862   1.218 -1.1277 -2.5369  0.2719
  449SOL     OW 1345   0.858   1.400   0.412 -0.3490  0.0949  0.1139
  449SOL    HW1 1346   0.951   1.364   0.389  0.7955 -0.9387 -2.1812
  449SOL    HW2 1347   0.863   1.452   0.497  2.3897  1.0775 -1.4260
  450SOL     OW 1348   2.767   2.700   2.320 -0.3205  0.0680 -0.6848
  450SOL    HW1 1349   2.687   2.683   2.381 -1.8926 -0.8205  0.6909
  450SOL    HW2 1350   2.730   2.736   2.229  1.0179  2.2103  2.8345
  451SOL     OW 1351   2.292   0.870   2.679  0.0103 -0.6211  0.6756
  451SOL    HW1 1352   2.259   0.966   2.704  0.4314  0.4536  0.7413
  451SOL    HW2 1353   2.300   0.860   2.578  1.7587 -0.7017 -0.1242
  452SOL     OW 1354   1.550   1.052   1.043 -0.1782 -0.0295 -0.4063
  452SOL    HW1 1355   1.466   0.998   1.016  1.7265 -2.1610 -0.6299
  452SOL    HW2 1356   1.580   1.033   1.140  0.9035 -0.7925  4.9398
  453SOL     OW 1357   1.758   0.564   1.610 -0.5503 -0.3033  0.2025
  453SOL    HW1 1358   1.730   0.544   1.708  1.9578  1.6256  0.7844
  453SOL    HW2 1359   1.794   0.660   1.604 -3.7178  2.7853  0.0850
  454SOL     OW 1360   2.631   1.111   2.699 -0.2162 -0.2859 -0.0925
  454SOL    HW1 1361   2.660   1.023   2.658  0.0686  0.5295 -0.9299
  454SOL    HW2 1362   2.578   1.102   2.786 -1.6686  3.4663  0.0628
  455SOL     OW 1363   2.765   1.640   1.229  0.7015 -0.8237  0.3345
  455SOL    HW1 1364   2.756   1.540   1.210 -0.3540  2.5224 -2.3076
  455SOL    HW2 1365   2.788   1.653   1.326  1.0655 -0.3897  0.9079
  456SOL     OW 1366   1.319   3.040   1.722 -0.2428  0.4851 -0.4181
  456SOL    HW1 1367   1.262   0.036   1.729  0.1849  0.9204 -1.3424
  456SOL    HW2 1368   1.419   3.065   1.722  1.1027  2.7285 -0.0561
  457SOL     OW 1369   1.584   2.810   1.043 -0.1047 -0.4963 -0.1939
  457SOL    HW1 1370   1.645   2.737   1.081 -0.6058 -2.5226 -1.6534
  457SOL    HW2 1371   1.612   2.900   1.082  0.8445 -0.7568  1.5070
  458SOL     OW 1372   2.873   2.863   0.772  0.3012 -0.1213  0.2351
  458SOL    HW1 1373   2.902   2.927   0.697  1.0937  0.5373 -0.0911
  458SOL    HW2 1374   2.787   2.895   0.814 -1.4016  0.0458 -0.1131
  459SOL     OW 1375   1.727   0.964   0.240  0.0340  0.4472 -0.2919
  459SOL    HW1 1376   1.710   1.007   0.147 -0.7826 -0.8922  2.5875
  459SOL    HW2 1377   1.741   0.861   0.235 -0.0142 -1.7279  1.1027
  460SOL     OW 1378   0.296   2.597   2.624  0.1776  0.6203  0.5464
  460SOL    HW1 1379   0.221   2.660   2.651  0.9196 -0.2490 -0.4164
  460SOL    HW2 1380   0.285   2.571   2.526 -1.1822  0.9163 -0.0184
  461SOL     OW 1381   0.402   1.439   0.212 -0.1552  0.0219  0.3378
  461SOL    HW1 1382   0.430   1.418   0.306  0.1302 -2.6894 -1.6185
  461SOL    HW2 1383   0.395   1.350   0.168 -0.7399  1.7784 -0.0866
  462SOL     OW 1384   1.710   2.041   0.525  0.0202 -0.4959 -0.0397
  462SOL    HW1 1385   1.690   2.012   0.617 -1.0568 -0.7050 -2.5881
  462SOL    HW2 1386   1.688   1.975   0.454 -1.7686  1.4612  1.8064
  463SOL     OW 1387   2.641   0.350   0.527 -0.0959 -0.4366  0.7570
  463SOL    HW1 1388   2.585   0.378   0.444 -0.2826 -0.4774 -0.4085
  463SOL    HW2 1389   2.710   0.280   0.501 -1.2993  0.6675  0.9487
  464SOL     OW 1390   0.826   2.112   0.604 -0.0773  0.0269 -0.2526
  464SOL    HW1 1391   0.891   2.182   0.569 -0.9881  0.8202  1.3651
  464SOL    HW2 1392   0.788   2.064   0.522 -1.1362  0.9855 -2.1236
  465SOL     OW 1393   2.277   0.175   1.141  0.0742 -0.4083 -0.7512
  465SOL    HW1 1394   2.201   0.224   1.187  1.0426  2.7032  2.3061
  465SOL    HW2 1395   2.360   0.225   1.161  0.0321 -0.1813  2.3449
  466SOL     OW 1396   2.113   0.006   0.630  0.4973 -0.1447 -0.3041
  466SOL    HW1 1397   2.183   0.075   0.608  2.1258  1.7607  2.1281
  466SOL    HW2 1398   2.160   3.000   0.639 -1.4330 -0.3782  1.6317
  467SOL     OW 1399   1.189   0.634   2.162  0.1756 -0.0787  0.0812
  467SOL    HW1 1400   1.220   0.732   2.171 -2.2209 -0.5331  0.8365
  467SOL    HW2 1401   1.245   0.585   2.093 -2.5164 -0.0694 -0.1013
  468SOL     OW 1402   2.700   0.321   2.095 -0.3569  0.1146 -0.9253
  468SOL    HW1 1403   2.601   0.356   2.098 -2.1511 -0.6013 -0.8204
  468SOL    HW2 1404   2.768   0.391   2.131  2.6285  0.6883  0.6965
  469SOL     OW 1405   1.141   2.386   1.915  0.2312 -0.1429 -0.2932
  469SOL    HW1 1406   1.201   2.396   1.832  0.5778  2.2904  1.7824
  469SOL    HW2 1407   1.136   2.472   1.978  0.0556  3.0811  0.8980
  470SOL     OW 1408   2.053   1.053   2.047 -0.2430  0.2183 -0.1734
  470SOL    HW1 1409   2.139   1.005   2.079 -1.2572  0.2441 -1.2322
  470SOL    HW2 1410   2.071   1.147   2.025  0.4353 -1.1348 -0.8197
  471SOL     OW 1411   3.032   1.442   2.994 -0.2725 -0.4355  0.1316
  471SOL    HW1 1412   3.005   1.410   2.900 -1.5327 -0.1394 -0.2406
  471SOL    HW2 1413   0.005   1.371   3.040  0.8792 -1.7636  0.5225
  472SOL     OW 1414   0.542   2.169   0.483 -0.4510 -0.4721 -0.2674
  472SOL    HW1 1415   0.492   2.081   0.480  1.8141 -2.5260 -2.0264
  472SOL    HW2 1416   0.612   2.176   0.411  0.1916 -1.7934  0.7059
  473SOL     OW 1417   1.056   2.132   2.171  0.1198 -0.3899  0.0816
  473SOL    HW1 1418   1.009   2.208   2.126  2.0437  0.3437 -2.1482
  473SOL    HW2 1419   1.147   2.164   2.201 -2.8713  1.2329 -0.4513
  474SOL     OW 1420   0.945   3.011   2.505 -0.0583  0.5166  0.1703
  474SOL    HW1 1421   0.918   2.930   2.450  1.3369 -0.7004  0.4506
  474SOL    HW2 1422   1.033   3.003   2.549 -1.6822 -1.2094 -3.3164
  475SOL     OW 1423   0.907   2.299   0.272 -0.3491  0.2643 -0.1478
  475SOL    HW1 1424   0.946   2.287   0.363  1.6518  0.2427 -1.1439
  475SOL    HW2 1425   0.944   2.230   0.208 -0.4889 -2.2721 -4.5016
  476SOL     OW 1426   0.778   0.523   0.957 -0.0590 -0.7255  0.4107
  476SOL    HW1 1427   0.703   0.462   0.983  1.2121  0.6063 -0.2165
  476SOL    HW2 1428   0.863   0.471   0.925 -3.3256 -0.2293 -2.9164
  477SOL     OW 1429   2.059   1.996   1.142  0.2327 -0.9155 -0.0498
  477SOL    HW1 1430   2.125   1.989   1.065  1.3563  0.9637 -0.3358
  477SOL    HW2 1431   2.003   2.083   1.133 -2.7977  1.3632 -0.9238
  478SOL     OW 1432   2.994   0.632   3.016 -0.2930  0.2054  0.1713
  478SOL    HW1 1433   2.992   0.619   0.033  1.1294 -1.5990  0.1918
  478SOL    HW2 1434   2.911   0.593   2.971 -2.4740 -0.8331 -1.8454
  479SOL     OW 1435   0.698   2.966   1.230 -0.0709  0.0526  0.6399
  479SOL    HW1 1436   0.693   2.968   1.331  0.4668  1.6454 -0.9502
  479SOL    HW2 1437   0.791   2.946   1.193 -1.5295 -1.9608  1.4581
  480SOL     OW 1438   2.584   2.583   0.323  0.6510  0.2392 -0.1216
  480SOL    HW1 1439   2.585   2.541   0.227 -0.1813 -0.4317 -2.5049
  480SOL    HW2 1440   2.592   2.506   0.388 -1.6689 -1.0255 -1.6833
  481SOL     OW 1441   2.710   0.403   1.236  0.2223  0.3491 -0.0255
  481SOL    HW1 1442   2.720   0.324   1.173 -0.1784  0.5237 -1.1492
  481SOL    HW2 1443   2.783   0.394   1.306  0.0863 -0.1951 -0.2309
  482SOL     OW 1444   0.916   2.863   1.096 -0.2083  0.1968 -0.0925
  482SOL    HW1 1445   0.943   2.950   1.055 -0.4332 -1.5025  0.8692
  482SOL    HW2 1446   0.997   2.820   1.140  0.2123 -1.0984 -1.6131
  483SOL     OW 1447   0.141   1.462   2.696 -0.4666 -0.5307  0.0011
  483SOL    HW1 1448   0.145   1.475   2.794 -1.5133 -1.1461 -2.3670
  483SOL    HW2 1449   0.055   1.409   2.672 -2.6088 -1.4312  1.1676
  484SOL     OW 1450   1.819   1.783   1.997 -0.8777  0.5386 -0.1637
  484SOL    HW1 1451   1.860   1.769   1.904  0.4857 -0.4135 -0.3418
  484SOL    HW2 1452   1.814   1.690   2.042  0.5934 -2.5534  1.6092
  485SOL     OW 1453   0.216   0.090   2.544  0.0298 -0.4583  0.6601
  485SOL    HW1 1454   0.233   0.164   2.609 -1.0432 -1.3502 -2.4560
  485SOL    HW2 1455   0.157   0.020   2.581  1.7522  3.8737 -2.2659
  486SOL     OW 1456   1.297   2.839   0.649  0.1363  0.6718  0.2999
  486SOL    HW1 1457   1.337   2.769   0.708  0.7825 -0.8769  0.6157
  486SOL    HW2 1458   1.343   2.847   0.560 -1.2318  2.6612  2.6654
  487SOL     OW 1459   1.385   0.017   0.747  0.3055  0.1063  0.0632
  487SOL    HW1 1460   1.408   3.024   0.683  0.8730 -0.2599 -0.8938
  487SOL    HW2 1461   1.463   0.037   0.806 -0.9963  0.3861 -1.7574
  488SOL     OW 1462   2.220   0.817   0.703 -0.5363 -0.2395  0.2386
  488SOL    HW1 1463   2.321   0.821   0.696 -0.1162 -1.6523  1.0220
  488SOL    HW2 1464   2.167   0.902   0.672 -0.1488  1.3574 -0.9519
  489SOL     OW 1465   0.983   0.024   1.333  0.4103  0.0164 -0.1084
  489SOL    HW1 1466   1.083   0.029   1.310 -1.6616  0.0842 -0.6184
  489SOL    HW2 1467   0.928   0.097   1.286 -0.7777  1.3874 -1.2732
  490SOL     OW 1468   0.882   0.756   0.196  0.4509 -0.3640  0.1450
  490SOL    HW1 1469   0.834   0.672   0.223 -0.9304  0.1335  2.0093
  490SOL    HW2 1470   0.832   0.838   0.234 -0.3069 -0.9039  1.0730
  491SOL     OW 1471   1.102   2.905   0.391 -0.4403  0.4277 -0.5788
  491SOL    HW1 1472   1.175   2.883   0.324  1.5936  0.9674  0.6284
  491SOL    HW2 1473   1.045   2.826   0.422  2.0085 -0.1583  0.2318
  492SOL     OW 1474   1.103   1.561   1.696  0.3674  0.0684 -0.0884
  492SOL    HW1 1475   1.150   1.584   1.780 -2.7744 -0.7585 -1.4613
  492SOL    HW2 1476   1.077   1.464   1.694 -1.0254  3.7337 -0.6646
  493SOL     OW 1477   0.559   1.771   0.384  0.0348  0.0434  0.3925
  493SOL    HW1 1478   0.468   1.821   0.380 -0.2219 -2.0832 -1.4008
  493SOL    HW2 1479   0.562   1.704   0.305  0.1840 -0.3464 -2.0395
  494SOL     OW 1480   2.016   1.824   0.402  0.0060 -0.1876 -0.5136
  494SOL    HW1 1481   2.063   1.747   0.451 -0.9173 -2.2269 -1.3419
  494SOL    HW2 1482   1.926   1.795   0.368  0.4068 -1.9137  0.8876
  495SOL     OW 1483   0.310   1.223   2.658 -0.3245 -0.2290  0.2192
  495SOL    HW1 1484   0.290   1.320   2.665 -2.7829  0.5671  1.0823
  495SOL    HW2 1485   0.244   1.174   2.597 -0.8439  0.3932 -0.2091
  496SOL     OW 1486   0.479   0.047   2.488 -0.4772 -0.1110 -0.1275
  496SOL    HW1 1487   0.382   0.046   2.523  0.3185 -0.1900  3.1673
  496SOL    HW2 1488   0.484   3.065   2.412 -3.4230 -1.4127 -0.7310
  497SOL     OW 1489   1.643   1.219   0.709 -0.2464 -0.2494 -0.3887
  497SOL    HW1 1490   1.604   1.195   0.619 -2.8340  1.8103  0.7827
  497SOL    HW2 1491   1.598   1.300   0.755  0.7132  0.9951 -0.7806
  498SOL     OW 1492   2.836   2.698   0.174  0.2589 -0.0212  0.4001
  498SOL    HW1 1493   2.870   2.628   0.109  2.3582  0.0861  1.1755
  498SOL    HW2 1494   2.740   2.714   0.157  4.3045 -1.5448  1.7235
  499SOL     OW 1495   2.002   2.434   0.494  0.3898  0.2950 -0.2448
  499SOL    HW1 1496   1.939   2.357   0.455 -0.0764 -1.4569  1.1915
  499SOL    HW2 1497   2.063   2.470   0.423 -1.2508  0.7651  0.2185
  500SOL     OW 1498   0.538   0.561   2.690  0.7202 -0.2346 -0.5821
  500SOL    HW1 1499   0.583   0.652   2.710  1.5312  2.3564  1.1912
  500SOL    HW2 1500   0.604   0.490   2.709 -3.3173  1.6360 -0.2409
  501SOL     OW 1501   1.596   3.063   1.746  0.3035  0.1846 -0.2600
  501SOL    HW1 1502   1.635   2.987   1.799 -3.4435 -1.4815  2.6787
  501SOL    HW2 1503   1.660   3.080   1.673  0.8327 -1.2849 -0.0918
  502SOL     OW 1504   0.276   0.127   2.251  0.3836  0.1177  0.0266
  502SOL    HW1 1505   0.290   0.129   2.350 -0.0503 -2.5380 -3.2213
  502SOL    HW2 1506   0.241   0.033   2.226  1.6313 -0.4219  4.2375
  503SOL     OW 1507   1.670   2.426   2.263 -0.3750 -0.0572  0.7566
  503SOL    HW1 1508   1.755   2.466   2.229  1.5763  3.8719  0.9281
  503SOL    HW2 1509   1.674   2.325   2.242  1.7143 -0.7195 -1.5032
  504SOL     OW 1510   1.903   0.317   1.654 -0.3457  0.2493 -0.0019
  504SOL    HW1 1511   1.846   0.239   1.622 -0.1212 -0.1815 -1.0011
  504SOL    HW2 1512   1.859   0.407   1.640  3.8447 -0.4510 -0.0308
  505SOL     OW 1513   2.580   1.664   1.523 -0.2247 -0.2498  0.7855
  505SOL    HW1 1514   2.674   1.699   1.506  0.2613  1.3995 -3.2034
  505SOL    HW2 1515   2.524   1.686   1.444 -0.5290 -0.0151  1.6460
  506SOL     OW 1516   0.096   1.295   2.010 -0.1236 -0.2239  0.0687
  506SOL    HW1 1517   0.037   1.227   2.057 -1.3215 -0.0096 -0.9947
  506SOL    HW2 1518   0.060   1.297   1.914  1.0924 -2.1893 -2.3575
  507SOL     OW 1519   0.365   2.936   1.373  0.1282  0.0934 -0.3517
  507SOL    HW1 1520   0.412   3.024   1.396 -0.5882 -1.5238  2.3363
  507SOL    HW2 1521   0.432   2.862   1.375  0.3745  1.7412  2.0154
  508SOL     OW 1522   0.998   0.699   1.413  0.2631  0.7456 -0.1035
  508SOL    HW1 1523   0.945   0.678   1.497  0.3314 -1.6436 -1.6924
  508SOL    HW2 1524   0.942   0.687   1.330  4.1300 -0.7292  1.1655
  509SOL     OW 1525   1.489   2.586   1.762  0.6296  0.3402 -0.0638
  509SOL    HW1 1526   1.481   2.672   1.708 -0.2236 -0.2305  1.7398
  509SOL    HW2 1527   1.446   2.598   1.858 -0.2792 -2.2713 -0.2072
  510SOL     OW 1528   2.485   1.115   2.960  0.0301  0.0233  0.2563
  510SOL    HW1 1529   2.391   1.117   2.992  1.9160 -0.1578 -2.0236
  510SOL    HW2 1530   2.533   1.029   2.985  0.1745 -1.8829 -1.0369
  511SOL     OW 1531   0.438   1.294   1.511  0.0611  0.5376  0.2106
  511SOL    HW1 1532   0.476   1.356   1.440 -0.3252  1.3945 -1.4098
  511SOL    HW2 1533   0.501   1.267   1.582  1.3966 -1.9885  0.7835
  512SOL     OW 1534   2.674   1.941   0.254 -0.2970 -0.1047  0.8173
  512SOL    HW1 1535   2.670   1.990   0.341  2.6284 -0.9971  0.0826
  512SOL    HW2 1536   2.748   1.870   0.249 -2.7260  1.2094  0.7183
  513SOL     OW 1537   0.708   1.885   2.257 -0.0993  0.5031  0.4582
  513SOL    HW1 1538   0.795   1.923   2.292 -2.2519  1.0186  1.7162
  513SOL    HW2 1539   0.698   1.784   2.276  0.2783  1.1805  1.8749
  514SOL     OW 1540   3.081   2.226   1.654  0.1418 -0.8707  0.4789
  514SOL    HW1 1541   0.043   2.148   1.692 -3.4953  0.6077 -0.2957
  514SOL    HW2 1542   2.980   2.208   1.660  1.2727 -1.5342  0.4753
  515SOL     OW 1543   1.910   1.172   1.640 -0.2145  0.6654  0.3758
  515SOL    HW1 1544   1.971   1.142   1.713  0.6223  0.3433  1.3689
  515SOL    HW2 1545   1.813   1.137   1.649  1.5308 -2.0465  0.4950
  516SOL     OW 1546   2.370   2.838   0.356 -0.2565  0.0078  0.4061
  516SOL    HW1 1547   2.364   2.908   0.277  1.7944  3.0250 -0.9446
  516SOL    HW2 1548   2.463   2.824   0.384 -1.7120 -2.0900 -0.4720
  517SOL     OW 1549   0.994   1.648   3.007  0.0435  0.0906 -0.6097
  517SOL    HW1 1550   1.027   1.677   2.915  0.4330  0.2555  0.5363
  517SOL    HW2 1551   1.067   1.596   3.059 -0.5801 -2.8485  1.6013
  518SOL     OW 1552   1.750   2.831   1.593  0.1541 -0.0326  0.0036
  518SOL    HW1 1553   1.760   2.883   1.505 -0.4076 -0.2297  1.7465
  518SOL    HW2 1554   1.835   2.774   1.607  0.9107  2.1411 -0.4445
  519SOL     OW 1555   2.076   2.628   0.892  0.3322  0.1253 -0.0614
  519SOL    HW1 1556   2.069   2.722   0.925  1.3443  0.5516 -2.4213
  519SOL    HW2 1557   2.173   2.599   0.915 -0.2619 -3.3578  1.6535
  520SOL     OW 1558   3.024   2.278   2.020 -0.4585 -0.0429 -0.6424
  520SOL    HW1 1559   3.004   2.226   2.107  0.6491  2.8224  0.9949
  520SOL    HW2 1560   2.952   2.349   2.000 -1.2194  0.2049  0.2999
  521SOL     OW 1561   2.668   0.854   2.557  0.2417  0.1193  0.3058
  521SOL    HW1 1562   2.598   0.822   2.626 -1.2022 -1.3944  1.4613
  521SOL    HW2 1563   2.749   0.790   2.560 -1.3686 -0.5508  1.7998
  522SOL     OW 1564   0.795   0.684   2.531  0.0218  0.0689  0.2099
  522SOL    HW1 1565   0.879   0.652   2.578 -0.9691 -0.5090  0.2779
  522SOL    HW2 1566   0.769   0.629   2.451  1.2840  0.3415 -1.0786
  523SOL     OW 1567   0.124   2.152   0.831 -0.1575  0.1993  0.1236
  523SOL    HW1 1568   0.179   2.077   0.876 -1.2391 -0.1391  1.0992
  523SOL    HW2 1569   0.165   2.188   0.753 -2.9474 -0.0284  0.9356
  524SOL     OW 1570   1.995   2.674   2.863  0.1944 -0.4563 -0.5822
  524SOL    HW1 1571   2.023   2.581   2.838 -1.9150 -0.4321  0.8585
  524SOL    HW2 1572   2.047   2.715   2.947 -1.8519  0.3530  1.1988
  525SOL     OW 1573   2.265   0.519   1.444  0.6038 -0.3220  0.1869
  525SOL    HW1 1574   2.356   0.526   1.398  1.6658 -3.1202 -0.6898
  525SOL    HW2 1575   2.252   0.423   1.468 -1.5643  2.7259 -2.1170
  526SOL     OW 1576   0.945   2.696   0.451  0.0053  0.3126  0.0847
  526SOL    HW1 1577   0.888   2.698   0.535 -0.2692  4.5365  0.1045
  526SOL    HW2 1578   0.883   2.661   0.372  0.8458  1.5555 -4.6591
  527SOL     OW 1579   2.224   2.856   0.602 -0.3104 -0.2559 -0.3255
  527SOL    HW1 1580   2.166   2.771   0.616  1.0194 -1.2595  0.2106
  527SOL    HW2 1581   2.265   2.844   0.510 -0.9605  1.9783  1.4978
  528SOL     OW 1582   1.650   0.664   3.087  0.0816 -0.1543  0.2477
  528SOL    HW1 1583   1.713   0.691   0.076  0.8465  0.7670  1.4191
  528SOL    HW2 1584   1.627   0.565   0.010  0.6708  3.4248 -2.6824
  529SOL     OW 1585   1.310   1.574   2.280 -0.0323 -0.3652 -0.5188
  529SOL    HW1 1586   1.406   1.589   2.243  4.2470  2.2757 -0.2743
  529SOL    HW2 1587   1.304   1.598   2.380  0.4590  1.3205  0.5607
  530SOL     OW 1588   2.358   2.995   0.153 -0.1430  0.0323 -0.0117
  530SOL    HW1 1589   2.269   3.046   0.146  0.2627 -1.5988  2.4450
  530SOL    HW2 1590   2.368   2.942   0.068  2.7317  2.3687  2.0011
  531SOL     OW 1591   1.767   1.119   3.077  0.1155  0.1145 -0.3170
  531SOL    HW1 1592   1.862   1.092   3.058  0.9663 -0.1925 -0.2939
  531SOL    HW2 1593   1.714   1.126   2.992  2.0647  0.9865  0.2022
  532SOL     OW 1594   1.715   0.297   0.811 -0.0988  0.0939  0.3052
  532SOL    HW1 1595   1.699   0.397   0.803 -0.1225 -0.5226 -1.3284
  532SOL    HW2 1596   1.809   0.275   0.851 -0.0875 -0.2023  0.0055
  533SOL     OW 1597   0.629   0.836   2.687  0.1550  0.1010  0.4381
  533SOL    HW1 1598   0.685   0.792   2.609 -0.3228 -1.0153 -1.6886
  533SOL    HW2 1599   0.604   0.933   2.665 -0.2206  0.0628  0.1305
  534SOL     OW 1600   1.449   0.149   0.064 -0.8824 -0.3902  0.0991
  534SOL    HW1 1601   1.468   0.108   0.156  0.5511 -1.1491  1.8832
  534SOL    HW2 1602   1.479   0.088   3.074 -3.0567  0.0416  2.1023
  535SOL     OW 1603   0.818   2.493   2.960  0.0791  0.6421 -0.4568
  535SOL    HW1 1604   0.726   2.542   2.965  0.0059 -1.6923  1.7555
  535SOL    HW2 1605   0.803   2.418   3.028  0.3776  0.1449  2.5935
  536SOL     OW 1606   0.441   3.002   0.403  0.2541 -0.0827  0.1829
  536SOL    HW1 1607   0.522   3.062   0.382  1.8697  0.1599 -1.0353
  536SOL    HW2 1608   0.452   2.952   0.490 -0.8140  1.5841  0.2576
  537SOL     OW 1609   1.785   0.322   0.176 -0.2828 -0.2816  0.4157
  537SOL    HW1 1610   1.728   0.358   0.097  0.7109  1.3408  0.3633
  537SOL    HW2 1611   1.748   0.349   0.269 -2.4671  0.9940 -0.8707
  538SOL     OW 1612   2.662   2.195   2.755 -0.6438  0.0886 -0.3236
  538SOL    HW1 1613   2.592   2.262   2.786 -3.0375 -0.3486  2.2953
  538SOL    HW2 1614   2.618   2.113   2.717  1.3777 -0.9232  2.3354
  539SOL     OW 1615   2.663   1.733   2.904  0.0744 -0.1115 -0.2635
  539SOL    HW1 1616   2.606   1.806   2.946  0.7064  1.4636 -0.6881
  539SOL    HW2 1617   2.717   1.677   2.977  0.7035  0.6973 -0.5497
  540SOL     OW 1618   0.949   2.850   1.954 -0.4684  0.0282 -0.1152
  540SOL    HW1 1619   0.956   2.946   1.991  1.3571 -0.7951  0.0586
  540SOL    HW2 1620   0.939   2.850   1.852 -1.3733  0.2623 -0.6399
  541SOL     OW 1621   2.673   3.077   2.234 -0.1081  0.3551 -0.2751
  541SOL    HW1 1622   2.617   0.049   2.167 -1.3451  1.5056 -1.7742
  541SOL    HW2 1623   2.668   2.978   2.205  1.0175  0.4012 -1.6011
  542SOL     OW 1624   0.279   0.844   2.872 -0.5886  0.1837 -0.2419
  542SOL    HW1 1625   0.215   0.922   2.854 -0.2023  1.1787  0.8468
  542SOL    HW2 1626   0.223   0.755   2.885  0.0044 -1.7317  2.4366
  543SOL     OW 1627   0.193   0.802   0.859 -0.5666 -0.9374 -0.4746
  543SOL    HW1 1628   0.239   0.803   0.951  1.5138  1.4865  0.4813
  543SOL    HW2 1629   0.222   0.728   0.800 -0.0371  1.0682  0.3287
  544SOL     OW 1630   2.522   0.547   1.361 -0.2583  0.4063 -0.2989
  544SOL    HW1 1631   2.588   0.486   1.312  1.5567 -0.9815 -2.7112
  544SOL    HW2 1632   2.555   0.640   1.340 -0.7486  1.8046  0.9422
  545SOL     OW 1633   1.382   1.889   0.519  0.0907 -0.2760 -0.0501
  545SOL    HW1 1634   1.388   1.964   0.589 -2.5016  0.1813  1.5861
  545SOL    HW2 1635   1.430   1.910   0.427  2.0423  1.1722 -3.1335
  546SOL     OW 1636   2.173   2.737   1.381  0.1030  0.0949 -0.1328
  546SOL    HW1 1637   2.088   2.700   1.338  0.4250 -1.5368  0.3265
  546SOL    HW2 1638   2.251   2.739   1.315 -0.8633  0.4961 -0.5091
  547SOL     OW 1639   0.837   2.343   2.357 -0.3693  0.3257 -0.1833
  547SOL    HW1 1640   0.759   2.322   2.300  1.5596  0.8822  1.1267
  547SOL    HW2 1641   0.873   2.257   2.396  0.8780 -1.8703 -3.7761
  548SOL     OW 1642   1.289   0.711   2.718 -0.3031  0.1520  0.0914
  548SOL    HW1 1643   1.280   0.671   2.812 -0.1934 -1.8586  2.6145
  548SOL    HW2 1644   1.381   0.691   2.682 -1.3265 -0.7111  1.8383
  549SOL     OW 1645   2.791   0.735   0.280 -0.6541  0.5892  0.3875
  549SOL    HW1 1646   2.695   0.716   0.295 -1.7599  1.8555 -1.3445
  549SOL    HW2 1647   2.801   0.830   0.228  0.2865  3.5135  0.7103
  550SOL     OW 1648   2.185   1.143   0.328  0.2099 -0.0538 -0.8717
  550SOL    HW1 1649   2.286   1.143   0.323 -2.3531  3.2385 -2.0643
  550SOL    HW2 1650   2.145   1.214   0.396 -1.2540  0.1857 -1.4617
  551SOL     OW 1651   1.334   0.314   1.066  0.1869  1.0090 -0.0315
  551SOL    HW1 1652   1.253   0.369   1.078  1.2785 -1.4574  2.0030
  551SOL    HW2 1653   1.417   0.364   1.096  0.7295 -0.7039  1.7540
  552SOL     OW 1654   2.298   2.789   2.449  0.7346 -0.2281  0.2818
  552SOL    HW1 1655   2.213   2.745   2.470 -1.4988 -0.0225 -0.2554
  552SOL    HW2 1656   2.280   2.887   2.467 -2.0947 -2.9206  0.6491
  553SOL     OW 1657   0.496   2.970   2.260  0.2507 -0.5193 -0.8280
  553SOL    HW1 1658   0.511   2.874   2.284 -1.9654  3.1948 -0.7099
  553SOL    HW2 1659   0.460   2.976   2.161  1.5403  2.2690 -3.3547
  554SOL     OW 1660   0.489   0.070   1.434  0.1645  0.1974  0.4908
  554SOL    HW1 1661   0.467   0.170   1.416 -0.4149  4.1746  0.0507
  554SOL    HW2 1662   0.584   0.062   1.473  0.9287  0.6603 -0.8379
  555SOL     OW 1663   2.577   1.711   2.125 -0.2596 -0.3196  0.1294
  555SOL    HW1 1664   2.499   1.687   2.061  0.4911  0.3968 -0.7902
  555SOL    HW2 1665   2.654   1.752   2.073 -0.7654 -1.0986  0.9074
  556SOL     OW 1666   1.154   0.395   3.058 -0.3565 -0.0562  0.2296
  556SOL    HW1 1667   1.155   0.343   2.973  2.5889 -0.0497  3.5349
  556SOL    HW2 1668   1.060   0.410   0.008  1.5784  2.3751 -1.4639
  557SOL     OW 1669   0.314   2.030   2.439  0.5938  0.2586  0.0413
  557SOL    HW1 1670   0.226   1.987   2.412 -0.2771  2.4487 -1.8671
  557SOL    HW2 1671   0.373   2.044   2.353  1.9888 -0.9902  0.7158
  558SOL     OW 1672   2.030   0.526   2.794 -0.0898  0.3009 -0.1683
  558SOL    HW1 1673   2.083   0.517   2.706 -0.5203  1.8354 -2.6961
  558SOL    HW2 1674   1.982   0.438   2.810  3.2459 -2.8334  1.1893
  559SOL     OW 1675   2.238   1.888   1.632  0.3204  0.1761  0.3536
  559SOL    HW1 1676   2.227   1.803   1.687  0.2334  1.7163  0.9973
  559SOL    HW2 1677   2.199   1.880   1.538  0.3066 -0.3131 -3.2549
  560SOL     OW 1678   2.086   0.712   2.172  0.3242  0.2047 -0.0834
  560SOL    HW1 1679   2.169   0.720   2.224 -1.6045 -0.6962  2.3817
  560SOL    HW2 1680   2.109   0.686   2.073 -0.3074 -0.4982 -0.8591
  561SOL     OW 1681   0.242   0.237   2.811  0.8546 -0.3605 -0.3342
  561SOL    HW1 1682   0.177   0.268   2.883  0.4777 -2.1543 -0.8001
  561SOL    HW2 1683   0.295   0.158   2.851  0.1617 -0.1760  1.4786
  562SOL     OW 1684   0.814   1.577   1.440  0.1335  0.3088 -0.0864
  562SOL    HW1 1685   0.909   1.596   1.417 -0.2038 -0.2018  0.1431
  562SOL    HW2 1686   0.808   1.521   1.527 -0.6857  2.1168  0.1363
  563SOL     OW 1687   1.086   0.222   2.861  0.1855  0.0488  0.3478
  563SOL    HW1 1688   1.052   0.161   2.937  0.6018  0.6741  1.0477
  563SOL    HW2 1689   1.150   0.176   2.797  1.8129 -0.0925 -1.5083
  564SOL     OW 1690   2.963   2.278   0.805 -0.2167  0.0146 -0.1622
  564SOL    HW1 1691   3.038   2.213   0.828 -3.2796 -1.4047  0.7580
  564SOL    HW2 1692   2.979   2.366   0.848  0.2619 -2.4413 -2.4685
  565SOL     OW 1693   0.426   2.097   1.139 -0.2449  0.4267  0.1428
  565SOL    HW1 1694   0.389   2.082   1.233 -0.8788  2.5081  1.0253
  565SOL    HW2 1695   0.448   2.194   1.122  0.9401 -0.2921  0.9165
  566SOL     OW 1696   1.655   2.969   2.475 -0.2429 -0.0084 -0.8384
  566SOL    HW1 1697   1.590   3.031   2.431 -2.4538  0.6603 -0.6691
  566SOL    HW2 1698   1.734   2.956   2.412 -0.6066  0.2792  0.9992
  567SOL     OW 1699   2.391   2.940   0.802  0.0188  0.6863  0.0803
  567SOL    HW1 1700   2.358   2.975   0.894  3.4415 -1.1724 -1.1336
  567SOL    HW2 1701   2.318   2.896   0.748 -0.4534 -2.2533 -0.5483
  568SOL     OW 1702   1.488   1.416   0.857  0.4814  0.3825 -0.0033
  568SOL    HW1 1703   1.390   1.388   0.862  0.0161  0.4690  0.8693
  568SOL    HW2 1704   1.494   1.516   0.844 -3.5669 -0.7834  0.7135
  569SOL     OW 1705   2.697   1.367   2.606 -0.0430  0.3782 -0.0317
  569SOL    HW1 1706   2.644   1.428   2.666 -1.1201 -0.4316 -0.7031
  569SOL    HW2 1707   2.670   1.268   2.621 -0.1980 -1.5271 -0.5283
  570SOL     OW 1708   3.010   0.187   1.723 -0.2413 -0.0735  0.0458
  570SOL    HW1 1709   3.052   0.167   1.812  1.7985 -0.3692 -1.7567
  570SOL    HW2 1710   3.026   0.110   1.661 -1.1713  0.6746 -0.2166
  571SOL     OW 1711   0.235   0.126   1.856  0.0427  0.1117  1.0271
  571SOL    HW1 1712   0.306   0.197   1.842 -0.2465  1.4342  0.8002
  571SOL    HW2 1713   0.276   0.036   1.825  2.9693 -1.3632 -0.5473
  572SOL     OW 1714   2.910   2.330   1.144  0.5588  0.6755 -0.3672
  572SOL    HW1 1715   2.857   2.267   1.080  1.5681 -1.4078 -2.2809
  572SOL    HW2 1716   2.929   2.418   1.102  1.8324 -4.8281  1.1348
  573SOL     OW 1717   1.247   0.690   3.008 -0.5036  0.0428  0.0911
  573SOL    HW1 1718   1.153   0.734   3.019 -1.3516  1.1575  1.4377
  573SOL    HW2 1719   1.255   0.602   3.058  0.8921 -1.8206 -1.2914
  574SOL     OW 1720   2.418   2.645   2.773 -0.1867 -1.0605 -0.5120
  574SOL    HW1 1721   2.518   2.674   2.757  0.6878 -0.0322 -0.3088
  574SOL    HW2 1722   2.361   2.724   2.805 -1.9579  5.1333 -0.4333
  575SOL     OW 1723   1.374   2.840   1.198 -0.1402  0.2141  0.3787
  575SOL    HW1 1724   1.388   2.771   1.273 -0.5928  0.0321 -1.0735
  575SOL    HW2 1725   1.446   2.842   1.131 -1.8055 -1.5381  0.1009
  576SOL     OW 1726   1.005   0.014   1.010  0.2076  0.0660  0.0222
  576SOL    HW1 1727   1.101   0.051   1.003  1.7674 -0.6029 -0.2495
  576SOL    HW2 1728   0.934   0.075   1.048  3.3020 -0.3125  0.1779
  577SOL     OW 1729   2.284   1.219   0.733  0.2421  0.2129 -0.0012
  577SOL    HW1 1730   2.337   1.256   0.655 -0.0670 -1.9508  1.9786
  577SOL    HW2 1731   2.224   1.148   0.698  2.2505  2.9485  1.0721
  578SOL     OW 1732   1.793   0.547   0.845  0.7882  0.3540 -0.5028
  578SOL    HW1 1733   1.876   0.507   0.802  2.9321  2.3460  1.4189
  578SOL    HW2 1734   1.798   0.561   0.948 -0.9356 -0.5108  1.3676
  579SOL     OW 1735   1.760   0.635   2.839  0.7011  0.6293 -0.2650
  579SOL    HW1 1736   1.851   0.586   2.847  0.4097  3.1046  5.4462
  579SOL    HW2 1737   1.719   0.634   2.934 -0.0781 -0.1936  1.2407
  580SOL     OW 1738   1.557   0.839   2.230  0.4897  0.4703  0.0344
  580SOL    HW1 1739   1.556   0.801   2.324 -1.9790 -0.0451  1.2466
  580SOL    HW2 1740   1.494   0.920   2.221 -3.0523  1.7102 -0.3493
  581SOL     OW 1741   0.334   0.610   0.705 -0.0259 -0.1559  0.2702
  581SOL    HW1 1742   0.408   0.547   0.713 -3.6656 -1.6203  0.8153
  581SOL    HW2 1743   0.346   0.655   0.614  0.1295  3.0811  0.0684
  582SOL     OW 1744   2.764   0.134   1.882 -0.2733 -0.3243 -0.5380
  582SOL    HW1 1745   2.844   0.149   1.820  2.7178  0.2691  2.9275
  582SOL    HW2 1746   2.755   0.211   1.950 -1.3535  1.4433  2.7070
  583SOL     OW 1747   0.393   0.618   2.454 -0.6148  0.1574  0.6248
  583SOL    HW1 1748   0.459   0.610   2.532  1.5534 -1.3385  4.4243
  583SOL    HW2 1749   0.402   0.535   2.396  3.7536 -1.0006 -0.2315
  584SOL     OW 1750   1.843   2.092   0.025 -0.1477  0.0232  0.7074
  584SOL    HW1 1751   1.911   2.048   0.085  0.1764  0.2904 -0.1082
  584SOL    HW2 1752   1.876   2.175   3.068 -1.2545 -0.7307  1.2408
  585SOL     OW 1753   0.357   2.226   2.990 -0.2856  0.3828 -0.2205
  585SOL    HW1 1754   0.270   2.174   2.989 -2.2892 -3.3922  1.2579
  585SOL    HW2 1755   0.399   2.218   3.082  2.9707 -2.3843 -2.7024
  586SOL     OW 1756   2.090   1.913   2.499 -0.0477 -1.0374 -0.1835
  586SOL    HW1 1757   2.085   1.813   2.503 -1.9224 -0.1927  0.7923
  586SOL    HW2 1758   2.015   1.956   2.554 -3.0824  0.3513 -0.6177
  587SOL     OW 1759   2.562   1.975   2.654 -0.3776 -0.8328  0.3424
  587SOL    HW1 1760   2.537   1.938   2.751  1.5648 -2.5597  2.7900
  587SOL    HW2 1761   2.635   1.923   2.604 -0.2472 -1.7249 -0.8532
  588SOL     OW 1762   3.003   0.418   0.937  0.0745 -0.1987  0.4848
  588SOL    HW1 1763   2.913   0.416   0.887  0.1960 -3.6501 -0.8799
  588SOL    HW2 1764   3.082   0.435   0.868  3.3259  0.2112  1.2023
  589SOL     OW 1765   1.064   0.180   0.428  0.0568 -0.4438 -0.1843
  589SOL    HW1 1766   1.058   0.282   0.407 -1.4996  1.2894  3.3915
  589SOL    HW2 1767   1.001   0.123   0.365 -0.4674 -1.4973  1.5151
  590SOL     OW 1768   2.345   1.948   0.482  0.3667 -0.4981  0.4855
  590SOL    HW1 1769   2.259   1.967   0.532 -0.9130 -2.4844  1.2625
  590SOL    HW2 1770   2.327   1.885   0.404  1.5419  1.9335 -0.4598
  591SOL     OW 1771   0.313   2.516   1.311 -0.3337  0.2954  1.0253
  591SOL    HW1 1772   0.273   2.424   1.284  1.2936 -2.5301  1.7270
  591SOL    HW2 1773   0.241   2.588   1.330 -3.1393  1.6319  0.6526
  592SOL     OW 1774   1.310   0.895   1.050  0.1764  0.6164  0.1234
  592SOL    HW1 1775   1.241   0.942   1.113 -2.1417 -2.2280  0.4457
  592SOL    HW2 1776   1.276   0.805   1.015  3.5351  0.2141  0.7483
  593SOL     OW 1777   0.814   2.256   1.497  0.2153  0.2783  0.1643
  593SOL    HW1 1778   0.832   2.157   1.497  1.0826 -3.0481 -1.5324
  593SOL    HW2 1779   0.725   2.276   1.449  0.5282  3.2608 -0.8362
  594SOL     OW 1780   1.197   1.661   0.294  0.2695  0.4129  0.2766
  594SOL    HW1 1781   1.258   1.630   0.369  1.2512 -0.4927 -0.8568
  594SOL    HW2 1782   1.208   1.597   0.214 -0.6904 -0.4151 -1.0376
  595SOL     OW 1783   1.441   0.903   1.446  0.1306  0.0290  0.7488
  595SOL    HW1 1784   1.484   0.973   1.392  1.7727  0.6377 -1.2609
  595SOL    HW2 1785   1.452   0.919   1.544  0.1920 -1.4019 -1.6099
  596SOL     OW 1786   0.010   0.770   1.694  0.2656 -0.3568 -0.3955
  596SOL    HW1 1787   3.069   0.670   1.694 -1.5669 -1.4800  1.2160
  596SOL    HW2 1788   3.052   0.818   1.616 -1.1963  1.0856  0.4984
  597SOL     OW 1789   1.119   2.619   2.054 -0.4003 -0.5222  0.1773
  597SOL    HW1 1790   1.042   2.665   2.007 -0.8839 -0.6399 -0.0937
  597SOL    HW2 1791   1.141   2.671   2.142 -0.1976  0.7018 -0.3926
  598SOL     OW 1792   2.427   1.341   1.681  0.4047  0.1415  0.2453
  598SOL    HW1 1793   2.364   1.411   1.641  1.2722  0.1942  1.4183
  598SOL    HW2 1794   2.517   1.348   1.635 -1.3959 -2.6840  3.0249
  599SOL     OW 1795   0.796   2.955   0.087  0.3519  0.1885  0.0640
  599SOL    HW1 1796   0.697   2.956   0.116 -1.6547  0.1530 -1.6022
  599SOL    HW2 1797   0.833   2.867   0.048  3.2142 -0.9519  0.2512
  600SOL     OW 1798   0.072   2.389   0.073 -0.2546 -0.2003  0.6927
  600SOL    HW1 1799   0.045   2.383   0.172 -1.4353 -0.2935  0.0119
  600SOL    HW2 1800   0.084   2.295   0.039 -1.1122  0.0893 -0.7772
  601SOL     OW 1801   0.621   0.836   1.458 -0.4234  0.7487 -0.6788
  601SOL    HW1 1802   0.529   0.862   1.495  1.1414  0.4489  0.3346
  601SOL    HW2 1803   0.683   0.807   1.534 -0.1047  3.2246  1.0597
  602SOL     OW 1804   0.552   0.071   1.061 -0.5286  0.4389 -0.3313
  602SOL    HW1 1805   0.586   0.001   1.125  1.2807 -1.6487 -2.0105
  602SOL    HW2 1806   0.556   0.033   0.964  1.8819  0.7805  1.7194
  603SOL     OW 1807   0.326   0.368   2.591  0.1331 -0.2305  0.0406
  603SOL    HW1 1808   0.297   0.301   2.661  1.4895  0.3692 -0.9457
  603SOL    HW2 1809   0.364   0.457   2.628 -0.3544  1.7940  1.4168
  604SOL     OW 1810   1.167   2.611   1.575 -0.3648  0.0926  0.2119
  604SOL    HW1 1811   1.221   2.545   1.632 -1.2712 -2.3362 -1.1835
  604SOL    HW2 1812   1.090   2.555   1.537 -1.4496  1.0131  5.3615
  605SOL     OW 1813   1.402   1.231   1.759  0.5606 -0.6706 -0.3932
  605SOL    HW1 1814   1.367   1.300   1.688  2.6678 -0.7476  1.2780
  605SOL    HW2 1815   1.323   1.204   1.822  0.2693  0.2813  0.4472
  606SOL     OW 1816   2.011   2.988   2.837 -0.0766 -0.4595 -0.2895
  606SOL    HW1 1817   2.000   2.889   2.860 -1.5034  4.2262 -2.0809
  606SOL    HW2 1818   1.958   3.049   2.899 -1.2579  0.8124  0.3131
  607SOL     OW 1819   0.962   0.396   1.636 -0.6970 -0.4013  0.0302
  607SOL    HW1 1820   1.031   0.329   1.595  1.7375 -1.6996 -1.9781
  607SOL    HW2 1821   0.873   0.374   1.595 -1.3017  0.5659 -1.2756
  608SOL     OW 1822   0.406   2.282   2.471 -0.3166  0.0692  0.3394
  608SOL    HW1 1823   0.362   2.193   2.474  0.5977  2.1483 -0.2206
  608SOL    HW2 1824   0.484   2.282   2.403  0.8103  0.5662  2.3663
  609SOL     OW 1825   1.093   1.263   0.351  0.5641  0.4440 -0.3948
  609SOL    HW1 1826   1.052   1.181   0.311  3.0586  0.4883  0.1336
  609SOL    HW2 1827   1.174   1.298   0.298  2.4211 -1.3231  0.5985
  610SOL     OW 1828   0.267   0.254   0.935  0.5799 -0.0436  0.2237
  610SOL    HW1 1829   0.328   0.205   0.873 -2.1969  1.6719  2.2001
  610SOL    HW2 1830   0.287   0.239   1.033  0.4294  0.4706 -1.3470
  611SOL     OW 1831   1.108   1.276   0.619 -0.3333 -0.3135 -0.3637
  611SOL    HW1 1832   1.119   1.253   0.523  0.0928  3.3679  2.2753
  611SOL    HW2 1833   1.169   1.220   0.678 -0.3041 -1.1974  1.9807
  612SOL     OW 1834   2.066   1.721   0.054  0.5175 -0.2949  0.2833
  612SOL    HW1 1835   2.025   1.793   0.108  2.3644 -0.2033 -0.9101
  612SOL    HW2 1836   2.045   1.631   0.099  1.1953  0.7428  1.5631
  613SOL     OW 1837   1.633   1.361   0.225  0.5870  0.2553  0.3201
  613SOL    HW1 1838   1.722   1.310   0.236 -1.7769  1.8696  1.4270
  613SOL    HW2 1839   1.554   1.301   0.211  0.8483  1.4038  1.9300
  614SOL     OW 1840   2.731   0.241   2.393 -0.2433 -0.3193 -0.1660
  614SOL    HW1 1841   2.678   0.195   2.318  2.4838  1.0739 -0.3727
  614SOL    HW2 1842   2.815   0.284   2.351  1.2555  0.3095  0.3456
  615SOL     OW 1843   0.892   1.591   0.594  0.2800 -0.0523 -0.2601
  615SOL    HW1 1844   0.952   1.573   0.677  2.7852  1.8799  0.6242
  615SOL    HW2 1845   0.946   1.649   0.530  0.0881  2.5044  0.1260
  616SOL     OW 1846   1.623   1.031   2.849  1.0454 -0.7344 -0.0426
  616SOL    HW1 1847   1.692   0.989   2.789 -0.1807  2.5118  1.7744
  616SOL    HW2 1848   1.566   0.959   2.889  2.3951  2.9128 -0.7628
  617SOL     OW 1849   1.456   0.174   0.389 -0.1173 -0.4365  0.1201
  617SOL    HW1 1850   1.524   0.252   0.385  0.5828  0.1876  0.9486
  617SOL    HW2 1851   1.394   0.185   0.473  1.7510 -1.3925  0.8299
  618SOL     OW 1852   2.976   2.083   2.220  1.1443 -0.3744 -0.4780
  618SOL    HW1 1853   2.930   2.129   2.298  0.9523 -0.7423 -3.2675
  618SOL    HW2 1854   3.044   2.015   2.251 -0.6228 -1.4246  1.0513
  619SOL     OW 1855   2.279   1.712   0.757  0.4649 -0.0719 -0.4692
  619SOL    HW1 1856   2.214   1.761   0.819 -0.4647  1.5483 -0.3957
  619SOL    HW2 1857   2.374   1.739   0.766  0.6422  0.7548 -3.2111
  620SOL     OW 1858   2.471   3.022   1.585  0.6831 -0.2298  0.0603
  620SOL    HW1 1859   2.438   3.004   1.494  3.8413 -0.2515  3.7283
  620SOL    HW2 1860   2.572   3.023   1.585 -0.2799  1.7353  0.6139
  621SOL     OW 1861   2.968   2.119   0.566 -0.1549 -0.7650 -0.1307
  621SOL    HW1 1862   2.999   2.025   0.586 -0.2487 -0.1844 -1.2472
  621SOL    HW2 1863   2.966   2.175   0.655 -0.7488  1.4007  1.2549
  622SOL     OW 1864   0.695   1.611   2.292  0.2709 -0.0569 -0.0035
  622SOL    HW1 1865   0.620   1.571   2.349  2.2374 -0.8301 -3.3604
  622SOL    HW2 1866   0.766   1.546   2.270  1.1911  0.4655  4.1256
  623SOL     OW 1867   2.660   2.749   2.737  0.0593 -0.5790  0.0032
  623SOL    HW1 1868   2.711   2.815   2.794  1.6434 -0.2200  0.9465
  623SOL    HW2 1869   2.716   2.664   2.725  0.0606 -1.5329 -0.0369
  624SOL     OW 1870   1.039   1.793   0.472 -0.2065  0.0169  0.2104
  624SOL    HW1 1871   1.107   1.768   0.398  0.6986 -1.7710  0.9111
  624SOL    HW2 1872   1.037   1.892   0.498 -0.2240 -3.8645  0.3846
  625SOL     OW 1873   0.475   2.023   2.211 -0.4374 -0.4370 -0.3541
  625SOL    HW1 1874   0.547   1.958   2.227 -2.6656 -1.3851  1.8422
  625SOL    HW2 1875   0.423   1.994   2.132 -0.8956 -1.5463  5.0934
  626SOL     OW 1876   0.097   2.549   0.431  0.5577  0.0790  0.0216
  626SOL    HW1 1877   0.130   2.540   0.527  2.6819 -1.6081 -0.7639
  626SOL    HW2 1878   0.069   2.455   0.400 -0.8369  0.2831  0.1577
  627SOL     OW 1879   1.036   1.757   2.763  0.1159  0.1906  0.0984
  627SOL    HW1 1880   0.984   1.726   2.678 -3.3840  2.6679 -0.3900
  627SOL    HW2 1881   0.981   1.825   2.809 -1.8357 -0.2629  1.2865
  628SOL     OW 1882   1.432   2.143   0.652  0.3335  0.0124 -0.2015
  628SOL    HW1 1883   1.379   2.184   0.726  0.7853 -1.8015  0.9272
  628SOL    HW2 1884   1.507   2.091   0.694 -1.5767  0.4458 -2.0018
  629SOL     OW 1885   0.861   0.661   1.650 -0.1417  0.4171 -0.2155
  629SOL    HW1 1886   0.892   0.722   1.724  1.1154 -0.4928 -1.1027
  629SOL    HW2 1887   0.903   0.569   1.664  1.9723  0.0504  1.2208
  630SOL     OW 1888   2.597   0.242   1.720  0.2080  0.0330 -0.2228
  630SOL    HW1 1889   2.501   0.213   1.740 -1.7434  2.3213 -1.4864
  630SOL    HW2 1890   2.671   0.191   1.774  0.3150 -1.9627  1.8318
  631SOL     OW 1891   1.411   0.618   0.813  0.1664  0.6800  0.5764
  631SOL    HW1 1892   1.492   0.651   0.766 -0.3690  0.4337  2.4129
  631SOL    HW2 1893   1.346   0.571   0.749 -2.1835 -0.2413 -1.5222
  632SOL     OW 1894   2.435   0.432   2.098  0.0720 -0.5444  0.4503
  632SOL    HW1 1895   2.414   0.529   2.130 -1.1675  0.1664  1.8116
  632SOL    HW2 1896   2.370   0.396   2.024 -0.7434 -0.9197 -2.2981
  633SOL     OW 1897   1.221   1.383   2.850  0.2829  0.5119  0.2288
  633SOL    HW1 1898   1.244   1.482   2.849 -0.5955  1.6792  2.4067
  633SOL    HW2 1899   1.274   1.323   2.782  1.3269 -0.8978 -0.0478
  634SOL     OW 1900   0.445   2.214   0.146  0.0503 -0.0572 -0.0796
  634SOL    HW1 1901   0.432   2.315   0.153 -2.1838  1.3463 -0.1737
  634SOL    HW2 1902   0.540   2.187   0.166  0.0428  0.8504 -0.0717
  635SOL     OW 1903   2.748   1.511   1.899  0.0304  0.5300  0.1801
  635SOL    HW1 1904   2.684   1.573   1.848 -0.3455 -0.1805  0.5914
  635SOL    HW2 1905   2.713   1.488   1.992  1.3231 -0.1745 -0.1121
  636SOL     OW 1906   0.423   1.910   0.040  0.2368  0.3861 -0.1478
  636SOL    HW1 1907   0.436   1.828   0.092 -0.5356  0.9380 -2.0942
  636SOL    HW2 1908   0.410   1.993   0.097 -0.8211 -0.3761  0.8974
  637SOL     OW 1909   0.042   2.295   0.325  0.4972 -0.1669 -0.1867
  637SOL    HW1 1910   0.096   2.207   0.322  2.0217 -0.5490  0.5019
  637SOL    HW2 1911   3.037   2.263   0.362 -1.1136 -1.2130  0.0788
  638SOL     OW 1912   2.647   2.782   0.490  0.4121 -0.1479  0.0308
  638SOL    HW1 1913   2.594   2.745   0.564  1.1026 -2.7722 -0.1119
  638SOL    HW2 1914   2.660   2.706   0.420 -0.1516  0.7283  0.4874
  639SOL     OW 1915   1.098   0.451   0.337 -0.1897  0.2497 -0.2844
  639SOL    HW1 1916   1.090   0.549   0.362  2.8677 -1.1639 -0.8314
  639SOL    HW2 1917   1.150   0.447   0.250 -1.0649  1.6932  1.1504
  640SOL     OW 1918   2.263   2.451   1.659  0.4208  0.1539 -0.1450
  640SOL    HW1 1919   2.339   2.383   1.672 -0.0160  0.5938  0.4704
  640SOL    HW2 1920   2.302   2.537   1.629 -0.5754  0.8008  1.2599
  641SOL     OW 1921   2.801   3.023   1.115  0.7036 -0.9273 -0.2287
  641SOL    HW1 1922   2.847   3.080   1.043 -1.5446 -1.6587  1.2895
  641SOL    HW2 1923   2.828   2.926   1.113 -0.4276 -2.4378 -1.6144
  642SOL     OW 1924   1.449   0.935   1.733  0.2463 -0.0749 -0.7993
  642SOL    HW1 1925   1.410   1.020   1.775  1.1119  0.6767 -2.0475
  642SOL    HW2 1926   1.388   0.854   1.742 -0.7897  0.8505 -1.9140
  643SOL     OW 1927   1.062   1.697   2.254 -0.1331 -0.0612  0.1291
  643SOL    HW1 1928   1.158   1.663   2.245  3.0781  1.3720 -1.5905
  643SOL    HW2 1929   1.014   1.689   2.164  1.5632  1.2236 -2.5624
  644SOL     OW 1930   1.422   0.260   2.052  0.5678 -0.4220 -0.3454
  644SOL    HW1 1931   1.347   0.194   2.075 -1.7157  1.8242  1.8863
  644SOL    HW2 1932   1.495   0.272   2.120 -0.3869 -1.5129 -3.7144
  645SOL     OW 1933   1.639   1.148   1.640  0.3363  0.2336 -0.6166
  645SOL    HW1 1934   1.606   1.126   1.545  1.1600  1.3637 -0.2737
  645SOL    HW2 1935   1.559   1.180   1.702 -1.3545  1.0044 -0.3200
  646SOL     OW 1936   1.597   2.357   3.068 -0.1333  0.3353  0.3818
  646SOL    HW1 1937   1.631   2.298   2.993 -0.2274  1.7766 -0.1721
  646SOL    HW2 1938   1.661   2.431   0.009 -0.8668 -0.9139  2.3006
  647SOL     OW 1939   1.729   2.586   1.128 -0.3983 -0.0090 -0.5460
  647SOL    HW1 1940   1.798   2.518   1.102  2.5573 -2.2471 -0.2212
  647SOL    HW2 1941   1.636   2.542   1.136  0.3154 -3.0873 -0.2707
  648SOL     OW 1942   0.074   2.397   1.417  0.1852 -0.0679 -0.0903
  648SOL    HW1 1943   0.019   2.483   1.399 -1.6756  0.1528 -1.5620
  648SOL    HW2 1944   0.028   2.339   1.487  4.5887  0.4035 -0.4360
  649SOL     OW 1945   1.301   2.444   2.843 -0.0640 -0.0121 -0.3291
  649SOL    HW1 1946   1.318   2.361   2.898 -1.0844  0.4339  0.7597
  649SOL    HW2 1947   1.202   2.447   2.817 -1.1379  0.8687  0.6077
  650SOL     OW 1948   2.797   2.006   3.017  0.7428  0.6157 -0.3388
  650SOL    HW1 1949   2.885   2.011   3.068 -0.4513 -0.1882 -1.5532
  650SOL    HW2 1950   2.812   1.993   2.917 -2.2780  0.1055 -0.2601
  651SOL     OW 1951   2.613   2.050   2.180  0.1621 -0.3575  0.4693
  651SOL    HW1 1952   2.544   2.085   2.114 -1.2463  0.6892  0.1961
  651SOL    HW2 1953   2.698   2.025   2.132  3.6121  3.8138 -0.0228
  652SOL     OW 1954   2.261   2.477   0.720 -0.3929  0.1269 -0.6713
  652SOL    HW1 1955   2.276   2.560   0.669 -0.8706 -1.6063 -0.0265
  652SOL    HW2 1956   2.259   2.398   0.658 -0.5659 -1.3454  2.0492
  653SOL     OW 1957   2.838   1.726   1.479  0.6691 -0.1535  0.6864
  653SOL    HW1 1958   2.851   1.645   1.540  2.7658  0.0132 -2.0231
  653SOL    HW2 1959   2.921   1.791   1.485  0.1555 -1.9183 -0.4096
  654SOL     OW 1960   1.023   1.040   3.072 -0.1743  0.1875 -0.5644
  654SOL    HW1 1961   0.997   1.121   3.017 -0.9685 -3.6739  1.0105
  654SOL    HW2 1962   0.988   0.956   3.023 -1.2285  2.2404  0.8237
  655SOL     OW 1963   0.883   1.037   1.103  0.2530 -0.3295  0.1674
  655SOL    HW1 1964   0.903   1.105   1.029 -2.7074  1.2408  1.7307
  655SOL    HW2 1965   0.946   0.959   1.086  1.2382 -0.0506  0.7652
  656SOL     OW 1966   1.392   2.650   2.020 -0.0914  0.2154  0.1335
  656SOL    HW1 1967   1.426   2.585   2.092 -0.5562  0.7331  1.2168
  656SOL    HW2 1968   1.288   2.638   2.017 -0.1959  1.4147 -3.3438
  657SOL     OW 1969   2.010   1.490   0.191 -0.3054  0.3218 -0.4627
  657SOL    HW1 1970   2.029   1.482   0.287  0.6160 -1.2470 -1.2344
  657SOL    HW2 1971   2.055   1.406   0.148  0.5480  0.0742  1.8338
  658SOL     OW 1972   1.807   2.509   1.549 -0.0308 -0.2554 -0.3998
  658SOL    HW1 1973   1.864   2.459   1.621 -0.5084  2.7084  3.2445
  658SOL    HW2 1974   1.764   2.589   1.587  0.2448 -2.4341 -1.8479
  659SOL     OW 1975   2.835   1.731   0.219 -0.2690 -0.3771 -0.5685
  659SOL    HW1 1976   2.840   1.679   0.131  3.1115 -2.2080  0.0277
  659SOL    HW2 1977   2.933   1.739   0.253  2.0073 -1.3121 -2.1624
  660SOL     OW 1978   0.929   0.176   0.656  0.3209 -0.3877 -0.0859
  660SOL    HW1 1979   0.961   0.153   0.560 -2.0088 -1.1515  1.9780
  660SOL    HW2 1980   0.956   0.096   0.711 -0.6251  1.1263 -0.4909
  661SOL     OW 1981   1.993   0.255   2.960  0.2876  0.4691 -0.2458
  661SOL    HW1 1982   2.078   0.267   3.011  0.1528 -1.7906  1.9927
  661SOL    HW2 1983   1.951   0.161   2.983 -3.0821 -1.0058 -0.6204
  662SOL     OW 1984   0.426   0.298   0.491  0.0543  0.1469  0.5842
  662SOL    HW1 1985   0.364   0.282   0.568 -2.0778 -0.2456 -0.9246
  662SOL    HW2 1986   0.517   0.260   0.518  3.1324  0.5563  0.3751
  663SOL     OW 1987   1.679   2.598   2.501  0.1242  0.3528  0.1900
  663SOL    HW1 1988   1.679   2.536   2.418 -1.1064  3.3456 -0.8945
  663SOL    HW2 1989   1.612   2.670   2.492  0.7878 -1.8037 -0.2592
  664SOL     OW 1990   0.620   2.629   1.646 -0.0765  0.3540 -0.1402
  664SOL    HW1 1991   0.528   2.593   1.626 -0.1177 -0.4483  0.9541
  664SOL    HW2 1992   0.677   2.642   1.566 -1.1377  0.5569  1.6835
  665SOL     OW 1993   1.502   2.490   1.241 -0.3056  0.2787  0.2316
  665SOL    HW1 1994   1.454   2.551   1.305  0.9897 -0.8958  1.8860
  665SOL    HW2 1995   1.581   2.438   1.285  1.2145  0.2574  2.7710
  666SOL     OW 1996   0.848   2.800   2.353 -0.8155 -0.0378  0.1169
  666SOL    HW1 1997   0.944   2.768   2.324  1.8172  0.1720  1.0595
  666SOL    HW2 1998   0.791   2.721   2.383 -0.3305 -0.4197 -0.4642
  667SOL     OW 1999   2.588   0.498   1.664  0.7172  0.1301 -0.5505
  667SOL    HW1 2000   2.565   0.518   1.567 -1.1444 -0.0818  1.0565
  667SOL    HW2 2001   2.600   0.401   1.691  0.2301 -0.2914  0.7502
  668SOL     OW 2002   1.256   0.365   1.631 -0.0720 -0.7959 -0.3283
  668SOL    HW1 2003   1.354   0.339   1.613 -2.0245 -3.4972 -0.2107
  668SOL    HW2 2004   1.243   0.467   1.634 -1.7250  0.7709  2.0385
  669SOL     OW 2005   2.208   2.342   1.164 -0.2824  0.0515 -0.2408
  669SOL    HW1 2006   2.127   2.399   1.172  0.9831  3.5623 -2.5534
  669SOL    HW2 2007   2.240   2.302   1.252 -0.6883 -2.1226 -1.7680
  670SOL     OW 2008   1.697   2.217   2.863  0.0073  0.1857  0.2559
  670SOL    HW1 2009   1.640   2.281   2.809 -1.4833 -0.8752 -0.9332
  670SOL    HW2 2010   1.679   2.121   2.837  0.7755  0.5683  0.3639
  671SOL     OW 2011   0.625   0.862   0.379 -0.0474  0.6173  0.0514
  671SOL    HW1 2012   0.625   0.931   0.307 -2.4089 -1.6564  2.1117
  671SOL    HW2 2013   0.564   0.777   0.364 -1.5317  0.6116  0.7159
  672SOL     OW 2014   2.662   0.891   2.988  0.6294  0.3364 -0.6078
  672SOL    HW1 2015   2.763   0.918   2.992  2.6436 -0.6324  1.1458
  672SOL    HW2 2016   2.647   0.805   3.041  0.8839 -1.6998 -1.2546
  673SOL     OW 2017   3.051   1.895   1.484  0.3492  0.2257  0.1537
  673SOL    HW1 2018   3.020   1.984   1.440  0.0229  1.3604 -3.8714
  673SOL    HW2 2019   0.048   1.865   1.442 -2.5950 -2.2588  0.6692
  674SOL     OW 2020   1.324   2.105   1.631 -0.0170 -0.2214 -0.4754
  674SOL    HW1 2021   1.230   2.088   1.677  0.0772 -0.6209  1.6314
  674SOL    HW2 2022   1.356   2.026   1.574 -3.2697 -1.8029  3.0344
  675SOL     OW 2023   0.883   1.306   1.373 -0.2903 -0.2585 -0.0949
  675SOL    HW1 2024   0.845   1.311   1.278  0.1781  0.3097 -0.5944
  675SOL    HW2 2025   0.811   1.265   1.430 -0.3603  0.0181  1.0532
  676SOL     OW 2026   2.157   0.736   0.986 -0.4047  0.0516 -0.1397
  676SOL    HW1 2027   2.159   0.756   0.888 -0.4632 -0.6924  2.4814
  676SOL    HW2 2028   2.245   0.739   1.034  3.0608 -2.2212 -1.6736
  677SOL     OW 2029   2.555   0.390   0.253  0.6423 -0.2547 -0.0990
  677SOL    HW1 2030   2.466   0.412   0.200 -1.6341 -0.3630 -2.8657
  677SOL    HW2 2031   2.632   0.418   0.189  0.1992  0.0728 -0.5502
  678SOL     OW 2032   2.691   1.240   0.957  0.2242  0.7733  0.3179
  678SOL    HW1 2033   2.714   1.261   0.859  0.3251  2.4468 -1.5128
  678SOL    HW2 2034   2.592   1.221   0.962  0.4042 -0.6648  0.8271
  679SOL     OW 2035   2.651   0.598   3.080 -0.8207  0.0613 -0.4614
  679SOL    HW1 2036   2.552   0.588   0.006 -0.3833  0.2937  1.6294
  679SOL    HW2 2037   2.678   0.580   2.986  0.3540 -1.9954 -0.6187
  680SOL     OW 2038   0.424   1.231   2.341 -0.0134  0.2707 -0.4294
  680SOL    HW1 2039   0.520   1.183   2.330 -0.1826 -1.8989 -0.5378
  680SOL    HW2 2040   0.376   1.198   2.427  0.9000 -1.4957 -2.1354
  681SOL     OW 2041   2.447   2.249   1.649 -0.0424 -0.1800 -0.2315
  681SOL    HW1 2042   2.523   2.270   1.584  1.4032  0.6713  0.6679
  681SOL    HW2 2043   2.454   2.149   1.671  0.0231 -1.3199 -1.5185
  682SOL     OW 2044   0.657   1.931   2.933  0.5890 -0.4666  0.5206
  682SOL    HW1 2045   0.642   1.968   2.839 -0.0518 -0.4810  0.8191
  682SOL    HW2 2046   0.572   1.923   2.984  0.7933  1.9443 -0.7606
  683SOL     OW 2047   2.490   1.933   1.053  0.2773 -0.1595  0.2793
  683SOL    HW1 2048   2.546   1.851   1.027 -0.0977  0.5059  0.0956
  683SOL    HW2 2049   2.519   1.982   1.134 -4.1779 -1.0433 -1.0922
  684SOL     OW 2050   2.604   1.059   1.774 -0.5311  0.1796  0.3773
  684SOL    HW1 2051   2.508   1.029   1.785 -3.1275  0.5552  1.3871
  684SOL    HW2 2052   2.658   1.038   1.858  1.9347  2.3214 -2.1007
  685SOL     OW 2053   1.005   0.842   0.966  0.1061  0.1929  0.0663
  685SOL    HW1 2054   1.074   0.768   0.964 -1.9990 -0.8570 -1.9184
  685SOL    HW2 2055   0.952   0.840   0.881 -2.3475 -1.0438  0.2675
  686SOL     OW 2056   0.720   0.315   2.964  0.0600 -0.0516  0.3640
  686SOL    HW1 2057   0.738   0.214   2.946  0.5507  0.6651  0.1937
  686SOL    HW2 2058   0.631   0.324   3.015  0.7967 -0.2937  1.7053
  687SOL     OW 2059   0.575   2.275   2.234  0.3877 -0.4149 -0.2319
  687SOL    HW1 2060   0.554   2.334   2.151 -0.2637  0.0255 -2.5612
  687SOL    HW2 2061   0.526   2.184   2.220 -2.0019  0.3803 -0.5781
  688SOL     OW 2062   2.176   0.233   1.570  0.0535 -0.3606 -0.0691
  688SOL    HW1 2063   2.088   0.253   1.611  0.9280  0.9671 -0.9326
  688SOL    HW2 2064   2.168   0.232   1.466 -1.0365 -0.0673 -2.3776
  689SOL     OW 2065   1.832   1.041   0.514  0.5051 -0.6855 -0.2392
  689SOL    HW1 2066   1.819   0.984   0.431 -1.9926  0.2007  0.1772
  689SOL    HW2 2067   1.795   0.988   0.595 -1.1529 -3.7206 -1.6933
  690SOL     OW 2068   2.936   0.847   1.474 -0.1170  0.2843 -0.0527
  690SOL    HW1 2069   2.939   0.950   1.493  1.0524 -1.9838  1.3216
  690SOL    HW2 2070   2.891   0.830   1.384  1.1614  0.9781  0.0189
  691SOL     OW 2071   0.020   0.944   1.985  0.1642  0.0484 -0.6448
  691SOL    HW1 2072   0.048   0.975   1.893 -2.3353 -2.2308  1.1119
  691SOL    HW2 2073   3.042   1.009   2.027 -1.3206  0.3514 -4.0255
  692SOL     OW 2074   0.885   0.901   2.146 -0.1393  0.5845 -0.5111
  692SOL    HW1 2075   0.878   0.826   2.074  1.1658 -0.8659  1.5401
  692SOL    HW2 2076   0.843   0.989   2.107 -0.5420 -0.3240 -2.4509
  693SOL     OW 2077   0.330   1.179   2.113 -0.0233 -0.8532 -0.5198
  693SOL    HW1 2078   0.261   1.246   2.081  1.6788  0.0412 -4.1230
  693SOL    HW2 2079   0.372   1.203   2.202 -0.8840 -1.0443 -1.0149
  694SOL     OW 2080   1.387   1.618   0.497 -0.7473  0.4265 -0.1692
  694SOL    HW1 2081   1.477   1.570   0.485 -3.2352  0.0851 -1.1682
  694SOL    HW2 2082   1.393   1.716   0.514  1.8997  0.5272  0.4528
  695SOL     OW 2083   0.395   0.906   1.083 -0.0206  0.0769 -0.0768
  695SOL    HW1 2084   0.483   0.942   1.050 -0.4982  0.1342 -1.2864
  695SOL    HW2 2085   0.365   0.955   1.163 -1.0957 -1.3355  0.5249
  696SOL     OW 2086   0.453   2.432   0.637 -0.1449  0.4197 -0.5013
  696SOL    HW1 2087   0.440   2.505   0.569  4.1126 -0.3915  0.4216
  696SOL    HW2 2088   0.551   2.401   0.627  1.0307 -0.5234 -0.3192
  697SOL     OW 2089   1.244   0.639   1.502  0.1222  0.1513 -0.0235
  697SOL    HW1 2090   1.308   0.615   1.426 -3.4804  2.0633  0.7284
  697SOL    HW2 2091   1.150   0.632   1.467  1.2821  0.5508  0.4437
  698SOL     OW 2092   1.617   1.507   1.622  0.3609  0.5233  0.3807
  698SOL    HW1 2093   1.527   1.463   1.603  0.8104 -1.1275 -1.0455
  698SOL    HW2 2094   1.618   1.602   1.584 -0.9530 -0.4538 -1.6416
  699SOL     OW 2095   0.044   0.653   2.454  0.3756  0.1285  0.1532
  699SOL    HW1 2096   0.102   0.656   2.375  0.6390  1.5400 -0.6477
  699SOL    HW2 2097   0.087   0.713   2.523 -1.1539  1.6963 -0.5449
  700SOL     OW 2098   1.606   2.493   0.585 -0.7938 -0.5466  0.6477
  700SOL    HW1 2099   1.611   2.561   0.663  0.3304  1.0891  4.1426
  700SOL    HW2 2100   1.519   2.438   0.592  0.9644 -0.3981  0.3756
  701SOL     OW 2101   0.296   1.622   2.531  0.3088 -0.1561  0.0680
  701SOL    HW1 2102   0.234   1.557   2.575  0.7562  0.5389  1.7560
  701SOL    HW2 2103   0.296   1.706   2.587 -0.6263 -1.1888  1.3383
  702SOL     OW 2104   0.434   0.314   3.046 -0.4051  0.1863  0.3336
  702SOL    HW1 2105   0.368   0.241   3.066  1.2384  0.5721  2.9878
  702SOL    HW2 2106   0.401   0.381   2.981 -1.1018 -0.8506  1.4805
  703SOL     OW 2107   1.584   0.051   2.773  0.4497  0.2726 -0.0912
  703SOL    HW1 2108   1.632   0.081   2.688 -0.7434 -0.1739 -1.8452
  703SOL    HW2 2109   1.482   0.071   2.767 -3.2312  2.0581  3.0740
  704SOL     OW 2110   2.760   1.938   0.684 -0.0402 -0.0667  0.0007
  704SOL    HW1 2111   2.863   1.937   0.694  0.6568  1.2012  2.7394
  704SOL    HW2 2112   2.729   2.005   0.607 -1.0013  0.1249 -1.7088
  705SOL     OW 2113   2.830   1.810   1.823 -0.4225 -0.3095  0.8700
  705SOL    HW1 2114   2.743   1.764   1.802 -0.2825  0.9662 -1.3502
  705SOL    HW2 2115   2.843   1.840   1.920 -2.1455 -0.2866 -2.7256
  706SOL     OW 2116   3.021   2.781   0.978  0.4880  0.1977  0.1374
  706SOL    HW1 2117   2.959   2.799   0.898  1.3549 -0.8101  1.9995
  706SOL    HW2 2118   3.072   2.867   0.993  2.1352  0.8019 -1.4816
  707SOL     OW 2119   0.909   0.000   0.279 -0.2843 -0.6176  0.2362
  707SOL    HW1 2120   0.981   3.029   0.328  0.2382 -1.2067  0.1067
  707SOL    HW2 2121   0.884   3.046   0.192 -1.1898  0.9951  1.0705
  708SOL     OW 2122   0.555   2.265   1.384  0.5331 -0.3041  0.1479
  708SOL    HW1 2123   0.582   2.296   1.292 -0.4290 -3.5300  0.8204
  708SOL    HW2 2124   0.468   2.308   1.415 -1.6784 -1.0723 -0.7112
  709SOL     OW 2125   1.520   0.022   2.276  0.0780  0.1260  0.0240
  709SOL    HW1 2126   1.447   0.078   2.320 -0.1553 -0.6176  0.0499
  709SOL    HW2 2127   1.472   3.063   2.199  1.0001 -0.6167 -0.7215
  710SOL     OW 2128   1.445   2.829   2.637  0.0159 -0.1967  0.1116
  710SOL    HW1 2129   1.418   2.823   2.733  3.2768 -0.6098  0.9108
  710SOL    HW2 2130   1.543   2.870   2.630  1.6893 -2.6634 -0.9532
  711SOL     OW 2131   1.317   1.996   2.750  0.0357  0.1173 -0.3751
  711SOL    HW1 2132   1.288   1.962   2.658  1.8335  2.0680  1.3314
  711SOL    HW2 2133   1.333   2.094   2.739 -1.0676 -2.6309 -1.7387
  712SOL     OW 2134   0.922   1.980   2.881 -0.4547 -0.4784 -0.4205
  712SOL    HW1 2135   0.950   2.074   2.854 -1.5733  0.4071 -3.4010
  712SOL    HW2 2136   0.821   1.974   2.894 -1.4021 -1.9770 -2.2953
  713SOL     OW 2137   1.145   0.918   1.932 -0.6931 -0.0587  0.8856
  713SOL    HW1 2138   1.045   0.911   1.919  2.1513 -1.2142 -3.6630
  713SOL    HW2 2139   1.195   0.844   1.880  2.1758 -0.9413  0.8841
  714SOL     OW 2140   1.294   1.481   1.083  0.0753 -0.4833  0.4282
  714SOL    HW1 2141   1.363   1.553   1.062 -2.0131  1.5858  1.6402
  714SOL    HW2 2142   1.208   1.527   1.113 -0.8453 -2.7433 -0.7403
  715SOL     OW 2143   2.440   0.278   0.751 -0.4479  0.0012 -0.3164
  715SOL    HW1 2144   2.381   0.330   0.821 -1.7695  0.8281  1.4804
  715SOL    HW2 2145   2.507   0.334   0.704 -0.2932 -2.3424  1.8113
  716SOL     OW 2146   0.510   2.784   0.538  0.6938 -0.3338  0.5526
  716SOL    HW1 2147   0.588   2.760   0.603 -0.0604 -2.4614 -0.6023
  716SOL    HW2 2148   0.536   2.756   0.443  2.2929  1.7165 -2.3203
  717SOL     OW 2149   2.977   0.572   0.202  0.1598  0.3651 -0.2919
  717SOL    HW1 2150   2.937   0.478   0.180 -2.1456 -1.3511  0.8102
  717SOL    HW2 2151   2.913   0.637   0.237  1.0634  0.4474 -1.0579
  718SOL     OW 2152   1.687   1.829   1.144  1.1190  0.5367 -0.0475
  718SOL    HW1 2153   1.722   1.767   1.071  0.9903  0.6049  0.6233
  718SOL    HW2 2154   1.692   1.926   1.114  0.9161  1.2058 -0.2307
  719SOL     OW 2155   2.764   2.184   0.954  0.2060  0.2831  0.4348
  719SOL    HW1 2156   2.682   2.145   0.907 -1.1808  1.4170  0.4226
  719SOL    HW2 2157   2.834   2.215   0.884  2.1228  2.9844 -0.8926
  720SOL     OW 2158   0.630   0.983   0.998  0.1684 -0.5291  0.1446
  720SOL    HW1 2159   0.726   0.974   1.039  1.5027 -2.4333  0.3491
  720SOL    HW2 2160   0.637   1.043   0.915  0.4254  0.5701 -0.3524
  721SOL     OW 2161   1.492   0.536   1.060 -0.0764  0.4626  0.0746
  721SOL    HW1 2162   1.462   0.568   0.971 -0.9459 -0.8212  1.0962
  721SOL    HW2 2163   1.583   0.567   1.083 -0.5282 -1.5137 -2.9999
  722SOL     OW 2164   1.130   1.328   2.154 -0.4247 -0.9643 -0.2142
  722SOL    HW1 2165   1.188   1.370   2.227  0.2292 -0.7272 -0.4803
  722SOL    HW2 2166   1.033   1.324   2.183 -0.1267 -0.1258  1.3377
  723SOL     OW 2167   0.968   2.855   1.392  0.3229 -0.6013  0.3411
  723SOL    HW1 2168   0.963   2.955   1.366 -0.2851 -0.2538 -2.5853
  723SOL    HW2 2169   1.024   2.855   1.478 -0.0143  2.7961  0.9536
  724SOL     OW 2170   2.042   2.210   1.458  0.6199  0.1187  0.3104
  724SOL    HW1 2171   2.022   2.272   1.531 -1.7897  1.3375 -1.7137
  724SOL    HW2 2172   2.017   2.116   1.482 -0.1546  2.3468  0.6030
  725SOL     OW 2173   1.126   2.734   1.222 -0.1823  0.8099  0.5368
  725SOL    HW1 2174   1.059   2.779   1.287 -3.0401  1.5911  3.4465
  725SOL    HW2 2175   1.212   2.791   1.230 -0.3115 -1.9481  0.6686
  726SOL     OW 2176   1.761   2.847   3.002 -0.6631  0.1173 -0.5833
  726SOL    HW1 2177   1.770   2.787   3.079 -0.4759  2.4848 -2.3915
  726SOL    HW2 2178   1.738   2.794   2.918  0.8991  1.5439 -1.4865
  727SOL     OW 2179   1.364   1.763   0.844 -0.1631  0.3823 -0.0723
  727SOL    HW1 2180   1.327   1.685   0.797 -0.6039  0.5025  1.1336
  727SOL    HW2 2181   1.456   1.796   0.819  0.2172 -1.1984  2.4995
  728SOL     OW 2182   2.019   3.000   2.083  0.3350 -0.3132  0.6519
  728SOL    HW1 2183   1.995   3.025   1.987  0.8911  0.1974 -0.2817
  728SOL    HW2 2184   2.111   2.959   2.097  0.7109 -1.8829  0.1090
  729SOL     OW 2185   2.455   1.795   1.314  0.0910  0.4690  0.0118
  729SOL    HW1 2186   2.383   1.857   1.339  0.6778 -0.6219  0.2956
  729SOL    HW2 2187   2.415   1.729   1.253 -0.3574  1.1512  0.9377
  730SOL     OW 2188   1.885   0.538   2.414  0.8027 -0.1391 -0.6722
  730SOL    HW1 2189   1.925   0.471   2.480  1.0062  0.4572  2.1442
  730SOL    HW2 2190   1.917   0.629   2.428 -1.2982 -1.7680  3.0200
  731SOL     OW 2191   0.441   0.316   1.370  0.2844  0.1841 -0.6124
  731SOL    HW1 2192   0.429   0.394   1.439 -0.4305 -1.4960  0.5920
  731SOL    HW2 2193   0.433   0.349   1.276 -3.2596  3.4252  0.4753
  732SOL     OW 2194   1.791   0.221   1.280 -0.1793  0.1878 -0.1978
  732SOL    HW1 2195   1.750   0.304   1.320 -0.9804 -3.1960  1.4756
  732SOL    HW2 2196   1.717   0.167   1.241  0.1672  0.9663  0.0417
  733SOL     OW 2197   1.020   1.049   1.578  0.2936 -0.4652  0.0994
  733SOL    HW1 2198   0.936   1.031   1.519 -1.6788  2.6800  3.1889
  733SOL    HW2 2199   1.103   1.014   1.531  1.1574 -1.1205  1.4197
  734SOL     OW 2200   2.482   1.889   0.065 -0.3993  0.5838  0.0881
  734SOL    HW1 2201   2.442   1.793   0.074 -2.0179  1.8794 -1.9129
  734SOL    HW2 2202   2.559   1.908   0.133 -1.0899 -1.2358  0.6866
  735SOL     OW 2203   0.513   0.638   0.278 -0.3175 -0.0573  0.4665
  735SOL    HW1 2204   0.471   0.629   0.182 -1.0816  0.9767 -4.7466
  735SOL    HW2 2205   0.583   0.569   0.297  0.3114  0.6128 -1.7817
  736SOL     OW 2206   1.825   2.346   2.606  0.0711 -0.2668 -0.0814
  736SOL    HW1 2207   1.866   2.344   2.702  2.9034  2.1491 -0.4774
  736SOL    HW2 2208   1.782   2.438   2.597  1.1675  0.2869  1.0168
  737SOL     OW 2209   1.026   1.827   1.133  0.4612  0.3119  0.2001
  737SOL    HW1 2210   1.022   1.723   1.137  3.0514  0.1426 -0.4765
  737SOL    HW2 2211   1.064   1.863   1.216 -3.1306  0.4669 -0.9388
  738SOL     OW 2212   1.830   2.883   2.283 -0.6331  0.3049  0.1122
  738SOL    HW1 2213   1.851   2.904   2.186  2.1535  1.3386 -1.3176
  738SOL    HW2 2214   1.893   2.818   2.322 -0.9528  2.9232  1.0234
  739SOL     OW 2215   1.260   2.259   2.362 -0.8717 -0.1570  0.4900
  739SOL    HW1 2216   1.311   2.169   2.350 -1.8790 -1.1690 -0.1199
  739SOL    HW2 2217   1.299   2.333   2.297  2.2452  0.0578 -0.5545
  740SOL     OW 2218   1.732   2.490   1.831 -0.8785 -0.1568  0.1324
  740SOL    HW1 2219   1.783   2.565   1.876 -2.4503  0.2153 -2.2981
  740SOL    HW2 2220   1.637   2.527   1.817 -0.2248  1.2252  2.2239
  741SOL     OW 2221   2.374   1.634   2.535  0.2476  0.2120 -0.3855
  741SOL    HW1 2222   2.352   1.552   2.487  2.4538  3.2566  3.9013
  741SOL    HW2 2223   2.442   1.690   2.485 -1.6108 -1.1550  1.3158
  742SOL     OW 2224   0.823   1.398   0.010 -0.4726  0.1902  0.6039
  742SOL    HW1 2225   0.791   1.495   0.014  2.1812 -0.8968 -0.7194
  742SOL    HW2 2226   0.756   1.343   3.043  0.7068 -1.1840 -0.9209
  743SOL     OW 2227   1.959   1.241   2.542  0.0950  0.1628 -0.1790
  743SOL    HW1 2228   1.884   1.178   2.510 -0.4472  0.5389  1.1161
  743SOL    HW2 2229   1.995   1.289   2.464 -0.5489 -0.7268  1.6275
  744SOL     OW 2230   2.123   3.002   1.328 -0.1751 -0.0152  0.8089
  744SOL    HW1 2231   2.222   3.024   1.337 -0.2386 -2.3109  2.6651
  744SOL    HW2 2232   2.111   2.902   1.339  0.8957  0.0755 -1.2995
  745SOL     OW 2233   2.419   1.162   0.966  0.2667  0.1455  0.1907
  745SOL    HW1 2234   2.362   1.200   1.042 -0.7027 -0.6092 -1.3214
  745SOL    HW2 2235   2.373   1.180   0.873 -0.0552  1.2924 -1.9488
  746SOL     OW 2236   2.379   1.589   1.080 -0.3077  0.7450  0.3059
  746SOL    HW1 2237   2.351   1.534   0.997 -0.5222 -3.2064  1.5688
  746SOL    HW2 2238   2.463   1.642   1.062  2.0265 -1.6115 -0.0933
  747SOL     OW 2239   2.012   2.768   0.211 -0.4851 -0.2359  0.3201
  747SOL    HW1 2240   1.921   2.810   0.240  2.0936 -0.1602  0.8173
  747SOL    HW2 2241   2.040   2.802   0.115 -2.6802 -1.5307  1.1315
  748SOL     OW 2242   0.994   2.079   0.131  1.1084  0.1822  0.3372
  748SOL    HW1 2243   0.979   1.979   0.157 -1.8171  0.6979  2.7913
  748SOL    HW2 2244   1.001   2.099   0.032  0.9099  1.8079 -0.5120
  749SOL     OW 2245   2.977   0.289   2.269 -0.6448  0.0692 -0.0366
  749SOL    HW1 2246   3.060   0.316   2.326 -0.9992 -0.9324  1.6463
  749SOL    HW2 2247   2.928   0.374   2.229 -2.3076  5.3158 -3.0284
  750SOL     OW 2248   1.282   0.727   1.752  0.6597  0.1414 -0.3058
  750SOL    HW1 2249   1.277   0.647   1.813 -1.3361 -2.0345 -1.0665
  750SOL    HW2 2250   1.251   0.698   1.659  0.0048 -0.4170 -2.0559
  751SOL     OW 2251   2.463   2.662   2.085  0.0721 -0.4430 -0.1092
  751SOL    HW1 2252   2.505   2.585   2.031  0.8568  2.6944  0.0407
  751SOL    HW2 2253   2.362   2.651   2.093  1.9258 -3.4497  0.8083
  752SOL     OW 2254   2.066   1.495   1.047  0.3480  0.3208  0.2182
  752SOL    HW1 2255   2.009   1.415   1.022 -1.8835  1.3317  2.0957
  752SOL    HW2 2256   2.157   1.487   0.998 -0.6387  0.4052 -2.3554
  753SOL     OW 2257   1.535   1.138   2.229  0.1715  0.0097  0.4513
  753SOL    HW1 2258   1.591   1.144   2.142 -0.7000  1.1803 -1.7248
  753SOL    HW2 2259   1.440   1.117   2.205  1.5823 -0.2268  0.9448
  754SOL     OW 2260   0.207   2.488   0.989 -0.7825 -0.1925  0.5859
  754SOL    HW1 2261   0.251   2.581   0.980  2.9335  3.1173 -1.8095
  754SOL    HW2 2262   0.215   2.454   1.086  0.8633 -0.4816  0.1392
  755SOL     OW 2263   2.395   2.998   1.319 -0.3367 -0.1716  0.0190
  755SOL    HW1 2264   2.473   3.045   1.276 -0.4914  1.6893 -0.3532
  755SOL    HW2 2265   2.378   2.904   1.278  1.4699 -2.5942 -2.0461
  756SOL     OW 2266   1.827   2.027   2.089  0.3749  0.4262  0.1007
  756SOL    HW1 2267   1.818   1.938   2.042 -0.9462 -0.1501  1.2822
  756SOL    HW2 2268   1.901   2.035   2.157 -1.0959  1.3680 -2.0282
  757SOL     OW 2269   3.016   2.985   2.014 -0.0064 -0.5947 -0.5209
  757SOL    HW1 2270   2.969   3.001   2.102  0.5684 -2.1622 -1.9648
  757SOL    HW2 2271   3.056   3.076   1.982 -0.1167  1.4007 -1.8052
  758SOL     OW 2272   0.508   2.711   1.351 -0.5401 -0.3792  0.1755
  758SOL    HW1 2273   0.599   2.670   1.344 -0.5891  0.1231 -1.3804
  758SOL    HW2 2274   0.430   2.646   1.329  2.2938 -0.7973 -1.7817
  759SOL     OW 2275   2.136   0.925   1.229 -0.7664  1.0567  0.0985
  759SOL    HW1 2276   2.220   0.972   1.256  0.1702 -2.3322  0.2453
  759SOL    HW2 2277   2.123   0.845   1.288  0.3833  0.2585 -1.0108
  760SOL     OW 2278   1.523   0.286   1.605  0.3782  0.2475 -0.2141
  760SOL    HW1 2279   1.594   0.257   1.666 -0.9789  0.5127 -0.0784
  760SOL    HW2 2280   1.561   0.350   1.533 -1.1784  0.4120  0.9021
  761SOL     OW 2281   2.006   0.189   0.906 -0.5790 -0.6603  0.4584
  761SOL    HW1 2282   1.993   0.157   1.003  3.1826 -0.2748 -2.2370
  761SOL    HW2 2283   1.981   0.109   0.847  0.5878 -3.1161 -0.9974
  762SOL     OW 2284   1.727   2.813   0.242  0.2159 -0.3465 -0.8843
  762SOL    HW1 2285   1.681   2.900   0.265  0.0282  0.1959 -0.5478
  762SOL    HW2 2286   1.667   2.733   0.264  0.3155 -0.1084  2.2009
  763SOL     OW 2287   0.898   0.416   1.247  0.1205 -0.1532  0.0172
  763SOL    HW1 2288   0.857   0.405   1.339 -0.1091 -0.5248  1.3142
  763SOL    HW2 2289   0.879   0.514   1.218 -1.8079  0.1511  1.6087
  764SOL     OW 2290   2.639   2.426   2.478 -0.2712 -0.0245 -0.1880
  764SOL    HW1 2291   2.687   2.404   2.569 -0.8715 -1.4265  1.7928
  764SOL    HW2 2292   2.595   2.518   2.470 -1.1862  1.5293 -0.2838
  765SOL     OW 2293   3.003   1.130   2.458  0.0523 -0.3374  0.0719
  765SOL    HW1 2294   0.006   1.100   2.421  1.7787  0.9185 -0.3549
  765SOL    HW2 2295   2.981   1.101   2.554  0.5654 -1.3352  2.1419
  766SOL     OW 2296   2.830   1.327   2.366 -0.2258 -0.0609  0.0792
  766SOL    HW1 2297   2.761   1.352   2.437 -1.9776  0.8566  2.9337
  766SOL    HW2 2298   2.891   1.259   2.410 -1.9209  0.7471 -0.3038
  767SOL     OW 2299   0.341   2.232   1.866 -0.0515  0.0690 -0.0321
  767SOL    HW1 2300   0.414   2.162   1.852 -0.4580  1.5738  1.2745
  767SOL    HW2 2301   0.250   2.186   1.882  1.7253 -1.7150 -1.5777
  768SOL     OW 2302   0.982   0.743   3.031 -0.5081 -0.1743 -0.9216
  768SOL    HW1 2303   0.928   0.693   2.966 -0.5613 -0.4102  1.6843
  768SOL    HW2 2304   0.945   0.730   0.037  0.0290 -0.1431 -3.2910
  769SOL     OW 2305   1.428   2.664   3.068  0.1304 -0.6408  0.3661
  769SOL    HW1 2306   1.369   2.589   0.015 -0.6586  0.5661  0.4894
  769SOL    HW2 2307   1.526   2.628   3.071  0.4099  2.9762 -1.1232
  770SOL     OW 2308   1.075   0.142   2.429 -0.1264 -0.2343  0.2547
  770SOL    HW1 2309   1.038   0.199   2.352 -0.5438 -4.5940 -1.2682
  770SOL    HW2 2310   1.007   0.064   2.444 -1.1453 -0.2989 -1.6825
  771SOL     OW 2311   0.762   2.675   0.675  0.4516 -0.0423  0.5543
  771SOL    HW1 2312   0.760   2.576   0.679  1.7617  0.9569  0.1749
  771SOL    HW2 2313   0.769   2.706   0.773  0.3192  0.3747 -1.7663
  772SOL     OW 2314   2.824   0.987   0.210  0.2067 -0.4069 -0.5006
  772SOL    HW1 2315   2.804   1.087   0.205 -0.6397  3.4338 -1.6232
  772SOL    HW2 2316   2.916   0.979   0.248 -2.9443  1.8894 -4.4540
  773SOL     OW 2317   1.701   0.854   1.834 -0.5763  0.1478 -0.0966
  773SOL    HW1 2318   1.803   0.867   1.813  0.2698  0.2512 -0.8480
  773SOL    HW2 2319   1.647   0.882   1.750 -0.2511 -0.2883 -0.4865
  774SOL     OW 2320   0.667   0.233   0.638  0.2204  0.0890  0.1838
  774SOL    HW1 2321   0.766   0.221   0.642 -2.3958  0.9292 -0.4733
  774SOL    HW2 2322   0.619   0.169   0.702 -0.1615  0.5867 -1.9330
  775SOL     OW 2323   1.599   3.051   0.341 -0.1399 -0.2740  0.1474
  775SOL    HW1 2324   1.564   2.967   0.387 -0.3404  4.3694  0.9956
  775SOL    HW2 2325   1.536   0.043   0.367 -0.1051 -0.2468 -0.7311
  776SOL     OW 2326   2.374   0.280   2.318 -0.1244  0.1815  0.4345
  776SOL    HW1 2327   2.403   0.347   2.247 -2.0714 -1.8082  1.3590
  776SOL    HW2 2328   2.273   0.293   2.330 -0.3709  0.2445 -0.0137
  777SOL     OW 2329   1.417   1.340   3.070 -0.6839 -0.2784  0.4516
  777SOL    HW1 2330   1.507   1.371   3.030  1.1523  0.8996 -1.5011
  777SOL    HW2 2331   1.352   1.320   2.996  1.6754  0.2292  1.5204
  778SOL     OW 2332   0.291   2.644   0.264  0.2776 -0.3712 -0.1934
  778SOL    HW1 2333   0.201   2.617   0.298 -1.8618  0.2601  2.0451
  778SOL    HW2 2334   0.303   2.744   0.275  0.5185 -1.4089  1.5995
  779SOL     OW 2335   0.215   1.644   0.252 -0.3694  0.3343  0.1762
  779SOL    HW1 2336   0.162   1.556   0.279  1.1715 -2.2029 -0.8000
  779SOL    HW2 2337   0.308   1.614   0.217  0.4789 -2.5133  0.7477
  780SOL     OW 2338   1.962   3.074   1.845 -0.5502 -0.3418  0.3329
  780SOL    HW1 2339   1.992   3.044   1.751 -2.2280  1.2257 -1.1817
  780SOL    HW2 2340   1.983   0.086   1.851 -0.1590 -1.0973  1.8825
  781SOL     OW 2341   1.567   1.129   1.354 -0.3950  0.1019  0.0522
  781SOL    HW1 2342   1.487   1.193   1.345 -2.3870  1.7888 -0.9643
  781SOL    HW2 2343   1.648   1.180   1.325 -0.9183 -0.5232 -2.7602
  782SOL     OW 2344   1.895   2.211   1.896  0.0392  0.7734 -0.1490
  782SOL    HW1 2345   1.820   2.252   1.846  0.5624 -2.0671 -0.7569
  782SOL    HW2 2346   1.851   2.139   1.957 -0.8544 -4.4278  2.7474
  783SOL     OW 2347   1.344   0.528   1.934 -0.5055 -0.5553  0.8615
  783SOL    HW1 2348   1.429   0.583   1.935 -1.7000  4.2460 -1.4924
  783SOL    HW2 2349   1.341   0.430   1.961 -0.2196 -2.2757  0.5361
  784SOL     OW 2350   1.782   1.078   2.406  0.0878 -0.0442  0.3661
  784SOL    HW1 2351   1.706   1.134   2.380  2.6760 -0.7056  0.2355
  784SOL    HW2 2352   1.794   1.007   2.334 -0.1626 -1.7218 -1.5314
  785SOL     OW 2353   2.062   0.427   0.202 -0.3627  0.3773  0.3214
  785SOL    HW1 2354   2.057   0.520   0.248  1.9908 -1.0893  0.4390
  785SOL    HW2 2355   1.969   0.386   0.183  0.8887 -0.0524  1.7227
  786SOL     OW 2356   2.956   1.625   0.618  0.2640 -0.1351  0.6946
  786SOL    HW1 2357   2.896   1.585   0.545 -1.5857 -0.2333 -4.4486
  786SOL    HW2 2358   3.018   1.550   0.651 -1.9525 -0.1221  1.0329
  787SOL     OW 2359   1.748   1.839   0.295  0.6971  0.6925  0.3742
  787SOL    HW1 2360   1.656   1.874   0.275 -1.3905 -0.0220  2.8985
  787SOL    HW2 2361   1.762   1.745   0.251  2.4336 -0.6671 -0.2053
  788SOL     OW 2362   2.318   1.507   1.488 -0.0790 -0.2974  0.0216
  788SOL    HW1 2363   2.389   1.454   1.441  0.7323 -0.2766  0.1204
  788SOL    HW2 2364   2.243   1.528   1.420 -2.2203  3.8412 -2.0894
  789SOL     OW 2365   2.916   1.606   2.212  0.5071  0.3954  0.0576
  789SOL    HW1 2366   3.017   1.616   2.236  0.4956  0.4351  1.7081
  789SOL    HW2 2367   2.879   1.529   2.268  1.5228  1.5435 -1.5487
  790SOL     OW 2368   0.705   3.033   2.634 -0.1925  0.3347 -0.0924
  790SOL    HW1 2369   0.794   3.055   2.588  2.1882  1.7209  0.7603
  790SOL    HW2 2370   0.624   3.080   2.586 -2.1109 -1.1384 -0.0929
  791SOL     OW 2371   0.780   2.820   2.813 -0.2710 -0.2174 -0.3424
  791SOL    HW1 2372   0.881   2.805   2.831  1.5600  0.1320 -3.0773
  791SOL    HW2 2373   0.766   2.893   2.743 -0.8021 -3.1972 -0.4111
  792SOL     OW 2374   1.625   0.271   2.231  0.1338 -0.5781 -0.1472
  792SOL    HW1 2375   1.628   0.173   2.267  1.8101 -0.9815 -1.1838
  792SOL    HW2 2376   1.606   0.340   2.308  1.9006  1.2194 -0.6351
  793SOL     OW 2377   2.943   0.004   2.256 -0.3851  0.5835  0.0619
  793SOL    HW1 2378   2.986   0.096   2.259  0.6445  0.7690 -1.0720
  793SOL    HW2 2379   2.838   0.003   2.251  2.8597 -0.7710 -2.9548
  794SOL     OW 2380   0.606   0.978   1.766 -0.1453  0.0276 -0.0016
  794SOL    HW1 2381   0.580   0.917   1.840 -1.9107 -0.4905 -3.1991
  794SOL    HW2 2382   0.538   0.966   1.692  1.1756 -1.0269 -0.2482
  795SOL     OW 2383   2.800   1.476   0.427 -0.0504  0.1977 -0.1883
  795SOL    HW1 2384   2.831   1.396   0.485  0.7030 -1.9441  3.0063
  795SOL    HW2 2385   2.845   1.469   0.335  0.4735 -3.0052 -0.4787
  796SOL     OW 2386   2.788   2.509   2.714 -0.0814  0.5311  0.2386
  796SOL    HW1 2387   2.773   2.478   2.809  1.0164  0.4613  0.3301
  796SOL    HW2 2388   2.887   2.517   2.688 -0.8465  0.4204  0.2290
  797SOL     OW 2389   2.539   2.434   0.109 -0.3564  0.2645 -0.5243
  797SOL    HW1 2390   2.606   2.354   0.103  1.0468 -1.6868  0.7216
  797SOL    HW2 2391   2.518   2.462   0.016 -0.3840  0.9582  0.5914
  798SOL     OW 2392   0.394   0.918   1.605  0.8576  0.2777 -0.3953
  798SOL    HW1 2393   0.344   0.839   1.645 -0.1430 -0.8774 -1.9616
  798SOL    HW2 2394   0.327   0.971   1.548 -0.3673 -0.4124 -2.2955
  799SOL     OW 2395   2.885   0.515   2.171 -0.0332  0.0651 -0.1551
  799SOL    HW1 2396   2.810   0.581   2.175  0.9136 -1.4641 -0.3264
  799SOL    HW2 2397   2.970   0.558   2.143  0.3421 -1.1029  1.8685
  800SOL     OW 2398   2.650   2.376   0.488 -0.3412 -0.6032 -0.3800
  800SOL    HW1 2399   2.595   2.364   0.574  0.9448 -1.0714  0.1578
  800SOL    HW2 2400   2.740   2.428   0.507  0.1243  1.4507  1.2432
  801SOL     OW 2401   1.274   1.140   0.772  0.0974  0.4642  0.0553
  801SOL    HW1 2402   1.350   1.075   0.750 -1.7489  0.0493  0.1808
  801SOL    HW2 2403   1.213   1.103   0.849 -0.7031 -3.0646  0.5633
  802SOL     OW 2404   1.400   1.803   1.113  0.1496  0.3446 -0.3585
  802SOL    HW1 2405   1.503   1.797   1.125 -1.0433  3.4785  2.3056
  802SOL    HW2 2406   1.374   1.786   1.016  0.0569 -0.5202  0.8543
  803SOL     OW 2407   0.006   1.772   0.333 -0.1075  0.1332  0.1410
  803SOL    HW1 2408   0.088   1.721   0.298  0.0698 -2.0579  0.6538
  803SOL    HW2 2409   0.019   1.807   0.430  0.4361  1.5244 -1.3265
  804SOL     OW 2410   1.123   2.503   0.584  0.9652  0.3140 -0.1875
  804SOL    HW1 2411   1.059   2.580   0.568 -0.5223  2.2364 -0.7510
  804SOL    HW2 2412   1.187   2.523   0.666  1.9303 -1.2065  1.3678
  805SOL     OW 2413   1.399   2.025   2.305  0.2604 -0.2681  1.0193
  805SOL    HW1 2414   1.437   1.957   2.367  2.4060 -0.3125 -1.1645
  805SOL    HW2 2415   1.477   2.081   2.272  1.6666  0.5153  0.8633
  806SOL     OW 2416   1.467   0.092   1.376  0.1089  0.4337  0.0743
  806SOL    HW1 2417   1.479   0.158   1.452  1.4286 -1.0266 -3.2427
  806SOL    HW2 2418   1.371   0.082   1.343 -0.8440  0.8162  0.4911
  807SOL     OW 2419   1.904   2.989   2.588  0.1006  0.3636  0.4436
  807SOL    HW1 2420   1.809   3.020   2.580  0.2979  0.6956 -1.3129
  807SOL    HW2 2421   1.949   3.005   2.678 -1.3669 -1.8792 -2.2018
  808SOL     OW 2422   0.509   1.668   0.133  0.2875 -0.2632  0.1557
  808SOL    HW1 2423   0.467   1.581   0.159  1.1865 -0.4162 -1.8972
  808SOL    HW2 2424   0.590   1.658   0.071  0.5466  2.6882  0.7432
  809SOL     OW 2425   2.869   0.664   2.537  0.2243  0.3629 -0.4356
  809SOL    HW1 2426   2.961   0.641   2.512 -2.4128  0.6922  1.1793
  809SOL    HW2 2427   2.805   0.587   2.512  0.8842 -1.0121 -0.2232
  810SOL     OW 2428   0.100   0.380   2.415  0.2399  0.3072 -0.4290
  810SOL    HW1 2429   0.083   0.476   2.444 -0.1021  1.4255  2.5661
  810SOL    HW2 2430   0.197   0.350   2.427 -1.1578  0.2134 -1.3309
  811SOL     OW 2431   2.021   2.367   1.701  0.5050 -0.4044 -0.9072
  811SOL    HW1 2432   1.989   2.343   1.794  0.6467 -2.6305  0.5409
  811SOL    HW2 2433   2.113   2.404   1.698 -1.0175 -1.4244 -1.0830
  812SOL     OW 2434   1.393   0.603   0.339 -0.2554 -0.4452  0.6345
  812SOL    HW1 2435   1.333   0.683   0.334 -0.2379 -1.4138  0.6036
  812SOL    HW2 2436   1.365   0.534   0.273  0.3510  3.1765  0.0431
  813SOL     OW 2437   1.883   0.370   2.134  0.0951 -0.3222  0.0465
  813SOL    HW1 2438   1.793   0.322   2.141 -0.4509  1.4793  1.5570
  813SOL    HW2 2439   1.878   0.463   2.177 -1.0887  1.2992  0.4288
  814SOL     OW 2440   1.901   1.038   1.343 -0.4080  0.0691  0.1063
  814SOL    HW1 2441   1.980   1.009   1.288  1.5131 -0.3601 -1.0095
  814SOL    HW2 2442   1.873   1.136   1.329  2.3787 -1.8364 -0.4496
  815SOL     OW 2443   0.686   0.905   0.636  0.2402 -0.1688  1.2945
  815SOL    HW1 2444   0.617   0.905   0.705 -0.8629  2.2250  0.1324
  815SOL    HW2 2445   0.642   0.880   0.546  0.9606 -1.1555  0.7658
  816SOL     OW 2446   2.154   2.138   2.751  0.1119 -0.3372 -0.5463
  816SOL    HW1 2447   2.224   2.114   2.677 -0.9940 -2.8896 -1.6249
  816SOL    HW2 2448   2.075   2.073   2.761 -1.2725 -0.3099  0.7586
  817SOL     OW 2449   2.878   2.655   1.183 -0.5814 -0.5368 -0.1664
  817SOL    HW1 2450   2.943   2.701   1.123  0.8033 -1.2436 -1.2669
  817SOL    HW2 2451   2.931   2.618   1.258  1.1860  2.0071  0.0620
  818SOL     OW 2452   1.327   0.401   0.177  0.2921  1.1596  0.0103
  818SOL    HW1 2453   1.273   0.392   0.088  1.9700  0.4851  0.3312
  818SOL    HW2 2454   1.393   0.319   0.182  2.6211 -0.2530  1.2623
  819SOL     OW 2455   0.559   0.456   0.733 -0.1942 -0.4180 -0.0300
  819SOL    HW1 2456   0.605   0.443   0.823  4.2317 -1.2516 -3.7929
  819SOL    HW2 2457   0.596   0.384   0.670 -2.1056 -1.6138 -1.5389
  820SOL     OW 2458   2.026   0.587   1.177  0.2273 -0.1593 -0.4175
  820SOL    HW1 2459   2.074   0.642   1.107  2.0389 -1.8436  0.3074
  820SOL    HW2 2460   2.042   0.625   1.270 -0.7019 -1.2018 -2.9647
  821SOL     OW 2461   2.754   3.025   0.537 -0.1243 -0.3153 -0.2451
  821SOL    HW1 2462   2.707   3.058   0.619  3.1523  1.3817  0.4419
  821SOL    HW2 2463   2.728   2.930   0.516  0.6603  0.6848  3.2239
  822SOL     OW 2464   1.032   2.491   2.798  0.1581 -0.3792  0.4530
  822SOL    HW1 2465   1.001   2.543   2.715  0.7205  2.2961 -3.0290
  822SOL    HW2 2466   0.947   2.493   2.861 -2.2746  0.5359  0.5602
  823SOL     OW 2467   2.760   1.283   1.717 -0.4753 -0.0148  0.3514
  823SOL    HW1 2468   2.753   1.361   1.786 -0.0146  3.4690  0.0360
  823SOL    HW2 2469   2.693   1.209   1.741  2.5988 -2.8316 -1.5369
  824SOL     OW 2470   0.757   3.004   2.226  0.0843 -0.2751  0.0008
  824SOL    HW1 2471   0.787   2.924   2.274 -0.9887 -0.5243 -0.2594
  824SOL    HW2 2472   0.655   3.012   2.223  0.9486 -1.2110  0.7023
  825SOL     OW 2473   1.341   1.771   0.025  0.0364 -0.7631  0.8337
  825SOL    HW1 2474   1.291   1.852   3.073  1.2719  0.9825 -0.5123
  825SOL    HW2 2475   1.404   1.731   3.043  1.9395  0.8573 -0.7269
  826SOL     OW 2476   1.352   2.274   3.035  0.1924 -0.0492  0.5589
  826SOL    HW1 2477   1.449   2.310   3.040  1.7540  0.9670 -0.6707
  826SOL    HW2 2478   1.323   2.214   0.028 -1.0959 -0.0881  2.3253
  827SOL     OW 2479   0.353   1.666   1.924  0.0275  0.2142 -0.2836
  827SOL    HW1 2480   0.312   1.657   1.830  0.2223 -0.6431 -0.3734
  827SOL    HW2 2481   0.435   1.613   1.943 -3.2036  2.9109 -0.7001
  828SOL     OW 2482   3.083   1.875   0.971 -0.4871  0.4595 -0.2530
  828SOL    HW1 2483   0.046   1.937   1.031  0.5040 -0.3646 -1.1849
  828SOL    HW2 2484   2.985   1.910   0.960 -2.4998 -0.9613 -1.0503
  829SOL     OW 2485   2.930   2.552   3.068  0.7219  0.2942 -0.1448
  829SOL    HW1 2486   3.018   2.522   0.009 -2.3761  0.8955  0.3203
  829SOL    HW2 2487   2.882   2.481   3.011 -2.3224 -0.6980  1.3501
  830SOL     OW 2488   1.199   0.868   0.587 -0.5527 -0.1290 -0.3039
  830SOL    HW1 2489   1.286   0.895   0.634  0.2134  2.9837 -0.6124
  830SOL    HW2 2490   1.118   0.910   0.628  0.4548  0.4675 -2.4161
  831SOL     OW 2491   2.809   2.339   2.959  0.0533  0.3351 -0.1451
  831SOL    HW1 2492   2.779   2.280   2.883 -0.8352 -0.0663  0.4011
  831SOL    HW2 2493   2.772   2.304   3.048 -2.0093  0.3900 -4.1754
  832SOL     OW 2494   1.448   2.261   0.404  0.0733  0.0642  0.3320
  832SOL    HW1 2495   1.505   2.221   0.328  1.7346  2.0850  0.1258
  832SOL    HW2 2496   1.458   2.211   0.495 -1.3170 -1.7088  1.3971
  833SOL     OW 2497   0.561   1.101   2.683 -0.6437  0.0125 -0.1422
  833SOL    HW1 2498   0.639   1.169   2.678  1.5647  0.1518 -0.1920
  833SOL    HW2 2499   0.473   1.149   2.685  3.5152 -1.2458  3.0122
  834SOL     OW 2500   2.773   0.816   0.907 -0.8819  0.1095 -0.6477
  834SOL    HW1 2501   2.795   0.734   0.961  1.6824 -0.0117  3.4681
  834SOL    HW2 2502   2.681   0.846   0.934  0.2474 -1.3431 -1.6497
  835SOL     OW 2503   2.378   0.681   2.158  0.1118 -0.0359 -0.4457
  835SOL    HW1 2504   2.400   0.683   2.257 -2.4696 -1.5410  2.0699
  835SOL    HW2 2505   2.345   0.776   2.128 -1.2513 -1.2942  1.5382
  836SOL     OW 2506   0.776   1.935   0.412  0.2898 -0.1128  0.5690
  836SOL    HW1 2507   0.692   1.881   0.409 -0.7517  2.0823  1.1693
  836SOL    HW2 2508   0.858   1.873   0.407  1.0981  0.0962 -0.3895
  837SOL     OW 2509   2.364   1.663   1.954  0.1357 -0.0833  0.1600
  837SOL    HW1 2510   2.292   1.739   1.963 -1.3420  2.1941 -2.6663
  837SOL    HW2 2511   2.329   1.567   1.972 -4.4571  0.3151 -0.5655
  838SOL     OW 2512   0.185   1.059   2.449  0.5038  0.2742 -0.5360
  838SOL    HW1 2513   0.202   0.979   2.511  2.8147 -2.1534  1.6105
  838SOL    HW2 2514   0.212   1.041   2.356  1.1695  0.2265  0.1289
  839SOL     OW 2515   0.500   3.049   2.981  0.0012  0.0625 -0.2526
  839SOL    HW1 2516   0.496   2.974   2.910 -1.7250  0.4869 -0.4066
  839SOL    HW2 2517   0.599   3.085   2.985  2.6268 -0.3011 -1.6061
  840SOL     OW 2518   2.987   1.070   2.730 -0.7275  0.2428 -0.4883
  840SOL    HW1 2519   3.085   1.072   2.763  2.4855  1.1713  1.9312
  840SOL    HW2 2520   2.930   1.033   2.809  1.6238 -0.2137  0.3415
  841SOL     OW 2521   0.649   2.032   2.674 -0.1233  0.1054  0.2531
  841SOL    HW1 2522   0.630   2.117   2.729  3.0637 -1.8358  2.2364
  841SOL    HW2 2523   0.714   2.058   2.603 -0.0790 -0.2343  0.0930
  842SOL     OW 2524   0.835   0.169   1.116  0.1221 -0.0303  0.2194
  842SOL    HW1 2525   0.736   0.148   1.110  0.0711  0.0087 -0.6932
  842SOL    HW2 2526   0.848   0.265   1.158 -0.3132 -1.0108  0.7760
  843SOL     OW 2527   0.086   1.646   2.322  0.5773  0.1879  0.1746
  843SOL    HW1 2528   0.111   1.615   2.227  0.0227 -0.4232 -1.5729
  843SOL    HW2 2529   0.161   1.623   2.388 -1.0888  0.4671 -1.4439
  844SOL     OW 2530   1.584   2.179   2.186 -0.0618  0.2017 -0.3134
  844SOL    HW1 2531   1.672   2.145   2.143  1.1278 -0.2780 -0.4016
  844SOL    HW2 2532   1.508   2.198   2.121 -0.2219  0.1446  1.3146
  845SOL     OW 2533   2.550   2.690   2.488  0.2160  0.4875 -0.1699
  845SOL    HW1 2534   2.594   2.720   2.572  0.7524  0.1346 -2.1494
  845SOL    HW2 2535   2.454   2.720   2.470 -0.3338 -1.6053  1.0765
  846SOL     OW 2536   2.202   1.737   2.904 -0.5380  0.4158 -0.2120
  846SOL    HW1 2537   2.258   1.813   2.866  0.0817 -0.0306 -0.4755
  846SOL    HW2 2538   2.156   1.765   2.987  2.6540  0.7642 -0.7389
  847SOL     OW 2539   2.463   0.133   2.812  0.1243  0.1330 -0.2607
  847SOL    HW1 2540   2.431   0.145   2.717 -2.0133  2.4664  2.0976
  847SOL    HW2 2541   2.552   0.082   2.813 -2.8271 -1.1055  1.0503
  848SOL     OW 2542   2.501   0.652   0.312  0.3636  0.1165 -0.2688
  848SOL    HW1 2543   2.542   0.564   0.284 -0.8468  0.6066  1.6734
  848SOL    HW2 2544   2.440   0.635   0.393 -0.2924  0.6559 -1.0814
  849SOL     OW 2545   1.235   0.070   2.697  0.0664 -0.3420 -0.2663
  849SOL    HW1 2546   1.273   0.114   2.612  0.9767  0.7326 -0.6360
  849SOL    HW2 2547   1.194   3.066   2.671 -0.4538 -0.0010 -1.0091
  850SOL     OW 2548   2.706   0.886   0.525 -0.0597 -0.2251  0.2074
  850SOL    HW1 2549   2.728   0.889   0.426  0.8682  1.1378 -0.5014
  850SOL    HW2 2550   2.778   0.829   0.572 -0.1263 -0.5258 -0.8636
  851SOL     OW 2551   0.039   1.203   0.880 -0.0824  0.6186 -0.2166
  851SOL    HW1 2552   0.126   1.218   0.932  1.2083  1.3350  0.7870
  851SOL    HW2 2553   0.018   1.105   0.865  0.7997 -4.4592 -1.2747
  852SOL     OW 2554   1.639   0.834   2.525  0.4616  0.2534 -0.1930
  852SOL    HW1 2555   1.732   0.878   2.531 -2.1441 -0.7226 -0.7022
  852SOL    HW2 2556   1.567   0.902   2.540 -0.8198 -0.7516  0.2146
  853SOL     OW 2557   2.120   1.270   0.103  0.4458 -0.3310  0.4616
  853SOL    HW1 2558   2.139   1.222   0.188 -1.7463  3.9972  0.5645
  853SOL    HW2 2559   2.167   1.231   0.024 -1.4517 -0.6389  3.2436
  854SOL     OW 2560   1.130   1.187   1.915  0.7487 -0.2578 -0.0657
  854SOL    HW1 2561   1.170   1.093   1.911  2.8794  0.2193 -0.0481
  854SOL    HW2 2562   1.129   1.220   2.012 -0.4809 -0.8581 -0.8293
  855SOL     OW 2563   0.477   2.406   1.997  0.0964  0.6460  0.3328
  855SOL    HW1 2564   0.403   2.470   2.030 -1.6486  0.8530 -0.1120
  855SOL    HW2 2565   0.433   2.339   1.932  0.6514  0.1419  0.3618
  856SOL     OW 2566   1.167   1.037   2.425 -0.3073  0.2865  0.3640
  856SOL    HW1 2567   1.160   1.138   2.408 -3.6725  0.0533 -1.2609
  856SOL    HW2 2568   1.073   0.996   2.431  1.5655 -0.5172  1.3536
  857SOL     OW 2569   0.944   1.155   2.663 -0.0040  0.5292 -0.3183
  857SOL    HW1 2570   0.950   1.180   2.763 -0.3705  2.1677  1.7436
  857SOL    HW2 2571   1.012   1.083   2.634  0.6571 -2.8268  0.3250
  858SOL     OW 2572   0.268   0.724   1.738 -0.7049  0.5519 -0.3040
  858SOL    HW1 2573   0.169   0.745   1.726  1.4501  1.6202  0.6043
  858SOL    HW2 2574   0.280   0.660   1.817 -0.7274  2.9509 -1.3865
  859SOL     OW 2575   2.303   2.999   1.044 -0.1052 -0.1012  0.2113
  859SOL    HW1 2576   2.379   2.967   1.102  0.5716  0.1927 -2.8907
  859SOL    HW2 2577   2.281   0.011   1.066  1.8330 -0.2637 -0.2036
  860SOL     OW 2578   1.155   0.922   1.349  1.0302 -0.1783 -0.1633
  860SOL    HW1 2579   1.091   0.847   1.355 -0.1259 -0.0064  2.2122
  860SOL    HW2 2580   1.251   0.907   1.378 -0.0151  1.7454 -1.2412
  861SOL     OW 2581   1.711   0.855   1.215 -0.0394 -0.0388  0.4246
  861SOL    HW1 2582   1.680   0.812   1.303 -1.3697  2.1437  0.7155
  861SOL    HW2 2583   1.774   0.933   1.231  1.2150  0.1115 -0.5942
  862SOL     OW 2584   0.963   0.323   2.269 -0.5281 -0.0221  0.1865
  862SOL    HW1 2585   0.868   0.304   2.234 -1.3541  1.1773 -2.3469
  862SOL    HW2 2586   0.972   0.420   2.299 -1.6573 -2.1604 -2.5133
  863SOL     OW 2587   2.659   0.188   1.456 -0.2430 -0.1599 -0.2362
  863SOL    HW1 2588   2.607   0.211   1.543  1.0254 -1.3301 -2.2104
  863SOL    HW2 2589   2.731   0.257   1.435  0.2402  1.4779  1.9203
  864SOL     OW 2590   2.983   2.854   2.413 -0.0390  0.4140 -0.5803
  864SOL    HW1 2591   2.918   2.781   2.393  0.1210  0.1547 -0.4820
  864SOL    HW2 2592   2.973   2.937   2.354  1.8156  0.6506 -0.7839
  865SOL     OW 2593   1.189   1.363   2.442  0.3559 -0.0336 -0.0733
  865SOL    HW1 2594   1.135   1.323   2.520 -0.1132 -0.5576 -0.0913
  865SOL    HW2 2595   1.188   1.464   2.441 -1.5353 -0.9533  0.5487
  866SOL     OW 2596   2.723   2.530   0.860 -0.0171 -0.3624  0.5218
  866SOL    HW1 2597   2.821   2.511   0.856  1.3215  0.1072  1.9830
  866SOL    HW2 2598   2.667   2.452   0.821 -1.2674  0.6688 -1.5222
  867SOL     OW 2599   2.592   2.633   1.203  0.2637  0.0008 -0.0810
  867SOL    HW1 2600   2.690   2.658   1.183  2.8197  0.0394  1.9769
  867SOL    HW2 2601   2.597   2.535   1.226  0.0558  0.9188  0.8208
  868SOL     OW 2602   2.993   1.256   1.303  0.0264  0.0356 -0.3764
  868SOL    HW1 2603   3.012   1.176   1.237 -0.7514 -1.6114 -0.8026
  868SOL    HW2 2604   3.074   1.323   1.309  1.8778  1.1302  1.8838
  869SOL     OW 2605   2.023   2.063   2.270 -0.1692  0.2635  0.7369
  869SOL    HW1 2606   1.947   2.108   2.317 -3.5886  0.8365 -0.0433
  869SOL    HW2 2607   2.069   1.996   2.332  0.7880 -0.8641 -0.4928
  870SOL     OW 2608   1.715   0.977   0.839 -0.4236  0.4277 -0.3153
  870SOL    HW1 2609   1.675   0.994   0.934  0.0286  0.8578  1.6461
  870SOL    HW2 2610   1.699   1.066   0.793 -0.5829 -0.0466 -1.6015
  871SOL     OW 2611   2.583   1.716   1.777 -0.1872  0.1952  0.0639
  871SOL    HW1 2612   2.487   1.715   1.813 -2.9078  0.7439  0.0088
  871SOL    HW2 2613   2.582   1.700   1.673 -1.5079  1.7198  0.0972
  872SOL     OW 2614   1.278   1.652   2.807  0.0311 -0.1362 -0.3529
  872SOL    HW1 2615   1.209   1.727   2.801  0.2159 -0.6305  0.5335
  872SOL    HW2 2616   1.367   1.678   2.846 -1.2865  0.1188  1.0447
  873SOL     OW 2617   1.055   1.304   1.689 -0.7966 -0.0273 -0.3730
  873SOL    HW1 2618   1.042   1.221   1.632  1.7199 -1.5019  0.7743
  873SOL    HW2 2619   1.087   1.277   1.782  3.0788 -0.9710 -2.1108
  874SOL     OW 2620   1.120   1.193   1.319 -0.5877  0.6337  0.2507
  874SOL    HW1 2621   1.116   1.091   1.328  0.3183  1.5757 -0.2217
  874SOL    HW2 2622   1.035   1.239   1.346  2.7836  0.2139 -1.5078
  875SOL     OW 2623   2.696   0.044   2.786  0.3867 -0.1476  0.2541
  875SOL    HW1 2624   2.756   0.041   2.706 -1.4085  0.0522  0.7086
  875SOL    HW2 2625   2.713   3.053   2.853  2.9929  0.0464  1.1813
  876SOL     OW 2626   0.965   0.957   0.685  0.0707 -0.4975  0.1757
  876SOL    HW1 2627   0.868   0.942   0.669  2.2689 -0.3380 -1.0634
  876SOL    HW2 2628   0.990   1.048   0.658 -1.8633 -2.4483  0.1629
  877SOL     OW 2629   1.815   2.816   0.652 -0.4122 -0.6598 -0.1050
  877SOL    HW1 2630   1.829   2.881   0.574 -1.4547 -0.0070  1.2401
  877SOL    HW2 2631   1.894   2.752   0.653 -1.1868 -0.0112 -1.4813
  878SOL     OW 2632   2.297   2.081   0.203  0.8086 -0.4607  0.2219
  878SOL    HW1 2633   2.382   2.028   0.179  1.8410 -1.9886  0.4670
  878SOL    HW2 2634   2.313   2.179   0.223  1.2849 -0.5584 -1.3015
  879SOL     OW 2635   0.376   2.514   1.673  0.0481  0.0708 -0.1270
  879SOL    HW1 2636   0.313   2.496   1.747 -1.0985  0.7004 -0.9228
  879SOL    HW2 2637   0.331   2.497   1.583  0.9480 -2.5335  0.2066
  880SOL     OW 2638   0.356   1.736   0.840 -0.1454 -0.7909 -0.0940
  880SOL    HW1 2639   0.352   1.834   0.882  0.3257  0.8973  0.4351
  880SOL    HW2 2640   0.454   1.706   0.852  0.8710 -0.8024 -0.0147
  881SOL     OW 2641   1.339   0.161   2.434  0.6644 -0.0020 -0.7452
  881SOL    HW1 2642   1.235   0.146   2.426 -0.0594 -0.4907  2.4417
  881SOL    HW2 2643   1.359   0.256   2.465 -0.6783  2.2834  0.8547
  882SOL     OW 2644   2.629   1.210   0.474  0.0013 -0.0481  1.0158
  882SOL    HW1 2645   2.534   1.245   0.476  1.4519 -2.6607  0.9804
  882SOL    HW2 2646   2.678   1.209   0.565  1.8304  0.7357  0.4907
  883SOL     OW 2647   1.566   0.617   2.661 -0.4336  0.4126  0.0520
  883SOL    HW1 2648   1.630   0.625   2.741 -0.9808 -0.7263 -0.3301
  883SOL    HW2 2649   1.587   0.690   2.598 -2.0236 -2.1329  1.4474
  884SOL     OW 2650   0.020   0.211   1.966  0.0722 -0.4222 -0.7060
  884SOL    HW1 2651   0.022   0.266   2.051 -1.4151  0.2472  0.4481
  884SOL    HW2 2652   0.112   0.178   1.934 -0.0282 -1.1186  1.3431
  885SOL     OW 2653   2.060   1.457   2.419 -0.6891  0.3033 -0.4825
  885SOL    HW1 2654   2.048   1.475   2.316 -0.8927  0.7121 -0.3941
  885SOL    HW2 2655   2.001   1.518   2.469  0.4523 -2.3516 -0.1213
  886SOL     OW 2656   1.730   0.303   2.917 -0.0033 -0.3572  0.3168
  886SOL    HW1 2657   1.832   0.309   2.931 -1.9024  0.4562  1.6258
  886SOL    HW2 2658   1.717   0.275   2.819  0.3743 -1.2739  1.3088
  887SOL     OW 2659   1.098   2.882   1.623  0.3116  0.7085  0.8374
  887SOL    HW1 2660   1.176   2.926   1.671 -1.3959  0.7413  2.3252
  887SOL    HW2 2661   1.118   2.782   1.607 -2.6079 -2.2192  0.4348
  888SOL     OW 2662   2.401   1.023   1.352 -0.0555 -0.1261 -0.5302
  888SOL    HW1 2663   2.363   1.062   1.441 -2.0298  0.6018  3.5413
  888SOL    HW2 2664   2.499   1.021   1.340 -3.3691  0.0770 -0.6729
  889SOL     OW 2665   2.021   2.476   1.325 -0.2941 -0.0639 -1.4224
  889SOL    HW1 2666   1.939   2.512   1.375  0.1681 -0.3083 -1.1851
  889SOL    HW2 2667   2.059   2.401   1.378 -2.1061  1.6228 -0.7662
  890SOL     OW 2668   0.938   2.370   0.869 -0.1616  0.3574 -0.7907
  890SOL    HW1 2669   1.004   2.293   0.877 -0.8640  1.0616 -0.7844
  890SOL    HW2 2670   0.980   2.455   0.918  5.0055  2.0897 -0.5822
  891SOL     OW 2671   2.811   1.563   0.006 -0.4590 -0.0058 -0.5449
  891SOL    HW1 2672   2.750   1.483   0.040  0.8186 -2.7796  1.5722
  891SOL    HW2 2673   2.906   1.529   3.066  2.6721 -1.0569  0.7982
  892SOL     OW 2674   2.565   1.749   2.397  0.6091  0.3537 -0.3339
  892SOL    HW1 2675   2.645   1.807   2.427  0.0938 -0.5407 -2.4546
  892SOL    HW2 2676   2.567   1.737   2.296 -1.8638  1.4602 -1.8254
  893SOL     OW 2677   2.344   2.652   0.942 -0.3225  0.7064 -0.2675
  893SOL    HW1 2678   2.357   2.682   0.844  1.8810  5.0225  2.8699
  893SOL    HW2 2679   2.414   2.587   0.970 -2.2405  1.6819 -0.3147
  894SOL     OW 2680   2.901   0.783   0.650 -0.0883 -0.0545 -1.0043
  894SOL    HW1 2681   2.855   0.789   0.743 -1.5401  1.0181  3.9493
  894SOL    HW2 2682   2.898   0.683   0.620  3.0248 -1.7850  2.1369
  895SOL     OW 2683   2.977   2.354   2.446  0.0634  0.2231  0.0895
  895SOL    HW1 2684   2.937   2.403   2.367 -0.3764 -0.8594  1.1508
  895SOL    HW2 2685   2.974   2.414   2.525 -2.6311 -2.8700 -1.9732
  896SOL     OW 2686   1.980   2.501   2.458 -0.5576  0.3415  0.9356
  896SOL    HW1 2687   2.078   2.486   2.481 -0.0832 -0.1201  0.8233
  896SOL    HW2 2688   1.927   2.428   2.510 -1.0579  0.4052  1.6732
  897SOL     OW 2689   0.184   1.587   1.723 -0.4754 -0.1430  0.1644
  897SOL    HW1 2690   0.196   1.499   1.673  0.7189 -0.9561  1.8186
  897SOL    HW2 2691   0.082   1.603   1.748 -1.1199  2.4093  1.9718
  898SOL     OW 2692   0.099   2.076   1.887  0.2343  0.1075  0.1469
  898SOL    HW1 2693   0.057   1.986   1.854  1.3516 -2.5671 -4.2254
  898SOL    HW2 2694   0.028   2.140   1.921 -1.0430  0.7983 -1.1161
  899SOL     OW 2695   1.787   0.079   1.581  0.3994  0.1947 -0.4775
  899SOL    HW1 2696   1.740   0.067   1.495  1.0656  0.1683  2.1253
  899SOL    HW2 2697   1.860   0.008   1.593  1.0345 -0.6906  0.8518
  900SOL     OW 2698   1.543   1.169   0.465  0.1051  0.0612 -0.2423
  900SOL    HW1 2699   1.637   1.184   0.426 -1.6269  0.9344  0.0204
  900SOL    HW2 2700   1.473   1.204   0.402  1.1976  1.9169 -0.9115
  901SOL     OW 2701   1.460   1.308   2.420  0.5313 -0.4772 -0.6982
  901SOL    HW1 2702   1.495   1.243   2.345 -0.8835 -0.6337 -2.4804
  901SOL    HW2 2703   1.361   1.327   2.421  1.0147  2.1439 -0.1641
  902SOL     OW 2704   3.043   2.505   0.918 -0.0707 -0.3971 -0.2807
  902SOL    HW1 2705   3.034   2.603   0.909 -0.4605 -1.1561  2.8529
  902SOL    HW2 2706   0.041   2.480   0.957 -2.3402 -0.9061 -0.3936
  903SOL     OW 2707   2.929   1.152   2.137 -0.6276  0.4254 -0.0342
  903SOL    HW1 2708   2.891   1.211   2.207  0.4255 -2.3939 -2.3746
  903SOL    HW2 2709   2.849   1.116   2.082 -0.5798 -0.7739 -0.4612
  904SOL     OW 2710   1.216   1.528   0.042  0.1124  0.4966 -0.3313
  904SOL    HW1 2711   1.275   1.462   3.079 -0.0615  1.2757 -0.6632
  904SOL    HW2 2712   1.253   1.619   0.046 -0.5050 -2.3793 -0.7176
  905SOL     OW 2713   2.110   2.646   1.869 -0.5134  0.3915 -0.7526
  905SOL    HW1 2714   2.138   2.551   1.889 -1.6689 -2.2596 -0.5266
  905SOL    HW2 2715   2.189   2.708   1.842 -0.0371  0.0914 -1.8636
  906SOL     OW 2716   1.744   2.633   2.767 -0.4732  0.5981  0.0688
  906SOL    HW1 2717   1.835   2.649   2.804 -0.5770  1.2827 -1.1531
  906SOL    HW2 2718   1.744   2.645   2.663 -1.7898  0.5703  0.3545
  907SOL     OW 2719   0.287   2.757   0.978 -0.2180  0.2024  0.1398
  907SOL    HW1 2720   0.385   2.773   1.009  2.2003  1.0577 -0.1699
  907SOL    HW2 2721   0.280   2.773   0.877 -1.5838 -2.5868  0.7389
  908SOL     OW 2722   0.712   0.006   1.802 -0.0202 -0.6653 -0.1373
  908SOL    HW1 2723   0.814   0.002   1.783  4.0865 -0.2817  0.5359
  908SOL    HW2 2724   0.685   3.003   1.838 -0.6470  1.0259 -3.2848
  909SOL     OW 2725   1.637   0.438   1.407  0.2960  0.2926  0.1136
  909SOL    HW1 2726   1.686   0.497   1.473 -1.2377 -2.5612 -0.0788
  909SOL    HW2 2727   1.575   0.489   1.346 -1.1526 -1.0676 -1.0087
  910SOL     OW 2728   0.777   0.510   0.321 -0.1972  0.1031 -0.1395
  910SOL    HW1 2729   0.774   0.549   0.415  0.3010 -0.9165 -1.1946
  910SOL    HW2 2730   0.743   0.418   0.325  3.4963  1.4509 -0.3534
  911SOL     OW 2731   0.288   0.084   3.068 -0.7379 -0.5831  0.1644
  911SOL    HW1 2732   0.220   0.011   0.001 -0.5228  0.0966  1.3758
  911SOL    HW2 2733   0.375   0.042   3.036 -1.5025  3.2665  2.5388
  912SOL     OW 2734   3.067   2.500   2.664  0.1722  0.0379  0.2631
  912SOL    HW1 2735   0.025   2.587   2.680 -1.1191 -1.7833 -1.9483
  912SOL    HW2 2736   0.046   2.424   2.637 -2.3479  1.2963 -0.6459
  913SOL     OW 2737   2.208   2.603   0.322 -0.1941  0.4647  0.5949
  913SOL    HW1 2738   2.125   2.664   0.301  0.9104  1.5945 -3.4343
  913SOL    HW2 2739   2.284   2.665   0.348  0.7414  2.7048  1.2728
  914SOL     OW 2740   1.515   1.672   1.970 -0.0536 -0.1906  0.1829
  914SOL    HW1 2741   1.614   1.684   1.989 -0.1556 -2.1889 -1.1779
  914SOL    HW2 2742   1.468   1.762   1.985  1.4295  0.5229 -2.4183
  915SOL     OW 2743   2.918   2.513   2.200  0.5607  0.1260  0.4801
  915SOL    HW1 2744   3.003   2.559   2.155 -2.2904  0.0549 -1.1862
  915SOL    HW2 2745   2.861   2.588   2.248 -0.7525  2.2630  0.3290
  916SOL     OW 2746   0.018   0.660   2.084  0.2336 -0.1825  0.0001
  916SOL    HW1 2747   0.028   0.744   2.029 -0.8505 -1.6642 -0.7386
  916SOL    HW2 2748   0.115   0.629   2.108 -0.1952 -1.9860 -1.2194
  917SOL     OW 2749   1.857   0.029   3.035 -0.1387 -0.1713  0.0037
  917SOL    HW1 2750   1.822   0.074   0.032 -1.2848 -1.2405  0.7140
  917SOL    HW2 2751   1.823   3.017   3.026 -0.0858 -0.6122 -0.1631
  918SOL     OW 2752   1.917   2.506   2.185 -0.2091  0.4296 -0.0666
  918SOL    HW1 2753   1.933   2.487   2.284 -0.7074  2.7952  0.1910
  918SOL    HW2 2754   1.974   2.448   2.121 -0.6121  0.6169  2.0853
  919SOL     OW 2755   1.695   2.226   1.690  0.6084  0.0514  0.2004
  919SOL    HW1 2756   1.661   2.320   1.682  0.2868 -0.6493  1.3540
  919SOL    HW2 2757   1.634   2.168   1.743  1.5533 -1.9266  0.4581
  920SOL     OW 2758   0.215   1.130   0.332  0.8548  0.6964  0.1891
  920SOL    HW1 2759   0.123   1.115   0.289 -0.0011  0.2824 -1.3847
  920SOL    HW2 2760   0.223   1.102   0.429 -1.1173  0.8352 -2.6826
  921SOL     OW 2761   2.381   1.143   2.516  0.2052 -0.0668 -0.3129
  921SOL    HW1 2762   2.378   1.223   2.454 -0.7774  0.4504  0.7073
  921SOL    HW2 2763   2.474   1.111   2.537 -1.7725 -1.7752  0.5615
  922SOL     OW 2764   0.977   1.802   0.173  0.2015 -1.1527  0.3492
  922SOL    HW1 2765   0.971   1.765   0.080  1.4061 -1.8324  0.4110
  922SOL    HW2 2766   1.051   1.757   0.224 -0.6675 -0.1707 -2.1799
  923SOL     OW 2767   0.659   1.087   2.317  0.4097 -0.2309  0.4582
  923SOL    HW1 2768   0.707   1.116   2.235 -0.3835  0.4331  1.9795
  923SOL    HW2 2769   0.647   0.990   2.323 -1.6847  2.9952  2.6711
  924SOL     OW 2770   0.520   2.506   2.723 -0.7588 -0.3100  0.7691
  924SOL    HW1 2771   0.542   2.532   2.819  0.4315  0.6566  4.5589
  924SOL    HW2 2772   0.433   2.549   2.691 -0.6376  5.1949  0.1258
  925SOL     OW 2773   1.671   1.289   1.007  0.1541  0.3609 -0.0726
  925SOL    HW1 2774   1.639   1.197   0.999  0.7723  1.4165 -1.9364
  925SOL    HW2 2775   1.609   1.354   0.953 -0.3537  0.8460 -1.3562
  926SOL     OW 2776   1.617   0.432   2.452 -0.0862 -0.8766 -0.3858
  926SOL    HW1 2777   1.577   0.489   2.523  2.0549  1.2947 -0.6957
  926SOL    HW2 2778   1.698   0.476   2.414 -1.3596 -1.7927 -0.4389
  927SOL     OW 2779   2.680   2.803   2.097 -0.1256 -0.1256 -0.1230
  927SOL    HW1 2780   2.585   2.764   2.100 -1.1647  1.1149  0.6976
  927SOL    HW2 2781   2.702   2.831   2.002  1.0449  1.3135  1.6244
  928SOL     OW 2782   0.271   1.495   2.942  0.1944  0.2863  0.1140
  928SOL    HW1 2783   0.268   1.577   3.002  2.6901  2.4958  0.5675
  928SOL    HW2 2784   0.368   1.465   2.935  1.5996  2.7561  0.5841
  929SOL     OW 2785   3.069   0.331   0.543 -0.5690  0.2951 -0.3782
  929SOL    HW1 2786   0.046   0.351   0.618 -0.0975  1.5777 -1.8382
  929SOL    HW2 2787   0.043   0.335   0.461  0.5431 -0.2541  2.7006
  930SOL     OW 2788   2.284   0.248   1.950 -0.3412  0.7607  0.3159
  930SOL    HW1 2789   2.184   0.232   1.948  1.2139 -0.0939  1.3640
  930SOL    HW2 2790   2.329   0.207   1.866 -0.9334 -0.4784  0.1224
  931SOL     OW 2791   2.509   1.129   0.222 -0.1997 -0.1705 -0.5924
  931SOL    HW1 2792   2.564   1.199   0.178 -0.7934  0.4298  0.5525
  931SOL    HW2 2793   2.535   1.127   0.322 -0.4654  0.2380  1.7177
  932SOL     OW 2794   2.504   1.414   1.302 -0.4867 -0.6519 -0.7916
  932SOL    HW1 2795   2.605   1.403   1.284  0.0684 -0.9486 -1.0928
  932SOL    HW2 2796   2.461   1.455   1.221  2.4990  0.4998  1.1472
  933SOL     OW 2797   2.662   2.392   1.546 -0.2432  0.5143 -0.3490
  933SOL    HW1 2798   2.729   2.342   1.609  3.4339 -0.9618 -0.6935
  933SOL    HW2 2799   2.625   2.474   1.594 -2.0082 -2.8816 -1.1165
  934SOL     OW 2800   0.548   2.820   1.024  0.0616 -0.1395  0.3488
  934SOL    HW1 2801   0.628   2.753   1.005  0.8934  2.7890  0.1201
  934SOL    HW2 2802   0.545   2.846   1.120 -2.2299 -0.1464  2.3952
  935SOL     OW 2803   2.550   1.026   2.171 -0.8102 -0.3318  0.0411
  935SOL    HW1 2804   2.619   1.010   2.242 -4.4563  1.3726 -3.1677
  935SOL    HW2 2805   2.524   1.122   2.177  1.6677 -1.6358 -0.1731
  936SOL     OW 2806   2.325   0.943   2.055 -0.3582 -0.1401  0.5887
  936SOL    HW1 2807   2.335   0.944   1.953  0.5672 -0.2686  1.7731
  936SOL    HW2 2808   2.409   0.974   2.103 -0.6313 -0.9682  1.9296
  937SOL     OW 2809   1.746   1.074   1.994  0.2310 -0.3834 -0.5957
  937SOL    HW1 2810   1.707   0.997   1.942  0.9396  1.8905 -1.5490
  937SOL    HW2 2811   1.822   1.044   2.051  0.9416  0.0853  2.0372
  938SOL     OW 2812   0.569   2.584   2.972  0.6795  0.0976 -0.5517
  938SOL    HW1 2813   0.548   2.682   2.959  0.4063 -1.3275  0.6901
  938SOL    HW2 2814   0.504   2.538   3.040  1.4276 -0.8008  0.8931
  939SOL     OW 2815   2.380   0.673   3.079  0.8707  0.0117 -0.0215
  939SOL    HW1 2816   2.316   0.680   2.998 -1.6598  0.5861 -0.8261
  939SOL    HW2 2817   2.394   0.762   0.043  0.9750  1.7762  0.3689
  940SOL     OW 2818   1.100   2.148   0.948  0.7675  0.0387  0.6572
  940SOL    HW1 2819   1.098   2.097   1.039  1.2426  0.1909  0.5120
  940SOL    HW2 2820   1.068   2.085   0.870 -0.6835  0.6590 -3.5210
  941SOL     OW 2821   1.085   2.055   1.753  0.2586 -0.0341  0.3428
  941SOL    HW1 2822   1.031   2.127   1.802  0.2383 -1.4031 -1.3176
  941SOL    HW2 2823   1.023   1.990   1.710  0.3880  1.6114  0.3792
  942SOL     OW 2824   0.098   2.138   3.054  0.0864  0.0805 -0.2086
  942SOL    HW1 2825   0.093   2.041   3.065 -0.8636  2.5733 -2.2132
  942SOL    HW2 2826   0.054   2.168   2.965 -1.7704 -2.8928 -0.1588
  943SOL     OW 2827   2.042   3.002   1.607 -0.1072  0.2707 -0.8632
  943SOL    HW1 2828   2.044   2.906   1.630 -1.8657  1.4301 -4.0119
  943SOL    HW2 2829   2.045   3.027   1.507 -1.7495 -0.3458 -1.2563
  944SOL     OW 2830   1.660   1.962   2.803 -0.2971  0.0085  0.0039
  944SOL    HW1 2831   1.694   1.906   2.879  0.9835 -1.5023  0.3603
  944SOL    HW2 2832   1.578   1.921   2.761  2.0076  0.9243 -1.6131
  945SOL     OW 2833   2.516   2.296   0.695  0.2767 -0.6729  0.6500
  945SOL    HW1 2834   2.538   2.217   0.752  0.4672  4.3005 -3.2832
  945SOL    HW2 2835   2.420   2.300   0.655 -2.0185  2.4926 -0.0363
  946SOL     OW 2836   1.217   1.617   2.525 -0.2792 -1.0805 -0.0034
  946SOL    HW1 2837   1.130   1.667   2.519  0.5147  1.3080 -1.5371
  946SOL    HW2 2838   1.258   1.641   2.617  0.0530 -0.7839  0.0717
  947SOL     OW 2839   0.350   0.632   2.032 -0.1401  0.1912  0.3299
  947SOL    HW1 2840   0.314   0.668   2.121 -2.3776  0.6614  1.1396
  947SOL    HW2 2841   0.354   0.529   2.039  1.6194 -0.4961 -1.8042
  948SOL     OW 2842   0.067   1.431   0.667 -0.0287 -0.3806 -0.0520
  948SOL    HW1 2843   0.109   1.463   0.754  1.1100  0.6453 -0.2993
  948SOL    HW2 2844   0.021   1.340   0.677 -2.3747  1.3036 -1.9151
  949SOL     OW 2845   0.585   0.803   2.300 -0.0193  0.4408  0.5517
  949SOL    HW1 2846   0.545   0.734   2.364 -1.6549 -1.2009  4.4043
  949SOL    HW2 2847   0.639   0.768   2.218 -1.4397 -0.2239 -1.1873
  950SOL     OW 2848   0.176   0.481   1.496 -0.3454  0.1625  0.4028
  950SOL    HW1 2849   0.122   0.393   1.476 -1.1613  1.6238  2.1254
  950SOL    HW2 2850   0.121   0.525   1.569 -3.1972  0.4213 -1.1897
  951SOL     OW 2851   0.639   1.189   2.975 -0.2155 -0.0008 -0.0613
  951SOL    HW1 2852   0.587   1.263   2.931 -0.6513  1.2114 -0.1282
  951SOL    HW2 2853   0.596   1.099   2.950 -1.7823  0.0584  1.1737
  952SOL     OW 2854   1.682   2.082   1.054 -0.0995  0.2122 -0.0824
  952SOL    HW1 2855   1.609   2.156   1.039  2.6118  3.3200 -1.0757
  952SOL    HW2 2856   1.766   2.124   1.097  1.2167 -0.8249 -1.0752
  953SOL     OW 2857   0.537   2.903   0.135 -0.0977 -0.3027 -0.1644
  953SOL    HW1 2858   0.496   2.935   0.220 -1.1688  3.5022 -1.9077
  953SOL    HW2 2859   0.494   2.961   0.063 -0.5999  0.9945  0.2911
  954SOL     OW 2860   2.395   0.721   1.123 -0.2202 -0.4465  0.0335
  954SOL    HW1 2861   2.451   0.748   1.202 -0.9094  1.1096 -0.7620
  954SOL    HW2 2862   2.416   0.629   1.089 -1.5359 -0.3781  1.0014
  955SOL     OW 2863   1.668   1.389   2.912  0.0236 -0.2658  0.1033
  955SOL    HW1 2864   1.750   1.397   2.853 -1.9877 -1.6847  0.7675
  955SOL    HW2 2865   1.679   1.310   2.975 -2.3894  0.3233 -0.2246
  956SOL     OW 2866   1.379   0.927   2.538 -0.0555  0.1689 -0.2781
  956SOL    HW1 2867   1.297   0.958   2.489  1.2665  0.2103 -1.5096
  956SOL    HW2 2868   1.351   0.864   2.610  2.6061  0.8618 -2.3445
  957SOL     OW 2869   1.145   0.180   1.785 -0.1087 -0.4362 -0.1268
  957SOL    HW1 2870   1.125   0.227   1.873  0.6680  0.1485 -1.0972
  957SOL    HW2 2871   1.193   0.239   1.723  0.0867 -3.7621  3.6344
  958SOL     OW 2872   0.354   1.952   0.468  0.1478 -0.3757 -0.6609
  958SOL    HW1 2873   0.343   1.866   0.523 -1.4354  0.5681  0.0441
  958SOL    HW2 2874   0.265   1.976   0.430 -2.1803 -0.1089  1.1850
  959SOL     OW 2875   1.993   0.904   1.826 -0.5262 -0.3697 -0.1434
  959SOL    HW1 2876   2.012   0.971   1.900  0.1925 -1.8754 -0.3040
  959SOL    HW2 2877   2.029   0.811   1.848 -1.0594 -3.2169 -0.2166
  960SOL     OW 2878   0.230   1.819   2.932  0.1511 -0.5835  0.2125
  960SOL    HW1 2879   0.248   1.820   2.829  2.5667  2.5391 -1.4025
  960SOL    HW2 2880   0.285   1.887   2.986 -1.3503  0.8207  1.5788
  961SOL     OW 2881   0.821   1.837   0.952  0.4116 -0.2099  0.9490
  961SOL    HW1 2882   0.793   1.930   0.974 -0.1507 -0.9977 -0.5102
  961SOL    HW2 2883   0.890   1.809   1.017 -4.7483  2.4804  3.4000
  962SOL     OW 2884   0.222   1.788   1.492  0.4403 -0.0861  0.1878
  962SOL    HW1 2885   0.257   1.704   1.436  2.5067 -1.4666 -2.2193
  962SOL    HW2 2886   0.225   1.769   1.595  1.0507  1.1318  2.3041
  963SOL     OW 2887   1.475   1.846   2.481  0.2071  0.3229  0.4414
  963SOL    HW1 2888   1.486   1.748   2.455  1.6887  1.0790  2.4840
  963SOL    HW2 2889   1.565   1.893   2.479 -1.7095 -1.1471  1.1891
  964SOL     OW 2890   0.166   2.983   2.205 -0.3490 -0.4741  0.1460
  964SOL    HW1 2891   0.172   2.918   2.280 -0.6902  1.3828  1.3759
  964SOL    HW2 2892   0.070   2.984   2.169  0.7183  1.8370  1.4742
  965SOL     OW 2893   0.037   2.198   2.805 -0.1140  0.2449 -0.2906
  965SOL    HW1 2894   3.050   2.163   2.743 -0.0079 -1.7229 -2.3504
  965SOL    HW2 2895   0.110   2.239   2.748 -0.9164 -0.7630 -0.7767
  966SOL     OW 2896   2.918   1.810   2.851 -0.3116  0.0211 -0.0355
  966SOL    HW1 2897   2.827   1.770   2.873  0.4395 -1.5569  1.7265
  966SOL    HW2 2898   2.983   1.766   2.910  1.1048  1.0554 -2.0332
  967SOL     OW 2899   1.855   0.064   0.223 -0.1378  0.0976 -0.1575
  967SOL    HW1 2900   1.833   0.164   0.219 -0.9820  0.2025  2.0385
  967SOL    HW2 2901   1.768   0.028   0.262 -0.0967  1.5972  2.4569
  968SOL     OW 2902   2.597   0.034   0.758 -0.6657  0.2762  0.0138
  968SOL    HW1 2903   2.517   3.063   0.778  0.3912 -0.3569 -0.9731
  968SOL    HW2 2904   2.578   0.135   0.751 -0.2732  1.3175  0.5125
  969SOL     OW 2905   0.200   0.968   2.178 -0.1140  0.4662  0.0674
  969SOL    HW1 2906   0.123   0.951   2.113 -0.1896  1.8278  1.0356
  969SOL    HW2 2907   0.278   1.025   2.139  2.5685  1.7518 -0.7547
  970SOL     OW 2908   1.923   1.704   2.823 -0.0251  0.9798 -0.5396
  970SOL    HW1 2909   2.003   1.649   2.800  0.9796  0.5003  3.2354
  970SOL    HW2 2910   1.888   1.680   2.916  0.5245 -3.7815 -1.8072
  971SOL     OW 2911   2.357   0.136   1.720 -0.0814  0.1972 -0.3470
  971SOL    HW1 2912   2.296   0.182   1.655  0.3191  0.4836 -0.7190
  971SOL    HW2 2913   2.400   0.050   1.679  1.7446 -2.7769  2.5486
  972SOL     OW 2914   2.789   0.511   0.755 -0.2130  0.2267  0.7737
  972SOL    HW1 2915   2.688   0.517   0.743 -0.9112  1.2519 -1.7543
  972SOL    HW2 2916   2.829   0.515   0.661 -1.2373 -0.1270 -1.0446
  973SOL     OW 2917   0.502   0.445   2.292 -0.0985  0.2834  0.0655
  973SOL    HW1 2918   0.453   0.400   2.219  1.7061 -0.2543  4.4056
  973SOL    HW2 2919   0.548   0.369   2.348  1.4238 -1.4023  3.1912
  974SOL     OW 2920   2.644   1.015   1.509  0.3175 -0.4078 -0.5183
  974SOL    HW1 2921   2.612   1.035   1.602 -0.5966  0.1695  1.9096
  974SOL    HW2 2922   2.741   1.034   1.506 -0.7982  1.1535  1.2712
  975SOL     OW 2923   1.416   2.909   2.023  0.0874 -0.5901  0.4858
  975SOL    HW1 2924   1.518   2.921   2.005  0.2403 -0.8915  0.1810
  975SOL    HW2 2925   1.389   2.808   2.012  0.2485  1.4376 -3.3686
  976SOL     OW 2926   1.870   1.534   1.354 -0.1193  0.4332  0.1192
  976SOL    HW1 2927   1.899   1.531   1.452  3.6627 -0.2390 -0.4351
  976SOL    HW2 2928   1.891   1.622   1.305 -1.1489  0.5076  2.9565
  977SOL     OW 2929   0.266   2.770   2.946 -0.3179  0.2641 -0.2899
  977SOL    HW1 2930   0.352   2.801   2.908 -1.0558  2.4612  1.0085
  977SOL    HW2 2931   0.269   2.671   2.972 -0.9391 -2.8099 -0.0836
  978SOL     OW 2932   2.039   1.337   2.006 -0.5784 -0.1079  0.6263
  978SOL    HW1 2933   1.944   1.340   1.962 -2.0508  1.6408  0.2138
  978SOL    HW2 2934   2.048   1.421   2.065  0.2832  2.8624  2.5285
  979SOL     OW 2935   1.317   1.006   2.169  0.4965  0.0618  0.5919
  979SOL    HW1 2936   1.258   1.030   2.249 -1.2411  0.2546  1.0028
  979SOL    HW2 2937   1.260   0.985   2.084 -0.0042  1.0164 -0.0013
  980SOL     OW 2938   1.733   1.865   2.346 -0.2529  0.3131 -0.4770
  980SOL    HW1 2939   1.728   1.932   2.270  0.2125  3.3286 -0.6979
  980SOL    HW2 2940   1.824   1.851   2.379 -1.3822  0.0577  0.1082
  981SOL     OW 2941   1.592   0.665   1.997 -0.0375 -0.3792 -0.4855
  981SOL    HW1 2942   1.612   0.744   1.935 -0.3705 -0.7523  1.5178
  981SOL    HW2 2943   1.600   0.701   2.091 -0.9373 -1.5392  1.0006
  982SOL     OW 2944   0.553   0.308   0.231 -0.6745  0.7511 -0.5669
  982SOL    HW1 2945   0.495   0.332   0.310 -0.1981 -1.8918  0.2342
  982SOL    HW2 2946   0.498   0.305   0.145 -1.0639 -1.4579 -1.4665
  983SOL     OW 2947   2.161   0.741   2.891  0.0063 -0.2388 -0.5918
  983SOL    HW1 2948   2.178   0.753   2.793 -1.2076 -1.2887  1.2399
  983SOL    HW2 2949   2.092   0.664   2.900 -2.4020 -0.5431  0.7081
  984SOL     OW 2950   1.006   0.341   2.623  0.4221  0.5635 -0.2801
  984SOL    HW1 2951   1.052   0.298   2.547 -0.2536  3.5845 -3.2348
  984SOL    HW2 2952   1.035   0.305   2.714  3.0261 -1.5498  0.4018
  985SOL     OW 2953   1.340   2.228   2.034 -0.3474  0.0886  0.3680
  985SOL    HW1 2954   1.394   2.192   1.958  0.1514 -0.9494  1.1536
  985SOL    HW2 2955   1.267   2.295   1.998 -1.8666 -0.3529 -0.8878
  986SOL     OW 2956   2.249   2.906   1.786 -0.3939 -0.1460 -0.5660
  986SOL    HW1 2957   2.227   2.994   1.741  1.9093 -0.8784  0.3266
  986SOL    HW2 2958   2.293   2.919   1.878 -2.0899  0.8152 -0.3721
  987SOL     OW 2959   1.946   1.270   0.967  0.1394  0.2856  0.2946
  987SOL    HW1 2960   1.974   1.170   0.980  1.6218 -1.9203 -2.9381
  987SOL    HW2 2961   1.843   1.275   0.987 -0.9143 -2.2874 -0.6185
  988SOL     OW 2962   2.290   1.114   1.611 -0.2232 -0.3254 -0.0278
  988SOL    HW1 2963   2.212   1.154   1.557  0.3687  0.4157  1.7827
  988SOL    HW2 2964   2.349   1.194   1.640 -0.9044 -0.0663  0.8474
  989SOL     OW 2965   1.608   2.153   0.174  0.4076  0.0224  0.8199
  989SOL    HW1 2966   1.569   2.205   0.094  0.2725 -0.8353 -1.1149
  989SOL    HW2 2967   1.703   2.122   0.151  1.7656  0.6683 -1.7449
  990SOL     OW 2968   1.852   0.904   2.795  0.0099  0.0119  0.0910
  990SOL    HW1 2969   1.909   0.931   2.878  2.8492  1.7830  1.5588
  990SOL    HW2 2970   1.828   0.806   2.795  2.5638  1.7835  0.1838
  991SOL     OW 2971   1.049   0.603   0.643 -0.2871 -0.1494  0.3052
  991SOL    HW1 2972   1.140   0.561   0.619 -1.1665  1.6699 -1.3561
  991SOL    HW2 2973   1.058   0.704   0.636 -1.6297  0.2226  1.6018
  992SOL     OW 2974   2.835   0.852   1.202  0.2110 -0.1139  0.0563
  992SOL    HW1 2975   2.838   0.938   1.150 -1.3616 -1.4040 -2.7073
  992SOL    HW2 2976   2.851   0.774   1.145  0.2642  2.8253  0.8060
  993SOL     OW 2977   2.141   0.666   1.885 -0.0606 -0.2498  0.4548
  993SOL    HW1 2978   2.093   0.573   1.889 -0.2915 -1.9375 -1.8127
  993SOL    HW2 2979   2.216   0.664   1.819 -1.3449  0.4015  0.0312
  994SOL     OW 2980   1.356   1.731   1.745 -0.1486 -0.3360 -0.3637
  994SOL    HW1 2981   1.423   1.697   1.816  0.3602  1.5623 -1.8504
  994SOL    HW2 2982   1.267   1.756   1.791  1.4422  0.1750  1.6048
  995SOL     OW 2983   2.120   1.525   2.771  0.4699 -0.4678  0.1331
  995SOL    HW1 2984   2.169   1.491   2.689  1.2929 -0.2502  0.3963
  995SOL    HW2 2985   2.168   1.597   2.821  1.2864  0.6821  0.7068
  996SOL     OW 2986   2.107   1.625   0.547 -0.0876 -0.0924  0.2894
  996SOL    HW1 2987   2.172   1.662   0.617  1.4164  0.8181 -1.8496
  996SOL    HW2 2988   2.130   1.531   0.516  0.2831 -2.1339 -5.0446
  997SOL     OW 2989   1.981   0.256   1.911  0.3535 -0.6025 -0.4557
  997SOL    HW1 2990   1.944   0.301   1.998  0.5005  1.6463  1.8317
  997SOL    HW2 2991   1.939   0.290   1.822 -0.3187 -1.4898 -2.4597
  998SOL     OW 2992   2.495   0.823   0.689 -0.3126 -0.1950 -0.2079
  998SOL    HW1 2993   2.513   0.883   0.769 -1.8752 -0.8199 -0.1055
  998SOL    HW2 2994   2.566   0.837   0.620 -1.7958 -0.5052 -1.4673
  999SOL     OW 2995   2.543   1.631   0.335 -0.0063 -0.0072  0.2423
  999SOL    HW1 2996   2.556   1.732   0.324  0.9418 -1.1530  1.6834
  999SOL    HW2 2997   2.617   1.589   0.384 -1.3621  0.2078 -0.6929
 1000SOL     OW 2998   0.767   1.154   2.049  0.2585  0.0719 -0.1703
 1000SOL    HW1 2999   0.669   1.178   2.026  0.1442 -1.3950  1.3966
 1000SOL    HW2 3000   0.823   1.142   1.966 -2.4989  1.4294 -1.5905
   3.08687   3.08687   3.08687
