1000 SPC/Fw water molecules t= 183.00000 step= 183000
 3000
    1SOL     OW    1   2.613   3.079   1.043 -0.5645  0.1619 -0.4928
    1SOL    HW1    2   2.552   0.068   1.073  0.5848  0.8656  0.1396
    1SOL    HW2    3   2.635   3.084   0.944 -0.8473 -0.0268  1.6736
    2SOL     OW    4   1.847   1.810   1.961  0.2756  0.3164 -0.4264
    2SOL    HW1    5   1.820   1.770   2.052  1.1754 -0.9663  1.2529
    2SOL    HW2    6   1.762   1.835   1.907  0.5844 -0.6927  1.2295
    3SOL     OW    7   1.727   2.442   2.117  1.6513  0.5819  0.2128
    3SOL    HW1    8   1.740   2.484   2.207  1.2303 -0.3678 -2.3216
    3SOL    HW2    9   1.812   2.403   2.087 -2.1611  2.3330  0.1705
    4SOL     OW   10   1.933   2.153   1.850 -0.5381 -0.5813  0.1457
    4SOL    HW1   11   1.960   2.245   1.885 -0.1202 -0.0678  0.0773
    4SOL    HW2   12   1.926   2.152   1.752  2.0019 -1.3414  0.9266
    5SOL     OW   13   0.951   0.777   1.967 -0.0132 -0.0899  0.0891
    5SOL    HW1   14   1.047   0.801   1.938  0.6020 -1.0799 -0.0737
    5SOL    HW2   15   0.878   0.844   1.933 -1.7334 -1.0649  0.9176
    6SOL     OW   16   2.786   0.795   2.970 -0.1389 -0.5482  0.7993
    6SOL    HW1   17   2.825   0.738   2.893  1.2034  2.4049 -2.8446
    6SOL    HW2   18   2.694   0.757   2.993 -0.0925  0.3584 -1.4814
    7SOL     OW   19   1.083   0.937   1.653 -0.1456 -0.1514 -0.0518
    7SOL    HW1   20   1.002   0.895   1.606 -1.4400 -1.7767  2.2721
    7SOL    HW2   21   1.150   0.970   1.585 -3.0147 -0.0072  0.4803
    8SOL     OW   22   1.240   0.065   1.010 -1.0585  0.2330 -0.1132
    8SOL    HW1   23   1.219   0.102   0.917  0.9021 -1.6621  0.1724
    8SOL    HW2   24   1.210   0.140   1.078 -0.6280  3.2390 -2.4821
    9SOL     OW   25   1.019   1.063   3.089  0.1882 -0.1152  0.6861
    9SOL    HW1   26   0.998   1.123   3.009  1.0142  1.0770  0.6050
    9SOL    HW2   27   0.939   1.057   0.066  0.1358 -0.9746  2.0873
   10SOL     OW   28   0.333   2.806   0.042 -0.2232 -0.0600 -0.5587
   10SOL    HW1   29   0.227   2.803   0.047 -1.2468  1.3892  0.8255
   10SOL    HW2   30   0.360   2.716   0.078 -2.5251  1.6285  0.7228
   11SOL     OW   31   0.437   1.462   0.022  0.4668  0.5815 -0.4272
   11SOL    HW1   32   0.467   1.473   3.014  0.2221  1.2294  3.5460
   11SOL    HW2   33   0.354   1.519   0.043 -3.6665  3.7521  1.4205
   12SOL     OW   34   0.694   0.021   1.328 -0.4723  0.3685 -0.0395
   12SOL    HW1   35   0.778   3.051   1.321  2.9494 -2.1558 -2.3541
   12SOL    HW2   36   0.621   3.057   1.374 -0.9202  0.3021  2.5202
   13SOL     OW   37   0.919   2.911   0.498 -0.1525  0.2298 -0.0768
   13SOL    HW1   38   0.987   2.910   0.574  0.5220  2.3479  0.2527
   13SOL    HW2   39   0.827   2.882   0.534  1.0133  0.1361 -1.3584
   14SOL     OW   40   1.159   2.019   1.295 -0.3120  0.0327 -0.0739
   14SOL    HW1   41   1.083   2.070   1.328 -1.5916 -1.9703 -1.4514
   14SOL    HW2   42   1.148   1.917   1.311  0.1912 -3.7371  1.7076
   15SOL     OW   43   2.899   0.815   2.196 -0.1569 -0.0860 -0.2089
   15SOL    HW1   44   2.811   0.858   2.180  2.7947 -4.2403  1.6460
   15SOL    HW2   45   2.885   0.718   2.227 -1.0443 -0.3474  1.7471
   16SOL     OW   46   1.261   2.843   2.671 -0.3443  0.2827 -0.3901
   16SOL    HW1   47   1.260   2.745   2.677 -1.3443  1.9549  1.4940
   16SOL    HW2   48   1.242   2.885   2.759  1.3930  1.5674 -3.7799
   17SOL     OW   49   0.889   3.080   1.642 -0.6056 -0.5187  0.2302
   17SOL    HW1   50   0.938   3.040   1.723 -0.1871  2.7999  0.0796
   17SOL    HW2   51   0.885   0.092   1.659  0.2040 -1.3006  2.7680
   18SOL     OW   52   1.074   0.595   0.355 -0.1601 -0.3441 -0.1338
   18SOL    HW1   53   0.996   0.598   0.290  0.4139 -1.7912  0.4527
   18SOL    HW2   54   1.150   0.535   0.322 -2.5319 -0.2951 -1.0802
   19SOL     OW   55   1.971   1.625   2.718  0.1825 -0.3295  0.6400
   19SOL    HW1   56   2.044   1.674   2.668  0.1273 -2.6968  0.6295
   19SOL    HW2   57   1.928   1.674   2.792  2.5379 -0.0554 -0.2651
   20SOL     OW   58   1.767   1.461   1.815 -0.4017  0.4100 -0.0485
   20SOL    HW1   59   1.824   1.540   1.796  0.0549 -1.7511  2.8364
   20SOL    HW2   60   1.722   1.472   1.907 -0.7325 -0.4649 -0.3397
   21SOL     OW   61   0.591   1.491   2.871 -0.0627 -0.0808 -0.2959
   21SOL    HW1   62   0.639   1.580   2.902  0.8209  2.3459 -0.2297
   21SOL    HW2   63   0.540   1.508   2.788 -3.5659 -1.1326  2.7946
   22SOL     OW   64   2.513   0.057   1.346  0.0568 -0.4054 -0.1194
   22SOL    HW1   65   2.460   3.060   1.362  2.7081 -2.7748  1.8466
   22SOL    HW2   66   2.492   0.102   1.257  0.0222 -2.5916 -0.6208
   23SOL     OW   67   2.937   0.963   1.568 -0.5904 -0.1278 -0.1806
   23SOL    HW1   68   2.976   0.992   1.476 -0.8483  0.9160  1.0893
   23SOL    HW2   69   2.887   0.876   1.549  3.1931 -1.0250 -1.0895
   24SOL     OW   70   2.620   2.368   1.299 -0.2961  0.0963 -0.4218
   24SOL    HW1   71   2.715   2.357   1.254  0.5993  1.5718 -0.1024
   24SOL    HW2   72   2.606   2.471   1.310  1.7559  0.6298  0.0182
   25SOL     OW   73   1.960   2.905   2.654 -0.0738  1.1176  0.0073
   25SOL    HW1   74   2.006   2.878   2.566 -0.4449 -1.3483 -2.5052
   25SOL    HW2   75   1.895   2.836   2.682  2.6045  1.4456  2.7085
   26SOL     OW   76   1.264   2.883   2.960  0.2802 -0.4361  0.0132
   26SOL    HW1   77   1.218   2.788   2.963 -3.0942 -3.3020  0.5195
   26SOL    HW2   78   1.345   2.893   3.020 -1.6918 -0.1262 -1.0066
   27SOL     OW   79   0.596   2.280   2.935 -0.1629 -0.1422 -0.7856
   27SOL    HW1   80   0.553   2.204   2.986 -1.1263 -2.0140  0.8742
   27SOL    HW2   81   0.541   2.369   2.938 -2.3590  3.0720 -0.2754
   28SOL     OW   82   0.028   1.498   1.379  0.1240 -0.5663  0.4080
   28SOL    HW1   83   0.063   1.536   1.293 -0.8532 -1.0914  1.3169
   28SOL    HW2   84   0.106   1.497   1.437 -1.9004  0.9858 -3.5308
   29SOL     OW   85   2.711   2.003   2.016  0.1833  0.3908  0.1717
   29SOL    HW1   86   2.722   1.922   1.952 -1.6648 -0.8683 -1.6192
   29SOL    HW2   87   2.758   2.010   2.103 -1.7782  1.0074 -2.1437
   30SOL     OW   88   1.249   2.888   0.966  0.1620  0.9312  0.1248
   30SOL    HW1   89   1.344   2.860   0.949 -0.9961 -1.1855 -0.7589
   30SOL    HW2   90   1.246   2.991   0.978 -0.2247  0.5898 -1.8945
   31SOL     OW   91   0.115   2.215   1.871 -0.2770 -0.1183  0.7109
   31SOL    HW1   92   0.173   2.285   1.821  0.1794  1.3363  0.2188
   31SOL    HW2   93   0.171   2.142   1.917  1.2387 -0.1477  3.5350
   32SOL     OW   94   1.209   0.868   1.887 -0.0824 -0.3917  0.3663
   32SOL    HW1   95   1.164   0.902   1.804  0.6511 -3.0027 -0.5971
   32SOL    HW2   96   1.268   0.938   1.936 -0.1685  1.9814 -1.4208
   33SOL     OW   97   0.321   2.566   2.330 -0.2752  0.1214 -0.3970
   33SOL    HW1   98   0.225   2.541   2.355  0.8875 -0.6238  2.2041
   33SOL    HW2   99   0.324   2.624   2.250 -2.7606 -0.2306  1.0352
   34SOL     OW  100   2.199   0.181   0.656  0.2538 -0.7839  0.1518
   34SOL    HW1  101   2.267   0.194   0.586 -2.9452 -0.9787  0.5188
   34SOL    HW2  102   2.108   0.168   0.611  0.2585  2.1103 -1.1294
   35SOL     OW  103   2.230   0.716   1.493 -0.4559  0.2696 -0.2366
   35SOL    HW1  104   2.220   0.819   1.484  0.6961  2.0913 -0.3012
   35SOL    HW2  105   2.331   0.685   1.479  1.7411 -1.4155  1.2738
   36SOL     OW  106   2.328   2.681   2.037  0.3001 -0.1903 -0.2425
   36SOL    HW1  107   2.324   2.645   1.944 -0.9121 -0.4476  0.3340
   36SOL    HW2  108   2.254   2.638   2.098 -0.6460  1.6114  1.4704
   37SOL     OW  109   0.814   2.229   2.335  0.1208  0.0790 -0.1544
   37SOL    HW1  110   0.855   2.176   2.257  0.3102 -0.7900  0.5689
   37SOL    HW2  111   0.884   2.256   2.407 -1.0904  0.5772  0.5971
   38SOL     OW  112   2.524   0.317   0.019  0.0419 -0.2599  0.5525
   38SOL    HW1  113   2.540   0.370   0.104  0.7324  1.4033 -2.3019
   38SOL    HW2  114   2.596   0.245   0.008 -1.5453  0.2226  2.1683
   39SOL     OW  115   2.028   1.601   1.855 -0.1377 -0.4732  0.5602
   39SOL    HW1  116   1.972   1.666   1.904  0.9435 -0.6520  0.0136
   39SOL    HW2  117   2.045   1.518   1.909 -1.3423  2.8520 -1.7075
   40SOL     OW  118   0.073   2.957   2.610  0.0540  0.1521 -0.0151
   40SOL    HW1  119   0.034   3.038   2.560  0.0883  1.5559 -0.8470
   40SOL    HW2  120   0.165   2.927   2.579  2.4984 -0.2607 -0.9857
   41SOL     OW  121   1.709   0.346   1.139 -0.2098  0.5506  0.2642
   41SOL    HW1  122   1.813   0.352   1.147 -0.4914  1.8493  2.4557
   41SOL    HW2  123   1.671   0.403   1.065  0.9037 -0.6047  0.4477
   42SOL     OW  124   1.081   3.029   1.829 -0.3473 -0.0777 -0.1480
   42SOL    HW1  125   1.145   0.019   1.818  1.5485  0.2860  2.5650
   42SOL    HW2  126   1.052   3.015   1.927  0.8210 -0.2407  2.5963
   43SOL     OW  127   2.402   0.927   1.993 -0.3472  0.4209 -0.0586
   43SOL    HW1  128   2.384   0.890   1.900  0.1946 -0.9843  0.7620
   43SOL    HW2  129   2.504   0.928   2.009  0.1939  2.7335  0.0555
   44SOL     OW  130   0.047   2.793   0.017  0.7674  0.1696  0.5201
   44SOL    HW1  131   0.007   2.828   0.104  0.3453  0.0679 -0.9070
   44SOL    HW2  132   0.039   2.859   3.033  1.3995 -1.7562 -2.6612
   45SOL     OW  133   0.211   2.465   2.005 -0.1530  0.8782  0.1807
   45SOL    HW1  134   0.236   2.558   2.042  0.7998 -3.2516  3.8386
   45SOL    HW2  135   0.202   2.451   1.906  1.3868 -0.6859 -0.0985
   46SOL     OW  136   2.195   2.380   1.897 -0.3706  0.2341  0.1008
   46SOL    HW1  137   2.227   2.314   1.965  0.3241 -0.1625 -1.4570
   46SOL    HW2  138   2.271   2.423   1.844 -1.9676  2.6268  1.0494
   47SOL     OW  139   1.649   1.981   1.240  0.2753  0.5750 -0.3775
   47SOL    HW1  140   1.577   2.048   1.259 -1.8966 -3.2967  0.6315
   47SOL    HW2  141   1.736   2.028   1.256 -1.7241 -1.5379  1.2442
   48SOL     OW  142   0.564   1.643   0.495  0.1374 -0.0257 -0.2726
   48SOL    HW1  143   0.594   1.682   0.405  1.4600 -0.0224  1.8588
   48SOL    HW2  144   0.581   1.698   0.582  2.3479 -3.2104 -0.8812
   49SOL     OW  145   2.795   0.489   2.512 -0.7720  0.2995 -0.0662
   49SOL    HW1  146   2.697   0.502   2.509  2.9025 -1.9328  2.0120
   49SOL    HW2  147   2.834   0.501   2.419 -1.3634 -2.5381  1.8338
   50SOL     OW  148   2.196   0.905   0.762  0.2113 -0.3499  0.6722
   50SOL    HW1  149   2.108   0.947   0.732  1.2954  1.8428  1.2316
   50SOL    HW2  150   2.247   0.977   0.811  3.2597  0.3831  1.5327
   51SOL     OW  151   1.477   0.334   0.713 -0.2203 -0.1130  0.0074
   51SOL    HW1  152   1.446   0.260   0.648 -0.4604 -1.8935 -1.3913
   51SOL    HW2  153   1.454   0.421   0.668 -1.4207 -2.6476  0.7060
   52SOL     OW  154   1.350   1.307   0.082 -0.5355 -0.5972 -0.2946
   52SOL    HW1  155   1.300   1.247   0.140  2.2738  3.1169 -0.1193
   52SOL    HW2  156   1.359   1.403   0.119 -0.3219  0.9513  2.4643
   53SOL     OW  157   0.828   1.626   2.733 -0.2468 -0.4508 -0.5171
   53SOL    HW1  158   0.816   1.674   2.823  1.0193 -1.8716  1.0800
   53SOL    HW2  159   0.736   1.609   2.692 -1.1898 -0.3827 -0.4808
   54SOL     OW  160   2.030   0.403   1.153 -0.1669 -0.2581 -0.2052
   54SOL    HW1  161   2.049   0.496   1.187 -1.2774 -0.7023 -0.4524
   54SOL    HW2  162   2.079   0.335   1.212  2.3679 -0.4098  0.4927
   55SOL     OW  163   2.427   2.834   0.900 -0.0948  0.2090 -0.1604
   55SOL    HW1  164   2.486   2.916   0.912  2.4051 -0.4554  0.7703
   55SOL    HW2  165   2.349   2.850   0.839 -1.3771 -1.6737  2.5304
   56SOL     OW  166   0.475   2.862   1.379 -0.1782 -0.1295  0.1028
   56SOL    HW1  167   0.391   2.823   1.419  1.9155  1.2425 -0.8703
   56SOL    HW2  168   0.549   2.861   1.446 -3.4563 -0.9457 -4.2454
   57SOL     OW  169   1.601   1.123   0.737  0.5670 -0.1921  0.0558
   57SOL    HW1  170   1.561   1.142   0.644  1.3943  1.8907  1.1385
   57SOL    HW2  171   1.684   1.175   0.759 -1.8497 -1.8450  0.9698
   58SOL     OW  172   0.266   0.881   2.249 -0.0420 -0.0651 -0.2165
   58SOL    HW1  173   0.302   0.965   2.203 -1.1238  3.6468  0.3597
   58SOL    HW2  174   0.166   0.898   2.261  0.0178  1.5015 -0.3988
   59SOL     OW  175   0.917   2.818   2.341 -0.7466  0.3504  0.5330
   59SOL    HW1  176   1.011   2.819   2.375  0.6210  0.4452 -1.6873
   59SOL    HW2  177   0.867   2.905   2.360  1.5965  0.2261  2.4585
   60SOL     OW  178   2.686   2.639   1.098 -0.1082 -0.2026  0.1920
   60SOL    HW1  179   2.609   2.587   1.049 -1.6598 -0.4403 -0.0450
   60SOL    HW2  180   2.648   2.730   1.135  1.2892 -2.5956 -0.4427
   61SOL     OW  181   1.202   2.079   0.778 -0.0666 -0.5061  0.7124
   61SOL    HW1  182   1.187   2.181   0.790 -2.2480 -1.1290 -0.0568
   61SOL    HW2  183   1.188   2.033   0.869  0.0177  0.4942 -2.9348
   62SOL     OW  184   2.136   2.394   2.508 -0.1792  0.4891 -0.0246
   62SOL    HW1  185   2.067   2.407   2.574  0.0492  0.5036 -3.1505
   62SOL    HW2  186   2.155   2.488   2.474  1.5943  0.3193 -0.2891
   63SOL     OW  187   2.336   0.659   2.881  0.6788 -0.4874  1.3747
   63SOL    HW1  188   2.241   0.690   2.872 -1.0734 -1.2656  1.2838
   63SOL    HW2  189   2.339   0.561   2.905  0.1290  0.2970  2.1987
   64SOL     OW  190   1.071   0.850   2.941  0.3406 -0.1373 -0.3198
   64SOL    HW1  191   1.133   0.790   2.992  0.3124 -0.1935  0.8320
   64SOL    HW2  192   1.055   0.937   2.986 -0.1692  0.1267  0.6035
   65SOL     OW  193   1.309   2.166   0.535  0.0211  0.6066 -0.9963
   65SOL    HW1  194   1.253   2.117   0.604 -1.1874 -1.3675  0.5866
   65SOL    HW2  195   1.263   2.190   0.453  1.9834  1.1084  2.5371
   66SOL     OW  196   0.647   1.244   1.614 -0.3401  0.2239 -0.3886
   66SOL    HW1  197   0.564   1.186   1.640 -3.5439  0.3741  0.2659
   66SOL    HW2  198   0.732   1.202   1.656 -0.6147 -1.6382 -0.6471
   67SOL     OW  199   2.401   2.899   2.487 -0.1077  1.2136 -0.0302
   67SOL    HW1  200   2.391   2.898   2.587 -0.3345  2.3116 -1.1862
   67SOL    HW2  201   2.341   2.973   2.447 -0.6583  0.3927 -0.0234
   68SOL     OW  202   0.648   1.665   1.076  0.2274  0.4541  0.0955
   68SOL    HW1  203   0.686   1.637   1.167  1.7400 -0.3376  0.3553
   68SOL    HW2  204   0.694   1.617   0.997  1.8449 -0.9718 -0.4697
   69SOL     OW  205   1.475   2.253   0.084 -0.3116  0.2115  0.5651
   69SOL    HW1  206   1.555   2.225   0.132 -0.6667 -3.3678 -0.3798
   69SOL    HW2  207   1.464   2.353   0.087 -1.2743  2.3759 -0.3475
   70SOL     OW  208   0.074   1.056   2.548  0.2410 -0.1226 -0.2579
   70SOL    HW1  209   3.068   1.068   2.589 -0.5690 -2.2669  5.0014
   70SOL    HW2  210   0.069   0.985   2.473 -0.9880 -2.1261 -2.3797
   71SOL     OW  211   2.785   1.597   2.863  0.8104  0.1364  0.6384
   71SOL    HW1  212   2.869   1.653   2.885 -2.6932 -0.1875 -1.2410
   71SOL    HW2  213   2.786   1.501   2.900  1.1043 -2.0106  1.8209
   72SOL     OW  214   2.732   2.306   0.304 -0.0437  0.0749  0.4310
   72SOL    HW1  215   2.667   2.384   0.318 -0.5652 -1.1765  0.4928
   72SOL    HW2  216   2.724   2.279   0.205 -1.5524  1.9745 -0.6685
   73SOL     OW  217   0.647   1.784   0.272 -0.2940 -0.4571  0.3814
   73SOL    HW1  218   0.637   1.859   0.336 -2.7428 -2.4094 -1.1715
   73SOL    HW2  219   0.734   1.791   0.219  0.7585  0.3083  0.7975
   74SOL     OW  220   3.029   1.220   2.847  0.1416 -0.0198 -0.0769
   74SOL    HW1  221   3.027   1.219   2.744 -0.3074  0.2195 -1.8820
   74SOL    HW2  222   3.012   1.132   2.885 -1.6277 -0.0359 -1.4410
   75SOL     OW  223   1.634   1.539   2.050  0.0939  0.0269  0.3036
   75SOL    HW1  224   1.598   1.498   2.138  1.7194  0.2378 -0.9724
   75SOL    HW2  225   1.566   1.602   2.007  2.2033 -1.5759  1.7259
   76SOL     OW  226   1.655   2.359   1.445  0.3781 -0.5135 -0.0302
   76SOL    HW1  227   1.649   2.306   1.531 -0.1427 -0.7724 -2.7897
   76SOL    HW2  228   1.626   2.455   1.458  0.0901  0.3183  1.0562
   77SOL     OW  229   2.585   0.980   1.187 -0.5757 -0.7207  0.1258
   77SOL    HW1  230   2.680   0.934   1.179  1.4208 -0.8803  0.4671
   77SOL    HW2  231   2.514   0.934   1.128  0.4007 -0.3775  0.4296
   78SOL     OW  232   1.286   0.884   0.575  0.0262 -0.1198  0.7471
   78SOL    HW1  233   1.273   0.979   0.608  2.2602 -1.4598 -2.4409
   78SOL    HW2  234   1.382   0.862   0.558 -2.0890  0.5939  0.2578
   79SOL     OW  235   0.177   1.744   1.941 -0.0059 -0.1864  0.2256
   79SOL    HW1  236   0.186   1.649   1.909 -0.6221  1.5473 -0.9901
   79SOL    HW2  237   0.211   1.804   1.866 -0.0285  2.2901  1.5802
   80SOL     OW  238   1.557   1.111   1.628 -0.0045  0.2728  0.0407
   80SOL    HW1  239   1.573   1.009   1.631 -0.3215  1.3147 -1.4622
   80SOL    HW2  240   1.517   1.128   1.537  1.2318  4.2378  4.3996
   81SOL     OW  241   0.848   0.188   0.700  0.1870  0.0735  0.0787
   81SOL    HW1  242   0.764   0.235   0.663 -0.0003 -1.6640  2.9223
   81SOL    HW2  243   0.919   0.180   0.626 -0.2426  0.4265 -0.3174
   82SOL     OW  244   1.669   2.702   1.627  1.2503  0.0992 -0.0486
   82SOL    HW1  245   1.709   2.738   1.538 -2.1383  0.4233  2.0160
   82SOL    HW2  246   1.746   2.678   1.686 -1.2539  1.1151 -2.3502
   83SOL     OW  247   0.633   2.096   0.933  0.1234  0.1528  0.3926
   83SOL    HW1  248   0.548   2.099   0.988  1.2167 -0.8414  0.0528
   83SOL    HW2  249   0.710   2.040   0.982  2.5630 -1.0363  2.6857
   84SOL     OW  250   0.387   1.431   2.656 -0.1347 -1.0268 -0.4595
   84SOL    HW1  251   0.356   1.358   2.593 -2.0872  1.0873 -1.7019
   84SOL    HW2  252   0.400   1.520   2.606 -0.1128  1.2296  1.4230
   85SOL     OW  253   0.134   2.264   1.374  0.5322 -0.3570  0.2431
   85SOL    HW1  254   0.059   2.228   1.431  1.4046  0.7067  0.1081
   85SOL    HW2  255   0.152   2.360   1.401  0.1549 -2.1440 -0.8625
   86SOL     OW  256   2.328   2.346   1.605  0.2365 -0.1008  0.1539
   86SOL    HW1  257   2.354   2.418   1.671 -1.5481  1.6646  2.3093
   86SOL    HW2  258   2.316   2.389   1.514 -0.0020  1.7143 -0.2922
   87SOL     OW  259   2.622   2.182   0.071 -0.4410  0.1757  0.4343
   87SOL    HW1  260   2.567   2.157   0.155  1.1601  2.0146 -0.8084
   87SOL    HW2  261   2.675   2.095   0.044 -0.8413 -0.7972  0.8299
   88SOL     OW  262   0.400   1.706   0.943  0.4591  0.1497  0.1292
   88SOL    HW1  263   0.469   1.715   1.020  0.5378  0.3415  1.7521
   88SOL    HW2  264   0.313   1.754   0.970  1.6775  1.2841 -0.4625
   89SOL     OW  265   1.037   2.677   1.773 -0.0542  0.2124 -0.0347
   89SOL    HW1  266   0.971   2.685   1.695 -0.8267  0.0898  2.2552
   89SOL    HW2  267   1.120   2.733   1.746 -1.9394 -2.2830 -1.7288
   90SOL     OW  268   2.995   1.734   1.465 -0.1612  0.6759 -0.0657
   90SOL    HW1  269   2.894   1.727   1.479  0.1200 -1.8378  0.3889
   90SOL    HW2  270   3.028   1.643   1.428  1.5359 -2.0711 -3.2812
   91SOL     OW  271   1.482   2.052   0.845  0.4943 -0.1596 -0.0746
   91SOL    HW1  272   1.388   2.038   0.806  1.2565  0.3512 -2.1568
   91SOL    HW2  273   1.484   2.139   0.895 -1.0294 -0.6742 -1.9998
   92SOL     OW  274   2.591   2.620   1.402  0.0520  0.3684  0.0020
   92SOL    HW1  275   2.605   2.685   1.481  0.6724  0.6408  0.6260
   92SOL    HW2  276   2.620   2.670   1.320  0.2562 -1.0749  1.4212
   93SOL     OW  277   2.440   1.321   2.537  0.5530  0.2303  0.2784
   93SOL    HW1  278   2.367   1.339   2.465  2.0756 -0.1095  1.5581
   93SOL    HW2  279   2.479   1.405   2.579  1.9336 -0.3490  0.7876
   94SOL     OW  280   2.880   2.655   2.249  0.5416  0.1550  0.4976
   94SOL    HW1  281   2.911   2.614   2.159 -1.0275 -1.4070  1.3112
   94SOL    HW2  282   2.780   2.627   2.269 -0.3093  1.6573 -0.0712
   95SOL     OW  283   1.794   0.228   1.479 -0.2043 -0.2287  0.6950
   95SOL    HW1  284   1.776   0.171   1.561 -0.5693 -0.3266  0.8506
   95SOL    HW2  285   1.784   0.176   1.388 -1.5593  1.9163  1.1994
   96SOL     OW  286   0.006   2.894   1.508  0.3436  0.5306 -0.0720
   96SOL    HW1  287   3.013   2.955   1.499  0.6195 -1.2034  2.5603
   96SOL    HW2  288   3.062   2.798   1.517 -2.0261 -0.9241  1.3741
   97SOL     OW  289   2.196   0.294   1.351 -0.3536  0.7993 -0.5879
   97SOL    HW1  290   2.289   0.328   1.361 -1.8800  0.9758 -1.8069
   97SOL    HW2  291   2.147   0.311   1.438 -0.9686  0.4358 -1.3830
   98SOL     OW  292   1.344   2.225   1.527  0.2727  0.3437  0.4029
   98SOL    HW1  293   1.399   2.301   1.564 -1.5029  1.8134 -3.3145
   98SOL    HW2  294   1.391   2.193   1.439 -0.4539  0.6020  0.2270
   99SOL     OW  295   0.053   2.962   1.820  1.0398  0.2804 -1.0623
   99SOL    HW1  296   0.103   3.021   1.753 -2.0434  1.6343 -0.8546
   99SOL    HW2  297   0.098   2.961   1.913 -0.1156  0.1859  0.4787
  100SOL     OW  298   3.077   1.233   2.230 -0.0790  0.0201  0.3877
  100SOL    HW1  299   3.061   1.280   2.138 -0.1154 -0.6132  2.4372
  100SOL    HW2  300   2.985   1.199   2.264 -0.9196  1.3528 -1.6342
  101SOL     OW  301   2.098   0.862   0.360  0.6685 -0.0290 -0.0637
  101SOL    HW1  302   2.195   0.832   0.350 -0.2676  1.3210  0.8844
  101SOL    HW2  303   2.086   0.964   0.361 -1.3852  1.2285 -0.3051
  102SOL     OW  304   3.084   0.613   1.280  0.1472 -0.2996  0.2236
  102SOL    HW1  305   0.003   0.563   1.190 -0.7423  2.6630 -0.4237
  102SOL    HW2  306   0.006   0.713   1.265 -2.0524 -0.6193  2.4580
  103SOL     OW  307   2.470   0.744   2.665  0.3878 -0.4743 -0.3013
  103SOL    HW1  308   2.407   0.696   2.732 -1.2613  2.8835  2.0579
  103SOL    HW2  309   2.482   0.838   2.698  0.2128  0.0957  0.5906
  104SOL     OW  310   0.153   0.129   2.302  0.5771  0.0429  0.0114
  104SOL    HW1  311   0.178   0.228   2.283  1.0102  0.8116  0.8563
  104SOL    HW2  312   0.066   0.123   2.354 -1.7863  0.8283  0.0514
  105SOL     OW  313   1.942   0.904   1.555  0.1123  0.5127  0.0568
  105SOL    HW1  314   1.878   0.826   1.552 -1.7379 -1.4579  1.6885
  105SOL    HW2  315   1.935   0.967   1.469 -1.8556  1.6849 -5.5794
  106SOL     OW  316   1.111   2.887   0.717  0.4840 -0.3849  0.2781
  106SOL    HW1  317   1.116   2.985   0.684 -1.4154 -0.3251 -0.6785
  106SOL    HW2  318   1.147   2.882   0.809 -0.4060 -0.1510 -2.7294
  107SOL     OW  319   0.133   1.587   1.132  0.1840  0.9633 -0.2234
  107SOL    HW1  320   0.133   1.673   1.081 -0.3812 -2.2477  0.3870
  107SOL    HW2  321   0.075   1.516   1.084 -1.4294 -1.4448  1.5563
  108SOL     OW  322   0.348   3.053   2.266 -0.4947  0.3836  0.0164
  108SOL    HW1  323   0.338   2.983   2.336 -0.7832  1.2106 -2.0127
  108SOL    HW2  324   0.282   0.037   2.286  0.6997 -2.3937 -1.2551
  109SOL     OW  325   2.363   0.136   0.423  0.3378  0.3874 -0.1132
  109SOL    HW1  326   2.301   0.115   0.344  0.5432 -0.4025  0.6350
  109SOL    HW2  327   2.438   0.063   0.434  1.4417 -0.7593 -1.1791
  110SOL     OW  328   0.282   2.209   2.758 -0.2993 -0.3234  0.0782
  110SOL    HW1  329   0.185   2.198   2.725 -0.5413 -1.6266 -2.2599
  110SOL    HW2  330   0.334   2.281   2.702 -0.3066 -1.9464  1.9840
  111SOL     OW  331   1.721   2.930   2.193 -0.6024  0.1026  0.0858
  111SOL    HW1  332   1.625   2.931   2.168  1.2399 -2.1064  2.7240
  111SOL    HW2  333   1.766   3.011   2.149  1.1766 -0.7130 -1.4729
  112SOL     OW  334   1.914   2.444   2.680  0.0912 -0.1887 -0.5392
  112SOL    HW1  335   1.858   2.362   2.683  0.0411  2.7647  0.3830
  112SOL    HW2  336   1.876   2.514   2.743  1.0189 -0.9345 -0.3697
  113SOL     OW  337   2.698   2.197   1.813 -0.3007 -0.1823 -0.1514
  113SOL    HW1  338   2.684   2.142   1.899  1.1182 -2.9318  1.3762
  113SOL    HW2  339   2.799   2.194   1.793 -0.4519 -1.0508  1.5283
  114SOL     OW  340   2.386   0.862   1.016 -0.0743  0.5353  0.2668
  114SOL    HW1  341   2.293   0.820   1.012  0.5177 -1.7728 -0.8628
  114SOL    HW2  342   2.377   0.953   0.971 -0.3028 -0.8338  2.9413
  115SOL     OW  343   3.022   1.729   2.907  0.5855  0.4168  0.0185
  115SOL    HW1  344   0.014   1.680   2.866  0.0736  0.3281 -0.8622
  115SOL    HW2  345   3.022   1.827   2.875 -1.7781  0.0419 -1.5208
  116SOL     OW  346   0.348   1.419   2.315 -0.0110 -0.1300  0.0794
  116SOL    HW1  347   0.380   1.507   2.365  1.6101  1.3494  1.0562
  116SOL    HW2  348   0.353   1.443   2.213  3.8254  1.1594 -3.9467
  117SOL     OW  349   2.591   0.211   0.789 -0.2376  0.1880  0.4362
  117SOL    HW1  350   2.511   0.146   0.803 -3.1991 -3.4806 -0.1084
  117SOL    HW2  351   2.573   0.259   0.700 -0.8929 -0.0674 -0.5617
  118SOL     OW  352   0.694   2.071   1.594 -0.1192 -0.5085  0.5518
  118SOL    HW1  353   0.796   2.061   1.590 -2.8023 -1.0418  0.1266
  118SOL    HW2  354   0.661   2.137   1.523  1.3297 -1.3797  0.5417
  119SOL     OW  355   1.693   2.147   0.250  0.0477  0.0896  0.0377
  119SOL    HW1  356   1.757   2.121   0.174 -0.1955  0.4772 -0.1909
  119SOL    HW2  357   1.748   2.195   0.322 -2.8016 -0.6975  1.2827
  120SOL     OW  358   0.418   1.657   2.411  0.4074 -0.9277 -0.1133
  120SOL    HW1  359   0.365   1.740   2.446 -0.0111 -0.1805 -2.5457
  120SOL    HW2  360   0.479   1.679   2.335 -0.2862 -2.6253 -0.4060
  121SOL     OW  361   2.202   2.182   1.209 -0.6860  0.7824  0.6504
  121SOL    HW1  362   2.199   2.100   1.271 -1.6452 -1.2800  0.7315
  121SOL    HW2  363   2.219   2.261   1.259 -0.8077 -0.9627 -0.1023
  122SOL     OW  364   2.444   2.027   2.070 -0.3690 -0.6519 -0.5512
  122SOL    HW1  365   2.412   1.931   2.065  0.6807  0.1569 -1.1943
  122SOL    HW2  366   2.554   2.030   2.075  5.3424  2.6833  1.0477
  123SOL     OW  367   2.895   3.061   0.612 -0.1205  0.2981 -0.2440
  123SOL    HW1  368   2.813   3.074   0.674  1.4383 -0.4188  1.2409
  123SOL    HW2  369   2.979   0.006   0.660 -0.0411 -1.4194 -0.3804
  124SOL     OW  370   1.628   0.489   2.629  0.0074  0.5244 -0.2883
  124SOL    HW1  371   1.625   0.472   2.526  2.1097 -0.7701  1.2062
  124SOL    HW2  372   1.553   0.432   2.671  2.4920  1.8033  0.4187
  125SOL     OW  373   0.392   1.292   0.231 -0.2217  0.2495 -0.2311
  125SOL    HW1  374   0.422   1.354   0.157 -1.4584  0.5509  1.4709
  125SOL    HW2  375   0.393   1.194   0.199  0.2579 -1.2430 -1.8561
  126SOL     OW  376   2.474   2.120   0.307 -0.1614  0.0738  0.0743
  126SOL    HW1  377   2.495   2.068   0.392 -0.1449  0.9645 -0.5767
  126SOL    HW2  378   2.452   2.214   0.340  2.7678  0.5606  0.7547
  127SOL     OW  379   0.183   1.834   1.017  0.2470  0.2909 -0.5098
  127SOL    HW1  380   0.088   1.835   0.977  0.9337  0.3523  0.2817
  127SOL    HW2  381   0.206   1.924   1.062 -0.6088 -2.1325  0.3215
  128SOL     OW  382   0.847   0.663   3.044 -0.2386 -0.7306 -0.0358
  128SOL    HW1  383   0.904   0.714   2.972  3.8364 -2.0328 -2.6320
  128SOL    HW2  384   0.747   0.682   3.038 -2.0346  0.6489 -0.0419
  129SOL     OW  385   2.340   1.478   0.878 -0.9333 -0.3614 -0.0878
  129SOL    HW1  386   2.346   1.578   0.853  1.0546  2.6442 -1.1075
  129SOL    HW2  387   2.432   1.438   0.853 -1.7880  3.1231  1.6544
  130SOL     OW  388   2.193   1.718   1.252  0.1052  1.0747  0.6636
  130SOL    HW1  389   2.193   1.754   1.157 -2.6171  1.5201 -0.9920
  130SOL    HW2  390   2.150   1.622   1.258 -0.7504 -0.3598 -2.1616
  131SOL     OW  391   2.991   0.953   2.841 -0.4378  0.2233  0.3041
  131SOL    HW1  392   2.926   0.901   2.904  2.7476  1.8470  0.8936
  131SOL    HW2  393   3.080   0.903   2.830 -0.1006 -0.9867  1.1890
  132SOL     OW  394   2.774   1.788   1.854 -0.1643  0.4823 -0.6572
  132SOL    HW1  395   2.865   1.801   1.897  0.1117  2.5914 -0.0962
  132SOL    HW2  396   2.730   1.713   1.908  0.0192 -1.5516 -0.6978
  133SOL     OW  397   0.129   0.835   0.813  0.1618 -0.4239  0.2848
  133SOL    HW1  398   0.228   0.849   0.804 -1.7733  0.2821 -1.5490
  133SOL    HW2  399   0.084   0.889   0.884 -0.6586  0.0043 -1.1942
  134SOL     OW  400   0.366   1.030   0.119 -0.1190 -0.2536  0.2057
  134SOL    HW1  401   0.354   0.931   0.132 -0.3520 -2.0668 -2.8926
  134SOL    HW2  402   0.423   1.044   0.036 -0.6770 -0.1562  1.6080
  135SOL     OW  403   2.015   1.212   1.214 -0.0849 -0.1277  0.2070
  135SOL    HW1  404   1.962   1.221   1.299  0.0694 -0.6447  0.6406
  135SOL    HW2  405   1.981   1.132   1.157  1.1657  0.7731  0.8010
  136SOL     OW  406   1.938   1.012   1.029  0.4616 -0.6233  0.0792
  136SOL    HW1  407   1.999   0.941   1.066  0.7612  2.8865 -1.0807
  136SOL    HW2  408   1.847   0.977   1.005  2.4052 -0.3560 -0.0247
  137SOL     OW  409   2.405   1.752   0.821 -0.1495 -0.7278 -0.4065
  137SOL    HW1  410   2.358   1.797   0.746  1.5641  1.1007  0.7597
  137SOL    HW2  411   2.494   1.799   0.836 -1.1730  0.9517 -0.3139
  138SOL     OW  412   1.524   0.499   1.902 -0.3115  0.2496  0.5407
  138SOL    HW1  413   1.485   0.521   1.994 -1.8498 -0.1471 -2.6152
  138SOL    HW2  414   1.619   0.539   1.907 -0.4010  1.5355  0.4295
  139SOL     OW  415   2.123   0.107   2.939 -0.8812 -0.1398 -0.2261
  139SOL    HW1  416   2.220   0.076   2.928  0.1051  1.4595  0.3514
  139SOL    HW2  417   2.119   0.198   2.987 -0.8166 -1.9337 -0.5747
  140SOL     OW  418   1.489   2.277   2.490 -0.2517 -0.4004  0.3731
  140SOL    HW1  419   1.420   2.267   2.565  1.6411  0.1646 -2.3826
  140SOL    HW2  420   1.506   2.190   2.442 -1.7236 -0.6191 -2.0021
  141SOL     OW  421   1.500   1.485   1.605  0.2178  0.1766 -0.1135
  141SOL    HW1  422   1.473   1.436   1.692  0.8411 -1.2085  1.6018
  141SOL    HW2  423   1.599   1.472   1.580  2.0630  0.6334  0.5190
  142SOL     OW  424   2.678   0.109   3.046 -0.0497 -0.2636  0.8767
  142SOL    HW1  425   2.774   0.074   3.035  1.8301 -0.9467  1.1090
  142SOL    HW2  426   2.631   0.048   0.017  2.7204  1.6144  0.0032
  143SOL     OW  427   0.500   2.556   2.888 -0.6035  0.0871 -0.3860
  143SOL    HW1  428   0.571   2.594   2.951 -0.0953  2.3603 -0.0656
  143SOL    HW2  429   0.413   2.556   2.938  1.0646  0.7446  1.0170
  144SOL     OW  430   0.887   2.812   1.946 -0.2530 -0.0980  0.3256
  144SOL    HW1  431   0.845   2.744   2.011  0.2403  0.7667  1.7150
  144SOL    HW2  432   0.955   2.772   1.883 -0.9855  3.4540 -0.5511
  145SOL     OW  433   2.427   1.481   0.439 -0.1001  0.6093  0.4709
  145SOL    HW1  434   2.427   1.406   0.373 -1.1489  0.7153  3.8856
  145SOL    HW2  435   2.384   1.443   0.526 -2.4867 -2.6162  2.8322
  146SOL     OW  436   2.715   2.945   2.737  0.1450  0.5173  0.6118
  146SOL    HW1  437   2.664   3.032   2.743 -3.8861 -2.2037  1.4824
  146SOL    HW2  438   2.747   2.911   2.830  1.5336 -0.0589  0.2826
  147SOL     OW  439   2.935   2.544   1.122 -0.2071 -0.1281  0.6141
  147SOL    HW1  440   2.995   2.591   1.193  0.5436  2.9554 -1.8722
  147SOL    HW2  441   2.838   2.581   1.120 -0.4296  1.7674 -0.6920
  148SOL     OW  442   1.715   0.050   0.161  0.2491 -0.4740 -0.1809
  148SOL    HW1  443   1.655   3.073   0.211 -0.2113 -0.7046  0.1649
  148SOL    HW2  444   1.766   0.014   0.083 -1.9322  1.9911  1.4771
  149SOL     OW  445   0.962   0.947   2.714  0.0099  0.5519  0.1293
  149SOL    HW1  446   1.003   0.901   2.797 -0.8835  2.2410  0.7366
  149SOL    HW2  447   0.955   1.048   2.736 -1.4937 -1.7918  0.3237
  150SOL     OW  448   1.093   2.600   0.725  0.0558 -0.1999 -0.2604
  150SOL    HW1  449   1.017   2.556   0.673  2.0596 -1.4414  0.5611
  150SOL    HW2  450   1.089   2.704   0.718  0.0642  3.2373 -1.6215
  151SOL     OW  451   0.163   1.920   0.142  0.0228 -0.2739  0.2680
  151SOL    HW1  452   0.181   1.823   0.139  0.2201 -0.6912  3.0438
  151SOL    HW2  453   0.176   1.966   0.052 -0.4940 -1.0935  0.2662
  152SOL     OW  454   0.316   1.112   0.602  0.4139  0.2394 -0.4394
  152SOL    HW1  455   0.402   1.150   0.567 -1.5497 -1.8005 -2.1000
  152SOL    HW2  456   0.238   1.178   0.578 -0.7475  0.3166 -1.1507
  153SOL     OW  457   2.448   2.519   2.945  0.6129  0.3961  0.1216
  153SOL    HW1  458   2.519   2.501   3.018  1.2975 -1.4644  1.6304
  153SOL    HW2  459   2.427   2.434   2.893 -1.6023  0.3801  1.6286
  154SOL     OW  460   0.588   0.343   1.070 -0.0897 -0.1113  0.2923
  154SOL    HW1  461   0.580   0.250   1.018  0.6142 -2.3829 -1.0639
  154SOL    HW2  462   0.569   0.329   1.166  2.9936 -2.1745  0.5555
  155SOL     OW  463   2.960   1.994   1.115 -0.0727  0.1471 -0.0433
  155SOL    HW1  464   2.967   1.900   1.077  0.9414 -1.2518  0.2054
  155SOL    HW2  465   2.941   1.994   1.215  0.2175  1.4273 -1.3550
  156SOL     OW  466   2.110   2.191   0.047 -0.0088 -0.1371  0.3777
  156SOL    HW1  467   2.151   2.111   0.091  0.2506  2.1221  2.3299
  156SOL    HW2  468   2.140   2.275   0.091 -0.8941 -4.1219  0.0117
  157SOL     OW  469   0.737   2.518   1.017  0.5066  0.1287 -0.7423
  157SOL    HW1  470   0.768   2.446   0.954 -3.6011  1.1668  1.6908
  157SOL    HW2  471   0.763   2.491   1.112 -0.5317  0.6545 -2.0462
  158SOL     OW  472   2.041   0.624   2.726 -0.2478  0.4012 -0.1643
  158SOL    HW1  473   2.017   0.614   2.826 -0.3781  1.4554 -1.5425
  158SOL    HW2  474   1.952   0.637   2.676 -0.8542  1.1246 -0.1763
  159SOL     OW  475   0.826   0.193   2.560  0.0330  0.4498  0.2609
  159SOL    HW1  476   0.808   0.168   2.655  2.3437  0.1918 -3.6221
  159SOL    HW2  477   0.848   0.287   2.546 -0.1605 -2.3196 -2.1786
  160SOL     OW  478   0.943   1.983   0.337 -0.3924 -0.3946  0.0926
  160SOL    HW1  479   0.908   1.975   0.434 -1.8266 -0.9529  2.6466
  160SOL    HW2  480   0.983   1.896   0.309 -2.2241 -2.8588  1.4297
  161SOL     OW  481   0.007   2.257   3.070  0.3390  0.2728 -0.6369
  161SOL    HW1  482   0.013   2.356   0.006 -0.5872  2.4410  0.7367
  161SOL    HW2  483   0.091   2.210   3.041 -0.1865 -0.9076 -1.0723
  162SOL     OW  484   0.514   2.600   0.849  0.5403  0.3547 -0.1075
  162SOL    HW1  485   0.601   2.581   0.898  1.1647  2.1097  0.1839
  162SOL    HW2  486   0.445   2.620   0.921  1.4552 -0.7676 -0.7711
  163SOL     OW  487   2.531   0.728   3.048 -0.6670 -0.5648  0.1648
  163SOL    HW1  488   2.529   0.652   0.026 -0.6111  1.0267  2.3840
  163SOL    HW2  489   2.460   0.713   2.979  2.5851  2.4377  3.9848
  164SOL     OW  490   3.047   2.601   0.532 -0.2529  0.1698  0.6015
  164SOL    HW1  491   3.015   2.567   0.441 -0.0541  0.3869  1.2305
  164SOL    HW2  492   3.062   2.699   0.525 -0.8262 -1.7185  0.2142
  165SOL     OW  493   2.391   0.437   1.157  0.3001  0.5291 -0.1420
  165SOL    HW1  494   2.434   0.406   1.240 -0.5064 -3.0301 -2.1615
  165SOL    HW2  495   2.310   0.495   1.175 -3.2525 -1.5601 -0.7103
  166SOL     OW  496   2.035   0.332   0.883  0.4553 -0.0257  0.0324
  166SOL    HW1  497   2.127   0.289   0.877 -0.9675  0.1279  0.4194
  166SOL    HW2  498   2.016   0.373   0.978  0.8057  0.9082  0.0895
  167SOL     OW  499   0.256   0.752   1.394 -0.6964  0.1160  0.8688
  167SOL    HW1  500   0.225   0.690   1.464  2.9479 -0.2612  0.0150
  167SOL    HW2  501   0.180   0.792   1.339  1.7270  1.1269 -0.2038
  168SOL     OW  502   2.754   0.018   2.270 -1.2094 -0.6186  0.3186
  168SOL    HW1  503   2.696   3.029   2.295 -0.4855  0.2159  1.5461
  168SOL    HW2  504   2.742   0.081   2.354  0.6161  0.4356 -0.4851
  169SOL     OW  505   0.054   1.523   0.752 -0.1568 -0.3187  0.3201
  169SOL    HW1  506   3.085   1.599   0.719 -3.0079  0.1096 -0.0583
  169SOL    HW2  507   3.090   1.480   0.825 -0.9372 -0.4032  1.1672
  170SOL     OW  508   2.908   0.680   1.560 -0.2800  0.1506 -0.0386
  170SOL    HW1  509   2.997   0.627   1.562  0.9767 -1.2480 -0.1802
  170SOL    HW2  510   2.866   0.691   1.655 -0.9098  0.6106 -2.3708
  171SOL     OW  511   1.079   2.227   1.566  0.1368  0.2757  0.1242
  171SOL    HW1  512   1.183   2.229   1.559  1.8142  1.5267 -0.4064
  171SOL    HW2  513   1.044   2.323   1.587  0.7756  2.5582 -0.0697
  172SOL     OW  514   0.417   2.495   1.205 -0.4246  0.2758  0.3823
  172SOL    HW1  515   0.444   2.407   1.158  1.2237  0.6660 -0.8988
  172SOL    HW2  516   0.373   2.563   1.138  1.2184  1.0187  0.6312
  173SOL     OW  517   1.156   3.083   0.202 -0.0783 -0.1562  0.5825
  173SOL    HW1  518   1.192   3.054   0.112  0.5348 -0.5054  0.1706
  173SOL    HW2  519   1.219   0.062   0.251  0.6938  1.3596  1.5321
  174SOL     OW  520   0.936   2.681   2.702 -0.2344 -0.6391  0.1150
  174SOL    HW1  521   1.000   2.618   2.655  0.1223 -3.4942 -0.2509
  174SOL    HW2  522   0.942   2.681   2.802 -1.2802 -1.0169  0.1680
  175SOL     OW  523   1.430   0.580   0.139 -0.1881 -1.3569 -0.5082
  175SOL    HW1  524   1.456   0.532   0.051 -0.2526 -0.2281  0.2681
  175SOL    HW2  525   1.517   0.617   0.180  0.7739 -1.5992  0.5961
  176SOL     OW  526   1.352   0.169   0.297  0.0452 -0.4778  0.4379
  176SOL    HW1  527   1.447   0.172   0.255  1.1193  4.1419  1.8479
  176SOL    HW2  528   1.362   0.149   0.398  0.1889 -0.6342 -2.4016
  177SOL     OW  529   1.215   1.130   1.083 -0.0339  0.1457 -0.7276
  177SOL    HW1  530   1.291   1.151   1.022 -5.0108 -1.9583  0.8865
  177SOL    HW2  531   1.213   1.211   1.146 -0.8627 -0.4576  0.3491
  178SOL     OW  532   2.071   1.785   2.159 -0.6182 -0.1431 -0.2240
  178SOL    HW1  533   2.144   1.722   2.141  0.3074  0.6498  3.7455
  178SOL    HW2  534   1.981   1.742   2.187 -2.8134  0.7173  0.1880
  179SOL     OW  535   0.685   2.711   2.596  0.3617 -0.2563  0.0311
  179SOL    HW1  536   0.779   2.695   2.628 -0.8589  1.9858  0.4562
  179SOL    HW2  537   0.646   2.639   2.536  0.6649  3.2766 -0.6334
  180SOL     OW  538   1.561   1.844   1.678  0.0793 -0.1747 -0.4279
  180SOL    HW1  539   1.603   1.929   1.717 -1.7735 -1.0268  1.1110
  180SOL    HW2  540   1.610   1.815   1.594 -0.9873  1.5247 -0.0088
  181SOL     OW  541   1.486   1.282   2.436 -0.2143  0.3909 -0.4466
  181SOL    HW1  542   1.456   1.301   2.535  0.1635 -1.7056  3.0854
  181SOL    HW2  543   1.425   1.214   2.391  0.4184 -2.0522 -0.2250
  182SOL     OW  544   3.080   0.705   2.591 -0.0442  0.6599 -0.0348
  182SOL    HW1  545   2.992   0.711   2.643 -0.1473 -1.8285 -0.1207
  182SOL    HW2  546   0.028   0.609   2.614  2.1486 -0.7527  3.0385
  183SOL     OW  547   1.283   0.120   2.640 -0.1453 -0.3820  0.1855
  183SOL    HW1  548   1.332   0.057   2.587 -0.3512  3.3280  2.3033
  183SOL    HW2  549   1.344   0.204   2.644 -2.6104 -0.4169  0.2353
  184SOL     OW  550   0.929   0.613   1.450 -0.4082  0.8584 -0.7576
  184SOL    HW1  551   0.882   0.699   1.480 -0.3645 -1.2483 -1.6056
  184SOL    HW2  552   1.011   0.638   1.389 -0.6553  0.0380 -0.7726
  185SOL     OW  553   3.017   1.385   0.970 -0.1511  0.2510 -0.1005
  185SOL    HW1  554   2.935   1.415   1.025 -0.1465  0.6103  3.2344
  185SOL    HW2  555   3.061   1.300   1.011  0.7665 -1.2977  0.2175
  186SOL     OW  556   0.338   1.760   2.913  0.3682 -0.5928  0.0960
  186SOL    HW1  557   0.414   1.761   2.982  2.9993 -0.8101  2.0549
  186SOL    HW2  558   0.345   1.830   2.838  0.3966 -1.9828  2.2801
  187SOL     OW  559   2.411   1.317   0.156  0.8699  0.4714  0.7758
  187SOL    HW1  560   2.485   1.284   0.096 -0.4211 -0.0794  3.4577
  187SOL    HW2  561   2.358   1.386   0.101  0.0424 -2.1687  0.4884
  188SOL     OW  562   0.189   2.466   0.522 -0.1707  0.1541 -0.2552
  188SOL    HW1  563   0.181   2.412   0.442 -0.8492  4.2944 -1.1399
  188SOL    HW2  564   0.093   2.504   0.549 -3.2814  2.5548  2.2585
  189SOL     OW  565   2.622   0.936   0.295 -0.3125 -0.3301 -0.2389
  189SOL    HW1  566   2.691   0.976   0.229 -0.9243  2.4140  0.0642
  189SOL    HW2  567   2.668   0.861   0.349 -0.0166  2.6829 -2.9740
  190SOL     OW  568   1.327   1.661   2.228  0.0667  0.1840 -0.8658
  190SOL    HW1  569   1.410   1.624   2.274  0.0360 -0.6540  0.8430
  190SOL    HW2  570   1.266   1.703   2.299  1.4510  1.0978  0.1046
  191SOL     OW  571   2.429   0.379   1.422  0.4939  0.1547 -0.1261
  191SOL    HW1  572   2.503   0.309   1.425  0.4631  0.3963  0.7803
  191SOL    HW2  573   2.419   0.426   1.508  2.3551  1.0359  0.2886
  192SOL     OW  574   2.092   0.329   1.855  0.0547  0.3854 -0.7228
  192SOL    HW1  575   2.112   0.278   1.941  1.2064  1.4894 -0.4183
  192SOL    HW2  576   2.181   0.353   1.815  0.4595 -0.6198  0.9395
  193SOL     OW  577   0.861   0.503   0.200 -0.0729  0.5155 -0.3100
  193SOL    HW1  578   0.855   0.458   0.290 -0.1693  1.2302  0.0267
  193SOL    HW2  579   0.779   0.560   0.195  1.9718  0.3402  0.3108
  194SOL     OW  580   0.939   2.970   1.397 -0.9143  0.4414  0.0815
  194SOL    HW1  581   1.040   2.974   1.381 -0.5066  1.7359 -1.7121
  194SOL    HW2  582   0.929   2.996   1.497  2.3048 -0.3233  1.7592
  195SOL     OW  583   2.189   0.694   0.947  1.2160 -0.1128  0.3205
  195SOL    HW1  584   2.225   0.603   0.919 -1.3951 -0.1173 -2.4909
  195SOL    HW2  585   2.168   0.757   0.869  1.8121 -1.7602 -3.3989
  196SOL     OW  586   1.697   2.028   1.877 -0.1893 -0.0433 -0.0200
  196SOL    HW1  587   1.787   2.071   1.884 -2.6136 -0.1482 -0.8281
  196SOL    HW2  588   1.662   1.995   1.970  0.5801 -3.6707 -0.0480
  197SOL     OW  589   0.120   0.150   0.074  0.5844  0.2674 -0.3276
  197SOL    HW1  590   0.138   0.129   0.177 -1.2311 -0.6719  1.8441
  197SOL    HW2  591   0.198   0.108   0.021  0.9580 -1.1048  0.9015
  198SOL     OW  592   1.047   1.119   0.715  0.4174  0.2618 -0.0411
  198SOL    HW1  593   1.054   1.209   0.760  3.0574 -0.9964  1.0096
  198SOL    HW2  594   1.058   1.044   0.786  1.7966 -0.9678  0.9662
  199SOL     OW  595   3.079   0.967   2.019 -0.3131 -0.4728 -0.3020
  199SOL    HW1  596   3.005   0.925   2.073  2.1041 -0.8804 -0.9594
  199SOL    HW2  597   0.039   1.045   2.061 -1.8325 -1.9344 -2.0253
  200SOL     OW  598   2.739   2.043   2.674 -0.1973  0.1365  0.0924
  200SOL    HW1  599   2.681   2.068   2.597 -0.1646  0.5246  3.1946
  200SOL    HW2  600   2.724   2.102   2.754  1.9818 -1.0259 -1.3546
  201SOL     OW  601   2.443   0.187   1.100 -0.2731 -0.0769 -0.1799
  201SOL    HW1  602   2.420   0.285   1.114 -0.0900  0.2960  0.7069
  201SOL    HW2  603   2.404   0.160   1.013  0.4016  1.7932  3.6181
  202SOL     OW  604   2.389   0.793   0.385  0.3725  0.5827 -0.1363
  202SOL    HW1  605   2.409   0.794   0.488  0.7841 -0.2304  3.1347
  202SOL    HW2  606   2.428   0.873   0.340 -3.7876 -1.7856  1.2112
  203SOL     OW  607   1.573   2.032   2.332 -0.2049 -0.3801 -0.1292
  203SOL    HW1  608   1.594   2.003   2.237  0.1703 -3.3698  1.0849
  203SOL    HW2  609   1.525   1.955   2.386 -1.7814  0.2607 -0.3052
  204SOL     OW  610   1.061   1.755   2.323  0.3611 -0.4276 -0.6760
  204SOL    HW1  611   1.042   1.672   2.272  3.6810 -1.1894  0.2208
  204SOL    HW2  612   0.995   1.778   2.397  0.2071  2.3633  3.1472
  205SOL     OW  613   0.945   1.984   1.551 -0.0683 -0.0343  0.1181
  205SOL    HW1  614   1.008   2.059   1.581  0.4753 -0.3836 -1.2654
  205SOL    HW2  615   0.921   1.919   1.624  2.0856 -0.9463  0.3344
  206SOL     OW  616   0.054   0.395   3.002  0.2350  0.1784 -0.3495
  206SOL    HW1  617   0.067   0.339   3.087  0.1574 -2.4793  0.0544
  206SOL    HW2  618   3.044   0.381   2.971 -1.7076 -0.9191 -2.2512
  207SOL     OW  619   1.919   2.772   2.149  0.3891  0.4743 -0.0897
  207SOL    HW1  620   1.836   2.829   2.153  1.3306 -1.1136 -1.6907
  207SOL    HW2  621   1.962   2.775   2.055 -1.3636 -1.9558 -2.5016
  208SOL     OW  622   0.386   2.119   1.522  0.0991  0.6172  0.4392
  208SOL    HW1  623   0.293   2.155   1.501  0.2764 -1.7056 -1.9118
  208SOL    HW2  624   0.413   2.155   1.614 -2.2006 -0.6605  2.1358
  209SOL     OW  625   1.442   0.811   2.554  0.6278 -0.6371  0.3282
  209SOL    HW1  626   1.366   0.879   2.537 -0.2850  0.0506 -2.5491
  209SOL    HW2  627   1.511   0.832   2.482 -0.2930 -0.8378  0.3947
  210SOL     OW  628   2.085   0.882   1.204  0.0989 -0.4096 -0.0762
  210SOL    HW1  629   2.140   0.938   1.271  3.1815 -1.5083  5.1503
  210SOL    HW2  630   2.007   0.842   1.258 -1.1046  1.5525 -1.6783
  211SOL     OW  631   0.621   0.295   0.614  0.1321  0.2966 -0.2224
  211SOL    HW1  632   0.528   0.331   0.631  0.8549 -0.0330  2.9769
  211SOL    HW2  633   0.611   0.193   0.624 -1.0931 -0.6394  0.1655
  212SOL     OW  634   1.709   1.236   0.359 -0.3647  0.4265  0.0255
  212SOL    HW1  635   1.683   1.295   0.278  0.6219  0.2908  0.3358
  212SOL    HW2  636   1.621   1.206   0.403  1.2671  0.5098  0.0822
  213SOL     OW  637   1.851   3.086   2.446 -0.3332  0.6367  0.3467
  213SOL    HW1  638   1.801   3.039   2.369  3.1004 -1.5332 -0.8749
  213SOL    HW2  639   1.889   3.026   2.515  2.4017 -0.6728 -1.1194
  214SOL     OW  640   1.552   1.502   2.312  0.4882 -0.4117  0.4108
  214SOL    HW1  641   1.597   1.554   2.387  0.6113  0.6604 -1.8134
  214SOL    HW2  642   1.519   1.417   2.356  0.3049  2.6158 -0.2984
  215SOL     OW  643   0.212   1.761   0.501 -0.6814 -0.1372 -0.6598
  215SOL    HW1  644   0.282   1.689   0.517  0.3130 -1.1590  1.0561
  215SOL    HW2  645   0.247   1.834   0.441 -0.0404 -1.1296  2.5253
  216SOL     OW  646   0.581   2.731   2.167  0.3952  0.1416 -0.4288
  216SOL    HW1  647   0.664   2.687   2.120  1.8970 -1.6244 -1.0499
  216SOL    HW2  648   0.579   2.697   2.263 -0.3370 -1.2762  1.2879
  217SOL     OW  649   2.474   1.118   0.608 -0.3036 -0.3377 -0.1742
  217SOL    HW1  650   2.525   1.032   0.630  0.8567 -0.7611  1.2199
  217SOL    HW2  651   2.483   1.129   0.508  0.4498  0.1300  0.8562
  218SOL     OW  652   2.109   1.953   1.924 -0.2288 -0.2566  1.1737
  218SOL    HW1  653   2.032   2.005   1.885 -0.9117 -2.0695 -0.1082
  218SOL    HW2  654   2.084   1.916   2.012  0.4328  1.4703 -3.5565
  219SOL     OW  655   1.820   1.175   0.025 -0.1540 -0.0872 -0.2934
  219SOL    HW1  656   1.742   1.243   0.031 -1.3996  1.1371 -1.6258
  219SOL    HW2  657   1.914   1.218   0.014  0.6529  0.3803  1.0958
  220SOL     OW  658   1.254   1.739   1.122 -0.4793  0.0427  0.6906
  220SOL    HW1  659   1.240   1.714   1.217 -1.6140  1.3828 -3.2550
  220SOL    HW2  660   1.348   1.720   1.089 -1.5856  1.1474  1.9226
  221SOL     OW  661   0.514   0.682   2.790  0.1719  0.4236  0.5010
  221SOL    HW1  662   0.592   0.710   2.730  1.1980 -2.0830 -0.4363
  221SOL    HW2  663   0.436   0.638   2.738 -0.5345  0.3795 -0.1139
  222SOL     OW  664   0.780   1.618   1.295 -0.0638  0.3816  0.3083
  222SOL    HW1  665   0.805   1.664   1.384 -2.3758 -0.1015 -0.6430
  222SOL    HW2  666   0.865   1.597   1.245 -1.4458 -2.6218 -2.7893
  223SOL     OW  667   1.469   2.988   2.574 -0.2744  0.1777  0.1159
  223SOL    HW1  668   1.382   2.929   2.588 -0.5337  0.9520 -0.1511
  223SOL    HW2  669   1.505   3.021   2.661  1.2353 -1.2024 -0.7298
  224SOL     OW  670   2.598   0.716   0.942  0.6675 -0.0465  0.4006
  224SOL    HW1  671   2.557   0.625   0.940 -0.2384 -2.5278 -2.0651
  224SOL    HW2  672   2.522   0.781   0.972  0.0403  0.8894 -1.7194
  225SOL     OW  673   1.077   0.454   1.610  0.2624  0.3403 -0.0907
  225SOL    HW1  674   1.175   0.455   1.580  1.4716  1.0724  0.6596
  225SOL    HW2  675   1.021   0.532   1.574  1.5529 -4.0654  0.6166
  226SOL     OW  676   1.593   1.987   2.684  0.0997 -0.1543  0.7884
  226SOL    HW1  677   1.548   1.941   2.604 -0.0286  0.0509 -1.3627
  226SOL    HW2  678   1.573   1.946   2.774  0.8579  0.1973  0.6370
  227SOL     OW  679   1.162   1.720   1.375 -0.5799  0.0946  0.1386
  227SOL    HW1  680   1.254   1.707   1.423  1.6385 -1.3759 -0.3293
  227SOL    HW2  681   1.084   1.699   1.441  2.3932 -0.6913 -1.0344
  228SOL     OW  682   0.558   1.797   0.731  0.7334 -0.1871  0.4181
  228SOL    HW1  683   0.658   1.798   0.744  1.1966 -0.2291  0.6708
  228SOL    HW2  684   0.502   1.766   0.810  1.9770 -0.9264  1.7571
  229SOL     OW  685   1.724   0.515   0.118  0.1835 -0.2097  0.0934
  229SOL    HW1  686   1.714   0.514   0.018  0.0584 -0.9179  0.9435
  229SOL    HW2  687   1.803   0.573   0.136  2.4337 -1.3757  0.9932
  230SOL     OW  688   0.973   0.488   2.240  0.1295  0.0156  0.3143
  230SOL    HW1  689   1.058   0.454   2.200 -2.7831  0.7393 -0.4322
  230SOL    HW2  690   0.997   0.525   2.333 -0.7590 -0.7318  2.5259
  231SOL     OW  691   1.206   1.779   2.564  0.0701  0.0826  0.5265
  231SOL    HW1  692   1.202   1.676   2.571  1.3107 -1.3386 -0.5109
  231SOL    HW2  693   1.117   1.820   2.541  0.8760 -1.7848 -0.0736
  232SOL     OW  694   2.192   1.787   0.991 -0.0914  0.0352  0.1177
  232SOL    HW1  695   2.136   1.715   0.949 -0.5128  3.3180 -1.3196
  232SOL    HW2  696   2.289   1.783   0.955  2.5232 -0.4844 -2.6929
  233SOL     OW  697   1.952   2.848   0.116 -0.0727 -0.1420 -0.2818
  233SOL    HW1  698   1.936   2.758   0.070 -0.0313 -4.0321 -1.2290
  233SOL    HW2  699   2.042   2.852   0.156 -1.1460 -1.7229 -0.3437
  234SOL     OW  700   0.936   2.968   2.695 -0.1937  0.6810 -0.3328
  234SOL    HW1  701   0.930   2.869   2.717  1.2750 -2.1412 -0.9973
  234SOL    HW2  702   0.899   2.987   2.603  0.6955  0.5075  0.2732
  235SOL     OW  703   2.499   3.037   0.076  0.1162  0.1590 -0.1408
  235SOL    HW1  704   2.414   3.054   0.022 -0.0357 -1.4043 -0.9634
  235SOL    HW2  705   2.529   2.938   0.074  1.8843  0.4623 -1.4364
  236SOL     OW  706   2.517   2.234   2.392  0.2415  0.0014  0.2335
  236SOL    HW1  707   2.497   2.331   2.423 -0.2188 -0.1786 -1.3316
  236SOL    HW2  708   2.616   2.217   2.377 -1.8413 -2.3642 -2.0025
  237SOL     OW  709   1.244   1.413   1.790 -0.2747  0.1790  0.2218
  237SOL    HW1  710   1.327   1.354   1.793  0.2690  1.9351  1.6586
  237SOL    HW2  711   1.167   1.352   1.813  0.3699  0.2243 -0.2851
  238SOL     OW  712   2.227   0.237   2.468  0.3501  0.4790  0.4233
  238SOL    HW1  713   2.222   0.314   2.401  3.3775  1.4481 -1.4448
  238SOL    HW2  714   2.162   0.259   2.542  0.6361  0.4448  0.6392
  239SOL     OW  715   0.354   1.876   2.128  0.2160 -0.1013 -0.0056
  239SOL    HW1  716   0.439   1.824   2.142 -0.1655 -0.6324  3.5632
  239SOL    HW2  717   0.293   1.829   2.056 -0.1342  0.3440 -2.4438
  240SOL     OW  718   2.828   2.753   0.901 -0.1783 -0.0820  0.1888
  240SOL    HW1  719   2.787   2.713   0.986  3.3624 -1.9518  0.3173
  240SOL    HW2  720   2.812   2.691   0.820 -1.5752  0.3440  1.3619
  241SOL     OW  721   1.899   1.928   0.573  0.2015 -0.6004 -0.0004
  241SOL    HW1  722   1.967   1.854   0.543  0.2358 -2.9023  0.3620
  241SOL    HW2  723   1.807   1.886   0.590  1.5865 -1.8052 -0.2958
  242SOL     OW  724   1.340   1.687   2.890 -0.2717 -0.1050  0.1533
  242SOL    HW1  725   1.434   1.663   2.862  2.9914 -0.6473  0.7190
  242SOL    HW2  726   1.288   1.713   2.807  1.1534 -2.2133  0.9570
  243SOL     OW  727   0.692   2.437   2.199 -0.0494  0.3729  0.3456
  243SOL    HW1  728   0.748   2.519   2.194 -0.9842 -2.2338 -0.8295
  243SOL    HW2  729   0.735   2.359   2.243 -1.0485 -0.9763 -1.6663
  244SOL     OW  730   2.350   3.050   2.914 -0.0229 -1.0132  0.0932
  244SOL    HW1  731   2.447   3.068   2.884  1.7376  0.0371  2.7948
  244SOL    HW2  732   2.299   2.980   2.858 -0.5425  0.2293 -1.2367
  245SOL     OW  733   1.422   2.836   0.574 -0.3082  0.0688  0.5605
  245SOL    HW1  734   1.430   2.749   0.623  1.6945  3.2477 -0.9365
  245SOL    HW2  735   1.347   2.844   0.503  0.2255 -0.2687 -0.6995
  246SOL     OW  736   0.931   2.910   0.221  0.1098  0.3918 -0.3099
  246SOL    HW1  737   1.009   2.974   0.217 -0.1632 -1.7332  2.1873
  246SOL    HW2  738   0.929   2.875   0.321  0.4968  0.0718  1.5694
  247SOL     OW  739   0.692   0.878   2.182  0.0411 -0.3661  0.6749
  247SOL    HW1  740   0.732   0.859   2.092  0.5779 -0.3143  3.5434
  247SOL    HW2  741   0.606   0.823   2.195  1.2658  1.9334 -0.3305
  248SOL     OW  742   1.162   1.355   2.300 -0.0977 -0.4697  0.1185
  248SOL    HW1  743   1.175   1.399   2.207  0.6044  0.9867 -0.1953
  248SOL    HW2  744   1.199   1.410   2.378 -0.6897  0.2766  3.7627
  249SOL     OW  745   2.123   0.494   0.539 -0.5568  0.7559  0.5120
  249SOL    HW1  746   2.200   0.498   0.606 -0.7471  2.0198  1.9656
  249SOL    HW2  747   2.061   0.578   0.539 -0.9248 -0.5335  1.8900
  250SOL     OW  748   0.719   0.035   0.420 -0.2407  0.0412 -0.0179
  250SOL    HW1  749   0.679   0.050   0.515  1.5235  1.5063 -0.7161
  250SOL    HW2  750   0.783   3.050   0.431 -0.7537  1.0064 -0.2059
  251SOL     OW  751   1.538   0.088   2.796  0.6448  0.3049  0.2371
  251SOL    HW1  752   1.571   0.150   2.724 -0.1278  1.0985  0.4110
  251SOL    HW2  753   1.501   0.140   2.874 -0.2032 -2.4753  2.1904
  252SOL     OW  754   1.697   1.134   2.015  0.2460 -0.0219 -0.2478
  252SOL    HW1  755   1.763   1.098   2.087  1.1634 -0.6267  3.7540
  252SOL    HW2  756   1.703   1.234   2.004 -0.6969 -0.6130  1.5724
  253SOL     OW  757   2.630   2.573   1.884 -0.0897 -0.3832  0.6632
  253SOL    HW1  758   2.676   2.656   1.923  1.6277  0.9611 -1.0893
  253SOL    HW2  759   2.688   2.498   1.880 -2.4961 -0.8669 -0.4459
  254SOL     OW  760   0.370   1.436   1.196 -0.0984 -0.3542 -0.1395
  254SOL    HW1  761   0.450   1.430   1.259 -0.0958 -0.5872  0.1841
  254SOL    HW2  762   0.308   1.511   1.219  2.0846  0.3131 -3.2624
  255SOL     OW  763   1.083   0.751   1.275  0.6052  0.2686 -0.1216
  255SOL    HW1  764   1.018   0.763   1.195 -3.7687 -0.3362  0.7053
  255SOL    HW2  765   1.124   0.842   1.291 -1.5768 -0.0087 -0.8449
  256SOL     OW  766   1.835   2.584   1.803 -0.8585 -0.2034 -0.1155
  256SOL    HW1  767   1.756   2.521   1.831  0.1366 -0.2785  0.3584
  256SOL    HW2  768   1.906   2.532   1.751  0.1602  2.5203 -0.0185
  257SOL     OW  769   0.241   2.674   2.858 -0.1350  0.1093 -0.0924
  257SOL    HW1  770   0.168   2.743   2.839  0.6152  3.4992  0.6367
  257SOL    HW2  771   0.331   2.692   2.813 -2.0486 -1.5240  3.2488
  258SOL     OW  772   0.849   2.652   2.153 -0.1747  0.1808  0.0404
  258SOL    HW1  773   0.875   2.712   2.237 -1.5198  0.3818  2.6426
  258SOL    HW2  774   0.934   2.610   2.110  3.3639  1.2738 -5.0802
  259SOL     OW  775   1.349   0.167   2.225  0.2247  0.2757  0.4676
  259SOL    HW1  776   1.449   0.188   2.234  1.0726 -1.3680 -0.2686
  259SOL    HW2  777   1.331   0.074   2.185 -0.6114  0.6257  0.2714
  260SOL     OW  778   1.597   0.514   0.917 -0.8431 -0.0615  0.3693
  260SOL    HW1  779   1.560   0.439   0.862 -2.1828  0.1446 -0.9224
  260SOL    HW2  780   1.694   0.539   0.888  2.2929  2.4529  1.3834
  261SOL     OW  781   0.069   0.422   2.563 -0.5891  0.4871  0.1343
  261SOL    HW1  782   0.091   0.336   2.617 -2.3692  0.7839 -1.3270
  261SOL    HW2  783   0.160   0.467   2.552 -1.9223 -2.1631  0.7017
  262SOL     OW  784   3.026   2.544   2.009 -0.2861  0.2269 -0.2920
  262SOL    HW1  785   0.028   2.506   2.010  0.4821 -1.7540 -1.3588
  262SOL    HW2  786   3.014   2.626   1.949  0.7074 -0.6680 -1.7123
  263SOL     OW  787   2.594   1.768   2.286 -0.2048  0.1567  0.2662
  263SOL    HW1  788   2.658   1.846   2.281 -2.3818  0.8094  0.4723
  263SOL    HW2  789   2.548   1.757   2.378  0.1923  2.4180 -2.4881
  264SOL     OW  790   0.688   0.939   0.838 -0.4429  0.2708  0.2454
  264SOL    HW1  791   0.633   1.022   0.874  0.4469  0.2111 -1.2371
  264SOL    HW2  792   0.705   0.953   0.737 -1.4216 -2.4035 -1.7799
  265SOL     OW  793   0.709   2.086   0.257  0.2293  0.0964 -0.2571
  265SOL    HW1  794   0.804   2.044   0.268 -1.2779 -1.5489 -0.1809
  265SOL    HW2  795   0.652   2.053   0.331 -1.6071 -0.9522  0.9352
  266SOL     OW  796   1.386   0.696   0.912  0.0209 -0.3750 -0.0280
  266SOL    HW1  797   1.461   0.625   0.917  0.1708 -0.0296  0.8529
  266SOL    HW2  798   1.359   0.694   0.814  0.8683  1.5392 -2.2565
  267SOL     OW  799   2.799   0.992   0.068  0.4258  0.1790  0.1705
  267SOL    HW1  800   2.894   1.002   0.110  0.4241  1.0306  1.6701
  267SOL    HW2  801   2.789   0.918   3.090 -0.6811 -2.3484 -0.2888
  268SOL     OW  802   1.994   0.218   0.231 -0.2883  0.4533  0.1687
  268SOL    HW1  803   1.983   0.240   0.333  0.9931  2.3779  0.1786
  268SOL    HW2  804   1.904   0.180   0.192 -2.4711 -1.1926  0.0117
  269SOL     OW  805   1.804   0.937   2.777 -1.0169 -0.8222 -0.9815
  269SOL    HW1  806   1.710   0.902   2.793  3.3451 -2.2877  1.7581
  269SOL    HW2  807   1.867   0.908   2.852  0.3245  1.1052  0.3328
  270SOL     OW  808   0.513   0.795   3.033 -0.1606 -0.1246 -0.0359
  270SOL    HW1  809   0.510   0.749   2.940 -0.3653 -0.4929 -1.9120
  270SOL    HW2  810   0.438   0.770   0.003  0.3659  0.3084 -0.8471
  271SOL     OW  811   2.958   0.710   0.146  0.0413 -0.0850 -0.1363
  271SOL    HW1  812   3.037   0.707   0.082 -0.2745 -0.2671  1.8137
  271SOL    HW2  813   2.947   0.802   0.185  0.8578 -0.9136 -0.7753
  272SOL     OW  814   3.032   1.980   2.823  0.2340  0.0233 -0.1353
  272SOL    HW1  815   3.023   1.959   2.722 -0.9291  1.2228  1.3322
  272SOL    HW2  816   2.988   2.069   2.850  0.4548  0.4470 -0.0119
  273SOL     OW  817   2.489   2.888   0.572  0.5761 -0.3876 -0.1720
  273SOL    HW1  818   2.387   2.877   0.597 -1.8183  2.1689 -1.2558
  273SOL    HW2  819   2.500   2.946   0.486  2.8317  0.3116 -0.9045
  274SOL     OW  820   0.277   2.156   0.814 -0.0347  0.2488 -0.1934
  274SOL    HW1  821   0.320   2.076   0.772 -3.0322  1.8484 -2.4764
  274SOL    HW2  822   0.325   2.240   0.792 -1.0081  1.8624 -0.3914
  275SOL     OW  823   2.608   1.660   0.386  0.0205  0.0516  0.1282
  275SOL    HW1  824   2.650   1.684   0.476  0.2887 -0.3667  0.1395
  275SOL    HW2  825   2.531   1.596   0.407  2.0031  0.1376 -1.7811
  276SOL     OW  826   0.237   1.147   2.157 -0.0927 -0.0421  0.0401
  276SOL    HW1  827   0.290   1.207   2.097 -0.2387 -1.5785 -0.1933
  276SOL    HW2  828   0.152   1.195   2.190  0.8507 -0.3544  1.6966
  277SOL     OW  829   1.987   2.682   1.269  0.0836 -0.4242 -0.2805
  277SOL    HW1  830   2.054   2.622   1.227 -1.4384  0.0194 -0.5282
  277SOL    HW2  831   1.975   2.768   1.215 -0.0311  0.2478  1.0291
  278SOL     OW  832   1.246   3.006   2.097 -0.8621 -0.0179  0.2311
  278SOL    HW1  833   1.159   3.029   2.142 -2.3437 -0.7651  1.1929
  278SOL    HW2  834   1.235   3.028   2.000  0.0026 -1.1231 -0.0930
  279SOL     OW  835   1.634   1.873   0.641 -0.2326 -0.1558 -0.2005
  279SOL    HW1  836   1.605   1.914   0.730  1.2833 -0.1361 -3.0202
  279SOL    HW2  837   1.584   1.921   0.563 -1.0873  1.0366 -0.5011
  280SOL     OW  838   3.029   1.806   0.921 -0.0366 -0.2788 -0.3603
  280SOL    HW1  839   3.033   1.857   0.830 -2.0520  2.9348 -2.7462
  280SOL    HW2  840   2.937   1.757   0.928 -1.3093 -0.2274 -0.4254
  281SOL     OW  841   0.021   0.864   2.358  0.9297  0.2907  0.1671
  281SOL    HW1  842   3.021   0.861   2.306  1.1737  1.4788 -0.6845
  281SOL    HW2  843   0.027   0.787   2.422  0.9950 -1.5870 -2.2904
  282SOL     OW  844   0.685   0.977   0.592  0.3319 -0.7985 -0.2919
  282SOL    HW1  845   0.611   0.981   0.520 -0.5553  0.2549  2.2327
  282SOL    HW2  846   0.778   0.974   0.546  0.7818 -2.7939 -1.1270
  283SOL     OW  847   1.700   2.220   2.936 -0.3021  0.4824 -0.6240
  283SOL    HW1  848   1.643   2.300   2.964 -1.4341 -2.4452 -1.0852
  283SOL    HW2  849   1.727   2.230   2.841  1.2747  3.0812  3.7422
  284SOL     OW  850   1.264   0.412   0.253 -0.3775  0.3544  0.3314
  284SOL    HW1  851   1.292   0.319   0.281 -3.8285 -0.9905  1.1822
  284SOL    HW2  852   1.346   0.466   0.225 -2.2888  1.7093  1.2168
  285SOL     OW  853   2.243   1.224   2.724 -0.3548  0.2656 -0.1866
  285SOL    HW1  854   2.152   1.270   2.708  2.4683 -0.1708  0.0947
  285SOL    HW2  855   2.310   1.257   2.653  0.6258  0.5441 -1.8196
  286SOL     OW  856   1.274   2.719   1.423  0.0684 -0.1200  0.0718
  286SOL    HW1  857   1.313   2.809   1.444 -0.0972 -0.5766  0.2840
  286SOL    HW2  858   1.326   2.654   1.479 -0.6623  1.2088  0.2062
  287SOL     OW  859   0.972   0.918   0.896 -0.4666  0.2730  0.4933
  287SOL    HW1  860   0.969   0.834   0.952 -2.0558  0.1952 -1.4309
  287SOL    HW2  861   0.881   0.947   0.871  3.0443 -0.0162  1.3299
  288SOL     OW  862   1.128   2.685   0.222  0.6991  0.5002 -0.3568
  288SOL    HW1  863   1.050   2.752   0.228  0.2162  0.5385  1.2289
  288SOL    HW2  864   1.154   2.676   0.120 -0.6767  0.5687  0.4620
  289SOL     OW  865   0.292   1.446   1.464  0.6920 -0.7607 -0.1481
  289SOL    HW1  866   0.349   1.456   1.547  2.1534  2.4885 -1.0280
  289SOL    HW2  867   0.298   1.351   1.424  0.2122 -5.9457 -0.2283
  290SOL     OW  868   1.818   2.467   0.967  0.6293 -0.1360 -0.4265
  290SOL    HW1  869   1.746   2.452   1.041 -2.6373  0.2084  3.1269
  290SOL    HW2  870   1.821   2.564   0.935  0.2005 -0.5565  1.4808
  291SOL     OW  871   1.893   3.056   3.056  0.0768 -0.1802 -0.5078
  291SOL    HW1  872   1.970   0.020   3.019 -1.2000  2.4322  1.2960
  291SOL    HW2  873   1.920   2.970   0.020  1.1827  0.4282 -0.7201
  292SOL     OW  874   0.793   0.570   2.035  0.1305  0.2989  0.1523
  292SOL    HW1  875   0.852   0.652   2.008 -0.7477  1.5092  0.3213
  292SOL    HW2  876   0.834   0.518   2.112 -0.3461  0.0444  1.4041
  293SOL     OW  877   2.023   2.365   0.803  0.4342  0.1255 -0.2544
  293SOL    HW1  878   2.009   2.267   0.777 -1.6278  1.8115  1.9322
  293SOL    HW2  879   1.938   2.395   0.853  0.9726 -0.0311 -0.7916
  294SOL     OW  880   0.479   0.698   2.217  0.2489 -0.0179 -0.1604
  294SOL    HW1  881   0.403   0.754   2.255 -0.4220 -3.9525  1.6030
  294SOL    HW2  882   0.482   0.606   2.263  1.7123  1.9517 -1.8692
  295SOL     OW  883   1.506   1.644   1.008  0.2135  0.0670  0.2600
  295SOL    HW1  884   1.576   1.583   1.041 -0.2148  2.1026 -1.6011
  295SOL    HW2  885   1.549   1.734   0.997 -1.8312 -1.0415 -0.6686
  296SOL     OW  886   2.443   1.841   0.209 -0.1468  0.2209  0.5039
  296SOL    HW1  887   2.451   1.936   0.237 -2.4530 -1.2187 -2.1622
  296SOL    HW2  888   2.519   1.787   0.240 -1.2703  2.2755 -0.9571
  297SOL     OW  889   2.206   0.070   0.198  0.4420  0.1531 -0.2655
  297SOL    HW1  890   2.115   0.118   0.208 -2.0174 -1.2018 -1.8853
  297SOL    HW2  891   2.274   0.132   0.157 -0.4576 -1.6011  1.2521
  298SOL     OW  892   0.925   2.348   2.553  0.8000  0.1804  0.5270
  298SOL    HW1  893   0.846   2.370   2.614  2.1372 -0.3736 -3.7660
  298SOL    HW2  894   1.005   2.411   2.584  2.9595  1.8758  1.5062
  299SOL     OW  895   1.296   2.532   2.125  0.0676  0.1822 -0.4952
  299SOL    HW1  896   1.295   2.626   2.164 -0.2055  1.6263 -2.7054
  299SOL    HW2  897   1.341   2.462   2.186 -0.6732 -0.7243  0.2212
  300SOL     OW  898   2.570   0.066   2.797  0.0429  0.5847  0.4269
  300SOL    HW1  899   2.614   0.084   2.886 -0.4791 -2.0278 -0.9915
  300SOL    HW2  900   2.527   0.148   2.756 -0.3467 -0.6692  0.6567
  301SOL     OW  901   1.399   0.575   2.132 -0.2772 -0.1719 -0.2504
  301SOL    HW1  902   1.404   0.679   2.120  0.8287  0.5163 -3.1344
  301SOL    HW2  903   1.302   0.539   2.137  0.7415  1.6909  1.0969
  302SOL     OW  904   2.562   2.492   0.347 -0.4840 -0.7014  0.1732
  302SOL    HW1  905   2.522   2.426   0.411  2.2513  1.1129 -1.6974
  302SOL    HW2  906   2.539   2.587   0.375  0.6769 -1.6810  0.2422
  303SOL     OW  907   2.913   2.297   2.054  0.1586  0.2986  0.1810
  303SOL    HW1  908   2.898   2.255   1.961  0.2538  0.3538 -2.9995
  303SOL    HW2  909   2.960   2.389   2.045 -0.4724  3.7771  0.2813
  304SOL     OW  910   2.876   0.681   1.857  0.3547  0.3296  0.6856
  304SOL    HW1  911   2.851   0.762   1.911  0.1165 -3.9574 -0.7165
  304SOL    HW2  912   2.951   0.625   1.900  1.2250 -0.2367 -0.7121
  305SOL     OW  913   0.413   1.772   1.546 -0.1477  0.3104  0.4758
  305SOL    HW1  914   0.349   1.780   1.463  1.2051  1.7215 -0.7491
  305SOL    HW2  915   0.504   1.819   1.533  1.4803 -2.1032 -0.2153
  306SOL     OW  916   2.887   1.075   1.831 -0.1252 -0.1963 -0.4944
  306SOL    HW1  917   2.968   1.071   1.890 -1.6895  0.6048  1.1879
  306SOL    HW2  918   2.892   1.026   1.743  0.9702 -0.3090  0.6278
  307SOL     OW  919   1.116   0.529   1.900 -0.5206  0.1260  0.3338
  307SOL    HW1  920   1.069   0.603   1.947  0.6666 -0.6850  1.2240
  307SOL    HW2  921   1.077   0.517   1.808 -0.7919  0.3416 -2.2264
  308SOL     OW  922   2.775   0.806   1.136 -0.1507  0.1544  0.2744
  308SOL    HW1  923   2.773   0.741   1.214  0.7858 -0.9239 -3.0111
  308SOL    HW2  924   2.718   0.779   1.051 -1.2135 -0.6560 -1.3476
  309SOL     OW  925   2.124   1.296   0.822  0.0810  0.6393  0.1189
  309SOL    HW1  926   2.031   1.327   0.854 -0.8765 -0.6875  3.5901
  309SOL    HW2  927   2.200   1.355   0.857 -2.6259 -1.6871 -0.6741
  310SOL     OW  928   2.966   1.971   2.561  0.3557 -0.1730 -0.2744
  310SOL    HW1  929   2.965   1.878   2.515  1.2325 -2.2881 -0.9141
  310SOL    HW2  930   2.872   2.000   2.585 -1.2760  1.5253  0.4258
  311SOL     OW  931   3.044   2.685   2.641 -0.5269 -0.3246 -0.5270
  311SOL    HW1  932   3.031   2.785   2.630  2.5188 -0.4692 -1.4649
  311SOL    HW2  933   2.969   2.635   2.692 -1.9043 -0.2500 -0.7120
  312SOL     OW  934   2.180   1.968   0.173  0.1545  0.2556 -0.0136
  312SOL    HW1  935   2.280   1.946   0.186 -0.3150 -0.6588  0.5925
  312SOL    HW2  936   2.135   1.897   0.114 -0.5276 -2.3914 -1.6130
  313SOL     OW  937   2.679   2.973   0.789  0.1966 -0.7670  0.4389
  313SOL    HW1  938   2.729   2.898   0.830 -1.0407 -0.8483  0.2469
  313SOL    HW2  939   2.613   2.939   0.715 -1.8390  0.9404 -1.5826
  314SOL     OW  940   1.494   1.155   0.478 -0.2560  0.1227  0.2407
  314SOL    HW1  941   1.495   1.076   0.411 -0.4222 -0.8482 -0.9213
  314SOL    HW2  942   1.400   1.190   0.492 -1.4161  0.3131 -1.4367
  315SOL     OW  943   1.351   2.460   1.855  0.1779 -0.5852  0.2102
  315SOL    HW1  944   1.350   2.503   1.948  1.8911  0.2916 -1.6979
  315SOL    HW2  945   1.286   2.382   1.847  1.1865 -1.1372  1.1493
  316SOL     OW  946   0.036   0.800   0.408  0.3236 -0.0112  0.3705
  316SOL    HW1  947   0.030   0.699   0.391  0.7860 -0.4685  0.7867
  316SOL    HW2  948   3.061   0.822   0.484 -1.5950  0.2289  1.4419
  317SOL     OW  949   0.411   3.000   0.241  0.6115 -0.0159  0.2202
  317SOL    HW1  950   0.319   3.034   0.269 -1.6639  0.6796 -0.6396
  317SOL    HW2  951   0.396   2.930   0.170  2.7070  2.2069  1.4404
  318SOL     OW  952   2.251   2.500   0.450 -0.2563  0.0759  0.1051
  318SOL    HW1  953   2.171   2.443   0.416 -0.8581  0.0026 -0.3388
  318SOL    HW2  954   2.265   2.581   0.391  1.0910  2.7800 -1.9138
  319SOL     OW  955   1.024   1.666   3.046 -0.0071  0.2750 -0.1435
  319SOL    HW1  956   0.938   1.685   2.994 -1.4823  1.4501 -0.0279
  319SOL    HW2  957   1.060   1.570   3.027 -2.0023 -0.9922 -0.7485
  320SOL     OW  958   0.200   2.235   2.154 -0.2721 -0.0064 -0.4586
  320SOL    HW1  959   0.145   2.155   2.126 -1.1441 -2.7940  0.1757
  320SOL    HW2  960   0.199   2.299   2.078 -1.5203 -1.7770  2.3099
  321SOL     OW  961   1.696   2.783   2.726  0.4183 -0.6199 -0.2224
  321SOL    HW1  962   1.675   2.809   2.631  2.1037  0.2600 -0.3155
  321SOL    HW2  963   1.671   2.855   2.796  1.0400 -2.2370  1.0913
  322SOL     OW  964   2.702   1.381   2.310 -0.1617  0.0181 -0.2027
  322SOL    HW1  965   2.644   1.396   2.394  0.0529  0.2263 -0.2993
  322SOL    HW2  966   2.660   1.379   2.216  2.3842 -0.4632  0.2562
  323SOL     OW  967   2.295   1.303   0.606 -0.0769 -0.0858  0.3075
  323SOL    HW1  968   2.237   1.288   0.691  1.2151 -0.7192  0.5383
  323SOL    HW2  969   2.356   1.225   0.595 -1.3175 -1.8889  0.5586
  324SOL     OW  970   2.997   0.061   2.476 -0.4165 -0.0191  0.3123
  324SOL    HW1  971   2.930   0.134   2.515 -1.0780  2.3378  0.3797
  324SOL    HW2  972   2.957   3.057   2.487  1.9436  2.3332 -1.5487
  325SOL     OW  973   1.298   0.592   2.823  0.5530  0.3455 -0.1448
  325SOL    HW1  974   1.234   0.621   2.746  0.6547  2.1858 -0.0332
  325SOL    HW2  975   1.277   0.644   2.911 -3.0551 -1.7567  0.9279
  326SOL     OW  976   2.306   2.847   1.751 -0.1176  0.6225 -0.1371
  326SOL    HW1  977   2.252   2.912   1.694  2.8996  0.1089  0.1908
  326SOL    HW2  978   2.377   2.900   1.804 -0.3509 -0.6230  0.5240
  327SOL     OW  979   2.153   0.333   3.048 -1.2475  0.4284  0.0271
  327SOL    HW1  980   2.236   0.364   2.993  1.2300  0.7250 -1.9923
  327SOL    HW2  981   2.132   0.401   0.034 -0.2299  2.8297  2.0629
  328SOL     OW  982   0.251   1.257   2.510  0.3560 -0.1095 -0.0880
  328SOL    HW1  983   0.169   1.210   2.480 -1.0265 -0.5953 -0.3726
  328SOL    HW2  984   0.298   1.308   2.436  0.1423 -2.6829  3.7751
  329SOL     OW  985   2.104   3.053   1.821 -0.2831 -0.6171  0.1164
  329SOL    HW1  986   2.079   2.959   1.858  0.8173 -2.4175  0.6021
  329SOL    HW2  987   2.095   0.035   1.894  0.8010  1.0649  2.0347
  330SOL     OW  988   2.739   1.465   1.105  0.1632  0.4468  0.7192
  330SOL    HW1  989   2.733   1.362   1.111 -0.4402 -2.9710 -1.8219
  330SOL    HW2  990   2.690   1.511   1.180  1.2703 -1.3490  0.2384
  331SOL     OW  991   0.599   1.720   2.228  0.7026  0.2921 -0.3691
  331SOL    HW1  992   0.670   1.785   2.256  0.2919 -0.4850  1.6522
  331SOL    HW2  993   0.609   1.694   2.130  3.8494  1.2968 -1.1649
  332SOL     OW  994   0.259   2.774   1.506 -0.1101  0.0269 -0.2684
  332SOL    HW1  995   0.322   2.815   1.575 -1.0293 -0.7998  0.1485
  332SOL    HW2  996   0.167   2.816   1.511  1.9097 -2.3916 -1.2216
  333SOL     OW  997   2.203   2.526   1.132 -0.0258  0.0400 -0.0593
  333SOL    HW1  998   2.268   2.498   1.205  0.2331 -2.6048 -1.3911
  333SOL    HW2  999   2.227   2.475   1.048 -0.9970 -2.5376  0.1773
  334SOL     OW 1000   0.862   1.806   0.824 -0.2021  0.0916  0.3872
  334SOL    HW1 1001   0.822   1.715   0.849  2.2607  1.2496 -1.4885
  334SOL    HW2 1002   0.846   1.873   0.896 -1.4148 -2.2824 -1.9969
  335SOL     OW 1003   0.253   2.424   2.951 -0.0168 -0.2918 -0.6355
  335SOL    HW1 1004   0.248   2.349   2.885  1.2773  1.0001 -1.6021
  335SOL    HW2 1005   0.223   2.511   2.909 -0.5918  1.8485 -0.0401
  336SOL     OW 1006   0.594   3.030   2.175  0.2141  0.7543  0.2839
  336SOL    HW1 1007   0.497   3.038   2.208 -2.4096 -3.0870  1.0858
  336SOL    HW2 1008   0.602   2.948   2.118  0.8103  1.2379  0.6297
  337SOL     OW 1009   2.527   2.229   2.868  0.2742 -0.1683 -0.3122
  337SOL    HW1 1010   2.554   2.225   2.964  0.3160  0.2848 -0.1511
  337SOL    HW2 1011   2.478   2.146   2.835 -1.1880  0.1433 -0.4198
  338SOL     OW 1012   0.992   1.598   1.104 -0.5578  0.3059 -0.5483
  338SOL    HW1 1013   0.998   1.573   1.006 -1.3553 -3.1878  1.2310
  338SOL    HW2 1014   1.067   1.663   1.130 -0.4166  0.2094  1.1126
  339SOL     OW 1015   0.048   0.868   1.731  0.2196  0.0574  0.1808
  339SOL    HW1 1016   0.047   0.875   1.834  0.7512 -0.3338 -0.3861
  339SOL    HW2 1017   3.050   0.895   1.688  0.2751  0.9760  1.9977
  340SOL     OW 1018   1.492   2.559   0.127  0.3722 -0.5680  0.3090
  340SOL    HW1 1019   1.480   2.573   0.227  1.0973 -1.1768  0.9401
  340SOL    HW2 1020   1.474   2.648   0.078  0.6715 -0.2650 -0.1451
  341SOL     OW 1021   1.801   1.253   0.918  0.0340  0.1861 -0.5833
  341SOL    HW1 1022   1.848   1.174   0.961 -2.5013 -1.2766  0.1197
  341SOL    HW2 1023   1.749   1.305   0.987  0.1180  0.1655  0.6017
  342SOL     OW 1024   2.798   2.753   0.237  0.0523 -0.2356 -0.0112
  342SOL    HW1 1025   2.767   2.748   0.336  0.3959  0.0684 -0.3068
  342SOL    HW2 1026   2.716   2.752   0.174 -1.8083 -1.5637 -0.5650
  343SOL     OW 1027   1.420   2.147   1.272  0.3164  0.4160 -0.4551
  343SOL    HW1 1028   1.430   2.172   1.175 -0.8743  2.0832 -0.0604
  343SOL    HW2 1029   1.332   2.096   1.285  0.0011  0.5257  2.3707
  344SOL     OW 1030   2.344   2.097   0.754 -0.9380  0.0946 -0.2398
  344SOL    HW1 1031   2.255   2.096   0.803 -1.5002  1.9447  3.5331
  344SOL    HW2 1032   2.406   2.159   0.810  0.4606 -0.1282  1.3708
  345SOL     OW 1033   2.644   2.460   0.055 -0.5805  0.2612  0.3324
  345SOL    HW1 1034   2.653   2.362   0.046 -2.5183  1.4561 -0.3032
  345SOL    HW2 1035   2.614   2.488   0.150 -0.8149 -0.1888 -0.9170
  346SOL     OW 1036   2.780   1.447   0.770  0.4579 -0.2685  0.6749
  346SOL    HW1 1037   2.788   1.548   0.783  0.7290 -0.6403 -0.1402
  346SOL    HW2 1038   2.847   1.400   0.835 -1.5218  2.7176  1.9820
  347SOL     OW 1039   1.821   2.203   1.317 -0.2198  0.0763  0.4413
  347SOL    HW1 1040   1.778   2.281   1.369 -0.7828  0.6883 -1.1392
  347SOL    HW2 1041   1.874   2.233   1.233  1.7226  0.6237  1.8689
  348SOL     OW 1042   0.740   1.723   2.961 -0.1877 -0.0871  1.0523
  348SOL    HW1 1043   0.778   1.815   2.931 -1.0522  0.8490 -1.9952
  348SOL    HW2 1044   0.685   1.739   3.045 -1.7397 -0.6818  2.3349
  349SOL     OW 1045   2.323   1.362   1.724 -0.3907 -0.2884 -0.7620
  349SOL    HW1 1046   2.265   1.297   1.668  0.8601  1.1996  2.1554
  349SOL    HW2 1047   2.305   1.461   1.704  2.4033 -2.3075 -1.8986
  350SOL     OW 1048   0.072   2.531   0.929 -0.4386 -0.6634 -0.0245
  350SOL    HW1 1049   3.089   2.549   0.997 -0.0654  0.1496 -0.6507
  350SOL    HW2 1050   0.072   2.440   0.894 -2.9407  2.5166  2.2530
  351SOL     OW 1051   0.294   0.356   2.200  0.0174 -0.5020 -0.7973
  351SOL    HW1 1052   0.368   0.408   2.251 -0.8571  0.2638 -1.3768
  351SOL    HW2 1053   0.328   0.323   2.108 -0.4538 -0.1907 -0.5461
  352SOL     OW 1054   0.536   1.929   1.368 -0.0475 -0.1925 -0.1679
  352SOL    HW1 1055   0.539   1.999   1.440  0.5348 -0.0407 -0.5642
  352SOL    HW2 1056   0.441   1.911   1.333  0.7721  1.3919 -0.9688
  353SOL     OW 1057   1.463   1.854   2.491 -0.1127  0.4631 -0.1446
  353SOL    HW1 1058   1.367   1.821   2.509  1.5161  1.2155  0.3000
  353SOL    HW2 1059   1.534   1.776   2.497 -0.3766 -0.4492  1.4726
  354SOL     OW 1060   1.266   0.579   1.134 -0.4878  0.2284  0.3495
  354SOL    HW1 1061   1.270   0.600   1.037 -0.2909  1.1131  2.8275
  354SOL    HW2 1062   1.200   0.640   1.177  1.3623 -3.6003 -0.7500
  355SOL     OW 1063   2.655   0.917   0.676 -0.0736 -0.0036 -0.0796
  355SOL    HW1 1064   2.706   0.826   0.681 -0.8944 -1.5026  2.3547
  355SOL    HW2 1065   2.690   0.981   0.748  0.3716  0.0783  0.7431
  356SOL     OW 1066   2.455   1.740   2.517  0.4785  0.0521  0.1567
  356SOL    HW1 1067   2.447   1.841   2.525 -0.3291 -0.2577 -0.0962
  356SOL    HW2 1068   2.439   1.690   2.604 -1.6511 -0.7773  1.2636
  357SOL     OW 1069   0.622   2.528   1.407  0.5254  0.4347  0.3782
  357SOL    HW1 1070   0.712   2.507   1.364  0.1792  1.7730 -0.9915
  357SOL    HW2 1071   0.552   2.551   1.333  1.6681 -1.6286 -0.3496
  358SOL     OW 1072   2.366   0.848   1.734  0.0686  0.3438 -0.0461
  358SOL    HW1 1073   2.456   0.875   1.695 -1.1367  2.4347  1.0702
  358SOL    HW2 1074   2.332   0.767   1.689  1.3141  2.6593  2.5011
  359SOL     OW 1075   2.338   2.391   2.710  0.4862 -0.1961  0.1990
  359SOL    HW1 1076   2.412   2.320   2.714 -2.4712 -0.0221  0.6143
  359SOL    HW2 1077   2.296   2.416   2.623  0.4888  2.4831  0.6466
  360SOL     OW 1078   1.906   0.706   0.993 -0.3295  0.0719  0.6925
  360SOL    HW1 1079   2.007   0.705   0.988  2.2690  2.5119  0.4618
  360SOL    HW2 1080   1.881   0.765   1.073  1.1143  0.8948  1.3414
  361SOL     OW 1081   2.342   0.114   0.863  0.2707 -0.1730 -0.0858
  361SOL    HW1 1082   2.287   0.136   0.781  0.1408 -0.4837  1.6590
  361SOL    HW2 1083   2.286   0.044   0.915 -3.7041  1.1229 -0.8118
  362SOL     OW 1084   1.209   1.153   0.493 -0.1011 -0.7666  0.1018
  362SOL    HW1 1085   1.140   1.139   0.567  2.7577  1.7367 -2.2861
  362SOL    HW2 1086   1.193   1.242   0.438 -0.8626  4.7679  1.2060
  363SOL     OW 1087   2.330   1.584   2.753 -0.7506  0.1531 -0.3094
  363SOL    HW1 1088   2.398   1.523   2.796 -1.6103 -0.5107 -1.6479
  363SOL    HW2 1089   2.261   1.619   2.817  1.7405 -2.7882 -0.9792
  364SOL     OW 1090   0.930   0.254   1.705 -0.4876 -0.0462 -0.2823
  364SOL    HW1 1091   0.994   0.321   1.666 -1.5978 -2.3545 -2.0915
  364SOL    HW2 1092   0.967   0.221   1.796  2.0781 -1.7664  3.6931
  365SOL     OW 1093   0.357   3.018   0.638  0.0984  0.1297  0.3656
  365SOL    HW1 1094   0.338   2.934   0.587  1.7797  0.7868  1.5097
  365SOL    HW2 1095   0.277   3.036   0.702  1.3717 -0.0640  1.1154
  366SOL     OW 1096   2.820   1.336   2.976 -0.1041 -0.2764  0.1391
  366SOL    HW1 1097   2.857   1.354   3.068 -2.3957 -0.6342 -1.5121
  366SOL    HW2 1098   2.892   1.295   2.913  0.5234  0.3346 -1.8610
  367SOL     OW 1099   2.854   2.532   2.725  0.2339  0.0537 -0.5149
  367SOL    HW1 1100   2.771   2.586   2.699  0.7794  2.8992  0.3877
  367SOL    HW2 1101   2.860   2.528   2.832  0.5431 -0.5509  3.3712
  368SOL     OW 1102   0.014   1.952   0.682  0.4972 -0.0612  0.0196
  368SOL    HW1 1103   3.065   2.035   0.643  0.0945  0.0691  0.0384
  368SOL    HW2 1104   0.108   1.938   0.652 -2.1697  0.5598 -1.9293
  369SOL     OW 1105   0.587   0.140   0.220  0.1268 -0.3267 -0.7007
  369SOL    HW1 1106   0.525   0.069   0.193  0.7690 -1.1351  2.4300
  369SOL    HW2 1107   0.651   0.105   0.291  2.5746 -1.8114 -1.7891
  370SOL     OW 1108   0.387   0.887   0.740 -0.0065  0.2894 -0.3791
  370SOL    HW1 1109   0.374   0.961   0.676 -0.5361  0.5972  0.4743
  370SOL    HW2 1110   0.489   0.860   0.758 -0.8117 -0.6534  0.7988
  371SOL     OW 1111   2.088   2.574   0.636 -0.1718  0.2379  0.0222
  371SOL    HW1 1112   2.158   2.540   0.569  2.0872  0.1272  0.8430
  371SOL    HW2 1113   2.070   2.493   0.697  1.9572  1.8996  0.0750
  372SOL     OW 1114   0.315   1.029   2.694 -0.4030  0.2552  0.3195
  372SOL    HW1 1115   0.234   1.077   2.647  1.7213  1.4104  1.1222
  372SOL    HW2 1116   0.346   1.090   2.772  0.9666 -0.4768 -0.6399
  373SOL     OW 1117   2.712   1.783   0.624  0.2142  0.3020  0.4179
  373SOL    HW1 1118   2.814   1.757   0.620  4.0298 -0.7278  4.6834
  373SOL    HW2 1119   2.698   1.814   0.721  1.0423 -1.1528  1.0725
  374SOL     OW 1120   0.369   2.573   0.163 -0.3326 -0.6351  0.0178
  374SOL    HW1 1121   0.318   2.483   0.150 -0.1872 -1.9218  1.7218
  374SOL    HW2 1122   0.418   2.579   0.255 -0.6748 -1.0061  0.8702
  375SOL     OW 1123   0.259   0.431   0.190  0.1284 -0.0461 -0.7729
  375SOL    HW1 1124   0.326   0.397   0.260  0.8022 -0.2956  2.4359
  375SOL    HW2 1125   0.292   0.416   0.093 -1.0974 -1.8680 -0.6904
  376SOL     OW 1126   0.403   2.886   1.720 -0.3891  0.2729  0.0679
  376SOL    HW1 1127   0.470   2.838   1.779  1.2152 -2.0314  0.4289
  376SOL    HW2 1128   0.404   2.989   1.732  0.8905  0.9524 -0.4657
  377SOL     OW 1129   0.902   2.081   2.611  0.2183 -0.1066  0.6675
  377SOL    HW1 1130   0.919   2.181   2.583 -0.5968 -0.3635 -1.2830
  377SOL    HW2 1131   0.804   2.075   2.643  0.6459  1.1475  2.2580
  378SOL     OW 1132   1.081   0.694   0.604 -0.0747 -0.0278  0.3334
  378SOL    HW1 1133   1.062   0.651   0.511 -0.0911  0.1913 -0.8558
  378SOL    HW2 1134   1.132   0.781   0.584 -1.6076 -1.7114 -0.0592
  379SOL     OW 1135   0.932   1.689   0.200 -0.3027  0.1033 -0.0703
  379SOL    HW1 1136   0.983   1.662   0.110  0.6951  0.5073 -2.5850
  379SOL    HW2 1137   0.902   1.609   0.256 -0.1596  1.1007 -2.0981
  380SOL     OW 1138   3.066   1.924   1.695  0.0531 -0.7666 -0.2497
  380SOL    HW1 1139   3.028   1.845   1.643 -0.5085 -2.0884  0.3227
  380SOL    HW2 1140   0.076   1.914   1.707 -2.1142  0.4428  0.9575
  381SOL     OW 1141   0.024   1.325   1.668 -0.9459 -0.4576 -0.8249
  381SOL    HW1 1142   3.047   1.330   1.588 -3.6171  1.1387 -0.4456
  381SOL    HW2 1143   0.083   1.239   1.661  1.0715  0.9475 -1.2814
  382SOL     OW 1144   2.728   2.263   0.581  0.4964 -0.5412 -0.5686
  382SOL    HW1 1145   2.634   2.299   0.599  0.0098 -2.7876  0.5079
  382SOL    HW2 1146   2.736   2.243   0.485 -2.4423 -1.3828  1.3777
  383SOL     OW 1147   2.196   1.904   2.368  0.3617 -0.1541 -0.2175
  383SOL    HW1 1148   2.145   1.874   2.287  0.3913  1.8507  1.3566
  383SOL    HW2 1149   2.286   1.940   2.348  0.1855 -0.6334  1.8077
  384SOL     OW 1150   0.767   1.909   2.351  0.4863 -0.1720  0.0145
  384SOL    HW1 1151   0.739   2.002   2.380  0.2839  0.4014  1.3764
  384SOL    HW2 1152   0.841   1.869   2.407  0.7452  3.5062 -1.1393
  385SOL     OW 1153   2.924   2.208   0.980  0.6947 -0.5292  0.1053
  385SOL    HW1 1154   2.991   2.244   0.913 -1.0500 -0.0518 -0.1259
  385SOL    HW2 1155   2.964   2.127   1.030  1.8151  0.9247 -3.9117
  386SOL     OW 1156   1.901   0.704   0.235 -0.3164 -0.7227  0.0415
  386SOL    HW1 1157   1.815   0.749   0.236  4.4153 -0.4331 -0.4539
  386SOL    HW2 1158   1.970   0.758   0.289 -2.4007 -2.5507 -1.4557
  387SOL     OW 1159   0.180   1.110   1.662 -0.0278  0.6894 -0.7701
  387SOL    HW1 1160   0.135   1.020   1.680  3.8427 -2.0546  2.3641
  387SOL    HW2 1161   0.277   1.103   1.694  0.7025 -0.8545  0.4322
  388SOL     OW 1162   2.667   1.004   2.203 -0.1493  0.2839 -0.8015
  388SOL    HW1 1163   2.730   1.069   2.252  0.0338  0.7182  0.0591
  388SOL    HW2 1164   2.608   0.967   2.276  0.4476  2.1491 -1.7781
  389SOL     OW 1165   1.625   0.863   2.324  0.3555  0.2736  0.0836
  389SOL    HW1 1166   1.555   0.861   2.247 -0.5730  2.2449 -0.0654
  389SOL    HW2 1167   1.693   0.785   2.318 -1.6306 -1.2686  2.0284
  390SOL     OW 1168   1.900   2.591   3.085  0.0217 -0.2249 -0.3528
  390SOL    HW1 1169   1.839   2.566   0.074 -1.4675 -0.6018  1.2602
  390SOL    HW2 1170   1.865   2.556   2.996 -0.3132 -0.1321 -0.5399
  391SOL     OW 1171   1.914   2.238   1.071  0.0317 -0.7881 -0.0870
  391SOL    HW1 1172   2.005   2.235   1.028  1.3501  2.2433 -0.4284
  391SOL    HW2 1173   1.863   2.322   1.037 -1.7520  0.3015 -3.1762
  392SOL     OW 1174   2.950   2.485   1.422  0.0122 -0.2720  0.1526
  392SOL    HW1 1175   3.010   2.552   1.375 -2.1321  2.7660  2.8871
  392SOL    HW2 1176   2.923   2.407   1.359  0.5371  1.6582 -0.0714
  393SOL     OW 1177   2.113   1.945   2.921 -0.1890  0.0568  0.3696
  393SOL    HW1 1178   2.087   2.039   2.949  3.5236 -0.1537  2.1511
  393SOL    HW2 1179   2.129   1.935   2.820  0.1969 -0.7963 -0.9709
  394SOL     OW 1180   0.300   0.020   3.005 -0.3346 -0.1079  0.5501
  394SOL    HW1 1181   0.370   3.036   3.010  0.6446  0.1022 -2.5638
  394SOL    HW2 1182   0.332   0.097   2.947  0.4682 -1.4629 -2.3664
  395SOL     OW 1183   1.508   1.070   1.355  0.0201 -0.3187  0.1234
  395SOL    HW1 1184   1.530   1.144   1.287 -0.8448 -0.1720 -0.6559
  395SOL    HW2 1185   1.514   0.974   1.313  0.2577 -0.8659 -1.3325
  396SOL     OW 1186   1.623   0.785   0.220 -0.1453 -0.2494  0.1148
  396SOL    HW1 1187   1.695   0.849   0.194 -0.3171 -0.6970 -0.2105
  396SOL    HW2 1188   1.594   0.798   0.317 -0.0927 -2.9968 -4.3713
  397SOL     OW 1189   0.141   0.808   2.780  0.0837 -0.2042  0.1077
  397SOL    HW1 1190   0.107   0.766   2.694  1.0033 -0.1992  0.5892
  397SOL    HW2 1191   0.225   0.864   2.763  2.2331  1.1288 -1.2219
  398SOL     OW 1192   1.439   0.251   3.001 -0.1492  0.2798  0.3233
  398SOL    HW1 1193   1.501   0.267   3.083  1.1562  2.3943  1.2866
  398SOL    HW2 1194   1.344   0.232   3.031  0.7217  2.6806 -1.8975
  399SOL     OW 1195   2.480   2.877   1.943 -0.2853  0.0580  0.1218
  399SOL    HW1 1196   2.572   2.846   1.976  1.2619 -2.3060 -0.6087
  399SOL    HW2 1197   2.414   2.805   1.979 -1.8822 -0.5537  1.9003
  400SOL     OW 1198   2.966   1.455   2.357 -0.4158  0.1269 -0.7755
  400SOL    HW1 1199   3.031   1.379   2.342  0.7203  1.3684 -3.3738
  400SOL    HW2 1200   2.878   1.424   2.374  2.4910  0.3172  0.0555
  401SOL     OW 1201   0.476   0.355   2.577  0.2458  0.0300 -0.1432
  401SOL    HW1 1202   0.524   0.367   2.666 -2.4096 -3.0974  0.4007
  401SOL    HW2 1203   0.439   0.260   2.571 -1.1333 -0.5401  2.3695
  402SOL     OW 1204   0.492   2.228   1.746 -0.5948  0.5567 -0.4060
  402SOL    HW1 1205   0.582   2.208   1.706  0.5294 -0.4887  1.3515
  402SOL    HW2 1206   0.505   2.289   1.825 -1.1335  0.8551 -0.5892
  403SOL     OW 1207   0.611   1.406   1.379  0.1638 -0.1914 -0.1457
  403SOL    HW1 1208   0.606   1.364   1.470 -0.3702 -0.8451 -0.5368
  403SOL    HW2 1209   0.684   1.481   1.378  1.9013  0.9173  0.4939
  404SOL     OW 1210   2.900   2.721   1.571 -0.6679  0.2811 -0.7994
  404SOL    HW1 1211   2.810   2.757   1.582  2.2931 -3.9319  0.0987
  404SOL    HW2 1212   2.902   2.624   1.545  3.2799 -0.0776 -0.4496
  405SOL     OW 1213   2.881   0.248   1.817 -0.0137 -0.1111 -0.2998
  405SOL    HW1 1214   2.867   0.147   1.810  1.0832 -0.1717  1.5248
  405SOL    HW2 1215   2.952   0.275   1.880 -1.7973  1.9752 -0.2132
  406SOL     OW 1216   1.498   2.431   2.779 -0.8227 -0.1822 -0.0543
  406SOL    HW1 1217   1.451   2.346   2.755  2.0525  1.7237 -0.0575
  406SOL    HW2 1218   1.527   2.476   2.692 -1.4844 -0.3484  1.5845
  407SOL     OW 1219   1.727   1.472   1.450  0.2568  0.0736  0.0057
  407SOL    HW1 1220   1.762   1.377   1.444  0.2514 -0.9236 -0.3545
  407SOL    HW2 1221   1.803   1.538   1.476  4.0176  1.2471  0.0011
  408SOL     OW 1222   0.637   0.183   2.082  0.1207 -0.0964  0.0048
  408SOL    HW1 1223   0.610   0.093   2.118  0.6302  1.2076 -1.6597
  408SOL    HW2 1224   0.674   0.236   2.165  0.3741  2.0601  1.2684
  409SOL     OW 1225   2.723   2.434   0.884 -0.0340 -0.1928 -0.2814
  409SOL    HW1 1226   2.647   2.506   0.876  0.6073 -0.3510 -4.4869
  409SOL    HW2 1227   2.758   2.423   0.977 -1.3426  2.0259 -0.4315
  410SOL     OW 1228   2.231   1.648   0.293  0.2099 -0.0019  0.0221
  410SOL    HW1 1229   2.263   1.577   0.359 -2.4452  2.3970 -0.4415
  410SOL    HW2 1230   2.309   1.714   0.265 -1.1024  1.1373  2.7765
  411SOL     OW 1231   0.094   0.559   0.794  0.6588  0.3468  0.3703
  411SOL    HW1 1232   0.163   0.530   0.724 -1.0588 -0.5160 -0.3111
  411SOL    HW2 1233   0.078   0.661   0.792  0.8990 -2.3303  0.8557
  412SOL     OW 1234   1.987   0.718   0.548 -0.0873  0.2214  0.0582
  412SOL    HW1 1235   1.923   0.765   0.610 -1.4300  1.4325  1.6800
  412SOL    HW2 1236   2.022   0.790   0.485 -3.0673 -1.5983  1.3543
  413SOL     OW 1237   0.836   0.377   1.123  0.3530  0.3130 -0.1245
  413SOL    HW1 1238   0.736   0.354   1.104 -1.7425 -0.4476  2.7006
  413SOL    HW2 1239   0.870   0.328   1.203  1.8977  1.9011 -1.6832
  414SOL     OW 1240   0.238   1.667   0.167 -0.2296  0.4875  0.7183
  414SOL    HW1 1241   0.154   1.612   0.138 -0.1673 -2.4893  0.2766
  414SOL    HW2 1242   0.289   1.619   0.241 -0.4874 -0.4947 -2.7324
  415SOL     OW 1243   0.312   2.303   0.099 -0.2922  0.2909 -0.0249
  415SOL    HW1 1244   0.382   2.231   0.112 -1.6195  1.7903 -2.0058
  415SOL    HW2 1245   0.328   2.346   0.011 -0.3187  1.5375  2.2877
  416SOL     OW 1246   1.580   0.770   0.495  0.4189  0.2164 -0.3214
  416SOL    HW1 1247   1.569   0.673   0.475 -1.2311  0.4726  2.3315
  416SOL    HW2 1248   1.670   0.794   0.547  2.7217  0.6561  0.1625
  417SOL     OW 1249   0.297   0.801   0.504 -0.0802 -0.5605  0.2936
  417SOL    HW1 1250   0.204   0.824   0.462 -1.3164  0.9661  1.6100
  417SOL    HW2 1251   0.316   0.848   0.592 -2.2178 -2.6250 -1.9916
  418SOL     OW 1252   2.632   1.159   2.643  0.5079  0.2888  0.1142
  418SOL    HW1 1253   2.566   1.201   2.581  1.0371  0.7760  0.9370
  418SOL    HW2 1254   2.594   1.098   2.713 -0.3621  0.3157 -1.2896
  419SOL     OW 1255   0.328   0.444   2.982  0.4876 -0.1860 -0.0402
  419SOL    HW1 1256   0.224   0.426   2.971 -2.1236 -0.9223  0.6316
  419SOL    HW2 1257   0.354   0.521   2.922 -0.4456 -2.3975  3.3640
  420SOL     OW 1258   0.333   1.280   0.970 -0.2244 -0.2651  0.1220
  420SOL    HW1 1259   0.310   1.355   0.900 -0.5628 -1.8307 -0.3701
  420SOL    HW2 1260   0.338   1.323   1.065 -0.0464 -0.2413  1.9385
  421SOL     OW 1261   0.549   2.011   0.450  0.4348  0.1696 -0.1265
  421SOL    HW1 1262   0.452   2.030   0.422  1.0839  1.6161  0.2816
  421SOL    HW2 1263   0.575   2.055   0.539  1.1534 -0.9625  0.9301
  422SOL     OW 1264   2.750   0.609   1.361 -0.4010  0.3929  0.1363
  422SOL    HW1 1265   2.814   0.637   1.435 -2.9912  0.2758  0.2184
  422SOL    HW2 1266   2.775   0.513   1.339  2.5672  1.3034 -1.6169
  423SOL     OW 1267   1.728   1.502   1.164 -0.1311  0.7590 -0.1544
  423SOL    HW1 1268   1.733   1.509   1.264  1.5842 -2.4371 -2.5919
  423SOL    HW2 1269   1.769   1.581   1.113  0.9081 -0.8670  0.0021
  424SOL     OW 1270   1.940   1.145   0.440  0.0804  0.1523  0.1330
  424SOL    HW1 1271   2.028   1.164   0.386  2.0400 -3.4331 -0.4623
  424SOL    HW2 1272   1.857   1.200   0.409  0.7726  1.0205 -0.6528
  425SOL     OW 1273   0.150   2.919   2.084 -0.2272 -0.7975 -0.1133
  425SOL    HW1 1274   0.210   2.994   2.122 -1.5867  0.4587  0.2933
  425SOL    HW2 1275   0.081   2.888   2.152  3.5364  1.7232 -2.3114
  426SOL     OW 1276   2.589   2.655   2.712  0.0680  0.1708  0.2196
  426SOL    HW1 1277   2.543   2.593   2.779  0.3211 -2.0661  0.5268
  426SOL    HW2 1278   2.607   2.746   2.755 -1.8233 -1.0570 -2.6079
  427SOL     OW 1279   0.846   1.023   2.340 -0.0622  0.0400  0.3354
  427SOL    HW1 1280   0.779   0.967   2.284  1.1426 -0.4258 -0.6479
  427SOL    HW2 1281   0.917   0.962   2.384  0.6182 -1.8841  2.0316
  428SOL     OW 1282   2.176   0.795   2.528 -0.1192  0.4565 -0.3793
  428SOL    HW1 1283   2.156   0.718   2.593 -2.0488 -0.1529 -0.1609
  428SOL    HW2 1284   2.114   0.870   2.570  0.2696  1.3699  0.6867
  429SOL     OW 1285   2.507   0.337   0.566  0.0645 -0.6188 -0.3128
  429SOL    HW1 1286   2.454   0.292   0.490 -1.6449 -1.0614  0.6492
  429SOL    HW2 1287   2.448   0.403   0.615  2.8783 -2.6463 -1.2701
  430SOL     OW 1288   2.059   1.111   2.003  0.1620  0.3849  0.3406
  430SOL    HW1 1289   2.029   1.102   2.098  1.1447 -1.0625  1.0783
  430SOL    HW2 1290   1.993   1.059   1.943  1.1764 -2.2498 -2.4913
  431SOL     OW 1291   2.923   2.013   1.379 -0.4978 -0.8083  0.0284
  431SOL    HW1 1292   2.956   2.080   1.449 -1.4538 -1.0246  0.3634
  431SOL    HW2 1293   2.950   1.923   1.412  0.9687 -0.1536  1.0126
  432SOL     OW 1294   1.640   2.823   2.436 -0.0985  0.7846 -0.8275
  432SOL    HW1 1295   1.587   2.906   2.465 -1.2880  0.4550 -3.8564
  432SOL    HW2 1296   1.691   2.839   2.351  0.0844  1.0630  1.0144
  433SOL     OW 1297   1.496   2.823   1.803 -0.1298  0.1499 -0.7903
  433SOL    HW1 1298   1.567   2.789   1.740 -0.0784 -0.0372  0.7297
  433SOL    HW2 1299   1.403   2.810   1.770  0.2861  0.7054 -0.0065
  434SOL     OW 1300   0.184   2.283   2.423  0.3487  0.1152 -0.7416
  434SOL    HW1 1301   0.253   2.357   2.436  2.1531  0.9338 -1.5531
  434SOL    HW2 1302   0.183   2.251   2.326 -1.7193  2.6093 -0.6929
  435SOL     OW 1303   2.953   1.933   0.167 -0.2580  0.1978 -0.3103
  435SOL    HW1 1304   3.052   1.923   0.146  0.7731 -0.6717  1.4621
  435SOL    HW2 1305   2.918   1.845   0.209 -0.2551 -0.5905  0.0817
  436SOL     OW 1306   0.862   1.138   1.756 -0.0679 -0.4225  0.6598
  436SOL    HW1 1307   0.913   1.061   1.709 -1.4377 -0.3393 -0.5501
  436SOL    HW2 1308   0.927   1.180   1.813 -0.8585  0.6550 -2.4245
  437SOL     OW 1309   0.266   0.079   2.709 -0.2249 -0.4820 -0.0193
  437SOL    HW1 1310   0.364   0.081   2.734 -0.3154 -0.4128 -3.0194
  437SOL    HW2 1311   0.239   3.074   2.681  0.5859 -1.9183  0.8914
  438SOL     OW 1312   0.413   1.525   1.684 -0.2040  0.1948  0.0306
  438SOL    HW1 1313   0.401   1.607   1.627 -2.9656 -0.5783  1.6023
  438SOL    HW2 1314   0.498   1.519   1.741 -0.3372  0.4111 -0.4754
  439SOL     OW 1315   1.980   0.903   3.022  0.1764 -0.4223  0.2087
  439SOL    HW1 1316   1.903   0.960   3.059 -3.0972 -0.8045 -1.1609
  439SOL    HW2 1317   2.045   0.964   2.974  1.8302 -0.0486 -1.9638
  440SOL     OW 1318   0.793   1.130   0.247 -0.2848 -0.3645  0.1711
  440SOL    HW1 1319   0.852   1.112   0.330 -1.2576 -1.0437 -2.7308
  440SOL    HW2 1320   0.737   1.048   0.223  0.8236 -0.1929  1.6024
  441SOL     OW 1321   0.547   2.582   1.643 -0.0385 -0.3537 -0.5548
  441SOL    HW1 1322   0.586   2.573   1.545  0.9167  1.5600  1.0837
  441SOL    HW2 1323   0.464   2.639   1.642  3.4421  0.1308  0.0784
  442SOL     OW 1324   2.534   1.989   0.534  0.0756  0.4376 -0.4027
  442SOL    HW1 1325   2.526   2.039   0.627  3.3392 -1.0212  2.3523
  442SOL    HW2 1326   2.608   1.919   0.536  2.1426 -3.1696  2.4957
  443SOL     OW 1327   2.635   1.515   2.569  0.4443 -0.1108  0.1531
  443SOL    HW1 1328   2.604   1.611   2.551 -0.8128  2.1363 -1.3875
  443SOL    HW2 1329   2.666   1.501   2.664 -0.5171 -0.6423 -0.7985
  444SOL     OW 1330   1.222   1.091   0.192 -0.1624 -0.2446 -0.0266
  444SOL    HW1 1331   1.155   1.076   0.115  0.9394  0.3760 -3.4236
  444SOL    HW2 1332   1.199   1.029   0.268  1.3368 -0.4599 -2.3129
  445SOL     OW 1333   2.362   2.586   1.787 -0.4337  0.5413 -0.1250
  445SOL    HW1 1334   2.456   2.594   1.815 -2.3489 -0.5019  0.1221
  445SOL    HW2 1335   2.337   2.676   1.748  2.0107 -0.8776  3.1506
  446SOL     OW 1336   2.965   1.713   0.628  0.3163 -0.0251  0.0358
  446SOL    HW1 1337   2.977   1.660   0.541 -0.9162 -0.2206  1.1819
  446SOL    HW2 1338   3.026   1.794   0.633 -2.1442 -0.7277 -2.2316
  447SOL     OW 1339   0.961   2.233   1.309 -0.2846  0.1872 -0.3293
  447SOL    HW1 1340   1.009   2.233   1.397 -1.4276 -1.1213 -3.1653
  447SOL    HW2 1341   0.882   2.166   1.298 -2.7571  1.4353 -0.0563
  448SOL     OW 1342   1.500   1.734   1.927  0.3339 -0.3690 -0.1452
  448SOL    HW1 1343   1.402   1.704   1.932  1.0344  1.8083 -0.3514
  448SOL    HW2 1344   1.511   1.785   1.842 -2.3848 -1.7189  0.9884
  449SOL     OW 1345   0.137   1.886   2.312 -0.2332 -0.0152 -0.1127
  449SOL    HW1 1346   0.077   1.960   2.280 -1.6118 -0.5058  0.1884
  449SOL    HW2 1347   0.205   1.865   2.236  0.9052  0.1724 -1.1771
  450SOL     OW 1348   2.803   1.991   2.272 -0.0717 -0.2879 -0.1376
  450SOL    HW1 1349   2.790   2.092   2.294 -0.2241 -0.0157  0.7173
  450SOL    HW2 1350   2.894   1.959   2.305  2.2993  0.3133  1.7787
  451SOL     OW 1351   2.007   0.619   1.665 -0.0142 -0.2294 -0.3368
  451SOL    HW1 1352   2.090   0.657   1.627 -0.6061  0.7379  2.8961
  451SOL    HW2 1353   2.011   0.520   1.647  0.4091  2.0588  0.0590
  452SOL     OW 1354   0.768   1.559   0.836 -0.2004 -0.1460 -0.2737
  452SOL    HW1 1355   0.706   1.477   0.849  0.8680 -0.0735  2.2380
  452SOL    HW2 1356   0.811   1.554   0.742 -1.8435  1.4592 -0.7035
  453SOL     OW 1357   1.410   2.284   0.996  0.2593  0.8496 -0.2681
  453SOL    HW1 1358   1.420   2.323   0.905  0.3654 -3.1983  1.3251
  453SOL    HW2 1359   1.316   2.304   1.030 -1.8285  0.2609 -1.2525
  454SOL     OW 1360   0.054   1.321   0.317 -0.6190  0.3707  0.1574
  454SOL    HW1 1361   0.079   1.303   0.416  1.4959  0.9981  3.2688
  454SOL    HW2 1362   0.102   1.259   0.247  2.7667 -0.2882 -2.1354
  455SOL     OW 1363   0.924   1.046   0.477  0.4430  0.6896 -0.2007
  455SOL    HW1 1364   0.981   0.968   0.444 -1.7126  0.2822 -0.1700
  455SOL    HW2 1365   0.952   1.071   0.574 -0.5381 -2.4838 -1.8352
  456SOL     OW 1366   2.272   2.421   0.897 -0.3131  0.3888  0.7553
  456SOL    HW1 1367   2.181   2.395   0.865 -0.2650  3.7911 -0.3297
  456SOL    HW2 1368   2.321   2.335   0.930 -1.8425 -0.6913 -0.3210
  457SOL     OW 1369   1.659   2.958   2.910  0.1787 -0.0466 -0.6500
  457SOL    HW1 1370   1.609   3.039   2.874  4.1269  2.0625 -1.5439
  457SOL    HW2 1371   1.744   2.993   2.951 -1.0959  1.9649 -1.3898
  458SOL     OW 1372   2.547   0.517   0.216  0.3842 -0.2295  0.6280
  458SOL    HW1 1373   2.446   0.527   0.237  2.0674  1.0328  0.5142
  458SOL    HW2 1374   2.600   0.559   0.295 -1.6725  0.1720  4.3875
  459SOL     OW 1375   2.184   0.412   2.123  0.6547 -0.2195 -0.1251
  459SOL    HW1 1376   2.169   0.473   2.203 -1.7905  0.5336  1.2600
  459SOL    HW2 1377   2.277   0.418   2.084 -2.3201  0.4539  0.2968
  460SOL     OW 1378   2.845   0.604   2.760 -0.0703 -0.2685  0.0296
  460SOL    HW1 1379   2.861   0.513   2.812 -3.1125 -2.1556 -0.0301
  460SOL    HW2 1380   2.831   0.584   2.657 -2.5356 -4.2513 -1.9708
  461SOL     OW 1381   0.046   2.281   0.807  0.0471 -0.1566 -0.1422
  461SOL    HW1 1382   0.127   2.217   0.810  0.1822 -0.5466 -2.1984
  461SOL    HW2 1383   0.010   2.284   0.713 -1.8749 -1.3263 -0.6482
  462SOL     OW 1384   2.826   0.080   1.229 -0.0583 -0.0889 -0.1476
  462SOL    HW1 1385   2.770   0.061   1.146  1.4978 -1.2127 -1.6572
  462SOL    HW2 1386   2.810   0.174   1.264 -3.3902 -1.5111 -1.1646
  463SOL     OW 1387   2.086   1.261   0.045 -0.5736  0.2706  0.2051
  463SOL    HW1 1388   2.148   1.344   0.046  3.7370 -0.2495 -0.4521
  463SOL    HW2 1389   2.121   1.190   3.066 -1.9755 -1.8799 -4.5764
  464SOL     OW 1390   0.852   2.487   1.267  0.1165 -0.2704 -0.2685
  464SOL    HW1 1391   0.881   2.394   1.294  2.5926  1.1162  2.0609
  464SOL    HW2 1392   0.944   2.534   1.260 -0.5049 -0.5391  1.0254
  465SOL     OW 1393   0.971   0.263   1.331  0.7173 -0.2693 -0.5205
  465SOL    HW1 1394   1.041   0.215   1.386 -1.9948 -0.7759 -0.6001
  465SOL    HW2 1395   0.923   0.334   1.392  2.6158 -2.7567  0.2490
  466SOL     OW 1396   1.625   2.449   1.870 -0.1018 -0.2487  0.3415
  466SOL    HW1 1397   1.652   2.454   1.970  0.1881 -2.0183  3.8632
  466SOL    HW2 1398   1.522   2.455   1.878 -0.4116 -2.0037 -0.2304
  467SOL     OW 1399   0.587   2.242   1.425  0.1202  1.4866 -0.0323
  467SOL    HW1 1400   0.587   2.343   1.444 -0.0251 -0.8465 -1.8866
  467SOL    HW2 1401   0.492   2.202   1.437  0.4529  0.6613  1.9640
  468SOL     OW 1402   2.671   1.625   2.047  0.1822  0.5903 -0.1954
  468SOL    HW1 1403   2.634   1.673   2.135 -1.5616  1.5307 -0.7691
  468SOL    HW2 1404   2.633   1.530   2.047 -0.6789 -0.1281  0.9646
  469SOL     OW 1405   0.861   1.964   0.598  0.5334  0.1763  0.0821
  469SOL    HW1 1406   0.781   2.033   0.600 -3.3753 -0.8989  2.7617
  469SOL    HW2 1407   0.867   1.910   0.686  0.6171 -1.5527 -1.1479
  470SOL     OW 1408   1.883   1.024   2.186  0.1357  0.1015  0.3020
  470SOL    HW1 1409   1.931   0.946   2.231  2.5592  0.6549 -0.0043
  470SOL    HW2 1410   1.845   1.091   2.251  1.0759  0.1135  1.5177
  471SOL     OW 1411   0.678   2.547   0.053 -0.2935 -0.2062  0.5138
  471SOL    HW1 1412   0.649   2.610   0.132 -1.1878  0.0958 -1.1451
  471SOL    HW2 1413   0.708   2.457   0.087  0.8326 -1.3218 -1.6446
  472SOL     OW 1414   0.314   2.708   2.087  0.2154  0.3865  0.8331
  472SOL    HW1 1415   0.263   2.790   2.064  0.7827 -1.3962 -0.4741
  472SOL    HW2 1416   0.413   2.721   2.071  0.9192 -0.3349 -2.4941
  473SOL     OW 1417   0.487   2.890   2.930 -0.6914  0.0882  0.1894
  473SOL    HW1 1418   0.429   2.844   3.001 -0.3754  0.4175 -0.4599
  473SOL    HW2 1419   0.582   2.904   2.963  1.1472 -0.2651  0.5581
  474SOL     OW 1420   2.179   3.030   1.029 -0.1167 -0.2374 -0.4267
  474SOL    HW1 1421   2.081   3.055   1.038 -0.9749 -1.3384 -0.0916
  474SOL    HW2 1422   2.192   2.936   1.062 -1.1469  1.2989 -2.2463
  475SOL     OW 1423   1.800   0.044   1.713 -0.0837 -0.0826  0.0384
  475SOL    HW1 1424   1.882   0.036   1.774 -1.5185  1.2268 -0.1378
  475SOL    HW2 1425   1.805   3.063   1.640  0.2789 -2.1588  1.1743
  476SOL     OW 1426   0.576   1.361   0.773 -0.0821 -0.3828  0.2055
  476SOL    HW1 1427   0.488   1.405   0.794  0.6684 -0.4419 -0.4242
  476SOL    HW2 1428   0.564   1.262   0.796  2.6291 -1.2476 -2.7609
  477SOL     OW 1429   0.342   1.947   0.670  0.0705 -0.5562  0.3011
  477SOL    HW1 1430   0.431   1.899   0.682  0.4228  1.0886  0.0854
  477SOL    HW2 1431   0.287   1.892   0.604  1.7946  2.2575 -0.0818
  478SOL     OW 1432   0.074   2.547   2.432  0.0623 -0.2277 -0.4531
  478SOL    HW1 1433   0.052   2.588   2.526  0.4599  0.6976 -0.5210
  478SOL    HW2 1434   0.004   2.482   2.404  0.7858 -0.4106 -1.7656
  479SOL     OW 1435   2.892   0.301   1.401  0.2944  0.0821  0.0930
  479SOL    HW1 1436   2.977   0.262   1.443  0.0116 -0.4781  1.7343
  479SOL    HW2 1437   2.807   0.282   1.452 -0.4618  0.6936  0.1153
  480SOL     OW 1438   2.869   2.545   3.009 -0.1152  0.5679 -0.1991
  480SOL    HW1 1439   2.942   2.566   3.074 -2.3437 -1.4147 -2.0492
  480SOL    HW2 1440   2.786   2.520   3.059  3.7055  1.5593 -1.0590
  481SOL     OW 1441   2.349   1.876   1.787  0.3016  0.2597  0.1718
  481SOL    HW1 1442   2.255   1.896   1.838 -2.5643 -0.4755  2.6207
  481SOL    HW2 1443   2.393   1.964   1.762 -0.8927 -0.8312 -0.3286
  482SOL     OW 1444   1.788   2.199   2.398 -0.5559  0.3659 -0.1685
  482SOL    HW1 1445   1.871   2.183   2.339  0.9794  0.2517 -2.3111
  482SOL    HW2 1446   1.709   2.143   2.366  0.3364 -0.4526  0.7080
  483SOL     OW 1447   0.957   1.555   2.192 -0.1660 -0.0838 -0.6913
  483SOL    HW1 1448   0.872   1.551   2.252  0.1319 -0.9152 -1.1413
  483SOL    HW2 1449   0.952   1.500   2.106  1.9327  2.1021  0.3326
  484SOL     OW 1450   0.084   0.419   1.466 -0.0100  0.4883 -0.5339
  484SOL    HW1 1451   0.038   0.478   1.392  0.4417  0.1866 -0.2804
  484SOL    HW2 1452   0.088   0.482   1.547 -1.4005 -1.1955 -1.6758
  485SOL     OW 1453   2.478   1.150   0.347  0.1184  0.5809  0.0144
  485SOL    HW1 1454   2.532   1.065   0.315  2.1904 -1.5162  0.2620
  485SOL    HW2 1455   2.460   1.204   0.264 -1.8715 -0.9803  4.1585
  486SOL     OW 1456   1.625   0.217   2.201  0.1792  0.3010 -0.5247
  486SOL    HW1 1457   1.631   0.225   2.097 -0.4233  2.5833  1.3468
  486SOL    HW2 1458   1.705   0.255   2.248 -1.5619 -0.1361 -0.3878
  487SOL     OW 1459   0.799   1.994   1.306 -0.3166  0.0536 -0.9146
  487SOL    HW1 1460   0.707   1.951   1.315  1.1962 -1.2204 -0.3943
  487SOL    HW2 1461   0.857   1.980   1.390  1.6069  1.2223  0.3338
  488SOL     OW 1462   2.277   1.475   3.079 -0.4798  0.1451  0.1529
  488SOL    HW1 1463   2.279   1.430   2.988 -0.1461 -0.3727  0.5671
  488SOL    HW2 1464   2.261   1.577   3.068 -0.2285  0.1870  0.4186
  489SOL     OW 1465   2.215   2.811   0.669 -0.2302 -0.2045 -0.7469
  489SOL    HW1 1466   2.178   2.713   0.676  0.2769 -3.3829  0.0998
  489SOL    HW2 1467   2.149   2.874   0.627 -0.6018  0.9741 -0.3093
  490SOL     OW 1468   1.158   2.641   3.043 -0.8017  0.0614  0.1175
  490SOL    HW1 1469   1.207   2.571   2.987  1.5063  2.0851  0.6057
  490SOL    HW2 1470   1.055   2.641   3.036 -0.6556 -0.3893 -1.3931
  491SOL     OW 1471   0.789   1.316   1.137 -0.3922 -0.4326  0.7331
  491SOL    HW1 1472   0.749   1.332   1.225  0.3206 -0.1025 -2.2626
  491SOL    HW2 1473   0.810   1.402   1.085  0.5758  0.0053 -0.6899
  492SOL     OW 1474   1.468   0.294   2.457  0.0844  0.0860  0.0229
  492SOL    HW1 1475   1.538   0.347   2.405 -0.4175 -1.5887  1.1915
  492SOL    HW2 1476   1.411   0.232   2.398 -1.8435 -0.7086  0.8303
  493SOL     OW 1477   1.856   2.104   0.048 -0.8101 -0.4206  0.4235
  493SOL    HW1 1478   1.797   2.142   3.067 -0.5094  0.6320  4.2069
  493SOL    HW2 1479   1.954   2.136   0.039  1.3016 -0.3745 -0.7387
  494SOL     OW 1480   0.695   1.418   0.538 -0.2012 -0.3652  0.3145
  494SOL    HW1 1481   0.650   1.505   0.510 -1.3837 -2.7911  0.6342
  494SOL    HW2 1482   0.656   1.402   0.633  0.8392  1.0983  0.0787
  495SOL     OW 1483   2.820   2.585   0.681 -0.1894 -0.1826  0.3340
  495SOL    HW1 1484   2.899   2.581   0.619  1.8252  0.5658  2.9911
  495SOL    HW2 1485   2.789   2.498   0.719 -0.6756  0.4930 -1.2126
  496SOL     OW 1486   2.634   3.039   1.585  0.2419  0.2948 -0.2719
  496SOL    HW1 1487   2.617   3.079   1.490 -1.3219 -0.1305  0.4249
  496SOL    HW2 1488   2.623   0.023   1.656 -1.4722  2.3911 -1.0685
  497SOL     OW 1489   2.301   1.005   2.411  0.0945  0.6311 -0.0272
  497SOL    HW1 1490   2.251   1.086   2.446 -0.0534 -1.3212 -1.7045
  497SOL    HW2 1491   2.266   0.924   2.460 -2.8628  0.5663  0.3199
  498SOL     OW 1492   0.376   2.145   1.065 -0.4513 -0.0689  0.3750
  498SOL    HW1 1493   0.327   2.144   0.978 -1.0337 -0.2296  1.4230
  498SOL    HW2 1494   0.310   2.123   1.139  1.3731  1.6729 -2.0003
  499SOL     OW 1495   0.936   2.456   1.609 -0.6715  0.5025  0.5666
  499SOL    HW1 1496   0.863   2.459   1.676 -0.4217  1.5032  0.9277
  499SOL    HW2 1497   0.925   2.527   1.537 -2.5568 -1.8017  0.8888
  500SOL     OW 1498   1.117   2.189   0.317 -0.2084 -0.5587  0.1247
  500SOL    HW1 1499   1.050   2.114   0.345 -4.3503 -1.3257  0.6180
  500SOL    HW2 1500   1.143   2.172   0.218  1.7632  0.2541 -0.9405
  501SOL     OW 1501   2.389   2.901   1.358 -0.2733 -0.1176  0.0163
  501SOL    HW1 1502   2.317   2.939   1.416 -0.0584  0.2031 -3.3132
  501SOL    HW2 1503   2.338   2.857   1.279 -1.0345  1.2432  0.3456
  502SOL     OW 1504   2.671   0.292   1.540  0.6234 -0.4974 -0.4741
  502SOL    HW1 1505   2.636   0.214   1.600  0.8338 -0.2425 -1.6905
  502SOL    HW2 1506   2.682   0.375   1.597 -1.3152 -2.0622  1.5051
  503SOL     OW 1507   2.686   0.940   1.950 -0.0785  0.7998 -0.1814
  503SOL    HW1 1508   2.754   1.002   1.910  0.9072  0.1981 -0.6661
  503SOL    HW2 1509   2.680   0.961   2.056 -0.1841 -1.8475  2.5416
  504SOL     OW 1510   1.378   0.683   1.745 -0.6079  0.7327  0.1240
  504SOL    HW1 1511   1.415   0.628   1.824 -2.0416 -1.2490 -0.0651
  504SOL    HW2 1512   1.313   0.751   1.786  3.2604  0.3420  1.2107
  505SOL     OW 1513   0.948   3.061   2.150 -0.2643 -0.1107 -0.1699
  505SOL    HW1 1514   0.922   2.977   2.100  0.7901  1.4233  0.9485
  505SOL    HW2 1515   0.920   3.055   2.249  2.8625 -0.6378 -2.8722
  506SOL     OW 1516   0.367   0.245   0.681  0.0491 -0.2735  0.5028
  506SOL    HW1 1517   0.350   0.170   0.613 -1.4221 -1.1017 -1.5867
  506SOL    HW2 1518   0.381   0.206   0.773  1.5215  0.1473 -1.7492
  507SOL     OW 1519   2.100   0.535   0.135 -0.8679  0.4305  0.0425
  507SOL    HW1 1520   2.176   0.508   0.201 -0.4999  0.3534 -0.2277
  507SOL    HW2 1521   2.030   0.593   0.176 -2.1206 -1.0041 -1.0240
  508SOL     OW 1522   1.841   0.250   2.363 -0.2581  0.0190  0.2397
  508SOL    HW1 1523   1.868   0.317   2.435 -1.1948  1.5912 -0.5575
  508SOL    HW2 1524   1.856   0.150   2.387 -1.1268  0.8135 -0.5159
  509SOL     OW 1525   1.088   1.422   1.563 -0.1590  0.2901  0.3630
  509SOL    HW1 1526   1.153   1.437   1.640 -0.1707  2.7763  1.0882
  509SOL    HW2 1527   1.104   1.342   1.500  0.5192 -2.6987 -0.2950
  510SOL     OW 1528   2.808   1.088   0.842 -0.3848 -0.5784  0.5698
  510SOL    HW1 1529   2.870   1.021   0.889  0.7558  2.9351  0.3099
  510SOL    HW2 1530   2.762   1.148   0.914  2.7573  0.7494  0.6523
  511SOL     OW 1531   1.946   1.979   1.162  0.2727  0.2191 -0.6885
  511SOL    HW1 1532   2.007   2.021   1.232 -0.1317  0.2027  0.7258
  511SOL    HW2 1533   1.883   2.045   1.126  4.4084 -0.7923 -2.0518
  512SOL     OW 1534   3.084   1.587   0.416  0.0411  0.1930  0.0445
  512SOL    HW1 1535   0.028   1.490   0.397 -0.8509 -1.3067  1.6574
  512SOL    HW2 1536   0.068   1.641   0.456  0.3846 -0.3419 -2.9704
  513SOL     OW 1537   2.997   2.172   0.304 -0.3387  0.0946  0.1262
  513SOL    HW1 1538   2.967   2.097   0.238 -1.2242 -0.2351  0.1030
  513SOL    HW2 1539   2.916   2.230   0.330  3.6033 -0.8204  0.4021
  514SOL     OW 1540   2.474   2.005   2.538  0.2518  0.0691  0.1446
  514SOL    HW1 1541   2.475   2.074   2.463 -2.1720  0.8178  1.7229
  514SOL    HW2 1542   2.433   2.043   2.626 -1.1103 -0.6364 -0.2802
  515SOL     OW 1543   2.015   1.497   0.629  0.3355 -0.2380  0.2049
  515SOL    HW1 1544   1.915   1.491   0.613  2.6597 -0.1172  0.8139
  515SOL    HW2 1545   2.057   1.408   0.614  0.9241 -0.6399 -0.8364
  516SOL     OW 1546   1.931   3.085   0.499  0.0475  0.2484 -0.1924
  516SOL    HW1 1547   1.933   0.093   0.519  1.2234 -2.2717 -0.2805
  516SOL    HW2 1548   1.864   3.067   0.429  0.8832 -0.2140 -0.0847
  517SOL     OW 1549   0.832   1.971   2.878 -0.2200 -0.4041 -0.2103
  517SOL    HW1 1550   0.827   2.037   2.954  0.9671  1.7294 -1.9197
  517SOL    HW2 1551   0.779   2.009   2.796 -1.7693  0.6537 -0.3022
  518SOL     OW 1552   0.462   0.648   1.945  0.2753  0.0716 -0.0050
  518SOL    HW1 1553   0.513   0.561   1.937  0.8633 -1.2457 -0.6183
  518SOL    HW2 1554   0.461   0.685   2.042 -1.3419  0.3329 -0.1695
  519SOL     OW 1555   3.027   0.981   0.224 -0.3663 -0.0827  0.3163
  519SOL    HW1 1556   3.089   1.055   0.187  3.1556  0.0096  0.0082
  519SOL    HW2 1557   3.079   0.928   0.296 -1.2215 -0.2126  1.4130
  520SOL     OW 1558   2.732   1.752   1.567 -0.1187 -0.1550 -0.0788
  520SOL    HW1 1559   2.754   1.765   1.664  0.4179  1.2641 -3.4674
  520SOL    HW2 1560   2.653   1.811   1.537  2.2839 -2.5077 -3.4423
  521SOL     OW 1561   0.570   2.541   2.425  0.0886 -0.6867  0.2706
  521SOL    HW1 1562   0.618   2.495   2.351  3.3590  2.1380  1.4558
  521SOL    HW2 1563   0.467   2.543   2.408 -0.4036  0.6815  0.8005
  522SOL     OW 1564   1.895   0.067   2.117 -0.4838 -0.3722 -0.1253
  522SOL    HW1 1565   1.994   0.086   2.095  1.6038 -2.2160  0.3788
  522SOL    HW2 1566   1.856   0.135   2.181 -0.1136  0.9784  1.0637
  523SOL     OW 1567   2.034   1.861   1.685 -0.6290 -0.6221  0.6726
  523SOL    HW1 1568   1.998   1.949   1.646  0.1781  2.5108 -0.1618
  523SOL    HW2 1569   2.055   1.865   1.784  3.4813  1.3398 -0.1921
  524SOL     OW 1570   0.673   2.818   0.210 -0.4754  0.2744 -0.4143
  524SOL    HW1 1571   0.610   2.887   0.246  0.1073 -0.1718 -1.2497
  524SOL    HW2 1572   0.768   2.852   0.211 -1.0929 -1.3889  3.8449
  525SOL     OW 1573   2.893   0.332   0.293 -0.0407 -0.5332 -0.5717
  525SOL    HW1 1574   2.847   0.397   0.229 -1.2771 -0.5634 -1.3945
  525SOL    HW2 1575   2.988   0.356   0.319 -4.0887 -0.1807  0.9161
  526SOL     OW 1576   0.708   2.839   0.659 -0.2299 -0.0728  0.2394
  526SOL    HW1 1577   0.745   2.834   0.755  0.2072 -0.6353  1.1655
  526SOL    HW2 1578   0.635   2.767   0.645  2.7119  0.6485 -1.5688
  527SOL     OW 1579   2.642   1.889   0.911  0.6140 -0.2351  0.0125
  527SOL    HW1 1580   2.593   1.906   0.997  0.8079  1.1599  1.3389
  527SOL    HW2 1581   2.674   1.984   0.882  0.2799 -1.0111 -1.4508
  528SOL     OW 1582   2.856   0.513   2.245  0.2143  0.2177  0.0307
  528SOL    HW1 1583   2.952   0.494   2.250 -1.4952  0.5928 -1.0847
  528SOL    HW2 1584   2.818   0.460   2.173  2.1229  2.3641  2.9774
  529SOL     OW 1585   1.216   1.496   2.524 -0.5184 -0.2581 -0.3932
  529SOL    HW1 1586   1.292   1.467   2.593  0.2697  2.2278  0.3661
  529SOL    HW2 1587   1.126   1.453   2.549  0.1388 -0.6235  1.6885
  530SOL     OW 1588   1.777   1.190   2.646 -0.0366  0.1206  0.0171
  530SOL    HW1 1589   1.751   1.168   2.550  2.9425  0.1337 -1.4745
  530SOL    HW2 1590   1.831   1.115   2.691  1.3314 -3.5492  0.1032
  531SOL     OW 1591   0.611   1.596   2.588  0.3022  0.5140 -0.2575
  531SOL    HW1 1592   0.555   1.649   2.522 -0.5851 -0.0952  0.8824
  531SOL    HW2 1593   0.683   1.539   2.545  1.3261  2.1129 -0.4618
  532SOL     OW 1594   1.759   1.446   0.556 -0.2980 -0.2120 -0.4415
  532SOL    HW1 1595   1.751   1.401   0.462  0.2658 -1.2085 -0.1240
  532SOL    HW2 1596   1.701   1.531   0.547 -1.0118  1.4809  0.1002
  533SOL     OW 1597   0.286   0.272   1.932  0.7942 -0.1425  0.4088
  533SOL    HW1 1598   0.326   0.187   1.891  1.9259 -0.4795  0.8550
  533SOL    HW2 1599   0.191   0.254   1.956  2.0533  0.6242  0.1089
  534SOL     OW 1600   0.863   2.687   2.994  0.5219 -0.2511  0.5080
  534SOL    HW1 1601   0.790   2.632   3.033  0.9520 -0.1082 -0.2447
  534SOL    HW2 1602   0.847   2.781   3.005 -1.7543 -0.7610 -1.0098
  535SOL     OW 1603   0.197   0.106   0.329 -0.2228  0.3423 -0.1897
  535SOL    HW1 1604   0.250   0.191   0.347  3.2846  2.8379  2.7946
  535SOL    HW2 1605   0.152   0.089   0.418 -0.8023 -0.7157 -2.0155
  536SOL     OW 1606   0.182   1.497   1.841  0.5958  0.4901 -0.3959
  536SOL    HW1 1607   0.113   1.420   1.817 -0.6926 -4.4805 -3.0384
  536SOL    HW2 1608   0.251   1.506   1.767 -4.1988 -0.6962  3.4224
  537SOL     OW 1609   0.904   2.686   1.468 -0.2309 -0.2568  0.1170
  537SOL    HW1 1610   0.917   2.780   1.434  1.7448 -0.1457  0.3986
  537SOL    HW2 1611   0.811   2.650   1.450 -2.8366  1.8208  0.9586
  538SOL     OW 1612   2.867   1.704   0.274  0.6010  0.8925 -0.8419
  538SOL    HW1 1613   2.944   1.660   0.319  0.8779 -1.2940  0.4425
  538SOL    HW2 1614   2.770   1.674   0.291 -0.2648  1.4006 -1.5623
  539SOL     OW 1615   2.894   1.061   2.612  0.4209 -0.2687 -0.1060
  539SOL    HW1 1616   2.924   1.013   2.696 -1.6230 -0.3825 -0.4101
  539SOL    HW2 1617   2.797   1.082   2.620  0.8043 -0.2506  0.6897
  540SOL     OW 1618   1.448   0.855   2.116  0.0269  0.2356  0.0302
  540SOL    HW1 1619   1.520   0.849   2.043  0.5642 -1.8370 -2.2574
  540SOL    HW2 1620   1.403   0.948   2.114 -0.7735 -0.9772 -0.3106
  541SOL     OW 1621   0.734   0.952   1.907 -0.1127  0.5593  0.5059
  541SOL    HW1 1622   0.661   0.914   1.843 -1.7786 -1.9285  0.8350
  541SOL    HW2 1623   0.757   1.048   1.880  0.7060 -1.4038  1.7877
  542SOL     OW 1624   2.378   0.395   2.894 -0.4299 -0.0270  0.2095
  542SOL    HW1 1625   2.446   0.353   2.957 -3.3461  0.9999  0.0774
  542SOL    HW2 1626   2.396   0.353   2.805  3.5670  0.8896  0.7168
  543SOL     OW 1627   0.998   0.250   2.955 -0.3639  0.2969 -0.0272
  543SOL    HW1 1628   1.027   0.329   3.015 -0.9849  0.0195  2.3803
  543SOL    HW2 1629   1.078   0.191   2.930 -1.0049 -1.2273  0.7007
  544SOL     OW 1630   2.931   1.537   2.069 -0.0059 -0.0047  0.6114
  544SOL    HW1 1631   2.938   1.547   2.173 -1.2080  0.9300  0.6605
  544SOL    HW2 1632   2.836   1.539   2.037  0.6885 -0.6769  1.5800
  545SOL     OW 1633   1.944   2.161   1.585 -0.5516 -0.1505 -0.2449
  545SOL    HW1 1634   1.882   2.129   1.512 -2.3386 -0.4315 -1.0267
  545SOL    HW2 1635   1.967   2.259   1.587  1.0164  0.3727 -0.6863
  546SOL     OW 1636   0.057   2.984   2.910 -0.1644 -0.3403 -0.8538
  546SOL    HW1 1637   0.042   2.979   2.809  0.1733 -3.2116  0.7604
  546SOL    HW2 1638   0.147   3.026   2.939 -0.4225  0.7115 -0.7884
  547SOL     OW 1639   1.662   0.941   0.928 -0.8851 -0.0862 -0.1935
  547SOL    HW1 1640   1.646   1.008   0.854  1.7443  0.2216  0.8361
  547SOL    HW2 1641   1.583   0.925   0.981  1.5222 -0.3079 -2.4366
  548SOL     OW 1642   1.847   1.649   2.182 -0.0500 -0.4324  0.2401
  548SOL    HW1 1643   1.757   1.614   2.144  0.5068 -0.7345 -1.2160
  548SOL    HW2 1644   1.869   1.602   2.267 -0.2964  0.3775 -4.4983
  549SOL     OW 1645   1.772   0.550   0.545  0.9377 -0.1853  0.9995
  549SOL    HW1 1646   1.827   0.621   0.494  1.2574  1.0532  0.4132
  549SOL    HW2 1647   1.805   0.546   0.638 -0.5525 -0.3114 -2.2291
  550SOL     OW 1648   2.040   1.592   0.892 -0.2553  0.0952 -0.1788
  550SOL    HW1 1649   1.948   1.626   0.924  1.3045 -0.2314 -0.7449
  550SOL    HW2 1650   2.035   1.556   0.794  0.4167 -1.3420 -0.1837
  551SOL     OW 1651   0.660   2.921   1.568 -0.0648  0.3022 -0.0873
  551SOL    HW1 1652   0.744   2.976   1.551  2.7546  0.7450  1.6801
  551SOL    HW2 1653   0.639   2.914   1.668  0.5302  1.5047 -0.0340
  552SOL     OW 1654   0.039   2.198   2.627  0.0887  0.0417  0.3854
  552SOL    HW1 1655   3.089   2.110   2.589  3.7776  0.9821  0.3880
  552SOL    HW2 1656   0.100   2.236   2.556  0.4530 -0.3789  2.7388
  553SOL     OW 1657   0.369   0.095   0.914  0.7012  0.1670 -0.2278
  553SOL    HW1 1658   0.432   0.020   0.890  1.9081  5.0610  0.9835
  553SOL    HW2 1659   0.340   0.083   1.012  1.5332 -0.1210  0.9172
  554SOL     OW 1660   2.461   2.121   1.708  0.1291 -0.0824  0.0538
  554SOL    HW1 1661   2.548   2.152   1.751  0.2905  0.8472  3.4716
  554SOL    HW2 1662   2.416   2.203   1.662  1.2886 -2.5442 -4.9001
  555SOL     OW 1663   1.195   2.210   1.882 -0.4422 -0.3495 -0.1033
  555SOL    HW1 1664   1.226   2.138   1.822  0.2424  0.2378 -0.1442
  555SOL    HW2 1665   1.100   2.239   1.862  0.7825 -0.1360 -0.3173
  556SOL     OW 1666   1.256   1.780   1.803 -0.3187 -0.1417  0.1311
  556SOL    HW1 1667   1.250   1.884   1.798  1.8824  1.7335  1.6058
  556SOL    HW2 1668   1.284   1.746   1.710 -0.3752  0.7934  0.9484
  557SOL     OW 1669   1.959   2.364   2.026 -0.4323  0.1114 -0.0440
  557SOL    HW1 1670   2.046   2.385   1.982 -1.8594  0.3450  1.2610
  557SOL    HW2 1671   1.981   2.341   2.119 -0.5942 -0.0378 -1.6916
  558SOL     OW 1672   0.634   2.864   1.847  0.4967  0.5594  0.6142
  558SOL    HW1 1673   0.729   2.831   1.864 -3.1222 -3.0214 -1.9231
  558SOL    HW2 1674   0.641   2.966   1.852 -0.8323 -0.7801  0.9635
  559SOL     OW 1675   2.263   2.784   1.109 -0.1453 -0.1379 -0.1230
  559SOL    HW1 1676   2.342   2.788   1.041  1.4769 -0.3429 -0.8665
  559SOL    HW2 1677   2.236   2.685   1.127 -1.6228 -1.9914  0.4918
  560SOL     OW 1678   1.762   2.383   0.433  0.0179  0.1133  0.0103
  560SOL    HW1 1679   1.732   2.351   0.524  0.8641  2.6603 -1.7010
  560SOL    HW2 1680   1.864   2.378   0.420  2.3301  1.6174 -1.2656
  561SOL     OW 1681   1.080   0.442   0.055  0.9657 -0.2111  0.3404
  561SOL    HW1 1682   1.152   0.435   0.129 -1.1180 -1.9202  1.1787
  561SOL    HW2 1683   0.993   0.478   0.105  0.7153 -0.0273  1.4783
  562SOL     OW 1684   0.510   0.448   2.334 -0.1016 -0.8038 -0.2589
  562SOL    HW1 1685   0.500   0.430   2.435  1.5492  0.8575 -0.2249
  562SOL    HW2 1686   0.601   0.416   2.300  0.7331  1.4058 -1.2053
  563SOL     OW 1687   1.799   1.730   2.966 -0.0770  0.4139 -0.1281
  563SOL    HW1 1688   1.869   1.735   3.036 -1.2116 -1.2850 -0.8679
  563SOL    HW2 1689   1.728   1.805   2.980 -0.0261 -0.3258  1.8195
  564SOL     OW 1690   2.448   1.162   1.410 -0.1312  0.5557 -0.5746
  564SOL    HW1 1691   2.487   1.186   1.502  0.2752  0.0937 -0.4872
  564SOL    HW2 1692   2.526   1.148   1.351 -1.5860  1.7931  2.5776
  565SOL     OW 1693   0.891   0.467   2.597  0.5269 -0.7755 -0.5129
  565SOL    HW1 1694   0.839   0.541   2.550 -0.3523 -3.9435  1.0082
  565SOL    HW2 1695   0.869   0.460   2.695  2.2658  0.9296  0.2406
  566SOL     OW 1696   1.944   0.171   2.757 -0.0625  0.0705  0.1637
  566SOL    HW1 1697   1.933   0.100   2.686  2.5026 -0.0893  0.4763
  566SOL    HW2 1698   2.012   0.141   2.823 -1.7730  0.5423  1.5589
  567SOL     OW 1699   2.086   1.732   0.500  0.8815  0.3716  0.1031
  567SOL    HW1 1700   2.129   1.721   0.409 -1.3953  0.2124 -0.5211
  567SOL    HW2 1701   2.060   1.642   0.544 -1.1989  0.5394  1.2536
  568SOL     OW 1702   1.707   1.812   0.148 -0.1191  0.0223 -0.1816
  568SOL    HW1 1703   1.781   1.878   0.170  2.9831  1.2711  0.6370
  568SOL    HW2 1704   1.617   1.860   0.138  1.0558  1.2440 -3.3842
  569SOL     OW 1705   2.177   1.089   2.959 -0.0787  0.1373 -0.1110
  569SOL    HW1 1706   2.207   1.134   2.875 -0.3969 -0.7830  0.6988
  569SOL    HW2 1707   2.254   1.039   3.005  1.7825  0.3745 -1.2084
  570SOL     OW 1708   0.256   2.409   1.724 -0.4033  0.7650 -0.2123
  570SOL    HW1 1709   0.234   2.440   1.631 -0.8722  0.1771  0.2427
  570SOL    HW2 1710   0.356   2.388   1.735  1.4268  0.4782  3.6733
  571SOL     OW 1711   0.451   1.117   1.760 -0.0569  0.0824 -0.0107
  571SOL    HW1 1712   0.435   1.156   1.852  0.7636 -0.4589 -0.2058
  571SOL    HW2 1713   0.476   1.018   1.771 -1.1474 -2.2682  0.1298
  572SOL     OW 1714   0.993   1.516   0.629 -0.1015  0.1066  0.3708
  572SOL    HW1 1715   0.959   1.499   0.534  1.7540  1.1199  1.7118
  572SOL    HW2 1716   1.043   1.606   0.630  2.3849  2.3066 -1.1533
  573SOL     OW 1717   1.599   1.934   2.969 -0.1783 -0.6906  0.2505
  573SOL    HW1 1718   1.542   1.929   3.057  2.2472 -0.8890  2.6666
  573SOL    HW2 1719   1.639   2.026   2.958 -1.1698  1.3866 -0.8434
  574SOL     OW 1720   0.934   0.358   0.883  0.6447 -0.3368 -0.0097
  574SOL    HW1 1721   0.884   0.351   0.970  1.2725  0.7404  0.4653
  574SOL    HW2 1722   0.897   0.291   0.816  0.4964  0.9094  0.8362
  575SOL     OW 1723   0.258   1.157   1.410  0.4368 -0.0194  0.5687
  575SOL    HW1 1724   0.225   1.145   1.505  0.0045  0.6134  0.0915
  575SOL    HW2 1725   0.352   1.128   1.393  0.9320  1.3571 -0.1806
  576SOL     OW 1726   2.092   2.699   1.520 -0.1114  0.1145  0.4350
  576SOL    HW1 1727   2.135   2.792   1.531 -1.3489 -1.4519 -1.5156
  576SOL    HW2 1728   2.030   2.702   1.441  0.0116  1.6673  1.5319
  577SOL     OW 1729   1.082   1.191   1.930  0.6357 -0.0299 -0.0870
  577SOL    HW1 1730   1.152   1.122   1.935 -4.4981  3.1771 -2.9700
  577SOL    HW2 1731   1.048   1.222   2.022  0.2483  0.7492 -1.7594
  578SOL     OW 1732   1.816   0.685   2.592 -0.1480  0.3731 -0.2254
  578SOL    HW1 1733   1.737   0.626   2.560 -0.0018  0.6604 -1.1468
  578SOL    HW2 1734   1.793   0.778   2.617  3.3795 -2.0803 -0.1365
  579SOL     OW 1735   2.043   2.437   1.657 -0.2747 -0.0262  0.4477
  579SOL    HW1 1736   2.115   2.375   1.700  2.4452 -2.7635  0.6362
  579SOL    HW2 1737   2.092   2.511   1.603 -0.8881 -0.8792 -1.4005
  580SOL     OW 1738   2.048   1.209   2.422 -0.3622 -0.0219  0.0340
  580SOL    HW1 1739   2.000   1.272   2.487 -0.6083 -0.1275  1.9748
  580SOL    HW2 1740   2.123   1.253   2.371 -1.6608 -1.6518  1.5571
  581SOL     OW 1741   1.389   1.358   2.694  0.2714 -0.2282 -0.1777
  581SOL    HW1 1742   1.460   1.352   2.768 -1.7138 -0.6977 -0.3214
  581SOL    HW2 1743   1.324   1.280   2.713  2.0819  0.9995 -2.1294
  582SOL     OW 1744   1.042   1.765   1.959  0.1457  0.0791 -0.2562
  582SOL    HW1 1745   1.117   1.756   1.887  0.4590 -1.6812 -0.8072
  582SOL    HW2 1746   1.076   1.837   2.026 -0.0938 -0.7803 -2.6356
  583SOL     OW 1747   1.820   1.194   1.417 -0.2787 -0.1320  0.0265
  583SOL    HW1 1748   1.728   1.153   1.411  0.3845 -0.4853  0.1974
  583SOL    HW2 1749   1.843   1.200   1.516  0.1371  0.2873 -0.6623
  584SOL     OW 1750   1.892   2.665   0.470 -0.0111  0.3403 -0.5999
  584SOL    HW1 1751   1.970   2.625   0.523  1.0009 -0.5345 -2.9411
  584SOL    HW2 1752   1.855   2.597   0.400 -0.1316 -2.8433 -1.1524
  585SOL     OW 1753   2.251   2.871   2.727 -0.6459 -0.3615 -0.4398
  585SOL    HW1 1754   2.163   2.914   2.694  1.0739  0.2188 -1.6433
  585SOL    HW2 1755   2.236   2.772   2.748  0.6786 -0.0138 -2.1388
  586SOL     OW 1756   2.889   2.301   1.242  0.0876  0.0424 -0.3963
  586SOL    HW1 1757   2.924   2.346   1.162 -3.1828 -1.9450 -0.1845
  586SOL    HW2 1758   2.910   2.201   1.237 -3.2967 -0.4643  1.3107
  587SOL     OW 1759   1.469   1.969   0.109  0.0365  0.0779  0.5870
  587SOL    HW1 1760   1.455   2.063   0.081  1.7195  0.2945  0.6932
  587SOL    HW2 1761   1.390   1.902   0.092 -0.1210 -0.5287 -3.4903
  588SOL     OW 1762   0.401   0.528   0.976 -0.1266 -0.1260 -0.1744
  588SOL    HW1 1763   0.463   0.464   1.018 -2.2729  0.4313  0.5461
  588SOL    HW2 1764   0.313   0.486   0.946 -2.2971  0.2598  0.5506
  589SOL     OW 1765   0.981   0.194   0.411 -0.2244  0.5704  0.6186
  589SOL    HW1 1766   0.930   0.282   0.417  2.2725 -1.2602  0.6210
  589SOL    HW2 1767   0.958   0.153   0.327  1.6323  1.7097  1.9434
  590SOL     OW 1768   1.439   0.371   2.770  0.3013  0.3433 -0.1068
  590SOL    HW1 1769   1.391   0.459   2.769  1.0501 -2.0985 -1.2341
  590SOL    HW2 1770   1.446   0.334   2.864  1.8033  0.4059  1.5638
  591SOL     OW 1771   3.069   2.031   2.127  0.5900 -0.2702 -0.1327
  591SOL    HW1 1772   3.043   1.954   2.068 -0.6923  2.0027  0.5072
  591SOL    HW2 1773   3.005   2.109   2.117  5.4214  0.9718  3.5967
  592SOL     OW 1774   2.231   1.540   2.133  0.2828 -0.9218  0.4560
  592SOL    HW1 1775   2.200   1.461   2.077  0.5369  2.0817  0.6183
  592SOL    HW2 1776   2.290   1.613   2.090 -0.4156 -0.3572  0.5466
  593SOL     OW 1777   1.470   1.286   1.804 -0.0968 -0.0305  0.4289
  593SOL    HW1 1778   1.507   1.216   1.738  0.9771 -1.9522  0.1307
  593SOL    HW2 1779   1.551   1.334   1.846  1.7614  2.7877  1.6634
  594SOL     OW 1780   2.604   1.187   3.078 -0.9755  0.3991 -0.3281
  594SOL    HW1 1781   2.658   1.247   3.018  0.7542 -1.5415 -0.0861
  594SOL    HW2 1782   2.659   1.109   0.025 -2.0385 -3.0379  0.3189
  595SOL     OW 1783   0.470   0.592   0.464  0.4797  0.0175  0.1713
  595SOL    HW1 1784   0.397   0.670   0.476 -1.1892  3.0562  0.7787
  595SOL    HW2 1785   0.532   0.594   0.542 -2.6296 -0.2111 -2.5510
  596SOL     OW 1786   3.078   1.095   1.347 -0.1414 -0.5291  0.1290
  596SOL    HW1 1787   3.031   1.180   1.379  1.3083  0.7327 -1.0933
  596SOL    HW2 1788   0.087   1.102   1.378  0.1265 -1.8576  2.3491
  597SOL     OW 1789   1.155   1.966   1.016  0.5052 -0.4684  0.0910
  597SOL    HW1 1790   1.182   1.873   1.043  0.0841 -1.5197  3.1688
  597SOL    HW2 1791   1.160   2.020   1.102 -2.1326 -1.5605  2.2771
  598SOL     OW 1792   0.393   0.081   1.736 -0.5942 -0.1436  0.2551
  598SOL    HW1 1793   0.449   0.141   1.679  1.1301 -1.9028  0.8412
  598SOL    HW2 1794   0.319   0.034   1.685  1.5399 -1.3099 -1.5260
  599SOL     OW 1795   0.150   1.611   2.811  0.5362 -0.3677 -0.2775
  599SOL    HW1 1796   0.199   1.531   2.775  0.4736  0.3468  0.4295
  599SOL    HW2 1797   0.217   1.668   2.870  0.3223  1.3254  1.2332
  600SOL     OW 1798   0.516   1.079   2.990  0.1220  0.1055 -0.1291
  600SOL    HW1 1799   0.458   1.144   2.938 -1.8793 -1.0205 -0.3690
  600SOL    HW2 1800   0.518   0.980   2.961  1.5812 -0.5015  1.6909
  601SOL     OW 1801   0.749   0.949   1.319  0.4636  0.3540 -0.1063
  601SOL    HW1 1802   0.823   1.001   1.276 -0.6913 -0.4577  0.5972
  601SOL    HW2 1803   0.692   0.906   1.244 -1.2037  1.6448 -1.2683
  602SOL     OW 1804   0.857   0.101   0.095 -0.6779  0.0494  0.4619
  602SOL    HW1 1805   0.909   0.162   0.032 -1.8209  1.3324 -0.0446
  602SOL    HW2 1806   0.762   0.131   0.114 -0.6582  0.9242 -0.1533
  603SOL     OW 1807   1.461   2.339   2.224 -0.7448  0.6659 -0.4990
  603SOL    HW1 1808   1.550   2.350   2.183 -0.4823 -0.9390 -1.5443
  603SOL    HW2 1809   1.465   2.341   2.327  1.9576 -0.4023  0.0439
  604SOL     OW 1810   0.454   2.823   2.682 -0.2276 -0.5106  0.4827
  604SOL    HW1 1811   0.478   2.863   2.775 -0.6089 -0.1124  2.2065
  604SOL    HW2 1812   0.536   2.793   2.634 -1.7733 -0.1476 -2.8298
  605SOL     OW 1813   2.544   1.216   1.665 -0.1457 -0.0967 -0.2336
  605SOL    HW1 1814   2.601   1.226   1.746 -2.1173  0.1344 -0.7722
  605SOL    HW2 1815   2.463   1.272   1.691  2.7377 -0.4061  0.9216
  606SOL     OW 1816   1.000   1.229   2.845 -0.1750  0.1112 -0.2748
  606SOL    HW1 1817   1.018   1.311   2.905  1.8899  1.2240 -2.5130
  606SOL    HW2 1818   0.904   1.238   2.807  1.2539  0.9122 -2.4539
  607SOL     OW 1819   0.826   0.413   0.469 -0.7225 -0.3485 -0.9120
  607SOL    HW1 1820   0.741   0.368   0.506  0.4206 -0.6544  0.0968
  607SOL    HW2 1821   0.863   0.481   0.540 -0.8625  0.0205  0.9497
  608SOL     OW 1822   2.703   1.477   1.580 -0.0531 -0.1477 -0.0094
  608SOL    HW1 1823   2.736   1.569   1.609  1.0066 -1.0606 -0.2485
  608SOL    HW2 1824   2.633   1.486   1.505 -1.5874  4.5873 -0.8590
  609SOL     OW 1825   2.358   0.523   0.687 -0.4167  0.6689  0.0601
  609SOL    HW1 1826   2.392   0.499   0.782  1.5788  0.3480 -1.8945
  609SOL    HW2 1827   2.386   0.620   0.663  1.8103  1.4126 -3.0282
  610SOL     OW 1828   0.277   2.495   1.451  0.2679 -0.1523  0.3844
  610SOL    HW1 1829   0.283   2.599   1.473 -0.0083  0.8739 -0.8181
  610SOL    HW2 1830   0.334   2.467   1.366  1.8362 -1.7668 -1.2777
  611SOL     OW 1831   1.674   1.552   0.261  0.5336 -0.8638  0.2705
  611SOL    HW1 1832   1.648   1.578   0.356  2.0530  1.1156  1.0674
  611SOL    HW2 1833   1.697   1.634   0.203 -2.3170 -1.9414  1.6774
  612SOL     OW 1834   0.654   0.029   1.867 -0.0874 -0.3677 -0.7356
  612SOL    HW1 1835   0.647   0.098   1.941  1.2914  0.1747 -2.0687
  612SOL    HW2 1836   0.661   0.070   1.777  0.6949  0.2395  0.6953
  613SOL     OW 1837   0.636   2.381   0.543  0.8747  0.2461 -0.1369
  613SOL    HW1 1838   0.626   2.445   0.463  0.6246  1.1206 -2.8899
  613SOL    HW2 1839   0.552   2.382   0.608  1.3825 -0.4172  4.1768
  614SOL     OW 1840   2.143   0.141   2.057  0.3667 -0.2067 -0.2981
  614SOL    HW1 1841   2.147   0.229   2.112  0.8676 -0.0035  2.0912
  614SOL    HW2 1842   2.222   0.081   2.070  0.1216 -1.8004 -0.1031
  615SOL     OW 1843   1.305   1.565   0.577 -0.2210  0.3003  0.0776
  615SOL    HW1 1844   1.271   1.499   0.509 -0.2464 -0.6083 -1.2680
  615SOL    HW2 1845   1.253   1.651   0.565 -0.7323  1.7884 -3.4902
  616SOL     OW 1846   1.570   1.637   0.521  0.7395  0.2207 -0.1589
  616SOL    HW1 1847   1.484   1.596   0.554  3.8055  1.2638  2.4424
  616SOL    HW2 1848   1.599   1.725   0.568 -0.7099  1.7090 -0.4594
  617SOL     OW 1849   1.361   1.091   2.977 -0.2539  0.0353  0.2065
  617SOL    HW1 1850   1.436   1.036   3.010 -2.8732  0.4526 -1.0683
  617SOL    HW2 1851   1.315   1.129   3.055  1.2484 -1.2221 -0.8141
  618SOL     OW 1852   0.611   0.413   1.910  0.1691 -0.1248  0.4436
  618SOL    HW1 1853   0.693   0.465   1.946  2.6289  1.4000  0.2977
  618SOL    HW2 1854   0.607   0.320   1.953  1.1656 -0.1820  1.7607
  619SOL     OW 1855   2.928   1.325   1.450  0.5919  0.0684  0.0109
  619SOL    HW1 1856   2.842   1.364   1.495  0.3198  1.1774 -1.5097
  619SOL    HW2 1857   2.999   1.395   1.421  2.2263  1.1287  2.1282
  620SOL     OW 1858   2.680   0.124   2.489 -0.4707  0.6310  0.1271
  620SOL    HW1 1859   2.590   0.162   2.510  0.8478 -0.6270 -2.1678
  620SOL    HW2 1860   2.748   0.175   2.549 -0.9200 -1.6824  1.4258
  621SOL     OW 1861   2.388   2.005   2.799 -0.0546 -0.3455 -0.2384
  621SOL    HW1 1862   2.437   1.942   2.868  1.8788 -1.4476  1.8733
  621SOL    HW2 1863   2.314   1.961   2.751  2.1886  2.3998 -0.7620
  622SOL     OW 1864   1.232   0.669   3.080  0.6017  0.2391 -0.3007
  622SOL    HW1 1865   1.184   0.580   3.088  0.2265  1.8605 -0.4472
  622SOL    HW2 1866   1.303   0.681   0.060 -2.2049 -0.6233  1.7977
  623SOL     OW 1867   0.922   1.480   1.939 -0.5719  0.1189 -0.8679
  623SOL    HW1 1868   1.014   1.438   1.953  0.1780 -1.0323  1.0954
  623SOL    HW2 1869   0.931   1.581   1.944  1.8572  0.8752 -1.5214
  624SOL     OW 1870   2.780   0.108   0.406 -0.7466 -0.0876 -0.1297
  624SOL    HW1 1871   2.830   0.188   0.369 -0.0989 -0.8186  2.2551
  624SOL    HW2 1872   2.834   0.050   0.465 -2.3935  0.3231 -2.0470
  625SOL     OW 1873   0.807   2.322   0.821 -0.3601 -0.7919 -0.4250
  625SOL    HW1 1874   0.890   2.316   0.760  0.6827 -2.1521 -1.6363
  625SOL    HW2 1875   0.764   2.231   0.843 -0.3922 -3.0160  1.3213
  626SOL     OW 1876   2.531   0.863   2.420  0.0911  0.1788 -0.0095
  626SOL    HW1 1877   2.524   0.813   2.509  0.3866  1.8986  0.3728
  626SOL    HW2 1878   2.469   0.939   2.408  3.3596 -2.2201 -1.5618
  627SOL     OW 1879   1.161   2.064   2.685 -0.3210 -0.6171 -0.1471
  627SOL    HW1 1880   1.057   2.065   2.671 -2.9621  3.1506 -0.8084
  627SOL    HW2 1881   1.200   1.975   2.659  2.0512  0.7452  0.8086
  628SOL     OW 1882   2.861   2.918   2.509  0.4729 -0.5693 -0.4327
  628SOL    HW1 1883   2.800   2.875   2.448  0.1204  2.1836  0.2250
  628SOL    HW2 1884   2.818   2.924   2.604  0.5504 -0.4290  0.0511
  629SOL     OW 1885   1.347   2.587   2.465  0.0823  0.7118 -0.4151
  629SOL    HW1 1886   1.313   2.658   2.400 -0.6798  1.2830  0.0253
  629SOL    HW2 1887   1.440   2.607   2.503 -0.9077  2.8630 -0.2909
  630SOL     OW 1888   0.772   0.304   2.287 -0.3399 -0.0503 -0.2981
  630SOL    HW1 1889   0.843   0.376   2.262  0.5760  2.0493 -3.1160
  630SOL    HW2 1890   0.821   0.225   2.331  1.1343  2.3891  0.6051
  631SOL     OW 1891   1.972   1.043   0.678 -0.1526  0.0739 -0.7288
  631SOL    HW1 1892   2.007   1.118   0.737  1.5034 -2.1123 -0.5108
  631SOL    HW2 1893   1.934   1.082   0.594 -1.6922  0.6560  0.1556
  632SOL     OW 1894   2.549   0.165   1.754  0.2345 -0.6042 -0.4621
  632SOL    HW1 1895   2.478   0.233   1.756  2.4249 -1.6043  1.4897
  632SOL    HW2 1896   2.558   0.124   1.848  0.1556  1.6173 -2.1162
  633SOL     OW 1897   1.195   1.434   0.373  0.3061  0.3090 -1.0735
  633SOL    HW1 1898   1.235   1.488   0.302 -0.3479 -2.4627  3.6205
  633SOL    HW2 1899   1.095   1.455   0.398 -4.8894 -0.2827  0.9307
  634SOL     OW 1900   2.730   2.797   2.011 -0.6225 -0.4416 -0.2435
  634SOL    HW1 1901   2.807   2.815   1.945  1.4091 -2.8043 -1.8243
  634SOL    HW2 1902   2.774   2.797   2.102 -0.2951  0.5116  0.0831
  635SOL     OW 1903   1.546   0.487   0.442 -0.2252 -0.2362 -0.3401
  635SOL    HW1 1904   1.555   0.431   0.357 -3.3745 -0.3784  0.2755
  635SOL    HW2 1905   1.641   0.501   0.479 -0.1512  1.5341  0.3870
  636SOL     OW 1906   0.736   1.261   2.982  0.1875 -0.2751 -0.0851
  636SOL    HW1 1907   0.688   1.174   2.993 -0.0196  4.2163 -2.3056
  636SOL    HW2 1908   0.666   1.330   2.959  0.0965 -1.7542 -3.1518
  637SOL     OW 1909   2.767   1.977   3.079  0.2311 -0.4896  0.3418
  637SOL    HW1 1910   2.847   1.961   0.048  0.6169  0.1805  1.2050
  637SOL    HW2 1911   2.796   2.018   2.990  2.9273 -1.3737 -0.6435
  638SOL     OW 1912   1.129   2.534   2.593 -0.5639 -0.1671 -0.1412
  638SOL    HW1 1913   1.208   2.550   2.527 -2.0626  1.2015 -0.7318
  638SOL    HW2 1914   1.161   2.508   2.685  0.1673  1.7088  0.0220
  639SOL     OW 1915   1.630   1.891   0.994 -0.5705 -0.2409  0.4262
  639SOL    HW1 1916   1.627   1.930   1.088  1.3650 -0.8432 -0.5346
  639SOL    HW2 1917   1.584   1.959   0.931  1.0559 -2.0928 -0.2829
  640SOL     OW 1918   2.138   2.948   0.367  0.4858 -0.2040  0.2743
  640SOL    HW1 1919   2.161   3.031   0.309  0.7803  0.6433 -1.4339
  640SOL    HW2 1920   2.058   2.971   0.423 -0.6276  0.0572  2.8251
  641SOL     OW 1921   2.883   0.390   2.949  0.0167  0.6391 -0.2318
  641SOL    HW1 1922   2.864   0.441   3.028 -0.4182 -3.6796  0.0493
  641SOL    HW2 1923   2.810   0.318   2.943  0.1311  0.7110 -0.5395
  642SOL     OW 1924   0.369   0.753   1.108  0.0319  0.2250  0.0811
  642SOL    HW1 1925   0.340   0.730   1.204 -1.0533  0.6029  2.7898
  642SOL    HW2 1926   0.362   0.675   1.043  0.3967 -2.5997 -0.7051
  643SOL     OW 1927   0.779   1.447   2.394 -0.3101  0.2707  0.5432
  643SOL    HW1 1928   0.870   1.423   2.434  0.3431  0.2238 -1.4529
  643SOL    HW2 1929   0.714   1.368   2.387 -1.1241  1.3427 -2.7329
  644SOL     OW 1930   1.942   2.100   0.777 -0.1866  0.0991  0.1473
  644SOL    HW1 1931   1.925   2.030   0.700 -2.5430 -2.7623  0.6053
  644SOL    HW2 1932   2.000   2.057   0.845  1.8271  2.4799  3.6923
  645SOL     OW 1933   1.702   2.197   0.660  0.2282  0.3574 -0.7584
  645SOL    HW1 1934   1.634   2.124   0.672  1.1046  0.8583 -1.1491
  645SOL    HW2 1935   1.793   2.165   0.685 -1.3563  1.7911  0.8160
  646SOL     OW 1936   0.165   2.020   2.987 -0.0079 -0.4390  0.5139
  646SOL    HW1 1937   0.079   1.984   2.944  3.4484 -0.2308  0.0274
  646SOL    HW2 1938   0.224   2.052   2.913 -1.5602 -1.2841  2.7131
  647SOL     OW 1939   1.216   3.027   1.310 -0.0567  0.2702 -0.2944
  647SOL    HW1 1940   1.179   3.016   1.220  0.8824  2.2195  3.6142
  647SOL    HW2 1941   1.200   0.029   1.347 -1.3366 -2.2127 -1.3382
  648SOL     OW 1942   1.188   0.261   0.797  0.4495  0.3310  0.1327
  648SOL    HW1 1943   1.119   0.322   0.839 -2.1201 -1.8387 -0.5706
  648SOL    HW2 1944   1.274   0.306   0.778 -2.8582  0.5458  1.8390
  649SOL     OW 1945   1.256   1.915   0.366 -0.1531  0.1789  0.6370
  649SOL    HW1 1946   1.221   1.981   0.303 -0.5666 -2.2529  0.0701
  649SOL    HW2 1947   1.351   1.928   0.402 -0.9148 -0.2084  2.7700
  650SOL     OW 1948   2.250   1.612   1.685 -0.0629  0.2926  0.4568
  650SOL    HW1 1949   2.303   1.698   1.709 -0.0821 -2.8190 -1.1085
  650SOL    HW2 1950   2.165   1.601   1.740  1.7160  2.5852 -1.4639
  651SOL     OW 1951   1.734   2.554   2.852 -0.1244  0.0443  0.1296
  651SOL    HW1 1952   1.720   2.644   2.810  1.8135 -0.5458 -1.1432
  651SOL    HW2 1953   1.652   2.500   2.830  0.3673  0.6466 -2.1657
  652SOL     OW 1954   2.722   1.413   0.257 -0.1827  0.4712 -0.6834
  652SOL    HW1 1955   2.670   1.494   0.286  1.2951  2.7135  1.3117
  652SOL    HW2 1956   2.743   1.357   0.339 -0.8812  0.6013  1.2693
  653SOL     OW 1957   3.079   0.056   1.133 -0.5875  0.0314  0.1966
  653SOL    HW1 1958   3.039   0.109   1.062  0.7049 -1.1652  3.8276
  653SOL    HW2 1959   3.010   0.054   1.204 -0.3248 -0.2722  0.3215
  654SOL     OW 1960   2.879   3.068   1.894 -0.1709 -0.0221  0.1514
  654SOL    HW1 1961   2.951   3.032   1.827  2.1514 -1.7929 -0.4381
  654SOL    HW2 1962   2.915   3.056   1.987  0.5731 -1.0563 -1.3334
  655SOL     OW 1963   0.408   2.383   0.691 -0.2545  0.1314  0.2803
  655SOL    HW1 1964   0.440   2.458   0.755 -0.9615  1.3319 -5.3449
  655SOL    HW2 1965   0.339   2.416   0.622 -1.1477  0.1930  1.4996
  656SOL     OW 1966   2.991   0.006   2.144 -0.1359  0.2216 -0.7298
  656SOL    HW1 1967   3.060   3.056   2.210  2.2520 -1.4203 -0.2468
  656SOL    HW2 1968   2.897   3.087   2.188 -1.0801 -2.4554  1.2667
  657SOL     OW 1969   0.163   1.352   2.965 -0.5519  0.4677  0.2744
  657SOL    HW1 1970   0.083   1.318   2.917  2.1384 -0.1375 -0.2742
  657SOL    HW2 1971   0.148   1.443   3.009  2.2407  0.7752 -0.2313
  658SOL     OW 1972   2.529   1.976   1.136 -0.0336 -0.0289 -0.0140
  658SOL    HW1 1973   2.574   2.025   1.213  5.7004 -2.0051  1.0612
  658SOL    HW2 1974   2.503   1.880   1.169  2.1114 -1.7508 -1.0595
  659SOL     OW 1975   1.497   2.832   0.043 -0.2837 -0.4553  0.0270
  659SOL    HW1 1976   1.524   2.901   0.116  0.3138 -0.0556 -1.2054
  659SOL    HW2 1977   1.560   2.828   3.054 -0.6391  2.0309 -0.6616
  660SOL     OW 1978   1.494   1.067   0.231 -0.1207  0.0652  0.5302
  660SOL    HW1 1979   1.557   1.037   0.156 -2.9923  0.1748  0.5062
  660SOL    HW2 1980   1.402   1.090   0.200  2.6986 -2.0927  0.4549
  661SOL     OW 1981   0.150   2.046   1.207  0.3660 -0.5123  0.1709
  661SOL    HW1 1982   0.067   2.060   1.148 -0.8046  1.4849 -0.2911
  661SOL    HW2 1983   0.144   2.117   1.277  0.8088 -0.2920 -2.4521
  662SOL     OW 1984   0.315   0.723   0.113 -0.1537 -0.2963  0.0120
  662SOL    HW1 1985   0.221   0.716   0.073  0.6869  3.0915 -1.0403
  662SOL    HW2 1986   0.349   0.641   0.164  2.0523 -0.9027  0.0045
  663SOL     OW 1987   2.067   1.462   1.208  0.8869 -0.8538 -0.4092
  663SOL    HW1 1988   2.036   1.363   1.190 -0.1395 -1.1326  0.6230
  663SOL    HW2 1989   2.046   1.517   1.127 -2.9985 -3.0004  0.9782
  664SOL     OW 1990   1.172   1.383   1.206  0.0134  0.2052 -0.2650
  664SOL    HW1 1991   1.241   1.413   1.276 -1.3561 -0.5781 -1.1198
  664SOL    HW2 1992   1.152   1.453   1.137  0.8192  1.0664 -1.3765
  665SOL     OW 1993   2.110   2.595   2.210  0.0809 -0.4133  0.3262
  665SOL    HW1 1994   2.038   2.670   2.208  0.2413  1.5172  0.7193
  665SOL    HW2 1995   2.064   2.506   2.214  0.4362  0.2263 -0.2612
  666SOL     OW 1996   2.778   2.807   2.961  0.8353  0.2726  0.0313
  666SOL    HW1 1997   2.844   2.735   2.974 -3.2802  1.9831 -1.6592
  666SOL    HW2 1998   2.805   2.891   3.008 -3.1053 -2.4970 -0.1147
  667SOL     OW 1999   2.375   1.199   2.107 -0.5156  0.2345  0.1132
  667SOL    HW1 2000   2.383   1.099   2.092 -0.9687 -2.3937  3.4432
  667SOL    HW2 2001   2.289   1.240   2.069  0.5433 -0.8225  0.4617
  668SOL     OW 2002   0.319   0.819   2.504 -0.1663  0.1322  0.1041
  668SOL    HW1 2003   0.344   0.892   2.568  1.9966 -1.2436 -1.3000
  668SOL    HW2 2004   0.305   0.864   2.416  0.2696  1.9955  2.0826
  669SOL     OW 2005   2.041   2.274   2.257  0.0899 -0.1960  0.4754
  669SOL    HW1 2006   2.124   2.252   2.200 -3.9765 -2.1206 -1.1572
  669SOL    HW2 2007   2.072   2.290   2.351  0.0832  1.6223 -1.0182
  670SOL     OW 2008   2.177   1.350   1.962 -0.3168  0.8776 -0.0262
  670SOL    HW1 2009   2.221   1.353   1.871 -0.9101 -0.6399 -1.2728
  670SOL    HW2 2010   2.123   1.259   1.965  1.0960 -1.5566 -0.7518
  671SOL     OW 2011   2.838   1.320   0.527 -0.5051  0.3815 -0.1203
  671SOL    HW1 2012   2.873   1.225   0.544 -1.1793  1.1853 -0.2591
  671SOL    HW2 2013   2.813   1.355   0.618 -3.6862  1.2592  1.6464
  672SOL     OW 2014   2.402   0.663   2.256  0.4526 -0.5571  0.0914
  672SOL    HW1 2015   2.333   0.700   2.191  0.8446 -2.5053 -0.3676
  672SOL    HW2 2016   2.443   0.737   2.318 -1.8362 -1.4235  0.2983
  673SOL     OW 2017   2.646   0.091   2.027 -0.8391  0.2069 -0.0164
  673SOL    HW1 2018   2.716   0.046   1.969 -0.3037  2.6894  2.1498
  673SOL    HW2 2019   2.665   0.058   2.123 -0.8140 -0.0949 -3.1794
  674SOL     OW 2020   1.692   1.790   1.446  0.2708 -0.2599  0.4339
  674SOL    HW1 2021   1.784   1.752   1.462 -2.7795 -0.0484 -0.4515
  674SOL    HW2 2022   1.683   1.834   1.352  1.7376 -1.0945 -0.2029
  675SOL     OW 2023   0.603   0.590   0.702  0.2238 -0.0335 -0.4952
  675SOL    HW1 2024   0.561   0.577   0.795  1.9744  0.1542 -0.0507
  675SOL    HW2 2025   0.701   0.609   0.717 -1.8591 -0.6195  2.7180
  676SOL     OW 2026   1.421   0.908   1.048 -0.1042 -0.0081 -0.4267
  676SOL    HW1 2027   1.339   0.969   1.051  1.6544  0.1303  0.2992
  676SOL    HW2 2028   1.400   0.828   0.991  1.5283 -1.5523  1.3056
  677SOL     OW 2029   2.280   1.357   2.325  0.9107  0.0988  0.2373
  677SOL    HW1 2030   2.329   1.300   2.257 -0.3545  0.0854  1.3482
  677SOL    HW2 2031   2.267   1.454   2.290  1.0064  0.2106  3.3587
  678SOL     OW 2032   2.788   1.667   0.945 -0.1092 -0.6627  0.3652
  678SOL    HW1 2033   2.769   1.589   1.012 -1.8080 -1.2958 -0.4512
  678SOL    HW2 2034   2.707   1.729   0.951 -2.2806 -0.7968 -0.7017
  679SOL     OW 2035   2.312   2.734   3.070  0.1389  0.0250 -0.6969
  679SOL    HW1 2036   2.232   2.785   3.038  1.3819 -2.1193  2.6080
  679SOL    HW2 2037   2.349   2.666   3.006 -1.6517  1.5936 -2.2535
  680SOL     OW 2038   0.338   2.065   1.933  0.2598 -0.1811  0.3576
  680SOL    HW1 2039   0.359   2.000   2.014  0.5688 -3.1844  0.4735
  680SOL    HW2 2040   0.419   2.097   1.878  0.1377  0.6221  1.8526
  681SOL     OW 2041   0.513   1.127   1.352  0.0988  0.7066  0.3328
  681SOL    HW1 2042   0.602   1.080   1.333  0.0690  3.3983 -0.9017
  681SOL    HW2 2043   0.526   1.226   1.344  0.0930 -1.3406  1.1814
  682SOL     OW 2044   1.361   2.574   0.712  0.4641 -0.1058 -0.3478
  682SOL    HW1 2045   1.409   2.482   0.715 -0.1929 -2.3749  2.1593
  682SOL    HW2 2046   1.259   2.575   0.722  0.8362 -0.9456 -0.6749
  683SOL     OW 2047   2.529   1.315   0.811 -0.8837  0.2182 -0.2690
  683SOL    HW1 2048   2.496   1.268   0.727  3.7245  2.5654  0.2266
  683SOL    HW2 2049   2.623   1.357   0.797 -2.0873  3.0560 -1.5779
  684SOL     OW 2050   0.625   1.906   1.823  0.6640 -0.0705 -0.5551
  684SOL    HW1 2051   0.655   1.978   1.892  0.2136 -0.1296 -2.4383
  684SOL    HW2 2052   0.625   1.938   1.728 -1.4796 -4.0449 -0.6543
  685SOL     OW 2053   1.641   1.353   0.073  0.1574 -0.5997 -0.7364
  685SOL    HW1 2054   1.543   1.337   0.071  1.6012  0.0834 -2.2025
  685SOL    HW2 2055   1.666   1.438   0.134 -1.8066  3.5216  4.2604
  686SOL     OW 2056   0.247   0.971   1.038 -0.6599  0.5633 -0.4162
  686SOL    HW1 2057   0.302   1.020   0.969  0.7885  2.7365 -2.1278
  686SOL    HW2 2058   0.291   0.891   1.084  1.7488 -2.6088  1.3787
  687SOL     OW 2059   0.849   2.221   3.016  0.6349  0.1003  0.2749
  687SOL    HW1 2060   0.858   2.247   0.024 -0.6877 -3.0942  1.3896
  687SOL    HW2 2061   0.757   2.247   2.981  1.4824  1.1964 -3.4683
  688SOL     OW 2062   2.419   1.721   2.003  0.2259  0.5902 -0.3216
  688SOL    HW1 2063   2.516   1.691   2.006  1.3009  0.3239 -0.4519
  688SOL    HW2 2064   2.398   1.775   1.915 -0.2346  1.4197 -4.2369
  689SOL     OW 2065   2.206   0.746   2.083  0.0515 -0.4233  0.7943
  689SOL    HW1 2066   2.247   0.828   2.041  0.4300  1.3552 -1.6848
  689SOL    HW2 2067   2.131   0.705   2.027 -0.1527  0.4689  0.0610
  690SOL     OW 2068   2.232   0.981   1.419 -0.2447  0.7285 -0.0814
  690SOL    HW1 2069   2.179   1.031   1.489 -0.5069 -2.0394 -0.8703
  690SOL    HW2 2070   2.323   1.030   1.404  1.2854 -1.3662  1.1289
  691SOL     OW 2071   0.862   1.811   1.750 -0.1012 -1.0273  0.7531
  691SOL    HW1 2072   0.768   1.823   1.780  0.3097  2.0003  2.0491
  691SOL    HW2 2073   0.925   1.830   1.826  2.5212 -0.2789  0.0166
  692SOL     OW 2074   2.144   0.009   1.313 -0.1181 -0.1481 -0.0455
  692SOL    HW1 2075   2.166   0.105   1.315 -0.0088 -0.5105 -1.8273
  692SOL    HW2 2076   2.175   3.062   1.228  1.0616 -0.1540 -0.2740
  693SOL     OW 2077   0.670   1.158   2.108  0.0167 -0.2044 -0.1409
  693SOL    HW1 2078   0.757   1.202   2.110 -2.4508 -3.5352 -0.9332
  693SOL    HW2 2079   0.685   1.058   2.116  0.8398  0.8711  0.6935
  694SOL     OW 2080   1.748   2.763   1.365 -0.3451 -0.0346 -0.1356
  694SOL    HW1 2081   1.831   2.711   1.341 -2.9880 -1.5611  1.8363
  694SOL    HW2 2082   1.669   2.751   1.301  1.1062  0.8420  0.3680
  695SOL     OW 2083   1.346   1.091   1.993 -0.5769 -0.1202 -0.4781
  695SOL    HW1 2084   1.360   1.126   2.082  0.0969 -3.1853 -2.6055
  695SOL    HW2 2085   1.394   1.134   1.918 -2.8227 -3.6129  3.3825
  696SOL     OW 2086   1.614   3.008   0.667 -0.1154  0.6163 -0.0972
  696SOL    HW1 2087   1.526   2.958   0.647 -1.9077  1.0682 -0.6757
  696SOL    HW2 2088   1.702   2.953   0.666  1.0856 -1.6985 -0.8218
  697SOL     OW 2089   1.118   0.069   0.620 -0.5114  0.4100  0.4377
  697SOL    HW1 2090   1.121   0.149   0.676  3.0356 -0.2969 -2.9570
  697SOL    HW2 2091   1.077   0.098   0.528 -0.1376  1.5234 -2.0004
  698SOL     OW 2092   1.708   1.152   2.389 -0.3589  0.7464 -0.1149
  698SOL    HW1 2093   1.686   1.052   2.382 -0.3153 -0.9611  0.3903
  698SOL    HW2 2094   1.625   1.211   2.377  0.7697  2.5485 -0.8163
  699SOL     OW 2095   1.391   1.381   1.375 -0.2511  0.9722 -0.0298
  699SOL    HW1 2096   1.458   1.342   1.307 -1.6521  1.5211 -1.5008
  699SOL    HW2 2097   1.433   1.442   1.445 -0.7695 -0.7011 -1.6335
  700SOL     OW 2098   1.394   0.095   0.555 -0.0481 -0.1026 -0.2506
  700SOL    HW1 2099   1.307   0.061   0.591 -0.7176 -0.3986 -1.7918
  700SOL    HW2 2100   1.475   0.056   0.608  2.6361 -0.5589  2.8365
  701SOL     OW 2101   0.554   0.257   1.626  0.3910 -0.0539  0.5959
  701SOL    HW1 2102   0.586   0.299   1.542  0.3816  1.7465 -1.5722
  701SOL    HW2 2103   0.576   0.320   1.700 -0.0078 -0.4798 -0.8230
  702SOL     OW 2104   1.276   2.890   0.361 -0.2543  0.1483  0.4889
  702SOL    HW1 2105   1.225   2.952   0.296 -0.2339  1.0316  0.9191
  702SOL    HW2 2106   1.236   2.797   0.356  0.2792 -0.8538 -1.1726
  703SOL     OW 2107   2.603   2.860   2.337 -0.5753 -0.0757  0.4706
  703SOL    HW1 2108   2.526   2.874   2.406 -0.1458 -2.1444 -1.9352
  703SOL    HW2 2109   2.599   2.759   2.302 -1.9473 -2.4593 -0.1150
  704SOL     OW 2110   0.641   2.130   0.672  0.7069  0.4656 -0.0054
  704SOL    HW1 2111   0.659   2.226   0.642  0.8024 -0.0333 -1.7206
  704SOL    HW2 2112   0.619   2.132   0.774  0.1083 -0.3920 -2.4668
  705SOL     OW 2113   3.063   0.528   1.961  0.1091 -0.4850  0.2006
  705SOL    HW1 2114   3.078   0.429   1.974  1.4671 -1.0594  0.7993
  705SOL    HW2 2115   0.054   0.582   1.990 -0.1579  0.2212 -1.6462
  706SOL     OW 2116   1.531   2.962   0.303 -0.0744  0.2899  0.2899
  706SOL    HW1 2117   1.599   2.890   0.338 -1.7762 -1.1597  1.7683
  706SOL    HW2 2118   1.437   2.939   0.327 -0.8613 -0.4391  1.0650
  707SOL     OW 2119   1.527   1.956   2.087 -0.2573  0.8861 -0.0035
  707SOL    HW1 2120   1.515   1.859   2.080 -0.3391  0.2024 -2.2321
  707SOL    HW2 2121   1.438   2.009   2.091  2.2042  0.4007 -0.1058
  708SOL     OW 2122   2.997   2.219   1.550  0.0051  0.4803 -0.0954
  708SOL    HW1 2123   2.993   2.315   1.523  0.4526 -1.1458  1.8511
  708SOL    HW2 2124   2.978   2.204   1.647  1.2783  2.5074 -0.0602
  709SOL     OW 2125   2.030   0.353   1.599  0.4182  0.2444  0.0247
  709SOL    HW1 2126   2.048   0.320   1.693 -0.0958  0.3279 -1.0242
  709SOL    HW2 2127   1.935   0.319   1.568 -0.2954  2.1339 -0.5222
  710SOL     OW 2128   2.886   3.052   1.457 -0.1554 -0.1238  0.1534
  710SOL    HW1 2129   2.858   3.082   1.366  0.0360  0.3217  0.0943
  710SOL    HW2 2130   2.803   3.054   1.519 -2.2145  1.8268 -0.5912
  711SOL     OW 2131   0.156   2.247   0.303  0.0890 -0.2286 -0.3989
  711SOL    HW1 2132   0.205   2.267   0.210 -0.5551  0.8936 -2.3819
  711SOL    HW2 2133   0.061   2.223   0.291  1.7465 -0.8964 -0.7565
  712SOL     OW 2134   0.584   2.142   2.447 -0.5511 -0.1864  0.2012
  712SOL    HW1 2135   0.513   2.130   2.373 -0.1336  0.4051 -1.3054
  712SOL    HW2 2136   0.669   2.185   2.406  2.3391  1.0608 -0.4079
  713SOL     OW 2137   1.970   0.626   2.987 -0.8264  0.2589  0.0995
  713SOL    HW1 2138   2.032   0.586   3.056 -0.9752  1.6443 -0.4247
  713SOL    HW2 2139   1.953   0.727   3.002  1.2312  2.8130 -1.8642
  714SOL     OW 2140   1.101   1.780   0.538  0.2136  0.1315  0.2133
  714SOL    HW1 2141   1.029   1.854   0.556 -1.6530  1.8690  0.2253
  714SOL    HW2 2142   1.175   1.820   0.481 -0.7069  0.3903  1.8972
  715SOL     OW 2143   1.946   0.261   0.507 -0.3558  0.5731 -0.2789
  715SOL    HW1 2144   1.867   0.242   0.571  0.1186  0.2835 -1.5975
  715SOL    HW2 2145   1.975   0.359   0.502 -1.3760  3.2631 -0.8945
  716SOL     OW 2146   0.541   0.850   1.742 -0.6935 -0.3513 -0.1722
  716SOL    HW1 2147   0.521   0.766   1.793  0.5615  1.5769 -1.9952
  716SOL    HW2 2148   0.496   0.855   1.649  0.6647  1.9758 -2.4771
  717SOL     OW 2149   0.095   0.660   3.022  0.4773 -0.0909 -0.0438
  717SOL    HW1 2150   0.099   0.708   2.934  2.2507  2.6013 -1.3027
  717SOL    HW2 2151   0.077   0.554   3.015 -1.9083 -3.7535  1.3805
  718SOL     OW 2152   1.129   0.879   0.356  0.0627 -0.4152  0.2504
  718SOL    HW1 2153   1.186   0.877   0.439 -1.0774 -1.7436  0.4531
  718SOL    HW2 2154   1.122   0.787   0.318  0.0276  2.3534 -0.6747
  719SOL     OW 2155   2.627   1.782   2.771 -0.4481  0.6809  0.3567
  719SOL    HW1 2156   2.694   1.706   2.789  0.2934 -2.8026 -0.6361
  719SOL    HW2 2157   2.676   1.865   2.737  1.1949  0.3861 -0.0357
  720SOL     OW 2158   1.556   0.828   1.281  0.3658  0.6200  0.1051
  720SOL    HW1 2159   1.501   0.834   1.195 -0.6877 -0.6794  0.3600
  720SOL    HW2 2160   1.525   0.752   1.340  1.3786  1.2724 -1.3182
  721SOL     OW 2161   2.734   0.651   0.375 -0.0656  0.1364 -1.0687
  721SOL    HW1 2162   2.823   0.663   0.325  3.2900  0.7750  1.2657
  721SOL    HW2 2163   2.758   0.599   0.459 -1.3580  1.4892  0.1503
  722SOL     OW 2164   0.979   1.414   2.597  0.2695 -0.6065  0.0889
  722SOL    HW1 2165   0.947   1.497   2.649  1.1058  0.5571  0.0850
  722SOL    HW2 2166   0.936   1.331   2.639  1.2983 -2.0334 -1.2715
  723SOL     OW 2167   0.487   0.938   0.368  0.2319  0.1970 -0.2123
  723SOL    HW1 2168   0.472   1.036   0.384  0.6325 -2.1674  0.6796
  723SOL    HW2 2169   0.414   0.882   0.410  1.0677  0.2987  2.1398
  724SOL     OW 2170   0.925   2.330   1.906  0.0998  0.4052 -0.0352
  724SOL    HW1 2171   0.838   2.362   1.870  1.1475 -3.1919 -0.6886
  724SOL    HW2 2172   0.976   2.410   1.941 -0.0613  0.2799  0.8433
  725SOL     OW 2173   2.617   0.920   1.641 -0.3701  0.0203  0.1151
  725SOL    HW1 2174   2.625   1.013   1.590 -2.0449  0.7057  1.0296
  725SOL    HW2 2175   2.643   0.929   1.738  0.1631 -4.0689  0.5334
  726SOL     OW 2176   1.798   2.894   0.328  0.6426 -0.2281 -0.2869
  726SOL    HW1 2177   1.841   2.870   0.241 -1.0671  2.2354 -1.2845
  726SOL    HW2 2178   1.833   2.840   0.406  0.2241  0.7828 -0.7347
  727SOL     OW 2179   1.253   1.003   2.507 -0.5211  0.5562 -0.1332
  727SOL    HW1 2180   1.259   1.061   2.591 -2.1889 -0.3106  0.4032
  727SOL    HW2 2181   1.161   0.964   2.495  4.3709  2.0264  2.4561
  728SOL     OW 2182   1.501   2.763   1.218 -0.8061  0.0448  0.0590
  728SOL    HW1 2183   1.423   2.702   1.239 -0.9371 -1.3456 -0.6874
  728SOL    HW2 2184   1.470   2.862   1.210 -0.2843  2.4052  0.0599
  729SOL     OW 2185   1.462   0.565   1.328 -0.5432  0.0041  0.5412
  729SOL    HW1 2186   1.407   0.564   1.245  0.1020  0.0267  0.7027
  729SOL    HW2 2187   1.400   0.545   1.407 -0.8140 -0.1871 -0.0737
  730SOL     OW 2188   0.646   2.101   2.014 -0.0610  0.1465 -0.1566
  730SOL    HW1 2189   0.741   2.112   2.053 -1.4095 -1.2362 -1.1931
  730SOL    HW2 2190   0.576   2.129   2.080  1.6785  0.2195 -0.9760
  731SOL     OW 2191   0.411   0.287   0.367  0.1432  0.0090  0.4998
  731SOL    HW1 2192   0.461   0.375   0.394  1.4691 -1.9009  0.0818
  731SOL    HW2 2193   0.474   0.236   0.304 -2.8646 -1.9455  0.4105
  732SOL     OW 2194   0.583   0.369   2.817  0.4649  0.3058 -1.0171
  732SOL    HW1 2195   0.671   0.413   2.848  1.2047 -2.0325 -2.8578
  732SOL    HW2 2196   0.518   0.363   2.896  0.9269  1.6991  0.6177
  733SOL     OW 2197   1.131   2.359   1.101  0.0893 -0.2349  0.0186
  733SOL    HW1 2198   1.075   2.294   1.159 -2.9866 -0.2761  2.0197
  733SOL    HW2 2199   1.117   2.452   1.135 -0.1852 -4.0873 -1.4151
  734SOL     OW 2200   2.946   2.340   2.492 -0.1294 -0.1059 -0.1856
  734SOL    HW1 2201   2.993   2.283   2.561 -0.2890 -0.8119 -0.2106
  734SOL    HW2 2202   2.908   2.425   2.540 -1.4345 -1.0193  0.9368
  735SOL     OW 2203   1.033   2.868   1.119  0.0622  0.2334  0.1152
  735SOL    HW1 2204   0.993   2.961   1.127 -1.2511 -3.8936 -1.9118
  735SOL    HW2 2205   1.115   2.860   1.059 -2.2342  0.9101 -2.9626
  736SOL     OW 2206   1.611   0.918   3.037  0.4489 -0.3880  0.1312
  736SOL    HW1 2207   1.612   0.863   2.952 -0.8276  0.7822  1.4104
  736SOL    HW2 2208   1.623   0.859   0.024  0.8972  3.4754 -1.6242
  737SOL     OW 2209   0.087   0.134   0.586 -0.2751 -0.3895  0.2246
  737SOL    HW1 2210   0.113   0.057   0.651 -0.2190 -1.4857  0.5257
  737SOL    HW2 2211   0.012   0.193   0.625 -0.8450  0.6370  1.6818
  738SOL     OW 2212   2.625   2.867   1.207  0.1898  0.5227 -0.0629
  738SOL    HW1 2213   2.653   2.950   1.155  0.8092 -0.4617  1.6259
  738SOL    HW2 2214   2.548   2.885   1.272  0.9981  0.3504  0.5173
  739SOL     OW 2215   1.490   2.554   0.405  0.0218  0.1034 -0.2802
  739SOL    HW1 2216   1.418   2.546   0.477  0.5942 -1.4245 -0.3848
  739SOL    HW2 2217   1.578   2.579   0.447  0.5861  0.9263  0.8933
  740SOL     OW 2218   1.915   2.883   1.085 -0.4314 -0.0572 -0.2340
  740SOL    HW1 2219   1.890   2.975   1.053  1.3337 -0.6770  3.3879
  740SOL    HW2 2220   1.862   2.815   1.024  0.9172 -1.4458  0.8627
  741SOL     OW 2221   1.864   0.530   0.792  0.3165 -0.5888 -0.0808
  741SOL    HW1 2222   1.930   0.460   0.767  2.0638  2.3100 -1.8713
  741SOL    HW2 2223   1.889   0.599   0.867 -0.5453  0.9024  1.9404
  742SOL     OW 2224   1.299   2.127   2.111 -0.7374  0.3362  0.7596
  742SOL    HW1 2225   1.359   2.191   2.167  0.7521  0.2195  0.8081
  742SOL    HW2 2226   1.256   2.171   2.023  0.3240  1.8087 -2.2653
  743SOL     OW 2227   2.375   0.359   1.835  0.4063 -0.1040  0.2522
  743SOL    HW1 2228   2.399   0.445   1.783  1.7888 -2.8844 -1.3829
  743SOL    HW2 2229   2.409   0.364   1.931  1.2305 -2.1053 -0.5149
  744SOL     OW 2230   2.187   0.604   1.243  0.1619  0.5549  0.3927
  744SOL    HW1 2231   2.175   0.627   1.343 -0.4936  0.0251  0.4805
  744SOL    HW2 2232   2.180   0.695   1.193  1.4222 -1.2294  1.0093
  745SOL     OW 2233   1.859   1.214   1.679  0.9324  0.4991  0.0562
  745SOL    HW1 2234   1.877   1.135   1.738 -3.0275 -1.6388 -1.7160
  745SOL    HW2 2235   1.834   1.298   1.730  0.3634 -3.2188  2.2374
  746SOL     OW 2236   1.081   1.372   0.851 -0.2577 -0.4207  0.1252
  746SOL    HW1 2237   1.175   1.408   0.865 -0.1091  0.1799  0.2847
  746SOL    HW2 2238   1.025   1.434   0.790  1.2487  0.4048 -0.8127
  747SOL     OW 2239   1.581   1.289   1.189  0.0627 -0.6015  0.5315
  747SOL    HW1 2240   1.538   1.280   1.096  0.7288  1.8314  2.7112
  747SOL    HW2 2241   1.650   1.363   1.193 -3.2340  0.6289 -0.5167
  748SOL     OW 2242   3.067   2.857   0.504 -0.2594 -0.4784  0.3004
  748SOL    HW1 2243   3.064   2.867   0.402  1.5808  1.2288 -0.8474
  748SOL    HW2 2244   3.005   2.923   0.548  3.1025  0.8445  0.5460
  749SOL     OW 2245   3.082   0.257   2.036  0.0655 -0.5181 -0.8056
  749SOL    HW1 2246   3.063   0.165   2.072  0.2904  1.1668  0.0282
  749SOL    HW2 2247   0.002   0.322   2.112 -0.7692  0.3928 -0.0866
  750SOL     OW 2248   1.742   0.094   1.260 -0.2743 -0.6897  0.1613
  750SOL    HW1 2249   1.686   0.174   1.233 -2.1368  1.8679 -0.7248
  750SOL    HW2 2250   1.794   0.056   1.181 -1.2934  2.0890 -2.1162
  751SOL     OW 2251   3.048   0.305   0.741  0.4046  0.1241  0.3033
  751SOL    HW1 2252   2.982   0.266   0.812 -1.3993 -1.4284  1.6055
  751SOL    HW2 2253   3.084   0.397   0.774  0.1396  0.7214  0.4554
  752SOL     OW 2254   0.296   2.657   1.035  0.7427  0.2088  0.0488
  752SOL    HW1 2255   0.294   2.760   1.041 -0.7481  2.5451 -2.9554
  752SOL    HW2 2256   0.207   2.619   0.994  0.4961  0.5930 -0.7028
  753SOL     OW 2257   1.224   0.162   1.774  0.4879 -0.6443  0.3721
  753SOL    HW1 2258   1.178   0.215   1.850  0.2065 -0.9876 -0.5491
  753SOL    HW2 2259   1.317   0.206   1.746  2.0835  0.7145 -0.9033
  754SOL     OW 2260   1.415   2.564   1.607  0.1191  0.1176  0.4720
  754SOL    HW1 2261   1.508   2.601   1.611  0.5799 -1.0866  0.5834
  754SOL    HW2 2262   1.388   2.530   1.698  0.9617 -0.4241 -0.0801
  755SOL     OW 2263   2.968   1.091   0.616 -0.1484  0.8364 -0.2576
  755SOL    HW1 2264   2.897   1.104   0.682  2.9098  0.9076 -2.1235
  755SOL    HW2 2265   2.997   0.993   0.607  1.4289  0.0439 -0.7130
  756SOL     OW 2266   1.663   1.634   2.520 -0.2400  0.4813 -0.1398
  756SOL    HW1 2267   1.763   1.641   2.498 -2.9475  1.2137 -1.2051
  756SOL    HW2 2268   1.654   1.608   2.621  0.2658  1.4463  3.4125
  757SOL     OW 2269   1.872   2.895   0.665  0.4515  0.5433 -0.0481
  757SOL    HW1 2270   1.922   2.973   0.619 -3.9090  0.2287  2.4374
  757SOL    HW2 2271   1.879   2.813   0.604  1.5109 -0.6207  0.8182
  758SOL     OW 2272   0.797   2.764   0.935  0.0090  0.7287 -0.4340
  758SOL    HW1 2273   0.780   2.673   0.981 -0.2831 -1.7737  1.4884
  758SOL    HW2 2274   0.867   2.817   0.991  1.5735  0.5072 -1.1052
  759SOL     OW 2275   2.996   0.601   1.017 -0.3202 -0.5097 -0.7839
  759SOL    HW1 2276   3.064   0.563   0.955 -1.6758  3.6029  0.9985
  759SOL    HW2 2277   2.981   0.701   0.998  1.3392  2.1369 -1.7957
  760SOL     OW 2278   2.287   1.184   1.197 -0.4052  0.3777  0.3967
  760SOL    HW1 2279   2.350   1.184   1.275 -1.3611 -1.1505 -1.8407
  760SOL    HW2 2280   2.188   1.185   1.226  0.2193  1.1346  1.3222
  761SOL     OW 2281   0.914   1.089   1.129  0.5298  0.0499 -0.0993
  761SOL    HW1 2282   0.885   1.190   1.120 -1.1254  3.0754  1.3289
  761SOL    HW2 2283   0.966   1.065   1.044 -2.1808  0.0477  2.1026
  762SOL     OW 2284   2.172   1.979   1.370  0.3646  0.3437  0.5933
  762SOL    HW1 2285   2.192   1.885   1.345 -0.6850 -1.7156 -0.4086
  762SOL    HW2 2286   2.152   1.992   1.469 -1.2765 -0.4746 -0.0836
  763SOL     OW 2287   1.267   1.449   2.070 -0.2498 -0.6988 -0.0712
  763SOL    HW1 2288   1.280   1.536   2.123  1.5910  0.8991  1.4408
  763SOL    HW2 2289   1.271   1.462   1.969  0.8657 -1.0169  1.4800
  764SOL     OW 2290   3.020   1.740   2.413 -0.3180  0.4389 -0.4398
  764SOL    HW1 2291   3.086   1.788   2.349  1.3091 -0.0990 -2.9226
  764SOL    HW2 2292   3.020   1.643   2.395  0.5676  1.2421 -1.1798
  765SOL     OW 2293   1.100   2.613   1.227  0.3524  0.0009  0.3354
  765SOL    HW1 2294   1.151   2.648   1.311  1.1657 -2.1283  1.6821
  765SOL    HW2 2295   1.060   2.691   1.177 -3.0021 -0.7384  3.5393
  766SOL     OW 2296   0.747   2.391   2.735  0.1045  0.3576 -0.6204
  766SOL    HW1 2297   0.669   2.338   2.778 -1.4861  1.6376  0.6583
  766SOL    HW2 2298   0.806   2.435   2.810  1.0369 -0.1121  1.7307
  767SOL     OW 2299   1.560   0.791   2.796  0.0414  0.1456 -0.4111
  767SOL    HW1 2300   1.564   0.690   2.806  0.3932  2.1662 -1.0685
  767SOL    HW2 2301   1.485   0.822   2.735  0.1344  0.1981  4.7934
  768SOL     OW 2302   1.222   2.456   2.839  0.2996 -0.3185  0.0371
  768SOL    HW1 2303   1.324   2.451   2.825  1.7326 -2.4328 -1.9657
  768SOL    HW2 2304   1.182   2.366   2.867  0.3127 -1.3182  0.6499
  769SOL     OW 2305   0.055   2.617   1.281 -0.3644 -0.2021  0.2775
  769SOL    HW1 2306   0.063   2.708   1.230 -0.9212 -1.6754 -0.3930
  769SOL    HW2 2307   0.145   2.590   1.325  0.4959  0.1504  2.5740
  770SOL     OW 2308   0.816   0.090   2.801 -0.4122 -0.1146 -0.4196
  770SOL    HW1 2309   0.868   0.006   2.768  1.4527 -1.1101 -2.1165
  770SOL    HW2 2310   0.873   0.150   2.860 -2.3767 -0.2399  1.1140
  771SOL     OW 2311   0.799   3.051   2.394  0.0680 -0.0868 -0.2146
  771SOL    HW1 2312   0.785   0.033   2.465  0.5920  1.1662 -0.1651
  771SOL    HW2 2313   0.737   3.070   2.315  1.8338 -2.9902  3.2106
  772SOL     OW 2314   2.390   0.017   2.073  0.3802  0.3694 -0.2507
  772SOL    HW1 2315   2.468   0.078   2.051 -2.0981 -0.8741  1.1964
  772SOL    HW2 2316   2.405   3.016   2.028  2.3078 -0.3527 -0.1304
  773SOL     OW 2317   0.700   2.474   1.829  0.2061 -0.1750  0.0109
  773SOL    HW1 2318   0.657   2.520   1.748 -1.8364 -0.0894 -2.3869
  773SOL    HW2 2319   0.636   2.450   1.901 -0.6247 -1.9940 -1.3043
  774SOL     OW 2320   1.177   0.374   2.111 -0.1421 -0.4632  0.1827
  774SOL    HW1 2321   1.253   0.312   2.107 -0.4378  1.7088  0.5571
  774SOL    HW2 2322   1.173   0.420   2.022  1.6692  0.7766 -0.4075
  775SOL     OW 2323   2.182   2.622   2.780  0.2522  0.0721  0.3718
  775SOL    HW1 2324   2.094   2.596   2.730 -1.9628 -2.3786 -1.2793
  775SOL    HW2 2325   2.253   2.548   2.763 -1.2087 -2.2094  1.7084
  776SOL     OW 2326   1.821   0.669   2.249  0.2760 -0.0725 -0.7122
  776SOL    HW1 2327   1.916   0.705   2.263  1.6292  0.4013  0.8574
  776SOL    HW2 2328   1.816   0.621   2.158 -1.8862 -1.3449  1.2448
  777SOL     OW 2329   2.834   1.148   2.356 -0.4167  0.4505  0.2082
  777SOL    HW1 2330   2.868   1.141   2.455 -1.9810 -2.3831  0.0910
  777SOL    HW2 2331   2.784   1.235   2.336  2.4779 -1.4702  0.1080
  778SOL     OW 2332   2.144   0.507   2.381 -0.2090 -0.3134  0.2598
  778SOL    HW1 2333   2.193   0.597   2.387  0.2788  1.0509  3.0276
  778SOL    HW2 2334   2.107   0.485   2.471 -1.1974  0.2512 -2.4478
  779SOL     OW 2335   2.958   0.097   0.135 -0.0708 -0.4801 -0.3227
  779SOL    HW1 2336   2.917   0.178   0.177  1.1043 -2.4359 -2.4760
  779SOL    HW2 2337   3.056   0.117   0.113  3.0556 -0.2576 -0.3623
  780SOL     OW 2338   2.478   0.277   2.641  0.1652 -0.1375  0.7157
  780SOL    HW1 2339   2.507   0.361   2.588  0.5578 -0.1610  3.2431
  780SOL    HW2 2340   2.403   0.233   2.586 -0.9489 -1.4407 -1.4456
  781SOL     OW 2341   0.166   0.017   1.600 -0.0708 -0.3674  0.6079
  781SOL    HW1 2342   0.110   3.036   1.556  4.3138 -1.7401  1.2731
  781SOL    HW2 2343   0.190   0.101   1.545 -0.8556  0.7474  1.6107
  782SOL     OW 2344   1.743   2.511   0.205  0.3139  0.5784 -0.1325
  782SOL    HW1 2345   1.654   2.537   0.170  2.3526  0.9372  0.0003
  782SOL    HW2 2346   1.732   2.453   0.284  1.9804  2.7069 -2.0758
  783SOL     OW 2347   0.657   1.437   1.843 -0.0108  0.2195  0.9588
  783SOL    HW1 2348   0.751   1.442   1.888  0.1652 -1.2040  1.4164
  783SOL    HW2 2349   0.653   1.351   1.785  0.3424 -0.9334  1.0974
  784SOL     OW 2350   1.607   0.532   2.361 -0.0308 -0.1756  0.3493
  784SOL    HW1 2351   1.526   0.548   2.300 -0.0184 -0.9444 -1.5363
  784SOL    HW2 2352   1.693   0.566   2.315 -0.5014  0.0245  1.4519
  785SOL     OW 2353   2.873   0.197   0.920 -0.0675  0.1712 -0.0684
  785SOL    HW1 2354   2.868   0.267   0.994 -3.0293  0.3619 -0.0081
  785SOL    HW2 2355   2.783   0.186   0.878  0.7541 -1.2586  0.3471
  786SOL     OW 2356   1.867   0.065   0.987  0.6575  1.0961 -0.5832
  786SOL    HW1 2357   1.914   0.147   0.947  1.7321 -0.8974 -1.1678
  786SOL    HW2 2358   1.766   0.069   0.973 -0.2421 -2.2096  1.1033
  787SOL     OW 2359   1.477   3.050   1.148  0.5698 -0.3883 -0.1058
  787SOL    HW1 2360   1.389   3.069   1.102 -0.6355 -0.3423  1.3552
  787SOL    HW2 2361   1.493   0.026   1.225  1.5051 -0.6410  0.4285
  788SOL     OW 2362   2.994   0.813   0.629  0.2481  0.1950 -0.5478
  788SOL    HW1 2363   3.087   0.816   0.673 -1.6084 -1.2879 -0.4706
  788SOL    HW2 2364   2.930   0.769   0.694  0.0001  1.6832 -0.9914
  789SOL     OW 2365   0.448   1.243   1.984 -0.0569 -0.1587 -0.1125
  789SOL    HW1 2366   0.535   1.216   2.038  1.9401  1.2942 -0.7824
  789SOL    HW2 2367   0.431   1.342   1.994  2.8293  1.6927 -1.9665
  790SOL     OW 2368   0.304   0.568   2.567 -0.2454  0.5578 -0.3997
  790SOL    HW1 2369   0.392   0.511   2.542  2.6734  0.3283 -0.5719
  790SOL    HW2 2370   0.311   0.661   2.522  3.3377 -1.5157 -1.9355
  791SOL     OW 2371   2.295   0.545   0.327  0.5717  0.2287  0.2425
  791SOL    HW1 2372   2.242   0.511   0.413  1.1169  1.5087  2.3577
  791SOL    HW2 2373   2.306   0.646   0.328  0.8508 -1.6521 -0.3284
  792SOL     OW 2374   1.168   0.306   1.152  0.8625  0.4576 -0.3689
  792SOL    HW1 2375   1.184   0.399   1.129 -0.8611 -1.0335 -0.0166
  792SOL    HW2 2376   1.088   0.294   1.214  0.5152 -0.4729  0.4619
  793SOL     OW 2377   0.342   2.921   1.134 -0.4814  0.2207 -0.3774
  793SOL    HW1 2378   0.367   2.888   1.227  3.0522 -1.4495  0.2692
  793SOL    HW2 2379   0.289   3.004   1.139  1.7085 -4.8250 -1.6884
  794SOL     OW 2380   0.192   0.682   2.044  0.5445 -0.2262  0.5848
  794SOL    HW1 2381   0.216   0.761   2.102  2.6962 -0.6061 -0.0056
  794SOL    HW2 2382   0.281   0.645   2.008  1.5668 -1.4896 -1.2351
  795SOL     OW 2383   0.454   2.398   2.636  0.1679  0.2079 -0.3982
  795SOL    HW1 2384   0.503   2.417   2.550  1.3046 -0.6242  2.1971
  795SOL    HW2 2385   0.484   2.465   2.707  2.2108  1.3295 -0.8618
  796SOL     OW 2386   2.055   0.367   2.620  0.1744 -0.7453 -0.0199
  796SOL    HW1 2387   2.054   0.459   2.668  1.7125 -1.1446 -0.2933
  796SOL    HW2 2388   2.011   0.300   2.682 -0.5762  0.5596 -1.3353
  797SOL     OW 2389   2.883   2.217   2.906 -0.2017  0.1555  0.0618
  797SOL    HW1 2390   2.960   2.214   2.974 -0.2672 -3.2616 -1.5494
  797SOL    HW2 2391   2.894   2.304   2.857  1.6315  2.5287 -1.8669
  798SOL     OW 2392   0.105   0.633   1.618  0.2916 -0.7708 -0.7860
  798SOL    HW1 2393   0.181   0.594   1.678 -0.2756  1.1969 -0.4187
  798SOL    HW2 2394   0.063   0.713   1.667 -0.9909  2.0881  1.2632
  799SOL     OW 2395   1.008   0.172   1.993 -0.0858 -0.2121  0.2622
  799SOL    HW1 2396   1.018   0.251   2.053 -1.0188 -0.5451  1.6288
  799SOL    HW2 2397   0.963   0.089   2.038  0.6128 -0.8793  0.9224
  800SOL     OW 2398   2.973   2.559   0.270 -0.4371 -0.3516  0.3349
  800SOL    HW1 2399   3.016   2.514   0.185  2.3047 -3.3403 -1.9937
  800SOL    HW2 2400   2.908   2.633   0.251 -1.2851 -2.5034  1.6671
  801SOL     OW 2401   1.842   1.744   1.018  0.0476 -0.0865 -0.1497
  801SOL    HW1 2402   1.766   1.809   0.993 -1.9985  2.5896 -1.1975
  801SOL    HW2 2403   1.921   1.796   1.064  1.5157  0.0568 -0.2502
  802SOL     OW 2404   0.621   0.660   0.232  0.0261  0.2733 -0.4897
  802SOL    HW1 2405   0.576   0.634   0.323  1.5026 -2.5373  3.3517
  802SOL    HW2 2406   0.654   0.754   0.228 -1.4896 -0.7905 -2.5153
  803SOL     OW 2407   1.342   1.117   2.262  0.1875 -0.1934 -0.1104
  803SOL    HW1 2408   1.335   1.049   2.336  1.2790 -1.7869 -2.1111
  803SOL    HW2 2409   1.262   1.184   2.270 -2.4968  2.6581  0.7524
  804SOL     OW 2410   2.142   2.069   0.960 -0.3040 -0.5290 -0.4952
  804SOL    HW1 2411   2.139   2.103   1.057 -1.3450  2.6226 -0.6188
  804SOL    HW2 2412   2.153   1.968   0.953 -1.3476 -1.6731 -0.4007
  805SOL     OW 2413   0.372   1.947   2.744  0.1359 -0.3281 -0.5681
  805SOL    HW1 2414   0.337   2.042   2.762  1.6987  1.6083  1.6405
  805SOL    HW2 2415   0.341   1.911   2.656  3.5908  2.7830  0.9396
  806SOL     OW 2416   0.558   2.616   0.351  0.7473 -0.3321 -0.1064
  806SOL    HW1 2417   0.611   2.678   0.291  2.2222  0.9239 -1.3442
  806SOL    HW2 2418   0.552   2.658   0.445 -0.4780  1.1608 -0.4871
  807SOL     OW 2419   2.550   0.976   2.823 -0.0986  0.2368 -0.2696
  807SOL    HW1 2420   2.633   0.938   2.871  2.5681 -0.0789  0.8693
  807SOL    HW2 2421   2.474   0.972   2.895  2.1047  3.5740  1.5291
  808SOL     OW 2422   1.620   2.426   1.121  0.7063  0.4157 -0.1192
  808SOL    HW1 2423   1.541   2.374   1.083 -0.3515 -0.2551  1.4225
  808SOL    HW2 2424   1.641   2.396   1.217  0.7778 -4.1181  2.3133
  809SOL     OW 2425   0.280   0.482   0.606 -0.2195  0.0659  0.3196
  809SOL    HW1 2426   0.351   0.525   0.548 -0.7359 -0.4997 -1.9956
  809SOL    HW2 2427   0.309   0.386   0.631  0.6189  0.8675 -2.0945
  810SOL     OW 2428   1.385   1.550   0.201  0.7205 -0.1712  0.1612
  810SOL    HW1 2429   1.354   1.638   0.157  1.9426  0.0908  1.1311
  810SOL    HW2 2430   1.486   1.564   0.218  0.1346  1.0020 -0.3136
  811SOL     OW 2431   1.401   2.972   1.522 -1.0266 -0.1188 -0.1860
  811SOL    HW1 2432   1.503   2.974   1.532 -2.5055 -2.1980  1.7732
  811SOL    HW2 2433   1.367   3.022   1.442  2.8699 -0.9086  1.4021
  812SOL     OW 2434   1.605   0.052   0.927  0.0474  0.0945  0.0181
  812SOL    HW1 2435   1.628   3.085   0.846 -1.6325  1.5569  0.3913
  812SOL    HW2 2436   1.537   0.014   0.991  1.0423  1.9739  3.0100
  813SOL     OW 2437   1.506   2.983   2.050 -0.4178  0.8160 -0.3563
  813SOL    HW1 2438   1.408   3.012   2.064 -0.9348 -1.1741 -2.0041
  813SOL    HW2 2439   1.505   2.918   1.968  1.5261 -0.3101  1.6369
  814SOL     OW 2440   1.058   2.545   2.003 -0.0231  0.0653  0.6176
  814SOL    HW1 2441   1.052   2.600   1.918 -0.8191 -1.0957 -0.2740
  814SOL    HW2 2442   1.152   2.542   2.041 -1.6699 -2.0066  1.4574
  815SOL     OW 2443   0.519   0.094   2.826  0.3682  0.3998 -0.0622
  815SOL    HW1 2444   0.600   0.033   2.849  1.0295  0.2604  0.6921
  815SOL    HW2 2445   0.555   0.183   2.803 -1.0128  0.4410  0.4552
  816SOL     OW 2446   2.415   0.966   3.073 -0.1254 -0.7254 -0.1170
  816SOL    HW1 2447   2.466   1.047   0.020  3.6400  0.4265  1.4401
  816SOL    HW2 2448   2.473   0.884   0.000 -0.5196  0.4397 -0.6531
  817SOL     OW 2449   2.795   2.257   2.291  0.1857  0.1448 -0.1091
  817SOL    HW1 2450   2.856   2.279   2.372  0.9750  0.2928 -1.2409
  817SOL    HW2 2451   2.830   2.292   2.204  0.2334  0.9886  2.6727
  818SOL     OW 2452   0.899   1.460   0.363 -0.1603  0.1172 -0.0733
  818SOL    HW1 2453   0.825   1.425   0.426 -0.7475 -0.2034 -0.9699
  818SOL    HW2 2454   0.896   1.419   0.268 -0.1773 -1.0014 -1.1611
  819SOL     OW 2455   1.616   1.334   2.848  0.8026  0.2438  0.1551
  819SOL    HW1 2456   1.685   1.265   2.809  2.2154 -0.0374  2.2772
  819SOL    HW2 2457   1.622   1.336   2.948  1.0257  0.8008 -0.4688
  820SOL     OW 2458   0.527   1.210   0.447  0.4464 -0.0159  0.6694
  820SOL    HW1 2459   0.604   1.271   0.474  0.0486 -0.1119  0.7436
  820SOL    HW2 2460   0.485   1.242   0.359 -1.5217  1.2709 -1.2515
  821SOL     OW 2461   0.604   2.971   0.952  0.2161 -0.3588  0.9110
  821SOL    HW1 2462   0.683   2.907   0.933  0.3104  0.7270 -0.5939
  821SOL    HW2 2463   0.541   2.920   1.012  0.7366 -1.0848 -0.5050
  822SOL     OW 2464   2.072   2.181   2.762 -0.0244  0.5209  0.0374
  822SOL    HW1 2465   2.137   2.264   2.761  0.6187  2.3973 -1.1328
  822SOL    HW2 2466   1.976   2.211   2.778  2.9362  0.4819  1.4505
  823SOL     OW 2467   1.105   0.591   2.454 -0.0024 -0.1559  0.1366
  823SOL    HW1 2468   1.204   0.574   2.462  1.4065 -0.4040  1.8839
  823SOL    HW2 2469   1.052   0.543   2.528  0.6317 -0.9933 -0.7238
  824SOL     OW 2470   2.642   2.770   1.650  0.6737 -1.1528 -0.1640
  824SOL    HW1 2471   2.591   2.710   1.716  0.9415 -1.1928 -0.0031
  824SOL    HW2 2472   2.605   2.869   1.649 -2.4610  1.0391  2.6460
  825SOL     OW 2473   0.242   1.806   2.548 -0.1295 -0.1311 -0.3936
  825SOL    HW1 2474   0.206   1.837   2.456 -3.8292  0.8456  0.3130
  825SOL    HW2 2475   0.171   1.751   2.595 -0.8018  1.4175  1.9259
  826SOL     OW 2476   1.572   0.276   0.161 -0.4377 -0.1072 -0.8376
  826SOL    HW1 2477   1.638   0.359   0.146 -0.2507  3.1929  1.0909
  826SOL    HW2 2478   1.630   0.192   0.154 -1.6676  4.0142  0.4771
  827SOL     OW 2479   2.999   1.794   2.016 -0.6349 -0.2803 -0.1351
  827SOL    HW1 2480   2.964   1.704   2.036  2.8831  2.7741 -2.1555
  827SOL    HW2 2481   0.014   1.786   2.012  2.1905  0.6625  1.2222
  828SOL     OW 2482   0.281   0.238   1.383  0.0371 -0.5287  0.0779
  828SOL    HW1 2483   0.212   0.309   1.412 -0.8465  1.8978 -0.7588
  828SOL    HW2 2484   0.374   0.265   1.412  0.6668  2.0949  1.1293
  829SOL     OW 2485   0.910   1.826   2.557  0.1261  0.1800 -0.4018
  829SOL    HW1 2486   0.881   1.918   2.582  2.5250 -2.6050 -3.6321
  829SOL    HW2 2487   0.884   1.754   2.626  1.1870  0.2041 -1.7174
  830SOL     OW 2488   0.854   0.843   1.548  0.1358  0.3136  0.1695
  830SOL    HW1 2489   0.817   0.881   1.459  1.0537  0.7604 -0.2850
  830SOL    HW2 2490   0.786   0.859   1.622  0.9946  3.7767 -0.5872
  831SOL     OW 2491   2.527   1.395   2.843 -0.0779  0.3988  0.3403
  831SOL    HW1 2492   2.535   1.295   2.835 -2.3208 -2.0705  3.2745
  831SOL    HW2 2493   2.584   1.433   2.917 -0.5975  1.9445 -0.7212
  832SOL     OW 2494   1.100   2.222   2.906  0.4163 -0.5761  0.4541
  832SOL    HW1 2495   1.004   2.237   2.941 -2.8463 -3.3754  0.3788
  832SOL    HW2 2496   1.104   2.166   2.820  0.4528  2.4695 -2.7297
  833SOL     OW 2497   0.304   0.481   1.764 -0.2162 -0.0711 -0.3768
  833SOL    HW1 2498   0.352   0.556   1.808  0.1909 -2.5466 -0.2292
  833SOL    HW2 2499   0.318   0.388   1.808  0.7729  3.4402  1.1694
  834SOL     OW 2500   0.089   0.872   1.236  0.1416  0.3216  0.2717
  834SOL    HW1 2501   0.061   0.955   1.290 -2.2597  0.5830 -0.2128
  834SOL    HW2 2502   0.133   0.900   1.149 -1.8177  0.0109 -0.9152
  835SOL     OW 2503   2.762   0.440   0.585 -0.4894 -0.0027  0.3098
  835SOL    HW1 2504   2.829   0.404   0.519 -0.8704 -0.0340  1.8261
  835SOL    HW2 2505   2.675   0.391   0.578  0.3940 -0.4465  0.1965
  836SOL     OW 2506   0.801   2.319   0.177 -0.4743  0.9955 -0.1228
  836SOL    HW1 2507   0.858   2.343   0.258  2.5003  1.6964 -0.8155
  836SOL    HW2 2508   0.745   2.236   0.195  0.7071  0.1220  1.3499
  837SOL     OW 2509   1.518   2.028   0.425 -0.2461  0.1094 -0.8136
  837SOL    HW1 2510   1.556   2.065   0.340 -0.6114 -0.6807  2.4599
  837SOL    HW2 2511   1.463   2.096   0.472  2.6147  0.5157 -0.4881
  838SOL     OW 2512   2.043   0.813   2.282  0.2722  0.1006 -0.4713
  838SOL    HW1 2513   2.097   0.771   2.206  1.7007 -1.0618  0.9512
  838SOL    HW2 2514   2.103   0.813   2.370  4.5209 -0.3377  0.8102
  839SOL     OW 2515   1.237   1.142   2.756 -0.2569  0.6677 -0.1903
  839SOL    HW1 2516   1.140   1.167   2.779 -1.3261  0.8437 -2.7983
  839SOL    HW2 2517   1.292   1.119   2.845  1.4893 -1.5123  2.2948
  840SOL     OW 2518   0.862   1.360   0.113 -0.3237 -0.2150 -1.1659
  840SOL    HW1 2519   0.846   1.277   0.171  0.1445  0.2871 -1.4911
  840SOL    HW2 2520   0.809   1.340   0.025 -0.9940 -1.1366 -1.3660
  841SOL     OW 2521   1.218   2.159   0.071 -0.0234  0.2259  0.4027
  841SOL    HW1 2522   1.310   2.201   0.063 -1.3702 -0.9864 -0.9041
  841SOL    HW2 2523   1.160   2.169   3.071 -2.4910 -0.1761 -0.5301
  842SOL     OW 2524   0.054   0.454   0.367 -0.1834 -0.1651 -0.3473
  842SOL    HW1 2525   0.073   0.450   0.467  0.7485 -0.3656 -0.9148
  842SOL    HW2 2526   0.138   0.450   0.311  2.6101 -2.4223 -0.1252
  843SOL     OW 2527   0.630   0.846   1.090 -0.0743 -0.5461  0.0516
  843SOL    HW1 2528   0.668   0.872   0.997  1.9188  2.3709 -0.6004
  843SOL    HW2 2529   0.539   0.802   1.101  1.7171  0.7484  1.7312
  844SOL     OW 2530   2.287   2.655   2.429 -0.2326  0.0119 -0.3455
  844SOL    HW1 2531   2.351   2.738   2.444  2.8030  2.7373 -1.2600
  844SOL    HW2 2532   2.226   2.675   2.347 -1.9586 -0.6556 -2.4835
  845SOL     OW 2533   2.986   2.756   1.839 -0.4297 -0.1029  0.1895
  845SOL    HW1 2534   3.059   2.831   1.833  2.0115  2.0214  2.1828
  845SOL    HW2 2535   2.940   2.742   1.747  1.6736  0.1629 -0.1924
  846SOL     OW 2536   2.027   0.978   2.607  0.4475 -0.4151 -0.1460
  846SOL    HW1 2537   1.939   0.964   2.662 -2.4037 -1.1380 -0.9285
  846SOL    HW2 2538   2.015   1.046   2.531 -2.6911  0.7742  2.8826
  847SOL     OW 2539   2.727   0.462   1.762  0.0853  0.1873  0.0845
  847SOL    HW1 2540   2.797   0.538   1.766 -1.1770 -0.0134 -1.2184
  847SOL    HW2 2541   2.773   0.373   1.785  0.9752 -0.3224  0.3805
  848SOL     OW 2542   2.564   2.773   0.078 -0.3867  0.5134 -0.4155
  848SOL    HW1 2543   2.626   2.755   3.083 -0.0782  1.9488 -1.5245
  848SOL    HW2 2544   2.471   2.737   0.060 -0.2229  0.7868  2.2234
  849SOL     OW 2545   0.593   0.023   0.649  0.1072 -0.0416  0.1190
  849SOL    HW1 2546   0.649   3.026   0.659 -0.3844 -0.5706 -0.2734
  849SOL    HW2 2547   0.490   3.088   0.649 -5.3249 -1.5435  1.1461
  850SOL     OW 2548   0.891   2.470   0.580 -0.4673 -0.1487 -0.2577
  850SOL    HW1 2549   0.792   2.455   0.594 -3.4487  1.9849 -2.8017
  850SOL    HW2 2550   0.923   2.454   0.482  1.1725  2.8779 -1.5228
  851SOL     OW 2551   1.683   0.507   2.928 -0.1554 -0.1257 -0.2035
  851SOL    HW1 2552   1.780   0.551   2.931  3.9028 -0.3253 -1.9499
  851SOL    HW2 2553   1.659   0.472   2.834 -0.7756 -2.5499 -0.0398
  852SOL     OW 2554   1.607   2.554   2.573 -0.0789 -0.6413  0.1498
  852SOL    HW1 2555   1.635   2.473   2.515  1.8611 -3.4023 -1.5408
  852SOL    HW2 2556   1.641   2.643   2.532  1.2427  2.7016 -2.8061
  853SOL     OW 2557   0.061   2.511   0.040  0.2945  0.1667  0.5252
  853SOL    HW1 2558   0.140   2.459   0.004  0.4935 -0.1948  0.5598
  853SOL    HW2 2559   0.084   2.610   0.044 -0.4699 -3.9949  0.0336
  854SOL     OW 2560   1.348   0.559   2.519  0.2420  0.4196 -0.3599
  854SOL    HW1 2561   1.412   0.477   2.514 -0.8230 -0.7915 -0.7179
  854SOL    HW2 2562   1.401   0.643   2.546  0.4927 -1.8180  0.3932
  855SOL     OW 2563   0.237   2.746   0.545 -0.2494  0.3284  0.6596
  855SOL    HW1 2564   0.151   2.803   0.537 -0.5059  2.8978 -0.7506
  855SOL    HW2 2565   0.215   2.647   0.524 -2.1342 -2.4562 -0.8136
  856SOL     OW 2566   0.296   2.886   2.485  0.1493  0.2788  0.1221
  856SOL    HW1 2567   0.285   2.791   2.450 -2.2235  0.4988  1.3523
  856SOL    HW2 2568   0.376   2.885   2.548 -0.0185  2.5322 -1.1163
  857SOL     OW 2569   1.231   2.864   1.688  0.1543 -0.4753  0.5203
  857SOL    HW1 2570   1.174   2.942   1.731 -1.3334  0.5503  0.6627
  857SOL    HW2 2571   1.285   2.900   1.612 -1.2610 -1.5499 -0.9382
  858SOL     OW 2572   0.252   1.879   1.716 -0.0182  0.4807 -0.1439
  858SOL    HW1 2573   0.305   1.952   1.753 -3.2078 -2.1484 -2.2577
  858SOL    HW2 2574   0.300   1.824   1.644  0.2882 -3.5652  0.3631
  859SOL     OW 2575   2.019   2.769   1.889  0.0273  0.4286 -0.4461
  859SOL    HW1 2576   2.101   2.724   1.849  1.9633  1.4809  2.0179
  859SOL    HW2 2577   1.934   2.715   1.871 -0.3170  0.2153 -1.5621
  860SOL     OW 2578   1.728   0.179   0.637  0.2249  0.3149  0.5805
  860SOL    HW1 2579   1.663   0.235   0.692  0.6961  3.5170 -3.0009
  860SOL    HW2 2580   1.692   0.088   0.618  1.5609  0.1099 -0.9267
  861SOL     OW 2581   2.780   0.676   0.733 -0.4041 -0.6551 -0.2876
  861SOL    HW1 2582   2.792   0.582   0.697 -1.6726  1.3714  0.5021
  861SOL    HW2 2583   2.715   0.678   0.811 -2.9556 -0.6495 -2.0880
  862SOL     OW 2584   1.755   0.640   1.946 -0.0549 -0.6524 -0.2122
  862SOL    HW1 2585   1.857   0.634   1.932 -0.1571 -1.3462 -0.2495
  862SOL    HW2 2586   1.718   0.735   1.929  0.6439  1.5492  0.4926
  863SOL     OW 2587   0.906   0.720   1.068  0.2905 -0.0845  0.0858
  863SOL    HW1 2588   0.817   0.742   1.108  2.4986  0.8103 -0.7306
  863SOL    HW2 2589   0.905   0.625   1.043 -0.2444  3.0032 -0.9884
  864SOL     OW 2590   3.064   2.851   2.292  0.0924 -0.4180  0.2354
  864SOL    HW1 2591   3.003   2.774   2.264 -0.7287  2.2289 -0.9874
  864SOL    HW2 2592   3.078   2.850   2.391  1.0427 -2.1404 -0.0006
  865SOL     OW 2593   1.023   0.838   2.471  0.8466  0.1899  0.4122
  865SOL    HW1 2594   1.043   0.740   2.458 -2.3958  0.2319 -0.5355
  865SOL    HW2 2595   0.989   0.853   2.566 -1.9104 -1.8102 -1.7038
  866SOL     OW 2596   2.682   2.720   0.485  0.3174  0.5219 -0.3128
  866SOL    HW1 2597   2.628   2.796   0.525 -3.3006 -0.9646  1.5630
  866SOL    HW2 2598   2.737   2.685   0.560 -1.3126  1.3027 -2.1619
  867SOL     OW 2599   3.005   2.913   0.239  0.2284 -0.0720  0.4975
  867SOL    HW1 2600   2.931   2.845   0.227  2.6401  0.3070  2.3223
  867SOL    HW2 2601   2.974   3.008   0.220 -0.4739  0.0458 -1.5649
  868SOL     OW 2602   1.794   0.993   0.217 -0.0380 -0.0811 -0.1634
  868SOL    HW1 2603   1.802   1.059   0.141 -1.9572 -3.1498  1.2974
  868SOL    HW2 2604   1.789   1.037   0.310 -1.4589  0.3757  2.1524
  869SOL     OW 2605   3.018   2.199   0.578  0.1327 -0.3783  0.7121
  869SOL    HW1 2606   2.933   2.255   0.602  0.0880 -0.4624 -1.6418
  869SOL    HW2 2607   3.035   2.197   0.477 -0.7678 -1.1932 -3.1560
  870SOL     OW 2608   2.000   2.092   0.374 -0.0384 -0.6904  0.0618
  870SOL    HW1 2609   1.966   2.040   0.456  0.5101 -0.7390 -0.2350
  870SOL    HW2 2610   2.073   2.043   0.325  0.5250 -0.6501 -0.2005
  871SOL     OW 2611   0.547   1.129   0.946 -0.2618  0.1324  0.6550
  871SOL    HW1 2612   0.459   1.187   0.949  0.0707  0.4223  2.7127
  871SOL    HW2 2613   0.582   1.105   1.037  0.2893  0.2015 -0.3627
  872SOL     OW 2614   1.109   1.942   2.123  1.2660 -0.1055  0.6754
  872SOL    HW1 2615   1.189   2.008   2.117 -2.3557 -5.2485 -1.7940
  872SOL    HW2 2616   1.105   1.887   2.208  2.1804  0.6524  0.3136
  873SOL     OW 2617   0.502   2.406   1.984 -0.1216  0.3060  0.1264
  873SOL    HW1 2618   0.558   2.414   2.069  2.8113 -0.2637 -0.6693
  873SOL    HW2 2619   0.400   2.406   2.008 -1.1434 -1.2352 -0.1930
  874SOL     OW 2620   0.931   0.040   1.106 -0.2161  0.3200 -0.0727
  874SOL    HW1 2621   0.946   0.114   1.178  0.3610  0.0685  1.0455
  874SOL    HW2 2622   0.860   0.069   1.039 -0.3228  0.7527 -1.9491
  875SOL     OW 2623   2.880   0.386   1.139  0.8579 -0.4047 -1.0056
  875SOL    HW1 2624   2.900   0.483   1.120 -2.4567  1.0950  1.1186
  875SOL    HW2 2625   2.876   0.353   1.240 -1.1570 -1.8870 -0.1127
  876SOL     OW 2626   0.654   0.922   0.150  0.7534 -0.2739  0.1388
  876SOL    HW1 2627   0.588   0.942   0.224  0.1985  1.1604 -1.2755
  876SOL    HW2 2628   0.611   0.918   0.057  0.1703  1.5710 -0.7038
  877SOL     OW 2629   0.779   0.399   1.495  0.4471 -0.0682  0.2412
  877SOL    HW1 2630   0.823   0.332   1.559  1.4834 -2.6860 -1.3407
  877SOL    HW2 2631   0.827   0.489   1.497 -1.7129 -2.0519  2.7689
  878SOL     OW 2632   2.229   2.712   0.258 -0.0896  0.6700 -0.0046
  878SOL    HW1 2633   2.261   2.731   0.167 -0.0777  0.3753  0.7318
  878SOL    HW2 2634   2.218   2.797   0.303  1.7778  0.4809 -2.8639
  879SOL     OW 2635   2.582   1.529   1.320 -0.5176 -0.1937 -0.2873
  879SOL    HW1 2636   2.520   1.473   1.262  0.6191 -2.7539  0.6875
  879SOL    HW2 2637   2.547   1.621   1.326  5.6379 -0.2228  2.0327
  880SOL     OW 2638   1.466   2.316   0.703  0.5319 -0.0776  0.1640
  880SOL    HW1 2639   1.567   2.301   0.699 -3.3936  1.5610 -0.4531
  880SOL    HW2 2640   1.410   2.264   0.634 -0.2372 -1.1331 -0.2339
  881SOL     OW 2641   1.039   2.446   0.343  0.0618 -0.1492  0.0118
  881SOL    HW1 2642   1.086   2.525   0.304  0.2157  1.0033 -0.6724
  881SOL    HW2 2643   1.089   2.360   0.325 -0.7143  3.8990 -0.3187
  882SOL     OW 2644   1.849   0.764   1.280 -0.1845 -0.6787 -0.3720
  882SOL    HW1 2645   1.840   0.664   1.301 -0.1207  1.2142  1.0939
  882SOL    HW2 2646   1.758   0.804   1.277  1.6180 -0.3302  1.3167
  883SOL     OW 2647   1.559   0.844   1.652  0.1682 -0.2816 -0.2265
  883SOL    HW1 2648   1.636   0.787   1.617  0.4988 -0.6783  0.8016
  883SOL    HW2 2649   1.474   0.787   1.663 -2.3902 -1.8581  2.1018
  884SOL     OW 2650   2.801   0.506   0.088 -0.2824  0.8186  0.8482
  884SOL    HW1 2651   2.704   0.509   0.119 -0.1223 -0.3433  2.6991
  884SOL    HW2 2652   2.856   0.586   0.118 -1.0053 -1.0286 -0.0959
  885SOL     OW 2653   1.292   1.750   0.039  0.1800  0.2039 -0.1843
  885SOL    HW1 2654   1.188   1.737   0.049  0.9070  1.7547 -0.3303
  885SOL    HW2 2655   1.322   1.742   3.032 -1.8121  1.0711  1.2248
  886SOL     OW 2656   1.595   1.598   2.796 -0.3006  0.1065  0.1101
  886SOL    HW1 2657   1.669   1.644   2.853  0.3891  0.3407 -1.8351
  886SOL    HW2 2658   1.609   1.494   2.803 -0.4450 -1.4748  0.1399
  887SOL     OW 2659   1.207   0.189   1.431  0.1618 -0.0010  0.1580
  887SOL    HW1 2660   1.233   0.187   1.526 -1.2288  1.9892 -1.6547
  887SOL    HW2 2661   1.278   0.240   1.378 -1.4897  1.0129 -0.5510
  888SOL     OW 2662   2.487   0.564   1.659  0.3393  0.5553 -0.1575
  888SOL    HW1 2663   2.577   0.527   1.691  0.8829 -1.2155  1.4767
  888SOL    HW2 2664   2.498   0.624   1.577  0.9193 -1.9806  0.8274
  889SOL     OW 2665   3.074   2.784   0.805 -0.6645 -0.5617  0.1026
  889SOL    HW1 2666   0.025   2.693   0.801  1.4583 -2.4584  0.6421
  889SOL    HW2 2667   2.980   2.775   0.845  2.1689 -0.7335 -0.2030
  890SOL     OW 2668   2.153   2.487   0.136 -0.1345 -0.1160 -0.5941
  890SOL    HW1 2669   2.154   2.579   0.185 -2.8094 -0.8851  1.0186
  890SOL    HW2 2670   2.096   2.493   0.055  3.2920 -0.9482  0.9631
  891SOL     OW 2671   0.555   1.103   2.573  0.1734  0.3886 -0.3010
  891SOL    HW1 2672   0.550   1.148   2.483 -0.6268 -0.8754 -2.1495
  891SOL    HW2 2673   0.467   1.083   2.616  2.1014  0.1660  1.6433
  892SOL     OW 2674   0.254   0.091   1.153 -0.3928 -0.1985  0.2315
  892SOL    HW1 2675   0.288   0.159   1.223  1.0817  1.4888 -1.7481
  892SOL    HW2 2676   0.152   0.080   1.163 -1.1583  0.6293 -0.3152
  893SOL     OW 2677   1.439   0.261   1.251  0.6415  0.6869  0.3309
  893SOL    HW1 2678   1.357   0.298   1.197  0.3651  1.4916 -1.6824
  893SOL    HW2 2679   1.529   0.306   1.230  0.0992 -1.9187 -0.8626
  894SOL     OW 2680   2.434   0.787   0.656  0.1928 -0.5238  0.0333
  894SOL    HW1 2681   2.357   0.823   0.714 -0.8476 -0.0453 -2.0513
  894SOL    HW2 2682   2.521   0.839   0.668 -0.6680  0.3979 -0.2742
  895SOL     OW 2683   1.920   1.606   2.453  0.2476 -0.0483 -0.5756
  895SOL    HW1 2684   1.918   1.595   2.558  0.6005 -0.1239 -0.1278
  895SOL    HW2 2685   2.016   1.617   2.437 -0.8482 -0.0433 -1.3423
  896SOL     OW 2686   1.444   0.315   1.720 -0.0998 -0.1536 -0.1582
  896SOL    HW1 2687   1.461   0.392   1.788 -2.9428  1.5249 -0.7803
  896SOL    HW2 2688   1.508   0.240   1.731 -1.1935 -0.8204 -2.7926
  897SOL     OW 2689   0.574   1.680   1.955  0.0786 -0.5474 -0.1995
  897SOL    HW1 2690   0.617   1.596   1.916 -2.5362 -0.1155 -1.7305
  897SOL    HW2 2691   0.582   1.758   1.890  1.6112  1.2185  0.5805
  898SOL     OW 2692   2.613   2.585   2.250  0.4950  0.0675  0.2620
  898SOL    HW1 2693   2.559   2.574   2.166 -0.8496 -0.2563 -0.0174
  898SOL    HW2 2694   2.557   2.551   2.328  0.5400  3.2298  0.8112
  899SOL     OW 2695   1.246   1.010   1.454  0.2189 -0.0051 -0.2893
  899SOL    HW1 2696   1.187   1.084   1.431 -0.5478 -0.3072 -2.6365
  899SOL    HW2 2697   1.335   1.018   1.408 -0.8465  0.4671 -3.2370
  900SOL     OW 2698   1.390   2.189   2.734  0.1994 -0.2725 -0.2026
  900SOL    HW1 2699   1.289   2.164   2.720 -3.2053 -0.6052  1.7515
  900SOL    HW2 2700   1.453   2.106   2.719 -0.5471  0.4471 -0.0086
  901SOL     OW 2701   0.656   2.055   2.692 -0.2627  0.2296  0.0787
  901SOL    HW1 2702   0.577   2.016   2.748 -0.4472  1.9708 -1.9832
  901SOL    HW2 2703   0.622   2.090   2.603  0.3755 -0.2978 -0.8232
  902SOL     OW 2704   2.033   1.733   0.104 -0.0002  0.0325 -0.0267
  902SOL    HW1 2705   2.100   1.707   0.034 -0.5753  0.3793  2.5216
  902SOL    HW2 2706   2.065   1.710   0.198 -1.2995  0.2047 -2.1264
  903SOL     OW 2707   2.159   1.183   0.287  0.1083 -0.2456  0.5023
  903SOL    HW1 2708   2.251   1.226   0.303  1.5915 -3.1109 -2.2185
  903SOL    HW2 2709   2.128   1.192   0.190  1.4958 -1.8190 -0.5787
  904SOL     OW 2710   0.698   0.875   2.618 -0.1419 -0.2450 -0.1913
  904SOL    HW1 2711   0.652   0.966   2.596 -1.5755  1.3872 -0.4484
  904SOL    HW2 2712   0.795   0.893   2.651 -0.4487  0.8945 -0.1667
  905SOL     OW 2713   2.492   0.463   0.915 -0.3449 -0.2254  0.1118
  905SOL    HW1 2714   2.561   0.394   0.881 -1.1066 -1.4242 -0.2193
  905SOL    HW2 2715   2.480   0.456   1.017 -0.4171  1.9884  1.3492
  906SOL     OW 2716   2.720   2.129   0.830 -0.5465 -0.1694 -0.0575
  906SOL    HW1 2717   2.717   2.169   0.737  1.9369 -2.4075  1.4261
  906SOL    HW2 2718   2.795   2.164   0.885 -2.0476 -1.3473  1.1185
  907SOL     OW 2719   1.312   0.557   0.632 -0.2776  0.4718  0.3784
  907SOL    HW1 2720   1.343   0.568   0.537  0.2129 -1.6848 -0.3472
  907SOL    HW2 2721   1.223   0.599   0.652 -1.8817  1.1505  0.2162
  908SOL     OW 2722   2.126   2.973   1.540 -0.3915  0.1297 -0.1902
  908SOL    HW1 2723   2.110   3.036   1.461  1.1281 -1.1721 -0.5704
  908SOL    HW2 2724   2.112   3.024   1.625  3.9891  0.5399 -3.7974
  909SOL     OW 2725   2.523   0.724   1.453  0.0647 -0.1935 -0.4543
  909SOL    HW1 2726   2.609   0.695   1.412 -2.3028  1.2806  0.6689
  909SOL    HW2 2727   2.526   0.816   1.495 -0.0317  1.9802 -0.2008
  910SOL     OW 2728   1.292   2.779   2.261 -0.3735  0.5018  0.5349
  910SOL    HW1 2729   1.241   2.845   2.317  1.1085  0.4587 -0.9918
  910SOL    HW2 2730   1.288   2.821   2.170 -0.2382  1.0873  0.4812
  911SOL     OW 2731   2.020   0.612   1.948 -0.3892 -0.2215 -0.3511
  911SOL    HW1 2732   2.027   0.519   1.978 -1.6561  1.2804  1.5693
  911SOL    HW2 2733   2.036   0.624   1.847 -1.1934 -0.5382 -0.6995
  912SOL     OW 2734   2.534   1.929   1.495  0.1278 -0.0759  0.5172
  912SOL    HW1 2735   2.594   1.999   1.447  2.2235  1.6470 -1.4264
  912SOL    HW2 2736   2.499   1.967   1.586  1.0467 -2.8253  1.6092
  913SOL     OW 2737   2.667   2.096   1.338  0.2784 -0.2879  0.3041
  913SOL    HW1 2738   2.652   2.187   1.371 -1.1231 -1.0675 -0.4307
  913SOL    HW2 2739   2.764   2.082   1.340 -1.6969 -1.9193 -0.6206
  914SOL     OW 2740   2.116   1.463   1.470  0.2833 -0.0898 -0.0068
  914SOL    HW1 2741   2.184   1.532   1.502  1.2604 -0.3849 -1.3414
  914SOL    HW2 2742   2.120   1.456   1.366 -1.3513  1.3653 -2.0545
  915SOL     OW 2743   1.053   1.210   1.372 -0.1682 -0.3712  0.1337
  915SOL    HW1 2744   1.005   1.150   1.304 -0.4609 -1.4683 -0.3311
  915SOL    HW2 2745   1.093   1.290   1.321 -1.5958 -0.3320  1.9334
  916SOL     OW 2746   2.377   2.449   1.347  0.1622  0.6024 -0.4484
  916SOL    HW1 2747   2.455   2.385   1.327 -0.6876  0.5552  0.7188
  916SOL    HW2 2748   2.412   2.530   1.393  1.0895 -1.8261  0.0292
  917SOL     OW 2749   2.484   1.818   2.994  0.6408  0.0409  0.9060
  917SOL    HW1 2750   2.515   1.831   3.087  1.3154 -0.8898 -2.0140
  917SOL    HW2 2751   2.560   1.800   2.928 -1.4534 -0.7197  0.6021
  918SOL     OW 2752   1.826   2.467   2.400 -0.0928  0.2362  0.0713
  918SOL    HW1 2753   1.825   2.367   2.377 -1.1077 -1.7211 -0.3884
  918SOL    HW2 2754   1.879   2.482   2.488 -1.1938  1.8305  2.9916
  919SOL     OW 2755   1.351   2.021   1.718  0.2571  0.2707 -0.2901
  919SOL    HW1 2756   1.434   1.962   1.714  1.3599  0.2305 -0.6384
  919SOL    HW2 2757   1.336   2.079   1.635  0.0077 -0.6253  3.9893
  920SOL     OW 2758   2.882   0.259   2.643 -0.0796  0.5152 -0.2734
  920SOL    HW1 2759   2.966   0.259   2.699 -1.5481  1.0554  0.3331
  920SOL    HW2 2760   2.857   0.348   2.604  3.2723  1.2881  0.3576
  921SOL     OW 2761   2.713   0.365   2.058  0.3663 -0.0756 -0.0590
  921SOL    HW1 2762   2.718   0.266   2.076  2.2419 -0.1879  1.3173
  921SOL    HW2 2763   2.715   0.387   1.958 -0.7072  0.2579  2.0919
  922SOL     OW 2764   2.041   2.370   0.355 -0.7006 -0.2732 -0.3634
  922SOL    HW1 2765   2.056   2.429   0.274  0.0741  1.3033  0.6799
  922SOL    HW2 2766   2.035   2.268   0.337 -0.4982 -4.9413 -0.6764
  923SOL     OW 2767   0.269   1.992   0.381 -0.0348 -0.3948 -0.1177
  923SOL    HW1 2768   0.217   1.945   0.307 -4.2393 -0.7877  1.4810
  923SOL    HW2 2769   0.243   2.086   0.383  0.3827 -0.1350 -1.3905
  924SOL     OW 2770   0.826   0.447   2.873 -0.2314  0.5345 -0.4273
  924SOL    HW1 2771   0.879   0.360   2.880 -1.1595 -0.6534 -0.9757
  924SOL    HW2 2772   0.863   0.510   2.945  0.4764 -0.5225  3.2476
  925SOL     OW 2773   2.346   1.122   0.931  0.1745  0.0448  0.1282
  925SOL    HW1 2774   2.327   1.137   1.033  1.6453  3.1253 -0.7851
  925SOL    HW2 2775   2.380   1.204   0.879 -1.7893 -1.6675  0.7101
  926SOL     OW 2776   2.985   0.909   0.979  0.0868  0.3562  0.0400
  926SOL    HW1 2777   2.928   0.868   1.050  1.1138  1.4367  0.8468
  926SOL    HW2 2778   3.025   0.998   1.005 -1.6934 -1.0245  3.1780
  927SOL     OW 2779   0.137   1.147   0.102 -0.7208 -0.0069 -0.2977
  927SOL    HW1 2780   0.228   1.098   0.096  2.8996 -0.3210 -4.0401
  927SOL    HW2 2781   0.135   1.220   0.036  2.8162 -1.1518 -0.4949
  928SOL     OW 2782   0.026   0.404   2.267  0.2217  0.5011  0.2113
  928SOL    HW1 2783   0.123   0.417   2.232  0.9039 -0.0203 -2.2287
  928SOL    HW2 2784   0.027   0.407   2.367 -4.1603  0.7408  0.9571
  929SOL     OW 2785   0.018   2.862   1.122 -0.3327  0.1365  0.1832
  929SOL    HW1 2786   0.025   2.963   1.134  0.2182 -0.2450  0.4580
  929SOL    HW2 2787   3.051   2.843   1.042 -0.2082  1.3603  0.9912
  930SOL     OW 2788   1.932   1.656   1.540 -0.4249 -0.1603  0.4574
  930SOL    HW1 2789   1.996   1.591   1.494  2.5467  2.4019 -0.6728
  930SOL    HW2 2790   1.987   1.719   1.601  2.5924 -0.8925  0.8226
  931SOL     OW 2791   1.323   1.497   0.857 -0.4400 -0.5296 -0.0787
  931SOL    HW1 2792   1.377   1.556   0.919 -1.3458  0.2217 -0.7889
  931SOL    HW2 2793   1.352   1.517   0.761 -0.5658  0.7617 -0.7416
  932SOL     OW 2794   2.683   1.211   1.046 -0.1469  0.5444 -0.5501
  932SOL    HW1 2795   2.645   1.126   1.095  1.2313 -0.5677  0.3456
  932SOL    HW2 2796   2.609   1.253   0.989  1.7202 -0.2851 -0.0770
  933SOL     OW 2797   2.450   1.765   1.291 -0.4455 -0.1176 -0.0008
  933SOL    HW1 2798   2.354   1.737   1.286  0.6538 -0.1701  2.0661
  933SOL    HW2 2799   2.459   1.833   1.369 -0.0749  1.7254 -2.7554
  934SOL     OW 2800   1.679   3.017   1.454 -0.0966 -0.0624 -1.3052
  934SOL    HW1 2801   1.702   3.088   1.386  0.7531  0.1218  1.2348
  934SOL    HW2 2802   1.732   2.930   1.434  0.0012 -0.1808 -1.5462
  935SOL     OW 2803   0.332   1.502   0.797  0.0671 -0.2260  0.0492
  935SOL    HW1 2804   0.371   1.587   0.839  0.6273 -1.7860 -1.9717
  935SOL    HW2 2805   0.234   1.515   0.760 -2.8041  0.1946 -0.7911
  936SOL     OW 2806   0.096   1.261   0.576  0.5918 -0.1524 -0.1277
  936SOL    HW1 2807   0.032   1.180   0.591 -2.0647 -3.8440 -1.1899
  936SOL    HW2 2808   0.065   1.340   0.628  1.0943 -1.1222 -1.4918
  937SOL     OW 2809   1.784   2.748   0.889 -0.1406 -0.1222  0.1692
  937SOL    HW1 2810   1.685   2.744   0.887  0.0236 -3.2722  1.7107
  937SOL    HW2 2811   1.823   2.812   0.824 -1.5473 -0.1250  0.1233
  938SOL     OW 2812   2.494   2.572   0.889  0.1893 -0.4681  0.0198
  938SOL    HW1 2813   2.484   2.672   0.868  0.8832  0.9854  2.3525
  938SOL    HW2 2814   2.406   2.524   0.870  1.9596 -1.2737  0.3380
  939SOL     OW 2815   0.491   2.113   0.088 -0.5553  0.2075  0.2679
  939SOL    HW1 2816   0.579   2.090   0.133  1.9898  0.9230 -0.0569
  939SOL    HW2 2817   0.424   2.038   0.091 -0.7552 -0.8928  1.9364
  940SOL     OW 2818   2.902   3.036   3.018  0.1592  0.1236  0.0969
  940SOL    HW1 2819   2.924   0.007   0.011 -0.0507  2.9703  3.7035
  940SOL    HW2 2820   2.987   3.024   2.962  1.9164 -1.0064 -0.4395
  941SOL     OW 2821   1.166   0.051   2.889  0.3825 -0.3892 -0.0159
  941SOL    HW1 2822   1.212   3.058   2.924 -0.6850 -2.7204  1.9520
  941SOL    HW2 2823   1.180   0.077   2.791  1.2303  1.8921  2.1261
  942SOL     OW 2824   0.920   1.655   1.532  0.5557  0.1169 -0.3937
  942SOL    HW1 2825   0.968   1.570   1.569  3.1296 -4.2016  1.5893
  942SOL    HW2 2826   0.904   1.722   1.606  0.3951  0.4788 -2.0539
  943SOL     OW 2827   2.140   1.208   1.581  0.5225 -0.0357  0.5490
  943SOL    HW1 2828   2.054   1.188   1.638 -2.2421 -0.9237 -0.6081
  943SOL    HW2 2829   2.125   1.288   1.526  1.2268 -0.5587  0.4318
  944SOL     OW 2830   1.765   0.694   1.579 -0.1906  0.1428 -0.1841
  944SOL    HW1 2831   1.740   0.631   1.503  0.0358  0.3635 -2.2197
  944SOL    HW2 2832   1.851   0.659   1.623 -0.6187  2.3676  1.0607
  945SOL     OW 2833   0.117   3.021   0.775  0.7563 -0.4256  0.2150
  945SOL    HW1 2834   0.059   2.935   0.774  0.1338  1.3568 -0.2275
  945SOL    HW2 2835   0.148   3.059   0.868 -0.6624 -0.3074  3.7115
  946SOL     OW 2836   0.463   0.875   1.471 -0.1188  0.3615  0.4325
  946SOL    HW1 2837   0.390   0.820   1.426 -0.1218  3.3322 -2.9870
  946SOL    HW2 2838   0.482   0.959   1.422  0.0357 -2.0362  1.1631
  947SOL     OW 2839   0.491   2.695   0.608 -0.4851 -0.1059 -0.2870
  947SOL    HW1 2840   0.398   2.723   0.581  1.3446 -0.2427  0.8476
  947SOL    HW2 2841   0.501   2.661   0.705  0.0307 -0.4945  0.9756
  948SOL     OW 2842   2.587   1.370   2.058  0.1345  0.1133  0.2269
  948SOL    HW1 2843   2.503   1.313   2.067  0.6462 -1.5231 -1.2960
  948SOL    HW2 2844   2.634   1.345   1.969 -0.3135 -0.0174  2.7066
  949SOL     OW 2845   0.584   1.264   2.359 -0.7171 -0.4448 -0.2613
  949SOL    HW1 2846   0.620   1.229   2.269  0.4590 -1.2678 -0.2370
  949SOL    HW2 2847   0.488   1.295   2.350  0.0239 -2.2731  1.8099
  950SOL     OW 2848   0.878   0.587   0.727  0.0710 -0.2281  0.4328
  950SOL    HW1 2849   0.903   0.511   0.791 -0.3986 -2.4716  2.1489
  950SOL    HW2 2850   0.959   0.630   0.682 -0.2598 -2.8230  0.3844
  951SOL     OW 2851   0.901   2.119   2.100 -0.2336 -0.4099  0.1188
  951SOL    HW1 2852   0.918   2.180   2.023 -0.7047 -3.2271  0.8659
  951SOL    HW2 2853   0.981   2.047   2.106 -0.0415 -2.9677  0.5692
  952SOL     OW 2854   0.467   1.812   0.069 -0.1067  0.3263  0.0278
  952SOL    HW1 2855   0.531   1.830   0.143  1.8688  0.7088  0.9944
  952SOL    HW2 2856   0.380   1.773   0.110 -0.8897  0.4127  0.9370
  953SOL     OW 2857   2.056   2.875   2.385 -0.4093  0.7072 -0.5549
  953SOL    HW1 2858   2.135   2.928   2.359 -1.2586 -0.8203 -0.8025
  953SOL    HW2 2859   1.998   2.856   2.306 -0.7177 -1.9514  1.1805
  954SOL     OW 2860   1.435   1.234   0.934  0.3252  0.3293  0.3101
  954SOL    HW1 2861   1.492   1.182   0.869  0.1109  0.7829 -0.5924
  954SOL    HW2 2862   1.392   1.317   0.889  0.8777 -1.6543 -1.5929
  955SOL     OW 2863   0.443   2.134   2.218 -0.5602  0.4602 -0.1565
  955SOL    HW1 2864   0.405   2.044   2.185  2.4146 -0.2360  0.2924
  955SOL    HW2 2865   0.377   2.205   2.184 -1.2795  0.7492 -1.5313
  956SOL     OW 2866   1.720   0.515   1.398  0.5004 -0.0797 -0.3532
  956SOL    HW1 2867   1.627   0.529   1.360  1.2829 -0.9682  0.0849
  956SOL    HW2 2868   1.729   0.418   1.431 -0.8290 -0.1292 -0.3552
  957SOL     OW 2869   2.135   1.934   2.642  0.0929 -0.0130  0.4633
  957SOL    HW1 2870   2.169   1.926   2.542  2.5065 -0.2076 -3.9004
  957SOL    HW2 2871   2.106   2.027   2.667 -2.7713 -1.9907  0.4581
  958SOL     OW 2872   1.170   2.336   0.829 -0.0931  0.1231 -0.3723
  958SOL    HW1 2873   1.172   2.431   0.795 -0.0721 -0.1281  2.1024
  958SOL    HW2 2874   1.132   2.335   0.925  1.2800 -0.0441 -0.3591
  959SOL     OW 2875   1.779   2.209   2.666 -0.4474 -0.1615 -0.0190
  959SOL    HW1 2876   1.712   2.141   2.692  2.2376  0.5424 -3.1606
  959SOL    HW2 2877   1.791   2.210   2.567  0.6580 -0.3499 -0.9724
  960SOL     OW 2878   0.050   0.228   2.770 -0.1561 -0.1462 -0.3722
  960SOL    HW1 2879   0.124   0.161   2.745  4.0308 -2.7877  0.7913
  960SOL    HW2 2880   0.080   0.277   2.856  1.0523  1.5413  4.8268
  961SOL     OW 2881   0.936   1.227   2.189 -0.0757  0.0516 -0.7267
  961SOL    HW1 2882   0.994   1.300   2.238  3.6723  0.2472  0.9650
  961SOL    HW2 2883   0.904   1.153   2.255  2.8658  1.7262 -0.8640
  962SOL     OW 2884   1.070   1.396   3.043 -0.0193  0.2439  0.5739
  962SOL    HW1 2885   1.160   1.384   3.078 -2.6497 -0.3502  0.5782
  962SOL    HW2 2886   0.998   1.374   0.023  3.8783  4.8150  1.0907
  963SOL     OW 2887   2.229   1.724   2.990 -0.4264 -0.4396  0.2422
  963SOL    HW1 2888   2.182   1.812   2.965  2.1287 -1.3644 -0.0989
  963SOL    HW2 2889   2.330   1.737   2.975 -0.5152  0.1912  2.7347
  964SOL     OW 2890   1.513   2.713   0.900 -0.1209 -0.2423 -0.1511
  964SOL    HW1 2891   1.456   2.640   0.859  0.4311  0.3810  1.2280
  964SOL    HW2 2892   1.540   2.696   0.997  1.0716 -0.1211  0.9960
  965SOL     OW 2893   0.842   1.954   1.055 -0.6634 -1.0227  0.0393
  965SOL    HW1 2894   0.814   1.994   1.146 -2.1274  1.9114 -1.3821
  965SOL    HW2 2895   0.944   1.952   1.048  2.4657  3.9550 -1.5856
  966SOL     OW 2896   0.037   1.560   0.018  0.5860  0.1924  0.1009
  966SOL    HW1 2897   3.071   1.629   3.054 -0.5554  1.1481 -0.4509
  966SOL    HW2 2898   3.060   1.501   0.068 -0.1689  0.1999 -2.2958
  967SOL     OW 2899   1.593   0.122   1.896  0.1311 -0.4919  0.3457
  967SOL    HW1 2900   1.561   0.037   1.938 -0.1494 -0.9765 -3.4303
  967SOL    HW2 2901   1.663   0.102   1.828  0.1915 -0.3087 -0.9047
  968SOL     OW 2902   1.790   0.858   0.675 -0.1463 -0.1243  0.3955
  968SOL    HW1 2903   1.724   0.859   0.753  0.5342 -0.9016 -0.2612
  968SOL    HW2 2904   1.858   0.932   0.692  0.9859 -1.2933  3.2101
  969SOL     OW 2905   3.070   1.323   1.937  0.5159 -0.0563 -0.5812
  969SOL    HW1 2906   2.999   1.384   1.972  2.6350  0.4248 -2.0269
  969SOL    HW2 2907   3.083   1.316   1.841  1.6462 -1.0905  2.2579
  970SOL     OW 2908   2.413   1.413   1.151 -0.1518  0.2208  0.2431
  970SOL    HW1 2909   2.347   1.335   1.175 -0.1726 -1.2392 -1.4080
  970SOL    HW2 2910   2.393   1.456   1.062  0.4400 -0.9389 -0.8819
  971SOL     OW 2911   0.590   0.255   1.349 -0.2800  0.2928  0.2271
  971SOL    HW1 2912   0.663   0.301   1.396  0.7305 -0.2491 -0.8463
  971SOL    HW2 2913   0.621   0.157   1.337  0.9217 -0.2143  0.2403
  972SOL     OW 2914   0.764   0.672   2.431 -0.0765 -0.2880 -0.1606
  972SOL    HW1 2915   0.746   0.747   2.498 -0.5552  0.8434 -2.8646
  972SOL    HW2 2916   0.764   0.702   2.336  0.9494 -0.6424  4.7298
  973SOL     OW 2917   0.002   1.142   1.079  0.4971  0.2794  0.0212
  973SOL    HW1 2918   3.070   1.127   1.175 -1.0356 -0.5940 -0.6514
  973SOL    HW2 2919   0.099   1.115   1.059 -1.1379  1.0335 -0.2453
  974SOL     OW 2920   1.907   0.993   1.814  0.1401 -0.1057 -0.4464
  974SOL    HW1 2921   1.932   0.965   1.721  1.1084  1.8919 -1.4165
  974SOL    HW2 2922   1.828   0.943   1.845 -0.0130  0.8024  1.8493
  975SOL     OW 2923   2.537   3.055   0.341 -0.3069 -0.0295  0.3144
  975SOL    HW1 2924   2.526   3.037   0.241  0.3193  1.5993  1.8068
  975SOL    HW2 2925   2.632   0.005   0.350  1.3291  1.0871 -0.0989
  976SOL     OW 2926   2.748   1.359   1.826  0.5898  0.0831 -0.0557
  976SOL    HW1 2927   2.718   1.404   1.739  1.9861  1.2964 -0.4352
  976SOL    HW2 2928   2.817   1.286   1.813  1.3577 -0.1668  1.1134
  977SOL     OW 2929   0.752   2.942   3.022  0.0449 -0.8881 -0.0356
  977SOL    HW1 2930   0.807   3.027   3.023  0.0692 -0.9109  2.7081
  977SOL    HW2 2931   0.738   2.906   0.027  2.6382 -1.0959 -0.4772
  978SOL     OW 2932   0.360   1.537   0.359  0.1051 -0.2995  0.0575
  978SOL    HW1 2933   0.368   1.447   0.312 -2.8903  1.4535  1.4885
  978SOL    HW2 2934   0.448   1.564   0.407 -1.6567 -0.9037  2.2946
  979SOL     OW 2935   1.367   1.702   1.544 -0.2271  0.4937 -0.1488
  979SOL    HW1 2936   1.424   1.774   1.594 -2.0495 -1.6369  1.8408
  979SOL    HW2 2937   1.412   1.611   1.549 -1.5905 -2.0728 -3.0384
  980SOL     OW 2938   0.363   1.501   2.048  0.0904 -0.2614 -0.0991
  980SOL    HW1 2939   0.422   1.575   2.009  1.2631 -1.0117 -1.7772
  980SOL    HW2 2940   0.287   1.476   1.985 -4.6710  0.7743  0.3291
  981SOL     OW 2941   2.969   1.364   0.124 -0.1910 -0.0529 -0.4137
  981SOL    HW1 2942   2.880   1.386   0.173  1.9685  0.2084 -0.0018
  981SOL    HW2 2943   3.037   1.340   0.198 -0.1473  2.3171  1.7558
  982SOL     OW 2944   2.488   2.501   2.481  0.0732  0.3148  0.3474
  982SOL    HW1 2945   2.394   2.544   2.470 -2.3952  0.4118 -0.7273
  982SOL    HW2 2946   2.536   2.533   2.566  0.2456  0.6864 -0.7138
  983SOL     OW 2947   1.337   0.496   1.551 -0.4258  0.4693 -0.1402
  983SOL    HW1 2948   1.369   0.412   1.594 -1.3181  2.6017 -1.4909
  983SOL    HW2 2949   1.351   0.566   1.619 -0.5240  0.8057 -3.2322
  984SOL     OW 2950   1.077   0.103   2.476  0.0775  0.1541 -0.1180
  984SOL    HW1 2951   0.998   0.135   2.533  2.9429 -0.5611  1.7949
  984SOL    HW2 2952   1.159   0.128   2.534 -0.5705  0.2429  0.6556
  985SOL     OW 2953   1.627   2.241   1.685  0.0899 -0.2796 -0.5585
  985SOL    HW1 2954   1.641   2.328   1.742  0.8198  1.5271  1.0200
  985SOL    HW2 2955   1.629   2.161   1.747 -1.1993  3.2654  0.3992
  986SOL     OW 2956   2.254   3.076   2.342  0.0390  0.0454  0.0800
  986SOL    HW1 2957   2.326   3.071   2.270  1.9152  1.3700 -0.7444
  986SOL    HW2 2958   2.244   0.082   2.375  1.0323 -1.2522 -2.8680
  987SOL     OW 2959   2.447   0.451   2.072 -0.1010 -1.0008 -0.5110
  987SOL    HW1 2960   2.542   0.409   2.066  2.2359 -0.6685  2.0633
  987SOL    HW2 2961   2.445   0.529   2.135 -1.8764 -1.6753 -0.4656
  988SOL     OW 2962   2.508   0.522   2.504  1.1352 -0.4392 -0.1789
  988SOL    HW1 2963   2.519   0.596   2.574 -0.5131 -0.1600  0.9413
  988SOL    HW2 2964   2.482   0.560   2.412  0.4136  1.2525 -0.9875
  989SOL     OW 2965   2.297   2.245   2.108  0.2243  0.9419  0.2161
  989SOL    HW1 2966   2.329   2.148   2.085  2.5877 -0.5756  1.4820
  989SOL    HW2 2967   2.371   2.288   2.156 -2.8543  0.5879  0.5490
  990SOL     OW 2968   0.370   1.240   2.859  0.0752  0.0650 -0.1854
  990SOL    HW1 2969   0.290   1.279   2.910  1.4663 -1.0138 -1.8633
  990SOL    HW2 2970   0.403   1.304   2.786  0.4204  1.3646  0.1717
  991SOL     OW 2971   0.764   1.272   2.681  0.9106 -0.1316  0.0239
  991SOL    HW1 2972   0.714   1.207   2.621  0.2736 -1.2035  1.0087
  991SOL    HW2 2973   0.700   1.342   2.729  0.0066  1.5000  1.8738
  992SOL     OW 2974   2.959   2.138   1.827 -0.0098 -0.1960 -0.3284
  992SOL    HW1 2975   3.060   2.165   1.853 -0.7954 -1.8063 -1.9532
  992SOL    HW2 2976   2.961   2.040   1.797 -1.8137 -1.6897  1.7357
  993SOL     OW 2977   0.722   0.119   0.928  0.0304  0.4900  0.5509
  993SOL    HW1 2978   0.665   0.033   0.934  0.1916  1.3120 -2.0581
  993SOL    HW2 2979   0.739   0.138   0.826 -1.1253 -0.1122 -3.2342
  994SOL     OW 2980   0.256   1.817   1.343 -0.3105  0.3297 -0.0622
  994SOL    HW1 2981   0.273   1.723   1.304 -0.9771 -1.8171 -0.0526
  994SOL    HW2 2982   0.180   1.865   1.299  5.3044  0.4108 -0.2018
  995SOL     OW 2983   2.208   1.620   2.513  0.6283 -0.2652  0.3013
  995SOL    HW1 2984   2.257   1.579   2.592 -2.4625 -1.4954  1.6710
  995SOL    HW2 2985   2.246   1.710   2.489 -2.4513  0.9540  1.9404
  996SOL     OW 2986   2.006   1.337   2.656  0.5468 -0.3913 -0.0237
  996SOL    HW1 2987   1.981   1.430   2.678 -2.0477  0.0806 -0.1619
  996SOL    HW2 2988   1.926   1.281   2.661  2.6454  0.2496 -0.0676
  997SOL     OW 2989   1.629   0.897   1.924 -0.4087 -0.7208  0.4318
  997SOL    HW1 2990   1.614   0.897   1.822  0.3338 -0.9171  1.0355
  997SOL    HW2 2991   1.656   0.991   1.951  2.0467 -2.1337  4.1113
  998SOL     OW 2992   2.468   2.249   0.946 -0.0315 -0.1583 -0.1636
  998SOL    HW1 2993   2.559   2.272   0.909 -0.9481 -0.2608 -0.4102
  998SOL    HW2 2994   2.483   2.181   1.018  3.0523  1.4004 -0.0055
  999SOL     OW 2995   2.437   2.306   0.511 -0.6212 -0.1695 -0.8809
  999SOL    HW1 2996   2.416   2.242   0.592 -0.7102 -3.9369  1.1968
  999SOL    HW2 2997   2.363   2.375   0.493  1.9528 -0.2789  1.3602
 1000SOL     OW 2998   1.155   2.934   2.426 -0.0665 -0.4846 -0.2270
 1000SOL    HW1 2999   1.101   3.019   2.449 -1.6704  0.6683  0.3642
 1000SOL    HW2 3000   1.194   2.891   2.513 -0.5928 -1.0225  0.7742
   3.08970   3.08970   3.08970
