1000 SPC/Fw water molecules t= 112.00000 step= 112000
 3000
    1SOL     OW    1   1.959   2.441   0.567 -0.3777  0.3817 -0.0866
    1SOL    HW1    2   1.972   2.438   0.466  0.1068 -1.6515 -1.1760
    1SOL    HW2    3   2.025   2.376   0.613 -1.0633  0.5183  0.8044
    2SOL     OW    4   1.433   1.400   2.103 -0.1961 -0.2786  0.1926
    2SOL    HW1    5   1.406   1.459   2.180 -1.3209  0.2170  1.0667
    2SOL    HW2    6   1.378   1.425   2.019  1.8934 -2.7577  0.1567
    3SOL     OW    7   1.386   2.368   2.093  0.1091  0.6184  0.2922
    3SOL    HW1    8   1.454   2.397   2.024 -3.9764  0.8650  0.9345
    3SOL    HW2    9   1.423   2.300   2.162  0.8779 -0.9840 -1.4268
    4SOL     OW   10   1.067   2.005   2.050  0.6086  0.0010 -0.4129
    4SOL    HW1   11   1.095   1.965   2.136  1.5625 -0.6697 -1.3124
    4SOL    HW2   12   1.031   2.096   2.067 -1.1224 -1.1397  0.5559
    5SOL     OW   13   0.537   0.814   1.685 -0.5656  0.2445 -0.2364
    5SOL    HW1   14   0.618   0.865   1.719  0.0586  0.7017  0.2359
    5SOL    HW2   15   0.547   0.711   1.699 -0.3092 -1.6774 -2.4567
    6SOL     OW   16   2.351   0.801   2.892  0.3208 -0.1049 -0.0657
    6SOL    HW1   17   2.304   0.782   2.802  1.2620  0.1517  3.4474
    6SOL    HW2   18   2.454   0.794   2.887  3.5798  0.1086  1.5864
    7SOL     OW   19   0.762   0.009   1.570  0.4146  0.3774  0.5129
    7SOL    HW1   20   0.761   0.052   1.662  1.1176 -1.8897 -2.6133
    7SOL    HW2   21   0.837   0.047   1.517  1.5813  0.9375  0.5934
    8SOL     OW   22   1.548   0.096   1.843  0.3669  0.3121 -0.1309
    8SOL    HW1   23   1.458   0.060   1.826  1.2030 -4.7346 -0.9525
    8SOL    HW2   24   1.612   0.021   1.811  1.1919 -2.4607 -0.7471
    9SOL     OW   25   0.330   0.702   0.573  0.7338  0.1334  0.2775
    9SOL    HW1   26   0.297   0.677   0.667  2.0050  0.5789  1.0214
    9SOL    HW2   27   0.327   0.802   0.559  1.0969  1.1764 -0.0800
   10SOL     OW   28   0.891   2.275   2.361  0.0667  0.0126 -0.0027
   10SOL    HW1   29   0.922   2.252   2.456  0.9553  0.7888 -0.2017
   10SOL    HW2   30   0.834   2.359   2.363 -0.9674  0.2081 -2.6112
   11SOL     OW   31   0.816   1.895   2.930 -0.4222  0.4183  0.0440
   11SOL    HW1   32   0.887   1.960   2.962  0.7956  2.8694 -3.4580
   11SOL    HW2   33   0.852   1.800   2.920 -0.0386 -0.4387 -2.3269
   12SOL     OW   34   0.237   2.917   1.437  0.0556  0.1687 -0.6642
   12SOL    HW1   35   0.184   2.996   1.469  1.0774  1.0731 -0.4648
   12SOL    HW2   36   0.171   2.839   1.426  1.1190 -2.6533  4.2789
   13SOL     OW   37   0.882   2.701   0.055 -0.0496 -0.0894  0.3753
   13SOL    HW1   38   0.916   2.669   3.070 -0.1649  0.5771 -2.5653
   13SOL    HW2   39   0.850   2.797   0.050  0.6342  3.6205  0.5943
   14SOL     OW   40   1.679   1.879   0.827  0.3980  0.3479 -0.0238
   14SOL    HW1   41   1.635   1.842   0.914 -3.5923 -0.8882  0.7130
   14SOL    HW2   42   1.770   1.841   0.814  0.0784 -0.6031 -0.6172
   15SOL     OW   43   2.882   1.525   2.278  0.0946 -0.0101  0.2509
   15SOL    HW1   44   2.971   1.496   2.317  0.7026 -0.2221 -0.1957
   15SOL    HW2   45   2.807   1.505   2.342  1.2633 -0.1091 -0.0078
   16SOL     OW   46   1.332   3.000   2.927  0.1775 -0.0038 -0.6887
   16SOL    HW1   47   1.252   2.939   2.924 -2.3115  1.5427  1.9073
   16SOL    HW2   48   1.361   3.032   2.838  0.1785  0.8123  0.1850
   17SOL     OW   49   0.644   2.405   2.100  0.2344 -0.0858  0.4831
   17SOL    HW1   50   0.701   2.365   2.026  1.5528 -3.1951  3.0372
   17SOL    HW2   51   0.592   2.329   2.139 -0.4241  1.9579  2.2676
   18SOL     OW   52   1.742   0.722   0.484 -0.5329 -0.4287 -0.1876
   18SOL    HW1   53   1.801   0.765   0.412  0.3410 -4.5290  0.5987
   18SOL    HW2   54   1.647   0.747   0.468  1.9020 -0.6387 -0.9680
   19SOL     OW   55   2.325   1.789   2.566 -0.7989  0.3664 -0.3728
   19SOL    HW1   56   2.249   1.801   2.629 -2.2607 -0.7716 -0.3540
   19SOL    HW2   57   2.412   1.821   2.605 -1.6644 -0.2204  0.0040
   20SOL     OW   58   2.417   2.099   2.274 -0.2605 -0.2972  0.3679
   20SOL    HW1   59   2.371   2.091   2.366  3.0148 -0.3066  0.1566
   20SOL    HW2   60   2.364   2.172   2.222  1.6732  1.7119  1.1273
   21SOL     OW   61   0.728   2.044   0.350 -0.3671  0.5736 -0.3873
   21SOL    HW1   62   0.715   2.054   0.249  2.0656  0.7747  0.1627
   21SOL    HW2   63   0.690   1.959   0.387  0.6938  3.1314 -1.5450
   22SOL     OW   64   2.290   2.549   1.483  0.6116 -0.0959  0.5032
   22SOL    HW1   65   2.222   2.482   1.514  3.6946 -0.0492  2.1450
   22SOL    HW2   66   2.310   2.543   1.381 -2.5128 -1.5825 -1.7859
   23SOL     OW   67   0.311   0.939   1.833  0.2326  0.4957  0.0302
   23SOL    HW1   68   0.347   1.033   1.843  2.1147  1.3253  0.6013
   23SOL    HW2   69   0.379   0.881   1.784  1.7420 -0.7096  1.1024
   24SOL     OW   70   2.123   2.078   1.932  1.1470  0.4639  0.1140
   24SOL    HW1   71   2.081   2.109   2.020  1.5339 -1.0560  1.9268
   24SOL    HW2   72   2.169   1.986   1.944  2.1730 -0.1913  0.4877
   25SOL     OW   73   1.758   0.138   2.423  0.4984 -0.0085 -0.1750
   25SOL    HW1   74   1.756   0.196   2.339  1.9036 -0.0303  3.7610
   25SOL    HW2   75   1.714   0.047   2.412 -1.8193 -3.1341  1.2018
   26SOL     OW   76   1.279   0.056   0.705 -0.1453  0.4941  0.0235
   26SOL    HW1   77   1.245   3.092   0.637 -1.5883 -0.9228 -0.3635
   26SOL    HW2   78   1.380   0.073   0.702 -1.6075 -1.5565  1.3445
   27SOL     OW   79   1.098   1.534   0.038  0.3298  0.0696 -0.0131
   27SOL    HW1   80   1.128   1.549   0.135  2.5468  0.5794  1.0091
   27SOL    HW2   81   1.021   1.466   0.027 -1.9299 -0.3344  1.9775
   28SOL     OW   82   2.744   1.957   1.385 -0.9081 -0.1691 -0.0293
   28SOL    HW1   83   2.676   1.897   1.337 -0.3997 -1.7683  1.2773
   28SOL    HW2   84   2.694   2.029   1.441  0.6361  0.3132  2.6005
   29SOL     OW   85   2.159   2.767   1.709  0.3444 -0.3834  0.1746
   29SOL    HW1   86   2.139   2.818   1.792 -0.0198 -3.4908  0.3871
   29SOL    HW2   87   2.262   2.780   1.684  2.7242 -2.5100 -0.0078
   30SOL     OW   88   0.919   2.912   0.988 -0.2786  0.2686 -0.3504
   30SOL    HW1   89   0.875   2.848   1.054  0.0356 -1.7355  0.0058
   30SOL    HW2   90   0.932   2.860   0.902 -1.6515  1.7985 -0.1715
   31SOL     OW   91   2.941   2.250   1.932  0.0452  0.2068 -0.3658
   31SOL    HW1   92   3.037   2.242   1.917 -3.8609  2.3009  0.2257
   31SOL    HW2   93   2.910   2.249   2.031  0.9172 -2.2885 -1.0449
   32SOL     OW   94   1.658   1.310   1.992  0.0818  0.0204  0.1779
   32SOL    HW1   95   1.569   1.358   2.015  0.3141  1.0381 -0.3963
   32SOL    HW2   96   1.638   1.212   1.970 -2.0328  3.3386 -1.0577
   33SOL     OW   97   0.308   0.120   2.717  0.5035  0.3428 -0.4498
   33SOL    HW1   98   0.410   0.139   2.721 -0.7161  3.1454  0.8706
   33SOL    HW2   99   0.282   0.033   2.672  0.9165  0.1179  0.5020
   34SOL     OW  100   1.802   0.177   1.537  0.2958 -0.7097  0.5052
   34SOL    HW1  101   1.845   0.220   1.614  0.2901 -0.1224 -2.0559
   34SOL    HW2  102   1.836   0.077   1.532 -0.1029  0.7648 -0.9252
   35SOL     OW  103   2.443   0.545   1.593  0.5068  0.0006  0.3444
   35SOL    HW1  104   2.509   0.473   1.619 -0.8028 -1.3985  4.1378
   35SOL    HW2  105   2.488   0.628   1.559  0.6474  1.1290  0.9908
   36SOL     OW  106   2.430   0.012   2.503 -0.0936  0.2828  0.2619
   36SOL    HW1  107   2.357   3.046   2.507 -0.1251 -2.4345 -1.4158
   36SOL    HW2  108   2.522   3.076   2.507 -2.3930  1.8546  0.1099
   37SOL     OW  109   1.093   2.335   2.957 -0.1865 -0.0593  0.6155
   37SOL    HW1  110   1.096   2.431   2.993 -1.0406 -3.2671 -2.4062
   37SOL    HW2  111   1.158   2.274   3.003 -0.1559 -1.7223  1.9588
   38SOL     OW  112   2.900   1.129   2.958  0.3435 -0.1468  0.4470
   38SOL    HW1  113   2.962   1.069   3.012 -0.1337  0.4098 -0.0166
   38SOL    HW2  114   2.816   1.077   2.935  1.7897 -2.2785 -1.4765
   39SOL     OW  115   2.100   2.116   2.206  0.1559 -0.1645 -0.2694
   39SOL    HW1  116   2.130   2.020   2.204  0.7607  1.3401  1.3524
   39SOL    HW2  117   2.057   2.137   2.300  0.3574  1.0897 -0.7681
   40SOL     OW  118   0.736   0.354   2.852  0.1378 -0.3090 -0.1313
   40SOL    HW1  119   0.665   0.317   2.916 -1.4306 -0.6035  2.0034
   40SOL    HW2  120   0.828   0.326   2.878  0.0496 -1.3512  0.0781
   41SOL     OW  121   1.472   1.040   1.433 -0.2926  0.8294  0.0073
   41SOL    HW1  122   1.562   1.008   1.457 -3.1610  0.1495 -0.5580
   41SOL    HW2  123   1.404   1.014   1.505  1.0516  0.8465  0.5815
   42SOL     OW  124   0.282   0.260   2.087 -0.6344 -0.0813 -0.2413
   42SOL    HW1  125   0.202   0.322   2.087  0.7636 -0.1965 -3.4749
   42SOL    HW2  126   0.366   0.307   2.114  2.5982  0.8785 -2.5598
   43SOL     OW  127   1.838   1.329   2.176  0.2046 -0.2622  0.2553
   43SOL    HW1  128   1.800   1.292   2.261 -0.1407 -0.8514 -1.3429
   43SOL    HW2  129   1.776   1.312   2.093 -0.0378 -0.1646 -3.1710
   44SOL     OW  130   3.105   3.024   2.978 -0.2054  0.2252 -0.3263
   44SOL    HW1  131   0.061   3.081   3.039 -1.5458 -0.6955  1.0118
   44SOL    HW2  132   0.003   2.921   3.005  0.5460 -3.3560  1.0424
   45SOL     OW  133   0.728   1.991   1.042  0.3211 -0.0838 -0.2288
   45SOL    HW1  134   0.699   2.089   1.042 -0.7424 -1.0959 -1.7939
   45SOL    HW2  135   0.645   1.935   1.057 -0.0182 -0.5971 -0.7521
   46SOL     OW  136   2.573   2.757   1.867 -0.2589 -0.3856 -0.4185
   46SOL    HW1  137   2.665   2.750   1.835 -2.1494 -2.2358  1.1947
   46SOL    HW2  138   2.516   2.741   1.784  0.3712  1.8587 -2.7257
   47SOL     OW  139   1.116   1.737   1.238  0.1689  0.4048 -0.1421
   47SOL    HW1  140   1.057   1.825   1.242 -1.0986  1.0623 -0.8045
   47SOL    HW2  141   1.057   1.652   1.230 -0.8721 -1.0203  2.8544
   48SOL     OW  142   0.032   2.253   0.183  0.1050 -0.2659  0.3503
   48SOL    HW1  143   0.032   2.322   0.258  1.7431 -1.0830 -1.0323
   48SOL    HW2  144   0.097   2.176   0.203  2.1930  0.6267 -0.0559
   49SOL     OW  145   2.971   1.328   2.047 -0.5449 -0.0295  0.7105
   49SOL    HW1  146   3.047   1.398   2.057  3.4821  2.2751  1.3862
   49SOL    HW2  147   2.892   1.354   2.103  0.6112 -1.2877 -0.2769
   50SOL     OW  148   2.190   0.836   0.815 -0.2117  0.3726 -0.6381
   50SOL    HW1  149   2.262   0.907   0.785  1.4793  1.0015 -1.8302
   50SOL    HW2  150   2.098   0.876   0.781  0.8037  1.7753 -2.0533
   51SOL     OW  151   0.966   0.761   0.716 -0.1629 -0.0174 -0.5523
   51SOL    HW1  152   0.904   0.834   0.687  0.5332  0.6115  0.9679
   51SOL    HW2  153   0.938   0.722   0.807 -1.2828 -0.6603  1.4926
   52SOL     OW  154   1.503   1.131   0.049  0.0596  0.3293 -0.4232
   52SOL    HW1  155   1.506   1.033   0.065 -2.5151  1.0006 -0.6853
   52SOL    HW2  156   1.469   1.175   0.131  0.4271  1.1428 -0.2170
   53SOL     OW  157   1.228   2.197   2.708  0.1824 -0.3937  0.5226
   53SOL    HW1  158   1.186   2.102   2.704  0.6035 -0.5247 -0.3239
   53SOL    HW2  159   1.199   2.252   2.788 -3.4816 -0.2029 -3.0328
   54SOL     OW  160   1.505   0.708   1.602  0.0178 -0.0559 -0.1159
   54SOL    HW1  161   1.439   0.788   1.611  2.6867 -0.6682  0.5719
   54SOL    HW2  162   1.488   0.656   1.515 -0.5486 -0.3251 -0.7349
   55SOL     OW  163   2.560   3.070   0.503  0.0390 -0.3170  0.5298
   55SOL    HW1  164   2.496   2.987   0.505 -2.9894  0.1690  0.7016
   55SOL    HW2  165   2.649   3.048   0.553  1.0986  0.8380  0.7556
   56SOL     OW  166   0.735   2.633   1.632 -0.2588 -0.1288 -0.1523
   56SOL    HW1  167   0.722   2.650   1.732 -1.9504 -1.6182  2.2946
   56SOL    HW2  168   0.638   2.627   1.602 -0.5379 -1.2627 -2.9398
   57SOL     OW  169   1.935   0.653   2.713 -0.0792 -0.1631  0.2246
   57SOL    HW1  170   1.977   0.577   2.664 -1.7386 -0.3863  0.8203
   57SOL    HW2  171   1.915   0.629   2.810  1.2016 -1.5925 -0.8400
   58SOL     OW  172   2.966   1.338   1.781  0.0842 -0.1975 -0.0537
   58SOL    HW1  173   2.974   1.348   1.885  2.9106 -0.1298  2.2355
   58SOL    HW2  174   2.877   1.382   1.747 -1.7969  1.0754 -0.4363
   59SOL     OW  175   0.592   2.811   2.340  0.9432 -0.0242  0.2526
   59SOL    HW1  176   0.677   2.759   2.326 -1.6947  0.0653 -0.7628
   59SOL    HW2  177   0.513   2.757   2.297 -0.8270 -0.9835  0.1354
   60SOL     OW  178   2.625   2.226   0.780 -0.2591 -0.0451 -0.4841
   60SOL    HW1  179   2.669   2.137   0.764 -0.9402 -0.1505 -0.3519
   60SOL    HW2  180   2.569   2.230   0.865 -0.8905 -0.9966 -1.7769
   61SOL     OW  181   0.979   1.946   0.417 -0.3291 -0.0178 -0.3739
   61SOL    HW1  182   0.983   1.929   0.514  0.3612 -0.2608  2.4063
   61SOL    HW2  183   0.895   1.998   0.396  3.7185 -0.3687  1.3239
   62SOL     OW  184   2.179   2.692   2.836  0.3126  0.1150 -0.7858
   62SOL    HW1  185   2.274   2.670   2.874  2.4737  0.7778  0.2053
   62SOL    HW2  186   2.185   2.764   2.764  1.4323  0.7113  0.2300
   63SOL     OW  187   1.909   0.212   3.018 -0.0692 -0.5122  0.4940
   63SOL    HW1  188   1.832   0.214   2.954 -1.9038  1.2427 -0.2096
   63SOL    HW2  189   1.953   0.305   3.012  1.8084 -0.1372 -0.1033
   64SOL     OW  190   0.752   1.074   2.497 -0.2916 -0.6955 -0.4258
   64SOL    HW1  191   0.834   1.069   2.551 -0.4609  2.2815  0.9890
   64SOL    HW2  192   0.673   1.067   2.559 -0.8103  0.0082 -2.2697
   65SOL     OW  193   1.259   2.955   0.506  0.4498 -0.2399 -0.5508
   65SOL    HW1  194   1.281   2.866   0.541 -1.0633  4.1955  1.2484
   65SOL    HW2  195   1.242   2.943   0.406  0.0963  1.2935  0.1919
   66SOL     OW  196   0.347   1.234   1.868 -0.2399  0.0440  0.3081
   66SOL    HW1  197   0.357   1.296   1.951  0.7633  0.2364  0.1619
   66SOL    HW2  198   0.433   1.217   1.813 -0.4550  0.7091  1.5674
   67SOL     OW  199   2.206   3.083   2.122  0.5560  0.0508  0.4710
   67SOL    HW1  200   2.208   3.056   2.028  1.0004 -1.2665  0.2931
   67SOL    HW2  201   2.300   3.084   2.160  2.4936  0.5618 -0.3866
   68SOL     OW  202   0.912   0.668   1.866  0.0895  0.4464  0.4908
   68SOL    HW1  203   0.883   0.599   1.794  0.9119 -0.4229 -0.5046
   68SOL    HW2  204   0.874   0.761   1.842 -2.0342 -2.4080 -0.7760
   69SOL     OW  205   2.053   2.889   0.450 -0.1635 -0.0106  0.1693
   69SOL    HW1  206   2.009   2.805   0.490 -0.7664 -1.7811  1.0384
   69SOL    HW2  207   2.007   2.922   0.363  0.8882 -0.6433 -0.6167
   70SOL     OW  208   2.636   0.752   2.883 -0.1076 -0.6155  0.0173
   70SOL    HW1  209   2.672   0.737   2.793 -1.0643 -1.0799  3.0950
   70SOL    HW2  210   2.685   0.692   2.950  1.6383 -0.2483  0.0849
   71SOL     OW  211   2.786   1.909   0.112  0.4227  0.3730 -0.9126
   71SOL    HW1  212   2.770   1.835   0.044  2.6712 -0.2484 -0.9492
   71SOL    HW2  213   2.866   1.963   0.090 -2.6477 -3.1002  2.1341
   72SOL     OW  214   0.002   1.898   0.451  0.3536 -0.1563 -0.1295
   72SOL    HW1  215   3.057   1.983   0.442  1.0399 -2.7861 -2.1665
   72SOL    HW2  216   0.026   1.875   0.549 -3.0102  1.0226 -0.9897
   73SOL     OW  217   0.778   0.957   0.641 -0.4985 -0.5545  0.1115
   73SOL    HW1  218   0.722   0.990   0.720  0.5146  1.6926  0.1468
   73SOL    HW2  219   0.719   0.907   0.575  0.3857  2.1459 -1.9157
   74SOL     OW  220   0.120   2.249   1.881  0.2321  0.5884  0.1076
   74SOL    HW1  221   0.195   2.217   1.822  0.9831  4.0159 -0.1127
   74SOL    HW2  222   0.156   2.326   1.937  0.9788 -3.7658  0.6922
   75SOL     OW  223   1.839   1.323   1.398  0.3780 -0.0450 -0.2111
   75SOL    HW1  224   1.759   1.346   1.339  0.4512 -1.9082 -1.7526
   75SOL    HW2  225   1.809   1.271   1.480 -1.4026  0.9060 -0.2124
   76SOL     OW  226   1.946   2.373   0.984 -0.5009 -0.1514  0.1857
   76SOL    HW1  227   1.890   2.388   0.905 -0.5559  0.3476  2.5827
   76SOL    HW2  228   2.008   2.450   1.002  0.9781  0.5555 -0.1398
   77SOL     OW  229   2.543   1.797   1.637 -0.1213  0.0904 -0.0555
   77SOL    HW1  230   2.492   1.857   1.706  1.0192  1.6167  1.0981
   77SOL    HW2  231   2.646   1.819   1.624  0.6963 -0.1053 -1.5937
   78SOL     OW  232   1.473   0.799   0.442  0.2100 -0.0530  0.6298
   78SOL    HW1  233   1.504   0.884   0.491 -0.8764 -3.6990 -1.3170
   78SOL    HW2  234   1.372   0.808   0.404 -2.4692  1.6249  0.6082
   79SOL     OW  235   2.120   1.654   1.593  0.1471  0.1545  0.6591
   79SOL    HW1  236   2.096   1.735   1.647  0.0664 -1.2060  1.0287
   79SOL    HW2  237   2.200   1.610   1.634 -1.4198 -0.7518  2.3324
   80SOL     OW  238   0.843   0.482   1.660 -0.7276  0.2559  0.3920
   80SOL    HW1  239   0.895   0.395   1.671 -0.2432 -0.8744 -0.3152
   80SOL    HW2  240   0.795   0.493   1.572  0.6963 -0.2635  1.5066
   81SOL     OW  241   0.482   2.303   0.683  0.2382 -0.2850  0.2113
   81SOL    HW1  242   0.487   2.199   0.672  2.3419  0.7064 -2.4356
   81SOL    HW2  243   0.579   2.336   0.676  2.1517 -1.0112  1.1350
   82SOL     OW  244   1.249   0.279   1.859 -0.3743 -0.3271  0.3622
   82SOL    HW1  245   1.199   0.220   1.929  2.6548 -2.1716  0.2467
   82SOL    HW2  246   1.330   0.328   1.896 -0.4850 -0.8217 -0.4810
   83SOL     OW  247   0.862   1.623   0.294 -0.1902  0.1449  0.5874
   83SOL    HW1  248   0.964   1.620   0.316 -1.9890  0.1936 -1.8774
   83SOL    HW2  249   0.841   1.666   0.202  1.8414 -2.0692  1.2312
   84SOL     OW  250   2.767   1.402   3.003 -0.1138 -0.4223  0.2243
   84SOL    HW1  251   2.732   1.321   3.049  0.0822  1.7113 -0.9284
   84SOL    HW2  252   2.855   1.428   3.041 -2.6249  2.2109 -0.3244
   85SOL     OW  253   0.098   2.371   0.979 -0.2538 -0.6873  0.3495
   85SOL    HW1  254   0.056   2.333   0.895  0.6228  0.9400 -0.2875
   85SOL    HW2  255   0.198   2.377   0.968  0.2526  1.4474 -1.5955
   86SOL     OW  256   2.187   2.872   1.172  0.0854 -0.7174  0.4788
   86SOL    HW1  257   2.116   2.926   1.122 -1.0395 -0.9603  0.8480
   86SOL    HW2  258   2.144   2.783   1.199  1.5722  0.0027  0.8567
   87SOL     OW  259   0.052   1.840   0.703 -0.0674  0.2861 -0.7624
   87SOL    HW1  260   0.057   1.889   0.791 -1.3549 -0.3487 -0.1209
   87SOL    HW2  261   0.042   1.742   0.715  0.7158  0.0523  0.1172
   88SOL     OW  262   0.709   0.508   1.427  0.4592 -0.0930 -0.2783
   88SOL    HW1  263   0.638   0.574   1.400 -1.2727 -2.0733  0.4360
   88SOL    HW2  264   0.747   0.455   1.348 -0.1654 -0.7526  0.6430
   89SOL     OW  265   1.054   2.773   1.864 -0.4732 -0.1141 -0.5180
   89SOL    HW1  266   1.155   2.767   1.839 -0.4641  2.0163 -0.5996
   89SOL    HW2  267   0.993   2.809   1.790 -0.6505 -0.0265 -1.5097
   90SOL     OW  268   0.325   2.011   1.295 -0.4411 -0.0566  0.2116
   90SOL    HW1  269   0.267   1.930   1.293  0.1958  2.0152  2.6597
   90SOL    HW2  270   0.383   2.009   1.379  3.5771 -2.5224  1.9179
   91SOL     OW  271   1.141   2.153   1.237 -0.1100  0.1774  0.0517
   91SOL    HW1  272   1.136   2.252   1.207  0.7187  0.5580  0.9440
   91SOL    HW2  273   1.189   2.149   1.326 -1.2836  1.6617 -0.3348
   92SOL     OW  274   2.987   2.953   1.419  0.7456  0.4067 -0.2008
   92SOL    HW1  275   2.917   3.000   1.360 -0.6614 -1.5103  0.8075
   92SOL    HW2  276   3.057   3.018   1.456  1.4779  1.1933  1.0223
   93SOL     OW  277   3.040   1.307   0.024  0.0873  0.0794  0.5310
   93SOL    HW1  278   2.990   1.252   3.055 -2.2893 -1.1679 -1.3763
   93SOL    HW2  279   3.036   1.254   0.109  1.8475 -0.6366 -1.0653
   94SOL     OW  280   2.856   2.597   2.122  0.3654  0.0278 -0.1303
   94SOL    HW1  281   2.880   2.694   2.095 -2.2695  4.6284  0.3907
   94SOL    HW2  282   2.871   2.582   2.223  0.5125 -1.1581  1.1392
   95SOL     OW  283   1.523   0.688   1.998 -0.6310  0.4083 -0.0834
   95SOL    HW1  284   1.604   0.696   2.053 -3.1127 -3.4257  1.5426
   95SOL    HW2  285   1.453   0.760   2.028  0.3174  0.6308 -0.9216
   96SOL     OW  286   2.645   0.385   1.949 -0.1216  0.3002 -0.4251
   96SOL    HW1  287   2.650   0.385   1.850  2.1963  0.8380  0.5468
   96SOL    HW2  288   2.717   0.451   1.983 -1.2327 -1.8100  0.5249
   97SOL     OW  289   2.307   0.136   1.473  0.7480 -0.1297  0.5565
   97SOL    HW1  290   2.244   0.191   1.528  4.3991 -1.2451 -2.9305
   97SOL    HW2  291   2.371   0.093   1.542  1.6065 -0.6252  0.8281
   98SOL     OW  292   2.387   3.054   1.256  0.2437 -0.0637 -0.4327
   98SOL    HW1  293   2.360   0.003   1.331  3.5141 -1.5587 -2.4349
   98SOL    HW2  294   2.316   2.985   1.232  0.0260  1.4763 -0.0469
   99SOL     OW  295   2.967   0.286   2.105 -0.4571  0.0455 -0.1211
   99SOL    HW1  296   2.983   0.229   2.023  1.5216  0.1968  1.6234
   99SOL    HW2  297   2.929   0.374   2.076  2.6606 -1.5049  1.6931
  100SOL     OW  298   2.003   1.433   1.856  0.7365  0.0680 -0.1435
  100SOL    HW1  299   1.947   1.517   1.830 -1.4442  3.8047 -3.1284
  100SOL    HW2  300   1.987   1.395   1.951  0.7807  1.3906  2.0699
  101SOL     OW  301   1.751   3.084   0.680  0.0879  0.2269 -0.4680
  101SOL    HW1  302   1.713   0.001   0.770 -0.8967  1.5132 -1.3541
  101SOL    HW2  303   1.679   3.101   0.610  1.4131  1.0161 -0.0503
  102SOL     OW  304   0.384   0.806   1.451 -0.1151  0.0750 -0.0465
  102SOL    HW1  305   0.445   0.744   1.393  0.6799  0.0066 -0.3267
  102SOL    HW2  306   0.432   0.824   1.539  0.9531  1.2787  1.8871
  103SOL     OW  307   2.739   0.540   3.036 -0.6518  0.6781  0.1685
  103SOL    HW1  308   2.777   0.456   2.988  0.5986 -1.6286 -2.7813
  103SOL    HW2  309   2.647   0.513   3.070 -0.3402  1.6696  1.5158
  104SOL     OW  310   2.826   0.004   1.947 -0.0446 -0.2474 -0.0563
  104SOL    HW1  311   2.907   0.059   1.925 -2.7207  0.5526 -0.0933
  104SOL    HW2  312   2.749   0.052   1.990  1.0669 -0.2691  1.2102
  105SOL     OW  313   1.725   0.947   2.206  0.2743  0.8501 -0.2166
  105SOL    HW1  314   1.759   0.847   2.196 -3.2533 -0.5240 -1.6234
  105SOL    HW2  315   1.788   1.000   2.266  1.3769  0.2619 -1.1663
  106SOL     OW  316   1.657   0.057   0.939 -0.1277 -0.4475 -0.0817
  106SOL    HW1  317   1.733   0.098   0.988 -1.2271  0.6963 -0.4944
  106SOL    HW2  318   1.601   0.001   1.007  0.2019  0.5079 -0.2509
  107SOL     OW  319   0.732   0.976   0.944  0.1203 -0.0131  0.0864
  107SOL    HW1  320   0.694   0.988   1.036 -0.4452  0.4238  0.7398
  107SOL    HW2  321   0.778   1.064   0.918  1.2450  0.6861 -0.6201
  108SOL     OW  322   2.830   0.486   2.585 -0.0861 -0.0580 -0.1827
  108SOL    HW1  323   2.914   0.425   2.588  0.0249 -0.8572  0.2114
  108SOL    HW2  324   2.781   0.480   2.493 -1.4809 -1.2345  1.3738
  109SOL     OW  325   2.052   0.221   0.192  0.5448 -0.1973  0.0959
  109SOL    HW1  326   1.991   0.218   0.112 -0.4890  0.7873 -0.2398
  109SOL    HW2  327   2.002   0.265   0.272  1.7656 -0.0267  0.6950
  110SOL     OW  328   2.952   1.999   2.709  0.0404 -0.2043  0.3260
  110SOL    HW1  329   2.952   2.083   2.646 -1.4990  2.0096 -2.2254
  110SOL    HW2  330   3.017   2.003   2.787 -0.2546 -1.7042  0.2756
  111SOL     OW  331   2.066   0.152   2.282 -0.2539  0.4245  0.3079
  111SOL    HW1  332   2.115   0.087   2.221 -0.7512 -0.0017  0.7233
  111SOL    HW2  333   2.116   0.169   2.370  0.7793  0.0839  0.9224
  112SOL     OW  334   2.597   0.085   1.126 -0.1917 -0.5393 -0.6117
  112SOL    HW1  335   2.604   0.016   1.049 -0.6883 -0.8609 -0.2807
  112SOL    HW2  336   2.505   0.076   1.160  1.6873 -1.9835  0.4623
  113SOL     OW  337   2.414   2.751   1.607 -0.0778  0.0453  0.1561
  113SOL    HW1  338   2.495   2.787   1.558  0.8936 -1.0880 -0.4827
  113SOL    HW2  339   2.375   2.668   1.562  1.8009 -1.4290 -0.8199
  114SOL     OW  340   2.901   0.105   0.605 -0.7681 -0.0127 -0.4208
  114SOL    HW1  341   2.999   0.121   0.638 -0.9190  0.4321 -0.5666
  114SOL    HW2  342   2.866   0.021   0.650  0.9653 -1.1431 -2.2120
  115SOL     OW  343   2.750   1.693   3.080 -0.8272  0.2534 -0.5025
  115SOL    HW1  344   2.845   1.642   3.085  2.4432  0.5697 -1.2218
  115SOL    HW2  345   2.670   1.630   3.100 -1.6928 -0.6247  0.2266
  116SOL     OW  346   0.063   1.515   2.015 -0.3515  0.2656  0.0108
  116SOL    HW1  347   0.006   1.592   2.053  0.6003  0.8723 -0.1451
  116SOL    HW2  348   0.063   1.536   1.915 -0.7812 -0.1606 -2.9884
  117SOL     OW  349   2.646   2.987   0.960 -0.1589  0.1348  0.3701
  117SOL    HW1  350   2.669   2.978   1.058  0.4980  1.0570 -1.6590
  117SOL    HW2  351   2.579   2.915   0.935 -0.0599 -3.0533  1.1127
  118SOL     OW  352   0.399   2.397   1.735 -0.3456 -0.3277 -0.2479
  118SOL    HW1  353   0.307   2.390   1.688  0.7640 -1.5541 -2.3732
  118SOL    HW2  354   0.445   2.306   1.722 -0.1827  0.8692 -2.7002
  119SOL     OW  355   1.495   2.178   1.003 -0.8170  0.0358 -0.5498
  119SOL    HW1  356   1.549   2.180   0.917  1.1593  1.3526  0.2931
  119SOL    HW2  357   1.561   2.160   1.080  0.7481 -0.1365  0.3190
  120SOL     OW  358   0.558   2.082   2.069  0.1906 -0.3918  0.1187
  120SOL    HW1  359   0.499   2.153   2.114 -2.6012 -0.4260 -1.0310
  120SOL    HW2  360   0.628   2.056   2.132 -0.7633 -0.1666  0.6540
  121SOL     OW  361   2.278   1.709   0.954  0.0456 -0.1202 -0.6457
  121SOL    HW1  362   2.256   1.797   0.906  0.3551  0.1829  1.8679
  121SOL    HW2  363   2.192   1.651   0.982 -1.0525 -1.0089  0.6093
  122SOL     OW  364   1.936   1.718   2.303  0.0527  0.3131  0.1384
  122SOL    HW1  365   1.919   1.753   2.207 -0.7819  1.9012 -1.9475
  122SOL    HW2  366   2.039   1.721   2.316 -0.5096  1.4345  2.2627
  123SOL     OW  367   2.780   2.978   0.681  0.2422 -0.0749  0.2032
  123SOL    HW1  368   2.837   2.893   0.670 -3.1069 -0.5863 -3.1526
  123SOL    HW2  369   2.742   2.978   0.774  0.5971 -1.1191 -1.6021
  124SOL     OW  370   1.456   1.104   2.791  0.1583 -0.2196 -0.2245
  124SOL    HW1  371   1.385   1.107   2.862  2.0240 -1.1162  0.8247
  124SOL    HW2  372   1.535   1.166   2.813 -0.7057 -1.0248  0.2129
  125SOL     OW  373   0.239   1.628   2.619  0.3821 -0.5030 -0.1622
  125SOL    HW1  374   0.190   1.656   2.531  0.8469  1.8321 -1.2035
  125SOL    HW2  375   0.283   1.532   2.609  1.3426 -2.4473  0.4941
  126SOL     OW  376   2.919   2.089   0.414  0.2009 -0.7008  0.2234
  126SOL    HW1  377   2.900   2.189   0.434  1.7763 -0.5046 -0.9860
  126SOL    HW2  378   2.870   2.065   0.326 -0.5436 -1.0074 -2.8535
  127SOL     OW  379   0.347   1.752   0.915 -0.6295  0.4365 -0.3312
  127SOL    HW1  380   0.261   1.721   0.876  1.7193  0.9896 -1.8224
  127SOL    HW2  381   0.362   1.852   0.893  2.0709 -1.1431 -1.0491
  128SOL     OW  382   1.543   0.863   0.044  0.3177  0.3137 -0.0799
  128SOL    HW1  383   1.532   0.776   0.103  0.9628 -1.6841  3.1516
  128SOL    HW2  384   1.611   0.848   3.070  2.0201  0.1315  2.1857
  129SOL     OW  385   2.132   1.692   1.322 -0.1572 -0.2614  0.5023
  129SOL    HW1  386   2.141   1.793   1.296 -2.4021 -0.5645  0.0873
  129SOL    HW2  387   2.140   1.680   1.421  2.4575  1.6676  0.0013
  130SOL     OW  388   1.940   1.247   0.350 -0.6143 -0.5180 -0.1384
  130SOL    HW1  389   1.987   1.158   0.351  1.4456 -0.6748 -0.7905
  130SOL    HW2  390   1.995   1.311   0.286  1.3735 -0.3260 -3.1220
  131SOL     OW  391   2.855   1.278   2.717 -0.0822 -0.6046  0.0510
  131SOL    HW1  392   2.868   1.237   2.811  0.1385 -0.0388 -1.1864
  131SOL    HW2  393   2.804   1.369   2.721 -1.7506  0.0753 -0.9785
  132SOL     OW  394   1.861   1.662   1.801 -0.4025 -0.1118 -0.1415
  132SOL    HW1  395   1.878   1.706   1.710  1.2282 -0.8226 -0.2343
  132SOL    HW2  396   1.775   1.611   1.798  0.9819  2.5196  0.7114
  133SOL     OW  397   0.231   1.260   0.115 -0.4415 -0.8602  0.3299
  133SOL    HW1  398   0.316   1.313   0.132  1.2232  1.2609  2.0650
  133SOL    HW2  399   0.157   1.296   0.173 -0.2750  0.9303  0.2501
  134SOL     OW  400   2.622   1.432   0.287 -0.3618  0.3983 -0.4700
  134SOL    HW1  401   2.662   1.390   0.207 -3.3851  0.4933  1.6613
  134SOL    HW2  402   2.651   1.527   0.307 -0.0359  2.4625  1.1428
  135SOL     OW  403   2.326   1.099   0.504 -0.8331  0.1451  0.0233
  135SOL    HW1  404   2.320   1.001   0.487 -1.0756  1.0190 -2.8639
  135SOL    HW2  405   2.341   1.159   0.421  3.2083  0.6608  0.3340
  136SOL     OW  406   1.876   1.591   1.451 -0.3391  0.0542 -0.0116
  136SOL    HW1  407   1.945   1.599   1.528 -0.9833 -1.2651 -1.1001
  136SOL    HW2  408   1.851   1.492   1.440  0.6079 -0.7336  0.8188
  137SOL     OW  409   2.439   2.421   0.694  0.7776 -0.3690  0.0338
  137SOL    HW1  410   2.532   2.375   0.696  3.0041  0.7489 -1.9362
  137SOL    HW2  411   2.449   2.516   0.664  1.3926 -1.3187  5.8579
  138SOL     OW  412   1.809   0.220   1.827 -0.0559 -0.0690 -0.3231
  138SOL    HW1  413   1.721   0.176   1.851  1.6321  0.2141  1.7242
  138SOL    HW2  414   1.813   0.313   1.872 -0.9858  0.2009 -3.9898
  139SOL     OW  415   2.571   0.195   0.122  1.0905 -0.4859 -0.2654
  139SOL    HW1  416   2.511   0.174   0.205 -2.0935 -1.8401 -0.2930
  139SOL    HW2  417   2.557   0.127   0.049 -3.2226  1.5529  4.8466
  140SOL     OW  418   1.463   1.871   2.670  0.3280  0.0720  0.4667
  140SOL    HW1  419   1.518   1.894   2.753 -0.2947 -1.0931 -1.3250
  140SOL    HW2  420   1.453   1.771   2.673 -0.6836  3.1664 -0.2743
  141SOL     OW  421   0.830   0.973   2.093  0.0935  0.0912 -0.4210
  141SOL    HW1  422   0.762   0.932   2.159 -1.1061  0.8745 -0.4068
  141SOL    HW2  423   0.921   0.947   2.117 -2.7633  3.1160 -0.5717
  142SOL     OW  424   2.067   2.458   2.974 -0.1899  0.4839 -0.4934
  142SOL    HW1  425   2.090   2.531   2.909 -3.0650 -0.6135 -0.3912
  142SOL    HW2  426   2.135   2.378   2.977  0.5768  1.4230  2.1198
  143SOL     OW  427   0.934   2.085   3.090  0.3280  0.4175 -0.3385
  143SOL    HW1  428   0.982   2.159   3.042 -0.7373  0.6888 -3.0173
  143SOL    HW2  429   0.996   2.035   0.056  1.6612 -3.7677  4.5471
  144SOL     OW  430   1.361   2.555   0.172  0.2203 -0.0398  0.0976
  144SOL    HW1  431   1.313   2.573   0.084  0.6345 -0.3103  1.1222
  144SOL    HW2  432   1.342   2.459   0.199  0.0413  1.1303  2.4299
  145SOL     OW  433   2.163   1.867   2.779  0.4959  0.3478 -0.1655
  145SOL    HW1  434   2.243   1.903   2.829 -0.0840  0.5024 -3.4389
  145SOL    HW2  435   2.100   1.940   2.751  2.8914  0.7997  0.4762
  146SOL     OW  436   2.473   2.682   2.879 -0.3193  0.0637 -0.4657
  146SOL    HW1  437   2.539   2.756   2.856 -1.2775  0.8390 -1.3772
  146SOL    HW2  438   2.513   2.620   2.945 -4.1671  0.9625 -0.3697
  147SOL     OW  439   2.840   1.625   1.215 -0.2907 -0.0603  0.2573
  147SOL    HW1  440   2.776   1.678   1.152  0.0283 -0.3854  0.8430
  147SOL    HW2  441   2.787   1.590   1.292  0.8106 -1.9911  1.8678
  148SOL     OW  442   1.885   3.020   3.075  0.2688 -0.5185  0.5071
  148SOL    HW1  443   1.904   0.010   3.055  1.0546  0.7270 -0.3728
  148SOL    HW2  444   1.788   2.994   3.052 -1.9455  1.2037  2.1099
  149SOL     OW  445   0.661   1.643   2.637 -0.5976  0.0082  0.1215
  149SOL    HW1  446   0.613   1.556   2.642  0.9269  2.1707 -0.3247
  149SOL    HW2  447   0.601   1.722   2.648  1.7882  0.6029 -0.2932
  150SOL     OW  448   0.247   2.105   0.236  0.4625  0.2428  0.2246
  150SOL    HW1  449   0.278   2.174   0.305  1.0843  0.0443  0.6853
  150SOL    HW2  450   0.289   2.113   0.143 -0.4240  0.6751  3.3692
  151SOL     OW  451   0.540   1.712   0.133 -0.9774 -0.2770 -0.1425
  151SOL    HW1  452   0.491   1.677   0.211  0.2054  0.5769  0.2478
  151SOL    HW2  453   0.478   1.700   0.046 -2.3913 -1.7703 -2.8827
  152SOL     OW  454   2.659   1.716   0.677 -0.3988 -0.2710 -0.0691
  152SOL    HW1  455   2.669   1.693   0.775 -2.3374 -2.7194 -0.5132
  152SOL    HW2  456   2.734   1.668   0.625  1.1719  0.3168 -0.9278
  153SOL     OW  457   2.054   2.426   0.284 -0.1860 -0.5226 -0.1524
  153SOL    HW1  458   1.999   2.369   0.218  1.7977  0.9326 -0.3114
  153SOL    HW2  459   2.113   2.486   0.230 -0.1219  1.2067  1.5911
  154SOL     OW  460   0.750   2.879   0.412  0.2880  0.5069  0.4651
  154SOL    HW1  461   0.806   2.912   0.489 -1.1805 -1.0738  1.4670
  154SOL    HW2  462   0.658   2.910   0.431  2.4036  2.7343 -0.8281
  155SOL     OW  463   0.261   2.027   0.866 -0.2619  0.8632  0.0579
  155SOL    HW1  464   0.297   2.073   0.951  3.5320 -0.0853  0.1833
  155SOL    HW2  465   0.160   2.036   0.862 -1.0855 -1.0662 -1.8188
  156SOL     OW  466   2.378   2.419   0.038  0.3783 -0.2691 -0.2305
  156SOL    HW1  467   2.475   2.451   0.023  1.5093  0.9853 -0.4654
  156SOL    HW2  468   2.348   2.429   0.130 -0.4722 -0.0629 -4.5367
  157SOL     OW  469   0.714   1.583   1.487 -0.4983  0.0556 -0.3395
  157SOL    HW1  470   0.722   1.668   1.542 -3.5075  1.7312 -0.8111
  157SOL    HW2  471   0.707   1.605   1.387  2.2580  3.0164  0.0258
  158SOL     OW  472   1.830   0.574   0.143 -0.2022 -0.1224  0.7214
  158SOL    HW1  473   1.817   0.595   0.043 -0.2905  1.3673 -1.2362
  158SOL    HW2  474   1.741   0.575   0.199 -2.0623  1.9183  0.9906
  159SOL     OW  475   1.121   0.799   3.003 -0.1261 -0.0972  0.0596
  159SOL    HW1  476   1.194   0.747   2.952 -0.9047 -0.1042  0.2064
  159SOL    HW2  477   1.162   0.865   3.065 -0.7531 -0.5829  2.0960
  160SOL     OW  478   1.100   1.364   0.619  0.2432 -0.1472  0.7733
  160SOL    HW1  479   1.174   1.423   0.585 -0.8860 -0.9169  0.0201
  160SOL    HW2  480   1.118   1.334   0.713  1.5290  1.4155 -3.9413
  161SOL     OW  481   0.040   2.274   2.781  0.7496 -0.1819  0.4901
  161SOL    HW1  482   3.084   2.233   2.712 -0.7767  1.0284  1.2122
  161SOL    HW2  483   0.118   2.216   2.806 -3.8833  2.2743 -0.4292
  162SOL     OW  484   0.377   2.384   0.912 -0.6143  0.4239  0.1562
  162SOL    HW1  485   0.416   2.380   0.819 -0.6870 -0.0084  0.0194
  162SOL    HW2  486   0.390   2.297   0.964 -0.8987 -0.8454  0.6715
  163SOL     OW  487   0.052   0.642   2.970 -0.3847 -0.2150  0.3245
  163SOL    HW1  488   0.143   0.684   2.976  1.4935 -1.1828  1.8896
  163SOL    HW2  489   0.012   0.649   3.064 -1.1214  3.7937  0.7927
  164SOL     OW  490   0.564   0.150   2.714 -0.7641 -0.1332 -0.2386
  164SOL    HW1  491   0.630   0.217   2.757  0.6764  2.7267  0.1359
  164SOL    HW2  492   0.616   0.071   2.674 -2.6969 -0.2611  2.3148
  165SOL     OW  493   2.267   0.512   1.838 -0.4020 -0.1266  0.3838
  165SOL    HW1  494   2.315   0.517   1.927 -0.6679  1.5952  0.7074
  165SOL    HW2  495   2.336   0.528   1.760 -0.8279  0.8020 -0.3183
  166SOL     OW  496   2.022   2.820   1.469  0.3167 -0.0436 -0.1208
  166SOL    HW1  497   2.075   2.789   1.553  0.6055 -0.2198  1.0069
  166SOL    HW2  498   2.066   2.789   1.380  1.3609  1.0423 -1.7868
  167SOL     OW  499   1.106   0.622   2.302  0.0141 -0.8656 -0.0760
  167SOL    HW1  500   1.007   0.626   2.330 -3.5695 -0.3011 -1.3660
  167SOL    HW2  501   1.164   0.660   2.378 -3.4379  0.1357 -2.6715
  168SOL     OW  502   2.566   0.135   1.991 -0.2245 -0.4282  0.6422
  168SOL    HW1  503   2.604   0.230   1.988 -1.2644  1.8770  2.3193
  168SOL    HW2  504   2.499   0.124   2.067  1.4209  2.8919 -3.2118
  169SOL     OW  505   0.070   1.286   0.327 -0.3037 -0.0037  0.0046
  169SOL    HW1  506   0.040   1.358   0.392 -0.5083 -1.0955 -0.9118
  169SOL    HW2  507   3.100   1.232   0.285  0.0999  0.6665 -3.0514
  170SOL     OW  508   0.079   1.597   1.704 -0.5098  0.3283  0.2736
  170SOL    HW1  509   0.051   1.626   1.609  0.2737  0.9180 -1.3632
  170SOL    HW2  510   0.108   1.500   1.697  1.9697 -0.4916 -1.2692
  171SOL     OW  511   0.983   2.254   2.110 -0.2065 -0.2248  0.4596
  171SOL    HW1  512   0.962   2.260   2.213 -0.2224 -1.9503  0.9677
  171SOL    HW2  513   1.047   2.328   2.081 -2.7172 -0.0397  0.7386
  172SOL     OW  514   0.702   2.687   1.880 -0.2542  0.5533 -0.1257
  172SOL    HW1  515   0.772   2.640   1.944  0.2220 -1.3230 -1.1875
  172SOL    HW2  516   0.616   2.650   1.920  0.3015 -2.1761  0.5624
  173SOL     OW  517   1.338   2.370   0.837  0.2673  0.4604  0.1589
  173SOL    HW1  518   1.360   2.463   0.811  0.6970 -1.0049 -1.6068
  173SOL    HW2  519   1.398   2.325   0.904 -0.1026  2.7282  0.9351
  174SOL     OW  520   1.652   0.302   0.544 -0.3049  0.4222 -0.0857
  174SOL    HW1  521   1.643   0.320   0.642 -1.3558 -1.2908 -1.9850
  174SOL    HW2  522   1.578   0.233   0.531 -0.9924  3.5635  0.7974
  175SOL     OW  523   1.484   1.219   0.315 -0.1085 -0.0556 -0.2466
  175SOL    HW1  524   1.508   1.314   0.347  1.2806 -0.6483 -2.2883
  175SOL    HW2  525   1.392   1.188   0.344 -2.5341 -0.3809  2.1913
  176SOL     OW  526   1.581   1.046   0.607 -0.3266 -0.0894 -0.0594
  176SOL    HW1  527   1.633   1.085   0.531 -2.5589 -0.3066  2.1565
  176SOL    HW2  528   1.636   0.987   0.668 -0.8683 -0.7792 -1.3164
  177SOL     OW  529   1.304   0.789   1.217 -0.8231 -0.5198 -0.0355
  177SOL    HW1  530   1.221   0.786   1.277  0.3608  2.0952  2.3482
  177SOL    HW2  531   1.323   0.887   1.194 -0.8427  1.0003  0.0352
  178SOL     OW  532   2.467   1.592   0.094 -0.1026  0.5980 -0.1340
  178SOL    HW1  533   2.522   1.551   0.165 -0.8847 -0.4466 -1.1923
  178SOL    HW2  534   2.485   1.546   0.004 -0.0246  0.3644 -2.4155
  179SOL     OW  535   0.566   2.351   0.063  0.1222 -0.1124 -0.7707
  179SOL    HW1  536   0.631   2.416   0.106  0.1909  0.2107  0.1820
  179SOL    HW2  537   0.598   2.256   0.077 -2.2837 -3.9004  0.2219
  180SOL     OW  538   1.712   1.440   1.759 -0.0321 -0.1934  0.0944
  180SOL    HW1  539   1.709   1.402   1.850 -2.1496  3.3508 -3.2037
  180SOL    HW2  540   1.618   1.470   1.735  1.2703 -0.8910 -0.1373
  181SOL     OW  541   1.096   1.290   2.200  0.5593 -0.0923  0.0601
  181SOL    HW1  542   1.113   1.279   2.099  0.6515  2.0627  0.4340
  181SOL    HW2  543   1.172   1.254   2.256  1.9667  2.4677 -1.0529
  182SOL     OW  544   3.078   1.277   2.556  0.6038 -0.0167  0.4329
  182SOL    HW1  545   3.091   1.354   2.489  0.3334  1.5699 -0.5024
  182SOL    HW2  546   2.987   1.276   2.600 -0.4531 -1.9975 -0.6543
  183SOL     OW  547   1.814   0.696   2.101  0.2392  0.4091 -0.3173
  183SOL    HW1  548   1.906   0.744   2.083 -3.6536  1.2834 -0.9544
  183SOL    HW2  549   1.821   0.593   2.100 -0.2905 -1.5294  2.1602
  184SOL     OW  550   0.220   0.540   1.641 -0.1498 -0.3683 -0.0819
  184SOL    HW1  551   0.323   0.553   1.642  1.4551  0.0607 -2.4577
  184SOL    HW2  552   0.177   0.622   1.598 -1.4806  0.5283 -0.7975
  185SOL     OW  553   2.300   1.865   0.587 -0.1070 -0.0169  0.0732
  185SOL    HW1  554   2.265   1.956   0.548  0.1267  2.7890 -1.9268
  185SOL    HW2  555   2.376   1.830   0.529  1.0121  3.2356  1.5637
  186SOL     OW  556   0.535   1.884   2.913  0.0332 -0.6086  0.5032
  186SOL    HW1  557   0.500   1.874   2.818 -0.4038  0.8029 -1.5775
  186SOL    HW2  558   0.637   1.896   2.906  1.7352  2.0161  0.2990
  187SOL     OW  559   2.322   1.948   2.990  0.0735 -0.1767 -0.2301
  187SOL    HW1  560   2.302   1.876   3.058  1.4027  2.0198 -1.4302
  187SOL    HW2  561   2.424   1.959   2.976  0.6924 -0.9673 -0.7730
  188SOL     OW  562   0.753   2.487   0.690 -0.1310 -0.3557  0.2497
  188SOL    HW1  563   0.823   2.517   0.751 -3.5445 -1.3100 -0.0097
  188SOL    HW2  564   0.732   2.549   0.614 -0.8380  1.0060  0.9986
  189SOL     OW  565   2.193   0.784   2.676  0.3285  0.5390  0.2034
  189SOL    HW1  566   2.097   0.764   2.711 -0.9388 -0.6878 -1.1785
  189SOL    HW2  567   2.183   0.838   2.589  3.4804 -0.0081  1.1428
  190SOL     OW  568   1.148   1.879   2.285 -0.3253 -0.2293  0.1788
  190SOL    HW1  569   1.194   1.932   2.359 -1.1344  1.1425 -2.1180
  190SOL    HW2  570   1.070   1.828   2.327  1.3221  0.0834 -0.2762
  191SOL     OW  571   2.516   0.807   1.515  0.5879 -0.1564 -0.0220
  191SOL    HW1  572   2.608   0.852   1.513 -1.2851 -0.1116 -1.9564
  191SOL    HW2  573   2.456   0.850   1.443  1.3323  0.0826 -0.8405
  192SOL     OW  574   2.145   0.400   2.145 -0.2917  0.0041 -0.0957
  192SOL    HW1  575   2.243   0.397   2.123 -4.4817 -2.0579  3.3594
  192SOL    HW2  576   2.121   0.326   2.212 -0.2462 -0.1877  0.0524
  193SOL     OW  577   0.249   0.276   0.832  0.0177  0.1238 -0.0012
  193SOL    HW1  578   0.225   0.208   0.908  3.5894 -0.6775 -0.8268
  193SOL    HW2  579   0.176   0.345   0.812 -0.6022 -0.9408  3.0395
  194SOL     OW  580   1.185   2.590   1.631  0.1509 -0.1241 -0.0954
  194SOL    HW1  581   1.187   2.667   1.565 -0.0394  0.6518 -0.3548
  194SOL    HW2  582   1.238   2.506   1.597  0.7362 -2.3301 -1.1693
  195SOL     OW  583   2.702   0.755   0.764  0.6388 -0.1163  0.5590
  195SOL    HW1  584   2.634   0.679   0.750  1.0552 -2.2871 -1.8540
  195SOL    HW2  585   2.667   0.839   0.812  0.7832 -0.5365 -0.1870
  196SOL     OW  586   1.173   1.866   1.687  0.4738 -0.2292 -0.2236
  196SOL    HW1  587   1.095   1.883   1.626 -1.2303  1.3655 -1.1279
  196SOL    HW2  588   1.246   1.815   1.632  0.0767 -4.9812  2.6878
  197SOL     OW  589   0.557   0.263   2.414 -0.4976  0.2625  0.0512
  197SOL    HW1  590   0.555   0.171   2.447 -2.5163  1.0551 -0.3351
  197SOL    HW2  591   0.499   0.325   2.469 -1.0782  0.9658 -0.2757
  198SOL     OW  592   1.313   1.094   0.699 -0.2880 -0.2976  0.0662
  198SOL    HW1  593   1.409   1.092   0.660  0.6580 -2.1340 -1.9126
  198SOL    HW2  594   1.310   1.179   0.749  1.4997 -2.5391 -3.0287
  199SOL     OW  595   2.415   0.442   2.109  0.1966  0.4314 -0.3450
  199SOL    HW1  596   2.440   0.508   2.186  0.8699  1.8666  0.1464
  199SOL    HW2  597   2.479   0.431   2.034 -0.9298  0.5645  2.1156
  200SOL     OW  598   2.474   2.591   2.088 -0.1644 -0.9002  0.0064
  200SOL    HW1  599   2.519   2.626   2.168 -0.7170 -0.6337 -0.5312
  200SOL    HW2  600   2.490   2.653   2.007 -1.7377  2.6104 -2.5995
  201SOL     OW  601   2.163   0.232   1.690  0.0428  0.0934 -0.3746
  201SOL    HW1  602   2.124   0.325   1.700 -0.5434 -0.9634 -1.6600
  201SOL    HW2  603   2.091   0.159   1.697  3.0944 -2.2946  0.0735
  202SOL     OW  604   2.283   2.962   0.125 -0.5659  0.4487  0.1812
  202SOL    HW1  605   2.227   3.006   0.196  0.4306 -0.0538 -0.2699
  202SOL    HW2  606   2.231   2.907   0.060 -0.2864  0.2726  2.1356
  203SOL     OW  607   0.763   2.044   2.276  0.2866  0.0530  0.5549
  203SOL    HW1  608   0.810   1.969   2.334 -1.1255 -2.7548  1.6478
  203SOL    HW2  609   0.797   2.136   2.299 -1.1370  0.6521  0.8781
  204SOL     OW  610   0.970   1.379   2.728 -0.2447  0.5172  0.0722
  204SOL    HW1  611   0.969   1.367   2.627  0.0874  1.9931  0.5782
  204SOL    HW2  612   0.884   1.343   2.770  0.5093  2.7383  0.9871
  205SOL     OW  613   0.974   0.973   1.251  0.4232  0.1187  0.0831
  205SOL    HW1  614   1.016   0.900   1.305 -1.2082 -0.6301 -3.2124
  205SOL    HW2  615   1.044   1.020   1.199  0.2972  2.3317  2.3550
  206SOL     OW  616   0.802   0.596   2.752  0.5114 -0.7275  0.7489
  206SOL    HW1  617   0.779   0.570   2.655  0.7380 -0.4659  2.2498
  206SOL    HW2  618   0.774   0.518   2.811 -1.1787  1.6047 -3.4783
  207SOL     OW  619   1.774   2.621   1.862  0.2261 -0.2814 -0.3764
  207SOL    HW1  620   1.846   2.685   1.901 -0.0309  1.0905  2.4135
  207SOL    HW2  621   1.724   2.668   1.788  2.4937 -1.3726  1.1753
  208SOL     OW  622   0.885   2.612   1.029  0.2807  0.5708  0.0719
  208SOL    HW1  623   0.884   2.668   0.942  0.4574 -1.4671  0.8595
  208SOL    HW2  624   0.811   2.540   1.026 -1.5536 -1.3588  1.7985
  209SOL     OW  625   1.493   1.435   2.647 -0.5615  0.2034 -0.5353
  209SOL    HW1  626   1.532   1.388   2.728  1.7670 -1.8792  1.9581
  209SOL    HW2  627   1.478   1.369   2.570 -1.5777  0.6519 -0.2651
  210SOL     OW  628   2.069   0.609   0.999 -0.4157  0.1940 -0.0326
  210SOL    HW1  629   2.151   0.574   1.052  1.7652 -0.5000 -1.9736
  210SOL    HW2  630   2.105   0.683   0.935  0.8985 -0.1939 -2.9818
  211SOL     OW  631   1.113   2.465   0.362 -0.4172  0.6634  0.2979
  211SOL    HW1  632   1.070   2.558   0.352  1.8115 -2.9516 -0.9621
  211SOL    HW2  633   1.047   2.388   0.349  0.7803 -3.0975 -0.0684
  212SOL     OW  634   2.225   1.944   0.231  0.1815 -0.3240 -0.0137
  212SOL    HW1  635   2.149   1.993   0.192  1.3237 -2.4014  0.4944
  212SOL    HW2  636   2.237   1.854   0.187  0.7510  3.5181 -0.1357
  213SOL     OW  637   1.714   0.373   2.821 -0.6766  0.4235  0.4599
  213SOL    HW1  638   1.783   0.326   2.764  1.4031  0.2704 -2.0709
  213SOL    HW2  639   1.650   0.433   2.763 -0.1461 -0.6980 -0.9340
  214SOL     OW  640   1.123   1.700   1.900  0.3817 -0.1496 -0.1728
  214SOL    HW1  641   1.024   1.673   1.901 -2.0747  0.6095 -2.8547
  214SOL    HW2  642   1.145   1.780   1.835  2.0755  0.7120 -0.7636
  215SOL     OW  643   0.705   1.803   0.461  0.8842 -0.2118 -0.2999
  215SOL    HW1  644   0.745   1.720   0.420 -1.2011 -0.2266 -0.4134
  215SOL    HW2  645   0.604   1.777   0.482 -2.4224 -1.2079  0.1615
  216SOL     OW  646   0.241   2.990   2.584 -0.1700 -0.3565  0.0394
  216SOL    HW1  647   0.319   2.931   2.615  0.1793 -1.0091 -1.9513
  216SOL    HW2  648   0.230   2.992   2.480  0.7307 -2.6218 -2.5137
  217SOL     OW  649   2.537   0.733   1.090 -0.2786  0.0895  0.3904
  217SOL    HW1  650   2.518   0.656   1.026 -0.2298  2.7097  0.8157
  217SOL    HW2  651   2.630   0.712   1.132  2.3283  0.7379  1.6347
  218SOL     OW  652   1.584   1.748   2.022  0.1543  0.0493 -0.2149
  218SOL    HW1  653   1.632   1.711   2.103  0.7525  1.0719  0.1882
  218SOL    HW2  654   1.489   1.723   2.031 -0.0453  0.7160 -1.6559
  219SOL     OW  655   2.098   1.580   3.058 -0.0696 -0.0484 -0.1851
  219SOL    HW1  656   2.150   1.538   2.981 -1.2746 -0.2435 -2.4443
  219SOL    HW2  657   2.003   1.590   3.021 -0.4103 -0.6243  1.8564
  220SOL     OW  658   1.860   1.095   0.652  0.2059  0.1238  0.4654
  220SOL    HW1  659   1.922   1.016   0.636  1.0845 -1.2200  0.4243
  220SOL    HW2  660   1.867   1.159   0.578  0.8691 -1.1999  3.1444
  221SOL     OW  661   0.310   0.740   3.048  0.0230  0.1181  0.2682
  221SOL    HW1  662   0.314   0.699   0.033  0.8848  1.2284 -0.7436
  221SOL    HW2  663   0.350   0.677   2.971  0.3151 -1.8085 -0.0825
  222SOL     OW  664   1.601   1.468   0.457 -0.6152  0.0412 -0.2025
  222SOL    HW1  665   1.666   1.450   0.542  1.6449 -1.2219  2.9323
  222SOL    HW2  666   1.642   1.530   0.393 -1.4039 -0.9006  1.9359
  223SOL     OW  667   1.356   0.188   0.173 -0.4358 -0.1181 -0.0905
  223SOL    HW1  668   1.329   0.230   0.082 -0.0984  0.1246 -0.2816
  223SOL    HW2  669   1.419   0.249   0.230  2.1213  2.4483  2.3454
  224SOL     OW  670   1.858   3.033   1.532  0.7395  0.4349 -0.5156
  224SOL    HW1  671   1.761   2.997   1.536 -0.2212 -4.1084 -0.5522
  224SOL    HW2  672   1.917   2.962   1.478 -0.0181 -0.5121 -0.5795
  225SOL     OW  673   0.668   2.228   1.159  0.2556 -0.4179  0.1005
  225SOL    HW1  674   0.678   2.220   1.264  0.1396  1.3690  3.2172
  225SOL    HW2  675   0.667   2.324   1.130  1.7265 -1.1902  0.4527
  226SOL     OW  676   1.151   1.333   2.929 -0.7699  0.1163 -0.5624
  226SOL    HW1  677   1.078   1.367   2.871  0.3129 -0.7750  1.7396
  226SOL    HW2  678   1.179   1.405   2.998  0.5563  1.1134  1.7358
  227SOL     OW  679   1.006   1.461   0.921 -0.2249 -0.4114  0.1481
  227SOL    HW1  680   1.011   1.536   0.849 -2.0731 -0.0623 -0.3628
  227SOL    HW2  681   1.008   1.490   1.016  0.5367  3.1718  1.6102
  228SOL     OW  682   0.423   1.790   0.494 -0.3310 -0.5099  0.0907
  228SOL    HW1  683   0.363   1.719   0.530 -0.9025  0.4585 -3.0455
  228SOL    HW2  684   0.380   1.838   0.416 -0.7748  0.1067  0.5997
  229SOL     OW  685   1.646   0.056   2.796  0.3221  0.2108 -0.3801
  229SOL    HW1  686   1.714   0.110   2.745 -1.3100 -0.8257  1.0165
  229SOL    HW2  687   1.559   0.108   2.819 -1.8819 -0.4247  2.4896
  230SOL     OW  688   1.474   0.862   2.707  0.0256  0.2594 -0.4929
  230SOL    HW1  689   1.497   0.841   2.610 -0.8574 -0.1102  1.3650
  230SOL    HW2  690   1.466   0.960   2.731  0.2224  0.9175  0.3647
  231SOL     OW  691   1.162   1.573   2.485 -0.1345  0.3457  0.0277
  231SOL    HW1  692   1.210   1.565   2.575 -1.1954  0.0842  1.0470
  231SOL    HW2  693   1.067   1.602   2.499 -2.2845 -1.3996 -0.6198
  232SOL     OW  694   2.329   2.379   0.307  0.3193 -0.0418 -0.3201
  232SOL    HW1  695   2.230   2.387   0.322  1.2193 -0.6379  0.3969
  232SOL    HW2  696   2.365   2.287   0.328  1.5821  2.1147 -4.0563
  233SOL     OW  697   2.558   2.544   0.333 -0.0610 -0.1796  0.0277
  233SOL    HW1  698   2.513   2.626   0.281 -4.0508  0.9419 -1.9697
  233SOL    HW2  699   2.496   2.465   0.328 -0.6666 -0.4211  0.5869
  234SOL     OW  700   0.712   0.875   2.807  0.0961  0.0773 -0.3161
  234SOL    HW1  701   0.743   0.782   2.777  1.2890 -1.7915 -0.5049
  234SOL    HW2  702   0.793   0.933   2.842  1.2796 -2.0610  1.2642
  235SOL     OW  703   2.851   0.311   2.915  0.3910 -0.6757  0.5000
  235SOL    HW1  704   2.860   0.223   2.965 -1.7995  0.2771  0.7211
  235SOL    HW2  705   2.792   0.294   2.834  1.2320  0.2871  3.7175
  236SOL     OW  706   2.030   2.471   1.479 -0.2812  0.2990  0.1105
  236SOL    HW1  707   1.971   2.388   1.469 -2.9753  1.4175 -0.0636
  236SOL    HW2  708   2.002   2.521   1.563  1.7989  2.0101  1.4700
  237SOL     OW  709   0.817   1.575   1.876  0.5637  0.0928  0.0140
  237SOL    HW1  710   0.807   1.677   1.891  0.6069 -0.2280  1.5694
  237SOL    HW2  711   0.823   1.526   1.962  2.4132  0.1427  0.8468
  238SOL     OW  712   1.506   0.510   2.706  0.1898 -1.0279 -0.2829
  238SOL    HW1  713   1.425   0.550   2.761 -1.2228 -0.3649 -0.4891
  238SOL    HW2  714   1.481   0.487   2.608  1.1821 -3.6578 -2.5456
  239SOL     OW  715   0.268   2.102   1.712 -0.1918  1.1241  0.9675
  239SOL    HW1  716   0.350   2.130   1.660 -2.3163 -0.1056  2.3254
  239SOL    HW2  717   0.250   2.000   1.717 -0.6536 -1.5370 -2.2126
  240SOL     OW  718   2.507   2.685   0.602 -0.0131 -0.5139 -0.4679
  240SOL    HW1  719   2.428   2.737   0.578  1.4031 -1.5852  1.3291
  240SOL    HW2  720   2.560   2.646   0.519  0.6548 -0.0677  1.1891
  241SOL     OW  721   2.571   0.956   0.919  0.3302 -0.4867 -0.0233
  241SOL    HW1  722   2.532   0.883   0.977  0.7455  2.0646  1.0337
  241SOL    HW2  723   2.499   1.004   0.860  0.1934  0.4698 -2.8154
  242SOL     OW  724   2.197   2.619   2.115  0.3546 -0.0879 -0.3390
  242SOL    HW1  725   2.132   2.540   2.107 -2.3587 -0.7398  3.2860
  242SOL    HW2  726   2.295   2.598   2.106 -0.7112  3.1105  0.1851
  243SOL     OW  727   0.722   2.269   1.430 -0.4396 -0.1206  0.0536
  243SOL    HW1  728   0.804   2.251   1.491  0.0500 -2.4134 -0.8087
  243SOL    HW2  729   0.735   2.354   1.370  3.0117  1.8047 -2.6017
  244SOL     OW  730   1.848   0.188   2.681 -0.2370 -0.0366  0.0924
  244SOL    HW1  731   1.803   0.194   2.588  0.0877 -2.9349 -1.2619
  244SOL    HW2  732   1.916   0.109   2.682  1.0144 -2.2489 -0.5758
  245SOL     OW  733   1.278   0.171   1.275 -0.9675 -0.3247 -0.0544
  245SOL    HW1  734   1.294   0.196   1.176  0.6888 -0.6012 -1.6037
  245SOL    HW2  735   1.214   0.093   1.270  1.7291 -1.7822  3.6911
  246SOL     OW  736   1.894   2.644   0.145  0.0171  0.4943  0.0344
  246SOL    HW1  737   1.985   2.602   0.158  0.7530 -2.1243 -0.6053
  246SOL    HW2  738   1.824   2.590   0.196  0.7968 -0.5681  0.8238
  247SOL     OW  739   1.300   0.685   2.501  0.1986  0.3784 -0.3050
  247SOL    HW1  740   1.240   0.671   2.584  0.4367  0.0029  2.7706
  247SOL    HW2  741   1.344   0.593   2.480 -0.6011 -0.1446  1.6052
  248SOL     OW  742   0.721   1.831   1.630 -0.3947 -0.4280  0.0250
  248SOL    HW1  743   0.801   1.859   1.570  2.0009  0.0270 -0.0315
  248SOL    HW2  744   0.697   1.900   1.704  1.5816 -2.0458  1.0596
  249SOL     OW  745   2.340   0.338   0.530  0.2839  0.0824 -0.4600
  249SOL    HW1  746   2.342   0.342   0.427 -1.6687  1.2201  1.7982
  249SOL    HW2  747   2.359   0.432   0.560  1.1946 -1.1390  0.8113
  250SOL     OW  748   0.060   0.492   0.261 -0.0157  0.2038  0.2507
  250SOL    HW1  749   0.020   0.488   0.355  0.9467  0.4431 -0.3746
  250SOL    HW2  750   0.012   0.560   0.202  2.6881  0.8009  0.5775
  251SOL     OW  751   1.450   0.533   3.038 -0.4904  0.1831  0.0386
  251SOL    HW1  752   1.488   0.584   0.013 -2.4459 -0.1665 -0.0376
  251SOL    HW2  753   1.396   0.593   2.975 -1.6749 -0.9685  1.7478
  252SOL     OW  754   1.572   1.785   1.760 -0.6834 -0.1213 -0.1154
  252SOL    HW1  755   1.575   1.796   1.865  0.2075 -2.1898  3.0407
  252SOL    HW2  756   1.536   1.697   1.728 -0.5321 -0.4497 -0.5473
  253SOL     OW  757   2.501   2.278   1.250  0.9532  0.7350  0.2080
  253SOL    HW1  758   2.572   2.349   1.262 -0.3183  3.3096 -1.6228
  253SOL    HW2  759   2.439   2.305   1.175 -0.3406  1.7066  1.2318
  254SOL     OW  760   2.759   1.346   1.007  0.2962 -0.0400  0.2974
  254SOL    HW1  761   2.831   1.389   1.061  1.0580  0.1690 -2.9074
  254SOL    HW2  762   2.766   1.372   0.910 -1.8402  2.4011  1.0687
  255SOL     OW  763   1.227   0.309   1.026  0.4570 -0.0574 -0.0752
  255SOL    HW1  764   1.136   0.268   1.046 -1.6895  0.5305 -1.1409
  255SOL    HW2  765   1.219   0.411   1.028 -1.8340  2.5595  0.2484
  256SOL     OW  766   1.785   2.386   1.191  0.2190 -0.7986  0.3932
  256SOL    HW1  767   1.741   2.295   1.171 -1.1272  0.4784 -0.5637
  256SOL    HW2  768   1.869   2.404   1.137  1.9951 -0.7125  2.3592
  257SOL     OW  769   0.752   3.038   2.613  0.2625  0.1024 -0.1884
  257SOL    HW1  770   0.743   2.941   2.652 -0.2792 -0.7084  1.8777
  257SOL    HW2  771   0.684   3.053   2.537  0.4110 -1.5512 -2.4090
  258SOL     OW  772   0.861   2.245   0.521 -0.1616  0.7036 -0.1149
  258SOL    HW1  773   0.842   2.309   0.596  0.2382  2.2097  0.7010
  258SOL    HW2  774   0.792   2.170   0.525  2.0652 -0.2252  0.7005
  259SOL     OW  775   1.361   3.000   2.653 -0.6790 -0.1069  0.3719
  259SOL    HW1  776   1.261   2.979   2.640  1.4248 -0.7493 -1.3426
  259SOL    HW2  777   1.407   2.922   2.612 -1.9409 -0.4393 -0.2575
  260SOL     OW  778   2.249   0.646   1.427 -0.1290 -0.3045  0.1755
  260SOL    HW1  779   2.157   0.628   1.461  1.0935 -1.1785  0.9572
  260SOL    HW2  780   2.318   0.607   1.489  1.8651  1.6634  0.4947
  261SOL     OW  781   0.730   0.498   2.500  0.1099 -0.2379 -0.2932
  261SOL    HW1  782   0.636   0.487   2.534 -1.3837  0.1898  1.9549
  261SOL    HW2  783   0.739   0.571   2.431 -0.9250 -2.5949 -0.2748
  262SOL     OW  784   0.459   2.255   2.248 -0.2495  0.2077 -0.1012
  262SOL    HW1  785   0.466   2.174   2.307 -1.1154  1.1194 -1.3743
  262SOL    HW2  786   0.393   2.320   2.285 -0.1115 -0.2222 -1.3031
  263SOL     OW  787   0.115   1.719   2.388  0.2377 -0.1873 -0.0369
  263SOL    HW1  788   0.062   1.795   2.432 -1.4527  0.3361  1.0051
  263SOL    HW2  789   0.169   1.761   2.310  0.2189 -1.8033 -0.9745
  264SOL     OW  790   1.077   1.014   0.808  0.6449  0.2151  0.0417
  264SOL    HW1  791   1.024   0.953   0.748 -1.8598  0.8730  0.3594
  264SOL    HW2  792   1.160   1.049   0.760  0.4820 -2.2209 -1.9163
  265SOL     OW  793   1.269   2.718   0.624 -0.0457  0.3309 -0.1002
  265SOL    HW1  794   1.192   2.653   0.612  2.8670  0.6232  0.9405
  265SOL    HW2  795   1.326   2.698   0.710  1.4507  1.5126  1.2737
  266SOL     OW  796   1.706   0.960   1.531  0.5887  0.0726  0.4734
  266SOL    HW1  797   1.775   0.896   1.494  0.0866 -1.3479 -1.5232
  266SOL    HW2  798   1.746   1.051   1.556  1.7066  0.6471 -0.2464
  267SOL     OW  799   2.425   1.127   2.757 -0.4933  0.1127 -0.3628
  267SOL    HW1  800   2.481   1.136   2.669  2.3629 -0.6534 -4.8574
  267SOL    HW2  801   2.336   1.085   2.741  2.0315  0.1441 -2.1375
  268SOL     OW  802   1.569   0.395   0.291  0.1543 -0.2139 -0.7519
  268SOL    HW1  803   1.617   0.375   0.381  0.0835 -0.9685 -0.3584
  268SOL    HW2  804   1.617   0.349   0.214  0.3644  3.2460 -1.5344
  269SOL     OW  805   0.018   0.653   2.692  0.1353 -0.8736  0.0790
  269SOL    HW1  806   3.085   0.573   2.650  0.4531  1.0992  0.3356
  269SOL    HW2  807   0.003   0.648   2.795  0.3882 -0.3928  0.7830
  270SOL     OW  808   0.178   1.408   2.950 -0.1751 -0.5893 -0.1041
  270SOL    HW1  809   0.158   1.359   3.035  0.9003  1.5605 -4.5594
  270SOL    HW2  810   0.168   1.346   2.869 -0.8876 -1.1912  0.4373
  271SOL     OW  811   2.663   0.929   0.134 -1.1327  0.4596 -0.2056
  271SOL    HW1  812   2.650   0.959   0.036  0.5789  1.6504 -1.1466
  271SOL    HW2  813   2.707   0.835   0.146  0.7409 -2.0120  1.1714
  272SOL     OW  814   2.643   2.275   2.366  0.3309 -0.5052 -0.3792
  272SOL    HW1  815   2.557   2.220   2.371 -2.5282 -0.7632  2.0245
  272SOL    HW2  816   2.628   2.374   2.388  0.3516  0.5277 -0.3844
  273SOL     OW  817   0.155   3.106   0.080 -0.2776  0.3870 -0.3225
  273SOL    HW1  818   0.085   0.073   0.099  1.3304 -0.8659  2.6398
  273SOL    HW2  819   0.167   3.036   0.157 -0.0073 -2.4769 -0.0937
  274SOL     OW  820   0.786   2.226   0.841 -0.0056 -0.5877 -0.2400
  274SOL    HW1  821   0.774   2.147   0.786  0.7661  1.0510 -1.1426
  274SOL    HW2  822   0.886   2.244   0.855 -0.0216  0.6754  1.0200
  275SOL     OW  823   2.265   0.607   0.688  0.0716 -0.3555  0.2716
  275SOL    HW1  824   2.366   0.605   0.697  0.2936  2.5781  1.0355
  275SOL    HW2  825   2.222   0.689   0.725 -0.9182  5.0003  1.6819
  276SOL     OW  826   2.423   1.513   1.291  0.6003 -0.4127 -0.1672
  276SOL    HW1  827   2.324   1.511   1.285 -0.3205 -0.3915 -0.1798
  276SOL    HW2  828   2.453   1.610   1.293  2.2595  1.2658 -0.5078
  277SOL     OW  829   2.253   0.140   0.984  0.0979  0.5949  0.9372
  277SOL    HW1  830   2.201   0.182   0.905  1.4084  1.1491 -1.7602
  277SOL    HW2  831   2.224   0.181   1.077  0.4467  1.3231  3.4994
  278SOL     OW  832   1.483   2.634   2.241  0.3055  0.0988  0.0464
  278SOL    HW1  833   1.414   2.563   2.222 -0.4064  1.2552  1.3847
  278SOL    HW2  834   1.451   2.703   2.310 -1.2615  2.8484  1.3005
  279SOL     OW  835   1.272   2.051   1.001  0.6580 -0.0829 -0.4281
  279SOL    HW1  836   1.218   2.080   1.085 -0.7113 -0.9226 -2.3652
  279SOL    HW2  837   1.354   2.114   0.996  1.7774  3.2095  0.7068
  280SOL     OW  838   0.580   1.003   1.175 -0.5495  0.2345 -0.0084
  280SOL    HW1  839   0.492   1.017   1.228  0.2170 -1.6231  1.8330
  280SOL    HW2  840   0.628   0.922   1.206 -1.6312  2.5170  0.2507
  281SOL     OW  841   2.414   1.298   2.974 -0.0579 -0.7736 -0.1296
  281SOL    HW1  842   2.406   1.245   2.890  0.8697  0.6578  2.0229
  281SOL    HW2  843   2.462   1.386   2.972  2.8308 -3.2236 -0.1248
  282SOL     OW  844   0.398   1.492   0.270  1.0788  0.2823  0.0038
  282SOL    HW1  845   0.297   1.492   0.278 -1.8456 -0.5257 -3.2943
  282SOL    HW2  846   0.430   1.466   0.176  1.5379 -1.9255  1.5955
  283SOL     OW  847   1.778   2.518   2.931 -0.2319 -0.2168  0.0975
  283SOL    HW1  848   1.878   2.501   2.959  3.3155  0.0268  1.2328
  283SOL    HW2  849   1.766   2.506   2.832  1.7727  0.3699 -1.1861
  284SOL     OW  850   1.001   0.081   0.731 -0.8252 -0.7245  0.0698
  284SOL    HW1  851   1.104   0.068   0.720 -0.2581 -0.8080 -0.1248
  284SOL    HW2  852   0.965   0.161   0.680 -0.1332  1.3151  2.8438
  285SOL     OW  853   2.168   1.176   2.632  0.3687 -0.0264  0.2914
  285SOL    HW1  854   2.184   1.258   2.576 -1.9889 -1.9113  1.2917
  285SOL    HW2  855   2.113   1.193   2.712  0.1862  0.1601  0.8249
  286SOL     OW  856   1.687   2.682   0.876  0.1809 -0.0734  0.0998
  286SOL    HW1  857   1.716   2.587   0.881 -0.1476  0.3851 -0.7406
  286SOL    HW2  858   1.743   2.742   0.941 -0.1573  1.6022 -0.5098
  287SOL     OW  859   1.288   0.363   0.753 -0.1999 -0.0394 -0.2434
  287SOL    HW1  860   1.273   0.333   0.850  0.8281  0.2755 -3.1211
  287SOL    HW2  861   1.277   0.465   0.746 -0.7056  1.4074 -0.7048
  288SOL     OW  862   0.852   2.501   2.795  0.4373  0.1127  0.3070
  288SOL    HW1  863   0.937   2.534   2.833  0.0559 -2.5291  1.4706
  288SOL    HW2  864   0.773   2.516   2.860 -1.5470  0.9059 -0.9714
  289SOL     OW  865   0.112   1.590   0.851  0.0608 -0.6404 -0.4473
  289SOL    HW1  866   0.131   1.506   0.911 -0.0782  1.0558  1.9029
  289SOL    HW2  867   0.079   1.669   0.908 -1.8385 -1.2450  1.6026
  290SOL     OW  868   1.257   1.947   0.754  0.3378  0.3914  0.5125
  290SOL    HW1  869   1.199   2.007   0.696 -0.6609 -2.4331 -0.4726
  290SOL    HW2  870   1.282   1.992   0.841  2.6782  1.0316  1.0609
  291SOL     OW  871   1.609   2.933   0.080  0.4758  0.6230  0.0039
  291SOL    HW1  872   1.552   2.868   0.137 -0.1443 -1.3786 -0.6779
  291SOL    HW2  873   1.546   2.998   0.027 -1.3687 -0.9461 -0.6042
  292SOL     OW  874   0.520   0.373   2.178 -0.0576  0.4094 -0.4819
  292SOL    HW1  875   0.556   0.325   2.266 -1.1655  0.2691 -0.9850
  292SOL    HW2  876   0.515   0.475   2.203  2.0145  3.4842  3.2888
  293SOL     OW  877   2.550   2.000   1.025  0.0276 -0.1369  0.3252
  293SOL    HW1  878   2.497   1.972   0.938  1.4526  2.0010  2.0474
  293SOL    HW2  879   2.487   2.018   1.101 -3.4023  0.6113  1.2985
  294SOL     OW  880   0.777   0.092   2.262  0.1121  0.0681 -0.2682
  294SOL    HW1  881   0.683   0.056   2.273 -0.5067 -1.1811  1.1608
  294SOL    HW2  882   0.844   0.031   2.307  0.0583 -0.2493  2.2905
  295SOL     OW  883   1.355   1.841   1.133  0.8656  0.0330  0.6581
  295SOL    HW1  884   1.287   1.773   1.168 -1.9191 -0.1114 -1.5975
  295SOL    HW2  885   1.313   1.922   1.079 -0.8308  4.5250 -0.0916
  296SOL     OW  886   2.388   2.122   0.317 -0.1181 -0.2034  0.1710
  296SOL    HW1  887   2.326   2.046   0.285 -0.2662 -0.9616 -1.0744
  296SOL    HW2  888   2.480   2.128   0.264  2.5694 -0.0750 -1.5857
  297SOL     OW  889   2.423   0.087   0.304 -0.5309  0.1625 -0.4606
  297SOL    HW1  890   2.320   0.075   0.314 -1.3290  2.2660 -1.5489
  297SOL    HW2  891   2.476   0.029   0.376 -0.4963  0.1869 -0.1565
  298SOL     OW  892   0.990   0.217   2.878  0.9514 -0.4200 -0.0890
  298SOL    HW1  893   0.995   0.188   2.780 -1.4008 -2.2157 -1.5475
  298SOL    HW2  894   1.037   0.305   2.903  1.6973 -0.5143 -0.2538
  299SOL     OW  895   0.687   2.451   2.362 -0.0697  0.1470 -0.1234
  299SOL    HW1  896   0.651   2.433   2.270  1.9046 -1.6460 -1.4161
  299SOL    HW2  897   0.612   2.446   2.432  0.3069  1.2767 -1.6657
  300SOL     OW  898   2.900   3.026   2.501 -0.2970  0.3487 -0.2913
  300SOL    HW1  899   2.903   0.018   2.480 -1.0994 -0.6646  0.6488
  300SOL    HW2  900   2.936   3.001   2.595  1.2913  0.5966  0.1304
  301SOL     OW  901   1.200   0.453   1.646 -0.0980 -0.1772 -0.0631
  301SOL    HW1  902   1.239   0.445   1.551  1.8405  2.7228  0.2364
  301SOL    HW2  903   1.244   0.381   1.705  1.2997 -0.0926  0.3342
  302SOL     OW  904   3.082   2.385   3.046 -0.2960  0.1473  0.6996
  302SOL    HW1  905   0.000   2.335   0.026 -0.5261 -0.3344  1.2972
  302SOL    HW2  906   3.080   2.322   2.970 -1.0931  0.9073  3.6992
  303SOL     OW  907   2.083   2.147   1.548 -0.2854  0.2860 -0.4000
  303SOL    HW1  908   2.004   2.189   1.499 -0.3875 -2.0682  1.0293
  303SOL    HW2  909   2.114   2.206   1.628 -1.9425 -1.8294 -1.2611
  304SOL     OW  910   2.747   0.965   1.523 -0.4751  0.1763 -0.2366
  304SOL    HW1  911   2.801   0.947   1.437  0.4688  0.5846 -1.3123
  304SOL    HW2  912   2.803   1.010   1.593  0.1657  0.9094 -1.2700
  305SOL     OW  913   0.612   1.730   0.825  0.3104 -0.0331  0.2697
  305SOL    HW1  914   0.668   1.810   0.860 -1.9691 -0.6003  1.9117
  305SOL    HW2  915   0.514   1.740   0.860  0.4752 -0.3778 -0.2271
  306SOL     OW  916   0.472   1.496   2.292 -0.1042 -0.2482 -0.5733
  306SOL    HW1  917   0.524   1.586   2.288  1.2256  2.7306 -0.7072
  306SOL    HW2  918   0.419   1.496   2.379  0.4980  2.1514 -0.3575
  307SOL     OW  919   0.976   0.136   1.443  0.2734 -0.0716  0.2899
  307SOL    HW1  920   1.019   0.179   1.525 -0.5282 -0.6990 -2.7813
  307SOL    HW2  921   1.035   0.077   1.388 -0.6790  0.3760 -1.5665
  308SOL     OW  922   3.069   1.132   1.261  0.0116 -0.3612 -0.3873
  308SOL    HW1  923   2.988   1.083   1.286  0.3568  2.2779 -0.1656
  308SOL    HW2  924   3.070   1.147   1.158 -0.2574 -0.0247 -1.2985
  309SOL     OW  925   2.474   1.329   1.095  0.2667 -0.3975  0.7153
  309SOL    HW1  926   2.464   1.397   1.169 -0.9534 -1.5291 -0.2313
  309SOL    HW2  927   2.566   1.324   1.057 -4.0098 -0.6922 -0.0935
  310SOL     OW  928   0.323   2.013   2.546 -0.3860  0.4173  0.0815
  310SOL    HW1  929   0.401   2.015   2.477 -0.1071 -0.1063 -4.1403
  310SOL    HW2  930   0.245   2.077   2.515  1.4252  0.4178  0.8549
  311SOL     OW  931   2.582   2.769   2.346  0.0196 -0.3283 -0.3024
  311SOL    HW1  932   2.607   2.831   2.266  2.4308  3.8943 -0.9344
  311SOL    HW2  933   2.569   2.823   2.431  1.1030 -0.2785  1.8827
  312SOL     OW  934   2.065   2.069   3.054 -0.2270 -0.2689 -0.4901
  312SOL    HW1  935   2.033   2.150   3.001 -0.2821  0.5041  0.8686
  312SOL    HW2  936   2.157   2.035   3.013  2.7997 -3.0776 -0.8776
  313SOL     OW  937   0.035   2.971   0.686  0.1953 -0.7681 -0.1805
  313SOL    HW1  938   0.130   2.951   0.676  0.4432  1.8567  0.6520
  313SOL    HW2  939   0.022   3.071   0.691 -0.0898  1.0487 -0.9994
  314SOL     OW  940   1.913   1.017   2.819 -0.6212 -0.4236  0.1164
  314SOL    HW1  941   1.969   0.971   2.885  2.1498 -0.4718  1.2446
  314SOL    HW2  942   1.927   1.117   2.803 -1.1356 -3.2096 -1.5260
  315SOL     OW  943   1.614   2.978   2.413  0.0037  0.2773 -0.3312
  315SOL    HW1  944   1.559   3.042   2.356  3.2719 -1.0327 -0.6705
  315SOL    HW2  945   1.553   2.939   2.483  2.1020 -0.8801 -3.7069
  316SOL     OW  946   2.568   1.330   0.535 -0.1737  0.0610  0.0744
  316SOL    HW1  947   2.609   1.336   0.445  0.2691  2.4005  1.1749
  316SOL    HW2  948   2.469   1.341   0.522  1.8516  1.5915 -1.1506
  317SOL     OW  949   0.634   2.569   2.946 -0.0224  0.3377  0.7509
  317SOL    HW1  950   0.580   2.505   2.997  1.5879 -0.6632 -1.6948
  317SOL    HW2  951   0.606   2.666   2.968  1.3597  0.7534 -2.0051
  318SOL     OW  952   2.699   2.439   1.070 -0.6154  0.1931  0.0137
  318SOL    HW1  953   2.602   2.464   1.042 -1.4394  0.2799 -0.4426
  318SOL    HW2  954   2.720   2.339   1.082  1.4821 -0.3852  0.7261
  319SOL     OW  955   1.266   1.911   2.925  0.0729 -0.2951  0.0262
  319SOL    HW1  956   1.232   1.918   2.826 -0.6558  2.0520 -2.0987
  319SOL    HW2  957   1.288   1.816   2.957 -1.2289 -0.4238  1.2147
  320SOL     OW  958   0.527   1.842   1.153  0.4205 -0.0606 -0.3870
  320SOL    HW1  959   0.472   1.761   1.132 -1.8327  0.6789  0.5616
  320SOL    HW2  960   0.484   1.901   1.226  0.4037  0.8628  0.2701
  321SOL     OW  961   1.185   2.892   2.328  0.3439 -0.7390  0.3074
  321SOL    HW1  962   1.169   2.927   2.233 -0.6567 -0.7363 -1.7907
  321SOL    HW2  963   1.180   2.790   2.310  0.9215 -0.8462 -1.3674
  322SOL     OW  964   2.459   1.904   1.913 -0.3067 -0.3722 -0.5655
  322SOL    HW1  965   2.362   1.876   1.914 -3.1657 -2.3750  4.6288
  322SOL    HW2  966   2.471   1.988   1.971 -1.5404  2.0621 -2.8763
  323SOL     OW  967   2.896   0.665   0.928  0.1901  0.1896 -0.0680
  323SOL    HW1  968   2.817   0.699   0.871 -0.0885  0.1617  1.2402
  323SOL    HW2  969   2.985   0.681   0.886 -1.1112 -3.2362  3.1403
  324SOL     OW  970   2.644   2.933   2.544 -0.0492 -0.1739 -0.1410
  324SOL    HW1  971   2.661   2.891   2.640 -0.7806 -0.1248  2.7646
  324SOL    HW2  972   2.738   2.962   2.510  1.7680 -0.7813 -0.4395
  325SOL     OW  973   1.113   0.330   2.565 -0.4906  0.2567  0.0645
  325SOL    HW1  974   1.176   0.251   2.578  0.2378 -0.8178 -0.9226
  325SOL    HW2  975   1.054   0.318   2.485 -0.3937 -1.3177  0.9787
  326SOL     OW  976   2.028   2.526   1.760  0.0577 -0.7041 -0.1405
  326SOL    HW1  977   1.944   2.553   1.812  1.9792 -1.6019  0.4609
  326SOL    HW2  978   2.078   2.613   1.738  0.0304 -0.6397 -0.0353
  327SOL     OW  979   2.222   3.095   2.897 -0.2208  0.6791 -0.0097
  327SOL    HW1  980   2.242   0.062   2.958 -1.6192 -2.9135  0.7384
  327SOL    HW2  981   2.210   3.001   2.933  0.9917 -1.8833 -0.1081
  328SOL     OW  982   0.329   1.478   2.033 -0.3328 -0.4416  0.3292
  328SOL    HW1  983   0.374   1.491   2.122  0.4256 -3.1967  1.3942
  328SOL    HW2  984   0.230   1.500   2.038 -0.2073  1.4528  2.1147
  329SOL     OW  985   2.039   0.471   1.702 -0.1533 -0.2959 -0.1832
  329SOL    HW1  986   1.968   0.533   1.744  0.1971  0.6868 -0.1574
  329SOL    HW2  987   2.128   0.494   1.747 -0.5807  0.1305 -1.4114
  330SOL     OW  988   0.071   1.257   0.883  0.0060 -0.0708  0.1166
  330SOL    HW1  989   0.025   1.167   0.904 -4.2348  0.0450  0.4030
  330SOL    HW2  990   0.091   1.306   0.964 -0.8490 -2.7613 -2.7434
  331SOL     OW  991   0.092   1.901   2.049 -0.0855  0.6303  0.0724
  331SOL    HW1  992   0.026   1.828   2.079  0.0522 -1.7067  2.3761
  331SOL    HW2  993   0.183   1.859   2.039  0.7193 -2.5108 -0.0048
  332SOL     OW  994   0.008   2.579   1.738  0.5068 -0.3424 -0.3240
  332SOL    HW1  995   0.056   2.502   1.695  0.4227  1.5126 -0.3465
  332SOL    HW2  996   3.014   2.558   1.751 -0.6534  2.0371 -2.3268
  333SOL     OW  997   2.700   0.341   1.066  0.3634  0.2223  0.2148
  333SOL    HW1  998   2.722   0.348   0.966  0.9265 -0.6878 -0.8876
  333SOL    HW2  999   2.643   0.254   1.076 -0.2541 -1.9179 -2.5036
  334SOL     OW 1000   0.269   1.598   0.608  0.1101 -0.4380  0.3590
  334SOL    HW1 1001   0.328   1.515   0.584 -0.6861 -1.9951 -2.2869
  334SOL    HW2 1002   0.217   1.589   0.692 -1.3308  0.7905  0.8425
  335SOL     OW 1003   0.256   2.640   2.886 -0.3385  0.2821  0.5298
  335SOL    HW1 1004   0.177   2.611   2.820 -2.4464 -0.0607 -1.0340
  335SOL    HW2 1005   0.295   2.551   2.921 -0.0071  0.5627 -1.1579
  336SOL     OW 1006   2.897   2.563   2.413  0.0160 -0.2181 -0.4125
  336SOL    HW1 1007   2.831   2.504   2.461 -0.1920  0.7141  1.5847
  336SOL    HW2 1008   2.936   2.627   2.481  1.1805  1.5107 -0.1644
  337SOL     OW 1009   1.804   2.315   1.928  0.3138 -0.0986  0.3157
  337SOL    HW1 1010   1.767   2.411   1.914  0.2158  2.3065 -2.9474
  337SOL    HW2 1011   1.800   2.266   1.845 -0.4081  1.1399  2.9972
  338SOL     OW 1012   0.812   2.957   0.049  0.3358  1.0345 -0.2354
  338SOL    HW1 1013   0.750   3.028   0.085  0.3582  0.0999  0.8614
  338SOL    HW2 1014   0.876   3.004   3.090 -1.4992 -0.7082  0.2680
  339SOL     OW 1015   0.472   1.208   2.240 -0.1159 -0.2080  0.3038
  339SOL    HW1 1016   0.446   1.305   2.264  1.2630  1.2673 -0.6459
  339SOL    HW2 1017   0.558   1.203   2.182  3.2216  0.3247  2.3897
  340SOL     OW 1018   1.788   2.816   0.673 -0.0957 -0.3338 -0.4439
  340SOL    HW1 1019   1.734   2.779   0.747  2.1479  1.1568 -2.9535
  340SOL    HW2 1020   1.781   2.916   0.670  1.0613 -0.9024 -0.4051
  341SOL     OW 1021   2.086   1.103   1.095  0.0945 -0.2527 -0.0332
  341SOL    HW1 1022   2.052   1.013   1.117 -1.6418  2.9407  0.5476
  341SOL    HW2 1023   2.071   1.170   1.171 -0.0296  0.2954 -0.3568
  342SOL     OW 1024   2.499   3.057   3.094 -0.1954  0.2211 -0.5304
  342SOL    HW1 1025   2.413   3.051   0.043 -0.5693  0.0809  1.7450
  342SOL    HW2 1026   2.576   3.000   0.031  0.3796  0.7359 -2.7272
  343SOL     OW 1027   0.974   2.232   1.554  0.3535 -0.1021  0.3168
  343SOL    HW1 1028   0.978   2.308   1.617  0.9673 -0.5676 -0.5463
  343SOL    HW2 1029   1.052   2.242   1.493 -3.4675  0.1851  2.1552
  344SOL     OW 1030   2.651   2.831   1.488 -0.1491 -0.4424 -0.1612
  344SOL    HW1 1031   2.645   2.923   1.534 -2.3984  2.0088 -0.8234
  344SOL    HW2 1032   2.745   2.795   1.497  0.1268 -1.0737  0.8578
  345SOL     OW 1033   2.588   2.084   2.974 -0.3671 -0.1286 -0.5960
  345SOL    HW1 1034   2.650   2.001   2.967  1.8971  0.1358  0.1204
  345SOL    HW2 1035   2.574   2.109   3.071  2.3158 -1.5152  2.6930
  346SOL     OW 1036   2.197   2.309   0.695  0.2741 -0.2470  0.2170
  346SOL    HW1 1037   2.281   2.353   0.661 -0.6839 -3.5440  0.0849
  346SOL    HW2 1038   2.215   2.266   0.786  0.3704  0.9643 -0.8090
  347SOL     OW 1039   1.577   1.914   1.315 -0.1849 -0.1884 -0.0180
  347SOL    HW1 1040   1.505   1.855   1.273 -1.8770  0.5512  0.5256
  347SOL    HW2 1041   1.551   1.942   1.412  0.1723  0.7806 -1.6165
  348SOL     OW 1042   0.543   1.761   2.262  0.2343 -0.0225 -0.3467
  348SOL    HW1 1043   0.635   1.769   2.217  2.7372 -0.9220 -0.2593
  348SOL    HW2 1044   0.524   1.842   2.326 -1.1755 -0.6470  3.2019
  349SOL     OW 1045   2.133   1.671   0.660 -0.1867  0.2367 -0.4280
  349SOL    HW1 1046   2.170   1.573   0.675  1.2571 -3.8076  0.3186
  349SOL    HW2 1047   2.205   1.742   0.641 -1.6742  1.5138 -1.8550
  350SOL     OW 1048   2.837   2.402   0.700 -0.0584 -0.5994 -0.3452
  350SOL    HW1 1049   2.815   2.487   0.752 -0.7794  0.0517  0.5346
  350SOL    HW2 1050   2.788   2.323   0.743 -2.6950 -1.6845  1.3878
  351SOL     OW 1051   0.441   2.863   1.613 -0.4499  0.1601 -0.0020
  351SOL    HW1 1052   0.485   2.779   1.585 -0.6542  0.7719  0.3912
  351SOL    HW2 1053   0.363   2.885   1.553 -3.0289 -0.1512 -0.9756
  352SOL     OW 1054   0.545   1.406   1.123  0.1178  0.1716  0.7296
  352SOL    HW1 1055   0.494   1.343   1.187  0.2097  0.2006  0.7923
  352SOL    HW2 1056   0.567   1.366   1.031  0.0797  0.1346 -0.2818
  353SOL     OW 1057   1.217   1.168   2.661 -0.0236  1.0942  0.2308
  353SOL    HW1 1058   1.188   1.241   2.726  0.4432 -1.1454 -0.2193
  353SOL    HW2 1059   1.304   1.125   2.692  1.1007 -0.4121 -2.2871
  354SOL     OW 1060   1.399   0.072   1.516  0.0397  0.5009 -0.1530
  354SOL    HW1 1061   1.354   0.111   1.431 -2.5117  1.3760 -3.0054
  354SOL    HW2 1062   1.457   0.140   1.563  1.1837 -1.0749  1.5375
  355SOL     OW 1063   2.196   1.425   0.689  0.3772 -0.1687 -0.3377
  355SOL    HW1 1064   2.232   1.350   0.752 -0.4342  2.0689  2.0006
  355SOL    HW2 1065   2.213   1.405   0.593 -2.5835  2.4345 -1.4787
  356SOL     OW 1066   2.652   1.702   1.949 -0.4141 -0.4191  0.6773
  356SOL    HW1 1067   2.571   1.760   1.925  2.9872  1.8637  0.8951
  356SOL    HW2 1068   2.735   1.746   1.913 -2.1598  3.7125 -1.0920
  357SOL     OW 1069   0.490   2.683   1.154 -0.3725  0.8550  1.1573
  357SOL    HW1 1070   0.426   2.642   1.221 -0.1546  2.1317  2.3976
  357SOL    HW2 1071   0.447   2.675   1.055 -1.3362  0.7675  0.2231
  358SOL     OW 1072   2.711   1.460   1.765 -0.2472 -0.4067 -0.2314
  358SOL    HW1 1073   2.687   1.546   1.816  2.5668  2.2663  1.6500
  358SOL    HW2 1074   2.635   1.409   1.721 -0.5691 -1.5339  0.9563
  359SOL     OW 1075   2.253   2.903   2.550 -0.0360  0.3101  0.9461
  359SOL    HW1 1076   2.273   2.805   2.515  0.4291 -1.0733 -0.2780
  359SOL    HW2 1077   2.184   2.952   2.493 -1.2257  0.7823 -0.3035
  360SOL     OW 1078   0.785   0.356   0.883 -0.0754 -0.8337 -0.3208
  360SOL    HW1 1079   0.772   0.388   0.790 -0.4063 -0.0525 -1.3493
  360SOL    HW2 1080   0.697   0.353   0.934  2.4365 -0.4289 -2.7029
  361SOL     OW 1081   1.884   0.157   1.047  0.2608  0.5471  0.0797
  361SOL    HW1 1082   1.926   0.214   0.974  1.2866  1.9274 -1.7347
  361SOL    HW2 1083   1.889   0.212   1.136  0.5629  4.3666  2.6869
  362SOL     OW 1084   1.551   0.921   1.022 -0.1483 -0.2704  0.2894
  362SOL    HW1 1085   1.613   0.839   1.037 -1.9423  0.6131 -0.3084
  362SOL    HW2 1086   1.609   0.999   0.985 -1.0950  0.5088  0.9247
  363SOL     OW 1087   2.246   1.435   2.307  0.0871 -0.3444  0.6629
  363SOL    HW1 1088   2.338   1.395   2.335  1.8775 -0.6793 -1.5826
  363SOL    HW2 1089   2.203   1.390   2.227  0.2626  0.7699 -0.3484
  364SOL     OW 1090   0.254   2.995   1.112  0.1738 -0.4759 -0.0902
  364SOL    HW1 1091   0.252   2.978   1.211  2.3869 -0.0496  1.2348
  364SOL    HW2 1092   0.190   2.943   1.054 -0.0718  1.5830  0.5022
  365SOL     OW 1093   0.387   0.013   2.982 -0.4162 -0.0119 -0.2010
  365SOL    HW1 1094   0.363   0.074   2.906 -0.1568 -0.4067  2.0243
  365SOL    HW2 1095   0.304   0.004   3.038 -2.9650  0.5514 -1.5070
  366SOL     OW 1096   2.249   2.262   2.966  0.2349  0.6418 -0.3572
  366SOL    HW1 1097   2.312   2.186   2.953 -0.8096  2.4821 -0.7319
  366SOL    HW2 1098   2.298   2.329   3.025 -1.8546 -1.7187 -0.1575
  367SOL     OW 1099   2.616   2.467   2.991  0.6160 -0.0419  0.2263
  367SOL    HW1 1100   2.617   2.404   2.908 -1.3377 -2.8756 -1.5924
  367SOL    HW2 1101   2.708   2.495   3.017  1.3008  0.1326 -0.8542
  368SOL     OW 1102   0.101   1.438   1.083  0.2283  0.0727  0.3502
  368SOL    HW1 1103   0.003   1.428   1.112 -0.3298  0.6240 -0.6019
  368SOL    HW2 1104   0.159   1.488   1.151  0.6760 -2.0281  1.5659
  369SOL     OW 1105   0.728   2.774   2.704 -0.4623 -0.0152  0.5055
  369SOL    HW1 1106   0.801   2.715   2.668 -1.4421  1.6987  1.3476
  369SOL    HW2 1107   0.708   2.763   2.802 -0.9906  1.6040 -0.7407
  370SOL     OW 1108   3.015   0.949   0.514  0.3764 -0.5758 -0.5214
  370SOL    HW1 1109   2.969   1.034   0.473 -4.1915  0.5790 -1.6457
  370SOL    HW2 1110   2.959   0.865   0.502  1.6896  0.7311  1.6170
  371SOL     OW 1111   1.786   2.427   0.762  0.2520  0.1472 -0.6429
  371SOL    HW1 1112   1.845   2.435   0.682 -1.0703 -0.5495  1.9807
  371SOL    HW2 1113   1.734   2.337   0.769 -0.0918  1.4010  1.4237
  372SOL     OW 1114   3.066   0.970   3.103 -0.1505 -0.7615  0.0891
  372SOL    HW1 1115   3.057   0.869   3.089 -2.0354 -0.3809 -0.2395
  372SOL    HW2 1116   0.059   0.991   0.014 -1.4123 -0.7436  1.9605
  373SOL     OW 1117   2.983   1.866   1.300  0.3463  0.2338 -0.1960
  373SOL    HW1 1118   2.975   1.769   1.271 -0.4924 -1.7002 -1.0668
  373SOL    HW2 1119   2.888   1.899   1.316  1.3494 -0.0698 -2.2299
  374SOL     OW 1120   0.546   2.794   0.164  0.1320 -0.0146 -0.7665
  374SOL    HW1 1121   0.520   2.804   0.067 -1.9265  3.1277  0.6945
  374SOL    HW2 1122   0.605   2.873   0.195 -0.6376  0.6338  1.5191
  375SOL     OW 1123   0.284   0.256   0.055  0.0006  0.0609  0.0324
  375SOL    HW1 1124   0.277   0.271   3.058 -0.7603 -0.3770 -1.7184
  375SOL    HW2 1125   0.245   0.170   0.086  0.7521  3.2369 -0.2748
  376SOL     OW 1126   0.145   2.340   1.615 -0.1898  0.2128  0.5499
  376SOL    HW1 1127   0.156   2.243   1.647 -1.8856  0.5770 -3.1573
  376SOL    HW2 1128   0.112   2.340   1.515 -0.5779  0.5216  0.9553
  377SOL     OW 1129   1.788   2.516   2.605  0.4474 -0.6313  0.7067
  377SOL    HW1 1130   1.781   2.428   2.566 -2.5479 -0.1884  2.9023
  377SOL    HW2 1131   1.697   2.566   2.607  2.1178 -0.5790 -0.0195
  378SOL     OW 1132   0.694   0.365   0.135  0.5560  0.2565 -0.3708
  378SOL    HW1 1133   0.754   0.445   0.118  0.0991 -5.3306 -1.2707
  378SOL    HW2 1134   0.733   0.302   0.205  1.4545 -0.6147  0.6006
  379SOL     OW 1135   0.433   1.368   0.570 -0.2120 -0.3558 -0.0817
  379SOL    HW1 1136   0.426   1.313   0.481 -0.2790 -0.3389 -2.3967
  379SOL    HW2 1137   0.524   1.416   0.571 -2.8676 -3.0173  0.4441
  380SOL     OW 1138   3.102   1.968   1.731 -0.2933 -0.3156  0.5934
  380SOL    HW1 1139   3.089   1.873   1.764  0.6304  1.4306 -0.1354
  380SOL    HW2 1140   0.052   2.020   1.798 -2.5371  0.4205 -2.2347
  381SOL     OW 1141   0.670   1.208   2.053 -0.0415  0.0296 -0.8460
  381SOL    HW1 1142   0.737   1.129   2.048  5.8534 -0.2336  2.1675
  381SOL    HW2 1143   0.611   1.216   1.974  0.3894  1.4680  0.8826
  382SOL     OW 1144   2.200   2.101   0.527  0.1563 -0.1990  0.6956
  382SOL    HW1 1145   2.210   2.183   0.598  0.4507  0.6108  2.4949
  382SOL    HW2 1146   2.252   2.114   0.438 -0.8320  0.4595  1.4502
  383SOL     OW 1147   2.731   1.858   2.838  0.2626  0.0323 -0.3860
  383SOL    HW1 1148   2.763   1.765   2.866  1.5336 -1.3521 -1.5575
  383SOL    HW2 1149   2.804   1.913   2.791  2.2692 -2.1834 -0.2490
  384SOL     OW 1150   0.535   2.017   2.401 -0.3615 -0.0085  0.1992
  384SOL    HW1 1151   0.560   2.045   2.504  1.3130  1.3567  2.2821
  384SOL    HW2 1152   0.624   2.007   2.350 -3.3798 -1.3267 -1.2710
  385SOL     OW 1153   2.675   1.746   1.028  0.2690  0.1501  0.0432
  385SOL    HW1 1154   2.638   1.843   1.033 -1.0200 -0.7601  0.9557
  385SOL    HW2 1155   2.596   1.683   1.019  0.8533 -0.6888 -0.0467
  386SOL     OW 1156   2.082   1.336   1.250 -0.0064 -0.0277  0.0027
  386SOL    HW1 1157   1.989   1.330   1.294 -0.1702  0.1306  1.2012
  386SOL    HW2 1158   2.085   1.414   1.184 -0.6364 -1.6715 -0.7910
  387SOL     OW 1159   3.060   1.073   2.127 -0.0726  0.1104 -0.3914
  387SOL    HW1 1160   3.003   0.994   2.098 -0.4028 -0.2547  3.3906
  387SOL    HW2 1161   3.010   1.160   2.105  0.4543  0.4481 -0.9969
  388SOL     OW 1162   2.547   1.260   2.070  0.7455  0.0809  0.4569
  388SOL    HW1 1163   2.546   1.310   2.163 -0.5395  4.7588  2.7320
  388SOL    HW2 1164   2.500   1.325   1.998 -2.1444  3.0374 -0.1908
  389SOL     OW 1165   2.102   1.313   2.118 -0.7333  0.3112 -0.5681
  389SOL    HW1 1166   2.003   1.308   2.153  1.5621 -0.2513 -1.2311
  389SOL    HW2 1167   2.126   1.229   2.064  0.1832  1.3711  0.0791
  390SOL     OW 1168   2.039   2.678   0.658  0.2872  0.5645 -0.0536
  390SOL    HW1 1169   1.957   2.736   0.682 -1.6607  0.3004 -2.8663
  390SOL    HW2 1170   2.001   2.589   0.614  0.5617  0.2155 -0.9919
  391SOL     OW 1171   2.257   2.173   0.935  0.1398 -0.6806  0.2128
  391SOL    HW1 1172   2.192   2.143   1.011 -0.8135 -0.7742  1.9485
  391SOL    HW2 1173   2.316   2.250   0.964 -3.9145 -1.4653  0.5689
  392SOL     OW 1174   0.061   2.699   1.357  0.1513  0.2905 -0.4250
  392SOL    HW1 1175   3.104   2.631   1.400  1.3684 -0.5103 -0.0417
  392SOL    HW2 1176   0.020   2.747   1.275  3.1390 -1.0268 -4.0168
  393SOL     OW 1177   1.962   2.062   2.692  0.4824 -0.0752  0.0498
  393SOL    HW1 1178   1.920   2.142   2.738 -2.1329  0.7256  1.5161
  393SOL    HW2 1179   1.909   1.977   2.699  3.3305  0.4604  1.3058
  394SOL     OW 1180   0.474   0.470   2.603  0.0896 -0.2880  0.1851
  394SOL    HW1 1181   0.518   0.457   2.691 -0.8249  3.4099 -2.8792
  394SOL    HW2 1182   0.406   0.542   2.609 -1.2113  0.4140 -1.3398
  395SOL     OW 1183   0.606   0.641   0.743 -0.1847 -0.1550 -0.4262
  395SOL    HW1 1184   0.632   0.558   0.682  1.9753 -0.3889 -0.6275
  395SOL    HW2 1185   0.688   0.670   0.796 -0.4244 -0.3759 -0.2449
  396SOL     OW 1186   1.248   1.093   0.352  0.0129  0.1131 -0.0747
  396SOL    HW1 1187   1.186   1.136   0.419  0.7700 -0.6379 -1.9269
  396SOL    HW2 1188   1.231   0.995   0.335 -2.0766  0.3587  1.7862
  397SOL     OW 1189   0.413   0.940   2.220 -0.3973 -0.3182  0.3396
  397SOL    HW1 1190   0.434   1.039   2.204 -1.5435 -2.2428 -1.8510
  397SOL    HW2 1191   0.327   0.916   2.169 -3.1446 -0.9339 -1.9016
  398SOL     OW 1192   0.918   0.006   0.375 -0.5026  0.0787  0.9528
  398SOL    HW1 1193   0.877   3.031   0.334  1.3734  0.9387  1.1288
  398SOL    HW2 1194   1.002   0.031   0.329  0.2129  0.9646 -0.2303
  399SOL     OW 1195   1.986   0.031   1.756 -0.4941 -0.3906  0.1498
  399SOL    HW1 1196   1.920   0.105   1.795 -1.4554  2.5118  2.0638
  399SOL    HW2 1197   1.947   3.097   1.666 -2.9831 -0.9053 -0.8716
  400SOL     OW 1198   0.636   1.475   1.719  0.5143  0.1810 -0.0546
  400SOL    HW1 1199   0.721   1.495   1.774  2.8072 -0.4499 -3.0790
  400SOL    HW2 1200   0.654   1.512   1.623  2.1271  0.3008  0.7579
  401SOL     OW 1201   0.543   1.045   2.685  0.7800 -0.3497 -0.3030
  401SOL    HW1 1202   0.610   0.975   2.728  0.4608  1.1105  0.9882
  401SOL    HW2 1203   0.444   1.023   2.713 -2.3020 -1.7034  1.3632
  402SOL     OW 1204   2.869   2.243   1.566  0.5621  0.0997 -0.2483
  402SOL    HW1 1205   2.776   2.208   1.556  1.4667 -2.9311 -1.3067
  402SOL    HW2 1206   2.938   2.172   1.548 -1.3265 -1.9256  1.0204
  403SOL     OW 1207   0.172   0.880   2.092  0.0861  0.3199  0.4993
  403SOL    HW1 1208   0.103   0.948   2.116  1.1705 -0.8295 -2.0559
  403SOL    HW2 1209   0.197   0.889   1.993  0.5557 -1.8392 -2.0289
  404SOL     OW 1210   0.038   2.784   1.907 -0.4843  0.4314 -0.6009
  404SOL    HW1 1211   0.138   2.784   1.925 -0.4872  1.9363 -1.6582
  404SOL    HW2 1212   0.019   2.722   1.829  0.3952 -1.8607 -2.4657
  405SOL     OW 1213   0.577   0.413   1.919 -0.3859 -0.2725  0.2735
  405SOL    HW1 1214   0.649   0.344   1.901  1.6213  0.8118  2.3570
  405SOL    HW2 1215   0.532   0.390   2.007  1.0661  1.3355 -1.8712
  406SOL     OW 1216   1.615   2.078   2.465 -0.1571  0.3598 -0.5436
  406SOL    HW1 1217   1.689   2.144   2.455 -2.7448 -2.5676 -0.9274
  406SOL    HW2 1218   1.647   1.982   2.450 -0.1927  0.1693  0.9229
  407SOL     OW 1219   1.494   1.327   2.394  0.4413 -0.7337 -0.0553
  407SOL    HW1 1220   1.504   1.343   2.293 -0.9820  0.8410 -3.5737
  407SOL    HW2 1221   1.412   1.266   2.406 -2.0598 -0.5676 -0.4071
  408SOL     OW 1222   0.881   0.278   2.423 -0.7693 -0.0585  0.2064
  408SOL    HW1 1223   0.830   0.203   2.381 -3.9597  1.3519 -0.0558
  408SOL    HW2 1224   0.826   0.363   2.434 -0.8127 -1.7580  0.1069
  409SOL     OW 1225   0.161   1.705   0.027  0.2525  0.0325  0.2720
  409SOL    HW1 1226   0.256   1.677   3.099  2.5230 -0.0854  0.2171
  409SOL    HW2 1227   0.162   1.747   0.119  1.1769 -1.4941 -0.9220
  410SOL     OW 1228   2.702   1.708   0.291 -0.2325 -0.3931  0.5350
  410SOL    HW1 1229   2.798   1.706   0.327 -2.4159  1.6731  1.3334
  410SOL    HW2 1230   2.682   1.793   0.237 -1.2399  0.8447  1.4909
  411SOL     OW 1231   3.012   0.410   0.988 -0.6364 -0.0572  0.2440
  411SOL    HW1 1232   2.964   0.501   0.999  1.6410 -0.4294  1.7627
  411SOL    HW2 1233   3.067   0.397   0.905  1.5857  0.0570  4.0120
  412SOL     OW 1234   1.383   1.051   1.190 -0.2259 -0.2681  0.1017
  412SOL    HW1 1235   1.455   1.018   1.130  0.5174 -0.6090  0.9178
  412SOL    HW2 1236   1.414   1.048   1.287 -1.6855  2.6125 -2.0494
  413SOL     OW 1237   0.732   2.517   1.264 -0.3903 -0.3351  0.2508
  413SOL    HW1 1238   0.818   2.564   1.230  2.1486 -1.4748  0.9545
  413SOL    HW2 1239   0.641   2.561   1.239 -0.8564  2.3819 -1.7846
  414SOL     OW 1240   2.693   1.541   2.740 -0.1140  0.0167  0.4446
  414SOL    HW1 1241   2.777   1.588   2.698 -1.1952 -0.5410 -1.2277
  414SOL    HW2 1242   2.721   1.504   2.827  0.9569  1.0947  0.2279
  415SOL     OW 1243   0.437   2.297   2.777  0.3022 -0.0796  0.5708
  415SOL    HW1 1244   0.349   2.244   2.796 -0.6999  0.5014 -0.0963
  415SOL    HW2 1245   0.449   2.357   2.861  0.8358  1.4086  3.5811
  416SOL     OW 1246   1.646   3.095   0.286 -0.3972 -0.2202  0.3772
  416SOL    HW1 1247   1.643   3.011   0.228 -1.4504  1.1485  0.4084
  416SOL    HW2 1248   1.671   0.075   0.235 -1.9604  1.6088  1.2534
  417SOL     OW 1249   0.377   0.709   0.873  0.2345 -0.2003  0.1158
  417SOL    HW1 1250   0.384   0.816   0.883 -1.4249  2.8644 -0.4461
  417SOL    HW2 1251   0.458   0.674   0.826  0.5824  1.0223  1.1544
  418SOL     OW 1252   2.484   0.718   1.811  0.4754  0.5694  0.7860
  418SOL    HW1 1253   2.388   0.728   1.777  0.1300  0.2278  2.6580
  418SOL    HW2 1254   2.553   0.728   1.735  0.5370  0.2451  1.3567
  419SOL     OW 1255   0.055   0.143   0.629 -0.1609  0.1091 -0.0866
  419SOL    HW1 1256   0.119   0.168   0.697  1.0092 -2.5602 -1.3449
  419SOL    HW2 1257   0.084   0.172   0.536 -1.4731  0.5599  1.4659
  420SOL     OW 1258   0.379   1.270   1.307 -0.0097  0.3775 -0.1293
  420SOL    HW1 1259   0.301   1.312   1.350  1.2623  0.4973 -0.6235
  420SOL    HW2 1260   0.368   1.171   1.299  3.2199  3.4310 -0.1758
  421SOL     OW 1261   1.105   2.496   0.627  0.0237  0.4183  0.2353
  421SOL    HW1 1262   1.093   2.469   0.532  1.6622 -0.5480 -1.0322
  421SOL    HW2 1263   1.125   2.416   0.689  1.8814  1.3501  0.1559
  422SOL     OW 1264   0.103   0.786   1.535 -0.3167  0.5006 -0.4701
  422SOL    HW1 1265   0.061   0.773   1.443  0.6407 -2.5968  0.0924
  422SOL    HW2 1266   0.195   0.818   1.508 -1.3416  0.8881 -1.0627
  423SOL     OW 1267   1.150   1.124   1.092  0.0935  0.1413  0.1262
  423SOL    HW1 1268   1.246   1.111   1.130  0.8769 -1.7619  0.9290
  423SOL    HW2 1269   1.161   1.118   0.992  1.1309 -2.6603 -1.5498
  424SOL     OW 1270   1.990   1.277   2.828 -0.0107  0.2024  0.4883
  424SOL    HW1 1271   2.040   1.300   2.912 -0.5802 -0.3189 -3.8388
  424SOL    HW2 1272   1.921   1.348   2.802  1.8936  0.9266  0.0337
  425SOL     OW 1273   0.083   0.425   2.115 -0.3484  0.7062  0.2694
  425SOL    HW1 1274   0.123   0.510   2.155  0.3306 -2.5858  1.9967
  425SOL    HW2 1275   3.097   0.397   2.147  3.1564 -1.3740 -3.0615
  426SOL     OW 1276   0.077   2.771   3.041 -0.2789  0.3415  0.2450
  426SOL    HW1 1277   0.138   2.726   2.971  0.6201 -1.5451 -1.9461
  426SOL    HW2 1278   0.094   2.744   0.033 -2.9770 -0.4838  1.9283
  427SOL     OW 1279   0.971   1.046   2.640  0.0780  0.0878  0.2261
  427SOL    HW1 1280   1.050   1.102   2.609  0.0771  0.1944  0.4809
  427SOL    HW2 1281   0.970   1.032   2.741  0.5227 -0.3134 -0.2926
  428SOL     OW 1282   2.480   1.333   1.692 -0.0753 -0.1446  0.4099
  428SOL    HW1 1283   2.511   1.261   1.622  1.6625 -0.6735 -2.5033
  428SOL    HW2 1284   2.396   1.300   1.740  1.4402 -1.5468 -0.2589
  429SOL     OW 1285   2.493   2.792   0.861 -0.0728  0.0203 -0.7616
  429SOL    HW1 1286   2.521   2.760   0.765  0.5683  0.7005 -1.8592
  429SOL    HW2 1287   2.394   2.780   0.869  1.3322 -2.6448  0.4825
  430SOL     OW 1288   1.343   1.582   2.294 -0.0890  0.4883 -0.2180
  430SOL    HW1 1289   1.260   1.580   2.350  3.3210 -0.8270 -1.5176
  430SOL    HW2 1290   1.335   1.661   2.232 -1.7092 -0.7374  1.1710
  431SOL     OW 1291   2.879   1.592   1.515 -0.0848  0.5160 -0.3527
  431SOL    HW1 1292   2.814   1.514   1.518 -0.6883 -0.2429  0.8620
  431SOL    HW2 1293   2.843   1.669   1.568  2.3568  0.3977  1.3703
  432SOL     OW 1294   1.357   2.764   2.474  0.0015  0.2277 -0.1815
  432SOL    HW1 1295   1.309   2.832   2.411 -0.1921  1.5411 -1.6234
  432SOL    HW2 1296   1.290   2.701   2.522  0.4120 -1.8353 -1.7263
  433SOL     OW 1297   1.826   0.208   2.150  0.4006 -0.0886 -0.2063
  433SOL    HW1 1298   1.905   0.171   2.201 -3.1981 -1.6206 -1.1093
  433SOL    HW2 1299   1.847   0.290   2.094  0.2106  1.7447  4.0524
  434SOL     OW 1300   0.392   2.670   2.211 -0.0543 -0.2065 -0.4685
  434SOL    HW1 1301   0.390   2.575   2.242 -0.0386  0.9773 -0.3532
  434SOL    HW2 1302   0.336   2.683   2.129  0.5713 -0.4617  2.9329
  435SOL     OW 1303   0.048   2.474   0.331  0.0395  0.3579 -0.1102
  435SOL    HW1 1304   0.090   2.456   0.425  0.4902  2.0962  0.9432
  435SOL    HW2 1305   0.092   2.552   0.279 -0.7030  0.7489  0.6503
  436SOL     OW 1306   0.784   0.566   2.093  0.4689  0.0839  0.0023
  436SOL    HW1 1307   0.684   0.569   2.104  4.2158 -0.3711  0.9625
  436SOL    HW2 1308   0.814   0.578   2.001 -1.3145 -1.3370  1.2395
  437SOL     OW 1309   0.454   2.814   2.599 -0.5679  0.6355 -0.2846
  437SOL    HW1 1310   0.489   2.803   2.498  1.7038 -0.1017 -2.5748
  437SOL    HW2 1311   0.524   2.774   2.654 -0.9592 -1.8358 -0.3223
  438SOL     OW 1312   0.597   1.220   1.781 -0.5338 -0.4121  0.1035
  438SOL    HW1 1313   0.677   1.173   1.738  1.4386  0.2108  3.2692
  438SOL    HW2 1314   0.601   1.316   1.753  0.7373 -1.5450  1.0362
  439SOL     OW 1315   2.194   0.955   2.475  0.4024  0.3657 -0.1698
  439SOL    HW1 1316   2.249   0.977   2.392  0.5622 -0.8289 -0.4812
  439SOL    HW2 1317   2.191   1.038   2.537  0.6988 -2.1558  0.5221
  440SOL     OW 1318   0.329   0.625   0.172 -0.0664 -0.5814 -0.1159
  440SOL    HW1 1319   0.379   0.539   0.165 -4.2130  2.1721  0.7520
  440SOL    HW2 1320   0.237   0.606   0.208 -1.2785 -0.0310  1.9406
  441SOL     OW 1321   1.107   2.409   1.138  0.0942  0.3509  0.3427
  441SOL    HW1 1322   1.177   2.484   1.136  1.1411 -0.5829  3.2546
  441SOL    HW2 1323   1.013   2.444   1.109  0.3265  0.6788 -1.5076
  442SOL     OW 1324   2.497   1.559   0.925  0.4427 -0.6261  0.4469
  442SOL    HW1 1325   2.477   1.470   0.958  3.2689  1.6970 -0.5879
  442SOL    HW2 1326   2.405   1.606   0.906 -1.9599  0.1377 -2.5924
  443SOL     OW 1327   2.676   1.978   2.230  0.0891 -0.5440 -0.0678
  443SOL    HW1 1328   2.595   2.043   2.232  1.5616 -1.3990  0.0088
  443SOL    HW2 1329   2.655   1.888   2.270  2.6603 -0.4166 -2.1980
  444SOL     OW 1330   1.756   1.220   3.091  0.0169 -0.1037  0.3499
  444SOL    HW1 1331   1.836   1.150   3.100  5.8276 -5.1840  0.0929
  444SOL    HW2 1332   1.666   1.177   0.014  0.1449 -1.1464 -0.4130
  445SOL     OW 1333   2.640   2.907   2.110 -0.0568 -0.1032 -0.1961
  445SOL    HW1 1334   2.590   2.879   2.024 -1.1351 -0.6681 -0.1070
  445SOL    HW2 1335   2.736   2.895   2.090  1.5046 -0.3032  1.5672
  446SOL     OW 1336   0.330   1.017   1.291 -0.3037  0.0564  0.4570
  446SOL    HW1 1337   0.339   0.952   1.364  0.4593  3.0667 -5.9674
  446SOL    HW2 1338   0.260   0.987   1.223  1.9825 -1.5016 -1.5083
  447SOL     OW 1339   1.019   1.680   0.752 -0.2666 -0.5484 -0.1322
  447SOL    HW1 1340   0.992   1.769   0.790  1.0754 -4.5939 -1.6388
  447SOL    HW2 1341   0.962   1.657   0.668  1.4102  2.3117  1.9207
  448SOL     OW 1342   1.320   0.918   1.615 -0.0085  0.1621  0.3352
  448SOL    HW1 1343   1.326   0.959   1.707 -0.9219 -0.0626 -1.8335
  448SOL    HW2 1344   1.235   0.867   1.603  0.5116  3.7338 -1.4651
  449SOL     OW 1345   0.008   2.132   2.145  0.2248 -0.1957  0.5652
  449SOL    HW1 1346   0.026   2.229   2.116  0.7287  0.6524  0.3710
  449SOL    HW2 1347   0.049   2.060   2.083 -1.4910 -3.2892 -1.9032
  450SOL     OW 1348   2.775   2.075   1.824  0.5848 -0.1398 -0.3080
  450SOL    HW1 1349   2.683   2.109   1.859 -2.0115 -1.5532 -1.2264
  450SOL    HW2 1350   2.846   2.142   1.852  1.6732 -0.1601 -1.5733
  451SOL     OW 1351   2.365   0.839   1.270 -0.3413 -0.5885 -0.0545
  451SOL    HW1 1352   2.310   0.769   1.326  0.9076  1.4326  0.1659
  451SOL    HW2 1353   2.423   0.793   1.197 -0.0831  2.3470 -2.0582
  452SOL     OW 1354   0.562   1.322   0.871  0.3075  0.0707  0.1222
  452SOL    HW1 1355   0.606   1.382   0.800  0.1073  0.8970 -0.9925
  452SOL    HW2 1356   0.478   1.278   0.837  1.2121  1.4543 -2.5377
  453SOL     OW 1357   0.942   1.931   0.879 -0.3346  0.1209 -0.3300
  453SOL    HW1 1358   0.866   1.935   0.946 -0.4356  2.5127  1.5251
  453SOL    HW2 1359   1.025   1.966   0.928  3.0361  1.7199 -0.0047
  454SOL     OW 1360   0.405   1.668   3.002  0.0165 -0.0864  0.0245
  454SOL    HW1 1361   0.473   1.723   2.952  2.6185  1.9254 -2.7145
  454SOL    HW2 1362   0.411   1.571   2.973  1.0377  2.3883  0.4125
  455SOL     OW 1363   1.891   0.612   0.683  0.0314 -0.0711 -0.3008
  455SOL    HW1 1364   1.834   0.563   0.752  0.9833  0.7058 -1.0351
  455SOL    HW2 1365   1.822   0.650   0.617 -2.0871 -3.8404 -1.9378
  456SOL     OW 1366   2.234   2.547   1.061 -0.3251  0.1380  0.1271
  456SOL    HW1 1367   2.217   2.608   0.981  0.2703  0.6313 -3.1364
  456SOL    HW2 1368   2.310   2.589   1.117 -2.0295 -2.7479  0.9284
  457SOL     OW 1369   1.940   2.850   2.677 -0.1649 -0.6433  0.2701
  457SOL    HW1 1370   1.866   2.813   2.732  1.7117  0.8700 -3.3209
  457SOL    HW2 1371   1.955   2.811   2.588  1.5383  1.7274  2.6342
  458SOL     OW 1372   2.327   0.452   0.262 -0.3448 -0.3322  0.4175
  458SOL    HW1 1373   2.386   0.460   0.175  0.7110 -4.5875  0.0849
  458SOL    HW2 1374   2.232   0.475   0.237  0.2140  2.3966  0.6788
  459SOL     OW 1375   3.096   1.049   2.413  0.5016  0.0790 -0.2248
  459SOL    HW1 1376   3.071   1.139   2.460 -3.1977  1.4286  0.1312
  459SOL    HW2 1377   3.088   1.067   2.310 -1.0825 -3.0480 -1.8942
  460SOL     OW 1378   0.539   0.912   3.026 -0.5600 -0.1074  0.1078
  460SOL    HW1 1379   0.604   0.915   2.942  5.6816  4.2726 -4.4547
  460SOL    HW2 1380   0.506   0.818   3.026  0.4259  2.0421  0.2681
  461SOL     OW 1381   2.809   2.647   0.840 -0.5848  0.1404  0.2433
  461SOL    HW1 1382   2.860   2.607   0.918 -1.0555  0.9012  1.2334
  461SOL    HW2 1383   2.759   2.730   0.868  0.2125  0.1060 -0.3461
  462SOL     OW 1384   0.282   0.264   1.627  0.5075  0.1533  0.0226
  462SOL    HW1 1385   0.246   0.360   1.626 -1.1204 -0.5154  0.0433
  462SOL    HW2 1386   0.356   0.251   1.560  0.0130  1.7101  1.0383
  463SOL     OW 1387   2.077   2.388   2.079  0.2285  0.0634 -0.3355
  463SOL    HW1 1388   2.089   2.308   2.142 -1.3699  0.4550  2.1482
  463SOL    HW2 1389   1.993   2.380   2.020  0.3745 -0.7123  1.2204
  464SOL     OW 1390   0.494   0.040   1.488 -0.4907 -0.2379 -0.0453
  464SOL    HW1 1391   0.587   0.027   1.527 -0.3741 -0.8318 -1.0191
  464SOL    HW2 1392   0.452   3.053   1.474 -1.6446  2.2462 -0.8247
  465SOL     OW 1393   0.670   2.895   1.269 -0.7402  0.0754  0.1661
  465SOL    HW1 1394   0.602   2.817   1.248 -0.1683 -2.1182 -0.9044
  465SOL    HW2 1395   0.665   2.926   1.369  0.2777  1.3421  2.6822
  466SOL     OW 1396   1.285   2.062   1.874 -0.7868 -0.3979  0.3924
  466SOL    HW1 1397   1.206   2.063   1.938 -0.1617 -1.4150  0.8148
  466SOL    HW2 1398   1.268   1.994   1.796  0.3905  0.7899  1.5168
  467SOL     OW 1399   0.162   1.796   1.250 -0.0967  0.1316 -0.0141
  467SOL    HW1 1400   0.086   1.743   1.300 -0.9285  0.9190 -0.0161
  467SOL    HW2 1401   0.245   1.738   1.244  1.1762 -1.1887  1.0321
  468SOL     OW 1402   2.550   1.943   2.629  0.1377 -0.1686  0.2777
  468SOL    HW1 1403   2.611   1.953   2.544  1.4248 -0.8345 -1.3933
  468SOL    HW2 1404   2.598   1.935   2.719  1.7629 -0.2125  1.6971
  469SOL     OW 1405   1.143   2.151   0.590  0.2077  0.2855  0.2727
  469SOL    HW1 1406   1.219   2.136   0.523  1.2245  0.5490  1.1377
  469SOL    HW2 1407   1.054   2.167   0.541  1.9408  0.7515 -0.3230
  470SOL     OW 1408   2.077   1.578   1.087  0.0922  0.3242 -0.9616
  470SOL    HW1 1409   2.111   1.613   1.177  2.4257  0.8446  1.7063
  470SOL    HW2 1410   1.977   1.584   1.080 -2.1855 -0.8010  0.3644
  471SOL     OW 1411   0.360   2.404   3.008  0.4014 -0.4813  0.2053
  471SOL    HW1 1412   0.267   2.383   3.047  0.2449 -0.3071  0.3821
  471SOL    HW2 1413   0.428   2.365   3.073 -0.4785  0.4664  0.4269
  472SOL     OW 1414   2.839   1.918   2.014 -0.0911 -0.6138 -0.1527
  472SOL    HW1 1415   2.830   1.983   1.934  0.3751  0.4862  1.0262
  472SOL    HW2 1416   2.775   1.946   2.088 -0.5651  2.5676  1.1980
  473SOL     OW 1417   0.939   2.713   0.775 -0.2204  0.4983 -0.3705
  473SOL    HW1 1418   0.988   2.656   0.708 -2.3207  0.9201  0.8335
  473SOL    HW2 1419   0.881   2.783   0.724 -1.4137  1.9077  0.6456
  474SOL     OW 1420   3.003   0.215   1.167 -0.7861  0.0088 -0.1966
  474SOL    HW1 1421   3.010   0.292   1.097 -0.5177  1.3040 -2.4502
  474SOL    HW2 1422   3.022   0.247   1.261 -0.1956 -0.8601  1.4941
  475SOL     OW 1423   1.642   2.745   1.681 -0.3554 -0.3765  0.5873
  475SOL    HW1 1424   1.706   2.711   1.610 -0.2308 -1.0874 -1.4762
  475SOL    HW2 1425   1.547   2.722   1.665  2.8733  1.4444  2.6299
  476SOL     OW 1426   0.221   0.631   1.100 -0.5016 -0.0492  0.2199
  476SOL    HW1 1427   0.303   0.637   1.035  1.3739 -2.3808 -2.2235
  476SOL    HW2 1428   0.236   0.547   1.155  0.5032  0.4405 -1.9589
  477SOL     OW 1429   0.674   2.462   0.976  0.1132  0.2684  0.0701
  477SOL    HW1 1430   0.581   2.496   0.949  0.7812 -0.6938  1.3377
  477SOL    HW2 1431   0.702   2.388   0.915 -0.4361  1.7367  0.8666
  478SOL     OW 1432   0.494   2.402   2.527  0.9384 -0.2730 -0.1068
  478SOL    HW1 1433   0.480   2.377   2.626 -0.2192 -0.5857  0.5842
  478SOL    HW2 1434   0.413   2.456   2.503  3.1523  2.1573  0.5391
  479SOL     OW 1435   0.519   0.630   2.236  0.3025  0.7979  0.1207
  479SOL    HW1 1436   0.424   0.650   2.197 -1.0355  3.2998 -0.1721
  479SOL    HW2 1437   0.543   0.688   2.313  1.2474  2.7318 -0.9210
  480SOL     OW 1438   2.940   2.133   0.047  0.1722 -0.1324  0.0304
  480SOL    HW1 1439   2.901   2.216   0.002  1.1627  2.3365 -1.1583
  480SOL    HW2 1440   3.008   2.165   0.113 -1.1155  0.9605 -1.5376
  481SOL     OW 1441   1.473   2.020   2.085 -0.1642  0.3709 -0.0379
  481SOL    HW1 1442   1.488   1.917   2.074  1.1511  1.5027  0.5686
  481SOL    HW2 1443   1.403   2.055   2.020 -1.8139  0.5389  0.2368
  482SOL     OW 1444   1.494   2.194   2.698  0.4273 -0.2091 -0.6186
  482SOL    HW1 1445   1.390   2.191   2.684 -1.1771  0.7488  0.2828
  482SOL    HW2 1446   1.537   2.147   2.619 -1.3991 -2.1679  0.0391
  483SOL     OW 1447   0.911   2.268   2.658  1.2625  0.2137 -0.0725
  483SOL    HW1 1448   0.882   2.344   2.721 -0.4081  0.2675 -1.9511
  483SOL    HW2 1449   1.006   2.240   2.680 -1.1096 -1.9389  0.0788
  484SOL     OW 1450   0.135   0.133   1.068 -0.2393 -0.1569  0.4802
  484SOL    HW1 1451   0.046   0.149   1.115  0.1212 -0.3657 -1.6599
  484SOL    HW2 1452   0.178   0.041   1.090  0.5360 -2.3295  0.6327
  485SOL     OW 1453   2.081   0.514   0.533 -0.7411 -0.1093 -0.2164
  485SOL    HW1 1454   2.004   0.548   0.594  0.5429  1.0708 -1.1636
  485SOL    HW2 1455   2.169   0.546   0.580  1.7332 -1.0302  0.1928
  486SOL     OW 1456   1.820   2.832   2.021  0.0864 -0.4371  0.1073
  486SOL    HW1 1457   1.920   2.828   2.004 -0.2469  2.5311  2.8758
  486SOL    HW2 1458   1.808   2.866   2.117  1.2276 -0.3596 -0.7248
  487SOL     OW 1459   1.634   2.185   0.780 -0.3315  0.0075  0.3316
  487SOL    HW1 1460   1.679   2.098   0.777  0.3247  3.6695 -2.8852
  487SOL    HW2 1461   1.574   2.198   0.703  0.7160 -0.2654  2.3991
  488SOL     OW 1462   2.177   0.804   0.216  0.4741 -0.1447  0.1903
  488SOL    HW1 1463   2.142   0.707   0.222  0.4969  0.5941 -0.4844
  488SOL    HW2 1464   2.245   0.813   0.146 -2.4023  1.1614  0.5179
  489SOL     OW 1465   2.502   0.141   0.694  0.3832 -0.1485  0.0143
  489SOL    HW1 1466   2.405   0.160   0.714  1.6525  1.1194 -0.4657
  489SOL    HW2 1467   2.511   0.079   0.614 -1.8530 -0.5004  2.1022
  490SOL     OW 1468   1.588   2.716   3.002 -0.3088 -0.5480 -0.3115
  490SOL    HW1 1469   1.623   2.783   3.074 -0.4832  1.9032  2.3977
  490SOL    HW2 1470   1.658   2.647   2.974  0.2112  1.4653 -0.6633
  491SOL     OW 1471   0.931   0.598   1.163 -0.0587  0.2451 -0.0746
  491SOL    HW1 1472   1.012   0.586   1.105  0.4952  1.2908  2.5124
  491SOL    HW2 1473   0.911   0.510   1.210 -1.2319  0.0633  1.6116
  492SOL     OW 1474   1.686   0.184   0.088 -0.1824 -0.4943 -0.2147
  492SOL    HW1 1475   1.622   0.124   0.038  0.4718  0.3324 -0.3582
  492SOL    HW2 1476   1.764   0.192   0.027  0.7458 -3.5715  0.0812
  493SOL     OW 1477   1.896   2.239   2.918 -0.0259 -0.4769  0.1649
  493SOL    HW1 1478   1.813   2.263   2.973  1.0169 -0.0517  0.9195
  493SOL    HW2 1479   1.940   2.327   2.887  0.2801 -1.7740 -2.8277
  494SOL     OW 1480   0.314   1.224   0.758  0.0731 -0.3716  0.2937
  494SOL    HW1 1481   0.347   1.283   0.682  2.9979 -1.9116  0.5241
  494SOL    HW2 1482   0.222   1.255   0.794 -1.5151  3.1157 -0.3584
  495SOL     OW 1483   0.050   3.099   1.567  0.0473  0.8370 -0.2123
  495SOL    HW1 1484   0.078   0.088   1.558  0.6314  1.0329  0.5061
  495SOL    HW2 1485   0.047   3.080   1.667  1.0839 -1.0285  0.7860
  496SOL     OW 1486   2.836   3.091   1.675 -0.4446 -0.0315  0.7783
  496SOL    HW1 1487   2.929   3.057   1.657 -2.9884 -4.0499  0.3316
  496SOL    HW2 1488   2.819   3.095   1.775 -0.7262  0.7028 -0.3414
  497SOL     OW 1489   1.561   1.613   2.447  0.5512  0.4879  0.2370
  497SOL    HW1 1490   1.568   1.543   2.524  1.4226 -1.6633  0.2556
  497SOL    HW2 1491   1.480   1.593   2.385  2.8771 -1.4063 -2.0000
  498SOL     OW 1492   0.466   2.033   0.671  0.0269  0.1748  0.2166
  498SOL    HW1 1493   0.478   1.944   0.626  4.3345  1.1917  2.7015
  498SOL    HW2 1494   0.391   2.028   0.744 -0.3089 -0.7146  2.6359
  499SOL     OW 1495   0.012   1.582   1.389 -0.0793  0.3137  0.5249
  499SOL    HW1 1496   0.062   1.493   1.398 -2.3920  0.9919 -2.0582
  499SOL    HW2 1497   3.028   1.580   1.433  1.4825 -2.2210 -4.6550
  500SOL     OW 1498   1.320   2.300   0.270 -0.3947  0.7131  0.2929
  500SOL    HW1 1499   1.305   2.222   0.336 -2.5122 -0.6568 -0.7168
  500SOL    HW2 1500   1.264   2.376   0.303 -1.1189  0.4219 -2.3631
  501SOL     OW 1501   2.449   2.624   1.247  0.3401 -0.3787 -0.7287
  501SOL    HW1 1502   2.484   2.723   1.240  2.7280  2.2954  0.9422
  501SOL    HW2 1503   2.530   2.557   1.254  2.5912 -1.3350  4.0443
  502SOL     OW 1504   0.012   0.918   1.762 -0.0320  0.1856  0.1232
  502SOL    HW1 1505   0.110   0.941   1.784 -0.9397 -1.1868 -2.3596
  502SOL    HW2 1506   0.004   0.859   1.684  0.5486 -0.9583 -0.6768
  503SOL     OW 1507   2.383   0.078   1.788 -0.0415 -0.7762 -0.2421
  503SOL    HW1 1508   2.456   0.106   1.856  0.3652 -1.5609  1.1067
  503SOL    HW2 1509   2.321   0.152   1.761  2.9691  0.9108  1.4666
  504SOL     OW 1510   1.829   0.601   1.797 -0.0373 -0.1208 -0.8335
  504SOL    HW1 1511   1.742   0.553   1.776 -0.7359 -0.3491 -0.2310
  504SOL    HW2 1512   1.810   0.703   1.806 -1.6357  1.6327  3.0684
  505SOL     OW 1513   1.307   0.165   2.617 -0.2930 -0.5253  0.1142
  505SOL    HW1 1514   1.335   0.067   2.635 -0.3872  0.3833  0.0761
  505SOL    HW2 1515   1.351   0.217   2.691  0.6152  0.9030 -0.9566
  506SOL     OW 1516   0.513   0.525   1.692 -0.2864 -0.2858  0.1354
  506SOL    HW1 1517   0.581   0.512   1.619 -0.9515  0.4085 -0.5620
  506SOL    HW2 1518   0.534   0.479   1.782 -0.2669 -0.0218 -1.4323
  507SOL     OW 1519   1.691   2.872   2.817 -0.5146 -0.0854  0.5868
  507SOL    HW1 1520   1.659   2.967   2.806  2.8305 -0.7958 -2.2061
  507SOL    HW2 1521   1.641   2.820   2.883  0.4271  2.9146 -0.5211
  508SOL     OW 1522   2.515   0.398   2.734 -0.9573 -0.3301 -0.0610
  508SOL    HW1 1523   2.465   0.483   2.716 -0.5453  0.7087 -1.5593
  508SOL    HW2 1524   2.448   0.322   2.742  1.4021  0.5241 -0.3092
  509SOL     OW 1525   0.997   1.375   1.762 -0.0400  0.0782 -0.1093
  509SOL    HW1 1526   0.939   1.447   1.797  1.8706 -3.7079  1.5355
  509SOL    HW2 1527   1.036   1.402   1.671  2.8363 -2.5259  0.5825
  510SOL     OW 1528   3.050   1.029   0.975  0.0003 -0.7193  0.4514
  510SOL    HW1 1529   3.080   0.952   0.913 -0.2773 -1.3435 -1.5504
  510SOL    HW2 1530   2.950   1.037   0.995  1.4206  1.2028  0.9798
  511SOL     OW 1531   1.557   1.702   1.019  0.0260 -0.5880 -0.1553
  511SOL    HW1 1532   1.467   1.745   1.048 -0.1178 -1.2643  0.4120
  511SOL    HW2 1533   1.555   1.633   0.946  2.4250 -0.3501 -0.0245
  512SOL     OW 1534   0.746   1.401   0.184 -0.4080  0.1338 -0.0499
  512SOL    HW1 1535   0.682   1.435   0.113 -1.4957  0.1145  0.5864
  512SOL    HW2 1536   0.796   1.473   0.232  0.4158 -2.6895  1.3742
  513SOL     OW 1537   0.187   2.446   0.579  0.1701  0.5733  0.2057
  513SOL    HW1 1538   0.158   2.532   0.628  0.4571  2.6195  1.2816
  513SOL    HW2 1539   0.278   2.461   0.534  0.6097  2.1003 -0.8233
  514SOL     OW 1540   0.124   1.902   2.930  0.2107  0.7766 -0.0860
  514SOL    HW1 1541   0.166   1.854   3.007 -2.9217  0.9725  0.5839
  514SOL    HW2 1542   0.060   1.837   2.884 -1.5147 -0.3706  0.8365
  515SOL     OW 1543   2.449   0.619   0.422 -0.6171 -0.9058  0.6816
  515SOL    HW1 1544   2.394   0.698   0.455 -1.7805 -1.8539  0.7523
  515SOL    HW2 1545   2.404   0.545   0.362 -0.0861 -1.1199 -1.2619
  516SOL     OW 1546   2.584   2.878   1.236 -0.1401  0.1239 -0.4629
  516SOL    HW1 1547   2.628   2.868   1.326  0.5185 -3.2822  1.8510
  516SOL    HW2 1548   2.499   2.941   1.247 -0.6658  1.9663  3.4809
  517SOL     OW 1549   1.283   1.665   3.014  0.1092  0.2626 -0.2316
  517SOL    HW1 1550   1.365   1.642   3.068 -1.6151 -0.3527  0.2462
  517SOL    HW2 1551   1.195   1.635   3.059 -0.6814  1.2981  1.7898
  518SOL     OW 1552   1.108   0.704   1.641 -0.2435  0.2373 -0.1822
  518SOL    HW1 1553   1.062   0.728   1.729 -1.8759  2.2983  2.4213
  518SOL    HW2 1554   1.152   0.612   1.645  3.3143  0.7897 -1.3668
  519SOL     OW 1555   2.855   1.941   0.911  0.5350 -0.2920  0.4807
  519SOL    HW1 1556   2.820   1.866   0.968  1.1066  0.5761  1.9891
  519SOL    HW2 1557   2.800   1.948   0.819  1.5372  3.2613 -3.2220
  520SOL     OW 1558   2.167   2.280   1.761 -0.0911 -0.6816 -0.2783
  520SOL    HW1 1559   2.148   2.209   1.831 -1.5025 -2.6968 -1.2685
  520SOL    HW2 1560   2.119   2.368   1.781 -0.8077 -1.3750 -0.1818
  521SOL     OW 1561   1.100   2.968   2.664 -0.1592 -0.0683 -0.2748
  521SOL    HW1 1562   1.049   3.056   2.664  0.4328  0.6053  1.8099
  521SOL    HW2 1563   1.038   2.905   2.609  0.0359 -0.3624 -1.8016
  522SOL     OW 1564   2.714   0.228   2.687 -0.3924 -0.6556 -0.0685
  522SOL    HW1 1565   2.767   0.257   2.609 -3.3215 -0.4919  1.5183
  522SOL    HW2 1566   2.646   0.301   2.699 -1.3175 -0.3414 -0.0772
  523SOL     OW 1567   1.356   2.385   1.557  0.1916  0.2435 -0.8366
  523SOL    HW1 1568   1.396   2.456   1.499 -1.6133  0.6010  2.4652
  523SOL    HW2 1569   1.419   2.360   1.634 -1.1873  0.2475  1.4836
  524SOL     OW 1570   1.636   2.047   2.866  0.2863 -0.1999  0.0358
  524SOL    HW1 1571   1.590   2.104   2.794  1.1570 -1.6607 -1.0334
  524SOL    HW2 1572   1.694   1.973   2.826  0.2664 -0.3238  0.7795
  525SOL     OW 1573   0.112   0.864   0.342  0.1792  0.1935 -0.1425
  525SOL    HW1 1574   0.047   0.907   0.406  0.4120 -0.7970 -1.8688
  525SOL    HW2 1575   0.208   0.863   0.368 -0.3803  1.3080 -1.1479
  526SOL     OW 1576   0.832   2.972   0.661  0.1979 -0.1965  0.1607
  526SOL    HW1 1577   0.906   3.047   0.674  0.3133  2.3905  0.4176
  526SOL    HW2 1578   0.742   3.015   0.681 -1.7342 -0.9022  0.7370
  527SOL     OW 1579   2.473   1.671   0.491 -0.5779  0.0581  0.1275
  527SOL    HW1 1580   2.532   1.671   0.575  1.8543 -0.2643  2.3511
  527SOL    HW2 1581   2.528   1.664   0.409  0.7638  1.0117  3.8513
  528SOL     OW 1582   0.668   0.914   2.305  0.4524  0.2801  0.3468
  528SOL    HW1 1583   0.707   0.967   2.382  0.1528 -0.5148 -2.8407
  528SOL    HW2 1584   0.572   0.949   2.287 -1.8992  2.0746  0.1574
  529SOL     OW 1585   1.284   1.567   2.736  0.1295  0.2415  0.4276
  529SOL    HW1 1586   1.280   1.557   2.837  1.9895 -1.7736  1.7079
  529SOL    HW2 1587   1.366   1.521   2.697 -1.3319  2.9294 -0.6617
  530SOL     OW 1588   1.782   1.261   2.445 -0.2171  0.1434 -0.6645
  530SOL    HW1 1589   1.681   1.256   2.453  1.6854 -0.7431 -1.2397
  530SOL    HW2 1590   1.826   1.176   2.481 -0.6289  2.8182 -0.4615
  531SOL     OW 1591   0.657   2.149   2.633  0.4089  0.1900  0.2989
  531SOL    HW1 1592   0.573   2.193   2.674 -0.6394  0.8252 -1.2269
  531SOL    HW2 1593   0.732   2.216   2.621  1.1936  1.6664 -4.0723
  532SOL     OW 1594   2.269   0.828   0.479  0.6845 -0.1136  0.4849
  532SOL    HW1 1595   2.185   0.836   0.535  0.8897  2.7723 -0.7042
  532SOL    HW2 1596   2.240   0.816   0.379 -2.0523  2.1888 -1.9843
  533SOL     OW 1597   0.034   0.396   1.830 -0.3050 -0.1862  0.0820
  533SOL    HW1 1598   0.106   0.443   1.772 -0.5685  1.2194 -3.3223
  533SOL    HW2 1599   0.046   0.415   1.931  0.4482 -2.4342 -0.5558
  534SOL     OW 1600   1.480   0.030   3.083  0.0509 -0.3400 -0.1625
  534SOL    HW1 1601   1.428   0.084   0.051 -2.1972 -0.9879 -0.6934
  534SOL    HW2 1602   1.418   3.083   3.026  2.9905 -0.9884  1.8371
  535SOL     OW 1603   0.553   0.246   3.009 -0.2238 -0.0244 -0.4934
  535SOL    HW1 1604   0.512   0.149   3.007 -0.3593  1.1601  0.1552
  535SOL    HW2 1605   0.581   0.265   0.001 -0.5229 -1.7822  1.4955
  536SOL     OW 1606   0.279   1.794   1.704  0.1435 -0.7596  0.1058
  536SOL    HW1 1607   0.207   1.730   1.674 -0.7258 -1.6636  0.4132
  536SOL    HW2 1608   0.353   1.745   1.749 -0.9843  2.1807 -3.0067
  537SOL     OW 1609   0.474   2.548   1.941  0.4156  0.1534  0.1167
  537SOL    HW1 1610   0.445   2.487   1.859  1.1679 -0.9821  0.1896
  537SOL    HW2 1611   0.537   2.503   2.006 -0.9175  0.2995  0.2173
  538SOL     OW 1612   3.017   1.588   3.077 -0.3881  1.0637 -0.0288
  538SOL    HW1 1613   3.087   1.654   3.101 -1.7784  0.2613 -0.2209
  538SOL    HW2 1614   3.047   1.488   3.086  0.4136 -2.0949  0.0924
  539SOL     OW 1615   2.733   0.726   2.636  0.2891  0.0977 -0.4228
  539SOL    HW1 1616   2.752   0.624   2.632 -4.0798  0.0659  1.7488
  539SOL    HW2 1617   2.801   0.778   2.579  2.0989 -0.0234 -1.2572
  540SOL     OW 1618   1.725   0.502   2.392  0.0696 -0.2775 -0.2876
  540SOL    HW1 1619   1.776   0.574   2.439  0.9218  0.7091  2.9424
  540SOL    HW2 1620   1.790   0.432   2.353 -0.5281 -0.6824  1.6084
  541SOL     OW 1621   0.791   0.143   1.794  0.4936 -0.2475 -0.8667
  541SOL    HW1 1622   0.776   0.046   1.825 -1.1607  2.9170 -0.6417
  541SOL    HW2 1623   0.791   0.211   1.875  0.7113 -0.2833  0.4269
  542SOL     OW 1624   1.943   2.687   2.455 -0.3003  1.0482 -0.3376
  542SOL    HW1 1625   1.876   2.739   2.404  0.3258 -0.1186 -0.2761
  542SOL    HW2 1626   1.895   2.601   2.491 -1.3289 -1.3729  0.2248
  543SOL     OW 1627   0.587   0.033   0.717 -0.8339 -0.3704 -0.3925
  543SOL    HW1 1628   0.591   0.039   0.819 -0.6503 -1.0621  0.0735
  543SOL    HW2 1629   0.534   0.105   0.672  0.4380 -2.0867 -1.8921
  544SOL     OW 1630   2.463   1.635   2.130 -0.1320  0.2762  0.0772
  544SOL    HW1 1631   2.545   1.655   2.071  0.5944  0.0249  2.3745
  544SOL    HW2 1632   2.394   1.580   2.079  0.0307 -0.1692  1.3733
  545SOL     OW 1633   1.823   1.784   1.259  0.0974 -0.4567  0.0475
  545SOL    HW1 1634   1.734   1.831   1.287 -1.2657  1.0844 -2.3061
  545SOL    HW2 1635   1.861   1.721   1.329  0.7226 -0.2003 -1.9158
  546SOL     OW 1636   0.339   0.064   2.296  0.1942 -0.1438  0.0639
  546SOL    HW1 1637   0.339   0.102   2.201  1.1297 -0.1104 -1.4973
  546SOL    HW2 1638   0.278   3.086   2.299 -2.7628 -1.4847 -0.4487
  547SOL     OW 1639   1.183   0.583   1.039  0.6192  0.4438  0.4326
  547SOL    HW1 1640   1.222   0.659   1.093 -2.2888  1.7964 -1.9587
  547SOL    HW2 1641   1.194   0.596   0.937 -1.2954  1.0751 -1.1766
  548SOL     OW 1642   1.397   2.445   2.773  0.1334  0.0789  0.3203
  548SOL    HW1 1643   1.434   2.356   2.743 -0.4594  3.3107  1.5133
  548SOL    HW2 1644   1.443   2.523   2.731  1.5730 -3.1020  0.0132
  549SOL     OW 1645   2.276   0.170   3.105 -0.7244  0.2950 -0.0604
  549SOL    HW1 1646   2.214   0.200   0.074  0.2915  1.1405  0.7660
  549SOL    HW2 1647   2.358   0.123   0.031  0.7829 -3.0424  1.2014
  550SOL     OW 1648   2.751   1.987   0.675 -0.0236  0.1144  0.3291
  550SOL    HW1 1649   2.708   1.896   0.669  2.5349 -1.8615  0.1841
  550SOL    HW2 1650   2.791   2.012   0.583  0.1583  1.2042  2.1301
  551SOL     OW 1651   1.125   2.990   2.077  0.6970 -0.3304 -0.1635
  551SOL    HW1 1652   1.090   2.927   2.010  1.1475  2.7736  1.6095
  551SOL    HW2 1653   1.069   3.073   2.092 -0.4658  0.6487 -0.7628
  552SOL     OW 1654   3.001   2.238   2.566  0.0530 -0.2991 -0.4182
  552SOL    HW1 1655   2.962   2.197   2.481 -0.9557  1.5317 -2.4207
  552SOL    HW2 1656   2.937   2.312   2.592  1.0228  0.3624 -1.4948
  553SOL     OW 1657   0.092   2.639   1.000  0.7365  0.2891  0.0360
  553SOL    HW1 1658   0.022   2.680   1.064  0.3034  1.6091  1.7538
  553SOL    HW2 1659   0.086   2.539   0.979  0.6338 -0.8294 -2.7510
  554SOL     OW 1660   2.034   1.892   1.706  0.5807 -0.8835  0.2310
  554SOL    HW1 1661   2.029   1.924   1.802  0.7347 -1.2038 -1.5358
  554SOL    HW2 1662   2.073   1.968   1.647 -0.0224 -1.5301 -3.6175
  555SOL     OW 1663   1.487   2.233   1.774 -0.2245 -0.1174  0.4788
  555SOL    HW1 1664   1.422   2.162   1.796  0.4159  2.3354  1.6995
  555SOL    HW2 1665   1.515   2.282   1.861  1.1917  1.9592  2.3378
  556SOL     OW 1666   1.442   1.457   0.838  0.2213 -0.7148  0.3781
  556SOL    HW1 1667   1.533   1.457   0.798 -0.7359 -0.5558 -0.0579
  556SOL    HW2 1668   1.388   1.540   0.811 -1.0051  3.4793  0.9626
  557SOL     OW 1669   1.324   2.897   1.563 -0.0349 -0.0422 -0.0389
  557SOL    HW1 1670   1.360   2.884   1.659 -0.7639  1.9616  0.4608
  557SOL    HW2 1671   1.326   2.998   1.538 -0.1509  0.1253 -0.0423
  558SOL     OW 1672   0.277   0.109   1.853  0.5863 -0.6495  0.4452
  558SOL    HW1 1673   0.284   0.185   1.924 -0.6086  1.0163  0.6713
  558SOL    HW2 1674   0.282   0.151   1.759  0.3469  3.1241  1.9387
  559SOL     OW 1675   2.175   3.025   0.843 -0.0966 -0.5133  0.4265
  559SOL    HW1 1676   2.237   3.085   0.893 -2.5253 -1.9717 -0.9927
  559SOL    HW2 1677   2.167   3.060   0.747 -2.6100  0.8378 -3.4064
  560SOL     OW 1678   1.473   2.365   0.584  0.1288  0.5057 -0.1405
  560SOL    HW1 1679   1.382   2.355   0.628 -0.1947  1.1581 -1.9911
  560SOL    HW2 1680   1.521   2.441   0.629 -0.7032  1.9311  0.8034
  561SOL     OW 1681   0.944   0.275   0.548 -0.0900  0.3047 -0.1358
  561SOL    HW1 1682   1.042   0.296   0.537  0.3713  1.5142 -2.3673
  561SOL    HW2 1683   0.897   0.266   0.459 -1.0928  0.7100 -2.0753
  562SOL     OW 1684   0.375   1.384   2.559  0.3260  0.3927 -0.3308
  562SOL    HW1 1685   0.333   1.293   2.576 -1.3595  0.0726  1.6422
  562SOL    HW2 1686   0.473   1.372   2.555 -1.4813  0.1891 -0.6790
  563SOL     OW 1687   1.481   2.206   2.276 -0.0308 -0.1101  0.4726
  563SOL    HW1 1688   1.446   2.121   2.234  0.2305 -0.9470 -0.1835
  563SOL    HW2 1689   1.546   2.188   2.352 -0.8989  1.6992 -0.7984
  564SOL     OW 1690   2.781   1.054   1.035 -0.1250  0.0819  0.2885
  564SOL    HW1 1691   2.786   1.153   1.022 -0.3197 -0.5839 -0.6312
  564SOL    HW2 1692   2.711   1.005   0.980  0.7930  2.5169  2.9767
  565SOL     OW 1693   0.545   1.115   0.126 -0.2725  0.0399  0.5139
  565SOL    HW1 1694   0.562   1.041   0.056  1.2261  0.5325  0.1704
  565SOL    HW2 1695   0.624   1.116   0.187 -2.9583 -0.3475 -3.9863
  566SOL     OW 1696   2.632   0.015   2.836  0.1683 -0.5039 -0.7584
  566SOL    HW1 1697   2.535   0.030   2.867  0.5047 -0.4817 -3.1643
  566SOL    HW2 1698   2.667   0.100   2.793 -1.9960 -0.1556  0.4318
  567SOL     OW 1699   1.423   0.831   0.782  0.8687  0.2509 -0.0555
  567SOL    HW1 1700   1.467   0.835   0.872 -0.1207 -0.0440  0.3147
  567SOL    HW2 1701   1.377   0.917   0.750  2.1683  0.4069 -1.3164
  568SOL     OW 1702   1.818   1.832   2.700  0.0957  0.4546  0.1977
  568SOL    HW1 1703   1.771   1.823   2.611  0.6051  1.2377 -2.0289
  568SOL    HW2 1704   1.808   1.752   2.759  1.3202  0.4696 -0.6383
  569SOL     OW 1705   2.174   1.297   3.061  0.2083 -0.3885  0.2050
  569SOL    HW1 1706   2.158   1.235   0.029  0.4348  1.6234 -1.4906
  569SOL    HW2 1707   2.272   1.300   3.039 -4.6260 -0.7240  0.4824
  570SOL     OW 1708   0.194   2.498   1.981  0.1683 -0.0054 -0.5866
  570SOL    HW1 1709   0.292   2.530   1.995  1.8035 -1.1296  1.5015
  570SOL    HW2 1710   0.136   2.556   1.913 -0.8423  0.6591 -1.0799
  571SOL     OW 1711   2.803   1.861   1.640 -0.2996  0.7651  0.2914
  571SOL    HW1 1712   2.809   1.898   1.548 -2.8846 -0.5583 -0.8980
  571SOL    HW2 1713   2.802   1.929   1.713 -0.2702 -2.2904 -0.1357
  572SOL     OW 1714   1.666   1.909   0.411  0.0276 -0.3998 -0.1585
  572SOL    HW1 1715   1.599   1.915   0.490 -0.3456 -1.1224 -0.5630
  572SOL    HW2 1716   1.716   1.996   0.403  1.5616 -0.3600  1.7163
  573SOL     OW 1717   1.812   2.124   0.395 -0.4178 -0.7425 -0.9189
  573SOL    HW1 1718   1.879   2.145   0.323 -0.4441  2.2283  2.4105
  573SOL    HW2 1719   1.725   2.175   0.381  1.5589 -1.1632  1.7023
  574SOL     OW 1720   0.894   0.342   1.243  0.4925 -0.3164 -0.0830
  574SOL    HW1 1721   0.934   0.286   1.319  1.3123  1.4552 -4.9556
  574SOL    HW2 1722   0.889   0.287   1.162  2.2711 -0.6835  0.3900
  575SOL     OW 1723   0.806   0.907   1.811  0.5814  0.2911 -0.6049
  575SOL    HW1 1724   0.845   0.983   1.766 -1.7230 -2.9668  0.1980
  575SOL    HW2 1725   0.778   0.926   1.908 -1.6459  0.1565 -0.3931
  576SOL     OW 1726   2.658   0.342   1.687 -0.5561  0.4625 -0.8452
  576SOL    HW1 1727   2.746   0.396   1.689  0.2014 -0.0137 -0.2310
  576SOL    HW2 1728   2.658   0.280   1.605  3.4641  1.4979 -1.2505
  577SOL     OW 1729   1.273   1.172   2.392 -0.1085  0.3337 -0.5654
  577SOL    HW1 1730   1.239   1.185   2.491 -1.2833 -0.8505  1.3064
  577SOL    HW2 1731   1.282   1.072   2.367  0.9959 -0.6458 -0.2863
  578SOL     OW 1732   2.139   1.448   2.554  0.4097 -0.3440  0.7123
  578SOL    HW1 1733   2.038   1.464   2.538 -3.7381  1.6127  0.3677
  578SOL    HW2 1734   2.181   1.493   2.474 -1.7289  1.9530  0.8351
  579SOL     OW 1735   1.255   2.138   1.502 -0.4910  0.0311 -0.0863
  579SOL    HW1 1736   1.326   2.077   1.545 -1.5678 -1.0627  2.8241
  579SOL    HW2 1737   1.284   2.238   1.529 -0.0625 -0.3717  0.9355
  580SOL     OW 1738   1.339   2.070   0.433 -0.2879  0.3879  0.5105
  580SOL    HW1 1739   1.418   2.049   0.497 -0.6931 -1.0423 -0.9576
  580SOL    HW2 1740   1.337   1.985   0.371  0.7037 -1.6261 -2.3928
  581SOL     OW 1741   1.319   0.837   2.089 -0.1911  0.3568  0.5345
  581SOL    HW1 1742   1.223   0.805   2.073  0.1135 -0.4517  0.7108
  581SOL    HW2 1743   1.332   0.874   2.182 -0.2025  0.2427 -3.4439
  582SOL     OW 1744   0.855   1.135   1.700  0.1094  0.5335  0.2245
  582SOL    HW1 1745   0.906   1.204   1.757 -0.2501  0.6556 -1.1547
  582SOL    HW2 1746   0.865   1.158   1.604 -0.7263 -0.4880  0.6669
  583SOL     OW 1747   1.140   1.245   1.948  0.2740  0.0121  0.3385
  583SOL    HW1 1748   1.199   1.177   1.900  0.2840  3.7022 -0.3076
  583SOL    HW2 1749   1.073   1.285   1.882  1.6904  2.0242  0.6239
  584SOL     OW 1750   2.440   2.392   0.970  0.4965  0.1806 -0.4785
  584SOL    HW1 1751   2.427   2.387   0.870  3.8980 -1.4849 -3.1990
  584SOL    HW2 1752   2.396   2.474   1.014  1.1688 -2.5718 -1.1361
  585SOL     OW 1753   2.031   0.009   2.699 -0.1125  0.5564 -0.1312
  585SOL    HW1 1754   1.992   3.021   2.696  0.4184  4.9888 -1.6967
  585SOL    HW2 1755   2.097   0.022   2.775  0.9706  0.1341  1.8695
  586SOL     OW 1756   3.095   2.297   0.741 -0.1527  0.0025 -0.1507
  586SOL    HW1 1757   3.012   2.337   0.697 -0.6721 -0.7576 -1.0267
  586SOL    HW2 1758   0.070   2.328   0.687  2.0590 -1.0708 -0.9698
  587SOL     OW 1759   1.519   1.663   0.048  0.5065 -0.4120 -0.5154
  587SOL    HW1 1760   1.569   1.738   0.099 -0.5089  0.6103 -0.2477
  587SOL    HW2 1761   1.580   1.582   0.035 -0.4882 -0.8681 -0.3787
  588SOL     OW 1762   0.256   0.370   1.196  0.0155  0.6939  0.2876
  588SOL    HW1 1763   0.340   0.324   1.238 -1.0810  0.0134 -0.1404
  588SOL    HW2 1764   0.215   0.305   1.126 -0.7449 -0.9625 -2.4297
  589SOL     OW 1765   1.230   0.647   0.787 -0.3288  0.1293 -0.0190
  589SOL    HW1 1766   1.313   0.703   0.777 -1.1414  0.9997 -0.6007
  589SOL    HW2 1767   1.152   0.694   0.734 -0.2328  0.1235 -2.4600
  590SOL     OW 1768   1.284   1.110   3.016  0.3492  0.3907  0.2350
  590SOL    HW1 1769   1.371   1.125   3.071  0.2582 -0.9428  0.8436
  590SOL    HW2 1770   1.237   1.196   2.996  0.4447 -0.0423  2.2260
  591SOL     OW 1771   2.609   2.527   2.460  0.3709  0.0100  0.4712
  591SOL    HW1 1772   2.524   2.540   2.518  1.6282  0.8463 -1.3106
  591SOL    HW2 1773   2.629   2.619   2.413 -0.0305  2.6574 -1.4839
  592SOL     OW 1774   1.875   2.261   1.429 -0.1169  0.3086  0.1516
  592SOL    HW1 1775   1.805   2.276   1.354  0.5191 -0.4302 -0.2246
  592SOL    HW2 1776   1.829   2.226   1.517 -2.1470 -1.0316  0.0103
  593SOL     OW 1777   0.523   0.327   0.956  0.2953  0.4128 -0.1471
  593SOL    HW1 1778   0.504   0.237   0.995 -0.5773  0.8832  2.4087
  593SOL    HW2 1779   0.452   0.355   0.890  1.5982 -1.6946  2.2693
  594SOL     OW 1780   2.789   1.062   2.527 -0.1332  0.2381  0.2325
  594SOL    HW1 1781   2.819   1.136   2.587 -0.1381  0.0459  1.3946
  594SOL    HW2 1782   2.870   1.027   2.473  1.2214  0.2465  0.0688
  595SOL     OW 1783   0.458   2.887   0.839  0.1445  0.2273 -0.7431
  595SOL    HW1 1784   0.415   2.801   0.883  1.4087 -2.5385 -0.2950
  595SOL    HW2 1785   0.497   2.946   0.912 -0.2623  0.0073  1.0543
  596SOL     OW 1786   0.106   1.316   1.412  0.1773  0.2625  0.1350
  596SOL    HW1 1787   0.092   1.303   1.513 -1.0402  2.6484  1.5454
  596SOL    HW2 1788   0.059   1.241   1.356 -2.3790 -0.5533  1.4038
  597SOL     OW 1789   1.779   1.634   0.241  0.5830 -0.3831  0.1344
  597SOL    HW1 1790   1.827   1.667   0.324 -0.9902 -2.4134 -0.3534
  597SOL    HW2 1791   1.789   1.702   0.163  0.6836 -3.3203 -2.8466
  598SOL     OW 1792   0.459   3.010   1.836 -0.3473 -0.3622  0.5267
  598SOL    HW1 1793   0.432   2.962   1.747 -1.1080 -1.2636  0.1917
  598SOL    HW2 1794   0.392   3.087   1.861  0.4635 -0.4922 -0.8715
  599SOL     OW 1795   2.468   1.581   2.936  0.4213  0.6707 -0.6141
  599SOL    HW1 1796   2.382   1.602   2.885  1.2928 -2.0567  0.0838
  599SOL    HW2 1797   2.549   1.585   2.876 -0.5179  0.8063  1.9766
  600SOL     OW 1798   0.842   1.155   0.229 -0.2138 -0.0031 -0.3605
  600SOL    HW1 1799   0.790   1.244   0.221  1.4887 -2.0639  0.0799
  600SOL    HW2 1800   0.891   1.152   0.322  2.8525  0.4063 -1.0976
  601SOL     OW 1801   0.389   0.974   0.878 -0.4453  0.6816 -0.7225
  601SOL    HW1 1802   0.358   1.065   0.838  0.9070  0.5547  1.2381
  601SOL    HW2 1803   0.469   0.996   0.942 -0.4671 -0.4372 -0.8709
  602SOL     OW 1804   1.689   2.778   0.396  0.8826  0.0853 -0.0910
  602SOL    HW1 1805   1.735   2.783   0.487 -0.5023 -0.5751 -0.6142
  602SOL    HW2 1806   1.751   2.801   0.321  1.2484 -2.3884 -0.1097
  603SOL     OW 1807   0.826   2.684   2.296  0.1148 -0.3566  0.4119
  603SOL    HW1 1808   0.852   2.671   2.199  2.1982 -1.0754  0.3979
  603SOL    HW2 1809   0.797   2.590   2.329 -2.6695  0.1194  0.4344
  604SOL     OW 1810   0.190   0.211   2.481 -0.2526  0.1879 -0.0610
  604SOL    HW1 1811   0.237   0.173   2.398  3.5220 -2.8578  1.2500
  604SOL    HW2 1812   0.256   0.194   2.559  0.6820 -1.5410 -0.4167
  605SOL     OW 1813   2.686   1.427   1.406  0.5674 -0.0152 -0.0116
  605SOL    HW1 1814   2.669   1.334   1.448 -2.6890 -0.0182  3.2165
  605SOL    HW2 1815   2.600   1.452   1.359 -1.0563 -1.1621 -0.3798
  606SOL     OW 1816   0.873   1.567   2.493 -0.0627 -0.0842  0.1870
  606SOL    HW1 1817   0.784   1.607   2.522 -0.1025 -1.3975  0.4380
  606SOL    HW2 1818   0.873   1.475   2.449 -2.6303  0.5497 -3.5439
  607SOL     OW 1819   0.424   0.089   0.335 -0.1419 -0.5973 -0.3510
  607SOL    HW1 1820   0.374   0.168   0.375 -1.6056 -2.4102 -0.4567
  607SOL    HW2 1821   0.360   0.012   0.330  0.3393 -0.0265 -0.7861
  608SOL     OW 1822   1.916   1.827   2.046  0.2614  0.1918 -0.2380
  608SOL    HW1 1823   1.854   1.906   2.063 -1.7115  2.9085 -1.3728
  608SOL    HW2 1824   1.888   1.771   1.966  0.4166 -0.3566 -1.2189
  609SOL     OW 1825   2.697   0.451   1.314 -0.4781 -0.5895 -0.3526
  609SOL    HW1 1826   2.677   0.422   1.219 -2.0644 -0.1339  1.7634
  609SOL    HW2 1827   2.689   0.376   1.380 -0.0391  0.5186 -0.4281
  610SOL     OW 1828   0.282   2.848   0.637  0.1088  0.0155 -0.1694
  610SOL    HW1 1829   0.343   2.874   0.721 -0.1460  0.4849 -0.2821
  610SOL    HW2 1830   0.337   2.860   0.552  0.0200 -2.4421  1.1098
  611SOL     OW 1831   1.688   0.847   2.916 -0.0597  0.1459 -0.1452
  611SOL    HW1 1832   1.756   0.919   2.884  0.6364  2.2855  0.3317
  611SOL    HW2 1833   1.614   0.837   2.844 -1.5897 -0.6509 -0.9460
  612SOL     OW 1834   0.825   2.313   1.904 -0.2569 -0.0368 -0.4393
  612SOL    HW1 1835   0.889   2.266   1.962  0.2157  1.7023  0.7151
  612SOL    HW2 1836   0.872   2.390   1.855  0.4267  2.4287  0.9494
  613SOL     OW 1837   0.423   2.471   0.460  0.5532 -0.1894  0.1746
  613SOL    HW1 1838   0.429   2.397   0.530  1.8139  2.2468  1.4729
  613SOL    HW2 1839   0.517   2.511   0.452  2.1335 -3.5611 -1.4868
  614SOL     OW 1840   2.558   3.102   1.585 -0.1417 -0.1096 -0.1830
  614SOL    HW1 1841   2.656   3.093   1.616  1.2844  0.4597  0.2320
  614SOL    HW2 1842   2.500   3.094   1.672  0.0466  1.0235  1.2242
  615SOL     OW 1843   1.883   0.884   0.344  0.0370 -0.2259  0.4517
  615SOL    HW1 1844   1.820   0.962   0.341  2.0331 -2.9423 -2.0541
  615SOL    HW2 1845   1.929   0.885   0.253 -1.5353 -0.3582 -1.4524
  616SOL     OW 1846   2.076   0.546   0.256 -0.0876  0.5348  0.4185
  616SOL    HW1 1847   2.076   0.525   0.354 -2.4172  2.1245  0.2356
  616SOL    HW2 1848   1.980   0.567   0.221 -2.9638  1.1710  0.3072
  617SOL     OW 1849   0.923   0.987   2.918  0.0328  0.5744  0.0950
  617SOL    HW1 1850   0.904   1.063   2.979  2.1460 -1.9503 -0.6962
  617SOL    HW2 1851   0.990   0.921   2.958  0.3772 -4.4964  0.9715
  618SOL     OW 1852   0.723   2.996   1.845 -0.1295  0.1951  0.0365
  618SOL    HW1 1853   0.740   2.908   1.899  1.4805 -0.7022 -1.3101
  618SOL    HW2 1854   0.623   3.011   1.832  0.5767  0.7183 -0.1101
  619SOL     OW 1855   2.960   1.377   1.191 -0.5115  0.2231  0.0465
  619SOL    HW1 1856   2.945   1.305   1.261 -2.2437 -2.0253  0.8655
  619SOL    HW2 1857   2.936   1.471   1.222  0.3302 -2.0197  0.2788
  620SOL     OW 1858   2.616   1.013   2.982  0.7638  0.1318 -0.0362
  620SOL    HW1 1859   2.571   1.067   2.906  1.3438 -2.0381  2.1400
  620SOL    HW2 1860   2.621   0.918   2.948 -1.2948  0.9566 -2.0596
  621SOL     OW 1861   2.654   2.482   1.360  0.2349 -0.0003  0.0156
  621SOL    HW1 1862   2.754   2.503   1.362  1.0256 -0.8687  0.5240
  621SOL    HW2 1863   2.601   2.523   1.437  0.0195  0.6942  1.3349
  622SOL     OW 1864   1.006   0.782   2.544  0.2893  0.1539  0.2916
  622SOL    HW1 1865   0.923   0.759   2.491 -0.2340  0.5793 -1.5352
  622SOL    HW2 1866   1.000   0.871   2.592 -1.3596  0.1420  1.5511
  623SOL     OW 1867   1.127   0.562   2.678  0.7055 -0.3459  0.1133
  623SOL    HW1 1868   1.114   0.464   2.644 -0.1182  0.5269  0.3951
  623SOL    HW2 1869   1.063   0.628   2.628  0.8313 -0.3853  1.2593
  624SOL     OW 1870   2.340   0.695   0.041 -0.4561 -0.1469  0.3460
  624SOL    HW1 1871   2.329   0.711   3.048 -3.3620 -0.5667  2.5012
  624SOL    HW2 1872   2.430   0.685   0.076 -2.4180 -0.3849 -4.1532
  625SOL     OW 1873   0.895   1.189   0.888  0.9305  0.8773  0.0853
  625SOL    HW1 1874   0.976   1.123   0.887  2.5101 -2.0064  1.2190
  625SOL    HW2 1875   0.921   1.284   0.891  0.9734 -2.0778  2.3088
  626SOL     OW 1876   1.823   0.987   2.545 -0.3942  0.1892 -0.1401
  626SOL    HW1 1877   1.850   0.898   2.499  1.3468  1.4556  1.3816
  626SOL    HW2 1878   1.859   1.000   2.639  1.4438  0.9000 -4.0590
  627SOL     OW 1879   1.075   2.900   2.919  0.0910  0.2624  0.4523
  627SOL    HW1 1880   1.085   2.927   2.821 -0.7541  1.6717 -2.5675
  627SOL    HW2 1881   1.053   2.985   2.973 -0.1549  0.3599 -0.0513
  628SOL     OW 1882   2.161   0.211   2.531 -0.2142 -0.1266  0.2238
  628SOL    HW1 1883   2.084   0.156   2.572  1.5281  0.2835  1.0660
  628SOL    HW2 1884   2.248   0.188   2.575 -2.8615 -1.5416  0.9517
  629SOL     OW 1885   1.067   0.466   2.929 -0.0894  0.4674 -0.0637
  629SOL    HW1 1886   1.077   0.513   2.844 -1.9804 -1.1449 -0.4003
  629SOL    HW2 1887   1.014   0.523   2.992  0.4961 -3.0208  1.4560
  630SOL     OW 1888   1.266   0.153   2.350  0.3225  0.2591 -0.0116
  630SOL    HW1 1889   1.259   0.246   2.311 -0.3861  0.1552  1.8076
  630SOL    HW2 1890   1.286   0.154   2.451 -0.3381  3.0170  0.6217
  631SOL     OW 1891   2.368   1.026   0.764  0.1742 -0.3492  0.0150
  631SOL    HW1 1892   2.323   1.106   0.821  1.2207  0.5688  2.4983
  631SOL    HW2 1893   2.369   1.052   0.663 -0.6427 -1.5778 -0.4053
  632SOL     OW 1894   1.961   0.852   1.410  0.5427  0.6971 -0.0461
  632SOL    HW1 1895   2.004   0.918   1.475  0.4082 -0.7426  1.1722
  632SOL    HW2 1896   1.970   0.754   1.437 -2.2206  1.0212 -1.0551
  633SOL     OW 1897   0.885   1.563   0.566  0.1873 -0.1763 -0.1632
  633SOL    HW1 1898   0.883   1.584   0.465  0.6826 -1.6776 -2.5306
  633SOL    HW2 1899   0.931   1.472   0.587 -0.3750 -1.5206  2.9159
  634SOL     OW 1900   2.154   0.281   1.203 -0.3577 -0.1745 -0.0294
  634SOL    HW1 1901   2.186   0.204   1.258 -2.4467  0.5748 -1.7064
  634SOL    HW2 1902   2.056   0.304   1.226 -0.5077  1.7701  1.8294
  635SOL     OW 1903   1.764   0.551   1.300 -0.0808 -0.3502  0.0489
  635SOL    HW1 1904   1.669   0.565   1.334 -3.1979  1.1983  0.6057
  635SOL    HW2 1905   1.777   0.602   1.207  0.0073  1.3012 -4.7553
  636SOL     OW 1906   0.954   1.158   0.478  0.2127 -0.4240 -0.0650
  636SOL    HW1 1907   1.007   1.240   0.517  0.3730  0.0415  0.9433
  636SOL    HW2 1908   0.910   1.102   0.548 -0.3929  1.5891  0.9000
  637SOL     OW 1909   2.613   2.246   2.766  0.0564  0.3514 -0.0355
  637SOL    HW1 1910   2.607   2.190   2.852 -0.4865  2.2126  2.1283
  637SOL    HW2 1911   2.517   2.237   2.721 -2.6636  2.5867  0.3404
  638SOL     OW 1912   1.548   2.653   2.643  0.3200 -0.1085  0.1958
  638SOL    HW1 1913   1.589   2.733   2.691  0.8473  0.6025  1.4235
  638SOL    HW2 1914   1.482   2.684   2.568 -0.6783  2.0223 -1.7861
  639SOL     OW 1915   0.948   1.958   1.211 -0.3697 -0.4911 -0.2057
  639SOL    HW1 1916   0.854   1.990   1.182 -1.1852 -0.1564 -1.2487
  639SOL    HW2 1917   1.008   2.041   1.232  0.5339 -0.4953  0.8289
  640SOL     OW 1918   2.332   2.903   0.527 -0.3366  0.5899 -0.4764
  640SOL    HW1 1919   2.257   2.850   0.482  1.6652  0.4984 -1.7408
  640SOL    HW2 1920   2.304   2.993   0.566 -1.5449 -1.4202  1.0553
  641SOL     OW 1921   0.245   2.974   0.329 -0.5214 -0.5346  0.2711
  641SOL    HW1 1922   0.298   2.887   0.359  0.3943  0.5377  0.6186
  641SOL    HW2 1923   0.148   2.978   0.358 -0.8691  0.8287 -1.7398
  642SOL     OW 1924   2.851   0.957   1.278  0.0421  0.0271  0.0622
  642SOL    HW1 1925   2.848   0.857   1.253  1.0605 -0.3276 -0.9573
  642SOL    HW2 1926   2.817   1.019   1.202 -0.0389 -0.6703 -1.1705
  643SOL     OW 1927   0.838   1.836   1.927  0.2375  0.1515 -0.1904
  643SOL    HW1 1928   0.770   1.901   1.892 -2.5282 -2.2009 -1.9043
  643SOL    HW2 1929   0.930   1.877   1.943  0.4019 -0.1636 -2.6756
  644SOL     OW 1930   1.685   2.521   0.271  0.0221 -0.2473  0.1032
  644SOL    HW1 1931   1.663   2.424   0.290  0.4871 -0.2559  1.4236
  644SOL    HW2 1932   1.641   2.583   0.335  1.0516 -1.9271 -0.5831
  645SOL     OW 1933   2.044   2.129   1.115  0.1967  0.4350  0.6411
  645SOL    HW1 1934   1.980   2.053   1.101  1.8746  1.2779  2.6135
  645SOL    HW2 1935   2.005   2.218   1.081 -2.1787  2.6357 -0.9467
  646SOL     OW 1936   1.058   2.640   2.945 -0.6770 -0.4681  0.0073
  646SOL    HW1 1937   1.154   2.619   2.975 -0.1651  0.9247 -2.5358
  646SOL    HW2 1938   1.052   2.743   2.942  0.3210  2.8587  0.7717
  647SOL     OW 1939   0.347   2.784   1.936 -1.0063  0.1768  0.0073
  647SOL    HW1 1940   0.405   2.858   1.901 -0.6120 -1.8347 -1.2173
  647SOL    HW2 1941   0.402   2.698   1.929 -2.0623  0.8146 -0.4902
  648SOL     OW 1942   1.720   0.690   1.035 -0.2916  0.7234  0.0009
  648SOL    HW1 1943   1.747   0.632   0.958 -1.3265  1.0720 -0.3352
  648SOL    HW2 1944   1.798   0.744   1.073  1.4651  3.4381  1.2081
  649SOL     OW 1945   1.655   2.145   0.005  0.6085 -0.0762  0.0129
  649SOL    HW1 1946   1.633   2.243   0.005  0.0590 -2.3981  1.4864
  649SOL    HW2 1947   1.639   2.103   3.020 -0.6224 -0.5504 -0.5563
  650SOL     OW 1948   2.298   1.467   1.966 -0.2024  0.5590  0.4483
  650SOL    HW1 1949   2.296   1.444   1.870 -0.2117  2.0658  1.1031
  650SOL    HW2 1950   2.217   1.427   2.011  0.5324 -1.1469 -0.1968
  651SOL     OW 1951   1.664   2.411   0.037  0.2680 -0.5130 -0.3974
  651SOL    HW1 1952   1.669   2.479   0.114 -0.0479  1.5415  1.9934
  651SOL    HW2 1953   1.695   2.454   3.057 -2.9671  0.4131 -4.8646
  652SOL     OW 1954   0.674   2.103   0.095  0.3074  0.2959 -0.1052
  652SOL    HW1 1955   0.763   2.083   0.047 -1.2829 -2.2360  0.1324
  652SOL    HW2 1956   0.604   2.044   0.056  2.8988 -4.0997  2.3181
  653SOL     OW 1957   2.397   2.021   1.239 -0.0579 -0.5303 -0.5832
  653SOL    HW1 1958   2.434   2.108   1.278  1.2033 -0.3055  1.9601
  653SOL    HW2 1959   2.297   2.000   1.255  0.9336  1.6094  0.4168
  654SOL     OW 1960   2.894   2.723   1.502  0.1687  0.5724 -0.1481
  654SOL    HW1 1961   2.938   2.810   1.468  0.6006  0.8080 -0.6151
  654SOL    HW2 1962   2.923   2.640   1.450 -0.4383  1.3445  1.1307
  655SOL     OW 1963   0.056   2.268   1.372  0.5950 -0.1761  0.3283
  655SOL    HW1 1964   0.024   2.184   1.422  1.1307 -2.0282 -1.8717
  655SOL    HW2 1965   3.097   2.295   1.296 -0.1800  0.0035  0.0786
  656SOL     OW 1966   2.953   2.695   2.640 -0.0770 -0.1013 -0.0402
  656SOL    HW1 1967   2.869   2.667   2.689 -0.1346  1.9161  0.2420
  656SOL    HW2 1968   2.963   2.796   2.652  0.1369  0.1743 -0.3832
  657SOL     OW 1969   3.082   0.697   0.127  0.7965 -0.1297 -0.0743
  657SOL    HW1 1970   2.979   0.706   0.139  0.1925 -0.0102  1.6932
  657SOL    HW2 1971   0.025   0.767   0.185  3.9287  0.1574  0.9078
  658SOL     OW 1972   1.907   1.912   1.044  0.2724 -0.0361 -0.1679
  658SOL    HW1 1973   1.906   1.870   0.951 -0.7363 -1.0343  1.6125
  658SOL    HW2 1974   1.876   1.846   1.115 -0.6646  0.5797 -2.1138
  659SOL     OW 1975   1.466   0.605   1.348  0.4687  0.5101 -0.3985
  659SOL    HW1 1976   1.412   0.667   1.284 -1.0424 -0.3721  1.7745
  659SOL    HW2 1977   1.407   0.524   1.373  2.1318 -1.7955  3.0447
  660SOL     OW 1978   1.717   1.489   0.019 -0.3785  0.1882 -0.1670
  660SOL    HW1 1979   1.755   1.515   0.110  0.6881  1.9254 -1.2683
  660SOL    HW2 1980   1.724   1.389   0.012 -2.8783 -1.1436  0.1460
  661SOL     OW 1981   0.210   1.828   0.281 -0.1686  0.3679  0.3107
  661SOL    HW1 1982   0.242   1.923   0.246 -0.4718  0.8953 -0.1469
  661SOL    HW2 1983   0.139   1.841   0.354  1.2607 -0.6791  1.1601
  662SOL     OW 1984   0.214   0.647   2.219  0.6210  0.6573  0.5003
  662SOL    HW1 1985   0.212   0.659   2.320  0.5111  1.6778  2.0620
  662SOL    HW2 1986   0.203   0.735   2.172  2.1743 -2.8154  0.2805
  663SOL     OW 1987   1.903   1.426   0.740 -0.0970 -0.5828 -0.5476
  663SOL    HW1 1988   1.890   1.361   0.814 -0.2281  0.0196  0.1114
  663SOL    HW2 1989   2.001   1.426   0.704  0.3929  1.6175 -0.3785
  664SOL     OW 1990   0.614   0.539   1.088 -0.7753  0.7133 -0.2740
  664SOL    HW1 1991   0.676   0.585   1.025 -0.6637  0.3772 -0.6367
  664SOL    HW2 1992   0.564   0.467   1.041  0.4413  1.1384  2.3181
  665SOL     OW 1993   1.126   0.043   0.223 -0.0542  0.3232 -0.9841
  665SOL    HW1 1994   1.149   3.049   0.226 -3.5858  3.1122  2.1346
  665SOL    HW2 1995   1.208   0.099   0.208 -1.7371  0.2175  0.9929
  666SOL     OW 1996   3.090   0.348   2.588 -0.5472 -0.2738 -0.2113
  666SOL    HW1 1997   0.059   0.297   2.540 -0.7791  0.5952 -0.2833
  666SOL    HW2 1998   3.102   0.356   2.687 -4.4420 -3.2920  0.8647
  667SOL     OW 1999   2.180   1.811   2.011 -0.0727  0.0662 -0.2954
  667SOL    HW1 2000   2.225   1.758   2.087  0.9856  1.6534 -1.4460
  667SOL    HW2 2001   2.079   1.817   2.025 -1.1547  2.2784  2.1992
  668SOL     OW 2002   0.437   1.801   2.665 -0.2143  0.3518 -0.0287
  668SOL    HW1 2003   0.398   1.887   2.622 -0.8223 -0.6090 -0.9899
  668SOL    HW2 2004   0.374   1.725   2.651  1.4422  1.0093 -0.5989
  669SOL     OW 2005   2.209   2.660   2.422  0.3353 -0.2983  0.5413
  669SOL    HW1 2006   2.229   2.642   2.322 -1.6481  1.6022 -3.4810
  669SOL    HW2 2007   2.101   2.667   2.426  0.3307 -0.4378 -0.4863
  670SOL     OW 2008   2.529   1.103   2.497 -0.1531 -0.1259  0.0471
  670SOL    HW1 2009   2.490   1.056   2.416 -0.7400  1.7050  1.6980
  670SOL    HW2 2010   2.621   1.070   2.524 -0.4432  2.2280 -1.4028
  671SOL     OW 2011   2.375   1.235   0.262  0.7989 -0.0397 -0.7360
  671SOL    HW1 2012   2.427   1.233   0.174 -2.7368  0.3796 -0.2153
  671SOL    HW2 2013   2.353   1.329   0.288  1.5252  0.1741  0.1453
  672SOL     OW 2014   2.527   1.325   2.338  0.3947  0.1670 -0.2716
  672SOL    HW1 2015   2.584   1.394   2.384 -0.1486 -0.7832 -1.3785
  672SOL    HW2 2016   2.528   1.237   2.397  1.8759  2.0449  2.1153
  673SOL     OW 2017   2.580   1.169   1.489  0.1427 -0.2910  0.0882
  673SOL    HW1 2018   2.512   1.151   1.417  0.4078 -0.8225  1.5105
  673SOL    HW2 2019   2.633   1.085   1.516 -2.6252  0.5613  0.3785
  674SOL     OW 2020   1.767   1.935   1.644  0.1415  0.4926  0.7218
  674SOL    HW1 2021   1.859   1.901   1.671 -1.1648  1.1534 -2.7688
  674SOL    HW2 2022   1.682   1.877   1.667 -2.0351  1.3771  0.8951
  675SOL     OW 2023   0.085   0.663   0.860 -0.7547 -0.2896  0.2234
  675SOL    HW1 2024   0.083   0.750   0.811  1.5232 -1.6103 -0.8712
  675SOL    HW2 2025   0.140   0.655   0.944  1.2825 -0.8448 -1.4517
  676SOL     OW 2026   1.948   0.820   1.141 -0.1710 -0.4710 -0.0890
  676SOL    HW1 2027   1.946   0.832   1.244 -0.5667  1.2572  0.2842
  676SOL    HW2 2028   2.012   0.747   1.114  0.4477  0.9209 -1.0105
  677SOL     OW 2029   1.712   1.560   2.188  0.2176 -0.0761 -0.0451
  677SOL    HW1 2030   1.788   1.490   2.181  0.8117 -0.1355  0.1475
  677SOL    HW2 2031   1.673   1.579   2.279  1.6122  0.5914 -3.0287
  678SOL     OW 2032   0.030   1.787   1.018  0.7782 -0.1931 -0.2888
  678SOL    HW1 2033   0.082   1.797   1.104  2.0792 -2.1592 -1.0357
  678SOL    HW2 2034   3.058   1.848   1.013  1.8038  1.4749  1.6503
  679SOL     OW 2035   3.063   2.919   0.348 -0.0064  0.4146 -0.1595
  679SOL    HW1 2036   2.985   2.945   0.292  0.6919 -0.9969 -1.2780
  679SOL    HW2 2037   3.031   2.897   0.439 -0.7563  0.7803 -0.5305
  680SOL     OW 2038   0.318   2.345   1.320 -0.1567  0.2028 -0.1761
  680SOL    HW1 2039   0.359   2.256   1.290 -2.7009 -0.3725 -0.7506
  680SOL    HW2 2040   0.216   2.335   1.337 -1.3469 -1.2531 -2.4455
  681SOL     OW 2041   0.758   0.806   1.234 -0.4146 -0.3783  0.2701
  681SOL    HW1 2042   0.827   0.881   1.238  1.0067 -1.7549  2.1106
  681SOL    HW2 2043   0.807   0.717   1.220 -0.3260 -3.8090  0.3523
  682SOL     OW 2044   1.420   2.639   0.836 -0.1787 -0.3586  0.4540
  682SOL    HW1 2045   1.367   2.694   0.900  0.2399  0.3445  0.8093
  682SOL    HW2 2046   1.517   2.668   0.832 -0.1775  1.4833  0.0507
  683SOL     OW 2047   2.205   1.228   1.473 -0.0248 -0.2428 -0.1912
  683SOL    HW1 2048   2.164   1.290   1.404 -0.7036  3.1389 -0.0222
  683SOL    HW2 2049   2.258   1.154   1.431  0.3666  1.3211  0.9353
  684SOL     OW 2050   0.670   2.032   1.816  0.1668  0.1297  0.6009
  684SOL    HW1 2051   0.729   2.112   1.827 -1.4563 -1.6489 -0.0924
  684SOL    HW2 2052   0.612   2.026   1.898  0.5413 -0.1066 -1.4568
  685SOL     OW 2053   2.267   1.754   0.057 -0.3134  0.0795  0.4034
  685SOL    HW1 2054   2.359   1.702   0.073  4.8964 -1.3133 -0.5351
  685SOL    HW2 2055   2.185   1.694   0.038 -0.3632 -1.2096  0.2932
  686SOL     OW 2056   3.040   0.489   0.497  0.4343 -0.5162  0.1880
  686SOL    HW1 2057   2.965   0.417   0.507 -1.1293 -1.2060  0.6604
  686SOL    HW2 2058   2.999   0.583   0.521 -2.8773  4.2456  1.0319
  687SOL     OW 2059   1.172   2.891   0.251 -0.5108 -0.2001  0.0054
  687SOL    HW1 2060   1.107   2.813   0.260  0.3967  1.6125  2.7292
  687SOL    HW2 2061   1.266   2.860   0.225 -1.4141  1.0918 -1.8218
  688SOL     OW 2062   1.744   2.078   2.066 -0.2076 -0.1223 -0.5182
  688SOL    HW1 2063   1.750   2.177   2.047 -1.0947 -0.2200  1.2005
  688SOL    HW2 2064   1.654   2.043   2.101 -0.4812  0.4906 -1.4723
  689SOL     OW 2065   2.660   1.049   1.966 -0.7481 -0.2045  0.0655
  689SOL    HW1 2066   2.612   1.129   2.009 -1.3790  1.3296 -1.3952
  689SOL    HW2 2067   2.709   1.080   1.881  2.3473 -0.2672  0.1979
  690SOL     OW 2068   1.879   1.209   0.917 -0.0742 -0.4173 -0.1232
  690SOL    HW1 2069   1.958   1.186   0.981 -0.8441  0.3359  1.0972
  690SOL    HW2 2070   1.873   1.143   0.841 -1.1453 -0.0454  0.6693
  691SOL     OW 2071   1.020   1.291   1.274  0.2245 -0.3896  0.2817
  691SOL    HW1 2072   1.060   1.237   1.202 -1.7404  1.9367  1.8246
  691SOL    HW2 2073   0.957   1.231   1.331  0.9897  1.4829 -1.0411
  692SOL     OW 2074   1.558   0.260   2.182 -0.4764  0.5635 -0.1847
  692SOL    HW1 2075   1.480   0.220   2.230 -1.0592  2.0499  1.8250
  692SOL    HW2 2076   1.641   0.198   2.183  1.6166  1.8398  2.3265
  693SOL     OW 2077   0.221   1.003   0.029 -0.2607 -0.3032 -0.1645
  693SOL    HW1 2078   0.238   1.097   0.063 -0.7072 -1.2846 -0.3043
  693SOL    HW2 2079   0.309   0.953   0.013  0.5590 -1.1982 -0.9606
  694SOL     OW 2080   2.222   2.755   0.862 -0.5349 -0.2545  0.5919
  694SOL    HW1 2081   2.208   2.855   0.880 -1.2371  0.1276  1.3594
  694SOL    HW2 2082   2.163   2.722   0.785  3.6144 -3.1077  0.6806
  695SOL     OW 2083   1.643   1.288   2.831 -0.4338  0.5659 -0.7094
  695SOL    HW1 2084   1.676   1.253   2.923 -0.7294  1.1275  2.3331
  695SOL    HW2 2085   1.710   1.355   2.792  0.0947  0.4052 -0.4860
  696SOL     OW 2086   1.562   0.285   1.553 -1.3830  0.3896 -0.1341
  696SOL    HW1 2087   1.574   0.340   1.636 -0.8357  0.1368  2.1139
  696SOL    HW2 2088   1.655   0.243   1.531 -1.1448 -2.3385  0.2151
  697SOL     OW 2089   1.446   0.428   2.002 -0.2709  0.3074 -0.5431
  697SOL    HW1 2090   1.500   0.373   2.067 -0.5196  1.0034  3.2766
  697SOL    HW2 2091   1.465   0.529   2.007  0.1079 -0.1871 -1.7165
  698SOL     OW 2092   1.888   1.499   2.490 -0.1196  0.0036  0.4638
  698SOL    HW1 2093   1.915   1.555   2.410 -0.5687 -0.3431 -2.3320
  698SOL    HW2 2094   1.843   1.409   2.457 -0.9718 -1.1847 -1.0328
  699SOL     OW 2095   1.621   1.157   0.920 -0.5793  0.9211 -0.0266
  699SOL    HW1 2096   1.571   1.196   0.841 -2.6139 -1.2334  0.0285
  699SOL    HW2 2097   1.719   1.187   0.921 -0.1544  0.9780 -0.5849
  700SOL     OW 2098   1.920   2.891   0.226  0.2841 -0.3917 -0.4063
  700SOL    HW1 2099   1.913   2.801   0.182  0.9439  1.2372  3.3172
  700SOL    HW2 2100   1.926   2.969   0.159 -0.0836 -1.4165  1.8383
  701SOL     OW 2101   0.478   0.269   1.324  0.1442 -0.0477 -0.4132
  701SOL    HW1 2102   0.572   0.278   1.279  1.1245  0.8616 -2.5856
  701SOL    HW2 2103   0.478   0.195   1.401  1.1255 -2.3308  1.2552
  702SOL     OW 2104   1.568   2.962   1.411  0.6267  0.0487  0.5213
  702SOL    HW1 2105   1.513   2.880   1.436  3.1398 -0.2031  2.7528
  702SOL    HW2 2106   1.527   3.040   1.462 -1.6143 -0.5883 -0.2827
  703SOL     OW 2107   2.466   3.095   2.205  0.3678 -0.1441  0.0920
  703SOL    HW1 2108   2.452   0.005   2.306 -0.6054 -0.2235 -3.5642
  703SOL    HW2 2109   2.553   3.044   2.187  2.6972 -0.8861 -1.3669
  704SOL     OW 2110   1.297   1.681   0.739  0.7114 -0.1942 -0.2004
  704SOL    HW1 2111   1.198   1.666   0.759  0.2418 -2.6472  1.1291
  704SOL    HW2 2112   1.310   1.783   0.735 -1.7870 -0.7996  1.6900
  705SOL     OW 2113   2.995   1.719   2.105  0.3067 -0.0955  0.0780
  705SOL    HW1 2114   2.941   1.804   2.078 -2.1730  1.9966 -2.8982
  705SOL    HW2 2115   2.943   1.649   2.151  0.2427  2.1970  0.1853
  706SOL     OW 2116   1.527   0.009   0.519 -0.0374 -0.2038  0.1786
  706SOL    HW1 2117   1.442   3.054   0.520  0.5293  0.1451  0.7483
  706SOL    HW2 2118   1.577   0.013   0.429 -0.2671  0.1741  2.8095
  707SOL     OW 2119   1.171   2.641   2.247 -0.3831 -0.4690 -0.1287
  707SOL    HW1 2120   1.169   2.557   2.305 -0.5989  0.9555 -0.9422
  707SOL    HW2 2121   1.119   2.623   2.163 -0.1425 -0.4297  1.9447
  708SOL     OW 2122   0.541   2.175   1.624 -0.2008  0.2498 -0.3828
  708SOL    HW1 2123   0.596   2.123   1.692  1.4363 -1.3914 -1.2450
  708SOL    HW2 2124   0.593   2.193   1.537 -0.9760 -2.4076 -2.0465
  709SOL     OW 2125   2.548   0.811   2.070  0.3294 -0.1501  0.4754
  709SOL    HW1 2126   2.565   0.895   2.014  0.9540  1.8256  0.6385
  709SOL    HW2 2127   2.556   0.727   2.013 -1.5491 -0.6068  0.9334
  710SOL     OW 2128   2.909   0.495   1.698 -0.2124  0.1637  0.5040
  710SOL    HW1 2129   2.917   0.513   1.597  1.3439  2.7505  2.1064
  710SOL    HW2 2130   2.977   0.425   1.727  0.0451  0.4552 -1.6061
  711SOL     OW 2131   2.897   2.383   0.412 -0.2995  0.9011 -0.2144
  711SOL    HW1 2132   2.850   2.403   0.501 -0.6522 -1.4161  1.6229
  711SOL    HW2 2133   2.981   2.430   0.402  0.7734 -1.2466 -1.1222
  712SOL     OW 2134   0.281   2.611   2.524 -0.2950  0.3556  0.5030
  712SOL    HW1 2135   0.330   2.697   2.559  0.2242  2.3547  0.9481
  712SOL    HW2 2136   0.205   2.586   2.584 -0.5373 -2.3352  0.5554
  713SOL     OW 2137   2.054   0.490   3.062 -0.1669  0.3988  0.2962
  713SOL    HW1 2138   2.025   0.510   0.050  0.6923 -2.6453  0.2257
  713SOL    HW2 2139   1.974   0.510   3.006 -0.2322 -2.8159  2.2105
  714SOL     OW 2140   1.511   1.956   0.632  0.3004  0.1986  0.1822
  714SOL    HW1 2141   1.420   1.962   0.677  3.7350 -0.7406  1.5368
  714SOL    HW2 2142   1.581   1.917   0.697  1.8759 -0.3815  0.0187
  715SOL     OW 2143   0.177   0.230   0.391 -0.1605  0.1522  0.4173
  715SOL    HW1 2144   0.110   0.224   0.313 -1.4025  2.7121  0.5686
  715SOL    HW2 2145   0.209   0.328   0.408  2.2272  2.4191  1.3590
  716SOL     OW 2146   0.954   3.042   2.395  0.4033 -0.6193  0.3485
  716SOL    HW1 2147   0.881   3.026   2.462 -1.2399 -0.5648  1.0083
  716SOL    HW2 2148   1.047   3.010   2.421 -1.5995  1.5015 -2.0238
  717SOL     OW 2149   0.432   0.498   2.950 -0.0562 -0.1267  0.0654
  717SOL    HW1 2150   0.514   0.445   2.976 -2.7710 -1.1423 -0.7499
  717SOL    HW2 2151   0.352   0.441   2.923 -0.7058 -1.0989 -0.9534
  718SOL     OW 2152   1.034   0.627   0.479 -0.2573 -0.3292 -0.2824
  718SOL    HW1 2153   0.990   0.667   0.567 -0.8074  1.0990  2.7054
  718SOL    HW2 2154   1.076   0.535   0.487 -1.6126  0.7479 -0.5402
  719SOL     OW 2155   2.356   2.295   2.685  0.2486 -0.3333 -0.0906
  719SOL    HW1 2156   2.385   2.391   2.654  0.1829  1.4359 -3.5618
  719SOL    HW2 2157   2.298   2.301   2.769 -0.1173 -1.0694  0.2205
  720SOL     OW 2158   1.602   1.057   1.973 -0.1907 -0.2178  0.1778
  720SOL    HW1 2159   1.629   0.994   1.897 -0.0989 -2.0192  0.6563
  720SOL    HW2 2160   1.652   1.020   2.053  0.6985 -1.1306  0.3114
  721SOL     OW 2161   2.912   0.070   0.947 -0.2278  0.2201  0.3701
  721SOL    HW1 2162   2.940   0.113   1.035  2.0392 -1.9600  3.7671
  721SOL    HW2 2163   2.865   0.140   0.890  2.6314 -0.5251 -0.4891
  722SOL     OW 2164   1.326   2.023   2.480 -0.9253 -0.0415 -0.6036
  722SOL    HW1 2165   1.378   2.085   2.416  1.2996  0.6388 -0.6579
  722SOL    HW2 2166   1.387   1.963   2.537  0.0315 -1.1288  1.5294
  723SOL     OW 2167   1.195   0.394   0.479 -0.1365 -0.1737  0.1487
  723SOL    HW1 2168   1.223   0.372   0.574  1.7294 -1.0762  0.2176
  723SOL    HW2 2169   1.272   0.367   0.413  1.0580 -2.1133 -3.3851
  724SOL     OW 2170   0.904   1.843   2.395 -0.2028  0.3896 -0.0657
  724SOL    HW1 2171   0.850   1.840   2.483 -1.5230  1.1346  0.1450
  724SOL    HW2 2172   0.882   1.763   2.334  1.4380 -3.7067  1.1553
  725SOL     OW 2173   0.040   0.778   1.260  0.3975 -0.6295  0.2377
  725SOL    HW1 2174   3.101   0.832   1.184 -1.8345  3.4891 -1.7793
  725SOL    HW2 2175   0.109   0.719   1.221 -0.1735  1.8319 -0.0254
  726SOL     OW 2176   2.012   0.006   0.594 -0.1039 -1.0520 -0.4176
  726SOL    HW1 2177   2.024   3.022   0.544  1.8131 -2.2381 -0.5696
  726SOL    HW2 2178   1.924   0.007   0.642  1.3889 -0.7071 -0.1396
  727SOL     OW 2179   1.992   1.023   2.297  0.3192  0.0023 -0.0352
  727SOL    HW1 2180   2.003   1.108   2.242  0.3861  2.2144  0.5354
  727SOL    HW2 2181   2.052   1.016   2.377  0.5913  0.1036  2.5228
  728SOL     OW 2182   1.468   2.604   1.431 -0.0540  0.4058  0.0168
  728SOL    HW1 2183   1.388   2.659   1.426  0.8404 -1.8470  0.9848
  728SOL    HW2 2184   1.533   2.612   1.353  5.0155 -0.0740  0.4354
  729SOL     OW 2185   1.875   0.445   2.014 -0.1995 -0.0490 -0.3413
  729SOL    HW1 2186   1.973   0.440   2.025  0.2035 -0.5755 -0.8148
  729SOL    HW2 2187   1.855   0.505   1.933 -2.9662 -1.6940  2.0340
  730SOL     OW 2188   0.615   1.300   1.455 -0.0066  0.2555 -0.1999
  730SOL    HW1 2189   0.668   1.383   1.425  2.3791  3.3999 -1.1290
  730SOL    HW2 2190   0.528   1.280   1.401  2.1733 -0.5347 -0.8321
  731SOL     OW 2191   0.564   3.092   0.126  0.1667  0.8630  0.0235
  731SOL    HW1 2192   0.527   0.036   0.209 -2.3907  3.9804  2.3177
  731SOL    HW2 2193   0.493   3.097   0.058 -0.8966 -2.1153  0.5847
  732SOL     OW 2194   0.622   0.807   0.478  0.1188 -0.1537 -0.1678
  732SOL    HW1 2195   0.566   0.744   0.544 -1.7621  0.8393  2.3436
  732SOL    HW2 2196   0.559   0.843   0.408  3.5098  0.1962 -1.2846
  733SOL     OW 2197   1.459   1.544   1.711  0.0653  0.0138  0.2372
  733SOL    HW1 2198   1.407   1.514   1.798 -1.9170  0.9527 -0.1061
  733SOL    HW2 2199   1.405   1.522   1.626 -0.6319  0.5225 -2.1660
  734SOL     OW 2200   0.025   2.421   2.176 -0.1688  0.3608 -0.6763
  734SOL    HW1 2201   0.091   2.458   2.108  2.8918  3.2474  0.8773
  734SOL    HW2 2202   3.036   2.469   2.174 -0.3622  0.0760 -2.2087
  735SOL     OW 2203   1.271   3.093   1.014  0.7540  0.0025 -0.3396
  735SOL    HW1 2204   1.259   3.002   0.974  0.9362  0.3059  0.2373
  735SOL    HW2 2205   1.239   0.054   0.949 -0.6527 -1.6994 -0.8625
  736SOL     OW 2206   0.935   1.225   3.092 -0.2429  0.4104 -0.0940
  736SOL    HW1 2207   0.915   1.190   0.080  0.4892  1.9369  0.9930
  736SOL    HW2 2208   1.030   1.202   3.061  2.7418  0.5123 -2.8803
  737SOL     OW 2209   0.066   0.892   0.723 -0.0813  0.7391  0.3925
  737SOL    HW1 2210   0.164   0.919   0.719 -0.0735  2.2217 -0.8687
  737SOL    HW2 2211   0.016   0.905   0.641 -0.1702 -1.1886  3.3836
  738SOL     OW 2212   0.480   2.608   1.554  0.1826 -0.1172 -0.0494
  738SOL    HW1 2213   0.433   2.581   1.469 -0.2468  1.3769  1.6367
  738SOL    HW2 2214   0.449   2.559   1.638  0.2293 -1.3448 -0.7954
  739SOL     OW 2215   1.440   2.808   0.253  0.2591  0.1784  0.3241
  739SOL    HW1 2216   1.493   2.822   0.339 -0.2625 -0.2974 -2.5515
  739SOL    HW2 2217   1.423   2.708   0.232  2.3578 -2.0058 -0.3158
  740SOL     OW 2218   1.801   2.672   1.467  0.0526  0.2681 -0.2431
  740SOL    HW1 2219   1.877   2.739   1.460 -2.4264 -0.3009  2.2290
  740SOL    HW2 2220   1.799   2.593   1.403  0.6706 -0.4786  0.8392
  741SOL     OW 2221   2.177   0.184   0.697  0.2649  0.0775 -0.0757
  741SOL    HW1 2222   2.220   0.254   0.635  1.7747  1.5200  0.9180
  741SOL    HW2 2223   2.109   0.131   0.647  0.6322  0.1362  0.7837
  742SOL     OW 2224   1.270   2.331   2.463  0.3688 -0.1581 -0.0258
  742SOL    HW1 2225   1.342   2.296   2.405 -2.2973 -0.4888 -1.0317
  742SOL    HW2 2226   1.253   2.280   2.548 -0.9036  3.2627 -0.8915
  743SOL     OW 2227   2.281   0.889   1.977  0.1434 -0.4744  0.3512
  743SOL    HW1 2228   2.287   0.870   1.879  0.0379 -2.8491  0.9992
  743SOL    HW2 2229   2.355   0.832   2.021 -1.4163 -1.6853 -2.4148
  744SOL     OW 2230   1.976   0.356   0.872 -0.3458  0.5446 -0.8685
  744SOL    HW1 2231   2.009   0.433   0.931  1.4464  1.2258 -1.8567
  744SOL    HW2 2232   2.033   0.356   0.785  3.9139  1.5816 -1.0819
  745SOL     OW 2233   2.130   1.108   1.959 -0.9799  0.5580 -0.2912
  745SOL    HW1 2234   2.133   1.146   1.866  0.7176  1.6199  0.8744
  745SOL    HW2 2235   2.193   1.028   1.967  1.1729  0.2547 -1.7230
  746SOL     OW 2236   1.342   1.512   0.537 -0.0268  0.4997 -0.3002
  746SOL    HW1 2237   1.435   1.495   0.502  3.8270 -0.2172 -0.4689
  746SOL    HW2 2238   1.338   1.586   0.604  1.1165 -1.4574 -0.3669
  747SOL     OW 2239   1.804   1.568   1.066  0.4008  0.7689 -0.0501
  747SOL    HW1 2240   1.770   1.597   0.981  0.9967 -0.1406  1.0445
  747SOL    HW2 2241   1.780   1.627   1.141  0.0194  1.2023 -4.0865
  748SOL     OW 2242   0.367   2.717   0.341  0.2175  0.3479  0.8111
  748SOL    HW1 2243   0.389   2.645   0.408  1.5301  0.4673  1.1498
  748SOL    HW2 2244   0.456   2.735   0.284  0.9272  1.1875 -2.7165
  749SOL     OW 2245   0.228   0.870   2.440 -0.3810 -0.0358 -0.1468
  749SOL    HW1 2246   0.290   0.907   2.365 -2.7372 -0.8368  0.6358
  749SOL    HW2 2247   0.153   0.944   2.461 -0.3612  0.1620  1.5689
  750SOL     OW 2248   1.353   2.899   1.868  0.4847 -0.0030  0.5248
  750SOL    HW1 2249   1.305   2.969   1.920 -0.3026 -0.4077  0.5242
  750SOL    HW2 2250   1.435   2.868   1.920 -1.8262 -3.4060 -1.0402
  751SOL     OW 2251   2.709   0.578   0.389  0.1278  0.9169 -0.5873
  751SOL    HW1 2252   2.612   0.600   0.415  1.8783  0.0402  2.4781
  751SOL    HW2 2253   2.700   0.477   0.373 -0.8075 -0.5053 -1.1146
  752SOL     OW 2254   3.098   2.050   0.861  0.3212  0.2450  0.1313
  752SOL    HW1 2255   3.011   1.996   0.865 -0.8549  2.3358 -0.3055
  752SOL    HW2 2256   3.084   2.139   0.812 -3.1887  1.8015 -0.4822
  753SOL     OW 2257   0.969   0.193   1.007 -0.4992 -0.1249  0.3263
  753SOL    HW1 2258   0.984   0.122   0.936 -2.4493 -0.7461  0.4773
  753SOL    HW2 2259   0.914   0.276   0.973 -0.9250  1.4856 -0.1409
  754SOL     OW 2260   0.570   3.082   2.403 -0.3498  0.7555 -0.1575
  754SOL    HW1 2261   0.486   0.006   2.362  1.6916 -1.9678  2.0586
  754SOL    HW2 2262   0.584   2.985   2.379  0.9448  0.1677  0.9067
  755SOL     OW 2263   2.070   0.817   3.001 -0.4380  0.5565 -0.1232
  755SOL    HW1 2264   2.047   0.716   3.008 -1.7193 -0.5126  0.1717
  755SOL    HW2 2265   2.162   0.832   2.958  0.1038  2.3168  1.6056
  756SOL     OW 2266   2.294   2.084   2.511 -0.5934 -0.2761  0.1376
  756SOL    HW1 2267   2.310   1.985   2.522 -2.1521 -2.0473  1.7010
  756SOL    HW2 2268   2.321   2.143   2.593  0.3300  1.1372 -1.1734
  757SOL     OW 2269   1.539   0.257   0.793  0.6933  0.1463  0.4518
  757SOL    HW1 2270   1.440   0.272   0.784 -1.1100  1.3312 -1.4761
  757SOL    HW2 2271   1.569   0.184   0.858 -0.0251 -2.4176 -0.0831
  758SOL     OW 2272   1.519   3.041   1.140 -0.6620  0.0405 -0.2541
  758SOL    HW1 2273   1.427   3.032   1.113  4.3250 -1.3908  1.4938
  758SOL    HW2 2274   1.529   3.008   1.242  1.5777 -1.5978 -0.0991
  759SOL     OW 2275   2.780   0.685   1.192  0.3699  0.4079 -0.2373
  759SOL    HW1 2276   2.765   0.600   1.251 -1.1950 -0.9074 -0.1679
  759SOL    HW2 2277   2.816   0.672   1.097 -0.9642  1.2609 -0.3413
  760SOL     OW 2278   2.392   1.100   1.310  0.0222  0.2178 -0.0458
  760SOL    HW1 2279   2.401   1.175   1.243 -1.1460 -1.2229  0.3137
  760SOL    HW2 2280   2.380   1.004   1.268 -1.2822 -1.0894 -0.9469
  761SOL     OW 2281   0.330   0.439   0.471 -0.0155 -0.4079  0.7423
  761SOL    HW1 2282   0.391   0.426   0.385  0.8713  1.9367 -0.2628
  761SOL    HW2 2283   0.330   0.538   0.504 -0.4268 -0.1120  0.5402
  762SOL     OW 2284   1.702   2.122   1.182  0.1268  0.3392  0.2547
  762SOL    HW1 2285   1.779   2.088   1.128  1.9851 -0.5576  1.3470
  762SOL    HW2 2286   1.661   2.048   1.238  1.1093  1.2745  2.3129
  763SOL     OW 2287   1.280   1.484   1.899 -0.8560  0.5452 -0.4479
  763SOL    HW1 2288   1.213   1.567   1.900  0.3960  1.1972  0.9669
  763SOL    HW2 2289   1.228   1.399   1.915  1.2142  3.4045  0.2934
  764SOL     OW 2290   3.053   1.897   2.472 -0.2236  0.2551  0.5677
  764SOL    HW1 2291   3.021   1.947   2.386  0.1918 -1.6392 -1.7288
  764SOL    HW2 2292   3.000   1.917   2.550  4.4781 -2.2821 -0.9303
  765SOL     OW 2293   1.612   2.617   1.214  0.1198  0.1339 -0.6290
  765SOL    HW1 2294   1.662   2.527   1.209 -0.2223 -0.0840  2.1823
  765SOL    HW2 2295   1.663   2.693   1.165 -0.8600 -0.3807 -1.9822
  766SOL     OW 2296   0.075   2.532   2.713 -0.0501  0.0384  0.0974
  766SOL    HW1 2297   3.095   2.581   2.676 -3.5655  2.3943 -2.3708
  766SOL    HW2 2298   0.062   2.429   2.721  1.2627  2.6215  1.8743
  767SOL     OW 2299   1.324   0.903   2.364  0.2382 -0.4653  0.3054
  767SOL    HW1 2300   1.422   0.926   2.384  0.0193 -3.6958 -0.2418
  767SOL    HW2 2301   1.308   0.817   2.418 -0.6463  2.1739  0.4499
  768SOL     OW 2302   1.244   2.127   3.084 -0.7763 -0.6770  0.2098
  768SOL    HW1 2303   1.321   2.158   0.035 -1.0063  0.0997  0.6954
  768SOL    HW2 2304   1.264   2.044   3.024 -0.8471 -1.2715 -1.3356
  769SOL     OW 2305   0.429   2.138   1.047  0.7019 -0.1706 -0.6810
  769SOL    HW1 2306   0.375   2.089   1.118 -0.9620  2.5989 -1.8812
  769SOL    HW2 2307   0.520   2.165   1.091  0.6431 -0.4963 -1.3656
  770SOL     OW 2308   1.815   0.613   2.955 -0.7578  0.5097 -0.0617
  770SOL    HW1 2309   1.765   0.530   2.920 -1.2232 -0.6671 -0.4016
  770SOL    HW2 2310   1.777   0.706   2.950  1.5107 -0.7556  1.8206
  771SOL     OW 2311   0.207   2.925   2.292  0.4791 -0.0982 -0.1705
  771SOL    HW1 2312   0.103   2.929   2.293 -0.5625  0.5169  2.6935
  771SOL    HW2 2313   0.249   2.836   2.269  3.5145  2.2071 -0.8339
  772SOL     OW 2314   2.059   2.796   1.973  0.0315  0.0817 -0.0797
  772SOL    HW1 2315   2.104   2.729   2.037  0.8982 -2.3565  0.8907
  772SOL    HW2 2316   2.122   2.869   1.940 -1.7950  0.7332 -0.7732
  773SOL     OW 2317   0.947   1.941   1.507 -0.3005 -0.3997  0.1312
  773SOL    HW1 2318   0.947   1.940   1.406  0.4806 -3.5501  0.4673
  773SOL    HW2 2319   0.964   2.035   1.541  1.5974 -0.1272  0.1943
  774SOL     OW 2320   1.082   0.190   2.061 -0.4403  0.1722  0.3092
  774SOL    HW1 2321   1.069   0.181   2.159 -0.0817  2.9341 -1.2555
  774SOL    HW2 2322   0.996   0.218   2.017 -2.2266  0.5788 -0.2448
  775SOL     OW 2323   2.109   2.851   3.045  0.5205 -0.7339 -0.2790
  775SOL    HW1 2324   2.100   2.800   2.956  0.5431 -0.0016  1.7369
  775SOL    HW2 2325   2.021   2.899   3.067  3.0563  0.9505  1.0220
  776SOL     OW 2326   2.834   0.728   2.251  0.6315  0.0633  0.5270
  776SOL    HW1 2327   2.849   0.757   2.345  2.0715 -0.0775  0.9150
  776SOL    HW2 2328   2.831   0.810   2.188 -2.8917  1.9127 -1.4123
  777SOL     OW 2329   2.342   2.305   2.090  0.4767  0.6398 -0.5819
  777SOL    HW1 2330   2.254   2.327   2.044  0.7079  0.7168 -0.0250
  777SOL    HW2 2331   2.398   2.390   2.109 -0.6077  0.7212 -0.6448
  778SOL     OW 2332   1.874   0.739   2.456  0.4157 -0.0767  0.4180
  778SOL    HW1 2333   1.890   0.711   2.557 -0.6442 -0.0540  3.2761
  778SOL    HW2 2334   1.954   0.702   2.403 -1.1546  0.3407 -1.6298
  779SOL     OW 2335   2.841   0.291   0.426  0.2880  0.3412 -0.0436
  779SOL    HW1 2336   2.869   0.217   0.494 -0.0149 -1.6055  1.0829
  779SOL    HW2 2337   2.863   0.269   0.326 -0.6996 -2.2397 -4.0490
  780SOL     OW 2338   2.501   0.457   0.013 -0.3992 -0.5304 -0.4677
  780SOL    HW1 2339   2.515   0.357   0.038 -0.6328 -2.5917 -1.5717
  780SOL    HW2 2340   2.417   0.460   3.054  1.4744 -1.3770 -0.4714
  781SOL     OW 2341   0.313   2.610   1.331  0.7383 -0.2441 -0.3827
  781SOL    HW1 2342   0.333   2.512   1.331  0.3936  0.4103 -3.2648
  781SOL    HW2 2343   0.210   2.623   1.345 -1.9323 -1.2284  0.0997
  782SOL     OW 2344   2.175   2.642   0.152  0.3423  0.2571 -0.3828
  782SOL    HW1 2345   2.155   2.678   0.056 -0.3916 -0.5237 -2.2059
  782SOL    HW2 2346   2.276   2.655   0.166 -0.0003 -0.8873 -3.7716
  783SOL     OW 2347   0.847   1.163   1.415 -0.0856 -0.2186 -0.4227
  783SOL    HW1 2348   0.745   1.184   1.434 -4.7023 -0.7222 -0.5155
  783SOL    HW2 2349   0.853   1.079   1.357  0.7933  2.3457  0.4198
  784SOL     OW 2350   1.303   0.689   2.832  0.0503 -0.0061 -0.3279
  784SOL    HW1 2351   1.239   0.638   2.767 -2.0588 -1.4876 -2.8905
  784SOL    HW2 2352   1.356   0.764   2.785  1.5551  0.6184  0.7960
  785SOL     OW 2353   2.457   0.490   0.985  0.7245  0.3837 -0.2775
  785SOL    HW1 2354   2.526   0.416   1.003  0.4697  1.2911 -1.2039
  785SOL    HW2 2355   2.386   0.490   1.059  1.4712 -3.0332 -2.3957
  786SOL     OW 2356   1.147   2.451   2.018  0.1553 -0.0838 -0.2753
  786SOL    HW1 2357   1.171   2.500   1.933  1.9256  1.6899  0.9904
  786SOL    HW2 2358   1.233   2.399   2.039 -3.4074  1.7935  1.6667
  787SOL     OW 2359   1.887   0.298   1.297  0.2137  0.2612  0.2392
  787SOL    HW1 2360   1.850   0.396   1.294 -2.5522  0.4672  0.7154
  787SOL    HW2 2361   1.856   0.246   1.378 -0.9922 -1.0443 -1.9539
  788SOL     OW 2362   0.327   0.974   0.578 -0.0046  0.6899 -0.0263
  788SOL    HW1 2363   0.357   1.031   0.654 -0.5350 -2.3241  0.0294
  788SOL    HW2 2364   0.342   1.018   0.489  0.7972 -0.6269  2.6158
  789SOL     OW 2365   0.478   1.877   1.494 -0.3157 -0.3350  0.1122
  789SOL    HW1 2366   0.396   1.871   1.559 -0.7172  1.3900  2.8080
  789SOL    HW2 2367   0.568   1.869   1.540  0.8699 -1.4750 -1.9572
  790SOL     OW 2368   0.832   0.699   2.336  0.6574 -0.9033 -0.8922
  790SOL    HW1 2369   0.778   0.788   2.343  1.1969 -2.5980 -0.6260
  790SOL    HW2 2370   0.834   0.654   2.244 -0.6729 -3.0937 -0.4793
  791SOL     OW 2371   1.716   0.498   0.854  0.1110 -0.2611 -0.3675
  791SOL    HW1 2372   1.619   0.493   0.824  0.9524 -0.1906  2.1896
  791SOL    HW2 2373   1.765   0.409   0.842  1.4661  1.1064 -2.1377
  792SOL     OW 2374   0.914   2.621   2.031  0.5138  0.5576 -0.5516
  792SOL    HW1 2375   0.947   2.692   1.967  0.2411 -2.2260  0.6877
  792SOL    HW2 2376   0.977   2.540   2.028  1.4044  1.6618  0.3108
  793SOL     OW 2377   0.748   0.195   0.356  0.1972 -0.2483  0.1404
  793SOL    HW1 2378   0.654   0.159   0.368 -0.4513  1.2286 -0.5637
  793SOL    HW2 2379   0.819   0.122   0.356 -0.0998  0.5333 -2.1463
  794SOL     OW 2380   0.448   1.647   1.848 -0.9509 -0.4709 -0.0035
  794SOL    HW1 2381   0.407   1.583   1.909  1.1964 -0.1246 -1.3414
  794SOL    HW2 2382   0.507   1.598   1.790  1.5230 -1.7631 -0.0693
  795SOL     OW 2383   0.153   2.182   2.425 -0.6754  0.5038 -0.3098
  795SOL    HW1 2384   0.093   2.241   2.481 -2.8807  0.1192 -1.3068
  795SOL    HW2 2385   0.112   2.155   2.340 -0.3793 -0.5511 -0.6588
  796SOL     OW 2386   2.500   0.608   2.307  0.0791  0.0207  0.3350
  796SOL    HW1 2387   2.473   0.645   2.398 -0.0190  0.2919 -0.2981
  796SOL    HW2 2388   2.555   0.677   2.252  0.0088  0.1504 -1.7686
  797SOL     OW 2389   2.801   2.423   2.639 -0.8865 -0.0490  0.1027
  797SOL    HW1 2390   2.734   2.476   2.583  1.5170 -1.6379 -0.3222
  797SOL    HW2 2391   2.750   2.351   2.686  0.0935 -0.6340 -1.4850
  798SOL     OW 2392   3.048   2.942   2.277  0.1356  0.7136  0.3164
  798SOL    HW1 2393   2.977   2.959   2.348 -0.9157 -1.5421  1.1301
  798SOL    HW2 2394   3.004   2.923   2.187  0.3078  0.1415  0.9469
  799SOL     OW 2395   0.261   2.439   2.316  0.4907  0.5682  0.3602
  799SOL    HW1 2396   0.262   2.507   2.392 -0.2431 -0.8818  0.9171
  799SOL    HW2 2397   0.169   2.417   2.287  2.1896  0.9644  0.5103
  800SOL     OW 2398   0.383   2.043   3.070 -0.9787  0.2388 -0.5825
  800SOL    HW1 2399   0.377   2.097   2.990 -0.1597 -1.5821 -0.3632
  800SOL    HW2 2400   0.425   1.955   3.040 -3.1865 -2.1320  0.6628
  801SOL     OW 2401   1.635   1.295   1.152  0.0107 -0.2616 -0.0533
  801SOL    HW1 2402   1.622   1.234   1.070  2.3238 -2.3370 -1.2617
  801SOL    HW2 2403   1.690   1.375   1.115 -1.0408  0.4717 -0.6754
  802SOL     OW 2404   2.979   1.397   0.681  0.7300 -0.2970  0.4913
  802SOL    HW1 2405   2.873   1.401   0.692 -5.9279 -0.6836 -0.8690
  802SOL    HW2 2406   3.029   1.360   0.759 -0.5530  1.5390  0.6221
  803SOL     OW 2407   1.313   1.757   2.073 -0.1039  0.6953 -0.3383
  803SOL    HW1 2408   1.249   1.730   1.999  0.7737 -0.2481 -0.5681
  803SOL    HW2 2409   1.272   1.832   2.127 -1.8077 -0.6934 -4.9777
  804SOL     OW 2410   1.679   1.555   0.751  1.0067  0.0825  0.0326
  804SOL    HW1 2411   1.694   1.629   0.685  4.6751  1.4239  2.2958
  804SOL    HW2 2412   1.765   1.500   0.759  2.5862 -2.6467 -0.9623
  805SOL     OW 2413   2.632   1.237   0.098 -0.0732 -0.4603  0.6134
  805SOL    HW1 2414   2.627   1.164   0.027  0.3027  0.7626 -2.0098
  805SOL    HW2 2415   2.669   1.195   0.182  2.3246 -0.7428  0.2642
  806SOL     OW 2416   0.666   2.591   0.447  0.0404  0.9582 -0.4978
  806SOL    HW1 2417   0.718   2.559   0.362  2.5578 -0.4068 -0.2928
  806SOL    HW2 2418   0.667   2.690   0.462 -0.7849 -0.0481  1.8484
  807SOL     OW 2419   2.207   1.571   2.807  0.3708 -0.5937  0.6444
  807SOL    HW1 2420   2.167   1.667   2.813 -0.6013 -0.3003  0.4093
  807SOL    HW2 2421   2.175   1.529   2.718 -0.5660 -1.3941 -0.9979
  808SOL     OW 2422   0.952   1.527   1.181 -0.4944  0.1785 -0.4342
  808SOL    HW1 2423   0.972   1.436   1.223 -0.5914 -2.1119  1.5652
  808SOL    HW2 2424   0.855   1.558   1.197  1.8027 -1.3962  2.0266
  809SOL     OW 2425   2.866   0.713   0.542  0.2971 -0.4031  0.4351
  809SOL    HW1 2426   2.820   0.713   0.634 -0.8215  1.7085  2.0816
  809SOL    HW2 2427   2.811   0.654   0.478 -2.4215  1.6089 -0.6365
  810SOL     OW 2428   0.623   1.518   0.656 -0.0632 -0.5733 -0.1838
  810SOL    HW1 2429   0.599   1.604   0.710  2.7667  1.8333  1.8121
  810SOL    HW2 2430   0.721   1.527   0.624  3.3580 -0.5621 -0.3547
  811SOL     OW 2431   2.046   2.634   1.244  0.5164  0.0356 -0.0425
  811SOL    HW1 2432   2.101   2.583   1.174 -1.2026  1.6346 -0.9815
  811SOL    HW2 2433   2.036   2.575   1.323  2.4854 -1.4984 -0.7213
  812SOL     OW 2434   1.206   2.751   1.370  0.1269 -0.1753 -0.0982
  812SOL    HW1 2435   1.245   2.805   1.445 -0.9243  0.4761  1.0475
  812SOL    HW2 2436   1.129   2.806   1.333  1.2758 -0.7405 -0.7015
  813SOL     OW 2437   0.886   2.855   1.639 -0.4115  0.4524 -0.0376
  813SOL    HW1 2438   0.822   2.772   1.623  0.4520  1.1302  0.6498
  813SOL    HW2 2439   0.829   2.940   1.648 -2.8792  2.7627 -1.2549
  814SOL     OW 2440   0.971   2.766   2.535 -0.4102 -0.5728 -0.0916
  814SOL    HW1 2441   0.943   2.738   2.439 -2.3122  0.2059 -0.7125
  814SOL    HW2 2442   1.053   2.707   2.561  0.2479  1.4293 -1.7022
  815SOL     OW 2443   0.967   0.110   2.635  0.0366  0.6264  0.2334
  815SOL    HW1 2444   0.876   0.065   2.642 -3.1630  2.8102  0.5551
  815SOL    HW2 2445   0.961   0.178   2.562 -0.2789 -1.5660 -0.2887
  816SOL     OW 2446   2.285   0.395   2.967  0.7874  0.4345  0.2454
  816SOL    HW1 2447   2.208   0.443   3.013  4.2737 -2.8816 -2.4759
  816SOL    HW2 2448   2.295   0.296   2.992  0.2121 -1.7268 -2.6474
  817SOL     OW 2449   2.192   3.006   1.859 -0.0956  0.1637 -0.4006
  817SOL    HW1 2450   2.267   3.069   1.828 -0.0913  2.9489 -1.8466
  817SOL    HW2 2451   2.102   3.036   1.822 -1.4698 -0.5126 -1.9232
  818SOL     OW 2452   1.211   0.795   0.339 -0.3429  0.1038 -0.3768
  818SOL    HW1 2453   1.142   0.826   0.276  0.6002  1.9165  0.9069
  818SOL    HW2 2454   1.164   0.730   0.407 -2.0937 -1.7913  0.8291
  819SOL     OW 2455   1.727   1.834   2.435  0.1969  0.7076  0.0363
  819SOL    HW1 2456   1.643   1.783   2.419  0.7346  0.2767  0.0454
  819SOL    HW2 2457   1.811   1.791   2.399 -2.1867  3.0024  0.8107
  820SOL     OW 2458   0.017   1.682   2.818  0.1657 -0.7316  0.5763
  820SOL    HW1 2459   0.083   1.649   2.742  1.3760 -2.2525 -3.3087
  820SOL    HW2 2460   0.043   1.641   2.910  1.3881  1.6817 -2.1954
  821SOL     OW 2461   0.104   2.655   0.715  0.0101  0.1037  0.0018
  821SOL    HW1 2462   0.169   2.722   0.670 -1.3154  1.0294 -3.0443
  821SOL    HW2 2463   0.099   2.666   0.818 -3.2802  1.9061 -0.5460
  822SOL     OW 2464   2.382   2.570   2.640  0.0731 -0.3022  0.1150
  822SOL    HW1 2465   2.301   2.616   2.588 -1.7897 -0.5787  0.6240
  822SOL    HW2 2466   2.403   2.616   2.728 -1.1138  0.2203 -1.8433
  823SOL     OW 2467   1.459   3.101   2.232  0.1113 -0.1683  0.3117
  823SOL    HW1 2468   1.438   3.063   2.140  0.2296 -0.0445 -1.6157
  823SOL    HW2 2469   1.378   0.037   2.280 -2.5301 -0.8119 -1.7371
  824SOL     OW 2470   2.741   2.344   2.118  0.0855 -1.3135 -0.4282
  824SOL    HW1 2471   2.761   2.442   2.121  1.3433 -0.4645 -0.7818
  824SOL    HW2 2472   2.718   2.304   2.211  0.7493 -0.1677  0.1587
  825SOL     OW 2473   2.917   2.097   2.348  0.3405  0.3461 -0.6309
  825SOL    HW1 2474   2.823   2.093   2.319 -1.9493 -0.6865  0.9399
  825SOL    HW2 2475   2.991   2.112   2.284  1.0290 -0.0059 -2.0447
  826SOL     OW 2476   2.460   0.751   2.540 -0.1306  0.1989  0.3238
  826SOL    HW1 2477   2.552   0.759   2.582  1.5935 -0.3015 -1.6199
  826SOL    HW2 2478   2.384   0.783   2.595  1.2169 -2.3010 -4.4928
  827SOL     OW 2479   2.609   2.145   1.503  0.3565 -0.4550  0.3668
  827SOL    HW1 2480   2.548   2.138   1.586  3.8153 -1.1050  0.8005
  827SOL    HW2 2481   2.566   2.208   1.438 -1.2472 -0.9884 -0.5214
  828SOL     OW 2482   3.034   0.159   1.880 -0.1579  0.4205 -0.2293
  828SOL    HW1 2483   3.084   0.074   1.871 -2.7886  3.4338  2.2383
  828SOL    HW2 2484   3.086   0.233   1.827 -1.8426  0.4456  0.0526
  829SOL     OW 2485   1.120   1.959   2.667  0.4550 -0.1184  0.4862
  829SOL    HW1 2486   1.166   1.967   2.578  1.7977 -0.0036  2.6424
  829SOL    HW2 2487   1.037   1.908   2.661  1.6210 -2.5561  2.2854
  830SOL     OW 2488   0.809   0.711   0.928 -0.0245  0.6266 -0.5023
  830SOL    HW1 2489   0.856   0.686   1.011 -2.4752  0.3005 -0.6484
  830SOL    HW2 2490   0.782   0.811   0.938 -0.1666  1.4346 -0.1557
  831SOL     OW 2491   2.915   1.665   2.643 -0.2823 -0.1119  0.0808
  831SOL    HW1 2492   2.936   1.737   2.579 -1.1031 -0.5494  1.1704
  831SOL    HW2 2493   2.984   1.664   2.718 -1.5382  0.6953 -0.6865
  832SOL     OW 2494   1.759   2.493   2.260  0.8417 -0.0673  0.3793
  832SOL    HW1 2495   1.827   2.567   2.240 -2.7166  2.0397  0.5021
  832SOL    HW2 2496   1.664   2.531   2.242 -4.1331  2.1996 -1.1227
  833SOL     OW 2497   0.809   0.271   2.036  0.2904  0.5123 -0.1854
  833SOL    HW1 2498   0.819   0.370   2.058 -1.3168 -0.8172 -0.5778
  833SOL    HW2 2499   0.786   0.214   2.116 -0.9582 -3.9179  1.6258
  834SOL     OW 2500   0.025   0.288   1.388 -0.2282 -0.5875  0.7485
  834SOL    HW1 2501   3.088   0.373   1.427 -0.2004 -0.0698  1.4101
  834SOL    HW2 2502   0.116   0.306   1.341  0.4414 -1.9275  1.4755
  835SOL     OW 2503   2.815   0.686   0.151  0.1077  0.3100 -0.4774
  835SOL    HW1 2504   2.786   0.648   0.239  1.0143  0.7834  0.4273
  835SOL    HW2 2505   2.803   0.623   0.067  1.0520 -2.1165  0.2871
  836SOL     OW 2506   1.677   1.903   0.129  0.1446  0.2785 -0.0851
  836SOL    HW1 2507   1.661   1.992   0.083 -0.6055  1.7561  1.9643
  836SOL    HW2 2508   1.654   1.911   0.229 -0.0536 -0.6073 -0.1474
  837SOL     OW 2509   1.939   1.835   0.798 -0.4442  0.0220 -0.2073
  837SOL    HW1 2510   1.988   1.746   0.790 -1.9969 -0.2504 -0.3375
  837SOL    HW2 2511   1.970   1.904   0.731  1.4419 -3.2684  1.0302
  838SOL     OW 2512   1.579   0.927   2.445 -0.0961  0.0008  0.0422
  838SOL    HW1 2513   1.607   0.901   2.350  1.2739 -0.0004 -0.7662
  838SOL    HW2 2514   1.661   0.961   2.494 -2.1349 -1.5167 -1.9639
  839SOL     OW 2515   0.837   1.434   2.116 -0.1169 -0.1234  0.1306
  839SOL    HW1 2516   0.761   1.371   2.138 -1.6866  3.3759 -0.3743
  839SOL    HW2 2517   0.928   1.390   2.124 -0.4604 -0.3901  0.7550
  840SOL     OW 2518   1.146   1.607   0.299  0.0539  0.2389  0.4547
  840SOL    HW1 2519   1.194   1.692   0.272 -0.1814 -0.3753  0.1363
  840SOL    HW2 2520   1.195   1.559   0.372 -0.4093  0.8942  0.9406
  841SOL     OW 2521   1.594   2.283   0.353 -0.0804 -0.2307 -0.2685
  841SOL    HW1 2522   1.548   2.298   0.446 -0.9916  1.7385 -2.2075
  841SOL    HW2 2523   1.524   2.278   0.280  1.8656  1.7653  2.4092
  842SOL     OW 2524   0.441   0.374   0.249  0.5781 -0.0103  0.4526
  842SOL    HW1 2525   0.536   0.386   0.220 -0.4426  4.4187 -0.1806
  842SOL    HW2 2526   0.391   0.306   0.192 -1.7598  0.2511  2.6758
  843SOL     OW 2527   0.699   0.412   0.622 -0.1813  0.1636  0.1610
  843SOL    HW1 2528   0.637   0.333   0.611 -0.1420 -2.0503 -0.6024
  843SOL    HW2 2529   0.792   0.376   0.599  1.2822 -0.9006  3.9487
  844SOL     OW 2530   2.865   0.067   3.008  0.5642 -0.2253  0.2187
  844SOL    HW1 2531   2.804   0.023   2.946  1.3726  3.4454  0.9452
  844SOL    HW2 2532   2.952   0.016   3.020  0.6699 -1.5253 -0.4520
  845SOL     OW 2533   2.836   2.460   1.761  0.3128  0.4032 -0.4301
  845SOL    HW1 2534   2.838   2.416   1.854 -0.8319  0.3330  0.9668
  845SOL    HW2 2535   2.865   2.399   1.686 -1.0496  2.4878  1.9508
  846SOL     OW 2536   2.531   1.753   2.361 -0.0797  0.2338 -0.0563
  846SOL    HW1 2537   2.473   1.740   2.441  0.1008  1.4125 -0.5940
  846SOL    HW2 2538   2.481   1.726   2.275  0.2771 -0.8297 -1.3749
  847SOL     OW 2539   1.055   0.786   2.092 -0.6321  0.1885  0.2598
  847SOL    HW1 2540   1.079   0.739   2.179 -0.9707 -0.7361  0.9926
  847SOL    HW2 2541   1.023   0.720   2.023  1.2773 -0.6313  0.0172
  848SOL     OW 2542   2.677   2.850   2.819 -0.1676  0.3151  0.4287
  848SOL    HW1 2543   2.742   2.817   2.890  3.7076  0.8579  0.0740
  848SOL    HW2 2544   2.675   2.956   2.826 -0.1785  3.3380  0.4619
  849SOL     OW 2545   0.475   2.833   2.983  0.1651 -0.3195  0.1092
  849SOL    HW1 2546   0.456   2.923   2.936 -1.9162 -0.8805  0.9672
  849SOL    HW2 2547   0.406   2.764   2.954  1.6060 -2.4040  0.4378
  850SOL     OW 2548   1.233   2.786   0.977  0.2103 -0.0608 -0.4695
  850SOL    HW1 2549   1.264   2.704   1.032  0.2324  3.5483 -1.2329
  850SOL    HW2 2550   1.137   2.768   0.950  2.9906  2.7487  2.2662
  851SOL     OW 2551   2.712   0.432   2.349 -0.1370  0.0656 -0.0731
  851SOL    HW1 2552   2.630   0.485   2.324  0.7906  0.9201 -0.6598
  851SOL    HW2 2553   2.764   0.394   2.270  1.2265 -0.8900 -1.5793
  852SOL     OW 2554   1.452   0.470   2.435 -0.2798 -0.2987 -0.0522
  852SOL    HW1 2555   1.555   0.481   2.416  2.4688  0.4365  0.2668
  852SOL    HW2 2556   1.398   0.425   2.359 -0.2003  0.1524  0.7557
  853SOL     OW 2557   0.125   2.707   0.211 -0.8343 -0.2719  0.0499
  853SOL    HW1 2558   0.079   2.792   0.254  1.3771  1.1200  2.2599
  853SOL    HW2 2559   0.224   2.707   0.236 -1.0332  1.2533 -0.9347
  854SOL     OW 2560   2.403   1.040   2.251  0.1274 -0.5899  0.4482
  854SOL    HW1 2561   2.432   1.119   2.192 -0.8245  2.4736 -2.5781
  854SOL    HW2 2562   2.400   0.951   2.201  1.2741 -2.4140  0.9577
  855SOL     OW 2563   0.758   2.498   0.197 -0.3461  0.2036  0.0141
  855SOL    HW1 2564   0.825   2.420   0.213  2.8234 -2.9318 -0.5470
  855SOL    HW2 2565   0.796   2.575   0.145 -0.5063  0.0128  1.1079
  856SOL     OW 2566   3.029   2.955   2.729  0.4289 -0.5285  0.1600
  856SOL    HW1 2567   0.005   2.954   2.674 -1.1232  1.3156 -0.1299
  856SOL    HW2 2568   3.056   2.995   2.819 -0.9021  1.1564  0.0236
  857SOL     OW 2569   0.960   2.869   1.367 -0.2837  0.6892  0.3244
  857SOL    HW1 2570   0.929   2.868   1.463 -1.1208 -1.4121 -0.3548
  857SOL    HW2 2571   0.879   2.894   1.310 -1.1556 -0.3867 -1.0859
  858SOL     OW 2572   2.418   2.180   1.710  0.4483 -0.0052  0.4026
  858SOL    HW1 2573   2.456   2.156   1.801  2.7793  1.7347 -1.1748
  858SOL    HW2 2574   2.326   2.225   1.724  0.5757 -1.5827  0.7590
  859SOL     OW 2575   1.749   2.188   1.674 -0.1362 -0.1414  0.7120
  859SOL    HW1 2576   1.773   2.090   1.653 -1.4928  0.8001 -1.5156
  859SOL    HW2 2577   1.659   2.193   1.724  0.6093  0.3469  0.5650
  860SOL     OW 2578   2.160   0.034   0.336  0.1035 -0.1092 -0.7132
  860SOL    HW1 2579   2.105   0.097   0.280 -0.5636  0.1952 -2.0052
  860SOL    HW2 2580   2.110   0.014   0.422 -2.2002 -0.6572 -1.4371
  861SOL     OW 2581   2.726   0.237   0.792  0.2535 -0.2877 -0.8343
  861SOL    HW1 2582   2.783   0.202   0.716  0.2551 -1.0246  0.4048
  861SOL    HW2 2583   2.638   0.196   0.779  3.0039  2.9239  0.7359
  862SOL     OW 2584   1.196   2.572   2.560 -0.0224 -0.0578 -0.5542
  862SOL    HW1 2585   1.187   2.557   2.660  1.1687  1.1157  1.9511
  862SOL    HW2 2586   1.214   2.484   2.512  0.3176  1.6833  1.4065
  863SOL     OW 2587   0.478   0.601   1.317 -0.4841 -0.2450 -0.0332
  863SOL    HW1 2588   0.413   0.526   1.331 -0.3167  0.7797  0.8836
  863SOL    HW2 2589   0.515   0.596   1.226  0.6580  0.6560  2.4739
  864SOL     OW 2590   0.061   3.043   1.847  0.2331  0.0061 -0.0588
  864SOL    HW1 2591   0.151   3.085   1.864 -1.9411  1.3770 -1.6080
  864SOL    HW2 2592   0.051   2.950   1.888  0.2640  1.4094  1.0303
  865SOL     OW 2593   0.477   1.359   0.059  0.1317 -0.2677  0.6238
  865SOL    HW1 2594   0.505   1.377   3.068  0.5090  0.5441 -1.5419
  865SOL    HW2 2595   0.488   1.253   0.075  2.6126 -2.8112  0.6387
  866SOL     OW 2596   0.012   0.219   0.150 -0.3269 -0.0301  0.0207
  866SOL    HW1 2597   3.017   0.219   0.172 -1.5429 -0.3742 -0.4355
  866SOL    HW2 2598   0.049   0.316   0.150  1.3045  1.7915  1.6127
  867SOL     OW 2599   2.891   2.784   3.045  0.3985  0.1442 -0.1664
  867SOL    HW1 2600   2.985   2.791   3.009 -2.1640 -0.1621  0.8089
  867SOL    HW2 2601   2.874   2.692   3.081 -0.0869 -0.5714 -3.8490
  868SOL     OW 2602   1.533   0.642   0.193 -0.1704 -0.3442 -0.6675
  868SOL    HW1 2603   1.528   0.546   0.225 -0.3462 -0.9097 -1.2364
  868SOL    HW2 2604   1.518   0.709   0.268 -0.4489  0.2291 -0.6032
  869SOL     OW 2605   2.282   1.420   0.419  0.2821  0.4068  0.5923
  869SOL    HW1 2606   2.200   1.442   0.358 -0.9204  2.9754  1.3822
  869SOL    HW2 2607   2.344   1.499   0.437 -0.3911  1.3684  0.4379
  870SOL     OW 2608   2.074   1.461   0.233 -0.3754 -0.9268  0.2892
  870SOL    HW1 2609   2.063   1.470   0.137 -0.9332 -1.3963 -0.3697
  870SOL    HW2 2610   2.047   1.547   0.276  1.3917 -0.1962  0.5687
  871SOL     OW 2611   1.206   1.299   0.852 -0.2374 -0.3367  0.2101
  871SOL    HW1 2612   1.121   1.345   0.887 -2.4022 -1.3726  1.8723
  871SOL    HW2 2613   1.285   1.351   0.886 -0.4871 -1.9631  0.2831
  872SOL     OW 2614   1.322   1.759   1.465 -0.5121 -0.2870  0.1925
  872SOL    HW1 2615   1.335   1.656   1.467  2.6687  0.1459  0.1024
  872SOL    HW2 2616   1.241   1.774   1.407  3.8801 -0.3782  0.7772
  873SOL     OW 2617   0.814   1.711   2.168 -0.1600 -0.1985  0.3021
  873SOL    HW1 2618   0.825   1.750   2.079  0.0757 -3.6211  0.8521
  873SOL    HW2 2619   0.837   1.609   2.159  0.6528 -0.9170 -1.0013
  874SOL     OW 2620   0.707   1.636   1.218 -0.1343  0.5121  0.0741
  874SOL    HW1 2621   0.658   1.725   1.204  0.7766  1.5735  2.3556
  874SOL    HW2 2622   0.664   1.561   1.166 -1.9274  3.1190  3.3638
  875SOL     OW 2623   2.249   0.520   1.182 -0.6813  0.2777  0.1235
  875SOL    HW1 2624   2.217   0.424   1.195  0.7913 -2.0061  2.7549
  875SOL    HW2 2625   2.253   0.565   1.276  2.8295  0.6246  2.2984
  876SOL     OW 2626   0.938   0.624   0.037 -0.3696 -0.0535 -0.0327
  876SOL    HW1 2627   0.892   0.635   0.127  0.9873  1.6870 -1.6701
  876SOL    HW2 2628   0.999   0.702   0.003  1.8668 -0.8499 -1.5337
  877SOL     OW 2629   2.970   0.526   1.394 -0.1559  0.5152 -0.4295
  877SOL    HW1 2630   2.880   0.493   1.361 -1.1385 -0.0382  0.8152
  877SOL    HW2 2631   2.994   0.620   1.366  0.2513  2.7637 -1.9233
  878SOL     OW 2632   1.912   2.194   0.158  0.0180  0.2712 -0.0115
  878SOL    HW1 2633   1.820   2.184   0.119  0.5279  1.4174 -0.5036
  878SOL    HW2 2634   1.980   2.146   0.101  0.6091  1.9384 -0.1996
  879SOL     OW 2635   2.526   1.777   1.344  0.1698 -0.3266 -0.1975
  879SOL    HW1 2636   2.472   1.853   1.306  0.4946  0.7829 -0.3562
  879SOL    HW2 2637   2.522   1.765   1.443 -2.4275  1.6392 -0.0857
  880SOL     OW 2638   1.122   3.057   1.279 -0.1020 -0.2554  0.1248
  880SOL    HW1 2639   1.061   2.982   1.313  1.6729 -0.1573  0.7450
  880SOL    HW2 2640   1.151   3.041   1.178  0.6991 -1.0903 -2.7838
  881SOL     OW 2641   1.322   1.904   0.221  0.0550  0.3651  0.1801
  881SOL    HW1 2642   1.229   1.919   0.183 -0.6478  0.3739  1.1430
  881SOL    HW2 2643   1.387   1.889   0.147  0.3968  0.5641  2.7112
  882SOL     OW 2644   2.070   0.834   2.128  0.1857  0.0733 -0.0059
  882SOL    HW1 2645   2.043   0.914   2.189 -1.5917  1.9968  1.4306
  882SOL    HW2 2646   2.151   0.861   2.070 -1.0503 -3.6537  0.0341
  883SOL     OW 2647   1.259   0.406   2.249  0.3240  0.2771 -0.6222
  883SOL    HW1 2648   1.291   0.391   2.150  2.7286 -2.1949 -0.8213
  883SOL    HW2 2649   1.235   0.509   2.258 -1.6292  0.4614  2.5927
  884SOL     OW 2650   2.845   0.177   0.147  0.0245 -0.0290 -0.2335
  884SOL    HW1 2651   2.747   0.212   0.151 -2.0330  0.3906  0.2324
  884SOL    HW2 2652   2.870   0.130   0.057 -0.1322 -1.7519 -0.6430
  885SOL     OW 2653   0.790   1.783   0.065  0.0539 -0.6909 -0.8560
  885SOL    HW1 2654   0.791   1.847   3.093 -2.2000  0.7051  0.1513
  885SOL    HW2 2655   0.701   1.764   0.103  0.0560  0.0182  2.8170
  886SOL     OW 2656   1.822   1.470   2.751  0.1153 -0.2279  0.7387
  886SOL    HW1 2657   1.831   1.508   2.661 -0.9760  0.0391  2.2058
  886SOL    HW2 2658   1.832   1.543   2.822  0.1177 -0.3095  1.5514
  887SOL     OW 2659   1.578   0.485   1.758  0.2333  0.1226  0.6857
  887SOL    HW1 2660   1.524   0.558   1.713  1.3355 -0.0062 -1.3539
  887SOL    HW2 2661   1.544   0.469   1.854  1.7571  2.6734  1.3840
  888SOL     OW 2662   2.949   0.686   1.861 -0.5836 -0.1252 -0.1831
  888SOL    HW1 2663   3.034   0.734   1.830  0.9291  2.3749 -0.0996
  888SOL    HW2 2664   2.924   0.606   1.799  0.3968 -1.2736  0.1103
  889SOL     OW 2665   2.933   2.753   0.633 -0.2386 -0.1040  0.1454
  889SOL    HW1 2666   2.879   2.699   0.702 -0.0417 -2.8397  4.4565
  889SOL    HW2 2667   3.029   2.745   0.650 -1.0635  2.4912 -0.3155
  890SOL     OW 2668   2.877   2.528   0.038 -0.3116 -0.4355 -0.9010
  890SOL    HW1 2669   2.837   2.460   0.103 -2.9198  3.6129 -1.1826
  890SOL    HW2 2670   2.968   2.491   0.009  2.2729 -2.5634  1.0461
  891SOL     OW 2671   0.876   1.658   2.805  0.4438  0.4355  0.1720
  891SOL    HW1 2672   0.788   1.667   2.755 -0.6048 -0.6243  0.7820
  891SOL    HW2 2673   0.919   1.565   2.793  0.3915 -2.3675  0.7973
  892SOL     OW 2674   2.988   2.918   0.906 -0.2878  0.6240 -0.5880
  892SOL    HW1 2675   3.050   2.925   0.828 -4.1733  1.6887  2.0843
  892SOL    HW2 2676   2.956   3.013   0.930  0.9123  0.6289 -2.1241
  893SOL     OW 2677   0.696   3.067   1.052 -0.0904  0.1799  0.2610
  893SOL    HW1 2678   0.700   3.012   1.138 -0.4564 -0.1410 -0.1893
  893SOL    HW2 2679   0.787   3.058   1.000  3.3743 -1.1767  0.6671
  894SOL     OW 2680   2.717   1.411   0.744  0.0689  0.7134 -0.6296
  894SOL    HW1 2681   2.653   1.489   0.776  0.4919  0.7802 -1.3878
  894SOL    HW2 2682   2.676   1.360   0.665  1.5088 -3.1688  2.8413
  895SOL     OW 2683   2.829   2.734   1.778 -0.1082  0.3747  0.1476
  895SOL    HW1 2684   2.829   2.635   1.780  1.8079  0.4653 -1.9298
  895SOL    HW2 2685   2.847   2.777   1.687 -1.8308 -1.4569  1.3682
  896SOL     OW 2686   1.042   0.196   1.692 -0.0098  0.5274  0.0786
  896SOL    HW1 2687   0.950   0.182   1.731  1.0136 -0.6874 -0.0881
  896SOL    HW2 2688   1.101   0.254   1.758  2.3888 -2.0731  1.1934
  897SOL     OW 2689   0.985   1.498   1.472  0.0310  0.2160 -0.1343
  897SOL    HW1 2690   0.988   1.419   1.411 -1.5450 -1.0277  2.7476
  897SOL    HW2 2691   0.888   1.525   1.495  0.9242  1.0895  2.1156
  898SOL     OW 2692   1.334   2.627   1.855 -0.2050  0.1878  0.1738
  898SOL    HW1 2693   1.336   2.724   1.883 -1.8609 -1.7691  1.0851
  898SOL    HW2 2694   1.303   2.613   1.760  0.6372  0.3144  0.1746
  899SOL     OW 2695   0.819   0.671   0.311  0.4991  0.2079 -0.5215
  899SOL    HW1 2696   0.733   0.697   0.359 -1.5744 -1.4647 -0.2752
  899SOL    HW2 2697   0.892   0.651   0.378  0.5165 -0.9872 -0.8314
  900SOL     OW 2698   1.548   2.476   1.905 -0.1106  0.4004  0.2166
  900SOL    HW1 2699   1.467   2.532   1.884  0.9215  2.0010 -3.0416
  900SOL    HW2 2700   1.628   2.540   1.900 -0.9573  1.0147 -0.8180
  901SOL     OW 2701   0.928   2.273   0.260  0.0200  0.1503 -0.2195
  901SOL    HW1 2702   0.882   2.248   0.351 -2.3527  0.8212  1.4731
  901SOL    HW2 2703   0.902   2.208   0.190 -0.7238  0.6801 -0.1238
  902SOL     OW 2704   1.943   1.033   0.027  0.4434 -0.3528 -0.2498
  902SOL    HW1 2705   2.018   1.067   0.094  1.1547 -0.2233 -0.0471
  902SOL    HW2 2706   1.979   0.972   3.059 -0.6532 -1.8490  1.3296
  903SOL     OW 2707   2.002   0.866   0.581  0.0404 -0.2137 -0.0466
  903SOL    HW1 2708   1.975   0.777   0.629 -1.2747 -3.3304 -0.5269
  903SOL    HW2 2709   1.959   0.878   0.489  0.0348  1.0701 -1.3368
  904SOL     OW 2710   0.764   1.337   2.912 -0.1247  0.0692 -0.0685
  904SOL    HW1 2711   0.684   1.391   2.945  0.5148 -0.5543  2.5193
  904SOL    HW2 2712   0.824   1.310   2.993 -1.5029 -0.0661  0.1550
  905SOL     OW 2713   1.975   2.997   1.027 -0.1898 -0.3099  0.0735
  905SOL    HW1 2714   2.048   2.992   0.955  3.8757  0.9223 -1.1061
  905SOL    HW2 2715   1.936   3.087   1.049 -0.6764 -1.1319 -0.7787
  906SOL     OW 2716   2.999   2.358   1.165 -0.8172 -0.4561  0.8227
  906SOL    HW1 2717   2.911   2.312   1.147  2.1623  0.2310 -1.9720
  906SOL    HW2 2718   3.065   2.371   1.087  1.9265  1.0440 -0.1223
  907SOL     OW 2719   0.981   0.902   0.238 -0.0032  0.1874  0.0726
  907SOL    HW1 2720   0.919   0.978   0.224 -0.2714 -3.1306 -0.5338
  907SOL    HW2 2721   0.933   0.819   0.271 -0.5976 -1.1327 -1.7964
  908SOL     OW 2722   1.832   2.765   1.094 -0.7556 -0.1109 -0.1985
  908SOL    HW1 2723   1.892   2.714   1.159  0.0210 -0.0527  1.5749
  908SOL    HW2 2724   1.871   2.856   1.073 -0.7563 -0.4030 -1.0496
  909SOL     OW 2725   2.190   1.267   1.736  0.7931 -0.2114  0.4722
  909SOL    HW1 2726   2.113   1.337   1.758 -0.1037 -0.9494  1.3451
  909SOL    HW2 2727   2.203   1.260   1.636 -0.4356  0.1213 -5.2832
  910SOL     OW 2728   1.547   2.785   2.005  0.5099 -0.5395  0.1962
  910SOL    HW1 2729   1.533   2.718   2.079  1.4346 -0.3359 -0.8680
  910SOL    HW2 2730   1.648   2.803   1.990 -0.1520 -1.2267 -2.6975
  911SOL     OW 2731   2.977   0.829   2.519 -0.5714  0.3345  0.2941
  911SOL    HW1 2732   3.028   0.911   2.486 -1.8782 -1.8077  1.8725
  911SOL    HW2 2733   3.049   0.765   2.561  0.3011  0.6714 -0.6113
  912SOL     OW 2734   0.132   1.324   1.697 -0.5370 -0.1681  0.3468
  912SOL    HW1 2735   0.038   1.320   1.731  3.5221  0.1024 -1.1920
  912SOL    HW2 2736   0.199   1.275   1.757  3.8139  1.5006 -1.5122
  913SOL     OW 2737   2.959   2.465   1.425 -0.5280 -0.7554 -0.1448
  913SOL    HW1 2738   2.957   2.392   1.494  0.4348  0.0216 -0.5027
  913SOL    HW2 2739   2.967   2.431   1.328  1.2676 -0.7540  0.1082
  914SOL     OW 2740   1.687   0.848   1.811  0.1950  0.1722 -0.0538
  914SOL    HW1 2741   1.626   0.785   1.861  1.2942 -0.6196  0.5517
  914SOL    HW2 2742   1.657   0.871   1.715  0.0882 -0.6967  0.3322
  915SOL     OW 2743   1.986   0.593   1.454 -0.0336 -0.3348 -0.4235
  915SOL    HW1 2744   1.991   0.530   1.531 -0.7388  1.7225  3.2518
  915SOL    HW2 2745   1.890   0.587   1.411 -1.0888  2.2316 -2.3913
  916SOL     OW 2746   2.802   2.675   1.162 -0.6492 -0.3681 -0.4728
  916SOL    HW1 2747   2.724   2.737   1.190 -1.9892  1.2677  1.1458
  916SOL    HW2 2748   2.775   2.580   1.166  0.3988  2.3407 -1.1331
  917SOL     OW 2749   1.912   1.857   0.015 -0.3533  0.1398 -0.3119
  917SOL    HW1 2750   1.825   1.888   0.052 -2.2557 -0.1187  2.0005
  917SOL    HW2 2751   1.967   1.933   3.084 -2.4357 -0.7632  3.0089
  918SOL     OW 2752   1.821   2.883   2.279 -0.9887  0.5758 -0.3708
  918SOL    HW1 2753   1.912   2.910   2.325  2.4425 -0.9361 -1.4065
  918SOL    HW2 2754   1.738   2.921   2.329 -0.8273 -1.3101 -0.9673
  919SOL     OW 2755   1.320   2.623   1.170  0.0828  0.1339  0.4173
  919SOL    HW1 2756   1.416   2.607   1.178 -1.1335  0.9358 -2.8323
  919SOL    HW2 2757   1.280   2.670   1.249  1.2503 -0.7961  0.6455
  920SOL     OW 2758   2.954   0.170   2.381 -0.0646 -0.7030  0.0810
  920SOL    HW1 2759   2.966   0.190   2.282 -1.0902 -3.3951  1.0627
  920SOL    HW2 2760   3.031   0.199   2.437 -2.4011  1.3888  1.5303
  921SOL     OW 2761   2.895   1.081   1.719 -0.4030 -0.2617 -0.1215
  921SOL    HW1 2762   2.932   1.176   1.723  0.1358 -2.1644 -1.1265
  921SOL    HW2 2763   2.970   1.011   1.732  1.6679 -2.1318  1.0140
  922SOL     OW 2764   1.952   2.003   0.588 -0.1646 -0.2584  0.0662
  922SOL    HW1 2765   2.043   2.044   0.557  1.7142  0.8024 -0.3158
  922SOL    HW2 2766   1.871   2.043   0.538 -0.7918 -2.5063  0.5051
  923SOL     OW 2767   1.051   1.896   0.160  0.3146 -0.2734  0.0736
  923SOL    HW1 2768   0.975   1.846   0.121  3.6910  1.4115 -0.0451
  923SOL    HW2 2769   1.036   1.902   0.260 -0.3372 -0.4472 -1.8541
  924SOL     OW 2770   1.293   0.334   3.065  0.0753  0.4296  0.4097
  924SOL    HW1 2771   1.202   0.363   3.038  0.9587  1.0795 -0.7509
  924SOL    HW2 2772   1.369   0.394   3.033  1.9107 -0.2891  2.1418
  925SOL     OW 2773   2.538   0.533   0.741  0.6256  0.0344  0.1787
  925SOL    HW1 2774   2.598   0.459   0.728 -0.7707  0.9973 -0.6865
  925SOL    HW2 2775   2.495   0.514   0.830 -1.7390  0.8423  0.8297
  926SOL     OW 2776   0.455   0.070   1.019 -0.7683  0.0041 -0.3088
  926SOL    HW1 2777   0.386   0.015   1.069  0.8226  1.4526 -0.5368
  926SOL    HW2 2778   0.553   0.029   1.037  0.5814  0.1842  1.5198
  927SOL     OW 2779   0.028   1.459   2.366 -0.4586  0.0418  0.0875
  927SOL    HW1 2780   0.065   1.545   2.331  0.3867 -0.2506 -0.3054
  927SOL    HW2 2781   0.095   1.386   2.328  0.0743  0.6000  0.6091
  928SOL     OW 2782   3.092   0.415   2.853  0.3644 -0.1058  0.8372
  928SOL    HW1 2783   3.105   0.505   2.899  0.5469 -2.1575  2.0988
  928SOL    HW2 2784   3.003   0.370   2.883 -1.4132 -1.9706  0.0607
  929SOL     OW 2785   2.680   0.212   1.426 -0.0042 -0.7402 -0.3152
  929SOL    HW1 2786   2.743   0.153   1.372  0.9849 -1.2154  1.4848
  929SOL    HW2 2787   2.594   0.163   1.430  1.1517  0.4295 -2.6854
  930SOL     OW 2788   1.924   0.994   1.821  0.2436  0.3702  0.2077
  930SOL    HW1 2789   1.840   0.940   1.839 -1.6150  0.7342 -0.6778
  930SOL    HW2 2790   1.971   1.020   1.906 -1.0119 -0.3388  0.0388
  931SOL     OW 2791   2.145   1.095   0.190 -0.1056  0.2236  0.1240
  931SOL    HW1 2792   2.220   1.157   0.224 -1.9348  0.5736 -0.2887
  931SOL    HW2 2793   2.163   0.996   0.208 -0.9668 -0.1402 -1.4197
  932SOL     OW 2794   2.294   1.224   0.933  0.0912 -0.0731  0.0704
  932SOL    HW1 2795   2.382   1.234   0.984  1.8229  2.8315  1.0120
  932SOL    HW2 2796   2.222   1.176   0.989 -2.4893 -2.5651  2.4521
  933SOL     OW 2797   2.383   1.937   0.825 -0.8029  0.1131  0.3583
  933SOL    HW1 2798   2.348   1.908   0.730  0.8496  0.2270 -4.1174
  933SOL    HW2 2799   2.354   2.031   0.848 -0.6518 -1.2667 -0.1915
  934SOL     OW 2800   2.057   0.467   2.561  0.1672 -0.2167 -0.0546
  934SOL    HW1 2801   2.078   0.528   2.481 -3.1754  0.0366 -0.8646
  934SOL    HW2 2802   2.111   0.382   2.553 -1.6380  1.7981  0.2845
  935SOL     OW 2803   0.005   1.518   0.489 -0.5189  0.0632  0.7476
  935SOL    HW1 2804   3.058   1.482   0.567  0.6053 -0.3214  0.0263
  935SOL    HW2 2805   0.099   1.552   0.514  2.2652 -0.0586 -1.1404
  936SOL     OW 2806   0.042   0.427   0.734 -0.4005 -0.1725  0.4030
  936SOL    HW1 2807   0.009   0.451   0.642  0.0621  0.5685 -0.3579
  936SOL    HW2 2808   0.064   0.518   0.787  0.3382  3.9750  1.1901
  937SOL     OW 2809   2.833   0.022   1.264  0.4995 -0.0655  0.4221
  937SOL    HW1 2810   2.745   0.039   1.214 -2.8157 -2.5422 -0.4579
  937SOL    HW2 2811   2.902   0.087   1.224  2.0053 -2.2001 -0.8627
  938SOL     OW 2812   2.722   2.380   0.212 -0.1888 -0.4673 -0.5552
  938SOL    HW1 2813   2.801   2.381   0.277  0.1592 -0.0259 -1.7762
  938SOL    HW2 2814   2.651   2.441   0.259 -0.7145 -0.3092 -0.9541
  939SOL     OW 2815   0.793   2.004   0.653  0.1942  0.3109 -0.0421
  939SOL    HW1 2816   0.838   1.966   0.738 -1.4001  1.5310  0.4792
  939SOL    HW2 2817   0.719   1.944   0.614 -0.0963  1.0416  0.4472
  940SOL     OW 2818   0.235   0.309   2.905 -0.1661  0.5734 -0.1762
  940SOL    HW1 2819   0.144   0.352   2.889  3.6460 -0.1885 -0.9277
  940SOL    HW2 2820   0.267   0.251   2.825  0.0822  2.3610 -0.8038
  941SOL     OW 2821   1.425   0.250   2.837 -0.2005 -0.0977  0.1813
  941SOL    HW1 2822   1.517   0.301   2.854  1.9934  0.8381  1.2338
  941SOL    HW2 2823   1.370   0.245   2.924 -0.1414 -0.8804  0.3555
  942SOL     OW 2824   1.070   0.753   1.374 -0.2156 -0.2826 -0.1831
  942SOL    HW1 2825   1.014   0.673   1.343  1.5650 -0.2580 -0.3769
  942SOL    HW2 2826   1.069   0.755   1.478  1.0773 -0.8562 -1.4964
  943SOL     OW 2827   1.330   1.039   1.871  0.3559 -0.0532 -0.5692
  943SOL    HW1 2828   1.420   1.075   1.902 -0.6696 -0.5370 -2.5524
  943SOL    HW2 2829   1.295   0.960   1.927  0.2152  0.0854 -0.2698
  944SOL     OW 2830   2.065   1.000   1.610  0.6251  0.0764  0.3807
  944SOL    HW1 2831   1.996   1.001   1.686 -1.9987  1.9232  1.7678
  944SOL    HW2 2832   2.076   1.095   1.567  2.4432  1.5214 -1.7938
  945SOL     OW 2833   2.827   3.028   0.295  0.4349  0.2715 -0.1182
  945SOL    HW1 2834   2.800   3.024   0.388 -1.2171  1.5337  1.2973
  945SOL    HW2 2835   2.799   0.006   0.249 -2.2936  0.5787 -1.3974
  946SOL     OW 2836   2.880   0.891   2.052 -0.6294 -0.3276  0.1711
  946SOL    HW1 2837   2.896   0.811   1.992 -0.7431 -1.1056  0.3360
  946SOL    HW2 2838   2.791   0.941   2.032 -0.2574 -2.0210  0.4554
  947SOL     OW 2839   0.983   2.714   0.310  0.4857 -1.3634 -0.3536
  947SOL    HW1 2840   0.931   2.787   0.363  0.9389 -0.2954  0.9354
  947SOL    HW2 2841   0.930   2.693   0.224  0.9135  0.4577  1.6375
  948SOL     OW 2842   2.366   1.588   1.667  0.2484  0.4761 -0.1662
  948SOL    HW1 2843   2.429   1.667   1.644  0.4253  1.5630  0.5908
  948SOL    HW2 2844   2.408   1.501   1.634  0.0470 -0.7858  0.9500
  949SOL     OW 2845   0.434   1.429   2.888 -0.4837 -0.7428  0.1624
  949SOL    HW1 2846   0.336   1.415   2.911 -0.2691 -0.3646 -1.0249
  949SOL    HW2 2847   0.471   1.375   2.804  1.6272 -3.1577 -4.6982
  950SOL     OW 2848   0.349   2.653   0.924  0.1758 -0.5728  0.2249
  950SOL    HW1 2849   0.258   2.656   0.971 -1.4256 -2.0048  1.6967
  950SOL    HW2 2850   0.377   2.557   0.919  0.5863  4.4503 -0.6165
  951SOL     OW 2851   0.895   1.303   2.412  0.0136  0.4241 -0.3027
  951SOL    HW1 2852   0.970   1.293   2.341  0.4945 -0.6458  1.7582
  951SOL    HW2 2853   0.837   1.219   2.425 -0.4374 -1.2122  1.3827
  952SOL     OW 2854   0.360   1.143   0.368  0.0569  0.3428 -0.7031
  952SOL    HW1 2855   0.406   1.154   0.276 -1.5456 -0.2532 -1.9813
  952SOL    HW2 2856   0.263   1.121   0.357  0.5455 -1.6251  1.1026
  953SOL     OW 2857   2.348   0.147   2.719 -0.0305 -0.3558 -0.4796
  953SOL    HW1 2858   2.299   0.085   2.779  0.6038  0.5762 -0.1879
  953SOL    HW2 2859   2.382   0.096   2.639 -3.0198 -1.6595  0.6704
  954SOL     OW 2860   1.723   1.095   0.352  0.2087 -0.3544  0.1491
  954SOL    HW1 2861   1.632   1.131   0.322  0.1809 -0.9548 -0.4935
  954SOL    HW2 2862   1.791   1.172   0.366  2.4633  0.4842  1.3168
  955SOL     OW 2863   0.789   1.907   2.645 -0.1001  0.2438 -0.2539
  955SOL    HW1 2864   0.817   1.878   2.738 -0.5338  0.4452  0.4927
  955SOL    HW2 2865   0.755   2.001   2.644  0.6572  1.8326 -0.3279
  956SOL     OW 2866   2.070   0.611   2.297  0.0947 -0.0691 -0.2165
  956SOL    HW1 2867   2.101   0.545   2.228 -3.0761  1.2117 -0.1385
  956SOL    HW2 2868   2.073   0.704   2.256 -1.2748 -0.9388 -2.5248
  957SOL     OW 2869   2.042   2.202   2.474  0.0379 -0.2200 -0.2292
  957SOL    HW1 2870   2.000   2.141   2.546  0.8747  0.3445 -0.2834
  957SOL    HW2 2871   2.147   2.187   2.479  0.2951  1.7285  0.8462
  958SOL     OW 2872   1.480   1.317   1.389 -0.1959 -0.0822 -0.1313
  958SOL    HW1 2873   1.541   1.300   1.305  3.4979 -1.7808 -0.3091
  958SOL    HW2 2874   1.431   1.228   1.409  0.5273 -2.2462  2.1970
  959SOL     OW 2875   1.792   2.298   2.447  0.4207 -0.1741  0.1413
  959SOL    HW1 2876   1.789   2.369   2.373  3.9918 -0.4772  0.3487
  959SOL    HW2 2877   1.887   2.258   2.452  0.6715  2.8086 -0.2366
  960SOL     OW 2878   0.296   0.681   2.649  0.1299  0.3616  0.0817
  960SOL    HW1 2879   0.295   0.755   2.577  1.0342 -1.3622  0.3570
  960SOL    HW2 2880   0.204   0.640   2.660  1.4939 -0.1988 -1.8547
  961SOL     OW 2881   0.288   0.941   2.788 -0.2713  0.0239  0.4620
  961SOL    HW1 2882   0.281   0.840   2.770  0.7486 -2.3698  1.3519
  961SOL    HW2 2883   0.298   0.951   2.888 -0.1116  0.0365 -0.9007
  962SOL     OW 2884   0.632   1.306   2.667  0.3566  0.1706  0.2823
  962SOL    HW1 2885   0.688   1.309   2.758  1.1663 -0.6833  0.8265
  962SOL    HW2 2886   0.605   1.213   2.650  0.1880  0.1614  2.0281
  963SOL     OW 2887   2.619   2.124   0.170  0.3904 -0.0408  0.1741
  963SOL    HW1 2888   2.658   2.217   0.167 -2.3522 -0.5143 -0.7625
  963SOL    HW2 2889   2.692   2.052   0.176  0.2281  1.8730 -1.4583
  964SOL     OW 2890   0.949   2.469   1.693  0.0437 -0.2631 -0.3481
  964SOL    HW1 2891   1.040   2.516   1.670  0.5550 -2.8223  0.2001
  964SOL    HW2 2892   0.868   2.510   1.644 -1.8030  0.3504 -3.8928
  965SOL     OW 2893   1.800   1.726   0.563 -0.5586  0.2728  0.7893
  965SOL    HW1 2894   1.900   1.727   0.574 -0.2240  0.6036  0.9530
  965SOL    HW2 2895   1.767   1.810   0.508 -0.3267  1.1412 -0.4252
  966SOL     OW 2896   2.912   1.705   0.445 -0.2151  0.2525  0.1649
  966SOL    HW1 2897   2.967   1.623   0.466  1.5584 -0.5034  1.8569
  966SOL    HW2 2898   2.972   1.787   0.435 -0.1206 -0.1855 -1.8177
  967SOL     OW 2899   1.709   2.994   1.791  0.3338  0.3237 -0.1695
  967SOL    HW1 2900   1.784   2.982   1.857  0.5420  1.1353  1.2659
  967SOL    HW2 2901   1.670   2.914   1.745 -3.2202 -1.3411  0.0200
  968SOL     OW 2902   1.898   0.323   0.390 -0.2359 -0.0450 -0.1383
  968SOL    HW1 2903   1.800   0.325   0.427  2.3230 -1.3621 -0.7771
  968SOL    HW2 2904   1.962   0.374   0.451 -0.2964 -0.0105  0.1193
  969SOL     OW 2905   0.178   1.256   2.232  0.3685  0.5659 -0.1901
  969SOL    HW1 2906   0.256   1.203   2.261 -2.2505  1.6449  1.0693
  969SOL    HW2 2907   0.142   1.211   2.152  1.4449  0.8207  2.3222
  970SOL     OW 2908   2.136   1.961   1.327 -0.3826  0.1150  0.0567
  970SOL    HW1 2909   2.086   2.009   1.251  1.6832  0.3031 -0.9870
  970SOL    HW2 2910   2.118   2.020   1.408  1.9036  0.2741 -1.3984
  971SOL     OW 2911   3.030   2.811   1.132  0.5316  0.7554  0.1513
  971SOL    HW1 2912   2.942   2.755   1.140 -3.5735 -3.4882 -0.3990
  971SOL    HW2 2913   3.020   2.870   1.046  0.2728  1.7920  0.0587
  972SOL     OW 2914   0.195   1.207   2.720  0.0757  0.0631 -0.3930
  972SOL    HW1 2915   0.204   1.106   2.727 -1.5981  1.9437  0.6907
  972SOL    HW2 2916   0.103   1.238   2.680 -1.6438  1.5964 -0.9212
  973SOL     OW 2917   0.449   0.273   0.657 -0.4322  0.1899  0.1000
  973SOL    HW1 2918   0.381   0.265   0.733  0.2740  2.2159  3.9613
  973SOL    HW2 2919   0.405   0.344   0.593 -0.2881  3.2190 -1.4587
  974SOL     OW 2920   2.262   0.846   1.700  0.1129  0.4990 -0.3691
  974SOL    HW1 2921   2.176   0.900   1.680 -2.5651  2.6028  1.6680
  974SOL    HW2 2922   2.340   0.859   1.636  0.8683  0.4051  0.2766
  975SOL     OW 2923   2.693   2.893   0.091  0.6911 -0.3298 -0.5376
  975SOL    HW1 2924   2.730   2.926   0.180 -1.9196  0.8341  0.1488
  975SOL    HW2 2925   2.769   2.846   0.041  0.6156  1.6140 -0.9570
  976SOL     OW 2926   0.376   1.619   1.149  0.4787  0.3748  0.0124
  976SOL    HW1 2927   0.438   1.538   1.161  0.3804 -2.5249 -1.8210
  976SOL    HW2 2928   0.363   1.649   1.050 -2.3243 -1.2478 -2.6085
  977SOL     OW 2929   1.052   2.301   0.808 -0.3721  0.1725  0.5205
  977SOL    HW1 2930   1.081   2.251   0.727  0.5875  1.0697  1.2593
  977SOL    HW2 2931   1.120   2.296   0.883 -0.5515 -1.8621  2.4840
  978SOL     OW 2932   0.463   0.859   0.275  0.0432  0.2063  0.0140
  978SOL    HW1 2933   0.463   0.926   0.202 -0.6926 -1.9320  4.0798
  978SOL    HW2 2934   0.430   0.769   0.248 -0.8291 -3.3058 -0.1187
  979SOL     OW 2935   2.058   1.685   0.385  0.5999  0.5461 -0.6380
  979SOL    HW1 2936   2.069   1.698   0.484  1.3148  0.2080  0.9702
  979SOL    HW2 2937   2.115   1.758   0.344 -0.1644  0.7665  0.9477
  980SOL     OW 2938   0.325   1.775   2.082 -0.1218  0.1873  0.2915
  980SOL    HW1 2939   0.348   1.743   1.988 -1.2896 -0.7920  0.9572
  980SOL    HW2 2940   0.415   1.781   2.130  0.8551 -1.2659  1.6294
  981SOL     OW 2941   2.708   1.077   0.366  0.2891 -0.4367  0.4929
  981SOL    HW1 2942   2.664   1.075   0.457  3.2363  0.0426 -2.4973
  981SOL    HW2 2943   2.675   1.008   0.300 -1.2073 -2.9390 -3.7250
  982SOL     OW 2944   2.909   2.884   2.038 -0.1579 -0.9479  0.0351
  982SOL    HW1 2945   2.860   2.966   1.996  2.0659  1.8760 -0.0751
  982SOL    HW2 2946   2.987   2.850   1.975  2.0314  0.5875  1.1231
  983SOL     OW 2947   1.332   0.383   1.419 -0.0882 -0.6317  0.3999
  983SOL    HW1 2948   1.302   0.307   1.358 -0.5698 -0.4733 -1.5050
  983SOL    HW2 2949   1.414   0.346   1.468  0.6514 -0.6740  0.6588
  984SOL     OW 2950   1.324   2.588   3.014 -0.0569  0.1068  0.0700
  984SOL    HW1 2951   1.334   2.533   2.931 -1.7345  2.8711  1.4311
  984SOL    HW2 2952   1.413   2.638   3.037  2.2185 -1.3356 -2.2405
  985SOL     OW 2953   1.455   1.962   1.572  0.2903 -0.6675  0.4103
  985SOL    HW1 2954   1.394   1.890   1.527  0.4708 -1.8691  2.2363
  985SOL    HW2 2955   1.499   1.914   1.646  0.8192 -1.2142  0.0074
  986SOL     OW 2956   2.062   2.981   2.359 -0.4909  0.5089  0.3171
  986SOL    HW1 2957   2.111   2.960   2.271  2.5678 -0.4984 -0.9593
  986SOL    HW2 2958   2.023   3.076   2.352 -1.1866 -0.7574  1.3233
  987SOL     OW 2959   2.655   1.533   2.457 -0.1851 -0.1503 -0.2468
  987SOL    HW1 2960   2.651   1.552   2.558  0.6871  1.6819  0.0177
  987SOL    HW2 2961   2.622   1.619   2.410 -1.6318  0.2983  0.3073
  988SOL     OW 2962   2.842   0.536   2.055 -0.0894  0.5336  0.4717
  988SOL    HW1 2963   2.874   0.602   1.989  0.4450 -1.6462  2.2365
  988SOL    HW2 2964   2.842   0.580   2.144  0.9384  0.7284 -1.5797
  989SOL     OW 2965   1.814   1.219   1.641 -0.5964  0.1301  0.1367
  989SOL    HW1 2966   1.781   1.308   1.672 -1.6105 -2.0434 -0.7423
  989SOL    HW2 2967   1.854   1.162   1.712 -0.1039  1.0190 -5.2054
  990SOL     OW 2968   2.969   1.132   0.241  0.0697 -0.5994  0.3924
  990SOL    HW1 2969   2.875   1.115   0.274  2.1792  2.4321 -1.7011
  990SOL    HW2 2970   3.022   1.063   0.193 -1.2371  3.5531  2.5490
  991SOL     OW 2971   0.270   2.088   2.804 -0.6345 -0.1994  0.1680
  991SOL    HW1 2972   0.200   2.022   2.844 -2.7011 -2.8695  2.7105
  991SOL    HW2 2973   0.293   2.056   2.711 -0.6862 -0.3109 -1.6147
  992SOL     OW 2974   2.555   2.214   1.949 -0.6931 -0.1773  0.0437
  992SOL    HW1 2975   2.467   2.245   1.994  0.6476 -2.3322  1.4552
  992SOL    HW2 2976   2.638   2.264   1.997  0.3916  0.3701 -1.2254
  993SOL     OW 2977   0.511   2.995   0.504  0.8859  0.0439 -0.4247
  993SOL    HW1 2978   0.507   3.080   0.449  1.6798 -1.4380 -0.4726
  993SOL    HW2 2979   0.527   3.025   0.600 -0.3647 -0.0285  1.3486
  994SOL     OW 2980   3.027   2.039   1.488 -0.5605 -0.3906 -0.0398
  994SOL    HW1 2981   3.056   2.005   1.580  1.0035  1.1282 -1.7601
  994SOL    HW2 2982   3.021   1.952   1.429 -1.2239 -0.5741 -1.6529
  995SOL     OW 2983   2.205   1.747   2.306 -0.3911  0.0214  0.3560
  995SOL    HW1 2984   2.242   1.783   2.396  0.5086  0.2204  1.0367
  995SOL    HW2 2985   2.248   1.658   2.283 -2.3554 -0.8807  1.4603
  996SOL     OW 2986   1.809   1.675   2.936  0.2726 -0.6144 -0.3222
  996SOL    HW1 2987   1.779   1.608   3.005  2.0724  0.7755 -0.4658
  996SOL    HW2 2988   1.845   1.765   2.977  0.0866  1.3402 -0.1723
  997SOL     OW 2989   1.290   1.486   1.500 -0.0027  0.1737 -0.1539
  997SOL    HW1 2990   1.202   1.494   1.455  1.1708  2.7855 -1.3804
  997SOL    HW2 2991   1.348   1.423   1.443 -0.5467 -0.9212 -2.2418
  998SOL     OW 2992   2.788   2.169   1.105  0.0444  0.1709  1.1677
  998SOL    HW1 2993   2.822   2.092   1.045 -0.2382 -0.0076  1.3018
  998SOL    HW2 2994   2.741   2.135   1.185  1.5888  0.4263 -1.8034
  999SOL     OW 2995   2.464   2.769   0.189  0.3677  0.1675 -0.3753
  999SOL    HW1 2996   2.399   2.846   0.179 -0.4050 -0.4338  1.3404
  999SOL    HW2 2997   2.540   2.781   0.124  0.6919  0.2309 -1.3789
 1000SOL     OW 2998   1.020   0.018   3.053  0.9918 -0.2804 -0.0110
 1000SOL    HW1 2999   1.058   0.033   0.039 -0.8240  0.6206 -0.9119
 1000SOL    HW2 3000   1.004   0.102   2.997  0.1784 -3.2827 -0.9553
   3.10596   3.10596   3.10596
