1000 SPC/Fw water molecules t= 423.00000 step= 423000
 3000
    1SOL     OW    1   0.121   0.003   1.146  0.1592  0.4702 -0.0170
    1SOL    HW1    2   0.178   0.081   1.184  2.5833 -2.7530 -1.2036
    1SOL    HW2    3   0.149   3.007   1.191  0.7676  3.8562 -0.6142
    2SOL     OW    4   2.602   0.044   0.162 -0.0446  0.3698  0.1347
    2SOL    HW1    5   2.680   3.085   0.117  1.3026  0.6668  3.3716
    2SOL    HW2    6   2.564   0.117   0.106 -0.1731 -0.7335  0.1619
    3SOL     OW    7   1.607   2.622   0.054 -0.0801  0.7077 -0.3361
    3SOL    HW1    8   1.615   2.541   3.078  1.5194  1.6037 -1.3637
    3SOL    HW2    9   1.539   2.690   0.017 -2.2574 -1.9451  1.0146
    4SOL     OW   10   1.158   0.014   2.241 -0.4554  0.3282 -0.0353
    4SOL    HW1   11   1.135   0.061   2.325  1.6357  2.2442 -4.4693
    4SOL    HW2   12   1.071   3.078   2.191 -0.7749 -1.0168 -1.5961
    5SOL     OW   13   2.302   0.165   2.019 -0.1765  0.3715 -0.1656
    5SOL    HW1   14   2.253   0.082   1.984 -0.6491  0.3198 -1.5720
    5SOL    HW2   15   2.239   0.242   2.031  2.2476 -2.0932  0.2922
    6SOL     OW   16   2.601   1.860   1.307 -0.3278  0.1700  0.7257
    6SOL    HW1   17   2.644   1.791   1.249 -4.1699  3.0121 -0.5360
    6SOL    HW2   18   2.520   1.817   1.354 -0.0278 -1.7654  0.5963
    7SOL     OW   19   1.736   1.219   0.792 -0.0477  0.2827 -0.1432
    7SOL    HW1   20   1.826   1.262   0.807  3.5235 -1.7093 -1.6658
    7SOL    HW2   21   1.746   1.140   0.726  2.2677 -1.7357 -0.8644
    8SOL     OW   22   0.300   1.559   0.986 -0.2548  0.0965  0.2267
    8SOL    HW1   23   0.338   1.631   1.041  0.5269 -2.6234  0.4778
    8SOL    HW2   24   0.216   1.530   1.038  0.0506 -1.6342 -0.2255
    9SOL     OW   25   3.010   2.751   1.429 -0.0624 -0.4059 -0.2943
    9SOL    HW1   26   2.951   2.731   1.514  0.1908  1.0767 -0.4143
    9SOL    HW2   27   2.945   2.750   1.347 -2.1873 -1.0933  1.3150
   10SOL     OW   28   1.117   2.348   0.505  0.2825 -0.5750  0.5521
   10SOL    HW1   29   1.189   2.417   0.493  0.9634 -0.6922  1.1189
   10SOL    HW2   30   1.030   2.370   0.459  0.4956 -0.3523  3.1819
   11SOL     OW   31   1.596   1.939   1.011 -0.3292  0.0188 -0.1825
   11SOL    HW1   32   1.636   2.022   0.962 -1.5023  1.5306 -2.8321
   11SOL    HW2   33   1.558   1.874   0.946 -0.5848  0.3777  1.9327
   12SOL     OW   34   0.120   0.765   2.181  0.5459  0.2505 -0.2176
   12SOL    HW1   35   0.059   0.764   2.099  1.7261 -1.7997  0.9982
   12SOL    HW2   36   0.216   0.766   2.149  0.6369 -1.1839  0.7785
   13SOL     OW   37   2.519   2.850   0.323  0.4413 -0.6073 -0.5002
   13SOL    HW1   38   2.481   2.867   0.229  0.2517  0.7288  0.3399
   13SOL    HW2   39   2.618   2.845   0.324 -1.5277  2.0830 -0.7890
   14SOL     OW   40   1.423   1.819   0.252  0.3829  0.2981  0.0263
   14SOL    HW1   41   1.472   1.821   0.163  1.0237 -2.4202  0.7939
   14SOL    HW2   42   1.467   1.890   0.311  1.8089  1.0876 -3.7313
   15SOL     OW   43   2.916   2.760   1.916 -0.4024  0.3523  0.1388
   15SOL    HW1   44   3.001   2.740   1.856  0.0647  1.5923  0.5841
   15SOL    HW2   45   2.930   2.855   1.945  0.0679 -2.5161 -1.8106
   16SOL     OW   46   2.835   0.402   0.796 -0.1067  0.1362  0.1599
   16SOL    HW1   47   2.923   0.361   0.825 -2.6830 -1.6510  1.4755
   16SOL    HW2   48   2.796   0.352   0.716  0.5887  0.2675  1.3955
   17SOL     OW   49   1.045   0.080   0.767 -0.1917 -0.2192  0.3008
   17SOL    HW1   50   0.962   0.137   0.740  0.4117  1.1285 -0.7826
   17SOL    HW2   51   1.069   0.099   0.867  1.4262  0.8850  2.5077
   18SOL     OW   52   1.017   0.160   1.045 -0.2366  0.1158 -0.7627
   18SOL    HW1   53   1.057   0.143   1.136  2.8927 -1.5155 -0.9817
   18SOL    HW2   54   0.986   0.257   1.024 -0.9990  1.1991  0.4701
   19SOL     OW   55   2.072   1.192   0.531  0.0570  0.3132 -0.6132
   19SOL    HW1   56   2.141   1.226   0.596  1.1896 -1.0364 -2.3924
   19SOL    HW2   57   2.043   1.257   0.461  2.8843 -0.5847 -1.9452
   20SOL     OW   58   2.320   1.512   2.784 -0.1854  0.1241  0.3570
   20SOL    HW1   59   2.223   1.528   2.768  0.2785 -0.1318  2.5260
   20SOL    HW2   60   2.380   1.565   2.718  2.0052 -1.7686 -2.6429
   21SOL     OW   61   1.455   3.027   0.288  0.5889  0.2753  0.1910
   21SOL    HW1   62   1.518   2.984   0.360  1.3496 -0.0188  1.6664
   21SOL    HW2   63   1.361   3.020   0.328 -0.7299  1.4305 -0.2008
   22SOL     OW   64   2.844   1.172   1.022 -0.1466 -0.8132 -0.2468
   22SOL    HW1   65   2.770   1.175   1.095 -3.5135 -0.7715  1.2133
   22SOL    HW2   66   2.821   1.238   0.947  0.7608 -1.2934 -0.3926
   23SOL     OW   67   0.513   0.262   2.075 -0.0080 -0.4484 -0.5895
   23SOL    HW1   68   0.501   0.362   2.090 -2.0518 -0.7238 -0.9804
   23SOL    HW2   69   0.441   0.224   2.009 -1.5077 -1.4037 -1.1360
   24SOL     OW   70   2.333   2.232   0.813 -0.0709 -0.0575 -0.1254
   24SOL    HW1   71   2.266   2.283   0.759  0.2459  0.6248 -1.5429
   24SOL    HW2   72   2.296   2.150   0.861 -0.6941 -0.6780  1.5372
   25SOL     OW   73   1.826   0.172   2.481 -0.4745  0.1434  0.0287
   25SOL    HW1   74   1.736   0.170   2.439 -1.5596 -1.2524  1.0558
   25SOL    HW2   75   1.817   0.166   2.584 -0.9169  2.3987  0.5293
   26SOL     OW   76   1.470   2.246   0.009  0.5142  0.1692 -0.1305
   26SOL    HW1   77   1.531   2.313   3.047  1.6012  0.0188 -1.0388
   26SOL    HW2   78   1.430   2.178   3.034 -0.9856 -2.8277  3.5774
   27SOL     OW   79   1.423   0.284   1.317  0.3955 -0.4397  0.0796
   27SOL    HW1   80   1.372   0.272   1.229 -3.0223 -0.1035  1.4543
   27SOL    HW2   81   1.500   0.214   1.322  0.1931 -1.2843  1.7319
   28SOL     OW   82   0.905   1.522   0.497  0.4404 -0.0611  0.4486
   28SOL    HW1   83   0.825   1.472   0.526  0.4547  3.1675 -2.3905
   28SOL    HW2   84   0.916   1.513   0.395 -1.9931  2.2540 -0.8640
   29SOL     OW   85   2.604   0.375   1.509  0.0687  1.0482  0.3515
   29SOL    HW1   86   2.631   0.369   1.411 -2.5286  1.9134  1.2454
   29SOL    HW2   87   2.579   0.281   1.542  1.9227  0.3730 -2.6618
   30SOL     OW   88   1.377   2.381   1.513  0.1175  0.4537  0.3115
   30SOL    HW1   89   1.450   2.308   1.517  3.0601 -0.7685 -0.5352
   30SOL    HW2   90   1.291   2.347   1.465 -2.5620  1.3674  0.7602
   31SOL     OW   91   2.053   2.630   1.384  0.6456 -0.4964  0.4868
   31SOL    HW1   92   2.004   2.697   1.328 -2.2068  0.7996  2.5960
   31SOL    HW2   93   2.140   2.671   1.419 -0.5404  3.6434 -0.8045
   32SOL     OW   94   2.105   1.438   2.365 -0.2614  0.2922 -0.0760
   32SOL    HW1   95   2.033   1.376   2.336  1.6399  0.9470  1.2680
   32SOL    HW2   96   2.193   1.389   2.393  1.7544 -0.2521 -1.3400
   33SOL     OW   97   2.549   0.599   2.935 -0.4899  0.7239  0.4362
   33SOL    HW1   98   2.477   0.548   2.983  1.2063 -0.6126 -1.5502
   33SOL    HW2   99   2.507   0.659   2.862  1.9122  2.7750  1.7838
   34SOL     OW  100   1.901   0.288   0.199  0.7646  0.7163 -0.0211
   34SOL    HW1  101   1.804   0.279   0.222 -0.0124  0.4971 -2.2211
   34SOL    HW2  102   1.932   0.385   0.190 -0.8376  1.0335  0.0770
   35SOL     OW  103   0.232   1.974   2.036  0.0143  0.2475 -0.0853
   35SOL    HW1  104   0.177   2.059   2.027  2.9199 -0.7482 -1.4147
   35SOL    HW2  105   0.172   1.903   2.075 -1.5299 -1.2839 -0.7693
   36SOL     OW  106   2.506   1.647   2.625  0.0589 -0.0612  0.4995
   36SOL    HW1  107   2.524   1.699   2.710  0.6245 -0.4121 -0.4154
   36SOL    HW2  108   2.535   1.692   2.536  0.8367  0.4108 -0.5682
   37SOL     OW  109   1.375   2.862   1.616 -0.1613  0.3250 -0.3114
   37SOL    HW1  110   1.350   2.772   1.567 -1.5371  0.2322 -3.9651
   37SOL    HW2  111   1.370   2.859   1.720  0.3429  0.2902  1.8577
   38SOL     OW  112   0.628   0.800   2.621  0.3246 -0.1219 -0.2787
   38SOL    HW1  113   0.542   0.836   2.575 -0.2641 -0.9070 -3.9124
   38SOL    HW2  114   0.705   0.795   2.556 -0.3292  0.2174  2.3766
   39SOL     OW  115   1.923   0.724   1.312 -0.0378 -0.3295  0.7377
   39SOL    HW1  116   1.833   0.675   1.316  1.2178 -1.0320  0.0669
   39SOL    HW2  117   1.933   0.772   1.225  1.5128 -0.6480  0.2875
   40SOL     OW  118   1.206   2.387   0.786 -0.3023  0.4721 -0.2539
   40SOL    HW1  119   1.179   2.297   0.821  1.1719  2.0004  0.0749
   40SOL    HW2  120   1.185   2.390   0.686  0.7233  1.4806 -2.1021
   41SOL     OW  121   2.101   2.149   1.023  0.5320  0.0490  0.1502
   41SOL    HW1  122   2.040   2.063   1.023 -1.1891 -0.0845 -0.8527
   41SOL    HW2  123   2.047   2.232   0.992 -2.4434 -0.1808 -0.4385
   42SOL     OW  124   2.454   0.502   0.698  0.1637 -0.5015  0.1151
   42SOL    HW1  125   2.500   0.489   0.789  0.5523  2.1493  1.2405
   42SOL    HW2  126   2.440   0.601   0.680  1.5230 -1.4987 -0.5084
   43SOL     OW  127   0.714   1.445   2.163  0.3002  0.2525 -1.0253
   43SOL    HW1  128   0.665   1.443   2.071 -1.9021 -0.2287  1.3549
   43SOL    HW2  129   0.737   1.544   2.190 -2.7614  2.6858  0.7350
   44SOL     OW  130   1.646   2.442   1.318 -0.1354  0.2606  0.1975
   44SOL    HW1  131   1.583   2.423   1.240 -1.7003 -0.5650 -1.6909
   44SOL    HW2  132   1.743   2.413   1.307 -0.9929 -2.4268 -1.0359
   45SOL     OW  133   1.049   0.168   2.483  0.2372  0.1622 -0.1353
   45SOL    HW1  134   1.103   0.249   2.513 -0.0006 -0.1185  0.0139
   45SOL    HW2  135   0.988   0.140   2.559  2.2886 -2.3027  1.7965
   46SOL     OW  136   0.734   2.621   1.943  0.1341  0.6020  0.1776
   46SOL    HW1  137   0.703   2.633   1.845 -0.3479  0.3030  0.6915
   46SOL    HW2  138   0.737   2.708   1.994 -1.6825  4.7774  2.6717
   47SOL     OW  139   0.983   1.965   0.879  0.4445 -0.1499  0.4192
   47SOL    HW1  140   0.937   1.897   0.814  0.3324 -2.8297 -0.8382
   47SOL    HW2  141   0.938   1.974   0.973  2.7339 -0.6667 -0.8768
   48SOL     OW  142   0.978   2.592   1.267 -0.3251  0.6611 -0.3484
   48SOL    HW1  143   1.068   2.634   1.277 -0.8870  0.6593  0.0556
   48SOL    HW2  144   0.922   2.621   1.350  0.3181 -0.9976  2.0970
   49SOL     OW  145   2.811   0.091   2.979  0.1798 -0.0585  0.2485
   49SOL    HW1  146   2.776   0.165   3.033 -2.2932 -3.0657  0.0610
   49SOL    HW2  147   2.868   0.026   3.035 -1.5668  0.8375  0.0259
   50SOL     OW  148   1.533   1.142   0.444  0.0488  0.2402  0.1630
   50SOL    HW1  149   1.527   1.058   0.497  0.4910  2.8682  0.0709
   50SOL    HW2  150   1.439   1.173   0.416  0.7963 -0.3889  2.5713
   51SOL     OW  151   1.925   0.048   0.625 -0.5063  0.1228 -0.6967
   51SOL    HW1  152   1.960   0.090   0.541  2.4423 -0.6577  1.0999
   51SOL    HW2  153   1.998   0.053   0.697 -1.6382 -0.7878  1.0862
   52SOL     OW  154   0.901   1.530   0.230  0.0515 -0.0041 -0.2953
   52SOL    HW1  155   0.957   1.524   0.144  0.4674 -3.7726 -1.0245
   52SOL    HW2  156   0.810   1.576   0.204 -0.8927 -0.2579 -1.6698
   53SOL     OW  157   0.252   0.993   2.597  0.6442 -0.1940 -0.1746
   53SOL    HW1  158   0.290   0.998   2.693  0.8111 -0.5386  0.7938
   53SOL    HW2  159   0.193   1.074   2.578 -1.8714  0.6653  1.0069
   54SOL     OW  160   2.286   1.955   2.916  0.2638  0.4057 -0.7243
   54SOL    HW1  161   2.373   1.936   2.868 -0.6167 -1.6737 -3.9940
   54SOL    HW2  162   2.249   1.874   2.964 -0.1379  2.7783 -1.6611
   55SOL     OW  163   2.406   2.191   1.305  0.3350 -0.2382  0.1956
   55SOL    HW1  164   2.487   2.167   1.363  1.2758  1.5464  0.3410
   55SOL    HW2  165   2.361   2.111   1.265 -1.0321  0.5937 -0.8945
   56SOL     OW  166   1.776   2.957   1.415  0.2803  0.6259  0.5553
   56SOL    HW1  167   1.744   2.939   1.509 -1.0807  0.9896 -0.3549
   56SOL    HW2  168   1.752   2.877   1.352 -2.9479 -1.1725  0.2696
   57SOL     OW  169   1.600   1.504   0.719 -0.2558  0.2763 -0.4257
   57SOL    HW1  170   1.586   1.417   0.774 -1.2093  0.2653  2.0591
   57SOL    HW2  171   1.522   1.510   0.655 -1.6363  1.6536  1.5843
   58SOL     OW  172   2.477   3.058   1.777  0.7353  0.2953 -0.1420
   58SOL    HW1  173   2.499   0.045   1.844  0.0635 -0.4067  0.9116
   58SOL    HW2  174   2.455   0.007   1.688 -1.1301 -0.1632  0.8103
   59SOL     OW  175   1.047   2.788   2.477 -1.0807  0.0754  0.5637
   59SOL    HW1  176   0.989   2.731   2.417 -0.8570  0.6629 -1.7224
   59SOL    HW2  177   0.992   2.819   2.556  1.0541  0.8755 -2.3149
   60SOL     OW  178   0.621   0.237   2.546 -0.0475  0.4056 -0.2851
   60SOL    HW1  179   0.559   0.277   2.616  3.1555 -0.4838 -1.4074
   60SOL    HW2  180   0.697   0.301   2.517 -0.3616  1.0689  1.3366
   61SOL     OW  181   0.845   2.191   0.710 -0.3063  0.4893  0.1485
   61SOL    HW1  182   0.815   2.167   0.617  3.0670 -1.8289 -3.9641
   61SOL    HW2  183   0.910   2.111   0.732  2.6478 -0.7531  0.4966
   62SOL     OW  184   1.138   2.026   2.000  0.1853  0.3333  0.3401
   62SOL    HW1  185   1.197   2.078   2.067 -0.2153  1.3637 -2.3116
   62SOL    HW2  186   1.075   1.958   2.050  1.8207 -2.5020  0.1273
   63SOL     OW  187   1.287   1.687   0.714  0.5291  0.7742 -0.2245
   63SOL    HW1  188   1.187   1.685   0.711  0.9064 -1.5754 -0.6495
   63SOL    HW2  189   1.319   1.601   0.676 -5.0677  1.1027  2.9222
   64SOL     OW  190   1.669   1.448   0.241 -0.6035 -0.4671 -0.1980
   64SOL    HW1  191   1.682   1.381   0.165 -1.4695  1.9281 -0.7061
   64SOL    HW2  192   1.725   1.416   0.323  0.5274  0.0223  4.1192
   65SOL     OW  193   1.540   1.934   2.216 -0.2945  0.2310  0.0374
   65SOL    HW1  194   1.531   1.861   2.143  1.7683 -1.8140 -1.0911
   65SOL    HW2  195   1.631   1.930   2.263 -4.6520 -2.0427  1.0649
   66SOL     OW  196   0.295   0.869   1.302  0.9693  0.0076  0.2566
   66SOL    HW1  197   0.234   0.782   1.298 -2.6902  0.7205 -0.9930
   66SOL    HW2  198   0.340   0.876   1.213 -0.6627 -0.4141 -1.0550
   67SOL     OW  199   2.154   2.555   0.514  0.0768  0.0522 -0.6359
   67SOL    HW1  200   2.057   2.578   0.533 -1.5239 -0.7472  1.1651
   67SOL    HW2  201   2.156   2.505   0.423  0.8957 -0.9520  0.2461
   68SOL     OW  202   2.307   2.524   1.662  0.4546  0.2158  0.1446
   68SOL    HW1  203   2.317   2.608   1.604  0.9268 -1.2197  0.1943
   68SOL    HW2  204   2.379   2.522   1.733 -0.6801  1.3270  2.3859
   69SOL     OW  205   2.418   2.380   2.431 -0.2586  0.1257  0.0940
   69SOL    HW1  206   2.335   2.436   2.441  0.8042  0.2993 -2.1287
   69SOL    HW2  207   2.408   2.306   2.358 -0.6593 -1.6208  0.3202
   70SOL     OW  208   0.141   1.246   2.548 -0.4133  0.5122  0.7238
   70SOL    HW1  209   0.078   1.274   2.621  0.3127  0.0689  1.3412
   70SOL    HW2  210   0.099   1.252   2.453  1.0993 -0.3130 -2.3139
   71SOL     OW  211   0.864   1.239   2.080 -0.0580 -0.1214 -0.6463
   71SOL    HW1  212   0.815   1.317   2.124  0.7009  1.3286  0.2787
   71SOL    HW2  213   0.821   1.204   1.996  0.4555  1.4009 -1.2434
   72SOL     OW  214   2.235   1.314   1.653 -0.3499  0.6039  0.3009
   72SOL    HW1  215   2.169   1.239   1.617 -1.1010  0.8419 -1.6205
   72SOL    HW2  216   2.327   1.268   1.660  2.0057 -3.5350 -1.3162
   73SOL     OW  217   0.697   1.910   2.974 -0.2209 -0.7390 -0.0198
   73SOL    HW1  218   0.780   1.905   3.035 -0.9437  0.2141  1.1977
   73SOL    HW2  219   0.695   1.828   2.910  0.6129 -0.4883 -3.6544
   74SOL     OW  220   1.701   2.786   1.834 -0.4360  0.4961  0.1314
   74SOL    HW1  221   1.747   2.706   1.878 -1.0725  3.4600  0.9748
   74SOL    HW2  222   1.601   2.769   1.835 -0.0497  3.4344  0.0984
   75SOL     OW  223   1.066   2.726   0.617  0.0140  0.1149 -0.2556
   75SOL    HW1  224   1.119   2.678   0.545  0.8943 -0.6990  0.6157
   75SOL    HW2  225   1.095   2.824   0.636  1.5110 -1.6233 -0.2383
   76SOL     OW  226   2.849   2.167   2.806  0.4994 -0.1857  0.6004
   76SOL    HW1  227   2.884   2.239   2.749 -2.8404 -1.4050 -1.7314
   76SOL    HW2  228   2.919   2.093   2.808  0.6764 -0.2129  1.1547
   77SOL     OW  229   0.021   2.515   1.183  0.1899 -0.5585 -0.4038
   77SOL    HW1  230   3.059   2.603   1.188 -1.2883 -0.1067  0.8099
   77SOL    HW2  231   0.109   2.519   1.230 -0.9100  0.4424 -3.6668
   78SOL     OW  232   2.547   1.144   0.341  0.0707  0.2634  0.1750
   78SOL    HW1  233   2.587   1.147   0.247  0.1036 -0.2961  2.8415
   78SOL    HW2  234   2.617   1.117   0.408 -0.8796 -1.7732 -0.7852
   79SOL     OW  235   0.146   1.738   2.865  0.1354  0.6213 -0.2181
   79SOL    HW1  236   0.167   1.645   2.834 -0.8269 -0.6965  0.1239
   79SOL    HW2  237   0.173   1.749   2.964 -0.8094 -2.0616  2.8035
   80SOL     OW  238   1.645   1.521   1.497  0.7184 -0.5897  0.2774
   80SOL    HW1  239   1.665   1.620   1.515 -1.0822  0.7899  1.2345
   80SOL    HW2  240   1.548   1.499   1.475 -0.0235  0.8431 -1.7810
   81SOL     OW  241   1.975   0.953   2.079 -0.0485 -0.6297 -0.6455
   81SOL    HW1  242   1.887   0.989   2.038 -0.1585  4.5164 -0.9166
   81SOL    HW2  243   2.048   1.019   2.051 -0.7357 -0.4540  2.2764
   82SOL     OW  244   1.647   1.282   1.623 -0.2037 -0.3149 -0.4886
   82SOL    HW1  245   1.662   1.370   1.576  1.4635 -0.5022 -1.8896
   82SOL    HW2  246   1.565   1.282   1.677 -0.1033 -1.2201 -3.6482
   83SOL     OW  247   0.283   0.297   3.086  0.0860 -0.4707 -0.2877
   83SOL    HW1  248   0.187   0.287   0.026  0.3534 -2.0996 -2.8035
   83SOL    HW2  249   0.304   0.234   3.010  0.9535 -0.2506  0.6674
   84SOL     OW  250   0.301   1.239   2.859 -0.2164 -0.6724 -0.1292
   84SOL    HW1  251   0.339   1.147   2.839 -0.2428  0.8539  1.0925
   84SOL    HW2  252   0.260   1.242   2.960 -1.4795 -0.2036  3.4873
   85SOL     OW  253   2.234   1.673   1.924 -0.3199 -0.2489 -0.2982
   85SOL    HW1  254   2.330   1.692   1.902 -1.9076  1.3284  0.0898
   85SOL    HW2  255   2.229   1.660   2.024 -0.8697 -0.1361 -0.4387
   86SOL     OW  256   0.437   0.905   1.055  0.0155  0.1251 -0.3126
   86SOL    HW1  257   0.484   0.992   1.027  0.1507  1.4751 -1.2319
   86SOL    HW2  258   0.492   0.825   1.021 -0.5567  0.1326  0.4786
   87SOL     OW  259   2.540   1.991   2.549  0.0814 -0.2879 -0.4695
   87SOL    HW1  260   2.606   2.058   2.510 -0.5730 -1.0579  0.1689
   87SOL    HW2  261   2.535   1.988   2.653  0.0575  0.3132  1.9951
   88SOL     OW  262   0.394   2.799   0.135  0.2209 -0.0145 -0.3732
   88SOL    HW1  263   0.333   2.771   0.215 -2.0522 -0.3260  2.6102
   88SOL    HW2  264   0.473   2.745   0.106 -0.0058  1.0493  0.7303
   89SOL     OW  265   1.635   0.582   0.186  0.3036 -0.0510  0.1909
   89SOL    HW1  266   1.584   0.646   0.125 -0.1254  0.4548  0.4670
   89SOL    HW2  267   1.730   0.564   0.161  0.8978  1.1977  1.6288
   90SOL     OW  268   2.914   1.551   2.253  0.3594  0.9370 -0.0241
   90SOL    HW1  269   2.829   1.493   2.270 -4.4645  0.7980  0.9689
   90SOL    HW2  270   2.982   1.557   2.326  3.3376 -1.3865 -1.6988
   91SOL     OW  271   2.169   2.925   1.324 -0.1108  0.2187 -0.1282
   91SOL    HW1  272   2.104   2.899   1.251  0.7453  0.5395 -2.4902
   91SOL    HW2  273   2.144   3.014   1.368  0.4666  2.6141 -1.1836
   92SOL     OW  274   2.108   1.589   1.067  0.0071  0.8079  0.1146
   92SOL    HW1  275   2.165   1.536   1.005  2.4793 -1.9196 -2.4914
   92SOL    HW2  276   2.156   1.634   1.148  1.0710 -0.5283  0.3395
   93SOL     OW  277   0.247   1.280   0.017  0.2985  0.3960  0.0800
   93SOL    HW1  278   0.239   1.381   0.054 -0.7839  3.9887  1.1269
   93SOL    HW2  279   0.312   1.230   0.074  2.5767 -0.5669 -1.8699
   94SOL     OW  280   1.060   2.657   1.778 -0.8616  0.4290  0.0799
   94SOL    HW1  281   1.027   2.686   1.870  2.0197  1.2052 -0.8898
   94SOL    HW2  282   1.108   2.569   1.777 -2.7538 -3.7132 -2.0472
   95SOL     OW  283   0.157   0.575   0.783  0.0794 -0.0654 -0.2619
   95SOL    HW1  284   0.200   0.666   0.775 -1.0740 -0.9941 -1.2648
   95SOL    HW2  285   0.131   0.555   0.879 -0.3191  3.4793 -0.9459
   96SOL     OW  286   0.047   2.731   1.748 -0.3045  0.2734 -0.1432
   96SOL    HW1  287   0.056   2.832   1.737  1.3242 -0.4597 -1.5889
   96SOL    HW2  288   0.107   2.673   1.684 -0.1871  0.1195  1.5539
   97SOL     OW  289   2.316   0.297   1.404 -0.8128 -0.1458 -0.2865
   97SOL    HW1  290   2.293   0.385   1.359 -1.0602  0.0081 -0.5056
   97SOL    HW2  291   2.306   0.230   1.328 -0.3780  0.1650 -0.6671
   98SOL     OW  292   3.050   2.376   1.582  1.0099 -0.1684 -0.2794
   98SOL    HW1  293   0.028   2.391   1.510  1.3614  0.8433  0.6654
   98SOL    HW2  294   2.961   2.401   1.550 -2.2431  0.6094  0.0735
   99SOL     OW  295   0.130   0.393   1.375 -0.2782  0.4047  0.1990
   99SOL    HW1  296   0.167   0.305   1.408  1.6102 -0.5279  0.3322
   99SOL    HW2  297   0.072   0.438   1.445 -0.6320  1.7672  0.4181
  100SOL     OW  298   2.332   0.485   2.537  0.2893 -0.2993  0.1718
  100SOL    HW1  299   2.246   0.473   2.486  0.1566 -0.0819 -1.4371
  100SOL    HW2  300   2.324   0.440   2.628 -0.7508 -0.2368  1.7935
  101SOL     OW  301   0.432   0.033   2.234 -0.2749  0.3012  0.2742
  101SOL    HW1  302   0.450   0.116   2.183 -0.8889 -4.6979  0.1169
  101SOL    HW2  303   0.519   3.069   2.249 -0.5249 -0.4060  1.5711
  102SOL     OW  304   0.547   0.306   1.649 -0.0859 -0.3544  0.4012
  102SOL    HW1  305   0.507   0.385   1.596 -0.8487  1.2372 -0.5892
  102SOL    HW2  306   0.643   0.334   1.662 -0.9863 -2.2027  2.1563
  103SOL     OW  307   1.288   0.909   2.489 -0.1723  0.2127 -0.1028
  103SOL    HW1  308   1.266   0.911   2.389 -1.3431  0.2002  0.5820
  103SOL    HW2  309   1.289   0.810   2.516 -0.1015  0.6890  2.5750
  104SOL     OW  310   0.187   0.557   1.890 -0.2846  0.0118  0.9369
  104SOL    HW1  311   0.122   0.631   1.919 -3.0727 -1.4563 -2.0132
  104SOL    HW2  312   0.228   0.515   1.975 -2.4464 -0.1715  2.7957
  105SOL     OW  313   2.248   1.940   1.597  0.7989  0.2586  0.1511
  105SOL    HW1  314   2.187   2.015   1.569  1.7395  2.9519  4.3682
  105SOL    HW2  315   2.190   1.872   1.646  0.1428 -0.5625 -0.6706
  106SOL     OW  316   1.548   0.234   0.539  0.0645  0.2641  0.5814
  106SOL    HW1  317   1.448   0.230   0.567 -1.6572 -1.7048  0.3296
  106SOL    HW2  318   1.559   0.271   0.445  0.1824 -1.3111  1.2411
  107SOL     OW  319   2.297   1.987   1.153  0.2131 -0.2039 -0.1843
  107SOL    HW1  320   2.253   2.048   1.084 -0.5129 -2.2248 -3.3338
  107SOL    HW2  321   2.372   1.939   1.104 -0.5489  3.1942 -0.4200
  108SOL     OW  322   0.347   2.370   1.089 -0.1388 -0.0896 -0.0412
  108SOL    HW1  323   0.316   2.427   1.007 -1.1448 -2.6698  0.1487
  108SOL    HW2  324   0.291   2.398   1.169  0.2914  1.5545  2.9464
  109SOL     OW  325   1.495   2.698   0.915  0.2704 -0.4801  0.0083
  109SOL    HW1  326   1.501   2.618   0.859 -2.8505  1.4205  2.5865
  109SOL    HW2  327   1.463   2.676   1.008  0.2263  1.6689  0.2634
  110SOL     OW  328   1.896   1.680   0.942 -0.3984 -0.0781 -0.1785
  110SOL    HW1  329   1.974   1.658   1.010  2.7209  1.4664  0.4234
  110SOL    HW2  330   1.818   1.630   0.977  1.2745 -0.7866  1.2498
  111SOL     OW  331   1.472   2.574   1.920 -0.3298 -0.5321 -0.0859
  111SOL    HW1  332   1.533   2.497   1.897 -1.0782  0.2001 -2.5457
  111SOL    HW2  333   1.516   2.640   1.986  3.3655  0.2808 -0.1285
  112SOL     OW  334   1.927   2.365   3.004  0.2430 -0.2776  0.0318
  112SOL    HW1  335   1.990   2.287   3.019  0.0467  0.9946  0.4212
  112SOL    HW2  336   1.972   2.437   2.946 -0.3221 -1.2703 -1.2039
  113SOL     OW  337   2.061   1.768   1.740  0.1663  0.1635  0.2313
  113SOL    HW1  338   2.119   1.720   1.811 -1.9167  2.4610 -1.9264
  113SOL    HW2  339   2.052   1.710   1.657  2.7768 -0.8843  1.5894
  114SOL     OW  340   2.964   1.245   1.945 -0.3617  0.1450  0.4971
  114SOL    HW1  341   2.883   1.186   1.969  1.3435 -0.6269  0.3681
  114SOL    HW2  342   2.952   1.295   1.857  0.5671  1.1797 -1.2834
  115SOL     OW  343   2.903   0.942   0.006  0.3869  0.1595 -0.4505
  115SOL    HW1  344   3.002   0.972   3.085  3.2058 -0.2760  0.5639
  115SOL    HW2  345   2.887   0.917   0.103 -1.5639  1.0640 -3.2523
  116SOL     OW  346   2.763   0.710   3.057  0.2311 -0.3413 -0.0897
  116SOL    HW1  347   2.790   0.806   3.033  0.7076 -0.3561 -0.0602
  116SOL    HW2  348   2.677   0.676   3.005 -0.7394  1.5399  1.5172
  117SOL     OW  349   2.739   2.214   3.079  0.5467 -0.7353 -0.0504
  117SOL    HW1  350   2.771   2.306   3.044 -1.3568  1.4483  1.3177
  117SOL    HW2  351   2.701   2.159   2.999 -1.6336 -0.0588 -2.1057
  118SOL     OW  352   0.501   2.120   2.628 -0.4454  0.1902 -0.2913
  118SOL    HW1  353   0.563   2.197   2.654 -0.6868 -1.1887  0.6610
  118SOL    HW2  354   0.464   2.074   2.712 -0.5839 -0.9498 -3.6207
  119SOL     OW  355   0.754   2.653   0.379  0.4713  0.0384  0.0221
  119SOL    HW1  356   0.735   2.557   0.415 -2.4150 -0.8528 -0.3515
  119SOL    HW2  357   0.737   2.716   0.461 -1.3121 -2.3114  1.6049
  120SOL     OW  358   1.270   0.869   0.086  0.0141  0.0837 -0.3595
  120SOL    HW1  359   1.227   0.855   0.179 -1.0416  0.6811  1.1309
  120SOL    HW2  360   1.343   0.798   0.063 -0.8893  0.4111  0.5557
  121SOL     OW  361   1.441   2.961   0.795 -0.9349  0.4134  0.1816
  121SOL    HW1  362   1.477   2.865   0.813 -0.1000 -4.8888 -1.0399
  121SOL    HW2  363   1.501   3.009   0.728  0.2325  1.4201 -0.6878
  122SOL     OW  364   2.502   1.397   2.180 -0.7897 -0.8560  0.4554
  122SOL    HW1  365   2.518   1.347   2.092 -3.3113 -2.2409  0.2963
  122SOL    HW2  366   2.493   1.496   2.175  0.0087 -0.9085  0.0099
  123SOL     OW  367   1.282   1.100   1.364 -0.4123 -0.1470  0.0268
  123SOL    HW1  368   1.196   1.130   1.407  2.8104  2.1995 -0.7464
  123SOL    HW2  369   1.282   0.999   1.347 -0.5809  1.0511 -0.6912
  124SOL     OW  370   0.687   0.570   0.060  0.3124 -0.6544  0.5515
  124SOL    HW1  371   0.646   0.480   0.030  1.0251 -2.0252 -1.2962
  124SOL    HW2  372   0.622   0.641   0.021 -0.5082  2.1439 -0.5458
  125SOL     OW  373   0.741   0.347   0.433 -0.0587 -0.2227 -0.6281
  125SOL    HW1  374   0.687   0.270   0.392 -1.1427 -0.7131  3.0132
  125SOL    HW2  375   0.680   0.429   0.432  0.0612  0.4825  0.1367
  126SOL     OW  376   0.152   1.569   0.550  0.3628 -0.3120  0.6335
  126SOL    HW1  377   0.168   1.660   0.510 -2.4029 -0.2438  1.4535
  126SOL    HW2  378   0.198   1.555   0.636 -0.7334 -1.9631 -0.2323
  127SOL     OW  379   0.677   2.774   1.716  0.3892  0.4613 -0.4894
  127SOL    HW1  380   0.582   2.780   1.673 -1.5322  0.6566  0.2561
  127SOL    HW2  381   0.713   2.863   1.755 -2.3040 -1.3036  0.5133
  128SOL     OW  382   1.160   1.741   0.270  0.0759  0.2867 -0.2735
  128SOL    HW1  383   1.162   1.645   0.311 -1.8020 -2.0957  3.1398
  128SOL    HW2  384   1.255   1.778   0.268 -1.3091  0.6610 -0.2625
  129SOL     OW  385   1.843   1.499   1.880  0.1680 -0.1783 -0.4454
  129SOL    HW1  386   1.768   1.561   1.856  1.7664  1.4205  0.2647
  129SOL    HW2  387   1.882   1.459   1.793 -0.4082 -0.3629  0.0842
  130SOL     OW  388   1.507   2.138   1.389 -0.1255  0.3588  0.6275
  130SOL    HW1  389   1.603   2.167   1.361  1.7121  1.7162  1.6186
  130SOL    HW2  390   1.446   2.109   1.309 -0.9092 -0.3999 -1.7986
  131SOL     OW  391   0.106   2.238   1.958 -0.0176 -0.1708  0.1302
  131SOL    HW1  392   0.047   2.310   1.916  1.7019 -0.0017 -1.8559
  131SOL    HW2  393   0.201   2.266   1.975 -2.1101 -2.9652  2.0560
  132SOL     OW  394   2.693   1.823   0.770 -0.2952  0.2793 -0.1945
  132SOL    HW1  395   2.792   1.828   0.748 -2.1372 -0.5630  0.7488
  132SOL    HW2  396   2.654   1.920   0.785  0.3191 -0.7999 -0.6119
  133SOL     OW  397   0.599   0.812   1.545 -0.5124 -0.1488 -0.5375
  133SOL    HW1  398   0.588   0.781   1.449  0.4286 -0.8311 -0.9873
  133SOL    HW2  399   0.681   0.766   1.593  0.3511 -0.2008 -2.2412
  134SOL     OW  400   2.300   1.689   0.102  0.2527  0.3393  0.2654
  134SOL    HW1  401   2.266   1.728   0.193 -0.6837  1.7123  1.0296
  134SOL    HW2  402   2.242   1.730   0.028 -0.1805 -0.8066 -0.0422
  135SOL     OW  403   1.807   1.116   2.449 -0.2280 -0.4059 -0.4348
  135SOL    HW1  404   1.749   1.055   2.505 -1.6065  1.4773 -0.3276
  135SOL    HW2  405   1.900   1.117   2.492 -0.0045  1.1959 -0.1174
  136SOL     OW  406   2.894   1.725   1.395  0.2214 -0.6874  0.0618
  136SOL    HW1  407   2.917   1.627   1.395  0.1194 -1.4296  0.6510
  136SOL    HW2  408   2.814   1.726   1.458 -0.0550 -1.1956  1.2776
  137SOL     OW  409   2.504   1.875   0.418 -0.4588  0.4140  0.2305
  137SOL    HW1  410   2.559   1.918   0.345  0.1874  0.3148  2.2147
  137SOL    HW2  411   2.479   1.937   0.493 -0.3510  0.4681 -1.9787
  138SOL     OW  412   2.791   0.730   0.770  0.1124  0.6055  0.2457
  138SOL    HW1  413   2.826   0.731   0.673 -0.6348 -3.8750  0.8257
  138SOL    HW2  414   2.815   0.639   0.810 -1.1450 -1.2841  2.2310
  139SOL     OW  415   0.053   0.028   0.205  0.6119  0.6823  0.3058
  139SOL    HW1  416   3.088   0.111   0.226 -4.2741 -3.7762 -1.4979
  139SOL    HW2  417   0.082   3.068   0.289 -0.2160  0.9087  0.4013
  140SOL     OW  418   0.816   1.113   1.468  0.2715 -0.0998 -0.1015
  140SOL    HW1  419   0.748   1.163   1.526  0.0318  1.0199  1.2579
  140SOL    HW2  420   0.771   1.086   1.383  0.2564  0.4215  0.4747
  141SOL     OW  421   1.405   1.458   1.030 -0.4320 -0.3493  0.6959
  141SOL    HW1  422   1.350   1.393   1.087  1.9678  2.3531 -0.8953
  141SOL    HW2  423   1.367   1.552   1.033 -0.0474 -1.5780  1.7288
  142SOL     OW  424   1.261   0.645   1.120 -0.5296 -0.4425  0.0849
  142SOL    HW1  425   1.247   0.664   1.024  0.8703  0.5410 -0.3319
  142SOL    HW2  426   1.206   0.571   1.155  1.7657 -2.3087 -0.4207
  143SOL     OW  427   0.519   1.145   2.311 -0.1050 -0.2567  0.4104
  143SOL    HW1  428   0.528   1.192   2.402  0.1133 -2.4775  1.1531
  143SOL    HW2  429   0.526   1.209   2.232 -0.5621 -0.0036  1.3974
  144SOL     OW  430   2.440   3.071   0.450 -0.2799 -0.4535 -1.0544
  144SOL    HW1  431   2.527   0.032   0.438 -0.4528  0.2198 -3.3717
  144SOL    HW2  432   2.449   2.979   0.408 -0.3956  1.6925  2.3802
  145SOL     OW  433   2.235   0.402   2.779 -0.2381  0.0418 -0.0544
  145SOL    HW1  434   2.281   0.432   2.864 -0.4386 -1.6735 -0.0051
  145SOL    HW2  435   2.137   0.395   2.797  1.4794  1.4927  0.2381
  146SOL     OW  436   2.860   2.968   0.466  0.3471  0.2239 -0.2812
  146SOL    HW1  437   2.879   2.871   0.432  0.5695  0.1701 -0.1252
  146SOL    HW2  438   2.802   2.969   0.547  3.7722  0.0957 -2.3214
  147SOL     OW  439   0.980   1.268   2.770  0.3837  0.1316  0.3818
  147SOL    HW1  440   1.039   1.341   2.738 -0.3806 -4.1164  0.4829
  147SOL    HW2  441   1.001   1.188   2.713 -0.7239  0.2876  0.7349
  148SOL     OW  442   1.474   0.058   0.036  0.4985 -0.5250  0.7714
  148SOL    HW1  443   1.456   0.012   0.124  1.6987 -1.3550 -0.2335
  148SOL    HW2  444   1.401   0.128   0.013  0.0036  2.4288 -1.0745
  149SOL     OW  445   1.428   0.088   1.969  0.0633 -0.1751 -0.7960
  149SOL    HW1  446   1.479   0.045   2.046  1.8656  1.5099 -0.6907
  149SOL    HW2  447   1.333   0.124   1.997 -0.9063  1.9209  2.5850
  150SOL     OW  448   2.272   3.026   0.010 -0.0639 -0.2569 -0.7550
  150SOL    HW1  449   2.254   2.931   0.042 -0.0879  1.9819 -0.5868
  150SOL    HW2  450   2.363   3.025   3.056  0.1147 -3.7523  1.3523
  151SOL     OW  451   0.539   1.526   3.088 -0.7317 -0.4518 -0.0728
  151SOL    HW1  452   0.437   1.521   0.018  1.1850  1.0771  2.0099
  151SOL    HW2  453   0.575   1.435   3.064  0.3932  0.1960  2.4403
  152SOL     OW  454   0.301   0.162   1.263 -0.5450 -0.0013 -0.3854
  152SOL    HW1  455   0.376   0.174   1.194  0.9177  0.9376 -0.3497
  152SOL    HW2  456   0.344   0.137   1.353  0.2219  2.2616 -1.0514
  153SOL     OW  457   2.627   2.715   1.985 -0.4961 -0.0336  0.1159
  153SOL    HW1  458   2.717   2.731   1.940 -0.9099  2.0014  0.9072
  153SOL    HW2  459   2.601   2.791   2.042  0.6152 -0.2681 -0.0714
  154SOL     OW  460   2.432   2.858   2.539 -0.4185 -0.3621 -0.3642
  154SOL    HW1  461   2.510   2.793   2.521  0.8806  0.4011  0.6308
  154SOL    HW2  462   2.358   2.843   2.472 -1.8619  0.8704  2.4590
  155SOL     OW  463   0.230   1.079   0.628  0.3987  0.5313  0.0095
  155SOL    HW1  464   0.160   1.153   0.646 -1.7987  2.9645  0.0550
  155SOL    HW2  465   0.325   1.111   0.629  3.7201 -1.3243 -1.1506
  156SOL     OW  466   2.542   1.679   0.605  0.1196  0.4521  0.4619
  156SOL    HW1  467   2.597   1.722   0.676  1.1835  0.8218 -0.1814
  156SOL    HW2  468   2.519   1.745   0.532  2.6633  1.3046  1.3243
  157SOL     OW  469   0.958   0.344   0.279  0.1771 -0.2570  0.0114
  157SOL    HW1  470   0.892   0.359   0.357  0.4344  1.4607  0.5911
  157SOL    HW2  471   1.052   0.358   0.306 -0.7959  1.6426 -0.4813
  158SOL     OW  472   1.684   0.867   1.026 -0.3776  0.3314  0.1677
  158SOL    HW1  473   1.651   0.954   1.064 -0.6194  2.3885 -0.0140
  158SOL    HW2  474   1.610   0.799   1.031 -1.9258 -0.9822 -1.4088
  159SOL     OW  475   0.073   0.678   0.242 -0.0214  0.2666  0.6002
  159SOL    HW1  476   0.087   0.648   0.335  2.1178  1.8327 -0.4842
  159SOL    HW2  477   0.143   0.641   0.178 -0.1537  0.6733  1.2090
  160SOL     OW  478   2.269   2.089   1.994 -0.2739  0.0221  0.1631
  160SOL    HW1  479   2.293   2.047   2.084  0.5678 -0.7290 -1.1532
  160SOL    HW2  480   2.207   2.172   1.995  0.9932  0.0969  2.4598
  161SOL     OW  481   0.411   1.002   2.841 -0.2462 -0.4694  0.4045
  161SOL    HW1  482   0.510   1.012   2.845 -0.6563  0.2936  2.4216
  161SOL    HW2  483   0.375   0.961   2.925 -0.5465  1.8042  1.0701
  162SOL     OW  484   0.468   0.577   1.839  0.1435  0.3374  0.1609
  162SOL    HW1  485   0.470   0.566   1.736  0.7657 -0.0889 -1.6916
  162SOL    HW2  486   0.370   0.563   1.871 -0.7131 -1.2915 -0.2587
  163SOL     OW  487   2.787   3.048   2.735 -0.1601 -0.2558  0.7674
  163SOL    HW1  488   2.781   0.019   2.817 -0.1492 -0.5278 -1.0178
  163SOL    HW2  489   2.737   3.085   2.654 -1.3715 -1.2148 -1.2409
  164SOL     OW  490   2.201   2.217   0.157 -0.2145  0.3372 -0.2575
  164SOL    HW1  491   2.197   2.179   0.061  0.2887 -1.6683 -0.4867
  164SOL    HW2  492   2.297   2.207   0.196  1.7277 -1.2350  2.6441
  165SOL     OW  493   0.460   0.122   1.050 -0.2558  0.0342  0.3343
  165SOL    HW1  494   0.560   0.147   1.032  5.2556 -1.6167  3.0422
  165SOL    HW2  495   0.455   0.028   1.089  0.7347  0.0916 -0.4811
  166SOL     OW  496   2.437   0.443   0.405 -0.2075  0.1977  0.3442
  166SOL    HW1  497   2.530   0.450   0.362 -3.7849 -0.1861 -0.1316
  166SOL    HW2  498   2.440   0.436   0.504 -1.0627 -0.5371 -1.3229
  167SOL     OW  499   2.340   0.781   3.074  0.2351 -0.3649 -0.1471
  167SOL    HW1  500   2.427   0.827   3.084 -3.0465 -2.2345 -1.1563
  167SOL    HW2  501   2.320   0.719   0.062  0.6846  1.8766  0.9388
  168SOL     OW  502   1.283   2.848   2.240  0.0021 -0.3047  0.2335
  168SOL    HW1  503   1.245   2.942   2.227  1.3621  2.3278  0.7401
  168SOL    HW2  504   1.305   2.825   2.335 -0.0492 -0.6023  0.7020
  169SOL     OW  505   0.411   1.888   0.709 -0.2534  0.2280 -0.5864
  169SOL    HW1  506   0.377   1.981   0.699 -0.3001 -0.1388 -0.3664
  169SOL    HW2  507   0.510   1.889   0.726 -0.1208 -0.7918  1.0753
  170SOL     OW  508   2.939   0.900   1.237  0.1179  0.5467  0.7124
  170SOL    HW1  509   2.859   0.847   1.267  1.3694 -1.5682  1.1087
  170SOL    HW2  510   2.929   0.920   1.139 -2.6643  1.4052  0.2747
  171SOL     OW  511   2.727   1.364   2.327  0.1853  0.1821  0.7962
  171SOL    HW1  512   2.771   1.275   2.310  0.4775 -0.1884  0.4202
  171SOL    HW2  513   2.640   1.365   2.275  3.5755 -1.8586  1.0917
  172SOL     OW  514   0.944   1.884   1.331 -0.1802 -0.1568 -0.5221
  172SOL    HW1  515   1.016   1.955   1.349  0.6061 -1.8168 -1.3846
  172SOL    HW2  516   0.922   1.832   1.416  1.4013  0.0126  0.8273
  173SOL     OW  517   1.730   1.914   3.006  0.7060 -0.6416  0.3287
  173SOL    HW1  518   1.688   1.828   3.039  3.4682 -1.6161 -1.3143
  173SOL    HW2  519   1.782   1.958   3.082  0.0010 -0.9662  2.3212
  174SOL     OW  520   1.735   0.722   2.783 -0.2484 -0.3229  0.6651
  174SOL    HW1  521   1.819   0.778   2.754  2.4267  0.0080 -0.6891
  174SOL    HW2  522   1.762   0.662   2.857 -2.7600 -0.4515 -2.2398
  175SOL     OW  523   0.786   1.701   1.208  0.0797 -0.4811  0.0524
  175SOL    HW1  524   0.749   1.640   1.279  1.0020 -0.2947  1.0229
  175SOL    HW2  525   0.845   1.774   1.244 -0.4644 -0.5238  1.0569
  176SOL     OW  526   0.949   3.082   0.286 -0.2105  0.1234  0.0505
  176SOL    HW1  527   0.879   3.066   0.354  2.0731 -1.2655 -2.8196
  176SOL    HW2  528   0.944   0.089   0.246 -0.5521  1.3232 -0.1960
  177SOL     OW  529   0.141   1.393   0.332 -0.3407 -0.5993 -1.0925
  177SOL    HW1  530   0.132   1.447   0.420 -0.2848  1.2466  0.8512
  177SOL    HW2  531   0.233   1.348   0.320  1.8799 -0.4818  0.0283
  178SOL     OW  532   2.948   2.325   2.591  0.0454  0.0140 -0.7070
  178SOL    HW1  533   2.983   2.404   2.633 -0.9339 -1.4053  0.2227
  178SOL    HW2  534   3.022   2.258   2.570  0.0900  1.8180 -3.2656
  179SOL     OW  535   2.632   2.841   2.791  0.4672 -0.6108 -0.3978
  179SOL    HW1  536   2.566   2.845   2.717  1.6857 -1.3325  1.7680
  179SOL    HW2  537   2.713   2.901   2.777  2.3207 -0.5553 -3.0175
  180SOL     OW  538   2.216   0.370   0.805 -0.2134  0.0148 -0.1933
  180SOL    HW1  539   2.215   0.397   0.904  1.1081 -1.4742  0.3542
  180SOL    HW2  540   2.285   0.419   0.754 -1.4298  2.4213  0.1591
  181SOL     OW  541   2.731   0.357   2.596  0.1689 -0.3389  0.3972
  181SOL    HW1  542   2.750   0.383   2.500 -0.5162 -1.3827  0.8566
  181SOL    HW2  543   2.675   0.271   2.600  1.7235 -0.1627 -0.0955
  182SOL     OW  544   2.295   2.174   2.284  0.1273  0.2867  0.4739
  182SOL    HW1  545   2.276   2.077   2.312 -0.3464  0.6791 -1.0409
  182SOL    HW2  546   2.207   2.216   2.258  0.7014  1.9315  0.1950
  183SOL     OW  547   2.375   0.541   1.873  0.0748 -0.0798  0.6873
  183SOL    HW1  548   2.450   0.547   1.944 -1.7726 -0.8731 -1.0565
  183SOL    HW2  549   2.411   0.567   1.781  1.4367  1.2419 -3.0202
  184SOL     OW  550   2.868   1.551   0.559 -0.1847 -0.1969  0.7520
  184SOL    HW1  551   2.927   1.553   0.642  0.1151 -2.8327 -1.1760
  184SOL    HW2  552   2.832   1.646   0.533 -0.0192 -0.2228 -1.0582
  185SOL     OW  553   2.862   0.270   0.561 -0.1331  0.2812 -0.4219
  185SOL    HW1  554   2.915   0.188   0.597  3.4431 -2.2748  0.7976
  185SOL    HW2  555   2.793   0.239   0.490  1.4039 -1.0834 -1.1717
  186SOL     OW  556   2.192   2.687   2.832 -0.2728 -0.1369 -0.5179
  186SOL    HW1  557   2.137   2.730   2.909  0.1460  1.4476  1.1631
  186SOL    HW2  558   2.247   2.762   2.793 -1.7857 -2.1567  1.3697
  187SOL     OW  559   0.392   1.610   0.733  0.7986  0.0435  0.9887
  187SOL    HW1  560   0.353   1.592   0.826 -1.3377 -1.2559  0.8173
  187SOL    HW2  561   0.416   1.710   0.721 -0.0770 -1.1706  0.1308
  188SOL     OW  562   1.863   1.529   0.713 -0.2357 -0.1622  0.3325
  188SOL    HW1  563   1.759   1.518   0.712  0.0481  0.9822 -0.9481
  188SOL    HW2  564   1.894   1.605   0.771 -0.3475 -0.3760 -0.8675
  189SOL     OW  565   2.867   1.267   2.949  0.0839 -0.1466 -0.2427
  189SOL    HW1  566   2.929   1.221   2.883 -2.8740  3.5950 -1.4812
  189SOL    HW2  567   2.783   1.289   2.896  0.4828 -1.4926  0.6490
  190SOL     OW  568   2.498   0.428   2.317  0.0977  0.2398  0.2706
  190SOL    HW1  569   2.429   0.455   2.389  0.4502 -0.3661  1.2227
  190SOL    HW2  570   2.481   0.332   2.288 -1.6037 -1.2856 -1.4143
  191SOL     OW  571   1.033   0.341   2.250 -0.5739  0.4521  0.2817
  191SOL    HW1  572   1.036   0.264   2.314  3.0334  2.1807 -0.6262
  191SOL    HW2  573   1.055   0.425   2.303 -0.1582 -3.8861  1.3620
  192SOL     OW  574   1.263   1.727   1.842 -0.1356  0.0532  0.5356
  192SOL    HW1  575   1.232   1.684   1.754 -2.9929 -0.2155 -1.9235
  192SOL    HW2  576   1.275   1.829   1.831 -2.1369  1.8676  0.9649
  193SOL     OW  577   1.422   2.598   1.169 -0.0178 -0.0366 -0.1167
  193SOL    HW1  578   1.427   2.607   1.274  2.8896  0.0609 -1.9625
  193SOL    HW2  579   1.334   2.551   1.130 -1.7184  2.0303 -1.3684
  194SOL     OW  580   1.051   1.607   1.996 -0.0104 -0.1201 -0.0344
  194SOL    HW1  581   1.053   1.508   1.982  0.7074  1.6285 -0.7713
  194SOL    HW2  582   1.142   1.650   1.978  1.4993  0.2963  0.4461
  195SOL     OW  583   1.988   0.452   0.676  0.2691  0.0833  0.0701
  195SOL    HW1  584   2.049   0.451   0.758  0.9639  0.5987 -0.1322
  195SOL    HW2  585   2.019   0.380   0.609  0.0138  0.5344 -1.7819
  196SOL     OW  586   1.314   1.613   2.270  0.3471 -0.0760  0.4007
  196SOL    HW1  587   1.386   1.607   2.343  2.5414  0.0435  2.3810
  196SOL    HW2  588   1.221   1.573   2.300 -0.4459 -2.2330 -0.3040
  197SOL     OW  589   0.108   0.150   1.899  0.0041 -0.8515  0.3358
  197SOL    HW1  590   0.070   0.128   1.993 -2.7767 -0.4586  1.5933
  197SOL    HW2  591   0.209   0.163   1.906  0.9838  1.3857 -2.4751
  198SOL     OW  592   0.141   1.142   0.969 -0.0314  0.3580  0.6024
  198SOL    HW1  593   0.133   1.043   1.001  0.3971 -0.1137  1.1823
  198SOL    HW2  594   0.051   1.184   0.939  1.2533  0.6555 -2.5287
  199SOL     OW  595   0.351   2.504   0.865 -0.2967  0.7176 -0.3224
  199SOL    HW1  596   0.365   2.515   0.768  2.1631  0.8387  1.2208
  199SOL    HW2  597   0.401   2.574   0.919  0.8428 -1.7510 -1.1204
  200SOL     OW  598   1.800   1.557   2.910  0.6576 -0.0658 -0.3139
  200SOL    HW1  599   1.766   1.572   3.004 -0.8022 -1.3760  0.4797
  200SOL    HW2  600   1.812   1.461   2.881  0.4266 -1.2796 -2.3044
  201SOL     OW  601   0.365   2.382   1.717  0.1697  0.1575  0.6940
  201SOL    HW1  602   0.467   2.356   1.708  1.8570  0.3606 -1.8721
  201SOL    HW2  603   0.300   2.307   1.685  0.3743 -3.3039  0.4325
  202SOL     OW  604   0.957   2.730   3.029 -0.7125 -0.3596 -0.3396
  202SOL    HW1  605   1.026   2.653   3.040 -1.5206 -0.4094 -0.2897
  202SOL    HW2  606   0.990   2.825   3.053 -1.5905 -1.2184  1.2485
  203SOL     OW  607   1.386   0.476   2.013 -0.0154 -0.6042 -0.1247
  203SOL    HW1  608   1.486   0.483   2.010 -0.1797 -1.0119 -3.8046
  203SOL    HW2  609   1.355   0.568   2.043  2.3441 -0.3779 -1.7312
  204SOL     OW  610   0.698   1.030   1.245  0.3920 -0.4227  0.0797
  204SOL    HW1  611   0.678   0.927   1.260 -0.8956 -0.2415 -0.3676
  204SOL    HW2  612   0.653   1.066   1.162  2.0148 -0.7072  0.7090
  205SOL     OW  613   2.123   1.084   2.544  0.2826 -0.5548  0.7895
  205SOL    HW1  614   2.224   1.101   2.550 -1.3549 -0.4268  1.7317
  205SOL    HW2  615   2.095   1.060   2.449 -2.4406 -1.2598  0.0596
  206SOL     OW  616   0.469   2.032   2.891  0.0018 -0.3574 -0.6085
  206SOL    HW1  617   0.395   1.997   2.949  3.1335  0.7459 -0.9918
  206SOL    HW2  618   0.560   1.991   2.920  0.7887  2.6358  0.8396
  207SOL     OW  619   0.387   0.152   1.862 -0.1190  0.2176 -0.1978
  207SOL    HW1  620   0.410   0.205   1.776 -1.5289 -1.4577 -0.6164
  207SOL    HW2  621   0.457   0.082   1.887  2.4005 -0.5741 -0.4608
  208SOL     OW  622   0.536   2.461   1.486  0.1728 -0.0781  0.2346
  208SOL    HW1  623   0.596   2.381   1.478  1.3704 -2.0458 -0.1709
  208SOL    HW2  624   0.522   2.487   1.583  1.2301 -1.0765  0.0670
  209SOL     OW  625   1.320   2.663   2.784 -0.3493 -0.0517  0.5823
  209SOL    HW1  626   1.250   2.603   2.818 -0.6227 -0.4753 -0.0380
  209SOL    HW2  627   1.303   2.762   2.815  2.1289  3.3599  2.7515
  210SOL     OW  628   2.673   1.426   1.724 -0.0412 -0.2993 -0.1379
  210SOL    HW1  629   2.776   1.423   1.746  2.3163 -1.5616 -1.4271
  210SOL    HW2  630   2.639   1.515   1.687 -0.6384  1.0195  0.0338
  211SOL     OW  631   1.277   0.168   1.660 -0.2561 -0.0008  0.4163
  211SOL    HW1  632   1.354   0.234   1.672 -1.5225 -1.8878  1.5509
  211SOL    HW2  633   1.284   0.119   1.573  1.1924 -0.0228 -0.5603
  212SOL     OW  634   0.957   2.301   1.623  0.0160  0.1352 -0.2286
  212SOL    HW1  635   0.902   2.387   1.620  0.2426 -0.3842 -2.5356
  212SOL    HW2  636   0.999   2.283   1.712 -1.5958  2.5492  0.6291
  213SOL     OW  637   2.579   0.516   2.063  0.2421 -0.1519 -0.1439
  213SOL    HW1  638   2.664   0.461   2.067  0.2536  0.4905  0.9226
  213SOL    HW2  639   2.533   0.520   2.155  0.9316  0.9374 -1.3338
  214SOL     OW  640   0.838   1.881   1.793 -0.0391  0.3121  0.2506
  214SOL    HW1  641   0.911   1.928   1.741 -0.3290 -0.7673  0.6983
  214SOL    HW2  642   0.793   1.953   1.850  0.4824  1.3505 -0.7465
  215SOL     OW  643   2.602   2.053   0.879 -0.3701 -0.5774 -0.3299
  215SOL    HW1  644   2.538   2.132   0.901 -0.8908  2.5900  1.6910
  215SOL    HW2  645   2.630   1.997   0.967  0.6618 -4.7370  3.4534
  216SOL     OW  646   2.551   0.939   1.209 -0.0411  0.4553  0.2506
  216SOL    HW1  647   2.596   0.861   1.260  0.7826  2.2816 -1.3753
  216SOL    HW2  648   2.457   0.911   1.188 -1.9618 -1.1269  3.1786
  217SOL     OW  649   2.456   0.124   1.540 -0.4348 -0.2386  0.3265
  217SOL    HW1  650   2.408   0.200   1.491  0.1157  1.5219 -3.7762
  217SOL    HW2  651   2.470   0.047   1.474 -1.6234  0.4766  1.9646
  218SOL     OW  652   1.533   2.307   1.092 -0.5090  0.4950 -0.1045
  218SOL    HW1  653   1.602   2.239   1.053  1.2827 -0.6399  2.0439
  218SOL    HW2  654   1.513   2.374   1.016  1.3170  1.0204  1.9031
  219SOL     OW  655   1.712   2.134   0.190 -0.0274 -0.2956 -0.1135
  219SOL    HW1  656   1.751   2.212   0.243 -0.0210  1.0723  0.5421
  219SOL    HW2  657   1.650   2.175   0.117 -0.5338  0.3516 -0.4705
  220SOL     OW  658   1.654   2.420   2.973  0.2957 -0.0368 -0.1213
  220SOL    HW1  659   1.631   2.450   2.878 -0.2583 -0.5480  2.4841
  220SOL    HW2  660   1.752   2.386   2.978  0.5661  0.7975  0.9687
  221SOL     OW  661   3.003   2.136   0.742 -0.1849  0.2354  0.0213
  221SOL    HW1  662   3.071   2.183   0.678 -0.5658 -0.0297 -2.9821
  221SOL    HW2  663   3.026   2.141   0.843  1.5603  0.6122  1.2254
  222SOL     OW  664   1.819   2.561   0.854 -0.4519  0.1380 -0.7910
  222SOL    HW1  665   1.847   2.581   0.763  0.6669  2.1608  0.8997
  222SOL    HW2  666   1.757   2.635   0.891 -0.9339  3.8385  1.9400
  223SOL     OW  667   0.382   2.668   2.271 -0.2199  0.2516  0.2190
  223SOL    HW1  668   0.466   2.723   2.282 -1.7832 -2.9135  1.0706
  223SOL    HW2  669   0.391   2.579   2.321  0.7046 -3.4788  1.3074
  224SOL     OW  670   2.755   2.105   1.109 -0.5470  0.8616 -0.0563
  224SOL    HW1  671   2.743   2.057   1.198  2.0017 -1.7834  2.5600
  224SOL    HW2  672   2.686   2.179   1.099  1.7989  0.2786  0.9860
  225SOL     OW  673   2.245   1.960   0.807 -0.0162  0.4976  0.3024
  225SOL    HW1  674   2.284   1.868   0.816  1.4474 -0.0625 -0.6302
  225SOL    HW2  675   2.143   1.968   0.817 -0.3367  0.4027 -0.3420
  226SOL     OW  676   1.326   2.491   0.410 -0.3227  0.2977  0.4681
  226SOL    HW1  677   1.368   2.583   0.389  1.8941  1.6291 -0.1667
  226SOL    HW2  678   1.291   2.443   0.324  2.0500 -0.9490 -0.6680
  227SOL     OW  679   1.950   0.591   0.996  0.2399 -0.2962 -0.2892
  227SOL    HW1  680   1.960   0.686   1.027 -0.7058 -0.5736  0.3132
  227SOL    HW2  681   1.867   0.580   0.947  2.7351  3.0506  2.1484
  228SOL     OW  682   1.314   0.748   2.039 -0.0165  0.1911 -0.3511
  228SOL    HW1  683   1.395   0.762   2.096  0.2153  0.4527 -1.7668
  228SOL    HW2  684   1.320   0.810   1.959 -0.0218 -0.2540 -1.2912
  229SOL     OW  685   2.867   1.113   2.596  0.3462  0.0759  0.3978
  229SOL    HW1  686   2.914   1.174   2.532 -1.2248 -2.0552 -0.2588
  229SOL    HW2  687   2.911   1.118   2.689 -2.8364 -2.5528  0.4151
  230SOL     OW  688   0.967   1.218   0.946  0.1875  0.5599  0.6663
  230SOL    HW1  689   1.041   1.249   0.882  0.2112  3.0112 -1.0288
  230SOL    HW2  690   0.978   1.275   1.032  2.0336  0.1940 -0.9398
  231SOL     OW  691   2.543   2.840   2.224  0.5855  0.2462  0.2355
  231SOL    HW1  692   2.548   2.941   2.235 -1.2353 -1.6257 -1.4996
  231SOL    HW2  693   2.585   2.784   2.298  1.1944  0.6381 -1.5014
  232SOL     OW  694   0.581   1.968   0.151  0.0908  0.3708 -0.0449
  232SOL    HW1  695   0.609   2.064   0.160  1.0882 -0.0489  1.2902
  232SOL    HW2  696   0.643   1.910   0.087  2.5040  2.4785 -0.1774
  233SOL     OW  697   1.197   2.279   2.174  0.3284 -0.1214 -0.1779
  233SOL    HW1  698   1.129   2.242   2.241 -0.1752  0.2191 -2.4325
  233SOL    HW2  699   1.293   2.240   2.186  3.6404 -1.8635 -1.1267
  234SOL     OW  700   1.080   1.414   1.681 -0.2315  0.0910  0.2917
  234SOL    HW1  701   1.101   1.394   1.778 -3.3878  0.5935  2.4274
  234SOL    HW2  702   1.102   1.511   1.653 -0.9653  1.4271 -1.6843
  235SOL     OW  703   0.765   1.671   1.941 -0.7730  0.0048  0.7740
  235SOL    HW1  704   0.785   1.740   1.873 -0.3879 -1.3356  0.1137
  235SOL    HW2  705   0.848   1.618   1.966  1.1707  0.1361  3.3720
  236SOL     OW  706   1.598   2.762   2.458  0.2672 -0.0977  0.1946
  236SOL    HW1  707   1.683   2.761   2.404 -0.6664 -0.4784  0.2189
  236SOL    HW2  708   1.603   2.693   2.533 -0.6568 -1.2732 -0.3392
  237SOL     OW  709   1.169   2.965   0.674 -0.3477  0.2116  0.3572
  237SOL    HW1  710   1.105   3.029   0.721 -0.5451 -0.8586  1.1580
  237SOL    HW2  711   1.260   2.971   0.723 -0.4858  0.5645  0.1752
  238SOL     OW  712   1.103   0.866   2.826  0.1515  0.9095  0.1372
  238SOL    HW1  713   1.117   0.765   2.824  2.2817  2.1677  2.3567
  238SOL    HW2  714   1.017   0.882   2.880 -0.7661  2.1448 -1.2105
  239SOL     OW  715   0.268   0.473   2.121  0.4931 -0.0289  0.1790
  239SOL    HW1  716   0.323   0.559   2.144  2.3775  2.8064 -1.4735
  239SOL    HW2  717   0.272   0.401   2.188 -1.5551  1.8220 -0.2682
  240SOL     OW  718   2.324   2.534   0.876  0.0188  0.5070  0.4426
  240SOL    HW1  719   2.344   2.436   0.848  0.4762 -0.7473 -2.7664
  240SOL    HW2  720   2.387   2.597   0.826 -0.0543 -0.0220 -2.8475
  241SOL     OW  721   1.566   1.189   1.356 -0.5390 -0.6488 -0.2147
  241SOL    HW1  722   1.468   1.181   1.343  0.9246 -0.3543  0.1197
  241SOL    HW2  723   1.603   1.148   1.443  0.7831 -0.4369  0.0856
  242SOL     OW  724   0.258   0.839   0.803 -0.2582 -0.5214 -0.1178
  242SOL    HW1  725   0.214   0.845   0.894 -0.2465  0.2952 -1.5777
  242SOL    HW2  726   0.258   0.931   0.760  0.7275 -1.3941  2.1019
  243SOL     OW  727   0.127   0.663   1.241 -0.3367  0.0958 -0.2497
  243SOL    HW1  728   0.030   0.643   1.272 -2.7133 -1.3596 -0.1778
  243SOL    HW2  729   0.172   0.579   1.207 -0.5232  3.6719 -2.2173
  244SOL     OW  730   1.147   0.495   3.035  0.0426 -0.3732  0.3869
  244SOL    HW1  731   1.050   0.495   3.053  2.0207 -1.7642 -0.6869
  244SOL    HW2  732   1.184   0.403   3.060 -1.4679  0.7686 -0.7833
  245SOL     OW  733   2.054   0.759   3.050  0.6535  0.5445 -1.0335
  245SOL    HW1  734   2.154   0.772   3.052  0.3187 -0.7395 -0.3805
  245SOL    HW2  735   2.003   0.847   3.033 -0.5556 -1.3049  0.4922
  246SOL     OW  736   0.084   1.100   2.029 -0.4392  0.1617 -0.2923
  246SOL    HW1  737   0.013   1.148   1.974  2.0928 -1.1031 -1.2707
  246SOL    HW2  738   0.059   1.087   2.129 -2.1847 -0.1676 -0.4184
  247SOL     OW  739   0.519   2.987   1.943  0.2155 -0.3028  0.4026
  247SOL    HW1  740   0.429   2.942   1.963  0.4389 -1.2664 -2.0417
  247SOL    HW2  741   0.602   2.940   1.984  2.0775 -0.5351 -2.0587
  248SOL     OW  742   0.624   1.391   1.892 -0.4052 -0.4725 -0.2322
  248SOL    HW1  743   0.604   1.482   1.857  1.1700  1.6891 -1.8592
  248SOL    HW2  744   0.705   1.367   1.831 -1.0002 -0.3882  0.4321
  249SOL     OW  745   0.481   0.348   2.761  0.2340  0.0924 -0.4703
  249SOL    HW1  746   0.384   0.323   2.745  0.9123 -2.3264  0.3546
  249SOL    HW2  747   0.494   0.449   2.762 -3.2472  0.5721 -0.6586
  250SOL     OW  748   0.292   0.122   2.846  0.5086 -0.0014  0.0998
  250SOL    HW1  749   0.241   0.034   2.860  2.9593 -1.4836  1.7040
  250SOL    HW2  750   0.248   0.187   2.780  1.9632 -0.1830  1.3733
  251SOL     OW  751   2.996   1.722   1.140  0.7006  0.7864 -0.4337
  251SOL    HW1  752   2.926   1.701   1.070 -0.2535 -1.2372  2.4953
  251SOL    HW2  753   2.958   1.730   1.232  3.1734 -1.3707 -1.4933
  252SOL     OW  754   1.736   2.629   2.214 -0.3283  0.0407  0.4865
  252SOL    HW1  755   1.773   2.637   2.121 -1.7739 -1.1804  0.4325
  252SOL    HW2  756   1.790   2.687   2.274  1.7204  1.3827  0.4543
  253SOL     OW  757   1.531   1.713   2.875  0.4848 -0.2607 -0.0654
  253SOL    HW1  758   1.537   1.761   2.783 -1.1487  0.0045 -1.7064
  253SOL    HW2  759   1.600   1.643   2.889 -2.6705  1.2025  0.4173
  254SOL     OW  760   0.471   1.453   1.621  0.3047  0.1125 -0.3065
  254SOL    HW1  761   0.392   1.394   1.646  1.0050  0.9628 -1.0541
  254SOL    HW2  762   0.476   1.529   1.692  3.0840  2.9641  1.3964
  255SOL     OW  763   0.852   2.976   1.499 -0.3123  0.4625  0.0027
  255SOL    HW1  764   0.937   2.923   1.511  0.1398 -0.3107  0.6627
  255SOL    HW2  765   0.828   3.011   1.590  0.3051 -0.5081 -0.6434
  256SOL     OW  766   0.017   2.390   0.936 -0.0255 -0.2301 -0.3188
  256SOL    HW1  767   0.016   2.466   1.002 -4.6556 -2.1958 -0.0857
  256SOL    HW2  768   3.074   2.305   0.984  2.3732 -3.8198  0.3758
  257SOL     OW  769   0.281   2.778   2.909  0.2878 -0.0207 -0.1169
  257SOL    HW1  770   0.381   2.797   2.903  0.3067  0.0496 -0.3968
  257SOL    HW2  771   0.221   2.857   2.896  1.3939 -2.3324 -1.7886
  258SOL     OW  772   1.083   2.274   1.847  0.0158  0.6455 -0.0510
  258SOL    HW1  773   1.083   2.192   1.904  3.2977  2.1238 -1.7920
  258SOL    HW2  774   1.171   2.317   1.841 -1.1142 -3.2525 -0.5528
  259SOL     OW  775   1.076   1.860   2.341  0.0572 -0.1441 -1.3285
  259SOL    HW1  776   1.030   1.814   2.422  2.3645 -2.5199  2.9714
  259SOL    HW2  777   1.021   1.850   2.258 -0.5950  2.9245  3.3677
  260SOL     OW  778   2.339   0.796   2.316 -0.4658 -0.0780  0.4173
  260SOL    HW1  779   2.368   0.787   2.410 -0.2150 -2.1796 -0.0364
  260SOL    HW2  780   2.299   0.709   2.277  0.3176  1.7922 -0.5739
  261SOL     OW  781   1.215   0.677   0.846  0.1765 -0.3465  0.0912
  261SOL    HW1  782   1.227   0.586   0.810 -0.2721  1.7425  0.7209
  261SOL    HW2  783   1.233   0.743   0.767  0.3989 -1.2803  1.7744
  262SOL     OW  784   2.126   1.908   2.699  0.2488  0.2112 -0.4448
  262SOL    HW1  785   2.182   1.934   2.779 -1.6363 -0.2569  0.8661
  262SOL    HW2  786   2.071   1.985   2.659 -0.8003  0.9253 -2.4351
  263SOL     OW  787   0.631   2.314   0.826 -0.2831  0.3205  0.2099
  263SOL    HW1  788   0.600   2.396   0.778  0.1253 -0.8611  1.8087
  263SOL    HW2  789   0.724   2.282   0.798  0.1423 -2.9886  0.4005
  264SOL     OW  790   0.128   2.448   0.460  0.7073 -0.0698 -0.2379
  264SOL    HW1  791   0.043   2.469   0.405  0.0605 -0.9067  1.3918
  264SOL    HW2  792   0.112   2.364   0.516 -0.6930  1.3599 -1.6980
  265SOL     OW  793   0.573   1.121   0.113  0.0168 -0.6858 -0.2594
  265SOL    HW1  794   0.546   1.174   0.030 -0.6130 -2.4376  0.6399
  265SOL    HW2  795   0.675   1.119   0.135  3.9572  0.2091 -0.1670
  266SOL     OW  796   0.810   2.028   2.419  0.0073  0.0236  0.1795
  266SOL    HW1  797   0.888   2.092   2.437 -0.3710  1.0879 -0.1332
  266SOL    HW2  798   0.774   1.985   2.502 -0.3123 -3.4859 -2.0220
  267SOL     OW  799   1.793   0.758   2.403 -0.0700  0.9032  0.4265
  267SOL    HW1  800   1.842   0.754   2.496  0.6353 -0.3804 -0.1593
  267SOL    HW2  801   1.844   0.812   2.333  1.6877 -0.1369  0.4209
  268SOL     OW  802   0.763   0.884   0.194 -0.3079  0.0951 -0.1891
  268SOL    HW1  803   0.795   0.979   0.166 -0.7112  2.0653 -0.1257
  268SOL    HW2  804   0.677   0.895   0.256 -0.2515  0.9687 -0.3696
  269SOL     OW  805   2.494   1.691   2.178  0.0982  0.2684 -0.1145
  269SOL    HW1  806   2.537   1.722   2.266 -2.3208 -0.7847  1.6235
  269SOL    HW2  807   2.529   1.747   2.099 -1.0264  0.9336  1.1925
  270SOL     OW  808   1.175   1.866   0.043 -0.8230 -0.2098  0.1662
  270SOL    HW1  809   1.158   1.804   0.118  1.2170 -1.4645 -1.6733
  270SOL    HW2  810   1.278   1.875   0.028  1.5132 -0.6910 -1.2074
  271SOL     OW  811   0.250   0.624   0.050 -0.0900  0.5661 -0.0003
  271SOL    HW1  812   0.350   0.653   0.053 -0.5183 -1.4846 -1.7008
  271SOL    HW2  813   0.238   0.523   0.036 -0.5466  1.7367  0.9765
  272SOL     OW  814   2.891   0.516   0.491 -0.3102 -0.8321 -0.8849
  272SOL    HW1  815   2.857   0.436   0.541  2.5475  0.1188 -0.4709
  272SOL    HW2  816   2.990   0.529   0.503 -2.4256  0.6199 -1.2149
  273SOL     OW  817   0.367   3.029   1.594  0.5832 -0.5201  0.4002
  273SOL    HW1  818   0.346   3.058   1.689 -0.1343  1.1620 -1.4733
  273SOL    HW2  819   0.280   2.991   1.550 -0.0667  0.5479 -0.2258
  274SOL     OW  820   2.794   0.582   1.517  0.6050 -0.1084 -0.5097
  274SOL    HW1  821   2.895   0.553   1.499  2.1193  1.3355  0.5628
  274SOL    HW2  822   2.738   0.501   1.539  2.0793  0.2762 -0.8784
  275SOL     OW  823   0.823   1.627   0.927 -0.7027 -0.0306 -0.0834
  275SOL    HW1  824   0.823   1.658   1.024 -2.1715  0.3804  0.1577
  275SOL    HW2  825   0.811   1.525   0.925  0.7796 -2.5848 -0.5886
  276SOL     OW  826   0.635   1.225   1.619  0.0881  0.0383 -0.4869
  276SOL    HW1  827   0.585   1.316   1.636 -0.9267  1.5973 -1.4367
  276SOL    HW2  828   0.589   1.147   1.672  0.0124 -5.3257  2.0146
  277SOL     OW  829   1.031   2.723   2.071 -0.0440 -0.0198 -0.1180
  277SOL    HW1  830   1.112   2.668   2.091 -3.3655  0.0619  0.1153
  277SOL    HW2  831   0.961   2.717   2.143 -0.6975 -1.4196 -0.4583
  278SOL     OW  832   2.265   2.797   2.011  0.1365  0.0622  0.2746
  278SOL    HW1  833   2.319   2.742   2.078 -0.0440  2.4185 -0.0594
  278SOL    HW2  834   2.187   2.739   1.975 -0.2842  0.7664 -0.3274
  279SOL     OW  835   1.633   1.637   0.056  0.1494  0.5384 -0.3188
  279SOL    HW1  836   1.640   1.567   0.132 -2.2894  1.5513 -1.2686
  279SOL    HW2  837   1.538   1.645   0.018 -0.3606 -1.3209 -1.5436
  280SOL     OW  838   1.459   0.692   0.003  0.2920  0.3974  0.2507
  280SOL    HW1  839   1.479   0.760   3.018 -0.9076 -2.6659  4.1377
  280SOL    HW2  840   1.458   0.591   3.056 -1.5278 -2.5261 -0.3570
  281SOL     OW  841   0.415   0.541   1.558 -0.2243  0.6216  0.0231
  281SOL    HW1  842   0.437   0.539   1.459 -1.0258 -0.5146  1.7610
  281SOL    HW2  843   0.313   0.540   1.572 -1.6755 -2.3930  0.4429
  282SOL     OW  844   0.103   2.587   0.737 -0.1127 -0.1519 -0.0299
  282SOL    HW1  845   0.082   2.502   0.789 -0.4778 -0.4893  0.9009
  282SOL    HW2  846   0.110   2.560   0.642  1.5967  1.2804  1.0836
  283SOL     OW  847   1.447   2.173   1.914 -0.2007  0.5664 -0.1615
  283SOL    HW1  848   1.435   2.198   2.013  1.4853 -0.5428  1.2555
  283SOL    HW2  849   1.480   2.250   1.859 -0.8040 -1.5810  0.2288
  284SOL     OW  850   2.864   2.685   1.175  0.9746 -0.7592 -0.3756
  284SOL    HW1  851   2.776   2.738   1.166 -1.2196 -1.3032  1.6192
  284SOL    HW2  852   2.842   2.591   1.139 -1.2614  1.5994  0.5519
  285SOL     OW  853   0.360   2.217   0.164  0.0662 -0.3860 -0.3051
  285SOL    HW1  854   0.312   2.310   0.172  0.9420  1.6291  0.6924
  285SOL    HW2  855   0.456   2.227   0.169 -0.1864  1.9942  0.1220
  286SOL     OW  856   0.465   2.863   0.895  0.2257 -0.1490  0.0398
  286SOL    HW1  857   0.544   2.921   0.899  1.8062 -0.9477  2.0320
  286SOL    HW2  858   0.377   2.917   0.901 -0.2918  0.5521 -1.0554
  287SOL     OW  859   0.616   1.445   0.711 -0.3931 -0.4811  0.4065
  287SOL    HW1  860   0.544   1.516   0.728 -2.5511  2.1557 -0.5408
  287SOL    HW2  861   0.573   1.370   0.655 -0.6585 -1.8193 -3.3526
  288SOL     OW  862   1.809   2.015   2.770  0.1587  0.4527 -0.0267
  288SOL    HW1  863   1.847   1.936   2.722 -0.8386  3.6890 -1.8743
  288SOL    HW2  864   1.788   1.985   2.869  3.7161 -1.5357  2.5323
  289SOL     OW  865   3.050   2.025   0.257 -0.2191  0.2312  0.2087
  289SOL    HW1  866   3.056   2.071   0.165  1.0049  0.4156  0.7696
  289SOL    HW2  867   3.046   1.921   0.245  3.0613 -1.1491  0.0167
  290SOL     OW  868   1.372   1.481   1.430  0.1899 -0.4771  0.0412
  290SOL    HW1  869   1.327   1.574   1.431 -1.2822  2.5054  1.4630
  290SOL    HW2  870   1.338   1.424   1.355 -0.1307 -0.0758 -2.9122
  291SOL     OW  871   1.089   1.418   0.030 -0.4528 -0.3886  0.2998
  291SOL    HW1  872   1.062   1.497   3.056 -0.5026  2.7986 -0.5458
  291SOL    HW2  873   1.052   1.328   0.003  0.2139 -1.6349 -1.1417
  292SOL     OW  874   1.069   1.266   0.264 -0.1507  0.3030 -0.8003
  292SOL    HW1  875   1.157   1.234   0.295 -0.4830  0.3043 -1.1065
  292SOL    HW2  876   1.074   1.336   0.191 -0.9171  0.2488 -1.2295
  293SOL     OW  877   1.093   2.812   0.926 -0.0388 -0.5002 -0.0736
  293SOL    HW1  878   0.994   2.814   0.900  1.2736 -0.9949  0.4850
  293SOL    HW2  879   1.160   2.806   0.846  2.2328 -2.2476  1.1104
  294SOL     OW  880   1.913   1.280   2.268  0.4788 -0.0716 -0.0465
  294SOL    HW1  881   1.848   1.289   2.190 -0.3741  0.5767 -0.5483
  294SOL    HW2  882   1.861   1.219   2.332 -0.3196 -0.2690  2.8230
  295SOL     OW  883   1.414   1.886   3.036 -0.4817 -0.8548  0.2260
  295SOL    HW1  884   1.466   1.814   2.988  2.1584  1.2749 -0.0621
  295SOL    HW2  885   1.424   1.970   2.976  3.0533  2.5404 -1.2690
  296SOL     OW  886   1.359   0.859   1.766 -0.1737  0.5525 -0.0692
  296SOL    HW1  887   1.309   0.796   1.702 -0.9494  2.3122 -0.2425
  296SOL    HW2  888   1.330   0.954   1.748  2.3935  2.3116  1.7933
  297SOL     OW  889   3.088   0.764   1.929 -0.0553 -0.3499  0.1989
  297SOL    HW1  890   2.994   0.727   1.922 -1.2893 -2.3422  1.6488
  297SOL    HW2  891   0.019   0.851   1.880  2.0190  2.8054  1.8058
  298SOL     OW  892   1.346   1.777   1.445  0.4307 -0.2826 -0.1081
  298SOL    HW1  893   1.355   1.797   1.347 -0.2589 -1.6014 -1.1939
  298SOL    HW2  894   1.428   1.819   1.489  1.1344 -2.1314 -0.4350
  299SOL     OW  895   1.259   3.062   2.656 -0.2332  0.3984  0.3403
  299SOL    HW1  896   1.350   3.032   2.623  0.2584  0.3336 -1.6307
  299SOL    HW2  897   1.193   3.053   2.582  0.6303  1.0469 -0.5443
  300SOL     OW  898   2.550   1.664   3.080 -0.2927 -0.0830 -0.2776
  300SOL    HW1  899   2.559   1.565   0.007 -1.8780  2.7424  2.3472
  300SOL    HW2  900   2.456   1.691   0.025  1.2655 -0.4709  1.8296
  301SOL     OW  901   1.977   0.811   2.597  0.5191  0.0093 -0.1446
  301SOL    HW1  902   2.046   0.888   2.586 -0.6626  3.6977  0.6898
  301SOL    HW2  903   2.019   0.729   2.638  2.5476  3.5822 -1.7778
  302SOL     OW  904   2.274   2.239   2.661  0.1717  0.3856 -0.6647
  302SOL    HW1  905   2.306   2.228   2.567 -0.7723 -1.3757  3.4154
  302SOL    HW2  906   2.176   2.206   2.674 -1.9893 -2.1070  1.5518
  303SOL     OW  907   0.266   2.019   3.081 -0.0708 -0.1909 -0.1148
  303SOL    HW1  908   0.321   2.087   0.044 -1.1143  1.6260  0.0439
  303SOL    HW2  909   0.170   2.059   3.076 -3.0220  1.7300  1.7920
  304SOL     OW  910   0.326   1.854   1.276 -0.5219 -0.5069  0.1493
  304SOL    HW1  911   0.292   1.827   1.369  1.3681  0.5576  0.0280
  304SOL    HW2  912   0.407   1.798   1.248  0.9992 -1.5241 -5.6865
  305SOL     OW  913   2.856   0.657   1.836  0.0032  0.3866 -0.2609
  305SOL    HW1  914   2.861   0.567   1.884  1.5925  1.1228 -0.2166
  305SOL    HW2  915   2.858   0.644   1.733 -0.7970  3.4682 -1.2621
  306SOL     OW  916   1.677   1.526   1.090 -0.6684 -0.2697  0.2357
  306SOL    HW1  917   1.583   1.495   1.065 -1.9595  1.0988 -2.1887
  306SOL    HW2  918   1.739   1.455   1.127  0.7655  0.6767 -2.4289
  307SOL     OW  919   0.004   0.304   0.857  0.9424 -0.5335 -0.5707
  307SOL    HW1  920   0.101   0.281   0.879 -2.5009 -0.8678  1.0522
  307SOL    HW2  921   3.034   0.233   0.905  0.5015  0.9261  1.5011
  308SOL     OW  922   0.273   1.286   1.712  0.0479  0.6687  0.1219
  308SOL    HW1  923   0.195   1.263   1.652  1.9181  1.7266 -1.8009
  308SOL    HW2  924   0.310   1.210   1.775  0.2805  0.6857  0.9983
  309SOL     OW  925   2.861   1.981   2.195  0.5898 -0.3229  0.3856
  309SOL    HW1  926   2.893   2.080   2.173  1.2755  3.8249 -0.1272
  309SOL    HW2  927   2.764   1.968   2.189  1.1614 -1.8636 -2.6160
  310SOL     OW  928   2.399   1.099   2.562 -0.2072 -0.0094 -0.0888
  310SOL    HW1  929   2.480   1.052   2.521 -4.0254  0.9029  1.7713
  310SOL    HW2  930   2.382   1.067   2.655 -0.5092  3.1860  3.8261
  311SOL     OW  931   1.655   1.100   2.952 -0.0533 -0.1920 -0.7219
  311SOL    HW1  932   1.568   1.155   2.951 -3.5467  0.6480 -1.5800
  311SOL    HW2  933   1.630   1.003   2.970 -1.4971 -1.2418  0.3089
  312SOL     OW  934   1.354   2.154   2.538  0.0026 -0.5049 -0.5322
  312SOL    HW1  935   1.448   2.173   2.559 -2.6465 -1.1709 -1.5381
  312SOL    HW2  936   1.352   2.070   2.477  0.2115  1.2514 -0.4538
  313SOL     OW  937   0.332   0.382   0.681  0.8844 -0.3798 -0.1409
  313SOL    HW1  938   0.380   0.416   0.598 -0.4592  2.9900  1.0428
  313SOL    HW2  939   0.251   0.442   0.701 -1.0677  0.7111  1.3189
  314SOL     OW  940   0.835   2.021   1.128  0.0008  0.1569 -0.1374
  314SOL    HW1  941   0.837   2.119   1.155 -0.8902 -1.4091 -1.9478
  314SOL    HW2  942   0.860   1.963   1.205  1.9738 -1.7190 -1.9828
  315SOL     OW  943   0.637   2.090   2.212 -0.4985 -0.0039  0.3347
  315SOL    HW1  944   0.547   2.043   2.221  0.5737  0.9273 -0.2053
  315SOL    HW2  945   0.709   2.062   2.276  0.2256  1.5740 -1.9625
  316SOL     OW  946   0.460   2.465   0.574  0.3172  0.1434  0.4778
  316SOL    HW1  947   0.374   2.421   0.570  1.3864  1.7554  1.3380
  316SOL    HW2  948   0.446   2.559   0.609 -0.1717 -1.4696  1.5455
  317SOL     OW  949   2.734   3.057   1.171 -0.2487  0.1963  0.0641
  317SOL    HW1  950   2.653   0.025   1.150 -1.0141 -0.4154 -0.1305
  317SOL    HW2  951   2.716   2.961   1.204 -1.6603 -1.4728 -3.5268
  318SOL     OW  952   2.132   2.812   0.426 -0.5575 -0.6575 -0.1373
  318SOL    HW1  953   2.134   2.885   0.500 -0.8066  2.7725  0.5969
  318SOL    HW2  954   2.159   2.719   0.462  0.1139  0.9652  2.1134
  319SOL     OW  955   1.550   0.643   2.602 -0.0749 -0.0525 -0.3021
  319SOL    HW1  956   1.609   0.672   2.681 -3.2135  0.1803 -3.2057
  319SOL    HW2  957   1.586   0.554   2.571 -2.0457  2.2843 -1.0764
  320SOL     OW  958   2.982   2.233   2.154 -0.1830  0.2156 -0.0842
  320SOL    HW1  959   3.046   2.229   2.074  0.1704  0.3621 -0.1287
  320SOL    HW2  960   2.996   2.315   2.214  2.3788  3.2159  0.9618
  321SOL     OW  961   0.571   2.510   0.188 -0.1779 -0.8308 -0.5878
  321SOL    HW1  962   0.649   2.572   0.217  1.4544  0.6666  0.5406
  321SOL    HW2  963   0.542   2.525   0.091  0.7253 -0.7708 -3.5575
  322SOL     OW  964   2.720   0.664   2.540 -0.0726  0.2106 -0.3651
  322SOL    HW1  965   2.722   0.583   2.600 -0.6027  0.9632 -3.4704
  322SOL    HW2  966   2.633   0.715   2.535  0.8366 -2.6403 -0.0736
  323SOL     OW  967   2.432   1.088   0.895  0.3358 -0.1620 -0.0687
  323SOL    HW1  968   2.486   1.133   0.971  0.5123 -0.5505 -0.6508
  323SOL    HW2  969   2.488   1.017   0.855  1.6650  1.3591  3.5227
  324SOL     OW  970   2.712   0.364   1.254  0.6392 -0.1670 -0.1079
  324SOL    HW1  971   2.812   0.366   1.255  1.0230 -2.8374  1.6508
  324SOL    HW2  972   2.674   0.428   1.181  0.4450 -1.4420 -0.9465
  325SOL     OW  973   0.062   3.008   1.784  0.3158 -0.1173 -0.0068
  325SOL    HW1  974   0.075   0.017   1.821  1.1089  5.1535  1.9571
  325SOL    HW2  975   0.029   3.016   1.686 -1.0933  1.3046  0.5258
  326SOL     OW  976   1.893   2.784   0.299 -0.2543 -0.2730 -0.0815
  326SOL    HW1  977   1.895   2.707   0.236  2.5485  0.6170  1.5883
  326SOL    HW2  978   1.982   2.799   0.346 -1.2229  0.4122  0.1746
  327SOL     OW  979   1.779   1.708   0.406  0.8546  0.2532 -0.3056
  327SOL    HW1  980   1.807   1.776   0.336  0.5554 -1.1178  0.6730
  327SOL    HW2  981   1.838   1.626   0.405  1.4097 -0.4573  1.6288
  328SOL     OW  982   0.058   2.141   2.543  0.8031 -0.4531 -0.6514
  328SOL    HW1  983   0.161   2.155   2.539 -1.3348 -0.3018 -1.1243
  328SOL    HW2  984   0.027   2.083   2.466  3.4941  0.6847  3.2032
  329SOL     OW  985   0.293   2.204   1.418 -0.2166  0.3753  0.4860
  329SOL    HW1  986   0.382   2.166   1.383  0.4893  1.2563 -0.3158
  329SOL    HW2  987   0.271   2.183   1.512  0.9369  0.3665  1.0835
  330SOL     OW  988   2.680   0.905   2.791 -0.4478  0.1082 -0.0646
  330SOL    HW1  989   2.636   0.916   2.698 -0.1764 -0.2825 -1.8128
  330SOL    HW2  990   2.783   0.906   2.774  2.9037 -0.2071  0.3457
  331SOL     OW  991   2.511   2.261   1.050 -0.3453 -0.5260 -0.1545
  331SOL    HW1  992   2.458   2.322   0.988 -1.4543 -0.3555  0.0061
  331SOL    HW2  993   2.467   2.257   1.140  1.5183  0.0928 -2.3626
  332SOL     OW  994   0.454   2.728   0.667  0.6286  0.0107  0.0938
  332SOL    HW1  995   0.533   2.768   0.617 -1.4488  0.3581  1.4201
  332SOL    HW2  996   0.434   2.781   0.748  0.1397 -0.1373 -0.8136
  333SOL     OW  997   2.209   1.736   2.525 -0.1686 -0.0854 -0.3673
  333SOL    HW1  998   2.171   1.806   2.590 -1.0334 -1.3536  1.3001
  333SOL    HW2  999   2.290   1.687   2.567  4.3604 -2.1253  1.8676
  334SOL     OW 1000   0.484   1.171   0.722  0.4210  0.3991  0.2667
  334SOL    HW1 1001   0.542   1.094   0.747  2.1591  0.4093 -1.8916
  334SOL    HW2 1002   0.452   1.224   0.804 -0.3999 -1.3329  1.9105
  335SOL     OW 1003   3.045   1.933   2.396 -0.3261  0.4768  0.6745
  335SOL    HW1 1004   2.989   1.958   2.314  0.5979 -1.9138 -0.3698
  335SOL    HW2 1005   2.995   1.864   2.451 -2.2955  0.1520 -1.0747
  336SOL     OW 1006   2.352   2.645   2.204 -0.1229  0.0549 -0.0578
  336SOL    HW1 1007   2.380   2.553   2.172  0.9311 -0.7625 -0.3451
  336SOL    HW2 1008   2.435   2.707   2.214 -2.2459 -1.2887  0.6742
  337SOL     OW 1009   0.692   0.980   0.821  0.1199  0.3425 -0.0937
  337SOL    HW1 1010   0.648   0.886   0.801 -1.4118 -1.5499 -0.0216
  337SOL    HW2 1011   0.763   0.981   0.894 -0.2132 -0.2277 -0.5767
  338SOL     OW 1012   1.376   1.906   1.161  0.3104  0.1249  0.1634
  338SOL    HW1 1013   1.452   1.902   1.092  0.3688  0.4232  1.2387
  338SOL    HW2 1014   1.343   2.005   1.169 -1.8684  0.5203 -1.6546
  339SOL     OW 1015   0.188   1.781   1.535  0.4854  0.0906 -0.1954
  339SOL    HW1 1016   0.238   1.839   1.600 -1.2675 -3.0902 -1.5680
  339SOL    HW2 1017   0.101   1.833   1.513  0.8827  0.0965 -1.1051
  340SOL     OW 1018   1.052   0.105   1.839  0.7904  0.3560  0.8655
  340SOL    HW1 1019   1.059   0.201   1.869  1.1284 -2.2137 -1.9441
  340SOL    HW2 1020   1.127   0.090   1.767  3.2073 -0.8848 -1.7828
  341SOL     OW 1021   1.726   1.764   1.188 -0.3361 -0.3052  0.6554
  341SOL    HW1 1022   1.692   1.674   1.167 -0.8795 -1.2332 -2.5831
  341SOL    HW2 1023   1.679   1.833   1.134  0.9574 -0.0940 -0.0168
  342SOL     OW 1024   2.311   1.445   0.925 -0.1082 -0.0794 -0.0034
  342SOL    HW1 1025   2.356   1.394   0.997  0.5160  0.8700 -3.9546
  342SOL    HW2 1026   2.279   1.380   0.853 -0.2972  1.3370 -0.0444
  343SOL     OW 1027   2.131   0.102   0.842 -0.0424  0.2857 -0.3459
  343SOL    HW1 1028   2.190   0.188   0.814  0.6163  0.8628  1.7075
  343SOL    HW2 1029   2.168   0.052   0.925  0.0431  0.3241  0.3126
  344SOL     OW 1030   2.305   0.195   0.351  0.4045 -0.3273 -0.3235
  344SOL    HW1 1031   2.349   0.275   0.387 -0.7252 -2.0777 -0.4201
  344SOL    HW2 1032   2.353   0.117   0.383 -0.5279  1.2691  0.3843
  345SOL     OW 1033   0.784   3.048   1.752  0.1557  0.1069  0.4723
  345SOL    HW1 1034   0.688   3.075   1.772 -2.3229  0.9784 -0.2661
  345SOL    HW2 1035   0.848   0.036   1.781  0.8012  2.9366 -0.5070
  346SOL     OW 1036   2.446   2.017   0.635 -0.0191  0.4341  0.0470
  346SOL    HW1 1037   2.505   2.045   0.713 -2.4251  2.7475  1.4783
  346SOL    HW2 1038   2.353   2.000   0.675  1.1226  1.4657  1.0040
  347SOL     OW 1039   2.447   3.004   1.377 -0.6613 -0.1087  0.4115
  347SOL    HW1 1040   2.489   2.959   1.300 -0.3751  0.4013 -2.4744
  347SOL    HW2 1041   2.349   2.996   1.375 -1.0618  1.3455 -0.1334
  348SOL     OW 1042   0.970   0.986   1.632 -0.4104  0.7867 -1.0901
  348SOL    HW1 1043   0.908   1.033   1.565 -1.2358  1.0423 -1.2331
  348SOL    HW2 1044   0.992   0.891   1.596  1.9925 -0.3457  1.0981
  349SOL     OW 1045   2.451   0.742   2.599 -0.4159  0.1027  0.0903
  349SOL    HW1 1046   2.429   0.645   2.585 -1.8687  1.2494  0.5246
  349SOL    HW2 1047   2.373   0.778   2.654  0.5982  0.6245  0.4392
  350SOL     OW 1048   2.090   2.415   0.272  0.7435 -0.0464 -0.4489
  350SOL    HW1 1049   1.987   2.402   0.294 -2.8378 -1.0114 -0.6101
  350SOL    HW2 1050   2.134   2.330   0.232  0.5641  0.8106  1.6403
  351SOL     OW 1051   1.352   0.469   0.191 -0.1314 -0.0529  0.0857
  351SOL    HW1 1052   1.380   0.475   0.099 -0.6604 -0.5999  3.9458
  351SOL    HW2 1053   1.334   0.558   0.235  0.5413 -1.0676 -3.0291
  352SOL     OW 1054   1.792   1.909   2.354 -0.2349 -0.1029  0.1109
  352SOL    HW1 1055   1.792   1.818   2.312  0.7323  0.0253 -0.5532
  352SOL    HW2 1056   1.821   1.900   2.452 -1.0434 -1.1688 -0.4618
  353SOL     OW 1057   0.443   1.275   2.561 -0.1236  0.0426  0.4993
  353SOL    HW1 1058   0.351   1.246   2.545  1.5976 -1.9003  1.6437
  353SOL    HW2 1059   0.449   1.368   2.595  1.9396 -2.8317 -1.1621
  354SOL     OW 1060   0.678   2.680   2.661  0.1769 -0.0077  0.3412
  354SOL    HW1 1061   0.624   2.596   2.640  0.7367 -2.2603 -0.0629
  354SOL    HW2 1062   0.773   2.649   2.680 -2.1736  1.9952 -1.0536
  355SOL     OW 1063   2.315   2.691   1.386 -0.8428 -0.4560  0.6469
  355SOL    HW1 1064   2.405   2.675   1.343 -0.0703 -0.6116 -1.2500
  355SOL    HW2 1065   2.275   2.785   1.368  0.4235 -0.0993 -1.2353
  356SOL     OW 1066   2.923   0.892   0.964 -0.0810 -0.4462 -0.2828
  356SOL    HW1 1067   2.886   0.985   0.977 -0.4092  1.2843  0.0981
  356SOL    HW2 1068   2.873   0.838   0.895 -1.0487  0.0254 -0.1635
  357SOL     OW 1069   0.007   0.153   1.483 -0.5760  0.0686  0.5955
  357SOL    HW1 1070   3.067   0.198   1.570 -2.4897 -1.2370 -3.9923
  357SOL    HW2 1071   3.017   0.135   1.418 -2.4702 -3.0664 -2.0914
  358SOL     OW 1072   2.942   1.452   1.759 -0.3861 -0.1388  0.2327
  358SOL    HW1 1073   3.005   1.498   1.821 -1.8441  1.6519 -1.2124
  358SOL    HW2 1074   2.991   1.429   1.671  2.1823  0.0699  0.7466
  359SOL     OW 1075   2.645   2.703   2.443 -0.0187  0.3145  0.8684
  359SOL    HW1 1076   2.629   2.609   2.481 -1.1841 -1.8734 -0.7709
  359SOL    HW2 1077   2.742   2.729   2.427  0.3027  1.4760  0.7233
  360SOL     OW 1078   1.124   0.447   1.266  0.3893  0.0385  0.0707
  360SOL    HW1 1079   1.066   0.367   1.279 -0.6420 -0.3056 -1.4375
  360SOL    HW2 1080   1.200   0.451   1.334 -3.4577  0.5428 -0.3769
  361SOL     OW 1081   2.209   2.626   1.088  0.3586 -0.0838  0.0829
  361SOL    HW1 1082   2.227   2.586   0.994 -0.0194  2.8949  0.9678
  361SOL    HW2 1083   2.234   2.557   1.159 -2.2918 -0.0645 -1.2874
  362SOL     OW 1084   1.247   0.176   0.613 -0.5542  0.5692  0.5539
  362SOL    HW1 1085   1.185   0.119   0.665  1.9167  0.5887 -0.8754
  362SOL    HW2 1086   1.211   0.223   0.531 -1.8155 -1.5620 -0.8063
  363SOL     OW 1087   1.446   1.238   0.855 -0.0596  0.0155  0.0770
  363SOL    HW1 1088   1.543   1.222   0.823  0.9915  0.9817 -1.5433
  363SOL    HW2 1089   1.429   1.305   0.927 -0.2086  0.4733  0.2836
  364SOL     OW 1090   0.299   0.887   1.616 -0.1078  0.7711 -0.2957
  364SOL    HW1 1091   0.371   0.928   1.676  2.4392  2.8901  0.0978
  364SOL    HW2 1092   0.331   0.875   1.524  0.9985  3.8534  1.2120
  365SOL     OW 1093   2.618   0.448   0.934 -0.3850 -0.7498  0.0906
  365SOL    HW1 1094   2.703   0.423   0.881  1.5734 -0.8364  1.0385
  365SOL    HW2 1095   2.614   0.536   0.991 -1.6477  2.9767  1.4975
  366SOL     OW 1096   2.798   1.607   0.927  0.5828  0.2714  0.1242
  366SOL    HW1 1097   2.740   1.681   0.887  1.5463 -1.8365  1.6443
  366SOL    HW2 1098   2.767   1.511   0.894 -3.8078 -0.2182 -0.5841
  367SOL     OW 1099   2.176   1.919   2.279 -0.0884  0.3289 -0.0228
  367SOL    HW1 1100   2.199   1.853   2.349 -2.0453  2.5493  0.4760
  367SOL    HW2 1101   2.138   1.880   2.199  1.9612  5.6165  3.0307
  368SOL     OW 1102   2.620   2.103   1.458  0.5228  0.2128  0.3018
  368SOL    HW1 1103   2.657   2.101   1.553  1.0816  0.9566  1.5497
  368SOL    HW2 1104   2.603   2.006   1.422 -0.4303 -2.7330  0.4923
  369SOL     OW 1105   2.314   2.939   2.777 -0.4082  0.4580 -0.5717
  369SOL    HW1 1106   2.350   2.922   2.686 -2.2799  2.7266  4.7045
  369SOL    HW2 1107   2.383   2.985   2.833 -4.0881  1.2466 -0.0503
  370SOL     OW 1108   0.634   0.370   1.177  0.2502 -0.1169  0.0898
  370SOL    HW1 1109   0.636   0.377   1.077 -1.2967 -2.5375  2.5242
  370SOL    HW2 1110   0.728   0.364   1.204 -1.0915 -0.5032 -0.1205
  371SOL     OW 1111   0.427   1.543   0.431  0.1285  0.0846  0.1076
  371SOL    HW1 1112   0.485   1.628   0.415  0.3525  1.5299  1.2433
  371SOL    HW2 1113   0.394   1.545   0.527  1.5286  1.0506  0.7281
  372SOL     OW 1114   0.705   1.231   2.782 -0.5739 -0.2887 -0.0800
  372SOL    HW1 1115   0.807   1.269   2.783  4.7861 -0.1653  1.3629
  372SOL    HW2 1116   0.660   1.256   2.698 -0.6210 -1.6309  2.8652
  373SOL     OW 1117   1.239   2.619   2.533  0.2966  0.2079  0.0127
  373SOL    HW1 1118   1.162   2.680   2.504  0.0835 -0.2944 -0.4616
  373SOL    HW2 1119   1.288   2.654   2.615  0.3652  1.2852 -1.2715
  374SOL     OW 1120   0.725   1.897   0.486 -0.1115 -0.0666  0.7597
  374SOL    HW1 1121   0.717   1.864   0.582  1.7725  0.5747  1.5845
  374SOL    HW2 1122   0.820   1.909   0.458 -0.8413  1.7695  1.3221
  375SOL     OW 1123   0.782   0.655   1.669 -0.1089 -0.1356  0.2740
  375SOL    HW1 1124   0.792   0.552   1.668  3.3022 -3.1006 -0.6956
  375SOL    HW2 1125   0.790   0.691   1.764  1.3782 -0.3199 -0.1960
  376SOL     OW 1126   0.154   2.430   1.407 -0.9050 -0.8805 -0.2230
  376SOL    HW1 1127   0.210   2.347   1.411 -1.0075 -0.4918  0.3943
  376SOL    HW2 1128   0.183   2.505   1.471 -2.3091 -0.1435  0.1366
  377SOL     OW 1129   2.956   1.680   2.991  0.6919  0.2688  0.3632
  377SOL    HW1 1130   3.021   1.707   2.920 -0.2195 -0.3053  0.3443
  377SOL    HW2 1131   2.969   1.589   3.026  1.6109  1.6684  1.8193
  378SOL     OW 1132   1.642   2.887   2.974 -0.2494 -0.1472 -0.5856
  378SOL    HW1 1133   1.557   2.866   3.024  1.5741  2.5631 -0.8725
  378SOL    HW2 1134   1.702   2.949   3.030  3.0773  1.1617  1.1298
  379SOL     OW 1135   1.736   0.582   0.707  0.2390 -0.7433 -0.2993
  379SOL    HW1 1136   1.810   0.520   0.676 -0.1921 -0.3194  0.3005
  379SOL    HW2 1137   1.763   0.680   0.723  1.1033 -0.1268 -0.5483
  380SOL     OW 1138   0.325   1.883   1.802  0.2004  0.1167  0.3258
  380SOL    HW1 1139   0.296   1.901   1.898 -2.0114  0.9253  1.8084
  380SOL    HW2 1140   0.364   1.790   1.795  0.5021 -0.1013  0.9078
  381SOL     OW 1141   2.367   1.367   2.427 -0.1173 -0.1261  0.1945
  381SOL    HW1 1142   2.419   1.379   2.340 -0.8060 -1.3638 -2.3604
  381SOL    HW2 1143   2.390   1.281   2.473  3.2853 -0.5153 -0.5365
  382SOL     OW 1144   0.115   2.996   2.866  0.4868  0.0778  0.2245
  382SOL    HW1 1145   0.053   2.991   2.947  0.4169 -0.6558 -4.2380
  382SOL    HW2 1146   0.055   2.992   2.783 -2.4404 -1.4808 -0.2462
  383SOL     OW 1147   1.430   1.251   2.927 -0.2899 -0.1638 -0.1483
  383SOL    HW1 1148   1.408   1.343   2.955  0.9798 -1.0202 -0.9728
  383SOL    HW2 1149   1.365   1.190   2.982  1.3944 -0.2196 -0.2427
  384SOL     OW 1150   1.167   2.038   1.427 -0.3592 -0.0685 -0.0960
  384SOL    HW1 1151   1.249   1.976   1.427  1.4536 -0.1491  0.1161
  384SOL    HW2 1152   1.197   2.137   1.437  2.7268  0.7716 -0.7233
  385SOL     OW 1153   1.736   2.817   0.920 -1.1998  0.0397  0.0879
  385SOL    HW1 1154   1.747   2.906   0.975 -0.9422  0.3900 -0.3087
  385SOL    HW2 1155   1.638   2.786   0.920 -2.3104 -1.5318 -0.9888
  386SOL     OW 1156   1.540   1.763   0.813  0.1301 -0.0037  0.7087
  386SOL    HW1 1157   1.445   1.737   0.783 -0.1204 -0.3700 -2.0264
  386SOL    HW2 1158   1.602   1.683   0.804  1.4902 -0.2785 -2.8888
  387SOL     OW 1159   2.748   2.351   1.447 -0.1729  0.3713 -0.0182
  387SOL    HW1 1160   2.842   2.334   1.425 -0.8232 -1.1501  1.4977
  387SOL    HW2 1161   2.690   2.275   1.411 -0.4347 -0.1611 -1.6856
  388SOL     OW 1162   2.829   0.978   1.679 -0.3400  0.2040 -0.2275
  388SOL    HW1 1163   2.928   0.983   1.704  1.5295  0.0178 -2.1753
  388SOL    HW2 1164   2.775   0.922   1.743 -0.4316  0.9503 -1.3123
  389SOL     OW 1165   1.902   0.594   0.149 -0.0751 -0.1643  0.1478
  389SOL    HW1 1166   1.961   0.632   0.073 -1.5309  0.4652  0.5968
  389SOL    HW2 1167   1.937   0.627   0.236 -2.1193  3.1602 -2.0637
  390SOL     OW 1168   1.407   1.761   2.606  0.2121  0.4692  0.2000
  390SOL    HW1 1169   1.396   1.828   2.532  0.4372 -2.7799  1.0909
  390SOL    HW2 1170   1.455   1.684   2.566 -1.7297 -0.5544  0.1980
  391SOL     OW 1171   1.111   2.107   0.181 -0.3182 -0.1509  0.5229
  391SOL    HW1 1172   1.056   2.078   0.261 -0.2344 -1.6259 -3.7496
  391SOL    HW2 1173   1.149   2.027   0.126  3.4238  0.9001 -2.6430
  392SOL     OW 1174   0.250   2.618   1.595  0.6294 -0.0712  0.3705
  392SOL    HW1 1175   0.322   2.694   1.579  0.3121  0.5197  1.1418
  392SOL    HW2 1176   0.287   2.552   1.664  0.3239  3.9526  0.4154
  393SOL     OW 1177   1.263   2.339   0.159  0.1971  0.1715 -0.1871
  393SOL    HW1 1178   1.218   2.252   0.168  2.8293  2.8203 -0.3232
  393SOL    HW2 1179   1.336   2.325   0.087 -0.0554  2.1125 -1.5329
  394SOL     OW 1180   0.400   0.711   2.238  0.2718  0.4821 -0.5846
  394SOL    HW1 1181   0.380   0.797   2.294  3.6462 -1.2415  0.4733
  394SOL    HW2 1182   0.483   0.671   2.276 -0.2523  1.3904 -0.1506
  395SOL     OW 1183   0.336   1.306   0.911  0.0484 -0.2596  0.0887
  395SOL    HW1 1184   0.314   1.400   0.943 -0.3299 -0.3283 -1.1336
  395SOL    HW2 1185   0.258   1.240   0.932 -0.6163 -1.5155  0.6524
  396SOL     OW 1186   1.756   1.065   1.953 -0.5034  0.1547  0.0446
  396SOL    HW1 1187   1.688   0.992   1.945  1.8566 -0.6006 -0.7520
  396SOL    HW2 1188   1.720   1.146   2.004 -2.2371  0.1497 -0.7709
  397SOL     OW 1189   0.915   0.209   0.048  0.0784 -0.0802  0.0314
  397SOL    HW1 1190   0.829   0.159   0.067 -0.8723 -0.1315  0.1915
  397SOL    HW2 1191   0.928   0.282   0.117 -2.7105  1.4288  0.7010
  398SOL     OW 1192   0.681   2.322   2.737  0.5324  0.0113 -0.2032
  398SOL    HW1 1193   0.783   2.321   2.723 -1.6587 -0.9994  0.6735
  398SOL    HW2 1194   0.642   2.308   2.831 -0.1979 -2.2913 -1.8092
  399SOL     OW 1195   1.890   1.571   2.471 -0.1679  0.1383 -0.1856
  399SOL    HW1 1196   1.825   1.497   2.489 -1.0983  1.4921 -1.9382
  399SOL    HW2 1197   1.974   1.532   2.424 -0.1803  0.3859 -0.7484
  400SOL     OW 1198   2.095   1.643   1.494 -1.1040  0.5484 -0.1927
  400SOL    HW1 1199   2.106   1.716   1.429  1.4973  0.4301  3.8919
  400SOL    HW2 1200   2.061   1.562   1.443  3.5501 -0.1183 -0.1386
  401SOL     OW 1201   1.263   1.307   1.211  0.5539 -0.1868  0.6740
  401SOL    HW1 1202   1.281   1.212   1.254  0.3547 -1.3197 -0.6020
  401SOL    HW2 1203   1.167   1.319   1.198  3.2691 -0.8773 -0.9308
  402SOL     OW 1204   3.050   2.464   1.858 -0.2432  0.3975 -0.1246
  402SOL    HW1 1205   3.058   2.448   1.755 -0.4015 -0.0037 -0.2672
  402SOL    HW2 1206   0.026   2.527   1.896 -2.2018 -2.2287 -1.7917
  403SOL     OW 1207   0.170   1.508   1.866  0.4294 -0.1721  0.5624
  403SOL    HW1 1208   0.130   1.485   1.957 -2.1232 -0.6633 -1.1024
  403SOL    HW2 1209   0.210   1.428   1.818  0.7065  1.2916 -1.1959
  404SOL     OW 1210   2.034   2.138   1.313 -0.1598 -0.0059 -0.0380
  404SOL    HW1 1211   2.052   2.158   1.412  1.8320  0.9508 -0.7937
  404SOL    HW2 1212   2.104   2.092   1.264 -0.0366  2.3042  3.3739
  405SOL     OW 1213   2.797   0.439   2.853 -0.3500  0.0696  0.2984
  405SOL    HW1 1214   2.748   0.521   2.832  0.6282 -0.9801  0.5474
  405SOL    HW2 1215   2.781   0.367   2.779 -0.6450 -0.9961 -0.1957
  406SOL     OW 1216   0.764   1.524   2.587  0.1720 -0.3925  0.2356
  406SOL    HW1 1217   0.774   1.453   2.511 -0.2997 -1.8941 -4.2162
  406SOL    HW2 1218   0.669   1.517   2.625 -0.2131  2.1637 -1.3700
  407SOL     OW 1219   1.858   2.593   0.100 -0.0992  0.1516 -0.3300
  407SOL    HW1 1220   1.881   2.492   0.079 -2.1432 -2.5738 -1.5668
  407SOL    HW2 1221   1.756   2.598   0.092 -0.3946 -1.0366  2.8809
  408SOL     OW 1222   0.445   3.028   0.489 -0.4914 -0.0719 -0.5642
  408SOL    HW1 1223   0.361   3.079   0.505 -0.2014  0.1962  0.8460
  408SOL    HW2 1224   0.430   2.932   0.462 -1.6190 -1.4571  0.9466
  409SOL     OW 1225   2.476   1.835   1.013 -0.4058  0.1116  0.6904
  409SOL    HW1 1226   2.474   1.812   0.913  1.5559 -1.7013 -0.7157
  409SOL    HW2 1227   2.521   1.763   1.068  0.3968  1.8027  1.7984
  410SOL     OW 1228   2.184   2.184   2.976  0.0527 -0.3733  0.4667
  410SOL    HW1 1229   2.211   2.087   2.949  1.2521 -0.8296  1.1700
  410SOL    HW2 1230   2.230   2.258   2.916  0.2906  1.8848 -0.0280
  411SOL     OW 1231   0.060   0.877   0.516 -0.0954 -0.0267 -0.3419
  411SOL    HW1 1232   0.132   0.936   0.560 -0.8530 -1.1934 -0.8403
  411SOL    HW2 1233   3.070   0.939   0.505 -0.8130 -1.2186 -1.7479
  412SOL     OW 1234   1.521   2.670   0.314  0.1998 -0.4613  0.2321
  412SOL    HW1 1235   1.571   2.750   0.347 -2.9411  0.2102 -3.3809
  412SOL    HW2 1236   1.553   2.643   0.220  0.7772 -1.5308 -1.5626
  413SOL     OW 1237   1.970   0.246   2.237  0.5068  0.1781  0.4947
  413SOL    HW1 1238   1.944   0.186   2.158 -2.2626 -0.2005 -0.1866
  413SOL    HW2 1239   1.922   0.217   2.324  1.4072  0.2653  3.7999
  414SOL     OW 1240   0.054   0.314   0.570  0.7528 -0.0571  0.0496
  414SOL    HW1 1241   0.072   0.411   0.543  0.3521  2.2249  1.7513
  414SOL    HW2 1242   0.020   0.301   0.667  0.2147 -1.6051 -0.3878
  415SOL     OW 1243   0.838   1.736   1.550  0.2371 -0.2041  0.0140
  415SOL    HW1 1244   0.807   1.792   1.631  1.6627 -2.5060  3.5456
  415SOL    HW2 1245   0.781   1.654   1.528 -0.4270  1.2290  3.5952
  416SOL     OW 1246   0.578   0.151   0.330  0.1641  0.3347 -0.3273
  416SOL    HW1 1247   0.574   0.121   0.232  4.7458  0.8756 -0.0245
  416SOL    HW2 1248   0.489   0.199   0.348 -0.3783 -2.8160 -1.4732
  417SOL     OW 1249   2.593   2.831   1.178 -0.0420  0.5399 -0.0817
  417SOL    HW1 1250   2.590   2.750   1.238  1.4889  2.5370  1.8047
  417SOL    HW2 1251   2.517   2.831   1.110  0.1314  0.7306  0.8746
  418SOL     OW 1252   0.812   0.465   2.497  0.2479  0.4133 -0.1333
  418SOL    HW1 1253   0.879   0.533   2.468 -0.5615 -0.3576  1.8433
  418SOL    HW2 1254   0.825   0.439   2.593  1.3291  0.0891 -1.4988
  419SOL     OW 1255   0.104   1.538   1.188 -0.2444  0.2762 -0.2179
  419SOL    HW1 1256   0.071   1.442   1.178  0.5177  1.9195  0.9266
  419SOL    HW2 1257   0.028   1.600   1.176  0.1707 -2.0207 -1.1506
  420SOL     OW 1258   1.307   1.976   0.717 -0.0517  0.0417  0.4287
  420SOL    HW1 1259   1.258   2.020   0.791  2.2538  1.5060 -0.4210
  420SOL    HW2 1260   1.311   1.878   0.730  0.6245  2.2968  1.0092
  421SOL     OW 1261   1.985   1.876   2.055  0.4846  0.0306 -0.4753
  421SOL    HW1 1262   2.043   1.853   1.978  0.2990 -1.7369  2.0404
  421SOL    HW2 1263   1.917   1.802   2.065  0.0396  0.1290  1.0245
  422SOL     OW 1264   3.041   0.588   2.838 -0.3258  0.3649  0.3291
  422SOL    HW1 1265   2.972   0.510   2.834  1.8725 -0.8775  0.6694
  422SOL    HW2 1266   3.049   0.629   2.934 -0.4582 -0.4829  1.0809
  423SOL     OW 1267   1.193   2.127   0.893 -0.2239 -0.1282  0.2380
  423SOL    HW1 1268   1.119   2.052   0.888  0.1082  0.7746  0.9421
  423SOL    HW2 1269   1.234   2.126   0.982 -1.2433  0.2881  1.4899
  424SOL     OW 1270   0.682   1.538   1.428  0.8793 -0.1730  0.2244
  424SOL    HW1 1271   0.700   1.458   1.363 -0.8984 -0.1483 -3.3360
  424SOL    HW2 1272   0.609   1.517   1.494  0.4657 -2.4767 -2.5812
  425SOL     OW 1273   3.044   2.640   2.147  0.5692 -0.3594  0.1042
  425SOL    HW1 1274   0.053   2.626   2.123 -2.3702 -0.0533 -1.1446
  425SOL    HW2 1275   2.986   2.669   2.064 -0.7228  0.1433 -1.3883
  426SOL     OW 1276   1.883   2.871   0.684 -0.0529  0.3896 -0.1456
  426SOL    HW1 1277   1.849   2.847   0.775 -0.8658 -2.3290 -2.4900
  426SOL    HW2 1278   1.894   2.966   0.660  0.6243 -3.3433 -1.3854
  427SOL     OW 1279   0.698   0.968   2.832  0.7453 -0.4599 -0.0017
  427SOL    HW1 1280   0.698   1.066   2.790 -1.6330  1.0771  0.6961
  427SOL    HW2 1281   0.681   0.902   2.760  0.0994 -0.8467 -0.4023
  428SOL     OW 1282   2.064   1.384   0.346 -0.3984  0.5662  0.0552
  428SOL    HW1 1283   2.025   1.394   0.249  0.1048 -0.0766 -2.2770
  428SOL    HW2 1284   2.170   1.388   0.348  5.0491  1.3157  2.1066
  429SOL     OW 1285   3.017   0.226   0.313 -0.0931 -0.6244  0.2676
  429SOL    HW1 1286   3.043   0.288   0.389 -2.3520 -3.3740 -0.2350
  429SOL    HW2 1287   2.923   0.190   0.339  0.2214 -0.5134  1.2724
  430SOL     OW 1288   0.606   2.758   2.379 -0.3579  0.1273  0.1070
  430SOL    HW1 1289   0.616   2.855   2.380  2.8146 -4.3437  1.1107
  430SOL    HW2 1290   0.603   2.726   2.475 -0.8722 -3.0051 -1.5311
  431SOL     OW 1291   2.370   1.144   1.385 -0.3781  0.5286 -0.7954
  431SOL    HW1 1292   2.350   1.245   1.386 -1.1680 -0.7676  0.0114
  431SOL    HW2 1293   2.436   1.113   1.455  1.8694  0.2910 -1.9044
  432SOL     OW 1294   1.846   2.313   1.962  0.3707 -0.1257  0.5703
  432SOL    HW1 1295   1.950   2.319   1.945  0.8138 -0.3182  0.8341
  432SOL    HW2 1296   1.824   2.240   2.029 -1.7608 -0.5963  0.1648
  433SOL     OW 1297   0.982   1.927   0.372  0.1804  0.7328  0.3321
  433SOL    HW1 1298   1.034   1.840   0.349  0.9562 -0.3106 -3.5240
  433SOL    HW2 1299   1.018   1.965   0.457 -0.5659 -0.0493 -1.6978
  434SOL     OW 1300   0.358   2.140   2.407  0.4254  0.9398 -0.7134
  434SOL    HW1 1301   0.413   2.135   2.495 -0.9157  0.4043  1.4405
  434SOL    HW2 1302   0.372   2.055   2.353  0.2160 -2.0424  2.1064
  435SOL     OW 1303   0.607   0.606   0.330  0.3978 -0.1632  0.6346
  435SOL    HW1 1304   0.618   0.594   0.231 -0.2920 -0.0798  0.5118
  435SOL    HW2 1305   0.582   0.697   0.359  1.6610 -1.4510 -2.4487
  436SOL     OW 1306   0.250   2.825   1.280 -0.2524  0.1073 -0.4318
  436SOL    HW1 1307   0.325   2.752   1.304  0.2006 -0.4852 -0.9430
  436SOL    HW2 1308   0.162   2.811   1.328 -0.2698  0.0821  0.3343
  437SOL     OW 1309   1.526   1.924   1.568 -0.2930 -0.3179 -0.1194
  437SOL    HW1 1310   1.459   1.943   1.645 -1.2944 -0.1470  1.1685
  437SOL    HW2 1311   1.537   2.009   1.512  1.7499  1.5319 -0.3799
  438SOL     OW 1312   0.133   1.787   0.770 -0.0993  0.0172 -0.2328
  438SOL    HW1 1313   0.159   1.795   0.869  0.3035  1.5707  1.9938
  438SOL    HW2 1314   0.221   1.801   0.719  0.3864  1.8754  0.5813
  439SOL     OW 1315   0.250   0.441   1.142  0.8152 -0.1193  0.0963
  439SOL    HW1 1316   0.210   0.404   1.230 -1.6437 -0.5866  3.9193
  439SOL    HW2 1317   0.263   0.371   1.070 -0.0678  0.5904 -0.6091
  440SOL     OW 1318   0.017   2.913   2.392  0.1045  0.3777 -0.2251
  440SOL    HW1 1319   0.088   2.844   2.418  2.3494  1.4547  0.3161
  440SOL    HW2 1320   0.033   2.938   2.297 -0.2673 -2.2934 -3.2287
  441SOL     OW 1321   2.964   0.376   1.215 -0.8582 -0.0007 -0.1069
  441SOL    HW1 1322   3.053   0.379   1.270  0.4094  1.9115  2.1537
  441SOL    HW2 1323   2.965   0.316   1.135 -4.1506 -0.3291  0.3928
  442SOL     OW 1324   1.592   2.202   2.665  0.1712  0.2546 -0.2546
  442SOL    HW1 1325   1.647   2.282   2.641 -2.0419 -4.0674 -0.6934
  442SOL    HW2 1326   1.644   2.120   2.699  1.2046 -2.9175  0.0098
  443SOL     OW 1327   0.536   1.263   2.984 -0.3664 -0.4924  0.2551
  443SOL    HW1 1328   0.440   1.281   2.949  1.9390  2.5726  0.1368
  443SOL    HW2 1329   0.599   1.252   2.906 -2.6228  1.0492  1.1651
  444SOL     OW 1330   1.461   1.684   2.070  0.0194  0.0131  0.6645
  444SOL    HW1 1331   1.410   1.693   1.984 -0.2873  1.8626  2.8928
  444SOL    HW2 1332   1.397   1.668   2.143  0.2034  2.1884 -2.0458
  445SOL     OW 1333   0.251   3.046   0.880  0.1287  0.0596 -0.1374
  445SOL    HW1 1334   0.288   0.053   0.856  1.2884  0.8830 -4.3533
  445SOL    HW2 1335   0.204   3.055   0.970 -0.5948  0.3166 -1.4796
  446SOL     OW 1336   2.278   0.555   1.274 -0.2181 -0.5565 -0.1374
  446SOL    HW1 1337   2.236   0.639   1.312  0.2803  0.8375  0.7893
  446SOL    HW2 1338   2.243   0.528   1.179 -0.4009  0.3747 -0.5653
  447SOL     OW 1339   0.392   0.959   0.015 -0.8159  0.6535  0.1126
  447SOL    HW1 1340   0.470   1.008   0.065  1.3445  0.1116  1.7456
  447SOL    HW2 1341   0.322   0.942   0.088  1.5393 -2.0739  0.5031
  448SOL     OW 1342   1.302   2.001   1.737 -0.4604  0.0188 -0.0549
  448SOL    HW1 1343   1.201   2.019   1.752 -2.0095 -1.8388 -2.2874
  448SOL    HW2 1344   1.350   2.064   1.803 -1.8473  0.5739  0.5973
  449SOL     OW 1345   1.115   1.328   0.542  0.6170  0.2724 -0.0861
  449SOL    HW1 1346   1.041   1.401   0.531  0.0922 -0.0242  0.8542
  449SOL    HW2 1347   1.084   1.237   0.501  1.7239 -0.2266 -0.6933
  450SOL     OW 1348   2.820   1.825   1.809 -0.6208  0.6166  0.3095
  450SOL    HW1 1349   2.916   1.824   1.782 -1.8214 -1.9926  0.6858
  450SOL    HW2 1350   2.811   1.799   1.907  2.1690  0.2545  0.3319
  451SOL     OW 1351   2.636   1.376   2.848  0.1938 -0.1524 -0.0533
  451SOL    HW1 1352   2.622   1.407   2.939  1.2492 -2.5273  1.2957
  451SOL    HW2 1353   2.559   1.396   2.780 -1.4427  1.5504  0.7283
  452SOL     OW 1354   1.675   0.615   1.275  0.0159  0.2749  0.4720
  452SOL    HW1 1355   1.613   0.663   1.340 -1.7711 -1.6061  0.8034
  452SOL    HW2 1356   1.637   0.609   1.181 -0.2698  1.4363 -0.6938
  453SOL     OW 1357   1.915   1.159   1.068  0.3868 -0.3034 -0.4768
  453SOL    HW1 1358   1.985   1.205   1.014  3.7527 -1.2585  1.4649
  453SOL    HW2 1359   1.822   1.198   1.043  2.0452 -0.8114  0.7239
  454SOL     OW 1360   2.939   0.877   0.261  0.2916 -0.0102  0.1090
  454SOL    HW1 1361   3.021   0.817   0.261  3.7237 -1.6079 -0.3941
  454SOL    HW2 1362   2.877   0.848   0.339 -0.2844 -0.1065 -0.4897
  455SOL     OW 1363   2.639   1.639   1.146  0.7690 -0.1979  0.2356
  455SOL    HW1 1364   2.715   1.631   1.076  0.8401  3.7048  0.0729
  455SOL    HW2 1365   2.614   1.547   1.190 -1.2526 -2.5656  0.1120
  456SOL     OW 1366   0.758   0.077   1.327 -0.3009 -0.0318  0.5291
  456SOL    HW1 1367   0.668   0.118   1.356  1.8796 -3.7918 -1.0644
  456SOL    HW2 1368   0.777   0.003   1.391  1.2826 -0.1248  3.2814
  457SOL     OW 1369   1.679   3.061   1.047 -0.0617 -0.2998 -0.1569
  457SOL    HW1 1370   1.594   0.006   1.087  3.1334 -1.2468  1.4845
  457SOL    HW2 1371   1.735   0.053   1.019  1.6507 -1.7903  0.5458
  458SOL     OW 1372   2.551   0.239   0.613 -0.0764 -0.1078  0.4172
  458SOL    HW1 1373   2.534   0.167   0.685 -2.3522 -0.2704  1.6950
  458SOL    HW2 1374   2.533   0.334   0.646 -1.7387 -1.9635 -3.2479
  459SOL     OW 1375   1.841   0.511   2.982 -0.2889 -0.0977  0.8382
  459SOL    HW1 1376   1.859   0.530   3.082 -0.4728 -0.2613  1.1100
  459SOL    HW2 1377   1.799   0.421   2.967  2.0727 -3.3603  1.0435
  460SOL     OW 1378   3.066   2.529   2.753  0.1134 -0.2518 -0.4290
  460SOL    HW1 1379   3.024   2.606   2.810 -1.7818  0.0117 -2.3507
  460SOL    HW2 1380   0.074   2.552   2.718  1.6661  0.0877 -1.2359
  461SOL     OW 1381   0.683   1.667   0.176  0.0887 -0.0401 -0.7796
  461SOL    HW1 1382   0.632   1.707   0.260 -0.9756 -0.8808  1.2122
  461SOL    HW2 1383   0.625   1.624   0.106  0.9675 -0.1791 -0.7567
  462SOL     OW 1384   2.125   2.371   0.729  0.0209 -0.1951 -0.2562
  462SOL    HW1 1385   2.138   2.443   0.660 -0.9416 -3.0047 -2.2457
  462SOL    HW2 1386   2.061   2.396   0.802  0.2610 -2.7076 -2.6084
  463SOL     OW 1387   0.059   0.600   0.548  0.1411  0.0075  0.1109
  463SOL    HW1 1388   0.093   0.561   0.634  1.1683 -2.0392  0.8686
  463SOL    HW2 1389   0.068   0.704   0.543  1.8678 -0.7321 -0.0628
  464SOL     OW 1390   0.728   2.437   0.546  0.1759 -0.5013  0.1704
  464SOL    HW1 1391   0.625   2.434   0.552 -2.2331  1.9920  2.8466
  464SOL    HW2 1392   0.777   2.356   0.512  0.0913  1.2596 -1.6899
  465SOL     OW 1393   2.389   0.756   0.631 -0.1476  0.2307  0.6526
  465SOL    HW1 1394   2.287   0.747   0.639 -0.5931  2.3912 -3.2574
  465SOL    HW2 1395   2.410   0.778   0.537  1.5122 -0.2672  1.6308
  466SOL     OW 1396   2.270   0.188   0.059  0.1216 -0.0559 -0.1001
  466SOL    HW1 1397   2.260   0.205   0.158  0.7465  2.5368 -2.3859
  466SOL    HW2 1398   2.235   0.094   0.029 -3.4305 -1.3708  0.4097
  467SOL     OW 1399   1.108   0.657   1.878 -0.2681 -0.1325 -0.1891
  467SOL    HW1 1400   1.146   0.668   1.783 -2.0191  2.7798 -3.2927
  467SOL    HW2 1401   1.183   0.664   1.945  1.3790 -0.0836  0.8404
  468SOL     OW 1402   3.074   0.516   2.215  0.0299  0.2156 -0.3086
  468SOL    HW1 1403   0.074   0.563   2.204 -1.0596  2.2660 -1.5060
  468SOL    HW2 1404   2.999   0.584   2.237  0.5751 -1.1252 -0.4288
  469SOL     OW 1405   0.842   2.902   2.691 -0.2122 -0.4066  0.4505
  469SOL    HW1 1406   0.811   2.808   2.712  1.3927 -1.3633 -1.5114
  469SOL    HW2 1407   0.767   2.953   2.638 -1.3873  0.3985 -0.6392
  470SOL     OW 1408   1.714   1.310   2.072 -0.0198 -0.0353  0.2283
  470SOL    HW1 1409   1.615   1.331   2.099  0.9898 -1.9659  4.5460
  470SOL    HW2 1410   1.746   1.368   1.995  0.7726  2.6537 -1.6456
  471SOL     OW 1411   2.680   1.147   0.090  0.1622 -0.2227 -0.0532
  471SOL    HW1 1412   2.634   1.224   0.038 -1.5456  0.1890  1.6539
  471SOL    HW2 1413   2.782   1.158   0.090  2.0718  1.1562 -2.9370
  472SOL     OW 1414   0.269   2.746   0.378  0.0024 -0.3754 -0.0571
  472SOL    HW1 1415   0.171   2.771   0.366  2.5099 -0.3989 -1.3287
  472SOL    HW2 1416   0.295   2.723   0.476  0.9996 -0.6205  1.9858
  473SOL     OW 1417   0.912   0.097   2.739  0.0097 -0.0980 -0.0668
  473SOL    HW1 1418   0.822   0.132   2.779 -1.3879  0.4203 -0.1313
  473SOL    HW2 1419   0.919   3.082   2.750  1.5693 -2.0468  1.8817
  474SOL     OW 1420   1.616   3.018   2.100 -0.3874  0.4562 -0.3256
  474SOL    HW1 1421   1.612   2.918   2.070  0.5352  0.9951 -0.1976
  474SOL    HW2 1422   1.705   3.062   2.076  1.8485 -0.1593 -0.8361
  475SOL     OW 1423   1.045   2.596   0.306  0.6110 -0.0962 -0.4362
  475SOL    HW1 1424   1.095   2.669   0.261  1.6084 -1.5509  1.7376
  475SOL    HW2 1425   0.949   2.622   0.317  1.1143  2.1143  1.1052
  476SOL     OW 1426   0.528   0.687   0.890  0.1094  0.2365  0.4807
  476SOL    HW1 1427   0.438   0.726   0.863 -0.8156 -0.6237  0.8417
  476SOL    HW2 1428   0.565   0.613   0.833  1.0819  1.6841 -1.2390
  477SOL     OW 1429   1.749   2.131   1.241 -0.1883  0.6672  0.3601
  477SOL    HW1 1430   1.739   2.115   1.141  0.1117  0.6930  1.3401
  477SOL    HW2 1431   1.840   2.167   1.274 -3.0511  1.0777 -1.6335
  478SOL     OW 1432   0.448   1.267   2.079  0.0172 -0.4501  0.7879
  478SOL    HW1 1433   0.502   1.315   2.011 -1.1290  0.9385  1.5579
  478SOL    HW2 1434   0.410   1.180   2.044  2.4812  0.9503  2.9074
  479SOL     OW 1435   0.529   0.101   0.707  0.2343 -0.6138  0.2949
  479SOL    HW1 1436   0.605   0.047   0.741  0.2945  1.0263 -1.1605
  479SOL    HW2 1437   0.497   0.068   0.618  0.8377 -0.2976  1.8547
  480SOL     OW 1438   2.539   2.502   0.008 -0.1915  0.2825 -0.1430
  480SOL    HW1 1439   2.468   2.462   3.038 -0.9169  0.6579  1.9749
  480SOL    HW2 1440   2.634   2.474   3.062  3.6250 -2.0870  0.4438
  481SOL     OW 1441   2.564   0.611   1.171 -0.1271  0.1918  0.3325
  481SOL    HW1 1442   2.477   0.570   1.213 -2.9582  2.0490  0.4696
  481SOL    HW2 1443   2.609   0.671   1.238 -0.4768 -1.8784 -1.6877
  482SOL     OW 1444   1.286   2.473   1.746 -0.5390 -0.0023 -0.7320
  482SOL    HW1 1445   1.331   2.433   1.664 -3.1969  0.5302  1.1888
  482SOL    HW2 1446   1.351   2.508   1.820  0.0107 -2.0713  0.2763
  483SOL     OW 1447   0.192   1.475   2.778 -0.3635  0.3037 -0.0604
  483SOL    HW1 1448   0.099   1.442   2.783  2.3459 -0.2561  1.8000
  483SOL    HW2 1449   0.247   1.396   2.812  1.2365 -2.0838  0.5458
  484SOL     OW 1450   1.328   1.935   2.386  0.0858  0.0242 -0.2080
  484SOL    HW1 1451   1.238   1.901   2.349  0.1978 -1.5895 -0.6280
  484SOL    HW2 1452   1.396   1.944   2.309  1.5038 -0.2196  0.7578
  485SOL     OW 1453   0.084   0.173   2.506  0.1855 -0.2897 -0.6514
  485SOL    HW1 1454   0.024   0.200   2.426 -1.0761  0.9147  0.5833
  485SOL    HW2 1455   0.064   0.080   2.537  1.1155 -0.9234  0.4407
  486SOL     OW 1456   1.656   0.002   0.632  0.4267  0.2569 -0.4815
  486SOL    HW1 1457   1.601   0.073   0.583  1.1374  1.3485  0.8475
  486SOL    HW2 1458   1.755   0.034   0.642  1.1765  2.1228  1.4634
  487SOL     OW 1459   1.187   2.564   1.001 -0.2263 -0.7080 -0.2683
  487SOL    HW1 1460   1.169   2.506   0.921 -0.3823 -0.4606 -0.6295
  487SOL    HW2 1461   1.180   2.667   0.995 -0.8596  0.4938  1.8199
  488SOL     OW 1462   1.776   0.879   0.751  0.4100 -0.4939 -0.4512
  488SOL    HW1 1463   1.753   0.882   0.852 -0.4342  2.1217  0.8412
  488SOL    HW2 1464   1.870   0.897   0.749 -2.9806 -1.8911  0.2534
  489SOL     OW 1465   1.201   2.733   1.364 -0.0659  0.0978  0.1919
  489SOL    HW1 1466   1.277   2.699   1.417 -4.4345  0.1607 -3.0439
  489SOL    HW2 1467   1.134   2.789   1.422 -2.3217  2.5429  1.0803
  490SOL     OW 1468   0.874   0.669   0.532 -0.1138  0.4356  0.1671
  490SOL    HW1 1469   0.864   0.765   0.562  0.2206 -0.4194 -0.3133
  490SOL    HW2 1470   0.900   0.667   0.434 -2.6767 -0.7523  0.5390
  491SOL     OW 1471   1.419   2.785   3.078 -0.0273  0.3603 -0.3132
  491SOL    HW1 1472   1.361   2.770   0.072  1.2223 -0.7732  1.1851
  491SOL    HW2 1473   1.358   2.812   2.998 -0.0044  1.0556 -1.6179
  492SOL     OW 1474   1.443   1.384   2.159 -0.2105  0.2153 -0.1994
  492SOL    HW1 1475   1.400   1.473   2.187  0.2946  0.3246  0.4393
  492SOL    HW2 1476   1.455   1.322   2.240 -1.7481  0.2475  1.7481
  493SOL     OW 1477   3.068   1.766   0.187 -0.3228  0.2675  0.1220
  493SOL    HW1 1478   2.989   1.747   0.127 -2.0979  0.3219 -1.4540
  493SOL    HW2 1479   3.072   1.694   0.259  0.9811 -0.1687 -3.0652
  494SOL     OW 1480   2.086   1.608   0.469 -0.2836  0.1530 -0.1550
  494SOL    HW1 1481   2.059   1.608   0.567  1.0116  0.0064 -0.6929
  494SOL    HW2 1482   2.075   1.517   0.422 -1.9326 -1.4219  1.0774
  495SOL     OW 1483   0.168   0.760   2.448  0.4165 -0.2970 -0.4096
  495SOL    HW1 1484   0.152   0.779   2.348 -2.7132  1.6444  1.3576
  495SOL    HW2 1485   0.206   0.840   2.499  0.4780 -0.0969  0.2707
  496SOL     OW 1486   2.775   3.047   2.326 -0.4269  0.3026 -0.2818
  496SOL    HW1 1487   2.795   3.078   2.231  1.6032  0.9215 -0.2749
  496SOL    HW2 1488   2.811   2.954   2.338 -0.0021 -0.2178 -0.2219
  497SOL     OW 1489   2.577   0.892   0.732 -0.2303 -0.2920 -0.3217
  497SOL    HW1 1490   2.506   0.844   0.682 -0.4540  1.0042 -2.4051
  497SOL    HW2 1491   2.651   0.834   0.770  1.9681  1.0941  0.4827
  498SOL     OW 1492   2.975   2.641   3.077 -1.0449 -0.2401  0.3222
  498SOL    HW1 1493   3.018   2.727   3.046  0.6249  0.1732  0.8604
  498SOL    HW2 1494   3.055   2.577   0.006  2.5103 -0.4011  1.2817
  499SOL     OW 1495   1.498   2.430   0.845 -0.0137  0.2749  0.0149
  499SOL    HW1 1496   1.395   2.406   0.841 -0.2388  0.3802 -2.2474
  499SOL    HW2 1497   1.544   2.358   0.785 -0.0055 -1.0527  1.1029
  500SOL     OW 1498   1.139   0.402   2.602 -0.0296 -0.4745  0.0101
  500SOL    HW1 1499   1.066   0.426   2.664  0.4087 -2.1255 -1.3966
  500SOL    HW2 1500   1.196   0.485   2.583 -1.0828  1.6608  0.0294
  501SOL     OW 1501   0.991   0.227   1.357  0.2275  0.6148 -0.2411
  501SOL    HW1 1502   1.069   0.165   1.348  0.4963  0.0476 -0.1490
  501SOL    HW2 1503   0.902   0.176   1.345 -2.0146 -2.0519  0.4512
  502SOL     OW 1504   0.017   0.071   2.136  0.1583  0.0068  0.3540
  502SOL    HW1 1505   0.085   0.014   2.178 -0.4342  1.1767 -2.5861
  502SOL    HW2 1506   0.002   0.155   2.192  0.1185  1.6884 -0.1568
  503SOL     OW 1507   1.439   2.168   2.196  0.2220  0.9724 -0.4891
  503SOL    HW1 1508   1.494   2.235   2.249 -2.6689  0.0874  1.0275
  503SOL    HW2 1509   1.476   2.071   2.206 -1.0142 -0.4684  0.7513
  504SOL     OW 1510   2.132   2.803   1.662 -0.1138 -0.0389  0.1527
  504SOL    HW1 1511   2.234   2.798   1.682  2.0530  1.0773 -1.1002
  504SOL    HW2 1512   2.105   2.900   1.649 -2.0457 -1.2499  0.8129
  505SOL     OW 1513   2.622   1.068   1.556  0.0854  0.1313 -0.1489
  505SOL    HW1 1514   2.720   1.039   1.567  1.3051  2.1665 -2.9204
  505SOL    HW2 1515   2.567   0.987   1.575 -0.5251  2.3378 -1.3971
  506SOL     OW 1516   0.284   1.472   2.186  0.0472 -0.3261  0.2958
  506SOL    HW1 1517   0.190   1.471   2.149  3.0124  2.6362  2.1250
  506SOL    HW2 1518   0.339   1.391   2.156 -0.3149  0.0501  0.9912
  507SOL     OW 1519   0.096   2.975   1.513 -0.3004 -0.8054  0.1190
  507SOL    HW1 1520   0.080   3.073   1.479 -1.8284  0.5156  3.5853
  507SOL    HW2 1521   0.024   2.913   1.480 -0.4843  0.0647  3.7356
  508SOL     OW 1522   1.374   0.511   1.466 -0.4278 -0.0730  0.3486
  508SOL    HW1 1523   1.433   0.594   1.460  0.8196 -1.0044 -2.5050
  508SOL    HW2 1524   1.402   0.435   1.401 -1.3840 -1.3725  0.5195
  509SOL     OW 1525   1.128   2.324   1.395  0.1093 -0.6824 -0.1555
  509SOL    HW1 1526   1.083   2.310   1.300  0.2015  1.0690 -2.3639
  509SOL    HW2 1527   1.059   2.328   1.466  1.3684  0.5831  0.3430
  510SOL     OW 1528   2.595   1.396   0.047 -0.2055 -0.0952 -0.1633
  510SOL    HW1 1529   2.495   1.398   0.051  0.6387 -0.6649 -0.1488
  510SOL    HW2 1530   2.638   1.382   0.138  2.4158 -1.0716  3.0780
  511SOL     OW 1531   0.717   1.375   1.186 -0.2681 -0.1656  0.1532
  511SOL    HW1 1532   0.620   1.352   1.217 -1.1336  1.9188  2.0845
  511SOL    HW2 1533   0.722   1.374   1.085 -2.5928  0.7957  1.2171
  512SOL     OW 1534   2.782   2.357   0.212  0.2727 -0.7131 -0.0931
  512SOL    HW1 1535   2.738   2.302   0.280  0.7264  0.9461  0.0674
  512SOL    HW2 1536   2.766   2.312   0.124  0.7748  0.8659  1.2969
  513SOL     OW 1537   0.496   1.532   2.653 -0.2149 -0.0518 -0.5628
  513SOL    HW1 1538   0.477   1.561   2.556 -1.2689 -1.0752 -3.7683
  513SOL    HW2 1539   0.410   1.537   2.704  3.7730 -0.5490 -0.7945
  514SOL     OW 1540   0.043   2.372   2.981 -0.3992 -0.0620 -0.2619
  514SOL    HW1 1541   0.118   2.434   3.010 -0.8929 -1.5539  0.3046
  514SOL    HW2 1542   0.010   2.392   2.887  0.9391 -0.8886 -0.5451
  515SOL     OW 1543   1.438   1.013   2.180  0.5782 -0.1251  0.4123
  515SOL    HW1 1544   1.382   1.054   2.103  0.5168  0.6766 -0.8980
  515SOL    HW2 1545   1.488   1.085   2.231  1.6007 -0.3703 -1.5682
  516SOL     OW 1546   1.967   2.186   0.568  0.0615 -0.1572  0.1339
  516SOL    HW1 1547   2.009   2.141   0.486  0.9249  0.1432 -0.4985
  516SOL    HW2 1548   2.041   2.232   0.622 -2.5442 -3.5573  0.8748
  517SOL     OW 1549   1.376   1.449   0.558  0.0896  0.2545 -0.7470
  517SOL    HW1 1550   1.295   1.384   0.556 -2.4836  0.0817  0.6586
  517SOL    HW2 1551   1.400   1.489   0.465 -0.4361  0.6709 -1.7251
  518SOL     OW 1552   2.042   2.272   2.246 -0.3106  0.1529  0.0011
  518SOL    HW1 1553   1.967   2.214   2.210 -1.8249 -0.0046  0.5160
  518SOL    HW2 1554   2.016   2.327   2.328  0.0171  0.0131 -1.7545
  519SOL     OW 1555   1.742   2.172   0.955  0.1572  0.0998 -0.1406
  519SOL    HW1 1556   1.773   2.269   0.953  1.4295 -0.9389  1.1748
  519SOL    HW2 1557   1.774   2.125   0.871 -1.6563 -2.3622  1.9282
  520SOL     OW 1558   2.660   2.445   2.560  0.0627 -0.3334 -0.4226
  520SOL    HW1 1559   2.718   2.371   2.524  0.1276 -0.0251 -0.4056
  520SOL    HW2 1560   2.566   2.418   2.535  1.1005 -1.1098  0.5372
  521SOL     OW 1561   0.012   1.445   2.076  0.0895  0.2025 -0.4852
  521SOL    HW1 1562   3.030   1.505   2.118 -0.3650 -0.8188 -2.3342
  521SOL    HW2 1563   3.058   1.375   2.017 -0.7263 -1.2781  0.0378
  522SOL     OW 1564   0.614   0.524   2.064 -1.0495  0.6907 -0.8251
  522SOL    HW1 1565   0.563   0.544   1.979 -1.1932  0.6368 -0.3840
  522SOL    HW2 1566   0.709   0.501   2.044 -1.8042  0.4457  2.5217
  523SOL     OW 1567   0.580   1.921   1.003 -0.2212 -0.8076 -0.2387
  523SOL    HW1 1568   0.621   1.955   1.091  0.3952  1.0900  0.3798
  523SOL    HW2 1569   0.482   1.942   1.003  1.4940 -0.4181  0.4895
  524SOL     OW 1570   1.654   2.883   0.421  0.3774  0.4029  0.0416
  524SOL    HW1 1571   1.743   2.851   0.386  0.7954 -0.1147 -0.1336
  524SOL    HW2 1572   1.670   2.957   0.488 -0.2055 -0.4883 -2.8015
  525SOL     OW 1573   2.455   0.575   1.623 -0.3547  0.3835  0.7067
  525SOL    HW1 1574   2.369   0.594   1.578 -0.7436 -2.8087 -0.4794
  525SOL    HW2 1575   2.513   0.500   1.583 -0.2270  1.0630 -1.0230
  526SOL     OW 1576   0.833   2.585   0.737 -0.4617 -0.6280  0.3333
  526SOL    HW1 1577   0.912   2.633   0.696  0.3922 -1.0179 -0.1537
  526SOL    HW2 1578   0.790   2.521   0.667 -0.3852  1.2803 -1.0862
  527SOL     OW 1579   2.688   2.567   0.369 -0.1883 -0.3141  0.6161
  527SOL    HW1 1580   2.588   2.550   0.395 -3.5829  2.1614 -0.7044
  527SOL    HW2 1581   2.723   2.496   0.302  2.0227 -1.2054  2.0910
  528SOL     OW 1582   2.314   0.461   3.039 -0.5865 -0.1250 -1.0123
  528SOL    HW1 1583   2.308   0.511   0.040  0.4564 -2.2045  1.8332
  528SOL    HW2 1584   2.313   0.364   3.066 -1.1553 -0.5518 -1.2574
  529SOL     OW 1585   1.535   1.609   2.431 -0.0791  0.0586 -0.4154
  529SOL    HW1 1586   1.594   1.547   2.485 -0.8237  0.5075  0.3962
  529SOL    HW2 1587   1.582   1.651   2.351  1.5054  1.3804  1.6091
  530SOL     OW 1588   2.276   0.577   0.212 -0.3931 -0.4326 -0.4182
  530SOL    HW1 1589   2.187   0.600   0.251  3.6678 -1.2182 -1.2080
  530SOL    HW2 1590   2.334   0.529   0.285  1.1529 -0.7681 -1.4480
  531SOL     OW 1591   1.489   0.854   2.875 -0.8449  0.2555  0.3707
  531SOL    HW1 1592   1.559   0.800   2.827 -0.7927  0.0933 -1.5616
  531SOL    HW2 1593   1.455   0.927   2.813  1.7910 -1.6979 -2.0371
  532SOL     OW 1594   1.587   0.692   0.450  0.4831 -0.1070  0.9055
  532SOL    HW1 1595   1.617   0.640   0.528 -0.1056 -0.8611 -0.6217
  532SOL    HW2 1596   1.603   0.655   0.353  1.6263  0.3000  0.6857
  533SOL     OW 1597   1.025   1.010   2.055  0.7684 -0.1430  0.0810
  533SOL    HW1 1598   0.971   1.085   2.094  1.8134 -1.1722 -3.3354
  533SOL    HW2 1599   0.963   0.966   1.990  1.6182  1.0241 -1.4886
  534SOL     OW 1600   1.542   0.245   2.634 -0.0991 -0.0677  0.4576
  534SOL    HW1 1601   1.560   0.171   2.700 -1.4635  0.6758 -0.6460
  534SOL    HW2 1602   1.441   0.270   2.632 -4.2388  0.8051 -0.7568
  535SOL     OW 1603   0.321   0.265   0.281  0.0060 -0.1011 -0.0525
  535SOL    HW1 1604   0.284   0.187   0.335  0.9110 -1.5271  0.4013
  535SOL    HW2 1605   0.296   0.252   0.184  0.2531 -1.8374 -1.4679
  536SOL     OW 1606   0.833   0.270   0.696 -0.0185  0.3538 -0.5067
  536SOL    HW1 1607   0.799   0.294   0.604  1.3208  1.4888  1.1191
  536SOL    HW2 1608   0.760   0.269   0.764  1.9670  0.9849 -0.1589
  537SOL     OW 1609   1.541   0.913   0.598  0.8587  0.4142  0.1046
  537SOL    HW1 1610   1.621   0.938   0.653  0.9014 -0.9984 -0.9534
  537SOL    HW2 1611   1.558   0.831   0.541 -2.7214  0.9204 -1.7951
  538SOL     OW 1612   0.007   2.128   0.005 -0.7003 -0.3112  0.1023
  538SOL    HW1 1613   0.026   2.231   3.067  0.2298  2.3899 -0.2439
  538SOL    HW2 1614   3.010   2.097   3.052  0.4571 -0.5785  1.9070
  539SOL     OW 1615   1.950   1.723   0.109 -0.3425  0.1784  0.1190
  539SOL    HW1 1616   1.909   1.806   0.160 -0.0932  4.0304 -0.5488
  539SOL    HW2 1617   1.942   1.642   0.170 -1.7614  0.6052 -1.9600
  540SOL     OW 1618   0.453   2.647   1.283 -0.3771 -0.5094 -0.2008
  540SOL    HW1 1619   0.487   2.575   1.347  4.1112 -0.7867 -0.0306
  540SOL    HW2 1620   0.485   2.629   1.188 -3.0401 -1.2189  2.4111
  541SOL     OW 1621   1.990   2.963   2.238 -0.0640 -0.5363 -0.1870
  541SOL    HW1 1622   2.027   3.044   2.289 -0.5091  0.9844 -0.2396
  541SOL    HW2 1623   1.949   2.988   2.148 -0.0649 -0.9628  1.9187
  542SOL     OW 1624   0.164   0.571   2.659 -0.4477 -0.2069  0.1353
  542SOL    HW1 1625   0.085   0.596   2.715  0.9989 -0.2415 -1.2949
  542SOL    HW2 1626   0.167   0.620   2.570 -0.9379  1.1611  3.1531
  543SOL     OW 1627   3.058   1.290   1.166 -0.2410 -0.6790  0.5439
  543SOL    HW1 1628   0.039   1.219   1.185 -1.3460 -1.5789  0.7336
  543SOL    HW2 1629   2.982   1.243   1.124  2.6139 -1.2532 -1.2625
  544SOL     OW 1630   2.539   0.178   1.017  0.2071  0.0682 -0.5883
  544SOL    HW1 1631   2.548   0.275   0.996  1.1963 -2.1493  2.1701
  544SOL    HW2 1632   2.530   0.118   0.935 -1.7283 -1.9382  1.2767
  545SOL     OW 1633   1.689   2.502   0.463  0.5841 -0.0418 -0.5027
  545SOL    HW1 1634   1.638   2.572   0.407 -0.6813 -0.3657 -2.0907
  545SOL    HW2 1635   1.631   2.419   0.486  1.5223 -3.4413  1.9811
  546SOL     OW 1636   2.081   2.634   1.861 -0.1789  0.0613 -0.0463
  546SOL    HW1 1637   2.121   2.541   1.844 -0.5583 -1.9042  0.4689
  546SOL    HW2 1638   2.095   2.695   1.778 -0.3730  0.7107 -1.4843
  547SOL     OW 1639   0.210   2.976   2.177  0.1358 -0.2535 -0.2969
  547SOL    HW1 1640   0.288   3.026   2.213 -1.6464  0.8524  2.6509
  547SOL    HW2 1641   0.231   2.929   2.090 -2.4568  0.0055  2.9619
  548SOL     OW 1642   1.808   1.301   2.801  0.4787 -0.0145  1.0697
  548SOL    HW1 1643   1.741   1.254   2.861  3.6172 -0.4203  0.7630
  548SOL    HW2 1644   1.886   1.239   2.779 -1.0104  2.1823 -0.0840
  549SOL     OW 1645   3.021   1.136   0.453 -0.0167 -0.5907 -0.0049
  549SOL    HW1 1646   2.926   1.105   0.486 -0.3088 -1.9200  0.3641
  549SOL    HW2 1647   3.031   1.102   0.356  0.8941  0.3070  0.2328
  550SOL     OW 1648   1.826   2.055   0.731  0.2454  0.2477 -0.1890
  550SOL    HW1 1649   1.885   2.105   0.665 -0.0032 -2.2041 -0.3990
  550SOL    HW2 1650   1.779   1.985   0.674 -0.3026  0.6708 -2.5601
  551SOL     OW 1651   1.273   0.428   0.779  0.2157 -0.3178  0.1474
  551SOL    HW1 1652   1.368   0.445   0.817  2.5433  1.1460  1.6363
  551SOL    HW2 1653   1.265   0.337   0.732 -0.0469  1.1771 -1.4272
  552SOL     OW 1654   2.877   2.770   2.367 -0.0058  0.3192  0.4533
  552SOL    HW1 1655   2.951   2.819   2.408 -1.8541 -1.0046 -1.4155
  552SOL    HW2 1656   2.901   2.720   2.284  1.7780 -1.2449  2.2927
  553SOL     OW 1657   3.048   3.013   2.640  0.2420  0.5314  0.2206
  553SOL    HW1 1658   2.958   3.042   2.671  1.7479 -2.0517 -0.7375
  553SOL    HW2 1659   3.056   2.979   2.542 -1.2109 -0.6035 -1.0537
  554SOL     OW 1660   0.834   2.891   1.200 -0.0599 -0.5209  0.6110
  554SOL    HW1 1661   0.804   2.816   1.261 -1.0960 -0.3334 -0.4280
  554SOL    HW2 1662   0.902   2.947   1.252 -1.2664 -2.3414 -1.1660
  555SOL     OW 1663   2.441   2.422   2.084 -0.0004 -0.1667  0.3719
  555SOL    HW1 1664   2.451   2.453   1.989 -0.3619 -2.4632 -0.9619
  555SOL    HW2 1665   2.529   2.372   2.111  2.6886  0.0820  1.5082
  556SOL     OW 1666   1.278   0.221   2.759 -0.5044  0.8405 -0.0308
  556SOL    HW1 1667   1.242   0.301   2.705  0.5561 -0.9507 -0.3724
  556SOL    HW2 1668   1.251   0.128   2.728 -0.4633  1.1384 -1.6658
  557SOL     OW 1669   0.363   1.634   2.434  0.0260 -0.1535  0.7807
  557SOL    HW1 1670   0.293   1.698   2.478 -0.9617  0.0255 -0.5266
  557SOL    HW2 1671   0.326   1.596   2.348  0.7525 -1.4187  1.1913
  558SOL     OW 1672   2.118   0.958   2.315  0.5238  0.5290  0.4435
  558SOL    HW1 1673   2.199   0.894   2.321  0.7891  0.4294  0.2404
  558SOL    HW2 1674   2.061   0.932   2.235 -0.3057 -1.4122  0.4380
  559SOL     OW 1675   2.557   2.091   2.179  0.0468 -0.2745 -0.5223
  559SOL    HW1 1676   2.625   2.165   2.181 -1.7453  0.1097  2.9706
  559SOL    HW2 1677   2.473   2.119   2.232  2.0153  0.3063 -0.4047
  560SOL     OW 1678   2.671   0.840   2.205  0.4070  0.3889  0.4447
  560SOL    HW1 1679   2.590   0.791   2.237 -1.1222  0.0088  1.3831
  560SOL    HW2 1680   2.663   0.874   2.107  3.1440 -1.4386 -3.5111
  561SOL     OW 1681   0.574   0.345   3.084 -0.1158 -0.0413 -0.2126
  561SOL    HW1 1682   0.476   0.345   3.068  3.8897 -0.0010 -1.3689
  561SOL    HW2 1683   0.614   0.258   3.046  1.5770 -1.6600 -1.2186
  562SOL     OW 1684   1.046   1.259   1.447 -0.0448 -0.0340 -0.1134
  562SOL    HW1 1685   1.077   1.320   1.524 -0.6582  1.7353  1.0137
  562SOL    HW2 1686   0.955   1.214   1.467 -1.0034  2.2494 -2.2755
  563SOL     OW 1687   1.646   3.064   2.764 -0.2625 -0.2891 -0.0164
  563SOL    HW1 1688   1.612   3.014   2.681 -1.0251 -2.1699 -0.3886
  563SOL    HW2 1689   1.610   3.011   2.844 -1.2281 -1.7044 -0.9466
  564SOL     OW 1690   3.021   2.144   1.025 -0.3372 -0.2038 -0.4246
  564SOL    HW1 1691   2.925   2.141   1.064 -3.1735 -2.2752 -0.9638
  564SOL    HW2 1692   0.000   2.113   1.093 -2.0358  3.1906 -0.9574
  565SOL     OW 1693   0.563   2.345   2.102  0.2756 -0.1325 -0.0041
  565SOL    HW1 1694   0.646   2.391   2.060 -0.8463  2.4610 -2.2458
  565SOL    HW2 1695   0.589   2.253   2.138  3.3297  0.7375  0.4720
  566SOL     OW 1696   1.225   2.537   2.065 -0.3590  0.4577 -0.0549
  566SOL    HW1 1697   1.201   2.445   2.099 -0.9146  0.6613 -1.4007
  566SOL    HW2 1698   1.320   2.525   2.021  1.2286  0.4209  1.4342
  567SOL     OW 1699   1.963   2.390   0.979 -0.2588  0.9838  0.1038
  567SOL    HW1 1700   1.976   2.398   1.080  1.8161  0.5075 -1.5475
  567SOL    HW2 1701   1.905   2.468   0.942 -0.2243  0.3021 -1.4726
  568SOL     OW 1702   2.110   0.719   0.658 -0.5314 -0.2172  0.3211
  568SOL    HW1 1703   2.089   0.816   0.680 -1.8242  1.4683  0.1781
  568SOL    HW2 1704   2.032   0.661   0.682  0.6800  1.8526  0.6486
  569SOL     OW 1705   2.877   1.730   2.522  0.5293 -0.1795 -0.0923
  569SOL    HW1 1706   2.959   1.671   2.519  1.5869  3.0461 -0.5697
  569SOL    HW2 1707   2.817   1.691   2.591  1.6621  0.3196 -1.4790
  570SOL     OW 1708   2.989   0.154   1.047 -0.0571  0.3808 -0.6624
  570SOL    HW1 1709   3.082   0.116   1.075 -0.4079  0.3038  2.0946
  570SOL    HW2 1710   2.911   0.086   1.047 -0.8919 -1.4518  0.2172
  571SOL     OW 1711   3.045   0.487   1.553  0.9884 -0.6664 -0.1268
  571SOL    HW1 1712   0.021   0.551   1.589 -3.5172 -1.9813 -0.3073
  571SOL    HW2 1713   3.031   0.411   1.618  2.5506 -0.9745 -1.5734
  572SOL     OW 1714   2.778   2.381   0.804 -0.0793  0.2541  0.0652
  572SOL    HW1 1715   2.687   2.367   0.756 -2.5906 -0.7330 -1.9225
  572SOL    HW2 1716   2.838   2.297   0.813  1.8557 -0.1524  0.7650
  573SOL     OW 1717   0.900   0.586   2.962  0.1964  0.2709  0.0460
  573SOL    HW1 1718   0.827   0.578   3.034  0.7548 -0.3872  0.5983
  573SOL    HW2 1719   0.936   0.679   2.969  1.0704  1.3503  1.8766
  574SOL     OW 1720   3.014   2.976   3.087  0.2589 -0.0247  0.4019
  574SOL    HW1 1721   2.928   2.937   0.043 -2.9629  0.4805 -0.0663
  574SOL    HW2 1722   3.080   3.015   0.063 -2.0911 -1.3824 -0.2063
  575SOL     OW 1723   1.317   2.173   1.152  0.4079 -0.4714 -0.5316
  575SOL    HW1 1724   1.230   2.225   1.157  1.4393  1.4092 -0.8840
  575SOL    HW2 1725   1.396   2.235   1.152 -3.1431  1.9387 -0.0387
  576SOL     OW 1726   0.811   2.571   1.041 -0.2133  0.1305 -0.6105
  576SOL    HW1 1727   0.845   2.475   1.015  0.4358 -1.4790 -2.7450
  576SOL    HW2 1728   0.872   2.612   1.112 -0.8777  1.5937  3.1457
  577SOL     OW 1729   2.262   1.705   1.267 -0.3016 -0.3894  0.2332
  577SOL    HW1 1730   2.315   1.706   1.352  0.7536  1.1773 -1.1714
  577SOL    HW2 1731   2.253   1.799   1.235  0.0969  1.2057 -0.4223
  578SOL     OW 1732   1.588   0.300   0.275  0.2795  0.4567 -0.6742
  578SOL    HW1 1733   1.575   0.399   0.281  0.9302  0.2609  0.1322
  578SOL    HW2 1734   1.525   0.251   0.209 -0.0491  0.0882 -2.0700
  579SOL     OW 1735   2.386   1.047   2.826  0.5161  0.1607 -0.0766
  579SOL    HW1 1736   2.444   1.019   2.905 -0.4292 -1.7447 -2.9653
  579SOL    HW2 1737   2.319   0.967   2.805 -1.6964 -0.1692 -0.3089
  580SOL     OW 1738   1.827   0.446   2.026  0.1029  0.3095 -0.5674
  580SOL    HW1 1739   1.754   0.510   2.004  0.9847  1.7922 -1.1401
  580SOL    HW2 1740   1.834   0.455   2.127  2.5755 -1.3499 -0.5396
  581SOL     OW 1741   0.549   1.160   1.026  0.2954  0.0471  0.0932
  581SOL    HW1 1742   0.469   1.225   1.034  0.0093 -0.3739  3.4329
  581SOL    HW2 1743   0.621   1.204   0.971  0.1673  1.7804 -0.3581
  582SOL     OW 1744   2.708   0.097   2.085  0.7638 -0.0065  0.1341
  582SOL    HW1 1745   2.647   0.132   2.157  0.5308 -1.1692 -0.7496
  582SOL    HW2 1746   2.714   0.167   2.012 -0.3055  0.3264  0.4573
  583SOL     OW 1747   2.869   0.419   1.999  0.1975 -0.1575 -0.1005
  583SOL    HW1 1748   2.946   0.415   2.060 -3.1235  0.5520 -3.6417
  583SOL    HW2 1749   2.875   0.347   1.929  0.8349 -0.1385  1.2295
  584SOL     OW 1750   1.160   1.705   2.679  0.0060 -0.1814  0.0057
  584SOL    HW1 1751   1.135   1.771   2.758  2.2016 -1.7161  3.4187
  584SOL    HW2 1752   1.253   1.723   2.644 -0.6184 -0.8400 -1.2905
  585SOL     OW 1753   0.454   3.079   0.096 -0.3478  0.3010  0.2557
  585SOL    HW1 1754   0.420   2.988   0.139  1.1455 -1.8663  1.0359
  585SOL    HW2 1755   0.455   3.069   3.080  1.7797  0.0254 -0.0276
  586SOL     OW 1756   1.884   1.796   2.637 -0.0463 -0.8066 -0.0390
  586SOL    HW1 1757   1.984   1.797   2.661 -0.8950  0.4468 -4.3725
  586SOL    HW2 1758   1.867   1.710   2.582 -1.5884  1.4452  0.8154
  587SOL     OW 1759   2.434   2.528   0.461  0.0059  0.0750  0.0454
  587SOL    HW1 1760   2.413   2.533   0.361 -0.2545 -1.0150  2.8304
  587SOL    HW2 1761   2.346   2.549   0.509 -2.5362 -0.4361  0.4592
  588SOL     OW 1762   2.297   0.125   1.178  0.4053 -0.2101 -0.2586
  588SOL    HW1 1763   2.373   0.141   1.120 -4.0958 -0.2024  2.1577
  588SOL    HW2 1764   2.240   0.050   1.143 -0.9188  0.2981 -0.8634
  589SOL     OW 1765   0.627   0.542   0.666  0.1868  0.5297 -0.0253
  589SOL    HW1 1766   0.720   0.571   0.631 -1.3930  2.9093 -1.5969
  589SOL    HW2 1767   0.567   0.521   0.587 -1.2324 -1.0521 -1.0039
  590SOL     OW 1768   2.079   2.060   0.353  0.1275 -0.8994  0.2423
  590SOL    HW1 1769   2.111   1.965   0.351  1.7005  0.2784 -0.2895
  590SOL    HW2 1770   2.128   2.116   0.282 -1.0417 -1.4126  1.0903
  591SOL     OW 1771   0.591   2.262   1.100  0.5510 -0.3900  0.3713
  591SOL    HW1 1772   0.642   2.268   1.014 -0.0056  0.7606 -0.4244
  591SOL    HW2 1773   0.501   2.308   1.095  2.6568 -0.4627 -1.3824
  592SOL     OW 1774   0.986   0.750   1.476 -0.0535 -0.0311 -0.2264
  592SOL    HW1 1775   0.953   0.733   1.382  1.3359  1.5217  0.1782
  592SOL    HW2 1776   0.936   0.688   1.542  0.8364 -0.4697  0.4414
  593SOL     OW 1777   0.983   1.344   1.195 -0.2491  0.2703 -0.1483
  593SOL    HW1 1778   1.013   1.311   1.285  2.9432  0.8676  0.3577
  593SOL    HW2 1779   0.883   1.369   1.201 -1.3678 -0.6450  1.5290
  594SOL     OW 1780   0.787   2.183   0.426  0.0084  0.6910 -0.1798
  594SOL    HW1 1781   0.846   2.213   0.353 -2.3934 -1.1294  2.1566
  594SOL    HW2 1782   0.773   2.084   0.421 -1.7210  2.6588 -0.4563
  595SOL     OW 1783   1.797   0.346   1.314 -0.6603  0.1318 -0.1501
  595SOL    HW1 1784   1.766   0.438   1.292  2.3551 -2.0564  2.1521
  595SOL    HW2 1785   1.841   0.340   1.408  2.1974 -1.0367 -0.6089
  596SOL     OW 1786   2.881   1.448   1.354 -0.0562 -0.1362 -0.0978
  596SOL    HW1 1787   2.927   1.383   1.289  2.1443 -0.8504 -1.3264
  596SOL    HW2 1788   2.783   1.420   1.369 -1.0686 -4.9287 -2.0059
  597SOL     OW 1789   0.223   2.755   2.468 -0.0241  0.6873  0.3393
  597SOL    HW1 1790   0.245   2.698   2.553  0.2479  1.6234  2.6293
  597SOL    HW2 1791   0.271   2.726   2.383 -0.6350  1.9169 -0.0009
  598SOL     OW 1792   2.811   2.312   1.888 -0.1103 -0.6434 -0.1260
  598SOL    HW1 1793   2.894   2.367   1.902  0.8629  1.1636  0.1817
  598SOL    HW2 1794   2.751   2.341   1.810 -1.2678  0.0361  2.1064
  599SOL     OW 1795   1.060   0.060   2.953 -0.1270 -0.3388  0.7353
  599SOL    HW1 1796   1.002   0.116   3.024 -0.4084  2.3127  2.7488
  599SOL    HW2 1797   1.042   0.098   2.861 -0.6510 -0.2134 -2.6474
  600SOL     OW 1798   0.476   2.525   3.019 -0.6857 -0.2756  0.0544
  600SOL    HW1 1799   0.509   2.433   2.983  0.3526 -2.2141 -0.1473
  600SOL    HW2 1800   0.519   2.601   2.973 -0.7453 -2.0387  1.2979
  601SOL     OW 1801   0.651   0.742   1.252 -0.0441 -0.6739 -0.1295
  601SOL    HW1 1802   0.741   0.696   1.234 -0.1382  1.1679 -1.7633
  601SOL    HW2 1803   0.579   0.676   1.231  0.0232  0.6319 -1.1852
  602SOL     OW 1804   0.798   2.818   0.924 -0.3396  0.3922  0.2794
  602SOL    HW1 1805   0.818   2.722   0.914  0.7036  2.5773 -0.5679
  602SOL    HW2 1806   0.792   2.844   1.020 -0.4133 -2.3438  0.1422
  603SOL     OW 1807   0.652   0.617   2.324 -0.0693  0.0156 -0.2445
  603SOL    HW1 1808   0.643   0.582   2.233  2.1957  1.7705  1.3378
  603SOL    HW2 1809   0.685   0.544   2.383 -0.4551  0.8507 -1.9013
  604SOL     OW 1810   0.468   2.785   1.538 -0.2097 -0.2621  0.7738
  604SOL    HW1 1811   0.430   2.877   1.550 -0.0964 -0.6597  1.7795
  604SOL    HW2 1812   0.447   2.743   1.450  0.1981  1.6682  2.3999
  605SOL     OW 1813   1.602   0.627   2.028 -0.2704 -0.5354 -0.3673
  605SOL    HW1 1814   1.623   0.702   1.963  0.5668  1.9141  0.8153
  605SOL    HW2 1815   1.576   0.661   2.120  0.4201 -0.6815  0.9878
  606SOL     OW 1816   2.608   2.775   3.071  0.1625 -0.1397  0.2700
  606SOL    HW1 1817   2.590   2.681   0.005 -3.6780  3.3799  0.8831
  606SOL    HW2 1818   2.608   2.782   2.970  0.7389 -0.7342  2.7368
  607SOL     OW 1819   0.910   0.618   1.240 -0.3198  0.9107  0.2311
  607SOL    HW1 1820   0.967   0.545   1.288  1.5560 -0.1612  0.7641
  607SOL    HW2 1821   0.935   0.629   1.145  1.5435 -1.0256  0.7492
  608SOL     OW 1822   0.162   1.780   2.556 -0.4443  0.3799 -0.1024
  608SOL    HW1 1823   0.099   1.851   2.519 -0.0267 -1.8192  0.0057
  608SOL    HW2 1824   0.167   1.788   2.658 -0.4563 -2.1642 -1.7693
  609SOL     OW 1825   1.347   1.261   0.288 -0.3813 -0.3299  0.7145
  609SOL    HW1 1826   1.376   1.354   0.266 -0.7654 -2.8257 -1.2797
  609SOL    HW2 1827   1.325   1.214   0.203 -2.0959  0.1841 -0.4185
  610SOL     OW 1828   0.458   0.551   1.278 -0.3732  0.2487 -0.4278
  610SOL    HW1 1829   0.531   0.481   1.250  1.4406 -3.4834 -4.2695
  610SOL    HW2 1830   0.382   0.536   1.210 -0.0536 -1.3461 -0.0398
  611SOL     OW 1831   1.303   1.028   0.716 -0.0265 -0.1144  0.2278
  611SOL    HW1 1832   1.336   1.104   0.776  0.1862 -0.2130  1.3582
  611SOL    HW2 1833   1.375   0.985   0.661 -0.5688  0.7569 -1.8902
  612SOL     OW 1834   1.873   1.125   0.307  1.1888  0.0617  0.1883
  612SOL    HW1 1835   1.818   1.191   0.364  0.0255  0.9168  0.1110
  612SOL    HW2 1836   1.965   1.119   0.350  0.9373  1.5917 -2.3297
  613SOL     OW 1837   2.054   0.670   0.384  0.0765  0.9384 -0.3075
  613SOL    HW1 1838   2.022   0.760   0.340  1.2438  0.7318 -0.6969
  613SOL    HW2 1839   2.073   0.677   0.485 -3.2230 -1.9742  4.7876
  614SOL     OW 1840   2.648   0.066   2.521 -0.0208 -0.0156 -0.0317
  614SOL    HW1 1841   2.700   0.022   2.441  0.3806 -2.6547 -0.9330
  614SOL    HW2 1842   2.549   0.064   2.501  0.2300  2.1235  0.6728
  615SOL     OW 1843   0.681   1.818   0.780  0.5138  0.1145 -0.2440
  615SOL    HW1 1844   0.740   1.739   0.811  2.0047 -2.7293 -0.1526
  615SOL    HW2 1845   0.646   1.868   0.860 -0.4495  0.5742 -2.6423
  616SOL     OW 1846   1.383   1.036   2.744  0.3377 -0.4947  0.1658
  616SOL    HW1 1847   1.417   1.134   2.751 -0.6052  0.6615  0.7706
  616SOL    HW2 1848   1.284   1.032   2.775 -1.4423 -0.1741 -1.1219
  617SOL     OW 1849   1.463   0.445   3.036  0.4225 -0.7125 -0.6084
  617SOL    HW1 1850   1.389   0.380   3.008 -1.6290  1.3449 -0.6984
  617SOL    HW2 1851   1.551   0.395   3.038 -1.5303 -1.4424 -1.7127
  618SOL     OW 1852   1.722   2.415   2.561  0.7066  0.4266  0.1045
  618SOL    HW1 1853   1.671   2.410   2.474 -1.1345 -0.1752 -1.5147
  618SOL    HW2 1854   1.678   2.477   2.632  1.2736  0.2169 -1.7679
  619SOL     OW 1855   2.346   1.702   0.801  0.0323 -0.0478 -0.3126
  619SOL    HW1 1856   2.360   1.693   0.703 -0.4632  0.5076  0.2803
  619SOL    HW2 1857   2.340   1.609   0.842  0.3862  3.3461 -2.4918
  620SOL     OW 1858   2.204   2.802   2.362  0.0965  0.4381  0.0732
  620SOL    HW1 1859   2.239   2.730   2.300 -2.2939 -0.8479  1.9501
  620SOL    HW2 1860   2.128   2.850   2.310 -1.9234 -1.6835  1.7115
  621SOL     OW 1861   3.017   1.518   0.793 -0.7541  0.1295  0.1708
  621SOL    HW1 1862   0.014   1.564   0.825  1.4146  0.5621  0.9106
  621SOL    HW2 1863   2.935   1.559   0.836  0.8178 -0.0829 -0.8285
  622SOL     OW 1864   1.426   1.322   2.638 -0.2192  0.1862 -0.0987
  622SOL    HW1 1865   1.437   1.340   2.734  2.7967  1.0238 -2.5103
  622SOL    HW2 1866   1.340   1.368   2.610  0.1303 -0.5590  1.7172
  623SOL     OW 1867   2.970   2.445   2.326 -0.1352  0.5944 -0.0108
  623SOL    HW1 1868   2.974   2.465   2.426 -2.1872  0.0805  1.0150
  623SOL    HW2 1869   3.000   2.519   2.263  0.2008 -1.2821 -0.3758
  624SOL     OW 1870   0.704   2.725   0.024  0.1046  0.1151  0.1364
  624SOL    HW1 1871   0.806   2.720   0.005  2.0891  1.7597 -1.9159
  624SOL    HW2 1872   0.692   2.774   0.111 -1.6585 -1.1729  0.1534
  625SOL     OW 1873   0.424   1.949   2.238  0.3682  0.5997  0.2911
  625SOL    HW1 1874   0.360   1.968   2.161  2.2662 -0.6938  2.1900
  625SOL    HW2 1875   0.459   1.855   2.232 -3.4037  0.8907  0.3128
  626SOL     OW 1876   0.502   3.053   2.909  0.0371 -0.8570 -0.2193
  626SOL    HW1 1877   0.416   0.007   2.874  0.9123  1.3762  3.6710
  626SOL    HW2 1878   0.504   2.953   2.896 -0.4756 -2.7951 -0.8165
  627SOL     OW 1879   1.987   1.416   0.097 -0.7466 -0.4215  0.5417
  627SOL    HW1 1880   2.049   1.445   0.024  1.2707 -0.0257  0.5430
  627SOL    HW2 1881   1.920   1.353   0.055 -0.3832 -0.2566 -0.2201
  628SOL     OW 1882   1.096   2.089   0.593  0.6426  0.0649 -0.1537
  628SOL    HW1 1883   1.189   2.049   0.612  1.4941 -0.2708  4.2736
  628SOL    HW2 1884   1.100   2.182   0.564  0.6391  0.3252  1.4844
  629SOL     OW 1885   3.015   0.271   1.726  0.2646  0.4186  0.0851
  629SOL    HW1 1886   3.076   0.237   1.802 -1.0012  0.4667  1.6534
  629SOL    HW2 1887   2.926   0.226   1.741  1.1646 -1.5608  0.8242
  630SOL     OW 1888   2.037   0.550   1.784 -0.2121 -0.0856  0.2444
  630SOL    HW1 1889   2.100   0.525   1.710 -1.1330  0.4284  0.0909
  630SOL    HW2 1890   1.962   0.479   1.790  1.0840 -3.5258 -0.6429
  631SOL     OW 1891   1.305   0.262   1.080  0.2371  0.1317  0.1163
  631SOL    HW1 1892   1.250   0.302   1.002 -1.1439  1.5769 -0.3014
  631SOL    HW2 1893   1.328   0.161   1.068  1.7097 -1.3905 -0.4667
  632SOL     OW 1894   2.688   0.865   1.925 -0.2514  0.4241  0.4284
  632SOL    HW1 1895   2.745   0.780   1.914  1.6649  0.2913  1.9204
  632SOL    HW2 1896   2.586   0.857   1.896  0.1052  0.0980  0.4658
  633SOL     OW 1897   1.103   1.070   2.624 -0.4613 -0.7325  0.2221
  633SOL    HW1 1898   1.175   1.039   2.564 -3.8221 -1.5010  1.1322
  633SOL    HW2 1899   1.097   1.005   2.705  0.4293  0.3871 -0.6929
  634SOL     OW 1900   0.545   2.768   2.890 -0.4038 -0.5335 -0.3231
  634SOL    HW1 1901   0.600   2.745   2.803 -0.1416 -2.5728  1.5867
  634SOL    HW2 1902   0.596   2.783   2.981  0.9233  0.3423  3.2275
  635SOL     OW 1903   0.022   1.420   1.542 -0.2466  0.1891 -1.0438
  635SOL    HW1 1904   3.035   1.438   1.475 -0.6410  1.4295  1.6660
  635SOL    HW2 1905   0.110   1.460   1.517 -0.8466  0.6355  0.7179
  636SOL     OW 1906   0.285   1.524   0.112  0.1090 -0.2001  0.2182
  636SOL    HW1 1907   0.269   1.502   0.210  3.3201  0.8684 -0.0691
  636SOL    HW2 1908   0.273   1.626   0.098  3.0115  3.6511 -0.4767
  637SOL     OW 1909   3.049   2.464   0.245 -0.4087  0.2994  0.0339
  637SOL    HW1 1910   0.041   2.421   0.202 -1.0248 -1.1049  1.6229
  637SOL    HW2 1911   2.956   2.432   0.215  1.1993 -0.6850  1.0342
  638SOL     OW 1912   2.900   2.726   0.346 -0.1603 -0.1943  0.6703
  638SOL    HW1 1913   2.970   2.662   0.303  2.1692 -2.1556  0.6534
  638SOL    HW2 1914   2.811   2.674   0.366 -0.4732  2.1761  1.7831
  639SOL     OW 1915   1.270   0.647   2.832  0.5722  0.2704 -0.2089
  639SOL    HW1 1916   1.231   0.587   2.905  1.9800  0.2824 -0.5679
  639SOL    HW2 1917   1.347   0.702   2.874  2.7401  1.1658  1.6683
  640SOL     OW 1918   2.072   2.159   1.585  0.7791  0.0187 -0.4371
  640SOL    HW1 1919   2.009   2.095   1.633  0.2446 -2.3936 -1.8368
  640SOL    HW2 1920   2.098   2.239   1.643  0.2335  1.5490 -0.1311
  641SOL     OW 1921   3.002   0.059   0.699 -0.1386  0.3994  0.0262
  641SOL    HW1 1922   2.984   3.069   0.760  2.0604 -0.4250 -1.0137
  641SOL    HW2 1923   3.071   0.035   0.627 -1.9112  1.2453 -2.3911
  642SOL     OW 1924   1.219   1.085   1.736  0.1856 -0.0498 -0.2802
  642SOL    HW1 1925   1.285   1.155   1.694  0.4108  2.0809 -0.2327
  642SOL    HW2 1926   1.145   1.052   1.670 -2.5750  1.7060  1.1520
  643SOL     OW 1927   0.785   1.887   2.650  0.4434  0.0926 -0.1385
  643SOL    HW1 1928   0.849   1.820   2.605  1.3112  0.6741  0.9082
  643SOL    HW2 1929   0.689   1.861   2.621  1.4093 -1.9559 -0.4184
  644SOL     OW 1930   1.371   2.544   2.306 -0.3129 -0.1570 -0.5560
  644SOL    HW1 1931   1.305   2.559   2.227 -2.8149  0.0363 -2.6839
  644SOL    HW2 1932   1.332   2.580   2.390  0.1483  0.3846 -2.4507
  645SOL     OW 1933   1.600   0.847   1.869 -0.2030 -0.5286 -0.6422
  645SOL    HW1 1934   1.674   0.838   1.801  2.8105 -1.9338 -0.0854
  645SOL    HW2 1935   1.511   0.847   1.818  1.2536 -1.9740 -3.3521
  646SOL     OW 1936   1.205   2.368   2.610 -0.5621  0.2376 -0.0587
  646SOL    HW1 1937   1.211   2.453   2.551 -2.6271  0.6320  1.5694
  646SOL    HW2 1938   1.271   2.290   2.581  1.5725 -0.5812  0.7329
  647SOL     OW 1939   1.183   2.989   0.385 -0.3389 -0.0372  0.4776
  647SOL    HW1 1940   1.175   2.993   0.485 -0.2045 -1.8804 -0.2527
  647SOL    HW2 1941   1.088   3.005   0.349 -0.5377 -1.7255 -0.4878
  648SOL     OW 1942   2.556   2.582   1.302 -0.2324  0.2398 -0.0345
  648SOL    HW1 1943   2.588   2.566   1.205 -4.3419  2.6035  0.2660
  648SOL    HW2 1944   2.627   2.562   1.369 -1.5506  0.9809 -2.3597
  649SOL     OW 1945   0.489   2.477   2.620  0.3881 -0.1827  0.0721
  649SOL    HW1 1946   0.454   2.451   2.527 -2.7999 -0.2878  0.4083
  649SOL    HW2 1947   0.548   2.404   2.668 -0.5953 -1.5709  0.1556
  650SOL     OW 1948   2.617   1.783   2.397  0.4759  0.1594 -0.3561
  650SOL    HW1 1949   2.713   1.766   2.417 -1.2062 -1.1118  1.4901
  650SOL    HW2 1950   2.590   1.864   2.458  1.9355 -1.9741  0.5870
  651SOL     OW 1951   2.695   2.316   2.138 -0.4026  0.1712  0.6061
  651SOL    HW1 1952   2.751   2.304   2.050 -0.2214  1.3382 -0.8280
  651SOL    HW2 1953   2.744   2.393   2.190  3.2034  0.6005 -0.6133
  652SOL     OW 1954   2.539   2.366   0.674 -1.0110  0.0977  0.5047
  652SOL    HW1 1955   2.475   2.295   0.709 -1.4694  0.4880 -1.4457
  652SOL    HW2 1956   2.507   2.428   0.603  0.8849 -1.4071  0.8510
  653SOL     OW 1957   2.677   1.160   1.249 -0.2414 -0.5866 -0.5675
  653SOL    HW1 1958   2.619   1.083   1.230 -2.4631 -0.2553  1.0659
  653SOL    HW2 1959   2.681   1.175   1.351 -0.1221 -0.3291  2.4350
  654SOL     OW 1960   0.908   0.386   2.761 -0.0822  0.4669 -0.0698
  654SOL    HW1 1961   0.847   0.316   2.803  1.8825  0.2822  0.7335
  654SOL    HW2 1962   0.935   0.450   2.837 -0.9908 -2.6280 -0.2887
  655SOL     OW 1963   0.762   0.075   1.045 -0.2638  0.0043  0.5318
  655SOL    HW1 1964   0.863   0.087   1.031  2.1263  2.3102 -1.5619
  655SOL    HW2 1965   0.730   0.074   1.144 -1.4616 -0.7556  0.0423
  656SOL     OW 1966   0.327   2.386   1.980 -0.2926  0.2249 -0.3400
  656SOL    HW1 1967   0.338   2.377   1.880  2.1043  1.1633  0.2054
  656SOL    HW2 1968   0.419   2.364   2.026  1.1911 -0.1755 -0.5473
  657SOL     OW 1969   2.504   0.847   0.396 -0.3708 -0.1593  0.1348
  657SOL    HW1 1970   2.514   0.782   0.322  0.7704  1.9907  2.3999
  657SOL    HW2 1971   2.524   0.942   0.366 -0.5557  3.5387 -1.8850
  658SOL     OW 1972   1.948   1.948   0.941  0.1045 -0.4294  0.0504
  658SOL    HW1 1973   1.878   1.994   0.883 -2.0410  1.4272  0.5348
  658SOL    HW2 1974   1.932   1.849   0.927 -1.3693 -0.2459  1.5615
  659SOL     OW 1975   2.597   1.853   2.817  0.5513  0.0949  0.0211
  659SOL    HW1 1976   2.633   1.787   2.886 -2.3713 -1.5150  0.9028
  659SOL    HW2 1977   2.620   1.948   2.838 -1.3008 -3.4955 -2.5872
  660SOL     OW 1978   1.196   0.364   0.395  0.2195  0.0533 -0.0645
  660SOL    HW1 1979   1.186   0.453   0.442 -2.2485 -0.6947 -0.8763
  660SOL    HW2 1980   1.279   0.368   0.336  0.3481  0.9459  0.1729
  661SOL     OW 1981   1.862   2.937   0.081  0.0375 -0.1388 -0.4145
  661SOL    HW1 1982   1.854   2.910   0.177 -1.9869 -0.4724 -1.6120
  661SOL    HW2 1983   1.904   2.864   0.031 -0.6747  3.2162 -1.3863
  662SOL     OW 1984   0.703   2.845   0.554  0.1162 -0.3909  0.6883
  662SOL    HW1 1985   0.715   2.944   0.528 -0.5866  3.6279 -0.5692
  662SOL    HW2 1986   0.725   2.840   0.652 -1.0104 -0.0983  2.6926
  663SOL     OW 1987   1.594   0.079   2.355  0.1431 -0.2191  0.1224
  663SOL    HW1 1988   1.595   0.018   2.276  0.7329  0.3383  1.3235
  663SOL    HW2 1989   1.520   0.147   2.346 -2.9244  1.4063  0.3825
  664SOL     OW 1990   0.765   2.723   1.407  0.0945 -1.0326 -0.1651
  664SOL    HW1 1991   0.703   2.662   1.453 -1.2330  0.4684 -2.1082
  664SOL    HW2 1992   0.784   2.809   1.458 -1.1753  0.7430  0.1796
  665SOL     OW 1993   0.608   2.277   1.733 -0.4518 -0.4399  0.3291
  665SOL    HW1 1994   0.660   2.223   1.800 -1.0797  2.9710 -0.7980
  665SOL    HW2 1995   0.657   2.274   1.643 -0.4657  0.6927  0.0190
  666SOL     OW 1996   0.625   3.057   2.583  0.1883  0.2664 -0.8798
  666SOL    HW1 1997   0.639   0.073   2.587 -1.5042  0.9126  1.0629
  666SOL    HW2 1998   0.523   3.039   2.591 -2.1048 -1.0294 -0.4984
  667SOL     OW 1999   1.968   1.412   1.647  0.9200 -0.4498  0.5881
  667SOL    HW1 2000   2.069   1.416   1.635  2.0476  0.2753 -1.4092
  667SOL    HW2 2001   1.927   1.410   1.554  1.4490 -0.4600 -0.0225
  668SOL     OW 2002   1.765   3.074   1.749  0.3850  0.6944  0.2698
  668SOL    HW1 2003   1.722   2.979   1.759 -0.7602 -1.1078  0.0424
  668SOL    HW2 2004   1.698   0.056   1.768  0.2520  2.9927  2.8971
  669SOL     OW 2005   2.677   2.483   1.059  0.2365 -0.2271  0.2245
  669SOL    HW1 2006   2.628   2.402   1.095  1.5990  1.0004 -0.5509
  669SOL    HW2 2007   2.736   2.457   0.979 -1.1297  0.5336 -3.4704
  670SOL     OW 2008   1.062   1.867   2.867 -0.2067 -0.1080  0.1529
  670SOL    HW1 2009   1.122   1.865   2.953  3.8317 -3.0311  0.3008
  670SOL    HW2 2010   0.994   1.944   2.871 -1.5958  2.0665  1.4028
  671SOL     OW 2011   0.783   1.001   0.563  0.2509 -0.1248 -0.1729
  671SOL    HW1 2012   0.882   0.997   0.556  0.4013 -1.8622 -1.4283
  671SOL    HW2 2013   0.753   1.001   0.660  1.0369  1.1557  1.0396
  672SOL     OW 2014   2.653   0.977   2.520  0.2098 -0.2175  0.3657
  672SOL    HW1 2015   2.722   1.033   2.573  2.1210  2.5066  1.9615
  672SOL    HW2 2016   2.692   0.936   2.433 -2.7690  0.5647  0.4706
  673SOL     OW 2017   2.705   2.055   1.706 -0.1426  0.0712  0.2186
  673SOL    HW1 2018   2.742   1.977   1.763 -0.5940  0.4641 -1.2170
  673SOL    HW2 2019   2.616   2.087   1.746  1.7367  0.1637  2.6655
  674SOL     OW 2020   0.422   2.409   2.346  0.7247  0.2282  0.0174
  674SOL    HW1 2021   0.380   2.315   2.352 -0.8330 -2.3471 -1.9404
  674SOL    HW2 2022   0.483   2.409   2.266 -1.4183  3.2082 -0.2127
  675SOL     OW 2023   1.204   0.675   1.614 -0.2524  0.2137 -0.5307
  675SOL    HW1 2024   1.123   0.689   1.557 -1.4484  0.3694  1.5071
  675SOL    HW2 2025   1.275   0.618   1.569 -1.2153 -1.9197 -0.2750
  676SOL     OW 2026   1.990   0.045   1.420 -0.1894 -0.6935  0.3362
  676SOL    HW1 2027   1.910   3.072   1.414  1.4720  1.0907  0.4004
  676SOL    HW2 2028   1.968   0.137   1.462 -2.1476  0.7293 -1.5338
  677SOL     OW 2029   2.315   1.291   2.902  0.3239 -0.1478  0.0290
  677SOL    HW1 2030   2.333   1.377   2.851 -0.6643 -1.8043  2.6912
  677SOL    HW2 2031   2.364   1.207   2.864  0.7690 -0.5956 -0.5885
  678SOL     OW 2032   2.453   1.336   1.121  0.0913 -0.0177  0.1359
  678SOL    HW1 2033   2.527   1.287   1.168 -2.1407  1.0577 -1.2794
  678SOL    HW2 2034   2.384   1.364   1.194  0.6808 -1.1374 -2.2074
  679SOL     OW 2035   2.579   0.704   0.191 -0.2082  0.0268 -0.0682
  679SOL    HW1 2036   2.577   0.603   0.193  1.7984  2.8159  1.7134
  679SOL    HW2 2037   2.630   0.736   0.108 -1.6551  1.7939 -1.5196
  680SOL     OW 2038   0.419   1.629   1.845  0.5728  0.1985  0.0688
  680SOL    HW1 2039   0.328   1.584   1.854  0.9681  0.0815  1.3499
  680SOL    HW2 2040   0.456   1.653   1.936 -0.2763 -1.2221  0.1826
  681SOL     OW 2041   2.422   1.991   1.797 -0.0332  0.3591  0.0939
  681SOL    HW1 2042   2.367   2.034   1.871  1.7373  0.4743 -1.5338
  681SOL    HW2 2043   2.366   1.971   1.715 -0.8686  0.5970  1.9859
  682SOL     OW 2044   0.203   1.776   0.043  0.4211  0.1613 -0.2245
  682SOL    HW1 2045   0.216   1.880   0.033  2.4605  1.1956 -0.1091
  682SOL    HW2 2046   0.125   1.765   0.111 -1.0287  1.4482 -1.3788
  683SOL     OW 2047   0.068   2.106   1.265  0.0165  0.8707 -0.0807
  683SOL    HW1 2048   0.038   2.023   1.319  2.3817  0.2447  1.5362
  683SOL    HW2 2049   0.150   2.149   1.312  2.3055  1.0647  2.9383
  684SOL     OW 2050   2.746   1.093   2.025  0.1299 -0.4936  0.1692
  684SOL    HW1 2051   2.660   1.149   2.024 -2.6522 -0.4482  1.6490
  684SOL    HW2 2052   2.729   1.005   1.978  0.1230  0.4567  0.0899
  685SOL     OW 2053   1.328   0.678   0.380 -0.1108  0.6181 -0.1285
  685SOL    HW1 2054   1.422   0.703   0.409 -1.9716 -3.5240  0.6418
  685SOL    HW2 2055   1.268   0.631   0.448 -1.7121 -0.8070 -0.2229
  686SOL     OW 2056   0.600   0.331   0.842  0.3092  0.5093 -0.0685
  686SOL    HW1 2057   0.599   0.420   0.791 -0.8877  0.3802 -0.8967
  686SOL    HW2 2058   0.540   0.263   0.788 -1.4262  0.1610 -1.7220
  687SOL     OW 2059   0.867   2.100   2.811  0.4781  0.4670  0.8012
  687SOL    HW1 2060   0.823   2.032   2.751 -2.9924 -0.6622  0.7049
  687SOL    HW2 2061   0.793   2.128   2.875 -1.6890  1.3476 -1.5822
  688SOL     OW 2062   2.208   0.366   1.633 -0.2156  0.2436 -0.6881
  688SOL    HW1 2063   2.264   0.308   1.699 -1.2353  0.9555 -0.3838
  688SOL    HW2 2064   2.240   0.362   1.537 -0.4563  0.3458 -0.3671
  689SOL     OW 2065   1.529   0.461   0.849 -0.6642  0.5759 -0.3255
  689SOL    HW1 2066   1.558   0.363   0.863 -1.1338 -1.3212 -3.2825
  689SOL    HW2 2067   1.588   0.507   0.784  2.4055 -0.4792 -0.5184
  690SOL     OW 2068   2.630   1.416   1.433  0.0878 -0.4942 -0.5734
  690SOL    HW1 2069   2.529   1.398   1.427  1.1521 -1.2896 -1.4112
  690SOL    HW2 2070   2.653   1.461   1.521  1.1431 -0.8461 -0.1502
  691SOL     OW 2071   0.499   2.115   1.299 -0.6947 -0.0153  0.1470
  691SOL    HW1 2072   0.542   2.164   1.224  3.4462 -0.9265  0.3244
  691SOL    HW2 2073   0.469   2.023   1.265  2.4536 -0.8294  0.7689
  692SOL     OW 2074   1.379   3.073   1.466 -0.3073 -0.5074  0.5405
  692SOL    HW1 2075   1.382   2.982   1.515  0.8591  2.9540  0.3551
  692SOL    HW2 2076   1.468   0.024   1.440 -2.0518 -0.6056  0.9224
  693SOL     OW 2077   0.946   1.870   2.109  0.5067  0.4984  0.1098
  693SOL    HW1 2078   0.885   1.932   2.059  1.2826 -1.9957 -0.5648
  693SOL    HW2 2079   0.961   1.779   2.069  0.0566  2.0633  0.7496
  694SOL     OW 2080   1.988   1.311   0.810 -0.1981  0.2598 -0.1946
  694SOL    HW1 2081   1.942   1.400   0.785 -0.3363  2.6542 -0.1632
  694SOL    HW2 2082   2.088   1.309   0.781  0.3309  1.3294  0.8683
  695SOL     OW 2083   1.231   0.826   1.346  0.2396 -0.4675  0.6498
  695SOL    HW1 2084   1.226   0.768   1.261 -1.3102 -0.7212  0.8493
  695SOL    HW2 2085   1.152   0.794   1.402  2.3622  0.5998 -2.6220
  696SOL     OW 2086   0.234   0.107   0.480 -0.1793 -0.4594 -0.0553
  696SOL    HW1 2087   0.189   0.183   0.530 -1.3479  4.0283 -0.6942
  696SOL    HW2 2088   0.169   0.029   0.476  2.6655 -0.9996 -0.4869
  697SOL     OW 2089   2.149   0.438   1.057 -0.2633 -0.2739 -0.2113
  697SOL    HW1 2090   2.073   0.506   1.029 -0.5280 -0.4855  0.0058
  697SOL    HW2 2091   2.108   0.349   1.082 -1.5365 -2.1137 -0.1594
  698SOL     OW 2092   1.462   1.413   1.855 -0.0164  0.0126 -0.4960
  698SOL    HW1 2093   1.514   1.504   1.834  1.1285  3.2797 -1.0685
  698SOL    HW2 2094   1.446   1.404   1.954  2.5331  0.0920 -1.4106
  699SOL     OW 2095   3.023   0.255   2.320  0.5777 -0.1183  0.3255
  699SOL    HW1 2096   2.921   0.275   2.324  1.2510 -1.2254  0.4171
  699SOL    HW2 2097   3.065   0.341   2.285  0.6687  0.0024  1.1282
  700SOL     OW 2098   1.902   2.626   0.559 -0.2957  0.0346 -0.3771
  700SOL    HW1 2099   1.890   2.726   0.584 -3.4570  0.3777 -0.1230
  700SOL    HW2 2100   1.811   2.584   0.534  0.7338  1.8411 -3.9077
  701SOL     OW 2101   0.008   1.566   2.463  0.3022 -0.6083 -0.6170
  701SOL    HW1 2102   0.078   1.614   2.519 -0.8826 -1.4389 -0.9706
  701SOL    HW2 2103   3.073   1.472   2.501  1.8512 -1.4439  1.2361
  702SOL     OW 2104   0.737   3.086   0.483  0.2116  0.3382 -0.0852
  702SOL    HW1 2105   0.749   0.041   0.574  0.1147  2.4041 -0.3659
  702SOL    HW2 2106   0.668   0.046   0.429 -2.1969  2.1326  3.0518
  703SOL     OW 2107   1.978   2.923   2.674  0.1182 -0.1387  0.6384
  703SOL    HW1 2108   2.000   2.991   2.753  1.8205  2.0132  2.5719
  703SOL    HW2 2109   2.034   2.944   2.593 -1.9164 -0.5637  0.5389
  704SOL     OW 2110   2.676   2.036   0.210 -0.3273 -0.0253  0.5583
  704SOL    HW1 2111   2.719   2.090   0.129  0.4410 -0.1172 -3.7351
  704SOL    HW2 2112   2.707   1.940   0.207 -0.3272 -1.5841 -0.8618
  705SOL     OW 2113   2.735   2.175   2.436  0.0342 -0.3253 -0.0407
  705SOL    HW1 2114   2.716   2.189   2.338  1.0949  1.1371 -2.5277
  705SOL    HW2 2115   2.825   2.215   2.463 -1.7451  1.7672  0.6802
  706SOL     OW 2116   2.744   0.126   0.377  0.0106 -0.1752 -0.0088
  706SOL    HW1 2117   2.679   0.094   0.306  0.4788  2.2525 -1.1896
  706SOL    HW2 2118   2.794   0.048   0.425  3.4666  0.1543  1.1705
  707SOL     OW 2119   1.273   0.226   3.033 -0.0935 -0.3909  0.7874
  707SOL    HW1 2120   1.294   0.223   2.933 -0.5334 -2.4929 -2.4672
  707SOL    HW2 2121   1.182   0.178   3.049 -2.7071  1.8907  0.5139
  708SOL     OW 2122   0.233   2.138   1.673 -0.4738 -0.5820 -0.4111
  708SOL    HW1 2123   0.134   2.131   1.665  0.7241 -0.2219  2.4522
  708SOL    HW2 2124   0.268   2.068   1.737  0.6277 -0.4283  1.5996
  709SOL     OW 2125   1.387   2.893   1.888  0.9170  0.3954  0.5949
  709SOL    HW1 2126   1.399   2.995   1.890 -0.0219  2.1154  0.9186
  709SOL    HW2 2127   1.400   2.842   1.975  0.7844  0.5492 -0.3960
  710SOL     OW 2128   1.600   2.593   2.746  0.1417 -0.2071  0.0715
  710SOL    HW1 2129   1.674   2.655   2.774 -0.9790 -0.2175 -0.6924
  710SOL    HW2 2130   1.504   2.622   2.768 -3.3124  0.8545  0.3274
  711SOL     OW 2131   0.946   2.603   2.747 -0.1600  0.0305  0.3876
  711SOL    HW1 2132   0.958   2.624   2.847 -3.4670 -0.2345  2.6324
  711SOL    HW2 2133   0.950   2.504   2.742  0.2433  2.4550  1.1092
  712SOL     OW 2134   0.874   1.873   0.092  0.2443 -0.1728 -0.1703
  712SOL    HW1 2135   0.944   1.915   0.150  0.0983 -2.2811 -1.4446
  712SOL    HW2 2136   0.826   1.794   0.136 -0.3906 -2.8744 -0.2637
  713SOL     OW 2137   1.892   1.003   1.334 -0.3994 -1.1015 -0.1372
  713SOL    HW1 2138   1.907   0.903   1.337 -0.1039  1.7553  1.6144
  713SOL    HW2 2139   1.911   1.040   1.240 -1.5247 -0.9920 -1.6811
  714SOL     OW 2140   1.096   1.357   1.978  1.1863 -0.1851  0.4850
  714SOL    HW1 2141   1.006   1.310   1.996  2.8158  1.2380 -0.7645
  714SOL    HW2 2142   1.179   1.302   1.996  1.0279  2.3214 -0.5491
  715SOL     OW 2143   2.675   0.437   0.297 -0.0367 -0.5649 -0.5611
  715SOL    HW1 2144   2.754   0.472   0.352  1.2751 -0.8781 -1.9827
  715SOL    HW2 2145   2.710   0.373   0.228  0.0159  0.9090  1.3856
  716SOL     OW 2146   0.557   2.643   1.032  0.9526 -0.0418 -0.1836
  716SOL    HW1 2147   0.655   2.620   1.055  0.6081 -0.7551  0.4643
  716SOL    HW2 2148   0.555   2.725   0.971 -0.2177 -1.6130  0.0471
  717SOL     OW 2149   2.782   0.773   0.483  0.0913 -0.6241 -0.0354
  717SOL    HW1 2150   2.813   0.684   0.456  0.7152  4.3206 -0.4840
  717SOL    HW2 2151   2.682   0.780   0.474 -1.2641 -2.4138  1.6264
  718SOL     OW 2152   1.773   1.374   1.326 -0.3628  0.4037  0.1375
  718SOL    HW1 2153   1.718   1.435   1.391  2.2519 -2.0091  0.0562
  718SOL    HW2 2154   1.735   1.280   1.326 -1.6858 -1.3536 -0.3018
  719SOL     OW 2155   2.808   2.900   0.133  0.2653  0.0079  0.4086
  719SOL    HW1 2156   2.749   2.834   0.079 -2.2889 -0.5904 -1.4822
  719SOL    HW2 2157   2.852   2.849   0.210  0.4014  1.9254  0.6161
  720SOL     OW 2158   0.960   0.407   0.923  0.5575  0.3087 -0.1462
  720SOL    HW1 2159   0.968   0.507   0.927  0.8128 -3.8602 -0.7343
  720SOL    HW2 2160   0.933   0.380   0.826 -0.5324 -1.7963 -0.2373
  721SOL     OW 2161   1.881   0.140   0.955 -0.2762 -0.0067  0.1027
  721SOL    HW1 2162   1.967   0.129   0.907 -0.9499  1.5295  0.7677
  721SOL    HW2 2163   1.905   0.146   1.056 -0.3546 -1.5402  4.3927
  722SOL     OW 2164   0.779   2.087   1.981 -0.3401 -0.3488 -0.2410
  722SOL    HW1 2165   0.729   2.090   2.068 -0.2257 -1.8416 -0.1982
  722SOL    HW2 2166   0.815   2.187   1.959  0.5370  1.2689 -0.2817
  723SOL     OW 2167   1.179   0.051   1.298  0.1483 -0.0443  0.1895
  723SOL    HW1 2168   1.181   3.050   1.243 -0.1024 -3.0660 -0.5684
  723SOL    HW2 2169   1.255   0.045   1.367  0.8146 -0.7254  1.0888
  724SOL     OW 2170   1.851   1.952   1.715 -0.5955  0.0531  0.4630
  724SOL    HW1 2171   1.786   1.906   1.656 -0.0304 -0.7964 -1.0779
  724SOL    HW2 2172   1.930   1.888   1.735 -0.6157 -0.0253 -1.2532
  725SOL     OW 2173   1.454   2.641   1.441  0.1934 -0.4839 -0.4335
  725SOL    HW1 2174   1.545   2.665   1.481  0.1891 -1.4842 -1.0676
  725SOL    HW2 2175   1.418   2.554   1.479  0.1669  3.5050  4.0494
  726SOL     OW 2176   1.936   0.117   3.068  0.0138 -0.5291 -0.0743
  726SOL    HW1 2177   1.888   0.034   0.013  1.0311  1.8565 -0.4733
  726SOL    HW2 2178   1.960   0.172   0.065  1.2625  2.3093  3.1748
  727SOL     OW 2179   1.528   2.297   0.458 -0.1531  0.0161  0.0427
  727SOL    HW1 2180   1.456   2.367   0.427 -1.0588  1.6885 -0.9196
  727SOL    HW2 2181   1.509   2.205   0.415 -0.3055 -0.8405  0.0634
  728SOL     OW 2182   1.862   2.793   2.403 -0.6700 -0.1043  0.0668
  728SOL    HW1 2183   1.918   2.841   2.336  1.0578  0.6408 -0.3482
  728SOL    HW2 2184   1.882   2.823   2.500 -1.2436  2.3652  0.0911
  729SOL     OW 2185   2.116   2.373   1.752 -0.2031  0.4609 -0.3622
  729SOL    HW1 2186   2.198   2.413   1.709 -2.3982  2.1802  0.7201
  729SOL    HW2 2187   2.142   2.336   1.845  1.5445 -0.6272 -0.4781
  730SOL     OW 2188   1.691   0.436   2.556  0.0385  0.2128 -0.2780
  730SOL    HW1 2189   1.620   0.359   2.579 -2.4890 -1.0687  0.7556
  730SOL    HW2 2190   1.706   0.443   2.456  0.3901  0.1802 -0.9390
  731SOL     OW 2191   0.448   2.965   1.178 -0.3841 -0.0852 -0.1929
  731SOL    HW1 2192   0.528   2.902   1.175  0.8218 -3.1698  0.4646
  731SOL    HW2 2193   0.361   2.914   1.203 -1.2715 -1.0414  2.0607
  732SOL     OW 2194   1.721   2.767   1.217  0.2765  0.0121  0.0828
  732SOL    HW1 2195   1.687   2.678   1.244 -1.3226  2.6136  1.0164
  732SOL    HW2 2196   1.671   2.813   1.143  0.4437 -1.2797  0.7559
  733SOL     OW 2197   1.493   0.760   1.443 -0.5478 -0.1940  0.2588
  733SOL    HW1 2198   1.406   0.797   1.406  1.1617 -0.1367 -0.3631
  733SOL    HW2 2199   1.543   0.833   1.491  0.4874  0.4310  0.4733
  734SOL     OW 2200   2.435   2.165   0.268  0.3288  0.2778 -0.5671
  734SOL    HW1 2201   2.494   2.113   0.206 -2.1795  1.8162  1.6498
  734SOL    HW2 2202   2.498   2.194   0.343 -0.1239 -1.0080  1.3688
  735SOL     OW 2203   0.420   0.458   0.444  0.5993 -0.4004 -0.5513
  735SOL    HW1 2204   0.484   0.512   0.383 -1.2088 -1.2614 -2.4515
  735SOL    HW2 2205   0.369   0.387   0.385  1.0400 -1.5081 -1.9948
  736SOL     OW 2206   1.999   2.151   2.624 -0.1030  0.2333 -0.8919
  736SOL    HW1 2207   1.920   2.114   2.677 -1.9688  1.2241 -1.2396
  736SOL    HW2 2208   1.978   2.237   2.577 -0.6568  0.8913  1.5055
  737SOL     OW 2209   1.106   2.332   1.119  0.1873 -0.2368  0.2791
  737SOL    HW1 2210   1.147   2.422   1.092 -1.7771  1.1779 -2.7198
  737SOL    HW2 2211   1.024   2.320   1.057 -2.5045  0.5829  0.3838
  738SOL     OW 2212   1.513   2.756   2.112 -0.1488  0.8172 -0.3473
  738SOL    HW1 2213   1.421   2.766   2.155  1.3975  2.5783  0.6700
  738SOL    HW2 2214   1.575   2.698   2.169 -1.2580 -0.4962 -0.6641
  739SOL     OW 2215   0.858   2.394   1.972 -0.3894 -0.0864  0.0756
  739SOL    HW1 2216   0.959   2.387   1.946  6.4159 -1.1929  0.8556
  739SOL    HW2 2217   0.816   2.487   1.952  1.2714  1.7733 -5.4964
  740SOL     OW 2218   1.680   2.438   1.583 -0.3502 -0.9342  0.3435
  740SOL    HW1 2219   1.647   2.439   1.485 -0.0602 -0.3935 -0.5253
  740SOL    HW2 2220   1.782   2.424   1.581 -0.7173  2.3609  2.2285
  741SOL     OW 2221   2.119   1.747   2.985 -0.0599  0.2764  0.1998
  741SOL    HW1 2222   2.038   1.732   3.050 -1.2559  1.1821  1.6273
  741SOL    HW2 2223   2.094   1.727   2.891  1.0180  1.7878  0.2683
  742SOL     OW 2224   0.747   1.327   2.423 -0.2879 -1.2188 -0.0632
  742SOL    HW1 2225   0.723   1.332   2.323 -0.1129  1.3594  1.3222
  742SOL    HW2 2226   0.772   1.230   2.448  0.4598 -0.0932  5.1410
  743SOL     OW 2227   2.863   1.143   2.244  0.4590 -0.5168 -0.2794
  743SOL    HW1 2228   2.915   1.057   2.269  0.5767 -0.5786  1.2848
  743SOL    HW2 2229   2.814   1.131   2.153  0.7334  1.6264 -0.1797
  744SOL     OW 2230   2.181   2.343   2.018  0.3444 -0.1851 -0.3370
  744SOL    HW1 2231   2.104   2.353   2.091 -0.7942  0.3725  0.6235
  744SOL    HW2 2232   2.277   2.364   2.051 -0.0040  0.7193 -2.8069
  745SOL     OW 2233   2.413   1.761   1.474 -0.2396 -0.0273 -0.3016
  745SOL    HW1 2234   2.363   1.846   1.499 -0.1526  2.1731 -0.5091
  745SOL    HW2 2235   2.397   1.683   1.542  0.9403 -1.6874  1.6652
  746SOL     OW 2236   2.670   1.374   0.855 -0.4562 -0.5235  0.5678
  746SOL    HW1 2237   2.687   1.301   0.788 -0.1555 -1.4588  3.4268
  746SOL    HW2 2238   2.570   1.392   0.862  1.0335  1.5221  0.0836
  747SOL     OW 2239   1.842   2.325   0.345 -0.3200  0.2464  0.2860
  747SOL    HW1 2240   1.859   2.260   0.422 -1.5469  0.7698  1.0210
  747SOL    HW2 2241   1.796   2.407   0.375  1.2459 -3.0514 -0.6510
  748SOL     OW 2242   0.937   2.334   0.255  0.6472  0.3346 -0.1805
  748SOL    HW1 2243   0.974   2.427   0.243  0.2749 -2.0446 -0.7293
  748SOL    HW2 2244   1.009   2.267   0.222 -0.4657  0.2924  1.1320
  749SOL     OW 2245   2.787   0.376   2.300 -0.6807  0.1924 -0.8224
  749SOL    HW1 2246   2.823   0.469   2.293  0.4464 -2.3504  1.6907
  749SOL    HW2 2247   2.686   0.369   2.298  1.4794  0.9944  1.0170
  750SOL     OW 2248   1.638   0.099   1.365  0.0926  0.4924 -0.4832
  750SOL    HW1 2249   1.703   0.173   1.344  1.8116 -0.9908  0.5993
  750SOL    HW2 2250   1.681   0.007   1.348 -1.5264 -1.3852 -0.9144
  751SOL     OW 2251   1.989   2.400   2.492  0.3841  0.7597 -0.3180
  751SOL    HW1 2252   1.888   2.412   2.507 -2.1565  1.6652 -0.7326
  751SOL    HW2 2253   2.037   2.487   2.516  0.3288 -0.6740  1.0834
  752SOL     OW 2254   1.680   1.888   0.586 -0.2485 -0.1083  0.1253
  752SOL    HW1 2255   1.618   1.854   0.662  1.1113 -1.0416  0.0324
  752SOL    HW2 2256   1.721   1.820   0.521  0.7304  0.4681 -0.6867
  753SOL     OW 2257   1.537   0.747   2.276  0.3752 -0.2160 -0.1799
  753SOL    HW1 2258   1.621   0.734   2.332 -2.2487  0.1015 -1.7275
  753SOL    HW2 2259   1.511   0.848   2.263 -0.4244 -1.9886 -1.4739
  754SOL     OW 2260   0.119   2.862   0.724 -0.1837 -0.4291 -0.2690
  754SOL    HW1 2261   0.161   2.918   0.799 -2.5542  3.0559  0.7265
  754SOL    HW2 2262   0.117   2.763   0.744 -1.0802  1.5968  0.4879
  755SOL     OW 2263   2.041   3.053   1.673  0.1082 -0.4393  0.2819
  755SOL    HW1 2264   2.030   0.004   1.584 -2.6045  2.5893  1.4458
  755SOL    HW2 2265   1.952   3.067   1.722 -2.3787  0.0628 -1.3829
  756SOL     OW 2266   1.594   0.957   2.554 -0.1125 -0.7393  0.6419
  756SOL    HW1 2267   1.565   0.861   2.539 -1.4174 -0.2247 -1.5825
  756SOL    HW2 2268   1.512   0.996   2.593  0.6901  1.7792  0.9913
  757SOL     OW 2269   2.817   2.719   1.646 -0.0709 -0.2633 -0.3594
  757SOL    HW1 2270   2.851   2.725   1.745  1.3027  0.1095  2.7884
  757SOL    HW2 2271   2.757   2.798   1.619  0.7140  1.6309 -0.0503
  758SOL     OW 2272   0.516   0.111   1.462 -0.3439 -0.0657  0.2786
  758SOL    HW1 2273   0.481   0.032   1.511  1.8404  1.7500 -0.2411
  758SOL    HW2 2274   0.533   0.188   1.523  0.1156 -1.1966 -3.3182
  759SOL     OW 2275   2.252   1.247   0.720  0.2258 -0.6041 -0.8798
  759SOL    HW1 2276   2.313   1.309   0.665  0.2223 -0.0471  1.0317
  759SOL    HW2 2277   2.311   1.176   0.768  2.2618 -1.8699 -3.1597
  760SOL     OW 2278   1.941   0.300   1.529 -0.3352 -0.1913  0.0146
  760SOL    HW1 2279   1.873   0.304   1.603  1.4234  0.2329 -0.7058
  760SOL    HW2 2280   2.035   0.330   1.564  0.2764 -1.3941  0.6922
  761SOL     OW 2281   2.040   0.244   0.454 -0.4515 -0.4869  0.1945
  761SOL    HW1 2282   2.128   0.209   0.424 -0.1983  2.1021 -2.2635
  761SOL    HW2 2283   1.984   0.259   0.374  1.1069  2.7230  2.3824
  762SOL     OW 2284   2.346   2.547   0.212 -0.3383  0.4097  0.4027
  762SOL    HW1 2285   2.416   2.521   0.138 -0.0616  0.9705  1.7520
  762SOL    HW2 2286   2.260   2.492   0.211  0.4677  3.1349  2.0353
  763SOL     OW 2287   0.894   0.960   1.019 -0.4495 -0.0655  0.4198
  763SOL    HW1 2288   0.940   1.046   0.984  2.9526 -0.1223  3.2838
  763SOL    HW2 2289   0.863   0.977   1.115 -1.7975  0.8579 -0.7947
  764SOL     OW 2290   2.340   2.439   2.848 -0.1009  0.0199 -0.6874
  764SOL    HW1 2291   2.302   2.531   2.815 -0.9591 -0.7134 -0.4237
  764SOL    HW2 2292   2.325   2.366   2.780  0.7097  1.4408 -0.3705
  765SOL     OW 2293   0.453   0.838   1.938  0.2798 -0.4224  0.0665
  765SOL    HW1 2294   0.474   0.821   2.040  2.0192 -0.1661 -0.8069
  765SOL    HW2 2295   0.474   0.751   1.890 -1.7385  0.9791  2.1360
  766SOL     OW 2296   2.815   1.435   2.611  0.1375  0.2679  0.0998
  766SOL    HW1 2297   2.752   1.401   2.682  1.0887 -0.0900 -2.1951
  766SOL    HW2 2298   2.771   1.421   2.520 -2.1529 -0.4547  1.5510
  767SOL     OW 2299   0.174   1.750   2.204 -0.8808  0.4217 -0.8998
  767SOL    HW1 2300   0.226   1.665   2.173  1.2617 -2.0733 -1.0574
  767SOL    HW2 2301   0.131   1.737   2.298  0.2341 -2.3051 -0.1254
  768SOL     OW 2302   0.975   1.143   2.983  0.0570 -0.1605  0.1816
  768SOL    HW1 2303   0.935   1.055   2.964  1.6681  2.3507  1.6113
  768SOL    HW2 2304   0.975   1.193   2.893 -0.6383 -3.5592 -0.9552
  769SOL     OW 2305   1.810   2.752   2.805 -0.6072  0.0514 -0.0162
  769SOL    HW1 2306   1.881   2.804   2.753 -0.0501 -0.9642  1.0340
  769SOL    HW2 2307   1.754   2.797   2.874  0.4122  0.1686  1.3109
  770SOL     OW 2308   0.266   0.254   2.279 -0.0231 -0.1187 -0.4782
  770SOL    HW1 2309   0.201   0.247   2.355  0.7348  0.5437  0.7402
  770SOL    HW2 2310   0.318   0.169   2.268 -0.6822 -0.6922 -2.2498
  771SOL     OW 2311   0.817   2.292   1.221 -0.4639  0.3822  0.5219
  771SOL    HW1 2312   0.867   2.378   1.228 -0.6631  2.0839 -1.3708
  771SOL    HW2 2313   0.720   2.306   1.192  0.6612  1.3313  0.7889
  772SOL     OW 2314   0.496   0.710   3.018  0.1725  0.1562 -0.5119
  772SOL    HW1 2315   0.495   0.680   2.924 -0.5872  2.6146  0.0670
  772SOL    HW2 2316   0.467   0.809   3.020  0.4161 -0.0792 -0.5897
  773SOL     OW 2317   2.212   0.908   1.623 -0.3818  0.0465  0.2157
  773SOL    HW1 2318   2.158   0.981   1.578 -0.6683  0.7223 -1.4610
  773SOL    HW2 2319   2.160   0.883   1.711  1.1721 -0.6107 -0.9015
  774SOL     OW 2320   1.047   1.033   0.554  0.2749 -0.0277  0.6954
  774SOL    HW1 2321   1.106   1.042   0.638  1.1328  4.1388  0.8960
  774SOL    HW2 2322   1.091   0.983   0.478  0.4291  1.0488 -1.1063
  775SOL     OW 2323   2.118   0.021   2.864  0.1868  0.2950  0.0508
  775SOL    HW1 2324   2.186   3.033   2.868 -0.1379  0.5339 -0.2947
  775SOL    HW2 2325   2.077   0.045   2.959 -1.4034  0.9910  4.1714
  776SOL     OW 2326   2.388   0.025   2.476  0.7679 -0.1034  0.1677
  776SOL    HW1 2327   2.315   0.076   2.523  1.3531  0.3174  1.8442
  776SOL    HW2 2328   2.402   3.022   2.518  2.8408 -0.1898 -0.7177
  777SOL     OW 2329   0.691   1.641   2.881  0.2626 -0.1538 -0.2016
  777SOL    HW1 2330   0.684   1.580   2.796 -0.9978  0.1671 -0.6119
  777SOL    HW2 2331   0.627   1.611   2.958  0.9789 -1.8191  1.2613
  778SOL     OW 2332   0.684   2.862   0.248  0.2994 -0.4083 -0.4146
  778SOL    HW1 2333   0.610   2.916   0.298 -4.2600  2.1275  2.9021
  778SOL    HW2 2334   0.723   2.788   0.307 -0.3449  2.1116  0.1534
  779SOL     OW 2335   3.024   1.086   2.839  0.1907 -0.2202 -0.1896
  779SOL    HW1 2336   0.002   1.083   2.914 -0.4458 -0.5616  2.4976
  779SOL    HW2 2337   3.018   0.997   2.796 -0.3346 -0.3120 -0.0569
  780SOL     OW 2338   2.086   0.419   2.453 -0.1031  0.3170  0.2514
  780SOL    HW1 2339   2.037   0.397   2.540 -3.0419 -2.6442  0.3881
  780SOL    HW2 2340   2.068   0.339   2.389  0.5074 -0.9134 -0.9439
  781SOL     OW 2341   2.135   0.796   1.880 -0.3506  0.1483  0.0611
  781SOL    HW1 2342   2.069   0.834   1.944  0.9798 -1.1563  1.5327
  781SOL    HW2 2343   2.112   0.707   1.836  0.3967  0.7801  1.5867
  782SOL     OW 2344   1.692   1.684   2.210  0.2062  0.0761  0.0350
  782SOL    HW1 2345   1.618   1.665   2.142 -2.2190 -0.1466 -2.0899
  782SOL    HW2 2346   1.770   1.629   2.190 -2.3713  0.8974  1.6790
  783SOL     OW 2347   1.199   2.920   1.158  0.0072 -0.1474 -0.0563
  783SOL    HW1 2348   1.213   2.836   1.216  1.1375 -0.6460 -1.9106
  783SOL    HW2 2349   1.173   2.897   1.060 -0.4113  0.8776 -1.0374
  784SOL     OW 2350   1.271   0.636   2.563  0.2891  0.0332 -0.5231
  784SOL    HW1 2351   1.371   0.645   2.542  1.6944  3.1887 -1.9349
  784SOL    HW2 2352   1.257   0.631   2.666 -0.7510 -0.0380  0.7307
  785SOL     OW 2353   1.955   0.400   2.665  0.3173  0.2372 -0.0234
  785SOL    HW1 2354   1.864   0.426   2.623 -3.3911  2.0854  0.1499
  785SOL    HW2 2355   1.941   0.310   2.717 -0.2189 -0.8377 -0.1333
  786SOL     OW 2356   0.044   1.267   0.651 -0.0652 -0.3623 -0.0838
  786SOL    HW1 2357   3.083   1.221   0.575  1.0606  1.1696 -3.3769
  786SOL    HW2 2358   0.019   1.364   0.659  1.8760 -0.5241  2.1679
  787SOL     OW 2359   1.543   2.028   0.379  0.5113  0.3487  0.4308
  787SOL    HW1 2360   1.598   2.071   0.305  1.6163 -1.1827 -0.8800
  787SOL    HW2 2361   1.598   1.979   0.450 -0.6930  0.6719  1.9304
  788SOL     OW 2362   1.916   1.875   1.349  0.3442 -0.4939  0.3015
  788SOL    HW1 2363   1.856   1.834   1.275  1.8294 -1.9143 -1.8671
  788SOL    HW2 2364   1.951   1.968   1.329  1.9089  2.7988 -0.9612
  789SOL     OW 2365   0.006   1.278   2.303 -0.0618  0.5671  0.3598
  789SOL    HW1 2366   2.998   1.265   2.278  2.2984 -0.4886  3.3504
  789SOL    HW2 2367   0.048   1.344   2.239 -0.7932 -0.2978  0.0174
  790SOL     OW 2368   0.730   0.017   0.086  0.2480 -0.2244 -0.6556
  790SOL    HW1 2369   0.753   3.028   0.150  0.0381 -0.0707  1.6894
  790SOL    HW2 2370   0.629   0.028   0.071 -2.2336  2.9825 -1.2531
  791SOL     OW 2371   0.706   3.019   2.308 -0.3330 -0.5725  0.3839
  791SOL    HW1 2372   0.670   3.038   2.404  1.4417 -1.6886 -1.3776
  791SOL    HW2 2373   0.778   3.081   2.275 -0.2123 -0.9128 -3.1516
  792SOL     OW 2374   1.821   0.491   2.314 -0.0799  0.4158  0.2940
  792SOL    HW1 2375   1.816   0.577   2.363  1.3019 -3.7134  1.5539
  792SOL    HW2 2376   1.915   0.454   2.310  1.9255 -0.4144 -1.8387
  793SOL     OW 2377   2.691   0.783   1.376 -0.0608  0.0617 -0.1125
  793SOL    HW1 2378   2.741   0.702   1.410 -2.2618 -0.1679  0.9131
  793SOL    HW2 2379   2.679   0.851   1.453 -0.9173  0.1658  3.0504
  794SOL     OW 2380   0.154   0.631   1.622 -0.1529  0.1622  0.3932
  794SOL    HW1 2381   0.167   0.730   1.609  0.1547 -1.3940 -0.2158
  794SOL    HW2 2382   0.158   0.611   1.723  1.9723  0.3974  1.3429
  795SOL     OW 2383   2.974   1.490   0.306 -0.8430 -0.7438  0.2543
  795SOL    HW1 2384   2.958   1.521   0.403  0.5507 -1.2746  0.9948
  795SOL    HW2 2385   3.067   1.444   0.299 -0.9369  1.9291 -0.0904
  796SOL     OW 2386   0.277   2.471   0.225 -0.5126 -0.3402 -0.4871
  796SOL    HW1 2387   0.363   2.517   0.204 -1.5875  0.8915  0.0228
  796SOL    HW2 2388   0.240   2.477   0.320  1.8076 -0.3734 -0.8109
  797SOL     OW 2389   2.054   2.767   3.054  0.4061 -0.3542 -0.3827
  797SOL    HW1 2390   2.115   2.771   0.049 -0.7662  0.6143  0.8218
  797SOL    HW2 2391   1.988   2.689   3.070 -3.7650 -0.0168  1.3156
  798SOL     OW 2392   0.038   1.148   1.575 -0.3420  0.3401  0.3622
  798SOL    HW1 2393   0.052   1.099   1.489 -0.4110  2.8072  3.2258
  798SOL    HW2 2394   0.031   1.250   1.558 -1.0631  1.1662  1.0377
  799SOL     OW 2395   2.970   0.841   2.749  0.1402  0.1603  0.6628
  799SOL    HW1 2396   2.960   0.826   2.648  0.8967  1.4442  0.4352
  799SOL    HW2 2397   3.020   0.760   2.790  1.3148 -1.8295  0.3520
  800SOL     OW 2398   2.881   2.113   0.495  0.9321  0.5654 -0.1511
  800SOL    HW1 2399   2.951   2.083   0.431 -0.5550 -0.1570 -1.3076
  800SOL    HW2 2400   2.902   2.094   0.591 -0.6208 -2.2264  0.9985
  801SOL     OW 2401   1.591   1.114   1.086  0.0848  0.3543  0.2303
  801SOL    HW1 2402   1.512   1.163   1.048 -2.0572  0.3736 -0.1452
  801SOL    HW2 2403   1.603   1.147   1.176 -1.0566  1.6416 -2.3478
  802SOL     OW 2404   1.000   2.031   1.628  0.1617 -0.0523 -0.5707
  802SOL    HW1 2405   1.063   2.039   1.550  0.2015 -0.2034 -0.3903
  802SOL    HW2 2406   0.951   2.122   1.626 -1.2221  0.2769 -0.0653
  803SOL     OW 2407   0.244   1.818   0.443  0.0645 -0.2570 -0.2279
  803SOL    HW1 2408   0.342   1.801   0.426  3.7999 -0.5683 -3.0129
  803SOL    HW2 2409   0.225   1.916   0.416 -2.0657  0.1520 -0.5801
  804SOL     OW 2410   0.832   2.581   1.656  0.0589 -0.1015 -0.1479
  804SOL    HW1 2411   0.923   2.586   1.701  1.9285 -1.1629 -0.0123
  804SOL    HW2 2412   0.773   2.662   1.675  0.9232 -0.0784 -0.2104
  805SOL     OW 2413   1.747   1.256   0.057 -0.1113  0.3427  0.0374
  805SOL    HW1 2414   1.780   1.199   0.138  2.0219 -4.9210  1.4496
  805SOL    HW2 2415   1.702   1.193   3.079  2.2715  3.8879  0.8326
  806SOL     OW 2416   1.399   3.087   1.046 -0.2563  0.1619  0.2640
  806SOL    HW1 2417   1.417   3.039   0.960 -0.8075 -0.1928  3.0365
  806SOL    HW2 2418   1.325   3.040   1.095  0.9883 -0.9055 -2.2760
  807SOL     OW 2419   2.494   3.070   2.921  0.1261  0.6182  0.8200
  807SOL    HW1 2420   2.518   0.081   2.928 -0.8116 -2.7174 -0.1746
  807SOL    HW2 2421   2.574   3.008   2.927 -0.1898 -2.0313  0.0003
  808SOL     OW 2422   0.047   1.086   0.004 -0.1031 -0.3902  0.0921
  808SOL    HW1 2423   0.118   1.033   0.061  0.1654  1.7411 -0.2856
  808SOL    HW2 2424   0.054   1.187   0.017  1.0776  0.0160 -0.1332
  809SOL     OW 2425   2.852   0.654   2.302 -0.0854  0.7773 -0.0327
  809SOL    HW1 2426   2.804   0.660   2.389  0.4373 -2.0235 -0.7623
  809SOL    HW2 2427   2.796   0.699   2.229 -0.5405  1.2819 -1.7375
  810SOL     OW 2428   2.191   3.029   1.916 -0.3838  0.1616 -0.5075
  810SOL    HW1 2429   2.164   3.031   1.816  1.4759  1.6593  3.4847
  810SOL    HW2 2430   2.215   2.938   1.949 -1.3013  2.3993  0.1271
  811SOL     OW 2431   2.499   2.530   1.841  0.0091 -0.2169  0.3588
  811SOL    HW1 2432   2.543   2.600   1.906 -0.5439 -2.5387  0.2617
  811SOL    HW2 2433   2.563   2.501   1.768  0.2156 -1.1909  0.4327
  812SOL     OW 2434   1.880   0.166   2.796 -0.5676  0.0626 -0.0861
  812SOL    HW1 2435   1.919   0.134   2.887 -0.3639 -0.6656  1.4491
  812SOL    HW2 2436   1.801   0.101   2.778 -0.5372 -3.1701  3.8286
  813SOL     OW 2437   1.896   3.058   1.998 -0.2610  0.1938  0.6605
  813SOL    HW1 2438   1.997   3.047   1.972 -1.5165 -0.5712 -0.2441
  813SOL    HW2 2439   1.848   3.064   1.909  1.5273 -0.0970 -0.6551
  814SOL     OW 2440   1.818   1.081   1.703 -0.0871 -0.2096  0.4660
  814SOL    HW1 2441   1.792   1.071   1.804 -0.1381 -0.9357  1.5864
  814SOL    HW2 2442   1.762   1.154   1.663 -1.2425 -3.7943  1.3776
  815SOL     OW 2443   0.587   0.890   0.415 -0.1466  0.2000  0.5287
  815SOL    HW1 2444   0.495   0.938   0.413 -2.4823 -1.1796  0.7983
  815SOL    HW2 2445   0.662   0.920   0.475  1.7754 -1.1267  2.0279
  816SOL     OW 2446   2.059   1.562   2.743 -0.3053  0.0276  0.3265
  816SOL    HW1 2447   2.037   1.566   2.645  1.4303 -0.6870 -1.0753
  816SOL    HW2 2448   1.969   1.573   2.786  1.7965  0.5352 -0.9664
  817SOL     OW 2449   0.035   2.990   0.497 -0.5718 -0.1121  0.0762
  817SOL    HW1 2450   0.076   2.951   0.583 -0.0169 -0.0183  2.0162
  817SOL    HW2 2451   3.025   2.971   0.493  0.1473 -1.1130 -2.1217
  818SOL     OW 2452   2.064   0.015   2.461  0.2069  0.1660 -0.0288
  818SOL    HW1 2453   2.123   0.056   2.536  1.8493  0.1783  2.3172
  818SOL    HW2 2454   1.971   0.058   2.461  1.3183 -2.0927  0.7059
  819SOL     OW 2455   1.129   0.849   0.346 -0.3688 -0.0744  0.0950
  819SOL    HW1 2456   1.213   0.790   0.340 -0.6560 -0.1586  0.1844
  819SOL    HW2 2457   1.052   0.786   0.324  0.8887  1.7216  0.9470
  820SOL     OW 2458   2.038   0.985   0.733 -0.3529  0.7375 -0.6781
  820SOL    HW1 2459   2.099   1.006   0.814  1.3195 -1.9381  0.2543
  820SOL    HW2 2460   2.026   1.062   0.671  0.7799 -1.4315  1.3273
  821SOL     OW 2461   2.287   3.012   0.683 -0.8479  0.2633 -0.1542
  821SOL    HW1 2462   2.333   3.070   0.609  0.2667 -1.4152 -0.7747
  821SOL    HW2 2463   2.225   3.064   0.742  2.3997 -0.6074 -0.4748
  822SOL     OW 2464   0.344   2.996   2.569  0.0517  0.2121  0.5035
  822SOL    HW1 2465   0.309   3.087   2.566 -0.6744 -1.0348  1.6498
  822SOL    HW2 2466   0.295   2.934   2.502  0.0699  0.6382 -1.7200
  823SOL     OW 2467   3.015   2.055   1.723  0.3656 -0.0531  0.4259
  823SOL    HW1 2468   3.048   2.038   1.815 -0.5022 -0.9811  1.5348
  823SOL    HW2 2469   2.920   2.096   1.720  1.4161  4.8493 -0.1448
  824SOL     OW 2470   0.738   2.883   2.081 -0.3105  0.5551 -0.2847
  824SOL    HW1 2471   0.728   2.917   2.174  1.0597  0.9607  0.7187
  824SOL    HW2 2472   0.824   2.931   2.045  1.9801  0.6802  0.4459
  825SOL     OW 2473   1.439   1.545   0.311 -0.3518  0.6746 -0.0681
  825SOL    HW1 2474   1.530   1.499   0.314  0.0061  1.0621  4.0379
  825SOL    HW2 2475   1.455   1.641   0.297 -0.0600 -3.4110  1.7365
  826SOL     OW 2476   1.682   0.263   3.023 -0.0030 -0.1395 -0.4591
  826SOL    HW1 2477   1.756   0.221   2.974 -0.3283 -0.6193  2.0928
  826SOL    HW2 2478   1.610   0.193   3.046 -2.4438 -0.1291  2.3920
  827SOL     OW 2479   0.232   1.542   1.423  0.7557 -0.2001  0.1647
  827SOL    HW1 2480   0.244   1.624   1.477 -0.2791 -4.0184 -3.0325
  827SOL    HW2 2481   0.168   1.554   1.338 -1.9068 -0.1147 -2.8883
  828SOL     OW 2482   2.054   1.134   1.547  0.1265  0.2513  0.0431
  828SOL    HW1 2483   2.015   1.085   1.466 -1.3570  0.8058  0.6126
  828SOL    HW2 2484   1.980   1.157   1.607  3.0595  2.0903  0.9498
  829SOL     OW 2485   0.205   2.098   0.353 -0.2639  0.1049  0.5800
  829SOL    HW1 2486   0.114   2.080   0.311 -0.5458  2.5740  0.9747
  829SOL    HW2 2487   0.269   2.138   0.278  2.1813 -0.2922 -3.4651
  830SOL     OW 2488   0.965   0.687   0.966  0.0977 -0.1514 -0.0252
  830SOL    HW1 2489   1.054   0.696   0.919 -4.3925  1.8422  1.7523
  830SOL    HW2 2490   0.930   0.782   0.982 -0.1106  0.7289 -0.1783
  831SOL     OW 2491   2.764   1.754   0.103 -0.3785 -0.2477 -0.4521
  831SOL    HW1 2492   2.828   1.737   0.023 -0.1266  0.8463  2.6254
  831SOL    HW2 2493   2.670   1.725   0.090 -3.3285  2.7211  0.3325
  832SOL     OW 2494   1.207   2.779   0.189 -0.5377 -0.2176 -0.3515
  832SOL    HW1 2495   1.140   2.836   0.134 -1.9513 -0.7137 -0.9196
  832SOL    HW2 2496   1.253   2.835   0.263 -3.5489  1.6074 -1.8737
  833SOL     OW 2497   0.880   0.486   2.047  0.5218  0.3009 -0.1718
  833SOL    HW1 2498   0.928   0.428   2.118 -0.1444  0.1217  3.1573
  833SOL    HW2 2499   0.940   0.563   2.021 -0.0886  2.0376 -0.6146
  834SOL     OW 2500   0.118   0.871   1.030  0.0439 -0.1114 -0.1342
  834SOL    HW1 2501   0.020   0.894   1.040  0.4262 -0.5450 -0.2618
  834SOL    HW2 2502   0.158   0.827   1.116  1.4359 -2.5216 -1.0445
  835SOL     OW 2503   2.531   0.232   1.891  0.4534  0.0565 -0.2833
  835SOL    HW1 2504   2.495   0.323   1.861  0.0781 -2.4436 -0.1663
  835SOL    HW2 2505   2.460   0.186   1.949 -2.9118 -0.2161  1.1822
  836SOL     OW 2506   0.377   2.196   0.772  0.1465  0.3122  0.2458
  836SOL    HW1 2507   0.457   2.255   0.785  0.9068 -0.2444 -1.5595
  836SOL    HW2 2508   0.347   2.160   0.864  1.2016  0.6568 -0.2097
  837SOL     OW 2509   2.215   1.614   2.191 -0.5731 -0.6253 -0.1260
  837SOL    HW1 2510   2.188   1.559   2.272  1.0963  1.6855 -2.6192
  837SOL    HW2 2511   2.306   1.659   2.210 -2.7738  0.1562 -0.7663
  838SOL     OW 2512   0.418   1.126   1.345  0.2532  0.1448  0.9334
  838SOL    HW1 2513   0.367   1.044   1.318 -1.1494  0.8230  1.8474
  838SOL    HW2 2514   0.478   1.104   1.422 -0.1017 -1.2888  2.6709
  839SOL     OW 2515   0.261   0.244   0.915 -0.0129 -0.1332  0.4350
  839SOL    HW1 2516   0.294   0.294   0.829  0.8258  1.0604 -1.5948
  839SOL    HW2 2517   0.346   0.211   0.967 -2.2929  1.1773  3.9522
  840SOL     OW 2518   0.221   0.308   2.684 -0.3539  0.1530 -0.4998
  840SOL    HW1 2519   0.165   0.257   2.619 -2.3034 -2.2790  1.8939
  840SOL    HW2 2520   0.204   0.407   2.672 -0.8296  0.8038 -0.0214
  841SOL     OW 2521   0.167   2.587   3.085  0.3174 -0.0678 -0.0926
  841SOL    HW1 2522   0.228   2.654   3.033  0.2658  1.7087  0.4601
  841SOL    HW2 2523   0.222   2.543   0.073  0.4418 -1.3849 -1.0006
  842SOL     OW 2524   0.734   3.043   0.813  0.7315  0.1584  0.5138
  842SOL    HW1 2525   0.769   2.951   0.837 -1.2421  0.2050  0.2563
  842SOL    HW2 2526   0.737   0.014   0.894  1.3175 -1.4108 -3.3455
  843SOL     OW 2527   3.038   1.392   2.768  0.0310  0.3019  0.2028
  843SOL    HW1 2528   3.009   1.391   2.868  0.5811  1.0340  1.2796
  843SOL    HW2 2529   2.964   1.423   2.709  1.3994 -3.0997  1.5582
  844SOL     OW 2530   0.834   2.378   2.344 -0.0801 -0.0902 -0.2761
  844SOL    HW1 2531   0.898   2.298   2.340  0.6804 -2.2732  1.0180
  844SOL    HW2 2532   0.744   2.357   2.301  0.4551  1.9074  2.6005
  845SOL     OW 2533   2.133   2.602   2.576  0.2175 -0.0769 -0.4218
  845SOL    HW1 2534   2.178   2.664   2.511  1.4200 -1.2496 -1.4286
  845SOL    HW2 2535   2.140   2.627   2.673 -1.7773  1.8836  1.9884
  846SOL     OW 2536   1.722   1.389   2.561  0.1559 -0.2212 -0.2011
  846SOL    HW1 2537   1.751   1.401   2.657 -1.7699 -2.1435 -0.6237
  846SOL    HW2 2538   1.737   1.297   2.529 -0.7088  0.1649  2.7239
  847SOL     OW 2539   2.783   0.386   0.040  0.2053 -0.5370 -0.3586
  847SOL    HW1 2540   2.775   0.387   3.027  0.4732 -0.2320 -1.5239
  847SOL    HW2 2541   2.848   0.460   0.076  1.4459 -0.1346  0.8920
  848SOL     OW 2542   0.167   0.949   0.200  0.3492  0.1631 -0.2184
  848SOL    HW1 2543   0.111   0.865   0.210 -2.3333 -2.5753 -1.3842
  848SOL    HW2 2544   0.211   0.965   0.288  0.1616 -1.2177  0.9543
  849SOL     OW 2545   1.386   0.236   2.305 -0.4024 -0.1669  0.4921
  849SOL    HW1 2546   1.314   0.184   2.256 -0.3044 -0.2329  1.4167
  849SOL    HW2 2547   1.387   0.337   2.284  1.6700  0.6329  0.3266
  850SOL     OW 2548   0.351   1.028   0.392  0.6390  0.1030 -0.8548
  850SOL    HW1 2549   0.351   1.126   0.358 -2.0068 -0.6748 -1.1352
  850SOL    HW2 2550   0.283   1.024   0.470  0.9090  1.7951 -1.4446
  851SOL     OW 2551   0.394   1.291   0.317 -0.0463  0.5361 -0.1507
  851SOL    HW1 2552   0.407   1.378   0.365  4.0486 -3.2824 -0.9849
  851SOL    HW2 2553   0.484   1.269   0.276 -1.7022  0.2155  2.8831
  852SOL     OW 2554   1.363   1.284   1.643  0.5594  0.0865  0.3382
  852SOL    HW1 2555   1.392   1.330   1.726 -0.7756 -0.7873 -1.2349
  852SOL    HW2 2556   1.358   1.344   1.561 -2.5536 -0.4086  0.3208
  853SOL     OW 2557   2.709   1.328   0.588 -0.2030 -0.4832  0.6477
  853SOL    HW1 2558   2.623   1.360   0.547  3.7753 -0.3937  3.5774
  853SOL    HW2 2559   2.783   1.396   0.564  2.6490 -1.0710 -0.3292
  854SOL     OW 2560   1.526   1.230   2.385  0.3169 -0.1810 -0.3756
  854SOL    HW1 2561   1.599   1.170   2.417 -2.9076  1.0787  1.0336
  854SOL    HW2 2562   1.473   1.269   2.463  0.0614  1.1393 -0.2986
  855SOL     OW 2563   0.257   2.578   2.721  0.6393 -0.0236 -0.1458
  855SOL    HW1 2564   0.345   2.535   2.698  1.5429 -1.1943  0.9188
  855SOL    HW2 2565   0.261   2.643   2.799 -1.2858 -1.3396 -1.3297
  856SOL     OW 2566   1.260   1.111   2.007  0.6956 -0.0229 -0.2984
  856SOL    HW1 2567   1.263   1.106   1.905  1.9741  0.6122 -1.6122
  856SOL    HW2 2568   1.174   1.066   2.042 -0.7572 -0.2610 -0.5671
  857SOL     OW 2569   1.095   0.788   2.215  0.1446 -0.0102 -0.2777
  857SOL    HW1 2570   1.175   0.764   2.158 -2.4851  2.5074  2.4439
  857SOL    HW2 2571   1.048   0.871   2.176 -0.8643  3.3303 -1.0186
  858SOL     OW 2572   0.068   0.948   1.744 -0.1716  0.3922  0.1248
  858SOL    HW1 2573   0.030   1.025   1.694 -0.7220 -1.9440  1.6413
  858SOL    HW2 2574   0.154   0.919   1.693  2.4733  0.8379 -1.2337
  859SOL     OW 2575   2.705   2.979   0.697 -0.6194  0.8227 -0.2660
  859SOL    HW1 2576   2.779   2.976   0.766 -1.8096 -0.6108 -4.0377
  859SOL    HW2 2577   2.680   2.885   0.667  0.9568  2.1152 -2.4852
  860SOL     OW 2578   1.635   0.220   0.852 -0.0491 -0.4130  0.1482
  860SOL    HW1 2579   1.611   0.166   0.770 -1.9541 -1.4954  1.4333
  860SOL    HW2 2580   1.727   0.198   0.886  0.0197 -1.0385  1.0526
  861SOL     OW 2581   1.516   0.673   1.044 -0.0362  0.3222 -0.3231
  861SOL    HW1 2582   1.427   0.674   1.091  0.7029 -0.2007  0.3404
  861SOL    HW2 2583   1.518   0.584   0.990  0.2275 -0.7047  0.3184
  862SOL     OW 2584   1.486   2.998   2.527 -0.0260 -0.4647 -0.1861
  862SOL    HW1 2585   1.509   2.904   2.492  2.0112 -1.0831 -1.5492
  862SOL    HW2 2586   1.523   3.070   2.463 -0.4653  0.3529  1.4648
  863SOL     OW 2587   2.902   2.946   0.877  0.3735  0.2965 -0.2133
  863SOL    HW1 2588   2.847   2.962   0.962  0.4121  4.4021  2.8156
  863SOL    HW2 2589   2.976   2.876   0.886  0.5555 -0.1408  2.7641
  864SOL     OW 2590   2.466   0.163   2.251 -0.3760 -0.5772  0.5454
  864SOL    HW1 2591   2.428   0.118   2.331 -1.3479  0.5747 -0.7359
  864SOL    HW2 2592   2.416   0.132   2.166 -0.5626 -1.1448  0.8234
  865SOL     OW 2593   1.072   1.486   2.303  0.9108  0.2372  0.1830
  865SOL    HW1 2594   1.089   1.428   2.222 -1.4338 -1.7288 -0.2585
  865SOL    HW2 2595   0.974   1.500   2.327 -2.3411  0.2957 -0.6994
  866SOL     OW 2596   2.007   2.816   1.115 -0.0252 -0.0680 -0.2307
  866SOL    HW1 2597   1.913   2.796   1.081  0.2539  0.3564 -1.8481
  866SOL    HW2 2598   2.063   2.730   1.113  1.9417 -1.9696  0.1659
  867SOL     OW 2599   2.392   2.823   1.012 -0.3679  0.3671  0.0286
  867SOL    HW1 2600   2.413   2.827   0.910 -0.1561 -0.2255 -0.3995
  867SOL    HW2 2601   2.307   2.775   1.035  1.3458  1.8923  1.2427
  868SOL     OW 2602   3.051   1.945   1.466 -0.7264  0.6554 -0.0405
  868SOL    HW1 2603   2.977   1.873   1.442  0.0416 -3.2323 -1.1180
  868SOL    HW2 2604   3.026   1.982   1.559  1.7231 -0.7908 -1.5832
  869SOL     OW 2605   1.842   2.084   2.123 -0.0292  0.3836  0.5885
  869SOL    HW1 2606   1.816   2.037   2.210  0.8791  0.2998  0.1811
  869SOL    HW2 2607   1.890   2.016   2.067 -0.8606  0.3904 -0.8770
  870SOL     OW 2608   1.188   1.317   0.805  0.1590 -0.1904 -0.2944
  870SOL    HW1 2609   1.162   1.323   0.706  0.6353 -0.1581  0.2855
  870SOL    HW2 2610   1.280   1.286   0.816  0.8735  3.3944 -0.7834
  871SOL     OW 2611   2.902   1.753   2.060  0.0091 -0.0547  0.0799
  871SOL    HW1 2612   2.884   1.846   2.095  1.2158  0.2281 -2.7264
  871SOL    HW2 2613   2.898   1.689   2.138 -0.5380  0.9200 -1.8576
  872SOL     OW 2614   1.194   1.447   2.577 -0.3533  0.0037  0.4472
  872SOL    HW1 2615   1.172   1.539   2.610  0.3547 -0.2271 -1.8217
  872SOL    HW2 2616   1.161   1.438   2.482 -0.3704  0.4764  2.1386
  873SOL     OW 2617   0.837   1.225   1.814 -0.1297 -0.1733  0.5863
  873SOL    HW1 2618   0.785   1.190   1.734 -1.5707  1.1909  0.2403
  873SOL    HW2 2619   0.915   1.280   1.779  0.1671  0.4818 -4.0962
  874SOL     OW 2620   1.673   0.960   1.514 -0.0633  0.7754 -0.3284
  874SOL    HW1 2621   1.736   0.983   1.440 -2.0488 -0.7168 -0.4537
  874SOL    HW2 2622   1.717   0.982   1.603  1.6118  1.3007  0.2132
  875SOL     OW 2623   0.022   0.312   0.056  0.5897  0.2553 -0.2030
  875SOL    HW1 2624   3.061   0.275   0.138 -2.3940  0.2883  1.7425
  875SOL    HW2 2625   3.071   0.405   0.039  1.0926  0.5803  3.6960
  876SOL     OW 2626   0.839   1.144   0.147  0.2366 -0.2899 -0.2843
  876SOL    HW1 2627   0.918   1.165   0.211  1.8219 -2.2374  0.8339
  876SOL    HW2 2628   0.863   1.156   0.050  0.8020  0.6870  0.6219
  877SOL     OW 2629   2.446   2.757   0.748 -0.1684 -0.2830  0.4015
  877SOL    HW1 2630   2.535   2.723   0.718 -0.9511 -1.9537  1.9340
  877SOL    HW2 2631   2.401   2.813   0.675 -0.8122 -0.1944  0.9197
  878SOL     OW 2632   1.869   1.936   0.247  0.5613 -0.1955  0.4336
  878SOL    HW1 2633   1.953   1.973   0.290  0.8363 -0.7163  2.8102
  878SOL    HW2 2634   1.807   2.015   0.232 -0.7865  2.0385  0.2395
  879SOL     OW 2635   3.084   1.771   1.850  0.6956  0.2965 -0.5728
  879SOL    HW1 2636   0.092   1.748   1.842 -1.7370  0.4966 -0.5966
  879SOL    HW2 2637   3.052   1.754   1.943  3.6880 -0.8849 -2.0806
  880SOL     OW 2638   0.318   2.055   1.002 -0.3582 -0.1167  0.1173
  880SOL    HW1 2639   0.284   2.120   1.075 -1.1739  1.5100  0.1271
  880SOL    HW2 2640   0.255   1.975   1.004  2.9430 -1.9050  1.1540
  881SOL     OW 2641   1.210   0.267   2.025  0.2399  0.4105 -1.1850
  881SOL    HW1 2642   1.277   0.340   2.014  1.4589  1.3584  1.9849
  881SOL    HW2 2643   1.143   0.284   2.101 -1.6399 -0.4228 -0.8880
  882SOL     OW 2644   2.172   1.036   0.986 -0.6102  0.0759 -0.1303
  882SOL    HW1 2645   2.260   1.060   0.937  0.2408 -0.8363 -0.2485
  882SOL    HW2 2646   2.198   1.020   1.082 -1.3846  2.3620 -1.0225
  883SOL     OW 2647   1.592   0.201   1.792  0.0087  0.0787 -0.2850
  883SOL    HW1 2648   1.556   0.291   1.754 -2.1484  0.7286 -0.8414
  883SOL    HW2 2649   1.518   0.161   1.850  1.4658 -1.1263 -0.0636
  884SOL     OW 2650   2.910   2.998   2.015 -0.2549 -0.3336 -0.1118
  884SOL    HW1 2651   2.829   3.059   2.001 -0.7630 -1.9772 -1.4609
  884SOL    HW2 2652   2.987   3.050   2.048 -0.6658 -0.1729  0.5462
  885SOL     OW 2653   1.345   1.521   2.935 -0.1222  0.9136  0.0316
  885SOL    HW1 2654   1.385   1.601   2.890  1.2992 -0.4787 -2.4319
  885SOL    HW2 2655   1.270   1.548   2.997  1.5627  0.2788  0.6279
  886SOL     OW 2656   2.028   0.638   2.789 -0.6635  0.4141 -0.2556
  886SOL    HW1 2657   2.025   0.640   2.888 -0.4887  0.5219 -2.1508
  886SOL    HW2 2658   2.009   0.544   2.750 -0.3597 -1.4485  0.6108
  887SOL     OW 2659   1.084   2.844   1.580 -0.5254 -0.2258  0.2719
  887SOL    HW1 2660   1.173   2.893   1.597  0.0038  1.0556 -1.9601
  887SOL    HW2 2661   1.064   2.779   1.653 -3.3925 -0.7174  1.5973
  888SOL     OW 2662   1.932   1.572   2.114  0.8703 -1.0601 -0.6793
  888SOL    HW1 2663   1.894   1.551   2.021 -2.9239  1.0400  1.4272
  888SOL    HW2 2664   2.032   1.549   2.108  0.8906 -3.6267 -0.1745
  889SOL     OW 2665   1.943   2.413   1.251  0.4118  0.5217 -0.1239
  889SOL    HW1 2666   1.979   2.322   1.273 -0.9939 -0.8490 -2.1671
  889SOL    HW2 2667   1.987   2.487   1.309 -2.9679 -0.4648  1.8059
  890SOL     OW 2668   1.275   1.689   1.037  0.1757 -0.4767 -0.3147
  890SOL    HW1 2669   1.293   1.780   1.078 -2.8375 -0.6266 -1.4107
  890SOL    HW2 2670   1.179   1.666   1.049  2.1641  0.8771 -1.1692
  891SOL     OW 2671   2.726   1.371   0.310 -0.1370  0.6662 -0.1148
  891SOL    HW1 2672   2.799   1.437   0.293  0.3563  1.0671  0.7733
  891SOL    HW2 2673   2.750   1.321   0.397 -0.1832  0.7086  3.1637
  892SOL     OW 2674   2.332   1.423   0.057 -0.3139 -0.5701  1.2258
  892SOL    HW1 2675   2.317   1.375   3.057  2.0555  0.9080 -0.8998
  892SOL    HW2 2676   2.309   1.521   0.050 -0.7436  3.0322 -1.9412
  893SOL     OW 2677   1.943   2.436   1.566  0.3031 -0.1186  0.4952
  893SOL    HW1 2678   1.989   2.507   1.517 -1.7093 -0.8115  1.7310
  893SOL    HW2 2679   1.990   2.407   1.649  1.1488 -0.9139  0.0347
  894SOL     OW 2680   2.682   2.682   0.639 -0.4845  0.2249  0.4052
  894SOL    HW1 2681   2.662   2.616   0.564 -2.5475  2.1194  0.3865
  894SOL    HW2 2682   2.775   2.663   0.683  0.7930  0.0926  2.0591
  895SOL     OW 2683   2.748   2.587   2.782  0.3751 -0.6409 -0.1389
  895SOL    HW1 2684   2.719   2.686   2.790 -0.3440 -0.2861  2.3780
  895SOL    HW2 2685   2.727   2.543   2.698  1.1860  0.9902  3.8842
  896SOL     OW 2686   2.207   0.152   2.639  0.6764  0.1991  0.4292
  896SOL    HW1 2687   2.232   0.247   2.648 -0.0972 -0.7837  1.4319
  896SOL    HW2 2688   2.189   0.113   2.730  2.1267 -3.1337  2.0673
  897SOL     OW 2689   0.522   1.682   2.084  0.2491 -0.2477  0.3617
  897SOL    HW1 2690   0.617   1.699   2.064 -0.7359  0.3089  1.8484
  897SOL    HW2 2691   0.515   1.602   2.144  0.3322 -1.6678  0.3807
  898SOL     OW 2692   2.687   1.676   1.604  0.1531  0.0745  0.0069
  898SOL    HW1 2693   2.727   1.747   1.667 -0.0903  1.0826  2.7099
  898SOL    HW2 2694   2.598   1.709   1.572  0.9593  0.2537  1.9123
  899SOL     OW 2695   1.687   2.713   1.548  0.0427  0.2376 -0.1078
  899SOL    HW1 2696   1.706   2.617   1.535  0.2938 -1.1753 -4.3943
  899SOL    HW2 2697   1.717   2.741   1.640 -0.9705  1.5046 -3.2235
  900SOL     OW 2698   1.275   1.119   3.070  0.1442  0.3842 -0.3251
  900SOL    HW1 2699   1.190   1.110   3.019  0.2108 -0.2904  0.0523
  900SOL    HW2 2700   1.288   1.034   0.034 -0.7522  1.5600 -2.6502
  901SOL     OW 2701   0.845   1.071   2.506  0.2520 -0.0556  0.1033
  901SOL    HW1 2702   0.810   0.979   2.475 -0.8038 -1.6407  1.2068
  901SOL    HW2 2703   0.943   1.056   2.529  0.4216 -1.0407  0.0259
  902SOL     OW 2704   2.626   2.240   0.451  0.3505 -0.2503  0.3032
  902SOL    HW1 2705   2.591   2.269   0.540 -0.1942  0.5037  0.1695
  902SOL    HW2 2706   2.710   2.183   0.454  0.5125  1.9556  0.0532
  903SOL     OW 2707   2.483   1.257   1.698 -0.1239 -0.1691 -0.0957
  903SOL    HW1 2708   2.539   1.341   1.721 -1.2217  0.9533 -0.6926
  903SOL    HW2 2709   2.540   1.183   1.662  1.4856  0.5431 -1.6717
  904SOL     OW 2710   1.941   0.873   0.254  0.3103  0.9636 -0.0947
  904SOL    HW1 2711   1.899   0.821   0.176  1.3356 -0.5472 -0.7587
  904SOL    HW2 2712   1.918   0.971   0.257  3.3599 -1.2179  0.2294
  905SOL     OW 2713   2.248   2.413   1.306 -0.0770 -0.0473  0.3260
  905SOL    HW1 2714   2.269   2.488   1.371 -2.8991 -1.4935 -1.4202
  905SOL    HW2 2715   2.309   2.334   1.311  1.2479  3.6058 -2.3872
  906SOL     OW 2716   1.400   2.094   2.855  0.3770 -0.2193 -0.0843
  906SOL    HW1 2717   1.325   2.104   2.788  0.5333 -0.5555  0.8859
  906SOL    HW2 2718   1.484   2.127   2.804 -0.4519 -0.3282  1.6517
  907SOL     OW 2719   0.902   2.370   0.911 -0.5157  0.0108 -0.0600
  907SOL    HW1 2720   0.893   2.298   0.837 -1.3912  0.5529  1.7535
  907SOL    HW2 2721   0.868   2.461   0.877 -1.4463  2.5717 -1.6341
  908SOL     OW 2722   0.979   3.010   2.045 -0.5931 -0.2393  0.4328
  908SOL    HW1 2723   1.023   2.917   2.040 -0.1897 -2.4707 -0.6519
  908SOL    HW2 2724   1.004   3.074   1.972  1.0033 -2.4854  0.9285
  909SOL     OW 2725   1.840   0.344   1.781 -0.0282 -0.3397 -0.2022
  909SOL    HW1 2726   1.752   0.295   1.793  0.3653  2.0392 -0.1724
  909SOL    HW2 2727   1.868   0.381   1.873 -2.3699  1.8674  0.1773
  910SOL     OW 2728   1.086   0.575   2.369 -0.5800  0.0706  0.2773
  910SOL    HW1 2729   1.143   0.580   2.454 -1.5883 -0.1749 -2.7247
  910SOL    HW2 2730   1.081   0.663   2.324 -1.3670 -0.8650  2.8536
  911SOL     OW 2731   2.990   0.578   0.041  0.5897  0.4797  0.0550
  911SOL    HW1 2732   2.915   0.645   0.012 -0.8127  0.2807 -1.8747
  911SOL    HW2 2733   3.063   0.633   0.095  0.4278  2.8780  1.4769
  912SOL     OW 2734   2.803   2.459   3.010  0.1531 -0.2790 -0.3132
  912SOL    HW1 2735   2.789   2.471   2.908  0.0685  0.1325  0.7101
  912SOL    HW2 2736   2.856   2.536   3.046  0.3106 -1.8451 -0.7237
  913SOL     OW 2737   2.591   2.122   2.820 -0.0954  0.6282 -0.0916
  913SOL    HW1 2738   2.515   2.169   2.772 -1.1959 -0.8976 -1.1739
  913SOL    HW2 2739   2.685   2.156   2.798 -0.6353 -2.6519 -0.4875
  914SOL     OW 2740   1.726   1.761   1.536 -0.6433 -0.3994 -0.3691
  914SOL    HW1 2741   1.643   1.822   1.534  2.6238  0.4656 -0.5066
  914SOL    HW2 2742   1.784   1.784   1.456  0.9618  2.5808 -1.8949
  915SOL     OW 2743   0.208   2.605   2.077 -0.1466 -0.3904 -0.6914
  915SOL    HW1 2744   0.264   2.520   2.046 -2.0327 -3.5396 -0.8614
  915SOL    HW2 2745   0.263   2.650   2.148  0.7827 -1.5786 -0.7232
  916SOL     OW 2746   0.447   1.407   1.313 -0.0478  0.2467  0.0650
  916SOL    HW1 2747   0.379   1.466   1.361  1.1510 -0.0325 -1.5650
  916SOL    HW2 2748   0.433   1.309   1.327  0.7354  0.7545  2.6315
  917SOL     OW 2749   2.541   0.241   3.010 -0.4711  0.0875  0.3368
  917SOL    HW1 2750   2.449   0.246   3.049 -1.0221 -0.1226 -0.5192
  917SOL    HW2 2751   2.581   0.334   2.998  1.6234  0.6457 -0.0145
  918SOL     OW 2752   1.602   2.373   2.309 -0.1078  0.0112  0.3019
  918SOL    HW1 2753   1.521   2.431   2.315  1.4710 -0.5604  0.1118
  918SOL    HW2 2754   1.684   2.432   2.286  0.7015 -1.9380  0.9050
  919SOL     OW 2755   1.610   2.367   1.828 -0.5508 -0.1846  0.6122
  919SOL    HW1 2756   1.625   2.393   1.730 -0.3518  2.3094 -0.3601
  919SOL    HW2 2757   1.694   2.326   1.863 -0.6966 -1.2041  0.5617
  920SOL     OW 2758   0.887   0.876   2.988 -0.1152 -0.5325 -0.3973
  920SOL    HW1 2759   0.802   0.899   2.930 -1.7810 -3.7994 -2.3673
  920SOL    HW2 2760   0.861   0.871   3.086  1.9700 -0.6080 -1.7591
  921SOL     OW 2761   2.984   0.901   2.295 -0.4861 -0.1587  0.3413
  921SOL    HW1 2762   2.909   0.829   2.308  3.9726  2.4656  2.5280
  921SOL    HW2 2763   3.074   0.863   2.284 -0.3747  0.3440 -0.9812
  922SOL     OW 2764   0.525   1.783   0.357  0.2007 -0.3132  0.2645
  922SOL    HW1 2765   0.596   1.824   0.415 -3.0464 -1.2111 -1.8659
  922SOL    HW2 2766   0.502   1.851   0.278 -0.1599 -0.2561 -1.3913
  923SOL     OW 2767   0.546   0.998   1.723 -0.6446  0.1438  0.4101
  923SOL    HW1 2768   0.550   0.945   1.807  0.8437  0.5203 -1.9990
  923SOL    HW2 2769   0.561   0.933   1.640 -0.7552 -1.4914 -0.5749
  924SOL     OW 2770   1.251   2.919   2.885  0.4216  0.2306  0.0542
  924SOL    HW1 2771   1.237   2.970   2.798 -0.3614 -2.0539 -0.6450
  924SOL    HW2 2772   1.193   2.970   2.951  2.0688 -0.0431 -2.1675
  925SOL     OW 2773   2.332   1.403   1.380  0.2847 -0.1514  0.1762
  925SOL    HW1 2774   2.233   1.390   1.362  2.1775  2.8189 -0.0458
  925SOL    HW2 2775   2.339   1.455   1.467 -0.8511  1.6720 -0.2559
  926SOL     OW 2776   2.167   0.419   2.008 -0.2379  0.7495 -0.2848
  926SOL    HW1 2777   2.237   0.464   1.952 -2.3356 -1.5037  2.3713
  926SOL    HW2 2778   2.073   0.462   1.990 -3.2664  0.6777 -0.9941
  927SOL     OW 2779   2.702   2.463   1.680  0.0043  0.0845  0.0254
  927SOL    HW1 2780   2.754   2.551   1.670 -0.6161  1.2186 -2.1277
  927SOL    HW2 2781   2.718   2.401   1.597  0.2201 -1.6306 -0.7616
  928SOL     OW 2782   0.438   0.907   2.423  0.0478  0.1960  0.3988
  928SOL    HW1 2783   0.378   0.938   2.498  1.1543  3.3045 -1.3529
  928SOL    HW2 2784   0.466   0.996   2.378 -0.0709  3.0547  1.4270
  929SOL     OW 2785   2.511   0.045   0.793 -0.2798 -0.3493 -0.3817
  929SOL    HW1 2786   2.600   0.001   0.771 -0.9382 -0.6479 -0.6058
  929SOL    HW2 2787   2.429   3.077   0.770  4.3403  1.6247 -1.0274
  930SOL     OW 2788   2.796   0.035   1.583  0.4571  0.2231 -0.2651
  930SOL    HW1 2789   2.741   3.037   1.580 -1.5204  2.0583  0.5332
  930SOL    HW2 2790   2.813   0.072   1.487  1.0945  0.9464 -1.9368
  931SOL     OW 2791   2.354   1.330   0.344  0.0738 -0.2968  0.0099
  931SOL    HW1 2792   2.349   1.366   0.249  1.3564  0.9558 -0.5019
  931SOL    HW2 2793   2.411   1.247   0.344  1.9980 -0.5692  1.1132
  932SOL     OW 2794   2.378   1.556   1.630  0.8281 -0.5333 -0.6081
  932SOL    HW1 2795   2.331   1.470   1.652  2.1956  1.6394  1.1874
  932SOL    HW2 2796   2.410   1.597   1.714  2.5585 -0.5138  0.6792
  933SOL     OW 2797   2.970   2.312   1.299 -0.5883 -0.4245  0.0700
  933SOL    HW1 2798   3.028   2.379   1.241  1.1906  0.1663 -2.1674
  933SOL    HW2 2799   3.021   2.227   1.313  0.7722  0.8616 -1.8979
  934SOL     OW 2800   0.678   2.224   1.478  0.0536  0.0544 -0.1827
  934SOL    HW1 2801   0.766   2.196   1.437 -1.0938 -2.7503  0.6848
  934SOL    HW2 2802   0.609   2.182   1.416 -0.5224 -0.0138  0.2204
  935SOL     OW 2803   2.492   1.205   1.972 -0.2261  0.1198  0.2273
  935SOL    HW1 2804   2.420   1.145   2.016  1.4680 -0.9595 -0.1379
  935SOL    HW2 2805   2.472   1.210   1.873 -1.5625  0.4911 -2.0009
  936SOL     OW 2806   2.499   1.652   1.857 -0.1695 -0.2974  0.0335
  936SOL    HW1 2807   2.539   1.737   1.900 -0.6713  1.6403 -0.3971
  936SOL    HW2 2808   2.572   1.578   1.862  1.6441 -1.0354 -0.3241
  937SOL     OW 2809   2.132   1.187   2.130  0.2902  0.3553  0.2043
  937SOL    HW1 2810   2.067   1.220   2.200 -0.1912  0.3436  1.7805
  937SOL    HW2 2811   2.158   1.258   2.063  1.8365  1.3468 -0.5361
  938SOL     OW 2812   0.984   2.335   2.741  0.5333 -0.0411  0.1576
  938SOL    HW1 2813   0.984   2.231   2.752 -0.4502 -1.9351  0.1298
  938SOL    HW2 2814   1.078   2.365   2.714  2.8783 -1.2498 -1.1317
  939SOL     OW 2815   2.566   0.957   3.036  0.5110 -0.3205 -0.4074
  939SOL    HW1 2816   2.619   0.936   2.954 -0.6238  2.5759  0.4281
  939SOL    HW2 2817   2.624   1.022   3.088 -0.3088 -1.6156 -1.1875
  940SOL     OW 2818   1.022   1.684   0.701 -0.4776  0.0473  0.2411
  940SOL    HW1 2819   0.975   1.638   0.624 -0.6094 -1.8046  1.8499
  940SOL    HW2 2820   0.980   1.658   0.790  1.8471  1.1230  0.2066
  941SOL     OW 2821   0.859   2.665   2.301 -0.3208  0.0305 -0.0366
  941SOL    HW1 2822   0.768   2.709   2.310  0.8491  0.2585 -0.5830
  941SOL    HW2 2823   0.854   2.565   2.305  2.1227 -1.0802 -0.1584
  942SOL     OW 2824   0.632   2.244   0.200 -0.3307 -0.2657  0.2416
  942SOL    HW1 2825   0.614   2.340   0.210  0.2620 -2.8593  0.2434
  942SOL    HW2 2826   0.681   2.205   0.277 -0.8478 -2.9124 -3.3077
  943SOL     OW 2827   1.834   2.581   1.960 -0.0431 -0.0497 -0.0558
  943SOL    HW1 2828   1.813   2.481   1.963 -0.6408  0.8636  0.6505
  943SOL    HW2 2829   1.919   2.596   1.900  1.9667 -1.9067 -3.2704
  944SOL     OW 2830   0.956   1.624   2.971  0.0337 -0.0839 -0.6135
  944SOL    HW1 2831   0.991   1.718   2.950 -0.3589  2.0101  1.7151
  944SOL    HW2 2832   0.864   1.613   2.925  0.6131  0.1230 -0.3175
  945SOL     OW 2833   2.897   2.625   0.776  0.1525 -0.5978 -0.0553
  945SOL    HW1 2834   2.858   2.531   0.783  1.3954 -1.3000  0.7047
  945SOL    HW2 2835   2.998   2.612   0.778 -1.7501  0.2671  1.3552
  946SOL     OW 2836   0.957   1.705   2.527  0.6568  0.2446  0.2596
  946SOL    HW1 2837   1.036   1.703   2.592 -2.4416  1.1408  0.6033
  946SOL    HW2 2838   0.889   1.627   2.542 -1.5207 -1.0731 -1.2783
  947SOL     OW 2839   2.771   0.173   1.808 -0.3399  0.1585 -0.1167
  947SOL    HW1 2840   2.781   0.121   1.720  0.4992  0.3283  0.8425
  947SOL    HW2 2841   2.672   0.190   1.826  2.7682  0.3476 -2.0039
  948SOL     OW 2842   0.138   1.860   1.071 -0.3134 -0.0760  0.0007
  948SOL    HW1 2843   0.050   1.811   1.060 -0.4048 -0.9391 -0.4115
  948SOL    HW2 2844   0.184   1.827   1.154 -1.8573  0.5214  0.2927
  949SOL     OW 2845   0.894   0.810   1.867  0.6265 -0.3044  0.2682
  949SOL    HW1 2846   0.969   0.743   1.866 -1.6701 -0.1506  0.2208
  949SOL    HW2 2847   0.886   0.857   1.781 -2.0745 -1.3695  1.8782
  950SOL     OW 2848   0.063   1.050   1.307  0.3385  0.1550 -0.3075
  950SOL    HW1 2849   0.145   1.010   1.266 -0.6303  1.9892 -3.0495
  950SOL    HW2 2850   3.067   0.996   1.292 -2.5494  2.6406  1.8825
  951SOL     OW 2851   0.758   1.697   2.261  0.0670  0.3411  0.0138
  951SOL    HW1 2852   0.704   1.720   2.348 -1.3936  0.4437 -0.6285
  951SOL    HW2 2853   0.794   1.782   2.225 -2.6290  0.3145  0.7861
  952SOL     OW 2854   1.508   2.171   0.725 -0.9342  0.1565 -0.0362
  952SOL    HW1 2855   1.540   2.211   0.639 -1.2229 -0.1322  3.1289
  952SOL    HW2 2856   1.446   2.096   0.713  1.4722  1.8417  1.0735
  953SOL     OW 2857   0.926   0.674   0.275  0.6170  0.1676 -0.9233
  953SOL    HW1 2858   0.912   0.580   0.240 -0.8154 -3.9416 -0.6668
  953SOL    HW2 2859   0.872   0.740   0.216 -2.7036  3.4329  0.0640
  954SOL     OW 2860   1.962   0.848   1.069 -0.0038  0.1288 -0.1906
  954SOL    HW1 2861   2.039   0.895   1.020 -0.2682  0.5007  0.9008
  954SOL    HW2 2862   1.874   0.896   1.052 -1.7243  1.0646  2.6700
  955SOL     OW 2863   2.434   1.423   0.594  0.1747  0.2114  0.6736
  955SOL    HW1 2864   2.468   1.515   0.594 -0.4930 -1.0839  0.0948
  955SOL    HW2 2865   2.395   1.394   0.501 -0.2744 -1.7421 -1.3335
  956SOL     OW 2866   0.810   0.342   1.710  0.9725 -0.0964 -1.0492
  956SOL    HW1 2867   0.814   0.285   1.797  2.1694 -1.7309  1.1763
  956SOL    HW2 2868   0.901   0.360   1.666  1.6876  2.5073  1.0811
  957SOL     OW 2869   2.005   0.223   1.215  0.5093  0.2115 -0.2449
  957SOL    HW1 2870   1.920   0.281   1.233  1.1960 -1.2506 -1.4620
  957SOL    HW2 2871   2.016   0.158   1.294 -1.4305 -1.2801  2.9352
  958SOL     OW 2872   0.145   2.211   0.632  0.0466 -0.3127  0.0460
  958SOL    HW1 2873   0.175   2.140   0.565 -1.6905  1.4328 -0.0077
  958SOL    HW2 2874   0.216   2.219   0.700 -4.5689  1.7409 -2.3036
  959SOL     OW 2875   2.194   1.377   1.926 -0.0295  0.2637 -0.2920
  959SOL    HW1 2876   2.200   1.478   1.949  0.8116  1.4095  1.3332
  959SOL    HW2 2877   2.212   1.364   1.828  0.1800  1.0786  2.2205
  960SOL     OW 2878   3.051   1.990   2.806 -0.1712 -0.3123 -0.0887
  960SOL    HW1 2879   0.018   2.017   2.724  0.8435  1.2645  2.3015
  960SOL    HW2 2880   0.026   1.943   2.866 -0.2936  0.3352 -2.6598
  961SOL     OW 2881   0.510   1.666   1.158  0.5312 -0.4509 -0.4705
  961SOL    HW1 2882   0.501   1.571   1.185  0.6497  0.9090  1.8789
  961SOL    HW2 2883   0.604   1.708   1.152  0.8371 -0.1971  0.8947
  962SOL     OW 2884   0.732   1.337   0.922 -0.2067 -0.1060  0.3402
  962SOL    HW1 2885   0.682   1.371   0.837  0.6447  0.0425  2.6364
  962SOL    HW2 2886   0.824   1.302   0.894 -2.5103  0.6420  0.3155
  963SOL     OW 2887   1.066   2.145   2.407 -0.6475 -0.3225 -0.3970
  963SOL    HW1 2888   1.082   2.048   2.396  0.3995  1.2657  1.7576
  963SOL    HW2 2889   1.146   2.187   2.459  2.5783 -0.1836  0.9210
  964SOL     OW 2890   0.239   2.858   1.940  0.2778  0.5451 -0.3680
  964SOL    HW1 2891   0.187   2.914   1.870 -1.6818 -1.5433 -3.3418
  964SOL    HW2 2892   0.223   2.760   1.920 -1.7627 -2.8287  0.1420
  965SOL     OW 2893   0.553   2.290   2.990  0.0600 -0.5215 -0.0142
  965SOL    HW1 2894   0.592   2.258   3.075 -0.1413 -3.8455  0.4365
  965SOL    HW2 2895   0.495   2.214   2.949 -2.0687 -1.3797 -0.8117
  966SOL     OW 2896   3.026   1.430   0.026 -0.6602 -0.2684 -0.0185
  966SOL    HW1 2897   3.010   1.427   0.127 -0.7110 -1.7328  0.2824
  966SOL    HW2 2898   2.955   1.374   3.067 -2.8555  1.3399  0.4163
  967SOL     OW 2899   2.238   2.792   0.178 -0.1009  0.6740  0.0073
  967SOL    HW1 2900   2.291   2.704   0.191  0.8173  0.7661 -0.0189
  967SOL    HW2 2901   2.204   2.818   0.272 -0.8403  0.0175 -1.3796
  968SOL     OW 2902   2.193   3.003   1.024  0.7652  0.0383  0.3406
  968SOL    HW1 2903   2.108   2.948   1.037  0.9751  0.7497 -0.7645
  968SOL    HW2 2904   2.268   2.941   1.005 -1.4142  2.0951  0.2622
  969SOL     OW 2905   0.336   1.083   1.926 -0.0702  0.7653  0.0346
  969SOL    HW1 2906   0.235   1.070   1.943 -1.8120  0.6007 -1.8152
  969SOL    HW2 2907   0.390   0.994   1.933 -1.4443  0.2176  1.8057
  970SOL     OW 2908   1.764   1.305   0.480  0.4115  0.4882 -0.9495
  970SOL    HW1 2909   1.784   1.326   0.578  0.7918  1.1137  0.1151
  970SOL    HW2 2910   1.672   1.261   0.471  1.3273 -0.4647  2.1068
  971SOL     OW 2911   2.630   2.912   1.562 -0.0371  0.0878 -0.1571
  971SOL    HW1 2912   2.574   2.882   1.643  0.9678  0.3165 -0.6377
  971SOL    HW2 2913   2.565   2.962   1.501 -0.1724  1.1023  0.8509
  972SOL     OW 2914   2.861   0.124   1.340 -0.5751 -0.3018  0.5238
  972SOL    HW1 2915   2.828   0.061   1.271  1.3280  1.8937  1.9299
  972SOL    HW2 2916   2.858   0.221   1.309 -2.9281 -1.2632  1.6983
  973SOL     OW 2917   0.455   0.635   2.735  0.1322  0.3025 -0.0968
  973SOL    HW1 2918   0.527   0.684   2.683  1.1617  0.4186 -0.2243
  973SOL    HW2 2919   0.366   0.617   2.687  0.6296 -0.0991  0.9451
  974SOL     OW 2920   2.415   0.853   1.903  0.5230 -0.1660 -0.4646
  974SOL    HW1 2921   2.333   0.804   1.885  3.4703  0.8398  1.7094
  974SOL    HW2 2922   2.405   0.910   1.991 -1.1478  0.0460  0.3120
  975SOL     OW 2923   1.042   0.337   1.576 -0.3995 -0.7403 -0.5621
  975SOL    HW1 2924   1.029   0.289   1.485  3.0066  0.0625 -1.1048
  975SOL    HW2 2925   1.104   0.282   1.629 -0.6994  3.5324 -2.2660
  976SOL     OW 2926   1.135   1.690   1.586  0.0031  0.0613 -0.3489
  976SOL    HW1 2927   1.217   1.740   1.545  2.6174  1.1897 -0.2780
  976SOL    HW2 2928   1.051   1.703   1.531  2.5402 -2.3965  0.0122
  977SOL     OW 2929   1.060   2.958   0.051 -0.3637 -0.1464  0.0745
  977SOL    HW1 2930   1.053   3.027   3.062 -1.8554 -1.1051  1.5173
  977SOL    HW2 2931   1.008   2.993   0.135 -0.7575  1.0046 -0.4102
  978SOL     OW 2932   2.336   1.026   2.124  0.8396 -0.2448  0.4009
  978SOL    HW1 2933   2.342   0.966   2.202 -0.4877  1.6715 -0.3965
  978SOL    HW2 2934   2.274   1.106   2.138  1.0441  1.5611 -0.4984
  979SOL     OW 2935   1.473   0.420   1.736 -0.4089 -0.1427  0.1313
  979SOL    HW1 2936   1.418   0.449   1.816  1.7289  1.6458  1.0705
  979SOL    HW2 2937   1.449   0.475   1.656  0.4556  0.1374  1.0573
  980SOL     OW 2938   1.602   1.635   1.796 -0.3461  0.7099  0.0220
  980SOL    HW1 2939   1.658   1.677   1.728 -0.1378 -0.7407  0.2812
  980SOL    HW2 2940   1.552   1.703   1.857  2.4605 -2.0056 -0.2558
  981SOL     OW 2941   2.170   0.773   1.388 -0.6013 -0.1147 -0.5299
  981SOL    HW1 2942   2.074   0.760   1.370  0.2143  1.2750  4.2497
  981SOL    HW2 2943   2.195   0.802   1.482  0.1446 -0.3016 -1.2710
  982SOL     OW 2944   0.687   0.184   2.876 -0.4669 -0.0772 -0.0866
  982SOL    HW1 2945   0.617   0.246   2.836  4.8375 -0.6028 -1.3321
  982SOL    HW2 2946   0.638   0.104   2.910 -0.8861  4.3825 -0.0250
  983SOL     OW 2947   2.264   0.784   2.800 -0.2052  0.1046  0.2510
  983SOL    HW1 2948   2.176   0.732   2.812 -1.6005  0.3838  0.2261
  983SOL    HW2 2949   2.314   0.777   2.895  0.1349 -1.8510 -1.0217
  984SOL     OW 2950   0.745   0.194   1.941  0.0108 -0.1984 -0.2810
  984SOL    HW1 2951   0.732   0.138   2.027 -2.3277 -1.9904 -1.2658
  984SOL    HW2 2952   0.673   0.264   1.932 -2.9183  0.3552 -0.4890
  985SOL     OW 2953   1.634   1.901   1.936 -0.0791 -0.8785  0.5490
  985SOL    HW1 2954   1.580   1.980   1.966 -1.0403  1.0334 -1.0145
  985SOL    HW2 2955   1.708   1.923   1.868 -2.1619 -0.2381 -2.3840
  986SOL     OW 2956   2.405   2.810   1.743  0.4604  0.3287  0.0689
  986SOL    HW1 2957   2.402   2.760   1.833 -1.7115  0.8579 -0.3102
  986SOL    HW2 2958   2.427   2.907   1.758  1.6302 -0.6729 -2.0251
  987SOL     OW 2959   2.030   1.441   1.323  0.4105  0.2587  0.2130
  987SOL    HW1 2960   2.049   1.492   1.238  2.5510 -1.8256 -0.0069
  987SOL    HW2 2961   1.951   1.380   1.311  2.6068  1.4356  0.4927
  988SOL     OW 2962   2.533   1.882   2.006  0.0528 -0.8362 -0.2193
  988SOL    HW1 2963   2.558   1.949   2.074 -2.3989 -0.8118 -0.8086
  988SOL    HW2 2964   2.496   1.937   1.930  2.8971 -0.1489 -1.4019
  989SOL     OW 2965   1.166   2.568   3.087 -0.2297  0.1791 -0.2306
  989SOL    HW1 2966   1.180   2.617   0.085 -0.6837  0.3893 -0.3827
  989SOL    HW2 2967   1.165   2.468   0.013 -1.6622  1.1114 -0.9918
  990SOL     OW 2968   1.944   1.008   2.999 -0.0363  0.0049 -0.3209
  990SOL    HW1 2969   1.852   1.047   2.985  0.8643 -3.1336  0.2312
  990SOL    HW2 2970   2.014   1.071   2.965 -1.4009  1.0959 -0.2872
  991SOL     OW 2971   1.138   0.558   0.567 -0.4636 -0.8283 -0.2047
  991SOL    HW1 2972   1.036   0.568   0.571 -2.3923 -0.0722  0.8378
  991SOL    HW2 2973   1.170   0.515   0.655  2.1464  1.6231  0.3963
  992SOL     OW 2974   2.273   0.942   1.218  0.4166 -0.0420 -0.0312
  992SOL    HW1 2975   2.313   1.009   1.283 -1.0342  0.7162 -3.5011
  992SOL    HW2 2976   2.223   0.862   1.270  0.4775 -3.8391 -0.8426
  993SOL     OW 2977   2.512   0.844   1.617  0.3255  0.3708 -0.4981
  993SOL    HW1 2978   2.509   0.743   1.624  0.0464 -0.6684 -2.7759
  993SOL    HW2 2979   2.436   0.879   1.676 -0.0671 -0.0492  2.1822
  994SOL     OW 2980   0.559   1.842   2.498 -0.0912 -0.2173 -0.4913
  994SOL    HW1 2981   0.524   1.935   2.506  2.3826 -1.3751  1.1997
  994SOL    HW2 2982   0.496   1.764   2.469 -2.3456  0.7689 -0.3675
  995SOL     OW 2983   2.073   1.180   2.793  0.0154 -0.1100  0.0944
  995SOL    HW1 2984   2.146   1.241   2.823 -2.1796  0.7509 -0.9336
  995SOL    HW2 2985   2.086   1.144   2.698  2.6799 -1.4420  0.8588
  996SOL     OW 2986   2.221   1.806   0.330  0.4279  0.2048 -0.2165
  996SOL    HW1 2987   2.171   1.735   0.387 -0.7285 -0.8257  1.2846
  996SOL    HW2 2988   2.321   1.816   0.363  0.8306  0.5175  0.3028
  997SOL     OW 2989   2.205   0.585   2.217 -0.4065  0.4164  0.0670
  997SOL    HW1 2990   2.204   0.528   2.132 -2.1587  2.7378  0.0526
  997SOL    HW2 2991   2.148   0.542   2.290 -0.0549  1.0120  0.6164
  998SOL     OW 2992   2.766   1.081   0.526 -0.0592 -0.1460  0.1137
  998SOL    HW1 2993   2.738   1.146   0.592  2.6422 -1.4651  1.1993
  998SOL    HW2 2994   2.738   0.997   0.568 -1.3986  2.7718 -0.0631
  999SOL     OW 2995   2.970   1.846   0.778  0.5378 -0.1447 -0.3193
  999SOL    HW1 2996   2.967   1.950   0.784 -1.4099  1.5021  0.9853
  999SOL    HW2 2997   3.066   1.822   0.756 -0.9395 -1.0115  0.0699
 1000SOL     OW 2998   0.839   0.803   2.423 -0.2954 -0.3849 -0.1241
 1000SOL    HW1 2999   0.930   0.810   2.381 -2.1241 -1.4613  1.0191
 1000SOL    HW2 3000   0.782   0.741   2.367  0.6201  1.1876 -0.0010
   3.08889   3.08889   3.08889
