1000 SPC/Fw water molecules t= 220.00000 step= 220000
 3000
    1SOL     OW    1   0.077   2.923   0.792  0.1563 -0.0104 -0.3656
    1SOL    HW1    2   0.130   2.863   0.862 -0.1299  1.0123 -1.3309
    1SOL    HW2    3   0.086   3.024   0.810 -0.9410  0.7196  1.2718
    2SOL     OW    4   1.891   1.629   1.851 -0.0616  0.5590  0.1942
    2SOL    HW1    5   1.946   1.714   1.861 -1.5611 -0.7701  3.0839
    2SOL    HW2    6   1.839   1.616   1.937 -0.4451  0.9877  0.1635
    3SOL     OW    7   1.645   2.246   2.360  0.1189  0.7546  0.1512
    3SOL    HW1    8   1.588   2.261   2.446 -0.8000 -1.0758  1.1430
    3SOL    HW2    9   1.703   2.161   2.372 -2.2297  3.3949 -1.8865
    4SOL     OW   10   2.068   2.071   2.374 -0.0701  0.5982  0.2666
    4SOL    HW1   11   2.044   2.165   2.395  0.9538 -1.8262 -1.0498
    4SOL    HW2   12   2.072   2.012   2.456 -2.1487  1.8439  0.8708
    5SOL     OW   13   1.529   0.707   1.569  0.7117  0.2586 -0.0955
    5SOL    HW1   14   1.521   0.775   1.497  2.2032  0.6212  0.0047
    5SOL    HW2   15   1.446   0.712   1.632  1.9473  0.3873 -0.5856
    6SOL     OW   16   2.720   0.505   3.049  0.9166 -0.7672  0.7071
    6SOL    HW1   17   2.727   0.404   3.072  1.0613  0.1795  1.3334
    6SOL    HW2   18   2.747   0.517   2.950  2.5365 -1.1781  0.5675
    7SOL     OW   19   0.398   1.722   1.495  0.0216 -0.2576  0.1177
    7SOL    HW1   20   0.404   1.630   1.449 -0.4509  0.6858  0.2569
    7SOL    HW2   21   0.485   1.776   1.483  0.4806  1.3457 -0.1066
    8SOL     OW   22   1.139   0.426   0.836  0.5808  0.5056  0.2923
    8SOL    HW1   23   1.215   0.442   0.903 -1.3126 -3.4250  1.7537
    8SOL    HW2   24   1.049   0.460   0.877  0.2849 -0.0967 -0.4823
    9SOL     OW   25   1.418   0.451   2.561 -0.6181  0.6399  0.0938
    9SOL    HW1   26   1.441   0.532   2.504 -1.4166 -1.2887 -0.8876
    9SOL    HW2   27   1.408   0.367   2.504  2.4134 -2.1706 -0.2907
   10SOL     OW   28   0.706   2.509   3.087 -0.4419  0.3512  0.2746
   10SOL    HW1   29   0.788   2.462   3.047 -1.4221 -2.6255  0.4347
   10SOL    HW2   30   0.723   2.611   0.001  1.3036  1.0774 -0.4170
   11SOL     OW   31   0.708   1.142   3.000 -0.0596 -0.3510  0.5211
   11SOL    HW1   32   0.793   1.090   3.009 -2.6563 -0.3940  0.1520
   11SOL    HW2   33   0.639   1.091   2.946 -0.8220 -1.4082 -1.6006
   12SOL     OW   34   0.147   0.278   1.685 -0.2356  0.5908 -0.2390
   12SOL    HW1   35   0.204   0.308   1.609 -0.5538 -0.0428  1.4632
   12SOL    HW2   36   0.202   0.225   1.756 -0.7175  0.1267  0.7022
   13SOL     OW   37   1.233   0.052   0.210  0.6132  0.4245  0.4153
   13SOL    HW1   38   1.202   0.112   0.134  0.9719  2.0805 -2.3654
   13SOL    HW2   39   1.232   0.099   0.298 -0.1772  2.2431  0.0618
   14SOL     OW   40   1.184   2.488   1.127  0.3417 -0.3869 -0.3614
   14SOL    HW1   41   1.089   2.471   1.090 -0.7700 -2.0478 -1.3827
   14SOL    HW2   42   1.209   2.430   1.211  1.0473  0.7237  0.9124
   15SOL     OW   43   2.655   1.244   1.854  0.0217  0.0315 -0.1300
   15SOL    HW1   44   2.626   1.171   1.785 -1.3888  1.2842 -0.7342
   15SOL    HW2   45   2.747   1.218   1.888 -0.2394 -0.9231  1.5778
   16SOL     OW   46   1.777   0.059   2.997  0.7348  0.7126  0.3258
   16SOL    HW1   47   1.713   0.008   3.063 -4.3999 -0.4234 -0.0132
   16SOL    HW2   48   1.836   3.074   2.953  0.8069 -0.0230  1.7409
   17SOL     OW   49   0.880   3.066   1.134 -0.0815 -0.9125  0.2620
   17SOL    HW1   50   0.872   2.999   1.213 -1.8503 -0.5705 -2.1117
   17SOL    HW2   51   0.915   3.019   1.049 -0.5242  1.3792 -3.1815
   18SOL     OW   52   1.220   0.623   0.180  0.5189  0.2482 -0.4599
   18SOL    HW1   53   1.308   0.578   0.208 -0.5963 -0.1027  0.9399
   18SOL    HW2   54   1.216   0.719   0.219  2.1645 -1.0320 -0.1483
   19SOL     OW   55   2.216   1.918   0.002 -0.4827 -0.1487  0.0451
   19SOL    HW1   56   2.249   2.015   3.083  1.1991  1.0964 -0.5256
   19SOL    HW2   57   2.144   1.918   0.078 -1.3846 -0.0829  0.7165
   20SOL     OW   58   1.923   1.561   1.591 -0.1318  0.4604  0.0069
   20SOL    HW1   59   1.860   1.620   1.532  1.1230  2.3888  2.2626
   20SOL    HW2   60   1.898   1.580   1.689 -0.4863  1.1912 -1.3702
   21SOL     OW   61   0.964   1.077   2.912 -0.0667  0.7731  0.2191
   21SOL    HW1   62   0.910   1.067   2.826 -0.4084 -2.9346  0.6292
   21SOL    HW2   63   1.049   1.131   2.892  0.4785 -0.6407 -0.3472
   22SOL     OW   64   2.120   3.076   1.312 -0.5942  0.0945  0.3120
   22SOL    HW1   65   2.037   3.021   1.334 -0.4801 -1.4605 -1.5505
   22SOL    HW2   66   2.172   3.040   1.229  3.0107 -1.8107 -2.7816
   23SOL     OW   67   2.923   0.626   1.602 -0.3140  0.3013  0.7623
   23SOL    HW1   68   2.965   0.710   1.638  0.8800 -2.3182  2.1502
   23SOL    HW2   69   2.906   0.636   1.501  0.6524  3.3587  0.0030
   24SOL     OW   70   2.317   2.529   1.170  0.1621 -0.1768  0.3906
   24SOL    HW1   71   2.377   2.469   1.112  1.7785 -3.3395 -0.1853
   24SOL    HW2   72   2.367   2.591   1.233 -1.7076  0.1194 -1.0712
   25SOL     OW   73   1.806   2.861   2.484 -0.5828  0.5278  0.1866
   25SOL    HW1   74   1.811   2.757   2.494 -1.1614 -3.9491  0.7412
   25SOL    HW2   75   1.850   2.885   2.396 -0.3234  1.4967 -0.8526
   26SOL     OW   76   1.497   2.783   0.211  0.1600 -0.5680  0.2422
   26SOL    HW1   77   1.530   2.698   0.252 -1.3848  1.2263  1.3159
   26SOL    HW2   78   1.394   2.780   0.211  1.0218 -2.3371 -4.1029
   27SOL     OW   79   0.369   1.500   2.644  0.2807  0.1868 -0.4331
   27SOL    HW1   80   0.277   1.551   2.669 -2.6742  3.5853 -0.1626
   27SOL    HW2   81   0.424   1.567   2.595  0.6922 -1.2961  4.4254
   28SOL     OW   82   2.929   1.152   1.574 -0.7634  0.2071 -0.1496
   28SOL    HW1   83   2.882   1.238   1.547  2.6946 -3.0192 -0.8477
   28SOL    HW2   84   2.960   1.156   1.675 -0.8502  0.2731  2.5102
   29SOL     OW   85   2.743   2.469   2.106  0.4741  0.1073 -0.9495
   29SOL    HW1   86   2.802   2.400   2.148 -0.9193 -1.7312  0.5999
   29SOL    HW2   87   2.790   2.503   2.021 -0.8098  1.6827  1.4992
   30SOL     OW   88   1.602   0.153   0.198  0.0824  0.4371  0.2078
   30SOL    HW1   89   1.518   0.182   0.149  3.3683 -2.9378  0.8020
   30SOL    HW2   90   1.683   0.202   0.158  0.5674 -1.8564  0.3522
   31SOL     OW   91   2.866   2.574   1.875  0.1977  0.4863 -0.4333
   31SOL    HW1   92   2.948   2.629   1.888  1.9348 -3.5192  0.9765
   31SOL    HW2   93   2.838   2.587   1.778  0.7600 -1.9990 -0.2110
   32SOL     OW   94   1.154   1.477   1.422 -0.1101 -0.2711  0.1909
   32SOL    HW1   95   1.099   1.561   1.447  1.6320 -0.3344 -0.9286
   32SOL    HW2   96   1.221   1.503   1.350  0.2386 -0.1369  0.2560
   33SOL     OW   97   0.234   2.664   2.810 -0.2323 -0.2258 -0.0633
   33SOL    HW1   98   0.272   2.614   2.726 -0.5461 -3.1073 -1.5058
   33SOL    HW2   99   0.141   2.629   2.811  2.8385  0.0594 -1.1796
   34SOL     OW  100   1.761   2.962   0.838 -0.2616 -0.0148  0.4033
   34SOL    HW1  101   1.729   2.864   0.831  0.5990  3.0211 -0.5709
   34SOL    HW2  102   1.826   2.974   0.915 -0.2153 -0.1817  2.6719
   35SOL     OW  103   2.065   0.076   0.825 -0.4619  0.3599 -0.1882
   35SOL    HW1  104   2.052   0.039   0.732 -3.2570 -1.8316  0.4831
   35SOL    HW2  105   2.167   0.083   0.838  0.8357 -2.1157  0.9721
   36SOL     OW  106   1.924   2.876   2.244  0.0790  0.0592  0.1838
   36SOL    HW1  107   1.996   2.818   2.203 -1.7670  0.2691  1.3793
   36SOL    HW2  108   1.880   2.927   2.170  0.5857  0.2819 -1.8035
   37SOL     OW  109   1.062   2.715   2.113 -0.1361  0.0072 -0.1037
   37SOL    HW1  110   1.051   2.632   2.063 -0.9104 -0.0411  1.2589
   37SOL    HW2  111   1.056   2.697   2.216  0.1433 -0.6143  0.2258
   38SOL     OW  112   2.878   3.011   2.722  0.6452 -0.1042 -0.5729
   38SOL    HW1  113   2.848   2.918   2.692 -1.6355  1.0184  0.0640
   38SOL    HW2  114   2.932   2.996   2.808 -0.1118  1.3924  1.7783
   39SOL     OW  115   2.342   1.343   1.920 -0.2939  0.0790 -0.6705
   39SOL    HW1  116   2.349   1.376   1.823  0.6383 -0.5744 -0.1189
   39SOL    HW2  117   2.250   1.365   1.956  4.8844 -2.1167 -0.3637
   40SOL     OW  118   0.170   2.936   2.824  0.0558  0.1687 -0.7167
   40SOL    HW1  119   0.260   2.970   2.858  0.8796  1.4876  1.4318
   40SOL    HW2  120   0.176   2.837   2.807  1.6331  1.4403 -1.3756
   41SOL     OW  121   1.571   0.572   0.859  0.1555 -0.8669 -0.3664
   41SOL    HW1  122   1.510   0.650   0.874  1.0967  0.9089 -0.0998
   41SOL    HW2  123   1.554   0.556   0.760  0.0615  1.5666  0.5053
   42SOL     OW  124   0.421   0.922   1.438 -0.3952 -0.1230 -0.0626
   42SOL    HW1  125   0.505   0.968   1.398  0.4766  2.4972 -0.1478
   42SOL    HW2  126   0.362   0.883   1.364  2.9354  1.1453 -1.4382
   43SOL     OW  127   2.710   1.448   2.557  0.4747  0.3258 -0.1055
   43SOL    HW1  128   2.674   1.364   2.604  0.5853  1.5954 -2.9810
   43SOL    HW2  129   2.729   1.524   2.623 -1.3308 -0.6761 -2.2080
   44SOL     OW  130   0.100   2.687   0.410  0.1179 -0.1095 -0.1731
   44SOL    HW1  131   0.092   2.785   0.432  0.4988  0.2791  0.7634
   44SOL    HW2  132   0.168   2.641   0.473  0.1932  1.5370 -1.3665
   45SOL     OW  133   0.510   2.588   1.805  0.2228  0.2185 -1.0814
   45SOL    HW1  134   0.437   2.520   1.796  1.4296  1.5353  0.8305
   45SOL    HW2  135   0.475   2.683   1.789  0.9843  1.0842  0.4839
   46SOL     OW  136   2.366   2.393   2.361 -0.1969 -0.8292  0.3538
   46SOL    HW1  137   2.392   2.334   2.438  1.8285  2.0254 -2.4809
   46SOL    HW2  138   2.432   2.374   2.286  1.3752  0.4903 -0.0536
   47SOL     OW  139   2.271   1.944   1.541 -0.2277  0.1530 -0.5872
   47SOL    HW1  140   2.323   1.978   1.626  3.7608 -1.8087  3.0234
   47SOL    HW2  141   2.169   1.939   1.551  2.4329  1.0707 -0.6555
   48SOL     OW  142   0.724   1.517   0.207 -0.5133 -0.1410  0.0746
   48SOL    HW1  143   0.754   1.510   0.109  2.8919  0.7879 -1.3256
   48SOL    HW2  144   0.657   1.441   0.227 -1.1847 -0.9144 -1.5084
   49SOL     OW  145   2.814   0.502   2.805  0.5263  0.2041  0.0010
   49SOL    HW1  146   2.867   0.441   2.744 -1.9901  1.2223 -1.0292
   49SOL    HW2  147   2.723   0.527   2.764 -0.2265  1.6634  1.1370
   50SOL     OW  148   2.318   0.921   0.256 -0.3390 -0.2732  0.3673
   50SOL    HW1  149   2.245   0.983   0.225 -0.6621 -1.4962  0.0723
   50SOL    HW2  150   2.283   0.826   0.260 -0.8701  0.6253 -0.2244
   51SOL     OW  151   1.903   0.785   1.010  0.6565  0.2523 -0.1023
   51SOL    HW1  152   1.969   0.789   0.930  0.3310 -1.0532 -3.6735
   51SOL    HW2  153   1.873   0.688   1.019  0.2520 -1.9245  0.9204
   52SOL     OW  154   1.158   1.249   2.971  0.4808 -0.2979  0.2338
   52SOL    HW1  155   1.158   1.303   3.058  1.7483 -1.3451 -2.1911
   52SOL    HW2  156   1.254   1.219   2.951  0.2820 -0.2618  2.1324
   53SOL     OW  157   0.975   1.526   1.958 -0.1349  0.5519  0.5523
   53SOL    HW1  158   0.964   1.458   2.035  2.7833  1.6730 -0.5297
   53SOL    HW2  159   0.883   1.529   1.914 -2.1107  0.1341  0.5220
   54SOL     OW  160   1.956   0.318   0.808 -0.7849 -0.2200  0.0312
   54SOL    HW1  161   2.001   0.230   0.832 -1.1452 -0.0520 -1.1314
   54SOL    HW2  162   1.998   0.357   0.723  1.0616 -2.7165 -0.6365
   55SOL     OW  163   2.553   2.268   1.140  0.2890  0.1608  0.5360
   55SOL    HW1  164   2.512   2.306   1.054 -1.6263  2.8998  0.1168
   55SOL    HW2  165   2.487   2.203   1.182 -2.7559  0.3455 -1.5170
   56SOL     OW  166   0.984   2.789   1.534 -0.3980  0.0329  0.1041
   56SOL    HW1  167   1.066   2.744   1.497  0.8894  1.1835 -0.9602
   56SOL    HW2  168   0.999   2.843   1.623  1.8377  1.1926  0.9552
   57SOL     OW  169   1.733   1.494   0.369 -0.4049 -0.1150  0.7944
   57SOL    HW1  170   1.778   1.437   0.439 -0.4774  0.7326  0.0714
   57SOL    HW2  171   1.753   1.593   0.370 -1.4948  1.0563 -2.2773
   58SOL     OW  172   3.008   0.593   2.357  0.0291 -0.8569 -0.2445
   58SOL    HW1  173   3.058   0.616   2.269 -1.2720 -1.3937 -3.5188
   58SOL    HW2  174   3.021   0.671   2.426  1.1318  0.3671  0.4750
   59SOL     OW  175   1.061   2.652   2.385 -0.4110 -0.6761 -0.6975
   59SOL    HW1  176   1.160   2.643   2.403 -0.1541 -2.8074  0.4144
   59SOL    HW2  177   1.022   2.561   2.356  0.8680 -0.4011 -0.5826
   60SOL     OW  178   2.648   2.587   0.765 -0.2176 -0.4314 -0.0222
   60SOL    HW1  179   2.552   2.571   0.725 -1.4569  0.3011 -0.0523
   60SOL    HW2  180   2.642   2.660   0.827  1.1846 -2.3075 -4.0244
   61SOL     OW  181   1.329   2.279   0.760  0.5605 -0.1051 -0.6533
   61SOL    HW1  182   1.288   2.374   0.769  0.2860  0.0649 -0.6624
   61SOL    HW2  183   1.277   2.213   0.826 -2.3659 -1.8475  0.0331
   62SOL     OW  184   2.424   1.964   2.625 -0.6895  0.1634 -0.2453
   62SOL    HW1  185   2.330   1.942   2.655  1.5461  2.0855 -0.0201
   62SOL    HW2  186   2.440   1.939   2.525  1.4929 -0.1158  0.2069
   63SOL     OW  187   2.407   0.378   2.899 -0.3788 -0.1102 -0.1031
   63SOL    HW1  188   2.467   0.419   2.825 -0.7015 -0.9455  1.3108
   63SOL    HW2  189   2.433   0.285   2.926  0.8061  2.1473 -0.4543
   64SOL     OW  190   1.078   0.733   2.618 -0.4783  0.3887  0.5985
   64SOL    HW1  191   1.052   0.821   2.566 -0.4140  0.4435 -1.9452
   64SOL    HW2  192   1.051   0.742   2.718 -2.0462  0.6562  1.3198
   65SOL     OW  193   1.322   2.071   0.362 -0.1663  0.1705  0.0943
   65SOL    HW1  194   1.251   2.044   0.431 -2.7264 -0.3593  1.4689
   65SOL    HW2  195   1.285   2.146   0.301 -1.0632 -1.6307 -1.5062
   66SOL     OW  196   0.314   1.200   1.741  0.1126  0.4525 -0.1849
   66SOL    HW1  197   0.292   1.218   1.836 -2.3600 -0.5249 -1.5055
   66SOL    HW2  198   0.362   1.274   1.693  2.4230 -0.9962 -0.1151
   67SOL     OW  199   2.430   3.083   2.590 -0.3625  0.1938 -0.0631
   67SOL    HW1  200   2.489   0.076   2.600 -0.8078 -0.5935 -1.1639
   67SOL    HW2  201   2.404   3.070   2.493 -0.5253  0.4003  0.4573
   68SOL     OW  202   0.474   2.252   1.169  0.4098  0.2502  0.2481
   68SOL    HW1  203   0.476   2.300   1.260 -0.3953  1.4924  0.2682
   68SOL    HW2  204   0.376   2.250   1.139 -1.3021  0.5333 -0.3361
   69SOL     OW  205   0.796   2.680   0.365 -0.3622 -0.3344 -1.2249
   69SOL    HW1  206   0.811   2.676   0.266 -1.9738 -0.0590  0.6615
   69SOL    HW2  207   0.873   2.732   0.417  2.2253  0.7806  2.3972
   70SOL     OW  208   2.848   0.929   2.822  0.6252 -0.4195 -0.1281
   70SOL    HW1  209   2.937   0.963   2.860 -3.5416 -0.3743  0.4018
   70SOL    HW2  210   2.856   0.906   2.719 -0.1614 -2.0191  0.0556
   71SOL     OW  211   0.107   1.155   2.465 -0.7392  0.0626  0.2446
   71SOL    HW1  212   0.207   1.179   2.470 -0.2008 -2.5944 -0.5560
   71SOL    HW2  213   0.062   1.213   2.398  1.8962 -3.5890 -2.0134
   72SOL     OW  214   2.885   2.273   0.572  0.1135 -0.1938  0.3958
   72SOL    HW1  215   2.889   2.357   0.517 -1.7279 -0.5976  0.8731
   72SOL    HW2  216   2.794   2.235   0.559  1.0626 -1.4306 -0.0577
   73SOL     OW  217   0.747   1.191   0.172 -0.1623 -0.1831 -0.5690
   73SOL    HW1  218   0.837   1.150   0.184 -2.1186  0.9497 -1.0510
   73SOL    HW2  219   0.711   1.188   0.073  1.7435 -2.0243 -0.8874
   74SOL     OW  220   2.994   0.221   0.267 -0.3246 -0.4981 -0.5386
   74SOL    HW1  221   2.930   0.205   0.189 -1.2846 -0.6818  1.7409
   74SOL    HW2  222   3.087   0.249   0.235  2.5853  0.8557  0.4004
   75SOL     OW  223   2.352   1.458   2.247  0.0400  0.0607  0.8291
   75SOL    HW1  224   2.428   1.433   2.187 -1.3068 -3.1422  1.1531
   75SOL    HW2  225   2.268   1.461   2.187 -1.5432  1.5124  1.0015
   76SOL     OW  226   2.217   2.730   1.469  0.3310  0.0779 -0.4925
   76SOL    HW1  227   2.311   2.709   1.509  1.0717 -0.6473 -0.2808
   76SOL    HW2  228   2.220   2.729   1.371  0.7291  0.2058  1.2029
   77SOL     OW  229   2.560   0.492   1.166 -0.7781 -0.0669 -0.1569
   77SOL    HW1  230   2.602   0.538   1.081  0.0607 -0.0999 -0.4168
   77SOL    HW2  231   2.575   0.552   1.243 -0.9729  0.1471 -2.1655
   78SOL     OW  232   1.751   1.222   3.077 -0.1797 -0.3309  0.1626
   78SOL    HW1  233   1.792   1.272   3.000  0.5358  0.5706  1.4027
   78SOL    HW2  234   1.814   1.220   0.067  1.2834  2.8602  0.6763
   79SOL     OW  235   0.654   1.863   1.962 -0.6236 -0.0261  0.3296
   79SOL    HW1  236   0.734   1.913   1.930 -0.0657 -1.6612  0.2138
   79SOL    HW2  237   0.667   1.774   1.917  0.2437 -0.0605 -0.5207
   80SOL     OW  238   1.437   1.027   0.859 -0.5536 -0.6054 -0.5369
   80SOL    HW1  239   1.482   1.094   0.803 -0.9675 -2.1905 -0.7264
   80SOL    HW2  240   1.483   1.024   0.948 -1.4588 -0.8356  0.2318
   81SOL     OW  241   0.532   0.501   1.173 -0.0789 -0.7356 -0.0964
   81SOL    HW1  242   0.437   0.471   1.175  1.3937  0.2404  0.6166
   81SOL    HW2  243   0.585   0.464   1.093 -2.2342 -0.0437 -0.9418
   82SOL     OW  244   1.539   2.323   1.665  0.2582 -0.1184  0.6577
   82SOL    HW1  245   1.479   2.265   1.727 -1.2697 -0.3863 -0.5779
   82SOL    HW2  246   1.523   2.297   1.567 -1.5216 -0.7049  0.3436
   83SOL     OW  247   0.511   2.793   1.228  0.3978 -0.0125  0.1964
   83SOL    HW1  248   0.541   2.857   1.156 -1.5571 -1.2062  1.9232
   83SOL    HW2  249   0.447   2.724   1.194  0.8568  2.4224  0.7967
   84SOL     OW  250   0.322   0.816   2.917  0.9848 -0.0226 -0.4752
   84SOL    HW1  251   0.286   0.834   2.821  1.4012 -2.5629 -1.1103
   84SOL    HW2  252   0.307   0.716   2.937 -1.0271  1.1740  0.7322
   85SOL     OW  253   2.897   2.520   1.598  0.7514  0.0794  0.3158
   85SOL    HW1  254   2.879   2.539   1.501 -0.1012  0.4317  1.9005
   85SOL    HW2  255   2.838   2.451   1.634  1.2455  1.4730 -0.2859
   86SOL     OW  256   0.090   2.560   1.617  0.3152 -0.2318 -0.3432
   86SOL    HW1  257   3.077   2.565   1.588 -2.7215  1.1173 -3.3824
   86SOL    HW2  258   0.135   2.654   1.608  0.2806  0.5994 -0.5353
   87SOL     OW  259   3.045   2.648   2.807  0.3262 -0.0425  0.6447
   87SOL    HW1  260   2.973   2.697   2.747 -0.6729  0.4929 -1.9701
   87SOL    HW2  261   3.013   2.561   2.854  0.3565  4.1489 -0.5553
   88SOL     OW  262   0.013   1.949   1.258  0.0790  0.1668 -0.1304
   88SOL    HW1  263   3.057   2.038   1.232  2.0879 -0.6445  0.2271
   88SOL    HW2  264   0.111   1.947   1.230 -0.1040 -3.5942  3.1356
   89SOL     OW  265   1.105   0.538   1.736  0.2683  0.5560  0.0299
   89SOL    HW1  266   1.024   0.570   1.682 -0.5809  0.3400  0.0546
   89SOL    HW2  267   1.098   0.445   1.773  1.2412 -0.8769 -0.5098
   90SOL     OW  268   3.032   1.550   1.828  1.0407 -0.3260  0.4227
   90SOL    HW1  269   2.933   1.546   1.839  2.9592 -1.9334  1.3091
   90SOL    HW2  270   3.064   1.633   1.774 -0.3759  0.2785 -0.8235
   91SOL     OW  271   1.120   1.682   0.499 -0.2422 -0.4393 -0.6622
   91SOL    HW1  272   1.133   1.726   0.587  3.0648 -1.5117 -1.4798
   91SOL    HW2  273   1.198   1.616   0.489  0.4144 -1.3414  0.8754
   92SOL     OW  274   2.347   0.357   1.063  0.5954  0.0298 -0.2854
   92SOL    HW1  275   2.431   0.398   1.108  0.9358 -2.5122 -1.2438
   92SOL    HW2  276   2.286   0.313   1.134  2.6115  0.8774  0.5016
   93SOL     OW  277   2.521   1.564   2.895 -0.4424  0.1019  0.0091
   93SOL    HW1  278   2.452   1.504   2.853 -0.7971  0.7747 -2.7223
   93SOL    HW2  279   2.481   1.639   2.949 -2.5382  0.4352 -1.8562
   94SOL     OW  280   2.459   2.228   2.567  0.1144  0.1405 -0.2981
   94SOL    HW1  281   2.445   2.130   2.590  1.2596 -0.6565  0.4397
   94SOL    HW2  282   2.559   2.254   2.587  2.4833  1.5569  0.8515
   95SOL     OW  283   1.815   0.518   0.962 -0.2436 -0.3732 -0.2571
   95SOL    HW1  284   1.724   0.536   0.922  0.5295  0.5340 -2.5521
   95SOL    HW2  285   1.868   0.456   0.899 -1.5283  1.6646 -1.3664
   96SOL     OW  286   2.868   2.980   1.770  0.0555 -0.5475  0.7534
   96SOL    HW1  287   2.890   2.936   1.863 -0.0027 -2.6161  3.3768
   96SOL    HW2  288   2.781   3.035   1.775 -1.2572 -0.8459 -0.5741
   97SOL     OW  289   2.151   0.255   1.257 -0.1223  0.3951  0.2018
   97SOL    HW1  290   2.137   0.155   1.273  1.5618  3.8990 -0.5401
   97SOL    HW2  291   2.198   0.293   1.343 -1.3932 -1.9217  4.6456
   98SOL     OW  292   1.515   2.200   1.435 -0.1833 -0.2153 -0.8583
   98SOL    HW1  293   1.572   2.219   1.354 -2.3484 -2.0903  1.4230
   98SOL    HW2  294   1.542   2.112   1.477 -0.7944  1.9591 -0.7363
   99SOL     OW  295   0.013   2.705   1.948 -0.4923  0.2015  0.6447
   99SOL    HW1  296   0.088   2.750   1.894  0.0564 -0.3457 -2.8799
   99SOL    HW2  297   0.043   2.632   2.010 -1.0176  1.6394 -0.4445
  100SOL     OW  298   0.254   0.902   2.678 -0.5297 -0.0445 -0.0198
  100SOL    HW1  299   0.189   0.865   2.608  0.6160 -0.7121  3.5299
  100SOL    HW2  300   0.345   0.897   2.632 -0.0569 -1.9344 -0.5059
  101SOL     OW  301   1.781   0.955   0.045  0.3132  0.6715 -0.3935
  101SOL    HW1  302   1.871   0.943   0.094  1.0966 -0.1439 -1.7841
  101SOL    HW2  303   1.771   1.052   0.021  1.5982 -3.0311  1.6399
  102SOL     OW  304   0.122   0.585   1.313  0.1029  0.3356 -0.1085
  102SOL    HW1  305   0.151   0.544   1.401 -0.1229  1.4069 -2.8526
  102SOL    HW2  306   0.185   0.659   1.280  0.5310 -2.7415 -2.0498
  103SOL     OW  307   2.501   0.770   1.979 -0.0918 -0.4853  0.3499
  103SOL    HW1  308   2.575   0.723   2.036  0.4731 -1.6796  3.6606
  103SOL    HW2  309   2.493   0.872   1.991 -0.4787  1.0322  1.3494
  104SOL     OW  310   0.358   0.181   2.772 -0.1228  0.3927  0.1019
  104SOL    HW1  311   0.278   0.166   2.713 -1.3916  0.2458  1.1307
  104SOL    HW2  312   0.388   0.091   2.817  2.7827  1.6055 -1.5042
  105SOL     OW  313   2.113   1.424   1.746 -0.4915  0.8278 -0.0588
  105SOL    HW1  314   2.044   1.475   1.695 -1.2417 -4.1291  0.2156
  105SOL    HW2  315   2.103   1.433   1.851 -0.6310  1.2050 -0.2795
  106SOL     OW  316   1.306   0.275   0.424  0.3975 -0.4735  0.0149
  106SOL    HW1  317   1.392   0.227   0.418 -3.7851 -0.5145 -2.3109
  106SOL    HW2  318   1.315   0.369   0.384 -0.0916  1.6528 -0.1652
  107SOL     OW  319   0.112   1.748   1.463  0.0095 -0.6934  0.1200
  107SOL    HW1  320   0.212   1.746   1.462 -2.3984 -1.3586 -1.7811
  107SOL    HW2  321   0.085   1.789   1.372 -1.4160 -1.0413 -3.1817
  108SOL     OW  322   0.078   2.588   2.351  0.9868 -0.0953 -0.3929
  108SOL    HW1  323   0.156   2.561   2.406  1.0319  0.8796 -0.7263
  108SOL    HW2  324   0.042   2.681   2.374 -1.3706  1.3485  0.5690
  109SOL     OW  325   1.785   0.322   0.120  0.2315  0.0698 -0.9563
  109SOL    HW1  326   1.772   0.414   0.155  0.0745  1.6574 -0.5868
  109SOL    HW2  327   1.839   0.326   0.038 -1.8318 -1.3458  2.1755
  110SOL     OW  328   0.360   2.265   2.569 -0.3753  0.3582  0.3850
  110SOL    HW1  329   0.464   2.260   2.560  2.3468 -0.1089 -1.4690
  110SOL    HW2  330   0.333   2.192   2.635  1.0682  0.6468  0.8692
  111SOL     OW  331   1.510   2.617   1.972  0.1743 -0.1540  0.1724
  111SOL    HW1  332   1.600   2.574   1.982 -1.1766  0.0672  1.5287
  111SOL    HW2  333   1.482   2.606   1.872  0.7195  1.8635 -2.6995
  112SOL     OW  334   1.850   2.610   2.568  0.2700 -0.4194  0.3304
  112SOL    HW1  335   1.765   2.615   2.622 -0.7343  2.6057 -1.2217
  112SOL    HW2  336   1.930   2.584   2.621 -0.5815  1.1381 -0.3182
  113SOL     OW  337   1.923   2.489   1.765  0.2519 -0.2659 -0.0782
  113SOL    HW1  338   1.858   2.535   1.699 -1.6468  1.0026  1.0028
  113SOL    HW2  339   2.003   2.448   1.718 -1.4717 -0.1482  0.3588
  114SOL     OW  340   2.784   0.761   0.576 -0.7249 -0.0961  0.5221
  114SOL    HW1  341   2.696   0.775   0.524 -0.9997  0.6083 -1.2616
  114SOL    HW2  342   2.809   0.829   0.645  0.7423 -2.5079 -3.1122
  115SOL     OW  343   0.156   1.082   2.869 -0.2967  0.1543  0.1017
  115SOL    HW1  344   0.227   1.151   2.888 -1.2606  0.6041 -0.6025
  115SOL    HW2  345   0.176   1.016   2.797 -0.6863  3.1923 -0.4949
  116SOL     OW  346   0.264   1.209   1.999 -0.1035 -0.6496 -0.0803
  116SOL    HW1  347   0.232   1.303   2.021 -1.1384 -0.9666 -1.6240
  116SOL    HW2  348   0.277   1.152   2.086 -0.1016 -1.1759  0.2525
  117SOL     OW  349   2.519   0.085   0.712 -0.1526 -0.0660  0.2127
  117SOL    HW1  350   2.580   0.004   0.690 -0.0730 -0.2731 -0.4306
  117SOL    HW2  351   2.476   0.131   0.634  0.0841 -0.9998 -0.8724
  118SOL     OW  352   1.161   1.852   1.673 -0.3532  0.4444 -0.2400
  118SOL    HW1  353   1.242   1.791   1.668 -1.4610  0.2940 -1.5488
  118SOL    HW2  354   1.135   1.867   1.770 -3.5264  0.6172  2.0311
  119SOL     OW  355   1.095   2.249   0.037 -0.2799  0.1387 -0.4069
  119SOL    HW1  356   1.077   2.150   0.031 -1.1824 -1.6109 -1.3146
  119SOL    HW2  357   1.137   2.272   0.125  1.2150 -0.2322 -3.1960
  120SOL     OW  358   0.530   1.007   2.646  0.0587  0.3760 -0.2389
  120SOL    HW1  359   0.589   0.969   2.571 -2.7804 -1.2187 -0.0408
  120SOL    HW2  360   0.559   0.979   2.738  0.6858  3.2998  1.8976
  121SOL     OW  361   2.103   2.737   1.184 -0.0885 -0.5108  0.0606
  121SOL    HW1  362   2.015   2.706   1.147 -0.1238 -1.4762  1.0796
  121SOL    HW2  363   2.170   2.753   1.110  0.3208 -0.8813  3.1524
  122SOL     OW  364   2.460   2.185   2.009 -0.0495 -0.0672 -0.2555
  122SOL    HW1  365   2.404   2.135   2.074  2.7036  2.7606 -0.8524
  122SOL    HW2  366   2.465   2.285   2.038  0.1091 -1.5337  2.3282
  123SOL     OW  367   0.320   3.066   0.574 -0.6229 -0.1378  0.5600
  123SOL    HW1  368   0.303   0.068   0.619  2.1189  3.0247 -0.8490
  123SOL    HW2  369   0.237   3.017   0.581  3.9947 -0.9948  1.1897
  124SOL     OW  370   1.995   0.588   2.434 -0.0932 -0.2675 -0.6491
  124SOL    HW1  371   1.964   0.684   2.425  1.1667 -0.4432 -0.7712
  124SOL    HW2  372   2.080   0.559   2.383 -0.0453 -0.2938  0.4644
  125SOL     OW  373   0.365   1.514   0.774  0.9339  0.0665 -0.5802
  125SOL    HW1  374   0.407   1.494   0.682  1.9434  0.3818  0.8287
  125SOL    HW2  375   0.299   1.591   0.755  0.1428  1.0405  1.6711
  126SOL     OW  376   2.391   1.651   0.965 -0.4312  0.2546 -0.1316
  126SOL    HW1  377   2.484   1.645   0.999 -1.6579 -1.7650 -1.2046
  126SOL    HW2  378   2.342   1.730   1.009 -1.8642  2.0768 -0.1274
  127SOL     OW  379   0.227   2.198   1.759 -0.1981  0.3619 -0.2002
  127SOL    HW1  380   0.148   2.205   1.693  2.1854 -1.2719 -1.7130
  127SOL    HW2  381   0.273   2.290   1.776  0.3414 -0.4021  0.7963
  128SOL     OW  382   0.760   0.623   2.348  0.0147 -1.0952  0.4676
  128SOL    HW1  383   0.752   0.719   2.311 -0.1676  1.8916  1.1386
  128SOL    HW2  384   0.849   0.602   2.399 -2.8174  0.4561 -0.1185
  129SOL     OW  385   2.449   1.221   1.075  0.0313 -0.2022 -0.2957
  129SOL    HW1  386   2.537   1.237   1.123  2.6159 -1.3770 -0.0905
  129SOL    HW2  387   2.456   1.256   0.980 -0.6531  0.3026  0.1256
  130SOL     OW  388   2.506   1.523   1.523 -0.4862 -0.2258 -0.2332
  130SOL    HW1  389   2.491   1.423   1.526  0.1451 -0.3726 -0.9863
  130SOL    HW2  390   2.451   1.567   1.600 -2.5170 -1.4927  0.2759
  131SOL     OW  391   2.537   0.696   3.060 -0.2643 -0.5997 -0.1174
  131SOL    HW1  392   2.587   0.779   0.015  0.3843  0.4988 -1.2166
  131SOL    HW2  393   2.608   0.622   3.059 -2.7782  1.5392  1.3388
  132SOL     OW  394   2.717   2.159   1.908  0.3550 -0.4469  0.3726
  132SOL    HW1  395   2.630   2.137   1.957  0.5117  1.1860 -0.9131
  132SOL    HW2  396   2.784   2.177   1.985 -0.7920 -0.7878  1.8498
  133SOL     OW  397   0.310   1.163   1.094 -0.3240  0.3468 -0.6606
  133SOL    HW1  398   0.282   1.186   0.999  1.6055  1.2702  1.3748
  133SOL    HW2  399   0.412   1.169   1.106  2.1482 -0.4147  1.2581
  134SOL     OW  400   0.314   1.309   3.078  0.4630  0.3400  0.2954
  134SOL    HW1  401   0.230   1.363   3.060  1.8426  0.0183  2.4375
  134SOL    HW2  402   0.367   1.292   2.994  1.0661  0.6663  0.1089
  135SOL     OW  403   2.069   1.412   1.410  0.3585 -0.2878 -0.3147
  135SOL    HW1  404   2.115   1.340   1.464  0.5606 -0.7619  0.6827
  135SOL    HW2  405   2.002   1.459   1.476 -4.1220  1.6500  0.4911
  136SOL     OW  406   2.768   0.958   0.921  0.3402 -0.3624  0.1356
  136SOL    HW1  407   2.813   0.972   0.830 -2.2393 -2.9598 -2.0177
  136SOL    HW2  408   2.672   0.923   0.907 -0.3138  1.3240 -0.2286
  137SOL     OW  409   2.642   1.655   1.063 -0.2549  0.6444  0.5395
  137SOL    HW1  410   2.682   1.740   1.095  1.7052 -2.4260  1.6744
  137SOL    HW2  411   2.588   1.609   1.138  0.9406  1.1806 -0.3787
  138SOL     OW  412   1.648   0.743   1.170  0.2068  0.1354 -0.2927
  138SOL    HW1  413   1.746   0.758   1.169 -0.7984 -1.6272  1.4442
  138SOL    HW2  414   1.632   0.646   1.200 -1.6627 -1.0561 -2.6469
  139SOL     OW  415   2.121   0.075   2.958 -0.0732  0.5204 -0.0232
  139SOL    HW1  416   2.151   0.174   2.953  0.1536 -0.3076  0.8463
  139SOL    HW2  417   2.202   0.016   2.937  2.0030  0.2405 -2.3689
  140SOL     OW  418   1.497   1.698   2.103 -0.3796  0.4219 -0.3096
  140SOL    HW1  419   1.594   1.685   2.126 -0.5154  0.8810 -0.5422
  140SOL    HW2  420   1.462   1.623   2.043  0.2959 -1.0320 -1.2712
  141SOL     OW  421   2.007   1.917   0.985  0.4307 -0.4153 -0.0346
  141SOL    HW1  422   2.042   2.003   1.034  0.7121  2.1756 -1.6289
  141SOL    HW2  423   2.045   1.836   1.036  0.0285  0.4736 -0.3997
  142SOL     OW  424   0.058   0.773   0.144  0.1936 -0.0823 -0.0208
  142SOL    HW1  425   0.012   0.693   0.106  2.5719  0.2091  1.5480
  142SOL    HW2  426   0.025   0.792   0.240 -1.3712  3.7920 -1.0573
  143SOL     OW  427   0.285   2.070   2.746  0.2377  0.0898  0.3737
  143SOL    HW1  428   0.355   2.017   2.800 -1.4194  0.7934  0.7083
  143SOL    HW2  429   0.220   2.009   2.703  4.0417  0.9494  0.4985
  144SOL     OW  430   1.009   0.022   1.787  0.0993 -0.4852 -0.0893
  144SOL    HW1  431   0.976   0.038   1.690  0.4677 -2.2335  0.0496
  144SOL    HW2  432   1.027   3.010   1.798 -0.5448 -1.2010  1.5821
  145SOL     OW  433   2.387   1.331   0.557 -0.2091  0.3448 -0.5892
  145SOL    HW1  434   2.325   1.251   0.553  0.2738 -0.2178  1.0582
  145SOL    HW2  435   2.408   1.363   0.463  1.1094 -1.3016 -0.1993
  146SOL     OW  436   2.551   2.539   3.033  0.0170  0.0710 -0.6237
  146SOL    HW1  437   2.545   2.507   2.940  0.4325  0.3894  1.1170
  146SOL    HW2  438   2.474   2.599   3.055  3.3464  1.1502 -0.3659
  147SOL     OW  439   2.530   2.934   1.175 -0.1993 -0.6781  0.1612
  147SOL    HW1  440   2.576   2.992   1.249  3.0130  3.0425  1.9792
  147SOL    HW2  441   2.573   2.955   1.085 -0.8104  2.5070  2.4709
  148SOL     OW  442   1.588   2.995   2.419  0.4968 -0.3191 -0.0256
  148SOL    HW1  443   1.535   3.030   2.499 -0.2393  0.0003 -0.0842
  148SOL    HW2  444   1.679   2.958   2.436 -0.6060  1.0278 -0.8442
  149SOL     OW  445   1.009   0.527   2.442  0.2981  0.8507 -0.3825
  149SOL    HW1  446   1.053   0.595   2.506  1.7842  1.0994 -1.5377
  149SOL    HW2  447   1.069   0.510   2.360  0.2499 -0.1606  1.3793
  150SOL     OW  448   0.952   2.806   0.555 -0.2228  0.2143 -0.0555
  150SOL    HW1  449   0.876   2.871   0.530 -0.7284  2.9457 -0.5972
  150SOL    HW2  450   1.039   2.863   0.572  2.2660  1.3891  1.5907
  151SOL     OW  451   0.076   1.682   0.129  0.2729 -0.1144 -0.3271
  151SOL    HW1  452   0.001   1.754   0.114 -2.0309  2.8866  0.5502
  151SOL    HW2  453   0.065   1.598   0.072  1.0280 -0.1498 -1.5623
  152SOL     OW  454   3.086   1.039   0.552  0.4518 -0.3952 -0.3958
  152SOL    HW1  455   0.019   1.124   0.497 -1.0103  1.1964 -2.9938
  152SOL    HW2  456   3.057   0.966   0.487 -0.1262  1.1910 -0.3215
  153SOL     OW  457   2.369   3.036   0.486 -0.1282  0.5964 -0.6465
  153SOL    HW1  458   2.379   0.050   0.484 -0.8225 -0.0419  1.1325
  153SOL    HW2  459   2.287   3.019   0.429  3.6156 -1.5924  3.4398
  154SOL     OW  460   0.850   0.626   1.691  0.2298  0.1679  0.2801
  154SOL    HW1  461   0.823   0.708   1.635  0.0084 -0.7790 -2.1432
  154SOL    HW2  462   0.797   0.628   1.779 -0.7368 -1.3722  0.3538
  155SOL     OW  463   3.034   1.738   0.920 -0.2969 -0.4203 -0.5419
  155SOL    HW1  464   2.957   1.678   0.897  1.3725  0.9973 -0.4497
  155SOL    HW2  465   3.004   1.840   0.915 -2.1880  1.1852  1.1134
  156SOL     OW  466   2.342   2.091   0.259  0.6219 -0.5154 -0.0482
  156SOL    HW1  467   2.367   1.994   0.269 -1.0157  1.3816  0.1447
  156SOL    HW2  468   2.353   2.123   0.165  0.4819  0.0379  3.8501
  157SOL     OW  469   0.973   2.971   0.890  0.0954  0.0195 -0.3548
  157SOL    HW1  470   0.900   2.902   0.906 -0.0933 -3.4138  2.0690
  157SOL    HW2  471   1.021   2.965   0.799 -1.0682 -0.4302 -1.9897
  158SOL     OW  472   2.564   0.523   2.711  0.5387  1.2394  0.2445
  158SOL    HW1  473   2.481   0.583   2.726 -0.6961 -0.1001  0.0433
  158SOL    HW2  474   2.569   0.478   2.620 -2.0774  0.6571 -0.9621
  159SOL     OW  475   0.459   0.262   3.011 -0.3517 -1.0417  0.3313
  159SOL    HW1  476   0.448   0.186   3.076 -0.0430 -0.0920 -0.3108
  159SOL    HW2  477   0.419   0.238   2.923 -2.3789  0.3184  0.8691
  160SOL     OW  478   1.257   1.892   0.162 -0.1311  0.0403 -0.8284
  160SOL    HW1  479   1.278   1.940   0.073 -2.2393  1.2409 -0.1628
  160SOL    HW2  480   1.293   1.947   0.237  1.9614  0.8775 -0.4791
  161SOL     OW  481   2.871   1.848   2.801 -0.1194 -0.0396 -0.1946
  161SOL    HW1  482   2.918   1.939   2.798 -0.8286  0.2453  2.7725
  161SOL    HW2  483   2.774   1.864   2.829 -1.7382 -1.2389 -0.6348
  162SOL     OW  484   0.249   2.797   0.947  0.0171 -0.0280 -0.3412
  162SOL    HW1  485   0.286   2.710   0.978  1.7840  1.9356 -0.0800
  162SOL    HW2  486   0.310   2.836   0.876 -2.3051  0.1821  0.3611
  163SOL     OW  487   2.144   0.334   2.900  0.0634  0.5210 -0.0360
  163SOL    HW1  488   2.240   0.368   2.887 -0.3021 -1.1768  0.0216
  163SOL    HW2  489   2.092   0.374   2.821 -2.0739  0.5784  1.4665
  164SOL     OW  490   2.890   1.975   0.817 -0.0290  0.0351 -0.4555
  164SOL    HW1  491   2.828   1.916   0.760 -1.1927 -0.6650  1.1858
  164SOL    HW2  492   2.846   2.066   0.824 -2.6131 -1.1198  0.7273
  165SOL     OW  493   2.665   0.121   1.678 -0.3669 -0.0206  0.5428
  165SOL    HW1  494   2.742   0.153   1.623  0.1153  0.9731 -2.1515
  165SOL    HW2  495   2.587   0.104   1.619  1.3643  1.8703 -0.0613
  166SOL     OW  496   2.288   0.415   0.770 -0.5754  0.6917  0.3716
  166SOL    HW1  497   2.199   0.396   0.729  0.5214 -1.0765  0.0170
  166SOL    HW2  498   2.290   0.398   0.869  0.6798  0.4642 -0.1872
  167SOL     OW  499   0.655   0.370   0.979  0.4015  0.5307 -0.1822
  167SOL    HW1  500   0.725   0.325   1.039  0.1004 -1.4026 -0.8086
  167SOL    HW2  501   0.691   0.387   0.888 -1.1787  3.0487  1.8660
  168SOL     OW  502   1.948   2.873   1.825 -0.2064  0.2763  0.2903
  168SOL    HW1  503   1.906   2.897   1.913  0.3754 -1.7112 -0.1278
  168SOL    HW2  504   2.052   2.876   1.827  3.6532 -0.1053 -0.4333
  169SOL     OW  505   0.234   1.266   0.856  0.2437 -0.2026 -0.4313
  169SOL    HW1  506   0.275   1.351   0.824 -1.9851 -1.4186  1.9713
  169SOL    HW2  507   0.142   1.260   0.819  1.2497  0.7161 -0.3426
  170SOL     OW  508   2.552   0.811   1.271 -0.3266 -0.3067 -0.6684
  170SOL    HW1  509   2.481   0.787   1.201 -2.4818  1.0503 -0.5225
  170SOL    HW2  510   2.522   0.767   1.362 -1.8280 -4.7681  1.1772
  171SOL     OW  511   0.895   2.473   1.580 -0.1432 -0.2057 -0.3109
  171SOL    HW1  512   0.972   2.425   1.535  2.0611 -1.0333  1.3980
  171SOL    HW2  513   0.833   2.521   1.519 -1.0605  1.0003 -0.6292
  172SOL     OW  514   0.117   2.548   1.258  0.0449  0.0181  0.2684
  172SOL    HW1  515   0.149   2.487   1.333 -0.8975 -1.3439  1.2547
  172SOL    HW2  516   0.091   2.641   1.292  0.8495 -0.3164 -0.0835
  173SOL     OW  517   1.428   0.296   0.061  0.5101  0.2846  0.0337
  173SOL    HW1  518   1.323   0.284   0.058  0.9272  0.0585  4.0203
  173SOL    HW2  519   1.468   0.371   0.003 -1.8689 -3.3649  1.8396
  174SOL     OW  520   1.372   0.097   2.825 -0.2136 -0.0909  0.0897
  174SOL    HW1  521   1.277   0.128   2.836  1.1575 -0.0164 -1.1013
  174SOL    HW2  522   1.388   0.057   2.733 -1.7712 -0.3019 -0.3598
  175SOL     OW  523   1.793   2.494   2.964  0.2103  0.3303 -0.0978
  175SOL    HW1  524   1.749   2.530   2.878  0.9919  0.8435  0.3685
  175SOL    HW2  525   1.839   2.575   3.007 -1.3273 -0.0395 -0.0796
  176SOL     OW  526   1.617   0.218   2.841  0.0379 -0.6280  0.1957
  176SOL    HW1  527   1.684   0.158   2.893  0.7824 -1.9108 -1.1066
  176SOL    HW2  528   1.524   0.172   2.834  0.3604  2.1273 -0.3754
  177SOL     OW  529   0.792   1.451   0.662  0.2321  0.2333  0.0717
  177SOL    HW1  530   0.828   1.466   0.566  0.1534  0.4279 -1.6402
  177SOL    HW2  531   0.826   1.524   0.726  2.1183  2.0503  2.6608
  178SOL     OW  532   3.054   1.651   2.526  0.1422  0.9926 -0.5488
  178SOL    HW1  533   0.049   1.629   2.469 -0.1623 -2.0984  1.5094
  178SOL    HW2  534   2.971   1.680   2.477  0.4679 -0.4607 -0.5977
  179SOL     OW  535   0.719   2.472   2.747  0.4677  0.1280 -0.4158
  179SOL    HW1  536   0.788   2.456   2.674  1.3855 -2.0315 -5.2935
  179SOL    HW2  537   0.711   2.570   2.756  1.6029 -3.2857 -1.3928
  180SOL     OW  538   1.998   1.906   1.578  0.1877  0.2773 -0.5569
  180SOL    HW1  539   2.022   1.867   1.669  0.9771  0.7904  1.3323
  180SOL    HW2  540   1.928   1.845   1.535 -0.7043 -0.3798 -0.2654
  181SOL     OW  541   1.459   1.098   2.231 -0.6302  0.1795 -0.7275
  181SOL    HW1  542   1.540   1.031   2.233  2.1559 -1.5426 -0.8559
  181SOL    HW2  543   1.467   1.173   2.303  1.9416  4.2431  4.1654
  182SOL     OW  544   2.953   0.097   2.547 -0.0385  0.0959  0.4644
  182SOL    HW1  545   2.937   0.009   2.598 -1.9823 -0.0633 -0.3787
  182SOL    HW2  546   2.963   0.078   2.444  2.2484  1.6744 -1.5355
  183SOL     OW  547   1.344   0.530   2.812  0.5112 -0.2658 -0.2999
  183SOL    HW1  548   1.362   0.469   2.736  0.4499  0.5078 -0.4080
  183SOL    HW2  549   1.429   0.532   2.867 -1.7892 -0.4185 -0.3521
  184SOL     OW  550   0.614   1.083   1.312  0.4648 -0.1350  0.3027
  184SOL    HW1  551   0.677   1.134   1.372  1.3162  0.3207  0.3640
  184SOL    HW2  552   0.592   1.139   1.226  2.1730  0.9601 -0.6214
  185SOL     OW  553   2.410   1.060   1.320  0.0662  0.5178  0.0079
  185SOL    HW1  554   2.433   0.962   1.314 -0.9907 -2.7245  1.9965
  185SOL    HW2  555   2.418   1.098   1.224 -2.9765 -1.4144 -2.2585
  186SOL     OW  556   0.680   1.578   2.517  0.0791 -0.3739 -0.3175
  186SOL    HW1  557   0.766   1.608   2.470  0.2521 -0.1503  0.4980
  186SOL    HW2  558   0.604   1.620   2.465 -0.0789 -0.8828  1.3120
  187SOL     OW  559   2.329   1.318   0.291 -0.3227 -0.5287 -0.1271
  187SOL    HW1  560   2.262   1.337   0.216  0.0351  0.3726 -1.2959
  187SOL    HW2  561   2.419   1.304   0.244 -1.9689 -0.8708 -0.0314
  188SOL     OW  562   0.126   2.047   0.457  0.4368  0.6768 -0.1879
  188SOL    HW1  563   0.081   2.034   0.556 -1.9111 -1.8328  4.0579
  188SOL    HW2  564   0.202   2.112   0.467 -0.0455  0.4935  2.7081
  189SOL     OW  565   2.576   0.781   0.372  0.3207 -0.2197  0.6337
  189SOL    HW1  566   2.641   0.735   0.310  1.0297  1.7740  2.0781
  189SOL    HW2  567   2.480   0.775   0.344 -0.1737 -0.1136  1.5185
  190SOL     OW  568   1.151   1.210   2.404  0.3823  0.1384 -0.2276
  190SOL    HW1  569   1.205   1.285   2.361  0.7275  0.1927  0.4931
  190SOL    HW2  570   1.107   1.154   2.329  1.5156  0.2050  0.6846
  191SOL     OW  571   2.208   0.175   1.962 -0.2363 -0.3281  0.7049
  191SOL    HW1  572   2.266   0.261   1.969 -0.2934 -0.2895 -0.8347
  191SOL    HW2  573   2.180   0.159   1.861  0.4503  0.7879 -1.2989
  192SOL     OW  574   1.796   0.733   1.633 -0.1094 -0.1721 -0.2577
  192SOL    HW1  575   1.822   0.734   1.736 -2.7273  0.0541  1.3441
  192SOL    HW2  576   1.699   0.715   1.620  1.5875 -2.0461 -0.0167
  193SOL     OW  577   0.787   0.553   0.731  0.3533 -0.2968 -0.1157
  193SOL    HW1  578   0.700   0.606   0.738  1.8195  2.0569  1.7783
  193SOL    HW2  579   0.849   0.602   0.669 -0.4607 -0.2421  0.5056
  194SOL     OW  580   1.332   2.805   0.828  0.2901 -0.3125 -0.7691
  194SOL    HW1  581   1.405   2.799   0.754 -0.0180 -0.8397  2.2107
  194SOL    HW2  582   1.379   2.847   0.913  2.4447  0.7421  1.3896
  195SOL     OW  583   2.357   0.692   0.700 -0.2161  0.1081  0.4001
  195SOL    HW1  584   2.365   0.713   0.601  2.3709 -2.8971  0.2991
  195SOL    HW2  585   2.364   0.591   0.711  2.1230 -0.2627 -0.7609
  196SOL     OW  586   1.043   1.713   1.465  0.3536 -0.8411  0.2576
  196SOL    HW1  587   1.074   1.770   1.383  2.8178  3.1560 -0.9517
  196SOL    HW2  588   1.066   1.761   1.554 -1.1646  0.2975  0.2267
  197SOL     OW  589   0.275   2.931   0.129 -0.2448  0.0740  0.6657
  197SOL    HW1  590   0.296   2.937   0.231 -1.4109  0.5775  0.5903
  197SOL    HW2  591   0.267   2.836   0.091  0.2451  0.4206 -0.2445
  198SOL     OW  592   0.830   1.185   0.709  0.6596  0.2245  0.2068
  198SOL    HW1  593   0.744   1.149   0.665 -2.1278  2.4815 -2.6703
  198SOL    HW2  594   0.814   1.285   0.708 -3.3482  0.6458 -3.3160
  199SOL     OW  595   0.182   3.071   1.633 -0.0910  0.0855 -0.6056
  199SOL    HW1  596   0.154   0.082   1.637 -1.5145  1.7506  1.2319
  199SOL    HW2  597   0.095   3.028   1.594  0.8481 -0.5705  0.1693
  200SOL     OW  598   2.164   1.924   2.637  0.0963 -0.3811 -0.0624
  200SOL    HW1  599   2.138   1.856   2.707 -1.8307 -2.4331  0.5477
  200SOL    HW2  600   2.132   2.016   2.666 -1.0952  2.4729 -0.9785
  201SOL     OW  601   2.691   2.927   0.956 -0.0771 -0.2786  0.3379
  201SOL    HW1  602   2.616   2.888   0.897  0.5166  1.4388  0.8503
  201SOL    HW2  603   2.781   2.918   0.908 -2.6939  1.9294  0.6850
  202SOL     OW  604   2.805   0.637   0.277  0.3372 -0.0935  0.6583
  202SOL    HW1  605   2.873   0.619   0.198  0.4658 -1.4729  1.4618
  202SOL    HW2  606   2.752   0.551   0.300 -0.4551  0.0403  0.0542
  203SOL     OW  607   1.230   1.425   2.264  0.0560 -0.6906 -0.0020
  203SOL    HW1  608   1.289   1.378   2.195 -1.0201  2.1188 -2.2122
  203SOL    HW2  609   1.262   1.516   2.292 -3.6286 -2.2980 -1.0154
  204SOL     OW  610   0.948   1.373   2.179 -0.2032 -0.4870  0.2855
  204SOL    HW1  611   1.038   1.379   2.222 -0.3143 -0.7606 -1.0048
  204SOL    HW2  612   0.891   1.302   2.224  0.5904 -0.2480 -1.5156
  205SOL     OW  613   1.270   1.977   1.464 -0.4327 -0.5112  0.1223
  205SOL    HW1  614   1.228   1.937   1.546  1.4411  1.7820 -1.5394
  205SOL    HW2  615   1.325   2.062   1.474 -1.0210  0.1285 -0.2509
  206SOL     OW  616   0.063   0.284   2.790 -0.0327 -0.3182 -0.0119
  206SOL    HW1  617   0.087   0.232   2.705 -1.2549 -3.1888 -2.5918
  206SOL    HW2  618   3.078   0.351   2.758  1.1826  3.0435  0.8620
  207SOL     OW  619   1.804   3.007   2.041  0.3549  0.1539 -0.2970
  207SOL    HW1  620   1.714   2.962   2.059 -3.4756  2.7717  1.6702
  207SOL    HW2  621   1.830   3.076   2.118  1.9837 -0.9989  2.5026
  208SOL     OW  622   0.555   2.218   1.879  0.7711 -0.0537  0.6520
  208SOL    HW1  623   0.504   2.146   1.824  0.3971 -1.2454 -1.0892
  208SOL    HW2  624   0.591   2.295   1.823 -0.1404 -0.4958  1.0834
  209SOL     OW  625   1.773   1.081   2.723  0.5289 -0.4740 -0.1293
  209SOL    HW1  626   1.701   1.111   2.656  3.1652  1.0007  2.2877
  209SOL    HW2  627   1.762   0.983   2.754  1.5448  1.6803  0.5785
  210SOL     OW  628   2.838   0.517   0.736  0.2896  0.6028  0.0937
  210SOL    HW1  629   2.837   0.580   0.658 -0.3021 -2.9644  0.9803
  210SOL    HW2  630   2.767   0.545   0.801  2.7880 -0.4809 -2.1926
  211SOL     OW  631   0.601   1.235   1.068 -0.6315 -0.1802 -0.0685
  211SOL    HW1  632   0.574   1.302   0.999 -0.9365 -2.6472 -1.0523
  211SOL    HW2  633   0.700   1.197   1.050 -0.2297  0.4372  2.7223
  212SOL     OW  634   1.340   1.526   0.468 -0.4702 -0.3443  0.4200
  212SOL    HW1  635   1.329   1.423   0.479 -2.3344  0.2304 -0.7808
  212SOL    HW2  636   1.361   1.546   0.369 -0.9328  3.0409 -0.8390
  213SOL     OW  637   1.458   3.068   1.672 -0.0620  0.0909  0.4480
  213SOL    HW1  638   1.529   3.055   1.605  0.1909 -1.2608 -3.5787
  213SOL    HW2  639   1.406   0.065   1.655  1.2302 -2.6739 -0.4251
  214SOL     OW  640   1.588   1.624   2.490 -0.7919  0.0540 -0.0000
  214SOL    HW1  641   1.565   1.635   2.589  0.2084 -0.2418 -1.7490
  214SOL    HW2  642   1.552   1.705   2.440 -0.1051  1.3584 -0.0501
  215SOL     OW  643   0.271   1.951   1.179  0.1558  0.1978  0.5053
  215SOL    HW1  644   0.290   1.873   1.116 -2.3896  0.4090 -0.6171
  215SOL    HW2  645   0.292   2.040   1.136  1.7521 -0.1549  2.8243
  216SOL     OW  646   0.687   2.776   2.256  0.5392  0.4350  0.0124
  216SOL    HW1  647   0.660   2.815   2.163 -1.5314  1.6811  0.2596
  216SOL    HW2  648   0.717   2.853   2.318  0.2437 -0.7265 -1.5244
  217SOL     OW  649   2.316   0.536   3.086  0.1829 -1.0541  0.0575
  217SOL    HW1  650   2.339   0.456   3.022  1.4488  1.9404  1.0237
  217SOL    HW2  651   2.400   0.597   0.010 -0.1405  1.1759  1.1013
  218SOL     OW  652   2.087   1.681   2.151  0.3241  0.0548  0.3490
  218SOL    HW1  653   2.125   1.696   2.243 -0.8295 -0.5446  0.2631
  218SOL    HW2  654   2.087   1.774   2.108 -1.2157  2.1370 -0.8327
  219SOL     OW  655   1.706   1.042   0.431 -0.0020  0.4217 -0.4205
  219SOL    HW1  656   1.646   1.122   0.422  2.2419 -3.2225  0.1484
  219SOL    HW2  657   1.806   1.069   0.454 -0.1968  1.6006  2.0630
  220SOL     OW  658   1.463   1.775   0.992 -0.1163 -0.3522 -0.0535
  220SOL    HW1  659   1.465   1.874   0.973 -0.1713  1.1065 -0.3281
  220SOL    HW2  660   1.366   1.737   0.986  0.1683 -2.0327  1.1785
  221SOL     OW  661   0.130   0.442   3.037 -0.2917 -0.0373 -0.4584
  221SOL    HW1  662   0.221   0.487   3.052 -0.3878  1.3557  0.9440
  221SOL    HW2  663   0.134   0.397   2.949  0.1778  0.5466  0.9476
  222SOL     OW  664   1.103   2.367   1.461  0.4556 -0.2336 -0.2010
  222SOL    HW1  665   1.044   2.339   1.383  0.9597 -1.4990 -2.8463
  222SOL    HW2  666   1.197   2.380   1.425  1.5735  1.9014  1.3388
  223SOL     OW  667   1.421   2.729   2.747  0.5997 -0.3505 -0.1962
  223SOL    HW1  668   1.492   2.783   2.798  0.8038 -1.3439 -2.0934
  223SOL    HW2  669   1.337   2.713   2.802 -1.1274  1.5854 -3.8186
  224SOL     OW  670   2.508   1.496   1.254  0.3510  0.4461  0.0392
  224SOL    HW1  671   2.518   1.529   1.351 -1.7256 -1.8789 -0.3411
  224SOL    HW2  672   2.544   1.400   1.243 -0.5933 -1.3896 -1.8539
  225SOL     OW  673   0.794   1.191   1.482 -0.0325 -0.0912  0.2376
  225SOL    HW1  674   0.792   1.134   1.564 -1.7921 -0.1117 -2.3525
  225SOL    HW2  675   0.883   1.173   1.434  0.5493 -1.3291  1.7116
  226SOL     OW  676   1.640   2.561   2.757 -0.0801  0.0065 -0.0285
  226SOL    HW1  677   1.562   2.624   2.767 -0.6147 -1.5625 -0.0474
  226SOL    HW2  678   1.600   2.475   2.727 -0.8333 -1.2941  0.3894
  227SOL     OW  679   0.779   2.111   0.995 -0.3226 -1.0488 -0.2654
  227SOL    HW1  680   0.707   2.105   0.926  2.5379  2.4919  1.4992
  227SOL    HW2  681   0.769   2.192   1.061 -0.7520  3.2861  0.0024
  228SOL     OW  682   0.203   2.233   1.173 -0.4118 -0.1532  0.0839
  228SOL    HW1  683   0.181   2.275   1.264  0.0046 -3.5251 -0.9063
  228SOL    HW2  684   0.117   2.210   1.129  0.3295 -2.5393  2.7098
  229SOL     OW  685   2.180   1.355   0.044  0.0519  0.1063  0.6426
  229SOL    HW1  686   2.137   1.417   3.062  1.1278  0.3880  0.0869
  229SOL    HW2  687   2.208   1.262   0.007 -1.3272 -1.8698  0.3660
  230SOL     OW  688   1.044   1.075   2.190 -0.3495  0.5672  0.0033
  230SOL    HW1  689   0.956   1.039   2.161  2.5800  1.1089  0.6568
  230SOL    HW2  690   1.098   1.113   2.113 -1.9563  3.4783 -0.9784
  231SOL     OW  691   1.496   1.849   1.827  0.7362  0.1313  0.8362
  231SOL    HW1  692   1.544   1.820   1.908 -2.1205 -1.0836 -0.3511
  231SOL    HW2  693   1.446   1.764   1.793 -1.5380 -1.6836  1.3080
  232SOL     OW  694   1.985   2.276   1.301  0.1293  0.0687  0.1717
  232SOL    HW1  695   1.922   2.225   1.366 -2.1262 -0.3397  3.1150
  232SOL    HW2  696   1.931   2.337   1.238 -1.7476  0.9387 -0.1741
  233SOL     OW  697   1.756   2.519   2.315  0.0317  0.2740  0.0483
  233SOL    HW1  698   1.812   2.544   2.396 -0.3277 -0.2764 -0.5800
  233SOL    HW2  699   1.728   2.428   2.310 -1.9931  2.7182 -0.9718
  234SOL     OW  700   1.132   2.896   2.690 -0.2795  0.2384  0.2260
  234SOL    HW1  701   1.199   2.892   2.610  4.2704  0.1520  0.7095
  234SOL    HW2  702   1.042   2.861   2.655  1.2471 -1.8200 -3.1764
  235SOL     OW  703   2.767   2.690   2.986  0.0748 -0.1968 -0.0287
  235SOL    HW1  704   2.838   2.688   3.059  1.2495  0.3634 -3.0254
  235SOL    HW2  705   2.677   2.649   3.020 -2.8048  0.4228 -1.1016
  236SOL     OW  706   2.106   2.525   2.435  0.5371 -0.3351  0.0693
  236SOL    HW1  707   2.194   2.477   2.415  1.0629 -0.6115 -3.0186
  236SOL    HW2  708   2.095   2.543   2.535  1.5254  0.0885 -1.5919
  237SOL     OW  709   1.407   1.052   1.564  0.4636 -0.3421 -0.4211
  237SOL    HW1  710   1.442   1.001   1.487 -2.4988  2.1055  3.8163
  237SOL    HW2  711   1.304   1.077   1.558 -4.5616  0.6046  1.3385
  238SOL     OW  712   2.386   0.048   2.305 -0.0369  0.1355 -0.0013
  238SOL    HW1  713   2.486   0.059   2.286  2.5547  0.1989  1.4812
  238SOL    HW2  714   2.345   3.074   2.241  0.2559 -0.0711  0.6635
  239SOL     OW  715   0.663   1.597   1.924  0.4187  0.8026  0.5117
  239SOL    HW1  716   0.603   1.551   1.854  0.5128 -0.3308  0.6792
  239SOL    HW2  717   0.644   1.565   2.017 -0.7699  0.0115  1.0357
  240SOL     OW  718   0.000   2.281   0.747  0.2062  0.3188 -0.4326
  240SOL    HW1  719   0.014   2.382   0.759  1.9567  0.0832  0.9960
  240SOL    HW2  720   3.024   2.263   0.670  1.1128  0.8857 -0.0501
  241SOL     OW  721   1.883   2.154   0.830  0.1258  0.1666  0.5522
  241SOL    HW1  722   1.927   2.063   0.844 -1.2881  1.7112 -0.6179
  241SOL    HW2  723   1.817   2.147   0.756 -1.3874  1.3080 -0.4910
  242SOL     OW  724   1.243   1.703   2.964 -0.2188 -0.0489 -0.0073
  242SOL    HW1  725   1.327   1.655   2.998 -1.2393 -0.8647  0.9461
  242SOL    HW2  726   1.251   1.807   2.976  1.4939  0.9188 -0.2274
  243SOL     OW  727   0.761   2.678   1.882  0.5406 -0.3403 -0.4021
  243SOL    HW1  728   0.676   2.626   1.861 -3.1860  3.3810 -2.2260
  243SOL    HW2  729   0.806   2.648   1.969 -1.4247 -0.1975 -0.3474
  244SOL     OW  730   1.972   3.019   2.621 -0.0997  0.0915  0.1756
  244SOL    HW1  731   1.901   2.966   2.573 -2.9553  1.2999 -0.0015
  244SOL    HW2  732   2.032   3.052   2.547 -1.1867 -1.1597 -2.6727
  245SOL     OW  733   1.345   3.013   0.453 -0.0835  0.8182 -0.2308
  245SOL    HW1  734   1.405   0.004   0.432 -1.7645  1.2650 -0.2452
  245SOL    HW2  735   1.284   2.993   0.373  3.7899 -1.7641 -1.9912
  246SOL     OW  736   1.117   2.997   2.966 -0.0899 -0.7033  0.7304
  246SOL    HW1  737   1.132   2.942   2.882 -2.0792 -0.2262  3.8303
  246SOL    HW2  738   1.183   3.068   2.981  0.1913 -2.8080 -2.7057
  247SOL     OW  739   0.055   0.497   1.911 -0.2015 -0.2587 -0.3162
  247SOL    HW1  740   3.046   0.475   1.939  1.5447 -1.5143  0.4373
  247SOL    HW2  741   0.084   0.435   1.840 -0.7986 -0.3273  1.2403
  248SOL     OW  742   0.811   0.887   2.173  0.1643  0.2409 -0.4399
  248SOL    HW1  743   0.715   0.866   2.157  0.2984  1.4898 -0.1946
  248SOL    HW2  744   0.869   0.852   2.093 -1.4243  0.0908 -0.6988
  249SOL     OW  745   2.303   0.642   0.264 -0.0110  0.1358 -0.2690
  249SOL    HW1  746   2.207   0.618   0.286 -0.1016 -0.5250 -0.6754
  249SOL    HW2  747   2.330   0.585   0.182  1.1372 -0.7427  1.4992
  250SOL     OW  748   0.669   0.179   0.394 -0.6702  0.3738  0.5468
  250SOL    HW1  749   0.625   0.083   0.385 -0.6311  1.1100  0.7919
  250SOL    HW2  750   0.772   0.174   0.377 -0.6714 -0.5591  1.3335
  251SOL     OW  751   1.111   0.126   2.548  0.0908 -0.3148 -0.6127
  251SOL    HW1  752   1.093   0.026   2.547 -0.8175 -1.8285  1.1374
  251SOL    HW2  753   1.209   0.141   2.551 -0.8615  1.2305  0.7149
  252SOL     OW  754   1.796   1.674   2.116 -0.1989 -0.2632 -0.6757
  252SOL    HW1  755   1.809   1.775   2.135 -2.7294  1.0962 -0.5451
  252SOL    HW2  756   1.875   1.625   2.159  3.4620 -0.8059 -0.4245
  253SOL     OW  757   2.185   2.400   2.064 -0.2528 -0.3328  0.1675
  253SOL    HW1  758   2.274   2.405   2.112 -2.5399 -2.2838  1.3258
  253SOL    HW2  759   2.206   2.358   1.974  3.3228 -1.3037  1.7623
  254SOL     OW  760   1.120   2.157   1.656  0.0358  0.0134 -0.3175
  254SOL    HW1  761   1.092   2.072   1.604  0.6069  0.7827 -0.2813
  254SOL    HW2  762   1.100   2.240   1.599 -0.2332  2.3869 -0.6553
  255SOL     OW  763   0.824   1.165   0.981  0.2524  0.2655 -0.1868
  255SOL    HW1  764   0.916   1.189   1.019 -0.0410  1.8460  2.3194
  255SOL    HW2  765   0.824   1.169   0.879  1.1236 -1.2114  0.2222
  256SOL     OW  766   1.903   1.920   2.160  0.2227  0.3150 -0.3813
  256SOL    HW1  767   1.874   2.005   2.108 -0.8803  0.9348 -2.9837
  256SOL    HW2  768   1.937   1.949   2.252  2.5885 -3.0478  1.7198
  257SOL     OW  769   0.578   2.249   2.897 -0.0773 -0.0362  0.1589
  257SOL    HW1  770   0.620   2.338   2.877 -0.1170 -0.3500  1.3101
  257SOL    HW2  771   0.486   2.262   2.940  1.7326 -0.9087  1.7767
  258SOL     OW  772   0.609   0.204   2.151 -0.6714  0.3814  0.0296
  258SOL    HW1  773   0.643   0.295   2.173 -1.3119 -2.4596  0.9357
  258SOL    HW2  774   0.672   0.173   2.076  0.3915  0.2621 -2.4900
  259SOL     OW  775   0.858   0.396   2.198 -0.0958 -0.1958 -0.0462
  259SOL    HW1  776   0.806   0.463   2.248  0.4954 -1.9601 -1.9821
  259SOL    HW2  777   0.929   0.442   2.138  2.5329  1.3631 -0.6844
  260SOL     OW  778   1.374   0.756   0.839 -0.3488 -0.2601 -0.2956
  260SOL    HW1  779   1.411   0.848   0.828  1.6295 -0.0815 -1.3539
  260SOL    HW2  780   1.329   0.733   0.757  1.3249 -0.3885 -0.6001
  261SOL     OW  781   0.664   3.059   2.767  0.4814  0.2945 -0.1165
  261SOL    HW1  782   0.753   3.075   2.817  1.6426 -1.3477 -1.2698
  261SOL    HW2  783   0.663   0.034   2.689  0.8410 -0.2473  0.1633
  262SOL     OW  784   2.360   2.937   2.839 -0.0679 -0.4339  0.7653
  262SOL    HW1  785   2.459   2.934   2.873  1.1302 -0.3668 -0.1727
  262SOL    HW2  786   2.353   3.004   2.762 -1.6208  0.0268  0.5891
  263SOL     OW  787   0.327   1.835   2.486  0.0909  0.0924  0.0388
  263SOL    HW1  788   0.233   1.854   2.522  2.6800  2.7946  1.0589
  263SOL    HW2  789   0.397   1.821   2.556  0.3529  1.7055 -2.9405
  264SOL     OW  790   0.610   1.534   1.183 -0.0847  0.7517 -0.0897
  264SOL    HW1  791   0.702   1.563   1.221 -2.0248  0.1216  0.5413
  264SOL    HW2  792   0.613   1.458   1.115  1.3660 -2.0369  1.4396
  265SOL     OW  793   0.517   1.828   0.013  0.6176 -1.0254 -0.5123
  265SOL    HW1  794   0.488   1.754   3.042  0.6905  3.7812 -1.5893
  265SOL    HW2  795   0.560   1.804   0.101 -1.1626  1.0658 -4.2175
  266SOL     OW  796   1.269   1.257   0.508 -0.1198 -0.2538  0.2012
  266SOL    HW1  797   1.364   1.266   0.550  0.0810 -0.0511  0.8623
  266SOL    HW2  798   1.214   1.179   0.545 -1.5122 -0.8017 -0.0061
  267SOL     OW  799   2.516   1.019   0.070 -0.0717 -0.1379 -0.4074
  267SOL    HW1  800   2.598   0.964   0.043 -0.8942  1.1033  0.2185
  267SOL    HW2  801   2.463   0.985   0.149  0.5053  0.2152 -2.8132
  268SOL     OW  802   2.685   0.109   2.813  0.0630  0.1922  0.0304
  268SOL    HW1  803   2.679   0.165   2.729  0.9204 -0.1415 -0.5368
  268SOL    HW2  804   2.756   0.033   2.801  3.2018 -2.4714 -3.8493
  269SOL     OW  805   1.777   0.554   2.613  0.0841 -0.1725  0.4785
  269SOL    HW1  806   1.709   0.612   2.561 -1.4624  2.4207 -3.2325
  269SOL    HW2  807   1.852   0.526   2.551 -2.4439  1.0832 -0.8342
  270SOL     OW  808   0.889   1.133   2.655 -0.5269  0.0984 -0.0526
  270SOL    HW1  809   0.799   1.182   2.646  1.5492 -1.7168  0.8222
  270SOL    HW2  810   0.958   1.203   2.661  1.3594 -2.8901 -1.7496
  271SOL     OW  811   2.598   1.264   0.168  0.6411  0.8466  0.0393
  271SOL    HW1  812   2.567   1.179   0.125 -0.4527  2.1180 -0.4189
  271SOL    HW2  813   2.655   1.246   0.247 -1.0866 -0.5140 -1.0019
  272SOL     OW  814   2.772   1.607   2.762 -0.6327 -0.5140  0.4764
  272SOL    HW1  815   2.686   1.598   2.815  1.7440  0.1797 -2.1263
  272SOL    HW2  816   2.826   1.694   2.774 -0.5252  1.1514 -0.4277
  273SOL     OW  817   2.029   0.631   0.235  0.7143  0.3627 -0.1904
  273SOL    HW1  818   1.980   0.601   0.315 -0.5590 -2.9127  0.3785
  273SOL    HW2  819   2.017   0.576   0.142  0.1592 -0.6913 -2.7470
  274SOL     OW  820   0.381   2.601   1.070 -0.4747 -0.1553  0.2026
  274SOL    HW1  821   0.407   2.547   0.988 -1.8898 -1.1694 -0.5828
  274SOL    HW2  822   0.360   2.539   1.148  0.0690 -1.2665 -0.4698
  275SOL     OW  823   2.515   1.586   0.725  0.3945 -0.3408  0.4327
  275SOL    HW1  824   2.499   1.489   0.750  1.4055 -0.6935  0.6849
  275SOL    HW2  825   2.452   1.639   0.789 -0.9193 -0.7097 -0.2012
  276SOL     OW  826   0.132   0.911   2.335 -0.7681  0.6616  0.5296
  276SOL    HW1  827   0.137   0.998   2.393  1.0008  0.5390  0.7694
  276SOL    HW2  828   0.056   0.912   2.272  0.7721  0.9469  2.0490
  277SOL     OW  829   1.650   2.299   1.206 -0.3378  0.8768  0.2406
  277SOL    HW1  830   1.712   2.376   1.239 -0.4502 -0.6602 -1.2680
  277SOL    HW2  831   1.697   2.229   1.147 -1.8361  0.3106 -1.0181
  278SOL     OW  832   1.140   0.254   1.822  0.3558  0.1803  0.5560
  278SOL    HW1  833   1.082   0.174   1.842 -1.7981 -0.1866  1.9291
  278SOL    HW2  834   1.201   0.226   1.743  1.5783  1.0470 -0.5658
  279SOL     OW  835   1.807   1.732   0.489 -0.2911 -0.0702  0.0374
  279SOL    HW1  836   1.707   1.747   0.500 -0.3483 -1.5413  2.0938
  279SOL    HW2  837   1.859   1.800   0.541 -1.9453  1.4022  0.9334
  280SOL     OW  838   0.556   1.998   0.839 -0.2680  0.5828 -0.2565
  280SOL    HW1  839   0.596   2.017   0.745 -2.0873  0.7245  0.4901
  280SOL    HW2  840   0.455   1.986   0.837  1.8275 -0.9433 -0.2977
  281SOL     OW  841   2.939   0.365   2.597 -0.4701  0.1648 -0.0667
  281SOL    HW1  842   2.946   0.427   2.518  0.6718  1.6773  1.4049
  281SOL    HW2  843   2.964   0.265   2.583  1.7103 -3.1882  3.3393
  282SOL     OW  844   0.402   1.041   0.728 -0.2146 -0.4564 -0.2424
  282SOL    HW1  845   0.359   0.962   0.768  0.7171 -0.4926  1.8100
  282SOL    HW2  846   0.341   1.126   0.735  0.1382 -0.9357 -1.2053
  283SOL     OW  847   2.032   1.955   0.194 -0.9009  0.5981  0.2952
  283SOL    HW1  848   2.044   2.033   0.253  0.2210 -1.8385  1.2195
  283SOL    HW2  849   1.936   1.953   0.166 -1.3535 -1.5634 -0.7501
  284SOL     OW  850   1.258   1.165   0.235  0.1093  0.2157  0.3368
  284SOL    HW1  851   1.271   1.183   0.337  1.1631  0.1678 -0.4617
  284SOL    HW2  852   1.339   1.194   0.185  0.6216  1.6279  1.5143
  285SOL     OW  853   2.355   0.670   2.729 -0.3098  0.0075  0.4312
  285SOL    HW1  854   2.383   0.752   2.785  3.7007  0.0343  2.7307
  285SOL    HW2  855   2.255   0.643   2.731  1.3223 -3.3428  0.6915
  286SOL     OW  856   1.520   2.594   1.400  0.2295  0.0973 -0.3211
  286SOL    HW1  857   1.535   2.666   1.471 -0.5218  0.9747 -0.4377
  286SOL    HW2  858   1.611   2.571   1.365 -1.7978  0.6425 -0.1639
  287SOL     OW  859   1.093   1.260   1.061  0.3286 -0.6809 -0.1354
  287SOL    HW1  860   1.132   1.178   1.014 -0.7090 -0.8927 -0.6111
  287SOL    HW2  861   1.136   1.255   1.155  1.7128  0.3263  0.3122
  288SOL     OW  862   1.516   2.937   2.921  0.0410 -0.4636 -0.4397
  288SOL    HW1  863   1.547   2.955   3.017  2.4246 -0.7822 -1.8691
  288SOL    HW2  864   1.453   3.011   2.887  0.1088  0.8917  0.6740
  289SOL     OW  865   0.201   1.501   1.933 -0.5819  0.3236  0.0401
  289SOL    HW1  866   0.256   1.572   1.883  0.0538  2.2608 -0.9204
  289SOL    HW2  867   0.110   1.500   1.892  0.2854 -3.9703  1.1667
  290SOL     OW  868   1.897   2.338   1.025 -0.2166 -0.0548  0.3093
  290SOL    HW1  869   1.904   2.272   0.944 -0.6244  5.1794 -2.0131
  290SOL    HW2  870   1.986   2.386   1.025  2.1789  3.5866  2.0787
  291SOL     OW  871   2.150   2.311   2.904 -0.0148  0.2726  0.4740
  291SOL    HW1  872   2.120   2.395   2.948 -2.5150  0.8094 -2.5718
  291SOL    HW2  873   2.208   2.331   2.821 -1.4258  0.7005 -2.5667
  292SOL     OW  874   0.955   0.744   2.005 -0.2516  0.4936  0.2188
  292SOL    HW1  875   0.998   0.677   2.068  1.9810 -1.5845 -0.8802
  292SOL    HW2  876   1.034   0.798   1.965  4.0082  3.4774 -1.4071
  293SOL     OW  877   1.968   2.681   0.857 -0.0118 -0.3320  0.0942
  293SOL    HW1  878   1.888   2.708   0.799  2.5914 -2.1704 -0.2243
  293SOL    HW2  879   2.054   2.700   0.810 -0.2388 -0.1780  1.0202
  294SOL     OW  880   0.576   0.454   2.453  0.0409 -0.7829  0.2036
  294SOL    HW1  881   0.584   0.423   2.552 -0.7409 -3.1336  0.4824
  294SOL    HW2  882   0.640   0.531   2.427  1.7878 -1.1674 -2.0606
  295SOL     OW  883   1.535   1.717   0.542  0.2207 -0.4695  0.0295
  295SOL    HW1  884   1.567   1.713   0.638  0.0074 -1.6235  0.7505
  295SOL    HW2  885   1.483   1.631   0.523 -0.7211  0.1969 -1.0957
  296SOL     OW  886   2.424   1.825   0.278  0.0439 -0.0075 -0.0539
  296SOL    HW1  887   2.522   1.825   0.255 -0.1452  0.0393  1.1225
  296SOL    HW2  888   2.419   1.755   0.356 -0.0564  0.0775  1.0766
  297SOL     OW  889   2.147   0.051   0.164  0.2704 -0.4930 -0.6228
  297SOL    HW1  890   2.111   0.066   0.073 -0.2952  2.7152  3.1683
  297SOL    HW2  891   2.110   3.058   0.212  2.7875 -1.1872 -2.3312
  298SOL     OW  892   1.259   2.371   2.255 -0.9332 -0.0042 -0.0653
  298SOL    HW1  893   1.299   2.287   2.212 -0.2888 -0.4467 -0.1827
  298SOL    HW2  894   1.335   2.442   2.259  4.1420 -0.1112  0.1719
  299SOL     OW  895   1.328   2.670   2.463 -0.1805 -0.2922 -0.1288
  299SOL    HW1  896   1.368   2.692   2.554  1.2606 -0.6650  0.0295
  299SOL    HW2  897   1.400   2.636   2.397  2.4167  2.1981 -0.9591
  300SOL     OW  898   2.084   3.061   2.353  0.2359 -0.3947 -0.5513
  300SOL    HW1  899   2.000   3.024   2.300 -4.3852 -0.5621 -0.5068
  300SOL    HW2  900   2.120   0.058   2.304  0.2019  1.2476 -0.9251
  301SOL     OW  901   1.370   1.072   1.836 -0.0427  0.0380 -0.6383
  301SOL    HW1  902   1.463   1.049   1.870 -0.3442 -1.0547  0.6394
  301SOL    HW2  903   1.378   1.095   1.735 -1.5393  1.4216  1.2704
  302SOL     OW  904   2.610   2.359   0.194  0.2855 -0.4630 -0.4981
  302SOL    HW1  905   2.710   2.352   0.184 -0.2595  0.8191 -2.8336
  302SOL    HW2  906   2.579   2.418   0.116  0.1939  0.9018  2.1651
  303SOL     OW  907   2.773   2.287   2.542  0.2663 -0.0980 -0.4682
  303SOL    HW1  908   2.825   2.371   2.533 -2.7749 -2.3381 -0.0728
  303SOL    HW2  909   2.805   2.212   2.485 -2.3972  0.8780  0.1794
  304SOL     OW  910   2.765   0.477   1.783  0.7672  0.2231 -0.1121
  304SOL    HW1  911   2.798   0.547   1.719 -0.0182 -1.5481 -1.9730
  304SOL    HW2  912   2.808   0.479   1.877  0.4205 -0.5385  1.3498
  305SOL     OW  913   0.879   1.978   1.844 -0.0912 -0.2644  0.0741
  305SOL    HW1  914   0.931   1.911   1.903 -1.2105  1.3509  0.2263
  305SOL    HW2  915   0.913   2.073   1.847 -1.5379  1.1292 -0.7149
  306SOL     OW  916   2.639   0.791   1.738 -0.0857  0.0033 -0.0939
  306SOL    HW1  917   2.596   0.724   1.672 -1.8126 -0.1931  1.3418
  306SOL    HW2  918   2.586   0.808   1.825 -0.2951  1.8100  2.0621
  307SOL     OW  919   1.614   0.999   1.934 -0.1659  0.6504  0.1607
  307SOL    HW1  920   1.634   0.916   1.996 -0.0374 -3.8313  1.0597
  307SOL    HW2  921   1.693   1.020   1.877 -0.8330 -0.8163 -0.9820
  308SOL     OW  922   2.821   1.574   0.882  0.4077  0.1597  0.1050
  308SOL    HW1  923   2.781   1.502   0.819 -0.7064 -0.1749  0.1876
  308SOL    HW2  924   2.753   1.618   0.949 -3.0579  3.3498  1.8431
  309SOL     OW  925   2.243   1.567   1.282  0.1734 -0.2120  0.1801
  309SOL    HW1  926   2.321   1.504   1.256 -0.5465 -3.0153  0.6499
  309SOL    HW2  927   2.179   1.520   1.343 -1.7816  0.3922  1.9579
  310SOL     OW  928   2.763   1.867   2.542 -0.2317 -0.0163 -0.2171
  310SOL    HW1  929   2.782   1.785   2.481  0.1551  0.6825 -1.6279
  310SOL    HW2  930   2.784   1.850   2.643  0.0481  0.5464 -0.0759
  311SOL     OW  931   0.091   2.336   0.033  0.9061 -0.1901 -0.3989
  311SOL    HW1  932   0.104   2.426   0.079 -0.2642  0.0392 -0.8587
  311SOL    HW2  933   0.119   2.251   0.084 -2.6040 -1.5240  2.5682
  312SOL     OW  934   2.228   1.406   0.926 -0.0676 -0.2375  0.2939
  312SOL    HW1  935   2.284   1.492   0.914 -0.1333 -0.1389  1.5205
  312SOL    HW2  936   2.273   1.320   0.893 -0.6546 -1.2086 -0.6006
  313SOL     OW  937   2.749   0.096   1.068  0.0395  0.7098  0.2976
  313SOL    HW1  938   2.690   0.166   1.028  1.0005 -2.7138 -1.3006
  313SOL    HW2  939   2.733   0.002   1.029  0.6951 -3.2209 -0.6434
  314SOL     OW  940   1.390   1.612   0.216  0.0889 -0.5437 -0.6830
  314SOL    HW1  941   1.407   1.580   0.123 -1.3047 -0.1306  1.3355
  314SOL    HW2  942   1.360   1.710   0.217 -3.0260  0.2151  0.3634
  315SOL     OW  943   1.325   2.268   1.994  0.2719  0.6751 -0.0204
  315SOL    HW1  944   1.405   2.258   2.061 -1.7438 -0.7726  1.3510
  315SOL    HW2  945   1.337   2.222   1.901  0.5533 -0.7415 -4.0722
  316SOL     OW  946   2.977   1.239   0.279  0.3093  0.0098  0.3399
  316SOL    HW1  947   2.970   1.213   0.181 -3.3855 -0.3618 -0.7411
  316SOL    HW2  948   3.080   1.247   0.304  3.5535  0.5488 -0.5597
  317SOL     OW  949   0.873   3.060   0.307 -0.4520  0.1740 -0.2830
  317SOL    HW1  950   0.911   0.069   0.309 -0.2516  1.7559  3.7937
  317SOL    HW2  951   0.834   3.034   0.397  2.6189  1.3674 -0.8344
  318SOL     OW  952   2.900   2.543   0.372 -0.2296 -0.5294 -0.0020
  318SOL    HW1  953   3.003   2.558   0.368  1.1550  2.4690 -0.6063
  318SOL    HW2  954   2.864   2.522   0.279  2.9360 -3.0695  0.3066
  319SOL     OW  955   0.686   1.310   2.604  0.3075  0.9096  0.0247
  319SOL    HW1  956   0.653   1.309   2.698 -0.4464 -0.9110  2.6144
  319SOL    HW2  957   0.664   1.400   2.561 -0.7614 -0.9949  3.0291
  320SOL     OW  958   0.683   2.390   1.724  0.0914  0.0312  0.0573
  320SOL    HW1  959   0.772   2.412   1.682 -1.6571  1.9527  2.1471
  320SOL    HW2  960   0.619   2.468   1.708  0.3560  1.4914  2.6477
  321SOL     OW  961   1.438   2.286   2.906 -0.0668  0.4062 -0.4763
  321SOL    HW1  962   1.464   2.356   2.975 -1.0630 -3.3738  1.3593
  321SOL    HW2  963   1.340   2.290   2.884  1.4879  1.2256  0.7845
  322SOL     OW  964   2.813   1.276   2.162 -0.3844  0.8819  0.3060
  322SOL    HW1  965   2.763   1.192   2.202 -1.1716 -4.4043  0.9825
  322SOL    HW2  966   2.851   1.255   2.067 -0.6080 -0.4873  1.3922
  323SOL     OW  967   2.329   1.062   0.503 -0.1933 -0.2019 -0.4536
  323SOL    HW1  968   2.431   1.059   0.510  1.4436 -1.4085 -0.0861
  323SOL    HW2  969   2.306   1.012   0.417  1.7806  1.1026 -0.2384
  324SOL     OW  970   0.257   2.679   0.001 -0.3656  0.6000 -0.0700
  324SOL    HW1  971   0.341   2.619   3.073  0.8901 -2.9432  0.4135
  324SOL    HW2  972   0.225   2.700   2.994 -1.1698 -0.8213  1.4150
  325SOL     OW  973   1.400   0.224   2.360 -0.0475 -0.7379 -0.5863
  325SOL    HW1  974   1.491   0.252   2.328 -0.2942 -1.0469 -0.9828
  325SOL    HW2  975   1.347   0.180   2.288 -0.5703  2.9538  4.6078
  326SOL     OW  976   2.467   2.674   1.581 -0.1346 -0.0869 -0.0578
  326SOL    HW1  977   2.548   2.736   1.580 -1.1106 -1.5796  1.7791
  326SOL    HW2  978   2.467   2.620   1.666  0.3364  1.8543 -0.3304
  327SOL     OW  979   2.001   0.511   3.075  0.1637  0.4745  0.4181
  327SOL    HW1  980   1.929   0.529   3.002  2.6362  1.4058  1.3069
  327SOL    HW2  981   2.070   0.445   3.033  2.4504 -3.1176 -1.4344
  328SOL     OW  982   2.721   0.717   2.145  0.0714 -0.1011 -0.0989
  328SOL    HW1  983   2.794   0.789   2.139 -1.6771 -0.6479  1.2752
  328SOL    HW2  984   2.695   0.702   2.243 -0.5122 -2.4760  1.3967
  329SOL     OW  985   1.490   0.020   1.935  0.1237 -0.8075 -0.0652
  329SOL    HW1  986   1.504   3.021   1.993  0.5949 -2.5943  1.2344
  329SOL    HW2  987   1.447   3.087   1.848  0.4650 -2.2236  0.4577
  330SOL     OW  988   2.837   1.862   1.380 -0.0384 -0.0981 -0.1293
  330SOL    HW1  989   2.925   1.837   1.331  2.1198  0.4210 -0.6929
  330SOL    HW2  990   2.798   1.780   1.433 -1.5613 -0.5772  1.4461
  331SOL     OW  991   0.569   1.239   2.128  0.0642  0.2708 -0.4349
  331SOL    HW1  992   0.501   1.168   2.109  1.0609  2.6437 -0.8027
  331SOL    HW2  993   0.518   1.326   2.139 -1.3628 -0.5276  0.1321
  332SOL     OW  994   0.229   2.813   1.568 -0.1258 -0.1134  0.3939
  332SOL    HW1  995   0.237   2.916   1.595  0.5370 -0.5205  2.4401
  332SOL    HW2  996   0.155   2.804   1.500 -1.8846  1.4105  3.2109
  333SOL     OW  997   2.444   2.650   1.961  0.0037 -0.3166 -0.4725
  333SOL    HW1  998   2.521   2.714   1.979 -0.3241 -0.9741 -0.4388
  333SOL    HW2  999   2.468   2.577   1.892 -0.3025 -1.2922 -0.1804
  334SOL     OW 1000   1.006   2.064   0.856 -0.1737  0.0356 -0.0193
  334SOL    HW1 1001   0.927   2.080   0.915  1.1424 -1.1047 -1.3142
  334SOL    HW2 1002   1.088   2.095   0.901 -1.5632 -0.2822  0.1625
  335SOL     OW 1003   0.822   2.149   3.020  0.0656 -0.2750 -0.1766
  335SOL    HW1 1004   0.735   2.185   2.969 -1.0041  0.5355 -2.0482
  335SOL    HW2 1005   0.898   2.220   3.011 -0.6491  0.7884 -0.0471
  336SOL     OW 1006   0.136   0.249   2.129 -0.2236 -0.3231 -0.6071
  336SOL    HW1 1007   0.139   0.275   2.227 -0.7081 -1.0437  0.9049
  336SOL    HW2 1008   0.186   0.165   2.116 -1.1775  1.0422 -1.1416
  337SOL     OW 1009   2.867   2.084   3.004  0.2410 -0.1825  0.0866
  337SOL    HW1 1010   2.908   2.014   3.063  0.2484 -0.4282 -0.9723
  337SOL    HW2 1011   2.938   2.120   2.938 -0.1181  1.7663 -2.0266
  338SOL     OW 1012   1.068   1.832   1.194 -0.2511 -0.1219  0.1547
  338SOL    HW1 1013   1.112   1.927   1.199 -2.7044 -0.5157  1.4971
  338SOL    HW2 1014   0.967   1.839   1.191  1.6093  0.4682 -1.1676
  339SOL     OW 1015   2.954   0.207   2.247  0.8189 -0.7644  0.5113
  339SOL    HW1 1016   2.886   0.274   2.212 -1.3773 -1.8918 -0.0023
  339SOL    HW2 1017   3.024   0.194   2.176 -1.4632  1.6653  1.6149
  340SOL     OW 1018   1.590   2.552   0.293  0.2624  0.3631  0.2751
  340SOL    HW1 1019   1.607   2.479   0.220  0.9935  1.4516 -2.2262
  340SOL    HW2 1020   1.538   2.515   0.371  1.9043 -1.2462  0.2574
  341SOL     OW 1021   1.844   1.535   1.140  0.0972  0.2578 -0.5715
  341SOL    HW1 1022   1.808   1.463   1.209 -2.4687 -0.8903  1.1337
  341SOL    HW2 1023   1.877   1.492   1.056 -0.0090 -3.2835  1.5805
  342SOL     OW 1024   0.144   1.763   0.499 -0.0396  0.2628 -0.0991
  342SOL    HW1 1025   0.140   1.863   0.471  0.4108  1.8589 -0.8369
  342SOL    HW2 1026   0.226   1.724   0.452 -1.4027  2.1584 -0.0048
  343SOL     OW 1027   1.333   2.409   1.345  0.2544  0.6693  0.2164
  343SOL    HW1 1028   1.394   2.328   1.359 -0.1011  0.2539  1.7023
  343SOL    HW2 1029   1.392   2.492   1.369  1.0736 -0.5916  0.0505
  344SOL     OW 1030   2.489   2.845   0.794 -0.4825 -0.0814  0.0548
  344SOL    HW1 1031   2.485   2.820   0.695 -0.6906  1.5850 -0.7932
  344SOL    HW2 1032   2.417   2.911   0.814 -1.3197 -1.2373 -0.1293
  345SOL     OW 1033   2.757   2.349   2.788  0.2194  0.3226 -0.1322
  345SOL    HW1 1034   2.771   2.329   2.687 -1.0625  1.1691 -1.2438
  345SOL    HW2 1035   2.843   2.380   2.832  0.7604  0.5775  5.2708
  346SOL     OW 1036   0.301   1.937   0.848  0.6468 -0.2068 -0.5325
  346SOL    HW1 1037   0.234   1.867   0.814 -1.7249 -0.9005 -0.1926
  346SOL    HW2 1038   0.285   2.036   0.823 -0.8984  0.6156 -0.8330
  347SOL     OW 1039   1.809   2.518   1.281 -0.3941  0.0717 -0.2461
  347SOL    HW1 1040   1.860   2.529   1.367  1.8072  1.4492 -0.6460
  347SOL    HW2 1041   1.841   2.587   1.210 -1.8342 -1.3392 -0.3672
  348SOL     OW 1042   1.261   1.593   2.662  0.2632  0.2148  0.2186
  348SOL    HW1 1043   1.224   1.638   2.749 -0.5008  0.8785  2.1562
  348SOL    HW2 1044   1.226   1.644   2.583 -0.5500 -0.6627  2.9782
  349SOL     OW 1045   2.253   0.820   2.287  0.2238  0.5657  0.3610
  349SOL    HW1 1046   2.333   0.820   2.354  0.5309  0.9043  1.4839
  349SOL    HW2 1047   2.209   0.903   2.262  0.3908 -4.3939  0.3811
  350SOL     OW 1048   2.874   2.473   1.316  0.0903 -0.0078  0.6045
  350SOL    HW1 1049   2.968   2.501   1.285 -0.6518  0.7725 -0.6218
  350SOL    HW2 1050   2.810   2.497   1.237  1.0756  0.5962 -2.6911
  351SOL     OW 1051   0.538   0.374   2.717  1.0459  0.2283 -0.4816
  351SOL    HW1 1052   0.454   0.313   2.725 -1.1639 -1.9935 -0.4094
  351SOL    HW2 1053   0.619   0.325   2.758  1.3464 -0.1640  1.6138
  352SOL     OW 1054   0.524   2.450   1.350 -0.2864  0.0429  0.3469
  352SOL    HW1 1055   0.558   2.378   1.418 -1.3620 -2.5558 -0.6700
  352SOL    HW2 1056   0.479   2.525   1.401  2.1541 -0.6048  1.9402
  353SOL     OW 1057   1.016   0.938   2.479  0.0542  0.0012  0.4751
  353SOL    HW1 1058   0.958   0.997   2.539  1.1781  1.1008 -3.8824
  353SOL    HW2 1059   1.015   0.980   2.382  0.7284 -0.2300  2.4079
  354SOL     OW 1060   1.566   0.859   0.593  0.2620 -0.1090  0.0222
  354SOL    HW1 1061   1.466   0.858   0.591 -0.1506  0.9917  1.8263
  354SOL    HW2 1062   1.603   0.939   0.542 -0.2474  0.9384 -1.4195
  355SOL     OW 1063   2.728   0.387   0.377  0.5296 -0.6346 -0.4651
  355SOL    HW1 1064   2.683   0.302   0.353  0.4588 -0.4884 -0.1745
  355SOL    HW2 1065   2.750   0.391   0.475 -2.2911  0.8613 -0.6178
  356SOL     OW 1066   2.873   0.843   2.569  0.5675  0.1940  0.5175
  356SOL    HW1 1067   2.970   0.816   2.587  1.9178  1.7787 -1.0988
  356SOL    HW2 1068   2.876   0.914   2.493  0.9894 -0.9882  1.9975
  357SOL     OW 1069   0.723   2.681   1.576 -0.0843 -0.3841 -0.1180
  357SOL    HW1 1070   0.818   2.706   1.553 -0.5028  0.2733  2.0591
  357SOL    HW2 1071   0.709   2.685   1.679  0.7772 -1.8893  0.6605
  358SOL     OW 1072   2.243   1.255   2.412  0.0392 -0.3182  0.2273
  358SOL    HW1 1073   2.298   1.339   2.384  0.8193 -2.3709  0.2786
  358SOL    HW2 1074   2.157   1.274   2.463  1.4252 -0.3571 -1.5376
  359SOL     OW 1075   2.537   2.523   2.753  0.5594 -0.3863 -0.5457
  359SOL    HW1 1076   2.562   2.613   2.714  0.6561 -1.8656 -0.1837
  359SOL    HW2 1077   2.626   2.472   2.765  1.2687 -0.8239 -1.5052
  360SOL     OW 1078   2.138   0.744   0.856  0.3363 -0.1567 -0.2231
  360SOL    HW1 1079   2.154   0.668   0.923  2.9368  1.0611  1.1382
  360SOL    HW2 1080   2.213   0.746   0.785  0.2062 -0.1730 -2.3844
  361SOL     OW 1081   1.819   2.723   1.101 -0.6394  0.5950  0.3636
  361SOL    HW1 1082   1.775   2.807   1.125 -0.0748 -1.3803 -2.1271
  361SOL    HW2 1083   1.805   2.708   1.004  0.0251 -1.2401  2.4685
  362SOL     OW 1084   1.501   1.242   0.638 -0.4503 -0.0993  0.1700
  362SOL    HW1 1085   1.550   1.233   0.547 -0.2105 -1.7056  1.1418
  362SOL    HW2 1086   1.547   1.315   0.693 -0.5711 -2.1750 -2.0637
  363SOL     OW 1087   2.804   1.661   2.361 -0.2316 -0.1934  0.3757
  363SOL    HW1 1088   2.826   1.628   2.267 -0.2337  0.8431 -1.1416
  363SOL    HW2 1089   2.769   1.586   2.418 -2.4901  0.9864  1.9950
  364SOL     OW 1090   1.177   0.626   1.310 -0.0586  0.4203  0.4067
  364SOL    HW1 1091   1.225   0.587   1.389  0.3217  0.2360 -0.6780
  364SOL    HW2 1092   1.242   0.663   1.244  0.0286 -1.9642 -0.4889
  365SOL     OW 1093   3.060   3.023   1.132 -0.8040 -0.4624  0.3884
  365SOL    HW1 1094   0.064   2.980   1.155  1.4146 -0.0545  1.7445
  365SOL    HW2 1095   3.072   3.086   1.051  1.3638  0.8794 -2.3757
  366SOL     OW 1096   2.744   1.219   0.402 -0.6117  0.1211  0.2740
  366SOL    HW1 1097   2.741   1.307   0.460 -0.3209  2.5749  2.6999
  366SOL    HW2 1098   2.836   1.213   0.357  1.2295 -1.4668 -2.2168
  367SOL     OW 1099   0.080   2.005   3.010 -0.2204 -0.0744 -0.1324
  367SOL    HW1 1100   0.124   2.051   0.004 -1.4872 -1.4365  1.4621
  367SOL    HW2 1101   0.058   1.910   3.042  0.4762 -1.9274  1.7386
  368SOL     OW 1102   2.852   2.437   0.921 -0.4021  0.1445 -0.5663
  368SOL    HW1 1103   2.776   2.505   0.902 -1.8703  0.5534 -0.3792
  368SOL    HW2 1104   2.940   2.478   0.951 -0.9956 -0.2101  1.1532
  369SOL     OW 1105   0.333   0.297   0.373  0.2151 -0.7481 -0.3505
  369SOL    HW1 1106   0.282   0.297   0.459 -1.2781 -1.4012  1.6708
  369SOL    HW2 1107   0.402   0.225   0.373  0.6423  1.1885 -0.9247
  370SOL     OW 1108   0.198   0.977   1.560 -0.3457  0.3090 -0.6936
  370SOL    HW1 1109   0.232   1.068   1.587 -1.3899 -0.8353  1.0624
  370SOL    HW2 1110   0.277   0.927   1.518 -0.3595  1.0401  2.2228
  371SOL     OW 1111   2.236   2.205   0.822 -0.1605  0.0468 -0.5980
  371SOL    HW1 1112   2.167   2.162   0.887 -1.5885 -2.7518  0.2993
  371SOL    HW2 1113   2.298   2.131   0.783  1.0201 -1.3446 -2.2427
  372SOL     OW 1114   0.057   0.758   2.549  0.5106  0.4356 -0.1143
  372SOL    HW1 1115   0.109   0.676   2.583 -0.9235 -0.2561 -0.5800
  372SOL    HW2 1116   0.099   0.788   2.466  3.7513 -0.5978  1.3442
  373SOL     OW 1117   2.737   1.512   0.527  0.3952 -0.5084  0.0602
  373SOL    HW1 1118   2.774   1.580   0.460 -2.0436 -0.6243  0.6197
  373SOL    HW2 1119   2.650   1.550   0.567  0.9536 -0.1820  0.9386
  374SOL     OW 1120   0.659   2.251   0.127  0.4358 -0.2605  0.4247
  374SOL    HW1 1121   0.665   2.336   0.072 -1.2212  0.7045 -0.2163
  374SOL    HW2 1122   0.743   2.196   0.104 -0.3726  1.4127  0.5433
  375SOL     OW 1123   0.691   0.316   0.081 -0.4518 -0.1335 -0.2347
  375SOL    HW1 1124   0.752   0.389   0.048  1.0912  1.9867 -2.1822
  375SOL    HW2 1125   0.622   0.297   0.015  0.9197  1.4098  1.0105
  376SOL     OW 1126   0.233   3.081   2.132 -0.3987 -0.4870 -0.3893
  376SOL    HW1 1127   0.207   3.025   2.051 -0.6918 -0.7388 -4.5563
  376SOL    HW2 1128   0.268   3.035   2.218  0.2277  3.7018  1.4227
  377SOL     OW 1129   0.764   1.831   2.220 -0.3597  0.0095 -0.1465
  377SOL    HW1 1130   0.787   1.926   2.256 -0.5047  0.2841  0.5916
  377SOL    HW2 1131   0.752   1.840   2.120  1.5124  2.5993 -0.9364
  378SOL     OW 1132   1.075   1.057   0.588 -0.1769 -0.1412  0.1259
  378SOL    HW1 1133   1.044   1.107   0.669  0.0496  2.3094 -0.7598
  378SOL    HW2 1134   1.001   1.007   0.534 -1.6597 -1.3106  1.7819
  379SOL     OW 1135   1.005   1.589   3.082 -0.8808  0.2097  0.5434
  379SOL    HW1 1136   1.050   1.510   0.034  0.9414 -1.4687  1.6383
  379SOL    HW2 1137   1.075   1.640   3.035 -1.1272 -2.5698 -0.3962
  380SOL     OW 1138   0.030   2.069   1.907  0.1447  0.1650 -0.1322
  380SOL    HW1 1139   3.037   2.023   1.862  0.1524 -1.9247 -2.1627
  380SOL    HW2 1140   0.097   2.099   1.840  1.4770 -2.7759  4.4539
  381SOL     OW 1141   2.869   0.953   1.798 -0.2709  0.2589  0.0813
  381SOL    HW1 1142   2.961   0.910   1.781  2.5099  2.3510  3.2858
  381SOL    HW2 1143   2.791   0.894   1.773  1.6964  2.3239  0.1906
  382SOL     OW 1144   2.617   2.182   2.960 -0.1218  0.6940  0.0119
  382SOL    HW1 1145   2.644   2.265   2.904  1.8468  5.5751 -1.6854
  382SOL    HW2 1146   2.692   2.148   3.022  0.4799  1.2631  1.4229
  383SOL     OW 1147   2.286   2.044   2.186  0.2463 -0.5086 -0.0891
  383SOL    HW1 1148   2.359   1.987   2.236 -0.4001 -0.6506 -1.9759
  383SOL    HW2 1149   2.218   2.075   2.256 -2.4195  0.9798  2.1851
  384SOL     OW 1150   0.786   2.301   2.000 -0.0439 -0.3189 -0.3877
  384SOL    HW1 1151   0.720   2.255   1.941 -0.2239  5.4231 -0.5563
  384SOL    HW2 1152   0.743   2.386   2.043 -1.1052  2.5843 -1.9653
  385SOL     OW 1153   2.605   1.993   0.970 -0.7768  0.1720 -0.5345
  385SOL    HW1 1154   2.658   2.078   0.966  1.3327 -2.1108  2.2376
  385SOL    HW2 1155   2.599   1.955   1.068  1.9424 -1.6297  3.1626
  386SOL     OW 1156   1.726   0.864   2.861  0.3605  0.3079  0.6511
  386SOL    HW1 1157   1.745   0.879   2.960 -1.9846 -2.4194 -2.2787
  386SOL    HW2 1158   1.622   0.860   2.857 -2.2985  1.6046  0.3450
  387SOL     OW 1159   0.197   0.846   1.853  0.6923  0.0897 -0.4559
  387SOL    HW1 1160   0.275   0.911   1.852  0.4098  0.2764 -0.9178
  387SOL    HW2 1161   0.229   0.751   1.826  0.1107 -1.1590 -3.5315
  388SOL     OW 1162   2.635   1.053   1.644  0.0223 -0.0022  0.5161
  388SOL    HW1 1163   2.621   0.948   1.641 -1.2993 -1.8460 -1.1040
  388SOL    HW2 1164   2.729   1.080   1.609  2.5924 -0.0453  0.9518
  389SOL     OW 1165   1.649   0.904   2.427 -0.0085  0.0157 -0.5236
  389SOL    HW1 1166   1.742   0.884   2.401  0.7604  0.3381  1.2587
  389SOL    HW2 1167   1.647   0.995   2.474 -1.6884  1.6418 -1.3555
  390SOL     OW 1168   2.102   2.271   0.611  0.3709 -0.1466 -0.2460
  390SOL    HW1 1169   2.148   2.271   0.702  2.0106 -1.6592 -3.5363
  390SOL    HW2 1170   2.004   2.280   0.622 -0.2315  1.4613  0.8907
  391SOL     OW 1171   1.697   2.697   0.803  0.4894 -0.5983  0.7661
  391SOL    HW1 1172   1.619   2.738   0.761  1.2761 -0.3575  0.3850
  391SOL    HW2 1173   1.694   2.591   0.809 -0.0095 -0.7581  1.2984
  392SOL     OW 1174   2.702   2.843   1.563  0.3241  0.2789 -0.2994
  392SOL    HW1 1175   2.712   2.903   1.483  0.0621  0.1620  0.9840
  392SOL    HW2 1176   2.771   2.851   1.636  0.5982  1.9388 -0.2727
  393SOL     OW 1177   1.864   1.861   2.838  0.1270 -0.1240 -0.4254
  393SOL    HW1 1178   1.860   1.957   2.827 -0.4518 -2.8657  2.4108
  393SOL    HW2 1179   1.960   1.823   2.848  2.1329 -1.8211 -0.4260
  394SOL     OW 1180   0.512   2.731   2.769  0.3545  0.1634  0.6053
  394SOL    HW1 1181   0.467   2.771   2.689  0.4250  2.6738 -1.3013
  394SOL    HW2 1182   0.451   2.676   2.832 -4.2205 -0.4474  3.1360
  395SOL     OW 1183   0.965   1.517   1.031 -0.3963 -0.1587  0.0467
  395SOL    HW1 1184   0.887   1.550   0.976  0.1134  1.1903 -0.0614
  395SOL    HW2 1185   0.990   1.418   1.020 -1.6575  1.0054  1.6447
  396SOL     OW 1186   1.973   0.759   2.860  0.1029 -0.2787  0.1227
  396SOL    HW1 1187   1.877   0.801   2.844 -2.9456  2.0835  2.3959
  396SOL    HW2 1188   2.001   0.761   2.959  1.5270  1.8925 -0.5643
  397SOL     OW 1189   0.128   0.536   2.700  0.4439 -0.2637  0.3059
  397SOL    HW1 1190   0.135   0.447   2.750 -0.5632  0.7792  1.8222
  397SOL    HW2 1191   0.070   0.601   2.753 -1.8872  0.0275 -1.2993
  398SOL     OW 1192   0.905   0.709   0.547 -0.2988  0.1630 -0.1573
  398SOL    HW1 1193   0.882   0.806   0.549 -0.4615  1.5881  0.1874
  398SOL    HW2 1194   0.878   0.667   0.459  1.7046  0.3386 -1.2002
  399SOL     OW 1195   1.891   0.063   1.763 -0.4795  0.0491  0.1123
  399SOL    HW1 1196   1.835   0.054   1.679  0.2921 -2.0423 -0.9986
  399SOL    HW2 1197   1.864   3.078   1.827  0.2616  2.4341 -2.3052
  400SOL     OW 1198   0.032   2.106   2.257  0.1309  0.9293 -0.5066
  400SOL    HW1 1199   0.103   2.151   2.204  1.5127 -0.0567 -0.7337
  400SOL    HW2 1200   0.021   2.007   2.228 -1.6993 -1.3560 -1.9702
  401SOL     OW 1201   0.749   0.052   0.077  0.3337 -0.0392 -0.6181
  401SOL    HW1 1202   0.719   0.150   0.084  0.0670 -1.8111  0.8721
  401SOL    HW2 1203   0.783   0.025   0.170  1.7330  1.1966  1.3666
  402SOL     OW 1204   0.217   2.372   1.435  0.4386 -0.4817  0.1937
  402SOL    HW1 1205   0.307   2.331   1.445 -0.0553  2.0483 -1.5797
  402SOL    HW2 1206   0.208   2.455   1.499  1.2618 -0.8232  3.3521
  403SOL     OW 1207   0.023   1.230   1.339 -0.8839  0.0810  0.0603
  403SOL    HW1 1208   3.049   1.288   1.280  0.7135  1.7908 -1.4876
  403SOL    HW2 1209   3.079   1.214   1.438 -1.8656 -3.5204  3.5904
  404SOL     OW 1210   0.110   2.499   2.098 -0.1140 -0.0629 -0.2020
  404SOL    HW1 1211   0.147   2.405   2.083  1.4571 -3.4888 -2.1541
  404SOL    HW2 1212   0.088   2.513   2.197  2.1048  0.4228 -0.0960
  405SOL     OW 1213   2.699   0.323   2.142 -0.1618  0.4756  0.6573
  405SOL    HW1 1214   2.693   0.225   2.167  2.4035 -1.0103 -1.1699
  405SOL    HW2 1215   2.611   0.372   2.127 -1.5362  2.3564  3.5765
  406SOL     OW 1216   1.965   2.417   0.264  0.2897  0.0184  0.6344
  406SOL    HW1 1217   1.890   2.347   0.266 -2.1770 -1.5705  0.8012
  406SOL    HW2 1218   1.964   2.475   0.346 -1.0650 -0.9685 -0.5608
  407SOL     OW 1219   2.105   1.663   0.667  1.0721 -0.2136  0.7596
  407SOL    HW1 1220   2.049   1.600   0.731 -1.5363 -1.6209  1.2454
  407SOL    HW2 1221   2.075   1.638   0.572  0.5284 -0.5615  2.1634
  408SOL     OW 1222   0.450   0.237   2.386 -1.0581  1.0687 -0.1897
  408SOL    HW1 1223   0.478   0.333   2.411  0.3837  0.8979  0.4546
  408SOL    HW2 1224   0.485   0.218   2.292  1.6492  1.6539  0.5531
  409SOL     OW 1225   2.716   1.824   0.686 -0.6304 -0.6209 -0.8186
  409SOL    HW1 1226   2.721   1.724   0.690 -0.4586 -2.6669  1.1954
  409SOL    HW2 1227   2.634   1.860   0.735 -2.7633  0.8100 -1.7386
  410SOL     OW 1228   2.096   1.304   1.145  0.8132 -0.5043 -0.1366
  410SOL    HW1 1229   2.151   1.354   1.079  3.1710 -1.1513 -0.9415
  410SOL    HW2 1230   2.094   1.363   1.229  0.2616 -1.4261  0.6606
  411SOL     OW 1231   3.061   0.777   0.439  0.1681  0.5450  0.6173
  411SOL    HW1 1232   0.053   0.734   0.475 -1.8041 -0.9588  0.2275
  411SOL    HW2 1233   2.976   0.748   0.485 -0.8495  0.0474  0.1020
  412SOL     OW 1234   1.721   0.591   0.207 -0.1200  0.5546  0.1850
  412SOL    HW1 1235   1.757   0.677   0.169 -0.6649 -0.4089  1.1127
  412SOL    HW2 1236   1.704   0.606   0.307  0.8889  1.1556  0.6919
  413SOL     OW 1237   0.545   0.801   1.667 -0.7370  0.1684  0.0692
  413SOL    HW1 1238   0.528   0.840   1.757  1.0131  1.0295  0.7423
  413SOL    HW2 1239   0.478   0.836   1.600  0.0634  0.9715  0.5799
  414SOL     OW 1240   0.008   1.307   2.710  0.4755 -0.2305 -0.3909
  414SOL    HW1 1241   3.032   1.324   2.634  1.0499 -3.2518 -2.5184
  414SOL    HW2 1242   0.060   1.229   2.675 -0.4058 -0.1788  0.1003
  415SOL     OW 1243   0.458   1.596   2.950 -0.1740  0.1592 -0.3336
  415SOL    HW1 1244   0.532   1.530   2.974  1.3581 -0.7434  1.1595
  415SOL    HW2 1245   0.428   1.596   2.852 -0.3612  0.0846 -0.4214
  416SOL     OW 1246   1.293   0.886   0.255 -0.0458 -0.3150  0.1003
  416SOL    HW1 1247   1.302   0.894   0.355  0.1346  0.3031 -2.3839
  416SOL    HW2 1248   1.236   0.964   0.223 -0.8487  0.5515  0.3954
  417SOL     OW 1249   0.265   0.764   0.981  0.2612  0.2433 -0.1526
  417SOL    HW1 1250   0.278   0.700   0.905 -1.2623  0.8106 -0.3264
  417SOL    HW2 1251   0.184   0.822   0.959  0.2687 -1.2096  2.3571
  418SOL     OW 1252   2.182   0.934   2.796 -0.6639 -0.0884 -0.0416
  418SOL    HW1 1253   2.120   0.857   2.821  0.0734  0.0970  0.0542
  418SOL    HW2 1254   2.271   0.920   2.848 -0.2728  0.7359  0.9941
  419SOL     OW 1255   0.546   0.458   0.261 -0.4698 -0.5644 -0.1515
  419SOL    HW1 1256   0.491   0.403   0.323  1.3223 -3.6631 -0.7880
  419SOL    HW2 1257   0.585   0.397   0.191  1.5093 -1.8189 -0.3377
  420SOL     OW 1258   0.307   1.715   1.061  0.3881  0.4223 -0.2877
  420SOL    HW1 1259   0.291   1.624   1.102 -1.3057  0.2095  0.6153
  420SOL    HW2 1260   0.307   1.713   0.957  0.2645 -0.8239 -0.6618
  421SOL     OW 1261   0.439   2.056   0.138 -0.5701 -0.3558 -0.2818
  421SOL    HW1 1262   0.520   2.117   0.149 -0.0489  1.4254 -1.3466
  421SOL    HW2 1263   0.460   1.970   0.085  0.6289 -1.1861  0.4516
  422SOL     OW 1264   2.273   0.297   1.514  0.4368  0.0684 -0.6993
  422SOL    HW1 1265   2.333   0.371   1.553  1.5630  0.5580  1.4852
  422SOL    HW2 1266   2.207   0.253   1.583 -0.4334 -1.5335 -1.0212
  423SOL     OW 1267   1.977   1.475   0.841 -0.5868 -0.4281 -0.6914
  423SOL    HW1 1268   2.061   1.458   0.896  0.7150  2.8422 -2.7513
  423SOL    HW2 1269   1.922   1.393   0.828  0.3536 -0.1498  0.2052
  424SOL     OW 1270   1.976   1.603   0.064 -0.2205 -0.3986 -0.2654
  424SOL    HW1 1271   2.004   1.585   3.057  1.7335  0.0797  0.8527
  424SOL    HW2 1272   2.058   1.635   0.110  0.4295 -0.8210  0.3215
  425SOL     OW 1273   0.328   2.959   2.348  0.1180 -0.0550 -0.2222
  425SOL    HW1 1274   0.357   2.865   2.340 -3.1122  4.0376  1.3280
  425SOL    HW2 1275   0.290   2.989   2.442 -1.5344 -0.6999  3.1210
  426SOL     OW 1276   2.591   2.787   2.615 -0.1392  0.1343 -0.7065
  426SOL    HW1 1277   2.550   2.872   2.666 -2.3145  3.3991  0.0184
  426SOL    HW2 1278   2.527   2.747   2.544 -0.0724 -0.0475 -2.3508
  427SOL     OW 1279   0.547   0.820   2.129 -0.2317  0.5780  0.1831
  427SOL    HW1 1280   0.517   0.718   2.125  0.9397 -0.7687  0.2890
  427SOL    HW2 1281   0.503   0.854   2.206  4.5870 -1.4852 -3.6418
  428SOL     OW 1282   1.863   0.994   2.168 -0.5375  0.2267 -0.0122
  428SOL    HW1 1283   1.913   1.004   2.077  1.1512  0.7679 -1.2033
  428SOL    HW2 1284   1.869   1.084   2.219 -0.1357  1.9732 -0.1114
  429SOL     OW 1285   2.349   0.245   0.516  0.2575  0.3031 -0.2700
  429SOL    HW1 1286   2.327   0.272   0.419  0.4822 -0.8028 -0.0821
  429SOL    HW2 1287   2.319   0.316   0.584 -0.5924  2.0289 -1.8315
  430SOL     OW 1288   1.596   1.315   2.111  0.1414  0.5846  0.4421
  430SOL    HW1 1289   1.579   1.215   2.128  2.5258  0.7561  1.7849
  430SOL    HW2 1290   1.528   1.360   2.044  1.0616  0.0129  1.2114
  431SOL     OW 1291   2.867   2.109   1.511  0.1784  0.1040 -0.0700
  431SOL    HW1 1292   2.867   2.025   1.457 -2.7708 -1.2213  3.2500
  431SOL    HW2 1293   2.847   2.182   1.441  3.4726 -2.1042 -0.2085
  432SOL     OW 1294   1.113   2.587   1.744 -0.2677 -0.1676  0.8850
  432SOL    HW1 1295   1.040   2.569   1.674 -2.0239  0.7270  1.0236
  432SOL    HW2 1296   1.102   2.517   1.816 -3.6182 -2.9554  1.2905
  433SOL     OW 1297   1.678   2.928   1.167 -0.4901  0.6090 -0.2970
  433SOL    HW1 1298   1.675   3.023   1.122  0.9345  1.5391 -0.9678
  433SOL    HW2 1299   1.583   2.894   1.151  0.2762 -0.3442 -1.4769
  434SOL     OW 1300   0.432   2.221   2.140 -0.3852 -0.0352  0.0604
  434SOL    HW1 1301   0.468   2.191   2.047 -0.6465 -0.6225  2.3660
  434SOL    HW2 1302   0.446   2.143   2.206 -2.1570  2.0350  0.6665
  435SOL     OW 1303   0.303   1.492   0.215 -0.2082  0.2157  0.2238
  435SOL    HW1 1304   0.215   1.525   0.182  0.5770 -2.3346  0.4667
  435SOL    HW2 1305   0.354   1.442   0.143  1.7450 -1.9460 -0.9681
  436SOL     OW 1306   0.644   1.208   1.813  0.2634 -0.0121 -0.1938
  436SOL    HW1 1307   0.566   1.263   1.773  2.5018 -1.3554 -0.0398
  436SOL    HW2 1308   0.678   1.231   1.909 -1.1319 -0.9670 -1.8946
  437SOL     OW 1309   1.135   0.575   2.979 -0.1771 -0.4404  0.4317
  437SOL    HW1 1310   1.163   0.599   3.072 -2.2114  1.1385  2.2449
  437SOL    HW2 1311   1.217   0.553   2.922 -1.7408  1.7902  0.0789
  438SOL     OW 1312   0.547   1.975   1.557  0.1720  0.3519 -0.6781
  438SOL    HW1 1313   0.540   1.972   1.454  0.0435  1.4903  3.5542
  438SOL    HW2 1314   0.629   1.922   1.586 -0.5889 -0.1914 -0.7828
  439SOL     OW 1315   2.126   1.775   2.852  0.5749 -0.0910 -0.4386
  439SOL    HW1 1316   2.169   1.821   2.936 -1.6675 -1.4968 -0.6425
  439SOL    HW2 1317   2.128   1.673   2.869  1.6562  0.3633  0.4427
  440SOL     OW 1318   1.420   0.546   0.611 -0.0549  0.4243  0.3650
  440SOL    HW1 1319   1.417   0.453   0.656 -2.8913 -1.7706  0.1805
  440SOL    HW2 1320   1.326   0.583   0.600 -2.5121  0.9598  0.6383
  441SOL     OW 1321   0.431   2.662   1.516  0.5475  0.3133 -0.1839
  441SOL    HW1 1322   0.516   2.697   1.553  1.1894 -0.1493  1.5072
  441SOL    HW2 1323   0.352   2.728   1.533 -3.0230 -2.1120  0.2275
  442SOL     OW 1324   2.439   2.416   0.934 -0.4032 -0.0486 -0.5979
  442SOL    HW1 1325   2.375   2.356   0.891  0.1194  3.4977  2.3945
  442SOL    HW2 1326   2.479   2.481   0.867 -0.7458 -0.5275 -2.5592
  443SOL     OW 1327   2.428   0.799   2.510 -0.4032  0.5204  0.1679
  443SOL    HW1 1328   2.411   0.894   2.534  0.4951 -2.5729  4.0396
  443SOL    HW2 1329   2.401   0.743   2.596 -0.7779 -3.0596  4.6928
  444SOL     OW 1330   1.519   0.680   2.431 -0.3225  0.4714 -0.4452
  444SOL    HW1 1331   1.561   0.773   2.438  2.6691  0.2961  1.3568
  444SOL    HW2 1332   1.519   0.646   2.336  0.2010  0.9644  2.4251
  445SOL     OW 1333   2.723   2.318   1.678 -0.3505  0.0417  0.7912
  445SOL    HW1 1334   2.757   2.247   1.613 -0.7458 -1.7369 -3.6095
  445SOL    HW2 1335   2.730   2.295   1.774 -1.4377  3.4599  0.2106
  446SOL     OW 1336   0.046   1.542   0.368  0.5419 -0.0011  0.8206
  446SOL    HW1 1337   0.087   1.621   0.421  1.1940 -0.0891  1.0130
  446SOL    HW2 1338   0.031   1.586   0.274  0.2152  1.3454 -0.5721
  447SOL     OW 1339   0.937   2.445   1.031 -0.3705  0.4500 -0.8205
  447SOL    HW1 1340   0.858   2.481   1.085 -0.3222  1.8871  0.3167
  447SOL    HW2 1341   0.913   2.402   0.943 -1.0420  0.3285 -0.0206
  448SOL     OW 1342   1.574   1.564   1.526 -0.5249 -0.3493  0.2009
  448SOL    HW1 1343   1.583   1.545   1.622 -0.6129  5.3583 -1.5498
  448SOL    HW2 1344   1.607   1.486   1.469  2.4837 -0.2625 -0.2377
  449SOL     OW 1345   0.776   1.746   2.777 -0.5746  0.2070  0.1393
  449SOL    HW1 1346   0.773   1.778   2.871  0.7156 -1.9221 -2.4478
  449SOL    HW2 1347   0.802   1.648   2.775 -1.2070 -2.2001  2.3341
  450SOL     OW 1348   0.030   1.850   2.193  0.4160  0.5275 -0.2550
  450SOL    HW1 1349   0.109   1.790   2.194 -2.4351  4.4291 -0.7654
  450SOL    HW2 1350   3.036   1.790   2.194  0.7707 -1.2480  0.4217
  451SOL     OW 1351   1.879   0.460   1.606  0.3497  0.2780 -0.3906
  451SOL    HW1 1352   1.879   0.417   1.514  2.9076  0.5139  2.4360
  451SOL    HW2 1353   1.876   0.564   1.602  0.4446 -1.0079  0.2556
  452SOL     OW 1354   1.091   2.724   1.209  0.3098  0.4564  0.0007
  452SOL    HW1 1355   1.131   2.634   1.180 -1.2558  1.1215 -0.9746
  452SOL    HW2 1356   0.989   2.732   1.209 -1.2740 -0.5191 -0.3691
  453SOL     OW 1357   1.098   1.832   0.724 -0.1964  0.6636  0.1639
  453SOL    HW1 1358   1.128   1.763   0.792  1.5117  1.5888  1.0477
  453SOL    HW2 1359   1.055   1.908   0.771  0.8262  0.5047  0.6169
  454SOL     OW 1360   0.004   1.235   0.748 -0.0229  0.5977  0.1045
  454SOL    HW1 1361   0.002   1.147   0.694 -0.7964  0.0717 -1.0760
  454SOL    HW2 1362   3.062   1.312   0.684 -2.1934 -1.8312 -2.9649
  455SOL     OW 1363   0.629   1.114   0.533  0.0891  0.4212  0.0049
  455SOL    HW1 1364   0.593   1.159   0.451 -1.5153  0.3502  2.2467
  455SOL    HW2 1365   0.540   1.089   0.581 -3.0948 -1.3764 -0.7819
  456SOL     OW 1366   2.117   2.479   0.996  0.6353 -0.4504 -0.0315
  456SOL    HW1 1367   2.211   2.497   1.039  1.9666 -0.3680 -1.1248
  456SOL    HW2 1368   2.056   2.559   0.989 -0.1384 -0.7040 -0.1837
  457SOL     OW 1369   1.375   2.537   0.019 -0.0051 -0.3592  0.1073
  457SOL    HW1 1370   1.340   2.599   0.092  2.6977 -0.2012 -2.3218
  457SOL    HW2 1371   1.472   2.507   0.040  0.6258 -2.0495  0.4236
  458SOL     OW 1372   2.763   0.234   0.055 -0.1535 -0.7504  0.1790
  458SOL    HW1 1373   2.710   0.175   0.114  2.0376  2.1469 -0.8681
  458SOL    HW2 1374   2.825   0.185   3.079 -1.2918  0.9134 -0.8784
  459SOL     OW 1375   2.161   0.109   1.690  0.0005  0.0192 -0.3913
  459SOL    HW1 1376   2.204   0.047   1.619  0.7431  2.3198 -0.0756
  459SOL    HW2 1377   2.061   0.081   1.701 -2.0558  0.0398  0.7099
  460SOL     OW 1378   3.000   0.542   0.050  0.8069  0.0846  0.0719
  460SOL    HW1 1379   3.081   0.491   0.011  0.7661 -0.0308 -0.3067
  460SOL    HW2 1380   2.915   0.491   0.028  2.5066  0.3459 -1.1051
  461SOL     OW 1381   2.997   2.165   1.098  0.3348  0.3776 -0.2947
  461SOL    HW1 1382   3.008   2.092   1.026 -0.2505 -2.6937 -0.2402
  461SOL    HW2 1383   2.935   2.239   1.065  2.2121 -4.4295  0.0773
  462SOL     OW 1384   0.115   0.099   0.893 -0.7991 -0.1194 -0.0490
  462SOL    HW1 1385   0.200   0.157   0.904  1.5580 -0.7192  1.5974
  462SOL    HW2 1386   0.033   0.160   0.909 -1.0533  1.5406  1.4199
  463SOL     OW 1387   2.362   1.354   2.802 -0.3378  0.1485  0.0588
  463SOL    HW1 1388   2.349   1.277   2.869  0.8984 -0.6408  1.6878
  463SOL    HW2 1389   2.423   1.321   2.724 -0.3120 -0.8482 -0.6147
  464SOL     OW 1390   0.839   2.876   1.319 -0.0670 -0.6291  0.9210
  464SOL    HW1 1391   0.746   2.831   1.342 -4.1389 -3.0406  2.6543
  464SOL    HW2 1392   0.903   2.878   1.399 -1.2326  1.5053 -0.3514
  465SOL     OW 1393   0.966   0.534   1.012 -0.3190 -0.4537  0.0822
  465SOL    HW1 1394   0.984   0.458   1.077  0.0848  1.5738 -0.1417
  465SOL    HW2 1395   0.873   0.570   1.017  1.3269  1.0314  0.7742
  466SOL     OW 1396   1.570   2.264   2.099 -0.8484 -0.1414  0.1650
  466SOL    HW1 1397   1.629   2.316   2.030 -0.4293  0.3483 -0.9193
  466SOL    HW2 1398   1.606   2.277   2.197 -1.3796 -0.1679 -1.4514
  467SOL     OW 1399   0.804   0.082   1.976  0.4307 -0.0070  0.0968
  467SOL    HW1 1400   0.854   0.099   2.064 -1.5480  1.0549  1.7847
  467SOL    HW2 1401   0.874   0.076   1.901  0.8768  0.8629 -2.3726
  468SOL     OW 1402   0.005   1.326   2.219  0.1707  0.2764  0.0996
  468SOL    HW1 1403   0.026   1.334   2.120  2.3432  1.3920 -2.3061
  468SOL    HW2 1404   2.990   1.325   2.222  1.1907  1.3590 -3.4810
  469SOL     OW 1405   1.146   2.484   0.440 -0.3836 -0.3275 -0.4066
  469SOL    HW1 1406   1.048   2.471   0.440  4.3439  1.0682 -0.2599
  469SOL    HW2 1407   1.190   2.549   0.502  0.3304  0.2422  0.8970
  470SOL     OW 1408   1.942   1.242   2.288 -0.1258 -0.0186  0.5013
  470SOL    HW1 1409   1.902   1.298   2.212  0.7315 -0.9562 -2.0770
  470SOL    HW2 1410   1.929   1.288   2.379  2.0206  1.6720 -0.3578
  471SOL     OW 1411   0.946   2.431   2.981 -1.0661  0.0066  0.5951
  471SOL    HW1 1412   1.031   2.432   3.039  1.3241  2.4348  0.2552
  471SOL    HW2 1413   0.962   2.493   2.903 -0.0220 -2.5887  0.6141
  472SOL     OW 1414   0.391   2.508   2.139 -0.1473 -0.0623  0.1234
  472SOL    HW1 1415   0.390   2.409   2.142  0.6681  5.2174  2.8751
  472SOL    HW2 1416   0.297   2.534   2.111  1.3959 -3.3931  0.7716
  473SOL     OW 1417   0.878   0.035   2.926  0.0323  0.3169  0.2847
  473SOL    HW1 1418   0.972   3.082   2.938  1.2894 -0.3071 -1.6555
  473SOL    HW2 1419   0.843   0.063   3.017 -0.1112  1.6839  1.3825
  474SOL     OW 1420   1.706   0.267   0.681  0.3851 -0.9167  0.1609
  474SOL    HW1 1421   1.722   0.268   0.579 -1.1138  0.9794 -1.6535
  474SOL    HW2 1422   1.793   0.279   0.734  1.8751 -0.1695  1.4478
  475SOL     OW 1423   1.602   0.239   1.366 -0.4024  0.0521  0.1881
  475SOL    HW1 1424   1.505   0.220   1.343 -1.9458 -1.1864 -0.2888
  475SOL    HW2 1425   1.666   0.234   1.289  0.6726 -1.0255  0.0821
  476SOL     OW 1426   0.102   1.003   1.164  0.1297 -1.1477  0.7360
  476SOL    HW1 1427   0.043   1.049   1.231  3.4191 -0.4058  1.0361
  476SOL    HW2 1428   0.172   1.073   1.131 -0.4975  0.1966  0.2292
  477SOL     OW 1429   1.098   2.011   0.499 -0.2505  0.2065 -0.0482
  477SOL    HW1 1430   1.030   1.950   0.468  0.3272  1.7220 -0.1065
  477SOL    HW2 1431   1.131   1.971   0.586  0.4380 -0.8620  0.5064
  478SOL     OW 1432   0.283   2.553   2.552  0.0094  0.1609 -0.2347
  478SOL    HW1 1433   0.302   2.453   2.574 -0.5147  1.1683  1.8796
  478SOL    HW2 1434   0.366   2.604   2.519  2.5532 -2.4246 -1.6835
  479SOL     OW 1435   3.022   0.364   1.217  0.4534 -0.5393 -0.4304
  479SOL    HW1 1436   2.918   0.369   1.220 -1.5944  1.7387  0.2944
  479SOL    HW2 1437   3.056   0.447   1.267  1.0752  0.1007 -0.4715
  480SOL     OW 1438   2.866   2.336   0.093  0.5095 -0.2733 -0.7389
  480SOL    HW1 1439   2.873   2.244   0.055 -0.2453 -0.3741  0.2269
  480SOL    HW2 1440   2.890   2.407   0.021  0.2560 -2.9036 -0.0155
  481SOL     OW 1441   2.449   2.078   1.741  0.0572 -0.4250 -0.6928
  481SOL    HW1 1442   2.445   2.133   1.655  0.2048 -2.0249 -1.9602
  481SOL    HW2 1443   2.451   2.137   1.820  1.7827 -1.0119 -1.1314
  482SOL     OW 1444   1.468   1.853   2.386 -1.0145  0.5198  0.7464
  482SOL    HW1 1445   1.477   1.915   2.306 -0.0045  1.4622 -1.3830
  482SOL    HW2 1446   1.396   1.888   2.444  2.0868  0.1680 -1.8746
  483SOL     OW 1447   0.876   1.583   1.676  0.1955  0.4160 -0.4185
  483SOL    HW1 1448   0.963   1.539   1.649  0.9420 -0.3031 -0.8559
  483SOL    HW2 1449   0.796   1.528   1.643 -1.4327 -1.8110  0.9342
  484SOL     OW 1450   0.300   0.460   1.523  0.4323  0.6066 -0.1689
  484SOL    HW1 1451   0.371   0.518   1.483 -0.3334  1.4171  1.6932
  484SOL    HW2 1452   0.300   0.466   1.625  1.6665  0.0562  0.0998
  485SOL     OW 1453   2.297   1.149   2.999  0.1497  0.4162  0.1274
  485SOL    HW1 1454   2.245   1.071   2.963 -0.2299 -1.4228 -1.3942
  485SOL    HW2 1455   2.381   1.115   3.047  2.6008 -3.4928  0.5109
  486SOL     OW 1456   1.238   0.179   1.568  0.0049 -0.0289  0.2174
  486SOL    HW1 1457   1.253   0.132   1.476 -2.3663 -1.0671 -0.1610
  486SOL    HW2 1458   1.208   0.275   1.554 -1.3340 -0.0734  1.5838
  487SOL     OW 1459   0.500   2.247   1.546  0.5494 -0.3738  0.2387
  487SOL    HW1 1460   0.573   2.270   1.614  0.0359  0.2233 -0.2365
  487SOL    HW2 1461   0.487   2.147   1.536 -0.6329 -0.1582  3.7832
  488SOL     OW 1462   2.606   1.930   2.841 -0.5528 -0.1469 -0.4399
  488SOL    HW1 1463   2.544   1.940   2.761  1.1969  2.6343  1.0154
  488SOL    HW2 1464   2.623   2.022   2.880 -1.1067 -1.2462  1.0485
  489SOL     OW 1465   2.046   3.042   0.558  0.3097 -0.1719 -0.3098
  489SOL    HW1 1466   1.946   3.042   0.567  2.1177  3.5628  0.3553
  489SOL    HW2 1467   2.083   2.968   0.501 -0.5778  0.2059 -2.7985
  490SOL     OW 1468   1.187   2.297   2.859  0.1261 -0.8930  0.4105
  490SOL    HW1 1469   1.146   2.251   2.777  0.8527 -0.5884  2.2234
  490SOL    HW2 1470   1.112   2.307   2.930 -0.9922  0.8274  0.4401
  491SOL     OW 1471   0.491   1.420   1.715 -0.0296 -0.2530 -0.5277
  491SOL    HW1 1472   0.414   1.487   1.738 -2.2015 -0.2419 -0.1938
  491SOL    HW2 1473   0.533   1.439   1.626  2.1087 -0.5868  1.8288
  492SOL     OW 1474   1.135   0.902   1.859  0.5494  0.4584 -0.1713
  492SOL    HW1 1475   1.094   0.907   1.769 -0.7148 -1.6609  2.6206
  492SOL    HW2 1476   1.190   0.983   1.892  0.7593  0.6605 -2.8412
  493SOL     OW 1477   2.195   1.862   0.801 -0.0554  0.4388  0.6018
  493SOL    HW1 1478   2.112   1.882   0.860 -0.9342 -1.2460 -0.7247
  493SOL    HW2 1479   2.189   1.763   0.767 -0.5827  1.1770  0.5245
  494SOL     OW 1480   0.609   1.776   0.998  0.1632  0.0128  0.1345
  494SOL    HW1 1481   0.524   1.719   1.011 -1.1275  1.4779  0.9092
  494SOL    HW2 1482   0.592   1.853   0.935  0.3135  0.3572 -0.7823
  495SOL     OW 1483   2.193   2.597   0.735  0.7755 -0.2968 -0.7714
  495SOL    HW1 1484   2.270   2.554   0.684  0.8702  0.7526  1.2087
  495SOL    HW2 1485   2.156   2.535   0.810 -2.7538  1.4567 -1.6413
  496SOL     OW 1486   2.680   3.038   1.393 -0.5254 -0.4010 -0.7619
  496SOL    HW1 1487   2.756   0.017   1.382 -0.1331  1.9919 -1.2110
  496SOL    HW2 1488   2.597   3.082   1.440  0.8928  0.9812 -1.8942
  497SOL     OW 1489   2.325   1.031   2.577 -0.4844 -0.1602  0.1640
  497SOL    HW1 1490   2.289   1.100   2.513  2.0439  3.1550 -0.8374
  497SOL    HW2 1491   2.247   1.005   2.642 -0.8156 -2.8697  1.5986
  498SOL     OW 1492   3.085   2.236   1.609 -0.5328 -0.0918 -0.1009
  498SOL    HW1 1493   3.016   2.184   1.554  0.4317  0.1004  0.4263
  498SOL    HW2 1494   3.057   2.338   1.624  2.1071  2.9993 -0.4652
  499SOL     OW 1495   1.091   2.431   1.980  0.1354  1.0920 -0.1052
  499SOL    HW1 1496   1.018   2.377   2.025 -0.8604  0.1723  0.4907
  499SOL    HW2 1497   1.178   2.383   1.989 -1.1077 -0.7486  0.1253
  500SOL     OW 1498   1.029   2.206   0.321  0.9514  0.1128 -0.4912
  500SOL    HW1 1499   0.990   2.299   0.339 -1.3254 -1.4534  2.1525
  500SOL    HW2 1500   1.054   2.163   0.411  0.4706 -1.5548 -2.1082
  501SOL     OW 1501   1.897   2.924   1.347  0.2570  0.5624 -0.1861
  501SOL    HW1 1502   1.822   2.907   1.275  0.9974 -1.2231  0.7750
  501SOL    HW2 1503   1.921   2.829   1.387  0.3297  1.7156  0.3806
  502SOL     OW 1504   2.410   0.503   1.633 -0.1909 -0.0177 -0.2939
  502SOL    HW1 1505   2.310   0.511   1.672 -4.3906 -2.2366  1.5180
  502SOL    HW2 1506   2.480   0.469   1.697 -1.3357  0.5149 -2.0399
  503SOL     OW 1507   2.625   1.093   2.246 -0.2732 -0.2692  0.2470
  503SOL    HW1 1508   2.547   1.149   2.277  1.5518  0.1742 -0.1584
  503SOL    HW2 1509   2.594   1.047   2.161  1.6514  0.9899  0.3172
  504SOL     OW 1510   1.452   0.854   1.349 -0.0283  0.6362 -0.2809
  504SOL    HW1 1511   1.524   0.817   1.292  0.7302 -1.0971  0.4975
  504SOL    HW2 1512   1.383   0.904   1.296 -2.0876 -1.8571 -2.3664
  505SOL     OW 1513   0.626   2.976   1.659 -0.2831 -0.6377 -0.0171
  505SOL    HW1 1514   0.727   2.979   1.643  0.9150 -0.7692  2.9073
  505SOL    HW2 1515   0.571   2.957   1.570 -0.6012 -2.3774 -0.2566
  506SOL     OW 1516   0.142   0.276   0.157  0.1528  0.0915  0.0060
  506SOL    HW1 1517   0.173   0.337   0.082 -0.4173 -0.8452  0.4715
  506SOL    HW2 1518   0.218   0.271   0.224  2.8229 -0.1386 -3.1648
  507SOL     OW 1519   2.568   3.043   0.127  0.6368  0.4414  0.6193
  507SOL    HW1 1520   2.639   3.020   0.195  0.6049  1.6031  2.6515
  507SOL    HW2 1521   2.509   2.964   0.128  5.5862 -0.0701 -0.7076
  508SOL     OW 1522   1.265   0.375   2.017  0.2411 -0.6755  0.3241
  508SOL    HW1 1523   1.214   0.320   1.943  1.6158 -0.4985 -0.9027
  508SOL    HW2 1524   1.341   0.437   1.983 -1.0385  0.0872  0.7324
  509SOL     OW 1525   1.710   1.765   1.213  0.2378 -0.2603 -0.5735
  509SOL    HW1 1526   1.625   1.772   1.162 -1.4397 -0.9513 -1.5575
  509SOL    HW2 1527   1.772   1.695   1.166  0.3198 -4.8596  1.1227
  510SOL     OW 1528   2.471   1.238   1.522 -0.3504  0.1657  0.4058
  510SOL    HW1 1529   2.531   1.189   1.589  0.4683  0.4566  0.0390
  510SOL    HW2 1530   2.470   1.183   1.430 -1.6661 -2.5268  0.1813
  511SOL     OW 1531   1.406   1.827   1.278 -0.2343  0.5977 -0.4156
  511SOL    HW1 1532   1.506   1.843   1.305  0.2535 -1.9554 -0.4377
  511SOL    HW2 1533   1.339   1.858   1.347  0.3183 -1.3024 -0.7839
  512SOL     OW 1534   3.030   1.429   0.585  0.7129 -0.2056 -0.1106
  512SOL    HW1 1535   3.081   1.454   0.500  1.1331  0.2865  3.1342
  512SOL    HW2 1536   2.946   1.492   0.587 -0.9334  0.4975  2.1648
  513SOL     OW 1537   0.092   1.460   3.038  0.0418  0.1466 -0.3013
  513SOL    HW1 1538   0.136   1.502   2.957  0.5150 -0.3242  0.3657
  513SOL    HW2 1539   0.007   1.410   3.015  0.8989  2.8662 -0.2602
  514SOL     OW 1540   2.871   2.080   2.388  0.5457  0.3569 -0.4806
  514SOL    HW1 1541   2.969   2.095   2.354  2.4715 -1.2362 -2.7415
  514SOL    HW2 1542   2.853   1.997   2.441 -1.1785 -0.0364  0.8644
  515SOL     OW 1543   2.146   1.083   0.719  0.7146 -0.7196  1.1097
  515SOL    HW1 1544   2.180   1.068   0.817 -0.5153 -0.1227  2.8428
  515SOL    HW2 1545   2.218   1.061   0.656  0.5124  0.7241  3.3007
  516SOL     OW 1546   2.371   2.780   0.227 -0.4013  0.3732 -0.2311
  516SOL    HW1 1547   2.399   2.700   0.282  1.2774 -2.4457 -0.7997
  516SOL    HW2 1548   2.347   2.751   0.133 -0.6275 -0.4407 -0.3213
  517SOL     OW 1549   1.051   1.882   2.587  0.4450  0.0887 -0.0232
  517SOL    HW1 1550   0.950   1.885   2.592  1.0352  1.6864 -1.3637
  517SOL    HW2 1551   1.089   1.802   2.537 -0.3298  0.4867 -0.3418
  518SOL     OW 1552   0.199   0.191   2.546 -0.1541  0.1753  0.2900
  518SOL    HW1 1553   0.295   0.202   2.517  1.7824 -0.0816 -1.1964
  518SOL    HW2 1554   0.142   0.260   2.491 -1.2789  0.0316 -0.1463
  519SOL     OW 1555   0.663   1.431   3.016 -0.4909  0.4433 -0.8405
  519SOL    HW1 1556   0.738   1.479   2.964  0.6168  0.9904 -1.1255
  519SOL    HW2 1557   0.668   1.328   3.003  1.5616 -0.8792 -0.6006
  520SOL     OW 1558   2.896   2.259   2.163  0.4064  0.1096 -0.3241
  520SOL    HW1 1559   2.905   2.200   2.248  0.0874 -2.7166  0.4527
  520SOL    HW2 1560   2.986   2.280   2.121  0.5061 -0.3860  0.9024
  521SOL     OW 1561   0.810   2.066   2.359  0.4070 -0.6360 -0.9936
  521SOL    HW1 1562   0.779   2.077   2.456 -0.3512  1.0767 -0.5910
  521SOL    HW2 1563   0.758   2.139   2.308  2.9639 -0.6173 -3.3109
  522SOL     OW 1564   1.782   2.737   1.664 -0.1732  0.6476 -0.0704
  522SOL    HW1 1565   1.836   2.793   1.737 -0.0179  3.6539  2.0528
  522SOL    HW2 1566   1.685   2.769   1.663  0.7690  1.3687  0.3885
  523SOL     OW 1567   2.026   1.866   1.855  0.5088  0.0854  0.7663
  523SOL    HW1 1568   2.122   1.883   1.880  0.1534  0.1400  0.5050
  523SOL    HW2 1569   1.970   1.935   1.901 -0.5113  0.3473  0.7447
  524SOL     OW 1570   0.548   2.772   0.455 -0.3714  0.0389 -0.2439
  524SOL    HW1 1571   0.468   2.713   0.481 -4.7515 -0.5936  0.5046
  524SOL    HW2 1572   0.624   2.717   0.413  0.0405 -2.8189  1.1040
  525SOL     OW 1573   0.211   0.633   0.493  0.2616  0.1563 -0.5599
  525SOL    HW1 1574   0.296   0.600   0.452 -2.0099 -2.4472 -0.4273
  525SOL    HW2 1575   0.166   0.548   0.523 -0.1200  1.1916 -0.4167
  526SOL     OW 1576   0.741   2.980   0.515  0.1947 -0.2421 -0.0819
  526SOL    HW1 1577   0.670   2.910   0.480  0.1258 -2.0587 -1.5463
  526SOL    HW2 1578   0.707   3.029   0.598 -1.5883 -2.0333 -0.6374
  527SOL     OW 1579   2.091   1.708   1.108 -0.2625 -0.4438  0.7238
  527SOL    HW1 1580   2.001   1.666   1.133  1.6751  0.4114  2.0545
  527SOL    HW2 1581   2.164   1.652   1.155  0.4692 -1.9646  0.2642
  528SOL     OW 1582   2.874   2.534   2.418  0.1489 -0.5279 -0.2075
  528SOL    HW1 1583   2.817   2.595   2.351 -2.3654  2.2052 -1.0873
  528SOL    HW2 1584   2.968   2.518   2.376 -0.8429  0.5770 -0.4294
  529SOL     OW 1585   1.249   1.733   2.204 -0.2832  0.1859  0.7335
  529SOL    HW1 1586   1.221   1.825   2.214  0.0799 -3.1617 -0.7489
  529SOL    HW2 1587   1.349   1.725   2.188 -4.1076 -0.2629  2.3516
  530SOL     OW 1588   1.490   1.236   0.105 -0.4713 -0.1553  0.0822
  530SOL    HW1 1589   1.592   1.222   0.087  1.6583 -2.9803  1.7701
  530SOL    HW2 1590   1.441   1.214   0.020 -1.3625  0.6135 -2.9472
  531SOL     OW 1591   0.566   0.930   2.891  0.0218 -0.1572  0.0556
  531SOL    HW1 1592   0.469   0.909   2.909 -3.2454  1.7644 -2.0537
  531SOL    HW2 1593   0.619   0.849   2.927 -0.9576 -2.3132  0.5353
  532SOL     OW 1594   1.827   1.327   0.556  0.3436  0.6441  0.6042
  532SOL    HW1 1595   1.827   1.252   0.628 -1.5755 -1.4595  0.2382
  532SOL    HW2 1596   1.921   1.334   0.517  1.6910 -0.1643  2.8274
  533SOL     OW 1597   0.649   0.134   2.532 -0.2824 -0.2916 -0.0425
  533SOL    HW1 1598   0.565   0.177   2.497 -0.6056  1.3093  0.5574
  533SOL    HW2 1599   0.728   0.199   2.527  1.8268 -1.4781 -0.8667
  534SOL     OW 1600   1.026   2.605   2.777  0.1143 -0.0937 -0.5869
  534SOL    HW1 1601   0.946   2.668   2.767  1.2364 -0.9751 -1.6200
  534SOL    HW2 1602   1.106   2.639   2.836  3.3993 -0.7132 -1.1869
  535SOL     OW 1603   0.079   0.025   0.058 -0.1245  0.3879 -0.2666
  535SOL    HW1 1604   0.148   3.046   0.089 -1.0759  1.4718  0.7190
  535SOL    HW2 1605   0.111   0.116   0.091 -0.2942  0.3834 -1.1259
  536SOL     OW 1606   2.977   0.850   2.167  0.5804 -0.0069  0.2575
  536SOL    HW1 1607   3.020   0.920   2.109  2.0287 -0.3225  2.6882
  536SOL    HW2 1608   3.028   0.766   2.146 -0.5994 -0.2061 -1.9902
  537SOL     OW 1609   1.191   0.054   1.320 -0.0080 -0.0254 -0.2484
  537SOL    HW1 1610   1.166   3.059   1.267 -0.5814 -0.9233 -0.6713
  537SOL    HW2 1611   1.273   0.103   1.279  1.1198  1.5199 -0.1327
  538SOL     OW 1612   0.376   1.639   0.420 -0.4163  0.1912 -0.4035
  538SOL    HW1 1613   0.353   1.589   0.333  1.7699 -1.4302  0.1938
  538SOL    HW2 1614   0.447   1.582   0.463 -1.1873  4.7114 -0.9116
  539SOL     OW 1615   2.505   1.045   1.990 -0.6660  0.0389 -0.2601
  539SOL    HW1 1616   2.416   1.015   1.957 -0.8367 -0.7211  0.4786
  539SOL    HW2 1617   2.530   1.135   1.956  0.4532 -2.0896  0.4651
  540SOL     OW 1618   2.098   1.463   2.014 -0.1530  0.2423  0.6209
  540SOL    HW1 1619   2.004   1.433   2.036  2.0669 -0.3692  0.1950
  540SOL    HW2 1620   2.110   1.562   2.039  2.2805  0.2140  1.8734
  541SOL     OW 1621   0.705   1.448   1.506 -0.1493  0.3128  0.1025
  541SOL    HW1 1622   0.730   1.351   1.487 -1.0430 -0.5324 -1.8619
  541SOL    HW2 1623   0.757   1.515   1.451 -1.8433  0.1785  1.6834
  542SOL     OW 1624   1.633   0.339   2.258  0.0267 -0.2907 -0.5263
  542SOL    HW1 1625   1.719   0.335   2.320  2.5893  0.2999 -0.5237
  542SOL    HW2 1626   1.659   0.320   2.161 -1.4383 -0.6618 -0.2993
  543SOL     OW 1627   0.946   0.217   0.389 -0.0907 -0.2189 -0.0170
  543SOL    HW1 1628   0.975   0.210   0.486  1.3622 -4.1732 -0.6602
  543SOL    HW2 1629   1.005   0.289   0.341 -0.9915  2.1291  0.0052
  544SOL     OW 1630   2.502   1.905   2.357  0.0297  0.3115 -0.5337
  544SOL    HW1 1631   2.500   1.804   2.362 -1.7197  0.5548  2.3105
  544SOL    HW2 1632   2.597   1.945   2.367 -1.5183  1.7496 -2.3413
  545SOL     OW 1633   1.905   2.131   1.962  0.2675 -0.7750  0.1806
  545SOL    HW1 1634   1.926   2.216   2.023 -1.9105  1.7285  4.3607
  545SOL    HW2 1635   1.858   2.155   1.874  1.9971  0.7842  1.8617
  546SOL     OW 1636   0.452   0.045   0.072 -0.4188 -0.2399  0.4555
  546SOL    HW1 1637   0.552   0.053   0.099  2.0143 -0.5009  0.7988
  546SOL    HW2 1638   0.400   3.053   0.112 -2.7534 -1.1488  1.1370
  547SOL     OW 1639   2.024   0.902   0.201  0.0266 -0.2483 -0.0014
  547SOL    HW1 1640   2.035   0.798   0.226  1.0074 -2.8850  3.0085
  547SOL    HW2 1641   1.994   0.952   0.286 -2.0593 -1.2030  2.1199
  548SOL     OW 1642   2.176   1.748   2.423 -0.0611  0.0002 -0.2109
  548SOL    HW1 1643   2.184   1.809   2.506  2.4858 -0.1010 -0.0691
  548SOL    HW2 1644   2.270   1.709   2.402  0.0481  0.6985  0.3188
  549SOL     OW 1645   2.076   0.403   0.576 -0.0394  0.0435 -0.1921
  549SOL    HW1 1646   2.079   0.327   0.508  2.8739 -2.5022 -0.6292
  549SOL    HW2 1647   2.011   0.479   0.548 -2.0932 -0.7418  2.1877
  550SOL     OW 1648   2.565   2.195   0.632 -0.0217 -0.5147  0.2793
  550SOL    HW1 1649   2.515   2.116   0.668  0.7366  1.3840 -1.4082
  550SOL    HW2 1650   2.503   2.257   0.581 -1.0299 -0.5013 -2.9837
  551SOL     OW 1651   0.972   0.038   1.535 -0.3901  0.8702  0.1343
  551SOL    HW1 1652   1.073   0.058   1.533  0.9131 -2.3662  0.8453
  551SOL    HW2 1653   0.934   0.016   1.440 -1.0261  1.7204 -3.4879
  552SOL     OW 1654   3.059   2.389   2.634  0.1887 -0.2896 -0.3155
  552SOL    HW1 1655   3.048   2.476   2.587 -2.4456 -3.3864 -0.0734
  552SOL    HW2 1656   0.014   2.320   2.567  0.8019 -1.9856  1.6190
  553SOL     OW 1657   0.444   3.007   0.353 -0.4315  0.5865  0.4595
  553SOL    HW1 1658   0.400   3.027   0.441 -1.0021 -1.3345 -0.5750
  553SOL    HW2 1659   0.489   2.913   0.358  1.9728 -1.1171  0.5362
  554SOL     OW 1660   2.249   2.306   1.831  0.1625  0.2319  0.1747
  554SOL    HW1 1661   2.209   2.213   1.836 -0.6603  0.9503  1.7413
  554SOL    HW2 1662   2.224   2.352   1.742  0.8229  1.2293 -0.7071
  555SOL     OW 1663   1.373   2.109   1.757  0.2103  0.4386 -0.4979
  555SOL    HW1 1664   1.271   2.113   1.726 -2.6920 -0.0396 -0.0853
  555SOL    HW2 1665   1.399   2.013   1.788  1.4085 -0.3377  1.5320
  556SOL     OW 1666   1.313   1.542   1.197  0.7903 -0.3021 -0.1190
  556SOL    HW1 1667   1.261   1.568   1.115  0.2275 -1.0507  3.3475
  556SOL    HW2 1668   1.359   1.623   1.234  1.4948 -1.2187 -1.1242
  557SOL     OW 1669   1.950   2.344   2.170  0.2707 -0.0782  0.0819
  557SOL    HW1 1670   2.034   2.373   2.128 -1.4631 -2.4505  0.7483
  557SOL    HW2 1671   1.960   2.319   2.268 -2.1759 -0.7098 -0.5689
  558SOL     OW 1672   0.576   2.969   2.079  0.3164  0.1081 -0.0174
  558SOL    HW1 1673   0.541   3.006   2.163 -2.9614  1.0290 -2.4746
  558SOL    HW2 1674   0.629   3.045   2.036 -0.5132 -1.6731  1.1005
  559SOL     OW 1675   2.267   3.002   1.073 -0.7467 -0.4524  0.4794
  559SOL    HW1 1676   2.361   2.988   1.108  2.6474  0.2390  1.6270
  559SOL    HW2 1677   2.269   0.006   1.021  2.5860  1.4509 -4.3601
  560SOL     OW 1678   0.871   2.418   0.420 -0.4914 -0.0716  0.1996
  560SOL    HW1 1679   0.824   2.506   0.397 -2.4379 -0.0754 -2.7803
  560SOL    HW2 1680   0.814   2.356   0.475 -2.2739  0.9650 -2.8135
  561SOL     OW 1681   1.042   0.407   0.218  0.5039  0.3955  0.0088
  561SOL    HW1 1682   1.117   0.473   0.209 -1.2001 -0.6947  2.8159
  561SOL    HW2 1683   0.952   0.457   0.234 -2.4980 -0.4442  3.7504
  562SOL     OW 1684   0.806   0.287   2.806  0.1140  0.0196 -0.4089
  562SOL    HW1 1685   0.827   0.200   2.858  0.8375  0.3594 -0.8442
  562SOL    HW2 1686   0.861   0.291   2.720  1.5739 -0.4416 -1.1786
  563SOL     OW 1687   1.510   1.884   2.738 -0.4029  0.0268 -0.3255
  563SOL    HW1 1688   1.560   1.961   2.777  2.3826  0.1310  1.3585
  563SOL    HW2 1689   1.433   1.905   2.680  1.4232 -1.1099  3.4663
  564SOL     OW 1690   2.919   1.216   0.991 -0.2866  0.0856 -0.1644
  564SOL    HW1 1691   2.859   1.135   0.982  0.3964  1.0530 -1.4343
  564SOL    HW2 1692   2.999   1.219   0.923 -0.2403  0.4662 -0.8844
  565SOL     OW 1693   1.131   0.234   2.815 -0.6387  0.0925 -0.3722
  565SOL    HW1 1694   1.087   0.203   2.730  0.3293 -1.9483  3.5264
  565SOL    HW2 1695   1.172   0.327   2.805  2.0272  0.2458  0.8159
  566SOL     OW 1696   1.304   0.137   2.123  0.9015  0.1932  0.5780
  566SOL    HW1 1697   1.294   0.240   2.107  0.6612 -1.6960  0.6073
  566SOL    HW2 1698   1.369   0.102   2.056 -1.4626  0.5195 -0.2579
  567SOL     OW 1699   2.482   1.324   0.805 -0.0834 -0.2109 -0.2645
  567SOL    HW1 1700   2.438   1.299   0.718 -1.9366 -0.6076  1.3947
  567SOL    HW2 1701   2.582   1.330   0.792 -3.8780 -2.3343  1.3909
  568SOL     OW 1702   1.970   1.939   0.585 -0.4084  0.3744 -0.0443
  568SOL    HW1 1703   2.003   2.011   0.521  1.0296  0.7323  1.3939
  568SOL    HW2 1704   2.048   1.911   0.639 -0.0374  1.7442 -0.4495
  569SOL     OW 1705   2.097   1.510   2.878  0.5162 -0.0988 -0.1479
  569SOL    HW1 1706   2.006   1.471   2.855 -0.7677  0.6094  0.4882
  569SOL    HW2 1707   2.168   1.452   2.833 -0.2052 -0.9524  4.3649
  570SOL     OW 1708   0.208   2.900   1.858  0.0531 -0.2993 -0.1606
  570SOL    HW1 1709   0.303   2.874   1.837  1.3665  3.3428 -2.8599
  570SOL    HW2 1710   0.180   2.973   1.796  0.5416 -1.8483  0.1409
  571SOL     OW 1711   0.055   0.353   2.385  0.6595  0.1983  0.1077
  571SOL    HW1 1712   3.080   0.297   2.329 -0.2707 -2.6878  1.4825
  571SOL    HW2 1713   0.035   0.452   2.381 -0.6267  0.1800 -0.1429
  572SOL     OW 1714   0.823   1.661   0.835  0.4761 -0.1018 -0.2701
  572SOL    HW1 1715   0.732   1.687   0.880 -0.9758 -2.4023  0.9990
  572SOL    HW2 1716   0.852   1.732   0.769 -0.3825  0.5025 -2.0488
  573SOL     OW 1717   1.278   2.329   0.246 -0.1671  0.1535  0.3263
  573SOL    HW1 1718   1.322   2.382   0.169 -1.5391 -1.0267  0.4923
  573SOL    HW2 1719   1.242   2.388   0.320 -0.3391 -1.0221 -0.4678
  574SOL     OW 1720   0.889   0.138   0.874 -0.2865  0.0265 -0.3257
  574SOL    HW1 1721   0.887   0.195   0.964 -0.3963  0.4461 -0.6965
  574SOL    HW2 1722   0.920   0.039   0.886 -1.1347  0.6196 -0.9606
  575SOL     OW 1723   2.949   0.937   1.385 -0.8487  0.4267 -0.1388
  575SOL    HW1 1724   2.878   0.960   1.314  1.4478 -4.5924 -0.3512
  575SOL    HW2 1725   2.951   1.006   1.459 -0.9294 -1.0148  0.4429
  576SOL     OW 1726   1.728   0.028   1.513 -0.7474 -0.1785  0.7948
  576SOL    HW1 1727   1.693   0.106   1.452 -0.4573  2.7772 -1.8605
  576SOL    HW2 1728   1.769   3.051   1.455  1.4152  3.8189  1.8407
  577SOL     OW 1729   0.049   1.002   2.011  0.5830 -0.5420  0.2472
  577SOL    HW1 1730   0.089   0.922   1.958  1.9169  0.5301 -3.1665
  577SOL    HW2 1731   0.110   1.078   1.987  0.6129 -1.6677 -3.1575
  578SOL     OW 1732   1.796   0.180   2.573 -0.1114 -0.7602  0.3416
  578SOL    HW1 1733   1.734   0.238   2.630 -2.5027  0.7624  1.8007
  578SOL    HW2 1734   1.833   0.102   2.631  0.7174 -2.3782  0.9286
  579SOL     OW 1735   2.269   1.880   1.964 -0.8383  0.0029 -0.3442
  579SOL    HW1 1736   2.346   1.823   1.995 -1.8145  1.0970 -0.9484
  579SOL    HW2 1737   2.267   1.960   2.025 -0.8488  0.2026  0.8994
  580SOL     OW 1738   1.859   1.356   2.849  0.8057  0.5432 -0.3214
  580SOL    HW1 1739   1.818   1.447   2.833 -0.6377  0.1914 -1.7753
  580SOL    HW2 1740   1.808   1.289   2.786 -1.6707 -0.1651 -1.6348
  581SOL     OW 1741   1.397   1.126   2.892  0.0824  0.1111 -0.1366
  581SOL    HW1 1742   1.421   1.023   2.901 -0.2856  0.6118  1.7305
  581SOL    HW2 1743   1.381   1.146   2.791 -2.1909 -2.0253 -4.4700
  582SOL     OW 1744   0.802   2.025   1.390  0.3139 -0.0017  1.0478
  582SOL    HW1 1745   0.801   1.969   1.474  0.4397 -0.3807  0.3644
  582SOL    HW2 1746   0.784   1.971   1.303 -4.9469  0.2840 -2.3577
  583SOL     OW 1747   1.311   1.059   1.218 -0.4845  0.2609 -0.4562
  583SOL    HW1 1748   1.271   1.032   1.133  0.7841  0.3352  2.0943
  583SOL    HW2 1749   1.368   1.147   1.208 -1.0688  1.6136 -3.2515
  584SOL     OW 1750   1.812   2.377   0.634  0.3324  0.3594 -0.3760
  584SOL    HW1 1751   1.745   2.389   0.563  1.9687  1.4354  0.5910
  584SOL    HW2 1752   1.773   2.370   0.725  0.8518 -0.0570  0.2648
  585SOL     OW 1753   2.288   2.650   3.046  0.4375  0.2442 -0.0433
  585SOL    HW1 1754   2.230   2.686   2.971 -2.4453 -1.6979 -2.3297
  585SOL    HW2 1755   2.234   2.573   0.002  0.1276  0.2922 -1.1902
  586SOL     OW 1756   2.747   2.204   0.842 -0.2662 -0.2110  0.4088
  586SOL    HW1 1757   2.689   2.212   0.763  1.2064 -0.5226  2.8665
  586SOL    HW2 1758   2.798   2.290   0.860 -1.0075 -0.4674 -0.5861
  587SOL     OW 1759   0.968   1.823   0.126  0.0483  0.4075 -0.3338
  587SOL    HW1 1760   1.068   1.841   0.155  2.5102  0.3236 -0.4481
  587SOL    HW2 1761   0.968   1.728   0.090  0.8870 -3.2597 -1.8556
  588SOL     OW 1762   0.522   0.163   1.108  0.1278 -0.1982  0.2189
  588SOL    HW1 1763   0.471   0.169   1.200 -0.5109  1.2552  1.0924
  588SOL    HW2 1764   0.569   0.248   1.087  0.1177 -0.9994 -1.1342
  589SOL     OW 1765   1.161   0.613   0.641  0.7700 -0.0769 -0.4258
  589SOL    HW1 1766   1.158   0.540   0.715  0.2532 -0.4267 -0.3695
  589SOL    HW2 1767   1.075   0.627   0.592  2.6046  0.3261 -1.6268
  590SOL     OW 1768   2.056   2.505   0.020  0.0107 -0.2252  0.3815
  590SOL    HW1 1769   2.034   2.480   0.114  3.0968  0.6871 -2.1765
  590SOL    HW2 1770   2.004   2.587   3.080 -1.0072 -1.3595  1.8821
  591SOL     OW 1771   0.644   2.268   2.570 -0.0208  0.5097  0.2891
  591SOL    HW1 1772   0.677   2.337   2.637 -0.5585  1.9300  2.5471
  591SOL    HW2 1773   0.678   2.281   2.477 -1.4497  0.1173  0.7436
  592SOL     OW 1774   2.888   1.583   2.098  0.3059 -0.2861  0.3564
  592SOL    HW1 1775   2.879   1.485   2.126  1.7295 -2.0646 -0.1862
  592SOL    HW2 1776   2.884   1.589   1.995  2.6235 -0.0946  0.0323
  593SOL     OW 1777   1.676   1.387   1.339  0.3632 -0.2309  0.1279
  593SOL    HW1 1778   1.717   1.299   1.357  0.0657  2.0887 -0.0003
  593SOL    HW2 1779   1.590   1.377   1.280 -2.0778 -0.4236  0.0833
  594SOL     OW 1780   2.634   1.114   2.869  0.2823 -0.1200  0.4850
  594SOL    HW1 1781   2.649   1.191   2.934  1.7574 -0.2085 -1.0433
  594SOL    HW2 1782   2.718   1.054   2.863 -0.1793  2.0750 -1.1829
  595SOL     OW 1783   0.857   0.982   0.455 -0.5297 -0.2201  0.7206
  595SOL    HW1 1784   0.781   1.030   0.499  1.1433  2.0360 -0.2184
  595SOL    HW2 1785   0.827   0.945   0.362  0.9488  0.0838  0.3115
  596SOL     OW 1786   2.812   1.357   1.472 -0.3159  0.2694  0.2021
  596SOL    HW1 1787   2.786   1.315   1.380 -0.6700 -1.2846 -2.1447
  596SOL    HW2 1788   2.881   1.431   1.465  2.8981 -0.0714 -1.5540
  597SOL     OW 1789   0.947   2.233   1.283  0.3332  0.0286 -0.0008
  597SOL    HW1 1790   0.885   2.271   1.207 -0.6591 -0.1009 -0.4961
  597SOL    HW2 1791   0.893   2.157   1.330  0.9537 -0.1860 -0.3529
  598SOL     OW 1792   2.474   2.459   1.783 -0.1949 -0.0458 -0.4336
  598SOL    HW1 1793   2.392   2.402   1.814 -0.9921 -1.5087  0.5064
  598SOL    HW2 1794   2.543   2.408   1.730 -0.9476 -1.1196 -0.9255
  599SOL     OW 1795   0.375   1.259   2.804  0.5562 -0.3213  0.3999
  599SOL    HW1 1796   0.388   1.337   2.742  0.4250 -1.4996 -0.2201
  599SOL    HW2 1797   0.415   1.172   2.773  1.0436 -1.1432  1.2973
  600SOL     OW 1798   0.710   0.729   3.042  0.2010 -0.3704 -0.2972
  600SOL    HW1 1799   0.752   0.638   3.008 -2.5267 -1.7522  0.8254
  600SOL    HW2 1800   0.642   0.702   0.026 -0.0247  0.8729  2.6169
  601SOL     OW 1801   0.321   0.581   1.778 -0.3100  0.4616 -0.1922
  601SOL    HW1 1802   0.410   0.626   1.767  0.6775 -2.4736  0.9293
  601SOL    HW2 1803   0.313   0.507   1.853  0.5547  0.7443  3.3588
  602SOL     OW 1804   0.363   2.527   0.351  1.0497 -0.3728  0.2436
  602SOL    HW1 1805   0.309   2.506   0.440 -2.3825 -1.2696 -0.2230
  602SOL    HW2 1806   0.306   2.547   0.269  0.1713 -2.0813 -1.3815
  603SOL     OW 1807   1.322   2.796   2.076 -0.0751 -0.2879 -0.5293
  603SOL    HW1 1808   1.225   2.758   2.085 -3.6904 -3.8879 -0.5261
  603SOL    HW2 1809   1.377   2.731   2.022 -0.7117 -1.5053  0.8510
  604SOL     OW 1810   0.302   2.295   2.955 -0.1711  0.1072 -0.2846
  604SOL    HW1 1811   0.280   2.227   2.883  1.6615 -0.9569 -1.0364
  604SOL    HW2 1812   0.219   2.304   3.019 -0.9349  1.6781  1.0292
  605SOL     OW 1813   2.031   1.004   1.621  0.4863  0.1001  0.1623
  605SOL    HW1 1814   1.940   0.992   1.569  0.3432 -4.2649 -0.4592
  605SOL    HW2 1815   2.084   1.083   1.590 -2.9725 -2.2877 -0.6516
  606SOL     OW 1816   0.778   0.725   2.734  0.0736  0.0462  0.4911
  606SOL    HW1 1817   0.860   0.746   2.791  1.8125 -0.3403 -0.0610
  606SOL    HW2 1818   0.797   0.733   2.634 -2.1949  0.8830  0.0035
  607SOL     OW 1819   0.733   0.842   1.305  0.6905  0.1490 -0.0634
  607SOL    HW1 1820   0.720   0.782   1.226  0.0834 -1.8871 -0.5923
  607SOL    HW2 1821   0.717   0.946   1.290 -2.4856  2.8452  0.4179
  608SOL     OW 1822   2.899   1.991   1.752  0.3014 -0.1220  0.1435
  608SOL    HW1 1823   2.841   2.047   1.810 -0.8372  0.0888 -4.2330
  608SOL    HW2 1824   2.889   2.021   1.650  2.1404 -1.4821 -1.5980
  609SOL     OW 1825   2.308   0.255   0.227  0.1270 -0.4164 -0.3110
  609SOL    HW1 1826   2.311   0.319   0.152  0.3906 -3.0120 -1.1506
  609SOL    HW2 1827   2.255   0.174   0.198 -0.1114 -0.5261 -0.9523
  610SOL     OW 1828   0.012   2.782   1.402 -0.2601 -0.0655  0.6090
  610SOL    HW1 1829   3.067   2.868   1.440 -1.0742 -2.0730 -0.7707
  610SOL    HW2 1830   3.029   2.751   1.335  1.9862 -0.2582  0.3582
  611SOL     OW 1831   1.747   2.228   0.205  0.0557  0.4390  0.5731
  611SOL    HW1 1832   1.742   2.139   0.246 -0.8611 -0.1417 -0.7751
  611SOL    HW2 1833   1.795   2.216   0.114  1.0568 -0.9617 -0.1168
  612SOL     OW 1834   0.537   0.138   1.724  0.2549  0.5703 -0.1417
  612SOL    HW1 1835   0.569   0.046   1.694  0.3474 -3.1065 -1.3736
  612SOL    HW2 1836   0.613   0.205   1.731 -0.1640  1.3053  0.5656
  613SOL     OW 1837   0.058   2.020   0.709  0.1434 -0.5210  0.3919
  613SOL    HW1 1838   0.085   2.109   0.756 -0.0001 -1.6800  0.3871
  613SOL    HW2 1839   3.059   1.978   0.748 -0.9410  1.9817  1.3534
  614SOL     OW 1840   1.686   0.455   1.809  0.3079 -0.3086  0.5180
  614SOL    HW1 1841   1.738   0.468   1.722 -0.5921 -0.3654 -3.5757
  614SOL    HW2 1842   1.700   0.362   1.847  1.5115 -0.1844 -1.3516
  615SOL     OW 1843   1.663   1.432   0.744  0.0115  0.0923 -0.0812
  615SOL    HW1 1844   1.727   1.403   0.673  3.9992 -0.2050  1.5628
  615SOL    HW2 1845   1.658   1.528   0.758  0.1959  0.5492  2.3272
  616SOL     OW 1846   2.023   1.600   0.404 -0.1407 -0.0041 -1.2598
  616SOL    HW1 1847   1.933   1.645   0.391 -1.4696  1.9349  2.2900
  616SOL    HW2 1848   2.088   1.635   0.338 -2.5391 -2.4398 -0.2855
  617SOL     OW 1849   1.488   0.870   0.066  0.0981 -0.1356 -0.1236
  617SOL    HW1 1850   1.410   0.872   0.133  0.7351  0.8504  0.7195
  617SOL    HW2 1851   1.578   0.896   0.103 -0.2251  0.8467  1.3615
  618SOL     OW 1852   0.531   0.526   2.135 -0.0578 -0.0670 -0.1614
  618SOL    HW1 1853   0.506   0.512   2.231  0.7742 -0.4860 -0.7655
  618SOL    HW2 1854   0.464   0.481   2.066  0.5393 -1.2278 -1.3472
  619SOL     OW 1855   3.006   1.532   1.446  0.3790  0.3942 -0.2292
  619SOL    HW1 1856   3.076   1.602   1.482  0.6359  1.6912 -0.0627
  619SOL    HW2 1857   3.022   1.512   1.349 -0.9486 -0.4145 -1.0507
  620SOL     OW 1858   2.149   2.774   2.858  1.2374  0.1353  0.0828
  620SOL    HW1 1859   2.230   2.821   2.827 -4.5527 -6.9306 -0.5304
  620SOL    HW2 1860   2.076   2.847   2.878  0.7572  1.6908  0.9003
  621SOL     OW 1861   2.957   1.859   0.091 -0.0653 -1.0472 -0.1635
  621SOL    HW1 1862   2.861   1.835   0.083  0.5542 -1.0957  0.1852
  621SOL    HW2 1863   2.974   1.905   0.182  1.2090  0.4911 -0.1233
  622SOL     OW 1864   1.385   0.050   2.567  0.4452 -0.7742  0.6104
  622SOL    HW1 1865   1.324   3.057   2.543  2.2702  1.9081 -0.2335
  622SOL    HW2 1866   1.397   0.111   2.487  1.4544  1.6082 -1.7141
  623SOL     OW 1867   0.723   2.323   1.159  0.0406  0.6742  0.3064
  623SOL    HW1 1868   0.618   2.304   1.159 -2.4986 -1.0278  0.6912
  623SOL    HW2 1869   0.744   2.418   1.189  2.4841 -0.9881 -0.4874
  624SOL     OW 1870   3.041   2.858   2.983  0.1646 -0.1769 -0.7962
  624SOL    HW1 1871   3.042   2.758   2.961 -0.9224  1.1339  1.5913
  624SOL    HW2 1872   0.020   2.912   2.926  1.4692 -2.3134  1.5631
  625SOL     OW 1873   0.830   2.180   0.645  0.5704 -0.6843  0.3915
  625SOL    HW1 1874   0.896   2.133   0.701 -3.4768 -0.5854 -0.5889
  625SOL    HW2 1875   0.759   2.114   0.611 -1.0454 -0.6786 -0.2573
  626SOL     OW 1876   3.032   0.690   2.834 -0.2116  0.3829  0.2789
  626SOL    HW1 1877   3.024   0.771   2.899  1.4291  1.8581  0.6204
  626SOL    HW2 1878   2.949   0.633   2.833 -1.1268  1.8747 -1.2169
  627SOL     OW 1879   1.305   2.010   3.006 -0.4520 -0.2477 -0.4570
  627SOL    HW1 1880   1.364   2.089   2.977  1.2183 -1.5454 -1.2884
  627SOL    HW2 1881   1.225   2.009   2.944 -1.2859  0.6900 -0.9615
  628SOL     OW 1882   2.997   2.398   2.903  0.4557  0.3114 -0.2009
  628SOL    HW1 1883   3.065   2.358   2.972  2.2767 -1.1786 -0.8315
  628SOL    HW2 1884   3.021   2.375   2.805  1.1011 -1.7692 -4.1780
  629SOL     OW 1885   0.921   2.829   2.555 -0.6959 -0.0794 -0.4207
  629SOL    HW1 1886   0.962   2.753   2.505 -0.9201 -0.9016  0.8625
  629SOL    HW2 1887   0.854   2.888   2.501 -2.1109  1.4348  0.8777
  630SOL     OW 1888   1.327   0.703   1.748  0.3510 -0.2689  0.1812
  630SOL    HW1 1889   1.251   0.633   1.750 -2.9020 -2.3576 -0.2070
  630SOL    HW2 1890   1.286   0.790   1.768  1.7227 -1.6663 -2.1488
  631SOL     OW 1891   1.982   1.051   0.445 -0.1965  0.3956 -0.9273
  631SOL    HW1 1892   2.024   1.140   0.469  3.6857 -1.1610  0.3188
  631SOL    HW2 1893   1.979   0.988   0.525  0.1430 -2.3042  1.2692
  632SOL     OW 1894   2.546   0.344   1.811  0.1942  0.1513 -0.0193
  632SOL    HW1 1895   2.640   0.392   1.817  2.6501  3.7826  0.9684
  632SOL    HW2 1896   2.561   0.266   1.750 -1.5543  1.6731 -0.5914
  633SOL     OW 1897   0.980   1.234   0.358  0.1713  0.4669 -0.0934
  633SOL    HW1 1898   0.973   1.329   0.399 -0.9177 -0.1151  1.4888
  633SOL    HW2 1899   0.939   1.158   0.413 -1.1713  0.7508 -0.1959
  634SOL     OW 1900   2.446   2.693   2.415  0.5379 -0.6742  0.5113
  634SOL    HW1 1901   2.411   2.600   2.389  1.2181 -1.6673 -0.8918
  634SOL    HW2 1902   2.376   2.764   2.394  0.6583 -0.7037 -1.6233
  635SOL     OW 1903   1.899   0.610   0.514 -0.2251  0.1287  0.0146
  635SOL    HW1 1904   1.799   0.616   0.506  2.2439 -0.4417 -1.0664
  635SOL    HW2 1905   1.941   0.698   0.544 -1.6422 -0.0698 -1.9631
  636SOL     OW 1906   0.605   1.467   0.889  0.2912  0.2709  0.1428
  636SOL    HW1 1907   0.516   1.513   0.856 -2.0732  1.5154 -2.5829
  636SOL    HW2 1908   0.662   1.449   0.807 -0.1724 -1.6249 -1.7000
  637SOL     OW 1909   2.669   2.057   0.164 -0.4332 -0.1558 -0.3794
  637SOL    HW1 1910   2.705   2.044   0.254 -0.2752 -0.6065 -0.1201
  637SOL    HW2 1911   2.642   2.152   0.145  0.8360 -2.3456  1.3581
  638SOL     OW 1912   1.473   2.531   2.246  0.5949  0.4832 -0.2717
  638SOL    HW1 1913   1.468   2.576   2.157 -1.0990  0.7707  0.5301
  638SOL    HW2 1914   1.569   2.529   2.271 -1.2009  3.7762 -1.4461
  639SOL     OW 1915   1.572   1.958   0.427  0.0447 -0.3067 -0.3845
  639SOL    HW1 1916   1.486   2.009   0.394 -2.3096  3.1075 -1.0755
  639SOL    HW2 1917   1.563   1.854   0.426  0.5373 -0.0415 -3.3436
  640SOL     OW 1918   2.061   0.192   0.416 -0.1452 -0.1714 -0.6088
  640SOL    HW1 1919   2.066   0.112   0.483 -2.0169 -1.8990  4.1906
  640SOL    HW2 1920   2.064   0.164   0.317 -1.1414  0.5847 -1.0046
  641SOL     OW 1921   3.032   0.103   0.534  0.0982  0.0163  0.8361
  641SOL    HW1 1922   3.027   0.170   0.606  0.8832 -0.4913 -0.6049
  641SOL    HW2 1923   3.006   0.133   0.440  1.5085 -0.6744 -1.1468
  642SOL     OW 1924   0.579   0.576   1.452  0.5755 -0.8000 -0.4296
  642SOL    HW1 1925   0.623   0.666   1.470 -0.3769  0.1054  0.0383
  642SOL    HW2 1926   0.558   0.563   1.352  0.6477 -0.0832  1.1984
  643SOL     OW 1927   0.782   1.230   2.310  0.2002  1.0547 -0.4778
  643SOL    HW1 1928   0.773   1.271   2.406  1.4356 -0.8745 -0.7251
  643SOL    HW2 1929   0.697   1.250   2.254 -1.1854  0.0465 -1.2647
  644SOL     OW 1930   1.463   2.296   0.530 -0.2091 -0.2066 -0.0845
  644SOL    HW1 1931   1.443   2.212   0.476  0.7943 -2.5400  0.5520
  644SOL    HW2 1932   1.418   2.288   0.623  0.0385 -0.0273  0.5221
  645SOL     OW 1933   1.747   1.953   0.231  0.0307 -0.5870  0.6130
  645SOL    HW1 1934   1.686   1.930   0.151  2.5068 -1.0230 -0.9402
  645SOL    HW2 1935   1.693   1.945   0.316 -0.8250  1.3838  0.6768
  646SOL     OW 1936   0.096   1.548   2.759  0.1636  0.5326 -0.1035
  646SOL    HW1 1937   0.072   1.451   2.750 -3.0944  2.2358 -0.3906
  646SOL    HW2 1938   0.042   1.604   2.689  0.7893 -0.1266 -0.4597
  647SOL     OW 1939   0.848   0.267   1.137  0.2376 -0.1354 -0.0483
  647SOL    HW1 1940   0.853   0.172   1.168  1.1635 -3.2517 -0.9072
  647SOL    HW2 1941   0.878   0.324   1.213 -2.4265  0.0661  0.8321
  648SOL     OW 1942   1.337   0.718   1.113  0.4165 -0.1070  0.6802
  648SOL    HW1 1943   1.313   0.760   1.022  0.0300  0.7206 -0.5416
  648SOL    HW2 1944   1.438   0.710   1.129  0.7934  0.0004 -1.3263
  649SOL     OW 1945   0.885   1.507   0.417  0.2490  0.1139 -0.3632
  649SOL    HW1 1946   0.839   1.522   0.327  0.1041  1.9059 -0.5578
  649SOL    HW2 1947   0.955   1.578   0.431 -0.7123 -0.8787 -2.0288
  650SOL     OW 1948   2.557   1.453   2.048 -0.6259  0.7095  0.2585
  650SOL    HW1 1949   2.486   1.406   1.990  1.4679  1.5548 -0.9319
  650SOL    HW2 1950   2.651   1.418   2.016  3.1377 -1.3945 -0.4771
  651SOL     OW 1951   1.510   2.339   2.653 -0.1041 -0.1823 -0.0390
  651SOL    HW1 1952   1.485   2.317   2.750 -0.1910 -1.1939 -1.2616
  651SOL    HW2 1953   1.438   2.290   2.602  2.4367 -1.1122 -0.2718
  652SOL     OW 1954   2.664   1.814   0.101 -0.4896  0.3685 -0.0384
  652SOL    HW1 1955   2.581   1.765   0.077  0.1722  2.1569 -0.6125
  652SOL    HW2 1956   2.651   1.913   0.127 -0.4651 -3.2852  0.2967
  653SOL     OW 1957   0.337   0.249   0.929  0.3033 -0.3486 -0.4975
  653SOL    HW1 1958   0.302   0.331   0.978 -0.8877  1.3918 -1.5862
  653SOL    HW2 1959   0.415   0.211   0.984  1.5386 -0.3993 -0.5340
  654SOL     OW 1960   2.646   0.052   2.190  0.6372  0.1320 -0.2945
  654SOL    HW1 1961   2.683   3.067   2.255  0.3248 -2.3224 -2.0698
  654SOL    HW2 1962   2.627   0.009   2.099  0.8588 -0.6654 -0.1971
  655SOL     OW 1963   0.548   2.977   1.013  0.3306 -0.0349 -0.0646
  655SOL    HW1 1964   0.504   2.956   0.923 -0.9481  1.4188  3.6925
  655SOL    HW2 1965   0.551   3.078   1.041 -0.7129  2.1601  2.4669
  656SOL     OW 1966   3.081   2.821   2.409  0.3065 -0.3893 -0.1364
  656SOL    HW1 1967   3.015   2.880   2.354  0.7121  1.1577 -0.1590
  656SOL    HW2 1968   0.041   2.881   2.476 -3.5595  0.7909  1.2148
  657SOL     OW 1969   2.737   0.888   3.072 -0.9985  0.0318  0.0849
  657SOL    HW1 1970   2.762   0.897   2.970  1.4219  1.8227 -2.7753
  657SOL    HW2 1971   2.800   0.950   0.040 -2.5514  2.6678  3.2623
  658SOL     OW 1972   2.349   2.089   1.262 -0.2470 -0.2704  0.1465
  658SOL    HW1 1973   2.369   2.136   1.353  2.7718  0.9456  0.2421
  658SOL    HW2 1974   2.382   1.993   1.274  1.5131 -0.5522 -3.0010
  659SOL     OW 1975   1.803   2.746   0.443 -0.1659 -0.2615  0.0007
  659SOL    HW1 1976   1.874   2.680   0.467  1.1690 -1.6630  0.8033
  659SOL    HW2 1977   1.727   2.700   0.396  0.4502  0.7981 -0.7650
  660SOL     OW 1978   1.597   1.158   2.535  0.3189  0.0718  0.3635
  660SOL    HW1 1979   1.602   1.242   2.474 -1.0197  0.5734 -0.6121
  660SOL    HW2 1980   1.507   1.143   2.582 -0.0012  0.6918  0.4601
  661SOL     OW 1981   2.707   2.276   1.376  0.2614 -0.2150  0.4941
  661SOL    HW1 1982   2.659   2.260   1.285 -2.1841  0.7771 -1.1404
  661SOL    HW2 1983   2.772   2.350   1.359 -0.9813 -0.6154  0.3982
  662SOL     OW 1984   0.486   0.673   0.131  0.3577 -0.1077  1.1276
  662SOL    HW1 1985   0.420   0.753   0.156 -2.2405  1.9606  0.4805
  662SOL    HW2 1986   0.494   0.597   0.202  0.6258 -0.8127  0.4715
  663SOL     OW 1987   2.097   2.139   1.108 -0.2379 -0.2690 -0.2000
  663SOL    HW1 1988   2.039   2.211   1.154  1.0003 -0.6043  0.3851
  663SOL    HW2 1989   2.190   2.125   1.149  1.6842 -0.6361 -0.1836
  664SOL     OW 1990   0.846   1.601   1.293  0.0783  0.1272 -0.2920
  664SOL    HW1 1991   0.898   1.576   1.212 -0.1419  1.6824  0.4666
  664SOL    HW2 1992   0.898   1.658   1.357 -0.8530 -1.2099 -1.6089
  665SOL     OW 1993   1.751   2.449   1.989 -0.1401  0.1912  0.1707
  665SOL    HW1 1994   1.811   2.481   1.915  0.3927 -1.2118 -2.2327
  665SOL    HW2 1995   1.811   2.447   2.069  0.0999  0.8466  0.7595
  666SOL     OW 1996   2.948   2.662   0.098  0.1412 -0.1772 -0.4864
  666SOL    HW1 1997   3.036   2.615   0.116 -2.3440  1.7391  0.6380
  666SOL    HW2 1998   2.951   2.752   0.135  0.9874 -2.2929  0.8508
  667SOL     OW 1999   2.765   1.526   1.840  0.3382  0.4040  0.6335
  667SOL    HW1 2000   2.705   1.594   1.794 -0.6277  2.2017  0.9457
  667SOL    HW2 2001   2.740   1.433   1.810 -0.9943  0.0186  1.1259
  668SOL     OW 2002   0.468   0.777   2.422 -0.0810  0.5995 -0.3508
  668SOL    HW1 2003   0.542   0.845   2.431 -1.5178 -2.0914  3.4567
  668SOL    HW2 2004   0.466   0.725   2.508 -0.7920  0.2156 -3.1732
  669SOL     OW 2005   1.867   2.240   3.032 -0.1068 -0.1693 -0.0874
  669SOL    HW1 2006   1.967   2.212   3.025  1.8864 -0.9154  1.0820
  669SOL    HW2 2007   1.845   2.325   2.984  1.8478  0.8411 -2.9833
  670SOL     OW 2008   2.485   1.645   2.373  0.1698  0.3183 -0.3916
  670SOL    HW1 2009   2.562   1.616   2.434  0.5403  1.3887  2.4056
  670SOL    HW2 2010   2.430   1.568   2.335  1.3437 -0.3148  3.0325
  671SOL     OW 2011   0.178   1.694   0.779 -0.6607  0.4598 -0.5239
  671SOL    HW1 2012   0.166   1.688   0.677  0.0617  0.0390 -1.5622
  671SOL    HW2 2013   0.087   1.698   0.823 -0.2715 -3.0131 -0.5001
  672SOL     OW 2014   2.252   0.652   1.956  0.2407 -0.1600  0.1209
  672SOL    HW1 2015   2.171   0.710   1.961  1.1547 -0.0442  2.1326
  672SOL    HW2 2016   2.342   0.704   1.969 -0.0405 -0.8442 -0.4364
  673SOL     OW 2017   2.476   2.431   2.116  0.7320 -0.0523  0.4126
  673SOL    HW1 2018   2.577   2.432   2.122  1.7838 -1.2221 -0.7604
  673SOL    HW2 2019   2.445   2.522   2.079 -2.1255 -0.8903  0.2776
  674SOL     OW 2020   1.394   2.555   1.724 -0.2344  0.6002 -0.4423
  674SOL    HW1 2021   1.452   2.477   1.699 -0.0851  0.2586 -2.0087
  674SOL    HW2 2022   1.294   2.545   1.704  2.0558  2.4060  0.0865
  675SOL     OW 2023   0.529   0.839   0.985  0.0898 -0.1146 -0.6748
  675SOL    HW1 2024   0.432   0.800   0.987 -0.6705 -3.2888 -0.5181
  675SOL    HW2 2025   0.526   0.939   0.971 -1.4251  3.2381  0.2402
  676SOL     OW 2026   1.899   1.182   0.780  0.2631 -0.4611  0.3086
  676SOL    HW1 2027   1.854   1.093   0.765  1.6440  0.0389 -1.2407
  676SOL    HW2 2028   1.994   1.172   0.751 -2.5143 -0.3364 -1.8904
  677SOL     OW 2029   2.903   1.262   2.481 -0.3811 -0.4395  0.6822
  677SOL    HW1 2030   2.821   1.319   2.470 -0.9741  1.9275 -0.6467
  677SOL    HW2 2031   2.900   1.175   2.425  1.1372 -0.7800 -0.0059
  678SOL     OW 2032   2.610   1.896   1.223 -0.4987  0.1606  0.0814
  678SOL    HW1 2033   2.697   1.904   1.283 -1.8412 -0.5653 -0.3714
  678SOL    HW2 2034   2.530   1.859   1.277 -1.5828 -1.9446 -2.2402
  679SOL     OW 2035   2.027   2.561   0.498  0.9423  0.0240  0.3379
  679SOL    HW1 2036   2.057   2.637   0.556 -0.3025  1.2787  0.3489
  679SOL    HW2 2037   2.074   2.484   0.528 -0.6705  2.9780 -1.3065
  680SOL     OW 2038   0.166   2.239   2.063 -0.2288 -0.0858  0.1177
  680SOL    HW1 2039   0.136   2.169   1.992  2.6995 -0.8288 -3.5945
  680SOL    HW2 2040   0.254   2.211   2.103 -4.0683 -1.3742 -1.6051
  681SOL     OW 2041   0.021   1.266   1.772  0.7984  0.1856 -0.2735
  681SOL    HW1 2042   0.113   1.237   1.734  0.7630 -1.2410  1.9090
  681SOL    HW2 2043   3.085   1.365   1.757 -1.6761 -0.0966  1.1327
  682SOL     OW 2044   1.261   2.546   0.781  0.1249  0.2418  0.5972
  682SOL    HW1 2045   1.190   2.532   0.845  0.6785  1.5341 -1.2906
  682SOL    HW2 2046   1.296   2.645   0.796  0.8571  1.4965  0.3129
  683SOL     OW 2047   2.127   1.027   1.312  0.3608 -0.2302  0.5174
  683SOL    HW1 2048   2.076   1.110   1.279 -1.1970 -3.3569 -1.0214
  683SOL    HW2 2049   2.224   1.046   1.345  0.5929  0.7425 -0.4531
  684SOL     OW 2050   0.504   1.773   2.693 -0.2497 -0.4488 -0.1378
  684SOL    HW1 2051   0.595   1.728   2.697  1.5718  0.3824  0.1995
  684SOL    HW2 2052   0.498   1.860   2.756  0.4132  3.5611 -0.1730
  685SOL     OW 2053   1.460   1.546   3.041 -0.4857 -0.0434 -0.6462
  685SOL    HW1 2054   1.474   1.544   2.939 -0.0980 -0.4545 -5.1554
  685SOL    HW2 2055   1.545   1.521   3.087 -3.7834 -0.9289 -1.6673
  686SOL     OW 2056   2.829   0.681   1.094 -0.5289 -0.1568 -0.2207
  686SOL    HW1 2057   2.865   0.676   1.193 -0.7377 -1.0148  3.4278
  686SOL    HW2 2058   2.890   0.746   1.040  2.8391  0.6305  0.2703
  687SOL     OW 2059   1.036   2.200   2.634  0.1762 -0.8016 -0.6166
  687SOL    HW1 2060   0.964   2.266   2.598 -0.3821  0.7656 -2.0531
  687SOL    HW2 2061   1.003   2.109   2.644  0.5412  4.3723 -0.1647
  688SOL     OW 2062   0.173   1.818   1.886 -1.2014  0.0838 -0.0483
  688SOL    HW1 2063   0.156   1.888   1.958 -0.1909  0.3595  1.8238
  688SOL    HW2 2064   0.094   1.807   1.823  2.3110 -1.4872 -0.6620
  689SOL     OW 2065   1.815   0.732   1.887 -0.0976 -0.4286 -0.2307
  689SOL    HW1 2066   1.722   0.728   1.933 -0.4917  1.4417  1.6453
  689SOL    HW2 2067   1.872   0.656   1.921 -0.5092  3.5909  2.3142
  690SOL     OW 2068   2.328   0.833   1.094  0.0361 -0.0499 -0.2365
  690SOL    HW1 2069   2.279   0.745   1.082  2.3628  1.9880 -0.6765
  690SOL    HW2 2070   2.274   0.910   1.054  0.7279 -0.1832  2.2342
  691SOL     OW 2071   0.790   1.856   1.611  0.4813  0.3523 -0.3615
  691SOL    HW1 2072   0.821   1.761   1.602 -0.3129 -0.3958  1.0913
  691SOL    HW2 2073   0.821   1.889   1.703 -1.9816  0.7387 -2.0753
  692SOL     OW 2074   1.905   0.373   1.354 -0.0883 -0.3033  1.0196
  692SOL    HW1 2075   1.837   0.353   1.281  0.6909  3.5967  2.4121
  692SOL    HW2 2076   2.001   0.351   1.327  1.4976  0.3857 -1.0643
  693SOL     OW 2077   0.273   0.607   2.305  0.2562  0.0208  0.0900
  693SOL    HW1 2078   0.279   0.514   2.345 -1.4913 -3.9713  0.3034
  693SOL    HW2 2079   0.339   0.675   2.350 -0.3043 -1.5955  0.3729
  694SOL     OW 2080   1.735   0.274   1.147  0.3764 -0.3704  0.0720
  694SOL    HW1 2081   1.769   0.363   1.109  0.2264  1.2926  0.0794
  694SOL    HW2 2082   1.707   0.200   1.082 -0.9724 -0.9582 -1.6529
  695SOL     OW 2083   1.142   1.239   1.623 -0.3459  0.0952  0.0067
  695SOL    HW1 2084   1.127   1.300   1.545  0.7335  0.6779  1.1113
  695SOL    HW2 2085   1.091   1.146   1.616  0.8622 -0.7939  0.5530
  696SOL     OW 2086   1.632   2.991   0.081 -0.0110  0.5615 -0.2266
  696SOL    HW1 2087   1.580   2.913   0.125 -0.1025  0.6073  1.0750
  696SOL    HW2 2088   1.627   3.071   0.141  0.0290  2.2434 -2.1226
  697SOL     OW 2089   0.637   0.334   0.626 -0.0232  0.2499 -0.0581
  697SOL    HW1 2090   0.707   0.403   0.647  2.1307 -0.8429 -2.5153
  697SOL    HW2 2091   0.656   0.288   0.533 -0.7559  0.4205 -1.0875
  698SOL     OW 2092   1.327   1.123   2.623 -0.5105  0.2523 -1.0517
  698SOL    HW1 2093   1.281   1.165   2.543  2.3830 -0.8329  0.9841
  698SOL    HW2 2094   1.323   1.020   2.613  0.4739 -1.6880  0.4083
  699SOL     OW 2095   1.458   1.303   1.177  0.0457 -0.4758  0.2285
  699SOL    HW1 2096   1.403   1.391   1.174 -0.3152  0.0435 -0.2744
  699SOL    HW2 2097   1.530   1.307   1.101  1.5589  1.2298 -0.5022
  700SOL     OW 2098   1.536   0.111   0.458 -0.6533  0.4363  0.3361
  700SOL    HW1 2099   1.569   0.133   0.364 -1.7732  1.8892  1.1838
  700SOL    HW2 2100   1.614   0.086   0.523  1.7135 -1.2527  0.9143
  701SOL     OW 2101   2.740   2.931   2.415  0.1740  0.0996 -0.5380
  701SOL    HW1 2102   2.726   2.846   2.361  0.9838  1.3414 -2.4708
  701SOL    HW2 2103   2.704   2.916   2.512  0.0314 -0.6943  0.4269
  702SOL     OW 2104   1.165   0.238   3.082 -0.0551 -0.7655 -0.5027
  702SOL    HW1 2105   1.098   0.291   0.055 -3.6672 -0.0014  0.5833
  702SOL    HW2 2106   1.137   0.232   2.984 -1.1925  2.0556  0.8829
  703SOL     OW 2107   2.219   2.834   2.397  0.3157  0.0272  0.3993
  703SOL    HW1 2108   2.176   2.917   2.355  3.4238  0.5084 -0.6210
  703SOL    HW2 2109   2.147   2.766   2.418 -0.4729  1.5783  1.4343
  704SOL     OW 2110   0.457   2.382   0.883  0.2701  0.2882 -0.1354
  704SOL    HW1 2111   0.378   2.326   0.842 -2.1342 -3.7779 -2.8956
  704SOL    HW2 2112   0.478   2.350   0.976  1.6483 -1.3963 -0.2559
  705SOL     OW 2113   2.571   0.021   1.929  0.0558  0.2953 -0.1161
  705SOL    HW1 2114   2.598   0.071   1.845  1.2645 -1.2456 -1.1815
  705SOL    HW2 2115   2.471   0.006   1.950 -1.5393  0.3851  1.0645
  706SOL     OW 2116   1.779   0.262   0.414  0.4661  0.4239 -0.1452
  706SOL    HW1 2117   1.874   0.230   0.401 -0.8800 -2.3051 -0.7830
  706SOL    HW2 2118   1.747   0.300   0.324 -0.7523  0.7465  0.2052
  707SOL     OW 2119   1.202   1.991   2.226 -0.0319  0.6547  0.3587
  707SOL    HW1 2120   1.284   2.025   2.184 -0.5111  1.5548  1.4133
  707SOL    HW2 2121   1.122   2.050   2.214 -0.0013 -0.1674 -1.4862
  708SOL     OW 2122   0.246   2.483   1.809  0.1396  0.4051  0.0194
  708SOL    HW1 2123   0.186   2.487   1.895 -1.3255  1.9489  2.8491
  708SOL    HW2 2124   0.192   2.511   1.725 -0.1596 -0.8982  1.8675
  709SOL     OW 2125   1.713   0.232   2.031 -0.2362  0.0624  0.3597
  709SOL    HW1 2126   1.811   0.219   2.046 -1.4032 -2.4827 -0.7153
  709SOL    HW2 2127   1.671   0.139   2.031 -0.2007 -0.5567 -2.3364
  710SOL     OW 2128   1.976   0.321   1.800 -0.0841  0.4185  0.4108
  710SOL    HW1 2129   1.916   0.379   1.739 -2.6542 -1.2841 -0.8812
  710SOL    HW2 2130   1.959   0.222   1.791  1.5507  1.5576  0.6608
  711SOL     OW 2131   0.681   1.973   0.551  0.4691 -0.7633 -0.6630
  711SOL    HW1 2132   0.590   1.928   0.526 -1.2376 -0.8773 -0.5333
  711SOL    HW2 2133   0.752   1.959   0.476 -0.4364 -1.6859 -2.9098
  712SOL     OW 2134   0.671   2.511   2.164 -0.0622  0.1455  0.1462
  712SOL    HW1 2135   0.571   2.525   2.135 -2.3097 -0.3956 -0.2477
  712SOL    HW2 2136   0.707   2.591   2.218  1.7795  0.9662  0.2113
  713SOL     OW 2137   1.916   1.265   0.175 -0.0450 -0.3458  0.7246
  713SOL    HW1 2138   1.888   1.300   0.262  2.0099  0.3000 -2.9699
  713SOL    HW2 2139   1.996   1.311   0.131 -0.4853 -1.9178  0.1336
  714SOL     OW 2140   0.798   1.882   1.153  0.1533 -0.2187 -0.0968
  714SOL    HW1 2141   0.722   1.819   1.121  0.4474 -3.0280  1.5308
  714SOL    HW2 2142   0.810   1.964   1.093  0.0966  0.5314 -0.1959
  715SOL     OW 2143   1.962   2.965   2.885 -0.1280  0.3759 -0.1625
  715SOL    HW1 2144   2.029   3.038   2.915 -1.0344  0.4384  0.8812
  715SOL    HW2 2145   1.945   2.972   2.785  1.4766  2.2189 -0.0496
  716SOL     OW 2146   2.933   2.889   2.018 -0.7421 -0.0510  0.0171
  716SOL    HW1 2147   3.005   2.829   1.982  0.1390 -0.8626  0.5124
  716SOL    HW2 2148   2.969   2.924   2.107  1.1654  1.4637 -1.2927
  717SOL     OW 2149   0.338   1.160   0.209  0.2433 -1.3050  0.7775
  717SOL    HW1 2150   0.318   1.064   0.196  0.5568  1.2155 -0.2080
  717SOL    HW2 2151   0.320   1.214   0.125  0.4628 -0.9662  0.1510
  718SOL     OW 2152   1.347   0.836   2.589  0.5019 -0.3038  0.6366
  718SOL    HW1 2153   1.250   0.804   2.589  0.3163 -0.4786 -0.4600
  718SOL    HW2 2154   1.402   0.767   2.535 -2.8095 -1.1733  2.6910
  719SOL     OW 2155   2.675   1.380   3.020  0.8719  0.0689  0.4925
  719SOL    HW1 2156   2.646   1.373   0.029  2.4263  0.9695  2.2130
  719SOL    HW2 2157   2.629   1.457   2.973 -2.1604 -0.2343  4.1492
  720SOL     OW 2158   1.017   0.817   0.940 -0.0933  0.2478  0.1746
  720SOL    HW1 2159   1.004   0.726   0.980  0.8959  0.1678  2.3504
  720SOL    HW2 2160   0.943   0.882   0.964  0.1887  0.5477 -1.3429
  721SOL     OW 2161   2.626   1.010   0.495  0.3171  0.6489  0.0655
  721SOL    HW1 2162   2.607   0.939   0.420  0.8528 -2.0204 -0.1467
  721SOL    HW2 2163   2.664   1.099   0.453 -0.7626  3.0000 -2.6904
  722SOL     OW 2164   1.453   0.865   2.874 -0.7105 -1.0008 -0.6328
  722SOL    HW1 2165   1.447   0.855   2.978 -1.5754  1.0596  4.2517
  722SOL    HW2 2166   1.390   0.798   2.830  2.9963 -3.4481  0.3235
  723SOL     OW 2167   0.138   1.264   0.401  0.0390 -0.0133 -0.1854
  723SOL    HW1 2168   0.135   1.367   0.390  0.9931  2.1728  0.1858
  723SOL    HW2 2169   0.219   1.235   0.353 -2.7457  2.8464  2.4484
  724SOL     OW 2170   0.477   1.505   2.146 -0.3320  0.5205  0.1248
  724SOL    HW1 2171   0.409   1.540   2.079 -0.5505 -0.2260 -0.5983
  724SOL    HW2 2172   0.486   1.553   2.234 -2.9774  0.0389  0.2127
  725SOL     OW 2173   2.117   0.744   1.551  0.0010 -0.3439  0.2215
  725SOL    HW1 2174   2.081   0.831   1.584  0.3203  0.8310 -0.4263
  725SOL    HW2 2175   2.141   0.684   1.628  2.7431 -2.2830 -3.0198
  726SOL     OW 2176   1.791   3.001   0.564 -0.4121  0.4045 -0.1742
  726SOL    HW1 2177   1.779   2.914   0.515 -0.6380  3.7736 -1.9360
  726SOL    HW2 2178   1.789   2.982   0.664  1.3198 -0.2354  1.3560
  727SOL     OW 2179   1.277   1.170   2.055 -0.0908 -0.5918 -0.3722
  727SOL    HW1 2180   1.360   1.143   2.113  0.7953  0.8869  0.3555
  727SOL    HW2 2181   1.300   1.139   1.958  1.0032 -0.3488  3.3827
  728SOL     OW 2182   1.487   2.520   1.068 -0.3894  0.4351  0.3606
  728SOL    HW1 2183   1.391   2.521   1.057  1.6146  2.2670  2.3964
  728SOL    HW2 2184   1.522   2.444   1.125  1.2963  1.3232  1.2831
  729SOL     OW 2185   1.889   0.895   1.250 -0.0754 -0.5673  0.0327
  729SOL    HW1 2186   1.977   0.894   1.304  0.2910  1.5515 -2.3038
  729SOL    HW2 2187   1.902   0.853   1.157 -1.1080 -0.8181  0.0188
  730SOL     OW 2188   0.512   1.710   2.351  0.3622 -0.2176  0.2160
  730SOL    HW1 2189   0.583   1.771   2.314  0.4114  1.9143  1.2379
  730SOL    HW2 2190   0.426   1.765   2.373 -1.8196  1.7791  0.7099
  731SOL     OW 2191   0.447   0.482   0.755 -0.2639  0.3225  0.2606
  731SOL    HW1 2192   0.380   0.441   0.814  0.6630 -1.9224 -2.8790
  731SOL    HW2 2193   0.500   0.411   0.699  1.2034  3.0120 -3.1462
  732SOL     OW 2194   0.865   0.837   0.153  0.8087  0.4548 -0.1980
  732SOL    HW1 2195   0.817   0.827   0.059 -1.2401 -1.1252 -2.4578
  732SOL    HW2 2196   0.947   0.903   0.146  0.8469 -0.0005  0.2279
  733SOL     OW 2197   0.757   2.415   0.797 -0.1143  0.0511 -0.0612
  733SOL    HW1 2198   0.800   2.340   0.741  0.2964 -0.4374  1.3215
  733SOL    HW2 2199   0.661   2.397   0.811  0.6798  1.5973 -1.3294
  734SOL     OW 2200   3.042   2.057   2.769 -0.3174 -0.3357 -0.1228
  734SOL    HW1 2201   3.079   2.113   2.699  1.6421 -0.0086 -0.3420
  734SOL    HW2 2202   0.029   2.064   2.844 -0.2566 -1.9586  1.6986
  735SOL     OW 2203   0.978   0.428   1.307  0.1112  0.6764 -0.1609
  735SOL    HW1 2204   0.969   0.381   1.398  0.0200 -1.0543  0.0096
  735SOL    HW2 2205   1.024   0.517   1.313  0.6863 -1.8158  0.8300
  736SOL     OW 2206   1.899   2.755   3.054 -0.4288  0.3702 -0.2134
  736SOL    HW1 2207   1.882   2.805   0.058 -1.6992 -1.5246 -0.5536
  736SOL    HW2 2208   1.900   2.820   2.973 -0.5991 -1.7624 -1.5719
  737SOL     OW 2209   0.081   0.430   0.641 -0.1583 -0.3840  0.4519
  737SOL    HW1 2210   0.003   0.444   0.577  2.5583  0.6030 -2.4996
  737SOL    HW2 2211   0.073   0.495   0.717  1.7208 -1.7494  0.6549
  738SOL     OW 2212   2.322   0.127   0.910  0.0413 -0.6015  0.7086
  738SOL    HW1 2213   2.340   0.215   0.959 -2.1984 -3.2215 -0.6931
  738SOL    HW2 2214   2.395   0.106   0.842  0.1983 -0.9360  0.7457
  739SOL     OW 2215   1.603   2.407   0.051  0.0943  0.1226 -0.0950
  739SOL    HW1 2216   1.630   2.312   0.090  2.0026  1.9138  1.4067
  739SOL    HW2 2217   1.681   2.439   3.083  0.1730 -1.9582 -0.4178
  740SOL     OW 2218   1.449   0.309   0.736  0.1502  0.7813 -0.1431
  740SOL    HW1 2219   1.389   0.232   0.760  1.1356  1.9571  1.3267
  740SOL    HW2 2220   1.543   0.276   0.707  0.1204  1.0105 -0.9485
  741SOL     OW 2221   2.508   0.839   0.892 -0.0401 -0.1722  0.2031
  741SOL    HW1 2222   2.441   0.824   0.966 -0.1885  1.1032 -0.7831
  741SOL    HW2 2223   2.460   0.836   0.803 -1.0370  0.5271 -0.5584
  742SOL     OW 2224   0.975   2.139   2.166 -0.2478  0.0947 -0.2151
  742SOL    HW1 2225   0.918   2.089   2.237 -0.4609 -1.9697  2.3709
  742SOL    HW2 2226   0.927   2.167   2.082 -0.3267 -0.4562 -0.1448
  743SOL     OW 2227   1.979   0.539   2.034  0.2876 -1.0571 -0.1951
  743SOL    HW1 2228   1.925   0.458   2.000 -0.3538 -1.6721  0.5431
  743SOL    HW2 2229   2.035   0.520   2.118  2.0836  0.8638  0.0773
  744SOL     OW 2230   2.195   0.585   1.092  0.6108 -0.1004  0.6926
  744SOL    HW1 2231   2.248   0.498   1.083  0.8940 -3.3282  0.5871
  744SOL    HW2 2232   2.133   0.596   1.173  1.8106  0.0744 -2.1214
  745SOL     OW 2233   1.642   1.156   1.617  0.1285 -0.3957 -0.2174
  745SOL    HW1 2234   1.721   1.102   1.579  0.5496 -0.1644 -0.0415
  745SOL    HW2 2235   1.554   1.106   1.594 -1.7382 -0.0170  0.1438
  746SOL     OW 2236   1.649   1.307   0.999 -0.2531 -0.0943  0.2085
  746SOL    HW1 2237   1.661   1.349   0.907 -0.1711  1.3323 -0.3261
  746SOL    HW2 2238   1.743   1.271   1.023  2.7276  2.3288 -1.2366
  747SOL     OW 2239   1.851   1.165   1.165  0.1542  0.5437  0.2819
  747SOL    HW1 2240   1.938   1.208   1.138 -0.1673  0.3375 -0.5314
  747SOL    HW2 2241   1.862   1.070   1.203  0.8510 -1.4448 -1.8635
  748SOL     OW 2242   0.270   2.213   0.749 -0.0246  0.3363 -0.3757
  748SOL    HW1 2243   0.177   2.251   0.735 -0.5403 -0.6758  1.5447
  748SOL    HW2 2244   0.322   2.211   0.658  0.8270 -1.4130 -3.2356
  749SOL     OW 2245   2.713   2.702   2.284  0.7454 -0.2073 -0.3202
  749SOL    HW1 2246   2.623   2.671   2.332 -2.4814 -2.2311 -0.4238
  749SOL    HW2 2247   2.693   2.718   2.186 -4.6114 -2.8938 -2.0641
  750SOL     OW 2248   2.629   0.295   0.930  0.3087 -0.0828 -0.1776
  750SOL    HW1 2249   2.605   0.252   0.839  0.1674  0.8897 -2.3976
  750SOL    HW2 2250   2.619   0.395   0.924 -0.0577  0.5462  0.8645
  751SOL     OW 2251   2.568   0.160   0.332 -0.4272  0.6970 -0.0536
  751SOL    HW1 2252   2.566   0.065   0.307  0.2990  0.9491 -1.7623
  751SOL    HW2 2253   2.485   0.203   0.296  2.2294  1.1074  0.9252
  752SOL     OW 2254   0.457   2.894   0.775 -0.1132 -0.5976 -0.2421
  752SOL    HW1 2255   0.479   2.799   0.756 -0.3174  3.8325  0.2812
  752SOL    HW2 2256   0.468   2.965   0.703 -2.5778 -2.6136  0.8428
  753SOL     OW 2257   1.458   0.552   1.913 -0.2435  0.0303  0.1330
  753SOL    HW1 2258   1.407   0.611   1.838 -0.7720  3.6434 -2.3155
  753SOL    HW2 2259   1.549   0.522   1.874 -0.3837  0.6013 -1.5051
  754SOL     OW 2260   1.784   2.238   1.728 -0.4566 -0.0092  0.4988
  754SOL    HW1 2261   1.829   2.328   1.739 -0.7963 -0.8201 -0.0267
  754SOL    HW2 2262   1.686   2.257   1.708  0.0889  1.6982  2.5286
  755SOL     OW 2263   3.022   0.496   0.411  0.0679  0.1176 -0.1976
  755SOL    HW1 2264   2.973   0.575   0.365 -0.9535 -1.0819  0.8577
  755SOL    HW2 2265   3.005   0.410   0.362 -2.3189  0.5924 -0.5849
  756SOL     OW 2266   1.504   1.618   2.752  0.1224  0.1267  0.1778
  756SOL    HW1 2267   1.406   1.608   2.736  2.8647 -0.6730 -3.0198
  756SOL    HW2 2268   1.523   1.719   2.758 -0.6577  0.7150  1.4304
  757SOL     OW 2269   1.358   0.031   0.948 -0.2095 -0.2193  0.6772
  757SOL    HW1 2270   1.293   3.078   1.015  0.4437  0.9669 -3.2325
  757SOL    HW2 2271   1.322   0.032   0.851 -0.2057  0.8547  0.7475
  758SOL     OW 2272   0.366   0.189   1.340  0.3584  0.5336  0.2462
  758SOL    HW1 2273   0.264   0.175   1.343 -4.4334  0.8860  2.9005
  758SOL    HW2 2274   0.393   0.278   1.376 -1.5702  1.1960 -0.3407
  759SOL     OW 2275   0.262   0.801   1.254 -0.1556  0.3827  0.2658
  759SOL    HW1 2276   0.265   0.764   1.159  1.5422  2.8379 -1.8089
  759SOL    HW2 2277   0.197   0.882   1.247 -0.4315 -0.6208  0.0360
  760SOL     OW 2278   2.238   1.086   0.997 -0.1680 -0.1806  0.5655
  760SOL    HW1 2279   2.332   1.125   1.023  3.8178 -0.0178  0.8310
  760SOL    HW2 2280   2.163   1.152   1.018 -1.4850  0.3574 -1.3879
  761SOL     OW 2281   1.290   0.879   0.552 -0.0287  0.3131 -0.4120
  761SOL    HW1 2282   1.260   0.778   0.564 -1.8627 -4.0204  0.2168
  761SOL    HW2 2283   1.212   0.943   0.580  0.3399  1.4937  0.6282
  762SOL     OW 2284   2.238   2.357   1.393 -0.4361 -0.5031  0.6249
  762SOL    HW1 2285   2.161   2.291   1.386  1.8725  1.1600 -1.0682
  762SOL    HW2 2286   2.244   2.416   1.309  0.5084  2.5380 -0.2251
  763SOL     OW 2287   1.428   1.446   1.935  0.3844  0.7855  0.2032
  763SOL    HW1 2288   1.481   1.422   1.853 -0.4486 -3.0220 -1.2430
  763SOL    HW2 2289   1.326   1.440   1.915  1.0756  0.7610  0.0357
  764SOL     OW 2290   0.101   1.873   2.634 -0.0742  0.1294  0.1760
  764SOL    HW1 2291   0.069   1.779   2.600 -0.8751  1.7901 -0.4213
  764SOL    HW2 2292   0.020   1.918   2.681 -1.0561  1.2932  2.4005
  765SOL     OW 2293   0.739   2.605   1.153 -0.3240 -0.2740 -0.4221
  765SOL    HW1 2294   0.650   2.600   1.202  0.8775 -0.9481  2.0529
  765SOL    HW2 2295   0.749   2.691   1.103 -1.4461 -1.8635  0.8365
  766SOL     OW 2296   0.788   1.954   2.618  0.6195  0.4242 -0.0789
  766SOL    HW1 2297   0.767   1.876   2.681  0.8772  1.1307 -0.4221
  766SOL    HW2 2298   0.749   2.041   2.658 -1.0298  1.1307  2.1643
  767SOL     OW 2299   1.901   0.324   2.374  0.1730  0.1841  0.5446
  767SOL    HW1 2300   1.915   0.425   2.396 -1.1633  1.5264 -1.2662
  767SOL    HW2 2301   1.864   0.273   2.454  1.0589  2.0638  1.8394
  768SOL     OW 2302   0.920   2.436   2.576  0.3804  0.3530 -0.1693
  768SOL    HW1 2303   0.964   2.444   2.484 -1.3271 -0.7457  1.2668
  768SOL    HW2 2304   0.968   2.491   2.647  2.3079  0.8145  1.2221
  769SOL     OW 2305   3.065   2.595   1.031  0.7566  0.2085  0.8108
  769SOL    HW1 2306   3.014   2.681   1.054  1.2446 -1.2793  0.4105
  769SOL    HW2 2307   0.055   2.585   1.095 -3.8738  0.9973 -1.5623
  770SOL     OW 2308   0.789   2.758   2.770  0.2650 -0.2066  0.1565
  770SOL    HW1 2309   0.690   2.772   2.769 -0.1285  1.1569 -0.2975
  770SOL    HW2 2310   0.825   2.786   2.677  1.5486 -0.0599 -2.1752
  771SOL     OW 2311   1.012   2.388   2.335 -0.4992 -0.1122 -0.3257
  771SOL    HW1 2312   1.109   2.385   2.305 -0.5507  1.9223  3.1453
  771SOL    HW2 2313   0.957   2.314   2.293 -1.8702  1.8165  0.7151
  772SOL     OW 2314   2.315   3.034   2.044 -0.5296 -0.1831 -0.2294
  772SOL    HW1 2315   2.272   0.026   1.995  1.0783 -1.8413 -2.0218
  772SOL    HW2 2316   2.285   2.946   1.998  0.0298  1.4725  3.4481
  773SOL     OW 2317   1.014   2.834   1.810  0.3225  0.0746  0.2140
  773SOL    HW1 2318   1.058   2.745   1.793 -0.2106  1.8802  2.0696
  773SOL    HW2 2319   0.960   2.842   1.898  1.3280  0.3244 -1.4338
  774SOL     OW 2320   1.529   0.582   2.173 -0.7352  0.1167 -0.4290
  774SOL    HW1 2321   1.481   0.586   2.080  0.9832 -0.0686 -0.5342
  774SOL    HW2 2322   1.558   0.485   2.205 -0.2580 -1.8032  0.8434
  775SOL     OW 2323   2.128   2.903   0.336  0.1106 -0.2712  0.3992
  775SOL    HW1 2324   2.197   2.879   0.263 -1.8102  1.6890 -2.1994
  775SOL    HW2 2325   2.033   2.901   0.292 -2.1404  1.6052 -0.6735
  776SOL     OW 2326   2.256   1.000   1.904  0.1067  0.3825 -0.0348
  776SOL    HW1 2327   2.232   1.026   1.809  0.0491  0.7604 -1.3622
  776SOL    HW2 2328   2.202   1.048   1.975 -2.0035 -1.0333  0.9129
  777SOL     OW 2329   2.855   1.024   2.340 -0.2537  0.2896  0.1327
  777SOL    HW1 2330   2.900   0.970   2.265  0.0431  2.0962  0.9913
  777SOL    HW2 2331   2.756   1.028   2.327  0.0960 -0.4802  3.5936
  778SOL     OW 2332   2.381   0.417   2.001  0.0803  0.5635 -0.5774
  778SOL    HW1 2333   2.328   0.505   1.990  3.0854 -2.9018  2.2685
  778SOL    HW2 2334   2.443   0.402   1.924 -0.3348  1.5676  0.0478
  779SOL     OW 2335   2.975   0.162   2.976 -0.3224  0.1765  0.7330
  779SOL    HW1 2336   3.022   0.232   2.920 -0.1101 -0.9127 -3.0510
  779SOL    HW2 2337   3.040   0.102   3.020 -2.3254  2.1336  0.6286
  780SOL     OW 2338   1.790   0.081   2.284  0.4918 -0.0678  0.1367
  780SOL    HW1 2339   1.710   0.061   2.341  1.6895  2.9128 -1.8733
  780SOL    HW2 2340   1.835   0.174   2.298 -2.1511  1.0174 -0.9028
  781SOL     OW 2341   0.005   0.835   1.684  0.0652  0.0686 -0.2096
  781SOL    HW1 2342   0.061   0.862   1.606 -0.9491 -1.7670  0.8137
  781SOL    HW2 2343   0.061   0.835   1.767  0.8461  0.0100 -0.6781
  782SOL     OW 2344   2.097   2.137   0.394 -0.3630  0.0453  0.0022
  782SOL    HW1 2345   2.186   2.125   0.348 -2.2978 -1.3337  3.0384
  782SOL    HW2 2346   2.115   2.192   0.474 -0.6340 -0.7720 -0.8513
  783SOL     OW 2347   0.522   1.909   1.299 -0.4688  0.7416  0.5012
  783SOL    HW1 2348   0.424   1.919   1.276  0.1461 -1.0271  0.2135
  783SOL    HW2 2349   0.560   1.835   1.238 -0.0210  0.1399 -1.2705
  784SOL     OW 2350   2.182   0.531   2.259  1.0101 -0.0389 -0.2069
  784SOL    HW1 2351   2.261   0.463   2.249  2.1121 -0.4691 -2.1689
  784SOL    HW2 2352   2.220   0.626   2.255  0.7477 -0.8434 -0.2280
  785SOL     OW 2353   0.188   0.447   1.052  0.1134 -0.2163  0.2825
  785SOL    HW1 2354   0.150   0.492   0.966  0.5730  0.7108 -3.1591
  785SOL    HW2 2355   0.130   0.468   1.136  0.7210 -0.0644  3.4422
  786SOL     OW 2356   1.884   2.888   0.209  0.3317  0.1297 -0.2225
  786SOL    HW1 2357   1.791   2.890   0.171 -0.4664  0.1578  0.1696
  786SOL    HW2 2358   1.872   2.871   0.306 -1.3601 -0.2997 -2.2512
  787SOL     OW 2359   1.270   0.111   0.677  0.1227  0.0697 -0.6248
  787SOL    HW1 2360   1.331   0.142   0.602  0.1189  0.6202 -2.4722
  787SOL    HW2 2361   1.169   0.139   0.654 -2.1968  0.4282 -0.5311
  788SOL     OW 2362   3.046   1.594   1.164 -0.4328  0.1318 -0.4348
  788SOL    HW1 2363   3.054   1.654   1.085 -1.8091 -3.4186  1.3588
  788SOL    HW2 2364   0.049   1.564   1.197 -1.2673 -0.9328  0.6263
  789SOL     OW 2365   2.888   0.520   2.046  0.0798  0.2478 -0.4924
  789SOL    HW1 2366   2.829   0.468   2.113 -1.7815  2.8999  0.1564
  789SOL    HW2 2367   2.853   0.612   2.045  0.7188 -3.5420 -0.8691
  790SOL     OW 2368   0.864   0.475   2.995 -0.3737  0.3761  0.0808
  790SOL    HW1 2369   0.830   0.415   2.919  0.8311 -0.6077  0.0462
  790SOL    HW2 2370   0.959   0.503   2.978 -1.0432  0.1848  0.5055
  791SOL     OW 2371   2.483   0.126   3.016 -0.1149  0.8460  0.0658
  791SOL    HW1 2372   2.512   0.055   3.086  0.6215 -1.7130  1.0914
  791SOL    HW2 2373   2.557   0.122   2.944 -0.2833 -0.6927 -2.7625
  792SOL     OW 2374   1.005   0.847   1.349  0.6490 -0.0841  0.4051
  792SOL    HW1 2375   1.052   0.756   1.352 -1.4281  3.8127  0.3273
  792SOL    HW2 2376   0.912   0.839   1.311  2.4501  0.6978  2.3850
  793SOL     OW 2377   2.850   0.169   1.435 -0.5806  0.1298 -0.4350
  793SOL    HW1 2378   2.914   0.223   1.502  1.0043  0.8733  0.6371
  793SOL    HW2 2379   2.824   0.234   1.368  5.0152 -2.3346  0.2874
  794SOL     OW 2380   2.934   3.018   2.270 -0.1878  0.0034 -0.0209
  794SOL    HW1 2381   2.857   2.985   2.329  0.2662  0.0068 -2.1077
  794SOL    HW2 2382   2.927   0.027   2.246  0.6677 -0.4916 -0.7379
  795SOL     OW 2383   0.509   1.975   2.857 -0.4201 -0.5841  0.6182
  795SOL    HW1 2384   0.556   2.065   2.859  2.0248  0.1215  1.0253
  795SOL    HW2 2385   0.498   1.936   2.947 -0.5410  0.6564  3.1077
  796SOL     OW 2386   2.099   0.563   2.706 -0.1474  0.3887 -0.3611
  796SOL    HW1 2387   2.057   0.561   2.615 -0.7727 -1.6662  0.0968
  796SOL    HW2 2388   2.053   0.638   2.759  1.5990  0.0177  0.4549
  797SOL     OW 2389   2.317   2.169   3.071 -0.1736 -0.1016  0.0897
  797SOL    HW1 2390   2.406   2.162   3.025 -1.4924 -2.6157  1.8404
  797SOL    HW2 2391   2.250   2.204   3.005  1.8017 -3.5093  0.7846
  798SOL     OW 2392   2.934   0.674   1.340  0.6671 -0.1117 -0.2862
  798SOL    HW1 2393   2.943   0.773   1.363 -0.9025  0.6847 -1.0273
  798SOL    HW2 2394   3.022   0.629   1.319  0.8755 -1.2414  3.1155
  799SOL     OW 2395   0.327   0.163   1.864  0.1268 -0.1839  0.2134
  799SOL    HW1 2396   0.415   0.148   1.805  3.6926  0.1533 -4.5714
  799SOL    HW2 2397   0.325   0.097   1.942 -0.2203 -0.6575 -1.1472
  800SOL     OW 2398   0.177   2.119   0.157 -0.0609  0.2668  0.2132
  800SOL    HW1 2399   0.148   2.075   0.240  0.8688 -0.6860 -0.2086
  800SOL    HW2 2400   0.278   2.114   0.148 -3.0771  1.0394  1.5360
  801SOL     OW 2401   1.645   1.710   0.788 -0.7176 -0.0376  0.8299
  801SOL    HW1 2402   1.607   1.724   0.880  0.0578  1.3866 -0.5138
  801SOL    HW2 2403   1.678   1.799   0.752 -0.1929  0.2652 -0.7107
  802SOL     OW 2404   0.826   0.596   0.279  0.3738 -0.3514 -0.0742
  802SOL    HW1 2405   0.739   0.543   0.258  0.5453 -0.4398 -2.6290
  802SOL    HW2 2406   0.842   0.681   0.220  0.6717 -0.6135 -2.7384
  803SOL     OW 2407   1.202   1.458   1.797 -0.4556  0.4620 -0.1137
  803SOL    HW1 2408   1.120   1.486   1.851  3.0504 -0.7930  1.0013
  803SOL    HW2 2409   1.192   1.373   1.743  0.9767 -1.4035 -0.7809
  804SOL     OW 2410   1.744   2.052   1.048 -0.1393  0.2218  0.8192
  804SOL    HW1 2411   1.790   1.990   1.115 -2.0802 -0.5280  2.4962
  804SOL    HW2 2412   1.810   2.089   0.981 -1.2172  1.6437  1.2793
  805SOL     OW 2413   0.085   2.166   2.523 -0.5264  0.0790  0.0553
  805SOL    HW1 2414   0.078   2.140   2.424 -1.1898 -1.2579  1.6778
  805SOL    HW2 2415   0.182   2.177   2.552  1.4435 -0.9245  0.7756
  806SOL     OW 2416   1.003   2.840   0.159  0.2890 -0.0985  0.0366
  806SOL    HW1 2417   0.946   2.833   0.073 -0.0127 -0.7628  1.3548
  806SOL    HW2 2418   1.001   2.936   0.198 -1.5446  1.7102  1.6046
  807SOL     OW 2419   2.454   0.888   2.845  0.3589  0.2124 -0.1230
  807SOL    HW1 2420   2.522   0.964   2.827  3.1710  1.3996 -1.2218
  807SOL    HW2 2421   2.482   0.838   2.929 -2.5950 -0.3833 -0.6722
  808SOL     OW 2422   1.505   2.039   0.894 -0.1946 -0.3501 -0.0044
  808SOL    HW1 2423   1.595   2.023   0.939  0.9550 -2.0501 -2.3381
  808SOL    HW2 2424   1.498   2.119   0.830  0.2488  2.5823 -2.1602
  809SOL     OW 2425   0.259   0.222   0.677 -0.2517 -0.4356 -0.1804
  809SOL    HW1 2426   0.170   0.275   0.677 -0.4039 -2.6246  0.9404
  809SOL    HW2 2427   0.302   0.235   0.768 -0.7117 -2.9618 -1.9883
  810SOL     OW 2428   1.567   1.281   0.368  0.4594  0.6991 -0.3102
  810SOL    HW1 2429   1.525   1.258   0.280  5.8694  1.0866  0.3694
  810SOL    HW2 2430   1.619   1.366   0.363  2.3452  2.4794 -0.1098
  811SOL     OW 2431   1.462   2.796   1.070  0.2448 -0.5873 -0.1740
  811SOL    HW1 2432   1.492   2.699   1.063 -0.5808  2.3004  1.0837
  811SOL    HW2 2433   1.374   2.808   1.119  0.9765 -2.7855 -2.1749
  812SOL     OW 2434   1.022   0.239   0.645 -0.0168 -0.6456  0.2036
  812SOL    HW1 2435   1.072   0.328   0.669 -0.4142  1.7497 -1.1384
  812SOL    HW2 2436   0.980   0.197   0.729 -0.5348 -1.6908  0.2268
  813SOL     OW 2437   1.138   3.039   2.211 -0.1791  0.0073 -0.0322
  813SOL    HW1 2438   1.133   2.955   2.157 -2.2916  0.8816  0.4574
  813SOL    HW2 2439   1.213   0.014   2.182 -0.6377  2.2028  1.6978
  814SOL     OW 2440   1.190   2.938   1.088  0.3326  0.3053 -0.1368
  814SOL    HW1 2441   1.143   2.881   1.158  0.0980  1.5580 -0.2797
  814SOL    HW2 2442   1.137   2.954   1.004 -0.0827  0.2297  1.1102
  815SOL     OW 2443   0.122   2.560   0.179 -0.3138  0.8227 -0.1215
  815SOL    HW1 2444   0.171   2.624   0.115  2.6449  0.3219  0.7679
  815SOL    HW2 2445   0.104   2.603   0.271 -0.3058 -1.4022  0.8190
  816SOL     OW 2446   2.006   1.018   2.617  0.1948 -0.1850  0.1953
  816SOL    HW1 2447   2.070   0.972   2.683  0.1902  1.4053 -1.9241
  816SOL    HW2 2448   1.921   1.055   2.663 -0.7104 -0.3359 -1.6933
  817SOL     OW 2449   1.949   2.298   2.433  0.0054 -0.2877 -0.2151
  817SOL    HW1 2450   1.877   2.284   2.500  2.0916  2.2074 -1.1885
  817SOL    HW2 2451   1.994   2.389   2.444  0.9976 -2.3100  1.3629
  818SOL     OW 2452   1.040   1.040   0.103 -0.2269  0.1334  0.4125
  818SOL    HW1 2453   1.028   1.075   0.009 -1.6765  0.6409  1.6320
  818SOL    HW2 2454   1.111   1.091   0.156  0.1066 -1.0531 -0.6762
  819SOL     OW 2455   1.689   1.566   0.094  0.1550 -0.4836  0.0226
  819SOL    HW1 2456   1.789   1.574   0.083 -1.9742  0.4822  0.2561
  819SOL    HW2 2457   1.658   1.556   0.189 -2.5358 -0.5399 -2.0060
  820SOL     OW 2458   0.316   0.758   0.693  0.1916 -0.3220  0.1421
  820SOL    HW1 2459   0.415   0.756   0.683 -3.6838 -0.5891  2.8056
  820SOL    HW2 2460   0.266   0.694   0.630  0.4853  1.8010  0.2672
  821SOL     OW 2461   0.475   2.970   1.440 -0.1992  0.0184 -0.4894
  821SOL    HW1 2462   0.398   3.039   1.439 -3.2712  0.4124  1.1918
  821SOL    HW2 2463   0.476   2.922   1.351 -1.7650  1.8106 -2.2109
  822SOL     OW 2464   2.010   2.136   2.769  0.3880  0.2922  0.1171
  822SOL    HW1 2465   2.044   2.212   2.826 -0.0066 -0.0494 -1.8268
  822SOL    HW2 2466   1.927   2.159   2.715  3.0311 -0.1837  1.2356
  823SOL     OW 2467   0.728   0.600   1.928 -0.0098  0.2516  0.1075
  823SOL    HW1 2468   0.804   0.643   1.981 -0.4561 -4.1211  1.8137
  823SOL    HW2 2469   0.665   0.558   1.993 -0.7037  0.5772 -0.5321
  824SOL     OW 2470   2.457   0.074   1.505  0.5852  0.1422 -0.0410
  824SOL    HW1 2471   2.387   0.145   1.477  0.9001  1.3544  2.0639
  824SOL    HW2 2472   2.419   3.073   1.534 -0.3851 -3.1502 -0.3643
  825SOL     OW 2473   0.391   1.168   2.467  0.0504  0.6366 -0.6434
  825SOL    HW1 2474   0.381   1.245   2.530 -1.3022 -0.0580  1.0973
  825SOL    HW2 2475   0.467   1.099   2.493  1.2927  1.1639 -1.9356
  826SOL     OW 2476   1.732   0.466   2.873 -0.3581 -0.0188  0.6454
  826SOL    HW1 2477   1.748   0.511   2.784 -1.5835 -2.1145  0.2170
  826SOL    HW2 2478   1.682   0.376   2.866 -0.5513  1.8789 -0.1607
  827SOL     OW 2479   0.667   2.306   2.314  0.5702  0.0219  0.0058
  827SOL    HW1 2480   0.582   2.280   2.264  1.4306  0.7735  1.2695
  827SOL    HW2 2481   0.689   2.395   2.283 -3.1190 -0.5484  0.4404
  828SOL     OW 2482   3.015   2.991   1.547  0.2080 -0.1565 -0.3684
  828SOL    HW1 2483   2.963   2.979   1.635 -1.9757 -1.2010  0.5834
  828SOL    HW2 2484   2.978   3.076   1.501 -2.3896  0.7925 -1.6162
  829SOL     OW 2485   1.345   1.660   1.700  0.0237  0.2665 -0.0102
  829SOL    HW1 2486   1.306   1.577   1.751 -1.1880 -0.7726 -2.1695
  829SOL    HW2 2487   1.404   1.629   1.622 -2.8325  0.3417 -0.3018
  830SOL     OW 2488   0.756   0.991   1.663  0.1763  0.1837  0.1651
  830SOL    HW1 2489   0.688   0.926   1.639  2.8360  1.3694  0.2123
  830SOL    HW2 2490   0.722   1.060   1.733 -0.3398 -0.7042  1.3238
  831SOL     OW 2491   2.804   1.754   0.362 -0.4771 -0.2957  0.0205
  831SOL    HW1 2492   2.745   1.757   0.279 -1.3741 -0.9291  0.2308
  831SOL    HW2 2493   2.894   1.801   0.348  1.1983  0.9901  1.7011
  832SOL     OW 2494   1.231   2.688   0.197  0.0138  0.0269  0.4352
  832SOL    HW1 2495   1.163   2.753   0.148 -0.6443 -0.8266 -1.7469
  832SOL    HW2 2496   1.186   2.634   0.273 -0.0871 -0.8512  1.1908
  833SOL     OW 2497   2.981   0.338   1.598 -0.2816 -0.1929  0.6560
  833SOL    HW1 2498   3.068   0.303   1.637  1.8268  0.1232  0.6850
  833SOL    HW2 2499   2.975   0.438   1.613  0.2040  4.6079  0.4878
  834SOL     OW 2500   3.051   0.813   0.982 -0.2341 -0.5500 -0.6780
  834SOL    HW1 2501   3.079   0.890   1.052 -0.3252  0.2255 -0.5722
  834SOL    HW2 2502   3.068   0.844   0.886 -0.1508 -2.4413  0.6323
  835SOL     OW 2503   2.778   3.070   0.638  0.2291 -0.2069 -0.2819
  835SOL    HW1 2504   2.800   0.083   0.651 -1.7058  2.1449  1.7329
  835SOL    HW2 2505   2.830   3.007   0.699  0.6141 -1.8248 -0.6502
  836SOL     OW 2506   1.091   1.974   2.849 -0.3673  0.2017 -0.1425
  836SOL    HW1 2507   1.001   1.965   2.896 -1.3458  0.4101  0.9776
  836SOL    HW2 2508   1.091   1.933   2.757 -0.8440  1.0734  1.3443
  837SOL     OW 2509   1.632   1.872   0.008  0.5046 -0.0843  0.2057
  837SOL    HW1 2510   1.629   1.772   3.087 -1.9123  2.4868  2.3540
  837SOL    HW2 2511   1.627   1.916   3.006  0.9166 -0.6825  2.9132
  838SOL     OW 2512   2.660   0.711   2.417 -0.0668 -0.0516  0.4027
  838SOL    HW1 2513   2.724   0.751   2.481 -2.5435 -2.2462 -0.4599
  838SOL    HW2 2514   2.567   0.739   2.445 -1.1870  3.8537  0.2772
  839SOL     OW 2515   0.655   0.964   2.392 -0.5483 -0.2033  0.2491
  839SOL    HW1 2516   0.624   1.060   2.381 -2.6731  0.5450  3.9458
  839SOL    HW2 2517   0.745   0.949   2.345  0.0600  0.6056  1.0623
  840SOL     OW 2518   1.004   0.796   2.876  0.6726 -0.2860 -0.1842
  840SOL    HW1 2519   1.022   0.885   2.919  0.9883 -0.2348  0.0207
  840SOL    HW2 2520   1.022   0.723   2.945  1.7997 -0.4270 -0.1932
  841SOL     OW 2521   0.781   2.684   0.740 -0.3884 -0.1276 -0.3054
  841SOL    HW1 2522   0.841   2.727   0.667  0.5280 -1.5344 -1.2492
  841SOL    HW2 2523   0.796   2.582   0.754 -1.8403  0.2667  0.3558
  842SOL     OW 2524   0.571   0.708   0.745 -0.1143 -0.1371 -0.1028
  842SOL    HW1 2525   0.570   0.767   0.828  1.0213  2.0059 -0.9479
  842SOL    HW2 2526   0.529   0.616   0.759  0.1590  0.9735  1.1967
  843SOL     OW 2527   0.326   1.214   1.427 -0.1783 -0.5432 -0.2546
  843SOL    HW1 2528   0.254   1.267   1.374 -1.4655 -1.3754  0.3442
  843SOL    HW2 2529   0.311   1.112   1.421  1.9823 -1.0896  1.5445
  844SOL     OW 2530   2.073   2.566   2.710  0.4486 -0.3809 -0.4185
  844SOL    HW1 2531   2.095   2.639   2.781  0.1415 -0.0047  1.3875
  844SOL    HW2 2532   2.143   2.493   2.706 -0.6676  0.6487 -0.2015
  845SOL     OW 2533   2.245   2.995   1.532  0.2126 -0.0011  1.0238
  845SOL    HW1 2534   2.196   3.029   1.449  0.4928 -1.7296  0.1533
  845SOL    HW2 2535   2.233   2.892   1.544 -0.7376 -1.3654  2.9146
  846SOL     OW 2536   1.919   0.859   2.391 -0.4570  0.3433 -0.3247
  846SOL    HW1 2537   1.922   0.896   2.297  0.0125  0.2471  0.5258
  846SOL    HW2 2538   1.950   0.927   2.464  0.1892  3.6257 -1.7775
  847SOL     OW 2539   2.222   2.810   1.952  0.2899 -0.1434  1.2887
  847SOL    HW1 2540   2.170   2.793   2.036 -1.6003  0.4278  0.4394
  847SOL    HW2 2541   2.308   2.762   1.947 -2.8792  2.5409 -1.4488
  848SOL     OW 2542   2.963   2.945   0.137  0.2754 -0.4114  0.6120
  848SOL    HW1 2543   3.012   3.026   0.167 -2.1735  1.0762  2.2942
  848SOL    HW2 2544   2.995   2.912   0.045  0.7393  1.9884 -2.1559
  849SOL     OW 2545   0.225   2.959   1.177 -0.1133 -0.0353  0.3534
  849SOL    HW1 2546   0.233   2.903   1.092  0.3167 -3.8558 -2.6874
  849SOL    HW2 2547   0.318   3.006   1.199  0.8927  1.5730  1.7564
  850SOL     OW 2548   0.404   2.180   0.518  0.3981  0.2874 -0.3958
  850SOL    HW1 2549   0.467   2.245   0.470 -1.2406 -3.0192  0.1529
  850SOL    HW2 2550   0.428   2.087   0.484 -0.4092 -0.6802 -1.0696
  851SOL     OW 2551   2.191   0.802   3.065  0.1590  0.0402  0.2704
  851SOL    HW1 2552   2.223   0.708   3.067 -1.5755  1.5055 -2.8022
  851SOL    HW2 2553   2.147   0.835   0.060  2.2772  1.1175 -0.2506
  852SOL     OW 2554   1.782   2.173   2.635  0.2777  0.1712  0.0679
  852SOL    HW1 2555   1.780   2.092   2.568 -1.5746 -3.9503 -2.2508
  852SOL    HW2 2556   1.692   2.169   2.683  1.4577 -1.0249 -0.7889
  853SOL     OW 2557   0.438   1.899   0.428  0.1870 -0.1338  0.1261
  853SOL    HW1 2558   0.416   1.943   0.339  0.1246 -1.0017 -0.3265
  853SOL    HW2 2559   0.452   1.799   0.410  3.8010  0.8907 -0.6342
  854SOL     OW 2560   1.654   0.805   2.107  0.0623  0.2645  0.3105
  854SOL    HW1 2561   1.630   0.715   2.149 -0.1733 -0.7352  1.2979
  854SOL    HW2 2562   1.727   0.859   2.156  1.4818 -1.2278  1.4006
  855SOL     OW 2563   0.454   2.534   3.025  0.1147  0.1414 -0.3518
  855SOL    HW1 2564   0.554   2.512   3.039  0.9344  0.4375 -1.3879
  855SOL    HW2 2565   0.407   2.450   2.988 -0.8555 -2.0114 -0.1100
  856SOL     OW 2566   0.422   2.713   2.333 -0.3030  0.0559  0.4995
  856SOL    HW1 2567   0.384   2.627   2.286  0.3784 -0.8854 -1.7756
  856SOL    HW2 2568   0.519   2.715   2.311  2.0683 -2.5387  1.2510
  857SOL     OW 2569   0.681   0.389   1.654  0.0764 -0.0241  0.2649
  857SOL    HW1 2570   0.712   0.478   1.697  0.2316  2.9284  1.5441
  857SOL    HW2 2571   0.627   0.414   1.572  1.1343 -1.1535 -1.6456
  858SOL     OW 2572   0.418   1.884   2.065 -0.4441 -0.3524 -0.2707
  858SOL    HW1 2573   0.519   1.882   2.046 -0.7093  1.0658  0.5939
  858SOL    HW2 2574   0.366   1.918   1.985 -0.7458  0.5049 -2.8417
  859SOL     OW 2575   2.163   2.483   1.628 -0.0717 -0.0392  0.4097
  859SOL    HW1 2576   2.187   2.464   1.529 -0.3158 -0.6337 -0.2338
  859SOL    HW2 2577   2.173   2.581   1.648  2.2054  1.4548  1.4933
  860SOL     OW 2578   1.616   0.625   0.446  0.0881  0.1640 -0.5015
  860SOL    HW1 2579   1.555   0.560   0.493  0.8459  0.4563 -0.2662
  860SOL    HW2 2580   1.592   0.713   0.490  0.3602 -0.2049  1.4716
  861SOL     OW 2581   0.011   0.569   0.887 -0.5771  0.0684 -0.3690
  861SOL    HW1 2582   3.074   0.657   0.934  0.0243 -0.8347  0.2882
  861SOL    HW2 2583   3.022   0.537   0.835  3.0607  3.3644  0.4089
  862SOL     OW 2584   1.800   0.972   1.496  0.3750 -0.5246 -0.0047
  862SOL    HW1 2585   1.786   0.884   1.538 -0.1774  0.8206 -0.4010
  862SOL    HW2 2586   1.812   0.961   1.395 -0.5754  0.9847 -2.3445
  863SOL     OW 2587   0.416   1.474   1.388 -0.1137 -0.0495  0.6826
  863SOL    HW1 2588   0.411   1.372   1.409 -1.5313  0.2307  0.7611
  863SOL    HW2 2589   0.490   1.496   1.322 -1.1665  0.0652  0.7779
  864SOL     OW 2590   2.634   2.850   2.030 -0.6344  0.5129 -0.1644
  864SOL    HW1 2591   2.736   2.846   2.017  1.8224  1.3780 -2.3485
  864SOL    HW2 2592   2.599   2.939   1.990 -1.0970  1.3770  0.0862
  865SOL     OW 2593   1.106   0.550   2.158  0.1183 -0.5193  0.3043
  865SOL    HW1 2594   1.173   0.621   2.191 -0.4618  0.9674  2.5054
  865SOL    HW2 2595   1.145   0.475   2.095 -2.0275  0.3409 -1.1965
  866SOL     OW 2596   2.500   2.789   0.524  0.1850  0.3851 -0.0236
  866SOL    HW1 2597   2.450   2.876   0.516  0.9490  1.0392 -0.8501
  866SOL    HW2 2598   2.572   2.786   0.456 -2.7368 -0.8855 -2.0516
  867SOL     OW 2599   2.901   2.872   0.786  0.0612 -0.1571  0.5368
  867SOL    HW1 2600   2.892   2.788   0.732  3.6555  1.4683  0.2862
  867SOL    HW2 2601   2.999   2.892   0.805 -0.5702  1.7748  2.0146
  868SOL     OW 2602   1.778   1.613   2.793  0.4350 -0.3588  0.3526
  868SOL    HW1 2603   1.812   1.708   2.809  1.6769  1.6856  0.5425
  868SOL    HW2 2604   1.678   1.606   2.799 -1.3317 -0.9483  2.1112
  869SOL     OW 2605   2.894   2.645   0.647 -0.7641 -0.3054  0.4185
  869SOL    HW1 2606   2.880   2.624   0.546 -0.0979 -2.3111  0.8673
  869SOL    HW2 2607   2.814   2.612   0.698  1.8333  2.4416  4.4708
  870SOL     OW 2608   2.734   2.030   0.453 -0.3604  0.2985 -0.9641
  870SOL    HW1 2609   2.652   2.083   0.479  1.4330 -0.3195  0.6141
  870SOL    HW2 2610   2.740   1.945   0.506  1.0927 -0.0284  4.5010
  871SOL     OW 2611   0.213   1.484   1.211  0.1319  0.6198 -0.6398
  871SOL    HW1 2612   0.297   1.481   1.265  0.1849  0.1858 -1.9566
  871SOL    HW2 2613   0.176   1.392   1.185 -0.9220 -2.9302 -0.4419
  872SOL     OW 2614   1.124   1.672   2.438 -0.3817  0.2695 -0.3088
  872SOL    HW1 2615   1.028   1.638   2.427 -0.4871 -3.6622  1.8835
  872SOL    HW2 2616   1.171   1.673   2.350 -1.0966 -1.4074 -0.2333
  873SOL     OW 2617   0.482   2.854   1.850 -0.4568  0.2515 -0.1399
  873SOL    HW1 2618   0.497   2.887   1.944 -1.6207 -1.3097 -1.0962
  873SOL    HW2 2619   0.550   2.906   1.785  1.4715  4.6933 -0.7122
  874SOL     OW 2620   0.952   0.323   1.567 -0.4025  0.3621 -0.1870
  874SOL    HW1 2621   0.867   0.339   1.620  1.5380  0.3326 -2.2310
  874SOL    HW2 2622   0.964   0.223   1.541 -0.3254  0.0141 -0.0870
  875SOL     OW 2623   2.982   0.224   0.981 -0.1053  0.7443  0.4355
  875SOL    HW1 2624   3.008   0.278   1.062 -2.3943  0.2819  2.3700
  875SOL    HW2 2625   2.895   0.178   1.002 -2.3647 -0.0964 -0.3514
  876SOL     OW 2626   0.550   1.279   0.304 -0.4921  0.6081  0.4429
  876SOL    HW1 2627   0.466   1.246   0.262  3.4630  0.4182  1.5909
  876SOL    HW2 2628   0.630   1.224   0.259  3.6491  1.4264 -0.2915
  877SOL     OW 2629   1.016   0.979   1.617 -0.5454  0.2837 -0.2677
  877SOL    HW1 2630   1.018   0.922   1.531 -1.5138 -1.4520  0.6075
  877SOL    HW2 2631   0.913   0.977   1.654 -5.6282  0.7857  0.3368
  878SOL     OW 2632   2.454   2.317   0.414 -0.1812 -0.4991  0.1918
  878SOL    HW1 2633   2.403   2.238   0.390 -1.7256  2.6737 -0.8820
  878SOL    HW2 2634   2.515   2.347   0.341 -1.7904 -1.0113  0.5505
  879SOL     OW 2635   2.628   1.829   1.797 -0.1593 -0.1549  0.4754
  879SOL    HW1 2636   2.724   1.857   1.777 -0.6135  1.8806  0.3979
  879SOL    HW2 2637   2.560   1.889   1.761  1.8095 -0.0030  2.0658
  880SOL     OW 2638   1.405   2.574   0.545 -0.3943  1.0591  0.7404
  880SOL    HW1 2639   1.349   2.572   0.630  2.0233  1.3752 -2.3947
  880SOL    HW2 2640   1.431   2.475   0.521 -1.9022 -2.0431 -0.7690
  881SOL     OW 2641   0.564   2.363   0.389 -0.3919 -0.2742  0.1023
  881SOL    HW1 2642   0.613   2.345   0.298  2.5127  0.8262 -1.4989
  881SOL    HW2 2643   0.488   2.428   0.371  0.1794 -0.9644  1.8417
  882SOL     OW 2644   1.955   0.847   0.650 -0.2453 -0.7391  0.5191
  882SOL    HW1 2645   1.869   0.880   0.695 -1.4632  0.4077 -0.4204
  882SOL    HW2 2646   2.024   0.820   0.721  1.4721  0.9607 -0.0177
  883SOL     OW 2647   1.183   1.031   0.944 -0.4129 -0.0093 -0.5543
  883SOL    HW1 2648   1.126   0.947   0.929  2.6665  3.4527 -1.6217
  883SOL    HW2 2649   1.271   1.029   0.898 -1.7212 -1.7960  1.3761
  884SOL     OW 2650   2.747   2.946   0.305 -0.4993 -0.4603 -0.1326
  884SOL    HW1 2651   2.833   2.924   0.244  2.0970 -0.4251 -4.7423
  884SOL    HW2 2652   2.776   2.996   0.391 -1.1881 -0.1233  1.3045
  885SOL     OW 2653   1.065   1.333   2.712 -0.1702  0.3637  0.0841
  885SOL    HW1 2654   1.123   1.284   2.781 -1.8843 -2.8452  1.9853
  885SOL    HW2 2655   1.128   1.377   2.643  0.4647  0.0392 -0.2290
  886SOL     OW 2656   1.306   1.965   2.570 -0.5598 -0.5701 -0.2280
  886SOL    HW1 2657   1.206   1.943   2.563 -1.0354 -2.9374  2.2737
  886SOL    HW2 2658   1.313   2.068   2.554 -1.8767 -0.2404  0.0196
  887SOL     OW 2659   1.343   0.260   1.237  0.0319 -0.1636  0.0462
  887SOL    HW1 2660   1.379   0.278   1.141  0.9354 -0.0525 -0.4827
  887SOL    HW2 2661   1.263   0.316   1.252 -0.7326  0.7999 -0.6481
  888SOL     OW 2662   2.164   0.491   1.735  0.1201  0.9042 -0.2343
  888SOL    HW1 2663   2.179   0.557   1.814 -0.6811  0.1017 -0.8426
  888SOL    HW2 2664   2.093   0.421   1.755 -1.9687  0.7293 -0.4975
  889SOL     OW 2665   0.254   2.578   0.602 -0.3552 -0.5743  0.3307
  889SOL    HW1 2666   0.346   2.588   0.644 -0.8456  0.1275 -1.4199
  889SOL    HW2 2667   0.173   2.584   0.671 -2.3325 -0.9843 -0.6864
  890SOL     OW 2668   1.722   1.999   0.678  0.3999 -0.1703 -0.3246
  890SOL    HW1 2669   1.813   1.968   0.637  2.3272 -1.2300 -1.9689
  890SOL    HW2 2670   1.658   2.013   0.600  2.1646  1.1649 -1.8754
  891SOL     OW 2671   3.069   0.914   3.001  0.0102  0.0448  0.7610
  891SOL    HW1 2672   0.061   0.968   2.965 -0.2978 -1.0578 -0.5682
  891SOL    HW2 2673   0.008   0.853   3.080  0.7826 -0.3547  0.1403
  892SOL     OW 2674   2.669   2.528   1.170 -0.3830  0.1670  0.3312
  892SOL    HW1 2675   2.647   2.445   1.121  1.5854  0.7403  0.1572
  892SOL    HW2 2676   2.590   2.592   1.181  2.3135  0.2343  1.8029
  893SOL     OW 2677   1.365   0.411   1.004 -0.1579  0.1297 -0.4055
  893SOL    HW1 2678   1.414   0.375   0.925  0.0462  0.7762 -0.7885
  893SOL    HW2 2679   1.414   0.493   1.037  1.1997 -0.1564  2.3502
  894SOL     OW 2680   2.640   0.594   0.919  0.3633  0.4210  0.3488
  894SOL    HW1 2681   2.578   0.679   0.914 -2.5659  1.9068  2.6148
  894SOL    HW2 2682   2.730   0.609   0.964  3.7221  1.7932 -0.5729
  895SOL     OW 2683   1.512   1.402   2.376 -0.0485  0.4974  0.3339
  895SOL    HW1 2684   1.532   1.489   2.427  0.5798 -0.7376  0.1348
  895SOL    HW2 2685   1.548   1.400   2.280 -1.5408 -0.9425 -0.4527
  896SOL     OW 2686   1.608   0.526   1.344  0.0800 -0.3588  0.7290
  896SOL    HW1 2687   1.577   0.568   1.432 -0.3392  0.1032  0.6857
  896SOL    HW2 2688   1.614   0.429   1.343  1.4955  2.3399 -2.0681
  897SOL     OW 2689   0.329   1.651   1.753 -0.1131  0.6565  0.0890
  897SOL    HW1 2690   0.275   1.724   1.797  3.4547 -0.0851  0.4479
  897SOL    HW2 2691   0.373   1.687   1.673 -1.4472  0.6087  0.8030
  898SOL     OW 2692   2.085   2.658   2.169 -0.2421  0.1034  0.1023
  898SOL    HW1 2693   2.100   2.599   2.087  4.2190  0.6300 -1.3879
  898SOL    HW2 2694   2.077   2.601   2.251  0.9030 -0.2829 -0.1000
  899SOL     OW 2695   1.172   1.699   0.979 -0.2899 -0.4865  0.5448
  899SOL    HW1 2696   1.112   1.616   0.963 -0.1211  3.1776  1.0428
  899SOL    HW2 2697   1.142   1.748   1.063 -0.4763 -0.2157 -1.0239
  900SOL     OW 2698   1.286   2.247   2.519 -0.3430  0.4912 -0.1089
  900SOL    HW1 2699   1.206   2.249   2.583 -0.2761 -0.2033 -0.0994
  900SOL    HW2 2700   1.277   2.305   2.440  2.0180  0.3251  1.2853
  901SOL     OW 2701   0.874   1.627   2.333 -0.4955 -0.0312  0.0983
  901SOL    HW1 2702   0.885   1.552   2.266 -0.6136 -1.5903  5.1434
  901SOL    HW2 2703   0.829   1.706   2.287  0.2002 -0.2847  1.5057
  902SOL     OW 2704   2.397   1.621   0.438  0.0859 -0.4889  0.2605
  902SOL    HW1 2705   2.311   1.568   0.410 -1.3883 -0.1802  1.1393
  902SOL    HW2 2706   2.416   1.596   0.534  1.4976  0.6909 -2.0673
  903SOL     OW 2707   2.181   1.716   0.233  0.3299 -0.1450  0.7286
  903SOL    HW1 2708   2.280   1.745   0.233 -2.4310 -1.4744  1.4179
  903SOL    HW2 2709   2.127   1.798   0.199  0.9532  1.8541 -2.5692
  904SOL     OW 2710   1.251   0.748   2.288  0.0263 -0.1206  0.4804
  904SOL    HW1 2711   1.197   0.818   2.344  1.4459  1.6460  2.3374
  904SOL    HW2 2712   1.342   0.777   2.261 -0.2179  0.3676 -0.9230
  905SOL     OW 2713   2.887   0.233   0.729 -0.6948 -0.2269  0.3711
  905SOL    HW1 2714   2.825   0.313   0.727  0.4890 -1.1843  1.9325
  905SOL    HW2 2715   2.932   0.233   0.820  1.3173 -0.0716 -2.4225
  906SOL     OW 2716   2.977   1.967   0.335  0.3166  0.8301 -0.1042
  906SOL    HW1 2717   3.059   1.991   0.383 -0.4682 -1.6980 -1.2218
  906SOL    HW2 2718   2.900   1.970   0.401 -2.5496  0.9581  0.4644
  907SOL     OW 2719   1.435   0.494   0.271 -0.5547  0.2568 -0.1107
  907SOL    HW1 2720   1.527   0.531   0.296 -1.0860 -0.7165 -2.2519
  907SOL    HW2 2721   1.435   0.433   0.188 -1.5770  0.9222  0.1174
  908SOL     OW 2722   1.938   2.673   1.462  0.9522  0.0616  0.3894
  908SOL    HW1 2723   2.041   2.686   1.470  1.0847 -2.6638 -0.3762
  908SOL    HW2 2724   1.887   2.682   1.551  0.1262  0.6970 -1.2895
  909SOL     OW 2725   2.424   0.738   1.497 -0.6046  0.2587  0.4517
  909SOL    HW1 2726   2.437   0.657   1.559 -0.9697 -1.2324 -2.1932
  909SOL    HW2 2727   2.322   0.763   1.497 -1.5404  1.4474  0.3827
  910SOL     OW 2728   1.261   2.944   2.443 -0.0373 -0.1305 -0.5623
  910SOL    HW1 2729   1.303   2.849   2.429 -0.5682  0.5010 -0.1647
  910SOL    HW2 2730   1.206   2.969   2.367  2.3443 -1.8784  0.0515
  911SOL     OW 2731   2.180   1.100   2.140  0.2600 -0.4700 -0.4241
  911SOL    HW1 2732   2.268   1.145   2.168  2.5303  0.0326 -0.2123
  911SOL    HW2 2733   2.101   1.137   2.194  2.1766 -1.5793 -0.4697
  912SOL     OW 2734   2.452   2.214   1.498 -0.2485  0.2189 -0.4389
  912SOL    HW1 2735   2.550   2.237   1.466 -0.1072  0.4786 -1.2244
  912SOL    HW2 2736   2.384   2.288   1.474 -0.1363  2.4037  1.7212
  913SOL     OW 2737   2.466   2.706   1.300 -0.2711  0.6785  0.1066
  913SOL    HW1 2738   2.492   2.705   1.399 -1.4794  0.9381 -2.3615
  913SOL    HW2 2739   2.482   2.794   1.253  4.1789 -1.3229 -0.6520
  914SOL     OW 2740   2.370   1.803   1.322 -0.4973  0.0561 -0.1605
  914SOL    HW1 2741   2.324   1.712   1.310 -2.8289 -3.4084  1.2456
  914SOL    HW2 2742   2.338   1.843   1.412 -0.1540 -1.2487  5.0597
  915SOL     OW 2743   1.161   2.078   1.233  0.4388 -0.3504 -0.5109
  915SOL    HW1 2744   1.092   2.146   1.260  1.6876 -1.5922 -0.3906
  915SOL    HW2 2745   1.210   2.044   1.310  1.2187  0.8331 -2.4650
  916SOL     OW 2746   2.916   2.784   1.202  0.0402 -0.3478 -0.3794
  916SOL    HW1 2747   2.966   2.864   1.155  2.8125  1.0391 -2.0860
  916SOL    HW2 2748   2.822   2.807   1.236 -2.7391 -0.1983 -1.0943
  917SOL     OW 2749   2.576   1.216   2.628  0.1260 -0.7123  0.3349
  917SOL    HW1 2750   2.613   1.177   2.717  2.1750 -3.4121 -1.1457
  917SOL    HW2 2751   2.501   1.165   2.583 -0.9514 -0.5095  0.6092
  918SOL     OW 2752   1.731   2.004   2.432  0.2204 -0.1184 -0.2621
  918SOL    HW1 2753   1.638   1.968   2.423 -1.0141 -1.0796 -0.0491
  918SOL    HW2 2754   1.805   1.934   2.416 -2.2287 -1.9400 -0.1202
  919SOL     OW 2755   1.576   1.954   1.537 -0.3972  0.4886  0.1564
  919SOL    HW1 2756   1.550   1.941   1.638 -1.2521  0.2016  4.6105
  919SOL    HW2 2757   1.675   1.924   1.528  0.4430 -1.2974  1.3831
  920SOL     OW 2758   0.416   3.036   2.883  0.0351 -0.3542  0.1333
  920SOL    HW1 2759   0.512   3.017   2.853 -1.4436  0.1852  2.3873
  920SOL    HW2 2760   0.406   3.018   2.985 -2.4013  0.3748  0.1292
  921SOL     OW 2761   2.644   0.184   2.540 -0.3544 -0.3114 -1.0098
  921SOL    HW1 2762   2.744   0.164   2.531 -1.5121 -0.5669 -0.0698
  921SOL    HW2 2763   2.619   0.280   2.511  0.1895 -0.0018  2.2371
  922SOL     OW 2764   2.372   1.607   1.749  0.1602 -0.2947 -0.2277
  922SOL    HW1 2765   2.430   1.640   1.826  0.1094  1.2984 -1.6011
  922SOL    HW2 2766   2.284   1.661   1.755 -1.9845 -0.8875  2.6432
  923SOL     OW 2767   0.860   1.979   0.328 -0.4375  0.0922 -0.1625
  923SOL    HW1 2768   0.926   2.060   0.329  0.4920  2.5093  2.1165
  923SOL    HW2 2769   0.892   1.902   0.266  1.2690 -1.9942 -1.6404
  924SOL     OW 2770   1.521   0.556   3.020 -0.2490  0.1752  0.2703
  924SOL    HW1 2771   1.509   0.639   3.079 -0.2735 -0.1378 -0.3473
  924SOL    HW2 2772   1.615   0.544   2.976  3.1477 -1.8016  0.4542
  925SOL     OW 2773   2.835   1.020   0.668 -0.2524  0.5576  0.1677
  925SOL    HW1 2774   2.920   1.030   0.614 -0.8561  0.2046  1.2883
  925SOL    HW2 2775   2.752   1.007   0.602 -0.6965  2.5331 -1.5671
  926SOL     OW 2776   0.093   0.892   0.759  0.6729 -0.1300  0.2688
  926SOL    HW1 2777   0.179   0.840   0.731  0.5398  2.6674 -1.9547
  926SOL    HW2 2778   0.054   0.941   0.676  1.9151  0.0256 -2.1700
  927SOL     OW 2779   0.536   1.460   0.538 -0.3769 -0.1149  1.3632
  927SOL    HW1 2780   0.520   1.392   0.462  0.0238  1.9399  1.4780
  927SOL    HW2 2781   0.629   1.446   0.577 -2.7000  1.3572  2.0105
  928SOL     OW 2782   0.137   3.009   2.556  0.8851 -0.7198 -0.0159
  928SOL    HW1 2783   0.127   3.016   2.658  0.3643  3.0920 -0.7149
  928SOL    HW2 2784   0.141   0.019   2.517 -0.4235  1.2986  1.3688
  929SOL     OW 2785   2.756   0.311   1.231  0.1749  0.3672  0.4377
  929SOL    HW1 2786   2.739   0.232   1.169 -2.9649 -0.0837 -0.9835
  929SOL    HW2 2787   2.686   0.379   1.203  1.2410 -1.7553  0.1745
  930SOL     OW 2788   1.857   2.142   1.493 -0.3180 -0.1837  0.2977
  930SOL    HW1 2789   1.822   2.175   1.578  2.8824 -1.4163 -1.4339
  930SOL    HW2 2790   1.920   2.063   1.502  0.7656 -0.2268 -1.9556
  931SOL     OW 2791   1.635   1.003   1.046 -0.2875  0.5705  0.6676
  931SOL    HW1 2792   1.633   0.925   1.111 -0.0463  0.4460  0.8509
  931SOL    HW2 2793   1.693   1.076   1.081 -2.4514 -1.2832  2.5931
  932SOL     OW 2794   2.724   0.990   1.210 -0.2065 -0.2920 -0.1608
  932SOL    HW1 2795   2.659   0.911   1.234  0.4383  0.4743 -2.1688
  932SOL    HW2 2796   2.766   0.967   1.119 -1.8091  1.0305  0.6750
  933SOL     OW 2797   2.482   1.704   1.990 -0.3716 -0.1162  0.0575
  933SOL    HW1 2798   2.557   1.753   1.942  0.2968  1.8327  0.6012
  933SOL    HW2 2799   2.512   1.616   2.027 -1.3575  0.9322 -3.0023
  934SOL     OW 2800   1.619   0.084   0.992 -0.8126  0.2526  0.0502
  934SOL    HW1 2801   1.515   0.066   0.980 -2.7387  1.2205  1.2327
  934SOL    HW2 2802   1.667   0.035   0.911  1.4240 -1.1955 -0.6146
  935SOL     OW 2803   2.680   1.253   1.233 -0.6209  0.2182  0.0762
  935SOL    HW1 2804   2.682   1.152   1.244 -1.1142 -1.2717 -0.4853
  935SOL    HW2 2805   2.770   1.278   1.193 -0.5856 -2.0171 -0.3812
  936SOL     OW 2806   2.912   1.376   1.185  0.1550  0.0764 -0.5831
  936SOL    HW1 2807   2.951   1.469   1.170  0.4594  0.5665  1.7007
  936SOL    HW2 2808   2.921   1.316   1.102  0.2282 -2.5437 -1.4223
  937SOL     OW 2809   1.489   2.820   0.621 -0.1774 -0.5217 -0.2813
  937SOL    HW1 2810   1.451   2.899   0.570 -0.5174 -2.8209 -0.0383
  937SOL    HW2 2811   1.472   2.736   0.568 -1.7063 -2.1976  1.2581
  938SOL     OW 2812   0.039   2.563   0.786  1.2130 -0.0587  0.3885
  938SOL    HW1 2813   3.045   2.602   0.729 -0.5863  1.1204 -2.6024
  938SOL    HW2 2814   0.024   2.567   0.889 -0.4648 -1.2687  2.0541
  939SOL     OW 2815   0.836   1.879   3.000 -0.0819 -0.1311  0.0179
  939SOL    HW1 2816   0.882   1.843   3.087  2.4364 -0.4084  0.4861
  939SOL    HW2 2817   0.814   1.979   3.015  0.3572 -3.6073 -0.5085
  940SOL     OW 2818   2.869   2.746   2.626 -0.2948  0.2189 -0.2210
  940SOL    HW1 2819   2.906   2.712   2.534 -1.1095  2.0585 -4.4283
  940SOL    HW2 2820   2.767   2.741   2.631  3.5429 -0.4423  4.9468
  941SOL     OW 2821   1.187   2.710   2.961  0.2950 -0.5060  0.6065
  941SOL    HW1 2822   1.159   2.803   2.997  0.3664  1.4381 -2.0142
  941SOL    HW2 2823   1.250   2.669   3.027 -1.8996  0.9421 -2.1897
  942SOL     OW 2824   1.755   1.760   1.475  0.4286  0.4079  0.2458
  942SOL    HW1 2825   1.681   1.694   1.502  4.0492 -0.8366 -0.8483
  942SOL    HW2 2826   1.750   1.770   1.370 -0.2697 -1.7011  1.2206
  943SOL     OW 2827   2.189   1.232   1.572  0.2219 -0.2805 -0.0320
  943SOL    HW1 2828   2.292   1.228   1.551 -1.3030 -2.1658 -1.6915
  943SOL    HW2 2829   2.168   1.307   1.637 -0.3257 -0.4213 -0.8359
  944SOL     OW 2830   1.918   0.989   1.890  0.1598 -0.2109  0.4262
  944SOL    HW1 2831   1.989   1.005   1.818 -0.6209  1.9121 -0.7419
  944SOL    HW2 2832   1.874   0.897   1.874 -0.3750  1.3219 -3.4452
  945SOL     OW 2833   0.070   0.149   1.336 -0.2020  0.3721  0.0005
  945SOL    HW1 2834   0.023   0.232   1.300 -2.1081  1.2946  0.5456
  945SOL    HW2 2835   0.068   0.075   1.266  0.9573  1.0936  2.5360
  946SOL     OW 2836   0.476   0.926   1.893 -0.0417  0.1033 -0.0451
  946SOL    HW1 2837   0.487   1.027   1.890 -0.8156  1.4520 -0.5913
  946SOL    HW2 2838   0.505   0.895   1.984 -0.8955 -0.0034 -1.4498
  947SOL     OW 2839   0.509   2.624   0.711  0.5509 -0.3974 -0.1165
  947SOL    HW1 2840   0.603   2.654   0.694 -1.2437  0.5454 -0.5660
  947SOL    HW2 2841   0.497   2.544   0.774  1.4175  0.0448 -1.4361
  948SOL     OW 2842   2.914   1.178   1.927  0.2479 -0.3026  0.4727
  948SOL    HW1 2843   2.998   1.216   1.881 -2.4000  1.0313 -0.5728
  948SOL    HW2 2844   2.891   1.077   1.902  1.1617 -0.5778 -0.8247
  949SOL     OW 2845   0.066   0.655   2.128 -0.4229 -0.0289 -0.1259
  949SOL    HW1 2846   0.162   0.666   2.161  0.7918  2.2759  1.0593
  949SOL    HW2 2847   0.062   0.602   2.042 -0.6767 -0.6209 -1.6803
  950SOL     OW 2848   0.747   0.685   1.072 -0.3743  0.0664 -0.0833
  950SOL    HW1 2849   0.668   0.746   1.047 -0.6002  0.0361 -2.1082
  950SOL    HW2 2850   0.709   0.608   1.128 -0.5690 -1.1998  0.7769
  951SOL     OW 2851   1.046   1.793   1.962 -0.4799 -0.2624 -0.0460
  951SOL    HW1 2852   1.102   1.793   2.044 -3.0763  1.1493 -0.8010
  951SOL    HW2 2853   1.011   1.698   1.947  1.5708 -0.5363  0.8050
  952SOL     OW 2854   0.885   1.494   2.868  0.4689  0.1632  0.0723
  952SOL    HW1 2855   0.930   1.520   2.958  0.3650  0.5564 -2.4560
  952SOL    HW2 2856   0.952   1.433   2.808  0.6952 -0.7025 -0.7238
  953SOL     OW 2857   1.541   2.929   2.151 -0.3036  0.1491 -0.5036
  953SOL    HW1 2858   1.465   2.862   2.136 -1.0292 -0.6796 -0.1332
  953SOL    HW2 2859   1.548   2.950   2.251 -0.0731  0.1567 -1.4028
  954SOL     OW 2860   2.094   1.339   0.465 -0.4487  0.6758 -0.0090
  954SOL    HW1 2861   2.072   1.437   0.446 -1.3419 -0.1243  1.8220
  954SOL    HW2 2862   2.164   1.307   0.396 -0.0472  0.9217  0.6683
  955SOL     OW 2863   0.423   2.017   2.316 -0.0008 -0.0890  0.1028
  955SOL    HW1 2864   0.360   1.977   2.384  1.1032 -1.6015  0.1192
  955SOL    HW2 2865   0.427   1.964   2.228  0.3371 -0.5453 -1.7753
  956SOL     OW 2866   1.071   1.105   1.329 -0.3788 -0.1098 -0.2866
  956SOL    HW1 2867   1.038   1.014   1.359 -0.8962  1.3601 -1.0438
  956SOL    HW2 2868   1.157   1.091   1.278  1.1059 -1.3307 -2.1708
  957SOL     OW 2869   2.037   1.289   2.565  0.1544  0.3764 -0.2089
  957SOL    HW1 2870   1.966   1.355   2.593  0.8600 -0.2766 -0.5332
  957SOL    HW2 2871   2.020   1.193   2.595  0.3876  0.4767  2.6278
  958SOL     OW 2872   1.683   2.441   0.878  0.0896  0.0992 -0.3547
  958SOL    HW1 2873   1.623   2.499   0.938 -0.7912  0.8095  1.4357
  958SOL    HW2 2874   1.760   2.400   0.932  3.5864 -1.8162  0.7524
  959SOL     OW 2875   1.930   1.830   2.478 -0.2696 -0.4164 -0.1922
  959SOL    HW1 2876   2.025   1.789   2.464 -0.6600 -0.9087  1.8443
  959SOL    HW2 2877   1.892   1.798   2.567 -2.7792 -0.9716  0.5043
  960SOL     OW 2878   0.383   0.521   3.022  0.1122 -0.2606 -0.1550
  960SOL    HW1 2879   0.435   0.585   3.081  0.0425 -2.6626 -1.4875
  960SOL    HW2 2880   0.437   0.434   2.999  0.7453 -3.7774 -0.5856
  961SOL     OW 2881   0.339   0.387   1.987 -0.2914  0.4617 -0.0643
  961SOL    HW1 2882   0.242   0.400   2.021 -0.3613  0.5505 -1.3870
  961SOL    HW2 2883   0.348   0.302   1.926  0.2779 -1.4014 -0.9042
  962SOL     OW 2884   1.122   1.405   0.145 -0.6664  0.0895  0.4164
  962SOL    HW1 2885   1.214   1.444   0.166 -0.8794  2.1811  0.4996
  962SOL    HW2 2886   1.083   1.345   0.215 -0.5882 -0.6078  0.5470
  963SOL     OW 2887   1.635   2.105   2.870  0.6548 -0.2053  0.1369
  963SOL    HW1 2888   1.725   2.117   2.913 -0.9702 -1.7214  0.2810
  963SOL    HW2 2889   1.575   2.182   2.895  2.6243 -0.0652 -2.2372
  964SOL     OW 2890   1.143   2.948   0.684 -0.0708  0.0365 -0.1514
  964SOL    HW1 2891   1.195   3.031   0.653  2.6186 -1.3327  0.4956
  964SOL    HW2 2892   1.211   2.884   0.731 -0.5624 -1.5550  1.7366
  965SOL     OW 2893   0.756   2.802   0.979  0.9056 -0.0823  0.5157
  965SOL    HW1 2894   0.746   2.762   0.885  0.0986 -2.1759  0.1445
  965SOL    HW2 2895   0.686   2.874   1.005  0.3259  1.0196  2.3858
  966SOL     OW 2896   2.966   1.320   2.956 -0.2366 -0.2230 -0.0656
  966SOL    HW1 2897   3.011   1.315   2.866 -1.4440  1.1048 -1.3375
  966SOL    HW2 2898   2.865   1.334   2.947  0.7300 -2.9937 -0.5991
  967SOL     OW 2899   1.502   2.804   1.687  0.1910 -0.3999 -0.4076
  967SOL    HW1 2900   1.443   2.727   1.714 -1.3193  1.9571 -1.5062
  967SOL    HW2 2901   1.459   2.898   1.705  0.5127  1.5489  0.0311
  968SOL     OW 2902   1.772   0.950   0.800 -0.1142 -0.1267 -0.4270
  968SOL    HW1 2903   1.682   0.933   0.760  2.2729  2.6505 -0.4247
  968SOL    HW2 2904   1.771   0.949   0.901 -1.3386  0.6640  1.2650
  969SOL     OW 2905   0.247   1.690   2.141 -0.2911 -0.2989  0.2489
  969SOL    HW1 2906   0.207   1.655   2.052 -4.8870  0.5940 -1.2720
  969SOL    HW2 2907   0.320   1.758   2.132 -1.8931 -2.5261 -2.0785
  970SOL     OW 2908   2.766   1.654   1.532  0.0883  0.1715  0.3075
  970SOL    HW1 2909   2.846   1.614   1.490  0.2658  1.7987  0.3993
  970SOL    HW2 2910   2.683   1.591   1.522 -1.5647 -0.2959  1.3995
  971SOL     OW 2911   1.263   0.473   1.515  0.1258 -0.0680 -0.0765
  971SOL    HW1 2912   1.204   0.502   1.593 -0.1347  1.0609  3.0988
  971SOL    HW2 2913   1.361   0.482   1.546 -0.3322 -1.0707 -0.2511
  972SOL     OW 2914   0.908   0.286   2.547  0.0390 -0.1789  0.3105
  972SOL    HW1 2915   0.984   0.219   2.528 -0.8239 -1.3619 -2.9709
  972SOL    HW2 2916   0.926   0.378   2.503 -1.3250  1.4556 -1.8347
  973SOL     OW 2917   2.741   1.316   0.773 -0.2591 -0.3801  0.4847
  973SOL    HW1 2918   2.777   1.342   0.682 -1.9435  1.6848 -0.9538
  973SOL    HW2 2919   2.816   1.282   0.838  3.4770 -0.2735  0.5649
  974SOL     OW 2920   1.854   1.276   2.026  0.0552 -0.3052 -0.3356
  974SOL    HW1 2921   1.758   1.299   2.056 -1.6850  0.7525 -0.6404
  974SOL    HW2 2922   1.860   1.182   1.985  0.8175 -0.1674 -1.4810
  975SOL     OW 2923   0.043   2.933   0.509  0.0309 -0.0148 -0.4445
  975SOL    HW1 2924   0.015   2.895   0.600  1.9831 -1.7154  1.9846
  975SOL    HW2 2925   0.007   3.029   0.498  0.6496  1.0526  0.8988
  976SOL     OW 2926   3.061   1.795   1.709 -0.5063  0.0732  0.0929
  976SOL    HW1 2927   0.018   1.808   1.614 -0.6370 -0.1890  0.8304
  976SOL    HW2 2928   2.986   1.860   1.735 -1.5736  0.7617  0.3393
  977SOL     OW 2929   0.828   2.814   3.028 -0.0802 -0.2138 -0.1566
  977SOL    HW1 2930   0.779   2.891   3.071  0.2762 -1.5166  0.5026
  977SOL    HW2 2931   0.817   2.817   2.928 -1.5550 -0.2550  2.1797
  978SOL     OW 2932   0.647   1.783   0.242  0.3607 -0.1758 -0.1058
  978SOL    HW1 2933   0.661   1.685   0.234  0.0976  1.7081 -0.6022
  978SOL    HW2 2934   0.736   1.831   0.252  2.5222  0.3544 -0.9186
  979SOL     OW 2935   1.255   2.123   0.983 -0.7863  0.1338  0.2515
  979SOL    HW1 2936   1.347   2.079   0.978 -1.7962 -0.9797 -0.4338
  979SOL    HW2 2937   1.218   2.117   1.077  0.5886 -1.2185 -0.1888
  980SOL     OW 2938   0.360   1.058   2.211  0.0888  0.2925  0.5355
  980SOL    HW1 2939   0.369   1.128   2.288 -3.1038 -0.6595  1.6274
  980SOL    HW2 2940   0.318   0.972   2.245  1.1468  0.9983 -1.4669
  981SOL     OW 2941   2.927   1.104   0.037 -0.2288  0.1331 -0.7074
  981SOL    HW1 2942   2.980   1.033   3.075 -0.4449  1.9798 -0.2224
  981SOL    HW2 2943   2.922   1.187   3.072 -1.6929 -1.0820 -0.2222
  982SOL     OW 2944   2.642   2.902   2.917  0.2764 -0.0105 -0.7727
  982SOL    HW1 2945   2.710   2.827   2.944  0.1890 -0.3303  2.1293
  982SOL    HW2 2946   2.680   2.991   2.954  1.7856  2.3300 -1.3692
  983SOL     OW 2947   2.059   0.608   1.317 -0.0703  0.5686  0.7333
  983SOL    HW1 2948   2.072   0.660   1.401 -0.1563  0.2061 -1.1358
  983SOL    HW2 2949   1.977   0.551   1.312  1.8020  2.3383  2.1374
  984SOL     OW 2950   0.916   0.096   2.219 -0.4638  0.7589 -0.1343
  984SOL    HW1 2951   0.917   0.200   2.219  0.4553  0.0092 -0.9715
  984SOL    HW2 2952   1.015   0.058   2.222  2.3656 -0.8321  0.6713
  985SOL     OW 2953   1.497   2.009   2.164  0.0309  0.0407 -0.2877
  985SOL    HW1 2954   1.537   1.925   2.127 -0.4049  0.5925 -0.7726
  985SOL    HW2 2955   1.529   2.098   2.126 -0.2062 -1.6827  1.4498
  986SOL     OW 2956   1.980   0.194   2.116  0.2567 -0.0444  0.0919
  986SOL    HW1 2957   1.998   0.266   2.188  0.9338  0.7348  0.2341
  986SOL    HW2 2958   2.060   0.176   2.051  2.5023  1.5460 -1.6582
  987SOL     OW 2959   2.395   0.369   2.258 -0.5805  0.0082 -0.3162
  987SOL    HW1 2960   2.396   0.274   2.284  1.7468  4.8862 -0.2989
  987SOL    HW2 2961   2.386   0.385   2.157 -1.7360 -0.0902 -0.0240
  988SOL     OW 2962   2.584   0.441   2.446 -0.6650  0.7148 -0.1216
  988SOL    HW1 2963   2.614   0.535   2.426 -0.7757 -1.4072  1.8791
  988SOL    HW2 2964   2.526   0.409   2.367  0.1216  3.5547  2.3612
  989SOL     OW 2965   2.287   2.401   2.681 -0.6123 -0.7625 -0.5732
  989SOL    HW1 2966   2.349   2.477   2.703  0.6788 -0.8557 -1.5854
  989SOL    HW2 2967   2.336   2.320   2.644  0.4346  1.5238  0.4025
  990SOL     OW 2968   0.303   0.880   0.122 -0.0978  0.1943 -0.0339
  990SOL    HW1 2969   0.217   0.835   0.158 -1.0490  0.8541 -1.6758
  990SOL    HW2 2970   0.302   0.876   0.019  0.3191  0.1974 -1.6698
  991SOL     OW 2971   0.493   0.660   2.677 -0.5747  0.1724  0.3207
  991SOL    HW1 2972   0.477   0.565   2.712  0.7438 -1.6072 -0.1771
  991SOL    HW2 2973   0.576   0.701   2.719  3.1088  0.5861  0.8124
  992SOL     OW 2974   0.131   1.538   2.352 -0.2492  0.0068  0.0297
  992SOL    HW1 2975   0.176   1.568   2.271 -1.4570 -2.6716  0.7442
  992SOL    HW2 2976   0.060   1.469   2.325 -0.3298  1.0733  0.0669
  993SOL     OW 2977   0.682   0.062   0.705  0.3254  0.3454  0.7100
  993SOL    HW1 2978   0.648   0.149   0.656  0.4811 -0.7027  0.6609
  993SOL    HW2 2979   0.742   0.085   0.783  0.9800 -0.3156  2.2677
  994SOL     OW 2980   0.401   1.991   1.796 -0.0961  0.5690 -0.4875
  994SOL    HW1 2981   0.334   2.064   1.779  2.7161  0.9083  3.9406
  994SOL    HW2 2982   0.444   1.965   1.707  0.1510  1.7924  0.6077
  995SOL     OW 2983   2.440   1.781   3.031  0.8754 -0.1869  0.6007
  995SOL    HW1 2984   2.494   1.838   2.966  0.6856  1.1701  1.1406
  995SOL    HW2 2985   2.353   1.821   3.064  3.1948  1.5869 -1.2393
  996SOL     OW 2986   1.803   1.445   2.561  0.0651 -0.4068 -0.0733
  996SOL    HW1 2987   1.794   1.499   2.648  0.6359  2.0176  0.8509
  996SOL    HW2 2988   1.746   1.485   2.487  1.5069  0.2923 -0.6934
  997SOL     OW 2989   1.643   1.399   1.728 -0.3138 -0.0681 -0.8032
  997SOL    HW1 2990   1.738   1.414   1.766  3.2373  0.3606  0.4688
  997SOL    HW2 2991   1.640   1.309   1.683  1.3351  1.3691  3.7641
  998SOL     OW 2992   2.419   2.025   0.768 -0.3189 -0.1053  0.5639
  998SOL    HW1 2993   2.483   2.014   0.847 -0.3248  1.7228  0.7927
  998SOL    HW2 2994   2.350   1.952   0.755  0.2957 -0.9380 -5.1470
  999SOL     OW 2995   2.418   2.529   0.598  0.3556  0.0157  0.5159
  999SOL    HW1 2996   2.448   2.619   0.563 -1.3886  0.6261  0.4912
  999SOL    HW2 2997   2.406   2.468   0.519  2.1798 -0.4245 -1.4196
 1000SOL     OW 2998   0.771   3.000   2.395 -0.1415  0.7894 -0.5446
 1000SOL    HW1 2999   0.718   3.076   2.440 -0.7271 -1.8546 -1.5313
 1000SOL    HW2 3000   0.812   3.038   2.309 -1.0972  0.5986 -0.6671
   3.08736   3.08736   3.08736
