1000 SPC/Fw water molecules t= 135.00000 step= 135000
 3000
    1SOL     OW    1   2.238   2.315   0.952  0.2158  0.0054  0.5464
    1SOL    HW1    2   2.179   2.397   0.936 -3.1293  0.2298  0.8567
    1SOL    HW2    3   2.184   2.236   0.924 -0.4193  0.7604  1.1581
    2SOL     OW    4   1.689   1.829   2.324  0.2540  1.1091 -0.4831
    2SOL    HW1    5   1.591   1.838   2.292  1.1148  0.3730 -1.1810
    2SOL    HW2    6   1.686   1.765   2.408  0.0019 -1.6836  1.4201
    3SOL     OW    7   1.597   2.525   2.264 -0.1287 -0.7689 -0.6707
    3SOL    HW1    8   1.648   2.594   2.320  0.0921  1.0193  1.9990
    3SOL    HW2    9   1.656   2.483   2.187 -0.7523 -1.3938 -2.5148
    4SOL     OW   10   1.400   2.516   2.090 -0.4200  0.0121  0.2295
    4SOL    HW1   11   1.487   2.543   2.135 -0.2438  2.9910 -0.6802
    4SOL    HW2   12   1.378   2.419   2.107  1.3162  1.0875  0.7800
    5SOL     OW   13   0.521   0.616   1.572  0.3155  0.2739 -0.7157
    5SOL    HW1   14   0.501   0.517   1.549 -0.3436 -2.3453  1.0147
    5SOL    HW2   15   0.438   0.670   1.569  2.6540  0.5641 -0.2602
    6SOL     OW   16   2.532   1.003   3.038 -0.5183 -0.3877  0.2738
    6SOL    HW1   17   2.497   0.909   3.063  4.4678  0.5701 -0.6349
    6SOL    HW2   18   2.601   0.995   2.960  1.2296  0.9932 -3.4469
    7SOL     OW   19   0.452   0.091   1.575  0.5986  0.4249 -0.2797
    7SOL    HW1   20   0.500   0.103   1.666 -0.6438 -0.1661  1.7413
    7SOL    HW2   21   0.396   0.004   1.567 -0.1047 -0.9641 -0.3667
    8SOL     OW   22   1.046   2.694   1.657  0.8057  0.2267  0.4247
    8SOL    HW1   23   0.981   2.669   1.576 -3.4308 -0.2907 -2.3782
    8SOL    HW2   24   1.136   2.653   1.643 -2.0529  0.9292  0.0987
    9SOL     OW   25   0.786   0.869   0.375 -0.0764 -0.3596  0.1373
    9SOL    HW1   26   0.693   0.879   0.414  2.8528 -1.5693  2.9249
    9SOL    HW2   27   0.838   0.951   0.400  0.3735  1.2017 -0.8307
   10SOL     OW   28   0.699   2.329   2.446  0.0937  0.2368  0.3396
   10SOL    HW1   29   0.619   2.308   2.506  0.2673  0.2564 -1.9097
   10SOL    HW2   30   0.676   2.393   2.370  1.4806  0.2594 -0.3185
   11SOL     OW   31   0.350   1.852   0.212  0.0128 -0.2763 -0.2144
   11SOL    HW1   32   0.251   1.846   0.189  0.0505 -1.0520  0.0485
   11SOL    HW2   33   0.363   1.843   0.316  2.2790 -0.6884  0.9826
   12SOL     OW   34   0.592   3.069   1.350  0.3531 -0.0825 -0.2886
   12SOL    HW1   35   0.535   0.044   1.414 -2.6925 -0.3880  1.3978
   12SOL    HW2   36   0.532   3.029   1.277  1.1676 -1.3404 -1.4640
   13SOL     OW   37   0.688   2.647   0.108 -0.0975 -0.0823  0.5561
   13SOL    HW1   38   0.766   2.588   0.128  2.0537  2.2524  0.2772
   13SOL    HW2   39   0.725   2.747   0.107  0.0149  2.5794  2.9151
   14SOL     OW   40   1.518   1.634   0.952  0.6324  0.2762  0.2729
   14SOL    HW1   41   1.556   1.702   1.018 -1.4608 -0.4141 -1.3740
   14SOL    HW2   42   1.568   1.635   0.864  0.3249 -1.9400  1.5367
   15SOL     OW   43   2.784   0.935   2.420  1.1177 -0.7756  0.2525
   15SOL    HW1   44   2.875   0.893   2.453 -0.5747 -0.6959 -0.0292
   15SOL    HW2   45   2.735   0.990   2.492 -1.3878  0.0159 -2.1269
   16SOL     OW   46   1.542   2.902   0.028 -0.2580  0.2762  0.1175
   16SOL    HW1   47   1.505   2.963   3.042 -0.9468 -0.4022 -2.8092
   16SOL    HW2   48   1.641   2.909   0.041 -0.3140 -0.0902  2.3055
   17SOL     OW   49   0.824   2.376   2.027  0.5002  0.1808 -0.2195
   17SOL    HW1   50   0.815   2.287   2.078 -0.8186  0.2151  1.7020
   17SOL    HW2   51   0.785   2.455   2.079  0.7787 -0.0636  2.3100
   18SOL     OW   52   1.637   1.080   0.427 -0.3288  0.3540  0.0469
   18SOL    HW1   53   1.635   1.181   0.417 -0.0886 -2.4496 -0.6961
   18SOL    HW2   54   1.547   1.030   0.449 -1.8951 -0.4513  0.8688
   19SOL     OW   55   2.296   2.187   2.713  0.2450  0.4223  0.1482
   19SOL    HW1   56   2.367   2.174   2.785 -0.9533 -0.2039 -1.9276
   19SOL    HW2   57   2.257   2.095   2.677  0.8740 -0.7022 -0.8644
   20SOL     OW   58   2.379   1.971   2.368 -0.3318 -0.1787  0.5360
   20SOL    HW1   59   2.377   1.973   2.267 -2.2348  1.3470 -1.7131
   20SOL    HW2   60   2.464   2.019   2.393  0.0276 -2.6474  0.9101
   21SOL     OW   61   0.455   2.133   0.043  0.2916  0.0968  0.0910
   21SOL    HW1   62   0.437   2.141   0.145 -0.1069  0.9902  0.8332
   21SOL    HW2   63   0.482   2.040   0.016 -1.8420  2.2160 -2.7435
   22SOL     OW   64   2.254   2.922   1.439  0.2975 -0.1577  0.2828
   22SOL    HW1   65   2.281   3.004   1.492  1.4513 -0.7235 -3.4439
   22SOL    HW2   66   2.283   2.834   1.483  0.3596  1.3294 -1.2831
   23SOL     OW   67   0.277   1.385   1.500  0.4215  0.0502  0.1144
   23SOL    HW1   68   0.292   1.435   1.587  1.2537 -0.2826 -2.2447
   23SOL    HW2   69   0.332   1.299   1.507 -2.1320  2.6682 -2.4374
   24SOL     OW   70   2.191   1.895   1.426  0.3035  0.2442  0.2047
   24SOL    HW1   71   2.289   1.888   1.402  1.5060 -1.4693  0.2345
   24SOL    HW2   72   2.177   1.979   1.491 -3.1523  2.8955  0.1630
   25SOL     OW   73   1.959   3.018   2.856  0.1448  0.1796 -0.1484
   25SOL    HW1   74   2.061   3.005   2.861 -1.5425 -1.0731  0.0378
   25SOL    HW2   75   1.922   2.970   2.773  2.1121  0.9567 -0.0261
   26SOL     OW   76   1.255   3.057   0.972 -0.2132 -0.1946 -0.4013
   26SOL    HW1   77   1.339   0.002   0.925 -1.9641  3.4836 -2.3201
   26SOL    HW2   78   1.224   0.044   1.035 -0.7944 -1.7887  1.5815
   27SOL     OW   79   1.048   2.007   2.893 -0.3663  0.4889 -0.6823
   27SOL    HW1   80   1.096   2.076   2.953 -0.9716  2.1697  0.9878
   27SOL    HW2   81   0.959   1.988   2.947 -0.4307  2.4415  0.8456
   28SOL     OW   82   2.888   1.728   1.362 -0.6046 -0.1387  0.0366
   28SOL    HW1   83   2.868   1.646   1.424  0.7974  1.6654  3.5963
   28SOL    HW2   84   2.994   1.727   1.349  1.4308 -2.4827 -3.8060
   29SOL     OW   85   2.291   2.461   2.051 -0.1069 -0.2609 -0.2768
   29SOL    HW1   86   2.343   2.494   2.131  3.1704 -2.2062 -0.7693
   29SOL    HW2   87   2.206   2.520   2.042  1.1450  0.9638 -0.0206
   30SOL     OW   88   1.008   2.749   1.162  0.1440 -0.4875 -0.5391
   30SOL    HW1   89   1.084   2.799   1.212  0.4311  0.3075  0.2959
   30SOL    HW2   90   0.990   2.811   1.083 -0.8327  1.8649 -0.2070
   31SOL     OW   91   3.049   2.088   2.049 -0.0884  0.5903  0.0148
   31SOL    HW1   92   3.005   1.999   2.036 -1.3643 -0.1095 -0.5304
   31SOL    HW2   93   0.056   2.093   2.006 -0.6857  0.0480 -0.3472
   32SOL     OW   94   1.458   1.140   2.098  0.8845  0.2178 -0.0881
   32SOL    HW1   95   1.435   1.045   2.075 -2.4775 -0.2923  0.6533
   32SOL    HW2   96   1.389   1.179   2.161 -2.7090  0.6899 -1.5527
   33SOL     OW   97   0.403   2.942   2.566  0.3131  0.3670 -0.5580
   33SOL    HW1   98   0.304   2.941   2.535 -1.7899 -0.3681 -1.6382
   33SOL    HW2   99   0.452   2.854   2.555  0.5179  0.2501 -0.8048
   34SOL     OW  100   1.452   3.017   1.596 -0.1956 -0.2752 -0.2069
   34SOL    HW1  101   1.437   2.938   1.538  0.0794  0.8401 -0.7754
   34SOL    HW2  102   1.455   2.985   1.694 -1.1741 -0.8680  4.2025
   35SOL     OW  103   1.939   0.413   1.083  0.2139  0.3716 -0.5759
   35SOL    HW1  104   1.845   0.393   1.043 -1.7361  1.8185 -0.0059
   35SOL    HW2  105   1.948   0.353   1.164 -1.9021  2.3984  1.0582
   36SOL     OW  106   2.093   2.737   2.570  0.5216  0.0049  0.1109
   36SOL    HW1  107   2.184   2.701   2.593 -1.9359  0.7613  0.3641
   36SOL    HW2  108   2.078   2.716   2.473  1.0851  0.5582  2.8184
   37SOL     OW  109   1.132   2.294   2.638 -0.1801 -0.3080  0.4070
   37SOL    HW1  110   1.033   2.302   2.668 -0.1524  0.9974  0.5903
   37SOL    HW2  111   1.162   2.195   2.634 -0.1794 -1.7771 -0.7662
   38SOL     OW  112   2.516   0.547   2.836 -0.1311 -0.5752  0.3208
   38SOL    HW1  113   2.424   0.591   2.843 -1.3075  0.9889  1.4346
   38SOL    HW2  114   2.587   0.608   2.872 -0.8683 -0.7539 -0.9333
   39SOL     OW  115   2.109   2.132   2.088 -0.6657  0.3239  0.5210
   39SOL    HW1  116   2.046   2.056   2.112  1.0312  0.2290  2.7989
   39SOL    HW2  117   2.074   2.220   2.132 -1.6651  0.3594  2.9018
   40SOL     OW  118   0.300   0.351   3.026 -0.2737  0.2980  0.2977
   40SOL    HW1  119   0.342   0.432   3.070  1.6422 -0.7609  1.2145
   40SOL    HW2  120   0.259   0.286   0.011 -2.5750 -1.5659 -0.0234
   41SOL     OW  121   1.297   1.132   1.605  0.4079  0.0992 -0.1040
   41SOL    HW1  122   1.250   1.121   1.514 -1.2811  0.2817 -1.9771
   41SOL    HW2  123   1.233   1.123   1.682  0.4447 -2.9306  2.0035
   42SOL     OW  124   0.174   0.168   2.032 -0.2511 -0.4568 -0.2528
   42SOL    HW1  125   0.117   0.219   1.966  0.8871  0.2532 -0.9337
   42SOL    HW2  126   0.277   0.182   2.011  5.5494  0.9168  0.7238
   43SOL     OW  127   1.687   1.418   2.205  0.0560 -0.2220 -0.2526
   43SOL    HW1  128   1.589   1.440   2.230  1.7311  1.2701  0.9044
   43SOL    HW2  129   1.694   1.378   2.112 -0.0046 -0.3344  0.0181
   44SOL     OW  130   0.081   2.697   2.647 -0.5931 -0.5660 -0.6613
   44SOL    HW1  131   0.066   2.767   2.721 -0.3706  1.2120 -1.7545
   44SOL    HW2  132   0.030   2.733   2.568  2.6416  1.0836  3.6228
   45SOL     OW  133   0.626   2.419   1.186 -0.2788 -0.5945 -0.1300
   45SOL    HW1  134   0.570   2.468   1.118  1.5900  0.5259  0.0558
   45SOL    HW2  135   0.721   2.403   1.152  0.4982 -2.3085  0.2017
   46SOL     OW  136   2.386   2.297   1.846 -0.1720 -0.1224 -0.1405
   46SOL    HW1  137   2.331   2.352   1.914 -0.4496 -0.2643 -0.0210
   46SOL    HW2  138   2.485   2.314   1.855  1.0046 -1.0226 -0.8317
   47SOL     OW  139   1.670   1.884   1.629 -0.1700 -0.3691 -0.5299
   47SOL    HW1  140   1.660   1.858   1.726 -3.7852 -0.6815  3.5958
   47SOL    HW2  141   1.738   1.822   1.584  1.2137  1.3497 -0.0342
   48SOL     OW  142   0.318   2.058   0.660  0.5014 -0.7021  0.0238
   48SOL    HW1  143   0.369   2.083   0.745  0.1157  0.6422 -2.1121
   48SOL    HW2  144   0.285   2.144   0.610 -0.6809  0.3907 -1.5064
   49SOL     OW  145   3.072   0.775   2.173 -0.0304  0.2017 -0.1164
   49SOL    HW1  146   0.083   0.744   2.193 -1.8619  0.1978 -0.7237
   49SOL    HW2  147   3.042   0.844   2.244  0.5786  0.9374  3.4686
   50SOL     OW  148   2.189   0.734   0.924  0.5051  0.6727 -0.6271
   50SOL    HW1  149   2.155   0.812   0.870 -1.5981  0.4023  1.6852
   50SOL    HW2  150   2.111   0.711   0.990 -0.7395  0.2074 -1.3063
   51SOL     OW  151   1.296   0.583   0.713 -0.4082 -0.1182  0.3277
   51SOL    HW1  152   1.217   0.598   0.780 -0.1997  0.7017 -0.9063
   51SOL    HW2  153   1.384   0.601   0.762  1.3554  1.5656  1.8162
   52SOL     OW  154   1.282   1.244   0.258 -0.1120 -0.0349  0.5195
   52SOL    HW1  155   1.279   1.166   0.192 -0.4265 -2.2686  1.6665
   52SOL    HW2  156   1.221   1.225   0.338  1.2019  0.2754 -2.5604
   53SOL     OW  157   1.116   2.322   2.367  0.0565  0.1239  0.5653
   53SOL    HW1  158   1.183   2.302   2.294  1.1039 -1.2881  0.3219
   53SOL    HW2  159   1.148   2.311   2.462  1.0001  0.6057  0.2963
   54SOL     OW  160   1.381   0.887   1.737 -0.3537  0.0333 -0.3741
   54SOL    HW1  161   1.337   0.800   1.715  0.3855  2.7129  0.0521
   54SOL    HW2  162   1.391   0.954   1.661  1.4137  1.3369 -1.0116
   55SOL     OW  163   2.060   2.928   0.699  0.4547 -0.1435 -0.2884
   55SOL    HW1  164   1.964   2.902   0.687  1.7331  0.1918  0.4202
   55SOL    HW2  165   2.077   3.008   0.640  1.8470  0.9996 -2.4981
   56SOL     OW  166   0.871   2.660   1.449  0.0056  0.0618 -0.0120
   56SOL    HW1  167   0.879   2.653   1.347  1.8985  0.6391 -0.5707
   56SOL    HW2  168   0.792   2.715   1.478  0.1406 -3.7904  1.7931
   57SOL     OW  169   1.955   0.813   2.881  0.2109  0.3830  0.4990
   57SOL    HW1  170   2.054   0.843   2.874  1.4953  4.8709 -1.7012
   57SOL    HW2  171   1.903   0.889   2.910  2.4122 -1.9001  0.1865
   58SOL     OW  172   3.038   0.962   1.884 -0.2008 -0.2089  0.1464
   58SOL    HW1  173   3.009   0.937   1.975  0.5113  1.2960 -0.4541
   58SOL    HW2  174   2.960   0.988   1.822  0.5700  1.0875  0.1199
   59SOL     OW  175   0.685   2.515   2.245 -1.0274 -0.5314  0.0660
   59SOL    HW1  176   0.601   2.497   2.196  3.4560  2.9097  1.5673
   59SOL    HW2  177   0.709   2.613   2.236 -0.8100 -3.7410 -0.7660
   60SOL     OW  178   2.568   2.514   1.138  0.2113  0.3743 -0.6854
   60SOL    HW1  179   2.552   2.466   1.050  1.1394  0.9788 -0.2133
   60SOL    HW2  180   2.671   2.522   1.145 -0.4775  0.3592  0.1611
   61SOL     OW  181   1.016   2.217   0.486 -0.0329 -0.4162 -0.4987
   61SOL    HW1  182   1.055   2.237   0.392  0.5561 -0.3087 -0.6634
   61SOL    HW2  183   0.962   2.131   0.488 -1.0738 -1.8262 -0.8416
   62SOL     OW  184   2.199   2.742   2.969 -0.1247  0.1348  0.6282
   62SOL    HW1  185   2.228   2.659   2.912 -1.2676  0.0722 -0.9564
   62SOL    HW2  186   2.097   2.734   2.989  0.8452 -1.1751 -0.0787
   63SOL     OW  187   2.189   0.117   0.034  0.1662 -0.0566  0.1615
   63SOL    HW1  188   2.190   0.051   3.040  0.0629 -3.6261 -3.0369
   63SOL    HW2  189   2.121   0.185   0.019  2.1034 -2.1858 -1.7213
   64SOL     OW  190   0.927   1.051   2.496 -0.0120 -0.5695  0.1096
   64SOL    HW1  191   0.877   1.137   2.523  2.1925 -0.1382 -0.4823
   64SOL    HW2  192   0.907   0.978   2.564 -2.1984  1.1884 -2.8097
   65SOL     OW  193   1.205   2.620   0.435  0.1387  0.1273  0.3744
   65SOL    HW1  194   1.216   2.528   0.392 -1.3436  0.4064 -0.2560
   65SOL    HW2  195   1.295   2.669   0.438 -1.3093 -2.3526  0.6273
   66SOL     OW  196   0.619   1.627   1.560 -0.7440  0.4419 -0.0773
   66SOL    HW1  197   0.709   1.626   1.610  0.4374 -1.1675 -0.9198
   66SOL    HW2  198   0.540   1.605   1.619  2.3376  1.0152  0.4321
   67SOL     OW  199   2.538   3.028   2.116  0.4023 -0.3925 -0.2277
   67SOL    HW1  200   2.557   3.025   2.217 -2.1835  1.8265 -1.7475
   67SOL    HW2  201   2.475   0.016   2.088  0.3256 -0.7373  0.6838
   68SOL     OW  202   0.886   0.762   1.249 -0.0075 -0.0950 -0.3932
   68SOL    HW1  203   0.862   0.661   1.245 -1.8080 -2.5146  2.4575
   68SOL    HW2  204   0.812   0.808   1.299  0.2427  2.2901  2.2508
   69SOL     OW  205   2.042   2.883   0.253 -0.0845  0.9658 -0.4943
   69SOL    HW1  206   1.964   2.946   0.261  1.2905 -0.0057 -1.5624
   69SOL    HW2  207   2.125   2.938   0.269 -3.1375 -0.2685  2.3889
   70SOL     OW  208   2.682   1.045   2.763 -0.4235  0.2984  0.0681
   70SOL    HW1  209   2.711   1.144   2.772 -0.4602  0.2988 -0.6857
   70SOL    HW2  210   2.761   0.982   2.763 -1.9582 -0.4768  3.3103
   71SOL     OW  211   2.721   1.869   0.036 -0.3777 -0.2601 -0.4729
   71SOL    HW1  212   2.727   1.953   3.062  0.0752  3.2745 -2.8775
   71SOL    HW2  213   2.700   1.786   3.065  0.7633  0.1114 -0.4957
   72SOL     OW  214   0.103   1.760   0.453  0.0796 -0.5199  0.0384
   72SOL    HW1  215   0.103   1.677   0.390 -0.2415 -0.3065  0.6099
   72SOL    HW2  216   0.199   1.793   0.464  1.6243  0.4491  0.4226
   73SOL     OW  217   1.068   1.281   0.474  0.6318 -0.1922  0.2121
   73SOL    HW1  218   1.103   1.243   0.565  1.5515 -1.2065  0.0732
   73SOL    HW2  219   1.067   1.385   0.476  0.1767  2.4518  0.4724
   74SOL     OW  220   0.371   1.835   2.027 -0.1540 -0.6511 -0.0962
   74SOL    HW1  221   0.311   1.916   2.020  0.3854 -1.6614 -1.0954
   74SOL    HW2  222   0.439   1.837   1.947 -1.0169  2.1419 -1.5130
   75SOL     OW  223   1.646   1.506   1.726 -0.0318 -0.0878 -0.2902
   75SOL    HW1  224   1.616   1.560   1.807  2.2159 -0.7086 -1.5421
   75SOL    HW2  225   1.571   1.443   1.694  0.6146  2.2647 -0.2606
   76SOL     OW  226   2.190   2.460   1.295  0.3158  0.2966 -0.2889
   76SOL    HW1  227   2.225   2.442   1.388  0.1949 -0.9494 -0.5011
   76SOL    HW2  228   2.240   2.409   1.223 -0.2836 -2.0287 -2.0600
   77SOL     OW  229   2.540   1.329   1.633  0.4002  0.1393 -0.1340
   77SOL    HW1  230   2.536   1.288   1.729  1.9928 -2.6682  1.9298
   77SOL    HW2  231   2.600   1.415   1.633  3.2398 -1.6957  1.3408
   78SOL     OW  232   1.571   0.766   0.358  0.5607  0.2170  0.6034
   78SOL    HW1  233   1.602   0.861   0.360 -2.3201 -0.3593  1.0429
   78SOL    HW2  234   1.483   0.761   0.304 -0.9975  0.0308  0.3495
   79SOL     OW  235   2.295   1.556   1.604 -0.4338  0.2548  0.5090
   79SOL    HW1  236   2.317   1.491   1.531 -0.9143  0.0710  0.2771
   79SOL    HW2  237   2.344   1.645   1.594  0.4204 -3.0784  0.1047
   80SOL     OW  238   0.827   0.503   1.270  0.3838  0.3468 -0.3001
   80SOL    HW1  239   0.729   0.503   1.225 -1.0006 -2.2188 -2.8683
   80SOL    HW2  240   0.839   0.428   1.340  0.8799 -2.4222  0.6697
   81SOL     OW  241   0.761   2.965   0.898  0.0102  0.2836 -0.3500
   81SOL    HW1  242   0.773   3.017   0.813 -2.0524  2.8368  1.6039
   81SOL    HW2  243   0.854   2.944   0.935  2.1792 -1.2594 -0.2674
   82SOL     OW  244   1.402   3.016   1.867  0.1311  0.2935  0.4890
   82SOL    HW1  245   1.374   2.929   1.920  0.0883 -3.1185 -0.7291
   82SOL    HW2  246   1.466   3.057   1.939 -1.1950  0.0253  0.1535
   83SOL     OW  247   1.291   1.952   0.762  0.2276  0.1423  0.7280
   83SOL    HW1  248   1.338   1.973   0.845  0.0428  1.4627  1.0003
   83SOL    HW2  249   1.319   2.025   0.696 -0.7036 -0.7331 -0.3819
   84SOL     OW  250   0.111   1.566   2.833  0.0734  0.0357 -0.1963
   84SOL    HW1  251   0.091   1.480   2.788  0.3341  2.4429  0.3238
   84SOL    HW2  252   0.032   1.628   2.811  1.6386 -4.4277 -1.1426
   85SOL     OW  253   0.351   2.332   1.259  0.3196 -0.0233  0.0823
   85SOL    HW1  254   0.310   2.326   1.168  2.3921  0.6896  0.6838
   85SOL    HW2  255   0.432   2.391   1.268 -0.1810  0.2282 -2.6791
   86SOL     OW  256   2.276   2.366   1.571  0.8660  0.0692  0.0901
   86SOL    HW1  257   2.373   2.365   1.591 -1.6654 -0.4561 -1.3143
   86SOL    HW2  258   2.232   2.430   1.635 -1.8280 -2.0302  0.6973
   87SOL     OW  259   3.002   2.043   0.814  0.3325 -0.7710  0.1990
   87SOL    HW1  260   3.009   2.141   0.844  0.7671 -0.5147  2.7505
   87SOL    HW2  261   3.041   2.019   0.722 -0.6086 -1.4170  2.0633
   88SOL     OW  262   0.970   1.170   1.182 -0.3117  0.0363 -0.1195
   88SOL    HW1  263   0.932   1.240   1.118  1.5664  0.1571 -2.7337
   88SOL    HW2  264   0.957   1.080   1.132  0.6045  1.0071  1.3377
   89SOL     OW  265   1.019   3.029   2.228  0.4215 -0.2692 -0.2162
   89SOL    HW1  266   0.944   3.056   2.289  1.3729 -0.7738 -0.5515
   89SOL    HW2  267   0.981   3.015   2.137  2.7690  4.1309  3.2425
   90SOL     OW  268   2.935   1.960   1.682  0.3779  0.1132  0.8055
   90SOL    HW1  269   2.947   1.869   1.726  1.2898  0.3674  1.8687
   90SOL    HW2  270   3.028   1.994   1.655  1.5175 -0.2003 -0.8752
   91SOL     OW  271   1.438   2.000   1.517 -0.1840  0.9613 -0.5382
   91SOL    HW1  272   1.533   1.984   1.549  0.2558 -0.3942  0.6834
   91SOL    HW2  273   1.412   1.931   1.450  1.4287  3.3650 -0.2253
   92SOL     OW  274   2.697   2.761   1.468 -0.3178 -0.5001  0.4838
   92SOL    HW1  275   2.615   2.735   1.515  0.6372 -0.1180 -3.9103
   92SOL    HW2  276   2.676   2.849   1.422 -2.9803  1.0658  1.3304
   93SOL     OW  277   3.027   1.122   2.710  0.5703  0.0087  0.2157
   93SOL    HW1  278   0.029   1.085   2.753  0.2544  0.2411  0.2466
   93SOL    HW2  279   2.966   1.138   2.791  1.4839 -4.1661  1.9899
   94SOL     OW  280   2.709   2.570   2.040  0.0415  0.4750 -0.0043
   94SOL    HW1  281   2.749   2.639   2.103 -1.9596  1.3401 -2.1865
   94SOL    HW2  282   2.633   2.613   1.989 -0.4469  0.2097 -0.6871
   95SOL     OW  283   1.388   0.477   2.018  0.0778  0.5236 -0.2788
   95SOL    HW1  284   1.372   0.429   2.105 -0.2916 -1.3281 -0.5570
   95SOL    HW2  285   1.491   0.498   2.005  2.3307 -0.4064  0.5359
   96SOL     OW  286   2.486   0.675   1.535 -0.2380 -0.2497 -0.1674
   96SOL    HW1  287   2.562   0.610   1.517  0.8101 -0.4905  1.3822
   96SOL    HW2  288   2.411   0.647   1.600  0.5287 -0.8103 -2.4554
   97SOL     OW  289   2.003   0.328   1.708  0.2817 -0.1803 -0.1779
   97SOL    HW1  290   2.044   0.238   1.723 -0.1204  1.0387 -1.9091
   97SOL    HW2  291   1.905   0.320   1.702  3.0392  0.7877  1.7974
   98SOL     OW  292   2.019   2.895   1.290 -0.0504  0.2524  0.8981
   98SOL    HW1  293   2.105   2.905   1.346 -1.3245 -0.2823  0.8045
   98SOL    HW2  294   2.005   2.796   1.262 -1.8692 -4.2215  3.1547
   99SOL     OW  295   2.711   0.210   1.918 -0.0876  0.3943 -0.4968
   99SOL    HW1  296   2.757   0.188   2.007 -0.1245  1.3062  0.2324
   99SOL    HW2  297   2.726   0.300   1.879 -2.6104 -0.9904  2.8340
  100SOL     OW  298   2.279   1.367   1.829 -0.4368  0.2050  0.8390
  100SOL    HW1  299   2.309   1.440   1.762 -1.0573  0.6018  0.1697
  100SOL    HW2  300   2.356   1.305   1.840 -2.7508  1.0350 -1.6417
  101SOL     OW  301   1.521   0.070   0.862  0.2386  0.2650 -0.0092
  101SOL    HW1  302   1.483   0.163   0.850  0.7949 -0.0032  0.4307
  101SOL    HW2  303   1.593   0.070   0.935 -1.3182  0.5022 -0.6395
  102SOL     OW  304   0.637   1.004   1.175  0.1472  0.9181  0.2098
  102SOL    HW1  305   0.550   1.050   1.189  0.4732 -1.8037  2.1545
  102SOL    HW2  306   0.652   0.949   1.261 -1.2079  0.4265  0.3498
  103SOL     OW  307   2.871   0.462   2.992 -0.2428  0.4531 -0.1267
  103SOL    HW1  308   2.842   0.432   2.901  0.9795 -0.5869  1.7019
  103SOL    HW2  309   2.892   0.390   3.061  0.3411  0.5822  0.9201
  104SOL     OW  310   2.749   0.033   1.697  0.4202  0.2531 -0.1866
  104SOL    HW1  311   2.847   0.047   1.679 -3.5129  1.0560  0.7042
  104SOL    HW2  312   2.727   0.088   1.783 -2.1244  0.3432  0.7198
  105SOL     OW  313   1.894   0.501   2.161 -0.1353 -0.1060 -0.5874
  105SOL    HW1  314   1.923   0.570   2.228  1.6050 -0.0377 -1.7772
  105SOL    HW2  315   1.806   0.537   2.117 -0.1184  1.2939 -1.9154
  106SOL     OW  316   1.806   0.046   0.938  0.0167 -1.0330 -0.0576
  106SOL    HW1  317   1.892   0.036   0.997  1.3339  2.1370  1.6514
  106SOL    HW2  318   1.776   3.033   0.922  0.6614  0.6980  0.9272
  107SOL     OW  319   0.872   1.033   0.692  0.0680 -0.0086 -0.3299
  107SOL    HW1  320   0.830   1.119   0.646  0.7897  0.3145 -2.5099
  107SOL    HW2  321   0.825   1.025   0.784  1.8008 -2.1790  1.7887
  108SOL     OW  322   2.894   0.212   2.122 -0.1714  0.5814 -0.5576
  108SOL    HW1  323   2.979   0.262   2.165  4.2547 -2.1423  0.2378
  108SOL    HW2  324   2.921   0.118   2.087 -1.1735 -0.2812 -1.0969
  109SOL     OW  325   1.928   0.581   3.041  0.7248  0.0676  0.3951
  109SOL    HW1  326   1.834   0.554   3.018 -0.0323  3.0881 -2.6015
  109SOL    HW2  327   1.939   0.664   2.981 -1.1800 -0.2810 -2.4257
  110SOL     OW  328   0.166   2.196   2.811  0.3095  0.1442 -0.1853
  110SOL    HW1  329   0.115   2.264   2.754 -2.0629  0.1353  1.7249
  110SOL    HW2  330   0.117   2.181   2.897 -1.2461 -0.9936  1.4457
  111SOL     OW  331   2.202   0.169   2.020 -0.8418 -0.4168 -0.9096
  111SOL    HW1  332   2.154   0.257   2.010 -1.8314 -0.8854 -0.5633
  111SOL    HW2  333   2.300   0.175   1.983  0.6816 -1.0251  0.1600
  112SOL     OW  334   2.391   2.848   0.446 -0.2269  0.2319  0.0543
  112SOL    HW1  335   2.330   2.918   0.404  0.3947 -2.5977  0.2960
  112SOL    HW2  336   2.341   2.803   0.521 -1.6261  2.7322  1.1936
  113SOL     OW  337   2.455   1.782   1.615  0.2936  0.3941 -0.0170
  113SOL    HW1  338   2.516   1.819   1.539  2.2845  0.1843 -1.4831
  113SOL    HW2  339   2.447   1.856   1.684  2.1233  0.4927  2.7341
  114SOL     OW  340   2.931   0.828   0.799 -0.8770  0.2121 -0.2032
  114SOL    HW1  341   2.897   0.874   0.881 -2.6908 -2.9220 -2.0337
  114SOL    HW2  342   2.933   0.728   0.807  1.5021  3.1055 -0.3488
  115SOL     OW  343   2.818   1.824   0.290  0.7968 -0.3269 -0.5676
  115SOL    HW1  344   2.848   1.728   0.309  1.3551 -2.9192  0.2371
  115SOL    HW2  345   2.798   1.841   0.190  0.4770  0.1763  1.5469
  116SOL     OW  346   3.005   1.581   2.023  0.0072 -0.3702  0.4797
  116SOL    HW1  347   2.935   1.518   1.983 -1.6403  2.0530 -1.9758
  116SOL    HW2  348   3.079   1.538   2.077 -0.2986  0.2171 -0.7069
  117SOL     OW  349   2.610   0.157   0.514 -0.1723 -0.0723  0.0988
  117SOL    HW1  350   2.564   0.125   0.599 -0.3437 -1.5887 -2.8397
  117SOL    HW2  351   2.543   0.194   0.441 -1.2769 -2.4026  0.0409
  118SOL     OW  352   0.518   2.227   1.642 -0.1082 -0.0408  0.2708
  118SOL    HW1  353   0.588   2.269   1.709  1.7599  1.2252  2.0586
  118SOL    HW2  354   0.515   2.295   1.564  0.9030  1.9876 -0.9716
  119SOL     OW  355   1.794   2.188   1.092  0.0056  0.1031  0.4130
  119SOL    HW1  356   1.884   2.147   1.104 -1.3936  0.3731  0.5526
  119SOL    HW2  357   1.748   2.206   1.180 -0.5605 -0.8816  0.2204
  120SOL     OW  358   0.324   1.677   2.256 -0.1988  0.7528 -0.3454
  120SOL    HW1  359   0.374   1.633   2.332  1.1181 -2.1585  1.5912
  120SOL    HW2  360   0.368   1.758   2.222 -0.3749  0.9000 -0.0236
  121SOL     OW  361   2.769   1.630   1.104 -0.4052  0.4678  0.5175
  121SOL    HW1  362   2.814   1.671   1.190  2.2576  1.5676  0.0613
  121SOL    HW2  363   2.827   1.642   1.021  2.7022 -2.9613 -1.3508
  122SOL     OW  364   2.077   1.577   2.218 -0.1890 -0.3641 -0.4193
  122SOL    HW1  365   2.033   1.665   2.231  0.3928 -3.4243 -1.6967
  122SOL    HW2  366   2.081   1.533   2.311 -0.6361  3.6022  1.0877
  123SOL     OW  367   0.004   0.112   0.732 -0.1473  0.3466 -0.7301
  123SOL    HW1  368   3.006   0.086   0.786 -0.3352  2.2270 -0.0065
  123SOL    HW2  369   0.063   0.025   0.739  0.5500  0.8083  0.0512
  124SOL     OW  370   1.261   1.162   2.803 -0.3344 -0.2131  0.4665
  124SOL    HW1  371   1.239   1.112   2.712 -0.5469 -0.1534 -0.3810
  124SOL    HW2  372   1.324   1.113   2.859 -2.7861  0.6727 -3.1428
  125SOL     OW  373   0.339   1.408   2.636 -0.6989 -0.0542  0.3833
  125SOL    HW1  374   0.366   1.440   2.731  3.2459  1.2682  2.6989
  125SOL    HW2  375   0.239   1.402   2.632  1.3174  1.8282 -0.2703
  126SOL     OW  376   2.701   2.105   0.326 -0.5686  0.0347  0.2480
  126SOL    HW1  377   2.720   2.178   0.400 -0.1593  1.1261  0.1647
  126SOL    HW2  378   2.771   2.033   0.325 -1.7941 -1.4130  2.3489
  127SOL     OW  379   0.810   1.829   0.689 -1.0887 -0.6019 -0.3422
  127SOL    HW1  380   0.800   1.849   0.786  1.3602 -2.9800 -1.2408
  127SOL    HW2  381   0.744   1.886   0.634 -1.1839  1.2676  0.5473
  128SOL     OW  382   1.492   0.883   0.029 -0.3627  0.3230 -0.3827
  128SOL    HW1  383   1.560   0.809   0.060  2.1737 -1.9957  1.6890
  128SOL    HW2  384   1.516   0.928   3.027 -1.4654 -0.2789  1.7826
  129SOL     OW  385   2.352   1.687   1.156 -0.6022  0.6230 -0.5267
  129SOL    HW1  386   2.384   1.680   1.061 -2.5475 -1.0100 -0.5250
  129SOL    HW2  387   2.346   1.785   1.176 -0.9673  0.7400  0.1040
  130SOL     OW  388   1.963   1.290   0.627 -0.0393  0.3918  0.4914
  130SOL    HW1  389   1.948   1.361   0.560  0.4396 -0.6178  0.6616
  130SOL    HW2  390   1.944   1.328   0.715 -0.5155 -0.2939 -4.0515
  131SOL     OW  391   3.084   0.949   2.475 -0.4802 -0.3408 -0.3112
  131SOL    HW1  392   3.066   1.023   2.399 -1.1313  2.0039 -0.5982
  131SOL    HW2  393   0.014   0.988   2.568  0.1577  1.2132  3.7019
  132SOL     OW  394   2.083   1.704   1.608  0.0406  0.0956  0.0461
  132SOL    HW1  395   2.122   1.780   1.547 -1.0519  1.4528 -0.6458
  132SOL    HW2  396   2.149   1.622   1.600 -0.7279 -3.0515 -2.1746
  133SOL     OW  397   3.055   1.261   3.067  0.2610 -0.6192  0.2712
  133SOL    HW1  398   2.980   1.256   2.997 -2.9059 -1.4199  2.3502
  133SOL    HW2  399   3.070   1.173   0.030 -0.8624  2.1661 -1.5179
  134SOL     OW  400   0.094   1.500   0.011 -0.2708 -0.1656 -0.0573
  134SOL    HW1  401   0.053   1.409   0.018  0.7623  2.2292  0.6857
  134SOL    HW2  402   0.096   1.537   3.000 -1.8079 -2.0768 -0.5155
  135SOL     OW  403   2.362   1.302   0.422 -0.1890 -0.0083 -0.6424
  135SOL    HW1  404   2.306   1.360   0.359 -0.7709  0.2494 -0.6667
  135SOL    HW2  405   2.463   1.330   0.417  2.0408  1.1350  0.5436
  136SOL     OW  406   1.890   1.329   1.350 -0.1755 -0.5417  0.0518
  136SOL    HW1  407   1.985   1.335   1.315 -1.5400  1.3812 -1.3155
  136SOL    HW2  408   1.844   1.419   1.325 -3.7181  2.0870 -2.1743
  137SOL     OW  409   2.632   2.203   0.770  0.0443 -0.1809  1.3721
  137SOL    HW1  410   2.544   2.150   0.761  0.8911 -0.7333 -1.1148
  137SOL    HW2  411   2.682   2.216   0.684  0.5106 -2.4115  0.9169
  138SOL     OW  412   1.325   0.156   1.526 -0.2227  0.5621 -0.9470
  138SOL    HW1  413   1.366   0.064   1.535 -2.0302  2.0399  0.1109
  138SOL    HW2  414   1.341   0.207   1.611  0.7828  1.3909 -2.1729
  139SOL     OW  415   2.535   0.286   2.922 -0.0690 -0.0017  0.0236
  139SOL    HW1  416   2.532   0.388   2.907  2.0956 -0.0040  0.2136
  139SOL    HW2  417   2.568   0.261   3.015  1.1819  0.2365  1.6563
  140SOL     OW  418   1.650   2.169   2.587 -0.3581  0.4541  0.2510
  140SOL    HW1  419   1.731   2.221   2.562 -0.7980 -2.3127  2.3896
  140SOL    HW2  420   1.676   2.070   2.598  1.7752 -1.9034  2.2316
  141SOL     OW  421   0.730   0.986   1.657  0.7239 -0.4441  0.2885
  141SOL    HW1  422   0.649   0.969   1.714 -0.4990 -1.7414 -1.4340
  141SOL    HW2  423   0.813   0.947   1.701 -2.3622 -0.6330 -2.8383
  142SOL     OW  424   2.465   2.824   0.042  0.3320  0.2539  0.9859
  142SOL    HW1  425   2.381   2.817   0.095  0.8869 -1.5356 -2.0096
  142SOL    HW2  426   2.445   2.797   3.030  0.2125 -0.2898  0.5256
  143SOL     OW  427   0.716   2.148   2.826 -0.2691 -0.4818 -0.1346
  143SOL    HW1  428   0.764   2.224   2.777  0.3967  1.2441  2.6450
  143SOL    HW2  429   0.640   2.120   2.769 -0.4343  0.0462  0.6788
  144SOL     OW  430   1.052   2.636   0.086 -0.0141 -0.1028  0.4641
  144SOL    HW1  431   1.106   2.612   0.004 -0.4900 -0.0113  3.2418
  144SOL    HW2  432   0.987   2.565   0.116 -1.7777  1.4538 -1.4197
  145SOL     OW  433   2.158   1.725   0.047 -0.3314  0.0978  0.1772
  145SOL    HW1  434   2.244   1.762   0.093  1.5906  0.2255 -0.5206
  145SOL    HW2  435   2.079   1.787   0.059  0.4645 -0.2959 -1.0843
  146SOL     OW  436   2.731   2.713   3.033  0.2714 -0.2168  0.3445
  146SOL    HW1  437   2.735   2.816   3.047  0.6793  2.0633  1.0868
  146SOL    HW2  438   2.802   2.682   2.966 -0.9321  0.1775 -2.3544
  147SOL     OW  439   2.654   1.907   1.452 -0.3261  0.1083  0.2634
  147SOL    HW1  440   2.637   1.979   1.375 -1.1965  1.4614 -0.3142
  147SOL    HW2  441   2.738   1.854   1.438 -0.5190  1.7485  1.9536
  148SOL     OW  442   1.886   0.277   0.196  0.0850  0.2278  0.0276
  148SOL    HW1  443   1.955   0.308   0.130 -0.8619 -0.8029 -0.1602
  148SOL    HW2  444   1.791   0.306   0.174 -4.9893  3.0303 -1.1103
  149SOL     OW  445   1.037   1.596   2.735  0.5906  0.3041  0.0189
  149SOL    HW1  446   1.062   1.522   2.800  1.0379  1.6989  0.4749
  149SOL    HW2  447   0.974   1.556   2.662  1.4618  0.9441 -0.0218
  150SOL     OW  448   0.743   2.233   0.598 -0.1664 -0.5249 -0.4303
  150SOL    HW1  449   0.717   2.216   0.692  1.1633  2.6428 -3.6846
  150SOL    HW2  450   0.820   2.297   0.594 -2.3076 -3.0634  1.0803
  151SOL     OW  451   0.547   1.702   2.884  0.0880 -0.1385 -0.6468
  151SOL    HW1  452   0.519   1.607   2.878  0.1214 -0.4436  2.6847
  151SOL    HW2  453   0.621   1.728   2.819  3.6037  0.5527  0.4049
  152SOL     OW  454   2.616   1.408   0.428 -0.4095 -0.0771  0.0051
  152SOL    HW1  455   2.604   1.459   0.341 -1.9411 -0.0958  1.2606
  152SOL    HW2  456   2.712   1.410   0.462  1.1570 -2.1319  3.5261
  153SOL     OW  457   2.063   2.512   0.617 -0.2684  0.4333 -0.2333
  153SOL    HW1  458   2.077   2.415   0.584  0.8112  0.0666  1.0194
  153SOL    HW2  459   1.999   2.561   0.555 -1.1508 -2.2242  0.6590
  154SOL     OW  460   0.526   3.052   0.983 -0.0883 -0.3237  0.3227
  154SOL    HW1  461   0.547   0.069   0.978  1.6081  2.0514 -0.8768
  154SOL    HW2  462   0.612   2.998   0.951  0.7778  0.8886 -2.2978
  155SOL     OW  463   0.459   2.142   0.888  0.0516 -0.1209  0.1654
  155SOL    HW1  464   0.561   2.149   0.886 -1.9795  1.4195 -0.2000
  155SOL    HW2  465   0.411   2.207   0.953 -1.1215  2.8543 -0.7314
  156SOL     OW  466   2.554   2.512   3.067  0.0328  0.2041  0.1698
  156SOL    HW1  467   2.605   2.435   0.024  2.2535 -1.3451  0.2855
  156SOL    HW2  468   2.606   2.600   3.054  0.7842  2.0557  2.0175
  157SOL     OW  469   1.133   2.166   1.288 -0.4232  0.0979  0.0623
  157SOL    HW1  470   1.147   2.209   1.380 -1.4240  0.6395 -1.0028
  157SOL    HW2  471   1.037   2.141   1.272 -2.2155  1.1447  1.8570
  158SOL     OW  472   1.673   0.604   2.874 -0.1378  0.2029  0.7417
  158SOL    HW1  473   1.684   0.502   2.890  1.1053  0.1168  0.3806
  158SOL    HW2  474   1.697   0.628   2.779  0.7409 -0.1557  1.8596
  159SOL     OW  475   1.021   0.448   2.879 -0.5889  0.2425 -0.2805
  159SOL    HW1  476   1.028   0.496   2.968 -1.7160  2.4021  0.6428
  159SOL    HW2  477   1.109   0.398   2.857 -1.1767  0.8901 -2.9450
  160SOL     OW  478   1.181   1.433   0.060 -0.5233  0.9218 -0.2197
  160SOL    HW1  479   1.143   1.510   0.115 -0.2269  0.6250 -2.1153
  160SOL    HW2  480   1.198   1.354   0.117 -0.4991  0.9770 -3.0657
  161SOL     OW  481   2.991   2.026   2.945 -0.0414 -0.5256 -0.0035
  161SOL    HW1  482   2.981   2.011   2.844 -0.7684  0.1171  2.9715
  161SOL    HW2  483   3.010   1.939   2.992 -0.5024  0.0259 -1.8691
  162SOL     OW  484   0.656   2.707   0.875  0.6173 -0.0371  0.4769
  162SOL    HW1  485   0.693   2.799   0.903  1.1022  0.0543 -0.4955
  162SOL    HW2  486   0.575   2.678   0.928  4.6206 -0.1333  0.4487
  163SOL     OW  487   2.707   1.240   0.036  0.2284 -0.5606  0.3114
  163SOL    HW1  488   2.613   1.211   0.018  2.6560  0.3464 -0.4304
  163SOL    HW2  489   2.741   1.170   0.108  0.0269 -1.6920  1.7540
  164SOL     OW  490   0.065   2.929   2.827 -0.2241  0.1747  0.0828
  164SOL    HW1  491   0.024   2.874   2.906 -0.2535  2.8653  2.7331
  164SOL    HW2  492   0.168   2.942   2.841  0.1882  0.2662  0.9074
  165SOL     OW  493   2.341   0.296   1.396 -0.0806 -0.0683 -0.0011
  165SOL    HW1  494   2.304   0.389   1.428 -0.8376 -0.8062  1.0389
  165SOL    HW2  495   2.263   0.241   1.366  0.4965 -2.6555  1.8403
  166SOL     OW  496   1.956   0.272   1.354 -0.3078  0.2330 -0.1413
  166SOL    HW1  497   1.852   0.257   1.345 -2.8868 -1.4695 -3.1196
  166SOL    HW2  498   2.009   0.185   1.357 -0.6228  2.4707  3.2767
  167SOL     OW  499   1.027   0.236   1.854 -0.0038  0.1692 -0.7874
  167SOL    HW1  500   1.066   0.316   1.909  0.4036  1.3167 -0.6216
  167SOL    HW2  501   1.103   0.186   1.803  0.2177 -3.4497  1.0306
  168SOL     OW  502   2.573   0.508   1.913  0.0751 -0.1716  0.4165
  168SOL    HW1  503   2.667   0.501   1.881 -1.2408 -0.0804  0.7856
  168SOL    HW2  504   2.507   0.476   1.838 -0.8183 -0.2344 -1.2737
  169SOL     OW  505   0.331   1.432   0.169 -0.3292 -0.1776  0.4725
  169SOL    HW1  506   0.263   1.491   0.122  0.5714 -0.1867 -0.3849
  169SOL    HW2  507   0.300   1.335   0.155  1.1984  1.1145 -0.1126
  170SOL     OW  508   0.242   1.445   1.816  0.2343 -0.3422 -0.2206
  170SOL    HW1  509   0.177   1.364   1.814  0.6566 -0.8862  0.2407
  170SOL    HW2  510   0.199   1.534   1.840  1.2785 -0.5941 -1.4308
  171SOL     OW  511   1.239   2.265   2.099 -0.2604 -0.2699 -0.0625
  171SOL    HW1  512   1.162   2.324   2.063 -1.2460 -1.3269  2.2998
  171SOL    HW2  513   1.199   2.178   2.141 -1.8713 -1.1212  0.0553
  172SOL     OW  514   0.530   2.453   1.472 -0.1051  0.0749  0.4962
  172SOL    HW1  515   0.493   2.548   1.471  0.4234 -1.3291  1.1336
  172SOL    HW2  516   0.597   2.442   1.396 -0.2335  0.2606  1.5017
  173SOL     OW  517   1.423   2.459   0.839  0.3811 -0.1132 -0.4480
  173SOL    HW1  518   1.487   2.486   0.913  0.2022  0.2480  0.8209
  173SOL    HW2  519   1.343   2.408   0.876  1.3616  0.7317  3.1402
  174SOL     OW  520   1.252   0.059   0.131 -0.5468  0.1445 -0.1424
  174SOL    HW1  521   1.262   0.127   0.205  1.3252 -2.9059 -0.5878
  174SOL    HW2  522   1.217   3.053   0.163  0.5227 -0.5371 -1.3053
  175SOL     OW  523   0.975   1.106   2.945  0.1091 -0.5169 -0.3463
  175SOL    HW1  524   1.021   1.195   2.935 -0.1944  0.4516  1.0878
  175SOL    HW2  525   1.036   1.027   2.928 -2.3453 -1.0453 -1.8147
  176SOL     OW  526   1.783   0.606   0.293  0.0478  0.2233  0.1787
  176SOL    HW1  527   1.849   0.652   0.231  2.8863 -2.3798  0.5465
  176SOL    HW2  528   1.706   0.662   0.339  0.9310  2.2784  0.0268
  177SOL     OW  529   1.319   0.844   0.951 -0.1189  0.0421 -0.4619
  177SOL    HW1  530   1.224   0.822   0.928  2.3610 -0.0124 -0.2175
  177SOL    HW2  531   1.321   0.899   1.039  0.3095  0.4489  0.1236
  178SOL     OW  532   2.637   1.651   2.953  0.1477  0.6054  0.7243
  178SOL    HW1  533   2.545   1.607   2.950  0.5006 -1.5134 -2.2673
  178SOL    HW2  534   2.703   1.581   2.926 -3.0160  1.9567  0.6967
  179SOL     OW  535   0.562   2.704   2.960 -0.2246 -0.0226 -0.5962
  179SOL    HW1  536   0.636   2.701   2.886  1.0386  0.0502 -1.3726
  179SOL    HW2  537   0.607   2.661   3.037  2.3149  1.0067 -1.6419
  180SOL     OW  538   1.810   1.641   1.560 -0.0980  0.0091 -0.5744
  180SOL    HW1  539   1.904   1.659   1.584 -0.8625  0.8275  0.9682
  180SOL    HW2  540   1.758   1.585   1.626 -0.7318  2.4872  2.6080
  181SOL     OW  541   1.263   1.249   2.277 -0.1808 -0.5356 -0.2676
  181SOL    HW1  542   1.177   1.263   2.217  0.4239 -2.2829 -0.1989
  181SOL    HW2  543   1.316   1.334   2.282 -1.0977  0.1457 -2.5453
  182SOL     OW  544   0.260   0.815   2.457 -0.0331 -0.2553 -0.4954
  182SOL    HW1  545   0.342   0.856   2.408 -0.5133 -2.7329  0.5381
  182SOL    HW2  546   0.182   0.877   2.440  2.5375 -0.5378 -1.2690
  183SOL     OW  547   1.573   0.362   2.294  0.6526  0.0594  0.3761
  183SOL    HW1  548   1.471   0.352   2.310 -2.7361  1.6839  0.8810
  183SOL    HW2  549   1.619   0.390   2.381 -1.0663 -4.9136 -0.3547
  184SOL     OW  550   0.179   0.458   1.408 -0.1596  0.4004  0.5525
  184SOL    HW1  551   0.169   0.531   1.338  0.0460  2.4489  0.1728
  184SOL    HW2  552   0.090   0.413   1.428  1.1438 -1.8743 -0.1267
  185SOL     OW  553   2.435   1.703   0.905  0.2966  0.3300 -0.3192
  185SOL    HW1  554   2.495   1.775   0.870  0.1981 -3.4850  1.4626
  185SOL    HW2  555   2.444   1.609   0.865 -1.2966 -0.6223 -0.1861
  186SOL     OW  556   0.512   1.841   2.550  0.2141 -0.0241  0.5129
  186SOL    HW1  557   0.488   1.746   2.520 -0.2968  1.7113  0.7211
  186SOL    HW2  558   0.425   1.891   2.561 -1.6767  2.3203  1.1507
  187SOL     OW  559   2.474   2.156   2.929 -0.1347  0.3077 -0.3774
  187SOL    HW1  560   2.577   2.161   2.934  0.9667 -0.4985 -2.2337
  187SOL    HW2  561   2.430   2.180   3.016 -0.6368 -0.2166 -0.5237
  188SOL     OW  562   0.755   2.212   0.139  0.4958 -0.4786  0.0627
  188SOL    HW1  563   0.820   2.135   0.170  1.2822  0.8640 -1.8091
  188SOL    HW2  564   0.662   2.219   0.187 -1.6229  0.2317  0.0769
  189SOL     OW  565   2.242   0.839   2.922  0.0892  0.7234  0.3210
  189SOL    HW1  566   2.308   0.876   2.853  0.5934  0.5665  2.2497
  189SOL    HW2  567   2.246   0.889   3.012  0.2100 -0.4874  0.4673
  190SOL     OW  568   0.973   1.808   1.948  0.4709 -0.1161 -0.6162
  190SOL    HW1  569   0.926   1.891   1.978  0.6755  1.9290 -0.5953
  190SOL    HW2  570   1.070   1.800   1.983 -1.2612  1.7452  0.3230
  191SOL     OW  571   2.145   0.651   1.325  0.8464  0.1736 -0.1079
  191SOL    HW1  572   2.056   0.626   1.373  0.0062  2.0911 -1.0625
  191SOL    HW2  573   2.120   0.691   1.233  3.6582 -1.5220  1.8446
  192SOL     OW  574   1.892   3.051   1.717 -0.1936 -0.5520 -0.2575
  192SOL    HW1  575   1.859   3.059   1.814  0.3381 -0.6818 -1.8587
  192SOL    HW2  576   1.820   0.010   1.657  0.2924  0.0109 -0.1379
  193SOL     OW  577   0.248   0.843   0.762  0.0514 -0.3248 -0.2622
  193SOL    HW1  578   0.328   0.785   0.787 -2.9464  1.3400  0.2562
  193SOL    HW2  579   0.197   0.803   0.684 -3.0468 -1.7338 -0.2039
  194SOL     OW  580   1.785   2.453   1.398  0.0163  0.1511 -0.9465
  194SOL    HW1  581   1.693   2.439   1.357 -0.0024  0.5439 -0.2476
  194SOL    HW2  582   1.838   2.371   1.415 -0.6188  0.9161  2.0183
  195SOL     OW  583   2.630   0.575   0.945  0.0041  0.1307 -0.2600
  195SOL    HW1  584   2.572   0.512   0.887 -1.2900 -3.1033 -1.7084
  195SOL    HW2  585   2.731   0.561   0.920 -0.5044 -1.2734  0.4994
  196SOL     OW  586   1.535   2.223   2.044  0.4541  0.3810  0.4680
  196SOL    HW1  587   1.592   2.171   2.112  0.0144 -0.4782  0.4541
  196SOL    HW2  588   1.434   2.199   2.041  0.2199 -0.1874  0.5250
  197SOL     OW  589   3.006   0.055   2.764 -0.4689  0.2261  0.0178
  197SOL    HW1  590   3.056   3.060   2.790 -1.4174  1.8366  2.7674
  197SOL    HW2  591   2.940   0.092   2.829 -2.6269  0.4882  0.5030
  198SOL     OW  592   1.139   1.177   0.717 -0.3935 -0.4428  0.1230
  198SOL    HW1  593   1.224   1.122   0.735  0.6281  1.0313  0.4003
  198SOL    HW2  594   1.052   1.122   0.714 -1.9065  1.0781  0.0453
  199SOL     OW  595   2.763   0.978   1.692 -0.0970  0.5467  0.2131
  199SOL    HW1  596   2.815   0.900   1.655  3.2097  1.2179  2.4290
  199SOL    HW2  597   2.659   0.970   1.676  0.7529  2.1411 -0.9257
  200SOL     OW  598   2.077   2.731   2.291 -0.2780  0.3769  0.0316
  200SOL    HW1  599   1.994   2.790   2.292 -1.7074  1.6719 -0.8009
  200SOL    HW2  600   2.080   2.663   2.209  2.2010 -3.8704 -2.4239
  201SOL     OW  601   2.597   0.227   1.560 -0.1214  0.0981 -0.7274
  201SOL    HW1  602   2.661   0.151   1.575 -1.1732 -1.3330 -2.2110
  201SOL    HW2  603   2.572   0.236   1.466  0.0223  0.0569  4.0764
  202SOL     OW  604   2.241   3.054   0.298  0.1019 -0.3016 -0.1437
  202SOL    HW1  605   2.213   0.019   0.383 -3.2631  2.1353 -0.6624
  202SOL    HW2  606   2.225   0.028   0.212 -0.7838  1.3081 -1.1267
  203SOL     OW  607   1.435   1.949   2.242 -0.0151  0.2133  0.7642
  203SOL    HW1  608   1.373   1.969   2.164 -5.4217 -0.2707 -0.8457
  203SOL    HW2  609   1.438   2.034   2.302 -0.9029  0.9629  1.2088
  204SOL     OW  610   0.882   1.485   2.551  0.1477  0.3428 -0.0441
  204SOL    HW1  611   0.858   1.392   2.583 -1.6576  0.3443  0.4272
  204SOL    HW2  612   0.864   1.499   2.448 -1.0214  1.5731  0.5152
  205SOL     OW  613   1.133   1.664   1.399  0.2788  0.3254 -0.1529
  205SOL    HW1  614   1.071   1.695   1.323  0.0019 -1.0616  2.4687
  205SOL    HW2  615   1.096   1.578   1.444 -2.1395  0.5560 -0.0918
  206SOL     OW  616   0.236   0.471   2.783  0.0663 -0.2285 -0.1504
  206SOL    HW1  617   0.176   0.412   2.729 -0.0964 -0.4539  3.9485
  206SOL    HW2  618   0.268   0.421   2.870  3.6959 -1.1707  0.4094
  207SOL     OW  619   1.742   2.708   2.431 -0.0964 -0.1999  0.5166
  207SOL    HW1  620   1.808   2.627   2.442  1.5249 -0.1890  0.5986
  207SOL    HW2  621   1.784   2.788   2.378  2.6149  2.1448 -2.0406
  208SOL     OW  622   0.892   2.389   1.139 -0.6502  0.7776  0.0085
  208SOL    HW1  623   0.982   2.434   1.162  1.8014  0.1053  0.6470
  208SOL    HW2  624   0.871   2.396   1.037  0.8123 -0.6082 -0.9658
  209SOL     OW  625   1.200   1.087   2.496 -1.1877 -0.0523  0.7715
  209SOL    HW1  626   1.208   1.143   2.413  0.3107 -0.6127  1.6200
  209SOL    HW2  627   1.099   1.069   2.513 -0.5924 -1.5271  1.1596
  210SOL     OW  628   1.899   1.002   1.154 -0.1531  0.7017 -0.0971
  210SOL    HW1  629   1.985   0.961   1.199 -1.9153 -0.9501  3.3777
  210SOL    HW2  630   1.833   1.015   1.232  0.2711 -2.0873  0.5873
  211SOL     OW  631   0.863   2.574   0.443  0.2876  0.0084  0.1835
  211SOL    HW1  632   0.859   2.527   0.355 -0.8381  0.9969 -0.6548
  211SOL    HW2  633   0.931   2.651   0.447 -0.5870  0.6482  0.3416
  212SOL     OW  634   1.775   1.849   0.238  0.0076 -0.1305  0.4363
  212SOL    HW1  635   1.682   1.893   0.234 -0.2340 -0.4897  0.3400
  212SOL    HW2  636   1.827   1.859   0.325 -0.6320  0.9762 -1.1898
  213SOL     OW  637   1.732   0.358   2.977  0.0717 -0.2786 -0.5466
  213SOL    HW1  638   1.690   0.309   3.059 -1.0296 -0.6632 -3.1694
  213SOL    HW2  639   1.812   0.305   2.932 -1.9854  1.1328 -0.3745
  214SOL     OW  640   1.198   1.591   2.220  0.0410 -0.3535 -0.3008
  214SOL    HW1  641   1.199   1.570   2.118 -0.2251 -1.4990 -0.0817
  214SOL    HW2  642   1.124   1.645   2.263 -2.7651 -3.0466  1.7785
  215SOL     OW  643   0.705   1.799   0.283 -0.4142 -0.0618  0.3021
  215SOL    HW1  644   0.649   1.801   0.196  0.1145  1.2279 -1.3229
  215SOL    HW2  645   0.736   1.707   0.312 -1.4210  2.8964  1.2363
  216SOL     OW  646   0.130   2.722   2.281 -0.0594  0.9174  0.2858
  216SOL    HW1  647   0.217   2.672   2.300  3.7133 -1.4693 -1.5360
  216SOL    HW2  648   0.067   2.673   2.216  1.4438  1.4559 -1.2856
  217SOL     OW  649   2.387   0.920   0.987  0.1590 -0.1678  0.2041
  217SOL    HW1  650   2.398   0.981   0.906  0.0684 -1.9862  0.7422
  217SOL    HW2  651   2.338   0.836   0.965  4.4292  4.6820  0.2874
  218SOL     OW  652   1.967   1.519   1.982 -0.0781  0.0300  0.4459
  218SOL    HW1  653   2.006   1.536   2.071  0.3403 -0.1104 -2.8842
  218SOL    HW2  654   1.985   1.425   1.948 -0.1559  1.3951 -1.2225
  219SOL     OW  655   1.930   1.550   0.257  0.5887 -0.0983 -0.2643
  219SOL    HW1  656   1.892   1.521   0.167  0.2368  0.7667  1.6217
  219SOL    HW2  657   1.912   1.650   0.268  0.2294  1.6119  0.2841
  220SOL     OW  658   1.648   1.362   0.655 -0.0909 -0.0164  0.4471
  220SOL    HW1  659   1.556   1.378   0.623  0.2965 -0.3506  1.6831
  220SOL    HW2  660   1.718   1.396   0.592 -0.1890 -0.5962 -1.4824
  221SOL     OW  661   0.632   0.640   2.811  0.6053 -0.3370 -0.1540
  221SOL    HW1  662   0.641   0.697   2.893  1.4981 -0.6085 -1.8005
  221SOL    HW2  663   0.539   0.658   2.774 -1.3853  1.8030  0.4260
  222SOL     OW  664   1.528   1.355   0.299 -0.2086  0.1214  0.0787
  222SOL    HW1  665   1.532   1.430   0.359 -2.3818  0.1810 -0.2888
  222SOL    HW2  666   1.433   1.311   0.300  0.7031  0.6432 -1.6518
  223SOL     OW  667   1.091   0.171   3.030 -0.0645  0.0879  0.3126
  223SOL    HW1  668   1.157   0.142   0.022  0.3710  0.8115  0.9966
  223SOL    HW2  669   1.019   0.233   3.070 -2.2167 -2.0220 -0.0141
  224SOL     OW  670   2.330   0.044   1.585  0.2080 -0.1581  0.1533
  224SOL    HW1  671   2.354   0.135   1.555  1.7946 -0.1913  2.1147
  224SOL    HW2  672   2.251   0.045   1.643  1.3475  2.9359 -1.6651
  225SOL     OW  673   0.364   3.079   1.187  0.6446 -0.4103  0.1569
  225SOL    HW1  674   0.363   0.096   1.196 -0.1982  0.5778 -0.4273
  225SOL    HW2  675   0.431   3.056   1.111 -0.7667  0.2115  3.5071
  226SOL     OW  676   1.073   1.372   2.878 -0.7832  0.1246  0.1655
  226SOL    HW1  677   1.154   1.323   2.836  0.5224 -0.3675 -1.6022
  226SOL    HW2  678   1.084   1.375   2.977 -0.1019  3.0163 -0.3763
  227SOL     OW  679   1.076   1.821   0.892 -0.3520 -0.1257  0.1144
  227SOL    HW1  680   1.144   1.842   0.822  0.0707 -0.6860  0.3663
  227SOL    HW2  681   1.085   1.887   0.968  1.0316  1.0773 -0.3834
  228SOL     OW  682   0.554   1.646   0.587 -0.2908  0.4616 -0.1319
  228SOL    HW1  683   0.514   1.602   0.506  1.0719  0.3471  0.9105
  228SOL    HW2  684   0.500   1.625   0.671 -0.0675  0.8005 -0.2310
  229SOL     OW  685   1.371   0.430   0.135  0.2111  0.0789 -0.0090
  229SOL    HW1  686   1.410   0.512   0.082  2.2211  0.2564 -0.8823
  229SOL    HW2  687   1.296   0.389   0.077 -0.9254 -1.2214 -0.7769
  230SOL     OW  688   1.689   0.458   2.519 -0.1959  0.0902  0.0905
  230SOL    HW1  689   1.763   0.404   2.566 -0.0463 -0.4485  0.1503
  230SOL    HW2  690   1.715   0.556   2.510  0.1476  1.1087  0.3628
  231SOL     OW  691   1.247   1.841   2.443 -0.7960  0.0449 -0.4663
  231SOL    HW1  692   1.154   1.814   2.413 -0.0350  0.9879 -0.9560
  231SOL    HW2  693   1.313   1.845   2.366  0.2396 -3.6137 -0.4577
  232SOL     OW  694   2.393   2.057   0.757 -0.1925 -0.6814 -0.2420
  232SOL    HW1  695   2.326   2.091   0.825  0.0553  1.3245  0.7696
  232SOL    HW2  696   2.350   2.065   0.662 -2.8888  0.6319 -0.4919
  233SOL     OW  697   2.595   2.747   0.305 -0.1337 -0.2064 -1.0146
  233SOL    HW1  698   2.563   2.780   0.214  0.5109 -1.2433  0.1475
  233SOL    HW2  699   2.517   2.766   0.369 -3.2012 -2.3739 -0.8250
  234SOL     OW  700   0.748   0.398   2.860 -0.2889 -0.5151 -0.3335
  234SOL    HW1  701   0.706   0.487   2.844  0.9413 -1.4975  0.0362
  234SOL    HW2  702   0.848   0.412   2.880  0.4331 -0.1789  0.2036
  235SOL     OW  703   2.606   0.148   2.557  0.1580 -0.4904  0.1238
  235SOL    HW1  704   2.588   0.251   2.554  0.7615 -0.4771  2.6404
  235SOL    HW2  705   2.582   0.113   2.650  2.9146  1.6815 -2.5202
  236SOL     OW  706   2.163   2.548   1.727  0.0618 -0.1307  0.2344
  236SOL    HW1  707   2.062   2.522   1.724 -0.5014  2.1062 -1.3505
  236SOL    HW2  708   2.179   2.584   1.816 -1.7982 -2.0445 -1.4428
  237SOL     OW  709   0.519   1.531   2.114 -0.1827 -0.5345 -0.1120
  237SOL    HW1  710   0.464   1.612   2.138 -0.3964 -2.2017  1.5303
  237SOL    HW2  711   0.578   1.494   2.188 -1.1111  1.3652  1.6132
  238SOL     OW  712   1.523   0.182   2.835  0.2640  0.5214 -0.3173
  238SOL    HW1  713   1.581   0.244   2.885  0.4014 -3.1868  0.5310
  238SOL    HW2  714   1.557   0.155   2.738 -0.0982  0.9674 -2.3595
  239SOL     OW  715   0.094   2.061   1.583 -0.0908  0.2721  0.6460
  239SOL    HW1  716   0.152   2.112   1.655  2.6609  1.5254  2.0460
  239SOL    HW2  717   0.140   1.978   1.548  0.5106  0.8367  1.7452
  240SOL     OW  718   2.998   2.299   0.907 -0.3215  0.5765 -0.4227
  240SOL    HW1  719   2.954   2.390   0.886  0.2403  0.6109 -0.9054
  240SOL    HW2  720   3.022   2.300   1.004  0.5803 -0.1116  0.8608
  241SOL     OW  721   2.403   1.128   0.801  0.3561  0.5197 -0.1763
  241SOL    HW1  722   2.413   1.224   0.834 -4.3315 -0.2267  1.0189
  241SOL    HW2  723   2.334   1.124   0.723 -0.4528 -0.6786 -0.7395
  242SOL     OW  724   2.007   2.149   2.575 -0.3922  0.0070  0.5878
  242SOL    HW1  725   2.056   2.076   2.519  2.6475 -2.1198  1.3806
  242SOL    HW2  726   1.957   2.115   2.658 -2.1142 -2.0405 -0.0772
  243SOL     OW  727   0.880   2.422   1.592  0.5655  0.1318 -0.0179
  243SOL    HW1  728   0.877   2.504   1.534  0.4851 -0.1333 -1.5478
  243SOL    HW2  729   0.804   2.424   1.660  0.0160 -0.5682  1.3874
  244SOL     OW  730   2.229   3.001   2.904 -0.2794  0.1521  0.5710
  244SOL    HW1  731   2.235   2.903   2.933 -1.4533  2.0391  1.2690
  244SOL    HW2  732   2.296   3.014   2.825 -1.0838 -0.8981  0.4733
  245SOL     OW  733   1.166   2.869   1.335 -0.1289 -0.1338 -0.2889
  245SOL    HW1  734   1.116   2.941   1.381  1.4025 -1.9727  0.6113
  245SOL    HW2  735   1.250   2.841   1.378  0.9164  1.2697 -3.9687
  246SOL     OW  736   1.587   2.547   0.251 -0.0408  0.5813 -0.0973
  246SOL    HW1  737   1.546   2.566   0.158  1.4130 -1.2799 -0.9449
  246SOL    HW2  738   1.686   2.575   0.250  0.0226 -2.1150 -2.6658
  247SOL     OW  739   1.300   0.348   2.344  0.7218 -0.3247  0.2506
  247SOL    HW1  740   1.218   0.397   2.374 -0.5358 -1.0348  0.6537
  247SOL    HW2  741   1.321   0.284   2.421 -0.9638 -0.3074 -1.4564
  248SOL     OW  742   0.557   1.830   1.837  0.2716 -0.4472  0.1282
  248SOL    HW1  743   0.563   1.865   1.744 -2.3353  1.2571 -1.1238
  248SOL    HW2  744   0.542   1.729   1.838  2.3089 -0.8764 -3.3277
  249SOL     OW  745   2.048   0.267   0.413  0.2939 -0.3380  0.4663
  249SOL    HW1  746   1.979   0.272   0.336 -0.5617 -1.1931 -0.9601
  249SOL    HW2  747   2.039   0.350   0.474  0.6711  0.7742 -0.1139
  250SOL     OW  748   0.415   0.705   0.563 -0.4872  0.1671  0.1672
  250SOL    HW1  749   0.469   0.789   0.543 -0.0106 -3.0472  2.1087
  250SOL    HW2  750   0.318   0.715   0.520 -1.4203  0.2758 -1.5785
  251SOL     OW  751   1.383   0.533   2.951  0.6312 -0.7573 -0.2405
  251SOL    HW1  752   1.441   0.583   2.882  1.3748 -1.9498 -0.6113
  251SOL    HW2  753   1.347   0.447   2.906  1.5204 -0.1002 -0.0705
  252SOL     OW  754   1.675   1.591   1.995 -0.3027  0.1253  0.5106
  252SOL    HW1  755   1.755   1.545   1.949  1.0091 -2.5489  0.2021
  252SOL    HW2  756   1.680   1.570   2.094  0.0203  0.7881 -0.7018
  253SOL     OW  757   2.658   2.357   1.867 -0.5415 -0.3093  0.6971
  253SOL    HW1  758   2.662   2.429   1.937  1.5991 -2.4505 -2.5675
  253SOL    HW2  759   2.729   2.284   1.879 -1.1596  3.3076 -0.5539
  254SOL     OW  760   2.637   1.379   1.039  0.1456 -0.1377 -0.1052
  254SOL    HW1  761   2.669   1.474   1.062  3.8424 -2.0876  0.7050
  254SOL    HW2  762   2.608   1.336   1.128  2.7393  0.9409  0.2481
  255SOL     OW  763   1.095   0.469   1.158 -0.2427  0.2098  0.1599
  255SOL    HW1  764   1.000   0.452   1.183  2.3769 -0.9218 -0.2876
  255SOL    HW2  765   1.120   0.562   1.193 -0.5843  3.1306 -0.5679
  256SOL     OW  766   1.903   2.219   1.442 -0.5475  0.0905  0.7813
  256SOL    HW1  767   1.991   2.172   1.458 -1.5001  0.0331 -0.3512
  256SOL    HW2  768   1.843   2.227   1.528  0.3944  2.3304 -0.7617
  257SOL     OW  769   0.572   2.710   2.485 -0.0359 -0.5376  0.4307
  257SOL    HW1  770   0.630   2.793   2.502 -0.8374  2.1104 -0.6625
  257SOL    HW2  771   0.602   2.637   2.553 -1.2835 -1.4826  0.8001
  258SOL     OW  772   0.903   2.250   3.006 -0.1552 -0.3437 -0.2672
  258SOL    HW1  773   0.832   2.212   2.943 -0.6401  0.2924  0.6836
  258SOL    HW2  774   0.854   2.257   0.013  0.4455  2.1928 -0.4364
  259SOL     OW  775   1.234   3.009   2.589  0.4458  0.2439  0.2415
  259SOL    HW1  776   1.193   2.911   2.590  0.4406  1.4409 -0.0005
  259SOL    HW2  777   1.315   2.998   2.530 -0.7253 -2.2530  0.5353
  260SOL     OW  778   1.712   0.557   1.251  0.3177 -0.3078  0.3250
  260SOL    HW1  779   1.653   0.638   1.246 -0.9750 -0.0467  2.1274
  260SOL    HW2  780   1.666   0.477   1.205 -1.2213 -0.6913  1.0549
  261SOL     OW  781   0.525   0.306   2.507  0.3658 -0.5517 -0.2345
  261SOL    HW1  782   0.440   0.330   2.454 -4.4970 -0.1190 -1.4281
  261SOL    HW2  783   0.601   0.371   2.495  2.0622 -1.8697  0.5085
  262SOL     OW  784   0.211   2.109   1.966 -0.0085 -0.4821  0.6585
  262SOL    HW1  785   0.233   2.187   2.027 -2.0749  0.8490 -0.0821
  262SOL    HW2  786   0.251   2.133   1.874  0.2377  1.2557 -1.0479
  263SOL     OW  787   2.650   1.227   2.302  0.4959 -0.5940  0.2089
  263SOL    HW1  788   2.556   1.187   2.323  0.3254  0.1630 -0.1859
  263SOL    HW2  789   2.706   1.231   2.389  1.4634 -2.4465  1.1141
  264SOL     OW  790   0.833   1.370   1.037  0.5133  0.0118 -0.4898
  264SOL    HW1  791   0.887   1.427   0.975 -0.2025 -2.8143 -0.1022
  264SOL    HW2  792   0.754   1.423   1.079 -2.8885  3.9388 -0.4162
  265SOL     OW  793   1.187   2.367   0.967 -0.2205 -0.0852 -0.1608
  265SOL    HW1  794   1.113   2.299   0.951 -0.1447  0.5001 -3.9302
  265SOL    HW2  795   1.165   2.413   1.057 -2.6022 -0.0226  1.0481
  266SOL     OW  796   1.555   1.084   1.089  0.5849 -0.3370  0.0985
  266SOL    HW1  797   1.628   1.118   1.150 -0.1997 -0.8898 -1.5346
  266SOL    HW2  798   1.576   1.094   0.988 -0.2090  1.3509 -3.4933
  267SOL     OW  799   2.396   1.220   2.963 -0.0294  0.3065 -0.1315
  267SOL    HW1  800   2.329   1.218   2.888  0.0367  2.9055  0.2355
  267SOL    HW2  801   2.423   1.120   2.977  1.1620 -1.9440  0.1878
  268SOL     OW  802   1.302   0.298   0.358  0.3322 -0.1672  0.3355
  268SOL    HW1  803   1.372   0.263   0.429 -0.2504 -1.4485  2.4395
  268SOL    HW2  804   1.347   0.359   0.287  0.2088  0.2539  0.7539
  269SOL     OW  805   2.504   0.405   2.603 -0.4623 -0.0523  0.1336
  269SOL    HW1  806   2.519   0.468   2.684 -0.6384 -0.4861 -0.1508
  269SOL    HW2  807   2.424   0.342   2.620  0.5539  1.8904 -1.1243
  270SOL     OW  808   0.186   1.053   2.797 -0.3387  0.3387  0.5645
  270SOL    HW1  809   0.257   1.018   2.732  3.3930 -3.0432  0.7480
  270SOL    HW2  810   0.225   1.133   2.851 -3.9057  0.0006 -0.1327
  271SOL     OW  811   2.804   1.040   0.187 -0.1973 -0.0404 -0.2450
  271SOL    HW1  812   2.749   0.957   0.204  0.0357 -0.7111  0.8369
  271SOL    HW2  813   2.817   1.100   0.268  0.3626  1.3507 -1.9913
  272SOL     OW  814   2.836   2.793   2.601  0.2136 -0.1164 -0.0406
  272SOL    HW1  815   2.914   2.794   2.537 -3.2989 -3.4268  0.3279
  272SOL    HW2  816   2.860   2.744   2.689  0.1503 -3.8078  1.5838
  273SOL     OW  817   2.805   2.980   3.041 -0.1285 -0.6447  0.5120
  273SOL    HW1  818   2.814   3.075   3.003 -0.9870  0.9284 -0.8496
  273SOL    HW2  819   2.828   2.987   0.056 -2.4870  0.2683  0.3825
  274SOL     OW  820   0.793   2.478   0.892  0.0837  0.1354  0.1666
  274SOL    HW1  821   0.737   2.567   0.896 -2.2486  0.6615 -1.3341
  274SOL    HW2  822   0.850   2.464   0.807  1.3349 -0.7833 -0.9069
  275SOL     OW  823   2.376   1.000   0.314 -0.4175  0.0433  0.2706
  275SOL    HW1  824   2.395   1.093   0.350  0.5978 -0.3140  0.1105
  275SOL    HW2  825   2.429   0.935   0.367 -0.1219  1.0654 -1.2253
  276SOL     OW  826   2.874   1.226   1.768 -0.2186  0.1722 -0.0313
  276SOL    HW1  827   2.797   1.167   1.746  1.4212 -3.9421 -3.0357
  276SOL    HW2  828   2.921   1.256   1.679  3.5158  0.6683 -1.4225
  277SOL     OW  829   2.184   0.086   1.274  0.5123 -0.7398 -0.1239
  277SOL    HW1  830   2.121   0.086   1.193  0.0985  1.6009 -1.4765
  277SOL    HW2  831   2.246   0.006   1.266  0.3713  1.3637 -1.3626
  278SOL     OW  832   1.367   2.481   2.399 -0.0960  0.5995 -0.0571
  278SOL    HW1  833   1.443   2.509   2.337 -1.1726  0.1404 -1.0378
  278SOL    HW2  834   1.275   2.506   2.364 -1.2353 -0.3914  0.0931
  279SOL     OW  835   1.700   1.943   0.999  0.4172  0.1678  0.4636
  279SOL    HW1  836   1.657   1.890   1.075  1.4210  0.7694  3.6511
  279SOL    HW2  837   1.715   2.043   1.026 -2.7938  3.0126 -0.2770
  280SOL     OW  838   0.530   1.412   0.884 -0.0916  0.1190 -0.9448
  280SOL    HW1  839   0.490   1.503   0.856  0.1288  0.3918 -1.0991
  280SOL    HW2  840   0.529   1.406   0.988 -1.7625 -1.7671  1.3322
  281SOL     OW  841   3.063   1.129   2.277  0.2077  0.2324  0.2977
  281SOL    HW1  842   2.984   1.116   2.216  2.2983 -4.3571  1.2910
  281SOL    HW2  843   3.054   1.227   2.308 -0.7509 -1.0768  2.4677
  282SOL     OW  844   0.577   1.399   0.006  0.3186  0.2323 -0.3403
  282SOL    HW1  845   0.538   1.332   0.076 -0.6330  0.1017 -1.7525
  282SOL    HW2  846   0.666   1.432   0.041 -1.3551 -3.5937  1.3538
  283SOL     OW  847   2.379   2.461   0.187  0.0922  0.1012  0.2945
  283SOL    HW1  848   2.297   2.518   0.203  2.6930 -1.1283  0.8667
  283SOL    HW2  849   2.450   2.498   0.125 -0.2764 -1.4656  0.2672
  284SOL     OW  850   0.847   0.115   0.782  0.2606 -0.2581 -0.0618
  284SOL    HW1  851   0.941   0.150   0.797  0.1418  0.2282  2.9419
  284SOL    HW2  852   0.811   0.121   0.689  0.9295 -1.5076  2.8658
  285SOL     OW  853   2.270   1.180   2.707  0.3225 -0.3412 -0.0668
  285SOL    HW1  854   2.321   1.094   2.690 -0.3050  0.8246  0.8839
  285SOL    HW2  855   2.175   1.160   2.730 -0.8823  1.3597  1.4163
  286SOL     OW  856   1.858   2.647   1.019 -0.3272  0.0516  0.4022
  286SOL    HW1  857   1.896   2.639   1.116  0.3962 -1.3195 -2.7274
  286SOL    HW2  858   1.921   2.603   0.957 -1.0080 -0.5414 -1.2924
  287SOL     OW  859   1.091   0.265   0.759 -0.1781 -0.0736 -0.3185
  287SOL    HW1  860   1.098   0.237   0.662 -2.2371 -0.3873  1.2137
  287SOL    HW2  861   1.075   0.364   0.779 -1.1857 -0.5066  1.0807
  288SOL     OW  862   0.826   2.359   2.691 -0.3391 -0.0429 -0.3952
  288SOL    HW1  863   0.803   2.373   2.595  1.0590 -1.4620  3.0086
  288SOL    HW2  864   0.815   2.445   2.746 -0.7651 -1.2013 -1.2860
  289SOL     OW  865   2.985   1.587   0.925  0.2140  0.1073  0.3129
  289SOL    HW1  866   3.042   1.671   0.931 -2.1013  0.0032  0.8667
  289SOL    HW2  867   3.006   1.527   1.002  0.3411 -3.2720 -3.1958
  290SOL     OW  868   1.459   2.096   0.937 -0.1897  0.4548 -0.6020
  290SOL    HW1  869   1.547   2.046   0.930 -1.3331 -2.8995 -2.0190
  290SOL    HW2  870   1.474   2.193   0.956  1.1272  1.1540  0.4092
  291SOL     OW  871   1.437   2.911   0.273  0.1067 -0.1687 -0.6133
  291SOL    HW1  872   1.338   2.898   0.275  0.5854  1.6757  2.7375
  291SOL    HW2  873   1.471   2.899   0.179  0.3171  2.6724  3.8996
  292SOL     OW  874   0.418   0.258   1.944  0.0275 -0.8266  0.5730
  292SOL    HW1  875   0.466   0.305   2.020  2.4324  0.6348  0.3865
  292SOL    HW2  876   0.486   0.215   1.879  0.0409 -1.1741 -0.3265
  293SOL     OW  877   2.393   1.958   1.235 -0.3524 -0.0537 -0.2105
  293SOL    HW1  878   2.488   1.980   1.207 -2.9485 -1.1546  3.3663
  293SOL    HW2  879   2.339   2.044   1.245 -0.3376 -3.5873  1.1523
  294SOL     OW  880   0.807   0.044   2.373  0.2327  0.3938  0.5697
  294SOL    HW1  881   0.864   0.076   2.449  0.3408  0.5479 -2.0858
  294SOL    HW2  882   0.741   0.113   2.344  0.3124 -1.9556  0.4554
  295SOL     OW  883   1.617   1.794   1.198  0.7308  0.4209 -0.1319
  295SOL    HW1  884   1.670   1.713   1.231 -0.3624  0.5743 -0.7344
  295SOL    HW2  885   1.648   1.880   1.249 -1.1414  0.2644 -4.1505
  296SOL     OW  886   2.462   1.889   0.154  0.0220 -0.0521 -0.1106
  296SOL    HW1  887   2.448   1.956   0.230 -0.1198  1.6845  3.1272
  296SOL    HW2  888   2.562   1.897   0.128  1.7974  0.3555  0.4849
  297SOL     OW  889   2.467   0.254   0.290 -0.3185  0.3212 -0.1392
  297SOL    HW1  890   2.470   0.170   0.229  1.2406  0.0569 -0.2187
  297SOL    HW2  891   2.528   0.324   0.254  1.5064 -1.4236  1.3065
  298SOL     OW  892   0.780   3.020   2.769 -0.2036  0.0044  0.1176
  298SOL    HW1  893   0.845   3.018   2.844  0.2855 -0.5870 -2.6652
  298SOL    HW2  894   0.688   3.044   2.804  0.0444 -0.9505 -2.4057
  299SOL     OW  895   0.759   2.159   2.179 -0.0020  0.0225  0.0193
  299SOL    HW1  896   0.796   2.095   2.105  0.5015 -2.6832 -1.8036
  299SOL    HW2  897   0.716   2.115   2.262 -2.2745  1.4156  0.5271
  300SOL     OW  898   2.886   2.988   2.295  0.3647 -0.0353 -0.0179
  300SOL    HW1  899   2.893   3.038   2.203 -0.1525 -2.3489 -0.6510
  300SOL    HW2  900   2.872   3.053   2.375 -1.5283  0.7987 -1.2062
  301SOL     OW  901   1.077   0.750   1.940  0.6326  0.4356 -0.5166
  301SOL    HW1  902   1.142   0.694   1.887 -3.0234  3.7326  0.8428
  301SOL    HW2  903   1.124   0.794   2.020  0.8637  1.4779  1.4098
  302SOL     OW  904   3.013   2.212   0.490  0.7155  0.2417  0.5401
  302SOL    HW1  905   0.007   2.236   0.549 -1.6532  0.7785 -0.7410
  302SOL    HW2  906   3.000   2.108   0.499  1.6995 -1.1842 -0.5265
  303SOL     OW  907   2.544   2.537   1.608  0.2829  0.5076  0.2292
  303SOL    HW1  908   2.597   2.453   1.580  2.7088 -0.9596 -2.1589
  303SOL    HW2  909   2.532   2.539   1.709  1.3078  0.5327  1.1708
  304SOL     OW  910   2.845   0.754   1.537 -0.2176 -0.5445  0.1489
  304SOL    HW1  911   2.795   0.676   1.580  1.9863 -0.2912  1.4919
  304SOL    HW2  912   2.946   0.756   1.547 -2.6912  2.1491  0.0027
  305SOL     OW  913   0.762   1.659   1.130  0.0478 -0.6115  0.0387
  305SOL    HW1  914   0.755   1.711   1.045  1.1303 -1.9098  0.1255
  305SOL    HW2  915   0.696   1.694   1.195 -0.7401 -1.9164 -0.4081
  306SOL     OW  916   0.367   1.312   2.085 -0.8269 -0.2962 -0.1859
  306SOL    HW1  917   0.365   1.275   1.987 -1.2548  1.2176 -3.7650
  306SOL    HW2  918   0.445   1.375   2.096  0.9788  0.3427  0.7365
  307SOL     OW  919   0.797   0.317   1.698  0.1548  0.0935  0.1173
  307SOL    HW1  920   0.884   0.313   1.744 -1.4626  0.4835 -2.0213
  307SOL    HW2  921   0.805   0.295   1.596  0.5436  1.8556 -2.1342
  308SOL     OW  922   3.028   1.140   1.155 -0.0388  0.5263  0.4276
  308SOL    HW1  923   3.062   1.063   1.215 -0.6267 -1.1835 -2.4164
  308SOL    HW2  924   2.941   1.111   1.108 -1.5556  0.5283  1.6541
  309SOL     OW  925   2.586   1.257   1.304  0.1827 -0.4116  0.0891
  309SOL    HW1  926   2.602   1.348   1.347 -3.2880 -0.6886 -2.8127
  309SOL    HW2  927   2.653   1.184   1.321  2.0140  1.5799 -1.3869
  310SOL     OW  928   2.951   1.966   2.701 -0.0321  0.4929  0.7575
  310SOL    HW1  929   2.849   1.999   2.691 -1.8476  2.6297  0.8116
  310SOL    HW2  930   3.005   1.974   2.613  0.0826 -1.4602  0.3495
  311SOL     OW  931   2.628   2.628   2.411 -0.0421 -0.5890  0.0157
  311SOL    HW1  932   2.712   2.663   2.369  0.7011  1.5614  2.3167
  311SOL    HW2  933   2.600   2.687   2.487 -0.1430  0.4388 -0.0441
  312SOL     OW  934   2.104   2.136   0.037  0.4172 -0.1349 -0.3350
  312SOL    HW1  935   2.030   2.196   0.076 -1.3028  2.1873 -1.4163
  312SOL    HW2  936   2.072   2.038   0.030 -2.0949  1.2135 -0.0165
  313SOL     OW  937   2.871   3.018   0.591 -0.0017  0.3020 -0.3621
  313SOL    HW1  938   2.906   0.006   0.528  1.2382 -2.1009  1.3238
  313SOL    HW2  939   2.865   2.924   0.554  2.0159  8.3339 -0.7671
  314SOL     OW  940   1.892   1.049   3.025 -0.1795  0.0569 -0.9784
  314SOL    HW1  941   1.867   1.009   0.032  1.2535  2.2687 -0.8557
  314SOL    HW2  942   1.912   1.146   3.027 -0.8096 -0.2285  2.3383
  315SOL     OW  943   1.436   2.962   2.435 -0.2512 -0.2156 -0.2078
  315SOL    HW1  944   1.523   3.000   2.397  1.5098  3.1611 -0.4200
  315SOL    HW2  945   1.467   2.918   2.522  0.4924 -0.9050  0.3592
  316SOL     OW  946   0.073   1.288   0.383 -0.3033 -0.1897  0.0858
  316SOL    HW1  947   3.064   1.251   0.389 -0.2766 -2.4659  0.5418
  316SOL    HW2  948   0.144   1.219   0.417  0.5707 -3.7033 -0.4405
  317SOL     OW  949   0.431   2.906   3.061 -0.0378 -0.1045  0.5557
  317SOL    HW1  950   0.398   2.954   2.979  0.8839  0.0402 -0.0473
  317SOL    HW2  951   0.496   2.829   3.036  0.8521  1.3627 -2.5375
  318SOL     OW  952   2.503   2.398   0.908 -0.0708 -0.2170 -0.3933
  318SOL    HW1  953   2.555   2.321   0.866 -0.1280 -1.6462 -0.9235
  318SOL    HW2  954   2.406   2.371   0.937 -0.5089 -0.6970  0.3083
  319SOL     OW  955   1.197   2.039   2.649  0.8291 -0.2516 -0.5558
  319SOL    HW1  956   1.211   1.960   2.595 -2.3074  3.9643  0.2847
  319SOL    HW2  957   1.137   2.014   2.727  0.2937  1.9713  1.9518
  320SOL     OW  958   0.616   2.109   1.198 -0.1803 -0.3207 -0.0530
  320SOL    HW1  959   0.661   2.196   1.233 -1.9566  1.3552  1.2313
  320SOL    HW2  960   0.525   2.088   1.244  1.7254  0.6751  0.7840
  321SOL     OW  961   1.173   2.758   2.622  0.2796  0.4052  0.0998
  321SOL    HW1  962   1.221   2.667   2.610  1.2438 -2.6246 -1.6097
  321SOL    HW2  963   1.074   2.742   2.598  0.9807  0.0830  0.5662
  322SOL     OW  964   2.591   1.401   2.087  0.6193 -0.0710  0.2505
  322SOL    HW1  965   2.606   1.361   2.184 -0.6456 -2.7984  1.0475
  322SOL    HW2  966   2.564   1.498   2.083 -0.1383  3.1991  1.2958
  323SOL     OW  967   2.688   0.813   1.066 -0.0450 -0.1940 -0.2520
  323SOL    HW1  968   2.641   0.742   1.008 -0.4232 -2.2598  1.2360
  323SOL    HW2  969   2.650   0.811   1.160 -3.0506 -2.1572  1.4966
  324SOL     OW  970   2.597   2.973   2.380 -0.1708  0.1145  0.2845
  324SOL    HW1  971   2.547   2.936   2.464  2.1313 -0.4556  1.6949
  324SOL    HW2  972   2.697   2.955   2.381 -2.6075  0.7566  0.2573
  325SOL     OW  973   1.088   0.488   2.416 -0.4616 -0.2483 -0.3234
  325SOL    HW1  974   1.036   0.440   2.486 -1.2521  1.3018 -1.0244
  325SOL    HW2  975   1.033   0.504   2.328 -0.8806  0.3169  0.7417
  326SOL     OW  976   1.875   2.898   2.296  0.2361  0.1738  0.3515
  326SOL    HW1  977   1.901   2.988   2.339  1.5307  1.3004 -0.9634
  326SOL    HW2  978   1.885   2.902   2.191  1.0872 -1.8417 -3.5648
  327SOL     OW  979   2.197   0.333   2.903 -0.3647 -0.3364 -0.2632
  327SOL    HW1  980   2.156   0.368   2.989 -0.0254 -1.6105  0.8731
  327SOL    HW2  981   2.253   0.398   2.856  0.2560 -4.6477  0.1585
  328SOL     OW  982   3.079   1.382   2.376  0.2901  0.2209  0.6292
  328SOL    HW1  983   0.054   1.407   2.297  2.1606  0.5902  0.7447
  328SOL    HW2  984   3.008   1.451   2.393 -1.0373 -1.8650  3.0487
  329SOL     OW  985   1.683   0.075   1.571  0.5185  0.0522 -0.7060
  329SOL    HW1  986   1.611   0.007   1.560  1.5692  0.8554 -0.6498
  329SOL    HW2  987   1.699   0.121   1.479  3.0590  0.4090 -2.5472
  330SOL     OW  988   0.515   1.152   0.825 -0.4078  0.6311 -0.4075
  330SOL    HW1  989   0.444   1.103   0.878 -1.3649  1.9507 -2.0200
  330SOL    HW2  990   0.503   1.254   0.838 -2.4739  1.1103 -1.4213
  331SOL     OW  991   0.138   1.485   2.149 -0.2139  0.3882  0.0055
  331SOL    HW1  992   0.214   1.414   2.147  0.3906 -0.6482  0.8466
  331SOL    HW2  993   0.176   1.575   2.167  2.7766 -1.0090  0.0502
  332SOL     OW  994   0.020   2.553   1.530  0.4719 -0.0477  0.4813
  332SOL    HW1  995   3.002   2.541   1.513 -1.8771  0.7629  0.5039
  332SOL    HW2  996   0.068   2.468   1.515  1.3358  1.1362  0.9902
  333SOL     OW  997   2.487   0.144   0.770 -0.3629  0.5716  0.1851
  333SOL    HW1  998   2.384   0.139   0.755  1.2815  0.0122 -1.4042
  333SOL    HW2  999   2.509   0.132   0.872  1.0242  0.1313  3.4531
  334SOL     OW 1000   0.678   1.951   0.510 -0.6039 -0.3237  0.1832
  334SOL    HW1 1001   0.676   1.896   0.424 -1.7763  0.0964 -1.1624
  334SOL    HW2 1002   0.672   2.049   0.490  1.1172 -1.3064 -2.7807
  335SOL     OW 1003   0.047   2.475   2.972 -0.6131  0.0430 -0.1368
  335SOL    HW1 1004   0.045   2.377   3.006  0.1275 -0.2019 -0.6040
  335SOL    HW2 1005   0.147   2.500   2.954  0.4700  2.1889  3.3883
  336SOL     OW 1006   3.047   2.577   2.147 -0.1494  0.4103 -0.0169
  336SOL    HW1 1007   3.017   2.550   2.054 -0.8177 -0.5099 -0.5795
  336SOL    HW2 1008   0.004   2.492   2.193  1.6052 -1.9008  1.4882
  337SOL     OW 1009   2.020   2.442   2.190  0.4886 -0.4916  0.1808
  337SOL    HW1 1010   1.937   2.421   2.136  0.5383  1.0114  0.2801
  337SOL    HW2 1011   1.995   2.486   2.282  0.0711  0.8813  2.1718
  338SOL     OW 1012   0.601   3.065   0.388  0.2458  0.2581 -0.1649
  338SOL    HW1 1013   0.701   3.038   0.370  1.2415  1.2199 -1.5473
  338SOL    HW2 1014   0.545   3.064   0.306  0.6943  0.6651 -1.0531
  339SOL     OW 1015   0.405   0.923   2.016  0.1901 -0.4796  0.1027
  339SOL    HW1 1016   0.348   0.889   2.089  1.0046  1.6080 -1.2469
  339SOL    HW2 1017   0.381   1.025   2.001 -0.6719 -0.7438 -1.4671
  340SOL     OW 1018   1.866   0.005   0.244 -0.1669  0.4879 -0.3993
  340SOL    HW1 1019   1.875   0.107   0.248 -2.1426  0.6723 -0.2014
  340SOL    HW2 1020   1.791   3.061   0.305  1.3204 -2.4079 -0.9281
  341SOL     OW 1021   1.984   0.940   0.876  0.3554 -0.3155  0.3237
  341SOL    HW1 1022   1.914   0.986   0.818  0.1082  0.6997 -1.1874
  341SOL    HW2 1023   1.961   0.955   0.976 -0.1179  1.7116 -0.4497
  342SOL     OW 1024   2.457   0.068   0.089  0.3054 -0.2847  0.7661
  342SOL    HW1 1025   2.364   0.091   0.057  3.0665  0.3518  1.3227
  342SOL    HW2 1026   2.465   3.053   0.080 -2.6371 -4.3024 -1.4976
  343SOL     OW 1027   1.384   2.233   1.641  0.5614 -0.4136  0.1891
  343SOL    HW1 1028   1.454   2.293   1.677 -1.9897  0.5060 -1.9200
  343SOL    HW2 1029   1.417   2.157   1.584 -1.0542  2.0526  0.1835
  344SOL     OW 1030   2.528   2.830   0.932  0.1248 -0.0454  0.3145
  344SOL    HW1 1031   2.512   2.860   0.839 -1.9030  0.2373  0.3119
  344SOL    HW2 1032   2.510   2.729   0.931 -2.8439  0.0048  1.4199
  345SOL     OW 1033   2.671   2.321   0.138  0.2475 -0.5474  0.2421
  345SOL    HW1 1034   2.767   2.352   0.151  0.3095 -1.5922  0.3049
  345SOL    HW2 1035   2.655   2.238   0.199  1.6445  0.5379 -1.7335
  346SOL     OW 1036   2.630   1.901   0.802 -0.2844  0.3845 -0.0577
  346SOL    HW1 1037   2.541   1.952   0.789 -1.8590 -1.4322  0.9086
  346SOL    HW2 1038   2.671   1.931   0.895  1.8920  1.3761  4.3004
  347SOL     OW 1039   1.648   1.936   1.921  0.1751 -0.0827  0.1847
  347SOL    HW1 1040   1.594   2.017   1.890  0.5545  0.3519 -2.4098
  347SOL    HW2 1041   1.587   1.858   1.947 -1.7452 -0.4811 -1.0129
  348SOL     OW 1042   0.471   1.582   2.477  0.3603 -0.1177 -0.0872
  348SOL    HW1 1043   0.541   1.517   2.436  2.0137 -1.0282  2.2213
  348SOL    HW2 1044   0.416   1.526   2.543  0.0229  0.0969  0.5809
  349SOL     OW 1045   2.452   1.393   0.865  0.2789  0.3382 -0.1548
  349SOL    HW1 1046   2.515   1.377   0.947 -1.6299 -0.4225  2.2958
  349SOL    HW2 1047   2.502   1.432   0.783  0.6999 -0.0522 -1.2257
  350SOL     OW 1048   2.844   2.546   1.129  0.5546 -0.4264  0.3493
  350SOL    HW1 1049   2.882   2.621   1.192 -0.4216 -0.7394  0.0122
  350SOL    HW2 1050   2.900   2.462   1.140 -2.8500  0.5523  0.7228
  351SOL     OW 1051   0.481   2.843   1.965 -0.3617  0.1247 -0.1462
  351SOL    HW1 1052   0.385   2.809   1.971 -0.2651 -1.0582 -1.1144
  351SOL    HW2 1053   0.499   2.887   2.054 -2.6289 -1.1762  1.4367
  352SOL     OW 1054   0.997   1.751   1.185 -0.6436  0.1132  0.2276
  352SOL    HW1 1055   0.902   1.713   1.170  1.0567  0.8672 -1.1585
  352SOL    HW2 1056   1.063   1.698   1.123  0.6744 -1.2652  1.5237
  353SOL     OW 1057   1.287   1.621   2.614 -0.1260  0.6525 -0.9097
  353SOL    HW1 1058   1.299   1.696   2.551  1.5222 -2.9439  3.1920
  353SOL    HW2 1059   1.199   1.631   2.662  0.9040  0.1282  0.6470
  354SOL     OW 1060   1.563   2.975   1.137 -0.4056 -0.2239  0.2796
  354SOL    HW1 1061   1.605   2.976   1.231  1.8304 -0.4433 -2.2191
  354SOL    HW2 1062   1.498   2.895   1.123 -0.3573 -1.2220  1.9929
  355SOL     OW 1063   2.584   1.538   0.671 -0.4215 -0.2493  0.5929
  355SOL    HW1 1064   2.679   1.577   0.691  3.0294 -0.9627  0.8115
  355SOL    HW2 1065   2.589   1.485   0.584  4.1011 -0.8701  0.9864
  356SOL     OW 1066   2.510   1.725   2.140  0.3598  0.8396 -0.0224
  356SOL    HW1 1067   2.410   1.746   2.114 -2.1811  2.5986  0.4207
  356SOL    HW2 1068   2.526   1.732   2.238 -1.8293  2.0160  0.3184
  357SOL     OW 1069   0.440   2.686   1.491  0.7142 -0.0038  0.4001
  357SOL    HW1 1070   0.410   2.750   1.415 -1.6695  1.2848  0.0655
  357SOL    HW2 1071   0.408   2.726   1.580  0.6786  1.3428 -0.5854
  358SOL     OW 1072   2.489   0.921   1.626  0.5066  0.6068 -0.2860
  358SOL    HW1 1073   2.397   0.968   1.609 -0.9500 -0.5890  1.1872
  358SOL    HW2 1074   2.488   0.823   1.600 -0.3438  1.6154  1.5347
  359SOL     OW 1075   2.335   2.602   2.645  0.0099 -0.5884 -0.2002
  359SOL    HW1 1076   2.332   2.512   2.592 -1.2207 -2.4502 -0.7923
  359SOL    HW2 1077   2.340   2.580   2.743 -2.0308  1.6963 -1.6281
  360SOL     OW 1078   0.764   0.459   0.833  0.2196 -0.1305  0.3621
  360SOL    HW1 1079   0.859   0.420   0.824 -0.1820  0.5842 -0.6736
  360SOL    HW2 1080   0.765   0.561   0.814  1.2607  0.5906  0.9965
  361SOL     OW 1081   2.020   0.003   1.092 -0.8071  0.7150 -0.0324
  361SOL    HW1 1082   2.000   3.030   1.175  0.5428 -0.8083 -1.1226
  361SOL    HW2 1083   2.087   3.041   1.033  2.5746 -0.7544  0.0939
  362SOL     OW 1084   1.364   1.027   0.760  0.4379  0.9988  0.1045
  362SOL    HW1 1085   1.444   1.080   0.797  1.7758 -0.3181 -1.6579
  362SOL    HW2 1086   1.331   0.958   0.828 -1.4524  0.3880 -0.0446
  363SOL     OW 1087   2.411   1.429   2.657  0.2710  0.1950 -0.4768
  363SOL    HW1 1088   2.357   1.512   2.685  0.5646  1.1359 -1.7617
  363SOL    HW2 1089   2.366   1.340   2.665  0.2336  0.0269 -1.7699
  364SOL     OW 1090   0.126   0.235   1.106 -0.0582  0.5068  0.2305
  364SOL    HW1 1091   0.201   0.241   1.174  0.3104 -0.2158  0.6380
  364SOL    HW2 1092   0.098   0.139   1.095  0.6182 -0.0098 -0.7136
  365SOL     OW 1093   3.070   2.761   3.012  0.3101 -0.2427 -0.6559
  365SOL    HW1 1094   0.013   2.672   2.971  0.7297 -2.8024 -0.0211
  365SOL    HW2 1095   3.026   2.753   0.025  1.0355  1.5625  2.5545
  366SOL     OW 1096   2.369   2.207   0.088  0.3490  0.6379 -0.3333
  366SOL    HW1 1097   2.267   2.194   0.099  0.2425  0.8616  2.3237
  366SOL    HW2 1098   2.392   2.304   0.114  0.6653  0.5165 -0.1392
  367SOL     OW 1099   2.872   2.562   2.854  0.3524 -0.0032  0.1656
  367SOL    HW1 1100   2.850   2.476   2.804  1.1407 -1.0398  3.1759
  367SOL    HW2 1101   2.948   2.547   2.918 -1.2217  1.5897 -0.6051
  368SOL     OW 1102   0.338   1.893   0.991 -0.1204 -0.2529 -0.2404
  368SOL    HW1 1103   0.369   1.978   0.938 -0.8272  3.9670 -2.4105
  368SOL    HW2 1104   0.238   1.878   0.988  2.5074  0.1317 -0.4817
  369SOL     OW 1105   0.737   2.635   2.739  0.3558  0.5021 -0.6046
  369SOL    HW1 1106   0.795   2.597   2.817  1.4334  1.9340  2.0804
  369SOL    HW2 1107   0.798   2.664   2.668 -0.0939  0.6825  3.4255
  370SOL     OW 1108   0.263   1.047   0.943  0.3159 -0.5038  0.6617
  370SOL    HW1 1109   0.174   1.093   0.931 -0.6558  1.0106 -0.2126
  370SOL    HW2 1110   0.274   0.965   0.878 -2.0741  0.0799 -0.7037
  371SOL     OW 1111   1.883   2.255   0.833  0.0576  0.6657  0.0222
  371SOL    HW1 1112   1.946   2.330   0.844  0.6554 -1.2039 -1.3632
  371SOL    HW2 1113   1.852   2.224   0.927  0.8105 -0.9333 -1.2989
  372SOL     OW 1114   0.453   0.985   2.674 -0.1913  0.0430 -0.0132
  372SOL    HW1 1115   0.470   0.889   2.648  2.6986 -0.7839 -1.9098
  372SOL    HW2 1116   0.529   1.024   2.727 -0.8939  0.5773 -2.7452
  373SOL     OW 1117   0.049   1.848   0.956 -0.0441 -0.0472  0.1966
  373SOL    HW1 1118   3.064   1.901   0.899 -1.7413  3.5362 -1.5572
  373SOL    HW2 1119   0.030   1.875   1.054 -2.7574 -0.2776  0.4872
  374SOL     OW 1120   0.108   2.522   0.280 -0.0650 -0.3623 -0.1761
  374SOL    HW1 1121   0.167   2.455   0.228 -0.1676  0.5501 -0.7134
  374SOL    HW2 1122   0.158   2.589   0.334 -1.5888 -1.3668 -0.9296
  375SOL     OW 1123   0.524   0.459   0.275 -0.5494  0.1649 -0.5356
  375SOL    HW1 1124   0.566   0.471   0.372  1.6062 -0.5649 -0.1828
  375SOL    HW2 1125   0.435   0.403   0.272 -0.4162  1.1003  0.0273
  376SOL     OW 1126   0.149   2.437   1.855  0.0007  0.9262 -0.2193
  376SOL    HW1 1127   0.057   2.472   1.848  3.0964  0.0639 -0.0209
  376SOL    HW2 1128   0.220   2.505   1.829  0.0344 -0.6011  0.1441
  377SOL     OW 1129   1.387   2.381   2.969 -0.0122  0.4330  1.0000
  377SOL    HW1 1130   1.437   2.321   2.903  0.6174  0.1836 -1.7195
  377SOL    HW2 1131   1.447   2.456   3.008  0.2676  3.1915  3.2790
  378SOL     OW 1132   0.827   0.612   0.516  0.9099  0.0364 -0.4933
  378SOL    HW1 1133   0.895   0.685   0.543  1.5760  2.9788  0.9562
  378SOL    HW2 1134   0.854   0.559   0.433 -0.7755 -0.5379 -0.1765
  379SOL     OW 1135   0.756   1.531   0.307  0.4323 -0.0727  0.4374
  379SOL    HW1 1136   0.650   1.531   0.307 -1.5051 -0.2360  0.6922
  379SOL    HW2 1137   0.794   1.501   0.396 -1.6284  1.0644 -3.4294
  380SOL     OW 1138   0.308   1.911   1.522 -0.7224 -0.7271 -0.7467
  380SOL    HW1 1139   0.291   1.948   1.430 -0.4883  1.2130 -0.8740
  380SOL    HW2 1140   0.413   1.923   1.537  3.1366 -0.5325 -0.9399
  381SOL     OW 1141   0.636   1.247   1.700  0.6238 -0.9606 -0.4643
  381SOL    HW1 1142   0.696   1.306   1.763  0.5214 -1.5171 -3.3580
  381SOL    HW2 1143   0.668   1.156   1.682  0.4805  1.5048  1.9882
  382SOL     OW 1144   2.133   1.813   0.574  0.2906  0.0941 -0.0729
  382SOL    HW1 1145   2.203   1.746   0.541  0.9802  0.1162 -0.4149
  382SOL    HW2 1146   2.133   1.809   0.675  2.0158 -0.8949  0.6858
  383SOL     OW 1147   2.620   1.774   2.384 -0.2898 -0.2241  0.1288
  383SOL    HW1 1148   2.587   1.862   2.427  0.7307  1.8767  2.5247
  383SOL    HW2 1149   2.708   1.798   2.338 -1.3584  3.0616 -2.3660
  384SOL     OW 1150   0.166   2.029   2.355  0.5149  0.5457  0.1545
  384SOL    HW1 1151   0.183   1.944   2.406 -0.0999  0.4346  0.0241
  384SOL    HW2 1152   0.245   2.060   2.300  0.4426 -0.4867 -1.0361
  385SOL     OW 1153   2.772   2.089   0.969  0.0564  0.4411 -0.3081
  385SOL    HW1 1154   2.864   2.049   0.951 -2.1158 -1.7337 -1.1475
  385SOL    HW2 1155   2.754   2.162   0.900  0.6856  0.5183  1.7212
  386SOL     OW 1156   1.571   0.798   1.147  0.4904  0.5794  0.2879
  386SOL    HW1 1157   1.647   0.803   1.079 -0.7216 -0.8240  0.0676
  386SOL    HW2 1158   1.529   0.888   1.156  0.6848  2.3649  0.0567
  387SOL     OW 1159   0.486   0.647   1.998 -0.7220  0.3640  0.2688
  387SOL    HW1 1160   0.462   0.748   2.004  1.0552  2.6246  1.3468
  387SOL    HW2 1161   0.541   0.624   1.913  0.6725 -0.0673 -1.2307
  388SOL     OW 1162   2.339   0.845   2.215 -0.2790  0.0572  0.2641
  388SOL    HW1 1163   2.252   0.815   2.180  0.9630 -1.2362  4.2858
  388SOL    HW2 1164   2.395   0.760   2.230  1.7977 -1.4597 -0.4570
  389SOL     OW 1165   1.892   1.064   1.993  0.3447 -0.2618  0.1450
  389SOL    HW1 1166   1.909   1.132   1.920  1.2257  1.2408 -1.2011
  389SOL    HW2 1167   1.971   1.067   2.058 -0.9867  0.2440  1.0780
  390SOL     OW 1168   1.857   2.675   0.213  0.0859 -0.0717  0.7106
  390SOL    HW1 1169   1.943   2.729   0.221 -0.3129 -2.2814  1.4391
  390SOL    HW2 1170   1.850   2.639   0.116 -3.1671 -1.0206 -0.6673
  391SOL     OW 1171   2.044   2.081   1.098  0.1288 -0.0064  0.1007
  391SOL    HW1 1172   2.069   2.080   0.999  0.8299  2.0734 -0.7533
  391SOL    HW2 1173   2.016   1.987   1.134  3.2106 -1.9183  0.0147
  392SOL     OW 1174   2.882   2.772   1.263  0.5372 -0.0916 -0.1613
  392SOL    HW1 1175   2.815   2.752   1.338 -0.2886 -1.0278  4.6703
  392SOL    HW2 1176   2.837   2.829   1.194 -0.4634 -3.5472 -0.6176
  393SOL     OW 1177   1.955   1.915   0.052 -0.1337 -0.1402 -0.2526
  393SOL    HW1 1178   1.891   1.895   0.129 -0.2763 -0.1662  1.8007
  393SOL    HW2 1179   1.910   1.886   3.047 -2.4014  0.8578 -0.4098
  394SOL     OW 1180   0.049   0.291   2.693  0.2170  0.1668  0.6940
  394SOL    HW1 1181   0.021   0.213   2.744  0.7173  0.4045 -1.3835
  394SOL    HW2 1182   3.056   0.334   2.644  0.1031 -1.6508 -0.1211
  395SOL     OW 1183   1.059   0.765   0.899 -0.6498 -0.7398  0.5696
  395SOL    HW1 1184   1.016   0.832   0.965 -0.5440  0.4097  1.0503
  395SOL    HW2 1185   1.026   0.776   0.803  0.9801 -0.0171  2.2122
  396SOL     OW 1186   1.258   0.748   0.015 -0.1400  0.3174 -0.5386
  396SOL    HW1 1187   1.314   0.694   3.034 -1.8866  2.1330 -0.5705
  396SOL    HW2 1188   1.314   0.824   0.054 -0.3420 -1.6936 -0.6707
  397SOL     OW 1189   0.500   0.405   2.171  0.2184 -1.0397  0.3110
  397SOL    HW1 1190   0.455   0.384   2.262 -0.5004  0.0796  2.0732
  397SOL    HW2 1191   0.513   0.505   2.150  0.9799  2.0977  0.5408
  398SOL     OW 1192   0.918   0.163   0.296  0.0235 -0.2707  0.2017
  398SOL    HW1 1193   0.904   0.065   0.312  0.9215  2.3315 -1.8350
  398SOL    HW2 1194   0.839   0.200   0.247  2.6901 -1.4176 -1.0907
  399SOL     OW 1195   2.122   0.084   1.763  0.3604  0.0875  0.2175
  399SOL    HW1 1196   2.142   0.107   1.860 -0.4481 -0.7544  0.8907
  399SOL    HW2 1197   2.035   0.034   1.744 -0.3621  2.1439 -0.4980
  400SOL     OW 1198   0.622   1.829   2.171  0.1882 -0.7643 -0.1445
  400SOL    HW1 1199   0.658   1.897   2.242 -0.5887  1.2540  1.9714
  400SOL    HW2 1200   0.545   1.869   2.119  1.6653  0.7118 -0.4746
  401SOL     OW 1201   0.722   0.498   2.501 -0.1432 -0.4731 -0.3931
  401SOL    HW1 1202   0.801   0.490   2.564 -0.5828  0.2747 -2.3387
  401SOL    HW2 1203   0.681   0.593   2.502  0.3415  3.5515  4.0274
  402SOL     OW 1204   2.886   2.181   1.832  0.0993  0.6970  0.3496
  402SOL    HW1 1205   2.942   2.165   1.916 -2.1910 -0.2526 -0.1819
  402SOL    HW2 1206   2.911   2.120   1.756 -3.2460 -5.1544  0.8148
  403SOL     OW 1207   0.521   0.886   1.776  0.7669 -0.5564  0.8705
  403SOL    HW1 1208   0.477   0.838   1.696  0.4298 -0.6739 -2.3523
  403SOL    HW2 1209   0.463   0.908   1.858  0.6949 -1.6537 -0.5326
  404SOL     OW 1210   0.104   2.741   1.731  0.6947 -0.3985 -0.5810
  404SOL    HW1 1211   0.094   2.680   1.652  0.0688 -0.3449 -1.0012
  404SOL    HW2 1212   0.016   2.802   1.741 -1.7453  0.8308  0.2094
  405SOL     OW 1213   0.299   0.490   1.870 -0.2405 -0.6322 -0.3673
  405SOL    HW1 1214   0.359   0.558   1.919 -1.2718  3.5887  3.3350
  405SOL    HW2 1215   0.332   0.394   1.888  0.6810  2.5556  0.4368
  406SOL     OW 1216   1.812   2.264   2.958  0.0715  0.0091 -0.1113
  406SOL    HW1 1217   1.858   2.270   3.051 -2.9278  0.4611 -0.7949
  406SOL    HW2 1218   1.855   2.340   2.901  1.1737  1.5075  1.1807
  407SOL     OW 1219   1.437   1.492   2.320  0.1805  0.8245  0.0824
  407SOL    HW1 1220   1.364   1.553   2.290  1.3540 -2.0890  2.0000
  407SOL    HW2 1221   1.421   1.448   2.412  2.4473  0.7068  0.0768
  408SOL     OW 1222   0.337   0.154   2.755  0.3451 -0.1085  0.0901
  408SOL    HW1 1223   0.354   0.220   2.677  0.2639  1.9241  0.4117
  408SOL    HW2 1224   0.245   0.171   2.796  1.0230  1.6878  0.3650
  409SOL     OW 1225   0.368   1.851   0.512  0.0467  0.2698  0.0406
  409SOL    HW1 1226   0.449   1.815   0.555 -2.1677  2.9418 -1.8208
  409SOL    HW2 1227   0.336   1.934   0.564 -2.1058  2.6315  0.3583
  410SOL     OW 1228   2.464   1.646   0.244  0.1188 -0.3973 -0.5604
  410SOL    HW1 1229   2.469   1.743   0.213  0.8952  0.4439  0.2271
  410SOL    HW2 1230   2.539   1.590   0.200  1.8528 -0.3365  0.6408
  411SOL     OW 1231   2.954   0.356   1.098  0.4179  0.1507  0.0596
  411SOL    HW1 1232   2.895   0.289   1.047  0.3678 -0.3739 -2.4426
  411SOL    HW2 1233   3.051   0.324   1.110  2.7500 -0.9295  1.4953
  412SOL     OW 1234   1.336   0.978   1.180 -0.7803 -0.1598  0.3859
  412SOL    HW1 1235   1.422   1.025   1.145 -0.4286  0.5706 -0.1106
  412SOL    HW2 1236   1.278   1.050   1.233 -1.8221  0.6538 -0.3866
  413SOL     OW 1237   0.302   2.801   1.255  0.6802 -0.2516  0.4428
  413SOL    HW1 1238   0.337   2.900   1.247  2.2547  2.1447  0.2871
  413SOL    HW2 1239   0.206   2.797   1.291 -2.1807 -1.2787 -1.5835
  414SOL     OW 1240   2.986   1.729   2.813 -0.0408 -0.2399  0.0470
  414SOL    HW1 1241   2.996   1.737   2.913  1.8170  1.0430 -1.0393
  414SOL    HW2 1242   2.980   1.815   2.763 -2.8280  0.0723 -0.3390
  415SOL     OW 1243   0.424   2.242   2.860  0.0357  0.0374  0.3947
  415SOL    HW1 1244   0.455   2.224   2.955 -1.9186  2.6957 -0.7462
  415SOL    HW2 1245   0.327   2.208   2.850 -2.8790  0.0815  1.3104
  416SOL     OW 1246   1.484   0.250   0.541 -0.1463  0.5003  0.1312
  416SOL    HW1 1247   1.572   0.299   0.534 -0.0028  0.0508 -0.0843
  416SOL    HW2 1248   1.466   0.232   0.634  0.1410 -2.0911 -2.6291
  417SOL     OW 1249   0.416   1.126   0.588  0.7395 -0.2480 -0.0589
  417SOL    HW1 1250   0.437   1.146   0.683 -1.8832 -1.3917 -2.3439
  417SOL    HW2 1251   0.316   1.114   0.571  1.2443 -0.2016 -1.0805
  418SOL     OW 1252   2.378   0.963   1.943  0.4793 -0.2758 -0.1375
  418SOL    HW1 1253   2.363   0.897   1.867  0.3134 -1.2088  3.4798
  418SOL    HW2 1254   2.356   0.913   2.032  0.5709 -1.9615 -0.1663
  419SOL     OW 1255   0.091   0.486   0.420  0.8849  0.4042  0.0687
  419SOL    HW1 1256   0.175   0.446   0.384  0.6668  0.1495  2.5531
  419SOL    HW2 1257   0.112   0.534   0.506 -1.4910 -0.2802 -2.5874
  420SOL     OW 1258   0.501   1.512   0.358  0.4470 -0.0044 -0.1879
  420SOL    HW1 1259   0.443   1.498   0.272  1.0994 -2.3560  1.0074
  420SOL    HW2 1260   0.503   1.420   0.407  1.5970 -3.5101  1.0175
  421SOL     OW 1261   0.973   2.465   0.651  0.4220  0.3489  0.5272
  421SOL    HW1 1262   1.029   2.382   0.628  3.1436 -1.7634  2.5328
  421SOL    HW2 1263   0.928   2.505   0.567  0.1066 -2.7615  0.4738
  422SOL     OW 1264   3.083   0.949   1.366 -0.4564 -0.4413  0.9656
  422SOL    HW1 1265   3.062   1.004   1.445 -1.3876  1.2919 -1.9886
  422SOL    HW2 1266   0.098   0.918   1.355 -0.2449 -0.1547 -2.7784
  423SOL     OW 1267   1.383   1.648   1.643 -0.1812  0.3155  0.2362
  423SOL    HW1 1268   1.366   1.548   1.661 -0.3093  0.0931  0.8184
  423SOL    HW2 1269   1.397   1.675   1.548  0.2493 -0.2545 -0.0448
  424SOL     OW 1270   1.999   1.097   2.768  0.0278 -0.0861  0.2134
  424SOL    HW1 1271   1.962   1.097   2.866 -3.9326 -2.7361 -0.3144
  424SOL    HW2 1272   1.948   1.169   2.718  0.8817  1.1118  0.6778
  425SOL     OW 1273   0.046   0.397   1.933  0.4012 -0.4131 -0.3738
  425SOL    HW1 1274   0.127   0.458   1.913  1.6441  0.7388 -0.1741
  425SOL    HW2 1275   3.073   0.439   2.010 -3.5164 -0.7745  0.3921
  426SOL     OW 1276   2.509   2.826   2.590  0.4993 -0.5071 -1.0418
  426SOL    HW1 1277   2.582   2.854   2.654  1.5057 -2.4298  1.1709
  426SOL    HW2 1278   2.446   2.752   2.619 -1.3392 -1.5775 -0.5525
  427SOL     OW 1279   0.942   0.540   2.190 -0.2963  0.1387 -0.0100
  427SOL    HW1 1280   0.862   0.478   2.182 -1.4359  1.3813  2.1309
  427SOL    HW2 1281   0.914   0.632   2.152 -1.2393 -2.4176  0.9088
  428SOL     OW 1282   2.063   0.708   1.688  0.6644  0.3495 -0.3432
  428SOL    HW1 1283   1.988   0.653   1.725  3.5418  0.9853 -2.5585
  428SOL    HW2 1284   2.034   0.791   1.638 -0.2828  0.2797  2.0214
  429SOL     OW 1285   2.839   2.800   0.413  0.3098  0.1008 -0.2667
  429SOL    HW1 1286   2.900   2.787   0.331 -1.7041 -0.1743  0.4086
  429SOL    HW2 1287   2.747   2.834   0.382 -1.3350 -0.2954 -1.0985
  430SOL     OW 1288   1.719   1.679   2.535 -0.2938 -0.3360 -0.1004
  430SOL    HW1 1289   1.720   1.581   2.514  2.0938  3.8877  1.0270
  430SOL    HW2 1290   1.632   1.715   2.576  2.4384  0.9563  1.1022
  431SOL     OW 1291   0.075   1.723   1.339 -0.0051  0.6631 -0.2235
  431SOL    HW1 1292   0.119   1.637   1.304  0.1980  0.1283  0.7175
  431SOL    HW2 1293   0.078   1.725   1.442  0.5901 -0.2763  2.1356
  432SOL     OW 1294   1.567   2.830   2.622  0.5196  0.0865 -0.2911
  432SOL    HW1 1295   1.632   2.896   2.672 -0.6297  3.6356  0.9476
  432SOL    HW2 1296   1.629   2.766   2.568 -2.3220 -0.9457 -1.9779
  433SOL     OW 1297   1.639   0.005   2.329  0.1950 -0.0095  0.0065
  433SOL    HW1 1298   1.604   0.026   2.235  0.8807 -1.5039  0.7987
  433SOL    HW2 1299   1.739   0.029   2.334 -0.8797  1.9242  0.8090
  434SOL     OW 1300   0.448   2.487   2.086 -0.1423  0.2838 -0.0254
  434SOL    HW1 1301   0.369   2.425   2.083 -3.4685 -1.0704 -1.2169
  434SOL    HW2 1302   0.458   2.532   1.997 -2.5335  0.7851 -0.1378
  435SOL     OW 1303   0.153   2.160   0.273  0.5983 -0.0502  0.7622
  435SOL    HW1 1304   0.204   2.218   0.206 -1.8651 -0.0858  0.6186
  435SOL    HW2 1305   0.158   2.194   0.366  0.7918 -0.3311 -4.2149
  436SOL     OW 1306   0.666   0.565   1.800  0.0614 -0.2002 -0.0109
  436SOL    HW1 1307   0.684   0.472   1.764 -1.7562 -1.4552 -1.7582
  436SOL    HW2 1308   0.615   0.612   1.724 -1.3166  2.1339 -0.9809
  437SOL     OW 1309   0.357   2.614   2.330  0.0348 -0.1389  0.6678
  437SOL    HW1 1310   0.398   2.588   2.239 -0.2406 -0.1430 -1.6252
  437SOL    HW2 1311   0.417   2.669   2.393  2.5324  1.4929  0.5010
  438SOL     OW 1312   0.587   1.769   1.312  0.0647 -0.0592 -0.1410
  438SOL    HW1 1313   0.633   1.861   1.307  0.1986 -3.4157  0.4278
  438SOL    HW2 1314   0.603   1.729   1.400  0.4011  1.4027 -1.2641
  439SOL     OW 1315   2.059   0.949   2.548 -0.0914  0.3580 -0.1589
  439SOL    HW1 1316   2.160   0.929   2.538  0.0052 -0.8699  0.8808
  439SOL    HW2 1317   2.032   0.983   2.644 -2.6455  1.6802  1.7688
  440SOL     OW 1318   0.640   0.789   3.042 -0.3484 -0.2748  0.1966
  440SOL    HW1 1319   0.702   0.767   0.040  1.3881 -3.3212  0.1808
  440SOL    HW2 1320   0.683   0.863   2.988 -1.0827 -0.3102 -0.9203
  441SOL     OW 1321   0.815   2.269   1.384 -0.0058  0.2660 -0.1824
  441SOL    HW1 1322   0.826   2.316   1.472  1.0415  0.7633 -1.4428
  441SOL    HW2 1323   0.855   2.324   1.308  0.0433  0.4553 -1.9721
  442SOL     OW 1324   2.849   1.600   0.686 -0.4178  0.0168 -0.1365
  442SOL    HW1 1325   2.841   1.699   0.654  1.3984  1.3603  1.7256
  442SOL    HW2 1326   2.913   1.586   0.771  0.0415 -1.4902  1.9844
  443SOL     OW 1327   2.686   2.039   2.680 -0.9216  0.9643  0.1175
  443SOL    HW1 1328   2.665   2.062   2.584  1.5812  1.0186 -3.0063
  443SOL    HW2 1329   2.601   2.014   2.724  4.4388  0.8712  2.6376
  444SOL     OW 1330   1.545   1.157   2.951  0.4905 -0.6060 -0.4578
  444SOL    HW1 1331   1.601   1.169   3.038  2.4342 -1.8077  0.9492
  444SOL    HW2 1332   1.515   1.246   2.917 -1.1998 -1.6954  1.5130
  445SOL     OW 1333   2.679   2.898   1.901  0.1302 -0.1800  0.2165
  445SOL    HW1 1334   2.687   2.966   1.822 -1.2615  0.7408 -2.5706
  445SOL    HW2 1335   2.640   2.951   1.980 -2.9926  1.8457  0.7732
  446SOL     OW 1336   0.367   1.108   1.210  0.0938 -0.3012  0.0217
  446SOL    HW1 1337   0.383   1.206   1.229 -0.7341 -1.3503  0.1650
  446SOL    HW2 1338   0.340   1.101   1.113  2.6790  0.6664  1.8243
  447SOL     OW 1339   0.882   2.021   1.165 -0.4114 -0.3353  0.1643
  447SOL    HW1 1340   0.784   2.033   1.196  0.8267 -1.7024  1.7027
  447SOL    HW2 1341   0.922   1.933   1.196  0.1172 -1.0741  2.8064
  448SOL     OW 1342   1.008   1.144   1.627 -0.3122 -0.5106 -0.2771
  448SOL    HW1 1343   0.941   1.171   1.552 -0.2474  0.4939  1.7163
  448SOL    HW2 1344   1.000   1.045   1.651 -3.0390 -0.5243 -1.7757
  449SOL     OW 1345   2.840   2.115   2.223 -0.5256  0.3875 -0.0656
  449SOL    HW1 1346   2.782   2.194   2.213  3.2314 -1.4926 -1.4922
  449SOL    HW2 1347   2.925   2.126   2.161 -0.2786 -0.1388 -1.7504
  450SOL     OW 1348   0.163   1.691   1.912 -0.0191  0.3282  0.2070
  450SOL    HW1 1349   0.082   1.697   1.971 -0.1794 -1.5460 -0.8262
  450SOL    HW2 1350   0.250   1.729   1.953  0.2685  0.0387  2.8189
  451SOL     OW 1351   1.993   0.669   1.100  0.4255  0.4048  0.7279
  451SOL    HW1 1352   1.910   0.699   1.048 -2.9755 -0.2728  1.2568
  451SOL    HW2 1353   1.971   0.571   1.129 -3.4283 -0.6583 -1.0198
  452SOL     OW 1354   0.788   1.301   0.713 -0.3344  0.3336  0.0613
  452SOL    HW1 1355   0.837   1.384   0.678  1.3013 -1.7603  1.2033
  452SOL    HW2 1356   0.741   1.318   0.802  0.2449  2.5277 -0.4415
  453SOL     OW 1357   1.273   2.146   0.553  0.0196  0.8847  0.2948
  453SOL    HW1 1358   1.172   2.140   0.534 -0.2074  1.5474  1.3785
  453SOL    HW2 1359   1.294   2.241   0.585  1.0068 -3.5767 -2.9564
  454SOL     OW 1360   0.563   1.828   0.039  0.3108  0.3062  0.4029
  454SOL    HW1 1361   0.557   1.776   3.035 -0.7752  0.9805 -1.5044
  454SOL    HW2 1362   0.475   1.812   0.094  0.1822  2.2538  0.2651
  455SOL     OW 1363   1.395   0.988   0.500 -0.0917  0.3417 -0.0664
  455SOL    HW1 1364   1.323   0.925   0.462 -0.4668 -0.6436 -3.6696
  455SOL    HW2 1365   1.389   0.999   0.601  1.9576 -0.8687  1.1630
  456SOL     OW 1366   2.261   2.192   1.261  0.4812 -0.0390  0.3094
  456SOL    HW1 1367   2.186   2.180   1.195  3.3747  2.2093 -1.3256
  456SOL    HW2 1368   2.235   2.170   1.360  1.3959  2.5914  3.6305
  457SOL     OW 1369   1.802   2.968   0.005  0.8645  0.4058  0.0676
  457SOL    HW1 1370   1.824   3.016   0.093  0.6938  2.0687  1.0100
  457SOL    HW2 1371   1.859   2.997   3.010  0.6133  1.4226 -0.1106
  458SOL     OW 1372   2.321   0.650   0.238 -0.1957  0.4680  0.1276
  458SOL    HW1 1373   2.296   0.558   0.267 -0.3202  1.0983  1.5332
  458SOL    HW2 1374   2.290   0.711   0.310 -0.6955 -0.8173 -1.7777
  459SOL     OW 1375   2.935   0.476   2.564  0.1238 -0.2137 -0.2593
  459SOL    HW1 1376   2.940   0.575   2.589 -2.6310 -0.8739  2.8177
  459SOL    HW2 1377   2.898   0.458   2.471 -0.1712 -0.5529  0.9709
  460SOL     OW 1378   3.065   1.030   0.120  0.0814 -0.6624 -0.3278
  460SOL    HW1 1379   0.008   0.972   0.041  1.2833  2.3552 -0.1546
  460SOL    HW2 1380   2.967   1.036   0.139 -0.9513  0.3998  0.2223
  461SOL     OW 1381   2.857   2.636   0.854  0.4208 -0.6074  0.1404
  461SOL    HW1 1382   2.845   2.618   0.953 -0.3945 -1.9513 -0.0776
  461SOL    HW2 1383   2.775   2.612   0.801  2.4514 -3.0737  1.6093
  462SOL     OW 1384   3.017   0.024   1.624 -0.2233 -0.5671  0.7871
  462SOL    HW1 1385   3.039   0.116   1.671  2.8223  2.2679  0.7128
  462SOL    HW2 1386   0.016   3.070   1.583 -0.2127 -0.8875 -1.5948
  463SOL     OW 1387   2.085   1.941   2.397 -0.1228  0.1984 -0.5974
  463SOL    HW1 1388   2.179   1.917   2.373 -0.9243  0.1525  2.7212
  463SOL    HW2 1389   2.026   1.917   2.319  2.1352  0.5033  1.1919
  464SOL     OW 1390   0.715   2.880   1.506  0.5926 -0.6004 -0.2253
  464SOL    HW1 1391   0.671   2.892   1.600  2.5347 -0.4138  0.2104
  464SOL    HW2 1392   0.674   2.946   1.441  0.6544  1.3607 -1.2293
  465SOL     OW 1393   0.601   0.138   1.789 -0.1538  0.0070  0.3088
  465SOL    HW1 1394   0.638   0.045   1.786 -1.8516  1.5101 -0.6695
  465SOL    HW2 1395   0.670   0.202   1.750 -1.4383 -2.4225  2.0557
  466SOL     OW 1396   1.601   2.821   2.036 -0.0831  0.3426 -0.7113
  466SOL    HW1 1397   1.519   2.762   2.026  3.3109  2.6767  0.9591
  466SOL    HW2 1398   1.590   2.874   2.121  0.3339  0.2843  0.1034
  467SOL     OW 1399   0.364   2.039   1.296 -0.3417  0.1421  0.0493
  467SOL    HW1 1400   0.355   1.984   1.213  0.3177  0.6450  1.5505
  467SOL    HW2 1401   0.340   2.138   1.281 -0.0603 -0.3062 -1.9772
  468SOL     OW 1402   2.632   1.574   2.564 -0.0761 -0.2450 -0.0272
  468SOL    HW1 1403   2.607   1.637   2.489 -0.4949  0.2950 -0.3871
  468SOL    HW2 1404   2.558   1.518   2.593  2.2331 -0.8120  1.5275
  469SOL     OW 1405   1.100   1.896   0.339 -0.4781 -0.3316 -0.2809
  469SOL    HW1 1406   1.194   1.897   0.300 -0.2217  0.8690  1.8996
  469SOL    HW2 1407   1.097   1.920   0.438  0.8327  2.3691 -0.8640
  470SOL     OW 1408   2.328   1.276   1.482 -0.0523  0.1420 -0.2798
  470SOL    HW1 1409   2.410   1.294   1.542 -0.0829 -0.0528  1.6355
  470SOL    HW2 1410   2.279   1.195   1.523  0.7342 -3.8546  0.6333
  471SOL     OW 1411   0.329   2.527   2.916 -0.4911 -0.3938  0.2109
  471SOL    HW1 1412   0.348   2.438   2.873  1.3496  0.8379  1.5952
  471SOL    HW2 1413   0.422   2.583   2.929  4.0451  1.2158  2.9003
  472SOL     OW 1414   2.906   1.831   2.024  0.0825  0.0027  0.3294
  472SOL    HW1 1415   2.955   1.744   1.999  0.6374  0.9037  0.6721
  472SOL    HW2 1416   2.803   1.835   2.008 -0.7066 -0.5108  1.8796
  473SOL     OW 1417   0.855   2.976   0.339 -0.1115 -0.1857  0.9098
  473SOL    HW1 1418   0.920   2.919   0.391 -1.9282  2.0769  0.2133
  473SOL    HW2 1419   0.834   2.932   0.250  0.0195  0.4263  1.0696
  474SOL     OW 1420   2.541   2.939   0.665 -0.1612  0.2307  0.3865
  474SOL    HW1 1421   2.502   2.898   0.580 -2.7266  1.7145 -1.9342
  474SOL    HW2 1422   2.596   3.019   0.646 -2.8501 -2.5025 -1.2826
  475SOL     OW 1423   1.957   2.786   1.718 -0.1918  0.3191 -0.2550
  475SOL    HW1 1424   1.939   2.883   1.715  1.0775 -3.3612  2.0343
  475SOL    HW2 1425   2.054   2.761   1.745 -1.0527  0.0776  0.1437
  476SOL     OW 1426   0.736   0.744   0.810 -0.0546  0.3112 -0.1473
  476SOL    HW1 1427   0.775   0.768   0.718 -0.9529 -0.9122  1.2681
  476SOL    HW2 1428   0.727   0.828   0.867  2.3079 -3.3977 -1.3187
  477SOL     OW 1429   0.753   2.202   0.864 -0.1393 -0.2531  0.0683
  477SOL    HW1 1430   0.752   2.305   0.865  0.4052  2.3033 -3.3181
  477SOL    HW2 1431   0.851   2.181   0.889  1.1777  0.3797  0.3041
  478SOL     OW 1432   0.037   2.303   2.269 -0.2580 -0.2960  0.5645
  478SOL    HW1 1433   3.049   2.307   2.344 -2.4131 -2.0069  0.5100
  478SOL    HW2 1434   0.043   2.206   2.235 -0.3066  1.3948 -3.0261
  479SOL     OW 1435   0.167   0.557   1.648  0.0914 -0.3527 -0.6971
  479SOL    HW1 1436   0.224   0.522   1.727 -0.5314  1.6542  1.8089
  479SOL    HW2 1437   0.169   0.492   1.566 -0.1503  0.9615 -0.3855
  480SOL     OW 1438   0.030   2.236   3.064  0.1750 -0.0704 -0.3454
  480SOL    HW1 1439   0.025   2.224   0.078 -0.9006  1.0040  0.8127
  480SOL    HW2 1440   3.068   2.153   3.023 -2.3191 -3.0537  1.1133
  481SOL     OW 1441   1.736   2.088   2.183 -0.5479 -0.3198  0.3824
  481SOL    HW1 1442   1.788   2.057   2.097 -1.7793 -1.7806 -0.6234
  481SOL    HW2 1443   1.703   2.002   2.229 -0.3254  0.8419  2.3434
  482SOL     OW 1444   1.579   2.307   2.804 -0.2919 -0.6740  0.0614
  482SOL    HW1 1445   1.590   2.244   2.723  2.6286  2.2230 -0.5182
  482SOL    HW2 1446   1.658   2.299   2.859 -2.1126 -0.0015 -1.8738
  483SOL     OW 1447   0.625   2.034   2.392  0.3746  0.0982  0.1938
  483SOL    HW1 1448   0.597   1.950   2.441  0.3421 -1.1484 -1.7905
  483SOL    HW2 1449   0.638   2.112   2.452  0.6701 -0.8045 -0.1272
  484SOL     OW 1450   0.054   0.590   1.193  0.4802 -0.1499 -0.3546
  484SOL    HW1 1451   0.049   0.577   1.090 -0.1515 -2.0980 -0.9729
  484SOL    HW2 1452   3.059   0.640   1.227  0.1961 -3.4682  1.9462
  485SOL     OW 1453   2.314   0.746   0.549 -0.0785 -0.2937  0.1108
  485SOL    HW1 1454   2.327   0.663   0.604  0.5544  0.3413  1.8538
  485SOL    HW2 1455   2.236   0.798   0.594 -4.1443  0.8930  0.9349
  486SOL     OW 1456   1.909   0.067   2.364  0.0716  0.0813 -0.2785
  486SOL    HW1 1457   1.908   0.125   2.280  1.7988 -0.5742  2.2124
  486SOL    HW2 1458   1.954   0.118   2.442  1.1445 -0.8962  3.1135
  487SOL     OW 1459   1.304   1.459   1.005 -0.2145  0.0210 -0.1200
  487SOL    HW1 1460   1.253   1.444   0.919 -1.3430  1.3871  0.8407
  487SOL    HW2 1461   1.395   1.501   0.983 -0.4902 -0.2357 -1.6714
  488SOL     OW 1462   2.217   1.253   0.059 -0.1016  0.1542  0.6507
  488SOL    HW1 1463   2.293   1.246   3.072 -0.1691  0.3537 -0.2455
  488SOL    HW2 1464   2.225   1.323   0.133  0.7832  1.5443 -0.5893
  489SOL     OW 1465   2.243   0.391   0.277  0.0199  0.8871  0.4755
  489SOL    HW1 1466   2.170   0.361   0.336  0.5731  1.6038 -1.3096
  489SOL    HW2 1467   2.332   0.345   0.305  0.8214  0.6485 -1.3801
  490SOL     OW 1468   1.488   2.738   0.474 -0.1987 -0.5760  0.1295
  490SOL    HW1 1469   1.513   2.650   0.429 -0.0632  0.9316 -2.2292
  490SOL    HW2 1470   1.491   2.818   0.410  1.3665  1.2821 -1.4800
  491SOL     OW 1471   1.008   0.801   0.633  0.1823  0.5083  0.0732
  491SOL    HW1 1472   0.981   0.898   0.622 -0.7226  1.9321 -0.7113
  491SOL    HW2 1473   1.094   0.781   0.581 -0.2696 -1.1316 -0.8767
  492SOL     OW 1474   1.618   0.249   0.118 -0.5292  0.1057  0.4283
  492SOL    HW1 1475   1.604   0.179   0.188  0.8486 -0.0588  0.2324
  492SOL    HW2 1476   1.532   0.306   0.113 -2.7955 -1.6139  1.0033
  493SOL     OW 1477   1.911   2.289   0.120  0.3124 -0.2763 -0.4620
  493SOL    HW1 1478   1.970   2.341   0.190 -0.5532 -1.2095  0.0945
  493SOL    HW2 1479   1.828   2.250   0.172 -1.4792 -2.0743 -0.4431
  494SOL     OW 1480   0.606   1.301   0.510 -0.9477 -0.3285 -0.3766
  494SOL    HW1 1481   0.533   1.238   0.541  2.2275 -1.1430 -0.8780
  494SOL    HW2 1482   0.688   1.298   0.575  3.1613 -0.9721  1.7918
  495SOL     OW 1483   3.070   2.800   0.896 -0.3246 -0.0436  0.1307
  495SOL    HW1 1484   2.977   2.760   0.883  1.6585  2.0157 -1.4127
  495SOL    HW2 1485   0.064   2.738   0.885  1.0014  3.4305 -0.0146
  496SOL     OW 1486   2.445   0.385   1.710  0.2819  0.6314  0.2797
  496SOL    HW1 1487   2.496   0.326   1.644 -1.2958 -0.8412  2.9102
  496SOL    HW2 1488   2.358   0.416   1.669  0.8828  2.2272  1.8178
  497SOL     OW 1489   1.934   1.687   2.701  0.2509  0.3181 -0.0912
  497SOL    HW1 1490   1.878   1.699   2.619 -0.1669  2.8759  3.3217
  497SOL    HW2 1491   2.027   1.721   2.679 -0.7786  0.3338 -0.5783
  498SOL     OW 1492   1.050   1.938   0.598  0.5522 -0.1930  0.2017
  498SOL    HW1 1493   0.969   1.883   0.629 -2.4766 -0.4720 -1.1923
  498SOL    HW2 1494   1.109   1.958   0.673 -0.3095 -3.2968 -3.9569
  499SOL     OW 1495   0.687   1.882   0.992 -0.3927 -0.1049  0.1384
  499SOL    HW1 1496   0.767   1.948   1.006  2.1326 -2.0558  2.1970
  499SOL    HW2 1497   0.600   1.936   1.010  0.2946 -1.8972 -0.0115
  500SOL     OW 1498   1.270   1.995   0.078 -0.5254 -0.2408  0.1485
  500SOL    HW1 1499   1.256   2.089   0.043 -1.6002 -1.0926 -0.7368
  500SOL    HW2 1500   1.228   1.926   0.016  3.1889  0.5220  1.5125
  501SOL     OW 1501   2.391   2.716   1.234 -0.1690 -0.6857 -0.1650
  501SOL    HW1 1502   2.480   2.667   1.211  3.1732 -3.1215 -1.9622
  501SOL    HW2 1503   2.345   2.683   1.324 -2.4203 -2.3127  2.5548
  502SOL     OW 1504   0.336   0.828   1.579 -0.3129  0.2396  0.2701
  502SOL    HW1 1505   0.256   0.784   1.621 -1.0595 -0.4383 -3.0247
  502SOL    HW2 1506   0.325   0.843   1.481  0.5124 -1.0051  4.1811
  503SOL     OW 1507   1.899   0.547   1.430  0.5654 -0.1123 -0.0090
  503SOL    HW1 1508   1.938   0.458   1.404  0.0694  1.7099 -0.6910
  503SOL    HW2 1509   1.816   0.567   1.373 -2.0928 -0.1511  0.5878
  504SOL     OW 1510   1.527   0.760   2.207  0.1120  0.4482 -0.2821
  504SOL    HW1 1511   1.492   0.784   2.307  0.1071  0.7108  3.4643
  504SOL    HW2 1512   1.463   0.808   2.141 -2.1145 -0.8110  0.4994
  505SOL     OW 1513   0.982   0.097   2.618  0.3839 -0.2671  0.5422
  505SOL    HW1 1514   1.069   0.042   2.617  1.1790  1.3283 -2.4483
  505SOL    HW2 1515   0.916   0.049   2.678  1.5421 -0.2833  2.0097
  506SOL     OW 1516   0.431   0.357   1.466 -0.4058  0.1874 -0.2577
  506SOL    HW1 1517   0.422   0.270   1.524 -0.3966  1.4783  1.3430
  506SOL    HW2 1518   0.335   0.391   1.448 -3.2589 -1.6689  1.0743
  507SOL     OW 1519   1.353   3.059   2.961 -0.3402  0.1028  0.6061
  507SOL    HW1 1520   1.297   0.024   3.032  0.1777  3.7207 -2.0950
  507SOL    HW2 1521   1.391   0.044   2.899  1.0568 -1.2906 -2.1345
  508SOL     OW 1522   2.133   0.625   2.553  0.3987  0.0519 -0.2441
  508SOL    HW1 1523   2.141   0.531   2.515  1.1273 -1.5106 -0.3848
  508SOL    HW2 1524   2.213   0.682   2.530 -0.3625 -1.7671  0.5968
  509SOL     OW 1525   0.792   1.457   1.875 -0.2069 -0.2129 -0.0784
  509SOL    HW1 1526   0.771   1.524   1.803  0.4600 -1.5018  0.2955
  509SOL    HW2 1527   0.773   1.501   1.966  0.7254  1.8433  2.2792
  510SOL     OW 1528   0.028   1.235   0.873  0.0051 -0.3079 -0.4411
  510SOL    HW1 1529   0.028   1.334   0.855  0.5907 -2.7460  0.8501
  510SOL    HW2 1530   3.069   1.219   0.966  0.1216  1.3478  1.3474
  511SOL     OW 1531   1.770   1.745   0.833 -0.1973 -0.3233  0.2712
  511SOL    HW1 1532   1.759   1.818   0.900  0.1415  0.6814 -0.3802
  511SOL    HW2 1533   1.854   1.688   0.858 -2.2205 -0.4855  1.8021
  512SOL     OW 1534   0.928   1.098   0.317 -0.1950  0.2354  1.0369
  512SOL    HW1 1535   0.868   1.146   0.248 -1.0186  0.4964  0.6804
  512SOL    HW2 1536   0.991   1.166   0.364  0.7023 -3.0088  2.5172
  513SOL     OW 1537   0.454   2.426   0.522 -0.2188  0.4212  0.2447
  513SOL    HW1 1538   0.449   2.449   0.423  1.0031 -1.2080  1.5265
  513SOL    HW2 1539   0.494   2.512   0.564 -2.5804  0.6977 -0.5996
  514SOL     OW 1540   2.619   2.092   2.424 -0.0053  0.6216  0.7046
  514SOL    HW1 1541   2.587   2.190   2.421  0.4866 -0.9004  2.8641
  514SOL    HW2 1542   2.688   2.077   2.348  0.8980 -1.4510 -1.4206
  515SOL     OW 1543   2.574   0.712   0.148  0.1101 -0.4371  0.0363
  515SOL    HW1 1544   2.628   0.760   0.217 -1.2891 -1.6796  1.2259
  515SOL    HW2 1545   2.474   0.705   0.180 -2.8133  0.5295 -0.7649
  516SOL     OW 1546   2.203   2.967   0.919 -0.2749 -0.1543  0.1776
  516SOL    HW1 1547   2.299   2.973   0.882  1.0296 -0.7886 -0.1814
  516SOL    HW2 1548   2.141   2.939   0.846  0.4919  2.0620  0.0137
  517SOL     OW 1549   1.410   2.006   2.849 -0.1021 -0.3675  0.1189
  517SOL    HW1 1550   1.370   1.918   2.883  2.5504 -0.0604 -0.0375
  517SOL    HW2 1551   1.341   2.058   2.790 -3.6623  1.0002 -2.2249
  518SOL     OW 1552   0.968   0.888   1.722  0.1743  0.2401 -0.1626
  518SOL    HW1 1553   0.981   0.827   1.643 -1.3129 -0.3671  0.8723
  518SOL    HW2 1554   1.003   0.843   1.805  0.9737 -0.4124  1.9172
  519SOL     OW 1555   2.891   1.569   0.397  0.1870 -0.6156  0.1208
  519SOL    HW1 1556   2.893   1.579   0.504  4.3490  0.4381  7.9929
  519SOL    HW2 1557   2.985   1.552   0.364  1.7834  0.0283  0.0805
  520SOL     OW 1558   2.143   2.144   1.825 -0.5865  0.5201 -0.0805
  520SOL    HW1 1559   2.224   2.203   1.807  3.6018  0.3321 -1.8505
  520SOL    HW2 1560   2.128   2.112   1.921  0.4884 -1.9350  3.0715
  521SOL     OW 1561   0.711   2.925   2.540 -0.6150 -0.3027 -0.0022
  521SOL    HW1 1562   0.746   2.953   2.637  0.9538  0.5791  2.4350
  521SOL    HW2 1563   0.738   2.990   2.466  0.1155  0.1291  1.4961
  522SOL     OW 1564   2.177   0.357   2.279  0.0262 -0.5360 -0.8411
  522SOL    HW1 1565   2.270   0.317   2.267 -5.4321 -0.3710 -3.1717
  522SOL    HW2 1566   2.131   0.367   2.191  0.2582 -1.1507  2.1165
  523SOL     OW 1567   1.969   2.613   1.282 -0.1265  0.3042 -0.6523
  523SOL    HW1 1568   1.889   2.556   1.307 -0.7267 -0.8143 -0.7081
  523SOL    HW2 1569   2.056   2.557   1.292 -1.6553 -0.2995  0.6518
  524SOL     OW 1570   1.633   2.079   3.040  0.6753 -0.0205  0.7192
  524SOL    HW1 1571   1.702   2.148   3.005  1.8451  0.7871  0.3184
  524SOL    HW2 1572   1.568   2.048   2.968 -1.6809 -0.4516 -0.6903
  525SOL     OW 1573   0.200   0.696   0.133  0.3424  0.1945  0.3615
  525SOL    HW1 1574   0.297   0.704   0.143 -2.3101  0.0797 -1.7942
  525SOL    HW2 1575   0.185   0.671   0.038  1.1769 -0.4483 -1.2577
  526SOL     OW 1576   1.045   2.832   0.453  0.1710  0.0009  0.1597
  526SOL    HW1 1577   1.103   2.751   0.460  1.8632 -0.1372 -1.2350
  526SOL    HW2 1578   1.082   2.895   0.524  1.4476 -0.5275 -0.3207
  527SOL     OW 1579   2.790   1.853   0.590  0.2622  0.1055 -0.6629
  527SOL    HW1 1580   2.723   1.889   0.663 -0.6762  1.4075  0.0762
  527SOL    HW2 1581   2.751   1.867   0.497 -0.7437 -1.0372 -1.7040
  528SOL     OW 1582   0.671   0.952   2.105  0.3679 -0.0507  0.0676
  528SOL    HW1 1583   0.598   0.978   2.039  0.3636  0.3740 -0.4087
  528SOL    HW2 1584   0.746   0.899   2.058  0.3340  1.3257  0.6373
  529SOL     OW 1585   1.488   1.887   2.602 -0.3426  0.1668 -0.4712
  529SOL    HW1 1586   1.471   1.920   2.698 -0.0473 -1.0138 -1.3793
  529SOL    HW2 1587   1.400   1.892   2.550  2.4788  2.7793  1.1013
  530SOL     OW 1588   1.630   1.058   2.293  0.0082 -0.2842 -0.6168
  530SOL    HW1 1589   1.601   1.102   2.209 -0.1847  0.4525  2.1143
  530SOL    HW2 1590   1.563   0.990   2.325  1.2989 -0.8634 -0.3917
  531SOL     OW 1591   0.499   2.205   2.592 -0.2239 -0.6701  0.0189
  531SOL    HW1 1592   0.430   2.239   2.527 -1.0926  0.0322 -0.4491
  531SOL    HW2 1593   0.474   2.220   2.691 -0.2047  2.0525  0.1657
  532SOL     OW 1594   2.539   0.897   0.555  0.1180 -0.4211 -0.2053
  532SOL    HW1 1595   2.549   0.943   0.642 -2.4085 -1.4622 -0.3430
  532SOL    HW2 1596   2.452   0.849   0.557 -1.0649  1.4889  0.0899
  533SOL     OW 1597   3.043   0.291   1.714  0.1882 -1.0801 -0.8129
  533SOL    HW1 1598   0.011   0.346   1.783  3.1796 -0.4735  1.5007
  533SOL    HW2 1599   3.056   0.323   1.617  1.8735  1.4038  2.0371
  534SOL     OW 1600   0.675   0.061   3.036  0.1411  0.0121 -0.3051
  534SOL    HW1 1601   0.679   0.140   0.017  1.0056 -0.3956 -2.3482
  534SOL    HW2 1602   0.651   0.097   2.943  2.0625 -0.6689 -1.5189
  535SOL     OW 1603   0.293   0.325   0.323  0.1510  0.1321  0.1401
  535SOL    HW1 1604   0.253   0.278   0.242  0.0136 -0.0546  0.5320
  535SOL    HW2 1605   0.338   0.263   0.390 -1.7368  1.5890 -1.7961
  536SOL     OW 1606   0.359   1.709   1.196 -0.7034 -0.1290 -0.4645
  536SOL    HW1 1607   0.361   1.779   1.121  0.3691 -0.9378  2.6559
  536SOL    HW2 1608   0.445   1.703   1.257 -0.7216 -2.3075  3.3626
  537SOL     OW 1609   0.865   2.744   1.863 -0.4395 -0.2133  0.1078
  537SOL    HW1 1610   0.934   2.724   1.789 -0.8349  2.1480 -0.3118
  537SOL    HW2 1611   0.904   2.809   1.931 -2.3785  0.7555 -0.3648
  538SOL     OW 1612   0.024   1.818   3.037 -0.2772 -0.5047 -0.1628
  538SOL    HW1 1613   0.043   1.844   0.046  0.6103  0.2547 -1.8366
  538SOL    HW2 1614   0.118   1.806   2.990  2.5701 -1.1577 -1.8667
  539SOL     OW 1615   2.402   0.955   2.724 -0.1452 -0.0410 -0.1323
  539SOL    HW1 1616   2.367   0.903   2.638 -2.7355 -3.0217 -0.7325
  539SOL    HW2 1617   2.499   0.984   2.721  0.8482  0.9567 -2.0414
  540SOL     OW 1618   1.841   0.262   2.629 -0.0673 -0.0636 -0.0048
  540SOL    HW1 1619   1.872   0.245   2.727  1.1664  0.1948 -0.1732
  540SOL    HW2 1620   1.923   0.254   2.569 -1.2560  0.4843  1.2016
  541SOL     OW 1621   0.616   2.979   2.177 -0.1440  0.0127  0.0197
  541SOL    HW1 1622   0.582   3.026   2.261 -0.1981  0.1378  2.4837
  541SOL    HW2 1623   0.670   3.038   2.115  0.0507  1.6450 -0.0318
  542SOL     OW 1624   1.920   2.700   3.002  0.6605 -0.1588  0.2661
  542SOL    HW1 1625   1.864   2.661   2.924 -1.1395 -2.2490  0.3908
  542SOL    HW2 1626   1.892   2.793   3.024 -1.0653  0.7919  1.8089
  543SOL     OW 1627   1.088   0.183   0.478  0.1999 -0.2217 -0.4074
  543SOL    HW1 1628   1.169   0.230   0.439  1.2959 -1.0498  0.1937
  543SOL    HW2 1629   1.012   0.170   0.412  2.6101 -0.1247 -1.7209
  544SOL     OW 1630   2.502   1.214   1.888 -0.0158  0.0671  0.3363
  544SOL    HW1 1631   2.452   1.127   1.906 -0.1919  1.5458 -0.3808
  544SOL    HW2 1632   2.529   1.263   1.975  2.0475  1.0507 -0.2239
  545SOL     OW 1633   2.092   1.607   1.213 -0.1607  0.2907  0.3526
  545SOL    HW1 1634   2.175   1.659   1.198  1.0199 -2.3704 -0.6460
  545SOL    HW2 1635   2.126   1.516   1.250 -0.3090 -0.2031 -1.0721
  546SOL     OW 1636   0.096   2.987   2.154 -0.1549 -0.5412  0.4144
  546SOL    HW1 1637   0.148   3.066   2.114 -1.7510  0.4612  1.2049
  546SOL    HW2 1638   0.156   2.922   2.204 -2.5773 -1.8555 -1.9001
  547SOL     OW 1639   1.522   0.633   0.895  0.0310  0.2343  0.4394
  547SOL    HW1 1640   1.454   0.695   0.933 -1.0584  1.7071 -1.8843
  547SOL    HW2 1641   1.557   0.569   0.963 -0.4119  2.1277  0.5813
  548SOL     OW 1642   1.281   2.523   2.654  0.3578 -0.0399 -0.0693
  548SOL    HW1 1643   1.217   2.451   2.689  0.7317  2.1784  1.6691
  548SOL    HW2 1644   1.337   2.481   2.580 -1.3615 -1.5196 -2.7808
  549SOL     OW 1645   2.072   0.375   0.054  0.3167 -0.2695  0.1383
  549SOL    HW1 1646   2.027   0.465   0.021  0.1949  0.7420 -1.1147
  549SOL    HW2 1647   2.153   0.392   0.113  2.0514  0.5439  1.6372
  550SOL     OW 1648   3.016   1.950   0.544 -0.5298  0.5320 -0.3389
  550SOL    HW1 1649   2.925   1.907   0.563 -2.6210 -1.2647 -0.9470
  550SOL    HW2 1650   0.008   1.877   0.536  0.8763  0.9719  1.1996
  551SOL     OW 1651   1.258   2.860   2.259  0.1779  0.3060 -0.0398
  551SOL    HW1 1652   1.324   2.850   2.336  1.4527 -2.4687 -0.2599
  551SOL    HW2 1653   1.196   2.943   2.261 -0.3162  1.4813 -0.0241
  552SOL     OW 1654   2.952   2.294   2.508  0.3954  0.2780 -0.0937
  552SOL    HW1 1655   2.943   2.195   2.505  0.1562  1.2329 -0.4251
  552SOL    HW2 1656   2.888   2.330   2.581 -0.3527  0.2840 -1.7877
  553SOL     OW 1657   0.165   0.303   0.868 -0.0235 -0.7985 -0.0134
  553SOL    HW1 1658   0.142   0.281   0.967  2.8446 -0.2169 -1.6285
  553SOL    HW2 1659   0.117   0.242   0.803  1.9729  1.4211  3.4006
  554SOL     OW 1660   2.152   2.143   1.531  0.3474 -0.4746 -0.8490
  554SOL    HW1 1661   2.110   2.106   1.618 -3.6884 -2.1434 -0.1724
  554SOL    HW2 1662   2.188   2.234   1.560 -0.2977 -0.1099  2.1853
  555SOL     OW 1663   1.746   2.379   2.101 -0.1415  0.4457  0.3032
  555SOL    HW1 1664   1.669   2.305   2.107 -2.9393 -2.2667 -0.8122
  555SOL    HW2 1665   1.805   2.351   2.020  0.6442 -2.2712 -0.2514
  556SOL     OW 1666   1.285   1.394   1.268 -0.0171 -0.3454  0.5748
  556SOL    HW1 1667   1.317   1.392   1.172 -0.4175 -0.0896 -0.6999
  556SOL    HW2 1668   1.221   1.465   1.286 -0.7291  1.2628 -3.4016
  557SOL     OW 1669   2.131   2.665   1.977  0.3006 -0.0400  0.2258
  557SOL    HW1 1670   2.223   2.710   1.993 -3.4328 -1.8817 -0.2743
  557SOL    HW2 1671   2.057   2.733   1.988 -2.2315  0.2803  1.1347
  558SOL     OW 1672   0.210   2.818   1.970 -0.0774 -0.0614 -0.5582
  558SOL    HW1 1673   0.130   2.837   2.034 -0.3786 -1.1355 -0.3777
  558SOL    HW2 1674   0.176   2.781   1.888  0.0572  1.1902 -0.8089
  559SOL     OW 1675   2.138   0.064   0.559 -0.0362 -0.1075 -0.6641
  559SOL    HW1 1676   2.158   0.087   0.655  1.3434  2.0244 -3.9099
  559SOL    HW2 1677   2.112   0.149   0.511  0.4291 -1.1296  1.3800
  560SOL     OW 1678   1.767   2.899   0.664 -0.5866  0.2819  0.3253
  560SOL    HW1 1679   1.773   2.872   0.765 -1.1070 -1.7013 -0.1751
  560SOL    HW2 1680   1.674   2.932   0.634 -2.2977  1.7224 -0.6178
  561SOL     OW 1681   0.654   0.203   0.961  0.2351  0.3177 -0.0674
  561SOL    HW1 1682   0.687   0.299   0.977 -1.4330  2.7285 -1.9916
  561SOL    HW2 1683   0.715   0.152   0.900 -0.4642  0.6206  1.3182
  562SOL     OW 1684   0.473   0.951   2.338 -0.2016  0.3040  0.1731
  562SOL    HW1 1685   0.415   1.027   2.304  1.4828  2.6280 -1.3365
  562SOL    HW2 1686   0.557   0.947   2.275 -0.7248  0.7219 -0.9340
  563SOL     OW 1687   1.825   2.238   2.393  0.1047  0.1646 -0.0350
  563SOL    HW1 1688   1.900   2.199   2.451  1.6714  2.7398  0.2376
  563SOL    HW2 1689   1.790   2.184   2.313 -1.5162 -0.0070 -2.8535
  564SOL     OW 1690   2.811   1.051   1.021 -0.0661 -0.4126  0.4810
  564SOL    HW1 1691   2.752   0.976   1.059 -1.3895 -0.3287  0.0706
  564SOL    HW2 1692   2.773   1.077   0.933 -2.1755 -0.3456 -0.7437
  565SOL     OW 1693   1.068   0.909   0.210 -0.3088  0.2421 -0.0496
  565SOL    HW1 1694   1.025   0.839   0.154  1.0107  0.7466  0.6087
  565SOL    HW2 1695   0.998   0.970   0.251  1.9575  0.6185 -0.5848
  566SOL     OW 1696   2.310   0.228   2.670  0.3199  0.6176 -0.1968
  566SOL    HW1 1697   2.361   0.140   2.664  1.9036 -1.5753  0.3944
  566SOL    HW2 1698   2.250   0.231   2.750  0.1195  1.1110 -1.1134
  567SOL     OW 1699   1.858   0.767   0.663  0.2429  0.0349 -0.6739
  567SOL    HW1 1700   1.837   0.867   0.667 -0.9731  1.0209  0.5861
  567SOL    HW2 1701   1.910   0.742   0.580 -0.4307 -1.5332 -0.3694
  568SOL     OW 1702   1.823   1.804   2.913 -0.2041  0.2178  0.3931
  568SOL    HW1 1703   1.750   1.751   2.960  0.6538  1.4198 -0.4719
  568SOL    HW2 1704   1.851   1.756   2.823  0.5038 -0.9144 -4.5415
  569SOL     OW 1705   1.969   1.313   2.987  0.0964 -0.3891  0.3559
  569SOL    HW1 1706   1.908   1.379   3.038  1.4965 -0.1303  2.0260
  569SOL    HW2 1707   2.050   1.290   3.047  1.0769 -0.5966 -0.7703
  570SOL     OW 1708   0.251   2.216   1.714 -0.2430  0.4718 -0.2049
  570SOL    HW1 1709   0.350   2.217   1.696 -2.1793  0.6945  1.0686
  570SOL    HW2 1710   0.212   2.307   1.741 -2.1128  0.5719  0.0477
  571SOL     OW 1711   0.423   1.158   1.864 -0.6514  0.0955 -0.2650
  571SOL    HW1 1712   0.497   1.194   1.800  1.2669 -2.2683 -2.4250
  571SOL    HW2 1713   0.336   1.137   1.819  4.1295  0.7577 -1.3186
  572SOL     OW 1714   1.415   1.794   0.328 -0.1329 -0.4387 -0.1809
  572SOL    HW1 1715   1.443   1.710   0.375 -0.2293 -0.6731 -0.0681
  572SOL    HW2 1716   1.436   1.793   0.228  1.4174 -0.4440 -1.8812
  573SOL     OW 1717   1.826   2.157   0.476  0.1842  0.2024 -0.6877
  573SOL    HW1 1718   1.780   2.158   0.388  2.9788  0.5942  1.3722
  573SOL    HW2 1719   1.789   2.231   0.536  2.5618 -0.5421  0.0382
  574SOL     OW 1720   0.754   0.147   1.235 -0.3388 -0.4150  0.1624
  574SOL    HW1 1721   0.693   0.084   1.286  1.4483 -2.1406  2.3973
  574SOL    HW2 1722   0.718   0.144   1.140  1.0976 -0.4290 -2.1427
  575SOL     OW 1723   0.384   1.149   1.551  0.7699 -0.0687  0.3666
  575SOL    HW1 1724   0.472   1.145   1.598  0.0279 -1.2794  0.1435
  575SOL    HW2 1725   0.323   1.074   1.590  0.4214  0.0314  1.6322
  576SOL     OW 1726   2.746   2.920   1.080 -0.4176 -0.1974  0.3168
  576SOL    HW1 1727   2.665   2.893   1.035  0.2193  0.1740 -0.2279
  576SOL    HW2 1728   2.732   3.004   1.134  1.0915 -3.6486 -1.7606
  577SOL     OW 1729   1.036   1.266   2.127  0.2224  0.1832  0.1624
  577SOL    HW1 1730   1.051   1.278   2.024 -1.0924  0.5813 -3.4999
  577SOL    HW2 1731   1.002   1.170   2.153 -1.7471  0.4584 -2.0679
  578SOL     OW 1732   1.895   1.145   2.309  0.0969 -0.4246 -0.2052
  578SOL    HW1 1733   1.794   1.128   2.308 -4.6571 -0.3220  0.7925
  578SOL    HW2 1734   1.920   1.201   2.388 -1.2912 -0.8035 -1.6094
  579SOL     OW 1735   1.584   2.356   1.765  0.2802 -0.0309  0.0119
  579SOL    HW1 1736   1.605   2.459   1.759 -0.7379  4.3571  0.1612
  579SOL    HW2 1737   1.580   2.328   1.865  0.0149 -1.7848  0.1661
  580SOL     OW 1738   1.255   1.806   2.938 -0.0283  0.2419  0.3665
  580SOL    HW1 1739   1.295   1.711   2.951  1.3327  1.7833 -0.8865
  580SOL    HW2 1740   1.170   1.805   2.882  2.9539 -0.5560  1.6226
  581SOL     OW 1741   1.176   0.914   2.187 -0.5112  0.5230 -0.2752
  581SOL    HW1 1742   1.097   0.978   2.207  0.5053  0.8313 -1.3111
  581SOL    HW2 1743   1.217   0.876   2.272 -0.5291 -0.1361  1.4732
  582SOL     OW 1744   0.888   1.277   1.418 -0.8345  0.8045 -0.3494
  582SOL    HW1 1745   0.806   1.327   1.410  2.3349 -2.2474  1.8507
  582SOL    HW2 1746   0.911   1.242   1.328 -0.0046 -1.6324  1.2450
  583SOL     OW 1747   1.019   1.287   1.850  0.0763 -0.3602  0.3034
  583SOL    HW1 1748   1.011   1.224   1.771 -0.4140  0.4401  0.3973
  583SOL    HW2 1749   0.942   1.350   1.850  1.3383 -0.4212  0.1183
  584SOL     OW 1750   2.657   2.533   0.691  0.7942  0.5963  0.4433
  584SOL    HW1 1751   2.582   2.483   0.744 -1.9429 -0.3056 -0.3398
  584SOL    HW2 1752   2.630   2.545   0.588 -1.7606 -0.5635 -3.2603
  585SOL     OW 1753   1.937   0.203   2.876 -0.0466  0.2118  0.2035
  585SOL    HW1 1754   2.032   0.240   2.899  0.5902  0.3007  1.3552
  585SOL    HW2 1755   1.947   0.101   2.859  0.3623 -1.6821 -1.0540
  586SOL     OW 1756   0.213   2.253   1.039 -0.9245  0.1150 -0.6016
  586SOL    HW1 1757   0.212   2.203   0.947  0.0607 -0.5719 -2.1310
  586SOL    HW2 1758   0.121   2.265   1.076  0.8137 -0.9979  0.5394
  587SOL     OW 1759   1.612   1.673   3.055  0.2134  0.1955 -0.2503
  587SOL    HW1 1760   1.573   1.750   0.023  1.2543 -2.3900 -3.8779
  587SOL    HW2 1761   1.534   1.630   3.006 -1.5396  0.6211 -0.2303
  588SOL     OW 1762   0.409   0.256   1.206  0.1331 -0.1256 -0.1206
  588SOL    HW1 1763   0.434   0.322   1.133 -0.3375 -0.1541 -1.3991
  588SOL    HW2 1764   0.429   0.302   1.295  0.7964  3.0398  1.5036
  589SOL     OW 1765   1.355   0.274   0.867  0.0949  0.3582 -0.1268
  589SOL    HW1 1766   1.255   0.257   0.845  1.3240 -0.8557 -1.2375
  589SOL    HW2 1767   1.358   0.286   0.966 -3.3734 -0.7691 -0.4514
  590SOL     OW 1768   1.115   0.888   2.904  1.0459 -0.0947 -0.4926
  590SOL    HW1 1769   1.189   0.910   2.831  2.0994  0.5705 -0.6948
  590SOL    HW2 1770   1.150   0.820   2.969  1.1850 -1.7222  1.5849
  591SOL     OW 1771   2.576   2.385   2.477  0.0324  0.2376  0.1254
  591SOL    HW1 1772   2.478   2.378   2.500 -1.4252 -0.5102  0.6261
  591SOL    HW2 1773   2.605   2.479   2.444  0.2620 -1.1908 -0.7461
  592SOL     OW 1774   1.958   1.853   1.266  0.1674  0.4244  0.4809
  592SOL    HW1 1775   2.031   1.876   1.331 -1.5665  1.8480  1.0604
  592SOL    HW2 1776   1.953   1.751   1.248 -1.3661  0.7067 -0.7273
  593SOL     OW 1777   1.036   0.752   1.491  1.2984  0.0884 -0.0014
  593SOL    HW1 1778   0.952   0.747   1.428 -1.1224 -2.4262 -1.5199
  593SOL    HW2 1779   1.120   0.746   1.435 -1.0668  0.9023  1.2488
  594SOL     OW 1780   2.397   1.097   2.326 -0.7004  0.0369 -0.6951
  594SOL    HW1 1781   2.349   1.139   2.248 -1.0241 -0.3061  1.0344
  594SOL    HW2 1782   2.424   1.004   2.292 -1.8619  1.6447 -1.7038
  595SOL     OW 1783   3.032   0.272   0.500  0.0424  0.1324 -0.1420
  595SOL    HW1 1784   0.023   0.324   0.464 -0.0720 -0.9429  2.7436
  595SOL    HW2 1785   3.061   0.224   0.587 -1.2510 -0.1588  0.8485
  596SOL     OW 1786   0.003   1.406   1.130 -0.2698  0.1231  0.4966
  596SOL    HW1 1787   0.078   1.425   1.197 -2.2825  0.8697  0.1933
  596SOL    HW2 1788   3.051   1.311   1.147 -1.9431 -0.5687 -2.6893
  597SOL     OW 1789   1.817   1.457   0.478  0.7018  0.1007 -0.0358
  597SOL    HW1 1790   1.775   1.549   0.508 -1.9890  4.5878  0.7674
  597SOL    HW2 1791   1.850   1.460   0.383 -0.0467 -1.1807 -1.6620
  598SOL     OW 1792   0.395   2.557   1.747 -0.2222  0.1244  0.6263
  598SOL    HW1 1793   0.405   2.508   1.659  0.1981 -0.8290 -0.7292
  598SOL    HW2 1794   0.477   2.603   1.773 -3.3697 -0.5503 -0.4994
  599SOL     OW 1795   2.824   1.252   2.498  0.2470  0.6341  0.3111
  599SOL    HW1 1796   2.854   1.198   2.583  0.5735  0.1282  0.9136
  599SOL    HW2 1797   2.884   1.323   2.458  0.5928  0.6689 -2.1741
  600SOL     OW 1798   0.598   1.192   0.245  0.1072 -0.1398 -0.2275
  600SOL    HW1 1799   0.686   1.201   0.192  0.8925 -0.4317 -1.9082
  600SOL    HW2 1800   0.607   1.253   0.326  1.6424  0.4908 -1.2964
  601SOL     OW 1801   0.713   0.988   0.920 -0.2303 -0.1925 -0.6909
  601SOL    HW1 1802   0.669   0.979   1.015 -2.7446  0.1822  0.1320
  601SOL    HW2 1803   0.655   1.055   0.872  1.9469  1.1143 -0.2672
  602SOL     OW 1804   1.397   2.341   0.299  0.1130 -0.5455 -0.1320
  602SOL    HW1 1805   1.418   2.321   0.394 -1.8709  1.0689 -0.4955
  602SOL    HW2 1806   1.470   2.396   0.254  0.2726  2.5997 -0.7830
  603SOL     OW 1807   1.063   2.463   2.006 -0.1530  0.2915 -0.3280
  603SOL    HW1 1808   1.065   2.557   2.041  0.6547  0.1601  0.4214
  603SOL    HW2 1809   0.968   2.423   2.010 -0.4450 -3.0096  1.2074
  604SOL     OW 1810   0.306   0.357   2.368 -0.1169  0.6522  0.2899
  604SOL    HW1 1811   0.270   0.261   2.342 -0.0507 -1.6882 -1.3976
  604SOL    HW2 1812   0.235   0.430   2.381  1.4440 -0.9983  0.9538
  605SOL     OW 1813   2.760   1.047   1.409  0.4053  0.7371  0.6068
  605SOL    HW1 1814   2.781   1.014   1.498  1.9835  0.7709 -1.4624
  605SOL    HW2 1815   2.724   0.962   1.358 -1.4423  0.9180  0.4852
  606SOL     OW 1816   0.732   1.689   2.682  0.2633 -0.7115 -0.4579
  606SOL    HW1 1817   0.665   1.723   2.609  2.1230  1.7850 -3.2019
  606SOL    HW2 1818   0.770   1.600   2.651  0.6223  0.8873 -0.5430
  607SOL     OW 1819   0.462   0.048   0.162 -0.0065 -0.2804 -0.1544
  607SOL    HW1 1820   0.470   3.055   0.095  0.3139 -1.0059  1.4762
  607SOL    HW2 1821   0.377   0.099   0.143  0.7027  2.5264  1.4584
  608SOL     OW 1822   2.256   1.751   2.061 -0.5309  0.4294  0.1971
  608SOL    HW1 1823   2.197   1.792   1.988 -1.4908 -1.8630 -2.3804
  608SOL    HW2 1824   2.195   1.696   2.125 -0.6635  1.2818 -1.9224
  609SOL     OW 1825   2.782   0.186   0.965 -0.6739 -0.2848  0.0860
  609SOL    HW1 1826   2.830   0.098   0.933  2.3839 -1.9024 -0.4053
  609SOL    HW2 1827   2.687   0.169   1.008 -1.5610 -1.1361  1.4058
  610SOL     OW 1828   0.287   2.723   0.413 -0.5503  0.1657 -0.6094
  610SOL    HW1 1829   0.359   2.790   0.444  2.3369  2.2999 -1.6539
  610SOL    HW2 1830   0.268   2.740   0.314 -0.0921 -0.9274  2.6546
  611SOL     OW 1831   1.643   1.196   0.111  0.0892  0.8033 -0.5667
  611SOL    HW1 1832   1.634   1.095   0.138  3.1290 -0.9682 -1.4509
  611SOL    HW2 1833   1.585   1.262   0.169  1.8204  1.2772 -0.9138
  612SOL     OW 1834   0.693   2.382   1.783  0.0544 -0.1974  0.0570
  612SOL    HW1 1835   0.745   2.347   1.864 -0.3095 -1.1333 -2.3518
  612SOL    HW2 1836   0.648   2.468   1.814  2.4164  1.6675  0.1700
  613SOL     OW 1837   0.612   2.636   0.585 -0.2692 -0.0696 -0.5077
  613SOL    HW1 1838   0.645   2.654   0.679  2.1558 -1.7614 -0.2891
  613SOL    HW2 1839   0.690   2.612   0.529 -0.6876  1.0775 -2.3177
  614SOL     OW 1840   2.326   2.683   1.567  0.3868  0.3424  0.2959
  614SOL    HW1 1841   2.418   2.645   1.590 -0.8662  0.3654 -2.0065
  614SOL    HW2 1842   2.259   2.654   1.633  2.6579 -1.1882 -2.6638
  615SOL     OW 1843   1.780   0.978   0.198 -0.3408 -0.5245 -0.0423
  615SOL    HW1 1844   1.750   1.030   0.284 -1.0404 -1.4908 -1.0190
  615SOL    HW2 1845   1.848   0.910   0.225 -2.1417 -0.7558  2.2567
  616SOL     OW 1846   2.003   0.751   0.161  0.4400 -0.1792  0.5452
  616SOL    HW1 1847   2.069   0.814   0.117 -1.8518 -0.9924 -1.6679
  616SOL    HW2 1848   1.997   0.672   0.098  2.3190  1.9801  3.7480
  617SOL     OW 1849   0.966   0.705   2.787 -0.4666  0.4853 -0.2908
  617SOL    HW1 1850   1.009   0.776   2.848  3.7852 -0.5379  1.5163
  617SOL    HW2 1851   0.993   0.613   2.820  0.5112 -0.4392  0.9268
  618SOL     OW 1852   0.929   3.006   1.976 -0.0374 -0.3709  0.1597
  618SOL    HW1 1853   0.980   3.010   1.888 -0.2964 -0.9629  0.5904
  618SOL    HW2 1854   0.863   3.083   1.986  0.5109 -0.8738 -0.2390
  619SOL     OW 1855   2.877   1.291   1.509  0.0338  0.1926 -0.4158
  619SOL    HW1 1856   2.826   1.379   1.513  0.1462  0.3975  2.1625
  619SOL    HW2 1857   2.826   1.224   1.457  1.3628  0.7117  1.3376
  620SOL     OW 1858   0.052   0.888   2.963  0.1736 -0.4399 -0.2971
  620SOL    HW1 1859   0.074   0.792   2.944 -2.1840  3.8259  1.1918
  620SOL    HW2 1860   0.120   0.952   2.922 -0.2808 -0.0533  1.0540
  621SOL     OW 1861   2.400   2.121   2.129 -0.0927  0.0777  0.3035
  621SOL    HW1 1862   2.322   2.142   2.065 -1.2131  0.8495 -3.3745
  621SOL    HW2 1863   2.464   2.202   2.135  0.6494 -0.8096 -1.6465
  622SOL     OW 1864   1.110   0.444   2.010 -0.1070  0.6048  0.2915
  622SOL    HW1 1865   1.060   0.475   2.094  2.8400 -2.4452 -1.5183
  622SOL    HW2 1866   1.204   0.479   2.004 -1.0121 -0.9028  2.6478
  623SOL     OW 1867   0.911   1.044   2.224  0.0410  0.3065 -0.5699
  623SOL    HW1 1868   0.810   1.037   2.204  1.9748 -1.0912  1.3818
  623SOL    HW2 1869   0.931   1.040   2.322  1.0629  2.2275 -1.9206
  624SOL     OW 1870   2.716   0.836   0.362  0.1000  0.0167 -0.1830
  624SOL    HW1 1871   2.659   0.882   0.433 -0.5680  2.8886  2.9599
  624SOL    HW2 1872   2.796   0.779   0.398  2.1291 -0.8288  1.8170
  625SOL     OW 1873   0.944   1.579   0.899 -0.5362 -0.2952  0.0408
  625SOL    HW1 1874   0.876   1.582   0.827 -0.0208 -0.4810 -1.6312
  625SOL    HW2 1875   1.019   1.652   0.893  1.7151 -0.1698 -1.5010
  626SOL     OW 1876   1.832   0.883   2.396 -0.2621  0.1629  0.4688
  626SOL    HW1 1877   1.904   0.922   2.454  0.4601 -2.0484 -1.5669
  626SOL    HW2 1878   1.784   0.958   2.345 -3.5533 -0.0710 -0.3525
  627SOL     OW 1879   1.204   2.823   2.903  0.6202 -0.6686  0.2742
  627SOL    HW1 1880   1.254   2.912   2.918 -1.4646 -0.3949  1.0249
  627SOL    HW2 1881   1.195   2.798   2.798  1.1986 -1.2609 -1.7334
  628SOL     OW 1882   2.198   3.018   2.182  0.5437 -0.2567 -0.2940
  628SOL    HW1 1883   2.239   3.030   2.272 -0.1883 -2.4989 -3.6015
  628SOL    HW2 1884   2.193   0.024   2.134  1.5853  0.1607 -2.4613
  629SOL     OW 1885   0.618   0.164   2.802  0.2501 -0.1830 -0.3633
  629SOL    HW1 1886   0.529   0.196   2.758 -2.5085  0.2611 -1.8249
  629SOL    HW2 1887   0.678   0.242   2.829  1.5163  1.7556 -0.2673
  630SOL     OW 1888   0.938   0.374   2.617 -0.4659 -0.6191  0.0035
  630SOL    HW1 1889   0.921   0.275   2.618 -0.0225 -0.4604 -0.3646
  630SOL    HW2 1890   0.988   0.412   2.700 -0.3967  3.7905  3.2454
  631SOL     OW 1891   2.216   1.163   0.608  0.0289 -0.1090 -0.4500
  631SOL    HW1 1892   2.122   1.203   0.622 -0.0829 -0.5300 -0.1291
  631SOL    HW2 1893   2.262   1.217   0.533 -0.3757  2.3566  0.1995
  632SOL     OW 1894   1.978   0.881   1.512  0.2791  0.2265  0.6209
  632SOL    HW1 1895   2.035   0.870   1.427  0.1459 -3.1932 -0.3997
  632SOL    HW2 1896   1.877   0.876   1.490  0.3949 -0.7300  2.1918
  633SOL     OW 1897   1.119   1.685   0.160 -0.3926 -0.9928 -0.1600
  633SOL    HW1 1898   1.115   1.732   0.070 -0.6571 -0.3862 -3.8145
  633SOL    HW2 1899   1.081   1.748   0.231 -1.2137  1.0989  0.4387
  634SOL     OW 1900   2.583   3.026   1.477 -0.4885  0.2284  0.2001
  634SOL    HW1 1901   2.489   3.065   1.492  2.8549  1.0620 -0.7350
  634SOL    HW2 1902   2.649   3.053   1.551  0.6892  2.6624 -1.7058
  635SOL     OW 1903   1.734   0.317   0.940  0.2526  0.2094  0.1271
  635SOL    HW1 1904   1.750   0.386   0.868  1.0702 -0.7793 -0.1912
  635SOL    HW2 1905   1.756   0.221   0.908  1.4257 -1.0667 -2.6625
  636SOL     OW 1906   0.832   1.206   0.102 -0.0648 -0.1262  0.6138
  636SOL    HW1 1907   0.849   1.308   0.096  0.0625  2.4566  0.1034
  636SOL    HW2 1908   0.883   1.160   0.026 -0.4291  1.8644 -0.1743
  637SOL     OW 1909   2.731   2.145   2.985  0.0996  0.0938 -0.0114
  637SOL    HW1 1910   2.725   2.208   3.064 -0.3139 -1.3308 -1.6558
  637SOL    HW2 1911   2.827   2.105   2.973  1.3739 -0.5636  0.4156
  638SOL     OW 1912   1.515   2.600   2.805  0.3071  0.0225 -0.2739
  638SOL    HW1 1913   1.476   2.692   2.781  0.5252 -1.1554 -0.0726
  638SOL    HW2 1914   1.453   2.525   2.775  2.1440 -0.5192 -3.3363
  639SOL     OW 1915   1.382   1.741   1.358 -0.3634 -0.0149  0.6961
  639SOL    HW1 1916   1.283   1.715   1.358  0.7967  0.1619 -0.3554
  639SOL    HW2 1917   1.424   1.732   1.266  1.0121  0.1394  2.2610
  640SOL     OW 1918   2.235   2.728   0.638  0.6310  0.5336  0.1992
  640SOL    HW1 1919   2.167   2.794   0.678  0.7797 -0.1530  1.6433
  640SOL    HW2 1920   2.200   2.633   0.629 -0.2584 -1.9294 -1.3049
  641SOL     OW 1921   2.833   0.159   2.965  0.5800 -0.3374  0.2807
  641SOL    HW1 1922   2.744   0.206   2.931 -1.2257  0.2122 -1.3256
  641SOL    HW2 1923   2.875   0.206   3.048  0.0391  1.3794  0.3747
  642SOL     OW 1924   2.944   0.761   1.222 -0.8196  0.0317  0.3232
  642SOL    HW1 1925   2.877   0.806   1.158 -0.6909  1.8911 -1.5443
  642SOL    HW2 1926   3.003   0.833   1.269  2.5752  2.7064 -1.0544
  643SOL     OW 1927   0.827   1.666   2.114  0.2905 -0.1956  0.3883
  643SOL    HW1 1928   0.740   1.722   2.110 -2.8706  1.7536  1.2098
  643SOL    HW2 1929   0.880   1.689   2.029 -2.9375  0.4370 -1.7890
  644SOL     OW 1930   1.750   2.407   0.617  0.0255 -0.0525  0.0789
  644SOL    HW1 1931   1.799   2.372   0.701  0.8465  3.2437 -0.8409
  644SOL    HW2 1932   1.792   2.493   0.573 -0.6705 -0.7443  1.9640
  645SOL     OW 1933   2.092   2.062   0.838 -0.2418 -0.6683  0.0304
  645SOL    HW1 1934   2.016   2.089   0.773 -1.4562 -0.6263  3.0095
  645SOL    HW2 1935   2.118   1.967   0.819  0.3103  1.6308  2.9666
  646SOL     OW 1936   0.896   2.512   2.915 -0.9535  0.2501 -0.3092
  646SOL    HW1 1937   0.988   2.559   2.913 -0.0583 -1.3400 -2.5045
  646SOL    HW2 1938   0.905   2.415   2.946  0.3191  1.4010 -0.9670
  647SOL     OW 1939   0.621   2.635   1.881 -0.6898  0.1466 -0.1667
  647SOL    HW1 1940   0.563   2.718   1.901 -0.5450  1.2712  2.5074
  647SOL    HW2 1941   0.717   2.672   1.881  2.3772 -0.1817 -0.2510
  648SOL     OW 1942   1.738   0.392   1.861  0.4138  0.1797  0.3363
  648SOL    HW1 1943   1.745   0.447   1.773  2.3509 -0.7478 -1.1173
  648SOL    HW2 1944   1.696   0.441   1.942 -1.5176 -0.4302  1.5186
  649SOL     OW 1945   1.667   2.158   0.242  0.4518 -0.2562  0.6366
  649SOL    HW1 1946   1.590   2.152   0.312 -2.8315 -0.2707 -2.6219
  649SOL    HW2 1947   1.640   2.127   0.152  0.6570 -1.5590 -0.1436
  650SOL     OW 1948   2.035   1.747   1.876  0.9436 -0.5207 -0.3975
  650SOL    HW1 1949   1.994   1.657   1.915  1.2846 -1.0620  0.1585
  650SOL    HW2 1950   2.065   1.737   1.779 -1.0766  2.2236 -2.2032
  651SOL     OW 1951   1.537   2.620   3.074 -0.0230  0.2810  0.4209
  651SOL    HW1 1952   1.499   2.712   0.013 -0.0900  1.0556 -0.3364
  651SOL    HW2 1953   1.547   2.607   2.972 -0.0091  0.2766  0.7993
  652SOL     OW 1954   0.527   2.248   0.303 -0.3606 -0.5828  0.1024
  652SOL    HW1 1955   0.555   2.279   0.396  2.4550 -0.6944  3.0342
  652SOL    HW2 1956   0.479   2.320   0.254 -0.2679 -1.2940  0.9399
  653SOL     OW 1957   2.522   2.274   1.275  0.3903  0.1669 -0.5349
  653SOL    HW1 1958   2.428   2.236   1.260 -2.9751  1.9293  2.1900
  653SOL    HW2 1959   2.529   2.359   1.227 -2.6622 -1.5484  0.3285
  654SOL     OW 1960   2.825   2.527   1.511 -0.7152  0.0708 -0.0790
  654SOL    HW1 1961   2.758   2.601   1.488  0.7300 -2.8781 -2.0746
  654SOL    HW2 1962   2.773   2.441   1.521  0.1241  2.7497 -0.1031
  655SOL     OW 1963   3.068   1.934   1.195  0.2717  0.6699 -0.2391
  655SOL    HW1 1964   0.015   1.858   1.258 -2.0847 -0.9720 -0.5000
  655SOL    HW2 1965   3.010   1.995   1.246 -0.1135 -0.6688 -2.8979
  656SOL     OW 1966   3.042   2.833   2.444 -0.1094  0.3959  0.2564
  656SOL    HW1 1967   2.976   2.882   2.383  1.0931 -1.3973  0.3756
  656SOL    HW2 1968   0.025   2.793   2.384 -1.3985  2.0448  0.5186
  657SOL     OW 1969   2.829   1.244   2.880 -0.1986  0.4524 -0.1924
  657SOL    HW1 1970   2.786   1.237   2.974 -0.6230  1.2894 -1.5048
  657SOL    HW2 1971   2.814   1.336   2.847  1.2753 -1.3122 -2.7381
  658SOL     OW 1972   1.716   1.698   0.579 -0.1453 -0.2216 -0.7118
  658SOL    HW1 1973   1.782   1.770   0.556  0.5648  1.7245 -0.7828
  658SOL    HW2 1974   1.706   1.711   0.683  1.7354 -0.0365  0.9622
  659SOL     OW 1975   1.251   0.659   1.344 -0.2570  0.3948  0.4074
  659SOL    HW1 1976   1.300   0.690   1.264  0.1348 -2.7320  1.9762
  659SOL    HW2 1977   1.279   0.563   1.364 -0.0569  1.3371 -1.3366
  660SOL     OW 1978   1.367   1.546   2.994  0.5547  0.1253  0.3783
  660SOL    HW1 1979   1.291   1.500   3.047 -0.2050  1.2784  0.9867
  660SOL    HW2 1980   1.431   1.482   2.948  1.3340 -1.0786 -1.0329
  661SOL     OW 1981   0.212   2.297   0.548  0.4537  0.0305 -0.3460
  661SOL    HW1 1982   0.308   2.324   0.520  0.9075  0.0962  0.1592
  661SOL    HW2 1983   0.177   2.376   0.601 -1.1689  0.0760  0.1183
  662SOL     OW 1984   0.246   0.715   2.186 -0.2573  0.0254 -0.6568
  662SOL    HW1 1985   0.247   0.709   2.289  0.0911 -2.2453  1.8175
  662SOL    HW2 1986   0.314   0.654   2.141 -0.0142  1.8149  0.7771
  663SOL     OW 1987   1.835   1.397   0.856 -0.3104 -1.4267  0.6999
  663SOL    HW1 1988   1.741   1.378   0.820 -0.3574 -2.0968 -0.3878
  663SOL    HW2 1989   1.859   1.334   0.933  2.1241  0.0550  1.5698
  664SOL     OW 1990   0.945   0.943   1.048  0.0270 -0.2046 -0.1952
  664SOL    HW1 1991   0.907   0.870   1.112  0.8439  0.6741 -0.4751
  664SOL    HW2 1992   0.866   0.993   1.004  2.0393  0.1724 -0.5438
  665SOL     OW 1993   0.983   2.986   2.943 -0.2243  0.0996 -0.2940
  665SOL    HW1 1994   1.009   3.085   2.943 -0.9981  0.4496 -0.2674
  665SOL    HW2 1995   1.067   2.928   2.944 -2.3040  0.9464  1.0972
  666SOL     OW 1996   2.849   0.045   2.518 -0.7411  0.2091 -0.2331
  666SOL    HW1 1997   2.911   0.059   2.598  0.6881  1.4927 -0.1640
  666SOL    HW2 1998   2.755   0.057   2.552  0.9159  1.6841  1.3738
  667SOL     OW 1999   2.274   1.323   2.138  0.3085 -0.0263 -0.2617
  667SOL    HW1 2000   2.273   1.387   2.221 -1.4690  1.4420 -0.1964
  667SOL    HW2 2001   2.262   1.382   2.052 -0.9385  2.5248 -2.3734
  668SOL     OW 2002   0.506   1.218   2.518 -0.0073  0.5433  0.3384
  668SOL    HW1 2003   0.432   1.280   2.564 -2.9883 -0.7989  1.9962
  668SOL    HW2 2004   0.481   1.116   2.529 -2.2271 -2.3584  0.6234
  669SOL     OW 2005   1.942   2.352   2.724 -0.0775 -0.4658  0.3399
  669SOL    HW1 2006   1.972   2.289   2.653  0.7296  0.2786  1.3966
  669SOL    HW2 2007   2.026   2.364   2.786  0.9985 -1.7575 -1.5522
  670SOL     OW 2008   2.120   1.091   2.176  0.4132  0.0531  0.5363
  670SOL    HW1 2009   2.041   1.118   2.235 -1.6130 -2.2990 -3.6441
  670SOL    HW2 2010   2.172   1.172   2.144  0.1721 -2.1079  0.2202
  671SOL     OW 2011   2.449   1.481   2.987  0.0407 -0.0120  0.6424
  671SOL    HW1 2012   2.464   1.380   2.973  1.4524 -4.0832  0.1015
  671SOL    HW2 2013   2.353   1.500   2.970 -0.1993 -1.0044  0.7717
  672SOL     OW 2014   2.687   0.958   1.965 -0.1771 -0.1876 -0.2257
  672SOL    HW1 2015   2.698   0.931   1.870  3.6771 -0.5426  4.4326
  672SOL    HW2 2016   2.601   1.002   1.978  4.8827 -1.0255 -1.4864
  673SOL     OW 2017   2.652   0.806   1.335  0.2134  0.0581 -0.1434
  673SOL    HW1 2018   2.732   0.767   1.390 -0.3169 -1.2179 -0.2057
  673SOL    HW2 2019   2.565   0.804   1.382 -0.0457 -0.1447 -1.2881
  674SOL     OW 2020   1.905   1.962   1.963 -0.0303  0.3989 -0.2627
  674SOL    HW1 2021   1.962   1.890   1.912  2.9502 -0.7469 -0.5077
  674SOL    HW2 2022   1.803   1.951   1.936 -1.5739  0.7929 -2.0031
  675SOL     OW 2023   0.488   0.646   0.921  0.0385 -0.0006  0.0209
  675SOL    HW1 2024   0.583   0.674   0.898  0.7723 -0.1231 -0.4157
  675SOL    HW2 2025   0.482   0.546   0.909  2.3802 -1.2393 -0.8518
  676SOL     OW 2026   1.713   1.112   1.334  0.4066 -0.0871  0.0991
  676SOL    HW1 2027   1.771   1.193   1.359 -1.1307  1.3432  0.7065
  676SOL    HW2 2028   1.714   1.043   1.410 -0.8743  0.0742 -3.0511
  677SOL     OW 2029   2.088   1.503   2.487  0.5400  0.9557  0.1504
  677SOL    HW1 2030   2.083   1.543   2.583  0.8854  1.4631  2.0956
  677SOL    HW2 2031   2.189   1.488   2.462 -0.8946 -1.8370  1.2066
  678SOL     OW 2032   0.137   1.674   0.718  0.7168 -0.3357  0.0864
  678SOL    HW1 2033   0.073   1.740   0.763 -1.0082 -0.7304 -0.6230
  678SOL    HW2 2034   0.148   1.701   0.621 -0.1432 -0.7920 -0.2136
  679SOL     OW 2035   2.947   2.598   0.563  0.3493  0.3859  0.5826
  679SOL    HW1 2036   2.905   2.675   0.509 -0.2984  1.4811  2.4788
  679SOL    HW2 2037   2.897   2.579   0.648  0.3639  0.1194 -0.2024
  680SOL     OW 2038   3.052   2.306   1.188  0.1077 -0.3625  0.6228
  680SOL    HW1 2039   0.028   2.320   1.269 -3.6068 -0.7057  1.2526
  680SOL    HW2 2040   2.988   2.234   1.222  1.3527  0.2707  0.4191
  681SOL     OW 2041   0.516   1.371   1.164 -0.6006  0.2872  0.5891
  681SOL    HW1 2042   0.585   1.384   1.241  1.4481 -0.6806  3.0330
  681SOL    HW2 2043   0.421   1.400   1.182  1.6156 -0.2873  3.8134
  682SOL     OW 2044   1.717   2.878   0.930 -0.6034 -0.3628 -0.3690
  682SOL    HW1 2045   1.759   2.789   0.964 -1.2114  2.5262 -0.1003
  682SOL    HW2 2046   1.645   2.917   0.992  1.8163  2.0304 -2.1442
  683SOL     OW 2047   2.240   1.292   1.014  0.0017 -0.3152 -0.6052
  683SOL    HW1 2048   2.303   1.338   0.949  1.5197 -1.0929 -1.5655
  683SOL    HW2 2049   2.296   1.233   1.078  2.5264 -0.8521 -3.4572
  684SOL     OW 2050   0.807   2.019   1.964  0.5854  0.5725  0.0569
  684SOL    HW1 2051   0.876   2.055   1.898  0.5607 -0.2504 -2.0542
  684SOL    HW2 2052   0.741   1.954   1.922  0.9912 -1.0840 -1.0281
  685SOL     OW 2053   2.188   1.465   0.237  0.2571  0.0248  0.1877
  685SOL    HW1 2054   2.248   1.542   0.203  0.3717  1.4764 -0.8594
  685SOL    HW2 2055   2.089   1.496   0.233  0.1863 -1.0928 -1.2037
  686SOL     OW 2056   0.092   0.750   0.532 -0.5447 -0.6003  0.0616
  686SOL    HW1 2057   0.116   0.817   0.453  1.5807  2.6154 -1.1832
  686SOL    HW2 2058   3.082   0.722   0.527  0.7558  1.3468 -1.7185
  687SOL     OW 2059   1.165   2.894   0.215  0.1267  0.4278 -0.3430
  687SOL    HW1 2060   1.115   2.873   0.301 -2.6440  0.7553 -3.3854
  687SOL    HW2 2061   1.141   2.833   0.136  0.7248 -0.0270 -1.6523
  688SOL     OW 2062   1.943   1.844   2.191  0.2162 -0.2206  0.0444
  688SOL    HW1 2063   1.859   1.836   2.250  0.7210 -1.9074  0.7238
  688SOL    HW2 2064   1.931   1.887   2.098 -0.7099  0.3390  1.0611
  689SOL     OW 2065   2.686   0.793   2.201 -0.1247  0.2233 -0.6481
  689SOL    HW1 2066   2.677   0.837   2.109 -2.4894  0.1195  1.1481
  689SOL    HW2 2067   2.744   0.847   2.266 -0.7224  1.8597  2.9809
  690SOL     OW 2068   1.536   0.415   1.087  0.3918  0.1885  0.1558
  690SOL    HW1 2069   1.496   0.341   1.149 -0.8244 -2.8925  1.8808
  690SOL    HW2 2070   1.612   0.376   1.031 -1.2029 -1.4233  1.1734
  691SOL     OW 2071   1.008   1.865   1.568 -0.0045 -0.1094 -0.0289
  691SOL    HW1 2072   1.065   1.818   1.495 -1.8644  0.2906  0.5430
  691SOL    HW2 2073   1.071   1.894   1.639  2.4583 -0.2375  2.7322
  692SOL     OW 2074   1.627   0.146   1.861  0.2000 -0.5584 -0.0084
  692SOL    HW1 2075   1.677   0.235   1.868 -0.7974 -0.2397  0.4165
  692SOL    HW2 2076   1.630   0.119   1.761  0.5199  1.0418 -1.5958
  693SOL     OW 2077   0.554   1.124   2.997  0.3362 -0.0321  0.5478
  693SOL    HW1 2078   0.609   1.196   3.048  1.0668  0.7873 -0.1122
  693SOL    HW2 2079   0.613   1.057   2.948 -2.2781  0.9166 -0.4829
  694SOL     OW 2080   2.066   2.530   0.879  0.0430 -0.0225  0.3673
  694SOL    HW1 2081   2.123   2.607   0.911 -0.9359 -0.3415 -1.3463
  694SOL    HW2 2082   2.078   2.520   0.777 -0.5315 -1.1787  0.5021
  695SOL     OW 2083   1.434   1.399   2.574  0.1565  0.5593  0.0615
  695SOL    HW1 2084   1.384   1.487   2.585 -0.6463 -0.3398  0.8638
  695SOL    HW2 2085   1.379   1.325   2.610 -0.3156 -0.9962  0.6896
  696SOL     OW 2086   1.354   0.412   1.385 -0.2581  0.5677 -0.0483
  696SOL    HW1 2087   1.338   0.311   1.365 -0.0909 -0.7997  2.1854
  696SOL    HW2 2088   1.430   0.422   1.453 -0.3658  0.2433  0.3370
  697SOL     OW 2089   1.296   0.176   1.820 -0.3641  0.2537 -0.3318
  697SOL    HW1 2090   1.321   0.076   1.810  2.8480 -1.1350  0.6459
  697SOL    HW2 2091   1.296   0.203   1.919 -0.8674  0.8558 -0.9311
  698SOL     OW 2092   1.706   1.414   2.460 -0.0507 -0.0868 -0.0938
  698SOL    HW1 2093   1.719   1.421   2.360  1.8691 -1.0766  2.5755
  698SOL    HW2 2094   1.622   1.360   2.475  2.2064 -0.7574  1.8497
  699SOL     OW 2095   1.565   1.343   1.322 -0.2952 -0.3153 -0.1653
  699SOL    HW1 2096   1.606   1.253   1.324  0.6384  4.9397  0.1011
  699SOL    HW2 2097   1.470   1.336   1.288 -0.6430 -0.0749  2.7472
  700SOL     OW 2098   1.581   0.061   0.344 -0.7022  0.0404 -0.1300
  700SOL    HW1 2099   1.542   0.089   0.436 -1.0765  0.6910 -1.6400
  700SOL    HW2 2100   1.534   3.057   0.319 -1.5653  2.0849  2.1817
  701SOL     OW 2101   0.309   2.936   1.584  0.1574 -0.2304 -0.4646
  701SOL    HW1 2102   0.256   2.906   1.663  1.0735  1.4554 -1.1835
  701SOL    HW2 2103   0.238   2.966   1.508 -0.9073 -1.5284 -4.2368
  702SOL     OW 2104   1.376   2.796   1.027  0.0472 -0.0498 -0.6055
  702SOL    HW1 2105   1.304   2.867   1.017  1.0015  0.4316 -2.2592
  702SOL    HW2 2106   1.422   2.772   0.941  5.4009 -0.9510  1.7723
  703SOL     OW 2107   2.440   0.224   1.931 -0.3691  0.1989  0.0092
  703SOL    HW1 2108   2.422   0.291   1.858 -0.9350  1.5015  1.0696
  703SOL    HW2 2109   2.532   0.191   1.924 -3.4453  3.6309 -1.0404
  704SOL     OW 2110   1.221   2.007   1.078 -0.4369  0.3815  0.1969
  704SOL    HW1 2111   1.193   2.048   1.167 -0.4959 -0.3662 -0.2999
  704SOL    HW2 2112   1.321   1.999   1.072 -2.8833  1.0810  1.2818
  705SOL     OW 2113   2.809   1.429   1.925 -0.1903 -0.1432 -0.3988
  705SOL    HW1 2114   2.728   1.397   1.980  0.1730 -0.7126 -0.2846
  705SOL    HW2 2115   2.851   1.352   1.875 -1.4759  0.9957 -0.4625
  706SOL     OW 2116   1.179   3.023   0.608  0.1666  0.5420 -0.2777
  706SOL    HW1 2117   1.152   0.021   0.562  0.3450 -0.0671  1.9082
  706SOL    HW2 2118   1.160   3.032   0.710 -2.1876  0.7384  2.0935
  707SOL     OW 2119   0.949   2.523   2.361 -0.5446  0.2235  0.0169
  707SOL    HW1 2120   0.855   2.509   2.323 -1.6392  1.5184  0.5446
  707SOL    HW2 2121   0.999   2.436   2.357  1.1907 -2.4316  2.0171
  708SOL     OW 2122   0.125   2.310   1.425 -0.4161 -0.0969 -0.0746
  708SOL    HW1 2123   0.130   2.217   1.470 -1.2640  0.3163 -0.5370
  708SOL    HW2 2124   0.220   2.344   1.409  0.8354 -2.2739 -0.0590
  709SOL     OW 2125   2.108   0.409   1.965 -0.5489  0.2919 -0.2331
  709SOL    HW1 2126   2.083   0.495   2.014  1.5726 -0.5245 -1.2965
  709SOL    HW2 2127   2.074   0.406   1.870 -3.3057  2.5721  0.0990
  710SOL     OW 2128   2.706   0.510   1.519 -0.2386 -0.9921  0.0929
  710SOL    HW1 2129   2.695   0.411   1.548 -0.0093 -1.9372  1.7891
  710SOL    HW2 2130   2.776   0.509   1.444  0.1489  1.5668  0.1308
  711SOL     OW 2131   0.129   2.580   0.592 -0.3613  0.2028 -0.4258
  711SOL    HW1 2132   0.175   2.645   0.525 -0.9930  2.0105  0.7012
  711SOL    HW2 2133   0.031   2.575   0.572  1.7415  1.5216 -1.6872
  712SOL     OW 2134   0.335   2.373   2.468  0.5614 -0.2252 -0.3805
  712SOL    HW1 2135   0.359   2.460   2.422  0.2235 -1.9264  0.8073
  712SOL    HW2 2136   0.254   2.388   2.532 -2.6859  1.4338  3.1177
  713SOL     OW 2137   1.588   0.612   0.082  0.2092 -0.0564 -0.1479
  713SOL    HW1 2138   1.652   0.557   0.139  1.8592 -0.0295 -3.3171
  713SOL    HW2 2139   1.602   0.593   3.070  0.8457 -2.2634 -0.7628
  714SOL     OW 2140   1.467   2.058   0.387  0.5436 -0.2057 -0.4530
  714SOL    HW1 2141   1.377   2.066   0.440  0.0771 -0.6069  0.6880
  714SOL    HW2 2142   1.470   1.966   0.350 -0.0872 -0.3304  1.5175
  715SOL     OW 2143   2.836   0.159   0.354  0.4657  0.0287  0.2797
  715SOL    HW1 2144   2.752   0.158   0.416 -0.0851 -3.0853  0.8940
  715SOL    HW2 2145   2.912   0.207   0.400 -2.6132 -0.8206  0.5564
  716SOL     OW 2146   0.503   0.030   2.398 -0.0412  0.2014 -0.1104
  716SOL    HW1 2147   0.524   0.123   2.438  0.2063  0.6628  0.7551
  716SOL    HW2 2148   0.480   3.054   2.476  3.2838  1.2018 -1.7465
  717SOL     OW 2149   0.109   0.629   2.935 -0.2777 -0.4346  0.0860
  717SOL    HW1 2150   0.162   0.573   2.869 -0.0311  0.4398  0.5994
  717SOL    HW2 2151   0.019   0.587   2.947  1.5741 -1.5173 -1.1681
  718SOL     OW 2152   1.194   0.534   0.476  0.4322 -0.1400 -0.0703
  718SOL    HW1 2153   1.234   0.543   0.572  2.2247 -2.1586  2.2025
  718SOL    HW2 2154   1.244   0.457   0.436  0.6576 -1.5571  2.9553
  719SOL     OW 2155   2.758   2.365   2.695  0.4410 -0.1820  0.2918
  719SOL    HW1 2156   2.694   2.365   2.616  0.6528  1.1428 -0.0962
  719SOL    HW2 2157   2.739   2.290   2.760  0.3056  1.3962 -1.8214
  720SOL     OW 2158   1.746   0.561   1.649 -0.4053  0.8381 -0.1494
  720SOL    HW1 2159   1.804   0.559   1.561 -0.7873  1.9740  1.1405
  720SOL    HW2 2160   1.735   0.648   1.697 -1.8922 -0.6283 -0.5534
  721SOL     OW 2161   2.914   0.562   0.838  0.6147  0.2630 -0.3143
  721SOL    HW1 2162   2.899   0.513   0.749  1.1930 -0.3082  2.7523
  721SOL    HW2 2163   2.995   0.523   0.889  1.9047  1.1759 -1.4010
  722SOL     OW 2164   1.476   2.176   2.360  0.1910  0.3957  0.1050
  722SOL    HW1 2165   1.483   2.269   2.322 -0.6856 -0.1688  1.2163
  722SOL    HW2 2166   1.540   2.170   2.439  0.2241 -0.8588 -0.6759
  723SOL     OW 2167   0.618   0.430   0.528 -0.5302 -0.0481  0.1528
  723SOL    HW1 2168   0.682   0.503   0.562  0.7743  1.5533 -0.2007
  723SOL    HW2 2169   0.527   0.431   0.578 -1.4292 -0.4228  1.3659
  724SOL     OW 2170   1.100   2.061   2.203  0.7278 -0.3255 -0.2662
  724SOL    HW1 2171   1.136   1.973   2.165  1.4803  2.3732 -0.7324
  724SOL    HW2 2172   1.025   2.045   2.275 -0.8276 -1.0438  1.4669
  725SOL     OW 2173   0.272   0.881   1.333 -0.4321 -0.1129  0.2479
  725SOL    HW1 2174   0.322   0.968   1.307  0.1985  0.1027 -1.1990
  725SOL    HW2 2175   0.293   0.803   1.268 -2.3205 -1.8792  1.9916
  726SOL     OW 2176   1.778   0.490   0.703 -0.2342 -0.0630 -0.3622
  726SOL    HW1 2177   1.760   0.589   0.732 -1.3073 -0.1838 -0.2704
  726SOL    HW2 2178   1.732   0.458   0.612 -2.1993 -0.6199 -1.9843
  727SOL     OW 2179   1.722   0.855   2.020  0.1758  0.5444 -0.0802
  727SOL    HW1 2180   1.787   0.936   2.025 -0.3776 -0.5529  2.6499
  727SOL    HW2 2181   1.677   0.833   2.109 -0.4925 -1.5112  1.9336
  728SOL     OW 2182   1.680   2.732   1.493  0.1537 -0.3157 -0.4197
  728SOL    HW1 2183   1.674   2.769   1.590  1.4508  1.0473 -2.6490
  728SOL    HW2 2184   1.725   2.641   1.495  2.7993 -1.5278  0.8171
  729SOL     OW 2185   1.360   0.424   1.752  0.1400  0.3976 -0.0211
  729SOL    HW1 2186   1.329   0.331   1.776 -1.0111  1.7787 -1.8738
  729SOL    HW2 2187   1.372   0.476   1.841 -0.6772  0.2042  0.6367
  730SOL     OW 2188   0.769   2.004   1.471 -0.5564 -0.1201 -0.0397
  730SOL    HW1 2189   0.800   2.094   1.432 -2.2820  3.4174  1.5076
  730SOL    HW2 2190   0.844   1.956   1.515  0.5299 -0.2260 -2.2430
  731SOL     OW 2191   0.675   0.242   0.191 -0.2824  0.1980 -0.0343
  731SOL    HW1 2192   0.631   0.333   0.192 -0.9292 -0.5249  1.2807
  731SOL    HW2 2193   0.608   0.164   0.184 -2.1183  2.8329  0.7751
  732SOL     OW 2194   0.424   0.995   0.199  0.2132 -0.5576  0.6805
  732SOL    HW1 2195   0.471   0.920   0.147 -0.0666  2.7815 -0.1646
  732SOL    HW2 2196   0.492   1.065   0.233 -0.6658 -1.6260  0.1578
  733SOL     OW 2197   1.467   1.731   1.925 -0.1100 -0.2970 -0.5941
  733SOL    HW1 2198   1.535   1.665   1.965 -0.5153  0.0969 -2.5661
  733SOL    HW2 2199   1.438   1.694   1.833  1.9505 -2.2731  0.4558
  734SOL     OW 2200   2.827   2.717   2.243 -0.3708  0.0248  0.3402
  734SOL    HW1 2201   2.915   2.671   2.221  2.1004 -1.4629  0.5963
  734SOL    HW2 2202   2.840   2.819   2.256 -2.1059 -0.6869 -0.5692
  735SOL     OW 2203   1.043   2.903   0.926 -0.2251 -0.5367 -0.0820
  735SOL    HW1 2204   1.069   2.825   0.863  0.4598 -0.9461 -0.0295
  735SOL    HW2 2205   1.124   2.967   0.940  0.9537  1.4474  0.4469
  736SOL     OW 2206   1.318   0.854   2.729 -0.1016  0.1291  0.0060
  736SOL    HW1 2207   1.305   0.778   2.661  0.4383  3.5004  2.1890
  736SOL    HW2 2208   1.419   0.850   2.758  1.6659  0.2995 -0.7375
  737SOL     OW 2209   0.109   0.881   0.300 -0.0456 -0.6546  0.0186
  737SOL    HW1 2210   0.153   0.808   0.247 -1.6611  0.6119  0.5641
  737SOL    HW2 2211   0.081   0.956   0.232 -0.0184  0.9111 -1.1091
  738SOL     OW 2212   0.050   2.759   1.338  0.4525  0.0625  0.1064
  738SOL    HW1 2213   0.045   2.691   1.413  0.0668  0.5584  2.9715
  738SOL    HW2 2214   3.039   2.769   1.308  1.6460 -0.1817  1.6507
  739SOL     OW 2215   1.480   3.006   0.621  0.5209 -0.5909 -0.3664
  739SOL    HW1 2216   1.495   3.071   0.696 -0.3401  2.0446 -1.1284
  739SOL    HW2 2217   1.379   2.990   0.605 -2.2766 -2.9549  1.7258
  740SOL     OW 2218   1.745   2.980   1.363 -0.5664 -0.1875 -0.0316
  740SOL    HW1 2219   1.835   2.959   1.318  0.8916  0.1737 -2.2069
  740SOL    HW2 2220   1.715   2.904   1.422  2.3516  2.0254 -1.9263
  741SOL     OW 2221   2.033   0.497   0.559 -0.0646 -0.3360  0.2391
  741SOL    HW1 2222   1.953   0.485   0.618 -0.1015 -0.5970  0.3941
  741SOL    HW2 2223   2.034   0.589   0.516  1.1264  2.7019  1.8624
  742SOL     OW 2224   1.275   2.513   1.825 -0.2598  0.0024  0.1315
  742SOL    HW1 2225   1.184   2.495   1.865  0.6094  1.0515 -1.0743
  742SOL    HW2 2226   1.336   2.539   1.899 -1.7191 -2.2168 -2.1348
  743SOL     OW 2227   2.288   0.748   1.812  0.5551 -0.5428  0.4625
  743SOL    HW1 2228   2.211   0.717   1.756  0.1370  1.5408 -0.5160
  743SOL    HW2 2229   2.296   0.699   1.898  1.3397  1.1855 -2.2766
  744SOL     OW 2230   2.181   0.319   0.998 -0.5910 -0.1383 -0.2043
  744SOL    HW1 2231   2.108   0.344   1.062  1.8591 -0.1719 -4.1283
  744SOL    HW2 2232   2.267   0.364   1.022  0.7813 -1.7229  0.1247
  745SOL     OW 2233   2.025   1.298   1.833 -0.3486  0.7206 -0.5454
  745SOL    HW1 2234   2.122   1.327   1.834  1.2583  0.9786  0.1192
  745SOL    HW2 2235   1.993   1.296   1.737  1.5930 -1.9148  1.0078
  746SOL     OW 2236   1.263   1.694   0.640  0.1936  0.1383 -0.0405
  746SOL    HW1 2237   1.278   1.779   0.701  0.6700  0.6851  1.6131
  746SOL    HW2 2238   1.238   1.612   0.693 -0.3439  0.1408 -0.7819
  747SOL     OW 2239   1.955   1.240   1.017  0.5822 -0.3341 -0.3838
  747SOL    HW1 2240   1.945   1.157   1.070  2.5799  2.7782 -0.2173
  747SOL    HW2 2241   2.052   1.269   1.012  1.5394  2.3518  1.6657
  748SOL     OW 2242   0.138   3.017   0.241 -0.1220  0.1361  0.0647
  748SOL    HW1 2243   0.156   3.056   0.337  0.7161 -1.0526  0.2237
  748SOL    HW2 2244   0.147   2.916   0.246  0.3944 -0.5032 -1.1253
  749SOL     OW 2245   0.081   0.514   2.368  0.6175  0.4616  0.3328
  749SOL    HW1 2246   0.012   0.527   2.444  1.3027  0.7943  2.2979
  749SOL    HW2 2247   0.049   0.446   2.298 -1.6555 -3.5638  0.1898
  750SOL     OW 2248   1.680   2.791   1.762  0.0882 -0.0537 -0.0532
  750SOL    HW1 2249   1.777   2.783   1.771  0.3203 -1.3688  0.1192
  750SOL    HW2 2250   1.634   2.797   1.853  0.0521  2.7878  2.8034
  751SOL     OW 2251   2.594   0.457   0.525 -0.2629  0.0485 -0.1816
  751SOL    HW1 2252   2.525   0.504   0.582 -0.0563  0.6270  2.2240
  751SOL    HW2 2253   2.675   0.418   0.577  0.7986  0.0307  1.5555
  752SOL     OW 2254   0.208   2.670   0.843  0.6532  0.0089  0.0733
  752SOL    HW1 2255   0.208   2.643   0.745 -2.4123  1.7900  0.5752
  752SOL    HW2 2256   0.276   2.746   0.862 -1.9728  1.3723  0.0546
  753SOL     OW 2257   0.840   0.297   1.435 -0.3052 -0.0493  0.7160
  753SOL    HW1 2258   0.813   0.230   1.363 -0.2072 -1.7292  1.9345
  753SOL    HW2 2259   0.942   0.285   1.460  1.7260 -1.2832  0.0921
  754SOL     OW 2260   0.785   2.772   2.237  0.0123  0.5437 -0.1550
  754SOL    HW1 2261   0.726   2.849   2.211 -1.5828 -0.4487 -2.6424
  754SOL    HW2 2262   0.885   2.785   2.220 -0.1951 -0.7276  2.3588
  755SOL     OW 2263   2.217   0.947   0.099  0.0054 -0.1782 -0.3280
  755SOL    HW1 2264   2.275   0.953   0.183  2.7455  0.7735  0.9375
  755SOL    HW2 2265   2.185   1.041   0.081 -2.0976 -1.2693  1.5685
  756SOL     OW 2266   2.287   1.916   2.654  0.1596  0.1669  0.5999
  756SOL    HW1 2267   2.378   1.914   2.705  1.1962 -0.4039 -1.8500
  756SOL    HW2 2268   2.309   1.936   2.552  1.0789 -1.3716 -2.6333
  757SOL     OW 2269   1.490   0.138   1.167 -0.0171 -0.0315 -0.1103
  757SOL    HW1 2270   1.392   0.124   1.188  1.2100 -1.6205 -3.3296
  757SOL    HW2 2271   1.539   0.044   1.160 -1.0808 -2.0014  0.9406
  758SOL     OW 2272   1.392   2.734   0.752  0.1542  0.5313 -0.4977
  758SOL    HW1 2273   1.391   2.630   0.780  0.1623  0.3865 -2.3962
  758SOL    HW2 2274   1.459   2.753   0.680 -1.7632  1.5221 -0.1982
  759SOL     OW 2275   2.420   0.440   1.120 -0.5250 -0.3537 -0.3469
  759SOL    HW1 2276   2.464   0.519   1.073  0.0949 -1.1401  1.2437
  759SOL    HW2 2277   2.388   0.468   1.209  2.8536  0.7254 -1.7359
  760SOL     OW 2278   2.354   1.117   1.212 -0.1349  0.3728  0.0002
  760SOL    HW1 2279   2.423   1.156   1.276 -4.0219  2.1105 -0.8719
  760SOL    HW2 2280   2.400   1.047   1.152  1.6440  0.0258 -1.4003
  761SOL     OW 2281   0.386   0.430   0.700 -0.3431 -0.5502 -0.4444
  761SOL    HW1 2282   0.399   0.417   0.800  0.5093  0.4396  1.0112
  761SOL    HW2 2283   0.412   0.524   0.666  1.5825  3.0856 -0.2255
  762SOL     OW 2284   1.745   2.012   1.309 -0.0554 -0.7295  0.2495
  762SOL    HW1 2285   1.821   1.949   1.279  0.0437 -2.0060 -0.9674
  762SOL    HW2 2286   1.774   2.088   1.363 -4.0086 -3.5029 -2.2499
  763SOL     OW 2287   1.096   1.431   1.505 -0.0287  0.0221 -0.7094
  763SOL    HW1 2288   1.022   1.361   1.514 -0.6661 -2.2489  0.7467
  763SOL    HW2 2289   1.184   1.390   1.529  0.6936  0.2158  1.0292
  764SOL     OW 2290   2.868   1.804   2.298 -0.1070 -0.0715 -0.2849
  764SOL    HW1 2291   2.883   1.817   2.199 -2.4076  0.5873  2.5484
  764SOL    HW2 2292   2.918   1.868   2.354  2.4129 -1.4271 -0.2699
  765SOL     OW 2293   1.545   2.414   1.271 -0.2439 -0.1390  0.1914
  765SOL    HW1 2294   1.496   2.323   1.274  1.1656 -1.3665  0.3109
  765SOL    HW2 2295   1.477   2.493   1.265 -1.3268  0.0153 -1.6145
  766SOL     OW 2296   0.110   2.425   2.619  1.0019  0.5315  0.0921
  766SOL    HW1 2297   0.094   2.522   2.644  2.8025 -1.5344  0.8029
  766SOL    HW2 2298   0.033   2.401   2.560  2.5414  3.2112 -0.7213
  767SOL     OW 2299   1.284   0.658   2.542 -0.0274  0.0694 -0.0688
  767SOL    HW1 2300   1.327   0.584   2.599 -0.8832 -0.8425 -0.3815
  767SOL    HW2 2301   1.196   0.624   2.506  0.0695 -0.1451  1.5057
  768SOL     OW 2302   1.174   2.226   3.036  0.0894  0.2650  0.0676
  768SOL    HW1 2303   1.089   2.277   3.019 -0.5267 -1.7715 -0.9113
  768SOL    HW2 2304   1.249   2.285   3.008 -2.5587 -2.2614  0.7957
  769SOL     OW 2305   0.414   2.636   1.041 -0.1764 -0.1924  0.0189
  769SOL    HW1 2306   0.331   2.610   0.987  0.7413  0.5967  0.9340
  769SOL    HW2 2307   0.388   2.701   1.118  0.7306  0.9136 -0.2709
  770SOL     OW 2308   1.595   0.915   2.813  0.1230 -0.1823  0.1401
  770SOL    HW1 2309   1.603   1.013   2.837 -0.1635 -1.6420 -0.5519
  770SOL    HW2 2310   1.672   0.853   2.835 -0.0077  0.0111 -0.1863
  771SOL     OW 2311   0.237   0.098   2.374  0.0568 -0.3178 -0.3672
  771SOL    HW1 2312   0.192   0.029   2.437  0.6431 -2.3555  2.4554
  771SOL    HW2 2313   0.341   0.091   2.385  2.6503  1.0828 -0.8897
  772SOL     OW 2314   1.989   2.902   2.040  0.1959 -0.0650  0.7428
  772SOL    HW1 2315   2.073   2.934   2.090  0.5825  2.5769 -0.6406
  772SOL    HW2 2316   1.933   2.987   2.004 -3.3321  0.7823 -0.2401
  773SOL     OW 2317   0.940   2.121   1.743  0.1533 -0.1415  0.0633
  773SOL    HW1 2318   0.969   2.116   1.645 -1.0114 -3.1091 -0.4424
  773SOL    HW2 2319   0.924   2.215   1.771  0.3957 -3.2713  2.3307
  774SOL     OW 2320   1.528   0.060   2.088 -0.0234  0.0842 -0.0253
  774SOL    HW1 2321   1.431   0.081   2.120 -0.0565  0.3309  1.8344
  774SOL    HW2 2322   1.548   0.115   2.005  0.0797 -1.8275  2.1339
  775SOL     OW 2323   2.210   2.666   0.199 -0.5158 -0.5405 -0.5245
  775SOL    HW1 2324   2.223   2.664   0.100 -2.8207  0.7986  0.6897
  775SOL    HW2 2325   2.160   2.750   0.221  1.3079 -2.7440  0.7748
  776SOL     OW 2326   2.516   0.656   2.483  0.0057 -0.0889  0.6399
  776SOL    HW1 2327   2.531   0.554   2.495  0.5265 -4.9161  1.8413
  776SOL    HW2 2328   2.600   0.708   2.468 -1.1780 -0.6314 -0.3893
  777SOL     OW 2329   2.304   1.374   2.399 -0.3020 -0.4482  0.4066
  777SOL    HW1 2330   2.307   1.275   2.381  3.1960  1.7383 -1.1838
  777SOL    HW2 2331   2.350   1.394   2.491 -0.7500  0.2066  2.4084
  778SOL     OW 2332   2.124   0.734   2.060  0.4873 -0.5341 -0.5561
  778SOL    HW1 2333   2.059   0.736   2.145 -0.9277 -0.5503  0.6835
  778SOL    HW2 2334   2.083   0.792   1.984 -3.6463  1.0344  0.6022
  779SOL     OW 2335   2.945   0.290   0.114 -0.3493  0.3720  0.4159
  779SOL    HW1 2336   2.965   0.380   0.158  1.9189  0.8982 -1.6312
  779SOL    HW2 2337   2.865   0.241   0.159 -0.6830 -0.6094 -0.8217
  780SOL     OW 2338   2.688   0.702   2.985  0.5282 -0.0396 -0.4778
  780SOL    HW1 2339   2.761   0.632   2.988  1.3216  0.7364  0.5002
  780SOL    HW2 2340   2.638   0.712   3.070  1.5994 -2.2174 -1.2292
  781SOL     OW 2341   0.098   3.015   1.435  0.2972 -0.9210 -0.5477
  781SOL    HW1 2342   0.041   0.007   1.401 -0.5881 -0.4277  1.6166
  781SOL    HW2 2343   0.068   2.923   1.403 -2.6678  1.8090  3.2914
  782SOL     OW 2344   1.856   2.656   0.499 -0.1816 -0.0188 -0.0935
  782SOL    HW1 2345   1.848   2.697   0.406  1.7046 -0.2350  0.7709
  782SOL    HW2 2346   1.813   2.719   0.567 -1.3448 -0.7422 -1.1868
  783SOL     OW 2347   0.697   1.457   1.327  0.1113 -0.1345 -0.0726
  783SOL    HW1 2348   0.740   1.511   1.254 -0.1869 -0.7716 -1.7765
  783SOL    HW2 2349   0.679   1.520   1.406 -0.9719  2.9741 -0.3329
  784SOL     OW 2350   1.449   0.466   2.663 -0.5999  0.1762  0.3748
  784SOL    HW1 2351   1.396   0.387   2.636  2.4580  0.1029  2.0656
  784SOL    HW2 2352   1.542   0.461   2.617  1.7364  4.0665  0.0761
  785SOL     OW 2353   2.633   0.313   1.292 -0.8439  0.0436  0.1846
  785SOL    HW1 2354   2.728   0.351   1.269  1.5731 -0.1142 -0.3435
  785SOL    HW2 2355   2.566   0.351   1.228 -0.8134  0.5797 -3.2937
  786SOL     OW 2356   1.269   2.572   1.581  0.4583 -0.0322 -0.4198
  786SOL    HW1 2357   1.208   2.498   1.545  0.3602 -0.8684  1.1174
  786SOL    HW2 2358   1.305   2.547   1.675 -0.8858  0.0778  1.1560
  787SOL     OW 2359   1.697   0.275   1.348 -0.6247  0.0242 -0.2424
  787SOL    HW1 2360   1.633   0.228   1.282  1.0099 -0.8351  0.8578
  787SOL    HW2 2361   1.647   0.333   1.417 -1.8035 -0.0089  1.2177
  788SOL     OW 2362   2.910   1.162   0.421 -0.3544  0.1842 -0.7665
  788SOL    HW1 2363   2.878   1.237   0.485  1.2679 -0.1631  1.6355
  788SOL    HW2 2364   2.966   1.102   0.485  0.3415 -2.5240 -0.4301
  789SOL     OW 2365   0.546   1.970   1.614 -0.1989  0.2952  0.3146
  789SOL    HW1 2366   0.620   1.967   1.546  0.0262  0.8623  0.7257
  789SOL    HW2 2367   0.538   2.068   1.641 -0.2574  0.5436 -1.8819
  790SOL     OW 2368   0.751   0.336   2.248 -0.0567  0.4138  0.3385
  790SOL    HW1 2369   0.763   0.374   2.342  1.2710  2.1535  0.0179
  790SOL    HW2 2370   0.651   0.350   2.222 -0.0159  2.2607  1.8244
  791SOL     OW 2371   2.243   0.540   0.735 -0.0452  0.4939 -0.0463
  791SOL    HW1 2372   2.156   0.508   0.694  2.6727  0.2670 -0.5839
  791SOL    HW2 2373   2.228   0.604   0.812 -2.7512 -0.3543 -1.1622
  792SOL     OW 2374   1.080   2.967   1.748 -0.5435 -0.4749  0.0330
  792SOL    HW1 2375   1.181   2.994   1.745  0.1580  3.6005  0.9479
  792SOL    HW2 2376   1.072   2.863   1.748  0.5715  1.5867 -0.3898
  793SOL     OW 2377   0.374   0.191   0.586 -0.7104 -0.7302  0.2131
  793SOL    HW1 2378   0.472   0.165   0.591 -3.5806  2.4059 -0.7906
  793SOL    HW2 2379   0.364   0.278   0.638 -1.6752 -0.7143  0.7158
  794SOL     OW 2380   0.166   1.133   1.773 -0.5849  0.5614 -0.0693
  794SOL    HW1 2381   0.109   1.068   1.827  2.9362 -0.0083  2.0967
  794SOL    HW2 2382   0.125   1.152   1.683  1.7316  1.1267 -1.7806
  795SOL     OW 2383   0.416   2.081   2.217 -0.0385  0.5485 -0.6417
  795SOL    HW1 2384   0.428   2.178   2.190  0.8631 -0.7647 -0.4351
  795SOL    HW2 2385   0.495   2.055   2.282  3.9563 -2.9289  2.8944
  796SOL     OW 2386   2.613   0.524   2.191  0.3983 -0.2112 -0.1647
  796SOL    HW1 2387   2.585   0.622   2.210 -3.3750  1.2777 -0.6634
  796SOL    HW2 2388   2.593   0.508   2.091 -0.7615 -0.6529 -0.3330
  797SOL     OW 2389   2.292   2.361   2.494 -0.2962  0.2929 -0.3785
  797SOL    HW1 2390   2.283   2.311   2.579 -0.3642  1.2002  1.3523
  797SOL    HW2 2391   2.231   2.323   2.422  1.5262 -0.4447  1.3497
  798SOL     OW 2392   2.967   3.049   2.035 -0.0609  0.1666 -0.2527
  798SOL    HW1 2393   3.053   3.042   2.089  0.9495  0.4375  2.9007
  798SOL    HW2 2394   2.948   2.963   1.982 -2.5405  1.0683 -3.5786
  799SOL     OW 2395   0.241   2.335   2.090 -0.4443  0.3197 -0.0406
  799SOL    HW1 2396   0.178   2.336   2.170  0.4700 -0.6560  0.8371
  799SOL    HW2 2397   0.205   2.372   2.003  0.8999 -0.8547 -0.7737
  800SOL     OW 2398   0.045   1.908   0.199  0.3681  0.5068 -0.0099
  800SOL    HW1 2399   0.083   2.001   0.212 -0.4223 -3.4646 -0.1527
  800SOL    HW2 2400   3.072   1.877   0.277 -2.5060  1.7908 -0.7008
  801SOL     OW 2401   1.741   1.563   1.307 -0.0282 -0.0448  0.1957
  801SOL    HW1 2402   1.667   1.494   1.311  0.6541  3.1537 -1.2253
  801SOL    HW2 2403   1.781   1.590   1.398 -0.8831 -1.2362 -0.3742
  802SOL     OW 2404   0.181   1.069   0.501  0.1875 -0.0243  0.0004
  802SOL    HW1 2405   0.108   1.078   0.566  1.6457 -0.2991  0.0622
  802SOL    HW2 2406   0.166   0.991   0.432 -2.5276  0.2590 -3.8713
  803SOL     OW 2407   1.218   1.481   1.946  0.0984 -0.1662 -0.6205
  803SOL    HW1 2408   1.293   1.414   1.946 -2.6073 -1.3247  1.6276
  803SOL    HW2 2409   1.152   1.461   1.874 -0.3028  0.9916  1.4733
  804SOL     OW 2410   1.984   1.616   0.945 -0.5396  0.3772  0.3184
  804SOL    HW1 2411   2.001   1.591   1.042 -0.5763  2.0405  0.7578
  804SOL    HW2 2412   1.952   1.530   0.897  2.6549 -0.4045  0.9460
  805SOL     OW 2413   2.802   1.499   2.800  0.4179  0.0177  0.0315
  805SOL    HW1 2414   2.877   1.568   2.795  0.0881 -0.4684 -0.0854
  805SOL    HW2 2415   2.749   1.518   2.720 -1.2125  4.7885  0.2047
  806SOL     OW 2416   0.294   2.380   0.121  0.1938  0.0352  0.4388
  806SOL    HW1 2417   0.346   2.319   0.059 -0.2447 -1.6200  0.1864
  806SOL    HW2 2418   0.326   2.479   0.129 -0.3463  1.0395 -2.2048
  807SOL     OW 2419   2.171   1.521   2.958 -0.2986  0.2535  0.6381
  807SOL    HW1 2420   2.155   1.585   3.032 -0.9109 -3.3630 -1.9905
  807SOL    HW2 2421   2.091   1.452   2.954 -2.2304 -0.1125 -1.9046
  808SOL     OW 2422   1.416   2.174   1.280  0.1126  0.0223 -0.4803
  808SOL    HW1 2423   1.312   2.177   1.267 -3.0829  1.7402 -2.1794
  808SOL    HW2 2424   1.442   2.106   1.351 -0.4922 -0.5147 -0.3957
  809SOL     OW 2425   2.924   0.652   0.461 -0.3982 -0.3023 -0.9409
  809SOL    HW1 2426   2.861   0.597   0.515  2.4843 -3.4355 -1.2732
  809SOL    HW2 2427   2.996   0.599   0.418 -1.1997  0.6873  0.0348
  810SOL     OW 2428   0.896   1.570   0.596 -0.0954  0.0416  0.4083
  810SOL    HW1 2429   0.842   1.652   0.620 -2.2408 -0.6951  0.4485
  810SOL    HW2 2430   0.981   1.590   0.547 -1.3318 -0.6192  1.3618
  811SOL     OW 2431   1.610   2.527   1.024 -0.0786  0.7225  0.7971
  811SOL    HW1 2432   1.699   2.572   1.006  0.4237 -1.9986  0.3480
  811SOL    HW2 2433   1.612   2.480   1.115 -3.0121 -0.6171  0.6681
  812SOL     OW 2434   1.390   2.782   1.470 -0.2423 -0.6704 -0.5911
  812SOL    HW1 2435   1.488   2.745   1.466 -0.3890  1.6693  1.6843
  812SOL    HW2 2436   1.331   2.709   1.514  0.7561 -0.7157 -0.8841
  813SOL     OW 2437   0.664   2.939   1.785 -0.2866  0.5168  0.0149
  813SOL    HW1 2438   0.583   2.910   1.846 -3.6860 -1.6053  0.7559
  813SOL    HW2 2439   0.729   2.865   1.776 -0.5738 -0.6735 -2.5481
  814SOL     OW 2440   1.054   2.697   2.170 -0.6205  0.3589 -0.3554
  814SOL    HW1 2441   1.127   2.765   2.176  2.5634 -2.1109  0.1754
  814SOL    HW2 2442   1.041   2.652   2.260  1.9118 -0.7558 -0.0396
  815SOL     OW 2443   0.321   2.970   2.829 -0.7384  0.9771  0.4507
  815SOL    HW1 2444   0.372   2.909   2.766  1.4305 -0.7188 -0.6936
  815SOL    HW2 2445   0.339   3.064   2.798  0.2789 -1.6992  2.6740
  816SOL     OW 2446   2.248   0.604   2.783  0.2381 -0.5198  0.4848
  816SOL    HW1 2447   2.195   0.623   2.694 -0.9277  2.2911 -2.3470
  816SOL    HW2 2448   2.234   0.681   2.850  1.1461 -1.8376  2.0014
  817SOL     OW 2449   2.399   2.612   2.263  0.7048 -0.4723 -0.7598
  817SOL    HW1 2450   2.484   2.609   2.323  0.8940 -0.2899  3.0849
  817SOL    HW2 2451   2.324   2.630   2.328  0.9279 -0.4593  2.8934
  818SOL     OW 2452   1.209   0.803   0.426  0.1476 -0.0967 -0.2079
  818SOL    HW1 2453   1.239   0.709   0.446 -0.8188  0.9621 -1.7739
  818SOL    HW2 2454   1.149   0.811   0.349  0.7312 -1.4914  2.5648
  819SOL     OW 2455   1.835   1.464   2.817  0.3420 -0.3919 -0.2819
  819SOL    HW1 2456   1.889   1.546   2.783  0.0928 -0.9518  4.0878
  819SOL    HW2 2457   1.909   1.391   2.835  4.3025  2.2999  2.4361
  820SOL     OW 2458   2.882   1.568   2.435 -0.7741 -0.1959  0.1690
  820SOL    HW1 2459   2.793   1.560   2.479  1.4943  0.3981 -1.0997
  820SOL    HW2 2460   2.879   1.645   2.370  0.5242 -1.2941  2.4643
  821SOL     OW 2461   0.381   2.907   0.798  0.3464 -0.4631 -0.1560
  821SOL    HW1 2462   0.443   2.967   0.854 -0.7065  0.2079  2.8776
  821SOL    HW2 2463   0.421   2.885   0.705 -1.2116 -0.8241  0.1680
  822SOL     OW 2464   2.337   2.510   2.893  0.6918  0.3810  0.1520
  822SOL    HW1 2465   2.281   2.429   2.929 -0.1320 -1.3462  1.3744
  822SOL    HW2 2466   2.409   2.526   2.965 -1.2361  0.9637 -0.5959
  823SOL     OW 2467   1.622   0.113   2.579 -0.1475 -0.6118 -0.4062
  823SOL    HW1 2468   1.704   0.172   2.605  0.3502 -1.6801  0.0270
  823SOL    HW2 2469   1.637   0.067   2.488  0.7313 -0.3323 -0.8234
  824SOL     OW 2470   2.735   2.359   2.230 -0.1650  0.9221  0.1643
  824SOL    HW1 2471   2.732   2.438   2.161  1.2289 -1.1232 -2.8149
  824SOL    HW2 2472   2.723   2.392   2.324 -1.2553 -1.1842 -1.0962
  825SOL     OW 2473   2.984   2.023   2.420 -0.3579 -0.1813  0.7820
  825SOL    HW1 2474   0.003   2.043   2.403  2.9309  1.2398 -0.7641
  825SOL    HW2 2475   2.924   2.059   2.343 -0.8403  0.5623  0.1053
  826SOL     OW 2476   1.751   0.718   2.633  0.0064  0.3622  0.5265
  826SOL    HW1 2477   1.851   0.701   2.620  0.7211  0.2580 -3.2362
  826SOL    HW2 2478   1.731   0.807   2.590 -0.0882  0.4520 -1.3559
  827SOL     OW 2479   2.732   1.635   1.739  0.0901 -0.3171  0.5200
  827SOL    HW1 2480   2.708   1.724   1.785  0.8426  1.8847 -2.2155
  827SOL    HW2 2481   2.757   1.568   1.811 -0.3399 -1.3517 -0.3351
  828SOL     OW 2482   2.994   0.080   1.301 -0.0297  0.2150 -0.5857
  828SOL    HW1 2483   3.038   0.033   1.224 -1.8631 -1.8399  1.1839
  828SOL    HW2 2484   2.893   0.066   1.296  1.7999 -1.7040  2.1900
  829SOL     OW 2485   0.902   1.866   2.521  0.2068 -0.5456 -0.4092
  829SOL    HW1 2486   0.899   1.969   2.528  2.2487  0.8015  3.1936
  829SOL    HW2 2487   0.868   1.833   2.609 -1.4483 -1.1690  0.5169
  830SOL     OW 2488   0.705   0.848   1.426 -0.1263 -0.3076 -0.3056
  830SOL    HW1 2489   0.692   0.913   1.505 -0.2670  1.8476  1.5797
  830SOL    HW2 2490   0.654   0.767   1.450 -0.2625  1.8147  1.2377
  831SOL     OW 2491   2.505   1.891   2.836 -0.4561  0.1297 -0.4810
  831SOL    HW1 2492   2.570   1.821   2.868 -2.7635  0.3842 -0.8282
  831SOL    HW2 2493   2.478   1.948   2.916 -0.7543 -0.9151  3.0924
  832SOL     OW 2494   1.802   2.581   2.723 -0.2688  0.3264  0.4586
  832SOL    HW1 2495   1.846   2.493   2.742 -1.0771  0.4868 -0.5988
  832SOL    HW2 2496   1.704   2.575   2.741 -0.7961 -1.9786  0.4727
  833SOL     OW 2497   0.809   0.163   2.015 -1.0102 -0.3755  0.3374
  833SOL    HW1 2498   0.884   0.203   1.950  3.8899  0.2157 -2.5883
  833SOL    HW2 2499   0.803   0.217   2.102  0.7153  1.9798  1.9262
  834SOL     OW 2500   3.020   0.326   1.450  0.3342 -0.2625 -0.1165
  834SOL    HW1 2501   3.003   0.226   1.429  0.6388 -2.5923 -0.3077
  834SOL    HW2 2502   2.958   0.381   1.398  0.2377 -0.7277  1.1500
  835SOL     OW 2503   2.621   0.475   0.258  0.4296  0.2025  0.2611
  835SOL    HW1 2504   2.617   0.564   0.207  0.4948  2.5753 -1.8104
  835SOL    HW2 2505   2.613   0.488   0.358 -4.5574 -1.5871 -3.5354
  836SOL     OW 2506   1.511   1.896   0.111 -0.1138 -0.0657  0.1136
  836SOL    HW1 2507   1.422   1.949   0.104  1.6769  0.7220 -0.9683
  836SOL    HW2 2508   1.576   1.944   0.049 -3.9566 -1.0521  1.8095
  837SOL     OW 2509   1.895   1.895   0.476 -0.5067  0.5313 -0.1594
  837SOL    HW1 2510   1.987   1.874   0.502  1.3373  0.3841 -1.8055
  837SOL    HW2 2511   1.870   1.991   0.492  0.6197 -0.5337  1.2088
  838SOL     OW 2512   1.391   0.878   2.407  0.3448 -0.1496  0.2497
  838SOL    HW1 2513   1.370   0.792   2.460 -0.3982  2.1406 -2.3295
  838SOL    HW2 2514   1.357   0.957   2.458  0.5711 -1.1388  0.8776
  839SOL     OW 2515   0.623   1.383   2.335  0.2193  0.1051 -0.9491
  839SOL    HW1 2516   0.724   1.402   2.330 -1.9060 -0.7870 -0.2148
  839SOL    HW2 2517   0.599   1.308   2.397  1.0715 -0.2384  0.2872
  840SOL     OW 2518   1.111   1.595   0.446 -0.1315  0.2518 -0.1983
  840SOL    HW1 2519   1.134   1.592   0.349  3.1863  0.4566  2.3555
  840SOL    HW2 2520   1.153   1.668   0.502  1.5868  1.7028  2.1569
  841SOL     OW 2521   1.486   2.370   0.578 -0.1687  0.3332 -0.0117
  841SOL    HW1 2522   1.588   2.374   0.579  0.5709 -0.6784  1.3922
  841SOL    HW2 2523   1.460   2.412   0.667 -0.4342 -0.7618  0.2827
  842SOL     OW 2524   0.471   0.683   0.140  0.0287  0.1937 -0.5567
  842SOL    HW1 2525   0.497   0.593   0.183 -0.1786  0.6588 -1.1036
  842SOL    HW2 2526   0.538   0.718   0.075 -4.6553 -2.2833 -1.6911
  843SOL     OW 2527   0.679   0.169   0.576 -0.5577 -0.2661 -0.9625
  843SOL    HW1 2528   0.660   0.107   0.495 -0.7734 -3.3505 -0.4053
  843SOL    HW2 2529   0.677   0.269   0.548  0.8160 -0.2732 -2.5456
  844SOL     OW 2530   2.333   0.011   2.404 -0.5262 -0.1191 -0.3129
  844SOL    HW1 2531   2.307   0.110   2.421 -0.0222  1.1375  1.1938
  844SOL    HW2 2532   2.434   0.000   2.390 -0.0858  0.2044 -1.3157
  845SOL     OW 2533   2.952   2.478   1.840 -0.0547 -0.6500 -0.0662
  845SOL    HW1 2534   2.923   2.382   1.832  0.6879  1.3922 -0.7527
  845SOL    HW2 2535   2.896   2.541   1.784  2.3614 -0.7880  0.3833
  846SOL     OW 2536   1.929   1.305   2.569  0.2259 -0.6713  0.5473
  846SOL    HW1 2537   1.998   1.372   2.542 -0.4694 -1.8692  0.2604
  846SOL    HW2 2538   1.836   1.346   2.544 -0.4105  0.5088  1.0668
  847SOL     OW 2539   0.797   0.742   1.975 -0.2825 -0.5986 -0.4406
  847SOL    HW1 2540   0.752   0.666   1.925  0.1694 -2.5020 -0.1717
  847SOL    HW2 2541   0.898   0.742   1.965  1.9406  0.3437  1.3226
  848SOL     OW 2542   2.492   0.043   2.786 -0.0178 -0.3925 -0.2038
  848SOL    HW1 2543   2.570   3.067   2.775 -3.1039  2.7767  0.2608
  848SOL    HW2 2544   2.510   0.117   2.851 -1.7302  0.2635  3.6505
  849SOL     OW 2545   0.234   2.754   0.138  0.5394  0.1236 -0.0390
  849SOL    HW1 2546   0.153   2.715   0.085 -2.3590 -1.0733  2.2700
  849SOL    HW2 2547   0.288   2.817   0.078 -1.2430  0.7294 -1.7831
  850SOL     OW 2548   1.117   2.717   0.746  0.4017  0.0960  0.4615
  850SOL    HW1 2549   1.072   2.636   0.704  0.9940  0.0915  1.3508
  850SOL    HW2 2550   1.215   2.722   0.721  3.0887 -1.7711 -0.0620
  851SOL     OW 2551   2.071   0.248   2.499 -0.2394 -0.6281 -0.8635
  851SOL    HW1 2552   2.091   0.294   2.408  1.2312 -0.1989 -1.4117
  851SOL    HW2 2553   2.156   0.236   2.554 -1.3599  1.3756 -1.4839
  852SOL     OW 2554   1.341   0.178   2.539  0.5489  1.0072 -0.6498
  852SOL    HW1 2555   1.435   0.139   2.549  0.1760 -0.1558 -1.2714
  852SOL    HW2 2556   1.280   0.102   2.558  1.5498  0.7437 -1.1162
  853SOL     OW 2557   2.986   2.694   0.195  0.5284 -0.0395  0.0420
  853SOL    HW1 2558   3.032   2.615   0.237 -1.8303  2.1611 -1.0988
  853SOL    HW2 2559   2.888   2.677   0.188  1.6480  2.3957 -1.0046
  854SOL     OW 2560   2.015   0.705   2.301 -0.1928 -0.0925  0.5516
  854SOL    HW1 2561   1.941   0.770   2.320 -0.3752  1.6933  0.5591
  854SOL    HW2 2562   2.053   0.673   2.392  0.3209  0.2872  1.6904
  855SOL     OW 2563   0.483   2.549   0.262  0.1563 -0.1158 -0.2512
  855SOL    HW1 2564   0.416   2.616   0.301 -1.9935 -0.0571  0.9825
  855SOL    HW2 2565   0.548   2.589   0.199  1.0399  0.3696  0.8006
  856SOL     OW 2566   0.145   2.997   2.547 -0.2426 -0.2270 -0.7022
  856SOL    HW1 2567   0.069   2.959   2.490  1.0673 -2.0163 -1.6939
  856SOL    HW2 2568   0.122   2.989   2.645  0.3193 -0.1280  0.6834
  857SOL     OW 2569   0.960   3.011   1.507  0.0109  0.2020  0.2729
  857SOL    HW1 2570   0.998   3.000   1.601 -2.4910 -1.2926  0.4436
  857SOL    HW2 2571   0.873   2.958   1.497 -1.3725  0.3342 -1.0306
  858SOL     OW 2572   2.470   2.030   1.752  0.0243  0.8953 -0.6253
  858SOL    HW1 2573   2.560   2.055   1.711 -1.7586 -2.3322 -2.0005
  858SOL    HW2 2574   2.425   2.108   1.795  0.2831  0.2546 -2.3441
  859SOL     OW 2575   1.881   2.310   1.892 -0.8198 -0.2748 -0.1818
  859SOL    HW1 2576   1.853   2.348   1.803  0.5469  0.9015 -4.1481
  859SOL    HW2 2577   1.955   2.240   1.883  3.1746 -0.7556 -0.0426
  860SOL     OW 2578   1.719   0.398   0.470 -0.1842  0.4242  0.1273
  860SOL    HW1 2579   1.752   0.477   0.418 -1.5951  1.6523  0.0791
  860SOL    HW2 2580   1.722   0.317   0.410  0.5473 -0.4561 -0.6385
  861SOL     OW 2581   2.838   0.384   0.631  0.3226  0.3873 -0.2856
  861SOL    HW1 2582   2.909   0.333   0.578 -0.7489  0.5125  0.7845
  861SOL    HW2 2583   2.779   0.325   0.686 -2.3344 -1.6456 -0.2316
  862SOL     OW 2584   0.919   2.718   2.550 -0.1306 -0.1327 -0.1585
  862SOL    HW1 2585   0.871   2.802   2.514 -2.0743 -0.6648 -2.0264
  862SOL    HW2 2586   0.927   2.650   2.470  0.7892  1.4052  1.1947
  863SOL     OW 2587   0.565   0.510   1.214  0.1609 -0.0905  0.0154
  863SOL    HW1 2588   0.553   0.472   1.306  0.1766  0.1791  0.8826
  863SOL    HW2 2589   0.497   0.588   1.210 -4.0332  0.7056 -1.4998
  864SOL     OW 2590   2.946   2.893   1.774  0.1182 -0.7546 -0.3442
  864SOL    HW1 2591   2.958   2.947   1.687  0.3132  0.1025 -0.4486
  864SOL    HW2 2592   2.849   2.904   1.808  3.1058  2.3708  1.2587
  865SOL     OW 2593   0.402   1.469   2.907  0.2301  0.0527 -0.5507
  865SOL    HW1 2594   0.331   1.395   2.930 -2.2616 -2.2159  1.5869
  865SOL    HW2 2595   0.477   1.458   2.977  0.0764  1.6927  1.2580
  866SOL     OW 2596   0.174   0.183   0.122  0.2412  0.1262  0.4776
  866SOL    HW1 2597   0.071   0.203   0.137 -2.6350 -0.1000 -1.6512
  866SOL    HW2 2598   0.189   0.084   0.148 -0.2060  0.3283  4.1148
  867SOL     OW 2599   2.707   2.977   2.749  0.0053  0.0903  0.3565
  867SOL    HW1 2600   2.735   2.946   2.840 -0.3897 -0.4502  0.5706
  867SOL    HW2 2601   2.769   2.934   2.678 -1.0216 -0.9123  1.4599
  868SOL     OW 2602   1.249   1.068   0.054 -0.1959 -0.4022 -0.2303
  868SOL    HW1 2603   1.189   0.990   0.076 -1.8061 -0.0443  0.0152
  868SOL    HW2 2604   1.337   1.037   0.016  2.5026 -0.8566  2.0678
  869SOL     OW 2605   2.827   1.334   0.618  0.0669 -0.1100  0.0241
  869SOL    HW1 2606   2.846   1.427   0.654 -0.9323  1.4333 -0.3977
  869SOL    HW2 2607   2.792   1.277   0.692  0.3001  1.4366 -3.6968
  870SOL     OW 2608   2.370   1.658   0.501 -0.2137  0.2129  0.1309
  870SOL    HW1 2609   2.413   1.656   0.407  4.3610 -1.2633 -1.2271
  870SOL    HW2 2610   2.435   1.632   0.572 -3.8430  0.0923 -2.4614
  871SOL     OW 2611   1.176   1.451   0.733  0.2661  0.1556 -0.2324
  871SOL    HW1 2612   1.148   1.352   0.722 -1.1505 -1.8297  0.9875
  871SOL    HW2 2613   1.100   1.512   0.770  2.8244  2.2459 -0.0543
  872SOL     OW 2614   1.242   1.888   1.995  0.0646  0.0995  0.2173
  872SOL    HW1 2615   1.229   1.919   1.898  1.0006 -1.2187 -0.1694
  872SOL    HW2 2616   1.312   1.817   1.998 -1.0457 -4.0711 -0.3370
  873SOL     OW 2617   1.008   1.748   2.311 -0.0631 -0.2988  0.1278
  873SOL    HW1 2618   0.964   1.788   2.394  1.7112 -3.2992 -3.8971
  873SOL    HW2 2619   0.934   1.724   2.245 -0.5741  0.7648 -0.4766
  874SOL     OW 2620   1.012   2.151   0.956  0.1960  0.6982  0.1385
  874SOL    HW1 2621   1.097   2.099   0.986  0.9638 -1.6251  0.7523
  874SOL    HW2 2622   0.940   2.140   1.031 -0.0831  2.1301  2.4511
  875SOL     OW 2623   2.511   0.158   1.042 -0.5441  0.4341  0.1046
  875SOL    HW1 2624   2.454   0.242   1.055 -1.6434  1.4277  0.4856
  875SOL    HW2 2625   2.479   0.084   1.101  1.0644  0.3792 -0.2541
  876SOL     OW 2626   0.802   0.700   0.165  0.1693  0.2749 -0.0381
  876SOL    HW1 2627   0.781   0.766   0.240 -0.7124  1.0317  2.1989
  876SOL    HW2 2628   0.832   0.611   0.205 -0.8296 -0.6185 -1.5102
  877SOL     OW 2629   2.872   0.501   1.291 -0.3978 -0.4059  0.4505
  877SOL    HW1 2630   2.910   0.438   1.217 -3.2863  0.4179  1.1870
  877SOL    HW2 2631   2.856   0.598   1.256 -0.4829 -0.2183  0.0229
  878SOL     OW 2632   2.075   2.259   0.516 -0.9452  0.1428 -0.4277
  878SOL    HW1 2633   1.990   2.211   0.494  3.7662 -0.6546 -3.0240
  878SOL    HW2 2634   2.149   2.187   0.532  3.7746 -3.4146  0.6258
  879SOL     OW 2635   2.721   1.544   1.495 -0.2593  0.3506  0.4034
  879SOL    HW1 2636   2.658   1.580   1.421 -2.2092  1.0459  1.2639
  879SOL    HW2 2637   2.712   1.591   1.586 -0.8144  2.2794  0.2206
  880SOL     OW 2638   1.375   2.626   1.246  0.5038 -0.1012 -0.0591
  880SOL    HW1 2639   1.392   2.674   1.156  1.1793 -0.5989  1.4307
  880SOL    HW2 2640   1.360   2.693   1.318 -0.5165 -2.0158 -0.9427
  881SOL     OW 2641   0.897   2.441   0.207  0.2951  0.0586 -0.5636
  881SOL    HW1 2642   0.824   2.372   0.184  2.5384  1.8379 -0.7373
  881SOL    HW2 2643   0.983   2.385   0.224  1.7902 -1.4765 -0.3715
  882SOL     OW 2644   1.685   0.894   1.506  0.4249  0.1947 -0.0655
  882SOL    HW1 2645   1.685   0.854   1.599  0.8711 -0.7799 -0.8193
  882SOL    HW2 2646   1.593   0.888   1.473 -0.0666  0.3791  1.0167
  883SOL     OW 2647   1.269   0.152   2.141 -0.3066  0.0968 -0.8867
  883SOL    HW1 2648   1.285   0.223   2.219 -0.2965  1.1597  3.9075
  883SOL    HW2 2649   1.183   0.094   2.164 -3.7189 -0.4558  0.2841
  884SOL     OW 2650   3.003   0.550   0.188 -0.7478  0.5741  0.7392
  884SOL    HW1 2651   2.969   0.617   0.125 -0.0621  2.2394 -1.2828
  884SOL    HW2 2652   0.012   0.576   0.217  2.3744 -2.0698 -2.5377
  885SOL     OW 2653   0.789   1.394   2.836 -0.0127 -0.5907 -0.0286
  885SOL    HW1 2654   0.731   1.448   2.901  2.4600 -1.3808  1.5599
  885SOL    HW2 2655   0.887   1.400   2.866  0.6576  1.9265  0.6304
  886SOL     OW 2656   1.532   1.412   2.826  0.0893 -0.1600 -0.2034
  886SOL    HW1 2657   1.537   1.430   2.725  0.7207  0.8512 -1.7148
  886SOL    HW2 2658   1.628   1.423   2.865  2.2040  0.6812  0.4294
  887SOL     OW 2659   1.226   0.663   1.684 -0.1787  0.2149  0.3320
  887SOL    HW1 2660   1.149   0.666   1.611  0.3184 -0.0746 -2.2385
  887SOL    HW2 2661   1.254   0.565   1.693 -0.1792  0.2014  0.0686
  888SOL     OW 2662   2.849   0.445   1.850  0.5085 -0.0421 -0.2956
  888SOL    HW1 2663   2.872   0.464   1.952  0.9473  3.4347 -1.4730
  888SOL    HW2 2664   2.922   0.391   1.807 -0.7305  1.3009 -0.5354
  889SOL     OW 2665   0.117   2.983   0.742  0.3757 -0.0269  0.1209
  889SOL    HW1 2666   0.049   2.912   0.761  0.8427 -1.7107 -1.0272
  889SOL    HW2 2667   0.204   2.938   0.745 -1.3053  1.2918  0.6685
  890SOL     OW 2668   2.992   2.330   0.250  0.1407  0.0491  0.3817
  890SOL    HW1 2669   3.062   2.400   0.252 -2.6031  0.9003  1.4954
  890SOL    HW2 2670   2.994   2.273   0.336 -2.3641 -1.3068 -0.3463
  891SOL     OW 2671   0.921   1.694   2.984  0.2741 -0.1921  0.7825
  891SOL    HW1 2672   0.883   1.789   2.988 -0.6724 -1.1561  0.6394
  891SOL    HW2 2673   0.939   1.662   2.889  1.1240  0.0288  0.0497
  892SOL     OW 2674   2.899   3.048   0.851 -0.4502  0.3573  0.0387
  892SOL    HW1 2675   2.881   3.014   0.757 -3.1747  1.2241  0.5438
  892SOL    HW2 2676   2.877   2.983   0.927  0.3866  2.7202  1.5924
  893SOL     OW 2677   1.007   0.062   1.276  0.1825 -0.7373  0.3617
  893SOL    HW1 2678   0.995   0.005   1.356 -1.1886  1.0083  0.3021
  893SOL    HW2 2679   0.919   0.107   1.247 -0.8713 -0.2466  1.0571
  894SOL     OW 2680   3.042   1.069   0.664 -0.2968  0.5728  0.4585
  894SOL    HW1 2681   3.013   0.973   0.686 -0.0119 -0.7957 -1.3948
  894SOL    HW2 2682   3.043   1.132   0.742  0.4347 -1.9645 -0.8194
  895SOL     OW 2683   2.522   2.671   1.869  0.8362  0.1164 -0.1082
  895SOL    HW1 2684   2.436   2.699   1.920 -3.6584 -2.2536  0.2630
  895SOL    HW2 2685   2.594   2.742   1.864 -2.2073 -0.3434 -0.7231
  896SOL     OW 2686   1.095   0.308   1.511 -0.1843  0.3240  0.9342
  896SOL    HW1 2687   1.162   0.374   1.460  2.0303  2.6978 -2.0749
  896SOL    HW2 2688   1.146   0.222   1.521  2.0080  4.3248  2.3120
  897SOL     OW 2689   0.863   1.688   1.709 -0.0347  0.1701 -0.4961
  897SOL    HW1 2690   0.902   1.743   1.636 -2.5106  0.2159 -0.6722
  897SOL    HW2 2691   0.894   1.723   1.798 -2.4191  1.2007 -2.6370
  898SOL     OW 2692   1.870   2.526   1.665  0.6857 -0.1547 -0.3267
  898SOL    HW1 2693   1.855   2.483   1.572 -0.4228  0.2660 -2.2247
  898SOL    HW2 2694   1.875   2.622   1.671  0.5902 -2.2420  0.5908
  899SOL     OW 2695   1.040   0.505   0.876 -0.5135 -0.0662  0.0213
  899SOL    HW1 2696   1.067   0.473   0.967  3.3406  0.2042 -0.5592
  899SOL    HW2 2697   1.017   0.602   0.882 -0.4317 -0.9850 -2.5164
  900SOL     OW 2698   1.911   2.498   2.429 -0.2290  0.2799  0.7364
  900SOL    HW1 2699   1.869   2.403   2.417 -3.5322  0.5324 -0.1485
  900SOL    HW2 2700   1.921   2.505   2.528 -1.6985 -1.0221  0.7070
  901SOL     OW 2701   0.925   2.140   2.442 -0.0613 -0.0578  0.2603
  901SOL    HW1 2702   1.004   2.204   2.449  2.2220  0.5602  1.2901
  901SOL    HW2 2703   0.836   2.190   2.421  0.2150  0.8633 -0.5199
  902SOL     OW 2704   2.165   0.922   0.676 -0.1156  0.1489 -0.0877
  902SOL    HW1 2705   2.197   1.015   0.649 -1.8040 -0.6698  0.6510
  902SOL    HW2 2706   2.102   0.931   0.756  0.2188 -0.2700 -0.3041
  903SOL     OW 2707   2.009   0.748   0.449 -0.8350 -0.3182 -0.3396
  903SOL    HW1 2708   2.031   0.747   0.349  2.0993 -2.0658  0.0031
  903SOL    HW2 2709   2.070   0.810   0.498  0.8797 -2.8306 -0.5316
  904SOL     OW 2710   0.750   0.969   2.879  0.0930 -0.0260  0.5652
  904SOL    HW1 2711   0.832   1.023   2.909  1.8985  0.0310 -1.2485
  904SOL    HW2 2712   0.767   0.939   2.785 -1.5934 -0.4607  0.4344
  905SOL     OW 2713   2.214   0.142   0.806 -0.0128  0.4821 -0.4572
  905SOL    HW1 2714   2.194   0.051   0.849  0.6442  2.0612 -1.0031
  905SOL    HW2 2715   2.187   0.212   0.876  1.7844 -0.8652  0.7638
  906SOL     OW 2716   2.913   2.122   1.341  0.0472 -0.4226 -0.2937
  906SOL    HW1 2717   2.905   2.101   1.444  0.6845 -1.9449  1.1725
  906SOL    HW2 2718   2.826   2.104   1.295  0.4185 -0.4510  1.2641
  907SOL     OW 2719   1.091   0.501   0.062  0.1203 -0.2021 -0.2684
  907SOL    HW1 2720   1.034   0.471   0.140 -1.2251 -0.6381 -1.9223
  907SOL    HW2 2721   1.136   0.595   0.081  4.5175  1.7117  0.8971
  908SOL     OW 2722   2.234   2.697   0.997 -0.3753 -0.0449 -0.2344
  908SOL    HW1 2723   2.273   2.697   1.089  1.9297 -0.3658  0.5004
  908SOL    HW2 2724   2.242   2.789   0.952 -0.7244  0.1903 -0.6485
  909SOL     OW 2725   2.139   0.942   1.292  0.0938  0.1872 -0.0408
  909SOL    HW1 2726   2.195   0.854   1.315  1.0569 -3.3979 -0.3826
  909SOL    HW2 2727   2.205   1.019   1.282  0.2694 -2.0124  1.5546
  910SOL     OW 2728   1.325   2.791   2.021 -0.0653  0.4809 -0.3143
  910SOL    HW1 2729   1.309   2.829   2.112 -0.7337 -1.8459 -1.8422
  910SOL    HW2 2730   1.339   2.690   2.034  0.0074 -0.5337 -2.6694
  911SOL     OW 2731   2.821   0.439   2.327 -0.5849  0.0783 -0.1462
  911SOL    HW1 2732   2.741   0.471   2.269  0.1612  1.1281 -0.1042
  911SOL    HW2 2733   2.830   0.338   2.320  1.1386  1.4324  1.4963
  912SOL     OW 2734   0.054   1.190   1.523  0.2161 -0.1090 -0.1080
  912SOL    HW1 2735   3.048   1.233   1.502  0.5238 -0.6572  0.7239
  912SOL    HW2 2736   0.130   1.260   1.503  3.6785  1.2993 -0.1740
  913SOL     OW 2737   2.711   2.093   1.633 -0.0395 -0.4297 -0.0185
  913SOL    HW1 2738   2.787   2.066   1.699  2.1008 -0.6293  1.2585
  913SOL    HW2 2739   2.686   2.012   1.574  0.2444 -2.0168  0.4960
  914SOL     OW 2740   1.447   0.859   1.428 -0.3782 -0.7684  0.4534
  914SOL    HW1 2741   1.380   0.784   1.446  3.0926 -1.6811  0.9741
  914SOL    HW2 2742   1.443   0.880   1.329 -1.4426 -0.6040  1.7208
  915SOL     OW 2743   1.557   0.412   1.557 -0.5394  0.0098 -0.1908
  915SOL    HW1 2744   1.498   0.386   1.636  0.2722 -0.5632 -1.3926
  915SOL    HW2 2745   1.631   0.480   1.583 -0.4516 -0.1874  2.3055
  916SOL     OW 2746   2.653   2.320   1.505 -0.2764 -0.0448  0.0835
  916SOL    HW1 2747   2.616   2.310   1.414 -0.2853  2.0534  2.2446
  916SOL    HW2 2748   2.665   2.230   1.551 -0.3436  0.7361 -1.1498
  917SOL     OW 2749   2.443   2.100   0.336 -0.2739  0.0972  0.1122
  917SOL    HW1 2750   2.420   2.144   0.250  0.6308 -0.4524  1.0783
  917SOL    HW2 2751   2.544   2.107   0.357  1.8674  0.3755 -1.0533
  918SOL     OW 2752   1.856   2.857   2.673  0.0122  0.1179  0.0210
  918SOL    HW1 2753   1.938   2.861   2.611  2.7113 -0.5468 -1.8254
  918SOL    HW2 2754   1.828   2.761   2.693  2.7488 -1.7376 -0.1961
  919SOL     OW 2755   1.133   2.268   1.527 -0.7781  0.0633 -0.0766
  919SOL    HW1 2756   1.068   2.327   1.578  0.9170 -0.0370  1.5874
  919SOL    HW2 2757   1.224   2.257   1.576 -1.6044  2.6112 -1.7192
  920SOL     OW 2758   0.035   0.293   2.232  0.1144  0.8146 -0.8514
  920SOL    HW1 2759   0.055   0.245   2.320  0.2207 -0.6805  2.9462
  920SOL    HW2 2760   0.099   0.260   2.162 -0.5048 -0.1876  0.4432
  921SOL     OW 2761   0.005   0.789   1.650  0.0164 -0.3179  0.0821
  921SOL    HW1 2762   3.076   0.826   1.743  2.4743 -0.8063 -2.1530
  921SOL    HW2 2763   0.064   0.703   1.648  0.0972  0.2909 -0.9612
  922SOL     OW 2764   2.264   2.051   0.530  0.2703 -0.3090 -0.0058
  922SOL    HW1 2765   2.332   2.071   0.453  2.0313 -0.0435 -3.1188
  922SOL    HW2 2766   2.219   1.961   0.517 -0.7460  3.2520 -1.1676
  923SOL     OW 2767   0.785   1.953   3.007 -0.4922 -0.6061 -0.3552
  923SOL    HW1 2768   0.707   1.898   3.050 -1.1064  1.7663  1.9506
  923SOL    HW2 2769   0.744   2.029   2.952  1.8314 -3.0791 -0.3178
  924SOL     OW 2770   0.962   0.443   0.308 -0.2102 -0.0216 -0.7299
  924SOL    HW1 2771   0.931   0.352   0.302  0.8242  3.4756 -2.2625
  924SOL    HW2 2772   1.044   0.458   0.376  3.0582  1.7832  3.8760
  925SOL     OW 2773   2.482   0.425   0.783  0.2249 -0.1031  0.4080
  925SOL    HW1 2774   2.384   0.463   0.769 -0.7865 -0.0430 -0.6035
  925SOL    HW2 2775   2.483   0.325   0.781 -1.7097  0.9524  3.3729
  926SOL     OW 2776   0.346   0.687   1.166  0.0867 -0.1690  0.4229
  926SOL    HW1 2777   0.406   0.694   1.082 -0.9704  2.5758  1.0892
  926SOL    HW2 2778   0.246   0.684   1.134 -0.7138 -0.2918  0.1445
  927SOL     OW 2779   0.068   1.352   2.656 -0.3460  0.1529 -0.1243
  927SOL    HW1 2780   0.039   1.384   2.561 -1.4008 -1.5673 -2.1035
  927SOL    HW2 2781   0.023   1.263   2.682  2.7206  1.8523 -0.6436
  928SOL     OW 2782   2.853   0.846   2.826 -0.4957 -0.6723  0.3085
  928SOL    HW1 2783   2.778   0.807   2.885  1.0197  1.0062 -1.7597
  928SOL    HW2 2784   2.944   0.840   2.866 -3.3588 -1.2147  0.3018
  929SOL     OW 2785   2.692   0.047   1.263  0.1402  0.1021 -0.2545
  929SOL    HW1 2786   2.649   0.140   1.261  1.9412 -0.6177 -1.8810
  929SOL    HW2 2787   2.644   3.079   1.334  0.7883 -0.0229 -1.9252
  930SOL     OW 2788   1.927   1.211   1.589  0.1906  0.4339 -0.2812
  930SOL    HW1 2789   1.826   1.205   1.604  1.5480  2.1197  3.3873
  930SOL    HW2 2790   1.945   1.263   1.503  0.6283  0.7127 -0.6709
  931SOL     OW 2791   1.820   1.049   0.615  0.1333 -0.1742 -0.1527
  931SOL    HW1 2792   1.762   1.047   0.532  2.0531 -2.1101  2.3566
  931SOL    HW2 2793   1.875   1.136   0.616  0.9532  0.1628  0.7687
  932SOL     OW 2794   2.693   1.202   0.817 -0.0781  0.3459 -0.0930
  932SOL    HW1 2795   2.601   1.167   0.786 -2.6008 -0.7785 -1.8465
  932SOL    HW2 2796   2.675   1.255   0.899 -2.8452  0.3600  0.3104
  933SOL     OW 2797   2.561   1.582   1.285  0.2045 -0.0113 -0.2276
  933SOL    HW1 2798   2.471   1.625   1.270 -1.2699 -1.8902  0.4415
  933SOL    HW2 2799   2.624   1.613   1.219 -1.9587 -1.4808  1.6150
  934SOL     OW 2800   1.813   0.231   2.156 -1.0448 -0.0491  0.0413
  934SOL    HW1 2801   1.720   0.258   2.185  2.6037 -0.8712  0.9900
  934SOL    HW2 2802   1.875   0.312   2.143 -1.1949  3.7932  0.1743
  935SOL     OW 2803   0.389   1.642   0.807 -0.0648  0.6121 -0.1766
  935SOL    HW1 2804   0.302   1.642   0.753 -1.6671 -0.9900  1.5977
  935SOL    HW2 2805   0.403   1.731   0.850  1.1760 -2.6688  1.6192
  936SOL     OW 2806   0.536   0.920   0.456 -0.1725 -0.3025 -0.9555
  936SOL    HW1 2807   0.479   0.933   0.371 -0.9650  0.7600 -0.4990
  936SOL    HW2 2808   0.526   1.006   0.512  1.5882 -0.2549  0.5064
  937SOL     OW 2809   2.406   2.991   1.178 -0.0416  0.3809 -0.2961
  937SOL    HW1 2810   2.439   2.931   1.106  0.4049  2.1474  0.7549
  937SOL    HW2 2811   2.386   2.946   1.268  0.4858  0.4750 -0.2347
  938SOL     OW 2812   2.762   2.289   0.538 -0.4246 -0.0779  0.4941
  938SOL    HW1 2813   2.864   2.274   0.522 -0.0051  1.8315 -0.2611
  938SOL    HW2 2814   2.733   2.381   0.503 -0.8508 -0.1659  0.5375
  939SOL     OW 2815   0.883   2.007   0.243  0.0195 -0.4817 -0.0854
  939SOL    HW1 2816   0.809   1.941   0.262 -1.2010 -0.0107  1.5676
  939SOL    HW2 2817   0.972   1.965   0.270 -0.2960  0.9724  0.2311
  940SOL     OW 2818   2.780   0.372   2.761  0.2467  0.0455 -0.0846
  940SOL    HW1 2819   2.835   0.393   2.679 -2.5528 -1.2243 -2.9537
  940SOL    HW2 2820   2.687   0.347   2.739 -0.1221 -0.2282 -1.5612
  941SOL     OW 2821   1.266   0.306   2.839  0.7446  0.0704 -0.0960
  941SOL    HW1 2822   1.361   0.285   2.826 -1.2782  0.7166 -2.1607
  941SOL    HW2 2823   1.208   0.233   2.877 -0.4343  0.5161  0.4083
  942SOL     OW 2824   1.200   1.148   1.334  0.0562 -0.0363 -0.2038
  942SOL    HW1 2825   1.247   1.237   1.309  1.0901 -1.8676  0.4210
  942SOL    HW2 2826   1.106   1.142   1.290 -0.5958 -1.1481 -1.6714
  943SOL     OW 2827   1.386   0.890   2.028  0.1424  0.3852 -0.2697
  943SOL    HW1 2828   1.372   0.884   1.929 -1.8658  1.5198  2.0031
  943SOL    HW2 2829   1.292   0.907   2.070 -0.8121 -1.3151 -2.4535
  944SOL     OW 2830   1.650   0.781   1.764 -0.3756  0.0380  0.0885
  944SOL    HW1 2831   1.551   0.787   1.769  3.1522 -0.7766  1.4769
  944SOL    HW2 2832   1.695   0.818   1.849  1.8295  1.8344 -0.7115
  945SOL     OW 2833   2.921   3.047   0.211 -0.1855 -0.4198  0.0081
  945SOL    HW1 2834   3.026   3.044   0.213  0.5747 -0.3057 -0.7529
  945SOL    HW2 2835   2.884   0.034   0.276 -2.0921 -1.0486  2.7233
  946SOL     OW 2836   2.967   0.530   2.100  0.5148 -0.1630  0.3002
  946SOL    HW1 2837   3.004   0.627   2.115 -1.0919 -0.2640  0.5702
  946SOL    HW2 2838   2.925   0.503   2.189  0.0225 -1.2892  3.5663
  947SOL     OW 2839   0.483   2.870   0.549  0.2296  0.2409  0.0024
  947SOL    HW1 2840   0.555   2.800   0.564 -0.8778  0.6933 -0.9522
  947SOL    HW2 2841   0.511   2.949   0.492 -1.8744 -3.6377  0.8798
  948SOL     OW 2842   2.204   1.052   1.604  0.1015 -0.7305  0.2006
  948SOL    HW1 2843   2.217   1.029   1.700 -1.0321  0.5952 -0.3989
  948SOL    HW2 2844   2.105   1.054   1.580  2.5494  1.7778  0.7203
  949SOL     OW 2845   0.600   0.738   2.490 -0.0879  0.3651 -0.0629
  949SOL    HW1 2846   0.562   0.812   2.434 -0.9853  0.8602  0.6686
  949SOL    HW2 2847   0.528   0.692   2.547 -1.3997  0.5249  1.4001
  950SOL     OW 2848   0.426   0.362   0.955  0.0444 -0.3103  0.2818
  950SOL    HW1 2849   0.499   0.293   0.940 -1.5925 -1.4736 -0.6435
  950SOL    HW2 2850   0.331   0.325   0.941 -3.1249  2.0841  2.9716
  951SOL     OW 2851   0.873   1.447   2.262  0.0188 -0.0915  0.1739
  951SOL    HW1 2852   0.850   1.533   2.206 -1.5910 -0.2451  0.8915
  951SOL    HW2 2853   0.928   1.379   2.207  3.2042  1.7202  0.3566
  952SOL     OW 2854   0.834   1.483   0.056  0.1936  0.0153  0.1214
  952SOL    HW1 2855   0.872   1.561   3.077  0.2821 -0.0107 -1.9590
  952SOL    HW2 2856   0.823   1.519   0.149  2.3486 -0.6118 -0.5148
  953SOL     OW 2857   2.441   0.278   2.228  0.1140  0.3606 -0.3077
  953SOL    HW1 2858   2.528   0.294   2.280  1.0803  1.1425  1.1317
  953SOL    HW2 2859   2.447   0.286   2.129 -0.2198  0.2140 -0.6336
  954SOL     OW 2860   1.621   1.132   0.799 -0.0563 -0.7507 -0.5233
  954SOL    HW1 2861   1.684   1.080   0.743 -2.5777 -1.0187  2.5383
  954SOL    HW2 2862   1.616   1.231   0.768 -0.0944  0.6586  0.2567
  955SOL     OW 2863   0.266   1.936   2.665 -0.1729 -0.1320 -0.0498
  955SOL    HW1 2864   0.286   1.873   2.743 -0.2211  0.2648  0.4039
  955SOL    HW2 2865   0.212   2.016   2.697  1.4330  0.1494 -2.1662
  956SOL     OW 2866   1.643   0.546   2.082  0.1535  0.3355 -0.1708
  956SOL    HW1 2867   1.609   0.473   2.145 -1.8529  0.7902 -1.0734
  956SOL    HW2 2868   1.615   0.637   2.118  1.8608 -0.5829 -0.5007
  957SOL     OW 2869   1.854   2.037   2.769  0.2001  0.2817 -0.3362
  957SOL    HW1 2870   1.841   1.945   2.810 -0.6715 -0.0808 -0.8595
  957SOL    HW2 2871   1.851   2.114   2.839 -0.5287 -0.1066  1.9703
  958SOL     OW 2872   1.256   1.886   1.707  0.1020  0.6561  0.1386
  958SOL    HW1 2873   1.284   1.786   1.706  0.8793 -3.0765  0.0360
  958SOL    HW2 2874   1.318   1.941   1.642 -0.9668  1.4232 -1.3500
  959SOL     OW 2875   2.170   2.303   2.918  0.5453 -0.3265  0.1472
  959SOL    HW1 2876   2.206   2.262   2.835  0.6669 -0.1828  2.0949
  959SOL    HW2 2877   2.143   2.233   2.990  2.6881 -3.6112 -0.1445
  960SOL     OW 2878   2.937   0.744   2.563 -0.3384  0.1077  0.2537
  960SOL    HW1 2879   3.019   0.786   2.519 -0.4887 -0.2838 -1.0797
  960SOL    HW2 2880   2.904   0.788   2.651  0.6894  0.1532  4.4084
  961SOL     OW 2881   0.813   0.869   2.631 -0.7289  0.1283  0.4380
  961SOL    HW1 2882   0.737   0.840   2.568  0.7700  2.0748  1.5638
  961SOL    HW2 2883   0.855   0.787   2.679 -0.5811 -0.8115  1.9452
  962SOL     OW 2884   0.764   1.239   2.614 -0.3605  0.7799 -0.1326
  962SOL    HW1 2885   0.767   1.289   2.706 -2.8447  0.2638 -0.3153
  962SOL    HW2 2886   0.667   1.216   2.593  0.2099  0.8122 -1.2209
  963SOL     OW 2887   2.622   2.493   0.394  0.1868  0.5994  0.0879
  963SOL    HW1 2888   2.569   2.435   0.338  1.7987 -1.9435  0.4422
  963SOL    HW2 2889   2.621   2.593   0.360  0.4609  3.3285  2.2518
  964SOL     OW 2890   1.122   2.511   1.220  0.5412  0.1926  0.0727
  964SOL    HW1 2891   1.214   2.521   1.263 -0.3699  0.6087  1.6286
  964SOL    HW2 2892   1.092   2.598   1.183  4.9988 -1.2851  1.4977
  965SOL     OW 2893   1.476   1.583   0.512  0.0121 -0.2789 -0.4151
  965SOL    HW1 2894   1.570   1.629   0.530  2.3062  4.0327 -0.2641
  965SOL    HW2 2895   1.400   1.638   0.542  1.5058 -3.3512 -0.3355
  966SOL     OW 2896   0.051   1.524   0.272  0.0809 -0.2824  0.1875
  966SOL    HW1 2897   0.073   1.433   0.322 -1.8969 -2.3059  3.0619
  966SOL    HW2 2898   0.074   1.507   0.170  1.1790 -0.1342  0.3159
  967SOL     OW 2899   1.859   0.027   1.972  0.1838 -0.8803 -0.1871
  967SOL    HW1 2900   1.763   0.056   1.942 -1.6217  0.7438 -0.3935
  967SOL    HW2 2901   1.900   0.104   2.024 -1.2862 -1.3365 -2.2043
  968SOL     OW 2902   1.759   0.744   0.941  0.0386 -0.1316  0.5022
  968SOL    HW1 2903   1.814   0.741   0.856 -0.6183  2.3432  0.9982
  968SOL    HW2 2904   1.666   0.709   0.933  2.3015 -0.8456 -1.1976
  969SOL     OW 2905   0.273   1.116   2.253 -0.2383  0.4484 -0.1448
  969SOL    HW1 2906   0.303   1.193   2.191  1.6192 -0.4660  0.8229
  969SOL    HW2 2907   0.179   1.129   2.278  1.2569 -0.3657  1.3341
  970SOL     OW 2908   2.155   1.349   1.297 -0.0134 -0.1297  0.0340
  970SOL    HW1 2909   2.220   1.336   1.372 -0.5200  1.3831 -1.7579
  970SOL    HW2 2910   2.188   1.301   1.210  1.2023 -1.1784 -2.4379
  971SOL     OW 2911   0.077   3.060   1.078  0.4383  0.2437  0.6132
  971SOL    HW1 2912   0.172   3.058   1.118  0.0441  0.8125 -2.2687
  971SOL    HW2 2913   0.060   2.973   1.026  0.8765  3.4568 -0.7398
  972SOL     OW 2914   0.394   0.668   2.660 -0.9582 -0.1664  0.2632
  972SOL    HW1 2915   0.327   0.598   2.690  1.0888 -0.6257 -0.1619
  972SOL    HW2 2916   0.348   0.738   2.597  1.3244  1.4059  1.0326
  973SOL     OW 2917   0.127   0.575   0.902  0.1600 -0.2358  0.1072
  973SOL    HW1 2918   0.152   0.481   0.874  1.4444  2.2321  0.4459
  973SOL    HW2 2919   0.172   0.645   0.847 -1.9150  0.4522  1.7488
  974SOL     OW 2920   2.203   0.482   1.606  1.3342 -0.2842  0.2447
  974SOL    HW1 2921   2.176   0.578   1.584  0.7654  0.7514  0.9756
  974SOL    HW2 2922   2.123   0.428   1.639  2.7774  1.1972  0.2506
  975SOL     OW 2923   2.661   0.260   0.077 -0.0892 -0.2824  0.2402
  975SOL    HW1 2924   2.673   0.334   0.150  0.5594  4.2029  1.0699
  975SOL    HW2 2925   2.585   0.191   0.091 -2.6695 -0.1970 -1.3330
  976SOL     OW 2926   0.249   1.466   1.243 -0.3420 -0.4460  0.1746
  976SOL    HW1 2927   0.274   1.444   1.346 -0.5161 -2.1386  2.0041
  976SOL    HW2 2928   0.294   1.550   1.213 -3.2344 -2.7081  1.2174
  977SOL     OW 2929   1.135   2.274   0.225  0.0757  0.3834 -0.3939
  977SOL    HW1 2930   1.135   2.229   0.133 -2.1679 -0.5199 -0.6362
  977SOL    HW2 2931   1.231   2.287   0.261  1.3931 -0.2846  1.6422
  978SOL     OW 2932   0.296   1.220   2.966  0.3738  0.1676  0.1557
  978SOL    HW1 2933   0.269   1.230   3.064  1.0490 -0.9288  0.0794
  978SOL    HW2 2934   0.390   1.186   2.958 -1.5200 -3.0840 -0.3543
  979SOL     OW 2935   2.171   1.816   0.891 -0.2053 -0.6796  0.5794
  979SOL    HW1 2936   2.099   1.751   0.919  1.4209  2.2734  1.6262
  979SOL    HW2 2937   2.264   1.778   0.908 -0.3499 -0.0099 -0.4565
  980SOL     OW 2938   0.505   1.551   1.837 -0.4609 -0.3248  0.2396
  980SOL    HW1 2939   0.411   1.514   1.835  3.1039  0.7793  0.5843
  980SOL    HW2 2940   0.546   1.521   1.924 -0.5524  1.1018  0.8059
  981SOL     OW 2941   2.673   1.500   0.166  0.4789  0.6326  0.1568
  981SOL    HW1 2942   2.760   1.547   0.179  2.2579 -2.3257 -0.4851
  981SOL    HW2 2943   2.688   1.419   0.104 -1.1859 -3.5405 -2.4185
  982SOL     OW 2944   2.358   2.777   2.046  0.0184 -0.3351 -0.2529
  982SOL    HW1 2945   2.343   2.875   2.063 -0.3692 -0.5995  1.7119
  982SOL    HW2 2946   2.379   2.732   2.134 -0.5149  2.6927 -1.4334
  983SOL     OW 2947   1.207   0.186   1.157  0.0165  0.5483 -0.3281
  983SOL    HW1 2948   1.135   0.139   1.209  1.9235 -0.4155  2.5304
  983SOL    HW2 2949   1.177   0.284   1.146 -0.7240  4.0464  1.8166
  984SOL     OW 2950   1.166   2.570   2.938 -0.2526  0.1543  0.2565
  984SOL    HW1 2951   1.185   2.670   2.915 -1.9794 -1.7808 -0.5975
  984SOL    HW2 2952   1.238   2.505   2.906 -2.3102 -0.9549 -0.4055
  985SOL     OW 2953   1.724   2.153   1.620  0.2259  0.1710  0.0435
  985SOL    HW1 2954   1.666   2.223   1.664  1.2814  0.0252 -2.2328
  985SOL    HW2 2955   1.696   2.057   1.648 -0.2079 -2.4887  4.4070
  986SOL     OW 2956   2.190   3.013   2.617  0.0531 -0.2112 -0.1426
  986SOL    HW1 2957   2.141   2.931   2.587 -0.5633  0.9649 -0.1840
  986SOL    HW2 2958   2.250   3.055   2.545 -1.5450  1.7491 -0.3404
  987SOL     OW 2959   2.850   1.092   2.141 -0.2451 -0.4570 -0.1915
  987SOL    HW1 2960   2.807   1.042   2.062 -2.4261 -2.4677  0.1163
  987SOL    HW2 2961   2.777   1.138   2.200 -1.5767  1.9072  2.3736
  988SOL     OW 2962   2.320   0.821   2.505 -0.4835 -0.2077 -0.0253
  988SOL    HW1 2963   2.401   0.754   2.509 -0.1248  0.1489 -0.3073
  988SOL    HW2 2964   2.309   0.859   2.410 -0.9589 -0.2688  0.0670
  989SOL     OW 2965   1.685   1.259   1.979 -0.6765 -0.0069 -0.4573
  989SOL    HW1 2966   1.589   1.221   1.999 -1.1517 -0.2697 -0.7386
  989SOL    HW2 2967   1.759   1.195   2.001 -1.5208  3.7672 -0.4082
  990SOL     OW 2968   0.241   1.187   0.155 -0.2365  0.0735 -0.4434
  990SOL    HW1 2969   0.303   1.108   0.172 -3.2448  4.6818 -1.8586
  990SOL    HW2 2970   0.151   1.165   0.201  0.6055 -1.0684  1.5071
  991SOL     OW 2971   0.275   1.771   2.910  0.3394  0.1813  0.2729
  991SOL    HW1 2972   0.235   1.675   2.894 -0.6690 -0.7856 -0.0496
  991SOL    HW2 2973   0.377   1.772   2.902 -1.6167 -0.2222  1.5315
  992SOL     OW 2974   2.633   1.830   1.936 -0.3014  0.1497 -0.1913
  992SOL    HW1 2975   2.571   1.890   1.883  1.1911 -0.4496 -0.5658
  992SOL    HW2 2976   2.577   1.783   2.009  0.1953  0.5013  2.7481
  993SOL     OW 2977   0.170   0.049   0.500  0.1198 -0.5443  0.0280
  993SOL    HW1 2978   0.238   0.122   0.525  0.3505  0.0185 -1.9614
  993SOL    HW2 2979   0.121   0.017   0.582  4.8646  0.3130 -0.7513
  994SOL     OW 2980   0.109   1.727   1.599  0.6573  0.4076  0.1776
  994SOL    HW1 2981   0.091   1.708   1.698  1.3824  0.2805 -0.1502
  994SOL    HW2 2982   0.202   1.769   1.576  3.0030  2.4324 -2.6128
  995SOL     OW 2983   2.206   1.631   2.715 -0.0990  0.0795  0.2754
  995SOL    HW1 2984   2.259   1.718   2.733  2.3012 -0.3860  1.5053
  995SOL    HW2 2985   2.196   1.576   2.801 -0.0264 -3.2756  0.2399
  996SOL     OW 2986   1.802   1.463   0.047  0.5600  0.3287  0.2635
  996SOL    HW1 2987   1.742   1.386   0.076  1.6739  0.2329 -1.6289
  996SOL    HW2 2988   1.750   1.540   0.000  1.6051 -1.8165 -1.0973
  997SOL     OW 2989   1.456   1.339   1.595 -0.0660 -0.4255 -0.4305
  997SOL    HW1 2990   1.492   1.353   1.499  0.1871  3.4927 -0.3787
  997SOL    HW2 2991   1.410   1.251   1.606  2.8250 -1.0943  0.3335
  998SOL     OW 2992   2.655   2.057   1.216  0.0351  0.0993  0.2522
  998SOL    HW1 2993   2.599   2.140   1.215  0.7683 -2.1434 -1.4403
  998SOL    HW2 2994   2.700   2.040   1.119  1.9010 -0.8988 -3.4145
  999SOL     OW 2995   2.066   2.421   0.279  0.5033 -0.1226  0.1326
  999SOL    HW1 2996   2.095   2.515   0.280 -1.3676 -0.8040 -2.3740
  999SOL    HW2 2997   2.108   2.368   0.354 -1.3762 -1.1371  0.3140
 1000SOL     OW 2998   0.804   2.905   0.066 -0.8167 -0.5531 -0.7053
 1000SOL    HW1 2999   0.876   2.909   3.084 -0.7475  0.3119 -1.6669
 1000SOL    HW2 3000   0.740   2.979   0.036  1.3420 -1.2596  0.0822
   3.08478   3.08478   3.08478
