1000 SPC/Fw water molecules t= 137.00000 step= 137000
 3000
    1SOL     OW    1   2.275   2.465   1.047  0.5141 -0.3845  0.4034
    1SOL    HW1    2   2.200   2.511   0.995  1.5212 -1.2523  1.9700
    1SOL    HW2    3   2.245   2.402   1.123  1.0183 -0.2988 -0.6928
    2SOL     OW    4   1.569   1.878   2.305  0.3060  0.2302  0.0649
    2SOL    HW1    5   1.468   1.906   2.288 -1.5082  1.9998 -0.6152
    2SOL    HW2    6   1.568   1.852   2.405 -1.1921 -1.9813  0.8009
    3SOL     OW    7   1.653   2.547   2.250 -0.4140  0.3024 -0.2867
    3SOL    HW1    8   1.703   2.610   2.309 -2.6889 -1.1147  0.0414
    3SOL    HW2    9   1.707   2.462   2.232  0.0895 -1.1040 -0.9284
    4SOL     OW   10   1.558   2.639   1.992 -0.4954 -0.0639  0.4630
    4SOL    HW1   11   1.593   2.581   2.066  0.8844  0.8140 -1.2434
    4SOL    HW2   12   1.611   2.612   1.906  3.0173 -0.8769  0.2448
    5SOL     OW   13   0.475   0.697   1.486  0.1522 -0.0766  0.1819
    5SOL    HW1   14   0.504   0.628   1.416 -1.6418 -0.6224 -1.0582
    5SOL    HW2   15   0.379   0.668   1.512 -1.9134 -2.2386 -0.0708
    6SOL     OW   16   2.486   0.965   2.976  0.1298  0.3153  0.1308
    6SOL    HW1   17   2.553   0.894   3.006 -1.3972 -0.6663 -0.9403
    6SOL    HW2   18   2.506   1.003   2.882  0.5469  1.1738 -0.5788
    7SOL     OW   19   0.561   0.270   1.473  0.1744  0.5378 -1.4032
    7SOL    HW1   20   0.626   0.286   1.551  0.3179 -0.9709  0.7522
    7SOL    HW2   21   0.499   0.193   1.499 -0.2343  1.5792 -0.3438
    8SOL     OW   22   0.936   2.672   1.631  0.1224 -0.1934 -0.4109
    8SOL    HW1   23   0.891   2.697   1.540 -1.3533  1.7967 -0.2407
    8SOL    HW2   24   0.906   2.578   1.662  0.5384 -0.6539  0.1688
    9SOL     OW   25   0.756   0.898   0.439 -0.0850 -0.1936 -0.2724
    9SOL    HW1   26   0.657   0.906   0.431 -0.9724  1.0205  0.4624
    9SOL    HW2   27   0.796   0.989   0.422  0.1750 -0.3047 -1.6396
   10SOL     OW   28   0.693   2.359   2.472  0.0836  0.1008 -0.0058
   10SOL    HW1   29   0.623   2.385   2.538  0.9213  0.6796  1.9467
   10SOL    HW2   30   0.699   2.431   2.402 -1.9539  0.2866  2.0674
   11SOL     OW   31   0.403   1.816   0.189  0.0640 -0.1182  0.1188
   11SOL    HW1   32   0.343   1.835   0.110  1.5154 -1.1465  0.8421
   11SOL    HW2   33   0.344   1.802   0.271 -4.0639 -2.1465 -0.0292
   12SOL     OW   34   0.642   0.040   1.333 -0.1203  0.4551 -0.1037
   12SOL    HW1   35   0.633   0.124   1.385  0.3705 -0.6133  0.1284
   12SOL    HW2   36   0.550   0.022   1.282 -0.5704  2.1516 -2.4964
   13SOL     OW   37   0.824   2.660   0.238 -0.3782  0.7145  0.2824
   13SOL    HW1   38   0.892   2.582   0.244 -0.0515 -1.4766 -0.3720
   13SOL    HW2   39   0.860   2.729   0.178 -0.9303 -3.1172 -0.0585
   14SOL     OW   40   1.447   1.774   1.001 -0.6482  0.0121 -0.2395
   14SOL    HW1   41   1.396   1.816   1.083 -0.3456  1.0853  0.2428
   14SOL    HW2   42   1.547   1.786   1.011 -0.4747  2.3822  0.2552
   15SOL     OW   43   2.617   0.730   2.379 -0.0993 -0.3355 -0.3395
   15SOL    HW1   44   2.713   0.694   2.393  3.8647  0.6839  0.8558
   15SOL    HW2   45   2.613   0.820   2.430 -0.7246  0.5717 -1.9051
   16SOL     OW   46   1.500   2.769   3.050 -0.4935 -0.3693 -0.3350
   16SOL    HW1   47   1.427   2.834   3.026 -0.9517  1.1657 -1.5285
   16SOL    HW2   48   1.586   2.813   3.025 -0.3122  0.1207  1.0480
   17SOL     OW   49   0.755   2.376   1.986 -0.0573 -0.0544 -0.6707
   17SOL    HW1   50   0.774   2.278   2.007 -0.2714 -0.2739 -0.4752
   17SOL    HW2   51   0.667   2.400   2.022  1.7337  2.3279 -1.9223
   18SOL     OW   52   1.469   1.023   0.379 -0.4203 -0.6394 -0.3190
   18SOL    HW1   53   1.455   1.122   0.387  2.9009 -0.1574  1.9946
   18SOL    HW2   54   1.431   0.975   0.463  2.1756  0.3795  0.1180
   19SOL     OW   55   2.381   2.084   2.826  0.5296 -0.0559  0.9490
   19SOL    HW1   56   2.448   2.098   2.902 -0.4102  0.8358  1.3108
   19SOL    HW2   57   2.382   1.987   2.792 -0.1674 -1.9941 -0.1539
   20SOL     OW   58   2.319   1.952   2.442  0.5422  0.0468  0.3419
   20SOL    HW1   59   2.232   1.916   2.484 -2.7069  0.8188  0.9034
   20SOL    HW2   60   2.377   2.019   2.495  1.6405  1.5777  1.0463
   21SOL     OW   61   0.488   2.147   3.027  0.6537 -0.1804 -0.2307
   21SOL    HW1   62   0.475   2.171   0.042  2.9041  0.9923 -0.3629
   21SOL    HW2   63   0.533   2.058   3.027  0.3312  1.9060  0.2855
   22SOL     OW   64   2.044   2.963   1.363  0.1357  0.4334  0.0006
   22SOL    HW1   65   2.071   3.041   1.309 -1.1473 -5.2904  3.3081
   22SOL    HW2   66   2.024   2.987   1.461  0.7099 -0.0507 -0.6867
   23SOL     OW   67   0.108   1.197   1.521 -0.1660 -0.3838  0.3554
   23SOL    HW1   68   0.088   1.278   1.583 -0.9175 -3.1381 -2.2580
   23SOL    HW2   69   0.212   1.191   1.508  0.9746 -0.4260  2.2199
   24SOL     OW   70   2.149   1.928   1.598  0.0760 -0.6897  0.9528
   24SOL    HW1   71   2.237   1.878   1.602 -0.0418 -1.0758 -1.6437
   24SOL    HW2   72   2.159   2.028   1.629 -0.7272  3.3007  1.0561
   25SOL     OW   73   2.006   2.863   2.933  0.1635  0.3473  0.2129
   25SOL    HW1   74   2.093   2.912   2.938 -0.1425  1.5051  0.2425
   25SOL    HW2   75   2.022   2.809   2.844  2.1414  0.6748 -0.6179
   26SOL     OW   76   1.234   2.949   0.933  0.7970  0.2503 -0.2505
   26SOL    HW1   77   1.225   2.921   1.030  3.7408 -1.9226 -0.3581
   26SOL    HW2   78   1.260   3.046   0.927 -0.6364 -0.9070  0.0470
   27SOL     OW   79   1.142   2.001   2.804  0.0021  0.0769 -0.3799
   27SOL    HW1   80   1.162   2.073   2.874  1.1840 -0.4155 -1.7522
   27SOL    HW2   81   1.045   1.987   2.791  0.4719 -0.6060  1.3734
   28SOL     OW   82   2.942   1.666   1.421 -0.3000 -0.3615 -0.0546
   28SOL    HW1   83   2.918   1.710   1.511 -0.8679 -0.6971  2.5635
   28SOL    HW2   84   3.005   1.729   1.371 -1.7033  1.6912 -1.6449
   29SOL     OW   85   2.369   2.196   2.057 -0.1976  0.6808  0.2825
   29SOL    HW1   86   2.368   2.282   2.113 -1.5142  2.7658 -0.9655
   29SOL    HW2   87   2.379   2.103   2.099  0.5395 -0.1638 -1.8804
   30SOL     OW   88   1.051   2.737   1.144 -0.0786 -0.3472  0.1727
   30SOL    HW1   89   1.104   2.816   1.182 -1.0489  0.0444  1.7969
   30SOL    HW2   90   1.009   2.764   1.056 -1.4584  1.2627  0.4440
   31SOL     OW   91   3.081   2.106   2.011 -0.0690  0.4101  0.0473
   31SOL    HW1   92   3.033   2.016   2.013 -0.1310  0.8465 -0.6190
   31SOL    HW2   93   0.094   2.088   1.990 -3.3000 -0.1760  1.5304
   32SOL     OW   94   1.314   1.084   2.143 -0.4404 -0.1979 -0.3743
   32SOL    HW1   95   1.332   1.152   2.067  0.3592  0.5784  1.9120
   32SOL    HW2   96   1.299   1.130   2.236  0.7253 -0.8404  0.3035
   33SOL     OW   97   0.519   2.923   2.512 -0.2230 -0.1582 -0.7110
   33SOL    HW1   98   0.419   2.942   2.511 -0.7991 -1.1209 -1.7364
   33SOL    HW2   99   0.538   2.838   2.569 -1.9721 -0.6517 -0.3372
   34SOL     OW  100   1.470   0.001   1.566 -0.1138 -0.5461 -0.3502
   34SOL    HW1  101   1.445   3.004   1.507  0.9565 -0.4321 -1.7994
   34SOL    HW2  102   1.453   3.064   1.665  1.2001  1.5055 -1.9078
   35SOL     OW  103   1.975   0.466   1.168  0.4516  0.0002  0.1686
   35SOL    HW1  104   1.936   0.470   1.262  2.5703 -1.3433  1.6524
   35SOL    HW2  105   1.918   0.409   1.105 -0.0030  2.3421 -0.1334
   36SOL     OW  106   2.303   2.744   2.599  0.1689  0.2993  0.2195
   36SOL    HW1  107   2.374   2.688   2.645 -1.1053 -0.3316  1.2435
   36SOL    HW2  108   2.325   2.737   2.498  0.1777  2.4552  1.7013
   37SOL     OW  109   1.395   2.293   2.674  0.3332  0.0568  0.1681
   37SOL    HW1  110   1.311   2.348   2.683 -0.0238 -0.6744  0.5981
   37SOL    HW2  111   1.377   2.193   2.676  2.4157 -1.9975 -1.4134
   38SOL     OW  112   2.514   0.487   2.844 -0.4949  0.1791  0.4816
   38SOL    HW1  113   2.431   0.510   2.897  3.8520 -1.0924 -1.0539
   38SOL    HW2  114   2.590   0.548   2.867 -0.6181 -0.3430  2.0108
   39SOL     OW  115   2.297   2.261   2.496  0.0286 -0.6102  0.3790
   39SOL    HW1  116   2.236   2.278   2.576  1.5180 -1.9025  2.5372
   39SOL    HW2  117   2.265   2.301   2.402 -0.8746  0.6232 -2.2491
   40SOL     OW  118   0.333   0.274   2.980  0.3606 -0.3877 -0.4135
   40SOL    HW1  119   0.359   0.356   3.031 -0.6736 -2.1261 -1.7815
   40SOL    HW2  120   0.262   0.226   3.034 -0.8366 -3.0850  1.3494
   41SOL     OW  121   1.248   1.160   1.674 -0.1594  0.0162 -0.1206
   41SOL    HW1  122   1.287   1.155   1.582  0.5890 -1.7850  0.6756
   41SOL    HW2  123   1.145   1.171   1.661 -0.2228 -1.6854  0.5540
   42SOL     OW  124   0.322   0.291   1.715 -0.1346 -0.5406 -0.4380
   42SOL    HW1  125   0.317   0.210   1.657  1.5169 -0.9229 -1.1069
   42SOL    HW2  126   0.390   0.270   1.792 -1.0431 -3.6855 -0.9669
   43SOL     OW  127   1.655   1.273   2.187  0.1730 -0.0683 -1.0710
   43SOL    HW1  128   1.563   1.310   2.177  0.4885 -0.8146  2.7382
   43SOL    HW2  129   1.703   1.245   2.102 -2.0133 -0.3587  2.8407
   44SOL     OW  130   0.194   2.670   2.618  0.0009 -0.1129  0.2138
   44SOL    HW1  131   0.218   2.712   2.707 -0.3790  0.7037  0.4512
   44SOL    HW2  132   0.192   2.744   2.546 -0.4015  0.6417 -2.3192
   45SOL     OW  133   0.470   2.439   1.129  0.3882 -0.0365  0.2552
   45SOL    HW1  134   0.429   2.531   1.111 -1.6390  2.0218 -2.9231
   45SOL    HW2  135   0.566   2.426   1.097  0.8727  0.2237  1.7989
   46SOL     OW  136   2.471   2.130   1.810  0.7806  0.1118  0.2185
   46SOL    HW1  137   2.449   2.161   1.907 -1.0883  1.6539 -1.9486
   46SOL    HW2  138   2.552   2.184   1.780  0.3871  0.7790 -0.6591
   47SOL     OW  139   1.627   1.858   1.601  0.0019  0.1565  1.0995
   47SOL    HW1  140   1.546   1.876   1.659 -0.5783 -0.0239  0.1467
   47SOL    HW2  141   1.677   1.776   1.635  2.7631  0.0774  0.3033
   48SOL     OW  142   0.512   2.047   0.454 -0.2417  0.2500  0.0643
   48SOL    HW1  143   0.545   1.995   0.533 -2.6526 -0.2256  0.0260
   48SOL    HW2  144   0.560   2.139   0.442  1.3017  0.7650  0.1630
   49SOL     OW  145   2.973   0.769   2.080 -0.0424 -0.0273  0.4215
   49SOL    HW1  146   3.071   0.751   2.108  0.2925  0.7624  3.6537
   49SOL    HW2  147   2.942   0.845   2.140 -1.5087  1.0706 -0.1971
   50SOL     OW  148   2.178   0.735   0.881 -0.9980 -0.0836 -0.0558
   50SOL    HW1  149   2.106   0.809   0.864 -1.5240 -0.3369 -1.5288
   50SOL    HW2  150   2.166   0.700   0.980 -0.1307 -1.6860 -0.1663
   51SOL     OW  151   1.130   0.510   0.741 -0.0677  0.1916  0.8309
   51SOL    HW1  152   1.053   0.561   0.785 -0.4766  0.8571 -1.6900
   51SOL    HW2  153   1.213   0.502   0.802  1.0203 -0.2282  1.4978
   52SOL     OW  154   1.171   1.273   0.300 -0.4541 -0.1739 -0.1892
   52SOL    HW1  155   1.128   1.194   0.252 -1.6518  0.1714 -0.1481
   52SOL    HW2  156   1.131   1.275   0.396  0.0410 -2.2247  0.8153
   53SOL     OW  157   1.093   2.255   2.418 -0.3384 -0.0884 -0.0994
   53SOL    HW1  158   1.181   2.225   2.380 -1.7811  0.7481 -0.8134
   53SOL    HW2  159   1.101   2.293   2.515  2.0919  1.1392  0.3602
   54SOL     OW  160   1.364   0.878   1.739  0.2937  0.4491 -0.2544
   54SOL    HW1  161   1.368   0.801   1.669  2.3753 -3.1025 -1.3369
   54SOL    HW2  162   1.322   0.961   1.697  0.6490 -0.2221 -2.3765
   55SOL     OW  163   1.962   2.889   0.564 -0.1259 -0.2284  0.0730
   55SOL    HW1  164   1.862   2.897   0.561  2.9378 -0.7181 -0.3244
   55SOL    HW2  165   2.010   2.981   0.547  0.1590  1.7297 -0.3040
   56SOL     OW  166   0.852   2.703   1.375  0.4805  0.1739 -0.0006
   56SOL    HW1  167   0.923   2.730   1.303  1.8806  0.8341  1.3838
   56SOL    HW2  168   0.794   2.780   1.398  0.3997  1.4342 -0.0083
   57SOL     OW  169   2.033   0.786   2.988 -0.0792  0.1457 -0.1474
   57SOL    HW1  170   2.102   0.851   3.024 -1.2062  0.2589  0.4484
   57SOL    HW2  171   2.054   0.754   2.892  1.6773 -0.0820 -0.4211
   58SOL     OW  172   2.916   1.374   2.118  0.3022 -0.1424 -0.2519
   58SOL    HW1  173   2.830   1.346   2.162  0.5013  0.1753 -2.7997
   58SOL    HW2  174   2.985   1.415   2.179  1.1856 -0.5031  0.1220
   59SOL     OW  175   0.690   2.523   2.268  0.3264  0.1938  0.2961
   59SOL    HW1  176   0.625   2.495   2.196  0.3712 -0.3763 -2.0177
   59SOL    HW2  177   0.682   2.622   2.281 -0.3468  0.9084  1.7684
   60SOL     OW  178   2.565   2.623   1.144 -0.3753 -0.4493 -0.1751
   60SOL    HW1  179   2.524   2.600   1.057  1.1436  2.5700  3.2155
   60SOL    HW2  180   2.664   2.647   1.131 -0.9124  0.0954 -2.4924
   61SOL     OW  181   1.205   2.178   0.471 -0.3957  0.0560 -0.0245
   61SOL    HW1  182   1.292   2.228   0.467 -1.5687 -0.1366  1.9552
   61SOL    HW2  183   1.182   2.134   0.384 -1.3226 -1.9018 -0.2968
   62SOL     OW  184   2.347   2.786   3.074 -0.1870 -0.3561  0.1524
   62SOL    HW1  185   2.375   2.695   3.035  0.7832  0.7706  2.7462
   62SOL    HW2  186   2.271   2.780   0.057 -0.1707 -0.5296 -1.8811
   63SOL     OW  187   2.057   0.058   0.045 -0.1959  0.1363 -0.3807
   63SOL    HW1  188   2.135   0.029   3.073 -0.6945  1.3252  2.1550
   63SOL    HW2  189   2.071   0.152   0.077 -0.2025 -0.7643  0.6842
   64SOL     OW  190   0.921   1.049   2.550 -0.8583  0.1509  0.1971
   64SOL    HW1  191   0.849   1.120   2.564 -0.6114  0.1507 -1.5536
   64SOL    HW2  192   0.932   0.978   2.624 -0.7398 -0.0490  2.5588
   65SOL     OW  193   1.265   2.673   0.446 -0.0229  0.0656  0.3132
   65SOL    HW1  194   1.254   2.591   0.382  0.9737 -1.1099  0.3653
   65SOL    HW2  195   1.365   2.693   0.467  3.8110  0.2126  2.9186
   66SOL     OW  196   0.592   1.586   1.420  0.6951  0.2044  0.5916
   66SOL    HW1  197   0.635   1.673   1.454 -1.8258 -0.5705  1.2524
   66SOL    HW2  198   0.587   1.523   1.501  0.0661  0.9779  1.4164
   67SOL     OW  199   2.573   2.828   2.134 -0.9420 -0.5715 -0.6727
   67SOL    HW1  200   2.496   2.884   2.104  1.6308 -0.9743  1.1831
   67SOL    HW2  201   2.589   2.848   2.234 -0.0911  0.4256 -2.8107
   68SOL     OW  202   0.883   0.783   1.330 -0.0198 -0.8255 -0.0965
   68SOL    HW1  203   0.877   0.678   1.339  1.4814 -1.9645  3.2777
   68SOL    HW2  204   0.794   0.820   1.364 -0.7047  1.1405  1.2780
   69SOL     OW  205   1.912   2.803   0.309  0.0367  0.2932 -0.3751
   69SOL    HW1  206   1.872   2.872   0.250 -0.0990 -1.4545  1.8910
   69SOL    HW2  207   1.948   2.837   0.399  1.1645  0.2101  2.0186
   70SOL     OW  208   2.683   0.954   2.513  0.1956  1.1768 -0.1247
   70SOL    HW1  209   2.760   0.939   2.452 -1.6082  1.3258  2.4022
   70SOL    HW2  210   2.707   0.913   2.603  1.1124 -0.6764 -1.2441
   71SOL     OW  211   2.845   1.837   0.039  0.1841  0.0473 -0.3350
   71SOL    HW1  212   2.888   1.895   3.054  0.5768  2.5033  0.9692
   71SOL    HW2  213   2.778   1.771   0.000 -0.7271 -1.3620  1.2528
   72SOL     OW  214   0.060   1.667   0.367  0.1125  0.4228 -0.0631
   72SOL    HW1  215   0.116   1.582   0.350 -3.2899  0.5630  3.0630
   72SOL    HW2  216   0.106   1.738   0.416 -3.5985 -3.6181  0.0602
   73SOL     OW  217   1.055   1.311   0.538 -0.3221  0.0696 -0.6711
   73SOL    HW1  218   1.098   1.266   0.615  0.1708 -2.6521 -1.9510
   73SOL    HW2  219   1.060   1.411   0.543  2.3225  1.3114 -2.8965
   74SOL     OW  220   0.348   1.849   2.058 -0.5905 -0.5608 -0.1641
   74SOL    HW1  221   0.313   1.947   2.068  1.5503 -0.5589 -1.1643
   74SOL    HW2  222   0.341   1.803   1.968  1.0782 -1.7829  2.0664
   75SOL     OW  223   1.698   1.434   1.865  0.1855 -0.1480  0.3352
   75SOL    HW1  224   1.747   1.347   1.872 -0.1731 -0.7798  0.9921
   75SOL    HW2  225   1.618   1.421   1.796 -2.4439 -0.6457 -2.5949
   76SOL     OW  226   2.075   2.552   1.346 -0.2776 -0.2617  0.3558
   76SOL    HW1  227   2.138   2.502   1.405 -1.0649  1.2620 -1.5150
   76SOL    HW2  228   2.120   2.630   1.295 -2.7111 -0.6774 -1.7211
   77SOL     OW  229   2.533   1.341   1.562  0.1247 -0.2181  0.0158
   77SOL    HW1  230   2.524   1.324   1.669  1.8730 -1.1813 -0.4620
   77SOL    HW2  231   2.537   1.438   1.533 -0.7070  0.9514  2.0130
   78SOL     OW  232   1.436   0.747   0.570 -0.2728  0.6363  0.1208
   78SOL    HW1  233   1.369   0.824   0.586 -0.4064  0.3829  1.0585
   78SOL    HW2  234   1.395   0.680   0.505  0.2819  1.6381 -0.0539
   79SOL     OW  235   2.143   1.570   1.530  0.8529 -0.7175 -0.5444
   79SOL    HW1  236   2.151   1.471   1.512  0.4235  1.4663 -1.5200
   79SOL    HW2  237   2.146   1.629   1.448 -1.2915  2.8816  1.1823
   80SOL     OW  238   0.823   0.535   1.397 -0.1446 -0.3490 -0.2121
   80SOL    HW1  239   0.726   0.514   1.374 -0.4912  4.0514 -1.8942
   80SOL    HW2  240   0.895   0.466   1.374 -2.9665 -1.8004  0.1030
   81SOL     OW  241   0.727   2.942   0.889 -0.6463  0.0639 -0.4422
   81SOL    HW1  242   0.735   3.002   0.804 -1.0895  1.5502 -1.3871
   81SOL    HW2  243   0.820   2.903   0.897  1.3760 -0.3101  0.0490
   82SOL     OW  244   1.387   3.059   1.818  0.4515 -0.1609  0.0669
   82SOL    HW1  245   1.312   3.008   1.771 -0.3401 -0.0161 -0.9552
   82SOL    HW2  246   1.446   3.003   1.880 -0.9710  0.9402  0.0938
   83SOL     OW  247   1.240   1.862   0.812  0.4731  0.2087  0.2137
   83SOL    HW1  248   1.329   1.859   0.861 -3.6297 -0.1056 -2.7450
   83SOL    HW2  249   1.243   1.939   0.746  0.3074  1.2757 -1.9572
   84SOL     OW  250   0.048   1.496   2.814 -0.3872 -0.1241 -0.0342
   84SOL    HW1  251   0.016   1.409   2.767  2.6246  0.5316  0.0682
   84SOL    HW2  252   3.079   1.573   2.786  0.6334  1.4115 -2.0820
   85SOL     OW  253   0.353   2.201   1.100  0.9979  0.6456  0.3678
   85SOL    HW1  254   0.268   2.208   1.042 -0.3907  1.5752 -0.5654
   85SOL    HW2  255   0.401   2.285   1.098  0.4926 -1.3672  0.1768
   86SOL     OW  256   2.252   2.393   1.491  0.4455 -0.3355 -0.0917
   86SOL    HW1  257   2.348   2.432   1.504 -0.7446 -0.8992  0.7705
   86SOL    HW2  258   2.239   2.319   1.562  3.6181 -0.5540  0.0020
   87SOL     OW  259   2.981   2.109   0.738  0.1828  0.3626  0.4342
   87SOL    HW1  260   2.997   2.206   0.741 -0.6054 -0.4937  1.1004
   87SOL    HW2  261   3.015   2.073   0.650  1.9902  2.4311  1.1346
   88SOL     OW  262   1.055   1.145   1.204 -0.2739 -0.4823  0.5747
   88SOL    HW1  263   1.089   1.179   1.114  3.9418  0.0036 -2.2905
   88SOL    HW2  264   0.973   1.085   1.191  1.2056 -1.4723  2.3192
   89SOL     OW  265   1.050   0.020   2.249 -0.1606 -0.0011 -0.3504
   89SOL    HW1  266   1.035   0.053   2.345  0.3582  1.1425  2.5059
   89SOL    HW2  267   0.963   3.069   2.209  0.8936  1.1334 -0.2487
   90SOL     OW  268   3.050   2.059   1.610  0.4154 -0.0779 -0.2458
   90SOL    HW1  269   0.019   1.988   1.561  0.4122  1.9108  0.6026
   90SOL    HW2  270   0.029   2.132   1.640 -0.3607 -0.0502 -0.2538
   91SOL     OW  271   1.433   2.021   1.448 -0.0947 -0.5823  0.5111
   91SOL    HW1  272   1.384   2.040   1.536  0.3014  0.1808  0.3813
   91SOL    HW2  273   1.447   1.922   1.426  0.8709 -1.9039 -0.4230
   92SOL     OW  274   2.718   2.713   1.445 -0.7347 -0.2398 -0.1121
   92SOL    HW1  275   2.650   2.660   1.392  0.3772 -2.9251  0.3176
   92SOL    HW2  276   2.685   2.773   1.520  1.7771  1.2015  0.4706
   93SOL     OW  277   2.831   1.149   2.638  0.5016  0.0234 -0.5749
   93SOL    HW1  278   2.794   1.056   2.610  1.1759  0.4447  1.8148
   93SOL    HW2  279   2.788   1.182   2.724 -3.1285 -1.1767  0.0726
   94SOL     OW  280   2.693   2.544   1.803  0.2434 -0.5345 -0.2338
   94SOL    HW1  281   2.721   2.589   1.893  1.3686 -0.6798  0.8117
   94SOL    HW2  282   2.653   2.613   1.742 -0.1457 -0.8235 -0.8308
   95SOL     OW  283   1.343   0.581   2.099 -0.1408  0.7098 -0.2423
   95SOL    HW1  284   1.402   0.569   2.183  1.9239  0.6240  2.8802
   95SOL    HW2  285   1.352   0.678   2.066  0.0566 -3.6940 -0.5481
   96SOL     OW  286   2.420   0.724   1.506  0.0003 -0.0609  0.8231
   96SOL    HW1  287   2.484   0.646   1.519 -0.8488  0.1190  1.7380
   96SOL    HW2  288   2.326   0.676   1.494 -3.5533 -5.5655  1.0833
   97SOL     OW  289   1.765   0.403   1.765 -0.5224 -0.0265  0.5623
   97SOL    HW1  290   1.726   0.347   1.689 -0.8114 -1.5148 -1.0626
   97SOL    HW2  291   1.714   0.487   1.783  2.0104 -0.2609  1.6610
   98SOL     OW  292   1.799   2.875   1.287  0.1675  0.5148 -0.3150
   98SOL    HW1  293   1.885   2.914   1.314 -0.5791 -0.4387  0.9045
   98SOL    HW2  294   1.753   2.827   1.369 -0.7216 -0.8163  3.4399
   99SOL     OW  295   2.673   0.064   1.942  0.3698 -0.1182 -0.0352
   99SOL    HW1  296   2.759   0.079   1.996  1.3196 -1.2797  1.8830
   99SOL    HW2  297   2.612   0.145   1.929 -0.2139 -2.0920  1.1047
  100SOL     OW  298   2.228   1.496   1.788 -0.0603 -0.0151 -0.1463
  100SOL    HW1  299   2.218   1.548   1.698  0.8086  0.8750 -2.8642
  100SOL    HW2  300   2.316   1.445   1.782 -0.7544 -1.5187 -0.4000
  101SOL     OW  301   1.514   0.201   0.767 -0.1944  0.1105 -0.0324
  101SOL    HW1  302   1.418   0.182   0.801 -1.3879 -0.4725 -0.7094
  101SOL    HW2  303   1.576   0.213   0.847 -0.6105  1.2999 -0.4553
  102SOL     OW  304   0.584   0.985   1.124 -0.2730 -0.0344 -0.1799
  102SOL    HW1  305   0.502   1.045   1.117 -1.7732  2.4534  1.2867
  102SOL    HW2  306   0.603   0.965   1.223 -0.9546  0.4742 -0.3733
  103SOL     OW  307   2.935   0.520   2.981  0.0761 -0.1010 -0.1877
  103SOL    HW1  308   2.905   0.440   2.921  0.0516 -1.1038 -1.8406
  103SOL    HW2  309   2.965   0.492   3.076  0.5732  2.2215 -0.1214
  104SOL     OW  310   2.702   0.064   1.670  0.0599 -0.6512 -0.0868
  104SOL    HW1  311   2.796   0.069   1.622  2.0124 -0.0062  3.0976
  104SOL    HW2  312   2.715   0.087   1.770  0.1236  0.3284 -0.4853
  105SOL     OW  313   1.890   0.439   2.188  0.0766 -0.2373 -0.4830
  105SOL    HW1  314   1.930   0.448   2.285  0.6333 -0.8944  2.3944
  105SOL    HW2  315   1.806   0.494   2.170 -2.9078  0.9983  0.2003
  106SOL     OW  316   1.671   0.178   0.979  0.1609 -0.0345  0.4136
  106SOL    HW1  317   1.751   0.117   0.975 -2.8664  0.5747 -1.8149
  106SOL    HW2  318   1.585   0.136   1.015  0.4150  1.2201  1.5370
  107SOL     OW  319   0.795   1.167   0.795 -0.0747 -0.5621  0.6830
  107SOL    HW1  320   0.738   1.250   0.774 -0.0532 -0.3285 -1.2508
  107SOL    HW2  321   0.743   1.095   0.842  1.3931  0.5316  0.4024
  108SOL     OW  322   2.924   0.148   2.075 -0.3374 -0.4064 -0.0539
  108SOL    HW1  323   2.939   0.219   2.005 -3.3853 -0.6251  1.1021
  108SOL    HW2  324   3.009   0.092   2.092 -1.4064  0.9573 -0.4019
  109SOL     OW  325   1.950   0.555   0.001  0.5082  0.5893  0.1549
  109SOL    HW1  326   1.855   0.551   3.055  0.7442  1.1672  2.2114
  109SOL    HW2  327   1.993   0.635   3.041 -1.4024  1.2139  0.8504
  110SOL     OW  328   0.148   2.178   2.692 -0.1461 -0.0355  0.6018
  110SOL    HW1  329   0.165   2.276   2.663  0.0120  3.1484  2.1064
  110SOL    HW2  330   0.052   2.180   2.720  2.8790 -1.1503  1.2347
  111SOL     OW  331   2.233   3.077   1.968 -0.0711  0.7151 -0.5368
  111SOL    HW1  332   2.228   0.095   1.978  1.1957  3.3524 -1.1911
  111SOL    HW2  333   2.175   3.063   1.885  1.3887  0.3149  1.2161
  112SOL     OW  334   2.363   2.839   0.434  0.1229 -0.7498  0.1013
  112SOL    HW1  335   2.310   2.905   0.379  2.1404 -0.3559 -2.3116
  112SOL    HW2  336   2.309   2.809   0.517 -0.1034 -0.8648 -1.3535
  113SOL     OW  337   2.427   1.874   1.432 -0.1455  0.5510 -0.5059
  113SOL    HW1  338   2.422   1.948   1.499  1.4030  1.1338 -0.6083
  113SOL    HW2  339   2.514   1.872   1.376 -2.9511 -1.2449  2.8151
  114SOL     OW  340   2.652   0.906   0.747 -0.5372 -0.1617  0.1198
  114SOL    HW1  341   2.585   0.881   0.820  1.2200  1.2409  0.7937
  114SOL    HW2  342   2.748   0.888   0.780  1.2371 -1.6280 -0.7791
  115SOL     OW  343   3.083   1.852   0.174  0.7293  0.1615 -0.0288
  115SOL    HW1  344   0.015   1.789   0.251 -1.9529  1.3392  1.7519
  115SOL    HW2  345   2.994   1.832   0.132 -1.3992  1.6364 -1.3644
  116SOL     OW  346   3.013   1.615   1.948 -0.3590 -0.2206  0.0724
  116SOL    HW1  347   2.921   1.571   1.930 -0.7663  1.8467  0.3998
  116SOL    HW2  348   3.069   1.559   2.012  1.6904  1.5304  1.1175
  117SOL     OW  349   2.574   0.120   0.456 -0.4479  0.6837 -0.1501
  117SOL    HW1  350   2.522   0.123   0.546 -0.3920 -2.3003  1.5126
  117SOL    HW2  351   2.515   0.154   0.381 -0.0747  2.0390 -0.7759
  118SOL     OW  352   0.515   2.251   1.574 -0.2866  0.1505  0.3203
  118SOL    HW1  353   0.610   2.234   1.595  0.2965  1.3932 -2.1525
  118SOL    HW2  354   0.502   2.329   1.513 -0.2147 -1.1919 -0.7558
  119SOL     OW  355   1.840   2.256   1.096 -0.3985  0.1203 -0.2775
  119SOL    HW1  356   1.927   2.209   1.113 -2.0476  1.1302  0.1770
  119SOL    HW2  357   1.817   2.303   1.185  0.6943 -2.5011  2.0058
  120SOL     OW  358   0.247   1.625   2.271  0.1273  0.2132 -0.1016
  120SOL    HW1  359   0.287   1.609   2.362  2.7580  0.4335 -0.1217
  120SOL    HW2  360   0.257   1.722   2.247 -2.0311 -1.3999 -1.0871
  121SOL     OW  361   2.759   1.639   1.214 -0.6469  0.3208  0.4469
  121SOL    HW1  362   2.815   1.641   1.299  0.6354 -1.3086 -1.1143
  121SOL    HW2  363   2.831   1.653   1.141  0.7284  1.7303  3.4279
  122SOL     OW  364   2.063   1.417   2.195  0.7391 -0.2248  0.1226
  122SOL    HW1  365   2.080   1.412   2.295  0.0273  0.0858 -1.2575
  122SOL    HW2  366   1.964   1.444   2.178 -1.0121  0.2532  3.5707
  123SOL     OW  367   3.075   0.150   0.682  0.0887  0.3685  0.5126
  123SOL    HW1  368   3.008   0.114   0.747  2.2528  0.6075  1.5905
  123SOL    HW2  369   0.057   0.073   0.664 -1.1777  0.6615  0.9493
  124SOL     OW  370   1.296   1.218   2.653  0.5686 -0.3136 -0.2813
  124SOL    HW1  371   1.239   1.213   2.567  2.0846  1.4063  0.2862
  124SOL    HW2  372   1.303   1.128   2.700  2.8008  0.0902  1.0674
  125SOL     OW  373   0.305   1.341   2.675  0.1591  0.2203  0.0926
  125SOL    HW1  374   0.332   1.275   2.747 -0.8294  0.7775 -0.4293
  125SOL    HW2  375   0.206   1.335   2.663 -2.0918 -0.9933 -2.5006
  126SOL     OW  376   2.962   2.111   0.224  0.1624  0.2184 -0.2021
  126SOL    HW1  377   2.957   2.103   0.324  3.4118  0.2804 -0.7107
  126SOL    HW2  378   3.024   2.032   0.194  2.7393 -1.2092  1.7180
  127SOL     OW  379   0.627   1.676   0.776  0.4836  0.4902 -0.2033
  127SOL    HW1  380   0.661   1.770   0.806 -0.6600  3.0255  0.2514
  127SOL    HW2  381   0.553   1.682   0.705  2.4574 -0.8625 -0.9334
  128SOL     OW  382   1.383   0.848   0.199  0.5232  0.3725 -0.0668
  128SOL    HW1  383   1.456   0.791   0.156  0.1254  0.9221  0.9947
  128SOL    HW2  384   1.422   0.915   0.264  0.0715  2.0696 -2.0388
  129SOL     OW  385   2.366   1.747   1.061  0.3680  0.4123  0.0827
  129SOL    HW1  386   2.446   1.716   1.011  3.3158 -1.4190  0.5401
  129SOL    HW2  387   2.361   1.847   1.057 -0.3740 -4.0335  1.9353
  130SOL     OW  388   1.863   1.333   0.754 -0.1806 -0.3681  0.5034
  130SOL    HW1  389   1.830   1.407   0.693  0.2990 -1.2884  0.5808
  130SOL    HW2  390   1.846   1.353   0.849 -1.8699  0.5188 -3.8702
  131SOL     OW  391   0.092   0.882   2.463  0.4318 -0.2308 -0.1671
  131SOL    HW1  392   0.038   0.947   2.408  6.1488 -1.7170 -0.6999
  131SOL    HW2  393   0.136   0.937   2.543 -1.7147 -0.3897 -0.2609
  132SOL     OW  394   2.008   1.733   1.743  0.1049  0.2988 -0.1560
  132SOL    HW1  395   2.073   1.811   1.744 -1.0117 -0.4272 -1.2438
  132SOL    HW2  396   2.028   1.675   1.658  2.5430  0.6449 -0.9523
  133SOL     OW  397   3.024   1.199   0.051 -0.0144 -0.3346 -0.3710
  133SOL    HW1  398   2.935   1.246   0.051 -1.5145  0.9841  0.0535
  133SOL    HW2  399   3.019   1.108   0.004 -0.7678  0.7946 -1.1066
  134SOL     OW  400   0.135   1.363   3.027 -0.6994  0.0868 -0.1371
  134SOL    HW1  401   0.064   1.306   3.070  1.0411 -1.2609 -2.4471
  134SOL    HW2  402   0.109   1.417   2.949 -0.2912 -3.0928  1.7315
  135SOL     OW  403   2.237   1.444   0.514 -0.1133  0.0827  0.1303
  135SOL    HW1  404   2.216   1.498   0.429  3.3977  0.5674 -2.3454
  135SOL    HW2  405   2.314   1.491   0.558  0.3119 -3.0648  0.4235
  136SOL     OW  406   1.911   1.317   1.366  0.1450  0.0177  0.0036
  136SOL    HW1  407   1.980   1.350   1.299 -1.1281 -3.0482  0.0736
  136SOL    HW2  408   1.842   1.391   1.385  0.1391 -2.4319 -1.5257
  137SOL     OW  409   2.591   2.289   0.740  0.5803  0.2781 -0.1690
  137SOL    HW1  410   2.519   2.215   0.751 -1.5878 -0.1348  2.4992
  137SOL    HW2  411   2.630   2.294   0.647  0.2805 -0.9821 -0.3658
  138SOL     OW  412   1.382   0.252   1.513 -0.4132 -0.2641 -0.2854
  138SOL    HW1  413   1.409   0.149   1.527 -0.3940 -1.2315 -1.2006
  138SOL    HW2  414   1.287   0.261   1.542 -0.0255  0.7959  1.8240
  139SOL     OW  415   2.600   0.215   2.864 -0.5690  0.4198 -0.2488
  139SOL    HW1  416   2.573   0.309   2.840  0.0546 -2.2740  0.0365
  139SOL    HW2  417   2.650   0.220   2.957  0.5446  2.0015  0.4245
  140SOL     OW  418   1.726   2.039   2.706  0.5460 -0.3406 -0.6637
  140SOL    HW1  419   1.752   2.106   2.636  0.2276 -1.7188 -0.7356
  140SOL    HW2  420   1.796   2.033   2.782  0.7491 -0.7202  0.4241
  141SOL     OW  421   0.665   1.032   1.621  0.4044 -0.3636  0.0455
  141SOL    HW1  422   0.612   1.006   1.705  1.1141 -0.8022  1.5584
  141SOL    HW2  423   0.765   1.014   1.636 -0.9125 -2.5583 -0.0861
  142SOL     OW  424   2.580   2.906   0.099 -0.2701  0.0961 -0.4537
  142SOL    HW1  425   2.508   2.853   0.058 -1.0772  1.2009  2.3905
  142SOL    HW2  426   2.655   2.943   0.040 -0.4135  1.8299  0.4491
  143SOL     OW  427   0.727   2.212   2.750 -0.6567 -0.3800  0.5524
  143SOL    HW1  428   0.763   2.265   2.670  1.4127 -0.0221  1.8143
  143SOL    HW2  429   0.624   2.207   2.741 -3.1377 -0.0466 -0.2259
  144SOL     OW  430   1.159   2.721   0.091  0.1395 -0.8844  0.7816
  144SOL    HW1  431   1.219   2.692   0.013  0.2528  0.9967 -3.5891
  144SOL    HW2  432   1.104   2.641   0.114  1.2602  1.0998 -3.7897
  145SOL     OW  433   2.287   1.789   0.207 -0.5924 -0.3826  0.1724
  145SOL    HW1  434   2.372   1.849   0.210  1.4124  4.7304  0.6548
  145SOL    HW2  435   2.207   1.853   0.205  0.4673  1.4340 -1.3057
  146SOL     OW  436   2.828   2.741   3.026  0.4140  0.5899 -0.1207
  146SOL    HW1  437   2.839   2.840   3.023 -2.0704 -1.4517  0.3276
  146SOL    HW2  438   2.886   2.696   2.953  1.3324  1.8521 -4.3262
  147SOL     OW  439   2.644   1.932   1.294 -0.0564 -0.4313 -0.3242
  147SOL    HW1  440   2.610   2.009   1.240 -0.1985 -0.3911  0.7337
  147SOL    HW2  441   2.683   1.860   1.235 -1.6676 -1.7936  3.3456
  148SOL     OW  442   1.743   0.341   0.197  0.1650 -0.7581  0.1719
  148SOL    HW1  443   1.775   0.401   0.122 -3.0078  2.1710 -0.8157
  148SOL    HW2  444   1.700   0.262   0.157 -0.4572  1.8656  2.2848
  149SOL     OW  445   1.102   1.548   2.682 -0.6008  0.3704  0.0838
  149SOL    HW1  446   1.145   1.491   2.759  0.8292 -2.4417  0.6193
  149SOL    HW2  447   1.002   1.520   2.670 -1.0054 -1.3622  1.9475
  150SOL     OW  448   0.955   2.159   0.626 -0.2709 -0.1245  0.1341
  150SOL    HW1  449   0.982   2.133   0.725 -0.4110 -1.3659  1.6047
  150SOL    HW2  450   1.038   2.150   0.562 -0.7138  0.4098 -0.5716
  151SOL     OW  451   0.542   1.661   2.893 -0.9163 -0.1090  0.6137
  151SOL    HW1  452   0.568   1.596   2.969 -0.1863  0.2840  0.7165
  151SOL    HW2  453   0.603   1.645   2.811 -0.3968 -1.3875  2.4274
  152SOL     OW  454   2.625   1.239   0.483 -0.6537 -0.2139 -0.2116
  152SOL    HW1  455   2.631   1.322   0.421  0.6187  0.9756 -1.5488
  152SOL    HW2  456   2.683   1.167   0.446 -2.8156  3.7927  1.0122
  153SOL     OW  457   2.143   2.490   0.717 -0.1268 -0.2080  0.3327
  153SOL    HW1  458   2.170   2.392   0.720 -0.1958  2.0853 -0.8409
  153SOL    HW2  459   2.066   2.515   0.782  0.3930  1.6059  2.7191
  154SOL     OW  460   0.568   0.070   0.975  0.8278 -0.0342 -0.0198
  154SOL    HW1  461   0.638   0.144   0.978 -0.0808  1.0245  1.2851
  154SOL    HW2  462   0.624   3.070   0.962  1.6486 -0.1144 -1.2545
  155SOL     OW  463   0.275   2.041   0.711  0.3354  0.4504  0.9026
  155SOL    HW1  464   0.374   2.069   0.721  2.1518 -2.0432  0.2390
  155SOL    HW2  465   0.226   2.075   0.794 -0.5689  1.1369  0.6932
  156SOL     OW  466   2.697   2.543   0.058  0.1667  0.5665 -0.0088
  156SOL    HW1  467   2.779   2.492   0.090 -0.1977  1.1149  1.3292
  156SOL    HW2  468   2.725   2.624   0.003  2.9684  1.0525 -0.1541
  157SOL     OW  469   1.063   2.206   1.263  0.1202  0.0705 -0.0366
  157SOL    HW1  470   1.016   2.285   1.312  1.5332 -0.5373  2.9060
  157SOL    HW2  471   0.997   2.136   1.224  1.6973  0.0275 -1.1568
  158SOL     OW  472   1.692   0.568   3.048  0.7355 -0.2044  0.2445
  158SOL    HW1  473   1.626   0.497   3.015 -1.7761 -0.8681 -0.1237
  158SOL    HW2  474   1.711   0.639   2.977 -1.5705  0.3707 -0.2572
  159SOL     OW  475   1.106   0.572   0.093 -0.3036  0.2499  0.1996
  159SOL    HW1  476   1.041   0.530   0.157  0.9288 -1.9200 -1.7213
  159SOL    HW2  477   1.205   0.556   0.111  1.6598  0.4911  0.4048
  160SOL     OW  478   1.228   1.432   0.052 -0.0584  0.7160  0.5074
  160SOL    HW1  479   1.159   1.506   0.055  2.9080 -0.6901  2.4340
  160SOL    HW2  480   1.214   1.361   0.125 -2.7189 -0.7626  1.8699
  161SOL     OW  481   2.985   2.080   2.867  0.1922 -0.8084  0.5142
  161SOL    HW1  482   2.913   2.051   2.801 -0.2423 -1.8346 -0.8184
  161SOL    HW2  483   3.041   2.003   2.891 -0.0427  1.1837 -1.4061
  162SOL     OW  484   0.582   2.676   0.926 -0.0085  0.7333  0.6646
  162SOL    HW1  485   0.618   2.769   0.910  0.1826 -1.0837 -2.7517
  162SOL    HW2  486   0.510   2.677   1.001 -3.9210  1.5677 -0.7016
  163SOL     OW  487   2.773   1.280   0.018 -0.0716 -0.1002 -0.4591
  163SOL    HW1  488   2.712   1.362   0.031  1.4965 -2.0379  1.2667
  163SOL    HW2  489   2.721   1.197   0.036 -0.7008  1.4173  0.6990
  164SOL     OW  490   0.194   2.807   2.854 -0.4660  0.0654 -0.1905
  164SOL    HW1  491   0.169   2.779   2.949  0.1275  0.4120 -0.4142
  164SOL    HW2  492   0.292   2.850   2.856  1.4744  2.5090  0.1347
  165SOL     OW  493   2.133   0.291   1.337 -0.1376  0.2295  0.2738
  165SOL    HW1  494   2.149   0.388   1.310 -3.6839  1.8831 -1.4259
  165SOL    HW2  495   2.136   0.225   1.257  3.7235 -0.7756 -2.2730
  166SOL     OW  496   1.859   0.350   1.408 -0.1558 -0.1785 -0.0589
  166SOL    HW1  497   1.790   0.282   1.434  2.7260 -0.6423  0.6207
  166SOL    HW2  498   1.953   0.312   1.402 -0.5348 -2.4107  0.5036
  167SOL     OW  499   1.121   0.297   1.866  0.2371  0.3537 -0.0238
  167SOL    HW1  500   1.078   0.358   1.939  1.0774  2.5534 -0.5560
  167SOL    HW2  501   1.209   0.260   1.907 -1.1218 -0.1309 -1.3567
  168SOL     OW  502   2.529   0.296   1.925  0.2954  0.2744 -0.3294
  168SOL    HW1  503   2.570   0.370   1.873 -0.2184 -1.3599  2.2501
  168SOL    HW2  504   2.429   0.292   1.913 -0.5598 -0.9380  0.4058
  169SOL     OW  505   0.376   1.357   0.046 -0.0339  0.2616 -0.4992
  169SOL    HW1  506   0.288   1.380   3.076 -3.1363 -1.0765 -3.1334
  169SOL    HW2  507   0.372   1.264   0.097 -0.2482 -0.3709  1.8672
  170SOL     OW  508   0.111   1.393   1.695  0.2485  0.9198 -0.1545
  170SOL    HW1  509   0.056   1.356   1.774  1.3819  0.3199  0.4902
  170SOL    HW2  510   0.119   1.496   1.703  0.2306 -0.8363 -5.0468
  171SOL     OW  511   1.287   2.357   2.085  0.1540 -0.2737 -0.1809
  171SOL    HW1  512   1.252   2.425   2.026  0.3033 -1.8473  5.3192
  171SOL    HW2  513   1.222   2.281   2.095 -0.8070 -0.0176 -1.0372
  172SOL     OW  514   0.432   2.473   1.408 -0.1849  0.0921 -0.1387
  172SOL    HW1  515   0.417   2.573   1.426  1.6137 -1.0594 -2.7090
  172SOL    HW2  516   0.453   2.458   1.308 -0.3401 -0.1609 -1.1583
  173SOL     OW  517   1.371   2.370   0.929  0.4376  0.6795 -0.3695
  173SOL    HW1  518   1.413   2.453   0.967 -2.2542  3.5506  0.3455
  173SOL    HW2  519   1.272   2.377   0.922  0.4012  1.3979  0.3975
  174SOL     OW  520   1.246   0.098   0.161  0.5309 -0.1520  0.2392
  174SOL    HW1  521   1.275   0.160   0.237 -0.0900 -2.4496 -1.3899
  174SOL    HW2  522   1.204   0.008   0.198  1.3407 -1.9557  0.3010
  175SOL     OW  523   0.859   1.081   2.901  0.2369  0.9344 -0.6030
  175SOL    HW1  524   0.855   1.180   2.912 -1.6865 -1.0106  1.0053
  175SOL    HW2  525   0.955   1.051   2.898 -1.3176 -0.2694  0.2862
  176SOL     OW  526   1.705   0.698   0.451  0.5959  0.4397 -0.6458
  176SOL    HW1  527   1.771   0.775   0.462  0.9079 -0.3069  2.8570
  176SOL    HW2  528   1.617   0.729   0.494  3.1151  0.3222  0.1858
  177SOL     OW  529   1.336   0.801   0.973 -0.1942 -0.3333  0.0305
  177SOL    HW1  530   1.241   0.837   0.958 -0.4667  0.6396  1.5031
  177SOL    HW2  531   1.369   0.828   1.064 -1.5162 -0.8426 -1.9691
  178SOL     OW  532   2.741   1.638   2.988 -0.8004 -0.3270 -0.3278
  178SOL    HW1  533   2.684   1.566   3.030  1.1604 -0.2832 -1.1650
  178SOL    HW2  534   2.812   1.606   2.920  2.4467 -1.4539  1.6122
  179SOL     OW  535   0.691   2.611   2.947  0.1887  0.6117  0.2660
  179SOL    HW1  536   0.742   2.659   2.871  1.0346 -1.2541  0.9564
  179SOL    HW2  537   0.698   2.507   2.945 -0.7242 -0.8327  3.0442
  180SOL     OW  538   1.760   1.631   1.698  0.0621 -0.2096 -0.4338
  180SOL    HW1  539   1.850   1.662   1.734  0.1675 -0.3227 -0.1983
  180SOL    HW2  540   1.735   1.553   1.762  1.7737  0.8944  0.8291
  181SOL     OW  541   1.065   1.289   2.240  0.3116  0.1128  0.6388
  181SOL    HW1  542   0.994   1.245   2.180 -2.0125 -0.1229  1.0850
  181SOL    HW2  543   1.091   1.384   2.209 -0.6834  1.1660  1.3191
  182SOL     OW  544   0.276   0.740   2.353 -0.3036  0.0251 -0.3690
  182SOL    HW1  545   0.367   0.759   2.399  0.5067  1.6423  1.2111
  182SOL    HW2  546   0.198   0.797   2.390  2.8814 -0.2017  0.5344
  183SOL     OW  547   1.493   0.502   2.322 -0.1474  0.1488  0.0774
  183SOL    HW1  548   1.397   0.471   2.338 -0.5114  1.7749 -0.0404
  183SOL    HW2  549   1.562   0.471   2.393  0.6748  0.5542  1.1620
  184SOL     OW  550   0.026   0.499   1.442  0.1411 -0.2318 -0.3857
  184SOL    HW1  551   0.024   0.507   1.341  1.3189 -2.2594 -0.5416
  184SOL    HW2  552   3.055   0.421   1.474 -0.6895 -1.0564 -0.3283
  185SOL     OW  553   2.600   1.687   0.933  0.2290 -0.1007  0.4052
  185SOL    HW1  554   2.625   1.778   0.903  2.6257  1.8875  2.8822
  185SOL    HW2  555   2.675   1.624   0.919 -3.6006  1.9080 -2.2827
  186SOL     OW  556   0.500   1.805   2.556 -0.1786  0.2170 -0.4039
  186SOL    HW1  557   0.453   1.712   2.546 -1.7881 -0.3862  0.2649
  186SOL    HW2  558   0.428   1.875   2.577  0.1332  0.1496 -4.9327
  187SOL     OW  559   2.558   2.054   3.020 -0.5327  0.1619  0.4642
  187SOL    HW1  560   2.637   2.120   3.016 -0.6951 -1.6190 -3.2758
  187SOL    HW2  561   2.495   2.067   0.013  0.3697 -0.0101  1.4816
  188SOL     OW  562   0.881   2.238   0.157  0.0252  0.3243 -0.0819
  188SOL    HW1  563   0.937   2.152   0.168  1.8711 -1.0305 -0.8262
  188SOL    HW2  564   0.782   2.225   0.179  0.0312 -0.4124 -1.2745
  189SOL     OW  565   2.213   0.981   3.084 -0.2319  0.2016 -0.1121
  189SOL    HW1  566   2.299   1.018   3.040  1.2319 -1.6545  1.0965
  189SOL    HW2  567   2.206   0.989   0.098 -1.0712 -1.3174  0.9150
  190SOL     OW  568   0.871   1.799   1.947 -0.0753  0.5791  0.0645
  190SOL    HW1  569   0.784   1.848   1.958  0.1908 -0.8296 -1.3012
  190SOL    HW2  570   0.938   1.860   1.902 -1.4451 -0.7348 -0.1271
  191SOL     OW  571   2.172   0.631   1.496  0.0533 -0.2999  0.3914
  191SOL    HW1  572   2.190   0.566   1.572 -1.4165 -0.9389 -0.4154
  191SOL    HW2  573   2.072   0.641   1.481  0.2730  0.3353  1.6476
  192SOL     OW  574   1.944   0.033   1.620  0.1781 -0.7064 -0.3905
  192SOL    HW1  575   1.941   0.086   1.710 -1.0344 -0.0621  0.4688
  192SOL    HW2  576   1.857   0.041   1.567  2.0515 -1.7746 -0.8615
  193SOL     OW  577   0.086   0.792   0.865 -0.8558  0.5027 -0.4745
  193SOL    HW1  578   0.114   0.794   0.964  1.5004 -1.2028  2.0973
  193SOL    HW2  579   0.150   0.726   0.817 -0.8852  0.7636  0.0610
  194SOL     OW  580   1.613   2.511   1.524  0.0126  0.3190 -0.1264
  194SOL    HW1  581   1.526   2.467   1.487  0.5514 -0.9727 -5.3520
  194SOL    HW2  582   1.682   2.443   1.567  0.9740 -0.6939  0.7680
  195SOL     OW  583   2.518   0.516   0.851  0.7346 -0.3310  0.1166
  195SOL    HW1  584   2.457   0.540   0.774  1.2308 -0.1420  0.4469
  195SOL    HW2  585   2.616   0.512   0.821 -0.2791  1.7176  0.0867
  196SOL     OW  586   1.565   2.278   2.012 -0.2301  0.5772  0.0637
  196SOL    HW1  587   1.638   2.276   2.084  0.4222 -0.0991  0.3648
  196SOL    HW2  588   1.470   2.267   2.047 -4.5462 -1.0544 -0.0319
  197SOL     OW  589   0.057   3.056   2.764 -0.0668 -0.2759  0.0428
  197SOL    HW1  590   0.100   2.975   2.804  2.0809 -2.6103 -1.4617
  197SOL    HW2  591   0.019   0.032   2.832 -0.9491 -0.6389  0.9993
  198SOL     OW  592   1.125   1.162   0.760  0.5085 -0.4140  0.0160
  198SOL    HW1  593   1.204   1.114   0.804 -1.2551  0.8811 -1.0343
  198SOL    HW2  594   1.041   1.100   0.767 -2.0207  1.9064 -0.0867
  199SOL     OW  595   2.677   1.021   1.650 -0.1364  0.3878  0.3168
  199SOL    HW1  596   2.744   0.952   1.614  0.0144 -2.0544 -1.3265
  199SOL    HW2  597   2.580   0.991   1.626 -1.8557 -1.2531 -4.3281
  200SOL     OW  598   2.326   2.638   2.344 -0.4094  0.0030  0.3080
  200SOL    HW1  599   2.338   2.700   2.263  2.3865  0.3100  2.1000
  200SOL    HW2  600   2.233   2.595   2.336 -1.5844  1.2117  1.3584
  201SOL     OW  601   2.529   0.261   1.540  0.1429 -0.0116 -0.0592
  201SOL    HW1  602   2.587   0.189   1.583 -0.7236  0.2890  0.7862
  201SOL    HW2  603   2.510   0.248   1.436  0.3410  1.7047 -2.1349
  202SOL     OW  604   2.234   3.026   0.295 -0.2151  0.1012  0.1261
  202SOL    HW1  605   2.254   3.041   0.197  1.2308  1.0717  0.4889
  202SOL    HW2  606   2.168   0.010   0.332 -1.5723 -0.7725  1.0483
  203SOL     OW  607   1.336   1.992   2.231 -0.2891  0.2107  1.0524
  203SOL    HW1  608   1.274   2.024   2.159  1.7033  2.1887 -0.7726
  203SOL    HW2  609   1.367   2.077   2.274 -1.9772 -1.8850 -1.5526
  204SOL     OW  610   0.841   1.505   2.598 -0.3543 -0.1802 -0.2684
  204SOL    HW1  611   0.778   1.433   2.634 -2.0450  0.8347 -1.1351
  204SOL    HW2  612   0.855   1.496   2.499  0.4723  0.7547  0.5154
  205SOL     OW  613   1.145   1.689   1.294  0.5092  0.0633  0.2566
  205SOL    HW1  614   1.154   1.680   1.189 -0.5556 -0.1333 -3.8543
  205SOL    HW2  615   1.116   1.599   1.336 -2.4261 -0.5905  1.5198
  206SOL     OW  616   0.215   0.436   2.805  0.0523 -0.1389  0.0027
  206SOL    HW1  617   0.147   0.410   2.734 -0.2587  1.3931 -0.4966
  206SOL    HW2  618   0.263   0.353   2.841 -0.6738 -3.7218 -0.2871
  207SOL     OW  619   1.841   2.699   2.398 -0.1542 -0.6705 -0.3685
  207SOL    HW1  620   1.870   2.650   2.490 -1.9526 -1.0531  3.0077
  207SOL    HW2  621   1.914   2.755   2.354  0.5737  0.9528 -2.6236
  208SOL     OW  622   0.736   2.394   1.071  0.4084  0.3353 -0.3634
  208SOL    HW1  623   0.816   2.452   1.085 -0.4004  1.1218  1.1307
  208SOL    HW2  624   0.714   2.372   0.974  2.1900 -0.7906  0.5729
  209SOL     OW  625   1.154   1.115   2.414  0.3514 -0.0533  0.2055
  209SOL    HW1  626   1.136   1.197   2.358 -0.6139 -0.1193 -0.8008
  209SOL    HW2  627   1.067   1.070   2.458 -2.5496 -2.4326  2.6417
  210SOL     OW  628   1.940   0.947   1.265 -0.1427 -0.2465 -0.4249
  210SOL    HW1  629   2.036   0.916   1.273  1.9347 -0.5950  1.3263
  210SOL    HW2  630   1.869   0.881   1.286 -1.2412 -0.2161 -1.3257
  211SOL     OW  631   0.877   2.658   0.518  0.4886  0.1372  0.6458
  211SOL    HW1  632   0.905   2.700   0.432  0.5002  0.2101 -0.4864
  211SOL    HW2  633   0.952   2.658   0.589  1.4752  2.3756  3.1008
  212SOL     OW  634   1.834   1.853   0.331 -0.0018 -0.0185  0.1448
  212SOL    HW1  635   1.767   1.922   0.361  3.5074 -1.8469  1.4889
  212SOL    HW2  636   1.920   1.848   0.383 -0.5165  0.4486 -0.0711
  213SOL     OW  637   1.636   0.089   2.942 -0.1643 -0.2151  0.1081
  213SOL    HW1  638   1.639   0.095   3.046 -1.6339  1.0977 -2.4794
  213SOL    HW2  639   1.720   0.080   2.885 -3.7175  2.1253 -1.9024
  214SOL     OW  640   1.175   1.562   2.156 -0.2864  0.0068  0.3725
  214SOL    HW1  641   1.189   1.592   2.059  1.0024  0.7406  0.2625
  214SOL    HW2  642   1.108   1.615   2.206  2.4936 -2.7549 -3.0085
  215SOL     OW  643   0.823   1.913   0.118 -0.1936  0.5890  0.0455
  215SOL    HW1  644   0.786   1.904   0.027 -0.0841 -1.5406  2.1745
  215SOL    HW2  645   0.793   1.833   0.174  2.0847 -0.7850 -0.0487
  216SOL     OW  646   0.179   2.760   2.177 -0.0994 -0.4343  0.0983
  216SOL    HW1  647   0.257   2.711   2.213 -0.4795  2.9001 -1.3320
  216SOL    HW2  648   0.104   2.695   2.151  2.6538  1.0678 -2.1020
  217SOL     OW  649   2.428   0.895   0.941  0.4490 -0.0287 -0.2251
  217SOL    HW1  650   2.374   0.967   0.893  1.4653  2.1607  0.9754
  217SOL    HW2  651   2.369   0.811   0.941 -1.4326  2.8917 -1.9186
  218SOL     OW  652   1.722   1.574   2.082 -0.0092  0.4866 -0.5988
  218SOL    HW1  653   1.677   1.530   2.165 -1.1232 -0.3624 -1.4860
  218SOL    HW2  654   1.711   1.513   2.001 -0.7067 -0.4490 -1.1219
  219SOL     OW  655   1.895   1.586   0.333 -0.0675  0.5914  0.5063
  219SOL    HW1  656   1.851   1.532   0.256 -1.8665  1.0335  1.5699
  219SOL    HW2  657   1.849   1.678   0.336 -1.3187 -0.5096  0.4191
  220SOL     OW  658   1.586   1.525   0.833 -0.3044  0.0884  0.0605
  220SOL    HW1  659   1.498   1.565   0.804  4.7214  0.1851 -0.9273
  220SOL    HW2  660   1.656   1.599   0.837 -0.5024  3.3320 -1.4015
  221SOL     OW  661   0.869   0.563   2.933  0.2455  0.1439 -0.1952
  221SOL    HW1  662   0.939   0.630   2.947 -1.7713  1.6731  1.3847
  221SOL    HW2  663   0.835   0.528   3.021 -0.0707 -1.5020 -0.7358
  222SOL     OW  664   1.434   1.311   0.343  0.1674  0.1929  0.2866
  222SOL    HW1  665   1.454   1.401   0.392  1.7478  1.5522  1.6268
  222SOL    HW2  666   1.333   1.291   0.324 -0.3379 -1.3920  0.3562
  223SOL     OW  667   1.043   0.159   3.037 -0.2057  0.0312 -0.1286
  223SOL    HW1  668   1.085   0.194   0.035 -0.1629 -1.7905 -2.4248
  223SOL    HW2  669   0.964   0.097   3.054  1.3807 -0.4206 -0.8782
  224SOL     OW  670   2.228   0.064   1.523 -0.1522 -0.0685 -0.4599
  224SOL    HW1  671   2.146   0.085   1.468 -0.6388 -1.0860 -0.9425
  224SOL    HW2  672   2.241   0.125   1.604 -0.3281  1.3838 -0.1416
  225SOL     OW  673   0.428   0.022   1.185 -0.2026  0.3256 -0.3723
  225SOL    HW1  674   0.353   0.092   1.196 -0.5429 -1.2678  0.8475
  225SOL    HW2  675   0.497   0.041   1.109  1.5266  0.6967  2.0917
  226SOL     OW  676   1.203   1.386   2.861 -0.0643  0.0935  0.7377
  226SOL    HW1  677   1.259   1.326   2.799 -2.1676 -1.5365 -0.8610
  226SOL    HW2  678   1.225   1.386   2.959 -1.1558  0.7038 -1.3263
  227SOL     OW  679   1.154   1.720   1.032  0.5048 -0.7802  0.2294
  227SOL    HW1  680   1.240   1.667   1.013  3.1449 -0.1756  1.4105
  227SOL    HW2  681   1.153   1.814   0.984 -0.7763  0.8910  1.3453
  228SOL     OW  682   0.412   1.694   0.603  0.2455 -0.3043  0.6518
  228SOL    HW1  683   0.443   1.621   0.538 -1.8614 -2.1271 -0.1213
  228SOL    HW2  684   0.339   1.655   0.661  1.7458  0.4087 -2.1772
  229SOL     OW  685   1.384   0.443   0.092  0.3011  0.0506  0.2443
  229SOL    HW1  686   1.357   0.519   0.023  1.7778  1.0354  1.0067
  229SOL    HW2  687   1.453   0.377   0.051  0.3603 -2.5505 -0.2121
  230SOL     OW  688   1.674   0.424   2.519  0.1234 -0.3213 -0.2328
  230SOL    HW1  689   1.671   0.322   2.525  1.3139 -1.5069 -1.5042
  230SOL    HW2  690   1.772   0.457   2.521 -0.8704  1.2266  0.1677
  231SOL     OW  691   1.229   1.843   2.419  0.4711  0.2068  0.0948
  231SOL    HW1  692   1.129   1.879   2.416  0.4704  2.1616 -1.9664
  231SOL    HW2  693   1.288   1.890   2.351  1.2364  0.5661 -0.9224
  232SOL     OW  694   2.395   2.108   0.819  0.2945 -0.5075 -0.4647
  232SOL    HW1  695   2.360   2.068   0.907  1.8649 -1.6458  0.7105
  232SOL    HW2  696   2.322   2.152   0.766  1.8346 -0.2489  2.1140
  233SOL     OW  697   2.613   2.829   0.356  0.1543 -0.1388  0.8088
  233SOL    HW1  698   2.608   2.854   0.254 -1.0220  3.3646 -0.1298
  233SOL    HW2  699   2.521   2.844   0.399  0.1206 -0.1843  0.1844
  234SOL     OW  700   0.914   0.315   2.835  0.4307 -0.2965  0.0067
  234SOL    HW1  701   0.877   0.408   2.866 -1.0453 -0.8436  2.1693
  234SOL    HW2  702   0.957   0.266   2.912  0.2383 -0.3974 -1.3513
  235SOL     OW  703   2.787   0.174   2.553  0.9927 -0.2794  0.7094
  235SOL    HW1  704   2.788   0.233   2.470  3.4098  1.6775  0.3180
  235SOL    HW2  705   2.699   0.125   2.567  2.2242  0.5006 -2.4164
  236SOL     OW  706   2.050   2.455   1.694  0.3113  0.0704 -0.0295
  236SOL    HW1  707   2.067   2.511   1.776  0.3308  2.6196  0.9383
  236SOL    HW2  708   2.120   2.384   1.681  1.5557 -1.0369 -1.0610
  237SOL     OW  709   0.617   1.258   1.922  0.7091 -0.0128 -0.0334
  237SOL    HW1  710   0.569   1.172   1.888 -0.1420 -3.2872  2.4124
  237SOL    HW2  711   0.610   1.336   1.855  1.9672  2.2391 -1.8165
  238SOL     OW  712   1.486   3.000   2.742  0.2520 -0.3610  0.8537
  238SOL    HW1  713   1.522   3.038   2.830  1.8709 -0.7082 -1.7475
  238SOL    HW2  714   1.570   2.972   2.689  0.8198 -0.3532  0.9173
  239SOL     OW  715   0.139   2.258   1.685  0.2568 -0.3195  0.0709
  239SOL    HW1  716   0.092   2.348   1.709 -1.8199 -0.2264  0.2531
  239SOL    HW2  717   0.231   2.246   1.732  0.5618  1.7652  0.7642
  240SOL     OW  718   3.062   2.396   0.778 -0.5266  0.5348  0.2415
  240SOL    HW1  719   3.006   2.466   0.822 -0.0994 -1.2232  1.3795
  240SOL    HW2  720   3.082   2.415   0.680  2.2868 -1.6477  2.1516
  241SOL     OW  721   2.300   1.086   0.796  0.1362 -0.3268  0.0745
  241SOL    HW1  722   2.380   1.133   0.835 -2.1200 -0.0171 -0.6127
  241SOL    HW2  723   2.275   1.133   0.706  2.2542  1.8745 -3.1404
  242SOL     OW  724   2.049   2.094   2.616  0.3396 -0.8202  0.2078
  242SOL    HW1  725   2.036   2.006   2.574  0.0106  3.3240 -0.7345
  242SOL    HW2  726   2.053   2.082   2.716 -0.4573 -1.6307 -0.7657
  243SOL     OW  727   0.713   2.470   1.408 -0.6473 -0.2974  0.5132
  243SOL    HW1  728   0.767   2.563   1.415  1.6565  3.8783  0.4499
  243SOL    HW2  729   0.617   2.495   1.399 -0.2423  1.3860  1.1746
  244SOL     OW  730   2.253   2.983   2.925  0.3417 -0.5486  0.7413
  244SOL    HW1  731   2.298   2.910   2.982  0.3764  1.3871 -0.0903
  244SOL    HW2  732   2.288   2.999   2.830  0.1665  0.1768  0.8274
  245SOL     OW  733   1.234   2.914   1.236  0.3321 -0.0797 -0.1075
  245SOL    HW1  734   1.191   3.007   1.256 -0.9588  0.9743  3.8174
  245SOL    HW2  735   1.296   2.888   1.315 -2.4369 -1.9638  0.8713
  246SOL     OW  736   1.653   2.425   0.335  0.3349 -0.0353 -0.1495
  246SOL    HW1  737   1.649   2.466   0.238 -0.5630 -0.4257 -1.9313
  246SOL    HW2  738   1.709   2.484   0.398  0.1621  1.1735  1.7475
  247SOL     OW  739   1.274   0.341   2.408 -0.4733 -0.5122 -0.4742
  247SOL    HW1  740   1.213   0.406   2.463 -1.1850  0.7968  2.5032
  247SOL    HW2  741   1.312   0.271   2.476  0.0459  0.5221 -1.4653
  248SOL     OW  742   0.387   1.717   1.819 -0.2859 -0.0401 -0.3440
  248SOL    HW1  743   0.449   1.781   1.767  1.0620  0.4159 -0.9700
  248SOL    HW2  744   0.412   1.621   1.791 -1.6273 -0.2992  0.9141
  249SOL     OW  745   1.993   0.295   0.450  0.2112  0.2166 -0.4836
  249SOL    HW1  746   2.078   0.312   0.403 -0.4040  2.2523  1.2095
  249SOL    HW2  747   1.965   0.372   0.512 -1.7742 -1.2078  0.6636
  250SOL     OW  748   0.239   0.682   0.421 -0.1721 -0.2762  0.9197
  250SOL    HW1  749   0.319   0.748   0.442 -1.0126 -0.6996  1.1318
  250SOL    HW2  750   0.206   0.700   0.327 -0.2162  0.9324  1.7926
  251SOL     OW  751   1.547   0.360   2.942 -0.6226 -0.1884 -0.0277
  251SOL    HW1  752   1.467   0.397   2.891 -2.9716 -1.1261 -0.2015
  251SOL    HW2  753   1.557   0.261   2.922 -0.7588 -0.1305 -2.3603
  252SOL     OW  754   1.614   1.829   2.015 -0.7230 -0.2268 -0.0811
  252SOL    HW1  755   1.601   1.862   2.113  2.4241  1.8230  0.9023
  252SOL    HW2  756   1.667   1.737   2.024 -1.5767 -2.4932 -1.0354
  253SOL     OW  757   2.691   2.300   1.703 -0.1971 -0.6411 -0.6167
  253SOL    HW1  758   2.705   2.398   1.741  1.6179  1.6653  1.0465
  253SOL    HW2  759   2.764   2.230   1.730  1.3167 -2.5755 -0.7627
  254SOL     OW  760   2.777   1.454   0.927  0.0276 -0.0765 -0.4794
  254SOL    HW1  761   2.874   1.491   0.945  2.3270  2.3972 -0.6699
  254SOL    HW2  762   2.749   1.392   1.001 -0.0820  0.1110  0.3472
  255SOL     OW  763   1.085   0.437   1.128  0.6570  0.0589 -0.4329
  255SOL    HW1  764   1.028   0.392   1.199  0.2284  0.7822 -1.4827
  255SOL    HW2  765   1.166   0.490   1.162  1.8331  1.7732 -0.1535
  256SOL     OW  766   1.804   2.340   1.610  0.0653 -0.1649  0.1175
  256SOL    HW1  767   1.897   2.364   1.647  0.8082  1.3797  0.2109
  256SOL    HW2  768   1.783   2.243   1.628 -0.8687 -0.4584  1.3132
  257SOL     OW  769   0.569   2.696   2.652  0.4747  0.0511 -0.2089
  257SOL    HW1  770   0.666   2.679   2.668 -1.1917 -0.4436  2.0446
  257SOL    HW2  771   0.531   2.603   2.638 -4.0676  2.2386 -0.8428
  258SOL     OW  772   0.799   2.368   2.964  0.3209  0.0562  0.0298
  258SOL    HW1  773   0.754   2.299   2.900 -1.1727  1.4836 -0.5010
  258SOL    HW2  774   0.855   2.324   3.034 -2.3461 -1.2034 -0.8498
  259SOL     OW  775   1.330   3.045   2.502 -0.3006  0.2399 -0.5629
  259SOL    HW1  776   1.382   2.997   2.432 -0.9335 -0.2940  0.1669
  259SOL    HW2  777   1.378   3.041   2.592  1.3502 -1.6311  0.8630
  260SOL     OW  778   1.766   0.712   1.216  0.3563 -0.0371 -0.2276
  260SOL    HW1  779   1.784   0.764   1.129  0.8346 -0.2695 -0.5173
  260SOL    HW2  780   1.672   0.671   1.218 -3.0349 -0.5292  0.4616
  261SOL     OW  781   0.527   0.301   2.600 -0.0245 -0.2781 -0.0238
  261SOL    HW1  782   0.463   0.364   2.548  0.3249 -0.3376  0.6103
  261SOL    HW2  783   0.624   0.338   2.595  0.4582  0.0876  0.9741
  262SOL     OW  784   0.271   2.106   2.053  0.2491  0.5604 -0.2938
  262SOL    HW1  785   0.331   2.111   2.137  0.7996 -3.7691 -0.0767
  262SOL    HW2  786   0.298   2.179   1.981  0.3772 -1.1228 -1.9283
  263SOL     OW  787   2.660   1.229   2.217 -0.2588 -0.0274  0.5902
  263SOL    HW1  788   2.589   1.157   2.189  2.0085  2.3917 -0.3075
  263SOL    HW2  789   2.648   1.246   2.315  0.9810 -0.6936 -2.8374
  264SOL     OW  790   0.898   1.333   0.997  0.5217  0.3221 -0.6325
  264SOL    HW1  791   0.871   1.261   0.930 -0.0196  0.4992  2.3117
  264SOL    HW2  792   0.821   1.400   1.015 -1.2164  2.4211 -0.6716
  265SOL     OW  793   1.109   2.393   0.896  0.5446  0.3331 -0.1921
  265SOL    HW1  794   1.079   2.294   0.909 -1.4247 -3.0845 -0.3208
  265SOL    HW2  795   1.074   2.446   0.974 -1.2256 -1.1443 -1.1484
  266SOL     OW  796   1.605   1.061   1.033 -0.2234  0.3512  0.1215
  266SOL    HW1  797   1.646   1.104   1.118 -0.5381 -2.7027 -0.7366
  266SOL    HW2  798   1.579   1.137   0.966  0.5717  0.0267  0.4224
  267SOL     OW  799   2.434   1.228   3.062  0.0701 -0.0943 -0.2817
  267SOL    HW1  800   2.376   1.254   2.984  0.0796 -1.5513 -1.2120
  267SOL    HW2  801   2.455   1.131   3.052  3.4039 -0.8879 -1.0767
  268SOL     OW  802   1.319   0.269   0.334 -0.0309 -0.5825  0.4511
  268SOL    HW1  803   1.391   0.246   0.402  1.1702 -1.9131 -1.1988
  268SOL    HW2  804   1.364   0.312   0.256 -0.2618  0.3648  0.0287
  269SOL     OW  805   2.414   0.396   2.598 -0.4231 -0.0684 -0.3041
  269SOL    HW1  806   2.446   0.434   2.685 -1.6710 -0.7083 -1.5295
  269SOL    HW2  807   2.353   0.313   2.616 -2.1985 -1.1423  0.1889
  270SOL     OW  808   0.213   1.006   2.669  0.1106  0.2874 -0.5120
  270SOL    HW1  809   0.271   0.935   2.706 -2.7649  0.4902 -0.7507
  270SOL    HW2  810   0.216   1.091   2.728 -1.1484  0.0982 -0.4738
  271SOL     OW  811   2.732   1.020   0.124  0.1326  0.3332  0.1724
  271SOL    HW1  812   2.697   0.934   0.167  1.2039 -1.0147  0.6388
  271SOL    HW2  813   2.790   1.069   0.195  1.1937  2.4614  0.7714
  272SOL     OW  814   3.000   2.723   2.639  0.2982  0.2559 -0.4958
  272SOL    HW1  815   0.001   2.723   2.584 -1.8813  1.2766  0.3488
  272SOL    HW2  816   3.017   2.693   2.730 -0.1626 -1.3781 -0.4812
  273SOL     OW  817   2.848   3.020   3.050 -0.1558 -0.4344  0.4598
  273SOL    HW1  818   2.898   0.019   3.013  2.1475  3.7300 -1.5699
  273SOL    HW2  819   2.865   3.015   0.066 -0.4311  0.8957  2.2189
  274SOL     OW  820   0.630   2.429   0.825 -0.8269 -0.0951  0.0205
  274SOL    HW1  821   0.596   2.518   0.860  1.8892  0.6662 -2.2117
  274SOL    HW2  822   0.708   2.450   0.757  1.7875  0.9762  0.1531
  275SOL     OW  823   2.302   1.169   0.465 -0.2217 -0.5168  0.3145
  275SOL    HW1  824   2.241   1.251   0.462 -0.0539  0.8483  2.2759
  275SOL    HW2  825   2.399   1.187   0.489  0.4326 -0.3144 -0.4159
  276SOL     OW  826   2.830   1.238   1.694 -0.4165 -0.3462 -0.0524
  276SOL    HW1  827   2.767   1.157   1.685  1.8368 -0.0754 -1.2290
  276SOL    HW2  828   2.832   1.291   1.606 -0.6808 -0.4116  2.2401
  277SOL     OW  829   2.100   0.084   1.167  0.4346 -0.5026  0.5978
  277SOL    HW1  830   2.021   0.070   1.108  3.6799 -0.5298  0.3325
  277SOL    HW2  831   2.181   0.045   1.120  1.1734  0.5596  0.1144
  278SOL     OW  832   1.404   2.476   2.300 -0.1312  0.1680 -0.1133
  278SOL    HW1  833   1.499   2.500   2.283  2.0166 -0.8068 -0.6110
  278SOL    HW2  834   1.363   2.416   2.224  1.7129 -1.1529  0.1243
  279SOL     OW  835   1.700   2.033   1.109 -0.6152 -0.0570 -0.1249
  279SOL    HW1  836   1.709   1.997   1.207  1.3182 -0.3935 -1.6201
  279SOL    HW2  837   1.735   2.129   1.096  1.8268 -0.1612  0.0981
  280SOL     OW  838   0.408   1.411   0.912 -0.0468 -0.5236 -0.1036
  280SOL    HW1  839   0.319   1.442   0.868 -1.1469  1.6101 -0.4962
  280SOL    HW2  840   0.394   1.405   1.014 -1.4582  0.4115 -2.4145
  281SOL     OW  841   3.082   1.060   2.292 -0.2477  0.0260 -0.2596
  281SOL    HW1  842   3.006   1.059   2.226  2.4334  1.4580 -0.1732
  281SOL    HW2  843   3.074   1.139   2.352  0.7037 -1.2462  3.0648
  282SOL     OW  844   0.590   1.495   3.076 -0.4489  0.1955 -0.1138
  282SOL    HW1  845   0.503   1.451   0.017  1.1009  0.0058 -1.0672
  282SOL    HW2  846   0.656   1.503   0.066 -3.0927  1.1527 -0.3417
  283SOL     OW  847   2.476   2.422   0.180  0.0758 -0.2131 -0.2770
  283SOL    HW1  848   2.407   2.494   0.205  1.4785  0.0310  3.6534
  283SOL    HW2  849   2.564   2.457   0.151  2.6824 -2.0278 -1.1705
  284SOL     OW  850   0.816   0.106   0.751  0.7418  0.3927  0.2651
  284SOL    HW1  851   0.898   0.169   0.735  0.1436 -0.5289 -2.7055
  284SOL    HW2  852   0.742   0.122   0.683  1.0125  1.7666  1.3578
  285SOL     OW  853   2.294   1.170   2.832  0.3743 -0.1753 -0.6260
  285SOL    HW1  854   2.354   1.120   2.767 -1.5854  0.8181 -0.6618
  285SOL    HW2  855   2.204   1.123   2.846 -0.0452 -1.2697  1.2557
  286SOL     OW  856   1.901   2.636   1.142  0.8436  0.1848 -0.4667
  286SOL    HW1  857   1.938   2.577   1.215  0.6520  0.6816 -1.4340
  286SOL    HW2  858   1.862   2.728   1.171  1.2588  2.7956  1.8667
  287SOL     OW  859   0.985   0.303   0.691  0.1723  0.1150  0.2809
  287SOL    HW1  860   1.035   0.273   0.605  1.3795  0.6516 -1.0450
  287SOL    HW2  861   1.017   0.396   0.722 -2.7376  0.3488  0.8312
  288SOL     OW  862   1.162   2.437   2.661 -0.3622  0.7702 -0.2081
  288SOL    HW1  863   1.090   2.436   2.731  0.3975 -0.2185 -0.4983
  288SOL    HW2  864   1.147   2.517   2.594 -2.0200  1.5362 -1.3559
  289SOL     OW  865   2.938   1.675   1.025  0.5215 -0.7619  0.1496
  289SOL    HW1  866   2.957   1.766   0.981 -1.5472  1.2953  0.9667
  289SOL    HW2  867   3.023   1.617   1.014  2.6200 -3.2363  1.1751
  290SOL     OW  868   1.455   2.108   1.015  0.3291 -0.1685 -0.1791
  290SOL    HW1  869   1.545   2.065   1.016 -3.1602  1.6787  1.7850
  290SOL    HW2  870   1.456   2.207   0.998  2.0794  1.5314  1.5561
  291SOL     OW  871   1.499   2.871   0.266  0.5761 -0.3149 -0.4591
  291SOL    HW1  872   1.399   2.908   0.254 -1.1295  1.7087  0.4456
  291SOL    HW2  873   1.537   2.844   0.176 -3.1323 -1.3812 -1.1599
  292SOL     OW  874   0.494   0.272   1.941  0.4852 -0.1294  0.4851
  292SOL    HW1  875   0.492   0.316   2.031 -1.0651 -1.4519 -2.2171
  292SOL    HW2  876   0.582   0.272   1.896  0.7896  2.0270  0.1094
  293SOL     OW  877   2.343   2.025   1.056  0.0962 -0.2456 -0.0037
  293SOL    HW1  878   2.434   2.072   1.062 -5.3923  1.4104  2.6063
  293SOL    HW2  879   2.276   2.067   1.117 -2.2973 -2.3713  2.2037
  294SOL     OW  880   0.833   0.312   2.166 -0.0787 -0.0831  0.3419
  294SOL    HW1  881   0.924   0.297   2.205  0.0494  1.1497  0.1053
  294SOL    HW2  882   0.783   0.385   2.211 -2.0388 -1.6026 -2.3792
  295SOL     OW  883   1.658   1.658   1.240 -0.0646 -0.1586 -0.1442
  295SOL    HW1  884   1.696   1.609   1.317  0.4934  2.6658 -1.4843
  295SOL    HW2  885   1.682   1.754   1.235 -1.5473 -2.7191 -0.3643
  296SOL     OW  886   2.568   1.928   0.260  0.2623 -0.1990  0.0252
  296SOL    HW1  887   2.643   1.906   0.196  2.5642  0.6430  1.7419
  296SOL    HW2  888   2.576   2.026   0.295 -0.5876  0.3989  1.5211
  297SOL     OW  889   2.442   0.215   0.222  0.4972 -0.0372 -0.1061
  297SOL    HW1  890   2.415   0.147   0.151 -1.2513  1.7536  1.1318
  297SOL    HW2  891   2.484   0.299   0.189  0.4080  0.8074 -1.1329
  298SOL     OW  892   0.974   3.073   2.695 -0.2107 -0.1504 -0.2396
  298SOL    HW1  893   1.027   3.007   2.764  2.9257 -1.2423  3.0031
  298SOL    HW2  894   0.883   0.019   2.727  1.4702  1.0087 -1.7495
  299SOL     OW  895   0.814   2.118   2.080  0.4532 -0.2135  0.1101
  299SOL    HW1  896   0.757   2.041   2.051  0.6018  0.8580 -0.1319
  299SOL    HW2  897   0.831   2.114   2.179 -3.0822  0.5604 -1.0585
  300SOL     OW  898   2.948   2.983   2.315 -0.4188  0.0095 -0.0068
  300SOL    HW1  899   2.994   3.003   2.227  2.1875 -0.4585  0.2559
  300SOL    HW2  900   2.954   3.057   2.383  0.7476 -1.8286 -1.6666
  301SOL     OW  901   0.972   0.842   1.928 -0.6684  0.0203  0.7093
  301SOL    HW1  902   0.988   0.752   1.879 -1.7674 -2.2628 -0.7544
  301SOL    HW2  903   1.018   0.843   2.018 -1.9722 -0.1662 -0.2583
  302SOL     OW  904   0.038   2.035   0.488 -1.1665 -0.1663  0.1172
  302SOL    HW1  905   0.139   2.021   0.485 -0.8073 -0.9514  2.3255
  302SOL    HW2  906   3.072   1.949   0.500  0.4135 -1.4227 -1.7859
  303SOL     OW  907   2.478   2.465   1.609 -0.3474 -0.8148 -0.0281
  303SOL    HW1  908   2.528   2.398   1.665 -0.2900  0.8898 -0.4771
  303SOL    HW2  909   2.461   2.551   1.667 -0.3308  1.6668  1.5483
  304SOL     OW  910   2.851   0.854   1.519  0.2397  0.5944 -0.2158
  304SOL    HW1  911   2.897   0.833   1.606 -2.2081 -0.0592 -0.7606
  304SOL    HW2  912   2.916   0.871   1.447 -1.4031 -0.2348  2.0088
  305SOL     OW  913   0.673   1.529   1.020 -0.0898 -0.4941 -0.0030
  305SOL    HW1  914   0.658   1.563   0.929 -0.2653 -0.2386 -0.4542
  305SOL    HW2  915   0.596   1.563   1.080  1.4661 -1.5211  0.3590
  306SOL     OW  916   0.292   1.307   2.008  0.0630 -0.5410 -0.6363
  306SOL    HW1  917   0.229   1.247   1.964  2.3589  2.3551 -0.4818
  306SOL    HW2  918   0.392   1.283   1.984  2.5931 -2.8823 -0.7716
  307SOL     OW  919   0.809   0.625   1.665  0.2281  0.0222  0.3682
  307SOL    HW1  920   0.902   0.623   1.712 -0.4432  1.1340 -0.7700
  307SOL    HW2  921   0.831   0.610   1.561  3.4548 -0.6897 -4.5910
  308SOL     OW  922   3.036   1.204   1.076 -0.4963  0.1476  0.0169
  308SOL    HW1  923   3.018   1.225   1.177  4.2944  0.7992 -1.2473
  308SOL    HW2  924   2.972   1.128   1.055  0.4117  3.5982  0.2257
  309SOL     OW  925   2.627   1.325   1.117 -0.0439  0.3155  0.0035
  309SOL    HW1  926   2.610   1.418   1.158 -0.4288  0.6526  1.1310
  309SOL    HW2  927   2.613   1.254   1.185 -0.3039  0.5110 -0.4175
  310SOL     OW  928   2.955   1.970   2.559  0.4883  0.2416  0.4750
  310SOL    HW1  929   2.855   1.967   2.571  1.7497  0.0106 -0.9119
  310SOL    HW2  930   2.981   1.947   2.463  0.2168  0.0461  3.4731
  311SOL     OW  931   2.698   2.500   2.301 -0.5967 -0.2491 -0.1119
  311SOL    HW1  932   2.709   2.560   2.215  1.2287 -0.7113  0.6308
  311SOL    HW2  933   2.694   2.562   2.386  0.1173  0.8120  1.9520
  312SOL     OW  934   2.121   1.993   0.189  0.4207 -0.3861  0.0309
  312SOL    HW1  935   2.086   2.069   0.250  1.1235 -0.5089 -0.3558
  312SOL    HW2  936   2.052   1.961   0.124  0.4506  0.8356 -0.2957
  313SOL     OW  937   2.723   3.064   0.630 -0.0231  0.3720 -0.5535
  313SOL    HW1  938   2.669   0.048   0.580  0.5825 -4.6511  1.8887
  313SOL    HW2  939   2.793   3.032   0.557  1.0515  1.4440  0.4151
  314SOL     OW  940   1.856   1.063   2.978 -0.5063 -0.5142  0.1777
  314SOL    HW1  941   1.817   1.032   3.070 -1.0006  0.3226 -0.8565
  314SOL    HW2  942   1.897   1.159   2.993  0.2023  1.0816 -1.2724
  315SOL     OW  943   1.472   2.876   2.343  0.1066 -0.0512 -0.5243
  315SOL    HW1  944   1.559   2.857   2.292 -1.3638  1.1356  2.4038
  315SOL    HW2  945   1.443   2.800   2.399  0.4175  2.1687 -0.6671
  316SOL     OW  946   0.106   1.226   0.276 -0.0193  0.3578 -0.3142
  316SOL    HW1  947   0.048   1.233   0.195  1.5291 -1.2330  1.4203
  316SOL    HW2  948   0.060   1.188   0.359  0.4119 -0.3125 -0.3863
  317SOL     OW  949   0.589   2.839   3.054 -0.4601 -0.5367  0.2906
  317SOL    HW1  950   0.541   2.876   2.973  1.1040 -0.3599  0.7554
  317SOL    HW2  951   0.656   2.765   3.022  2.0770 -1.3412 -0.9986
  318SOL     OW  952   2.486   2.501   0.903  0.3642  0.4311  0.0514
  318SOL    HW1  953   2.506   2.418   0.845  0.0155 -0.9067  2.1949
  318SOL    HW2  954   2.403   2.479   0.955 -1.2586  0.2341 -0.2443
  319SOL     OW  955   1.327   2.028   2.631  0.2140 -0.9329 -0.0437
  319SOL    HW1  956   1.310   1.963   2.558 -1.6742  1.1527  1.5426
  319SOL    HW2  957   1.259   2.011   2.708 -1.4317  0.8281 -0.1217
  320SOL     OW  958   0.602   1.991   1.271  0.4659  0.1891 -0.0315
  320SOL    HW1  959   0.632   2.088   1.288 -0.7553 -1.6272  0.3660
  320SOL    HW2  960   0.498   1.985   1.268 -0.6007 -1.8309 -0.6441
  321SOL     OW  961   1.398   2.656   2.502 -0.4085  0.2054  0.0104
  321SOL    HW1  962   1.428   2.590   2.429  0.8270  0.3523  1.2056
  321SOL    HW2  963   1.297   2.658   2.499  0.7050  0.3485  0.3338
  322SOL     OW  964   2.603   1.428   2.036 -0.1579  0.0579  0.2541
  322SOL    HW1  965   2.635   1.353   2.099  0.6288  0.5593 -0.6886
  322SOL    HW2  966   2.538   1.493   2.088 -0.5866  2.4801  2.4408
  323SOL     OW  967   2.680   0.853   1.130  0.6535 -0.1778 -0.4574
  323SOL    HW1  968   2.620   0.797   1.071 -1.6060  3.0864 -0.5239
  323SOL    HW2  969   2.632   0.879   1.217  1.0245 -1.8190 -1.1066
  324SOL     OW  970   2.712   2.850   2.361  0.1236  0.1808 -0.2295
  324SOL    HW1  971   2.709   2.780   2.431 -2.3751  1.3515 -0.8849
  324SOL    HW2  972   2.795   2.904   2.358 -2.1443 -0.9093  0.3678
  325SOL     OW  973   1.041   0.590   2.498 -0.3874  0.5652  0.4074
  325SOL    HW1  974   1.021   0.497   2.539 -1.0583 -0.2841 -0.1286
  325SOL    HW2  975   1.007   0.599   2.401 -0.3418 -0.8229 -1.3305
  326SOL     OW  976   1.998   2.892   2.279 -0.6765  0.1566  0.3830
  326SOL    HW1  977   1.962   2.980   2.310 -0.6912  1.6842  2.5266
  326SOL    HW2  978   2.098   2.915   2.257  2.3795  2.9416 -0.5891
  327SOL     OW  979   2.207   0.306   2.923  0.9993  0.0512  0.1496
  327SOL    HW1  980   2.167   0.278   3.012 -1.7789 -2.0081  1.8707
  327SOL    HW2  981   2.231   0.406   2.924  0.1472 -5.5307  0.8954
  328SOL     OW  982   0.012   1.344   2.366  0.4649  0.1413  0.3473
  328SOL    HW1  983   0.075   1.409   2.322  2.0263 -4.7409  1.5726
  328SOL    HW2  984   3.006   1.388   2.381 -0.7950  1.0152  1.3434
  329SOL     OW  985   1.737   0.078   1.450  0.4955  0.2150 -0.1410
  329SOL    HW1  986   1.653   0.053   1.503  0.6634 -0.1968 -1.6734
  329SOL    HW2  987   1.708   0.117   1.357 -0.2742  2.7053 -0.6978
  330SOL     OW  988   0.393   1.146   0.775 -0.6377  0.1430 -0.1195
  330SOL    HW1  989   0.310   1.090   0.799  1.9041  1.5888  0.0053
  330SOL    HW2  990   0.403   1.235   0.826  2.6606  2.7042 -0.4830
  331SOL     OW  991   0.102   1.479   2.105 -0.0613  0.2678 -0.4648
  331SOL    HW1  992   0.173   1.413   2.063 -1.7862 -2.9650  0.1347
  331SOL    HW2  993   0.145   1.536   2.175 -2.5206 -0.4886 -2.1835
  332SOL     OW  994   0.100   2.588   1.462 -0.0416 -0.1698  0.1430
  332SOL    HW1  995   3.084   2.587   1.479  0.8671 -0.5817  2.4799
  332SOL    HW2  996   0.134   2.496   1.438 -0.7548  3.0161 -1.6233
  333SOL     OW  997   2.393   0.134   0.724 -0.2067  0.3163 -0.5382
  333SOL    HW1  998   2.297   0.112   0.752  0.3795 -0.1592  0.6205
  333SOL    HW2  999   2.448   0.138   0.809  0.6348  0.8459  1.0707
  334SOL     OW 1000   0.719   2.045   0.648 -0.5189 -0.2478 -0.0562
  334SOL    HW1 1001   0.752   1.983   0.720 -1.5472 -0.8382 -0.4862
  334SOL    HW2 1002   0.801   2.093   0.618  0.8614 -1.4708  2.1131
  335SOL     OW 1003   0.157   2.505   3.016 -0.1352  0.0309 -0.0616
  335SOL    HW1 1004   0.108   2.420   3.021 -0.3018  1.0257  0.9481
  335SOL    HW2 1005   0.258   2.483   3.008  1.3105  0.8828  1.4148
  336SOL     OW 1006   3.014   2.516   2.074 -0.1927 -0.0673  0.0247
  336SOL    HW1 1007   3.063   2.525   1.983 -0.6280  0.3108 -0.6020
  336SOL    HW2 1008   3.040   2.426   2.122 -0.0315 -0.8419  2.8044
  337SOL     OW 1009   2.112   2.459   2.322  0.2679  0.6859  0.1225
  337SOL    HW1 1010   2.060   2.430   2.238 -2.3045  0.1665 -1.8811
  337SOL    HW2 1011   2.050   2.474   2.404  0.0949 -1.4250  1.2696
  338SOL     OW 1012   0.589   3.072   0.401 -0.5143  0.2782  0.0869
  338SOL    HW1 1013   0.692   3.072   0.404  0.1313  0.7177  0.9643
  338SOL    HW2 1014   0.556   3.068   0.307  2.2360 -0.5963  3.0736
  339SOL     OW 1015   0.325   0.920   2.083 -0.1291  0.1464  0.5923
  339SOL    HW1 1016   0.260   0.879   2.152  0.5092 -1.0018  0.4820
  339SOL    HW2 1017   0.293   1.008   2.045  1.7988  1.2707  1.1165
  340SOL     OW 1018   1.821   3.010   0.166 -0.8201  0.1363  0.5173
  340SOL    HW1 1019   1.897   3.077   0.154  0.9348  0.3791 -0.7254
  340SOL    HW2 1020   1.744   3.045   0.220 -0.3202 -0.6287 -2.0467
  341SOL     OW 1021   2.015   0.952   0.815 -0.0360 -0.3972  0.6731
  341SOL    HW1 1022   2.031   1.055   0.815  0.9193  4.5519 -2.3516
  341SOL    HW2 1023   1.940   0.928   0.880 -0.3361  0.3724  0.3540
  342SOL     OW 1024   2.370   0.014   0.056 -0.4195 -0.3454 -0.8552
  342SOL    HW1 1025   2.350   3.084   3.045  1.0326  2.5196 -0.6068
  342SOL    HW2 1026   2.450   3.048   0.083 -5.7182  1.8618 -1.0119
  343SOL     OW 1027   1.313   2.223   1.614 -0.2778  0.1635 -1.0248
  343SOL    HW1 1028   1.395   2.240   1.677  0.4969 -0.1273  1.4343
  343SOL    HW2 1029   1.338   2.243   1.517 -0.2642  0.4649  0.0466
  344SOL     OW 1030   2.354   2.883   0.836  0.8342 -0.1856 -0.2436
  344SOL    HW1 1031   2.455   2.887   0.835 -1.7565  0.7331 -0.6330
  344SOL    HW2 1032   2.310   2.825   0.758 -1.0103 -3.7703 -1.1083
  345SOL     OW 1033   2.888   2.361   0.166 -0.0507 -0.4329  0.0555
  345SOL    HW1 1034   2.957   2.416   0.218  2.0751  0.6051  0.2759
  345SOL    HW2 1035   2.901   2.264   0.187 -0.9353  0.1504 -0.7335
  346SOL     OW 1036   2.618   1.951   0.844 -0.3804  0.0652 -0.0017
  346SOL    HW1 1037   2.529   1.995   0.860  1.1170  2.1034  0.0079
  346SOL    HW2 1038   2.690   2.013   0.886 -0.6127  3.0118 -0.5817
  347SOL     OW 1039   1.718   2.068   1.924 -0.1125 -0.1718 -0.2406
  347SOL    HW1 1040   1.655   2.148   1.932  0.1695 -0.0894 -2.6917
  347SOL    HW2 1041   1.670   1.982   1.943  0.1415 -2.2003  1.0588
  348SOL     OW 1042   0.347   1.576   2.524 -0.6760 -0.0455  0.0542
  348SOL    HW1 1043   0.409   1.524   2.463  2.5661 -0.4671 -1.9527
  348SOL    HW2 1044   0.339   1.535   2.614  2.8688  0.6234  0.5728
  349SOL     OW 1045   2.508   1.222   0.897  0.2938  0.4921  0.6952
  349SOL    HW1 1046   2.543   1.240   0.990  4.3576 -1.4057 -0.3189
  349SOL    HW2 1047   2.504   1.303   0.841 -3.7458  0.9102  0.7904
  350SOL     OW 1048   2.963   2.569   1.050  0.5233  0.1557  0.6435
  350SOL    HW1 1049   2.944   2.639   1.130  0.3254  1.7299  0.7293
  350SOL    HW2 1050   3.020   2.493   1.088  0.4529  0.5978  1.2394
  351SOL     OW 1051   0.573   3.059   1.854 -0.8727  0.1784 -0.3701
  351SOL    HW1 1052   0.484   3.039   1.805  1.0878  1.0931  2.4320
  351SOL    HW2 1053   0.555   0.021   1.949 -0.0667  0.1681  2.3464
  352SOL     OW 1054   0.886   1.750   1.076  0.0513  0.3242 -0.0190
  352SOL    HW1 1055   0.825   1.668   1.090 -1.3795 -3.5782 -0.8421
  352SOL    HW2 1056   0.984   1.717   1.070 -3.0897 -0.1634  1.2145
  353SOL     OW 1057   1.316   1.632   2.558  0.3310 -0.3335  0.6487
  353SOL    HW1 1058   1.298   1.705   2.489 -0.9831 -3.0984  0.4299
  353SOL    HW2 1059   1.229   1.604   2.603  2.9325 -0.0946 -1.7558
  354SOL     OW 1060   1.451   0.067   1.083  0.3318  0.3993 -0.3966
  354SOL    HW1 1061   1.463   3.058   1.117  0.9432  2.5099  1.0067
  354SOL    HW2 1062   1.360   0.104   1.112 -1.8030 -1.9819 -2.6002
  355SOL     OW 1063   2.575   1.420   0.707 -1.4769 -0.1253 -0.0162
  355SOL    HW1 1064   2.661   1.417   0.762  1.8885 -1.4949 -0.8291
  355SOL    HW2 1065   2.583   1.375   0.618  0.8807  0.6614 -0.6522
  356SOL     OW 1066   2.455   1.601   2.185 -0.1558  0.0244 -0.4020
  356SOL    HW1 1067   2.353   1.596   2.161  0.6159  1.8331  0.1867
  356SOL    HW2 1068   2.469   1.624   2.280 -0.7984 -1.5311 -1.5066
  357SOL     OW 1069   0.488   2.755   1.443  0.2059  0.1426  0.2648
  357SOL    HW1 1070   0.419   2.819   1.398 -0.9818 -1.9693 -1.0770
  357SOL    HW2 1071   0.569   2.809   1.468  0.1196  0.2783 -2.0898
  358SOL     OW 1072   2.410   0.927   1.664  0.1311  0.6554  0.3854
  358SOL    HW1 1073   2.318   0.973   1.656  1.9278  0.0156 -0.8238
  358SOL    HW2 1074   2.409   0.836   1.621 -0.9800  3.1106  3.7462
  359SOL     OW 1075   2.516   2.565   2.701 -0.0664 -0.0079 -0.4726
  359SOL    HW1 1076   2.509   2.469   2.662  3.3481 -0.5241 -0.5111
  359SOL    HW2 1077   2.501   2.561   2.805 -1.4730  0.3131  0.8862
  360SOL     OW 1078   0.738   0.540   0.942 -0.3648  0.1512 -0.1084
  360SOL    HW1 1079   0.833   0.584   0.939  3.4237 -0.8410 -0.7262
  360SOL    HW2 1080   0.667   0.595   0.891 -1.7582  0.7009 -1.7756
  361SOL     OW 1081   1.856   3.076   1.057 -0.2345  0.0058  0.6459
  361SOL    HW1 1082   1.844   3.001   1.120  0.0629 -0.2152 -0.2709
  361SOL    HW2 1083   1.889   3.043   0.966  1.2712  1.6347  1.7107
  362SOL     OW 1084   1.370   1.076   0.843  0.5628  0.0773  0.2482
  362SOL    HW1 1085   1.447   1.144   0.821  3.5993  3.1311 -0.1555
  362SOL    HW2 1086   1.398   0.999   0.906 -1.0046 -2.6262 -1.2626
  363SOL     OW 1087   2.361   1.440   2.761  0.1135  0.2224 -0.3825
  363SOL    HW1 1088   2.279   1.497   2.760  2.7193 -3.3843  2.5375
  363SOL    HW2 1089   2.332   1.344   2.778  1.6643  0.1497  0.9151
  364SOL     OW 1090   0.095   0.248   1.048  1.0574 -0.0146  0.0467
  364SOL    HW1 1091   0.147   0.245   1.134 -4.2648 -1.9747  0.1866
  364SOL    HW2 1092   0.156   0.282   0.971  2.0403  0.6353  0.7468
  365SOL     OW 1093   0.119   2.698   0.105  0.3040 -0.0250  0.2908
  365SOL    HW1 1094   0.137   2.624   0.030  0.8878 -0.6057 -2.1958
  365SOL    HW2 1095   0.039   2.672   0.162 -0.1844  0.3850 -0.2944
  366SOL     OW 1096   2.376   2.144   0.104  0.0097 -0.3445  0.1719
  366SOL    HW1 1097   2.294   2.122   0.158  2.3650  1.5074 -1.7294
  366SOL    HW2 1098   2.404   2.243   0.111 -1.7843  0.3140  0.7346
  367SOL     OW 1099   2.988   2.575   2.875 -0.7737 -0.2873 -0.3450
  367SOL    HW1 1100   2.929   2.500   2.839  1.2501  0.8356  0.2847
  367SOL    HW2 1101   3.071   2.547   2.925 -1.1434  1.0941  0.2415
  368SOL     OW 1102   0.184   1.804   0.828  0.2191 -0.2625  0.0869
  368SOL    HW1 1103   0.222   1.871   0.765  0.2138  1.0681 -1.9554
  368SOL    HW2 1104   0.087   1.830   0.853 -0.7277  0.2552 -1.9284
  369SOL     OW 1105   0.863   2.664   2.710 -0.5878 -0.5359 -0.5117
  369SOL    HW1 1106   0.924   2.600   2.760  0.2252 -1.3489 -0.4557
  369SOL    HW2 1107   0.919   2.722   2.650  1.2866 -1.7120 -2.7651
  370SOL     OW 1108   0.148   1.053   0.818 -0.5577  0.5106 -0.1529
  370SOL    HW1 1109   0.073   1.123   0.818  3.8604 -0.4204 -1.5710
  370SOL    HW2 1110   0.120   0.961   0.846 -1.2650 -2.0817 -2.0203
  371SOL     OW 1111   1.956   2.488   0.916  0.2305 -0.1688  0.3196
  371SOL    HW1 1112   1.946   2.562   0.986  0.6912  0.2363 -2.4818
  371SOL    HW2 1113   1.958   2.396   0.961 -0.2466  2.5659 -0.4132
  372SOL     OW 1114   0.384   0.854   2.810  0.0180  0.2321 -0.2238
  372SOL    HW1 1115   0.426   0.761   2.814 -1.6423  0.8434 -0.4714
  372SOL    HW2 1116   0.427   0.916   2.876 -0.0633  2.0006  1.8419
  373SOL     OW 1117   3.039   1.907   0.915 -0.4486 -0.0043 -0.1297
  373SOL    HW1 1118   3.030   1.974   0.839  1.7388 -0.7133  0.6703
  373SOL    HW2 1119   3.065   1.957   1.005  0.7847  1.1244  2.9421
  374SOL     OW 1120   0.213   2.506   0.420 -0.1912 -0.2580  0.2680
  374SOL    HW1 1121   0.244   2.415   0.451 -0.4723 -0.2384  0.9912
  374SOL    HW2 1122   0.272   2.573   0.464  0.4981  0.7166 -1.8391
  375SOL     OW 1123   0.498   0.397   0.240  0.7501 -0.1835  0.0260
  375SOL    HW1 1124   0.539   0.427   0.328 -0.5594 -1.4805 -0.5545
  375SOL    HW2 1125   0.430   0.328   0.263  2.5719  1.2489  0.5234
  376SOL     OW 1126   0.275   2.521   1.862  0.1421  0.0810  0.7029
  376SOL    HW1 1127   0.193   2.515   1.804 -0.0694 -1.9745 -1.4888
  376SOL    HW2 1128   0.348   2.575   1.810  1.6110 -0.7844 -0.3759
  377SOL     OW 1129   1.435   2.434   0.029 -0.5845 -0.7404  0.0984
  377SOL    HW1 1130   1.492   2.385   3.046  0.4388  1.5604 -2.3083
  377SOL    HW2 1131   1.494   2.507   0.069  0.2850  0.5558  1.9609
  378SOL     OW 1132   0.837   0.664   0.572 -0.4279  0.1062 -0.3848
  378SOL    HW1 1133   0.809   0.748   0.523  0.6958 -0.5864  0.7914
  378SOL    HW2 1134   0.939   0.653   0.559  1.8922 -0.1638  0.6962
  379SOL     OW 1135   0.662   1.719   0.285  0.3466 -0.4256 -0.7672
  379SOL    HW1 1136   0.575   1.758   0.291  4.1918 -2.0308  0.4738
  379SOL    HW2 1137   0.690   1.679   0.375 -0.5192  2.0738 -0.8442
  380SOL     OW 1138   0.335   2.046   1.512 -0.1553  0.3030 -0.7577
  380SOL    HW1 1139   0.328   2.017   1.414  0.8841 -0.7177  0.3940
  380SOL    HW2 1140   0.407   2.116   1.528 -1.6525 -1.7269 -2.2637
  381SOL     OW 1141   0.587   1.302   1.618  0.6839  0.0312  0.0790
  381SOL    HW1 1142   0.657   1.369   1.657 -1.0672  1.4840  0.5097
  381SOL    HW2 1143   0.619   1.205   1.623  3.9341 -1.6803  0.4377
  382SOL     OW 1144   2.254   1.884   0.676  0.1684  0.5314  0.0148
  382SOL    HW1 1145   2.313   1.798   0.657  1.5931 -0.5018 -1.1704
  382SOL    HW2 1146   2.197   1.872   0.761 -1.0063  1.2795 -1.9202
  383SOL     OW 1147   2.533   1.761   2.423 -0.4272 -0.0889 -0.6407
  383SOL    HW1 1148   2.466   1.833   2.408 -0.1906 -1.6248  1.0644
  383SOL    HW2 1149   2.626   1.793   2.399  2.6823  0.9042 -0.4738
  384SOL     OW 1150   0.218   1.918   2.358  0.1957 -0.7006  0.0622
  384SOL    HW1 1151   0.197   1.932   2.459 -1.3396  1.3842 -0.3256
  384SOL    HW2 1152   0.291   1.983   2.323  0.0874  1.8550  0.3285
  385SOL     OW 1153   2.777   2.164   0.906  0.1096  0.2873 -0.0444
  385SOL    HW1 1154   2.863   2.139   0.857  0.6091 -0.9099  1.5593
  385SOL    HW2 1155   2.716   2.219   0.848  1.7725 -1.7226  1.6436
  386SOL     OW 1156   1.748   0.841   0.978  0.3113  0.2283  0.0749
  386SOL    HW1 1157   1.714   0.779   0.902 -1.1968 -1.5905  0.3853
  386SOL    HW2 1158   1.678   0.913   0.991 -1.4143 -1.0058  1.5513
  387SOL     OW 1159   0.246   0.641   1.848 -0.4015  0.4425 -0.1568
  387SOL    HW1 1160   0.229   0.636   1.948  0.6696 -0.3187 -1.0105
  387SOL    HW2 1161   0.346   0.647   1.833  2.8615  1.1287 -0.6644
  388SOL     OW 1162   2.270   0.910   2.289 -0.0573 -0.4716  0.2369
  388SOL    HW1 1163   2.190   0.975   2.268  1.0667  0.0381  0.0228
  388SOL    HW2 1164   2.256   0.822   2.244  0.8177 -2.5231  0.7355
  389SOL     OW 1165   2.001   0.906   2.105  0.1189 -0.7342  0.2590
  389SOL    HW1 1166   2.016   0.998   2.152  3.3588  0.2445 -0.4018
  389SOL    HW2 1167   2.021   0.913   2.006  1.4849 -1.3885  0.9644
  390SOL     OW 1168   1.843   2.569   0.443 -0.0663  0.3685 -0.2126
  390SOL    HW1 1169   1.837   2.655   0.385  2.4875  0.2206 -0.8969
  390SOL    HW2 1170   1.933   2.524   0.421 -4.1810  0.9376 -0.9358
  391SOL     OW 1171   2.077   2.106   1.156  0.0819 -0.7123  0.0080
  391SOL    HW1 1172   2.044   2.080   1.063 -0.5249 -0.3150  0.7904
  391SOL    HW2 1173   2.042   2.039   1.225 -2.1623  0.9668  1.0063
  392SOL     OW 1174   2.889   2.771   1.228 -0.0145  0.3360 -0.8704
  392SOL    HW1 1175   2.838   2.770   1.315 -0.0418 -3.1848 -3.1575
  392SOL    HW2 1176   2.853   2.843   1.165 -0.1474  1.5919 -0.5565
  393SOL     OW 1177   1.911   1.881   0.072 -0.0406 -0.0986  0.0167
  393SOL    HW1 1178   1.854   1.856   0.156 -2.2639 -2.4590 -0.0384
  393SOL    HW2 1179   1.890   1.812   3.084 -2.5421 -0.2834  0.8751
  394SOL     OW 1180   0.044   0.296   2.621  0.4267  0.3703 -0.3149
  394SOL    HW1 1181   0.035   0.198   2.606 -1.9381  2.8530  1.0262
  394SOL    HW2 1182   0.021   0.352   2.536 -0.4114  1.1881 -1.0464
  395SOL     OW 1183   1.051   0.923   0.971  0.3418 -0.6226  0.0875
  395SOL    HW1 1184   0.975   0.953   1.028  2.1257 -1.2978  0.7201
  395SOL    HW2 1185   1.026   0.907   0.877  1.2058  0.5670 -2.2856
  396SOL     OW 1186   1.365   0.661   3.006  0.0728  0.3952  0.5331
  396SOL    HW1 1187   1.289   0.668   2.938  1.7444  1.2128  0.8827
  396SOL    HW2 1188   1.439   0.730   2.985 -1.0794 -0.3878 -1.5431
  397SOL     OW 1189   0.451   0.483   2.126 -0.4650 -0.0266 -0.3418
  397SOL    HW1 1190   0.389   0.453   2.198 -0.3524 -0.5072  2.1027
  397SOL    HW2 1191   0.410   0.552   2.065  0.4389 -1.2049  0.8026
  398SOL     OW 1192   0.878   0.190   0.282 -0.2540  0.2419 -0.3661
  398SOL    HW1 1193   0.875   0.092   0.311  2.3466 -1.4774  3.2159
  398SOL    HW2 1194   0.816   0.213   0.208 -1.0038 -0.8932 -0.2610
  399SOL     OW 1195   2.044   2.917   1.774 -0.5880  0.0049 -0.1183
  399SOL    HW1 1196   2.089   2.848   1.714 -2.5640  1.7561  3.5356
  399SOL    HW2 1197   2.021   2.997   1.714 -2.2042  0.9623  0.0582
  400SOL     OW 1198   0.555   1.651   2.131 -0.7807  0.1732  0.1834
  400SOL    HW1 1199   0.528   1.588   2.206 -0.4866 -2.0195  0.1989
  400SOL    HW2 1200   0.469   1.684   2.089 -3.1223 -2.1996  0.7966
  401SOL     OW 1201   0.761   0.440   2.542  0.2389 -0.1935  0.0088
  401SOL    HW1 1202   0.846   0.393   2.574 -0.5009 -0.5573  0.5334
  401SOL    HW2 1203   0.741   0.527   2.593  0.4749  0.7681  0.6189
  402SOL     OW 1204   2.895   2.165   1.803 -0.1668 -0.1778 -0.2836
  402SOL    HW1 1205   2.968   2.164   1.875 -0.3255 -1.7229  1.0966
  402SOL    HW2 1206   2.929   2.134   1.708 -0.0357 -1.7269 -1.7289
  403SOL     OW 1207   0.496   0.999   1.847  0.0046 -0.3958 -0.0131
  403SOL    HW1 1208   0.565   0.944   1.898  0.7019 -0.5242  2.2022
  403SOL    HW2 1209   0.410   0.977   1.888  0.5127  2.8890 -1.5044
  404SOL     OW 1210   0.220   2.805   1.600 -0.4784 -0.0039 -0.0977
  404SOL    HW1 1211   0.195   2.722   1.542 -0.5592  1.1019  1.3748
  404SOL    HW2 1212   0.135   2.867   1.614 -2.1762  1.8888  0.4964
  405SOL     OW 1213   0.116   0.408   1.816  0.6212  0.7171 -0.6844
  405SOL    HW1 1214   0.156   0.498   1.842  0.4699 -0.4815  1.1620
  405SOL    HW2 1215   0.193   0.344   1.794  0.8741 -1.0038  0.2377
  406SOL     OW 1216   2.013   2.243   3.085  0.2776  0.1252 -0.5632
  406SOL    HW1 1217   1.998   2.222   0.099 -1.7846  0.1954  0.6294
  406SOL    HW2 1218   1.934   2.292   3.048 -1.3032  0.0758  1.4967
  407SOL     OW 1219   1.441   1.456   2.207  0.4002  0.0620 -0.2005
  407SOL    HW1 1220   1.360   1.480   2.149 -0.5221 -1.4117 -2.2578
  407SOL    HW2 1221   1.429   1.492   2.302  0.5424  3.0686 -1.4363
  408SOL     OW 1222   0.436   0.115   2.784  0.0484  0.3735 -0.2014
  408SOL    HW1 1223   0.468   0.181   2.713 -0.6759  0.0831 -1.1320
  408SOL    HW2 1224   0.405   0.172   2.862 -0.8980 -0.3691 -2.1990
  409SOL     OW 1225   0.281   1.885   0.449 -0.1249 -0.5178 -0.3607
  409SOL    HW1 1226   0.320   1.821   0.516  1.1374  1.0507 -0.2374
  409SOL    HW2 1227   0.340   1.963   0.426 -1.6049  2.1265 -1.5693
  410SOL     OW 1228   2.551   1.717   0.449 -0.1403  0.4118  0.1169
  410SOL    HW1 1229   2.564   1.785   0.377 -0.8710 -0.2791 -0.9279
  410SOL    HW2 1230   2.573   1.627   0.410 -0.3271 -1.5788  0.6815
  411SOL     OW 1231   2.938   0.339   1.096 -1.1122  0.4335  0.0125
  411SOL    HW1 1232   2.861   0.328   1.030 -0.4443  1.8802  1.0728
  411SOL    HW2 1233   3.022   0.289   1.064  0.9540 -1.5570 -0.7841
  412SOL     OW 1234   1.403   0.957   1.197  0.7565  0.1288 -0.0446
  412SOL    HW1 1235   1.467   0.996   1.128  0.3395  0.4774 -0.2802
  412SOL    HW2 1236   1.379   1.035   1.261 -0.9201  0.2509 -0.6650
  413SOL     OW 1237   0.313   2.877   1.281 -0.5714 -0.0038  0.8387
  413SOL    HW1 1238   0.343   2.972   1.248  2.5354  2.3896  2.0581
  413SOL    HW2 1239   0.214   2.873   1.304  0.3913 -1.3023 -1.4750
  414SOL     OW 1240   3.017   1.750   2.720  0.1548 -0.1444 -0.3904
  414SOL    HW1 1241   3.080   1.794   2.784 -1.1068  0.3439 -0.8579
  414SOL    HW2 1242   3.000   1.815   2.641 -2.3366 -0.7116  2.3678
  415SOL     OW 1243   0.412   2.217   2.786  0.2825  0.0259  0.6685
  415SOL    HW1 1244   0.428   2.181   2.882  0.1973 -1.1974 -1.3596
  415SOL    HW2 1245   0.321   2.188   2.748 -3.8765  1.9918 -3.0912
  416SOL     OW 1246   1.527   0.234   0.497 -0.0782  0.4344 -0.0200
  416SOL    HW1 1247   1.593   0.310   0.480  1.2388 -1.3489 -1.0451
  416SOL    HW2 1248   1.518   0.220   0.603 -1.4937 -0.1149  0.8548
  417SOL     OW 1249   0.309   1.063   0.531  0.1276  0.0719 -0.6987
  417SOL    HW1 1250   0.315   1.091   0.629 -0.0212 -0.3183 -0.3843
  417SOL    HW2 1251   0.215   1.029   0.510  0.1944  0.1766 -2.3442
  418SOL     OW 1252   2.413   1.080   1.927  0.6056  0.4293 -0.6186
  418SOL    HW1 1253   2.402   1.009   1.852  1.8792  1.1839 -0.9327
  418SOL    HW2 1254   2.325   1.120   1.951 -1.9341  0.5981  2.2675
  419SOL     OW 1255   0.146   0.423   0.442 -0.0445  0.3142 -0.0306
  419SOL    HW1 1256   0.205   0.356   0.401  0.5329  2.0592 -0.6086
  419SOL    HW2 1257   0.185   0.514   0.456 -2.8258 -2.5540 -1.8343
  420SOL     OW 1258   0.431   1.478   0.443 -0.4915 -0.0853  0.1724
  420SOL    HW1 1259   0.348   1.482   0.383 -1.5882  2.1365  0.6972
  420SOL    HW2 1260   0.468   1.382   0.442 -0.2793 -3.2158 -1.2865
  421SOL     OW 1261   0.812   2.401   0.626  0.4592 -0.5433  0.3443
  421SOL    HW1 1262   0.866   2.315   0.627  0.5035 -0.3719  1.2783
  421SOL    HW2 1263   0.850   2.460   0.553  0.3509  0.2916 -1.8776
  422SOL     OW 1264   3.043   0.960   1.318 -0.6327  0.1343  0.3867
  422SOL    HW1 1265   3.007   1.056   1.326  0.1033  1.7784 -1.4996
  422SOL    HW2 1266   0.056   0.953   1.358  1.9759 -0.3639  0.0249
  423SOL     OW 1267   1.339   1.614   1.654 -0.5035  0.2831 -0.0382
  423SOL    HW1 1268   1.410   1.547   1.672 -1.3329 -1.7077  0.0975
  423SOL    HW2 1269   1.334   1.644   1.555  0.1447  0.1601  0.9089
  424SOL     OW 1270   2.003   0.999   2.747  0.1189 -0.0902 -0.1194
  424SOL    HW1 1271   1.961   1.036   2.832 -2.0781  1.7430 -0.4007
  424SOL    HW2 1272   1.930   0.996   2.676  0.3933  1.6353  1.8784
  425SOL     OW 1273   2.958   0.356   1.900 -0.3760 -0.0072  0.1806
  425SOL    HW1 1274   3.045   0.381   1.858 -1.0450  1.1192  1.6756
  425SOL    HW2 1275   2.905   0.437   1.934 -2.1513 -0.1000 -0.2840
  426SOL     OW 1276   2.737   2.632   2.558 -0.0288  0.2804 -0.4547
  426SOL    HW1 1277   2.830   2.653   2.598 -0.2070  1.3818 -0.2877
  426SOL    HW2 1278   2.674   2.607   2.633  0.1888 -1.9183 -0.7418
  427SOL     OW 1279   0.960   0.652   2.250 -0.0526  0.3273  0.2670
  427SOL    HW1 1280   0.856   0.657   2.250 -1.0256 -1.5145  0.1717
  427SOL    HW2 1281   1.006   0.743   2.242 -2.0256 -0.5254  0.7865
  428SOL     OW 1282   2.006   0.819   1.843  0.2076  0.3169  0.3782
  428SOL    HW1 1283   2.006   0.727   1.884  0.7026  0.3925  0.8018
  428SOL    HW2 1284   1.956   0.825   1.756 -1.9804  1.0786  0.1250
  429SOL     OW 1285   2.861   2.929   0.449 -0.0880  0.2198  0.1355
  429SOL    HW1 1286   2.902   2.952   0.357  1.6495 -0.6873 -1.0988
  429SOL    HW2 1287   2.765   2.893   0.437 -0.0353  0.6219 -1.4730
  430SOL     OW 1288   1.767   1.622   2.471 -0.5378  0.3878  0.4501
  430SOL    HW1 1289   1.718   1.539   2.443  0.9375  0.8658  2.0271
  430SOL    HW2 1290   1.701   1.697   2.479 -0.4742  0.9042  1.0122
  431SOL     OW 1291   0.050   1.787   1.280  0.2364 -0.2934  0.2347
  431SOL    HW1 1292   0.113   1.743   1.211  3.7702 -1.4550  1.5043
  431SOL    HW2 1293   0.093   1.815   1.369 -1.5697  1.5176 -0.4578
  432SOL     OW 1294   1.705   2.902   2.607 -0.3417 -0.0001  0.3437
  432SOL    HW1 1295   1.791   2.932   2.653 -1.1750 -0.5385 -1.9609
  432SOL    HW2 1296   1.729   2.834   2.535  0.8599 -0.5648 -0.5512
  433SOL     OW 1297   1.688   2.991   2.191  0.6819  0.4361 -0.2767
  433SOL    HW1 1298   1.621   3.059   2.235 -1.4401  2.2894 -1.0182
  433SOL    HW2 1299   1.781   3.007   2.228  0.8131 -0.7802 -2.9800
  434SOL     OW 1300   0.521   2.455   2.082 -0.2851  0.1776  0.6140
  434SOL    HW1 1301   0.422   2.430   2.110  0.0150  0.4615  0.9368
  434SOL    HW2 1302   0.523   2.520   2.004  0.5171 -0.8719  0.8406
  435SOL     OW 1303   0.274   2.178   0.235 -0.0955  0.0257 -0.1092
  435SOL    HW1 1304   0.335   2.235   0.177 -1.8540 -2.5082 -1.4670
  435SOL    HW2 1305   0.290   2.194   0.338 -1.1537  1.8282  0.8030
  436SOL     OW 1306   0.566   0.666   1.768  0.0777  0.4091  0.0273
  436SOL    HW1 1307   0.662   0.651   1.735  1.2519 -0.6400 -0.6075
  436SOL    HW2 1308   0.513   0.681   1.682 -0.1693  0.3988  0.8537
  437SOL     OW 1309   0.397   2.676   2.335  0.3350 -0.2710  0.0239
  437SOL    HW1 1310   0.437   2.708   2.425  1.2350  0.6557  1.4746
  437SOL    HW2 1311   0.415   2.573   2.324  0.4059  0.7020  0.7824
  438SOL     OW 1312   0.491   1.664   1.181 -0.5107  0.3521  0.3676
  438SOL    HW1 1313   0.501   1.764   1.168  1.9440  0.3436  0.6204
  438SOL    HW2 1314   0.535   1.641   1.270  2.0407  2.9952 -2.1759
  439SOL     OW 1315   2.137   0.773   2.741 -0.2896 -0.1138  0.2318
  439SOL    HW1 1316   2.208   0.763   2.666  0.6804 -0.1669 -1.3310
  439SOL    HW2 1317   2.105   0.868   2.736  0.3619 -1.7376 -1.8257
  440SOL     OW 1318   0.559   0.756   0.007 -0.1980  0.7650  0.4089
  440SOL    HW1 1319   0.622   0.717   0.080  0.3632 -0.9879 -1.0828
  440SOL    HW2 1320   0.622   0.780   3.016  1.1345 -0.5365  1.9507
  441SOL     OW 1321   0.714   2.231   1.278  0.3843  0.5390  0.0516
  441SOL    HW1 1322   0.713   2.289   1.357  1.0345 -0.8049 -1.1492
  441SOL    HW2 1323   0.703   2.291   1.194  1.2167  0.4819 -1.4916
  442SOL     OW 1324   2.896   1.596   0.711  0.1291 -0.9210  0.0339
  442SOL    HW1 1325   2.837   1.686   0.708  0.8286  1.1694  1.3752
  442SOL    HW2 1326   2.856   1.524   0.770  1.8510 -0.1770 -1.3263
  443SOL     OW 1327   2.722   1.991   2.680 -0.6201 -0.3737  0.0913
  443SOL    HW1 1328   2.681   2.030   2.597 -0.0595 -3.1396  1.2331
  443SOL    HW2 1329   2.661   1.920   2.718  1.0676 -0.9090 -1.8971
  444SOL     OW 1330   1.559   1.136   2.955  0.0865  0.2142  0.0860
  444SOL    HW1 1331   1.553   1.162   3.053 -1.6025 -0.0257 -0.8153
  444SOL    HW2 1332   1.586   1.213   2.894 -0.6520  1.0867 -0.9210
  445SOL     OW 1333   2.739   2.826   1.869 -0.2573 -0.2189 -0.5230
  445SOL    HW1 1334   2.700   2.838   1.773 -1.4212 -1.9972 -1.2490
  445SOL    HW2 1335   2.689   2.878   1.940 -0.7129 -2.2952  0.0256
  446SOL     OW 1336   0.341   1.141   1.134 -0.5558  0.3664 -0.2100
  446SOL    HW1 1337   0.330   1.241   1.132  0.7912 -0.6083  0.6655
  446SOL    HW2 1338   0.261   1.089   1.090 -0.4249 -2.2681 -0.6046
  447SOL     OW 1339   0.896   2.020   1.165 -0.0991  0.1001  0.1594
  447SOL    HW1 1340   0.804   2.066   1.188 -2.8134  0.2106 -1.9958
  447SOL    HW2 1341   0.887   1.919   1.146 -0.2248 -1.8072 -1.4401
  448SOL     OW 1342   0.974   1.247   1.699 -0.3450  0.2326  0.0832
  448SOL    HW1 1343   0.922   1.291   1.626  1.6994 -2.2068 -0.7349
  448SOL    HW2 1344   0.941   1.145   1.695  0.1323 -4.3377  0.2502
  449SOL     OW 1345   2.675   2.036   2.210  0.2035 -0.5618 -0.2718
  449SOL    HW1 1346   2.725   2.115   2.169 -0.5178 -0.9127 -0.3163
  449SOL    HW2 1347   2.656   1.953   2.149 -1.0819 -2.3504  0.9023
  450SOL     OW 1348   0.120   1.675   1.753  0.8374 -0.5455  0.0272
  450SOL    HW1 1349   0.046   1.660   1.821  3.8431  2.4674 -0.3278
  450SOL    HW2 1350   0.205   1.692   1.804 -1.9223 -2.7891  1.5724
  451SOL     OW 1351   2.165   0.646   1.141  0.2965  0.1549 -0.6298
  451SOL    HW1 1352   2.182   0.731   1.200  0.9986 -0.7907  2.4270
  451SOL    HW2 1353   2.077   0.597   1.154 -0.2078 -0.2675 -1.8607
  452SOL     OW 1354   0.595   1.352   0.726 -0.4086  0.0550 -0.6924
  452SOL    HW1 1355   0.552   1.293   0.658  0.7437  2.5487  1.4704
  452SOL    HW2 1356   0.535   1.401   0.789  2.4985  1.1381 -2.5374
  453SOL     OW 1357   1.338   2.051   0.663 -0.1700 -0.7339  0.1542
  453SOL    HW1 1358   1.284   2.097   0.588  0.5473  0.0810 -0.4955
  453SOL    HW2 1359   1.394   2.125   0.707  1.8755  1.2771  0.6414
  454SOL     OW 1360   0.568   1.892   3.058 -0.0115 -0.2087 -0.4361
  454SOL    HW1 1361   0.556   1.811   2.998 -0.7437 -0.5343  0.0166
  454SOL    HW2 1362   0.508   1.878   0.057 -1.4390  1.3942  2.8533
  455SOL     OW 1363   1.293   0.971   0.576 -0.6823  0.2565 -0.5735
  455SOL    HW1 1364   1.202   0.942   0.541  0.3948  0.3040  0.3612
  455SOL    HW2 1365   1.283   1.050   0.638 -3.0914 -0.8490  2.0547
  456SOL     OW 1366   2.256   2.280   1.242  0.2735  0.1189 -0.1257
  456SOL    HW1 1367   2.186   2.211   1.221  3.2207  0.7995  0.4251
  456SOL    HW2 1368   2.250   2.308   1.338 -2.0369  0.6068 -0.1571
  457SOL     OW 1369   1.754   2.874   3.023 -0.1330  0.6289 -0.0200
  457SOL    HW1 1370   1.760   2.918   0.033  0.3111  0.7724  1.0047
  457SOL    HW2 1371   1.850   2.847   2.994  1.5572 -0.3259 -0.3170
  458SOL     OW 1372   2.307   0.611   0.173  0.6167 -0.3396  0.5422
  458SOL    HW1 1373   2.227   0.545   0.179  0.3998  1.5946  2.0190
  458SOL    HW2 1374   2.320   0.648   0.269 -0.2537 -3.8493 -0.8129
  459SOL     OW 1375   2.988   0.429   2.439 -0.3639 -0.4186  0.4598
  459SOL    HW1 1376   2.935   0.510   2.468  0.6767 -0.0349  0.6885
  459SOL    HW2 1377   2.931   0.356   2.397 -0.4620 -3.4686  1.7568
  460SOL     OW 1378   2.967   0.920   0.016  0.0174 -0.0083  0.0752
  460SOL    HW1 1379   3.001   0.904   3.005  0.4026  0.1583 -3.4404
  460SOL    HW2 1380   2.868   0.942   0.023  1.2206 -0.4361 -0.1537
  461SOL     OW 1381   2.920   2.642   0.807  0.1074  0.5200 -0.4515
  461SOL    HW1 1382   2.931   2.611   0.905 -0.8430 -0.7698  1.3769
  461SOL    HW2 1383   2.819   2.639   0.792  0.6455  0.7699 -0.5801
  462SOL     OW 1384   0.021   2.998   1.616 -0.1849  0.4885  0.0569
  462SOL    HW1 1385   3.051   3.071   1.662  0.5245  1.0234  2.3419
  462SOL    HW2 1386   0.063   3.036   1.531 -0.4016  0.3990  0.1772
  463SOL     OW 1387   2.091   1.831   2.521 -0.6598  0.5549 -0.1661
  463SOL    HW1 1388   2.074   1.763   2.593 -2.1612  1.3351  0.7679
  463SOL    HW2 1389   2.058   1.782   2.432 -0.5548 -1.3333 -0.5973
  464SOL     OW 1390   0.719   2.921   1.497  0.3686 -0.2674 -0.1938
  464SOL    HW1 1391   0.771   2.964   1.574 -1.1114 -1.1269 -2.0725
  464SOL    HW2 1392   0.681   2.996   1.436  0.8258 -1.2376 -0.0417
  465SOL     OW 1393   0.739   0.343   1.674 -0.3156 -0.6743  0.0254
  465SOL    HW1 1394   0.790   0.298   1.749 -0.9062  0.2654  0.4454
  465SOL    HW2 1395   0.729   0.442   1.686  0.9634 -1.8869  1.3380
  466SOL     OW 1396   1.578   2.900   1.964  0.5212  0.2552  0.1331
  466SOL    HW1 1397   1.572   2.799   1.966 -1.5501  1.0093  0.5808
  466SOL    HW2 1398   1.621   2.933   2.051  0.4351 -0.1004  2.2293
  467SOL     OW 1399   0.327   1.974   1.241 -0.1222  0.0111  0.0249
  467SOL    HW1 1400   0.297   1.893   1.187  1.5294  1.7167  1.2294
  467SOL    HW2 1401   0.321   2.057   1.181  0.0795 -0.7124  2.3111
  468SOL     OW 1402   2.569   1.551   2.603 -0.6402  0.2993  0.5292
  468SOL    HW1 1403   2.551   1.631   2.544  1.7737  0.4907  0.5470
  468SOL    HW2 1404   2.505   1.523   2.676 -0.5684 -0.1871 -1.1854
  469SOL     OW 1405   1.120   1.873   0.417 -0.0602 -0.3178  0.7449
  469SOL    HW1 1406   1.213   1.828   0.407  1.2399 -0.2851  0.5886
  469SOL    HW2 1407   1.081   1.857   0.509  2.4040  0.1955 -1.0228
  470SOL     OW 1408   2.264   1.309   1.471 -0.5416 -0.2878  0.4435
  470SOL    HW1 1409   2.361   1.311   1.487 -2.5719  0.3659 -3.0621
  470SOL    HW2 1410   2.224   1.214   1.484 -0.4265  0.0988 -1.4271
  471SOL     OW 1411   0.425   2.466   2.968  0.1822  0.0983  0.2555
  471SOL    HW1 1412   0.422   2.403   2.887  0.4634 -0.5914  0.7013
  471SOL    HW2 1413   0.500   2.536   2.961  2.1414 -0.8713  1.2562
  472SOL     OW 1414   2.935   1.871   2.064  0.2451  0.4008  0.0851
  472SOL    HW1 1415   2.966   1.792   2.007  1.3417 -0.8483  2.3985
  472SOL    HW2 1416   2.833   1.861   2.075 -0.7464 -1.7477 -1.8415
  473SOL     OW 1417   0.870   2.994   0.348  0.4796 -0.4927  0.0503
  473SOL    HW1 1418   0.922   2.959   0.428  2.0746 -1.0184  0.4859
  473SOL    HW2 1419   0.892   2.951   0.258 -1.9851  0.1176  2.6946
  474SOL     OW 1420   2.638   2.903   0.820 -0.3824 -0.4868 -0.3329
  474SOL    HW1 1421   2.670   2.812   0.781 -1.3180 -1.2071 -1.5154
  474SOL    HW2 1422   2.643   2.977   0.753  0.5927 -2.3984  1.2506
  475SOL     OW 1423   2.149   2.725   1.586  0.3307  0.4685 -1.0646
  475SOL    HW1 1424   2.050   2.709   1.575 -2.2501 -1.3039 -1.1534
  475SOL    HW2 1425   2.186   2.642   1.628 -0.0929 -0.7880 -2.3552
  476SOL     OW 1426   0.650   0.732   0.782 -0.2348 -0.3909 -0.0609
  476SOL    HW1 1427   0.731   0.734   0.719  1.7483 -0.8349  0.1746
  476SOL    HW2 1428   0.622   0.822   0.823 -1.5416 -2.7540  1.5678
  477SOL     OW 1429   0.523   2.179   0.767 -0.2219 -0.2284 -0.5092
  477SOL    HW1 1430   0.569   2.266   0.791 -2.2436 -1.8851  0.3823
  477SOL    HW2 1431   0.597   2.124   0.729  2.5990  1.3636  1.0014
  478SOL     OW 1432   0.035   2.316   2.225 -0.3433  0.6376  0.4248
  478SOL    HW1 1433   3.066   2.304   2.309 -1.0312 -1.0040 -1.7718
  478SOL    HW2 1434   0.054   2.220   2.191  2.2020  2.3915  2.4648
  479SOL     OW 1435   0.206   0.657   1.583 -0.5647 -0.3998 -0.5191
  479SOL    HW1 1436   0.214   0.638   1.683  3.5825  1.6710  0.7524
  479SOL    HW2 1437   0.135   0.599   1.542 -0.0834  0.3728  2.2787
  480SOL     OW 1438   0.018   2.275   3.022 -0.4691  0.3142 -0.5710
  480SOL    HW1 1439   3.072   2.206   2.954 -1.0638  2.6572 -2.6547
  480SOL    HW2 1440   3.063   2.261   0.029 -0.0930 -0.6907 -1.2934
  481SOL     OW 1441   1.797   2.056   2.310 -0.1712  0.0769  0.1963
  481SOL    HW1 1442   1.876   2.027   2.251 -0.3161  0.7360 -1.2943
  481SOL    HW2 1443   1.726   1.985   2.307 -0.8115 -0.1874  0.5137
  482SOL     OW 1444   1.583   2.304   2.935  0.0337 -0.2550  0.4257
  482SOL    HW1 1445   1.543   2.288   2.842 -0.6944  0.6337 -1.7794
  482SOL    HW2 1446   1.677   2.339   2.927  1.6806 -1.5855  1.9486
  483SOL     OW 1447   0.577   1.896   2.273  0.5599 -0.3647  0.0362
  483SOL    HW1 1448   0.589   1.817   2.210  0.1206 -1.6661  0.3281
  483SOL    HW2 1449   0.553   1.864   2.366 -1.6783 -2.1352  0.6143
  484SOL     OW 1450   0.013   0.552   1.168  0.2849  0.0828 -0.0279
  484SOL    HW1 1451   3.060   0.471   1.117  0.4888 -2.0100 -0.6427
  484SOL    HW2 1452   3.032   0.626   1.161 -0.3694  1.2896  0.9485
  485SOL     OW 1453   2.317   0.750   0.401  0.1805  0.2010  0.3371
  485SOL    HW1 1454   2.303   0.694   0.491  0.1799 -2.0558  4.1827
  485SOL    HW2 1455   2.249   0.827   0.396 -1.5313  2.2434  0.7236
  486SOL     OW 1456   1.903   0.051   2.307  0.0095 -0.7855  0.4477
  486SOL    HW1 1457   1.946   0.119   2.245  0.5488  0.4252  0.1619
  486SOL    HW2 1458   1.878   0.099   2.394  0.3969  1.7808 -0.8861
  487SOL     OW 1459   1.342   1.467   1.084 -0.1275 -0.1554  0.0342
  487SOL    HW1 1460   1.271   1.423   1.027  0.3471  1.9837  0.8876
  487SOL    HW2 1461   1.409   1.520   1.023  0.0070 -0.4015  0.5509
  488SOL     OW 1462   2.188   1.304   0.124 -0.4968  0.1031  0.2281
  488SOL    HW1 1463   2.277   1.295   0.081  1.1550  0.2260  0.3844
  488SOL    HW2 1464   2.175   1.400   0.153  0.0152 -0.3610  0.3774
  489SOL     OW 1465   2.223   0.358   0.336  0.3939 -0.2120 -0.1398
  489SOL    HW1 1466   2.273   0.397   0.418  0.3464  2.0284  1.2380
  489SOL    HW2 1467   2.286   0.308   0.281 -1.9608 -3.0084  0.3375
  490SOL     OW 1468   1.537   2.736   0.493 -0.3115 -0.3471  0.0637
  490SOL    HW1 1469   1.595   2.785   0.559 -1.7970 -1.6751 -1.0166
  490SOL    HW2 1470   1.523   2.792   0.409 -1.4220 -2.1085 -0.8812
  491SOL     OW 1471   0.940   0.934   0.697  0.0706  0.1265  0.3189
  491SOL    HW1 1472   0.853   0.984   0.701  1.8436 -1.1060 -0.9616
  491SOL    HW2 1473   0.970   0.924   0.601 -1.4135 -0.5432  1.0641
  492SOL     OW 1474   1.514   0.146   0.108  0.3249 -0.0286  0.1541
  492SOL    HW1 1475   1.569   0.107   0.187  0.4703 -1.3420  1.6559
  492SOL    HW2 1476   1.417   0.114   0.108 -0.7503  0.4270  0.9391
  493SOL     OW 1477   1.987   2.223   0.267 -0.4060  0.9521 -0.0955
  493SOL    HW1 1478   2.038   2.298   0.315 -0.5155 -1.6404  1.7742
  493SOL    HW2 1479   1.894   2.212   0.315 -2.0586 -1.0678 -0.7553
  494SOL     OW 1480   0.530   1.226   0.462  0.3072  0.2032  0.6384
  494SOL    HW1 1481   0.458   1.153   0.475  1.9571  0.7126  0.9902
  494SOL    HW2 1482   0.628   1.199   0.494 -1.1534 -0.1372 -1.3024
  495SOL     OW 1483   3.057   2.880   0.966  0.0986 -0.2682  0.3258
  495SOL    HW1 1484   2.987   2.811   0.937  0.3880 -1.9933  3.3845
  495SOL    HW2 1485   0.058   2.830   0.976  0.9409 -0.4815 -0.3099
  496SOL     OW 1486   2.310   0.267   1.702 -0.3515  0.7361  0.1191
  496SOL    HW1 1487   2.392   0.262   1.640 -1.6344  1.9480 -1.5202
  496SOL    HW2 1488   2.267   0.359   1.694 -1.0089 -0.2429  1.8532
  497SOL     OW 1489   1.914   1.637   2.683 -0.2027 -0.0276  0.2168
  497SOL    HW1 1490   1.938   1.537   2.710  1.0915 -1.3141 -1.2988
  497SOL    HW2 1491   1.846   1.638   2.606 -0.5213 -0.3321 -1.4141
  498SOL     OW 1492   1.010   1.807   0.673 -0.3626 -0.1220 -0.3617
  498SOL    HW1 1493   0.919   1.824   0.717 -1.0755 -0.2926  3.0723
  498SOL    HW2 1494   1.087   1.835   0.736 -0.4048  1.8420 -0.3259
  499SOL     OW 1495   0.557   2.011   1.006 -0.1027 -0.1089  0.0340
  499SOL    HW1 1496   0.494   2.073   0.959  2.8239  1.4354 -0.4510
  499SOL    HW2 1497   0.535   1.994   1.100  0.0815 -1.7641 -1.0014
  500SOL     OW 1498   1.214   1.865   0.044 -0.1005 -0.1356  0.0576
  500SOL    HW1 1499   1.168   1.926   0.103 -0.1990 -0.9498 -0.9340
  500SOL    HW2 1500   1.225   1.901   3.037 -0.1393 -1.4958  0.3361
  501SOL     OW 1501   2.419   2.853   1.206  0.6514  0.6559 -0.0180
  501SOL    HW1 1502   2.469   2.767   1.173  1.2139 -2.6968  1.0866
  501SOL    HW2 1503   2.433   2.866   1.303 -1.2780  0.5578 -3.2069
  502SOL     OW 1504   0.128   0.972   1.686  0.0807 -0.2703  0.3395
  502SOL    HW1 1505   0.156   0.895   1.628 -2.9402  1.8673  1.1798
  502SOL    HW2 1506   0.119   1.057   1.637 -2.3384 -1.7030  2.2636
  503SOL     OW 1507   1.911   0.611   1.412 -0.3335 -0.0934  0.6128
  503SOL    HW1 1508   1.869   0.520   1.430 -1.2353  0.5540 -1.0417
  503SOL    HW2 1509   1.855   0.656   1.339 -0.7785  0.5154 -0.0575
  504SOL     OW 1510   1.364   0.847   2.027  0.2493 -0.1751 -0.8740
  504SOL    HW1 1511   1.346   0.939   2.075 -1.3259 -1.7060  0.0017
  504SOL    HW2 1512   1.365   0.857   1.925 -1.4729 -1.0601 -0.6278
  505SOL     OW 1513   1.093   0.106   2.501  0.0336  0.0810  0.8680
  505SOL    HW1 1514   1.186   0.063   2.496  0.0190  1.6080 -0.1469
  505SOL    HW2 1515   1.050   0.064   2.584  0.7419 -0.6946  2.4846
  506SOL     OW 1516   0.275   0.382   1.462 -0.2490  0.2814  0.2348
  506SOL    HW1 1517   0.301   0.365   1.557 -0.9933 -1.5178 -1.6055
  506SOL    HW2 1518   0.198   0.448   1.460 -1.8782 -1.1828  0.3004
  507SOL     OW 1519   1.319   2.996   3.036 -0.5389  0.6631 -0.4873
  507SOL    HW1 1520   1.252   3.020   0.025  2.5524  1.6134 -0.5686
  507SOL    HW2 1521   1.386   3.070   3.020  0.2117 -2.5934  1.2659
  508SOL     OW 1522   2.167   0.487   2.373  0.0634 -0.5622  0.0449
  508SOL    HW1 1523   2.270   0.494   2.362 -1.7417 -0.8455  1.0525
  508SOL    HW2 1524   2.143   0.387   2.361 -1.0697 -0.9183 -1.2062
  509SOL     OW 1525   0.758   1.480   1.720  0.5873  0.1904  0.4766
  509SOL    HW1 1526   0.825   1.533   1.664  0.2246  1.1703 -3.1546
  509SOL    HW2 1527   0.757   1.511   1.819 -1.7394 -0.5953 -0.1346
  510SOL     OW 1528   3.009   1.241   0.817  0.4043  0.2614  0.2815
  510SOL    HW1 1529   2.916   1.208   0.777 -2.4086 -1.5209 -2.1535
  510SOL    HW2 1530   3.011   1.240   0.918  3.1838 -2.4797 -0.9794
  511SOL     OW 1531   1.760   1.808   0.936  0.1515  0.8746  0.1045
  511SOL    HW1 1532   1.736   1.882   1.007 -3.3401 -2.1142  0.5695
  511SOL    HW2 1533   1.840   1.754   0.977  2.2974  0.6234 -1.1836
  512SOL     OW 1534   0.819   1.186   0.436 -0.4670  0.3354 -0.3774
  512SOL    HW1 1535   0.812   1.218   0.340 -0.7023 -1.1624  0.1004
  512SOL    HW2 1536   0.903   1.211   0.492 -1.5533 -1.2136 -0.5322
  513SOL     OW 1537   0.601   2.313   0.450  0.3391  0.1685 -0.3905
  513SOL    HW1 1538   0.574   2.370   0.372 -0.4793 -0.5712  1.9773
  513SOL    HW2 1539   0.668   2.365   0.509  2.2412 -0.6226  2.5470
  514SOL     OW 1540   2.595   2.070   2.454  0.5372  0.1662 -0.5883
  514SOL    HW1 1541   2.628   2.165   2.463  0.0666  1.2250  1.1473
  514SOL    HW2 1542   2.611   2.041   2.357 -1.7270 -0.1097  1.5107
  515SOL     OW 1543   2.523   0.704   0.055 -0.8237 -0.1803 -0.4436
  515SOL    HW1 1544   2.595   0.737   0.120 -1.0550 -0.0755  1.8579
  515SOL    HW2 1545   2.429   0.700   0.103 -2.6812 -1.1472  1.1343
  516SOL     OW 1546   2.002   2.938   0.854 -0.3274 -0.2571  0.0725
  516SOL    HW1 1547   2.050   2.862   0.904  1.8398  2.1034 -2.0011
  516SOL    HW2 1548   1.967   2.915   0.758 -1.5950  0.4578 -2.7184
  517SOL     OW 1549   1.528   1.955   2.878 -0.1982  0.0735 -0.1429
  517SOL    HW1 1550   1.492   1.863   2.860  2.7331  0.8115 -2.7839
  517SOL    HW2 1551   1.573   1.987   2.790 -0.9805 -1.3121 -0.8052
  518SOL     OW 1552   0.941   0.966   1.698 -0.4896  0.1473  0.0911
  518SOL    HW1 1553   0.990   0.898   1.637 -0.1725 -0.2889  2.2288
  518SOL    HW2 1554   0.950   0.949   1.799 -1.3452  2.7805  1.8609
  519SOL     OW 1555   2.859   1.623   0.281 -0.4720  0.8491 -0.2902
  519SOL    HW1 1556   2.949   1.653   0.320  2.0434  2.2104  3.3273
  519SOL    HW2 1557   2.846   1.651   0.185 -0.7909 -0.8538  0.0048
  520SOL     OW 1558   2.111   2.125   1.915  0.3684 -0.0209  0.0642
  520SOL    HW1 1559   2.181   2.162   1.981  0.4885  1.1938 -1.3319
  520SOL    HW2 1560   2.048   2.062   1.960 -1.7176  0.6556 -1.2533
  521SOL     OW 1561   0.972   2.861   2.513  0.4705 -0.3225  0.3943
  521SOL    HW1 1562   0.974   2.949   2.565  2.5885 -4.0447 -0.8635
  521SOL    HW2 1563   0.882   2.838   2.468 -0.5447  0.8006 -0.3255
  522SOL     OW 1564   2.256   0.304   1.977 -0.0677 -0.1617 -0.0741
  522SOL    HW1 1565   2.272   0.403   1.995  0.7351  0.8945 -0.1057
  522SOL    HW2 1566   2.245   0.293   1.877 -0.9625 -1.8435  0.4793
  523SOL     OW 1567   1.831   2.374   1.330  0.2549 -0.3069  0.1501
  523SOL    HW1 1568   1.790   2.319   1.411  0.1852  0.4912  4.5789
  523SOL    HW2 1569   1.881   2.454   1.373 -1.5368  0.7075 -1.8627
  524SOL     OW 1570   1.567   2.090   0.021 -0.2201  0.1013  0.1896
  524SOL    HW1 1571   1.608   2.185   0.009 -0.6370  1.2528 -1.5859
  524SOL    HW2 1572   1.569   2.038   3.018  0.5774 -2.0747 -1.2801
  525SOL     OW 1573   0.213   0.695   3.052 -0.3284 -0.3377 -0.3250
  525SOL    HW1 1574   0.264   0.611   3.081  0.1883 -0.9893 -0.4942
  525SOL    HW2 1575   0.168   0.682   2.964 -0.7984  0.5272  0.0761
  526SOL     OW 1576   1.089   2.884   0.476  0.0584 -0.2393 -0.1948
  526SOL    HW1 1577   1.125   2.790   0.481 -0.2606  2.9451 -0.4611
  526SOL    HW2 1578   1.134   2.944   0.541 -2.5033 -2.2221 -3.4410
  527SOL     OW 1579   2.719   1.819   0.649 -0.1853  0.3848 -0.3934
  527SOL    HW1 1580   2.660   1.871   0.719 -0.3129  0.4027  2.0391
  527SOL    HW2 1581   2.655   1.786   0.575 -0.4848 -0.5891 -0.1248
  528SOL     OW 1582   0.572   0.872   2.196  0.0056  0.2962  0.2087
  528SOL    HW1 1583   0.479   0.891   2.164 -0.9484 -1.1423  1.9003
  528SOL    HW2 1584   0.621   0.828   2.120 -0.5703  1.8178  3.2199
  529SOL     OW 1585   1.591   1.813   2.564 -0.0155  0.0948  0.3117
  529SOL    HW1 1586   1.534   1.771   2.637 -2.9423 -0.9488  2.6208
  529SOL    HW2 1587   1.651   1.885   2.605 -2.7530  1.3367  1.4997
  530SOL     OW 1588   1.628   1.023   2.324 -0.0023 -0.5505 -0.0779
  530SOL    HW1 1589   1.631   1.121   2.297 -0.6891 -1.5667  0.0792
  530SOL    HW2 1590   1.538   0.991   2.351  0.1289  0.3680  0.2052
  531SOL     OW 1591   0.467   2.436   2.609 -0.3382 -0.3206 -0.2381
  531SOL    HW1 1592   0.431   2.417   2.517  1.3988  0.0989  0.9373
  531SOL    HW2 1593   0.442   2.363   2.678 -1.6591  1.8924 -0.8951
  532SOL     OW 1594   2.566   0.823   0.502 -0.1166 -0.0907  0.3973
  532SOL    HW1 1595   2.602   0.847   0.594  0.1786  1.6916 -0.7424
  532SOL    HW2 1596   2.471   0.847   0.503  2.3535 -0.6399  1.3791
  533SOL     OW 1597   2.973   0.163   1.704 -0.1115  0.0324 -0.1737
  533SOL    HW1 1598   2.966   0.231   1.777  2.1358 -1.1443 -2.0514
  533SOL    HW2 1599   2.967   0.205   1.612  1.2931  0.5733 -1.2459
  534SOL     OW 1600   0.829   0.012   3.072  0.5728 -0.3711 -0.2066
  534SOL    HW1 1601   0.771   0.076   0.036 -0.4748  0.2732  0.9079
  534SOL    HW2 1602   0.789   3.080   2.982 -0.3808  2.3060 -1.0064
  535SOL     OW 1603   0.277   0.223   0.295  0.5730  0.4254 -0.4159
  535SOL    HW1 1604   0.213   0.217   0.220  0.7801  1.4376  2.0210
  535SOL    HW2 1605   0.299   0.130   0.331 -1.0498 -2.0028 -3.0449
  536SOL     OW 1606   0.260   1.723   1.086 -0.0828 -0.3769  0.6045
  536SOL    HW1 1607   0.248   1.750   0.988  0.9252 -2.4822 -0.1092
  536SOL    HW2 1608   0.347   1.675   1.097  0.3587 -1.4464  1.5463
  537SOL     OW 1609   0.897   2.831   1.857 -0.4982 -0.0428 -0.3174
  537SOL    HW1 1610   0.908   2.778   1.770  2.8077  0.8241 -0.2551
  537SOL    HW2 1611   0.938   2.779   1.941 -0.4093  0.4684  0.9322
  538SOL     OW 1612   0.096   1.874   2.919  0.2399  0.1988 -0.0228
  538SOL    HW1 1613   0.126   1.928   3.004  0.3458 -0.7748 -1.7399
  538SOL    HW2 1614   0.165   1.810   2.884 -1.6515  2.3055  1.3324
  539SOL     OW 1615   2.446   1.003   2.681 -0.1143  0.2562  0.1588
  539SOL    HW1 1616   2.396   0.918   2.671 -0.4937  2.6358  1.2579
  539SOL    HW2 1617   2.512   1.028   2.607 -0.0972  0.0587 -0.5517
  540SOL     OW 1618   1.920   0.093   2.587  0.5348 -1.2876 -1.0694
  540SOL    HW1 1619   1.929   0.095   2.691  1.5102 -0.6043 -2.2247
  540SOL    HW2 1620   1.979   0.168   2.545 -1.8256  1.0835 -1.5382
  541SOL     OW 1621   0.647   0.113   2.218 -0.0461 -0.4272  0.0598
  541SOL    HW1 1622   0.637   0.122   2.318 -1.3626  0.7813  0.7750
  541SOL    HW2 1623   0.717   0.176   2.196 -2.6603 -5.0376  1.4817
  542SOL     OW 1624   2.109   2.734   0.124  0.3536 -0.4060  0.6311
  542SOL    HW1 1625   2.074   2.735   0.031  3.3395 -1.8064  2.0032
  542SOL    HW2 1626   2.033   2.752   0.190 -0.9998  0.5991 -0.0227
  543SOL     OW 1627   1.100   0.205   0.461  0.3634 -0.1711  0.4517
  543SOL    HW1 1628   1.178   0.243   0.409 -1.4350  0.6677  0.6634
  543SOL    HW2 1629   1.015   0.202   0.404 -1.7315 -3.7751 -0.8385
  544SOL     OW 1630   2.458   1.343   1.839  0.1994  0.2339  0.2918
  544SOL    HW1 1631   2.425   1.252   1.867  1.1634 -0.2452 -0.4110
  544SOL    HW2 1632   2.530   1.380   1.903 -0.4411  0.5605 -0.3735
  545SOL     OW 1633   2.175   1.671   1.267 -0.4189  0.2903 -0.1674
  545SOL    HW1 1634   2.260   1.703   1.222  0.4200 -1.1990 -0.2122
  545SOL    HW2 1635   2.170   1.571   1.250 -1.3381  1.5913 -1.3839
  546SOL     OW 1636   0.249   2.962   2.030 -0.0999  0.0340 -0.0626
  546SOL    HW1 1637   0.309   3.015   2.091 -1.2715 -2.8198 -2.6435
  546SOL    HW2 1638   0.206   2.888   2.089  0.4265 -1.1792  1.8753
  547SOL     OW 1639   1.335   0.534   0.914  0.2393 -0.3451  0.3486
  547SOL    HW1 1640   1.337   0.638   0.924  1.5595  0.6241 -1.1373
  547SOL    HW2 1641   1.429   0.498   0.916  0.0688 -0.3459 -0.6481
  548SOL     OW 1642   1.616   2.426   2.581  0.6378 -0.6524 -0.4451
  548SOL    HW1 1643   1.539   2.363   2.594  2.8126  0.5291 -1.7806
  548SOL    HW2 1644   1.703   2.371   2.564  1.5453 -1.7209  1.7101
  549SOL     OW 1645   2.095   0.330   0.098 -0.2454  0.3799  0.4885
  549SOL    HW1 1646   2.025   0.394   0.067  1.5322 -0.4303 -0.5946
  549SOL    HW2 1647   2.136   0.361   0.184 -0.3515  0.8465 -1.1024
  550SOL     OW 1648   2.978   1.822   0.540  0.5031  0.4010 -0.4344
  550SOL    HW1 1649   2.890   1.847   0.584 -0.0393  0.9546  1.6749
  550SOL    HW2 1650   2.985   1.720   0.547  0.5278  1.1902  1.6979
  551SOL     OW 1651   1.225   2.876   2.168 -0.2145  0.4394 -0.2488
  551SOL    HW1 1652   1.314   2.869   2.218 -1.3511 -0.3671  1.6880
  551SOL    HW2 1653   1.177   2.962   2.198 -2.7673  0.3741  1.6306
  552SOL     OW 1654   2.992   2.322   2.487 -0.9605 -0.5976  0.2464
  552SOL    HW1 1655   3.004   2.225   2.507 -0.1442  1.0117  0.4448
  552SOL    HW2 1656   2.891   2.336   2.482  3.6991  0.4502  0.0641
  553SOL     OW 1657   0.196   0.322   0.801 -0.2738  0.2789  0.2710
  553SOL    HW1 1658   0.132   0.265   0.745  0.5489 -3.2781 -4.0577
  553SOL    HW2 1659   0.289   0.297   0.783 -1.9067 -0.7083  1.5240
  554SOL     OW 1660   2.236   2.215   1.704 -1.1223  0.2073  0.3919
  554SOL    HW1 1661   2.172   2.190   1.782 -1.0696  1.3912  0.2673
  554SOL    HW2 1662   2.329   2.170   1.718  2.5016 -0.5277  0.0588
  555SOL     OW 1663   1.769   2.292   2.168 -0.0747 -0.2914  0.3221
  555SOL    HW1 1664   1.792   2.237   2.251  1.2191  0.2671 -0.5322
  555SOL    HW2 1665   1.855   2.302   2.117  1.9080 -0.2601 -1.6856
  556SOL     OW 1666   1.325   1.418   1.344  0.2726 -0.1111  0.3957
  556SOL    HW1 1667   1.348   1.447   1.248  0.4899 -2.5341 -2.0494
  556SOL    HW2 1668   1.231   1.447   1.374 -2.1283  0.1822 -0.0122
  557SOL     OW 1669   2.126   2.582   1.930  0.4391  0.0951  0.7672
  557SOL    HW1 1670   2.212   2.583   1.978 -0.7051 -1.2933 -0.8171
  557SOL    HW2 1671   2.064   2.660   1.957  0.4205  2.9701 -0.1761
  558SOL     OW 1672   0.337   2.946   1.783 -0.0520 -0.1460 -0.2559
  558SOL    HW1 1673   0.283   2.949   1.875  2.6118  0.6155  0.6569
  558SOL    HW2 1674   0.286   2.887   1.718  2.0031  1.1981  1.7840
  559SOL     OW 1675   2.046   0.061   0.574 -0.0558 -0.2220 -0.1091
  559SOL    HW1 1676   2.076   0.070   0.670 -0.6220  2.0208  1.1114
  559SOL    HW2 1677   2.017   0.153   0.541 -0.8668  0.2012  0.5446
  560SOL     OW 1678   1.705   2.892   0.674 -0.5638 -0.2567  0.1486
  560SOL    HW1 1679   1.719   2.860   0.771 -2.7822 -1.6933  1.2264
  560SOL    HW2 1680   1.617   2.942   0.665 -0.6669  0.8716 -0.5688
  561SOL     OW 1681   0.762   0.263   0.984  0.2147 -0.5804 -0.5911
  561SOL    HW1 1682   0.759   0.363   0.975 -1.0602 -0.5917  3.7569
  561SOL    HW2 1683   0.798   0.219   0.900 -0.3409 -0.6683  3.3429
  562SOL     OW 1684   0.519   0.823   2.461 -0.1750 -0.3774 -0.1777
  562SOL    HW1 1685   0.517   0.906   2.521 -0.3077 -1.0290 -0.6257
  562SOL    HW2 1686   0.557   0.845   2.366  0.9748 -0.9636 -0.2495
  563SOL     OW 1687   1.810   2.211   2.517  0.4798  0.3976 -0.1779
  563SOL    HW1 1688   1.909   2.188   2.536 -0.4068 -2.3630  1.7858
  563SOL    HW2 1689   1.776   2.162   2.434 -0.4566 -1.0274 -1.8535
  564SOL     OW 1690   2.816   1.054   1.010  0.5412 -0.2282 -0.3995
  564SOL    HW1 1691   2.768   0.970   1.050 -0.1349 -1.3310  0.1014
  564SOL    HW2 1692   2.754   1.132   1.028 -0.3220  0.5297  1.4511
  565SOL     OW 1693   0.915   0.886   0.072  0.2587  0.3126  0.0603
  565SOL    HW1 1694   0.853   0.810   0.104 -2.1109  1.3397  2.6517
  565SOL    HW2 1695   0.871   0.945   0.002 -1.6000  1.2068 -1.0774
  566SOL     OW 1696   2.234   0.203   2.673 -0.1013  0.7512 -0.2237
  566SOL    HW1 1697   2.282   0.113   2.693  1.7406 -2.2240  2.2267
  566SOL    HW2 1698   2.217   0.245   2.765 -1.1795 -0.2402  0.3400
  567SOL     OW 1699   1.770   0.974   0.642  0.2006 -0.7930  0.1615
  567SOL    HW1 1700   1.764   1.069   0.602 -0.8623  1.5299  1.2722
  567SOL    HW2 1701   1.838   0.921   0.593  2.3725 -1.2117 -1.1350
  568SOL     OW 1702   1.810   1.781   2.890 -0.0155 -0.3799 -0.0785
  568SOL    HW1 1703   1.721   1.744   2.926 -2.6301 -2.1116  2.3846
  568SOL    HW2 1704   1.843   1.714   2.826  1.1265  2.3960  3.4425
  569SOL     OW 1705   1.997   1.315   3.015  0.2471 -0.1774 -0.5095
  569SOL    HW1 1706   1.924   1.376   3.059 -0.8302 -0.0513 -0.0135
  569SOL    HW2 1707   2.079   1.316   3.076 -0.1079 -1.6691 -0.9179
  570SOL     OW 1708   0.355   2.245   1.838  0.3672  0.1070  0.4594
  570SOL    HW1 1709   0.428   2.222   1.769 -1.1449  0.3813 -1.4074
  570SOL    HW2 1710   0.353   2.347   1.843 -0.2626 -0.9785  0.1941
  571SOL     OW 1711   0.135   1.070   1.936  0.0147 -0.2308 -0.1445
  571SOL    HW1 1712   0.146   1.020   1.847  0.7701 -0.5780  3.3054
  571SOL    HW2 1713   0.063   1.145   1.931 -1.8335  0.8105  0.2226
  572SOL     OW 1714   1.392   1.745   0.392 -0.8835  0.3863 -0.3736
  572SOL    HW1 1715   1.432   1.654   0.413 -1.6975 -1.3326  0.0268
  572SOL    HW2 1716   1.428   1.791   0.305  1.8963 -1.0541  1.6184
  573SOL     OW 1717   1.925   2.187   0.617  0.0750  0.0406 -0.1938
  573SOL    HW1 1718   1.863   2.191   0.537  1.2957 -1.9258  0.0275
  573SOL    HW2 1719   1.862   2.213   0.698 -4.1532  1.7876  2.8407
  574SOL     OW 1720   0.876   0.128   1.206 -0.2186 -0.2116 -0.0089
  574SOL    HW1 1721   0.799   0.104   1.266  0.3197  0.4192 -0.9396
  574SOL    HW2 1722   0.842   0.182   1.125  0.1283 -0.8603  0.6423
  575SOL     OW 1723   0.375   1.239   1.452 -0.3747  0.0867 -0.1543
  575SOL    HW1 1724   0.472   1.252   1.488  0.2317 -0.6301 -2.2854
  575SOL    HW2 1725   0.365   1.265   1.356  0.5029 -1.2203 -1.6386
  576SOL     OW 1726   2.763   2.927   1.061 -0.5052 -0.3464  0.3023
  576SOL    HW1 1727   2.726   2.929   0.966 -1.5353  1.2351  0.0918
  576SOL    HW2 1728   2.704   2.971   1.127  2.1066 -1.6839  0.0622
  577SOL     OW 1729   0.739   1.313   2.184  0.0670 -0.2097  0.0506
  577SOL    HW1 1730   0.698   1.331   2.094 -2.6612 -2.8410  1.0059
  577SOL    HW2 1731   0.752   1.215   2.191  2.1585  1.7511  2.1728
  578SOL     OW 1732   1.855   0.995   2.513  0.2246  0.2409 -0.1871
  578SOL    HW1 1733   1.756   1.002   2.487  0.1338 -2.4482 -1.4818
  578SOL    HW2 1734   1.904   1.082   2.486  3.3432  0.8755 -3.1317
  579SOL     OW 1735   1.496   2.344   1.757  0.5611 -0.4546  0.3408
  579SOL    HW1 1736   1.522   2.445   1.742  0.9752  0.6745  1.7776
  579SOL    HW2 1737   1.533   2.303   1.843 -1.0245 -2.6336 -0.8705
  580SOL     OW 1738   1.472   1.679   2.818 -0.3202  0.3928 -0.0997
  580SOL    HW1 1739   1.478   1.610   2.893 -1.9341  0.1354 -1.1181
  580SOL    HW2 1740   1.383   1.675   2.771 -1.5859 -0.1707  1.2479
  581SOL     OW 1741   1.092   0.889   2.180  0.1172 -0.3275 -0.1908
  581SOL    HW1 1742   1.026   0.966   2.198  1.0744 -2.1984  0.1864
  581SOL    HW2 1743   1.183   0.916   2.200 -2.0168  0.8659  2.1862
  582SOL     OW 1744   0.907   1.287   1.429  0.4201  0.0031  0.3717
  582SOL    HW1 1745   0.817   1.293   1.379  1.0044 -0.0978 -0.4675
  582SOL    HW2 1746   0.966   1.215   1.383 -0.0193 -0.8242 -1.5286
  583SOL     OW 1747   1.011   1.387   1.944 -0.2626 -0.0422  0.2840
  583SOL    HW1 1748   0.982   1.334   1.866  0.7956 -1.5278  0.5480
  583SOL    HW2 1749   0.935   1.451   1.970 -2.3826  0.5993 -1.6925
  584SOL     OW 1750   2.644   2.646   0.736  0.2335  0.0298  0.7768
  584SOL    HW1 1751   2.581   2.594   0.800 -0.1231 -1.4385  1.3124
  584SOL    HW2 1752   2.641   2.599   0.642 -1.3199  1.2502 -0.5409
  585SOL     OW 1753   1.903   0.028   2.862 -0.3613 -0.5130  0.8124
  585SOL    HW1 1754   1.936   0.093   2.934 -1.6957 -3.7481  1.4466
  585SOL    HW2 1755   1.921   3.019   2.897 -0.3884  0.9343  0.4844
  586SOL     OW 1756   0.139   2.226   0.932  0.7385 -0.5951 -0.2625
  586SOL    HW1 1757   0.103   2.281   0.854 -1.1080 -1.5633 -0.9673
  586SOL    HW2 1758   0.097   2.264   1.017 -1.1897 -1.4113 -0.8998
  587SOL     OW 1759   1.636   1.697   0.037 -0.5484 -0.3003 -0.5436
  587SOL    HW1 1760   1.591   1.769   0.093  3.6072 -0.3949 -0.1802
  587SOL    HW2 1761   1.565   1.629   0.012 -0.2415 -0.0000  0.2111
  588SOL     OW 1762   0.320   0.250   1.230  0.4196 -0.3689  0.2625
  588SOL    HW1 1763   0.372   0.304   1.163 -0.7477  0.1923 -0.4711
  588SOL    HW2 1764   0.327   0.302   1.318  4.6912  2.0892 -1.9682
  589SOL     OW 1765   1.237   0.173   0.853 -0.6876  0.0996 -0.3019
  589SOL    HW1 1766   1.146   0.208   0.819 -0.1164 -1.0524  0.6740
  589SOL    HW2 1767   1.258   0.218   0.946 -1.0237 -0.6235  2.6649
  590SOL     OW 1768   1.112   0.996   2.959  0.1705  0.7469  0.4477
  590SOL    HW1 1769   1.178   0.973   2.880 -0.3386 -1.4216 -2.0057
  590SOL    HW2 1770   1.164   1.010   3.048 -3.8261 -1.7662 -1.3564
  591SOL     OW 1771   2.726   2.317   2.503  0.3000 -0.1929  0.0333
  591SOL    HW1 1772   2.650   2.328   2.569  0.5337 -0.4721 -1.3256
  591SOL    HW2 1773   2.722   2.388   2.425  1.4470  3.1768  0.8648
  592SOL     OW 1774   2.050   1.919   1.346  0.3966 -0.6069 -0.3305
  592SOL    HW1 1775   2.078   1.925   1.445  0.8936  0.4609  1.8374
  592SOL    HW2 1776   2.075   1.826   1.319 -2.9132  2.2208 -0.9660
  593SOL     OW 1777   1.076   0.848   1.511 -0.6969  0.9522 -0.5621
  593SOL    HW1 1778   1.001   0.819   1.451 -1.3082  0.0546  0.0319
  593SOL    HW2 1779   1.169   0.832   1.468  0.5367  0.4512 -0.9866
  594SOL     OW 1780   2.508   1.025   2.178  0.4136  0.1619 -0.6499
  594SOL    HW1 1781   2.484   1.017   2.075  0.8594 -1.0303 -0.9926
  594SOL    HW2 1782   2.442   0.969   2.238  1.5403 -0.2232  1.7258
  595SOL     OW 1783   2.975   0.312   0.507 -0.1792 -0.0615 -0.2581
  595SOL    HW1 1784   3.048   0.368   0.463  0.2637  1.3994 -0.9258
  595SOL    HW2 1785   3.006   0.243   0.573  0.7096 -2.3385  1.5365
  596SOL     OW 1786   0.049   1.481   1.027  0.1823 -0.1384 -0.2696
  596SOL    HW1 1787   0.137   1.524   1.065  1.0249 -1.7479  1.0102
  596SOL    HW2 1788   0.051   1.382   1.030  1.8631  0.2900 -2.2288
  597SOL     OW 1789   1.781   1.517   0.572 -0.3863  0.0349  0.3352
  597SOL    HW1 1790   1.809   1.588   0.645 -0.0191 -1.0769  0.6891
  597SOL    HW2 1791   1.850   1.527   0.497  1.3497 -4.2761 -1.0670
  598SOL     OW 1792   0.462   2.640   1.708 -0.3038 -0.3959 -0.6360
  598SOL    HW1 1793   0.458   2.694   1.623 -0.8116 -2.3025 -0.9598
  598SOL    HW2 1794   0.508   2.699   1.783 -1.1878  0.7309 -0.5720
  599SOL     OW 1795   2.626   1.272   2.490  0.3794  0.5884 -0.1755
  599SOL    HW1 1796   2.718   1.239   2.523  1.1102  2.5974  0.8377
  599SOL    HW2 1797   2.606   1.368   2.514 -2.0201 -1.1750 -1.1412
  600SOL     OW 1798   0.619   1.088   0.157 -0.1874 -0.3779 -0.6232
  600SOL    HW1 1799   0.706   1.146   0.171  0.7206  2.0780 -0.8443
  600SOL    HW2 1800   0.538   1.134   0.202 -3.7323  0.5991 -0.5758
  601SOL     OW 1801   0.597   0.992   0.858  0.5331  0.1960 -0.2747
  601SOL    HW1 1802   0.603   1.006   0.960 -0.5913  1.7238 -0.9076
  601SOL    HW2 1803   0.521   1.052   0.819 -1.6997  1.3861 -0.0691
  602SOL     OW 1804   1.449   2.314   0.470  0.2369  0.1916  0.0447
  602SOL    HW1 1805   1.474   2.305   0.569  2.1816 -0.5722 -0.0975
  602SOL    HW2 1806   1.528   2.363   0.428 -0.3579 -1.2403  0.3799
  603SOL     OW 1807   1.014   2.466   1.933  0.1286  0.7219 -0.1406
  603SOL    HW1 1808   1.032   2.551   1.985 -0.2949  1.2627  0.1991
  603SOL    HW2 1809   0.923   2.425   1.958  0.2678 -0.4921  1.4512
  604SOL     OW 1810   0.327   0.452   2.489 -0.4216  0.5379 -0.4376
  604SOL    HW1 1811   0.280   0.394   2.419 -2.8279 -0.0058 -2.5347
  604SOL    HW2 1812   0.298   0.548   2.478  0.4837 -4.7652  1.6921
  605SOL     OW 1813   2.584   1.172   1.341 -0.4670 -0.3386 -0.3920
  605SOL    HW1 1814   2.581   1.231   1.422  1.2479 -0.0185 -2.1659
  605SOL    HW2 1815   2.603   1.072   1.365 -0.1403  0.2020 -3.1434
  606SOL     OW 1816   0.786   1.783   2.593 -0.3315 -0.2369 -0.2633
  606SOL    HW1 1817   0.690   1.784   2.561  1.1842  1.3161  1.5759
  606SOL    HW2 1818   0.825   1.689   2.594  1.3734  0.0060 -1.9475
  607SOL     OW 1819   0.494   3.075   0.113 -0.1623 -0.6973 -0.4507
  607SOL    HW1 1820   0.541   2.995   0.063  1.5077 -0.2577  2.2698
  607SOL    HW2 1821   0.402   0.007   0.068 -1.2271  1.0999  0.5617
  608SOL     OW 1822   2.234   1.633   2.036  0.0353  0.0700 -0.5313
  608SOL    HW1 1823   2.260   1.609   1.943  2.9914  0.7994  0.8643
  608SOL    HW2 1824   2.133   1.634   2.045  3.1898  0.6201 -1.2545
  609SOL     OW 1825   2.759   0.263   0.916  0.3019 -0.3170  0.6545
  609SOL    HW1 1826   2.795   0.168   0.925 -2.2276  1.5043 -2.4064
  609SOL    HW2 1827   2.659   0.265   0.920  4.7443 -1.0868  0.3422
  610SOL     OW 1828   0.389   2.687   0.504 -0.0555  0.0225 -0.3357
  610SOL    HW1 1829   0.482   2.660   0.539 -1.6205 -1.0662 -1.2425
  610SOL    HW2 1830   0.391   2.705   0.403 -0.7869 -2.3410 -2.6467
  611SOL     OW 1831   1.604   1.291   0.131  0.2728  0.4434 -0.7424
  611SOL    HW1 1832   1.654   1.210   0.169 -0.1197 -0.4441  1.0259
  611SOL    HW2 1833   1.532   1.312   0.203 -1.4669 -0.9203 -0.3730
  612SOL     OW 1834   0.783   2.483   1.724  0.0016 -0.4138 -0.1625
  612SOL    HW1 1835   0.765   2.444   1.816  1.1359  0.8857  1.4694
  612SOL    HW2 1836   0.709   2.549   1.706 -0.2276 -2.5598 -2.2995
  613SOL     OW 1837   0.622   2.674   0.636  0.2045 -0.2946 -0.3688
  613SOL    HW1 1838   0.632   2.659   0.737  1.8754 -0.2910 -1.3709
  613SOL    HW2 1839   0.712   2.682   0.588 -0.2769  1.5299  1.2030
  614SOL     OW 1840   2.382   2.906   1.459 -0.3359 -0.3576 -0.1269
  614SOL    HW1 1841   2.349   2.997   1.495 -1.5075 -0.0458 -0.3701
  614SOL    HW2 1842   2.310   2.837   1.479 -0.7426 -1.7986 -2.2207
  615SOL     OW 1843   1.761   1.077   0.217  0.1076  0.0871  0.4983
  615SOL    HW1 1844   1.700   1.041   0.290  1.2343  0.1861  2.5024
  615SOL    HW2 1845   1.826   1.005   0.185  0.1558  0.0806 -2.5314
  616SOL     OW 1846   1.944   0.881   0.161  0.1846  0.4602 -0.6036
  616SOL    HW1 1847   2.035   0.921   0.190 -0.8565 -0.3689 -0.6229
  616SOL    HW2 1848   1.961   0.827   0.073 -2.0633  1.7353 -0.7556
  617SOL     OW 1849   1.069   0.732   2.965 -0.0041  0.9347 -0.2221
  617SOL    HW1 1850   1.071   0.833   2.981  0.3719 -0.1420 -4.2547
  617SOL    HW2 1851   1.083   0.670   3.046  1.2580  1.1969 -0.2391
  618SOL     OW 1852   0.813   2.990   2.157  0.1240 -0.9114 -0.0985
  618SOL    HW1 1853   0.843   2.984   2.062  1.0039 -0.2586  3.4110
  618SOL    HW2 1854   0.741   3.065   2.171 -3.8924  2.9365  2.1900
  619SOL     OW 1855   2.827   1.431   1.484 -0.0131 -0.2818 -0.8124
  619SOL    HW1 1856   2.878   1.522   1.468  1.8210  1.7752  0.1190
  619SOL    HW2 1857   2.730   1.446   1.510 -3.2162 -1.5039 -0.5845
  620SOL     OW 1858   3.071   0.903   2.839  0.9603 -0.4710  0.0065
  620SOL    HW1 1859   3.084   0.803   2.827  0.6374  4.7953 -1.7070
  620SOL    HW2 1860   0.062   0.951   2.783 -0.5860 -0.2978 -2.0910
  621SOL     OW 1861   2.355   1.938   2.170  0.4709  0.2798  0.1888
  621SOL    HW1 1862   2.318   1.855   2.124 -0.2879  3.5044  0.5149
  621SOL    HW2 1863   2.332   1.949   2.268  0.6564  1.0662 -0.1617
  622SOL     OW 1864   1.078   0.487   2.077 -0.3884  0.0867 -0.0002
  622SOL    HW1 1865   1.024   0.528   2.152  0.4439 -1.3269  0.2044
  622SOL    HW2 1866   1.171   0.525   2.083  1.4867 -0.5915  2.5475
  623SOL     OW 1867   0.810   1.058   2.248 -0.0519  0.3372 -0.2549
  623SOL    HW1 1868   0.722   1.006   2.228  0.1769 -1.5233  1.0000
  623SOL    HW2 1869   0.815   1.078   2.346 -1.9712 -1.0611 -4.4965
  624SOL     OW 1870   2.674   0.800   0.270  0.1738 -0.0898  0.1730
  624SOL    HW1 1871   2.628   0.806   0.361 -2.5573 -1.1938  3.8772
  624SOL    HW2 1872   2.772   0.773   0.280  2.5556 -1.8640  0.9730
  625SOL     OW 1873   0.770   1.905   0.892 -0.2163  0.1478 -0.1465
  625SOL    HW1 1874   0.686   1.947   0.939  1.9080  1.0478 -0.3729
  625SOL    HW2 1875   0.818   1.841   0.954  0.0297  1.2007  0.9990
  626SOL     OW 1876   1.892   0.740   2.600 -0.4241 -0.2611 -0.2602
  626SOL    HW1 1877   1.983   0.748   2.654  3.4225 -1.3922 -0.2012
  626SOL    HW2 1878   1.874   0.822   2.546  1.1010  1.7623  0.8764
  627SOL     OW 1879   1.355   2.757   2.745 -0.1910 -0.1603 -0.1407
  627SOL    HW1 1880   1.393   2.853   2.748 -1.2168  1.1411  0.2407
  627SOL    HW2 1881   1.381   2.713   2.653  3.0558 -4.4765 -2.7671
  628SOL     OW 1882   2.269   2.916   2.204  0.6243 -0.3596  0.2021
  628SOL    HW1 1883   2.295   2.992   2.269  2.1208  0.0319 -0.2957
  628SOL    HW2 1884   2.239   2.965   2.120  1.4598  0.9477  0.0555
  629SOL     OW 1885   0.736   0.055   2.819 -0.4853 -0.0489 -0.5915
  629SOL    HW1 1886   0.640   0.075   2.799  1.7943 -0.6243  0.4866
  629SOL    HW2 1887   0.795   0.136   2.824  1.0214  0.1435 -0.2748
  630SOL     OW 1888   1.064   0.348   2.611 -0.1476 -0.1899  0.0836
  630SOL    HW1 1889   1.081   0.259   2.560  1.0824  0.2947 -4.2892
  630SOL    HW2 1890   1.018   0.336   2.701  2.1827  1.7520  0.9015
  631SOL     OW 1891   2.132   1.287   0.704 -0.7614  0.0168  0.0182
  631SOL    HW1 1892   2.037   1.297   0.740 -0.5183  0.0141 -0.8726
  631SOL    HW2 1893   2.162   1.369   0.656 -0.5569 -3.0595 -3.5290
  632SOL     OW 1894   1.886   0.817   1.589  0.2795  0.1837 -0.2551
  632SOL    HW1 1895   1.827   0.890   1.549 -0.1529 -1.9802 -1.8279
  632SOL    HW2 1896   1.898   0.742   1.525  1.8743  3.3594 -0.8817
  633SOL     OW 1897   1.058   1.642   0.056  0.3392 -0.5397 -0.0604
  633SOL    HW1 1898   1.012   1.658   3.048 -0.5927 -0.0949 -0.3727
  633SOL    HW2 1899   1.117   1.726   0.064  1.3963  1.1812 -1.9873
  634SOL     OW 1900   2.596   2.899   1.622  0.3474  0.2482  0.0396
  634SOL    HW1 1901   2.513   2.887   1.568  0.8013 -0.8528  1.9611
  634SOL    HW2 1902   2.618   2.994   1.630 -1.1984 -2.2627  0.3257
  635SOL     OW 1903   1.614   0.429   0.948  0.4965  0.0508 -0.2936
  635SOL    HW1 1904   1.652   0.461   0.859  1.0286 -1.3373 -2.4547
  635SOL    HW2 1905   1.645   0.332   0.957 -2.1055 -0.1578  0.7271
  636SOL     OW 1906   0.833   1.249   0.180  0.3039  0.5796 -0.1663
  636SOL    HW1 1907   0.825   1.353   0.180 -0.2828 -0.9488 -0.3868
  636SOL    HW2 1908   0.902   1.218   0.111 -0.3046 -3.0221 -4.3726
  637SOL     OW 1909   2.770   2.208   2.992  0.4257  0.0116 -0.0051
  637SOL    HW1 1910   2.805   2.260   3.074 -0.7315 -0.9740 -0.4972
  637SOL    HW2 1911   2.840   2.142   2.955 -0.4772 -0.5943  0.8339
  638SOL     OW 1912   1.661   2.612   2.772  0.4592  0.1053  0.0805
  638SOL    HW1 1913   1.638   2.709   2.762 -1.7834 -1.1129  0.0994
  638SOL    HW2 1914   1.607   2.559   2.699 -0.1601  0.6603 -0.1375
  639SOL     OW 1915   1.421   1.753   1.361  0.0608 -0.4130  0.1714
  639SOL    HW1 1916   1.325   1.753   1.329  0.2915 -1.3771  1.0014
  639SOL    HW2 1917   1.487   1.701   1.304  0.5676  1.0274 -1.2277
  640SOL     OW 1918   2.198   2.764   0.659  0.5068  0.2490 -0.4334
  640SOL    HW1 1919   2.111   2.796   0.617  0.3689  1.1644 -1.1006
  640SOL    HW2 1920   2.184   2.675   0.706 -1.2294  1.0332  2.0438
  641SOL     OW 1921   3.011   0.132   2.933  0.0285 -0.1093 -0.2180
  641SOL    HW1 1922   2.988   0.203   2.863  0.2510  1.5716 -3.0018
  641SOL    HW2 1923   3.082   0.166   2.995  0.0205 -0.2910 -2.1109
  642SOL     OW 1924   2.915   0.761   1.179 -0.0151  0.2427 -0.3258
  642SOL    HW1 1925   2.822   0.797   1.160  2.2780 -1.0684 -1.1523
  642SOL    HW2 1926   2.974   0.832   1.215  1.0440 -0.4281  1.3430
  643SOL     OW 1927   0.786   1.562   1.983 -0.2593 -0.5258  0.1957
  643SOL    HW1 1928   0.707   1.570   2.047 -1.4634  0.4945 -0.6401
  643SOL    HW2 1929   0.825   1.654   1.966 -1.1064  0.3045 -0.1254
  644SOL     OW 1930   1.750   2.250   0.825 -0.4339  0.3427 -0.1035
  644SOL    HW1 1931   1.779   2.236   0.921 -0.2519  0.8009  0.1028
  644SOL    HW2 1932   1.745   2.347   0.798 -1.5243  0.1396  1.0571
  645SOL     OW 1933   2.045   2.077   0.898  0.3366 -0.3121 -0.2493
  645SOL    HW1 1934   2.111   2.129   0.837  1.8623  0.0299 -2.9775
  645SOL    HW2 1935   2.093   1.993   0.928 -0.8560 -1.5865 -1.6431
  646SOL     OW 1936   0.996   2.492   2.867 -0.3511 -0.8624 -0.0924
  646SOL    HW1 1937   1.084   2.512   2.917 -0.0325  1.4029  0.1081
  646SOL    HW2 1938   0.923   2.444   2.922  1.1460  1.1786 -3.6467
  647SOL     OW 1939   0.606   2.761   1.911 -0.1793 -0.0290 -0.2131
  647SOL    HW1 1940   0.614   2.861   1.887 -0.9671 -0.7920  0.7926
  647SOL    HW2 1941   0.701   2.726   1.924 -0.1433 -2.8410  1.7197
  648SOL     OW 1942   1.623   0.643   1.830 -0.2571  0.2111  0.9488
  648SOL    HW1 1943   1.539   0.584   1.840  1.2621  0.0147  2.3628
  648SOL    HW2 1944   1.645   0.686   1.920  1.1898  1.5298  0.8853
  649SOL     OW 1945   1.748   2.163   0.395  0.3881 -0.4339 -0.0516
  649SOL    HW1 1946   1.677   2.092   0.422  1.9080 -1.0189 -0.4639
  649SOL    HW2 1947   1.711   2.253   0.363 -0.2651  1.3287 -1.8105
  650SOL     OW 1948   1.960   1.706   1.998 -0.7723  0.4411  0.1526
  650SOL    HW1 1949   1.873   1.659   2.018  3.1742  0.9470 -1.0590
  650SOL    HW2 1950   1.977   1.721   1.896  1.0696 -1.7088  1.5622
  651SOL     OW 1951   1.649   2.573   0.082  0.1114 -0.4322  0.2881
  651SOL    HW1 1952   1.588   2.641   0.034  2.9627  0.2236  0.0712
  651SOL    HW2 1953   1.696   2.507   0.022  2.3606  0.6995 -0.7722
  652SOL     OW 1954   0.627   2.149   0.189  0.4055  0.4344 -0.2225
  652SOL    HW1 1955   0.635   2.048   0.164  0.0207  1.4551  0.9464
  652SOL    HW2 1956   0.632   2.163   0.288  1.2757  1.1421 -1.2746
  653SOL     OW 1957   2.526   2.365   1.243  0.3865  0.3447  0.1729
  653SOL    HW1 1958   2.425   2.346   1.246  2.4463  2.0036  1.1843
  653SOL    HW2 1959   2.542   2.452   1.194  1.2456  0.4298  0.3782
  654SOL     OW 1960   2.930   2.546   1.562 -0.6298 -0.5067 -0.3181
  654SOL    HW1 1961   2.866   2.608   1.514 -1.8117  1.4207 -1.8546
  654SOL    HW2 1962   2.893   2.453   1.568  0.8492  1.9251 -3.1998
  655SOL     OW 1963   3.060   2.029   1.170  0.0144  0.5023  0.1397
  655SOL    HW1 1964   0.001   1.939   1.210 -3.0000 -0.8221 -2.1108
  655SOL    HW2 1965   3.021   2.092   1.237 -1.3786 -2.0709  0.7270
  656SOL     OW 1966   0.092   2.826   2.421  0.0229 -0.3843 -0.5503
  656SOL    HW1 1967   0.001   2.867   2.405  3.1292  0.1196  0.3250
  656SOL    HW2 1968   0.129   2.801   2.326  2.2624 -1.5995 -1.5332
  657SOL     OW 1969   2.708   1.270   2.837 -0.1692 -0.2085  0.2349
  657SOL    HW1 1970   2.742   1.276   2.935  1.9013 -0.2328  4.9877
  657SOL    HW2 1971   2.677   1.367   2.812 -0.6837 -0.1721 -0.0143
  658SOL     OW 1972   1.895   1.712   0.727  0.3305  0.3337  0.0015
  658SOL    HW1 1973   1.916   1.788   0.664  1.7052 -1.3296 -0.1785
  658SOL    HW2 1974   1.843   1.750   0.808 -0.0749  1.2555  2.0105
  659SOL     OW 1975   1.319   0.803   1.414 -0.1352 -0.0415 -0.3000
  659SOL    HW1 1976   1.343   0.872   1.348  1.4212 -3.1648 -0.3433
  659SOL    HW2 1977   1.401   0.766   1.461 -0.7250  0.5153 -1.1376
  660SOL     OW 1978   1.492   1.497   3.009 -0.2021  0.2499 -0.7465
  660SOL    HW1 1979   1.418   1.445   3.056 -0.6862 -2.9624  0.4428
  660SOL    HW2 1980   1.543   1.426   2.952 -0.2826 -3.8340 -0.6511
  661SOL     OW 1981   0.306   2.266   0.517 -0.1893 -0.2038  0.1287
  661SOL    HW1 1982   0.277   2.204   0.593  0.2515  0.6286  1.9868
  661SOL    HW2 1983   0.399   2.302   0.540 -1.9107  1.3193  0.6046
  662SOL     OW 1984   0.178   0.639   2.112 -0.1753  0.2888 -0.4388
  662SOL    HW1 1985   0.237   0.672   2.192  2.2471  0.6331  0.5255
  662SOL    HW2 1986   0.130   0.551   2.138 -1.0223 -0.6193 -2.6987
  663SOL     OW 1987   1.794   1.401   1.027  0.2622 -0.4778  0.3394
  663SOL    HW1 1988   1.693   1.399   1.044 -2.2455  0.4757  0.1779
  663SOL    HW2 1989   1.826   1.302   1.038 -0.0855 -0.6288  2.9963
  664SOL     OW 1990   0.844   1.001   1.142  0.2574  0.0856 -0.1722
  664SOL    HW1 1991   0.865   0.917   1.196  1.4368 -0.6071 -0.9737
  664SOL    HW2 1992   0.745   1.020   1.129  0.8752  0.1218 -0.4284
  665SOL     OW 1993   1.113   2.909   2.864 -0.1259 -0.0729  0.0164
  665SOL    HW1 1994   1.163   2.963   2.936  1.7587 -3.9351  3.4013
  665SOL    HW2 1995   1.178   2.841   2.831 -3.6473  2.1868  0.7219
  666SOL     OW 1996   3.037   0.048   2.541 -0.3408  0.2911 -0.5385
  666SOL    HW1 1997   3.083   0.008   2.625 -0.8480  1.3771 -0.6123
  666SOL    HW2 1998   2.942   0.079   2.556  3.5420 -0.8337  0.7174
  667SOL     OW 1999   2.204   1.225   2.025  0.0417  0.2821 -0.5568
  667SOL    HW1 2000   2.197   1.307   2.086 -1.4271  0.5181 -1.4048
  667SOL    HW2 2001   2.135   1.249   1.949 -4.3924  2.4787 -0.7176
  668SOL     OW 2002   0.474   1.245   2.466  0.1924 -0.4823 -0.6133
  668SOL    HW1 2003   0.412   1.267   2.542 -0.8913  0.3356 -2.7381
  668SOL    HW2 2004   0.424   1.195   2.392  2.0958 -1.6072  0.3056
  669SOL     OW 2005   2.049   2.333   2.727  0.3604  0.1403  0.0548
  669SOL    HW1 2006   2.055   2.243   2.673  2.7704 -1.0926 -0.6322
  669SOL    HW2 2007   2.132   2.338   2.788 -1.2353  2.4402 -3.1675
  670SOL     OW 2008   2.085   1.117   2.258  0.3018  0.5081  0.0728
  670SOL    HW1 2009   2.046   1.157   2.338 -1.1202  0.7688  0.3813
  670SOL    HW2 2010   2.127   1.186   2.195  3.6554  0.6788 -1.9908
  671SOL     OW 2011   2.562   1.467   0.029 -0.1188  0.5831 -0.0041
  671SOL    HW1 2012   2.513   1.375   0.009 -1.2680 -5.0430 -1.2443
  671SOL    HW2 2013   2.495   1.544   0.028  0.0716  0.7635 -2.4240
  672SOL     OW 2014   2.701   0.916   1.929 -0.2163 -0.4291  0.0806
  672SOL    HW1 2015   2.773   0.859   1.884 -2.4607 -0.4929 -1.4674
  672SOL    HW2 2016   2.672   0.993   1.869  1.2610 -0.7593 -1.1915
  673SOL     OW 2017   2.590   0.901   1.386  0.0902  0.1442  0.1841
  673SOL    HW1 2018   2.665   0.864   1.439 -1.4622 -1.1772 -0.3211
  673SOL    HW2 2019   2.507   0.857   1.431  0.5987 -2.3100  1.6713
  674SOL     OW 2020   1.927   1.983   2.066  0.0065 -0.3078  0.3009
  674SOL    HW1 2021   1.934   1.889   2.026 -0.1800 -2.7549 -1.0012
  674SOL    HW2 2022   1.852   2.032   2.020  1.4224 -2.8004 -0.3629
  675SOL     OW 2023   0.408   0.673   0.991 -0.6308  0.2709  0.3892
  675SOL    HW1 2024   0.484   0.733   0.961  0.2790 -2.7057  0.3924
  675SOL    HW2 2025   0.342   0.708   1.059  0.0373 -1.3025  1.4317
  676SOL     OW 2026   1.688   1.149   1.289  0.5536 -0.1930 -0.5508
  676SOL    HW1 2027   1.785   1.161   1.321  1.8177 -0.3997  1.0833
  676SOL    HW2 2028   1.643   1.066   1.326 -3.2169  1.6620  0.2057
  677SOL     OW 2029   2.127   1.458   2.459 -0.0784  0.4873 -0.4565
  677SOL    HW1 2030   2.129   1.549   2.416  0.0663 -3.2984  0.9474
  677SOL    HW2 2031   2.219   1.412   2.447  1.3528  1.5201 -0.8471
  678SOL     OW 2032   0.022   1.437   0.686 -0.0469  0.1724  0.1899
  678SOL    HW1 2033   3.070   1.360   0.743  0.7394 -0.9944  0.7794
  678SOL    HW2 2034   3.040   1.510   0.696  1.9742 -1.0599  0.1468
  679SOL     OW 2035   2.980   2.684   0.540 -0.0467 -0.2939 -0.8830
  679SOL    HW1 2036   2.956   2.783   0.520  3.0953  2.7439 -0.1611
  679SOL    HW2 2037   2.953   2.663   0.636  1.9916  0.6836 -0.6806
  680SOL     OW 2038   0.036   2.346   1.186  0.1729 -0.0433  0.0614
  680SOL    HW1 2039   0.073   2.332   1.277  2.6427  0.0489  0.4200
  680SOL    HW2 2040   3.034   2.297   1.174  0.4064  1.6207 -0.2541
  681SOL     OW 2041   0.333   1.423   1.187 -0.2443 -0.6053 -0.0660
  681SOL    HW1 2042   0.402   1.487   1.220  3.5200  2.1330 -2.9657
  681SOL    HW2 2043   0.245   1.424   1.239 -1.4851  1.3748  0.2221
  682SOL     OW 2044   1.707   2.794   0.933  0.0724  0.0959  0.7314
  682SOL    HW1 2045   1.658   2.846   1.007  0.2073 -0.3444 -3.4757
  682SOL    HW2 2046   1.655   2.711   0.907 -0.2953  2.6749  0.7426
  683SOL     OW 2047   2.162   1.239   1.012  0.2847  0.2253  0.7337
  683SOL    HW1 2048   2.168   1.243   0.907  3.2800  0.8576  1.6992
  683SOL    HW2 2049   2.228   1.170   1.046  1.3481  1.6647 -0.8092
  684SOL     OW 2050   0.634   1.918   1.947  0.3295  0.5153 -0.1079
  684SOL    HW1 2051   0.602   1.930   1.857  1.9726 -1.7036  4.9727
  684SOL    HW2 2052   0.552   1.909   2.006  1.6994  2.8531 -0.9978
  685SOL     OW 2053   2.161   1.560   0.272 -0.7424  0.0464  0.3202
  685SOL    HW1 2054   2.201   1.651   0.247 -3.0538  2.7895 -0.8582
  685SOL    HW2 2055   2.060   1.564   0.279 -0.9912 -3.0228 -3.0047
  686SOL     OW 2056   3.042   0.543   0.658 -0.1396 -0.0127  0.4050
  686SOL    HW1 2057   3.025   0.441   0.636 -0.5872 -6.4292  0.4246
  686SOL    HW2 2058   0.056   0.564   0.645 -0.9713  0.3443 -1.0174
  687SOL     OW 2059   1.217   2.929   0.224 -0.0525  0.0496  0.4308
  687SOL    HW1 2060   1.167   2.919   0.309  1.5539 -0.3144 -0.8943
  687SOL    HW2 2061   1.190   2.848   0.170 -0.5512  0.1139  2.8192
  688SOL     OW 2062   1.988   1.691   2.322 -0.1121 -1.0404  0.2957
  688SOL    HW1 2063   1.905   1.648   2.368  1.3616  0.8892 -4.0312
  688SOL    HW2 2064   1.993   1.678   2.221  1.2770  1.8124  0.8467
  689SOL     OW 2065   2.598   0.704   2.083  0.2396  0.1498 -0.4831
  689SOL    HW1 2066   2.620   0.786   2.029  2.9298 -3.5053  2.1540
  689SOL    HW2 2067   2.606   0.725   2.187  2.1993 -0.3254  3.4119
  690SOL     OW 2068   1.563   0.550   1.185 -1.0239  0.2205  0.0477
  690SOL    HW1 2069   1.464   0.536   1.211  0.8442  1.5455 -0.3904
  690SOL    HW2 2070   1.583   0.485   1.103 -2.2380 -1.7824 -3.1485
  691SOL     OW 2071   1.025   1.850   1.473  0.3928  0.6674  0.3317
  691SOL    HW1 2072   1.077   1.814   1.391  0.9974  2.9626 -2.5695
  691SOL    HW2 2073   1.042   1.952   1.489 -0.3019 -0.8763  2.0784
  692SOL     OW 2074   1.591   0.295   2.081 -0.4269 -0.7910  0.3554
  692SOL    HW1 2075   1.640   0.384   2.070 -0.8031  0.2780 -1.4725
  692SOL    HW2 2076   1.513   0.284   2.008 -0.6968 -0.6887 -3.2289
  693SOL     OW 2077   0.523   1.041   2.985 -0.0558 -0.1089 -0.1279
  693SOL    HW1 2078   0.558   1.072   3.077  1.0266  1.7744  1.0127
  693SOL    HW2 2079   0.599   0.985   2.945  0.6052  0.9000 -1.7122
  694SOL     OW 2080   2.157   2.722   0.944 -0.1242  0.5134  0.4613
  694SOL    HW1 2081   2.159   2.718   1.049 -1.1952 -1.2224  2.4303
  694SOL    HW2 2082   2.241   2.772   0.911  0.1169  0.9608  0.9067
  695SOL     OW 2083   1.495   1.437   2.588 -0.3412  0.1082 -0.1320
  695SOL    HW1 2084   1.436   1.519   2.574  0.3116  1.1795  3.7296
  695SOL    HW2 2085   1.446   1.368   2.646 -0.5203 -0.0943 -2.4515
  696SOL     OW 2086   1.288   0.560   1.280 -0.3404 -0.5733  0.5106
  696SOL    HW1 2087   1.280   0.491   1.351  1.3365 -0.5243 -3.2313
  696SOL    HW2 2088   1.282   0.655   1.314  0.3852 -3.6540 -0.8194
  697SOL     OW 2089   1.371   0.217   1.958 -0.3456  0.3084 -0.1576
  697SOL    HW1 2090   1.387   0.130   1.904 -1.4482  1.3644  1.8783
  697SOL    HW2 2091   1.341   0.205   2.057  1.2272  0.1969  2.1298
  698SOL     OW 2092   1.702   1.337   2.465 -0.0473  0.0114  0.2980
  698SOL    HW1 2093   1.675   1.324   2.366 -0.4661 -0.1448 -1.0746
  698SOL    HW2 2094   1.630   1.378   2.524 -0.2113 -1.5001 -2.1993
  699SOL     OW 2095   1.548   1.300   1.469  0.5677  0.2445  0.1857
  699SOL    HW1 2096   1.621   1.259   1.407  1.3867 -1.4561  0.8094
  699SOL    HW2 2097   1.470   1.346   1.420  2.3396  1.4559  1.5605
  700SOL     OW 2098   1.622   0.028   0.327 -0.2570 -0.1100 -0.1180
  700SOL    HW1 2099   1.598   0.110   0.386 -2.4463  0.2329  0.5264
  700SOL    HW2 2100   1.571   3.030   0.346  0.1304  0.0125 -2.2566
  701SOL     OW 2101   0.383   0.069   1.552 -0.3919  0.5310 -0.8271
  701SOL    HW1 2102   0.406   3.073   1.613 -1.4574  0.1288  3.2820
  701SOL    HW2 2103   0.294   0.049   1.505 -0.7932 -2.4140  0.1006
  702SOL     OW 2104   1.351   2.691   0.893  0.4743  0.2434 -0.5448
  702SOL    HW1 2105   1.325   2.790   0.885  2.4371  2.1964 -2.0690
  702SOL    HW2 2106   1.401   2.651   0.811 -0.6521 -2.0612 -1.5489
  703SOL     OW 2107   2.484   2.961   1.891 -0.1299 -0.0104  0.1523
  703SOL    HW1 2108   2.401   3.018   1.911 -1.1538  0.7614  0.0419
  703SOL    HW2 2109   2.568   3.023   1.877  0.3468  0.1957  2.2861
  704SOL     OW 2110   1.204   2.065   1.083  0.1686  0.0654 -0.0854
  704SOL    HW1 2111   1.167   2.107   1.169 -2.0924  0.5524 -1.2467
  704SOL    HW2 2112   1.303   2.086   1.067  1.6967 -0.2175  0.1530
  705SOL     OW 2113   2.786   1.468   1.854  0.1161  0.0136 -0.1397
  705SOL    HW1 2114   2.753   1.469   1.951  0.9191  2.6083 -0.4812
  705SOL    HW2 2115   2.779   1.377   1.811  3.7418  1.3379  1.6222
  706SOL     OW 2116   1.231   0.009   0.623 -0.6402 -0.2515  0.1848
  706SOL    HW1 2117   1.178   0.085   0.580  0.2847  0.2005 -1.5207
  706SOL    HW2 2118   1.222   0.029   0.723 -0.4707  0.4647 -1.5542
  707SOL     OW 2119   0.986   2.520   2.286 -0.2373 -0.1635 -0.1228
  707SOL    HW1 2120   0.886   2.504   2.286 -1.1033  2.0778  1.4870
  707SOL    HW2 2121   1.043   2.433   2.308 -0.6831 -1.1819 -2.7637
  708SOL     OW 2122   0.198   2.328   1.411  0.2269  0.4941  0.0276
  708SOL    HW1 2123   0.204   2.281   1.501  1.7737 -0.6322 -1.8576
  708SOL    HW2 2124   0.294   2.354   1.385 -1.3893 -0.3629 -1.6046
  709SOL     OW 2125   1.954   0.522   1.911  0.6297 -0.2072  0.0799
  709SOL    HW1 2126   1.961   0.491   2.009 -1.8690 -1.1779  0.8747
  709SOL    HW2 2127   1.869   0.488   1.867  1.0252 -0.4384  1.9131
  710SOL     OW 2128   2.599   0.524   1.523 -0.3214  0.3830 -0.4321
  710SOL    HW1 2129   2.570   0.425   1.525  0.0814  1.4366  0.8543
  710SOL    HW2 2130   2.678   0.534   1.458  2.4037 -2.4877 -0.8064
  711SOL     OW 2131   0.154   2.761   0.656  0.0616 -0.2756  0.5612
  711SOL    HW1 2132   0.248   2.734   0.623  2.4864 -0.3847 -0.2922
  711SOL    HW2 2133   0.077   2.719   0.601 -0.1390  0.3342  0.8384
  712SOL     OW 2134   0.349   2.359   2.378 -0.3379 -0.4374 -0.4294
  712SOL    HW1 2135   0.324   2.350   2.278 -1.5103 -1.4583 -0.0089
  712SOL    HW2 2136   0.266   2.361   2.435  1.5219 -0.4144 -2.6887
  713SOL     OW 2137   1.625   0.705   0.185 -0.0115  0.8236 -0.4999
  713SOL    HW1 2138   1.677   0.684   0.272 -0.3426 -1.3210 -0.2156
  713SOL    HW2 2139   1.669   0.672   0.098 -1.0963  0.8212 -0.4662
  714SOL     OW 2140   1.581   1.989   0.472 -0.1313  0.3426  0.4756
  714SOL    HW1 2141   1.540   2.032   0.550  2.0468 -0.5416 -0.2188
  714SOL    HW2 2142   1.514   1.924   0.434 -1.1942 -0.3947  0.0077
  715SOL     OW 2143   2.823   0.184   0.335 -0.2190 -0.1157  0.5012
  715SOL    HW1 2144   2.738   0.166   0.386  1.1068  2.5388  0.8834
  715SOL    HW2 2145   2.885   0.235   0.402  0.4057  2.4605  0.4267
  716SOL     OW 2146   0.611   0.091   2.474  0.0915 -0.1392  0.2295
  716SOL    HW1 2147   0.558   0.154   2.531 -1.5537 -1.3554  0.0642
  716SOL    HW2 2148   0.590   3.074   2.490  2.4666 -1.3356 -0.5348
  717SOL     OW 2149   0.056   0.644   2.833 -0.0762  0.2506 -0.1826
  717SOL    HW1 2150   0.129   0.578   2.809 -1.9338 -3.0559  0.8296
  717SOL    HW2 2151   3.071   0.603   2.894  0.6077 -0.7452  1.3781
  718SOL     OW 2152   1.113   0.614   0.506  0.3670 -0.3873  0.6902
  718SOL    HW1 2153   1.132   0.582   0.602  0.1700 -3.3304  1.2235
  718SOL    HW2 2154   1.192   0.590   0.449  0.9059  1.1013 -0.0179
  719SOL     OW 2155   2.820   2.394   2.787 -0.3667  0.5173  0.0444
  719SOL    HW1 2156   2.823   2.382   2.688  0.1797 -0.4571  4.0724
  719SOL    HW2 2157   2.790   2.309   2.837 -2.3048 -3.8418  0.4344
  720SOL     OW 2158   1.511   0.701   1.577  0.0023  0.2636  0.4315
  720SOL    HW1 2159   1.529   0.605   1.542 -2.0034 -3.1990 -0.7136
  720SOL    HW2 2160   1.556   0.708   1.668 -1.6897  1.7875 -0.1014
  721SOL     OW 2161   2.900   0.782   0.776 -0.6314 -0.6057 -0.2518
  721SOL    HW1 2162   2.872   0.683   0.777 -2.2091 -2.1561 -0.4037
  721SOL    HW2 2163   3.000   0.790   0.801 -0.1030  0.7996 -1.5638
  722SOL     OW 2164   1.411   2.215   2.374  0.5772 -0.1413 -0.2267
  722SOL    HW1 2165   1.407   2.320   2.366  0.0948 -0.3458 -0.0638
  722SOL    HW2 2166   1.426   2.184   2.472  1.0660  0.7331  1.9729
  723SOL     OW 2167   0.620   0.454   0.487  0.3439 -0.1238 -0.1072
  723SOL    HW1 2168   0.716   0.480   0.484  0.5642  0.4670 -1.5481
  723SOL    HW2 2169   0.564   0.527   0.540  0.6500 -1.0284 -2.4078
  724SOL     OW 2170   1.139   2.122   2.074  0.8379  0.7397 -0.2034
  724SOL    HW1 2171   1.150   2.102   1.974 -4.0354  1.9502 -1.9101
  724SOL    HW2 2172   1.041   2.120   2.092  0.4548 -1.3637  3.3191
  725SOL     OW 2173   0.237   0.872   1.395 -0.6539 -0.4997  0.3802
  725SOL    HW1 2174   0.313   0.929   1.435  1.3857  0.9442 -1.4275
  725SOL    HW2 2175   0.212   0.791   1.451  1.0617  1.2743  3.7279
  726SOL     OW 2176   1.775   0.505   0.719 -0.3603  0.5552  0.2799
  726SOL    HW1 2177   1.731   0.596   0.739  0.7345  1.1325 -2.5151
  726SOL    HW2 2178   1.737   0.464   0.633 -0.4004 -0.5906  0.6829
  727SOL     OW 2179   1.724   0.865   2.107  0.0111  0.3547  0.0255
  727SOL    HW1 2180   1.825   0.859   2.100 -1.4211 -0.4127 -0.1338
  727SOL    HW2 2181   1.708   0.916   2.192  2.5112 -1.6273  0.6412
  728SOL     OW 2182   1.683   2.764   1.502 -0.4240 -0.3399  0.9722
  728SOL    HW1 2183   1.688   2.808   1.591 -1.4225 -0.2696 -0.4347
  728SOL    HW2 2184   1.649   2.670   1.503 -0.6913  2.1864 -1.4985
  729SOL     OW 2185   1.415   0.470   1.860  0.2051 -0.3157  0.0193
  729SOL    HW1 2186   1.426   0.368   1.860 -2.9729  0.7592 -3.6603
  729SOL    HW2 2187   1.384   0.511   1.951 -2.9768 -0.0076  3.2252
  730SOL     OW 2188   0.730   1.822   1.448 -0.0089  0.0968 -0.5623
  730SOL    HW1 2189   0.704   1.898   1.383 -0.7392 -3.3709 -1.1439
  730SOL    HW2 2190   0.832   1.819   1.460  0.6028 -0.2100 -2.8302
  731SOL     OW 2191   0.659   0.213   0.112 -0.2177  0.1466  0.2816
  731SOL    HW1 2192   0.628   0.303   0.149 -2.9897 -2.3344 -2.6326
  731SOL    HW2 2193   0.594   0.139   0.130 -0.0535  1.8910 -2.1850
  732SOL     OW 2194   0.363   0.847   0.141  0.3366  0.0064 -0.1351
  732SOL    HW1 2195   0.290   0.807   0.077 -3.9578 -1.2992 -2.5070
  732SOL    HW2 2196   0.452   0.820   0.099 -0.8029  0.1684  0.2814
  733SOL     OW 2197   1.411   1.876   1.796 -0.1994  0.2645 -0.3043
  733SOL    HW1 2198   1.466   1.879   1.882 -0.9934 -1.4861 -0.8830
  733SOL    HW2 2199   1.389   1.779   1.770  0.5950 -1.4571 -2.0557
  734SOL     OW 2200   2.760   2.618   2.060  0.0673 -0.6901  0.1082
  734SOL    HW1 2201   2.847   2.574   2.086  0.2397  1.4218  1.6560
  734SOL    HW2 2202   2.764   2.719   2.064 -0.5975  0.5785  0.1170
  735SOL     OW 2203   0.962   2.807   0.876  0.0249  0.3362 -0.0501
  735SOL    HW1 2204   0.972   2.727   0.814 -0.1353  3.7916  0.8158
  735SOL    HW2 2205   1.051   2.859   0.872  1.0097  1.2472  4.1591
  736SOL     OW 2206   1.290   0.931   2.769  0.3982 -0.0674 -0.0476
  736SOL    HW1 2207   1.262   0.862   2.699 -0.1466 -0.9826 -0.4904
  736SOL    HW2 2208   1.384   0.909   2.801 -1.0767  0.8361 -2.3528
  737SOL     OW 2209   0.069   0.799   0.166 -0.6029  0.1491  0.2400
  737SOL    HW1 2210   0.131   0.762   0.092  2.1809 -0.6409 -1.3190
  737SOL    HW2 2211   0.003   0.864   0.120  0.6248  0.8039 -0.1835
  738SOL     OW 2212   0.054   2.832   1.314  0.3267  0.3994 -0.6121
  738SOL    HW1 2213   0.071   2.759   1.383  2.0215  3.1559  0.4288
  738SOL    HW2 2214   3.060   2.799   1.256  4.9920  0.7517 -3.5214
  739SOL     OW 2215   1.486   3.039   0.646 -0.2562 -0.4177  0.2121
  739SOL    HW1 2216   1.501   0.046   0.690 -0.8099 -3.3725  0.5910
  739SOL    HW2 2217   1.395   3.040   0.603  0.9243 -1.4495 -1.8706
  740SOL     OW 2218   1.565   2.907   1.160 -0.4933 -0.2328 -0.2649
  740SOL    HW1 2219   1.650   2.894   1.214 -2.5453 -1.0104  0.0508
  740SOL    HW2 2220   1.501   2.837   1.193  2.2630  0.5559  2.6919
  741SOL     OW 2221   1.994   0.552   0.567  0.0226  0.2927  0.0278
  741SOL    HW1 2222   1.922   0.533   0.637 -1.4893 -1.6548 -1.3916
  741SOL    HW2 2223   1.953   0.617   0.497  1.2516 -0.1250 -1.9498
  742SOL     OW 2224   1.083   2.454   1.663 -0.1212  0.6470  0.0853
  742SOL    HW1 2225   1.056   2.482   1.757  0.3385 -1.4074 -0.0240
  742SOL    HW2 2226   1.166   2.393   1.659 -0.2788  1.3283  0.5518
  743SOL     OW 2227   2.349   0.567   1.933 -0.3825 -0.2916  0.5266
  743SOL    HW1 2228   2.331   0.628   2.011  0.0301  0.4980  0.9677
  743SOL    HW2 2229   2.442   0.595   1.890  1.3016 -2.3166 -0.4349
  744SOL     OW 2230   2.041   0.322   0.873 -0.8223  0.5445 -0.0601
  744SOL    HW1 2231   2.113   0.365   0.930 -2.1402 -2.2002  1.4374
  744SOL    HW2 2232   1.977   0.391   0.834 -1.4635  0.9524  0.4164
  745SOL     OW 2233   2.030   1.327   1.831  0.6277  0.7505 -0.0660
  745SOL    HW1 2234   2.099   1.403   1.809  1.5198 -1.3166 -1.6429
  745SOL    HW2 2235   1.993   1.284   1.744 -1.8913  0.5414 -0.6471
  746SOL     OW 2236   1.317   1.562   0.765  0.4703  0.2070  0.5502
  746SOL    HW1 2237   1.283   1.660   0.756  1.6270  1.0568  1.1401
  746SOL    HW2 2238   1.255   1.497   0.818  0.5355 -1.0607  1.1972
  747SOL     OW 2239   1.904   1.165   1.077 -0.0210 -0.1745  0.9977
  747SOL    HW1 2240   1.913   1.074   1.127  1.8222  0.0936  1.9439
  747SOL    HW2 2241   1.999   1.199   1.053  0.4205 -0.9090 -0.8962
  748SOL     OW 2242   0.176   3.002   0.121 -0.0035 -0.0308  1.0800
  748SOL    HW1 2243   0.217   3.015   0.214 -1.2500  0.5269 -3.1423
  748SOL    HW2 2244   0.137   2.904   0.119  0.1557 -2.4720  2.4753
  749SOL     OW 2245   0.011   0.438   2.157 -0.0062 -0.0983  0.0249
  749SOL    HW1 2246   3.057   0.436   2.250  0.3325  1.8884  0.5516
  749SOL    HW2 2247   3.036   0.403   2.086  1.6936 -0.9278 -1.0169
  750SOL     OW 2248   1.773   2.880   1.758  0.5785  0.1019 -0.3006
  750SOL    HW1 2249   1.869   2.893   1.788 -3.1512 -1.7973  0.3458
  750SOL    HW2 2250   1.714   2.928   1.825 -0.7766 -1.0502 -0.1827
  751SOL     OW 2251   2.563   0.543   0.431  0.1649  0.0845 -0.1455
  751SOL    HW1 2252   2.545   0.634   0.470 -4.1303 -2.1805  1.7693
  751SOL    HW2 2253   2.498   0.480   0.483 -3.7163 -0.0949 -0.6228
  752SOL     OW 2254   0.245   2.798   0.906  0.0498 -0.4446  0.4994
  752SOL    HW1 2255   0.198   2.790   0.812  2.1585  3.1767 -3.9450
  752SOL    HW2 2256   0.297   2.884   0.906  0.5959 -0.5144  0.8672
  753SOL     OW 2257   1.006   0.325   1.357  0.2357  0.1763 -0.2596
  753SOL    HW1 2258   0.956   0.248   1.309 -1.6634 -1.3731  0.5782
  753SOL    HW2 2259   1.032   0.298   1.452 -0.5601  0.7178 -4.2874
  754SOL     OW 2260   0.738   2.824   2.387 -0.0934  0.7099  0.3723
  754SOL    HW1 2261   0.651   2.876   2.406 -0.5508 -0.9442 -0.3535
  754SOL    HW2 2262   0.775   2.861   2.301 -1.1795  0.9447 -3.2161
  755SOL     OW 2263   2.188   1.070   0.254  0.5206 -0.0456  0.4079
  755SOL    HW1 2264   2.237   1.099   0.340  0.2479  0.8365  1.7002
  755SOL    HW2 2265   2.162   1.158   0.204  1.1172  2.7968  1.2624
  756SOL     OW 2266   2.345   1.839   2.735 -0.0116 -0.0180 -0.1695
  756SOL    HW1 2267   2.429   1.819   2.791 -1.1828  0.2114 -2.8091
  756SOL    HW2 2268   2.367   1.821   2.639  1.5343  0.5290  2.8963
  757SOL     OW 2269   1.540   0.277   1.291  0.0758 -0.2538 -0.5119
  757SOL    HW1 2270   1.458   0.268   1.345 -0.1515  2.9126 -1.4716
  757SOL    HW2 2271   1.526   0.229   1.204 -0.2166  2.4627  2.4926
  758SOL     OW 2272   1.494   2.577   0.694 -0.8320  0.3954  0.1296
  758SOL    HW1 2273   1.564   2.501   0.712  0.1304  0.9027  0.1021
  758SOL    HW2 2274   1.511   2.624   0.605 -0.1747 -3.9121  0.3730
  759SOL     OW 2275   2.365   0.437   1.060  0.2787 -0.3902  0.0898
  759SOL    HW1 2276   2.421   0.485   0.989 -1.4830  0.1551  1.0128
  759SOL    HW2 2277   2.310   0.495   1.118  0.8263 -1.3737 -1.3790
  760SOL     OW 2278   2.390   1.037   1.199 -0.2923 -0.3972  0.1044
  760SOL    HW1 2279   2.469   1.076   1.248 -1.3188  1.1612  0.8434
  760SOL    HW2 2280   2.408   1.022   1.098  0.1284 -0.4926 -3.9319
  761SOL     OW 2281   0.465   0.627   0.614  0.1822  0.4019 -0.4081
  761SOL    HW1 2282   0.514   0.687   0.678 -1.1559  0.0181 -3.2782
  761SOL    HW2 2283   0.366   0.621   0.644 -1.4574 -1.6796  2.0461
  762SOL     OW 2284   1.754   1.910   1.366  0.0049  0.6339 -0.5449
  762SOL    HW1 2285   1.854   1.904   1.392 -5.3656 -3.2009  0.7090
  762SOL    HW2 2286   1.689   1.902   1.454 -3.5411 -1.3032  4.6707
  763SOL     OW 2287   1.087   1.483   1.465  0.3736  0.6885 -0.6263
  763SOL    HW1 2288   1.009   1.419   1.446  0.5335  1.0480  0.4758
  763SOL    HW2 2289   1.069   1.540   1.550 -1.5341 -0.2908  0.4273
  764SOL     OW 2290   2.793   1.712   2.309  0.4086  0.2228 -0.2107
  764SOL    HW1 2291   2.749   1.747   2.225  1.5774 -2.2289  1.3054
  764SOL    HW2 2292   2.879   1.760   2.323 -1.8554 -2.3362  1.1515
  765SOL     OW 2293   1.329   2.496   1.390  0.4593 -0.2389 -0.2022
  765SOL    HW1 2294   1.315   2.402   1.351  0.3544  1.1733 -0.2275
  765SOL    HW2 2295   1.366   2.563   1.322  2.1660  2.1329  1.6618
  766SOL     OW 2296   0.146   2.416   2.552 -0.0286 -0.2674 -0.2253
  766SOL    HW1 2297   0.165   2.514   2.585  0.5024  1.5972  1.5568
  766SOL    HW2 2298   0.049   2.400   2.523 -0.1857 -0.3077  1.5349
  767SOL     OW 2299   1.283   0.694   2.614 -0.3002  0.1826  0.4044
  767SOL    HW1 2300   1.350   0.625   2.647  2.5592  0.6415 -0.0884
  767SOL    HW2 2301   1.204   0.646   2.587  0.7582 -0.8355  3.5031
  768SOL     OW 2302   1.217   2.151   3.015  0.9731 -0.6832 -0.5331
  768SOL    HW1 2303   1.156   2.208   3.073 -0.1361 -2.2043 -1.6580
  768SOL    HW2 2304   1.315   2.145   3.051  0.0100 -0.6781  0.7360
  769SOL     OW 2305   0.375   2.691   1.085 -0.0662  0.3947 -0.4451
  769SOL    HW1 2306   0.305   2.714   1.020  0.9675  0.2527 -1.0252
  769SOL    HW2 2307   0.367   2.753   1.166 -0.1836 -1.1886 -2.4675
  770SOL     OW 2308   1.531   0.862   2.899  0.4242  0.3645  0.2540
  770SOL    HW1 2309   1.528   0.962   2.929 -1.1140  0.5685  0.8407
  770SOL    HW2 2310   1.622   0.817   2.895  1.1246  0.5028  1.1526
  771SOL     OW 2311   0.380   0.041   2.231  0.3355  0.4150 -0.3892
  771SOL    HW1 2312   0.362   0.014   2.328 -0.1110  0.2917  0.0669
  771SOL    HW2 2313   0.476   0.069   2.218 -1.8072  0.0418 -2.6315
  772SOL     OW 2314   1.980   2.797   2.006 -0.2588 -0.5693  0.1665
  772SOL    HW1 2315   2.010   2.867   1.936 -5.6014  0.4847 -1.8059
  772SOL    HW2 2316   1.958   2.837   2.100  1.4239 -2.6798  1.1335
  773SOL     OW 2317   0.813   2.237   1.627 -0.5795  0.5604  0.0233
  773SOL    HW1 2318   0.909   2.203   1.628 -1.6984 -0.5157  0.4231
  773SOL    HW2 2319   0.809   2.340   1.635  0.4374  0.0458 -0.8664
  774SOL     OW 2320   1.548   0.144   2.292 -0.2333 -0.1820 -0.1401
  774SOL    HW1 2321   1.448   0.163   2.296  0.1298  0.4518 -0.0829
  774SOL    HW2 2322   1.591   0.189   2.210  0.0885 -2.2835 -0.1118
  775SOL     OW 2323   2.319   2.614   0.278  0.1062 -0.2537 -0.6005
  775SOL    HW1 2324   2.254   2.663   0.218  0.4721 -1.3630  1.2545
  775SOL    HW2 2325   2.366   2.686   0.335  1.2831  4.0564  1.0251
  776SOL     OW 2326   2.456   0.505   2.354  0.3268  0.1852 -0.2890
  776SOL    HW1 2327   2.456   0.456   2.441  2.8157  1.1118 -0.8408
  776SOL    HW2 2328   2.513   0.590   2.362 -0.2433 -1.2070  0.4924
  777SOL     OW 2329   2.370   1.327   2.348  0.6399 -0.6088 -0.1738
  777SOL    HW1 2330   2.431   1.295   2.420 -1.4325 -0.9296 -2.0507
  777SOL    HW2 2331   2.398   1.298   2.256 -0.9383 -0.4218 -1.4594
  778SOL     OW 2332   2.158   0.686   2.164  0.3265 -0.0403  0.2844
  778SOL    HW1 2333   2.086   0.756   2.167  0.3969  0.5706  1.7550
  778SOL    HW2 2334   2.139   0.619   2.238  0.2085 -0.3809 -0.0249
  779SOL     OW 2335   2.986   0.281   0.151  0.7913  1.0249  0.0810
  779SOL    HW1 2336   3.015   0.376   0.174  2.7123 -1.3294 -0.9904
  779SOL    HW2 2337   2.915   0.245   0.218 -0.1406  0.0168 -0.8521
  780SOL     OW 2338   2.712   0.674   2.924  0.1938 -0.0839  0.6275
  780SOL    HW1 2339   2.793   0.615   2.947 -0.9038 -1.1858 -1.1284
  780SOL    HW2 2340   2.644   0.671   3.000 -1.7167 -3.0784 -0.8832
  781SOL     OW 2341   0.136   0.051   1.389 -0.1667  0.1327  0.0996
  781SOL    HW1 2342   0.163   0.150   1.372  0.6089  1.5323 -1.1421
  781SOL    HW2 2343   0.072   0.016   1.316  0.5567 -0.8358 -0.2886
  782SOL     OW 2344   1.784   2.484   0.693  0.4090  0.3412 -0.0566
  782SOL    HW1 2345   1.794   2.544   0.610 -0.8926 -0.4131  2.2134
  782SOL    HW2 2346   1.866   2.496   0.753 -1.4714  0.1895 -0.4530
  783SOL     OW 2347   0.647   1.354   1.271  0.3320 -0.3371 -0.4188
  783SOL    HW1 2348   0.675   1.383   1.180  0.8812  1.5583  2.3232
  783SOL    HW2 2349   0.628   1.440   1.323  0.2074 -2.1809 -2.5667
  784SOL     OW 2350   1.456   0.499   2.705  0.1918 -0.1754 -0.3386
  784SOL    HW1 2351   1.453   0.414   2.645  1.5911 -0.2141 -1.8907
  784SOL    HW2 2352   1.541   0.549   2.688  1.6632 -0.5182  0.2260
  785SOL     OW 2353   2.418   0.225   1.289 -0.1407 -0.3290 -0.3108
  785SOL    HW1 2354   2.432   0.263   1.197 -0.0947  2.5006  1.1362
  785SOL    HW2 2355   2.328   0.237   1.333 -0.4115 -0.2540  0.1671
  786SOL     OW 2356   1.205   2.690   1.548 -0.3248 -0.1964 -0.4678
  786SOL    HW1 2357   1.256   2.609   1.510 -0.3304  0.0588  2.9556
  786SOL    HW2 2358   1.116   2.664   1.579 -0.0165 -0.6787  1.1073
  787SOL     OW 2359   1.572   0.448   1.505  0.3000 -0.3447  0.2886
  787SOL    HW1 2360   1.604   0.428   1.413  0.0683  1.1088  0.6769
  787SOL    HW2 2361   1.496   0.383   1.524 -0.5302  1.1731 -1.5007
  788SOL     OW 2362   2.864   1.081   0.358 -0.4494  0.3006  0.1444
  788SOL    HW1 2363   2.927   1.155   0.398 -1.8952 -0.0119  0.2975
  788SOL    HW2 2364   2.864   0.999   0.422  1.4513 -0.8989 -1.2610
  789SOL     OW 2365   0.535   1.897   1.655  0.1819 -0.8172 -0.0479
  789SOL    HW1 2366   0.603   1.852   1.595  1.5722 -0.1944  0.7491
  789SOL    HW2 2367   0.474   1.960   1.602 -1.5313 -0.5053 -2.7203
  790SOL     OW 2368   0.694   0.536   2.266  0.3545  0.1149  0.2336
  790SOL    HW1 2369   0.694   0.497   2.358  2.0473 -2.4590 -2.8274
  790SOL    HW2 2370   0.607   0.532   2.217  3.6969  0.5921  1.2235
  791SOL     OW 2371   2.255   0.587   0.666  0.0079 -0.1431  0.0311
  791SOL    HW1 2372   2.165   0.561   0.622 -1.2353  2.5976 -2.0544
  791SOL    HW2 2373   2.239   0.663   0.735 -0.5553 -2.4317 -1.0388
  792SOL     OW 2374   1.189   2.881   1.738 -0.0005 -0.0421  0.0861
  792SOL    HW1 2375   1.221   2.824   1.813 -0.6203  0.6830 -1.6815
  792SOL    HW2 2376   1.182   2.823   1.655  1.2983  0.7263  0.0263
  793SOL     OW 2377   0.458   0.255   0.793 -0.3038  0.1191  0.4531
  793SOL    HW1 2378   0.477   0.169   0.847  1.3346 -0.2489  0.4928
  793SOL    HW2 2379   0.521   0.270   0.712  1.4957 -0.8954  0.6555
  794SOL     OW 2380   3.038   1.280   1.877  0.1438  0.4164 -0.0682
  794SOL    HW1 2381   2.992   1.313   1.962 -0.2685 -0.0404 -2.1051
  794SOL    HW2 2382   2.964   1.269   1.812  1.1030 -1.5447  2.0918
  795SOL     OW 2383   0.394   2.107   2.307  0.1812  0.5342 -0.3094
  795SOL    HW1 2384   0.415   2.183   2.371  1.1222 -2.5838 -2.6861
  795SOL    HW2 2385   0.477   2.050   2.292 -2.7825  2.7867 -1.5138
  796SOL     OW 2386   2.586   0.316   2.186 -0.0169  0.0063  0.8486
  796SOL    HW1 2387   2.518   0.378   2.234  0.5273 -0.3056 -2.2839
  796SOL    HW2 2388   2.553   0.306   2.089 -0.6435 -0.6442 -2.0176
  797SOL     OW 2389   2.496   2.298   2.663  0.3322 -0.4968 -0.5085
  797SOL    HW1 2390   2.492   2.225   2.730  1.5137  0.2876 -0.6495
  797SOL    HW2 2391   2.434   2.274   2.576 -1.2861  1.2237 -2.0259
  798SOL     OW 2392   3.056   2.987   2.046  0.3152  0.1777 -0.5409
  798SOL    HW1 2393   0.067   3.000   2.029 -1.4870 -1.3451 -0.2268
  798SOL    HW2 2394   3.017   2.910   1.987 -1.0598  1.0619  0.2061
  799SOL     OW 2395   0.260   2.427   2.112 -0.2517  0.2353  0.6901
  799SOL    HW1 2396   0.166   2.410   2.147 -0.3709 -0.9341  1.8591
  799SOL    HW2 2397   0.262   2.471   2.022  0.4342  1.5864 -0.8435
  800SOL     OW 2398   0.202   1.992   0.052  0.5854 -0.2468  0.2865
  800SOL    HW1 2399   0.236   2.067   0.112 -0.9228 -1.9842 -2.6959
  800SOL    HW2 2400   0.139   1.928   0.102 -2.1108 -1.9938 -0.3316
  801SOL     OW 2401   1.732   1.497   1.454  0.4486  0.6573  0.1130
  801SOL    HW1 2402   1.654   1.433   1.479 -5.4461  0.0864  1.7324
  801SOL    HW2 2403   1.760   1.550   1.533 -1.4448  0.7787 -2.7681
  802SOL     OW 2404   0.068   0.947   0.438 -0.0329 -0.0092 -0.2360
  802SOL    HW1 2405   3.059   0.933   0.476 -1.5253  1.1208 -0.6896
  802SOL    HW2 2406   0.090   0.893   0.357 -0.2958  2.0519  0.9238
  803SOL     OW 2407   1.174   1.607   1.889  0.1639  0.3219 -0.0116
  803SOL    HW1 2408   1.220   1.606   1.799  0.0231 -0.4240  1.2646
  803SOL    HW2 2409   1.125   1.515   1.902  0.9491 -0.8669  1.7918
  804SOL     OW 2410   1.949   1.642   1.060 -0.6067  0.3113 -0.5942
  804SOL    HW1 2411   2.016   1.666   1.130 -3.3845  2.5261 -1.6638
  804SOL    HW2 2412   1.898   1.558   1.086 -0.0104 -1.9043 -2.1384
  805SOL     OW 2413   2.795   1.535   2.731  0.6988 -0.0525 -0.0358
  805SOL    HW1 2414   2.864   1.609   2.713 -1.1339  1.4883  0.6351
  805SOL    HW2 2415   2.715   1.541   2.667  2.5932 -0.6877  1.8869
  806SOL     OW 2416   0.426   2.384   0.141 -0.2797  0.7461 -0.3404
  806SOL    HW1 2417   0.501   2.426   0.202  4.5839  1.0382  1.4342
  806SOL    HW2 2418   0.444   2.406   0.042 -0.5512  1.5214 -0.5225
  807SOL     OW 2419   2.336   1.673   3.034 -0.0881  0.1180  0.0677
  807SOL    HW1 2420   2.304   1.745   0.014 -1.1202  0.3239  1.6041
  807SOL    HW2 2421   2.269   1.644   2.962  0.3249 -1.3015  2.7603
  808SOL     OW 2422   1.329   2.232   1.328 -0.3797  0.4930  0.6820
  808SOL    HW1 2423   1.234   2.213   1.290  0.5537 -0.9668 -2.8285
  808SOL    HW2 2424   1.373   2.144   1.361 -0.2286 -0.5727 -0.0288
  809SOL     OW 2425   2.856   0.605   0.428  0.9230 -0.0566  0.6227
  809SOL    HW1 2426   2.755   0.583   0.435 -2.8735  0.5319 -0.0994
  809SOL    HW2 2427   2.903   0.554   0.499  0.2972  0.6686 -3.5316
  810SOL     OW 2428   0.737   1.585   0.514  0.5900 -0.4446 -0.6391
  810SOL    HW1 2429   0.663   1.538   0.567 -0.7719 -1.3869 -0.2411
  810SOL    HW2 2430   0.832   1.559   0.544 -1.1517 -0.9459  2.4395
  811SOL     OW 2431   1.640   2.504   1.086 -0.5766 -0.2971  0.1691
  811SOL    HW1 2432   1.728   2.557   1.099 -0.6633 -1.4321 -2.7410
  811SOL    HW2 2433   1.646   2.409   1.116 -0.4680  2.9821  1.2701
  812SOL     OW 2434   1.390   2.847   1.438  0.5707 -0.7053 -0.1845
  812SOL    HW1 2435   1.473   2.789   1.437 -1.6160 -0.6640  0.6678
  812SOL    HW2 2436   1.309   2.792   1.471 -1.0244 -1.0765 -0.1520
  813SOL     OW 2437   0.813   3.043   1.732  0.3552  0.4597  0.9919
  813SOL    HW1 2438   0.727   3.079   1.773  2.0541 -1.4177 -1.2497
  813SOL    HW2 2439   0.859   2.975   1.790 -1.2335  3.6076  0.6043
  814SOL     OW 2440   1.002   2.724   2.093 -0.2945 -0.1854  0.3503
  814SOL    HW1 2441   1.073   2.792   2.125 -1.2766 -1.8088  1.0566
  814SOL    HW2 2442   0.979   2.661   2.171 -1.7427 -0.0704 -2.2933
  815SOL     OW 2443   0.454   2.916   2.834  0.3570 -0.7278  0.4415
  815SOL    HW1 2444   0.504   2.853   2.771 -0.9727  0.1258  1.4930
  815SOL    HW2 2445   0.441   3.007   2.785  0.4129  0.8194 -1.2175
  816SOL     OW 2446   2.266   0.564   2.963  0.4504  0.6185 -0.5560
  816SOL    HW1 2447   2.243   0.659   2.927 -1.3703  1.5149 -1.4165
  816SOL    HW2 2448   2.281   0.563   3.062  2.1798 -0.1400  0.2876
  817SOL     OW 2449   2.439   2.438   2.217  0.1410 -0.3969  0.1804
  817SOL    HW1 2450   2.533   2.436   2.254  0.5210 -1.7306 -0.9746
  817SOL    HW2 2451   2.380   2.504   2.260  0.9578 -0.7376  1.2319
  818SOL     OW 2452   1.077   0.899   0.453 -0.6551 -0.1203 -0.0627
  818SOL    HW1 2453   1.083   0.795   0.451  1.4389 -3.0818 -3.2722
  818SOL    HW2 2454   1.083   0.943   0.362 -1.6491 -2.2659  0.0460
  819SOL     OW 2455   1.933   1.368   2.767  0.0162  0.0429 -0.2396
  819SOL    HW1 2456   1.922   1.304   2.691 -0.6806  5.2194  2.1819
  819SOL    HW2 2457   1.965   1.330   2.857 -0.0948  2.0009  1.1367
  820SOL     OW 2458   2.861   1.467   2.415 -0.0792 -0.1822  0.2443
  820SOL    HW1 2459   2.861   1.477   2.515 -0.8773  0.9445  0.7629
  820SOL    HW2 2460   2.845   1.556   2.368 -1.2492 -0.4583  3.1721
  821SOL     OW 2461   0.366   3.032   0.834 -0.2623  0.6326 -0.0710
  821SOL    HW1 2462   0.438   3.080   0.892  2.3305  3.7886  1.7842
  821SOL    HW2 2463   0.409   3.007   0.746 -0.5317  0.0167 -0.2636
  822SOL     OW 2464   2.482   2.526   2.962 -0.4486 -0.2084 -0.5156
  822SOL    HW1 2465   2.410   2.460   2.976  0.1526  2.5746  1.2339
  822SOL    HW2 2466   2.567   2.503   3.017 -0.5121 -1.7605  1.8089
  823SOL     OW 2467   1.650   0.142   2.537 -0.0719 -0.4097  0.5865
  823SOL    HW1 2468   1.730   0.076   2.569  1.1515 -0.7608 -1.0256
  823SOL    HW2 2469   1.627   0.133   2.436 -1.4787 -1.3062  1.0573
  824SOL     OW 2470   2.752   2.287   2.126  0.1417  0.4375 -0.4486
  824SOL    HW1 2471   2.792   2.272   2.031  2.0614 -1.1267  0.6537
  824SOL    HW2 2472   2.752   2.384   2.162 -0.6148  2.2111  1.0908
  825SOL     OW 2473   3.046   1.857   2.325  0.0970  0.1474 -0.2246
  825SOL    HW1 2474   0.061   1.851   2.328 -1.1977  1.1550  1.8555
  825SOL    HW2 2475   3.010   1.852   2.230 -1.2683  0.0711 -1.2551
  826SOL     OW 2476   1.774   0.774   2.856 -0.2087  0.3069 -0.1454
  826SOL    HW1 2477   1.852   0.817   2.900 -4.4706  3.1152 -0.1220
  826SOL    HW2 2478   1.799   0.754   2.762 -0.6796  1.3457  2.3051
  827SOL     OW 2479   2.786   1.670   1.651  0.1697 -0.5845  0.4688
  827SOL    HW1 2480   2.686   1.693   1.646 -2.3702 -1.3253  1.5425
  827SOL    HW2 2481   2.795   1.600   1.721 -0.3716  2.7769 -1.9243
  828SOL     OW 2482   2.836   0.077   1.305  0.4499 -0.4526  0.2622
  828SOL    HW1 2483   2.918   0.056   1.242 -0.2461 -2.0061 -3.5057
  828SOL    HW2 2484   2.746   0.048   1.266 -2.1848 -0.3293  0.3845
  829SOL     OW 2485   0.960   1.900   2.416 -0.4184  0.1464  0.3226
  829SOL    HW1 2486   0.916   1.993   2.400 -1.3284 -0.0033  0.4907
  829SOL    HW2 2487   0.899   1.852   2.481  0.3369 -0.1805  1.3674
  830SOL     OW 2488   0.638   0.902   1.388  0.0015 -0.2264 -0.0774
  830SOL    HW1 2489   0.654   0.966   1.464 -3.4559 -0.7147 -3.6418
  830SOL    HW2 2490   0.568   0.837   1.421 -0.9778 -0.1957  0.4325
  831SOL     OW 2491   2.600   1.829   2.856 -0.2587  0.1301  0.3783
  831SOL    HW1 2492   2.662   1.755   2.886 -1.1729 -2.3562  1.8578
  831SOL    HW2 2493   2.590   1.903   2.921  1.7663  0.7554 -1.2960
  832SOL     OW 2494   1.825   2.398   2.907  0.5847 -0.4139  0.0371
  832SOL    HW1 2495   1.902   2.380   2.846  3.3034 -0.8004 -1.2720
  832SOL    HW2 2496   1.776   2.476   2.867  1.8299 -1.2179  0.1330
  833SOL     OW 2497   0.853   0.250   1.902  0.4257 -0.2094  0.3731
  833SOL    HW1 2498   0.944   0.213   1.883 -0.8541  1.0860 -0.4392
  833SOL    HW2 2499   0.851   0.296   1.993 -1.2971 -0.8327  1.3608
  834SOL     OW 2500   2.918   0.281   1.459 -0.2120  0.1892  0.6408
  834SOL    HW1 2501   2.901   0.202   1.395  1.8912 -0.5320  1.8432
  834SOL    HW2 2502   2.878   0.371   1.427  0.1781  2.1255 -1.2327
  835SOL     OW 2503   2.582   0.439   0.144  0.1589  0.1349 -0.0877
  835SOL    HW1 2504   2.554   0.512   0.080  0.4481 -0.9629 -0.3802
  835SOL    HW2 2505   2.582   0.467   0.240 -2.3991 -1.2143 -0.5051
  836SOL     OW 2506   1.480   1.870   0.188  0.0854 -0.2001  0.0274
  836SOL    HW1 2507   1.388   1.871   0.143  0.2351  0.8470 -0.3787
  836SOL    HW2 2508   1.533   1.953   0.158  0.9044  0.8717 -2.1912
  837SOL     OW 2509   2.007   1.918   0.537 -0.3528 -0.0831 -0.1773
  837SOL    HW1 2510   2.110   1.918   0.541 -1.5515 -0.8550 -1.1083
  837SOL    HW2 2511   1.972   2.016   0.530 -3.0435  1.5295 -2.4677
  838SOL     OW 2512   1.389   0.950   2.426 -0.0730 -0.1413  0.4258
  838SOL    HW1 2513   1.377   0.858   2.465 -1.1923  4.8418 -1.7044
  838SOL    HW2 2514   1.301   1.004   2.437 -1.3675  4.1936  0.8470
  839SOL     OW 2515   0.551   1.468   2.372 -0.0476 -0.4480  0.3786
  839SOL    HW1 2516   0.647   1.460   2.331  2.2756 -2.1847 -4.4464
  839SOL    HW2 2517   0.522   1.376   2.402 -0.2748  1.0270  1.4542
  840SOL     OW 2518   1.018   1.581   0.522  0.5221 -0.0365  0.1715
  840SOL    HW1 2519   1.048   1.605   0.429 -1.1811  1.2231  1.1935
  840SOL    HW2 2520   1.031   1.662   0.587  0.2254  3.1918  2.5467
  841SOL     OW 2521   1.500   2.249   0.731 -0.3068  0.2398  0.1621
  841SOL    HW1 2522   1.593   2.220   0.772 -0.4816 -1.9445  2.4281
  841SOL    HW2 2523   1.445   2.312   0.793 -0.0398 -0.9948  0.5800
  842SOL     OW 2524   0.423   0.515   0.025  0.0122 -0.1587  0.4059
  842SOL    HW1 2525   0.447   0.455   0.110 -0.6783 -0.3514  1.4842
  842SOL    HW2 2526   0.468   0.607   0.032  0.4944  0.8768 -2.8296
  843SOL     OW 2527   0.609   0.187   0.570  0.3150  0.1473  0.2439
  843SOL    HW1 2528   0.578   0.110   0.511  1.0815  0.4034  2.2384
  843SOL    HW2 2529   0.624   0.280   0.525  1.4777  0.7107 -0.5087
  844SOL     OW 2530   2.348   0.034   2.382 -0.5770  0.3513  0.0083
  844SOL    HW1 2531   2.442   0.037   2.337  2.2556 -0.6303 -2.6560
  844SOL    HW2 2532   2.358   0.024   2.479  0.6531  2.4824 -1.3938
  845SOL     OW 2533   3.079   2.478   1.793  0.0549 -0.1676 -0.5877
  845SOL    HW1 2534   3.015   2.413   1.832  2.9292  1.1367 -2.1286
  845SOL    HW2 2535   3.034   2.529   1.720  2.4971 -4.4672 -1.8011
  846SOL     OW 2536   1.940   1.252   2.482 -0.5997 -0.1443  0.1856
  846SOL    HW1 2537   2.011   1.328   2.486  0.6015 -0.2639 -1.1945
  846SOL    HW2 2538   1.844   1.290   2.485  2.4166  0.8874 -0.2010
  847SOL     OW 2539   0.676   0.832   1.956  0.0402  0.3687 -0.4122
  847SOL    HW1 2540   0.635   0.774   1.881  1.8402 -0.8946  1.1853
  847SOL    HW2 2541   0.779   0.837   1.943  1.6450 -0.3884  0.6396
  848SOL     OW 2542   2.609   0.002   2.696  0.2002 -0.1910 -0.0570
  848SOL    HW1 2543   2.682   3.019   2.701  1.8270 -0.5553  0.6982
  848SOL    HW2 2544   2.615   0.068   2.778  1.7816  0.1600  1.2476
  849SOL     OW 2545   0.360   2.751   0.219 -0.3745  0.3077  0.2368
  849SOL    HW1 2546   0.272   2.712   0.190 -0.9643  1.6844 -0.2040
  849SOL    HW2 2547   0.411   2.790   0.143  0.1203  0.3675  1.0402
  850SOL     OW 2548   1.073   2.614   0.735  0.1062 -0.1614  0.0361
  850SOL    HW1 2549   1.073   2.532   0.800 -0.3139 -0.7356 -1.8129
  850SOL    HW2 2550   1.167   2.636   0.712 -2.5315  0.7934  2.5461
  851SOL     OW 2551   2.121   0.230   2.428 -0.3368  0.2834  0.3664
  851SOL    HW1 2552   2.165   0.151   2.390 -3.3572  0.2690  0.0318
  851SOL    HW2 2553   2.158   0.252   2.523 -0.4119 -1.3946  2.0578
  852SOL     OW 2554   1.403   0.240   2.628  0.1391  0.0322  0.3607
  852SOL    HW1 2555   1.495   0.202   2.597  1.4539  1.5977 -0.7301
  852SOL    HW2 2556   1.371   0.195   2.717  1.6579 -2.0364  0.3970
  853SOL     OW 2557   3.047   2.535   0.316 -0.1300  0.2666  0.5327
  853SOL    HW1 2558   0.057   2.506   0.333  2.3681 -0.4601 -0.5625
  853SOL    HW2 2559   3.014   2.600   0.384 -0.4072  1.3104 -1.2361
  854SOL     OW 2560   1.932   0.518   2.496  0.4032 -0.3348  0.2939
  854SOL    HW1 2561   1.901   0.607   2.531 -1.8178 -3.8232 -2.2344
  854SOL    HW2 2562   2.031   0.511   2.476  2.9621  2.0768  1.5927
  855SOL     OW 2563   0.591   2.543   0.269  0.0385  0.0133 -0.1301
  855SOL    HW1 2564   0.514   2.605   0.245  1.8783 -1.6685  1.3368
  855SOL    HW2 2565   0.680   2.589   0.260 -1.9495  0.2522 -0.9560
  856SOL     OW 2566   0.271   3.015   2.523  0.2262 -0.2513  0.1130
  856SOL    HW1 2567   0.208   2.944   2.501  1.9422  1.3888 -0.9782
  856SOL    HW2 2568   0.224   3.082   2.580  0.1528 -2.1041  2.0213
  857SOL     OW 2569   1.042   3.061   1.578 -0.6220  0.2306  0.5614
  857SOL    HW1 2570   1.103   3.002   1.637 -0.1003 -0.3965 -1.4591
  857SOL    HW2 2571   0.955   3.073   1.628  1.3621  0.7977 -1.0901
  858SOL     OW 2572   2.607   1.883   1.797 -0.0954 -0.0168  0.2488
  858SOL    HW1 2573   2.662   1.907   1.710  0.9089  0.5766 -0.4083
  858SOL    HW2 2574   2.537   1.958   1.802  2.2681  0.3428  0.4557
  859SOL     OW 2575   2.027   2.364   2.034  0.1074 -0.1877  0.3798
  859SOL    HW1 2576   2.067   2.440   1.983  2.4580 -1.4911  0.6330
  859SOL    HW2 2577   2.030   2.279   1.974 -0.4898 -2.0079 -3.9825
  860SOL     OW 2578   1.692   0.443   0.447  0.1661  0.0273  0.1948
  860SOL    HW1 2579   1.702   0.548   0.432  1.7272  1.8173 -0.8792
  860SOL    HW2 2580   1.714   0.394   0.358  0.3164  0.4995  0.1192
  861SOL     OW 2581   2.780   0.523   0.798  0.7627 -0.3212  0.0837
  861SOL    HW1 2582   2.874   0.524   0.758 -0.1796 -0.4979 -1.3705
  861SOL    HW2 2583   2.771   0.439   0.861 -1.0868  1.4913 -1.4571
  862SOL     OW 2584   1.124   2.641   2.501 -0.4674 -0.7062  0.7333
  862SOL    HW1 2585   1.091   2.734   2.517 -0.8278  1.1294  1.5573
  862SOL    HW2 2586   1.088   2.598   2.412 -1.2409 -0.7723 -0.9067
  863SOL     OW 2587   0.570   0.482   1.312 -0.6069  0.9523 -0.8443
  863SOL    HW1 2588   0.563   0.397   1.368 -0.0337 -0.8641 -1.9046
  863SOL    HW2 2589   0.562   0.449   1.214 -2.1592 -0.0839  0.7735
  864SOL     OW 2590   3.022   2.795   1.838  0.6123 -0.1090  0.2301
  864SOL    HW1 2591   3.054   2.823   1.743 -2.4132 -0.2541  1.0511
  864SOL    HW2 2592   2.917   2.794   1.835 -0.8615 -0.9794 -2.4321
  865SOL     OW 2593   0.614   1.308   2.865  0.1900 -0.2130  0.0427
  865SOL    HW1 2594   0.595   1.215   2.899  0.2326  0.8642 -2.1094
  865SOL    HW2 2595   0.605   1.382   2.934  2.3155  0.8961  0.7128
  866SOL     OW 2596   0.136   0.181   0.064 -0.3153  0.5636 -0.3884
  866SOL    HW1 2597   0.045   0.216   0.100  0.1467  0.9468  0.3893
  866SOL    HW2 2598   0.140   0.078   0.080 -0.9873 -1.9589 -0.2607
  867SOL     OW 2599   2.823   2.920   2.757  0.4843  0.7364 -1.1212
  867SOL    HW1 2600   2.869   2.970   2.835  2.6369  0.9409 -1.6013
  867SOL    HW2 2601   2.886   2.852   2.719  1.1318  1.4929 -0.2405
  868SOL     OW 2602   1.137   1.002   0.197 -0.4565  0.3285  0.1261
  868SOL    HW1 2603   1.060   0.946   0.157 -2.3082  0.6145  1.2348
  868SOL    HW2 2604   1.224   0.943   0.192  1.2695  0.3166  0.1802
  869SOL     OW 2605   2.999   1.260   0.508  0.6394  0.2689  0.2477
  869SOL    HW1 2606   0.012   1.287   0.525 -1.0448  0.9168  0.0058
  869SOL    HW2 2607   2.946   1.274   0.596 -0.9431 -0.3519  0.3323
  870SOL     OW 2608   2.401   1.630   0.663 -0.4338 -0.4085  0.7210
  870SOL    HW1 2609   2.458   1.660   0.585 -1.9063 -2.0990 -0.8859
  870SOL    HW2 2610   2.451   1.585   0.737  0.7642  2.1360 -1.5170
  871SOL     OW 2611   1.148   1.399   0.908 -0.0459  0.5237  0.0062
  871SOL    HW1 2612   1.148   1.314   0.846  0.5395 -1.1015  2.6807
  871SOL    HW2 2613   1.057   1.412   0.948  0.7466  0.7824  0.3193
  872SOL     OW 2614   1.117   1.995   1.815 -0.5596 -0.6139 -0.4301
  872SOL    HW1 2615   1.087   2.012   1.718 -1.9885 -2.9649 -2.4960
  872SOL    HW2 2616   1.206   1.950   1.817  0.4061  3.8044  0.1930
  873SOL     OW 2617   0.969   1.724   2.182  0.2287 -0.1341 -0.3166
  873SOL    HW1 2618   0.966   1.796   2.252 -4.3951  0.3463 -2.9216
  873SOL    HW2 2619   0.944   1.760   2.093  1.1353  1.4563  2.0227
  874SOL     OW 2620   1.037   2.131   0.898  0.1315  0.3268 -0.2746
  874SOL    HW1 2621   1.122   2.116   0.954 -0.7708  0.6613  1.2155
  874SOL    HW2 2622   0.954   2.098   0.949 -2.0061  0.8735 -1.0193
  875SOL     OW 2623   2.459   0.208   0.987 -0.6369 -0.3271 -0.0015
  875SOL    HW1 2624   2.406   0.292   1.005 -1.6772 -1.1767 -0.1938
  875SOL    HW2 2625   2.404   0.129   1.006  1.1921  2.6782  0.7897
  876SOL     OW 2626   0.731   0.698   0.216 -0.3591 -0.4594  0.3682
  876SOL    HW1 2627   0.733   0.758   0.301  0.4427 -0.2443 -0.1788
  876SOL    HW2 2628   0.764   0.605   0.235 -3.3933  2.5664 -1.8873
  877SOL     OW 2629   2.788   0.503   1.297 -0.2030  0.1616 -0.3194
  877SOL    HW1 2630   2.838   0.435   1.239  1.5582  1.5587  1.2615
  877SOL    HW2 2631   2.810   0.600   1.280  0.1515 -0.0327  1.5429
  878SOL     OW 2632   2.178   2.217   0.691 -0.0424  0.0974 -0.5378
  878SOL    HW1 2633   2.078   2.215   0.668 -2.5753 -0.5109  0.4403
  878SOL    HW2 2634   2.232   2.207   0.606 -1.2308 -0.9940 -1.3770
  879SOL     OW 2635   2.530   1.609   1.486  0.3624 -0.0367  0.2438
  879SOL    HW1 2636   2.521   1.572   1.393  0.2948  3.2662  3.2832
  879SOL    HW2 2637   2.488   1.699   1.493 -2.4914  1.3814  0.8515
  880SOL     OW 2638   1.427   2.643   1.185  0.2219 -0.1717 -0.5112
  880SOL    HW1 2639   1.517   2.603   1.161 -2.8148 -2.2324 -1.5537
  880SOL    HW2 2640   1.381   2.678   1.100 -0.1405  1.2942  0.0064
  881SOL     OW 2641   1.042   2.479   0.190  0.1830  0.3041 -0.3985
  881SOL    HW1 2642   0.980   2.397   0.180 -1.5413 -3.1253 -1.0024
  881SOL    HW2 2643   1.132   2.456   0.233  1.2763  0.0984  0.6944
  882SOL     OW 2644   1.736   1.038   1.626  0.1164 -0.5720  0.5562
  882SOL    HW1 2645   1.675   1.022   1.707 -1.3067  0.3345  0.7916
  882SOL    HW2 2646   1.687   1.004   1.547 -0.6275  2.3128  0.5657
  883SOL     OW 2647   1.291   0.160   2.202 -0.7101 -0.1264 -0.5614
  883SOL    HW1 2648   1.282   0.248   2.256 -1.7441  1.0581  0.7649
  883SOL    HW2 2649   1.205   0.108   2.222  1.2215 -0.8034  0.2199
  884SOL     OW 2650   2.992   0.554   0.176  0.6530 -0.3604  0.1317
  884SOL    HW1 2651   2.937   0.571   0.262 -0.7015 -0.0047 -0.3776
  884SOL    HW2 2652   3.057   0.629   0.163 -1.5344  1.0606 -2.4333
  885SOL     OW 2653   0.932   1.334   2.973  0.5227 -0.2389 -0.5289
  885SOL    HW1 2654   1.019   1.365   2.927 -0.0794  1.0452 -0.9170
  885SOL    HW2 2655   0.862   1.412   2.973 -0.8205  1.6417  1.9565
  886SOL     OW 2656   1.644   1.377   2.820 -0.5209 -0.0617 -0.3795
  886SOL    HW1 2657   1.623   1.411   2.730 -0.4839  0.6856  1.9697
  886SOL    HW2 2658   1.747   1.392   2.825  1.2260  2.4249  1.4616
  887SOL     OW 2659   1.045   0.607   1.792 -0.7414 -0.2551 -0.1485
  887SOL    HW1 2660   1.136   0.597   1.750  0.4780  0.7343  2.4546
  887SOL    HW2 2661   1.038   0.556   1.880  0.2006  2.1073 -1.1573
  888SOL     OW 2662   2.624   0.529   1.786  0.0215  0.4108  0.8069
  888SOL    HW1 2663   2.717   0.549   1.813 -0.3416 -1.0754  0.2319
  888SOL    HW2 2664   2.615   0.525   1.681  0.8755 -1.4131 -0.1630
  889SOL     OW 2665   0.179   3.035   0.643 -0.7370 -0.5583  0.3605
  889SOL    HW1 2666   0.169   2.934   0.634  0.1215 -0.6696  1.5184
  889SOL    HW2 2667   0.247   3.042   0.723  1.5797 -0.5146 -1.6846
  890SOL     OW 2668   3.070   2.301   0.484  0.0733  0.2430  0.4360
  890SOL    HW1 2669   0.035   2.343   0.400 -1.2495 -0.5701 -0.1511
  890SOL    HW2 2670   3.084   2.201   0.484 -0.8730  0.7726  1.3712
  891SOL     OW 2671   0.964   1.706   2.890 -0.3674  0.0792  0.1843
  891SOL    HW1 2672   0.918   1.792   2.872  0.9474 -1.3409 -1.0403
  891SOL    HW2 2673   1.033   1.682   2.818 -0.3722 -3.8483  1.9799
  892SOL     OW 2674   2.897   0.018   0.844  0.2844  0.1395 -0.4271
  892SOL    HW1 2675   2.830   3.066   0.775 -0.0243  0.6352 -1.7740
  892SOL    HW2 2676   2.930   3.034   0.911 -0.9688 -0.3649 -1.0701
  893SOL     OW 2677   1.109   0.047   1.336  0.1282  0.1832  0.0638
  893SOL    HW1 2678   1.084   0.027   1.431  0.6211 -2.6950 -2.2311
  893SOL    HW2 2679   1.020   0.060   1.287 -0.3198 -0.0137 -1.0276
  894SOL     OW 2680   2.907   0.860   0.514  0.5169 -0.2189 -0.3364
  894SOL    HW1 2681   2.897   0.772   0.468 -0.7820  2.1420  0.4504
  894SOL    HW2 2682   2.895   0.857   0.616 -1.1452  2.5517 -0.6121
  895SOL     OW 2683   2.446   2.678   1.760 -0.2094 -0.2889  0.4181
  895SOL    HW1 2684   2.407   2.646   1.851 -1.5287 -0.7452  1.6609
  895SOL    HW2 2685   2.452   2.776   1.756  1.0419 -1.2345 -0.6159
  896SOL     OW 2686   1.134   0.242   1.605 -0.3017 -0.3230 -0.2138
  896SOL    HW1 2687   1.122   0.143   1.608 -0.3145  1.5513  1.7532
  896SOL    HW2 2688   1.135   0.283   1.698  0.1520  0.6178  0.1735
  897SOL     OW 2689   0.966   1.683   1.650  0.2373  0.1568  0.8470
  897SOL    HW1 2690   0.972   1.758   1.578 -0.3162  0.7072  2.1251
  897SOL    HW2 2691   1.011   1.706   1.738 -1.6267 -1.1397  2.2397
  898SOL     OW 2692   1.716   2.618   1.778  0.5438  0.5183  0.0124
  898SOL    HW1 2693   1.771   2.544   1.741 -1.7422  0.9146 -0.3165
  898SOL    HW2 2694   1.760   2.708   1.758 -1.3415 -1.3458  1.7237
  899SOL     OW 2695   0.978   0.640   0.966 -0.8663 -0.3608  0.1160
  899SOL    HW1 2696   1.044   0.580   1.021 -1.3844  0.8439  0.7526
  899SOL    HW2 2697   0.998   0.736   0.993  0.9392  0.6018 -1.4409
  900SOL     OW 2698   1.898   2.516   2.596  0.4436 -0.2670 -0.6133
  900SOL    HW1 2699   1.798   2.515   2.629  0.7128 -0.2733 -0.4607
  900SOL    HW2 2700   1.959   2.449   2.642  1.4999  1.1333  1.4878
  901SOL     OW 2701   0.864   2.145   2.356  0.1771  0.5178  0.1879
  901SOL    HW1 2702   0.959   2.184   2.354  0.5182 -0.5179  1.7426
  901SOL    HW2 2703   0.805   2.197   2.420  1.3703 -1.0167  0.0205
  902SOL     OW 2704   2.175   0.941   0.541 -0.4168  0.3119  0.7198
  902SOL    HW1 2705   2.237   1.025   0.525 -0.8660  0.1474 -0.4628
  902SOL    HW2 2706   2.161   0.932   0.645  0.4246  0.8967  1.2268
  903SOL     OW 2707   1.932   0.844   0.453 -0.4754 -0.2763  0.2248
  903SOL    HW1 2708   1.921   0.862   0.356 -0.4058  0.5345 -0.7426
  903SOL    HW2 2709   2.019   0.892   0.475 -2.5122  1.1910 -1.9123
  904SOL     OW 2710   0.690   0.846   2.867 -0.0970  0.1734  0.4613
  904SOL    HW1 2711   0.780   0.884   2.853 -0.8598  0.1486  2.4024
  904SOL    HW2 2712   0.679   0.759   2.815  0.4863  1.2555  2.9668
  905SOL     OW 2713   2.143   0.077   0.831 -0.1840  0.2658 -0.6807
  905SOL    HW1 2714   2.088   3.078   0.834 -1.5714  2.7160 -0.3240
  905SOL    HW2 2715   2.086   0.155   0.870  0.4236 -0.3103  1.5850
  906SOL     OW 2716   2.962   2.170   1.378  0.5217  0.3530 -0.0206
  906SOL    HW1 2717   2.998   2.139   1.467 -1.7998 -0.1869 -1.0146
  906SOL    HW2 2718   2.881   2.228   1.389 -1.0334 -0.5742 -2.0322
  907SOL     OW 2719   1.326   0.603   0.325 -0.3848 -0.1915  0.0563
  907SOL    HW1 2720   1.350   0.692   0.284  0.5529 -1.6935  1.8282
  907SOL    HW2 2721   1.357   0.522   0.267 -0.2538 -2.2634 -1.0732
  908SOL     OW 2722   2.178   2.774   1.200 -0.2457  0.2444 -0.4009
  908SOL    HW1 2723   2.276   2.816   1.203  3.6610  3.4927 -0.7411
  908SOL    HW2 2724   2.112   2.833   1.253  0.3894  0.3528  0.6755
  909SOL     OW 2725   2.198   0.873   1.302  0.0038  0.5541  0.7036
  909SOL    HW1 2726   2.216   0.818   1.382  0.7605 -0.1227 -1.8217
  909SOL    HW2 2727   2.280   0.936   1.283  0.5861 -0.8958  0.7079
  910SOL     OW 2728   1.300   2.723   1.937 -0.4418 -0.0223  0.4624
  910SOL    HW1 2729   1.277   2.764   2.029 -2.3878  0.0146  1.9019
  910SOL    HW2 2730   1.399   2.701   1.932  1.3215 -0.7443  0.2582
  911SOL     OW 2731   2.827   0.268   2.303 -0.3213 -0.2037  1.1913
  911SOL    HW1 2732   2.734   0.299   2.266  0.7127  0.9032  0.3472
  911SOL    HW2 2733   2.869   0.202   2.231  1.0080 -2.3428  0.1033
  912SOL     OW 2734   2.993   1.233   1.347  0.5177  0.3624 -0.4390
  912SOL    HW1 2735   2.919   1.290   1.384 -0.3526 -1.1510 -1.0177
  912SOL    HW2 2736   3.074   1.231   1.407 -1.7778 -0.8927  0.8414
  913SOL     OW 2737   2.741   1.972   1.569 -0.4181  0.4889  0.6160
  913SOL    HW1 2738   2.842   1.987   1.570 -1.2616 -0.9039 -2.1425
  913SOL    HW2 2739   2.711   1.960   1.469 -1.1892  1.6654 -3.0946
  914SOL     OW 2740   1.620   0.897   1.410  0.5004 -0.0545 -0.4407
  914SOL    HW1 2741   1.626   0.855   1.315 -1.9483 -0.6994 -0.2566
  914SOL    HW2 2742   1.589   0.830   1.482 -1.6771  0.3507  0.3763
  915SOL     OW 2743   1.274   0.549   1.656  0.1123  0.5236  0.0496
  915SOL    HW1 2744   1.335   0.494   1.712 -0.4127  0.1776 -0.1816
  915SOL    HW2 2745   1.325   0.605   1.591 -0.3086 -2.0327  1.5891
  916SOL     OW 2746   2.730   2.338   1.427 -0.2576 -0.2595  0.4334
  916SOL    HW1 2747   2.672   2.357   1.349  2.1653  0.6747 -0.6039
  916SOL    HW2 2748   2.672   2.311   1.508 -0.9818 -2.4856  2.3594
  917SOL     OW 2749   2.567   2.184   0.353  0.0401  0.6451 -0.0750
  917SOL    HW1 2750   2.526   2.236   0.273 -0.3067 -2.2835  1.3692
  917SOL    HW2 2751   2.626   2.242   0.410 -1.9721  0.7600  2.1232
  918SOL     OW 2752   2.050   2.730   2.695  0.1204 -0.1404 -0.3773
  918SOL    HW1 2753   2.138   2.739   2.647 -1.1125 -0.9563 -1.2635
  918SOL    HW2 2754   2.000   2.648   2.672 -0.0597 -1.0532 -0.2170
  919SOL     OW 2755   0.982   2.421   1.419  0.7001 -0.3141 -0.6283
  919SOL    HW1 2756   0.879   2.434   1.408 -0.8950  1.1681  0.5680
  919SOL    HW2 2757   1.022   2.449   1.508 -0.9660 -0.5004 -2.2750
  920SOL     OW 2758   0.212   0.319   2.272 -0.2940 -0.4391 -0.1546
  920SOL    HW1 2759   0.268   0.246   2.227 -0.1039  1.4039  0.4748
  920SOL    HW2 2760   0.133   0.352   2.219  2.2906  1.0433 -0.3877
  921SOL     OW 2761   2.980   0.829   1.784  0.2630  0.1313  0.0616
  921SOL    HW1 2762   2.983   0.807   1.881  1.1498 -2.5984  0.8646
  921SOL    HW2 2763   3.058   0.896   1.764  0.5394  1.0084  1.6174
  922SOL     OW 2764   2.345   2.121   0.515 -0.0032  0.9612 -0.3116
  922SOL    HW1 2765   2.431   2.113   0.456  1.7794  0.2389  0.7683
  922SOL    HW2 2766   2.339   2.032   0.568 -1.3185 -0.3481  1.2451
  923SOL     OW 2767   0.862   1.960   2.786  0.1539  0.4773  0.2745
  923SOL    HW1 2768   0.829   1.893   2.712  0.7176 -3.3575 -0.8830
  923SOL    HW2 2769   0.794   2.036   2.796  0.0731  0.4364 -2.5812
  924SOL     OW 2770   0.954   0.471   0.295  0.2915 -0.6594  0.5970
  924SOL    HW1 2771   0.923   0.379   0.320  2.4967  2.3647  1.5406
  924SOL    HW2 2772   1.020   0.510   0.363  3.3205  3.6467 -0.8158
  925SOL     OW 2773   2.366   0.393   0.553 -0.1357  0.1337 -0.1269
  925SOL    HW1 2774   2.318   0.456   0.620  0.8332 -1.3814  0.1148
  925SOL    HW2 2775   2.383   0.304   0.608  0.6665 -2.2295  1.8878
  926SOL     OW 2776   0.156   0.762   1.117  0.3089  0.0485 -0.1252
  926SOL    HW1 2777   0.151   0.815   1.199 -0.2115  1.1128 -1.3633
  926SOL    HW2 2778   0.132   0.664   1.138  2.0078 -2.2563 -0.8818
  927SOL     OW 2779   3.070   1.298   2.635 -0.3391 -0.5043  0.4384
  927SOL    HW1 2780   0.004   1.310   2.537 -1.3940  1.8425  1.1684
  927SOL    HW2 2781   2.987   1.240   2.657 -0.9509  0.4833 -1.8393
  928SOL     OW 2782   2.796   0.849   2.738 -0.4883 -0.1862  0.2090
  928SOL    HW1 2783   2.757   0.787   2.805  2.8175  2.2815 -2.5288
  928SOL    HW2 2784   2.886   0.874   2.776  1.0006 -2.4833 -2.6545
  929SOL     OW 2785   2.574   0.005   1.200  0.3859  0.2627  0.2882
  929SOL    HW1 2786   2.547   0.074   1.269  4.1905  0.4979  1.1165
  929SOL    HW2 2787   2.512   3.080   1.117  0.0761 -0.9472  0.0916
  930SOL     OW 2788   1.962   1.193   1.620  0.3268 -0.3843  0.0144
  930SOL    HW1 2789   1.874   1.143   1.634  0.6960 -0.8741 -1.5703
  930SOL    HW2 2790   1.970   1.243   1.536  0.1215 -0.1923  0.8283
  931SOL     OW 2791   1.675   1.235   0.542 -0.0670  0.2284  0.3335
  931SOL    HW1 2792   1.618   1.283   0.468 -0.6041 -1.3582  0.2646
  931SOL    HW2 2793   1.762   1.285   0.559 -2.4269  2.3678 -3.0343
  932SOL     OW 2794   2.775   1.196   0.699 -0.3066 -0.0817 -0.2004
  932SOL    HW1 2795   2.715   1.219   0.619  1.4762 -1.0466  1.6240
  932SOL    HW2 2796   2.730   1.131   0.763  0.6107  0.5370  0.9536
  933SOL     OW 2797   2.505   1.549   1.214 -0.0456  0.0896 -0.1303
  933SOL    HW1 2798   2.435   1.591   1.155 -0.6080 -1.5402 -0.4151
  933SOL    HW2 2799   2.596   1.596   1.207  0.3895 -0.3113 -1.0447
  934SOL     OW 2800   2.009   0.215   2.115 -0.6445  0.4643  0.1292
  934SOL    HW1 2801   1.942   0.286   2.137  2.4035  0.3141 -1.9122
  934SOL    HW2 2802   2.099   0.251   2.079  1.6969 -1.5849 -0.3591
  935SOL     OW 2803   0.247   1.562   0.766 -0.5320  0.0398 -0.2500
  935SOL    HW1 2804   0.158   1.529   0.729  1.4511 -1.5139  1.3914
  935SOL    HW2 2805   0.232   1.656   0.804  2.6109  0.8370  0.0031
  936SOL     OW 2806   0.496   0.898   0.396 -0.0571  0.4599 -0.2500
  936SOL    HW1 2807   0.475   0.874   0.300  0.8079 -0.8286 -2.6524
  936SOL    HW2 2808   0.422   0.957   0.437  0.9749  2.4029  1.4471
  937SOL     OW 2809   2.320   3.050   1.039 -0.3300  0.2625 -0.6985
  937SOL    HW1 2810   2.318   2.989   0.958  1.0869  0.7489  2.6879
  937SOL    HW2 2811   2.339   2.990   1.118 -1.1301  0.1572  1.8903
  938SOL     OW 2812   2.742   2.335   0.490  0.1404  0.0225  0.0912
  938SOL    HW1 2813   2.842   2.330   0.489  0.2038  1.3782 -0.5887
  938SOL    HW2 2814   2.720   2.435   0.475 -0.2246 -1.1070  0.5509
  939SOL     OW 2815   1.051   2.023   0.220  0.2441 -0.2839  0.2191
  939SOL    HW1 2816   0.962   1.977   0.185 -1.4606 -2.8496 -5.9416
  939SOL    HW2 2817   1.082   1.967   0.298  2.7088 -1.1288 -1.7950
  940SOL     OW 2818   2.911   0.348   2.779 -0.3097 -0.3216  0.1977
  940SOL    HW1 2819   2.990   0.347   2.710 -0.4573  1.6101  2.4357
  940SOL    HW2 2820   2.842   0.295   2.727  0.9757  1.7054 -1.2578
  941SOL     OW 2821   1.300   0.125   2.858  0.0658  0.0935 -0.5303
  941SOL    HW1 2822   1.301   0.023   2.857  1.0447  2.7898  1.1341
  941SOL    HW2 2823   1.210   0.164   2.891 -1.6691  2.2609 -0.5456
  942SOL     OW 2824   1.290   1.131   1.370 -0.1239 -0.0407  0.1310
  942SOL    HW1 2825   1.319   1.226   1.352 -0.5113  3.6520  0.2104
  942SOL    HW2 2826   1.197   1.114   1.319 -2.8372  0.3727 -2.0126
  943SOL     OW 2827   1.283   1.256   1.930 -0.1523  0.3170 -0.3541
  943SOL    HW1 2828   1.253   1.228   1.835  2.8449  0.7758  1.1659
  943SOL    HW2 2829   1.204   1.301   1.980 -1.8422  4.3938  0.7966
  944SOL     OW 2830   1.617   1.000   1.896  0.4695  0.8545  0.3555
  944SOL    HW1 2831   1.515   1.003   1.903  0.2842 -0.2994 -0.0658
  944SOL    HW2 2832   1.656   0.940   1.974  1.7721 -2.7299  2.8152
  945SOL     OW 2833   2.955   3.064   0.211 -0.0413 -0.4919 -0.2788
  945SOL    HW1 2834   3.056   3.075   0.212 -1.2254  0.8935  1.6099
  945SOL    HW2 2835   2.899   0.052   0.267 -3.0246  0.6527  2.2224
  946SOL     OW 2836   2.817   0.571   1.977  0.3814  0.2182  0.0432
  946SOL    HW1 2837   2.892   0.623   2.026  0.1156 -3.9742  1.0926
  946SOL    HW2 2838   2.724   0.609   2.002 -1.5167  1.2728 -0.4839
  947SOL     OW 2839   0.538   2.941   0.646 -0.0878 -0.2612 -0.0695
  947SOL    HW1 2840   0.546   2.837   0.626 -1.1046 -0.2562 -1.2711
  947SOL    HW2 2841   0.567   2.996   0.565 -1.3175  0.1811  0.1710
  948SOL     OW 2842   2.141   1.007   1.691  0.3307 -0.1984 -0.0902
  948SOL    HW1 2843   2.090   0.935   1.747  0.9173 -1.9653 -0.5970
  948SOL    HW2 2844   2.076   1.078   1.658 -1.3049  2.1692 -0.0844
  949SOL     OW 2845   0.634   0.665   2.676 -0.0575 -0.0035  0.2138
  949SOL    HW1 2846   0.598   0.713   2.591  1.0899  1.6432 -1.3322
  949SOL    HW2 2847   0.562   0.625   2.738 -2.8364 -1.7115  1.5591
  950SOL     OW 2848   0.459   0.400   1.054 -0.3314 -0.7567 -0.5769
  950SOL    HW1 2849   0.495   0.340   0.979 -0.8694 -0.7373  0.4141
  950SOL    HW2 2850   0.449   0.499   1.028  1.2449  1.0056  1.5707
  951SOL     OW 2851   0.871   1.512   2.326  0.1146  0.2842  0.6050
  951SOL    HW1 2852   0.908   1.585   2.257  0.7153 -0.1066  1.2600
  951SOL    HW2 2853   0.852   1.424   2.275 -0.3391  1.2759 -1.1690
  952SOL     OW 2854   0.811   1.524   0.176 -0.2058  0.8752  0.0806
  952SOL    HW1 2855   0.904   1.567   0.171 -0.7085 -0.2866  0.8131
  952SOL    HW2 2856   0.750   1.588   0.229 -0.9832 -0.7734  1.8349
  953SOL     OW 2857   2.594   0.030   2.249  0.5985 -0.0204  1.1661
  953SOL    HW1 2858   2.600   0.129   2.228 -1.5686  2.0803  0.4531
  953SOL    HW2 2859   2.658   3.064   2.197 -1.1154  0.7486  0.7197
  954SOL     OW 2860   1.568   1.258   0.833  0.0872  0.6545 -0.0941
  954SOL    HW1 2861   1.630   1.211   0.763  2.3921 -1.7665 -0.5579
  954SOL    HW2 2862   1.581   1.357   0.822 -0.3419 -0.2907  0.2875
  955SOL     OW 2863   0.259   1.927   2.647  0.2055 -0.3003 -0.1847
  955SOL    HW1 2864   0.276   1.866   2.726  1.1299  1.4132  0.2206
  955SOL    HW2 2865   0.207   2.012   2.677 -0.2772  0.3470  0.6015
  956SOL     OW 2866   1.665   0.589   2.138 -0.3283  0.1123  0.7800
  956SOL    HW1 2867   1.592   0.567   2.207 -0.9402  0.3621  2.3665
  956SOL    HW2 2868   1.659   0.685   2.110 -1.9839  2.7142  0.5121
  957SOL     OW 2869   1.954   2.014   2.866 -0.1864 -0.3113  0.8569
  957SOL    HW1 2870   1.912   1.923   2.882 -0.1467 -0.3676 -0.4024
  957SOL    HW2 2871   2.002   2.042   2.949 -1.3514 -2.2798 -0.5101
  958SOL     OW 2872   1.079   2.100   1.566 -0.2007  0.3144  0.5616
  958SOL    HW1 2873   1.067   2.142   1.473 -2.8092  1.7221 -0.6205
  958SOL    HW2 2874   1.166   2.141   1.608 -0.2565  0.4243  0.3232
  959SOL     OW 2875   2.217   2.288   2.930  0.2816 -0.2192  0.3459
  959SOL    HW1 2876   2.272   2.203   2.923 -0.5971 -2.6375  0.5693
  959SOL    HW2 2877   2.139   2.265   2.995  0.9213 -1.1705  0.6760
  960SOL     OW 2878   2.894   0.700   2.502 -0.4122 -0.3739 -0.0596
  960SOL    HW1 2879   2.991   0.732   2.497 -1.9608 -0.4749  0.5966
  960SOL    HW2 2880   2.858   0.722   2.595 -0.1810 -1.6651  1.2148
  961SOL     OW 2881   0.996   0.814   2.695 -0.5262 -0.0420  0.0854
  961SOL    HW1 2882   1.016   0.753   2.616 -1.3761  1.7968  0.4993
  961SOL    HW2 2883   1.047   0.777   2.781  2.4862  0.5456  1.1345
  962SOL     OW 2884   0.717   1.237   2.616 -0.8221 -0.0571  0.0623
  962SOL    HW1 2885   0.697   1.250   2.716 -3.9715 -2.1540  2.0326
  962SOL    HW2 2886   0.631   1.250   2.562  1.5250 -2.2077  0.4586
  963SOL     OW 2887   2.566   2.556   0.482  0.5099  0.3340 -0.4952
  963SOL    HW1 2888   2.481   2.517   0.437 -1.7017 -0.9839 -1.4597
  963SOL    HW2 2889   2.604   2.636   0.435  2.3663 -0.8870  0.5368
  964SOL     OW 2890   0.961   2.492   1.147 -0.3015 -0.4293  0.7525
  964SOL    HW1 2891   0.984   2.466   1.242 -1.1242 -0.6739  0.5597
  964SOL    HW2 2892   1.005   2.583   1.129  1.1936  0.8097  1.3701
  965SOL     OW 2893   1.512   1.516   0.514 -0.3772 -0.4652  0.3490
  965SOL    HW1 2894   1.604   1.517   0.545  0.4923  1.3196 -0.4016
  965SOL    HW2 2895   1.447   1.503   0.589  1.4589 -0.6060 -2.7752
  966SOL     OW 2896   0.223   1.472   0.266 -0.2608 -0.3196  0.0579
  966SOL    HW1 2897   0.170   1.384   0.268  1.5199  1.4710 -1.1853
  966SOL    HW2 2898   0.285   1.463   0.182  2.9221  0.6965 -5.0320
  967SOL     OW 2899   1.958   0.187   1.844 -0.9746  0.1308 -0.6001
  967SOL    HW1 2900   1.976   0.165   1.943 -3.0321  0.0887 -0.0068
  967SOL    HW2 2901   1.916   0.277   1.831  1.4250 -1.0192  0.8626
  968SOL     OW 2902   1.657   0.751   0.733  0.6498  0.7069  0.5744
  968SOL    HW1 2903   1.695   0.842   0.703  0.9141  1.7717 -1.8400
  968SOL    HW2 2904   1.562   0.745   0.691 -0.1687  0.1596 -0.4549
  969SOL     OW 2905   0.276   1.165   2.296 -0.7264  0.2346 -0.7172
  969SOL    HW1 2906   0.242   1.240   2.231 -1.7253  1.7636 -1.1287
  969SOL    HW2 2907   0.201   1.102   2.327  1.2674  0.6126  1.7674
  970SOL     OW 2908   2.134   1.406   1.251  0.1795  0.0218 -0.1283
  970SOL    HW1 2909   2.182   1.355   1.328  0.2421  1.8312 -0.7130
  970SOL    HW2 2910   2.166   1.372   1.158  0.4036 -0.7827  0.4678
  971SOL     OW 2911   3.044   0.009   1.140  0.2186  0.2942 -0.1665
  971SOL    HW1 2912   3.083   0.092   1.093  1.6446  1.3088  0.4743
  971SOL    HW2 2913   3.054   3.008   1.085  0.3328 -0.0118 -2.1136
  972SOL     OW 2914   0.430   0.580   2.827  0.0820  0.5468  0.2615
  972SOL    HW1 2915   0.449   0.543   2.922  2.4450 -0.7085  1.1131
  972SOL    HW2 2916   0.353   0.526   2.781  0.6042 -0.8900 -0.3567
  973SOL     OW 2917   0.245   0.594   0.773 -0.1679 -0.2323  0.1471
  973SOL    HW1 2918   0.213   0.499   0.795 -1.0469 -0.2116 -2.4337
  973SOL    HW2 2919   0.326   0.615   0.828  0.6310  0.9406 -0.2389
  974SOL     OW 2920   2.185   0.496   1.730  0.8522  0.3615 -0.5470
  974SOL    HW1 2921   2.254   0.528   1.802  0.8781 -0.0147 -1.5063
  974SOL    HW2 2922   2.093   0.490   1.774  0.9726 -1.7167  1.8880
  975SOL     OW 2923   2.719   0.243   0.019  0.0199  0.1529  0.7111
  975SOL    HW1 2924   2.666   0.309   0.077  2.5217 -2.1033 -1.4372
  975SOL    HW2 2925   2.816   0.237   0.051  0.5453  2.8686 -0.9718
  976SOL     OW 2926   0.106   1.480   1.364  0.3311  0.3020 -0.1952
  976SOL    HW1 2927   0.135   1.480   1.459  0.3237  1.1965 -1.9397
  976SOL    HW2 2928   0.025   1.540   1.368  0.3928 -1.5055  1.7338
  977SOL     OW 2929   1.305   2.435   0.279  0.2668 -0.1534 -0.0626
  977SOL    HW1 2930   1.339   2.432   0.183  2.9147  1.0595 -0.7620
  977SOL    HW2 2931   1.362   2.392   0.349 -0.1934  0.3891  1.1843
  978SOL     OW 2932   0.298   1.159   2.889  0.1977  0.2842 -0.2743
  978SOL    HW1 2933   0.237   1.208   2.954  2.5720 -1.8414  0.1485
  978SOL    HW2 2934   0.365   1.099   2.942  1.5663  2.0726  0.3009
  979SOL     OW 2935   2.131   1.813   0.934  0.2162 -0.4131 -0.2195
  979SOL    HW1 2936   2.063   1.746   0.920  0.5193 -1.7698 -0.0984
  979SOL    HW2 2937   2.223   1.776   0.955 -0.5926 -1.0418  1.0199
  980SOL     OW 2938   0.382   1.468   1.713  0.3812 -0.3056  0.1595
  980SOL    HW1 2939   0.290   1.435   1.705  2.0133 -0.6649  1.2920
  980SOL    HW2 2940   0.443   1.394   1.685 -2.5651  0.8293  1.0782
  981SOL     OW 2941   2.631   1.479   0.313 -0.0814  0.1570 -0.1099
  981SOL    HW1 2942   2.721   1.533   0.326  3.2766  1.0725  0.6923
  981SOL    HW2 2943   2.588   1.502   0.226  3.1469  1.7415  0.9930
  982SOL     OW 2944   2.386   2.609   2.025  0.5113  0.2782 -0.2299
  982SOL    HW1 2945   2.465   2.668   2.033 -2.1990  0.4614 -0.6209
  982SOL    HW2 2946   2.393   2.531   2.086  1.1613 -0.3718  2.6809
  983SOL     OW 2947   1.221   0.206   1.133 -0.4824 -0.2293  0.4689
  983SOL    HW1 2948   1.172   0.149   1.197  1.8125  1.2245 -0.6338
  983SOL    HW2 2949   1.176   0.297   1.134  3.1090 -1.6307  1.7518
  984SOL     OW 2950   1.233   2.594   2.948  0.6047  0.1732  0.1210
  984SOL    HW1 2951   1.267   2.631   2.861 -1.2042 -1.5747 -0.6965
  984SOL    HW2 2952   1.307   2.548   3.001 -1.4490  1.3603 -0.5938
  985SOL     OW 2953   1.751   2.088   1.652 -0.0104  0.0401 -0.2696
  985SOL    HW1 2954   1.772   2.098   1.753  0.6954 -0.9690  3.0370
  985SOL    HW2 2955   1.704   1.996   1.639 -2.3348  0.3060  0.9700
  986SOL     OW 2956   2.359   3.016   2.661 -0.9037 -0.3750  0.1585
  986SOL    HW1 2957   2.346   2.918   2.635 -0.6600 -2.5170  0.2980
  986SOL    HW2 2958   2.457   3.042   2.654  0.2434  1.9944 -0.0263
  987SOL     OW 2959   2.833   0.999   2.140  0.0404  0.8198 -0.2510
  987SOL    HW1 2960   2.773   0.944   2.078 -0.4072 -0.0358 -2.0493
  987SOL    HW2 2961   2.783   1.080   2.176 -1.1072  2.2996 -1.0352
  988SOL     OW 2962   2.329   0.764   2.551 -0.1133 -0.3063 -0.1174
  988SOL    HW1 2963   2.354   0.668   2.528 -0.7554  1.6102 -1.2477
  988SOL    HW2 2964   2.305   0.822   2.471 -0.9020  0.4612 -0.8963
  989SOL     OW 2965   1.817   1.197   1.953  0.0522 -0.1520  0.9984
  989SOL    HW1 2966   1.773   1.131   1.885  0.1751 -2.4258 -2.7868
  989SOL    HW2 2967   1.915   1.210   1.937  2.0440 -0.1166  1.4712
  990SOL     OW 2968   0.336   1.120   0.162 -0.0963 -0.0881  0.0269
  990SOL    HW1 2969   0.362   1.021   0.135  0.1469 -2.0539 -0.7811
  990SOL    HW2 2970   0.266   1.124   0.238 -0.1428  3.5366  1.7119
  991SOL     OW 2971   0.279   1.672   2.823  0.0949  0.6712 -0.0421
  991SOL    HW1 2972   0.214   1.597   2.840  1.7907  2.4760 -1.7924
  991SOL    HW2 2973   0.374   1.658   2.860  1.1782 -1.6720 -1.3891
  992SOL     OW 2974   2.653   1.793   2.063  0.0717  0.7940 -0.0449
  992SOL    HW1 2975   2.640   1.823   1.966  1.1139 -2.9648 -0.7597
  992SOL    HW2 2976   2.583   1.726   2.094 -2.7877 -1.2514  0.6277
  993SOL     OW 2977   0.295   3.009   0.372  0.1109 -0.5400 -0.5336
  993SOL    HW1 2978   0.355   2.926   0.362  0.7483 -0.1867  0.6829
  993SOL    HW2 2979   0.253   3.014   0.463 -0.0258  0.8856 -2.8955
  994SOL     OW 2980   0.134   1.858   1.535  0.0374  0.8992 -0.3154
  994SOL    HW1 2981   0.125   1.797   1.617  0.5804 -0.3834  2.2838
  994SOL    HW2 2982   0.200   1.932   1.552  2.5087  0.9493  1.2558
  995SOL     OW 2983   2.152   1.673   2.809 -0.0059 -0.6310 -1.0021
  995SOL    HW1 2984   2.216   1.743   2.771 -1.0315 -0.0977  2.4386
  995SOL    HW2 2985   2.053   1.685   2.777 -4.0232  1.4750  0.7146
  996SOL     OW 2986   1.805   1.489   0.048  0.1618  0.6024  0.4915
  996SOL    HW1 2987   1.750   1.404   0.068 -0.4120 -1.6585 -1.1153
  996SOL    HW2 2988   1.746   1.573   0.044 -1.3664 -1.7341 -2.1256
  997SOL     OW 2989   1.482   1.372   1.718  0.1269 -0.2744  0.0564
  997SOL    HW1 2990   1.489   1.336   1.620 -3.4259  1.5347  2.9477
  997SOL    HW2 2991   1.418   1.302   1.763  0.5718 -0.7920 -0.1934
  998SOL     OW 2992   2.590   2.137   1.115 -0.2120 -0.2406 -0.1774
  998SOL    HW1 2993   2.576   2.232   1.150  0.5948 -0.0404 -1.2706
  998SOL    HW2 2994   2.659   2.145   1.041  0.3281 -0.6297  0.0282
  999SOL     OW 2995   2.094   2.459   0.386  0.7470  0.3027  0.2332
  999SOL    HW1 2996   2.161   2.503   0.322 -0.6832  0.9328  0.7166
  999SOL    HW2 2997   2.121   2.458   0.484  0.9403  0.4492  0.0235
 1000SOL     OW 2998   0.925   2.868   0.104 -0.1105 -0.1761  0.3221
 1000SOL    HW1 2999   1.011   2.820   0.077  1.5000  1.0090  0.3783
 1000SOL    HW2 3000   0.878   2.934   0.037  1.0387  0.0678  0.2878
   3.08500   3.08500   3.08500
