1000 SPC/Fw water molecules t=  64.00000 step= 64000
 3000
    1SOL     OW    1   2.089   2.595   0.901  0.1168  0.0248  0.1224
    1SOL    HW1    2   1.998   2.599   0.858  2.1705  0.3007  1.0745
    1SOL    HW2    3   2.161   2.665   0.863 -1.7148  1.1513  0.6092
    2SOL     OW    4   0.929   0.979   2.615 -0.0543 -0.1293 -0.0411
    2SOL    HW1    5   0.859   1.053   2.636 -4.0106  0.8325  0.5139
    2SOL    HW2    6   1.020   1.020   2.607 -1.8464 -0.1892 -0.7884
    3SOL     OW    7   1.360   2.688   2.577 -0.1453  0.2007  0.1323
    3SOL    HW1    8   1.431   2.701   2.644 -0.0166  0.2273 -0.0680
    3SOL    HW2    9   1.386   2.615   2.511  0.6364  0.2123 -1.0121
    4SOL     OW   10   1.328   1.866   2.958 -0.4761 -1.3397 -0.5486
    4SOL    HW1   11   1.333   1.782   2.900  1.3487  1.5249 -2.1194
    4SOL    HW2   12   1.396   1.934   2.925  1.4766  3.5816 -1.8253
    5SOL     OW   13   1.010   0.643   1.895 -0.0194  0.0227  0.0984
    5SOL    HW1   14   1.110   0.650   1.907 -0.7481  0.9800  3.8861
    5SOL    HW2   15   0.961   0.704   1.965 -0.7503  2.7798  3.2121
    6SOL     OW   16   1.941   0.708   2.450 -0.6708 -0.4179  0.6119
    6SOL    HW1   17   1.979   0.664   2.367  1.8627  1.5522  0.3096
    6SOL    HW2   18   1.864   0.654   2.480  1.0327  2.2916 -1.4960
    7SOL     OW   19   0.318   0.452   1.720  0.5225 -0.4339 -0.6508
    7SOL    HW1   20   0.249   0.459   1.643 -1.5624  1.3308 -0.3100
    7SOL    HW2   21   0.278   0.449   1.812  1.9681  0.2613  0.3297
    8SOL     OW   22   1.953   3.095   1.915 -0.8724 -0.2423 -0.1786
    8SOL    HW1   23   1.898   3.012   1.913  2.1899  0.0672 -0.3138
    8SOL    HW2   24   1.902   0.064   1.924  2.0335 -1.4480 -2.3792
    9SOL     OW   25   0.129   0.064   0.872 -0.0850 -0.0439  0.3654
    9SOL    HW1   26   0.050   0.101   0.822  3.0781 -1.0716  1.3158
    9SOL    HW2   27   0.127   0.065   0.974 -0.8565  1.3083 -0.1185
   10SOL     OW   28   0.460   2.240   2.471  0.3679  0.5125  0.7053
   10SOL    HW1   29   0.463   2.212   2.372  2.2150  2.4041 -2.1117
   10SOL    HW2   30   0.551   2.254   2.513 -0.8968  1.5572  1.1832
   11SOL     OW   31   0.794   1.532   0.120 -0.0003 -0.4651  0.3496
   11SOL    HW1   32   0.742   1.487   0.047  1.3318 -0.5832  1.4776
   11SOL    HW2   33   0.764   1.505   0.211 -0.8097  0.5100  0.2024
   12SOL     OW   34   2.719   2.384   1.491 -0.3694 -0.1932 -0.2573
   12SOL    HW1   35   2.793   2.427   1.552  2.7408  2.2665 -0.2028
   12SOL    HW2   36   2.718   2.285   1.515  1.7404  0.8343 -1.0060
   13SOL     OW   37   0.687   2.952   0.006 -0.1029  0.2368 -0.1561
   13SOL    HW1   38   0.690   3.054   0.001  4.1785  2.2823 -0.7326
   13SOL    HW2   39   0.614   2.922   0.072  1.0907 -3.9011  1.5371
   14SOL     OW   40   1.505   1.605   1.428  0.1061 -0.8654  0.1722
   14SOL    HW1   41   1.481   1.598   1.528  0.3937  0.6423  0.3537
   14SOL    HW2   42   1.607   1.609   1.419  1.7329  1.6625 -1.6171
   15SOL     OW   43   0.375   1.870   2.510  0.3863  0.0991 -0.1819
   15SOL    HW1   44   0.453   1.873   2.444 -0.7963  2.7278 -2.1583
   15SOL    HW2   45   0.304   1.946   2.492 -2.5463  2.5502 -1.4313
   16SOL     OW   46   1.716   0.461   2.728 -0.5002  0.0480  0.2647
   16SOL    HW1   47   1.736   0.477   2.630  0.1754 -3.1952 -2.1075
   16SOL    HW2   48   1.727   0.548   2.780  0.4370 -0.6357  2.9889
   17SOL     OW   49   2.990   2.667   2.367 -0.0918 -0.5974 -0.3659
   17SOL    HW1   50   2.990   2.641   2.466 -0.1662  0.7020  2.3607
   17SOL    HW2   51   3.052   2.608   2.316 -0.0720  0.1539 -0.3396
   18SOL     OW   52   1.168   1.211   0.694  0.1844  0.1280  0.0908
   18SOL    HW1   53   1.087   1.242   0.634 -1.0717 -0.9796 -1.5204
   18SOL    HW2   54   1.150   1.225   0.794  0.7769 -0.8301 -1.6456
   19SOL     OW   55   2.897   1.993   2.482 -0.6076  0.8086  0.2266
   19SOL    HW1   56   2.926   1.896   2.489  1.8869 -0.4105 -1.5462
   19SOL    HW2   57   2.904   2.044   2.569 -0.4751 -1.0546 -0.4175
   20SOL     OW   58   2.399   2.495   2.759 -0.4735  0.0804 -0.0260
   20SOL    HW1   59   2.391   2.591   2.731 -2.2110  0.9474  0.4072
   20SOL    HW2   60   2.317   2.437   2.730  0.2824 -0.3991  0.4820
   21SOL     OW   61   1.660   1.768   0.373  0.1177 -0.8467  0.0940
   21SOL    HW1   62   1.677   1.689   0.429  3.9201  0.8086 -1.1621
   21SOL    HW2   63   1.561   1.795   0.382  0.6039 -1.4002 -0.3975
   22SOL     OW   64   2.399   2.068   1.363 -0.2654  0.5176  0.0276
   22SOL    HW1   65   2.455   2.040   1.444  1.1346 -0.2617 -2.5617
   22SOL    HW2   66   2.383   2.168   1.365 -2.0121  2.2729  0.6049
   23SOL     OW   67   3.105   1.175   1.185 -0.8576  0.7560  0.0054
   23SOL    HW1   68   3.038   1.235   1.140  0.5140 -2.1315 -1.8925
   23SOL    HW2   69   3.068   1.083   1.199 -0.9145  1.2922 -0.4370
   24SOL     OW   70   2.265   1.437   1.933 -0.1520  0.1697  0.1801
   24SOL    HW1   71   2.319   1.461   1.846  1.3010 -0.1950 -0.0298
   24SOL    HW2   72   2.295   1.345   1.966  0.4231 -0.5340 -0.3674
   25SOL     OW   73   2.032   0.151   2.395 -0.1286 -0.8090 -0.3677
   25SOL    HW1   74   2.092   0.230   2.359  2.5431 -0.0080 -1.9103
   25SOL    HW2   75   2.068   0.058   2.376 -0.0923 -0.9500  3.2404
   26SOL     OW   76   1.190   0.082   0.310 -0.2772  0.7318  0.3278
   26SOL    HW1   77   1.124   0.159   0.290 -0.3195 -0.0430  0.6996
   26SOL    HW2   78   1.160   0.027   0.389  0.4297 -0.9473  0.5303
   27SOL     OW   79   0.600   1.823   0.723 -0.3530 -0.4580  0.2268
   27SOL    HW1   80   0.654   1.794   0.643 -0.3480  0.2555  2.1564
   27SOL    HW2   81   0.586   1.749   0.786  0.3998 -0.1061  0.1091
   28SOL     OW   82   2.415   2.330   1.100 -0.0011  0.6120  0.4056
   28SOL    HW1   83   2.414   2.229   1.079 -0.7739  0.0592  0.4487
   28SOL    HW2   84   2.385   2.342   1.197 -1.3766  2.4663 -1.5193
   29SOL     OW   85   2.188   3.033   1.781  0.2100 -0.0475  0.3872
   29SOL    HW1   86   2.109   3.077   1.829  2.1426  0.5133  0.4138
   29SOL    HW2   87   2.243   2.971   1.845 -0.5367  0.3497  1.8391
   30SOL     OW   88   0.720   2.905   1.243  0.0748  0.2462  0.3108
   30SOL    HW1   89   0.619   2.926   1.266 -1.3851  0.7811  2.2275
   30SOL    HW2   90   0.790   2.944   1.310  4.9594  0.3722  2.9475
   31SOL     OW   91   3.036   1.906   2.152 -0.5267  0.1530 -0.2105
   31SOL    HW1   92   3.116   1.945   2.097  0.7384 -0.0666  3.5384
   31SOL    HW2   93   3.040   1.802   2.153 -1.3796 -1.6093 -2.4191
   32SOL     OW   94   1.457   1.584   2.255  0.0483  0.0933  0.4470
   32SOL    HW1   95   1.393   1.587   2.174  1.2234 -0.9650 -0.3773
   32SOL    HW2   96   1.556   1.584   2.227  0.5858 -0.4592  0.6298
   33SOL     OW   97   0.203   3.059   3.037  0.0531  0.0899 -0.1975
   33SOL    HW1   98   0.274   0.012   3.005 -0.0929  1.1237  2.7131
   33SOL    HW2   99   0.249   2.970   3.040 -0.0723  2.1331  0.4758
   34SOL     OW  100   2.443   2.982   0.631  0.2754 -0.1116  0.2149
   34SOL    HW1  101   2.446   3.024   0.725 -1.0513  2.7941  0.7102
   34SOL    HW2  102   2.491   2.893   0.622  1.4938  2.5107  0.3488
   35SOL     OW  103   2.805   0.361   1.407  0.0484  0.0062 -1.0277
   35SOL    HW1  104   2.840   0.408   1.496  0.1341  0.3841  3.0722
   35SOL    HW2  105   2.705   0.334   1.426  0.9419 -0.8013 -0.7089
   36SOL     OW  106   2.831   0.009   2.264 -0.4639 -0.0932  0.5197
   36SOL    HW1  107   2.735   3.114   2.222 -2.8462 -0.9520  0.4251
   36SOL    HW2  108   2.894   3.044   2.247  0.2235 -1.4797  1.5285
   37SOL     OW  109   1.494   2.743   0.033  0.1502  0.4537  0.2421
   37SOL    HW1  110   1.532   2.817   3.096 -2.6000 -0.2661 -0.9932
   37SOL    HW2  111   1.392   2.749   0.032 -2.7040 -0.5730  1.8226
   38SOL     OW  112   0.005   0.972   0.038 -0.8051  0.2909 -0.4784
   38SOL    HW1  113   3.074   0.915   3.088 -0.0646  1.1931  1.6235
   38SOL    HW2  114   3.058   0.976   0.120  0.4479  0.4288  0.5778
   39SOL     OW  115   1.751   1.703   1.933 -0.0142  0.0441 -0.2960
   39SOL    HW1  116   1.668   1.764   1.932 -0.4666 -0.0328  1.4159
   39SOL    HW2  117   1.746   1.639   2.010  0.0104 -0.8476 -0.3814
   40SOL     OW  118   0.221   0.352   2.547  0.4967 -0.2156  0.3755
   40SOL    HW1  119   0.168   0.311   2.620  4.3560  0.8860 -1.5995
   40SOL    HW2  120   0.320   0.347   2.575  0.5737  0.6838 -0.5750
   41SOL     OW  121   1.766   1.198   1.805  0.1173 -0.1867 -0.0938
   41SOL    HW1  122   1.748   1.189   1.906  0.3979 -1.2049 -1.1239
   41SOL    HW2  123   1.724   1.276   1.756 -0.2802  0.0497 -0.5250
   42SOL     OW  124   0.086   0.230   1.444 -0.4781  0.7386  0.1032
   42SOL    HW1  125   3.112   0.214   1.405  0.7775  1.2224  0.9752
   42SOL    HW2  126   0.087   0.329   1.468 -0.7287 -0.3555 -0.6637
   43SOL     OW  127   1.429   1.174   1.724  0.7206  0.3675 -0.6487
   43SOL    HW1  128   1.327   1.167   1.735  0.3438 -1.3178 -0.2808
   43SOL    HW2  129   1.473   1.083   1.704  1.2773 -0.8252 -1.8758
   44SOL     OW  130   3.061   0.382   2.959 -0.3653 -0.0834  0.0431
   44SOL    HW1  131   3.072   0.360   3.058 -3.0599  0.8932 -2.2413
   44SOL    HW2  132   2.967   0.365   2.925  2.3604 -1.3213  0.3943
   45SOL     OW  133   0.414   2.118   1.217  0.0176  0.5373 -0.0421
   45SOL    HW1  134   0.378   2.208   1.193 -0.0210 -2.4892  0.6854
   45SOL    HW2  135   0.366   2.048   1.169  0.8065  2.9199  1.2066
   46SOL     OW  136   2.345   2.875   1.919  0.2314  0.3133 -0.3736
   46SOL    HW1  137   2.363   2.963   1.967  0.2419  1.3284  2.6826
   46SOL    HW2  138   2.434   2.824   1.902  0.8644 -0.6884  0.8022
   47SOL     OW  139   0.265   1.694   0.967 -0.2418  0.0617 -0.1145
   47SOL    HW1  140   0.350   1.648   0.996 -3.8693  0.1119 -0.3202
   47SOL    HW2  141   0.290   1.741   0.880  2.3602  1.5777 -2.2135
   48SOL     OW  142   0.449   2.913   0.187 -0.7324 -0.1356 -0.6815
   48SOL    HW1  143   0.475   2.983   0.262  0.6657  0.4236  2.0647
   48SOL    HW2  144   0.390   2.838   0.224  2.6450 -0.8911  0.2087
   49SOL     OW  145   2.859   1.783   1.795  0.8228  0.6826  0.0587
   49SOL    HW1  146   2.836   1.734   1.881 -0.1517  1.9640 -0.0511
   49SOL    HW2  147   2.946   1.756   1.749 -1.0235 -1.2126 -0.3837
   50SOL     OW  148   1.441   0.024   0.654  0.2394  0.1175 -0.1554
   50SOL    HW1  149   1.434   0.040   0.554  0.6260 -1.7355 -0.3671
   50SOL    HW2  150   1.373   0.075   0.709 -1.8200  1.8855 -1.2202
   51SOL     OW  151   1.087   0.321   1.290 -0.0144  0.4011  0.2119
   51SOL    HW1  152   1.165   0.373   1.251 -2.1700 -0.5601  3.3684
   51SOL    HW2  153   1.010   0.327   1.221 -1.7104  1.8642 -2.4468
   52SOL     OW  154   0.701   1.217   0.458  0.2397  0.0666 -0.1358
   52SOL    HW1  155   0.641   1.225   0.372  1.3672  1.9273 -1.4719
   52SOL    HW2  156   0.639   1.179   0.536 -2.3390 -2.0826  2.5309
   53SOL     OW  157   1.436   3.070   2.379 -0.2088  0.1339 -0.3988
   53SOL    HW1  158   1.463   0.016   2.460  1.7347  1.3625  0.1849
   53SOL    HW2  159   1.519   3.062   2.314  2.1609  1.3527  2.0291
   54SOL     OW  160   1.756   0.550   1.644 -0.0201 -0.3060  0.1294
   54SOL    HW1  161   1.713   0.573   1.552 -3.0741 -2.0155 -1.5433
   54SOL    HW2  162   1.852   0.580   1.649  1.1115  0.7959 -1.2664
   55SOL     OW  163   2.919   2.665   0.533 -0.0249 -0.0662 -0.0595
   55SOL    HW1  164   2.900   2.700   0.630  3.2045 -0.7487 -0.3270
   55SOL    HW2  165   2.979   2.578   0.535 -0.3092 -1.8692 -0.2785
   56SOL     OW  166   0.885   2.798   1.642  0.1109  0.5141 -0.2104
   56SOL    HW1  167   0.895   2.780   1.744  0.7600  1.4000  0.8922
   56SOL    HW2  168   0.939   2.878   1.611  2.5559 -1.0036  0.2654
   57SOL     OW  169   1.925   0.963   2.362 -0.0066 -0.3995  0.1654
   57SOL    HW1  170   1.933   0.874   2.407 -1.2915 -1.8023 -0.2616
   57SOL    HW2  171   1.940   0.952   2.262  0.6196 -2.2196  0.4353
   58SOL     OW  172   0.410   1.213   2.186  0.3681 -0.6161 -0.2746
   58SOL    HW1  173   0.467   1.277   2.131  0.4981 -0.3535 -0.6284
   58SOL    HW2  174   0.354   1.159   2.119  1.1311  0.4835  2.1173
   59SOL     OW  175   0.706   2.435   1.885  0.2937  0.1920 -0.5704
   59SOL    HW1  176   0.710   2.399   1.977 -0.1434 -0.7975  1.1287
   59SOL    HW2  177   0.799   2.467   1.856  0.8756 -0.9104  2.4031
   60SOL     OW  178   2.335   2.464   0.198 -0.2629 -0.1807 -0.7132
   60SOL    HW1  179   2.408   2.414   0.147 -1.3081 -0.9020 -0.5157
   60SOL    HW2  180   2.344   2.566   0.187 -1.0059  1.9669 -3.1468
   61SOL     OW  181   1.184   2.819   0.640  0.3837 -0.2064  0.7308
   61SOL    HW1  182   1.285   2.809   0.663 -0.3531 -0.8252  2.4287
   61SOL    HW2  183   1.161   2.744   0.575  0.9268  0.2034  0.7694
   62SOL     OW  184   1.788   2.487   2.770 -0.1818  0.3865  0.6626
   62SOL    HW1  185   1.691   2.470   2.754  0.3102 -2.0768  0.9740
   62SOL    HW2  186   1.844   2.405   2.791  1.0032  2.9127 -1.8033
   63SOL     OW  187   2.106   0.751   3.000 -0.6671 -0.4987  0.0457
   63SOL    HW1  188   2.040   0.826   3.017 -1.4900 -1.3355 -0.0445
   63SOL    HW2  189   2.188   0.755   3.064  1.2160  0.6924  2.1783
   64SOL     OW  190   1.219   1.373   0.081 -0.0999  0.0064 -0.3906
   64SOL    HW1  191   1.133   1.375   0.023 -0.5115  2.6837  1.2703
   64SOL    HW2  192   1.207   1.405   0.181  0.3245 -0.1282  2.1420
   65SOL     OW  193   0.915   2.995   1.430  0.3440 -0.2812 -0.0034
   65SOL    HW1  194   1.013   2.969   1.440  0.8949  1.2490 -1.9055
   65SOL    HW2  195   0.910   3.096   1.408  2.2511  3.1656 -0.8699
   66SOL     OW  196   0.785   1.246   1.447 -0.0528 -0.3321  0.1743
   66SOL    HW1  197   0.747   1.155   1.476 -1.5828  0.1725  0.2721
   66SOL    HW2  198   0.862   1.225   1.381 -0.0333  0.0665 -0.8992
   67SOL     OW  199   2.318   2.399   1.885  0.0841 -0.4017 -0.3098
   67SOL    HW1  200   2.329   2.414   1.983  0.1425 -0.9785 -2.2906
   67SOL    HW2  201   2.406   2.361   1.847  2.8207 -0.1882 -1.4539
   68SOL     OW  202   0.949   1.022   1.823 -0.1816 -0.3015  0.2519
   68SOL    HW1  203   0.881   1.050   1.889 -0.5679 -3.2735 -2.0664
   68SOL    HW2  204   0.905   0.955   1.760 -0.1432  3.7612  2.6474
   69SOL     OW  205   2.643   2.721   0.183 -0.1844  0.4278  0.6331
   69SOL    HW1  206   2.668   2.660   0.262  0.9117  1.4870 -0.1868
   69SOL    HW2  207   2.542   2.735   0.175  1.1959 -0.1430  0.5696
   70SOL     OW  208   2.466   0.748   2.545  0.2260  0.0871 -0.3626
   70SOL    HW1  209   2.496   0.783   2.635 -0.5972  1.3132  1.2753
   70SOL    HW2  210   2.551   0.721   2.493 -1.0642 -0.6565 -0.7238
   71SOL     OW  211   3.068   2.082   0.605  0.0710  0.4456 -0.1764
   71SOL    HW1  212   2.991   2.048   0.554  0.3071 -2.0312  1.3691
   71SOL    HW2  213   3.044   2.167   0.661  2.5803 -1.0547 -1.7569
   72SOL     OW  214   2.888   2.052   0.396 -0.3046  0.0561  0.1577
   72SOL    HW1  215   2.832   1.972   0.370  1.0363  1.0492 -1.4993
   72SOL    HW2  216   2.944   2.094   0.324 -0.7209 -0.1071  0.2679
   73SOL     OW  217   0.808   0.576   0.853  0.3146 -0.4190  0.4058
   73SOL    HW1  218   0.748   0.537   0.928  0.7145  3.2531 -1.3998
   73SOL    HW2  219   0.787   0.675   0.839 -2.2089 -1.0608 -1.1297
   74SOL     OW  220   2.645   2.327   2.075  0.8337 -0.1741 -0.3738
   74SOL    HW1  221   2.648   2.227   2.072 -0.4049  1.4509  2.6338
   74SOL    HW2  222   2.724   2.364   2.131  0.9253 -0.5569 -1.7914
   75SOL     OW  223   1.849   1.716   1.683 -0.6622  0.1543 -0.7746
   75SOL    HW1  224   1.807   1.714   1.779 -0.4456  0.6925  3.4633
   75SOL    HW2  225   1.793   1.676   1.614  2.3582 -0.6430  3.7116
   76SOL     OW  226   1.199   1.869   1.324 -0.5693 -0.1170 -0.4346
   76SOL    HW1  227   1.204   1.784   1.273  0.2106  0.7764  2.4193
   76SOL    HW2  228   1.129   1.856   1.394  0.6276  1.1734  1.7803
   77SOL     OW  229   2.771   1.685   2.026 -0.2792  0.6761  0.4832
   77SOL    HW1  230   2.781   1.594   2.062 -3.2724  2.3722  0.9098
   77SOL    HW2  231   2.748   1.756   2.090  1.3891 -1.3543 -2.2203
   78SOL     OW  232   1.627   0.603   0.523 -0.1689  0.2277  0.0426
   78SOL    HW1  233   1.598   0.522   0.470  1.2199  0.2884  1.2945
   78SOL    HW2  234   1.552   0.668   0.540  0.3443  1.7027  0.4116
   79SOL     OW  235   2.029   1.215   1.799  0.5580  0.0367  0.0463
   79SOL    HW1  236   2.036   1.193   1.898 -3.4200 -0.0680 -3.0433
   79SOL    HW2  237   1.929   1.208   1.772 -0.8638 -1.6709  1.3543
   80SOL     OW  238   1.017   0.535   1.626 -0.1286 -0.2442 -0.0513
   80SOL    HW1  239   1.102   0.551   1.574 -1.0215 -1.9668  0.2915
   80SOL    HW2  240   1.006   0.591   1.710 -0.1233  1.8069 -2.4736
   81SOL     OW  241   0.920   2.582   0.722  0.4448 -0.1726 -0.0702
   81SOL    HW1  242   0.986   2.652   0.753  0.8206  0.4041 -0.9326
   81SOL    HW2  243   0.967   2.492   0.710 -0.8744 -0.6032 -0.2241
   82SOL     OW  244   1.362   0.319   1.865  0.3324 -0.0078 -0.6684
   82SOL    HW1  245   1.433   0.329   1.788  1.9623 -0.1021 -2.1079
   82SOL    HW2  246   1.367   0.226   1.906  0.2804  0.8905  1.8363
   83SOL     OW  247   0.398   2.245   0.612  0.0876 -0.0598 -0.5587
   83SOL    HW1  248   0.330   2.171   0.586  0.9914  2.8076 -2.4451
   83SOL    HW2  249   0.385   2.287   0.703  0.0910  1.6133 -0.7764
   84SOL     OW  250   2.708   1.558   3.003  0.5283  0.0246  0.3517
   84SOL    HW1  251   2.754   1.481   2.960 -0.4649  1.4409 -2.3774
   84SOL    HW2  252   2.763   1.640   3.005 -0.5627  0.3026 -0.6851
   85SOL     OW  253   2.653   2.464   1.834 -0.0534  0.0273 -0.5069
   85SOL    HW1  254   2.590   2.419   1.770  3.5090  2.8295  1.5656
   85SOL    HW2  255   2.663   2.407   1.922  2.4902 -0.2037 -2.2726
   86SOL     OW  256   1.551   2.660   1.208 -0.6768  0.5448 -0.1363
   86SOL    HW1  257   1.631   2.609   1.236 -1.6285  0.3789 -2.8302
   86SOL    HW2  258   1.576   2.721   1.128  1.9523  1.1560 -2.3204
   87SOL     OW  259   2.728   1.745   0.342 -0.3242  0.1675  0.0118
   87SOL    HW1  260   2.637   1.785   0.369 -2.3137 -0.5743  0.4037
   87SOL    HW2  261   2.714   1.691   0.259 -1.4527  0.1907  2.7879
   88SOL     OW  262   0.826   0.371   1.155  0.3105  0.2823  0.0867
   88SOL    HW1  263   0.757   0.443   1.174 -0.5157 -0.3686 -1.1457
   88SOL    HW2  264   0.786   0.280   1.126 -3.4071  2.7454  0.0189
   89SOL     OW  265   0.750   3.106   1.863  0.1422  0.3327  0.1125
   89SOL    HW1  266   0.795   0.077   1.891  0.7373  0.5630 -0.3482
   89SOL    HW2  267   0.707   3.060   1.943 -0.2446 -1.2787  1.3687
   90SOL     OW  268   2.995   1.804   1.045 -0.3802  0.0827  0.3098
   90SOL    HW1  269   3.030   1.860   0.966  0.0278 -1.3301 -4.0335
   90SOL    HW2  270   3.048   1.837   1.126  0.2071  1.6228  0.9128
   91SOL     OW  271   1.317   1.629   1.241  0.3547  1.1928  0.0016
   91SOL    HW1  272   1.388   1.622   1.317  2.9010  0.6254 -0.9115
   91SOL    HW2  273   1.256   1.543   1.229  0.8461 -0.7696  0.5359
   92SOL     OW  274   2.655   0.116   1.640 -0.1508  0.0326  0.0515
   92SOL    HW1  275   2.595   0.155   1.712 -0.1613  0.6859 -1.1164
   92SOL    HW2  276   2.745   0.077   1.673 -0.3505 -2.5870  0.6363
   93SOL     OW  277   0.242   1.027   2.763 -0.1297 -0.7351  0.2062
   93SOL    HW1  278   0.304   0.975   2.823 -1.1463 -1.2934  0.6503
   93SOL    HW2  279   0.289   1.095   2.703 -0.9315 -0.7536 -1.4508
   94SOL     OW  280   2.384   0.031   1.982 -0.5746 -0.8518 -0.2747
   94SOL    HW1  281   2.307   0.062   2.038  2.0495  0.5066 -0.6898
   94SOL    HW2  282   2.399   0.100   1.908 -1.7527 -1.2971 -0.3120
   95SOL     OW  283   1.738   0.736   2.059  0.7979  0.3621  0.2981
   95SOL    HW1  284   1.646   0.733   2.104  1.0715  0.2502  1.9478
   95SOL    HW2  285   1.716   0.761   1.959 -2.5198 -0.5378 -2.0862
   96SOL     OW  286   2.923   0.685   1.793 -0.0513  0.0080 -0.0169
   96SOL    HW1  287   2.988   0.692   1.873  0.7772 -1.9006  0.2955
   96SOL    HW2  288   2.837   0.734   1.815 -0.1736 -1.1746  0.9421
   97SOL     OW  289   2.244   2.888   1.574 -0.2165 -0.5761  0.2351
   97SOL    HW1  290   2.322   2.831   1.591 -3.1901  0.1093 -0.2229
   97SOL    HW2  291   2.228   2.943   1.658  1.0529  0.9054 -1.6398
   98SOL     OW  292   2.127   2.511   1.713 -0.0765 -0.1987 -0.2927
   98SOL    HW1  293   2.208   2.484   1.770 -0.2144  3.1396  2.5447
   98SOL    HW2  294   2.052   2.539   1.777  0.5043  0.4158  2.5505
   99SOL     OW  295   2.609   0.634   1.692 -0.0893 -0.4402 -0.2041
   99SOL    HW1  296   2.539   0.573   1.666 -0.1083  1.3753 -0.3656
   99SOL    HW2  297   2.581   0.661   1.788 -5.6090 -1.3827  0.2108
  100SOL     OW  298   2.312   1.902   1.898  0.1962 -0.1180 -0.4156
  100SOL    HW1  299   2.213   1.876   1.903  0.2020  1.1094  0.8250
  100SOL    HW2  300   2.348   1.897   1.994 -0.1661  2.8514  2.6919
  101SOL     OW  301   2.205   0.119   3.101 -0.5007  0.0331 -0.0477
  101SOL    HW1  302   2.281   0.108   0.050 -1.4617  1.3536 -0.3507
  101SOL    HW2  303   2.172   0.220   3.093  0.6579 -0.3923 -0.5378
  102SOL     OW  304   0.658   0.703   1.329 -0.4063 -0.0156  0.4216
  102SOL    HW1  305   0.695   0.652   1.410 -1.2742  0.4572 -1.0462
  102SOL    HW2  306   0.664   0.641   1.243 -0.2335 -3.9849 -1.2865
  103SOL     OW  307   2.955   0.249   2.307 -0.1999  0.1645  0.4641
  103SOL    HW1  308   2.870   0.192   2.284 -0.9682 -4.7845 -1.7783
  103SOL    HW2  309   3.033   0.193   2.272  0.1844 -0.7772 -2.1583
  104SOL     OW  310   0.226   2.921   1.542  0.2260 -0.3038  0.3965
  104SOL    HW1  311   0.226   2.956   1.446  0.0460  1.0099  0.0538
  104SOL    HW2  312   0.321   2.929   1.581  1.0301 -1.7506 -1.8207
  105SOL     OW  313   1.435   1.239   2.066  0.3339  0.4141 -0.0427
  105SOL    HW1  314   1.345   1.269   2.104  3.1262  0.5401  1.5333
  105SOL    HW2  315   1.429   1.215   1.968 -0.9692 -1.3100 -1.2237
  106SOL     OW  316   1.797   0.450   0.716 -0.5979 -0.4859 -0.1842
  106SOL    HW1  317   1.861   0.499   0.779  2.6842 -1.5885  1.3586
  106SOL    HW2  318   1.733   0.512   0.666  1.0370 -0.9264 -0.9715
  107SOL     OW  319   0.500   0.937   1.372 -0.6006  0.1670 -0.0349
  107SOL    HW1  320   0.425   0.906   1.434 -2.2084  1.5235  2.8303
  107SOL    HW2  321   0.567   0.856   1.353  2.4590 -0.2119  1.8894
  108SOL     OW  322   3.039   0.609   2.468 -0.4090 -0.3080 -0.3845
  108SOL    HW1  323   3.004   0.607   2.372  0.4923 -3.9144  0.1376
  108SOL    HW2  324   3.009   0.523   2.515  1.3446 -1.5041 -1.1569
  109SOL     OW  325   1.974   0.088   2.742  0.3782 -0.4790 -0.7643
  109SOL    HW1  326   2.073   0.100   2.769  0.8213 -1.7263  2.8349
  109SOL    HW2  327   1.965   0.003   2.687 -1.7016 -0.0192  1.5490
  110SOL     OW  328   0.091   1.815   2.795 -0.1201  0.1819  0.0662
  110SOL    HW1  329   0.048   1.789   2.884  1.1322  0.3464  0.7177
  110SOL    HW2  330   0.180   1.872   2.809  3.3792  4.8774 -1.7716
  111SOL     OW  331   2.770   0.512   2.651 -0.7688 -0.1569  0.1155
  111SOL    HW1  332   2.713   0.465   2.720  2.6497  0.7545  2.2504
  111SOL    HW2  333   2.846   0.447   2.617  4.9569 -3.1311  0.0877
  112SOL     OW  334   2.887   2.800   1.218 -0.1992  0.0875 -0.4999
  112SOL    HW1  335   2.795   2.762   1.193 -3.2771 -0.2941 -1.6658
  112SOL    HW2  336   2.952   2.725   1.234  0.7598  3.8703  0.2867
  113SOL     OW  337   2.334   2.219   2.220  0.0082  0.1397  0.6127
  113SOL    HW1  338   2.336   2.319   2.195 -1.5106 -3.3145  1.1189
  113SOL    HW2  339   2.237   2.190   2.237  0.3894  0.1175  1.2184
  114SOL     OW  340   2.861   0.304   0.266 -0.5668  0.1268 -0.3102
  114SOL    HW1  341   2.866   0.219   0.315 -1.7695  3.3051 -0.7440
  114SOL    HW2  342   2.909   0.376   0.318  0.2451 -2.7127 -0.1595
  115SOL     OW  343   2.836   1.832   2.999  0.4546  0.0284  0.3820
  115SOL    HW1  344   2.930   1.845   3.035 -1.3425 -0.7269  0.1325
  115SOL    HW2  345   2.830   1.847   2.898 -0.8340 -0.2349 -2.1541
  116SOL     OW  346   0.036   1.362   2.006 -0.4159 -0.0444  0.8981
  116SOL    HW1  347   0.079   1.324   1.920  0.7634 -0.6464  1.4118
  116SOL    HW2  348   0.024   1.282   2.064 -0.9088  2.0742 -1.7236
  117SOL     OW  349   2.153   0.132   0.968  0.0360  0.0021  0.4184
  117SOL    HW1  350   2.091   0.059   0.936 -0.4056  0.6205  0.3364
  117SOL    HW2  351   2.208   0.107   1.047 -0.3234  2.9665 -2.9652
  118SOL     OW  352   2.985   2.548   2.011 -0.4219  0.3237  0.1796
  118SOL    HW1  353   2.953   2.591   1.924 -3.1223  1.3161  3.0705
  118SOL    HW2  354   3.078   2.588   2.032 -0.0040  0.6868 -2.1528
  119SOL     OW  355   0.739   1.692   1.293 -0.7300 -0.3255  0.5695
  119SOL    HW1  356   0.761   1.789   1.298 -1.5078 -2.2704 -0.2570
  119SOL    HW2  357   0.638   1.682   1.279 -3.6377  0.2494 -0.1549
  120SOL     OW  358   0.260   1.667   1.263 -1.0527 -0.3738 -0.2760
  120SOL    HW1  359   0.194   1.588   1.279 -0.9868 -1.2155 -0.0568
  120SOL    HW2  360   0.241   1.720   1.181  1.1045 -0.6507  1.5790
  121SOL     OW  361   1.825   1.264   0.868  0.7855  0.1841  0.4396
  121SOL    HW1  362   1.864   1.356   0.844 -1.5276 -3.4502 -1.5790
  121SOL    HW2  363   1.727   1.267   0.901 -1.5278  1.7475 -0.4060
  122SOL     OW  364   1.903   1.979   2.586  0.1083  0.0570 -0.0078
  122SOL    HW1  365   1.870   1.936   2.501  3.0282 -0.7397  1.0888
  122SOL    HW2  366   1.996   2.025   2.564  0.9830  0.7297 -0.9170
  123SOL     OW  367   2.891   0.035   0.351  0.6334  0.3404  0.1765
  123SOL    HW1  368   2.975   3.093   0.337 -1.2285 -0.8435 -2.1561
  123SOL    HW2  369   2.842   0.017   0.439 -0.0202  1.8780  0.7525
  124SOL     OW  370   0.957   1.191   0.452  0.1991 -0.3125 -0.1698
  124SOL    HW1  371   0.856   1.181   0.437  2.0863  1.7758  0.9699
  124SOL    HW2  372   0.966   1.297   0.467  1.3412  1.4004 -2.2966
  125SOL     OW  373   0.265   1.352   2.370 -0.6799 -0.3304  0.1499
  125SOL    HW1  374   0.323   1.436   2.364  1.4305 -0.2979 -0.9225
  125SOL    HW2  375   0.305   1.272   2.316  0.9697 -2.1759 -0.2084
  126SOL     OW  376   0.112   2.565   0.121 -0.3518  0.5031  0.6587
  126SOL    HW1  377   0.064   2.516   0.197 -0.7720  0.4746  3.3736
  126SOL    HW2  378   0.150   2.652   0.156 -2.1271 -3.3710 -3.4850
  127SOL     OW  379   2.807   1.755   0.593 -0.0761 -0.1612 -0.3600
  127SOL    HW1  380   2.797   1.752   0.491  2.1499 -0.0461 -0.0604
  127SOL    HW2  381   2.797   1.664   0.632  1.9883  0.4579  0.6309
  128SOL     OW  382   1.225   0.945   0.636 -0.0939 -0.2838  0.3865
  128SOL    HW1  383   1.214   1.044   0.651 -0.1566  0.4628 -0.1638
  128SOL    HW2  384   1.270   0.901   0.714 -1.3939  0.4652 -1.2192
  129SOL     OW  385   2.437   2.024   1.087 -0.8402  0.0725  0.2838
  129SOL    HW1  386   2.357   1.978   1.049  1.6668  1.6977 -0.9624
  129SOL    HW2  387   2.432   2.039   1.189 -1.3594 -0.4994 -2.4263
  130SOL     OW  388   2.149   0.930   0.899  0.2442  0.0825 -0.5626
  130SOL    HW1  389   2.143   0.921   0.998 -1.5064  0.2520 -2.4793
  130SOL    HW2  390   2.151   1.028   0.874 -1.2597 -1.3786 -0.8095
  131SOL     OW  391   2.951   1.137   2.625 -0.0677 -0.4632 -1.0515
  131SOL    HW1  392   2.868   1.086   2.617  3.5215  3.4214  2.4333
  131SOL    HW2  393   3.022   1.065   2.633 -1.1135  2.3661  0.0005
  132SOL     OW  394   1.696   1.226   2.082  0.5899 -0.5100 -0.1801
  132SOL    HW1  395   1.733   1.207   2.176 -0.6517  2.2204  0.7112
  132SOL    HW2  396   1.594   1.244   2.083  0.7035 -0.2173  1.2451
  133SOL     OW  397   3.019   1.002   0.294  0.2567 -0.0808  0.9848
  133SOL    HW1  398   3.026   0.904   0.325  0.6982  3.6559  0.0120
  133SOL    HW2  399   3.099   1.056   0.323  1.7547  0.4192 -1.1648
  134SOL     OW  400   2.715   0.828   0.350 -0.3754 -0.0280  0.0740
  134SOL    HW1  401   2.710   0.771   0.269 -0.2925  2.0332  3.1904
  134SOL    HW2  402   2.650   0.908   0.338 -0.1248  0.9215 -2.2789
  135SOL     OW  403   1.556   0.759   3.094  0.1387  0.5866  0.0240
  135SOL    HW1  404   1.619   0.705   3.035  1.2201 -0.5735  0.1975
  135SOL    HW2  405   1.563   0.706   0.067 -0.2825  0.9081  2.1230
  136SOL     OW  406   1.865   1.966   1.575 -0.1585  0.4303 -0.1835
  136SOL    HW1  407   1.856   1.867   1.594  0.6752 -0.1623 -0.7619
  136SOL    HW2  408   1.898   1.982   1.484  0.5764 -0.0284  0.9007
  137SOL     OW  409   2.519   2.501   0.603 -0.2565 -0.3347 -0.0305
  137SOL    HW1  410   2.536   2.451   0.689 -3.9141  2.3865 -1.1130
  137SOL    HW2  411   2.424   2.496   0.566  3.0024 -1.5970 -0.1207
  138SOL     OW  412   2.399   0.458   1.553  0.3557 -0.1791 -0.0558
  138SOL    HW1  413   2.319   0.411   1.593 -0.6091 -2.3100  0.1157
  138SOL    HW2  414   2.443   0.402   1.478  0.1228  1.5621 -1.1174
  139SOL     OW  415   2.528   0.253   2.433  0.1959  0.2175 -0.0862
  139SOL    HW1  416   2.507   0.339   2.492 -1.6360  3.2944  0.6618
  139SOL    HW2  417   2.613   0.206   2.468  3.4046  1.2566  0.3221
  140SOL     OW  418   1.112   1.797   2.142 -0.6066 -0.1986 -0.5190
  140SOL    HW1  419   1.147   1.874   2.200 -0.2172  0.1218  1.3208
  140SOL    HW2  420   1.188   1.731   2.111  3.6222  0.5786 -1.9174
  141SOL     OW  421   0.966   0.577   2.512 -0.1475  1.1446  1.1046
  141SOL    HW1  422   1.023   0.662   2.529  0.6978 -1.2011  0.1959
  141SOL    HW2  423   0.886   0.602   2.452 -2.0780 -0.4349 -0.0165
  142SOL     OW  424   2.768   2.777   2.746 -0.2953  0.0479 -0.3304
  142SOL    HW1  425   2.685   2.801   2.807 -2.0191  2.5180  1.0538
  142SOL    HW2  426   2.756   2.683   2.701 -0.5991 -0.4300 -0.9620
  143SOL     OW  427   0.986   2.146   0.383 -0.5187  0.4632 -0.2687
  143SOL    HW1  428   1.079   2.109   0.384  1.6328 -4.1140  0.2695
  143SOL    HW2  429   0.943   2.135   0.474 -0.0885  0.5359 -2.7683
  144SOL     OW  430   1.199   2.709   3.075 -0.0227 -0.3113  0.3000
  144SOL    HW1  431   1.123   2.647   3.076  0.5210  1.4942 -0.6075
  144SOL    HW2  432   1.231   2.730   0.054  0.9207 -0.5081  2.5162
  145SOL     OW  433   1.629   2.113   2.628 -0.1535  0.1969  0.0500
  145SOL    HW1  434   1.727   2.094   2.611 -0.3060  0.3135  0.3692
  145SOL    HW2  435   1.579   2.103   2.547  1.9136  0.0156  2.4796
  146SOL     OW  436   2.458   0.037   2.834 -0.3134  0.2096  0.2300
  146SOL    HW1  437   2.482   0.024   2.935 -2.0216 -0.3788 -0.6232
  146SOL    HW2  438   2.506   3.092   2.769 -1.6989  1.1869 -2.0318
  147SOL     OW  439   2.694   1.161   0.992  0.3816  0.1279 -0.2491
  147SOL    HW1  440   2.774   1.210   1.030 -0.0878  1.1770 -1.5938
  147SOL    HW2  441   2.610   1.219   1.004 -1.6750  2.8405 -1.0342
  148SOL     OW  442   2.107   2.795   0.128  0.5549 -0.2600  0.3447
  148SOL    HW1  443   2.037   2.786   0.202  0.0702 -0.2908  2.0676
  148SOL    HW2  444   2.061   2.812   0.036 -3.2175 -0.4792 -2.1385
  149SOL     OW  445   0.595   1.677   2.691  0.1580  0.2957  0.1435
  149SOL    HW1  446   0.493   1.669   2.681  1.7543 -1.5502  0.9253
  149SOL    HW2  447   0.637   1.587   2.713 -0.1416 -1.8147 -0.3352
  150SOL     OW  448   0.346   2.488   0.434 -0.1621  0.1737  0.3367
  150SOL    HW1  449   0.443   2.476   0.406  0.3707  0.6735 -0.2662
  150SOL    HW2  450   0.345   2.473   0.535  0.2352 -2.2681 -0.4966
  151SOL     OW  451   0.344   1.236   0.174  0.1739 -0.4384 -0.6028
  151SOL    HW1  452   0.283   1.157   0.187 -1.5531  0.9718  0.1655
  151SOL    HW2  453   0.300   1.297   0.103  0.5691  0.1948  0.0058
  152SOL     OW  454   2.822   2.257   0.576  0.3986  0.1018  0.4621
  152SOL    HW1  455   2.822   2.184   0.505  1.3188  2.3649 -1.2355
  152SOL    HW2  456   2.731   2.267   0.617  1.6726 -0.7581 -2.6170
  153SOL     OW  457   1.869   2.216   0.617 -0.2641  0.4893  0.0848
  153SOL    HW1  458   1.823   2.206   0.707 -0.7342 -2.3031  0.0643
  153SOL    HW2  459   1.805   2.182   0.543  1.2390  0.7712 -0.4990
  154SOL     OW  460   0.863   2.649   1.285  0.2595 -0.4593 -0.3267
  154SOL    HW1  461   0.805   2.578   1.242 -0.7819  0.4737  1.8926
  154SOL    HW2  462   0.823   2.741   1.266  1.0191  0.5707  0.4132
  155SOL     OW  463   2.811   1.960   0.756  0.1637  0.0390  0.5547
  155SOL    HW1  464   2.748   2.019   0.706  0.6548  0.0284 -0.6659
  155SOL    HW2  465   2.834   1.872   0.700 -1.2492 -1.3555  0.5075
  156SOL     OW  466   2.825   2.314   2.971  0.1381 -0.1625  0.4169
  156SOL    HW1  467   2.802   2.402   3.016  0.1133  0.8646 -0.3955
  156SOL    HW2  468   2.746   2.268   2.925 -0.9943  0.5358 -0.9284
  157SOL     OW  469   0.477   2.069   1.715  0.2930 -0.3305  0.0001
  157SOL    HW1  470   0.482   2.171   1.717 -5.3610 -1.6961 -1.0659
  157SOL    HW2  471   0.414   2.052   1.635  0.0174 -1.1595 -3.3374
  158SOL     OW  472   1.597   0.343   0.416 -0.0011  0.2546 -0.3677
  158SOL    HW1  473   1.624   0.289   0.498  0.1653 -0.9273 -1.1660
  158SOL    HW2  474   1.683   0.345   0.357  2.9081  1.4611 -0.7969
  159SOL     OW  475   1.574   0.598   0.230  0.8339  0.3786 -0.2311
  159SOL    HW1  476   1.621   0.533   0.164 -1.4076  1.5773  0.3390
  159SOL    HW2  477   1.470   0.592   0.234  0.6973  1.5115  0.5692
  160SOL     OW  478   0.750   1.475   0.675  0.3021 -0.1186 -0.5023
  160SOL    HW1  479   0.775   1.420   0.754  1.9075 -0.3065  0.0198
  160SOL    HW2  480   0.650   1.509   0.673 -2.7796  1.4496 -4.0716
  161SOL     OW  481   3.042   2.562   2.642  0.3227  0.1249 -0.1243
  161SOL    HW1  482   3.041   2.465   2.610 -1.0440  1.9849 -1.2979
  161SOL    HW2  483   0.001   2.570   2.709  1.8230 -0.3060 -1.6552
  162SOL     OW  484   0.277   2.364   1.152  0.2179  0.2688 -0.0661
  162SOL    HW1  485   0.324   2.444   1.192 -0.0355  3.0270  0.0410
  162SOL    HW2  486   0.188   2.348   1.202 -0.3979 -2.1406 -0.0162
  163SOL     OW  487   0.286   0.558   3.073  0.3632 -0.6231 -0.3753
  163SOL    HW1  488   0.308   0.577   2.969  0.3921  3.6034 -3.9278
  163SOL    HW2  489   0.191   0.595   3.080  0.2307 -0.4729  1.1704
  164SOL     OW  490   0.252   3.027   2.625 -0.3694  0.3169  0.0850
  164SOL    HW1  491   0.339   2.971   2.633  1.4816 -0.7419  0.9115
  164SOL    HW2  492   0.178   2.967   2.600  0.1073  0.7354  1.0322
  165SOL     OW  493   2.627   1.043   1.703  0.5884 -0.3057 -0.3700
  165SOL    HW1  494   2.604   1.012   1.606  2.3716  1.8802 -1.2066
  165SOL    HW2  495   2.541   1.071   1.758 -1.8690 -1.0008 -0.0180
  166SOL     OW  496   2.070   2.062   1.331  0.5210 -0.4818 -0.0772
  166SOL    HW1  497   2.166   2.099   1.326  1.6489  1.2247  0.3648
  166SOL    HW2  498   2.018   2.105   1.256 -2.5290  2.4273  0.6522
  167SOL     OW  499   0.760   0.920   2.400  0.4091 -0.2132 -0.4764
  167SOL    HW1  500   0.798   0.947   2.311 -3.3712  0.1110  2.2201
  167SOL    HW2  501   0.827   0.925   2.473 -2.3541 -0.0429 -0.5006
  168SOL     OW  502   2.149   0.115   2.075  0.1566  0.8227  0.1252
  168SOL    HW1  503   2.176   0.059   2.156  2.6942  1.7706 -1.9216
  168SOL    HW2  504   2.061   0.085   2.041  1.2055  0.3408 -1.9246
  169SOL     OW  505   0.301   0.908   0.444  0.0286  0.9526 -0.5249
  169SOL    HW1  506   0.399   0.892   0.461 -2.9908  0.6202 -1.8671
  169SOL    HW2  507   0.289   0.922   0.346  0.1525 -0.9366 -1.2182
  170SOL     OW  508   0.403   1.446   1.765 -0.9373  0.2602 -0.8206
  170SOL    HW1  509   0.385   1.363   1.712  0.1862  0.0418  1.8309
  170SOL    HW2  510   0.482   1.504   1.731 -0.4332  1.9127 -1.4305
  171SOL     OW  511   1.044   2.120   1.635  0.1671  0.2839  0.2502
  171SOL    HW1  512   0.955   2.132   1.687 -1.7183  1.3548  2.0892
  171SOL    HW2  513   1.049   2.195   1.564 -0.1363 -0.4177  1.2624
  172SOL     OW  514   1.361   2.715   1.896  0.4622  0.0072 -0.1602
  172SOL    HW1  515   1.284   2.779   1.918  1.8673  0.9382  0.0891
  172SOL    HW2  516   1.342   2.618   1.927  0.8749 -0.6546  1.6126
  173SOL     OW  517   1.333   2.458   0.647  0.1142  0.1725  0.9419
  173SOL    HW1  518   1.302   2.359   0.648  0.3649 -1.5422 -2.0065
  173SOL    HW2  519   1.361   2.494   0.735 -2.3260  0.1225  1.5034
  174SOL     OW  520   2.336   0.003   0.410  0.0981 -0.2649  0.9483
  174SOL    HW1  521   2.375   3.100   0.505 -1.9125 -2.1676  0.5532
  174SOL    HW2  522   2.339   0.097   0.378  1.3568 -0.3294  0.7861
  175SOL     OW  523   0.990   1.433   0.577 -0.8646  0.3262  0.3233
  175SOL    HW1  524   1.056   1.457   0.653  0.3920 -1.3344 -2.0303
  175SOL    HW2  525   0.896   1.469   0.605 -3.1089 -0.4794  0.6657
  176SOL     OW  526   0.738   1.745   0.489 -0.0332 -0.9001  0.0883
  176SOL    HW1  527   0.704   1.833   0.445  0.9744  1.4302  2.8192
  176SOL    HW2  528   0.721   1.655   0.439  0.4662 -2.2584 -0.7702
  177SOL     OW  529   1.203   1.089   1.406 -0.7175  0.2046  0.0283
  177SOL    HW1  530   1.174   1.142   1.492  1.3801  3.0663  0.3555
  177SOL    HW2  531   1.279   1.028   1.428  0.9008  1.2833 -0.2325
  178SOL     OW  532   2.477   1.851   0.381  0.2721 -0.2269 -0.1083
  178SOL    HW1  533   2.425   1.917   0.333  0.7499 -1.6550  0.4203
  178SOL    HW2  534   2.445   1.758   0.362  0.7279  3.2687  0.3756
  179SOL     OW  535   1.034   2.510   3.047 -0.2981  0.2747 -0.4623
  179SOL    HW1  536   0.962   2.484   2.980  2.9801 -1.9949  0.0923
  179SOL    HW2  537   1.111   2.447   3.037 -4.6072  0.8803  0.3716
  180SOL     OW  538   2.065   1.562   2.056  0.4662  0.1242  0.1447
  180SOL    HW1  539   2.138   1.509   2.010 -2.6895  1.4971  2.0807
  180SOL    HW2  540   2.006   1.612   1.992 -0.7487 -0.4938  0.1632
  181SOL     OW  541   1.123   0.799   2.539 -0.1146 -0.0954  0.5601
  181SOL    HW1  542   1.052   0.821   2.603 -0.1087 -2.3257 -0.0252
  181SOL    HW2  543   1.208   0.851   2.568  2.0753  2.8392  0.0464
  182SOL     OW  544   2.931   1.329   2.443 -0.3397  0.5795  0.1412
  182SOL    HW1  545   2.946   1.249   2.508  1.0367 -0.2980  2.2449
  182SOL    HW2  546   3.015   1.388   2.437 -1.1336 -0.7118 -0.2348
  183SOL     OW  547   1.416   0.506   2.334  0.1223 -0.3563 -0.3635
  183SOL    HW1  548   1.364   0.553   2.411  3.4566  0.8839  3.3849
  183SOL    HW2  549   1.434   0.578   2.265 -0.5272 -3.0478  0.9951
  184SOL     OW  550   0.649   0.571   1.951  0.4637  0.1099  0.2137
  184SOL    HW1  551   0.689   0.661   1.977  0.0635 -3.1974 -0.3683
  184SOL    HW2  552   0.621   0.567   1.850  1.7298 -1.3913 -0.6456
  185SOL     OW  553   2.238   1.715   0.579  0.3123 -0.6805  0.0451
  185SOL    HW1  554   2.293   1.798   0.599 -1.4581 -0.0905 -0.1572
  185SOL    HW2  555   2.198   1.669   0.663 -0.5115 -0.4963  1.5256
  186SOL     OW  556   0.234   1.889   0.326 -0.1209 -0.0571  0.2142
  186SOL    HW1  557   0.326   1.868   0.281 -0.8277  0.2358  1.3485
  186SOL    HW2  558   0.186   1.805   0.350  2.1816 -0.2211  2.1932
  187SOL     OW  559   2.051   2.095   0.276  0.4603 -0.0825  0.6037
  187SOL    HW1  560   2.043   2.193   0.301 -0.2338  0.3869 -0.1329
  187SOL    HW2  561   2.009   2.030   0.342  1.9267  3.0948 -1.5024
  188SOL     OW  562   1.032   2.315   0.957  0.2877 -0.2701 -0.3345
  188SOL    HW1  563   1.052   2.258   1.039 -0.9839 -2.0751  2.4015
  188SOL    HW2  564   0.942   2.365   0.967 -2.5556  0.3722  1.8947
  189SOL     OW  565   2.275   1.359   2.783 -0.0476 -0.7819  0.2133
  189SOL    HW1  566   2.192   1.415   2.772  0.7120 -0.6660 -1.1472
  189SOL    HW2  567   2.342   1.392   2.857  3.1319 -0.4723  0.6637
  190SOL     OW  568   1.053   2.356   2.115 -0.4510  0.0548 -0.1723
  190SOL    HW1  569   1.025   2.281   2.051 -1.2928 -0.6198  1.2262
  190SOL    HW2  570   0.998   2.354   2.198  2.2334 -0.2082 -2.1752
  191SOL     OW  571   2.549   0.945   1.449 -0.1364 -0.0247  0.0250
  191SOL    HW1  572   2.456   0.940   1.406  0.4839  0.6123 -0.5789
  191SOL    HW2  573   2.585   0.850   1.462 -1.0210  1.8466 -0.4421
  192SOL     OW  574   2.555   0.678   1.965  0.1162 -0.3406  0.0041
  192SOL    HW1  575   2.487   0.600   1.959 -1.3795 -1.2306  0.8339
  192SOL    HW2  576   2.518   0.757   2.017 -0.8192  0.9605  0.3220
  193SOL     OW  577   0.753   0.288   0.143 -0.1702  0.1523 -0.2507
  193SOL    HW1  578   0.769   0.387   0.173 -0.2981 -1.7833 -1.5565
  193SOL    HW2  579   0.653   0.275   0.148 -2.9726  1.5972  1.0118
  194SOL     OW  580   1.005   2.270   1.384  0.4643  0.6526 -0.1530
  194SOL    HW1  581   1.033   2.223   1.297  2.7120 -0.1834 -1.0319
  194SOL    HW2  582   1.074   2.337   1.410 -1.3139 -0.2576 -0.7089
  195SOL     OW  583   2.391   1.097   0.528 -0.0538  0.0354  0.5288
  195SOL    HW1  584   2.441   1.145   0.604 -0.0591  0.0394  0.5564
  195SOL    HW2  585   2.453   1.063   0.459 -0.2708 -0.7311 -1.0021
  196SOL     OW  586   0.791   2.129   1.726  1.1606  0.1916 -0.4490
  196SOL    HW1  587   0.767   2.138   1.628 -0.3922 -0.4615  1.1624
  196SOL    HW2  588   0.713   2.089   1.781 -1.1825 -1.9811  0.5586
  197SOL     OW  589   0.358   0.709   2.457  0.3005  0.1289 -0.4157
  197SOL    HW1  590   0.327   0.725   2.356 -1.3317 -1.5687 -0.4281
  197SOL    HW2  591   0.280   0.672   2.515  1.0668  0.1282  2.9110
  198SOL     OW  592   1.657   0.864   0.290  0.3907 -0.2531  0.7030
  198SOL    HW1  593   1.620   0.769   0.286  0.3748  1.1400  2.5020
  198SOL    HW2  594   1.578   0.928   0.299 -2.7429  2.4926  3.3142
  199SOL     OW  595   2.690   0.570   2.176 -0.0079 -0.3594 -0.1816
  199SOL    HW1  596   2.683   0.602   2.271  2.6355  0.5650 -2.0818
  199SOL    HW2  597   2.649   0.630   2.104 -0.1265  0.3255 -2.3607
  200SOL     OW  598   2.407   2.791   2.735  0.1098  0.0058 -0.4146
  200SOL    HW1  599   2.459   2.813   2.822  1.2148  0.7959  0.5649
  200SOL    HW2  600   2.429   2.866   2.670 -0.8824  1.9125 -0.8341
  201SOL     OW  601   2.520   0.365   1.332 -0.4107 -0.1658  0.0786
  201SOL    HW1  602   2.549   0.269   1.305 -1.4277 -0.4412 -1.7701
  201SOL    HW2  603   2.470   0.396   1.254  1.8340 -1.8562  1.5633
  202SOL     OW  604   3.020   2.900   0.384 -0.3463 -0.1692 -0.0996
  202SOL    HW1  605   2.977   2.831   0.446 -1.5006 -0.9116 -1.3699
  202SOL    HW2  606   2.986   2.891   0.293 -2.7338 -0.1797  1.9052
  203SOL     OW  607   1.054   2.105   2.895 -0.4568 -0.2433 -0.1503
  203SOL    HW1  608   1.056   2.050   2.978 -1.3855  0.8365  1.0745
  203SOL    HW2  609   1.085   2.053   2.812  0.7735 -1.4926  2.3292
  204SOL     OW  610   0.640   1.908   2.400  0.6712 -0.0360 -0.1914
  204SOL    HW1  611   0.666   1.942   2.307 -0.7696 -1.8447 -0.9270
  204SOL    HW2  612   0.698   1.953   2.473  1.8162 -1.7611  0.3019
  205SOL     OW  613   0.948   0.977   1.030  0.1002 -0.1140  0.2446
  205SOL    HW1  614   0.897   0.932   1.107  2.3605 -0.6599 -1.7399
  205SOL    HW2  615   1.024   0.916   0.995  1.7814 -0.8041  0.0976
  206SOL     OW  616   0.305   0.658   2.807 -0.3820 -0.1932 -0.5125
  206SOL    HW1  617   0.336   0.750   2.844  1.9970  0.8286 -1.4331
  206SOL    HW2  618   0.231   0.664   2.735  1.0836  0.5212  1.5126
  207SOL     OW  619   1.583   2.301   1.766  0.2819 -0.2420  0.6154
  207SOL    HW1  620   1.639   2.354   1.837  0.2324  0.7401  2.6616
  207SOL    HW2  621   1.490   2.276   1.796  1.2633  0.4852  2.6261
  208SOL     OW  622   0.462   2.989   1.219  0.1503  0.1046  0.1993
  208SOL    HW1  623   0.393   3.049   1.264  1.2300 -2.0314 -2.6435
  208SOL    HW2  624   0.424   2.911   1.166 -1.6376  1.4484  1.4156
  209SOL     OW  625   1.478   1.281   0.196 -0.1992 -0.7321  0.2185
  209SOL    HW1  626   1.407   1.331   0.143 -1.9529 -1.0352 -2.9555
  209SOL    HW2  627   1.572   1.327   0.183  2.5122 -1.0845 -1.2674
  210SOL     OW  628   2.371   0.625   0.851  0.0385  0.1689  0.2742
  210SOL    HW1  629   2.289   0.675   0.815 -0.3462  2.1401 -1.9980
  210SOL    HW2  630   2.381   0.534   0.802  1.1399  0.7590  0.1672
  211SOL     OW  631   1.497   2.815   0.345  0.2330  0.1213  0.0960
  211SOL    HW1  632   1.442   2.763   0.276 -2.3898 -1.3869  0.2696
  211SOL    HW2  633   1.532   2.903   0.305  0.7590 -1.1693 -2.0812
  212SOL     OW  634   2.096   2.170   0.738  0.8311  0.2723  0.4998
  212SOL    HW1  635   2.109   2.246   0.807  1.0206  1.3788  1.7364
  212SOL    HW2  636   2.008   2.164   0.688 -0.1735 -0.1094 -0.0120
  213SOL     OW  637   1.993   0.796   2.714 -0.5441 -0.0029 -0.5896
  213SOL    HW1  638   2.071   0.742   2.748 -0.2513 -1.3405  2.5067
  213SOL    HW2  639   1.984   0.773   2.615 -0.8599 -0.6639 -1.1749
  214SOL     OW  640   1.012   1.447   2.000  0.1100  0.1273  0.1547
  214SOL    HW1  641   1.074   1.378   2.044  1.1134 -0.3604  1.1043
  214SOL    HW2  642   0.965   1.511   2.066 -0.3141  0.9047 -0.2293
  215SOL     OW  643   3.066   1.432   0.772  0.2004 -0.3679 -0.1187
  215SOL    HW1  644   0.002   1.464   0.851  0.6075  1.8885 -0.9193
  215SOL    HW2  645   2.966   1.438   0.779  0.7804  0.7731 -1.8137
  216SOL     OW  646   0.397   2.509   2.501  0.7338  0.4803 -0.0097
  216SOL    HW1  647   0.399   2.407   2.481  3.3108 -1.1398  0.0090
  216SOL    HW2  648   0.489   2.529   2.531  1.1808  1.7387 -1.1013
  217SOL     OW  649   2.771   1.104   1.404  0.2477 -0.0170  0.5187
  217SOL    HW1  650   2.673   1.067   1.409  0.6084 -0.4038  3.5690
  217SOL    HW2  651   2.781   1.192   1.353 -0.0709 -0.3679 -3.2378
  218SOL     OW  652   0.944   2.087   1.969  0.4383 -0.6497  0.2210
  218SOL    HW1  653   0.857   2.100   1.914  1.5924 -2.2480 -0.4683
  218SOL    HW2  654   0.983   1.994   1.952  2.0327 -1.0332  2.8960
  219SOL     OW  655   2.184   1.492   0.264 -0.7831 -0.4357 -0.0943
  219SOL    HW1  656   2.177   1.476   0.166 -0.1669  0.6626  0.1900
  219SOL    HW2  657   2.136   1.420   0.324 -2.1406 -0.9818 -0.6169
  220SOL     OW  658   2.161   1.061   0.377  0.6913 -0.0207 -0.3636
  220SOL    HW1  659   2.240   1.075   0.437  0.0598  0.4267 -3.8064
  220SOL    HW2  660   2.121   0.970   0.400 -1.5247  1.3656 -1.7261
  221SOL     OW  661   3.049   0.715   0.269 -0.0059  0.3179  0.1492
  221SOL    HW1  662   3.110   0.637   0.253 -0.6517  0.3614  0.4518
  221SOL    HW2  663   2.953   0.713   0.223  1.0255 -0.3331 -0.2726
  222SOL     OW  664   1.572   1.301   0.475  0.9343  0.3505  0.3410
  222SOL    HW1  665   1.517   1.299   0.390  0.4048  0.4953  0.7702
  222SOL    HW2  666   1.517   1.284   0.555  0.3005  2.1452  0.2036
  223SOL     OW  667   0.944   0.012   2.900  0.1614  0.4395 -0.0034
  223SOL    HW1  668   0.856   0.022   2.956 -0.4395  2.2125  1.6206
  223SOL    HW2  669   0.939   0.074   2.822 -1.4397 -1.0217  0.3865
  224SOL     OW  670   1.224   0.059   1.249  0.6629 -0.0502 -0.3843
  224SOL    HW1  671   1.192   0.127   1.316  0.6187 -1.0254  0.3335
  224SOL    HW2  672   1.204   3.081   1.279 -0.2234 -0.3210  1.5817
  225SOL     OW  673   0.186   2.569   1.956 -0.2739 -0.6583  0.0823
  225SOL    HW1  674   0.175   2.638   1.879 -0.3302  1.7530 -2.2282
  225SOL    HW2  675   0.187   2.471   1.917 -0.8179 -1.4081 -0.2547
  226SOL     OW  676   1.102   1.459   0.319  0.2812  0.0605 -0.2578
  226SOL    HW1  677   1.059   1.457   0.412  1.1105 -0.8234 -0.5131
  226SOL    HW2  678   1.141   1.549   0.299 -0.4948 -1.4134  1.9729
  227SOL     OW  679   0.467   1.544   1.053  0.0499 -0.3580 -0.3288
  227SOL    HW1  680   0.470   1.533   1.156 -0.4828  1.3209  2.2073
  227SOL    HW2  681   0.454   1.458   1.006  0.5346 -0.7235 -0.6822
  228SOL     OW  682   3.090   1.855   0.798  0.1177 -0.1046 -0.2116
  228SOL    HW1  683   3.066   1.932   0.734  0.7110  2.3163 -1.4312
  228SOL    HW2  684   3.075   1.767   0.750  2.3134  2.0008 -0.3794
  229SOL     OW  685   2.387   0.288   2.782 -0.3521 -0.1527  0.1577
  229SOL    HW1  686   2.316   0.308   2.711 -2.4823  2.2335  0.8479
  229SOL    HW2  687   2.395   0.191   2.804  1.1244  1.2715  0.5618
  230SOL     OW  688   1.786   1.016   0.974 -0.4874  0.3149 -0.1332
  230SOL    HW1  689   1.823   1.109   0.952  2.7282 -0.7733 -0.3457
  230SOL    HW2  690   1.686   1.015   0.994 -0.6080 -1.2793  0.3338
  231SOL     OW  691   1.360   1.638   2.755 -0.4478  0.0755  0.2078
  231SOL    HW1  692   1.376   1.652   2.655  0.3502 -1.5491  0.6891
  231SOL    HW2  693   1.443   1.632   2.815 -1.5895 -0.4383 -0.5516
  232SOL     OW  694   2.560   2.404   0.886 -0.3066  0.0403 -0.0945
  232SOL    HW1  695   2.654   2.373   0.899  0.1427  1.5353 -2.6595
  232SOL    HW2  696   2.500   2.386   0.970 -2.7706 -1.8690 -0.5188
  233SOL     OW  697   0.682   2.605   0.839  0.3327 -0.4536  0.1768
  233SOL    HW1  698   0.686   2.703   0.871 -1.3448  0.6449 -1.7364
  233SOL    HW2  699   0.767   2.585   0.789 -0.0105  1.1814  1.6461
  234SOL     OW  700   0.542   0.569   2.716  0.3021 -0.3319 -0.2032
  234SOL    HW1  701   0.540   0.648   2.651  1.5870  2.2256  3.0791
  234SOL    HW2  702   0.459   0.579   2.779 -1.7609  0.3001 -0.3847
  235SOL     OW  703   2.707   0.688   2.425  0.8152 -0.2498  0.3340
  235SOL    HW1  704   2.728   0.621   2.499 -0.2519  0.2052 -0.4693
  235SOL    HW2  705   2.764   0.770   2.430 -2.1717 -5.4447  0.7916
  236SOL     OW  706   1.581   2.764   1.462 -0.1105  0.4578  0.5058
  236SOL    HW1  707   1.542   2.725   1.378  0.3739 -1.1925 -0.9940
  236SOL    HW2  708   1.626   2.685   1.509 -0.8975  3.0085 -0.8232
  237SOL     OW  709   1.071   1.433   2.511  0.4203  0.0611  0.9667
  237SOL    HW1  710   0.992   1.370   2.497 -0.2046  2.2287  0.0600
  237SOL    HW2  711   1.096   1.441   2.607  0.7617  0.1142  0.6609
  238SOL     OW  712   1.087   0.348   2.417 -0.0542  0.3097  0.0869
  238SOL    HW1  713   1.066   0.428   2.470  2.5056  0.1561 -1.5689
  238SOL    HW2  714   1.008   0.283   2.407  1.4402 -0.0802 -1.1934
  239SOL     OW  715   0.261   2.200   2.075 -0.5396 -0.5401  0.2067
  239SOL    HW1  716   0.366   2.211   2.072  1.6048 -1.6359  2.5424
  239SOL    HW2  717   0.218   2.233   2.163  1.2092 -0.1737 -0.4842
  240SOL     OW  718   2.687   2.886   0.845 -0.1835 -0.3767 -0.2119
  240SOL    HW1  719   2.765   2.826   0.817  0.1161 -0.1203  0.9912
  240SOL    HW2  720   2.600   2.830   0.864  0.2879  0.1816 -2.3636
  241SOL     OW  721   2.567   1.238   0.665 -0.2928  0.4814  0.6635
  241SOL    HW1  722   2.510   1.319   0.666 -1.4896  1.2714 -0.5515
  241SOL    HW2  723   2.603   1.199   0.750 -0.5273  0.2813 -2.9746
  242SOL     OW  724   1.808   2.396   1.990 -0.1321  0.3981  0.0509
  242SOL    HW1  725   1.868   2.315   1.966 -1.2198 -0.2718 -2.0787
  242SOL    HW2  726   1.861   2.484   1.977  2.4698 -1.7819 -0.9847
  243SOL     OW  727   0.564   2.637   1.695 -0.0303  0.1496  0.2788
  243SOL    HW1  728   0.574   2.587   1.786  1.0467 -0.1719  2.6602
  243SOL    HW2  729   0.646   2.619   1.643 -1.1648 -1.2898  0.1613
  244SOL     OW  730   2.457   0.469   2.564 -0.4549 -0.1641 -0.6687
  244SOL    HW1  731   2.359   0.438   2.573  0.1149  0.9469  2.2530
  244SOL    HW2  732   2.473   0.570   2.547  0.8785 -1.0293  0.7307
  245SOL     OW  733   1.424   0.095   1.097  0.3837 -0.3054 -0.6625
  245SOL    HW1  734   1.404   0.176   1.035  1.4668  2.1963  0.7824
  245SOL    HW2  735   1.341   0.080   1.157  2.3950 -2.8241  0.9150
  246SOL     OW  736   1.863   2.613   3.110 -0.3536 -0.2841 -0.1023
  246SOL    HW1  737   1.937   2.588   3.050  1.8398 -2.1937 -1.8470
  246SOL    HW2  738   1.784   2.652   3.063  0.1486  2.1100 -1.6897
  247SOL     OW  739   1.405   0.853   2.321  0.3420  0.5111 -0.3710
  247SOL    HW1  740   1.463   0.819   2.399 -0.1071  0.1123 -0.3799
  247SOL    HW2  741   1.404   0.951   2.318 -1.8868 -5.1645  2.8321
  248SOL     OW  742   0.212   2.318   1.838  0.3290  0.1230 -0.4660
  248SOL    HW1  743   0.170   2.276   1.759 -0.3871 -0.3821  0.0979
  248SOL    HW2  744   0.209   2.261   1.924 -1.7481  0.6603  0.0127
  249SOL     OW  745   2.816   0.454   0.019 -0.0652 -0.3362 -0.2240
  249SOL    HW1  746   2.827   0.389   0.100 -1.3899 -0.0732  3.1596
  249SOL    HW2  747   2.738   0.425   3.076 -2.9702  3.0638  2.4320
  250SOL     OW  748   2.732   0.094   2.524  0.0914 -0.2860  0.0819
  250SOL    HW1  749   2.786   0.086   2.612  1.4272  0.7326  2.1430
  250SOL    HW2  750   2.773   0.066   2.437 -2.4081  0.9411 -0.6378
  251SOL     OW  751   1.286   0.746   3.080  0.5626  0.2169  0.0914
  251SOL    HW1  752   1.281   0.667   0.027 -1.1075  3.3513 -1.5142
  251SOL    HW2  753   1.379   0.781   3.078  2.2420  0.5288 -0.2990
  252SOL     OW  754   1.325   2.184   1.880 -0.0979 -0.1647 -0.1609
  252SOL    HW1  755   1.311   2.084   1.871  2.2457  0.1256  0.6911
  252SOL    HW2  756   1.384   2.210   1.958 -2.5136 -0.4168 -0.1515
  253SOL     OW  757   2.256   2.609   1.286 -0.3917 -0.4577 -0.5355
  253SOL    HW1  758   2.289   2.683   1.228 -1.0918 -3.1744  3.2675
  253SOL    HW2  759   2.313   2.596   1.366 -0.4660  3.6434 -0.0963
  254SOL     OW  760   2.201   1.350   0.680 -0.0743 -0.4146 -0.4204
  254SOL    HW1  761   2.128   1.343   0.608 -1.4807  1.1219  0.3359
  254SOL    HW2  762   2.184   1.284   0.757  0.4503 -0.0981  0.6457
  255SOL     OW  763   1.191   2.949   1.378 -0.2034  0.5262 -0.3119
  255SOL    HW1  764   1.166   2.851   1.385 -0.1994 -1.5007  0.3308
  255SOL    HW2  765   1.284   2.959   1.423  1.9770  1.1932  0.9578
  256SOL     OW  766   1.723   2.149   1.346  0.3240  0.1386  0.0333
  256SOL    HW1  767   1.794   2.135   1.275  2.5427  1.3759  2.2577
  256SOL    HW2  768   1.655   2.073   1.342 -0.5022 -0.3816 -0.2698
  257SOL     OW  769   0.655   2.562   2.614  0.1966  0.6697  0.0600
  257SOL    HW1  770   0.728   2.624   2.584 -0.4720 -2.7808  1.1582
  257SOL    HW2  771   0.626   2.571   2.709 -1.2840 -3.3519 -0.3587
  258SOL     OW  772   0.774   2.671   0.511 -0.0048 -0.0015  0.2201
  258SOL    HW1  773   0.789   2.771   0.490  0.3731  1.3676 -0.3105
  258SOL    HW2  774   0.837   2.647   0.581 -3.3557  0.4567 -1.3442
  259SOL     OW  775   1.531   0.263   2.807 -0.2785 -0.7411  0.1432
  259SOL    HW1  776   1.535   0.260   2.902 -0.6781 -0.8320 -3.9061
  259SOL    HW2  777   1.578   0.343   2.768 -0.4822  0.1558  0.2178
  260SOL     OW  778   2.655   0.698   1.437  0.2077  0.3349  0.1182
  260SOL    HW1  779   2.632   0.632   1.365  0.8587  0.4977 -2.2248
  260SOL    HW2  780   2.634   0.660   1.531  1.0652  0.5464 -1.8500
  261SOL     OW  781   0.790   0.449   2.681  0.0563  0.1975 -0.3873
  261SOL    HW1  782   0.701   0.499   2.686  0.7007  0.0470 -2.7687
  261SOL    HW2  783   0.852   0.499   2.613 -1.2553  0.5922  1.5703
  262SOL     OW  784   1.439   2.294   2.081  0.0290  0.1114 -0.0310
  262SOL    HW1  785   1.394   2.365   2.020 -0.0356  1.2323 -3.5209
  262SOL    HW2  786   1.525   2.329   2.122  1.2073  1.3922  0.2935
  263SOL     OW  787   0.558   1.896   2.854 -0.3036 -0.0741 -0.1981
  263SOL    HW1  788   0.619   1.973   2.879 -1.8019 -1.0419  0.2940
  263SOL    HW2  789   0.583   1.852   2.765 -3.3126 -0.3792  0.3661
  264SOL     OW  790   1.185   1.511   0.729  0.5186 -0.4577 -0.5703
  264SOL    HW1  791   1.192   1.610   0.698  0.2194 -2.3152 -0.5979
  264SOL    HW2  792   1.265   1.485   0.786  0.0851  0.4171  1.6228
  265SOL     OW  793   1.149   2.587   0.499  1.0586  0.5217 -0.4476
  265SOL    HW1  794   1.095   2.521   0.441  0.3616 -0.4299 -3.9994
  265SOL    HW2  795   1.221   2.536   0.549 -1.2351 -0.1608  0.8974
  266SOL     OW  796   1.968   0.562   0.878  0.2682 -0.6998  0.0658
  266SOL    HW1  797   2.006   0.485   0.937 -1.8060  0.2363 -0.8596
  266SOL    HW2  798   1.919   0.635   0.934 -2.4219 -0.9397  1.5387
  267SOL     OW  799   2.985   1.372   2.780  0.3986 -0.1854  0.2616
  267SOL    HW1  800   2.973   1.343   2.879 -1.0195 -2.5544  0.9970
  267SOL    HW2  801   2.994   1.285   2.725  0.2967 -2.1471 -1.1783
  268SOL     OW  802   1.611   3.049   0.274  0.4220 -0.6309  0.0977
  268SOL    HW1  803   1.708   3.056   0.298  2.2763 -1.0266 -0.0527
  268SOL    HW2  804   1.552   0.004   0.318  0.5396  0.1541 -0.1857
  269SOL     OW  805   2.926   0.730   2.713  0.4281  0.3883 -0.2716
  269SOL    HW1  806   2.877   0.642   2.711  1.8704 -0.5119 -1.7360
  269SOL    HW2  807   2.977   0.738   2.631 -3.9527 -2.2755  0.8427
  270SOL     OW  808   0.017   1.563   0.097  0.1938 -0.3621 -0.2572
  270SOL    HW1  809   3.052   1.523   0.055  0.2050  1.1600  0.8457
  270SOL    HW2  810   0.099   1.519   0.057 -2.4557  1.1817  0.3247
  271SOL     OW  811   2.607   1.493   2.653  0.2155 -0.4716  0.2318
  271SOL    HW1  812   2.528   1.545   2.684  5.0958 -1.3004  0.8941
  271SOL    HW2  813   2.588   1.441   2.565  0.8012 -0.8417 -1.4543
  272SOL     OW  814   2.719   2.680   2.283 -0.1964  0.0060 -0.5751
  272SOL    HW1  815   2.816   2.674   2.307 -1.2202  0.9507 -0.2514
  272SOL    HW2  816   2.685   2.588   2.253 -1.4618 -1.3791 -1.8891
  273SOL     OW  817   0.173   2.869   0.533  0.2383 -0.1605 -0.5300
  273SOL    HW1  818   0.218   2.959   0.557  1.4776  1.8510 -2.6291
  273SOL    HW2  819   0.076   2.880   0.493  0.8079 -2.5909 -2.3240
  274SOL     OW  820   1.000   2.338   0.691  0.1252 -0.6017  0.0141
  274SOL    HW1  821   1.094   2.301   0.664  0.6760  1.4982 -1.5844
  274SOL    HW2  822   0.980   2.316   0.791 -0.3106 -0.0433  2.2904
  275SOL     OW  823   2.439   1.586   0.363  0.3308 -0.3190  0.0094
  275SOL    HW1  824   2.353   1.542   0.331  2.9079  1.1347  0.2949
  275SOL    HW2  825   2.516   1.538   0.311  0.5167 -0.9469  0.8545
  276SOL     OW  826   2.667   1.664   1.311  0.6994  0.0119  0.0583
  276SOL    HW1  827   2.733   1.632   1.381 -2.2753 -0.1007  1.4163
  276SOL    HW2  828   2.705   1.744   1.259 -0.9504 -2.4389  0.4287
  277SOL     OW  829   2.421   3.051   0.917  0.0179 -0.0462 -0.4834
  277SOL    HW1  830   2.350   0.008   0.918 -0.2430 -0.4269  3.1366
  277SOL    HW2  831   2.416   2.994   1.004  0.7489  0.6954 -2.0800
  278SOL     OW  832   1.572   0.295   2.370 -0.1497 -0.5442 -0.0638
  278SOL    HW1  833   1.507   0.374   2.364  0.8108  0.8380 -3.7131
  278SOL    HW2  834   1.541   0.231   2.445 -1.1238 -1.3580  2.3243
  279SOL     OW  835   1.289   2.565   1.221  0.3128  0.3829  0.7273
  279SOL    HW1  836   1.387   2.596   1.206  0.7496 -0.6323 -0.1672
  279SOL    HW2  837   1.240   2.534   1.134 -1.4639 -1.6237  0.5742
  280SOL     OW  838   0.939   0.975   0.622 -0.1531  0.6386  0.4198
  280SOL    HW1  839   0.946   1.053   0.563 -1.9520  0.0021  0.1915
  280SOL    HW2  840   1.032   0.936   0.647  2.8145 -1.4113 -1.7097
  281SOL     OW  841   2.421   1.678   2.732  0.0622 -1.0188 -0.7270
  281SOL    HW1  842   2.489   1.746   2.702  0.4223 -1.9489 -1.7684
  281SOL    HW2  843   2.333   1.726   2.736 -0.8389  3.8224 -0.7976
  282SOL     OW  844   2.962   1.316   3.053  0.7296 -0.1917 -0.5267
  282SOL    HW1  845   2.878   1.283   3.098 -1.8581  1.9872 -0.0144
  282SOL    HW2  846   3.036   1.246   3.039 -1.0202  2.8133  2.0133
  283SOL     OW  847   1.812   2.695   2.600  0.3174 -0.0069  0.2123
  283SOL    HW1  848   1.809   2.666   2.499  0.5965 -1.1085 -0.0115
  283SOL    HW2  849   1.794   2.623   2.668  3.4747 -0.9406 -0.1075
  284SOL     OW  850   0.716   0.108   3.046  0.5072 -0.7694 -0.1635
  284SOL    HW1  851   0.740   0.172   0.006 -1.2730 -3.3652 -4.4893
  284SOL    HW2  852   0.621   0.126   3.011  0.1863  1.1708 -2.4718
  285SOL     OW  853   2.151   1.720   2.564 -0.3838  0.0423  0.1509
  285SOL    HW1  854   2.176   1.807   2.611 -0.6068  0.0588 -0.4637
  285SOL    HW2  855   2.094   1.751   2.481 -1.6281 -0.4604 -0.9296
  286SOL     OW  856   1.225   2.017   0.779 -0.1173 -0.8989 -0.0241
  286SOL    HW1  857   1.150   2.010   0.849 -0.3140  0.7017 -0.2535
  286SOL    HW2  858   1.310   2.038   0.828 -0.3524 -0.3341 -1.3026
  287SOL     OW  859   1.827   0.219   1.320 -0.3970 -0.1335  0.5367
  287SOL    HW1  860   1.864   0.173   1.403 -0.2505  0.6712  1.8278
  287SOL    HW2  861   1.877   0.304   1.300 -1.0601  0.5219 -1.0983
  288SOL     OW  862   0.804   2.668   2.397  0.0345 -0.0047 -0.0271
  288SOL    HW1  863   0.830   2.569   2.403  0.6701 -2.2009 -1.6614
  288SOL    HW2  864   0.790   2.707   2.306 -0.9981  1.3185  1.0923
  289SOL     OW  865   0.046   1.209   0.638 -0.5796  0.4537 -0.0130
  289SOL    HW1  866   0.033   1.306   0.660 -1.3326  0.2557 -0.5029
  289SOL    HW2  867   3.097   1.146   0.681 -1.5508 -1.6235 -1.0598
  290SOL     OW  868   1.112   2.083   1.180  0.4001  0.2368 -0.1733
  290SOL    HW1  869   1.181   2.143   1.156 -0.2917 -3.2036 -1.3556
  290SOL    HW2  870   1.143   1.995   1.224  2.1512 -0.8721 -0.2810
  291SOL     OW  871   1.856   2.682   0.745  0.6805  0.2813 -0.0977
  291SOL    HW1  872   1.853   2.779   0.759  1.2948 -3.1093 -1.4742
  291SOL    HW2  873   1.814   2.656   0.654 -0.7342 -0.7237 -1.7904
  292SOL     OW  874   0.513   0.173   2.003  0.3328  0.1021 -0.6664
  292SOL    HW1  875   0.523   0.075   1.967  0.9381  2.4313 -0.3385
  292SOL    HW2  876   0.544   0.182   2.101 -1.3312  1.9362  3.8547
  293SOL     OW  877   2.437   1.874   0.757  0.1516  0.2518 -0.2396
  293SOL    HW1  878   2.493   1.831   0.825 -0.4161  2.9731 -1.3037
  293SOL    HW2  879   2.501   1.916   0.690  2.8372 -1.5810 -1.1411
  294SOL     OW  880   1.042   0.034   2.182 -0.3182  0.2154  0.3640
  294SOL    HW1  881   1.116   0.097   2.213  1.4821 -1.2507 -0.0437
  294SOL    HW2  882   1.073   3.054   2.203 -0.7774 -0.9275  0.5238
  295SOL     OW  883   1.113   1.223   0.959 -0.1728  0.1065 -0.3454
  295SOL    HW1  884   1.200   1.238   1.015 -1.7892 -0.1429 -1.4276
  295SOL    HW2  885   1.065   1.136   0.993 -0.5778  1.0313  1.9606
  296SOL     OW  886   2.225   1.958   0.902  0.6064 -0.5847  1.0291
  296SOL    HW1  887   2.311   1.923   0.854  1.4457  0.6750 -1.6960
  296SOL    HW2  888   2.195   2.042   0.847 -1.6783  3.6497  0.3785
  297SOL     OW  889   2.182   3.099   2.870 -0.1955  0.1222  0.1323
  297SOL    HW1  890   2.277   3.107   2.841 -2.4495 -0.4493 -1.2106
  297SOL    HW2  891   2.170   0.028   2.961  0.3579 -1.3896  1.0639
  298SOL     OW  892   1.218   0.118   2.606  0.2049  0.5145  0.4456
  298SOL    HW1  893   1.129   0.091   2.566 -0.1587 -1.1269 -1.8293
  298SOL    HW2  894   1.266   0.045   2.650 -0.3208  3.3060 -1.2896
  299SOL     OW  895   1.150   2.903   1.990 -0.4643 -0.4199  0.5231
  299SOL    HW1  896   1.152   2.996   1.939  1.3795  0.8326 -0.2355
  299SOL    HW2  897   1.185   2.920   2.088  3.6689  2.5389  1.1368
  300SOL     OW  898   2.484   0.242   1.829  0.3366 -0.2444  0.4810
  300SOL    HW1  899   2.558   0.283   1.886  0.3937  2.9107  0.7378
  300SOL    HW2  900   2.418   0.314   1.797 -3.6438  2.2059 -0.7914
  301SOL     OW  901   2.210   0.326   1.694 -0.4860 -0.0259  0.2393
  301SOL    HW1  902   2.173   0.336   1.788 -1.0139 -1.1868 -0.8465
  301SOL    HW2  903   2.163   0.248   1.644 -0.6619 -0.6600 -1.9719
  302SOL     OW  904   0.417   2.541   3.075  0.7433 -0.5144 -0.2059
  302SOL    HW1  905   0.335   2.493   3.112 -0.3898 -0.3028 -1.5360
  302SOL    HW2  906   0.491   2.521   0.022 -1.9566  1.3521 -1.4626
  303SOL     OW  907   1.685   1.874   1.268 -0.9424 -0.3442 -0.1774
  303SOL    HW1  908   1.615   1.841   1.326  2.8036 -0.2183  0.7428
  303SOL    HW2  909   1.772   1.831   1.303  1.1724  1.5242 -2.4433
  304SOL     OW  910   0.139   0.612   0.986 -0.0299 -0.4748 -0.0240
  304SOL    HW1  911   0.129   0.678   1.065  1.9252 -0.8363 -0.2319
  304SOL    HW2  912   0.092   0.652   0.906 -0.7093 -2.1027  1.4203
  305SOL     OW  913   0.797   0.855   0.826 -0.2353 -0.0984 -0.1658
  305SOL    HW1  914   0.835   0.901   0.909  1.9627 -0.1851 -2.3973
  305SOL    HW2  915   0.845   0.897   0.743  0.1702 -1.1073 -0.1398
  306SOL     OW  916   0.397   0.874   2.923 -0.1917  0.4187 -0.2521
  306SOL    HW1  917   0.495   0.888   2.888 -1.6230  1.0902  0.3850
  306SOL    HW2  918   0.391   0.851   3.022 -2.2939  1.3908  0.4262
  307SOL     OW  919   1.146   0.291   1.708 -0.5770  0.1105  0.4546
  307SOL    HW1  920   1.087   0.373   1.688  0.2545  0.8642  1.2171
  307SOL    HW2  921   1.221   0.308   1.780  3.7464  1.0176  3.8648
  308SOL     OW  922   0.551   0.776   0.928 -0.2692 -0.2759 -0.0192
  308SOL    HW1  923   0.630   0.827   0.886  1.4567 -0.4875 -0.3476
  308SOL    HW2  924   0.471   0.835   0.929 -1.4755  0.0975  0.0145
  309SOL     OW  925   2.469   0.981   0.799  0.0206  0.2674  0.0171
  309SOL    HW1  926   2.386   1.011   0.751  1.2915 -0.3190  0.6891
  309SOL    HW2  927   2.529   0.917   0.744 -0.0413 -0.4843 -0.1337
  310SOL     OW  928   0.992   1.368   3.063  0.1272 -0.7135 -0.1098
  310SOL    HW1  929   0.975   1.464   3.033 -1.7891 -1.0326  0.0732
  310SOL    HW2  930   0.936   1.297   3.012  3.1145 -1.6879 -0.8545
  311SOL     OW  931   2.385   2.612   2.382 -0.7434 -0.0199 -0.1401
  311SOL    HW1  932   2.447   2.688   2.416  1.8839  0.6660  3.2104
  311SOL    HW2  933   2.297   2.612   2.430 -1.8212 -1.7556 -2.2042
  312SOL     OW  934   2.092   2.385   3.060 -0.8389  0.3114 -0.0669
  312SOL    HW1  935   2.164   2.325   3.017  0.0375  0.9368 -0.9717
  312SOL    HW2  936   2.142   2.445   0.011  4.1782 -0.2276 -1.6036
  313SOL     OW  937   0.108   0.048   0.148  0.0091 -0.4526 -0.8587
  313SOL    HW1  938   0.194   0.104   0.169  0.4876 -0.6472  0.9063
  313SOL    HW2  939   0.117   3.106   0.065  1.0164  0.6488 -1.8754
  314SOL     OW  940   2.440   1.504   2.952 -0.0639 -0.4683 -0.1071
  314SOL    HW1  941   2.533   1.506   2.991  0.1564 -2.4297 -2.5240
  314SOL    HW2  942   2.427   1.591   2.898 -0.3344  3.3800  0.9004
  315SOL     OW  943   1.890   0.489   2.046 -0.1845 -0.9029  0.2630
  315SOL    HW1  944   1.870   0.410   2.116  2.2329 -0.5602 -0.0736
  315SOL    HW2  945   1.812   0.554   2.039  0.9209 -2.8215 -2.6672
  316SOL     OW  946   2.961   1.041   0.717 -0.4045 -0.4386  0.9827
  316SOL    HW1  947   2.930   1.007   0.807 -2.2630 -0.7912 -0.6735
  316SOL    HW2  948   2.947   0.970   0.650 -2.3496 -0.1359  0.8286
  317SOL     OW  949   0.912   2.877   0.149 -0.0659  0.6100 -0.2452
  317SOL    HW1  950   0.838   2.907   0.093  0.4015 -2.2946  1.3557
  317SOL    HW2  951   0.912   2.773   0.141 -2.0743 -1.6130  0.8192
  318SOL     OW  952   2.058   2.701   1.536  0.2052  0.9411  0.0731
  318SOL    HW1  953   2.115   2.785   1.520  1.4607  0.2594 -0.3559
  318SOL    HW2  954   2.100   2.637   1.602 -1.7303  1.0238  0.1855
  319SOL     OW  955   1.071   1.751   2.936 -0.1534  0.2011 -0.4634
  319SOL    HW1  956   1.065   1.707   3.031 -1.4053  1.5120 -1.4971
  319SOL    HW2  957   1.156   1.799   2.929  0.0755 -3.6453  1.1701
  320SOL     OW  958   0.325   1.808   0.726  0.0220  0.4090  0.1912
  320SOL    HW1  959   0.268   1.889   0.687  1.2300  1.9958 -1.3845
  320SOL    HW2  960   0.422   1.831   0.722  1.9346  2.6729 -2.6242
  321SOL     OW  961   1.973   2.626   1.942  0.1798 -0.2329 -0.0373
  321SOL    HW1  962   2.044   2.649   2.010 -0.7954 -0.3725 -0.6276
  321SOL    HW2  963   1.907   2.703   1.933  4.6367  1.9269  1.8550
  322SOL     OW  964   2.429   2.063   2.457  0.1599  0.0304 -0.6808
  322SOL    HW1  965   2.422   2.113   2.371  0.2944 -0.8281  3.0055
  322SOL    HW2  966   2.482   1.977   2.437 -1.5507  1.7629  1.4144
  323SOL     OW  967   2.217   0.257   0.629 -0.1835 -0.0596  0.4725
  323SOL    HW1  968   2.177   0.205   0.707 -2.5835 -2.2242 -0.1028
  323SOL    HW2  969   2.254   0.204   0.547  0.1708  1.3159  0.7537
  324SOL     OW  970   2.976   2.923   2.202  0.3105  0.3161 -0.3506
  324SOL    HW1  971   3.069   2.966   2.182  1.0623  3.9094 -1.7878
  324SOL    HW2  972   2.978   2.830   2.249 -0.3874 -1.1704  0.8709
  325SOL     OW  973   1.035   0.461   2.829  0.2149  0.0145  0.2597
  325SOL    HW1  974   1.111   0.432   2.773 -4.0733  1.5506 -0.0669
  325SOL    HW2  975   0.961   0.501   2.767 -2.8102  3.5864  0.1179
  326SOL     OW  976   2.713   2.414   1.203 -0.2145 -0.1454 -0.2250
  326SOL    HW1  977   2.732   2.417   1.302  2.7637  2.5365 -1.3764
  326SOL    HW2  978   2.695   2.506   1.168  0.6976  0.1029  0.5372
  327SOL     OW  979   2.298   3.004   0.141  0.0558 -0.9490  0.1809
  327SOL    HW1  980   2.308   3.049   0.234  1.0811  0.2883  1.9313
  327SOL    HW2  981   2.216   2.940   0.141 -2.2203 -0.5309  0.8581
  328SOL     OW  982   0.385   0.819   1.620 -0.3947  0.1690  0.1500
  328SOL    HW1  983   0.463   0.756   1.632  1.2657  1.2174 -0.4152
  328SOL    HW2  984   0.388   0.891   1.692 -3.9997  0.3876 -1.2506
  329SOL     OW  985   2.030   0.688   1.346 -0.2849 -0.0773 -0.5469
  329SOL    HW1  986   2.012   0.651   1.441  0.2132  2.1604  2.8978
  329SOL    HW2  987   2.127   0.673   1.322 -0.8732 -2.9866  3.1011
  330SOL     OW  988   0.614   0.567   1.099  0.3464  0.1843  0.1285
  330SOL    HW1  989   0.550   0.490   1.072  0.3199  1.2921 -0.0849
  330SOL    HW2  990   0.594   0.647   1.043  0.9894 -2.2828  2.6848
  331SOL     OW  991   0.766   1.408   1.890 -0.3240  0.3718 -0.1972
  331SOL    HW1  992   0.862   1.419   1.922  2.4860 -0.1253 -2.3032
  331SOL    HW2  993   0.739   1.476   1.820  0.9351  0.4951  1.6689
  332SOL     OW  994   2.872   2.510   1.681  0.3857 -0.2438  0.5224
  332SOL    HW1  995   2.934   2.592   1.702  1.9041 -1.6453  0.1682
  332SOL    HW2  996   2.804   2.495   1.755  1.5940  1.2005  1.5868
  333SOL     OW  997   0.009   2.918   1.124 -0.1042 -0.8501 -0.1078
  333SOL    HW1  998   0.016   2.929   1.022 -1.1120 -0.0199  1.1140
  333SOL    HW2  999   3.044   2.871   1.158 -0.8482 -0.7102  0.3662
  334SOL     OW 1000   0.098   1.193   0.359  0.1134 -0.6221 -0.0274
  334SOL    HW1 1001   0.085   1.184   0.456 -0.7464 -1.5965 -0.8613
  334SOL    HW2 1002   0.183   1.246   0.332  0.8561  1.9376 -0.0316
  335SOL     OW 1003   0.610   2.593   2.885  0.5907 -0.0013  0.3305
  335SOL    HW1 1004   0.533   2.555   2.938  1.6699  2.0737 -0.3864
  335SOL    HW2 1005   0.613   2.695   2.897  0.4227 -1.3709  0.0918
  336SOL     OW 1006   2.933   2.929   1.928 -0.2799  0.1335 -0.0193
  336SOL    HW1 1007   2.978   2.935   2.016  3.3206 -1.6474  0.6938
  336SOL    HW2 1008   2.834   2.899   1.939 -0.2923 -1.0461 -1.1062
  337SOL     OW 1009   1.463   1.874   1.651 -0.1904  0.3108 -0.1941
  337SOL    HW1 1010   1.370   1.896   1.692  3.1337  1.6468  1.4893
  337SOL    HW2 1011   1.542   1.934   1.673 -0.2271 -0.7694  1.2339
  338SOL     OW 1012   0.835   0.172   2.705  0.3861 -0.3289 -0.4676
  338SOL    HW1 1013   0.805   0.269   2.682  0.8730 -0.2678  0.1881
  338SOL    HW2 1014   0.900   0.128   2.642 -0.2806  1.4907 -2.7448
  339SOL     OW 1015   0.581   1.147   2.382 -1.0776 -0.7573 -0.4099
  339SOL    HW1 1016   0.520   1.149   2.307 -1.1671 -0.9687  3.3860
  339SOL    HW2 1017   0.643   1.068   2.390 -0.8457  1.6784  0.3141
  340SOL     OW 1018   2.118   0.403   1.044  0.2250  0.2104 -0.2761
  340SOL    HW1 1019   2.134   0.304   1.020  0.4041 -0.8008 -1.4038
  340SOL    HW2 1020   2.207   0.443   1.077  0.8413 -0.6073 -0.7313
  341SOL     OW 1021   2.111   1.191   0.877 -0.2460  0.1319 -0.7941
  341SOL    HW1 1022   2.010   1.199   0.846 -1.3984 -0.4397 -3.0533
  341SOL    HW2 1023   2.129   1.228   0.971  0.8159  3.3535  0.0302
  342SOL     OW 1024   2.026   2.574   2.862  0.3290  0.1071 -0.5763
  342SOL    HW1 1025   2.071   2.510   2.933  2.5006 -2.3713  2.5535
  342SOL    HW2 1026   1.932   2.552   2.830 -1.0569  0.1160  1.3462
  343SOL     OW 1027   0.601   2.392   1.519 -0.2538 -0.1723 -0.2643
  343SOL    HW1 1028   0.677   2.459   1.528 -0.7773 -0.8735  1.8269
  343SOL    HW2 1029   0.535   2.404   1.593  1.3069 -0.7571 -1.3992
  344SOL     OW 1030   2.490   2.863   1.336 -0.1019 -0.2413  0.2061
  344SOL    HW1 1031   2.473   2.840   1.432  0.1105  1.3040 -1.6532
  344SOL    HW2 1032   2.526   2.957   1.326 -1.3271 -0.1212 -1.8459
  345SOL     OW 1033   2.532   2.325   0.033  0.2920  0.0280 -0.4003
  345SOL    HW1 1034   2.581   2.264   0.098  0.9717 -2.8169 -0.3461
  345SOL    HW2 1035   2.516   2.277   3.065 -0.5943  0.2873  0.3465
  346SOL     OW 1036   1.431   2.252   1.342 -0.2737  0.2705 -0.3696
  346SOL    HW1 1037   1.465   2.154   1.353  0.5458 -0.7508 -0.5786
  346SOL    HW2 1038   1.508   2.315   1.372  0.3077  2.3663  1.7982
  347SOL     OW 1039   0.906   1.693   1.657 -0.4860  0.5945  0.9767
  347SOL    HW1 1040   0.955   1.771   1.614  0.5764 -2.1903 -2.9458
  347SOL    HW2 1041   0.874   1.627   1.580  0.4316 -1.9148 -2.8201
  348SOL     OW 1042   0.128   1.982   1.975  0.5134 -0.6893  0.2579
  348SOL    HW1 1043   0.160   1.891   1.999 -0.9710  1.0571  0.5789
  348SOL    HW2 1044   0.196   2.058   1.991 -0.2735 -2.0872  0.1731
  349SOL     OW 1045   1.798   1.636   1.424 -0.3404 -0.1544 -0.4721
  349SOL    HW1 1046   1.801   1.533   1.419  0.7580 -3.1243 -0.2009
  349SOL    HW2 1047   1.882   1.679   1.388 -2.9232  3.5498 -1.4819
  350SOL     OW 1048   2.334   2.207   0.592 -0.6035 -0.2330 -0.0676
  350SOL    HW1 1049   2.250   2.205   0.649  3.0971  0.0123 -0.4172
  350SOL    HW2 1050   2.327   2.300   0.548  1.5419 -0.6564  2.2164
  351SOL     OW 1051   0.701   3.034   1.584  0.2948 -0.1874 -0.0956
  351SOL    HW1 1052   0.737   3.086   1.669 -0.4904  0.7507  0.1926
  351SOL    HW2 1053   0.777   2.996   1.529  0.6586  1.6735  1.3076
  352SOL     OW 1054   0.344   0.957   0.975 -0.3882  0.0233 -0.1343
  352SOL    HW1 1055   0.280   1.020   0.929  0.5126 -2.3570  1.2878
  352SOL    HW2 1056   0.313   0.912   1.064 -0.7472  0.6658  1.6436
  353SOL     OW 1057   1.120   1.728   2.487  0.1473  0.0789 -0.1750
  353SOL    HW1 1058   1.060   1.650   2.488  0.2030  2.2677  0.9459
  353SOL    HW2 1059   1.222   1.707   2.491  0.7450 -2.5438 -1.1617
  354SOL     OW 1060   1.791   2.865   1.979  0.0461  0.0093  0.2854
  354SOL    HW1 1061   1.745   2.909   2.059 -1.3645 -1.3653  2.7530
  354SOL    HW2 1062   1.727   2.828   1.905 -0.9566 -1.5382 -4.0967
  355SOL     OW 1063   1.959   1.311   3.101 -0.4611  0.0599  0.5744
  355SOL    HW1 1064   2.035   1.375   3.081 -1.2674  2.8195  1.5110
  355SOL    HW2 1065   1.928   1.267   3.015 -0.1368  0.1035 -1.2625
  356SOL     OW 1066   3.105   1.412   1.550 -0.0777 -0.3207  0.0264
  356SOL    HW1 1067   0.051   1.402   1.471  1.3220 -0.7898  1.0283
  356SOL    HW2 1068   0.021   1.364   1.629 -0.1047  1.8689 -0.3831
  357SOL     OW 1069   0.390   2.601   1.217  0.0373  0.1374 -0.6663
  357SOL    HW1 1070   0.386   2.685   1.159 -1.0902 -0.2532  1.0781
  357SOL    HW2 1071   0.326   2.606   1.302 -1.5055 -0.0700 -0.5199
  358SOL     OW 1072   2.569   1.901   1.519 -0.5805  0.1122 -0.3484
  358SOL    HW1 1073   2.571   1.867   1.620  1.2623 -0.6965  0.3712
  358SOL    HW2 1074   2.596   1.830   1.455  0.9858  1.4061 -0.0678
  359SOL     OW 1075   2.119   2.770   2.727 -0.0220  0.0266 -0.6342
  359SOL    HW1 1076   2.220   2.768   2.739 -2.9790 -4.6223 -0.6429
  359SOL    HW2 1077   2.074   2.693   2.778 -0.8701  0.1941 -0.4267
  360SOL     OW 1078   1.195   2.892   0.904  0.4851 -0.3320 -0.3815
  360SOL    HW1 1079   1.276   2.845   0.941 -2.3269 -0.6611 -1.1464
  360SOL    HW2 1080   1.182   2.882   0.802  1.5820 -2.4846 -2.7980
  361SOL     OW 1081   2.121   0.472   0.314  0.3322 -0.0876 -0.3863
  361SOL    HW1 1082   2.055   0.462   0.395 -0.8438 -0.3188 -1.7473
  361SOL    HW2 1083   2.181   0.557   0.322  0.9543  1.9576  0.6143
  362SOL     OW 1084   1.392   0.882   0.862  0.4565  0.2832  0.0211
  362SOL    HW1 1085   1.455   0.803   0.876  0.3521  1.2895  2.9081
  362SOL    HW2 1086   1.443   0.967   0.888 -0.1761  2.1238 -0.7696
  363SOL     OW 1087   2.303   1.294   2.495  0.3020 -0.1037  0.7094
  363SOL    HW1 1088   2.296   1.295   2.594  2.2421  1.1812 -2.4874
  363SOL    HW2 1089   2.231   1.231   2.458 -0.1824  1.3361 -1.0730
  364SOL     OW 1090   0.248   0.328   1.112  0.1105 -0.5174  0.4583
  364SOL    HW1 1091   0.187   0.408   1.125 -3.5279 -0.9133  1.1210
  364SOL    HW2 1092   0.195   0.244   1.092  1.9115 -1.5443 -1.8418
  365SOL     OW 1093   0.558   0.052   2.737 -0.4077 -0.3127 -0.1101
  365SOL    HW1 1094   0.532   3.080   2.694  0.1870  0.9031 -0.8991
  365SOL    HW2 1095   0.659   0.067   2.751  1.0375  0.3510  0.7904
  366SOL     OW 1096   2.131   2.086   2.572  0.4264  0.0090  0.1750
  366SOL    HW1 1097   2.192   2.041   2.512 -1.1949  1.2701  0.9244
  366SOL    HW2 1098   2.162   2.178   2.593  0.2518 -1.7688  0.8865
  367SOL     OW 1099   2.773   2.548   3.103  0.1044  0.3017  0.5639
  367SOL    HW1 1100   2.706   2.594   0.048  1.9758  0.8437  0.7117
  367SOL    HW2 1101   2.833   2.616   3.054 -1.6576 -1.6136  0.2777
  368SOL     OW 1102   2.895   1.322   1.106 -0.0187  0.2403 -0.3045
  368SOL    HW1 1103   2.855   1.352   1.190  1.4533  0.9028 -0.5092
  368SOL    HW2 1104   2.941   1.399   1.052  3.3294  0.6608  0.9153
  369SOL     OW 1105   1.000   3.043   2.617  0.1445  0.4284 -0.1113
  369SOL    HW1 1106   1.024   3.008   2.714 -0.8552  0.4095  0.0497
  369SOL    HW2 1107   1.046   2.987   2.543 -0.0167 -1.3263 -0.0494
  370SOL     OW 1108   2.666   0.304   0.475 -0.0436 -0.0043 -0.4421
  370SOL    HW1 1109   2.749   0.365   0.462  0.0983 -1.4656  1.4005
  370SOL    HW2 1110   2.611   0.279   0.394  1.5531  0.9526  0.0943
  371SOL     OW 1111   1.317   2.256   1.085 -0.1036 -0.3178  0.1292
  371SOL    HW1 1112   1.337   2.266   1.184 -0.3196 -3.0193  0.6884
  371SOL    HW2 1113   1.348   2.341   1.038 -0.3777  0.2863  0.2182
  372SOL     OW 1114   2.903   0.880   2.434  0.3149 -0.3368  0.0179
  372SOL    HW1 1115   2.890   0.964   2.374 -0.4273  1.5761 -1.1833
  372SOL    HW2 1116   2.993   0.883   2.481  0.9105 -0.0608  1.0424
  373SOL     OW 1117   2.653   1.805   0.924 -0.3728  0.6088  0.0578
  373SOL    HW1 1118   2.710   1.848   0.853 -1.0770 -0.3630 -0.2534
  373SOL    HW2 1119   2.689   1.833   1.013  2.1939 -0.5291  0.3927
  374SOL     OW 1120   0.503   2.890   2.648 -0.1674  0.2360 -0.0972
  374SOL    HW1 1121   0.519   2.869   2.745 -0.3297  2.5598 -1.1807
  374SOL    HW2 1122   0.551   2.817   2.593 -2.8978  0.1496 -1.3082
  375SOL     OW 1123   0.070   3.106   2.808 -0.2094  0.5382  0.3657
  375SOL    HW1 1124   0.133   3.062   2.742 -1.8923 -0.7544 -1.9967
  375SOL    HW2 1125   0.093   3.068   2.903  0.1534 -1.7583  0.9508
  376SOL     OW 1126   3.109   2.104   1.749  0.5692 -0.4272 -0.5879
  376SOL    HW1 1127   0.049   2.067   1.821 -0.7529  0.9094 -3.6805
  376SOL    HW2 1128   3.012   2.080   1.777  0.7482 -0.6490  0.5563
  377SOL     OW 1129   1.789   2.204   2.341  0.4147  0.6690 -0.5450
  377SOL    HW1 1130   1.735   2.130   2.382 -0.5730  0.9060  0.0591
  377SOL    HW2 1131   1.732   2.278   2.297  0.3538  2.3515  0.1612
  378SOL     OW 1132   0.472   0.316   2.646  0.4744 -0.0076  0.0643
  378SOL    HW1 1133   0.507   0.411   2.667 -0.3309  2.2616  0.4708
  378SOL    HW2 1134   0.520   0.233   2.676  2.3410 -0.1744 -1.3170
  379SOL     OW 1135   0.535   0.621   0.377  0.3314 -0.3682 -0.2715
  379SOL    HW1 1136   0.535   0.631   0.482 -3.0487  2.0500  0.9536
  379SOL    HW2 1137   0.551   0.714   0.341 -0.1995 -1.2155 -0.6894
  380SOL     OW 1138   0.243   1.647   1.805  0.0999 -0.0780 -0.2419
  380SOL    HW1 1139   0.302   1.568   1.805 -2.3735  6.2348  0.3140
  380SOL    HW2 1140   0.233   1.677   1.899 -1.1390 -0.0468 -2.6500
  381SOL     OW 1141   0.302   1.020   2.014 -0.0406  0.6758 -0.0855
  381SOL    HW1 1142   0.218   0.963   1.999 -0.8145 -1.2637 -1.0205
  381SOL    HW2 1143   0.326   1.049   1.920 -1.5716  1.7511  2.2531
  382SOL     OW 1144   2.327   2.105   0.341  0.2330 -0.0401  0.3435
  382SOL    HW1 1145   2.235   2.096   0.301  1.0834 -0.7601  1.4766
  382SOL    HW2 1146   2.324   2.157   0.427 -1.7836  0.8895  1.1014
  383SOL     OW 1147   0.298   1.977   2.864  0.2428  0.1724  0.2468
  383SOL    HW1 1148   0.255   1.980   2.960  0.7019 -1.7495  1.0835
  383SOL    HW2 1149   0.380   1.923   2.863 -3.1929 -0.0899 -2.0646
  384SOL     OW 1150   0.790   2.102   2.908 -0.0470 -0.0352 -0.4905
  384SOL    HW1 1151   0.890   2.109   2.910 -1.8126  0.4661  0.1128
  384SOL    HW2 1152   0.752   2.144   2.991 -0.2270  1.4646 -0.9667
  385SOL     OW 1153   2.578   2.035   0.566  1.0185 -0.4584  0.3732
  385SOL    HW1 1154   2.502   2.110   0.575 -4.7941  0.7562 -2.2893
  385SOL    HW2 1155   2.545   1.963   0.506 -1.8666 -0.1649  1.9496
  386SOL     OW 1156   2.226   1.241   1.631  0.5725  0.0338  0.2528
  386SOL    HW1 1157   2.282   1.318   1.658 -0.2208 -2.8228 -3.6894
  386SOL    HW2 1158   2.151   1.232   1.702 -0.3302  2.6725  2.7150
  387SOL     OW 1159   2.779   1.461   2.210 -0.3282  0.3712  0.1923
  387SOL    HW1 1160   2.818   1.420   2.293 -0.0181  2.1496 -0.2578
  387SOL    HW2 1161   2.683   1.468   2.210  1.7960  0.8895  0.2021
  388SOL     OW 1162   0.213   1.713   2.069  0.1702  0.5895  0.1049
  388SOL    HW1 1163   0.307   1.684   2.101  0.2688  0.6038  2.7505
  388SOL    HW2 1164   0.136   1.664   2.116 -0.0813  1.4910 -2.0929
  389SOL     OW 1165   1.799   0.953   1.666 -0.3967  0.0309 -0.0461
  389SOL    HW1 1166   1.828   0.944   1.568  0.9392  1.7178 -0.8755
  389SOL    HW2 1167   1.789   1.047   1.693 -0.0118 -3.2703 -2.5124
  390SOL     OW 1168   1.969   0.022   0.554 -0.2909  0.1405  0.0456
  390SOL    HW1 1169   1.930   3.094   0.635  0.0816  1.6415 -3.0263
  390SOL    HW2 1170   1.952   0.120   0.559  1.4410  0.0757 -0.5804
  391SOL     OW 1171   1.967   1.588   1.150  0.3837 -0.0702 -0.6894
  391SOL    HW1 1172   2.054   1.542   1.118 -0.0971  0.3582  1.5233
  391SOL    HW2 1173   1.984   1.665   1.217 -1.0834  3.7743  0.3060
  392SOL     OW 1174   2.717   2.560   0.395  0.4026 -0.0760 -0.0725
  392SOL    HW1 1175   2.663   2.503   0.464  0.3104 -0.4470 -0.8396
  392SOL    HW2 1176   2.781   2.618   0.450  1.1514  2.1170  0.6583
  393SOL     OW 1177   1.902   1.995   2.846  0.1152 -0.4046  0.0727
  393SOL    HW1 1178   1.889   1.901   2.882 -0.1291  2.3868  0.1497
  393SOL    HW2 1179   1.897   2.002   2.745 -3.2801  0.8644  1.3065
  394SOL     OW 1180   0.077   2.825   2.608 -0.2094  0.3040  0.2918
  394SOL    HW1 1181   3.101   2.862   2.587 -1.0195  0.6846 -2.0973
  394SOL    HW2 1182   0.086   2.791   2.704  3.5581  0.3688  1.7587
  395SOL     OW 1183   0.508   0.249   0.550 -0.0174  0.3228 -0.3125
  395SOL    HW1 1184   0.426   0.296   0.582  2.7381  2.6171  0.5348
  395SOL    HW2 1185   0.593   0.295   0.582 -0.1341 -0.8406  0.1493
  396SOL     OW 1186   1.844   0.981   0.476  0.1229  0.2986 -0.2814
  396SOL    HW1 1187   1.783   0.936   0.404  3.4261  2.3095 -0.2235
  396SOL    HW2 1188   1.925   0.922   0.494 -2.9198 -1.9297  1.2236
  397SOL     OW 1189   0.763   0.651   2.316 -0.3140  0.1459 -0.0432
  397SOL    HW1 1190   0.670   0.605   2.330 -0.1637 -1.8276  0.1106
  397SOL    HW2 1191   0.749   0.751   2.342 -0.0552  1.5121  1.7646
  398SOL     OW 1192   0.824   3.113   0.648  0.2292 -0.1775 -0.3318
  398SOL    HW1 1193   0.802   0.086   0.684  2.3567  1.8922  0.2465
  398SOL    HW2 1194   0.920   3.109   0.610 -0.0260  0.2137  1.0625
  399SOL     OW 1195   2.480   2.747   1.604 -0.4039  0.1666  0.0770
  399SOL    HW1 1196   2.499   2.653   1.569 -0.8308  0.4004 -2.3075
  399SOL    HW2 1197   2.538   2.778   1.683 -2.3500  0.3682 -0.4196
  400SOL     OW 1198   0.911   1.621   2.177  0.4210  0.5600 -0.3474
  400SOL    HW1 1199   0.989   1.684   2.166  1.3111  0.4724 -0.7200
  400SOL    HW2 1200   0.855   1.637   2.257  2.2665 -2.0742 -4.2481
  401SOL     OW 1201   0.715   1.116   2.726 -0.3569 -0.4080 -0.2802
  401SOL    HW1 1202   0.661   1.203   2.722 -1.7390  1.7829  1.2716
  401SOL    HW2 1203   0.661   1.036   2.755  4.4143 -1.1190 -1.8506
  402SOL     OW 1204   2.950   2.127   0.896 -0.1864  0.5454  0.3774
  402SOL    HW1 1205   2.903   2.212   0.918 -0.0614 -1.7391  0.2301
  402SOL    HW2 1206   2.893   2.059   0.841 -3.4901 -0.8339 -2.0147
  403SOL     OW 1207   0.119   1.114   2.347 -0.0453 -0.2705  0.2554
  403SOL    HW1 1208   0.085   1.098   2.257 -0.2643  1.7524  0.7681
  403SOL    HW2 1209   0.156   1.207   2.356  0.7957 -1.3749  1.3183
  404SOL     OW 1210   0.114   2.572   2.225  0.4198 -0.2079 -0.2050
  404SOL    HW1 1211   0.182   2.585   2.145 -1.9985  1.7526 -0.0722
  404SOL    HW2 1212   0.148   2.627   2.306  0.8021  1.5148  0.4340
  405SOL     OW 1213   0.194   0.472   1.978 -0.1237  0.2773 -0.1970
  405SOL    HW1 1214   0.285   0.469   2.024  0.3218  1.6368 -0.8750
  405SOL    HW2 1215   0.139   0.387   1.990  0.7691  1.8896  0.8253
  406SOL     OW 1216   1.404   1.683   2.500  0.2297  0.4521 -0.2138
  406SOL    HW1 1217   1.412   1.653   2.397  4.3531 -0.9224 -3.5236
  406SOL    HW2 1218   1.498   1.697   2.540  1.8192 -0.4901  1.7514
  407SOL     OW 1219   1.631   1.068   2.537 -0.4027  0.8839 -0.0895
  407SOL    HW1 1220   1.564   1.104   2.467 -0.4201  2.8738 -1.6909
  407SOL    HW2 1221   1.707   1.018   2.492  2.5204  0.5724  1.0111
  408SOL     OW 1222   0.774   2.939   2.505  0.1142  0.1331  0.0341
  408SOL    HW1 1223   0.845   2.995   2.547  2.8839  0.0902 -1.3788
  408SOL    HW2 1224   0.817   2.854   2.468 -2.7527 -1.6638 -0.3166
  409SOL     OW 1225   0.105   2.178   0.915  0.4020 -0.5553 -0.1596
  409SOL    HW1 1226   0.012   2.141   0.894  3.4334 -0.9098  0.3071
  409SOL    HW2 1227   0.149   2.111   0.969 -2.2930  1.5701 -0.9267
  410SOL     OW 1228   2.651   1.523   0.185  0.0333  0.5595  0.0274
  410SOL    HW1 1229   2.677   1.442   0.248 -0.1531 -0.9300 -1.9844
  410SOL    HW2 1230   2.681   1.503   0.089 -0.7139  0.0157  2.0373
  411SOL     OW 1231   0.098   0.094   1.133  0.2158  0.2260  0.0860
  411SOL    HW1 1232   0.177   0.103   1.199  1.4957 -1.0411  0.2848
  411SOL    HW2 1233   0.048   0.006   1.159 -0.0413 -0.9735  0.9284
  412SOL     OW 1234   1.689   0.607   1.402 -0.6145 -0.4686 -0.0829
  412SOL    HW1 1235   1.730   0.534   1.346  0.6498 -0.9883  0.1180
  412SOL    HW2 1236   1.674   0.688   1.341  0.4812 -1.9618  2.6357
  413SOL     OW 1237   0.869   0.205   1.966  0.5574  0.0166 -0.3161
  413SOL    HW1 1238   0.947   0.164   2.012  2.2365 -0.5006  1.3612
  413SOL    HW2 1239   0.833   0.280   2.023 -0.4077 -0.8198  0.1427
  414SOL     OW 1240   2.859   1.590   2.704 -0.0230 -0.0517  0.6806
  414SOL    HW1 1241   2.922   1.514   2.726 -2.1988  0.5204 -0.4284
  414SOL    HW2 1242   2.765   1.548   2.703  2.1799 -0.3283  2.3222
  415SOL     OW 1243   0.661   2.487   0.135  0.1626 -0.2590 -0.2666
  415SOL    HW1 1244   0.744   2.543   0.112  0.0111  1.3886 -2.4806
  415SOL    HW2 1245   0.645   2.496   0.238 -0.1041 -0.0520  1.9166
  416SOL     OW 1246   1.842   3.065   2.948 -0.0318  0.3635  0.0959
  416SOL    HW1 1247   1.868   0.006   3.026 -0.3868 -0.4204  1.2168
  416SOL    HW2 1248   1.878   3.107   2.859 -1.2404  1.7920  0.8275
  417SOL     OW 1249   0.248   0.412   0.614  0.0243  0.6680  0.4342
  417SOL    HW1 1250   0.298   0.453   0.695  3.0977 -0.3369 -1.2689
  417SOL    HW2 1251   0.155   0.382   0.641 -2.0524  2.6198  0.1352
  418SOL     OW 1252   2.352   0.058   1.185  0.0618 -0.1334  0.1197
  418SOL    HW1 1253   2.273   0.019   1.237  0.2145  0.2660 -1.1124
  418SOL    HW2 1254   2.427   0.085   1.253  1.5466  1.3012  4.6937
  419SOL     OW 1255   0.000   2.902   0.852 -0.2948 -0.1970  0.1481
  419SOL    HW1 1256   0.004   2.971   0.779 -1.8145 -1.5147 -0.7156
  419SOL    HW2 1257   0.050   2.815   0.834  0.5105 -4.7447  3.7180
  420SOL     OW 1258   0.105   1.250   1.774 -0.3388 -0.0565  0.1282
  420SOL    HW1 1259   0.204   1.280   1.753  1.7070  0.6871  1.1166
  420SOL    HW2 1260   0.079   1.160   1.740  0.4360 -0.5630  2.4528
  421SOL     OW 1261   1.482   2.861   0.621 -0.4135  0.4600 -0.3626
  421SOL    HW1 1262   1.497   2.825   0.526  0.6654  3.3077 -1.2260
  421SOL    HW2 1263   1.454   2.961   0.628  0.1672  1.6106 -0.5707
  422SOL     OW 1264   0.735   0.503   1.508  0.1158 -0.3778  0.0287
  422SOL    HW1 1265   0.829   0.467   1.513 -0.5666 -0.2206 -1.2156
  422SOL    HW2 1266   0.671   0.448   1.451  2.3181  3.5004 -0.0467
  423SOL     OW 1267   1.118   1.200   1.650  0.2726  0.1773 -0.4405
  423SOL    HW1 1268   1.088   1.297   1.629  0.7226  0.2989 -1.0028
  423SOL    HW2 1269   1.054   1.146   1.706  0.5722  1.4644  1.1384
  424SOL     OW 1270   2.203   1.893   0.174  0.2169  0.2641  0.4065
  424SOL    HW1 1271   2.144   1.970   0.199 -0.4268 -0.3680  1.0723
  424SOL    HW2 1272   2.188   1.814   0.240 -0.4746 -2.8232 -0.1213
  425SOL     OW 1273   0.048   0.259   2.003 -0.2635 -0.5931  0.0400
  425SOL    HW1 1274   0.056   0.208   2.093  0.9894 -0.6369 -0.2196
  425SOL    HW2 1275   3.069   0.274   1.979 -0.0363 -2.8440 -2.0088
  426SOL     OW 1276   0.113   2.771   2.870  0.3201 -0.9489  0.7518
  426SOL    HW1 1277   0.206   2.768   2.910  1.2864  1.8918  0.5615
  426SOL    HW2 1278   0.055   2.684   2.889 -0.0568 -1.5207 -1.8343
  427SOL     OW 1279   1.109   0.725   2.873  0.1089  0.1034  0.1713
  427SOL    HW1 1280   1.182   0.708   2.945  0.3380 -1.9574 -0.3789
  427SOL    HW2 1281   1.082   0.634   2.839  0.4451  0.5344  1.8193
  428SOL     OW 1282   2.762   0.889   1.886 -0.3190  0.0968 -0.3612
  428SOL    HW1 1283   2.700   0.827   1.941  0.5882  0.8372  1.6461
  428SOL    HW2 1284   2.708   0.950   1.827  1.7393  1.1715  2.0615
  429SOL     OW 1285   1.999   2.814   1.184 -0.2099  0.4695  0.1151
  429SOL    HW1 1286   1.930   2.840   1.253  1.0852  0.2288 -0.0420
  429SOL    HW2 1287   2.026   2.716   1.190 -2.7582  0.2247 -0.1049
  430SOL     OW 1288   1.105   1.445   2.767  0.0968 -0.0555 -0.2792
  430SOL    HW1 1289   1.019   1.456   2.828 -1.0155  1.0639  3.5251
  430SOL    HW2 1290   1.175   1.519   2.783 -2.1966 -1.3656 -1.5634
  431SOL     OW 1291   2.911   1.574   1.462 -0.1430  0.1607  0.3340
  431SOL    HW1 1292   2.955   1.662   1.488  0.8148  1.8523  0.5397
  431SOL    HW2 1293   2.975   1.497   1.479  1.8843 -0.1309 -0.1231
  432SOL     OW 1294   0.939   2.414   2.376  0.1173  0.3619  0.0813
  432SOL    HW1 1295   0.926   2.419   2.479  1.9280 -0.8411 -2.6623
  432SOL    HW2 1296   1.034   2.438   2.356 -2.8490 -1.8263 -0.2223
  433SOL     OW 1297   2.111   0.366   1.937  0.4026 -0.0259 -0.0343
  433SOL    HW1 1298   2.125   0.279   1.988 -0.8585 -0.0317 -0.0388
  433SOL    HW2 1299   2.032   0.419   1.972 -2.9649  0.5557 -0.9794
  434SOL     OW 1300   0.748   2.413   2.168  0.4570  0.0959  0.1202
  434SOL    HW1 1301   0.748   2.515   2.144 -1.7827  3.9977 -0.4881
  434SOL    HW2 1302   0.792   2.382   2.253 -2.9675  0.7356 -0.4199
  435SOL     OW 1303   0.055   0.051   0.423 -0.0954 -0.4319  0.4253
  435SOL    HW1 1304   0.079   0.056   0.324 -0.9097  1.5648 -1.8259
  435SOL    HW2 1305   0.134   0.046   0.487 -0.9479  0.4432  0.8936
  436SOL     OW 1306   0.808   0.764   2.056  0.2512  0.1949 -0.4385
  436SOL    HW1 1307   0.738   0.838   2.059  0.8888  0.7408 -0.6798
  436SOL    HW2 1308   0.793   0.697   2.136  0.0361 -2.5175  0.3952
  437SOL     OW 1309   0.661   2.292   2.636  0.1995  0.4901 -0.5081
  437SOL    HW1 1310   0.675   2.391   2.632  1.1372 -0.1915  0.4708
  437SOL    HW2 1311   0.592   2.272   2.710  0.3409 -0.8937  1.5193
  438SOL     OW 1312   0.969   1.197   1.271 -0.6273  0.5879 -0.2614
  438SOL    HW1 1313   0.920   1.163   1.188 -0.5577  0.7840 -2.1009
  438SOL    HW2 1314   1.044   1.131   1.300 -0.0524 -1.4521  2.1783
  439SOL     OW 1315   2.580   1.250   2.476  0.0094 -0.2203 -0.4447
  439SOL    HW1 1316   2.614   1.158   2.507  0.8406 -2.5837 -1.8584
  439SOL    HW2 1317   2.479   1.252   2.486  1.5844 -0.6680 -0.4229
  440SOL     OW 1318   0.084   0.499   0.196 -0.2001  0.1951  0.7281
  440SOL    HW1 1319   0.042   0.407   0.169  1.2515 -2.5682 -1.3022
  440SOL    HW2 1320   0.182   0.483   0.223  4.2430  0.0512  0.6792
  441SOL     OW 1321   1.225   1.965   1.770  0.4631 -0.2002 -0.2346
  441SOL    HW1 1322   1.169   2.030   1.708 -1.2399 -2.9671  0.5853
  441SOL    HW2 1323   1.164   1.893   1.810 -1.0573 -2.9125  1.0447
  442SOL     OW 1324   2.122   1.573   0.807 -0.4442  0.0947  0.2470
  442SOL    HW1 1325   2.159   1.547   0.902 -1.0310  0.1207  0.0684
  442SOL    HW2 1326   2.146   1.488   0.747  2.4210 -1.1000 -3.5947
  443SOL     OW 1327   2.863   2.159   2.707  0.0963  0.1192  0.3396
  443SOL    HW1 1328   2.944   2.182   2.765  1.1996  0.9100  1.7251
  443SOL    HW2 1329   2.777   2.166   2.761  0.4071 -1.1913 -1.3661
  444SOL     OW 1330   1.617   1.679   2.906  0.0012 -0.3553 -0.2509
  444SOL    HW1 1331   1.642   1.584   2.923  0.0337  1.8729  0.8098
  444SOL    HW2 1332   1.669   1.739   2.970  2.7036  1.7337 -0.0183
  445SOL     OW 1333   2.598   2.758   1.852  0.2031 -0.0124  0.2445
  445SOL    HW1 1334   2.647   2.800   1.929  0.3630 -0.7964 -1.5040
  445SOL    HW2 1335   2.604   2.661   1.863  1.7365  2.7882  0.7164
  446SOL     OW 1336   0.817   0.818   1.627  0.6204 -0.0043 -0.2830
  446SOL    HW1 1337   0.899   0.809   1.572  3.2232  3.2262 -1.6865
  446SOL    HW2 1338   0.772   0.730   1.645  0.3910  2.7390 -1.3531
  447SOL     OW 1339   0.621   1.042   1.098  0.4153 -0.4638  0.2670
  447SOL    HW1 1340   0.544   0.983   1.061 -0.5595 -1.8759 -0.5006
  447SOL    HW2 1341   0.662   1.005   1.183  0.7798  2.3504 -4.9131
  448SOL     OW 1342   1.130   1.112   2.414  0.0564  0.2638 -0.1765
  448SOL    HW1 1343   1.208   1.053   2.440  2.0720  0.8633  2.6989
  448SOL    HW2 1344   1.057   1.058   2.360 -3.3293 -0.9499 -0.4926
  449SOL     OW 1345   2.971   2.166   2.235  0.5279 -0.6618 -0.5886
  449SOL    HW1 1346   2.912   2.137   2.309  4.1683 -2.2914 -3.0946
  449SOL    HW2 1347   3.004   2.085   2.186 -1.2454  3.0230  2.5292
  450SOL     OW 1348   2.273   1.703   2.167 -0.1792  0.3357  0.2488
  450SOL    HW1 1349   2.297   1.644   2.247 -0.8769  2.3979 -3.5298
  450SOL    HW2 1350   2.221   1.654   2.097 -0.8408  0.8120  0.2986
  451SOL     OW 1351   2.750   1.375   1.343 -0.6414 -0.1228  0.2483
  451SOL    HW1 1352   2.779   1.422   1.433 -0.2856  0.1435 -1.4284
  451SOL    HW2 1353   2.669   1.427   1.311  2.8269  1.1728  0.0753
  452SOL     OW 1354   0.315   1.222   1.573 -0.2620  0.4212 -0.3340
  452SOL    HW1 1355   0.239   1.172   1.524 -1.3915 -2.6512 -1.6764
  452SOL    HW2 1356   0.378   1.268   1.506  1.2412 -1.3298  1.8176
  453SOL     OW 1357   0.550   1.098   0.685 -0.2435 -0.0890 -0.2071
  453SOL    HW1 1358   0.451   1.100   0.705  2.2588 -1.9119 -0.4609
  453SOL    HW2 1359   0.605   1.144   0.760  0.5574  2.3521  1.2745
  454SOL     OW 1360   0.669   1.515   0.360 -0.3221  0.0343 -0.0300
  454SOL    HW1 1361   0.698   1.456   0.438  0.0611  1.2763  1.0971
  454SOL    HW2 1362   0.566   1.507   0.343 -1.8248 -1.4709  0.0965
  455SOL     OW 1363   1.698   0.488   1.102  0.5005 -0.1538 -0.0805
  455SOL    HW1 1364   1.634   0.444   1.170 -1.2644 -0.0273  1.6006
  455SOL    HW2 1365   1.791   0.475   1.134 -2.5322 -0.7522 -3.1524
  456SOL     OW 1366   1.723   2.818   1.030  0.3852  0.2319 -0.0776
  456SOL    HW1 1367   1.822   2.800   1.030 -0.2844 -1.1811  1.2972
  456SOL    HW2 1368   1.689   2.915   1.046  0.8315  1.7811  1.2307
  457SOL     OW 1369   1.844   0.292   2.240  0.2155  0.5565  0.2737
  457SOL    HW1 1370   1.750   0.291   2.277 -0.8089 -2.5816 -1.8163
  457SOL    HW2 1371   1.909   0.250   2.301  0.2498  0.2313 -1.7101
  458SOL     OW 1372   2.583   0.677   2.968 -0.2443 -0.3201  0.0502
  458SOL    HW1 1373   2.509   0.607   2.953  0.4239  0.2328 -1.3161
  458SOL    HW2 1374   2.676   0.638   2.978 -1.5562  1.1106 -1.3848
  459SOL     OW 1375   3.109   1.593   2.170 -0.2686 -0.1395  0.0623
  459SOL    HW1 1376   3.096   1.529   2.094  1.7780 -0.3018  1.5547
  459SOL    HW2 1377   3.110   1.543   2.258  0.3086 -0.8439 -0.8508
  460SOL     OW 1378   0.427   0.786   0.063  0.7235  0.4447  0.0200
  460SOL    HW1 1379   0.393   0.692   0.059  1.1497  0.5982 -1.7985
  460SOL    HW2 1380   0.526   0.792   0.081  1.7839  2.1416  0.3015
  461SOL     OW 1381   3.050   2.421   0.601 -0.5242 -0.2754 -0.1706
  461SOL    HW1 1382   2.965   2.364   0.597 -0.1621  1.1506 -0.3171
  461SOL    HW2 1383   3.107   2.408   0.517 -0.9874  3.0172  2.4437
  462SOL     OW 1384   0.077   0.011   1.628  0.1099 -0.7982 -0.2153
  462SOL    HW1 1385   0.127   3.049   1.595 -0.2009 -2.3497 -1.2029
  462SOL    HW2 1386   0.089   0.097   1.573 -0.9291 -2.2677 -0.2519
  463SOL     OW 1387   1.667   2.035   1.724  0.1488  0.4145  0.3540
  463SOL    HW1 1388   1.750   2.017   1.669 -0.4233 -1.1365 -2.2196
  463SOL    HW2 1389   1.645   2.132   1.731  2.7507 -0.5688  2.3863
  464SOL     OW 1390   0.326   2.803   1.066  0.5340  0.4375  0.1871
  464SOL    HW1 1391   0.226   2.784   1.073  0.2532 -0.6162  1.6678
  464SOL    HW2 1392   0.347   2.826   0.967 -2.5835 -0.0517  3.2247
  465SOL     OW 1393   0.538   0.272   1.710  0.0654  0.2979 -0.0303
  465SOL    HW1 1394   0.538   0.240   1.807  0.7076  1.6378 -1.8151
  465SOL    HW2 1395   0.455   0.329   1.690  2.4753  0.1865 -0.7339
  466SOL     OW 1396   1.171   1.965   2.326  0.4932  0.1391  0.0632
  466SOL    HW1 1397   1.163   1.893   2.397 -1.4285 -1.2131 -0.4116
  466SOL    HW2 1398   1.108   2.043   2.330  0.9265  4.0285 -2.1880
  467SOL     OW 1399   2.797   1.498   0.659  0.5157  0.3496  0.0636
  467SOL    HW1 1400   2.719   1.487   0.726 -1.8960  0.9544  2.1400
  467SOL    HW2 1401   2.808   1.419   0.601  2.4308  0.8759 -0.1385
  468SOL     OW 1402   2.431   2.055   2.721  0.5226 -0.5506 -0.2173
  468SOL    HW1 1403   2.353   1.995   2.743 -0.5404  1.0956 -1.1002
  468SOL    HW2 1404   2.426   2.082   2.623 -2.1957  0.1133  0.5529
  469SOL     OW 1405   1.224   2.224   0.603  0.5768  0.6511  0.0277
  469SOL    HW1 1406   1.240   2.176   0.513  0.3154 -0.6796 -0.5317
  469SOL    HW2 1407   1.233   2.158   0.680 -1.9079  0.5697 -0.2648
  470SOL     OW 1408   2.007   1.797   1.349 -0.2132  0.1849 -0.0823
  470SOL    HW1 1409   1.992   1.896   1.332 -1.6930 -2.1807 -1.7631
  470SOL    HW2 1410   2.105   1.774   1.361 -2.6994 -1.2889  1.0407
  471SOL     OW 1411   0.088   2.395   0.365 -0.4839  0.2035 -0.4506
  471SOL    HW1 1412   0.189   2.408   0.360  3.2818  1.3757  0.5950
  471SOL    HW2 1413   0.070   2.300   0.345 -2.2993  2.2363  1.5477
  472SOL     OW 1414   2.552   1.837   2.373  0.0611  0.3909  0.0931
  472SOL    HW1 1415   2.566   1.787   2.462 -0.4407 -1.0244  1.9786
  472SOL    HW2 1416   2.632   1.870   2.326 -0.5277 -0.8602  1.4546
  473SOL     OW 1417   1.414   2.509   0.924 -0.4291  0.1904 -0.0388
  473SOL    HW1 1418   1.310   2.504   0.948 -2.0750 -2.8810  0.0413
  473SOL    HW2 1419   1.448   2.602   0.932 -2.2449 -0.3115  0.5840
  474SOL     OW 1420   2.960   0.153   1.343 -0.2075 -0.0745 -0.4717
  474SOL    HW1 1421   2.918   0.069   1.310 -0.1489  0.7354  1.3656
  474SOL    HW2 1422   2.886   0.216   1.373  1.3800 -2.1897  0.3204
  475SOL     OW 1423   2.232   2.676   2.069 -0.0683 -0.0658 -0.6542
  475SOL    HW1 1424   2.302   2.609   2.099 -3.3321 -0.4300 -2.6271
  475SOL    HW2 1425   2.264   2.742   1.997 -2.9310  0.7226 -0.6918
  476SOL     OW 1426   0.353   0.514   0.828  0.0365 -0.5331 -0.1784
  476SOL    HW1 1427   0.428   0.454   0.870  2.3711  1.1665  1.0814
  476SOL    HW2 1428   0.280   0.543   0.894  0.9408 -0.8971 -0.6498
  477SOL     OW 1429   0.780   2.015   0.856 -0.2204  0.3456 -0.1445
  477SOL    HW1 1430   0.745   2.073   0.930  3.1806 -0.7129 -0.9065
  477SOL    HW2 1431   0.708   1.954   0.819  1.4627  0.2174 -0.1707
  478SOL     OW 1432   0.836   2.434   2.884  0.0423  0.1408 -0.0146
  478SOL    HW1 1433   0.791   2.344   2.904 -0.9658 -0.3359  0.2441
  478SOL    HW2 1434   0.760   2.502   2.871  0.3723 -0.5561 -1.8399
  479SOL     OW 1435   3.080   1.109   2.137  0.0761  0.1812  0.6231
  479SOL    HW1 1436   2.992   1.113   2.182  2.7831 -0.5720 -3.5941
  479SOL    HW2 1437   3.097   1.014   2.100 -0.8737  1.4906  0.9230
  480SOL     OW 1438   0.183   2.302   0.010 -0.0317  0.4516  0.5943
  480SOL    HW1 1439   0.133   2.389   0.007 -0.7560  2.4139 -1.1390
  480SOL    HW2 1440   0.174   2.259   0.099  0.0507  1.0100 -0.6757
  481SOL     OW 1441   1.668   3.012   2.229 -0.3272 -0.3364  0.3094
  481SOL    HW1 1442   1.714   3.037   2.313  0.0258 -2.4699  0.8078
  481SOL    HW2 1443   1.655   3.088   2.160  0.7108  2.2230 -0.5196
  482SOL     OW 1444   1.888   2.072   0.051  0.0090 -0.4273 -0.5960
  482SOL    HW1 1445   1.956   2.068   0.129  0.7513 -0.0501  1.1052
  482SOL    HW2 1446   1.939   2.098   3.082  0.6379 -0.3223 -0.4691
  483SOL     OW 1447   0.978   2.452   2.649  0.1298 -0.2235  0.4061
  483SOL    HW1 1448   1.075   2.435   2.672 -0.4139  0.6983 -1.0878
  483SOL    HW2 1449   0.914   2.421   2.725 -0.7744  1.0733  1.0590
  484SOL     OW 1450   0.730   2.860   0.982  0.5175  0.6410 -0.3423
  484SOL    HW1 1451   0.682   2.926   0.924 -0.8703 -1.0263  0.0103
  484SOL    HW2 1452   0.720   2.877   1.086  1.7266 -1.9262  0.5550
  485SOL     OW 1453   2.134   0.709   0.735 -0.2235  0.7858 -0.0027
  485SOL    HW1 1454   2.134   0.797   0.783 -0.6863 -2.4349 -0.1696
  485SOL    HW2 1455   2.060   0.653   0.769 -0.4875 -2.8607  0.7638
  486SOL     OW 1456   2.074   2.785   2.271 -0.2169 -0.2773 -0.3404
  486SOL    HW1 1457   2.108   2.758   2.363  0.6914  0.2110  1.2382
  486SOL    HW2 1458   2.144   2.755   2.204  2.0689  1.7954  0.8830
  487SOL     OW 1459   1.210   1.765   0.663  0.1693  0.1731  0.1169
  487SOL    HW1 1460   1.120   1.768   0.609  0.0927 -1.8931  0.3977
  487SOL    HW2 1461   1.220   1.857   0.714 -0.4534 -0.6859  0.4329
  488SOL     OW 1462   2.168   0.390   3.104 -0.8624 -0.2879  0.1686
  488SOL    HW1 1463   2.135   0.403   0.079  1.8406  2.1841 -2.7411
  488SOL    HW2 1464   2.106   0.432   3.036  0.4579 -0.0489 -0.5005
  489SOL     OW 1465   2.157   2.922   0.577  0.0670  0.2990 -0.1652
  489SOL    HW1 1466   2.237   2.952   0.516  2.0519 -2.1841 -2.9919
  489SOL    HW2 1467   2.073   2.981   0.567 -2.5599 -1.0775  0.7930
  490SOL     OW 1468   1.610   2.955   2.969 -0.0584  0.3093  0.1098
  490SOL    HW1 1469   1.700   3.001   2.955  2.0953 -0.9753 -0.0875
  490SOL    HW2 1470   1.550   2.997   3.040  1.1111  0.1598  0.3803
  491SOL     OW 1471   0.837   0.098   1.134  0.0620 -0.2603  0.6022
  491SOL    HW1 1472   0.842   0.113   1.235 -0.1976  2.1820  1.3717
  491SOL    HW2 1473   0.923   0.095   1.081  0.9359  0.2215  2.6211
  492SOL     OW 1474   1.886   3.062   0.297 -0.0507 -0.0526  0.1001
  492SOL    HW1 1475   1.922   0.004   0.372  0.4731 -2.1377  0.3093
  492SOL    HW2 1476   1.918   2.962   0.302 -1.2098 -1.0622 -1.0355
  493SOL     OW 1477   1.421   2.571   2.874 -0.1618  0.0059 -0.3903
  493SOL    HW1 1478   1.492   2.643   2.856  0.7161  1.1522  2.5697
  493SOL    HW2 1479   1.371   2.596   2.959 -2.2216 -0.8466  1.1222
  494SOL     OW 1480   0.213   1.215   1.032  0.0956  0.0443  0.0314
  494SOL    HW1 1481   0.290   1.171   1.087  1.7304  0.2790  1.3884
  494SOL    HW2 1482   0.121   1.203   1.077 -1.5814 -1.5196 -2.0691
  495SOL     OW 1483   2.903   0.456   1.662 -0.0046 -0.5709 -0.0020
  495SOL    HW1 1484   2.986   0.452   1.609 -0.7151 -0.1130  0.7379
  495SOL    HW2 1485   2.894   0.544   1.715 -1.5519  1.3147  2.0323
  496SOL     OW 1486   2.424   2.487   2.142 -0.3218  0.0077  0.8711
  496SOL    HW1 1487   2.507   2.432   2.116 -1.3607 -2.8082  0.0961
  496SOL    HW2 1488   2.439   2.542   2.223  0.5052 -0.9272  0.1213
  497SOL     OW 1489   1.632   1.425   2.592  0.1601 -0.1545  0.0840
  497SOL    HW1 1490   1.725   1.388   2.578  0.6670  0.0032  0.1471
  497SOL    HW2 1491   1.571   1.360   2.641 -0.1670  1.9080  1.9747
  498SOL     OW 1492   0.855   2.131   0.632  0.4680  0.4749  0.5467
  498SOL    HW1 1493   0.895   2.219   0.661 -3.0581  1.2620  0.6821
  498SOL    HW2 1494   0.836   2.064   0.706 -0.8353  2.8553 -1.0748
  499SOL     OW 1495   0.046   1.557   1.021  0.0573  0.2896 -0.4502
  499SOL    HW1 1496   3.083   1.619   1.040  1.3406 -0.6550 -0.2290
  499SOL    HW2 1497   0.128   1.610   0.989 -1.2777  0.1698  2.4479
  500SOL     OW 1498   1.552   2.449   0.458  0.1719 -0.0820 -0.0228
  500SOL    HW1 1499   1.506   2.487   0.384 -1.5514  1.9406  2.0222
  500SOL    HW2 1500   1.485   2.422   0.531 -3.1036  0.9177 -0.5852
  501SOL     OW 1501   2.010   2.518   1.177 -0.4705  0.0283  0.0914
  501SOL    HW1 1502   2.102   2.536   1.216  2.1859 -0.9806 -1.5872
  501SOL    HW2 1503   2.025   2.529   1.070 -0.3379  0.1643 -2.6655
  502SOL     OW 1504   0.566   0.579   1.705 -0.1471  0.0587 -0.1697
  502SOL    HW1 1505   0.470   0.537   1.706  2.5327 -1.3532  0.7993
  502SOL    HW2 1506   0.623   0.546   1.623  1.5365 -2.4552 -2.3184
  503SOL     OW 1507   2.105   0.097   1.589  0.4850 -0.4698  0.1645
  503SOL    HW1 1508   2.014   0.055   1.568 -1.2823  0.4648  0.5376
  503SOL    HW2 1509   2.161   0.040   1.647 -0.4664  1.5784 -2.4436
  504SOL     OW 1510   2.087   0.863   1.750  0.4440 -0.0715 -0.5670
  504SOL    HW1 1511   1.992   0.898   1.752  0.8968  1.6010  1.3412
  504SOL    HW2 1512   2.143   0.924   1.686  2.4329 -1.6412 -1.5544
  505SOL     OW 1513   1.239   2.941   2.260 -0.5499 -0.3460 -0.6354
  505SOL    HW1 1514   1.184   2.909   2.340  1.2915  2.7388  1.5791
  505SOL    HW2 1515   1.329   2.983   2.291 -2.1409 -1.0752  0.2686
  506SOL     OW 1516   0.449   0.441   2.056 -0.2362 -0.2360  0.3997
  506SOL    HW1 1517   0.515   0.512   2.025  0.5121 -0.4395 -1.5277
  506SOL    HW2 1518   0.476   0.348   2.027 -1.0357 -0.6979 -2.6691
  507SOL     OW 1519   1.554   0.222   3.098  0.2386 -0.6212 -0.0227
  507SOL    HW1 1520   1.527   0.126   3.092 -1.1204 -1.2903  0.7926
  507SOL    HW2 1521   1.642   0.238   0.029  0.8297  1.0438 -0.3534
  508SOL     OW 1522   2.101   0.589   2.244 -0.0997 -0.2915  0.6864
  508SOL    HW1 1523   2.165   0.666   2.227 -0.2310 -3.9786  1.8358
  508SOL    HW2 1524   2.027   0.593   2.173 -2.4061  2.4414 -0.3420
  509SOL     OW 1525   0.899   1.290   2.238 -0.0007  0.0013 -0.1562
  509SOL    HW1 1526   0.837   1.311   2.313 -0.1740 -1.2767  1.7371
  509SOL    HW2 1527   0.964   1.365   2.229  0.6780 -0.5969 -0.1147
  510SOL     OW 1528   2.952   0.644   0.850  0.7554 -0.0696 -0.3797
  510SOL    HW1 1529   3.027   0.719   0.848  0.5423  4.2154  1.9094
  510SOL    HW2 1530   2.859   0.679   0.855  3.5316 -2.3322 -0.9480
  511SOL     OW 1531   1.617   1.363   1.129  0.2185 -1.2189  0.7621
  511SOL    HW1 1532   1.655   1.365   1.224 -0.2656  1.6029  2.3436
  511SOL    HW2 1533   1.650   1.445   1.071 -0.8163  1.0053 -0.6340
  512SOL     OW 1534   0.468   1.552   0.743 -0.5692  0.3149 -0.2212
  512SOL    HW1 1535   0.400   1.607   0.699  6.1810 -1.0960  0.2380
  512SOL    HW2 1536   0.440   1.479   0.806  0.4215  1.3841 -0.7943
  513SOL     OW 1537   0.673   2.140   1.065  0.0055 -0.4809 -0.3710
  513SOL    HW1 1538   0.592   2.124   1.124  0.6291  0.2956 -1.2792
  513SOL    HW2 1539   0.709   2.234   1.079 -0.6954  0.5345  2.5955
  514SOL     OW 1540   0.153   2.154   0.230  0.3419 -0.1328  0.4323
  514SOL    HW1 1541   0.050   2.151   0.235  0.7850  1.3819  1.1139
  514SOL    HW2 1542   0.191   2.088   0.299  0.8794  2.0622  2.5363
  515SOL     OW 1543   2.768   3.092   0.108 -0.2058 -0.0017  0.2179
  515SOL    HW1 1544   2.813   2.998   0.122 -1.7870 -4.2503  1.4723
  515SOL    HW2 1545   2.795   0.034   0.189 -1.7655  1.8327  0.9983
  516SOL     OW 1546   1.985   3.024   1.009 -0.5737 -0.0722  0.1799
  516SOL    HW1 1547   1.925   3.088   1.059  0.2893  0.3929 -0.2968
  516SOL    HW2 1548   1.998   2.940   1.062  0.3217  2.6856 -2.0374
  517SOL     OW 1549   1.692   1.566   0.559 -0.0045  0.1801 -0.0993
  517SOL    HW1 1550   1.737   1.559   0.648 -1.8956  0.2443 -2.1573
  517SOL    HW2 1551   1.675   1.471   0.521  1.2765 -0.8193 -1.3349
  518SOL     OW 1552   1.260   0.475   1.102 -0.0793  0.3482 -0.0244
  518SOL    HW1 1553   1.207   0.503   1.020 -0.1887 -0.0427  1.9760
  518SOL    HW2 1554   1.333   0.407   1.086 -0.7327  0.1825  3.8588
  519SOL     OW 1555   2.788   2.370   0.228  0.4354 -0.6664  0.1280
  519SOL    HW1 1556   2.770   2.446   0.295 -0.6157  0.9387  0.4605
  519SOL    HW2 1557   2.788   2.407   0.134 -0.4576  2.1128 -1.2402
  520SOL     OW 1558   2.033   1.970   1.800 -0.7139  0.5397 -0.2692
  520SOL    HW1 1559   1.997   1.913   1.873  0.2498  0.7670 -0.5162
  520SOL    HW2 1560   1.969   1.961   1.722 -2.1232  0.7333  0.1189
  521SOL     OW 1561   1.612   2.725   2.256  0.1871 -0.0280  0.0391
  521SOL    HW1 1562   1.514   2.715   2.280  0.7600  1.7098 -0.4649
  521SOL    HW2 1563   1.637   2.827   2.245 -1.0610  2.7144  1.1380
  522SOL     OW 1564   2.869   0.256   1.848  0.1899 -0.4794  0.2506
  522SOL    HW1 1565   2.866   0.336   1.783 -2.0249  3.2200  1.7139
  522SOL    HW2 1566   2.871   0.167   1.801 -1.9827  0.3939  2.2840
  523SOL     OW 1567   1.009   1.893   1.488 -0.2346  0.1409  0.1557
  523SOL    HW1 1568   1.028   1.978   1.534 -1.7011 -2.3168  0.0996
  523SOL    HW2 1569   0.932   1.897   1.418 -2.0685 -0.2606 -4.8280
  524SOL     OW 1570   2.281   2.192   2.956 -0.6729 -0.2001 -0.4788
  524SOL    HW1 1571   2.295   2.194   2.859 -1.5620 -2.2028  3.5594
  524SOL    HW2 1572   2.301   2.099   3.003 -0.7612 -1.3660  3.0771
  525SOL     OW 1573   2.846   1.116   0.109 -0.0575  0.2741  0.2338
  525SOL    HW1 1574   2.882   1.082   0.199  0.1077 -1.0569  0.0268
  525SOL    HW2 1575   2.802   1.039   0.060  0.7188 -0.7023  0.6709
  526SOL     OW 1576   0.971   2.741   0.975  0.2385  0.1911 -0.0740
  526SOL    HW1 1577   1.036   2.816   0.967 -1.8829 -0.1794 -0.6160
  526SOL    HW2 1578   0.876   2.779   0.972  2.7238 -2.4522  2.1974
  527SOL     OW 1579   2.425   1.469   0.627  0.1427 -0.3697  0.0607
  527SOL    HW1 1580   2.344   1.407   0.636 -4.2312  1.7651 -0.7529
  527SOL    HW2 1581   2.426   1.515   0.535  1.5274 -1.1485 -0.5514
  528SOL     OW 1582   0.577   0.784   2.548 -0.5422 -0.5023 -0.2400
  528SOL    HW1 1583   0.646   0.845   2.500 -0.2395 -2.9615  0.6370
  528SOL    HW2 1584   0.496   0.764   2.493  0.7878 -0.5332  1.6512
  529SOL     OW 1585   0.613   1.477   3.020  0.2089  0.3680 -0.2867
  529SOL    HW1 1586   0.560   1.561   3.007 -3.1860 -4.9490 -1.3491
  529SOL    HW2 1587   0.571   1.394   2.970  1.1640  0.7575 -0.2620
  530SOL     OW 1588   1.457   0.911   1.727  0.5584 -0.3180 -0.2385
  530SOL    HW1 1589   1.533   0.855   1.762  0.2184  2.0116  1.2109
  530SOL    HW2 1590   1.380   0.918   1.793  2.4059  0.9226  2.5127
  531SOL     OW 1591   1.208   2.315   3.009 -0.1670 -0.1501 -0.6750
  531SOL    HW1 1592   1.160   2.273   2.933  2.0708 -0.3207  1.0820
  531SOL    HW2 1593   1.295   2.258   3.019  0.4834  2.6724 -1.1586
  532SOL     OW 1594   2.347   0.766   0.033 -0.5386  0.0087  0.4487
  532SOL    HW1 1595   2.321   0.721   0.118 -1.7307  1.2793  1.0155
  532SOL    HW2 1596   2.437   0.730   3.112  2.7786 -0.2179 -2.6393
  533SOL     OW 1597   2.978   0.511   2.223 -0.0733 -0.0545 -0.4930
  533SOL    HW1 1598   3.003   0.419   2.258  0.0371  0.6554 -1.5088
  533SOL    HW2 1599   2.875   0.522   2.213 -1.3080  1.9170  3.3700
  534SOL     OW 1600   1.926   0.066   0.065  0.6274 -0.0254  0.1533
  534SOL    HW1 1601   1.910   0.029   0.163  2.0094 -0.1370  1.8267
  534SOL    HW2 1602   2.026   0.059   0.037  2.4457 -0.8398  1.7205
  535SOL     OW 1603   0.400   0.139   2.947  0.3649  0.0503  0.2321
  535SOL    HW1 1604   0.463   0.127   2.868 -3.6239  2.0580  0.5445
  535SOL    HW2 1605   0.404   0.224   2.991 -2.3000 -2.0092 -1.3820
  536SOL     OW 1606   0.660   1.611   1.748  0.6265 -0.1424  0.0645
  536SOL    HW1 1607   0.598   1.678   1.702  1.0229 -2.0465 -1.1742
  536SOL    HW2 1608   0.756   1.618   1.722 -1.7684 -1.5463 -0.1301
  537SOL     OW 1609   0.204   2.683   1.681 -0.0034  0.0159 -0.2117
  537SOL    HW1 1610   0.189   2.765   1.622  0.7267  1.3133 -2.1452
  537SOL    HW2 1611   0.301   2.661   1.681 -1.9251 -0.4758 -1.1468
  538SOL     OW 1612   2.998   2.189   0.171 -0.3955 -0.2536 -0.4197
  538SOL    HW1 1613   2.921   2.259   0.175 -1.6363 -1.0829  0.6749
  538SOL    HW2 1614   3.011   2.169   0.072 -0.8076 -1.6326 -0.1870
  539SOL     OW 1615   2.564   0.859   2.771 -0.6994 -0.3044 -0.3093
  539SOL    HW1 1616   2.571   0.781   2.841  1.9114  1.6129 -0.4065
  539SOL    HW2 1617   2.549   0.941   2.830  1.1534  1.5067 -0.4003
  540SOL     OW 1618   1.870   0.777   0.165  0.1905  0.0819 -0.1715
  540SOL    HW1 1619   1.881   0.811   0.070  0.3405  2.3304  1.4239
  540SOL    HW2 1620   1.785   0.815   0.210 -2.0023 -1.9245 -3.1662
  541SOL     OW 1621   1.086   0.509   2.184  0.4833  0.1135  0.0955
  541SOL    HW1 1622   1.110   0.467   2.273 -0.1797 -2.6324 -2.6857
  541SOL    HW2 1623   0.989   0.506   2.172  2.4019 -0.9365 -0.0257
  542SOL     OW 1624   1.670   2.431   2.233  0.6554 -0.3987  0.2212
  542SOL    HW1 1625   1.662   2.527   2.273 -1.2344  3.0043  1.5950
  542SOL    HW2 1626   1.741   2.431   2.159 -3.3254  3.8844 -1.2224
  543SOL     OW 1627   0.838   2.927   0.438  0.1955  0.1909 -0.5013
  543SOL    HW1 1628   0.807   3.018   0.490 -1.1212  2.3942  1.1517
  543SOL    HW2 1629   0.855   2.948   0.341  0.4178  1.3595 -0.6851
  544SOL     OW 1630   2.786   1.905   2.240  0.2314 -0.4452  0.1165
  544SOL    HW1 1631   2.872   1.891   2.195  1.7751  0.4011  3.8538
  544SOL    HW2 1632   2.816   1.931   2.332  2.7122  0.5134 -0.4205
  545SOL     OW 1633   1.457   1.998   1.405 -0.1225 -0.2492  1.1457
  545SOL    HW1 1634   1.477   1.962   1.496 -1.9663  1.6026  0.6092
  545SOL    HW2 1635   1.378   1.950   1.366  0.5945 -0.0707  1.3324
  546SOL     OW 1636   0.583   3.078   2.353  0.1831 -0.1966  0.2189
  546SOL    HW1 1637   0.662   3.032   2.402  0.5970  0.4509  1.8296
  546SOL    HW2 1638   0.492   3.047   2.385 -1.0621  0.3685  2.9480
  547SOL     OW 1639   1.138   0.463   0.351 -0.6407  0.3199  0.5571
  547SOL    HW1 1640   1.098   0.376   0.307 -0.0177 -1.6611  0.2063
  547SOL    HW2 1641   1.063   0.529   0.360 -1.6108  0.8296 -0.2720
  548SOL     OW 1642   1.466   2.207   3.054  0.3751  0.3444  0.2272
  548SOL    HW1 1643   1.513   2.234   0.022 -2.0757 -3.5715 -0.4968
  548SOL    HW2 1644   1.533   2.165   2.991  1.3646 -0.2848 -2.8010
  549SOL     OW 1645   2.060   1.080   0.131  0.0950 -0.3826  0.5635
  549SOL    HW1 1646   2.060   1.164   0.073  0.5780  0.2767  1.1379
  549SOL    HW2 1647   2.092   1.093   0.228 -0.3816  0.5835 -1.1138
  550SOL     OW 1648   2.633   2.123   0.246  0.8687 -0.0771 -0.3176
  550SOL    HW1 1649   2.544   2.099   0.294  0.0578  0.5738  1.9985
  550SOL    HW2 1650   2.678   2.201   0.289 -0.5008  0.8521  1.7375
  551SOL     OW 1651   1.389   0.392   1.432  0.0537  0.4183  0.1754
  551SOL    HW1 1652   1.465   0.366   1.364  2.4279  1.4853 -3.0789
  551SOL    HW2 1653   1.322   0.311   1.439 -0.7144 -1.8410  0.4767
  552SOL     OW 1654   0.268   2.258   2.887  0.0554  0.0643  0.3189
  552SOL    HW1 1655   0.277   2.161   2.868 -0.3072  2.3959  1.9512
  552SOL    HW2 1656   0.219   2.281   2.976  0.8062  2.2076  0.1578
  553SOL     OW 1657   2.892   2.728   0.805  0.2367 -0.2076 -0.5049
  553SOL    HW1 1658   2.933   2.643   0.841 -0.1925  2.4366 -3.5195
  553SOL    HW2 1659   2.928   2.811   0.849 -2.5481  0.7683 -0.4870
  554SOL     OW 1660   2.045   1.509   1.654  0.2171  0.0353 -0.0019
  554SOL    HW1 1661   2.033   1.425   1.711 -0.3926 -0.2850  1.8931
  554SOL    HW2 1662   1.961   1.566   1.653 -1.4481 -0.0852  0.4436
  555SOL     OW 1663   1.383   2.007   2.165 -0.0327  0.3076  0.1070
  555SOL    HW1 1664   1.309   1.991   2.232 -0.7352  2.0262  2.2031
  555SOL    HW2 1665   1.378   2.104   2.131 -1.0089 -0.3642 -1.2622
  556SOL     OW 1666   1.205   1.522   1.803 -0.0021 -0.1816  0.0684
  556SOL    HW1 1667   1.140   1.478   1.866  2.0321 -0.6828  1.7342
  556SOL    HW2 1668   1.188   1.497   1.707 -0.3124  1.2477  1.2178
  557SOL     OW 1669   1.500   3.063   1.783  0.3878  0.3045 -1.1436
  557SOL    HW1 1670   1.554   2.978   1.808  1.8052 -1.1868  1.2546
  557SOL    HW2 1671   1.459   3.106   1.869  0.3159  1.6253  2.2943
  558SOL     OW 1672   0.569   2.915   2.125  0.1808 -0.2329  0.1878
  558SOL    HW1 1673   0.511   2.967   2.058 -0.6210 -0.8373 -4.1457
  558SOL    HW2 1674   0.590   2.980   2.196 -3.4332 -0.2066 -0.7614
  559SOL     OW 1675   1.818   2.443   0.203  0.1888  0.3409  0.0976
  559SOL    HW1 1676   1.868   2.497   0.137 -1.3155 -1.0416  0.3934
  559SOL    HW2 1677   1.875   2.402   0.272 -1.3022  0.4784 -0.9202
  560SOL     OW 1678   1.282   2.134   0.337  0.1932 -0.1024  0.1319
  560SOL    HW1 1679   1.323   2.065   0.270  0.3950  0.3127 -0.7465
  560SOL    HW2 1680   1.269   2.223   0.297 -0.5374 -3.3083 -1.1080
  561SOL     OW 1681   1.298   0.550   0.149 -0.3289 -0.0937 -0.1997
  561SOL    HW1 1682   1.234   0.526   0.224  1.1857  2.8745 -0.2539
  561SOL    HW2 1683   1.306   0.466   0.088 -0.0956 -1.6599  0.6152
  562SOL     OW 1684   0.523   1.388   2.004 -0.5001 -0.3300 -0.1561
  562SOL    HW1 1685   0.621   1.399   1.983 -1.0727 -0.9196 -1.0188
  562SOL    HW2 1686   0.473   1.406   1.921 -1.7810 -0.7145  0.9749
  563SOL     OW 1687   1.542   2.368   2.694 -0.7700 -0.6574  0.9010
  563SOL    HW1 1688   1.472   2.374   2.766  4.4131 -0.3625 -0.2990
  563SOL    HW2 1689   1.551   2.269   2.667  0.3104 -1.2498 -0.5984
  564SOL     OW 1690   2.804   0.915   0.932  0.2031  0.3651 -0.3731
  564SOL    HW1 1691   2.749   0.828   0.950 -2.0331 -3.0565  2.3552
  564SOL    HW2 1692   2.749   0.999   0.925  0.4095 -1.1264  0.4146
  565SOL     OW 1693   0.541   1.203   3.039 -0.1439  0.1367  0.1542
  565SOL    HW1 1694   0.460   1.218   3.094  1.4274  2.0358 -0.7308
  565SOL    HW2 1695   0.609   1.140   3.077 -3.2392 -0.6482 -2.2467
  566SOL     OW 1696   2.576   2.826   2.952  0.3406  0.2072  0.1445
  566SOL    HW1 1697   2.560   2.903   3.015  0.5137  0.7661 -1.6856
  566SOL    HW2 1698   2.548   2.738   2.997  0.3108 -0.7763 -0.5093
  567SOL     OW 1699   1.344   1.240   1.125  0.4181 -0.2943  0.1378
  567SOL    HW1 1700   1.413   1.316   1.125  1.3107 -0.5815  0.0117
  567SOL    HW2 1701   1.310   1.222   1.219  0.1957 -0.6205 -0.0718
  568SOL     OW 1702   1.268   1.203   2.782 -0.0484  0.3063  0.2169
  568SOL    HW1 1703   1.216   1.128   2.823 -1.0314  0.2155  0.4029
  568SOL    HW2 1704   1.207   1.283   2.772  0.8306  2.0527  1.3672
  569SOL     OW 1705   2.343   1.904   3.053 -1.1245 -0.0630  0.4426
  569SOL    HW1 1706   2.440   1.928   3.073 -0.8715  0.2899 -0.0161
  569SOL    HW2 1707   2.296   1.868   0.021 -0.1572 -1.7966 -0.4862
  570SOL     OW 1708   2.866   2.406   2.210 -0.5196 -0.5553 -0.1029
  570SOL    HW1 1709   2.914   2.473   2.147  2.8242 -0.1994 -0.6700
  570SOL    HW2 1710   2.913   2.314   2.205 -1.1102 -1.4935 -1.0178
  571SOL     OW 1711   2.855   2.030   1.794  0.2942 -0.8475  0.1362
  571SOL    HW1 1712   2.847   1.928   1.783  1.3516  1.2992  3.0169
  571SOL    HW2 1713   2.784   2.059   1.865 -1.5190 -0.8099  1.5440
  572SOL     OW 1714   1.677   2.209   0.416  0.6127  0.1800 -0.0829
  572SOL    HW1 1715   1.628   2.292   0.445 -3.1983  1.2501  0.3433
  572SOL    HW2 1716   1.676   2.185   0.314  2.3197 -1.1347 -1.0520
  573SOL     OW 1717   1.403   1.813   0.475 -0.6671 -0.5859 -0.1538
  573SOL    HW1 1718   1.463   1.881   0.516 -1.4698 -1.0402 -1.2363
  573SOL    HW2 1719   1.338   1.783   0.546 -0.7343 -0.9487 -1.8199
  574SOL     OW 1720   1.431   2.985   1.500 -0.5346 -0.2326 -0.1341
  574SOL    HW1 1721   1.500   2.915   1.470 -0.1232  0.4304  0.5506
  574SOL    HW2 1722   1.461   3.016   1.594  0.9420 -2.8861  0.2608
  575SOL     OW 1723   0.358   1.156   1.256 -0.3192  0.1887 -0.1406
  575SOL    HW1 1724   0.394   1.061   1.283 -2.7568 -1.1908  0.4409
  575SOL    HW2 1725   0.418   1.233   1.290  0.7935  1.5789 -1.2485
  576SOL     OW 1726   2.505   0.231   1.041 -0.8927  0.1602 -0.1043
  576SOL    HW1 1727   2.584   0.195   0.989  0.5613  0.7907 -1.4349
  576SOL    HW2 1728   2.444   0.161   1.086  1.2986 -2.7785 -0.0137
  577SOL     OW 1729   1.694   0.546   2.459 -0.4178 -0.2480  0.2510
  577SOL    HW1 1730   1.630   0.611   2.507  1.9675  0.2046 -2.4222
  577SOL    HW2 1731   1.642   0.468   2.412 -0.6917  0.7228 -2.0011
  578SOL     OW 1732   2.042   1.515   2.732  0.1076  0.1009  0.3804
  578SOL    HW1 1733   2.012   1.543   2.825  0.1810 -1.7897 -0.4117
  578SOL    HW2 1734   2.068   1.600   2.678 -0.0541  0.4796 -2.3530
  579SOL     OW 1735   0.483   1.622   1.392 -0.2109 -0.4992 -0.1665
  579SOL    HW1 1736   0.470   1.666   1.483  0.1506 -0.8532  1.4056
  579SOL    HW2 1737   0.404   1.638   1.327 -2.9035 -1.8675 -2.4477
  580SOL     OW 1738   1.542   2.530   0.180 -0.0074 -0.0432  0.2042
  580SOL    HW1 1739   1.541   2.618   0.126  1.9091 -1.0151 -0.7477
  580SOL    HW2 1740   1.635   2.494   0.196 -1.8089  2.3060 -0.4494
  581SOL     OW 1741   0.963   0.968   2.226 -0.0427  0.0846 -0.0783
  581SOL    HW1 1742   0.940   1.035   2.150  1.8047  0.1282 -3.5461
  581SOL    HW2 1743   1.031   0.905   2.190 -0.1528  0.3018  0.2268
  582SOL     OW 1744   0.666   1.220   0.897 -0.0518  0.2811 -0.7402
  582SOL    HW1 1745   0.648   1.142   0.965 -2.1361  0.3450  0.1391
  582SOL    HW2 1746   0.747   1.274   0.918 -0.2794 -1.6342  2.9674
  583SOL     OW 1747   0.793   1.173   2.012 -0.3368  0.2576  0.1387
  583SOL    HW1 1748   0.783   1.239   1.941  0.5173 -1.1779  1.2710
  583SOL    HW2 1749   0.836   1.219   2.093  0.2597 -0.3235  1.7198
  584SOL     OW 1750   2.126   2.649   0.550 -0.1140  0.4233 -0.6507
  584SOL    HW1 1751   2.037   2.622   0.592 -0.4734  2.3375  0.4518
  584SOL    HW2 1752   2.135   2.754   0.553 -1.7643 -1.9487  0.0780
  585SOL     OW 1753   1.966   0.362   2.723  0.1993 -0.1862 -0.5170
  585SOL    HW1 1754   1.984   0.260   2.726  3.1218 -0.1016  1.0053
  585SOL    HW2 1755   1.870   0.386   2.741 -0.2872 -0.0731 -0.4432
  586SOL     OW 1756   0.151   1.607   0.369  0.6867 -0.0410  0.1906
  586SOL    HW1 1757   0.109   1.633   0.455  3.1403  1.0024 -1.9737
  586SOL    HW2 1758   0.085   1.601   0.292 -1.6926 -0.1958 -2.7216
  587SOL     OW 1759   1.814   1.927   0.674  0.0014 -0.3683  0.9044
  587SOL    HW1 1760   1.854   1.941   0.579  1.3181 -3.3840  1.8191
  587SOL    HW2 1761   1.879   1.877   0.729 -3.8014 -0.9088 -1.8744
  588SOL     OW 1762   0.486   0.357   1.009  0.3587  0.2728  0.0507
  588SOL    HW1 1763   0.391   0.342   1.054 -2.5257 -1.0335  0.8074
  588SOL    HW2 1764   0.537   0.270   1.002  1.0885 -1.7333 -0.1398
  589SOL     OW 1765   1.076   0.565   0.909 -0.1673 -0.2715 -0.2761
  589SOL    HW1 1766   0.976   0.564   0.884  1.2762  0.5132 -3.8070
  589SOL    HW2 1767   1.109   0.659   0.929  0.3995 -2.0207  1.2695
  590SOL     OW 1768   1.397   1.014   0.191 -0.0003 -0.1180 -0.1945
  590SOL    HW1 1769   1.433   1.108   0.181 -1.4891  0.3254  0.0902
  590SOL    HW2 1770   1.324   1.009   0.266  0.9178 -0.9096  1.7306
  591SOL     OW 1771   2.570   2.775   2.482 -0.1919  0.5105 -0.4048
  591SOL    HW1 1772   2.595   2.705   2.555  1.5887 -0.9975  1.0971
  591SOL    HW2 1773   2.625   2.768   2.396  0.6777  1.1165 -0.8508
  592SOL     OW 1774   1.448   2.031   0.943 -0.4531 -0.2257 -0.0670
  592SOL    HW1 1775   1.547   2.016   0.945 -0.9562 -1.6724 -0.9014
  592SOL    HW2 1776   1.411   2.110   1.004 -1.3189 -0.2039 -0.1566
  593SOL     OW 1777   1.110   0.034   0.998 -0.2854 -0.1099  0.2703
  593SOL    HW1 1778   1.126   3.059   0.960  1.9774  0.6924 -0.5276
  593SOL    HW2 1779   1.152   0.046   1.090 -1.7203  1.0995  3.3750
  594SOL     OW 1780   0.296   0.752   2.209 -0.3298  0.0299  0.6286
  594SOL    HW1 1781   0.196   0.746   2.191  0.6675 -1.0228  1.9518
  594SOL    HW2 1782   0.338   0.823   2.147 -0.4172  0.9968  1.2315
  595SOL     OW 1783   0.607   2.458   1.227 -0.2339 -0.0407 -0.2041
  595SOL    HW1 1784   0.603   2.413   1.317  0.0952  0.6642 -1.8509
  595SOL    HW2 1785   0.517   2.511   1.214 -0.2879  1.1189  0.5968
  596SOL     OW 1786   0.175   0.869   1.467 -0.3388  0.6374  0.3062
  596SOL    HW1 1787   0.256   0.840   1.524  0.1249  0.7100  0.8153
  596SOL    HW2 1788   0.090   0.828   1.506  0.3876 -1.8768  1.4676
  597SOL     OW 1789   1.908   1.916   0.423  0.2263  0.2788  0.2306
  597SOL    HW1 1790   1.808   1.884   0.407 -2.0347 -0.4844 -0.1007
  597SOL    HW2 1791   1.974   1.842   0.402 -0.6825  0.1835  0.2194
  598SOL     OW 1792   0.490   2.903   1.664  0.0772 -0.0488 -0.6638
  598SOL    HW1 1793   0.569   2.960   1.642 -2.6433 -1.9105 -0.0935
  598SOL    HW2 1794   0.523   2.807   1.687  1.3584 -2.5254 -3.3919
  599SOL     OW 1795   2.615   2.164   2.879 -0.3231  0.3129 -0.3351
  599SOL    HW1 1796   2.558   2.120   2.805 -0.5353  0.5144 -0.8173
  599SOL    HW2 1797   2.619   2.104   2.958 -1.2097  3.2777  0.3663
  600SOL     OW 1798   0.688   0.834   0.148  0.3268  0.0331  0.1879
  600SOL    HW1 1799   0.714   0.909   0.084  0.0911 -0.4316 -0.9324
  600SOL    HW2 1800   0.730   0.851   0.243  1.4433  0.1026  1.1805
  601SOL     OW 1801   0.786   0.875   0.410 -0.1308  0.1344  0.1673
  601SOL    HW1 1802   0.853   0.919   0.475 -1.6153 -0.6279 -0.4032
  601SOL    HW2 1803   0.689   0.873   0.450 -0.5328 -1.9835 -0.7647
  602SOL     OW 1804   1.488   2.771   0.874  0.0446 -0.1046 -0.0559
  602SOL    HW1 1805   1.575   2.793   0.928 -0.2628  1.0679  1.2255
  602SOL    HW2 1806   1.500   2.804   0.779 -1.8159  1.0119  2.4175
  603SOL     OW 1807   0.721   2.689   2.088  0.0496 -0.2481 -0.2191
  603SOL    HW1 1808   0.648   2.760   2.077 -0.1699  2.1918 -0.2477
  603SOL    HW2 1809   0.799   2.697   2.018 -1.4851 -0.1812 -2.5431
  604SOL     OW 1810   0.074   0.130   2.241 -0.0393 -0.0916  0.0293
  604SOL    HW1 1811   0.068   0.031   2.219  1.5088  0.0185  1.5576
  604SOL    HW2 1812   0.150   0.147   2.307  0.6037 -0.8512 -0.0600
  605SOL     OW 1813   2.677   2.144   1.193 -0.2290  0.2140  0.4064
  605SOL    HW1 1814   2.687   2.243   1.211 -0.8237  1.2100 -0.4654
  605SOL    HW2 1815   2.592   2.130   1.140  1.7214 -0.1255 -0.4101
  606SOL     OW 1816   0.287   1.573   2.933 -0.1765  0.7375  0.2595
  606SOL    HW1 1817   0.351   1.615   3.000 -1.1517  0.0191 -4.8702
  606SOL    HW2 1818   0.311   1.589   2.836 -1.6135  1.2163 -0.2258
  607SOL     OW 1819   1.041   0.275   0.176  0.6586  0.6189  0.3211
  607SOL    HW1 1820   0.938   0.276   0.173 -3.3122 -0.9350  1.8557
  607SOL    HW2 1821   1.073   0.258   0.078  0.2217 -1.9438  0.0309
  608SOL     OW 1822   1.828   1.207   2.344 -0.1285 -1.0769  0.5328
  608SOL    HW1 1823   1.822   1.253   2.434  2.3536  1.3782 -0.0960
  608SOL    HW2 1824   1.840   1.102   2.358 -0.1562 -1.7120  1.2862
  609SOL     OW 1825   2.930   0.371   0.845 -0.4539  0.0982  0.2160
  609SOL    HW1 1826   2.947   0.333   0.939  0.9835  0.0971  1.0986
  609SOL    HW2 1827   2.947   0.470   0.848  0.0511 -0.3888 -1.2168
  610SOL     OW 1828   0.494   2.758   0.531 -0.1705 -0.2552  0.3043
  610SOL    HW1 1829   0.578   2.716   0.499  0.0993 -0.1820  0.0853
  610SOL    HW2 1830   0.438   2.686   0.579  1.5792 -0.4857  1.9818
  611SOL     OW 1831   1.555   1.025   3.032 -0.2519 -0.1503  0.4733
  611SOL    HW1 1832   1.535   0.928   3.066  2.8249 -2.4785 -1.0417
  611SOL    HW2 1833   1.480   1.087   3.065  1.4236 -0.2529  1.5399
  612SOL     OW 1834   0.953   2.129   2.377  0.6369 -0.0910 -0.6488
  612SOL    HW1 1835   0.901   2.088   2.453  0.7191 -3.2600  0.6594
  612SOL    HW2 1836   0.939   2.229   2.384  1.6864 -1.2670  1.0549
  613SOL     OW 1837   1.279   2.384   0.162  0.0542 -0.0860 -0.3660
  613SOL    HW1 1838   1.366   2.436   0.154  1.0944 -0.1495 -1.2035
  613SOL    HW2 1839   1.239   2.368   0.071  1.8588 -1.3859 -0.8878
  614SOL     OW 1840   2.552   0.080   1.371  0.0806 -0.3273  0.4025
  614SOL    HW1 1841   2.636   0.042   1.318  2.9167 -0.2087 -2.6839
  614SOL    HW2 1842   2.574   0.093   1.471 -2.0900 -2.9457  0.1139
  615SOL     OW 1843   2.193   1.488   3.100  0.1054  0.9137 -0.4789
  615SOL    HW1 1844   2.127   1.562   0.003 -0.3311  1.0800  2.6177
  615SOL    HW2 1845   2.274   1.509   3.048 -2.6833  0.3424  1.7788
  616SOL     OW 1846   1.454   0.094   0.384  0.2459 -0.6659 -0.3430
  616SOL    HW1 1847   1.358   0.092   0.348  0.3357 -0.7972  0.9437
  616SOL    HW2 1848   1.494   0.186   0.374 -0.8091  2.7408 -2.3868
  617SOL     OW 1849   0.768   1.067   0.025  0.2575  0.6380  0.6966
  617SOL    HW1 1850   0.819   1.090   3.060  2.3580 -0.1665  1.8558
  617SOL    HW2 1851   0.809   1.120   0.100 -0.8909 -0.4315 -1.3274
  618SOL     OW 1852   0.799   0.412   2.139  0.0581 -0.1866  0.1089
  618SOL    HW1 1853   0.727   0.389   2.212 -2.6476 -4.3034  4.3491
  618SOL    HW2 1854   0.751   0.461   2.063 -0.6916 -2.3602 -0.6948
  619SOL     OW 1855   0.100   1.128   1.439  0.0279  0.2945 -0.5747
  619SOL    HW1 1856   0.061   1.145   1.346  1.6280  1.1373  1.1516
  619SOL    HW2 1857   0.124   1.031   1.452  1.5611  1.6967 -0.8205
  620SOL     OW 1858   1.778   1.140   2.949  0.3350 -0.2858 -0.4388
  620SOL    HW1 1859   1.805   1.095   2.863  0.6792 -0.5409 -0.7874
  620SOL    HW2 1860   1.693   1.102   2.991 -3.4174 -0.6950 -1.0430
  621SOL     OW 1861   2.284   2.876   1.134  0.5262  0.1533  0.0613
  621SOL    HW1 1862   2.184   2.865   1.159  0.8415  1.1385  0.5987
  621SOL    HW2 1863   2.348   2.891   1.212 -2.0807  1.0384  0.9961
  622SOL     OW 1864   1.547   0.739   2.591  0.3257  0.3579  0.3504
  622SOL    HW1 1865   1.553   0.813   2.662  0.0655 -3.3775 -1.2454
  622SOL    HW2 1866   1.460   0.684   2.599  2.6349 -2.2043 -0.3966
  623SOL     OW 1867   1.322   0.361   3.064  0.1481  0.2674 -0.5937
  623SOL    HW1 1868   1.235   0.309   3.032 -3.4201  1.1735 -1.7323
  623SOL    HW2 1869   1.411   0.304   3.059  3.2653 -2.5913 -2.4921
  624SOL     OW 1870   1.788   0.529   0.030 -0.2719 -0.2062 -0.1485
  624SOL    HW1 1871   1.827   0.611   0.074  2.8799 -0.6949  0.0259
  624SOL    HW2 1872   1.839   0.518   3.060 -2.1152  3.7189  1.8057
  625SOL     OW 1873   0.871   1.388   0.942  0.0750  0.4180  0.3959
  625SOL    HW1 1874   0.953   1.329   0.943 -1.7823 -0.4361 -0.6962
  625SOL    HW2 1875   0.888   1.479   0.984 -1.9898 -2.2955 -1.7488
  626SOL     OW 1876   1.372   1.335   2.991 -0.2680  0.7473  0.1979
  626SOL    HW1 1877   1.306   1.349   3.065 -2.7015  1.8929  2.4539
  626SOL    HW2 1878   1.331   1.282   2.915  0.0814 -1.4548 -0.7705
  627SOL     OW 1879   0.938   2.733   1.916 -0.3206  0.0901  0.6703
  627SOL    HW1 1880   0.965   2.637   1.879 -0.9211 -3.9819 -0.8379
  627SOL    HW2 1881   1.019   2.791   1.940  0.6030 -0.0729 -0.2581
  628SOL     OW 1882   2.448   0.295   2.170 -0.6667  0.6207  0.1045
  628SOL    HW1 1883   2.525   0.288   2.104 -0.3220 -0.2144 -0.1698
  628SOL    HW2 1884   2.474   0.255   2.259  1.5036 -3.2727  0.6576
  629SOL     OW 1885   0.906   1.144   2.907  0.0971 -0.1042  0.0371
  629SOL    HW1 1886   0.976   1.070   2.899 -0.3752  0.2406 -0.4722
  629SOL    HW2 1887   0.843   1.146   2.824  0.6223 -0.7805 -1.1571
  630SOL     OW 1888   1.260   0.163   2.277  0.3025  0.2989  0.2432
  630SOL    HW1 1889   1.211   0.230   2.338 -0.2227 -4.5403  1.5648
  630SOL    HW2 1890   1.321   0.104   2.337  0.5038  0.6073 -0.0252
  631SOL     OW 1891   2.649   0.812   0.663 -0.4907 -0.0353 -0.4040
  631SOL    HW1 1892   2.665   0.746   0.738  0.2187 -0.3215 -1.3317
  631SOL    HW2 1893   2.738   0.834   0.614 -0.5998 -1.0402 -0.6258
  632SOL     OW 1894   2.093   0.952   1.165 -0.2219  0.5641 -0.9878
  632SOL    HW1 1895   2.046   0.865   1.192  1.0027  0.6785  2.8608
  632SOL    HW2 1896   2.186   0.943   1.207 -1.2911 -0.9633 -0.3854
  633SOL     OW 1897   1.587   0.687   0.929 -0.4033  0.5826 -0.3761
  633SOL    HW1 1898   1.633   0.727   0.851  0.9404 -1.0121  1.7657
  633SOL    HW2 1899   1.640   0.605   0.964  1.3318 -1.1784  0.6957
  634SOL     OW 1900   1.885   2.985   0.757  0.0193  0.4897  0.8913
  634SOL    HW1 1901   1.937   2.977   0.847  1.8129  0.1459  0.0156
  634SOL    HW2 1902   1.797   3.033   0.759 -1.1480 -2.2581 -1.2174
  635SOL     OW 1903   1.636   0.784   1.190 -0.1757  0.5857  0.6007
  635SOL    HW1 1904   1.611   0.771   1.091 -0.8467  1.9631  0.7777
  635SOL    HW2 1905   1.580   0.858   1.229  1.8703  0.2342  1.0705
  636SOL     OW 1906   0.573   0.636   0.678 -0.4711  0.2405  0.5977
  636SOL    HW1 1907   0.522   0.643   0.764 -2.4162  3.6592  0.6851
  636SOL    HW2 1908   0.625   0.543   0.676 -0.0671 -2.0927  0.4883
  637SOL     OW 1909   2.006   2.325   0.382  0.0601 -0.5991 -0.2227
  637SOL    HW1 1910   1.961   2.308   0.469  0.2869  2.2223 -0.6787
  637SOL    HW2 1911   2.086   2.387   0.396 -1.7357 -2.1486 -0.9115
  638SOL     OW 1912   1.590   2.765   2.776 -0.6061  0.2533 -0.3462
  638SOL    HW1 1913   1.595   2.844   2.837 -1.2747 -1.6494  0.2540
  638SOL    HW2 1914   1.662   2.768   2.700 -2.1296  1.5027 -0.0016
  639SOL     OW 1915   0.786   1.960   1.284  0.1718  0.2749 -0.4264
  639SOL    HW1 1916   0.767   2.025   1.358 -1.2041  0.1598  1.2004
  639SOL    HW2 1917   0.757   1.992   1.191 -0.2653 -1.6941  0.0841
  640SOL     OW 1918   0.244   2.736   0.301  0.2057 -0.2000  0.5456
  640SOL    HW1 1919   0.231   2.791   0.386 -1.3120 -0.9335 -0.7417
  640SOL    HW2 1920   0.267   2.638   0.323  0.8504 -0.9448  1.5048
  641SOL     OW 1921   3.097   0.273   0.090  0.4046 -0.2777  0.6356
  641SOL    HW1 1922   3.016   0.280   0.149  4.1894 -0.8547  1.5821
  641SOL    HW2 1923   0.030   0.183   0.086  0.5495  0.7994 -2.5880
  642SOL     OW 1924   2.986   0.922   1.183  1.0118 -0.0125  0.1163
  642SOL    HW1 1925   2.923   0.906   1.264 -2.3908 -1.3192  1.8980
  642SOL    HW2 1926   2.937   0.913   1.094 -0.8612 -2.2452 -1.4986
  643SOL     OW 1927   0.714   1.785   2.034 -0.3431  0.4666 -0.5712
  643SOL    HW1 1928   0.754   1.846   2.106 -0.6279 -0.8010  1.3857
  643SOL    HW2 1929   0.767   1.699   2.038  1.0366  0.0891  0.4817
  644SOL     OW 1930   1.704   2.682   0.463 -0.1945  0.7421 -0.6719
  644SOL    HW1 1931   1.678   2.585   0.454  0.3162  0.9009 -0.2987
  644SOL    HW2 1932   1.643   2.747   0.417  1.4085  1.0122 -0.8757
  645SOL     OW 1933   1.612   2.358   1.050 -0.0930 -0.1764 -0.6538
  645SOL    HW1 1934   1.660   2.423   1.110  1.0470 -1.3221  0.2216
  645SOL    HW2 1935   1.557   2.407   0.975 -2.4932 -0.8980  0.2130
  646SOL     OW 1936   1.241   2.744   0.245  0.4718  0.2061  0.3650
  646SOL    HW1 1937   1.202   2.695   0.325 -1.1747 -1.5009 -0.8386
  646SOL    HW2 1938   1.204   2.839   0.228 -1.0198 -0.3726  0.3914
  647SOL     OW 1939   0.431   3.046   1.894  0.4469 -0.6730  0.1457
  647SOL    HW1 1940   0.341   3.097   1.894 -1.2999 -0.7108  1.5284
  647SOL    HW2 1941   0.447   3.003   1.803  0.5383 -0.5223  1.3097
  648SOL     OW 1942   1.877   0.744   1.051 -0.3437 -0.6671 -0.1926
  648SOL    HW1 1943   1.800   0.727   1.118 -0.5505 -1.1404  2.0402
  648SOL    HW2 1944   1.884   0.845   1.026  0.5996  2.9715  1.5018
  649SOL     OW 1945   1.936   2.280   2.840 -0.0417 -0.1866  0.7339
  649SOL    HW1 1946   1.908   2.185   2.851 -0.0599  0.9965 -0.6826
  649SOL    HW2 1947   1.961   2.313   2.932  0.1937 -2.6269 -1.1941
  650SOL     OW 1948   2.561   1.838   1.772 -0.0959 -0.8071  0.0156
  650SOL    HW1 1949   2.636   1.799   1.824  1.6187 -1.7673 -0.4777
  650SOL    HW2 1950   2.479   1.842   1.826  0.1063  0.2997 -1.6479
  651SOL     OW 1951   1.569   2.015   2.891  0.3805 -0.0944 -0.3883
  651SOL    HW1 1952   1.632   1.947   2.932 -1.3559  0.9227  0.7033
  651SOL    HW2 1953   1.594   2.044   2.797  1.6375 -2.1166  1.3778
  652SOL     OW 1954   0.927   2.727   2.692  0.1169  0.4604  0.8787
  652SOL    HW1 1955   0.935   2.626   2.669 -2.2233  1.0793  0.0981
  652SOL    HW2 1956   0.989   2.749   2.766  0.1767 -0.8907 -1.1305
  653SOL     OW 1957   1.901   2.143   1.141 -0.0323 -0.3424 -0.8939
  653SOL    HW1 1958   1.892   2.234   1.103 -0.4339 -1.4188  1.7133
  653SOL    HW2 1959   1.858   2.068   1.087  2.5766  0.3927  1.0279
  654SOL     OW 1960   2.671   2.872   2.072  0.0398 -0.6698  0.1659
  654SOL    HW1 1961   2.727   2.818   2.138 -0.3828 -0.6112 -0.7141
  654SOL    HW2 1962   2.640   2.957   2.120 -1.4975 -1.1959 -0.5106
  655SOL     OW 1963   2.961   2.113   1.175  0.2402  0.3616  0.0365
  655SOL    HW1 1964   2.951   2.111   1.074  0.4674  2.8890  1.9363
  655SOL    HW2 1965   2.872   2.135   1.216  1.3773 -0.5637 -1.1843
  656SOL     OW 1966   0.193   2.461   2.715  0.8383 -0.8719  0.1315
  656SOL    HW1 1967   0.268   2.496   2.650  0.2108  0.5908 -1.7943
  656SOL    HW2 1968   0.220   2.390   2.783  0.9188  0.9939 -0.3287
  657SOL     OW 1969   2.893   0.816   0.546  0.0497  0.0304 -0.1527
  657SOL    HW1 1970   2.994   0.802   0.537  1.0005 -1.3838 -0.8386
  657SOL    HW2 1971   2.851   0.836   0.453 -0.6047  1.0914 -0.6892
  658SOL     OW 1972   1.464   1.739   0.989  0.0142 -0.1949 -0.0855
  658SOL    HW1 1973   1.401   1.697   1.057 -0.6922  1.7558  0.4273
  658SOL    HW2 1974   1.429   1.830   0.972  0.6682 -3.0129 -2.0575
  659SOL     OW 1975   1.560   0.292   1.233  0.2745 -0.2269 -0.4513
  659SOL    HW1 1976   1.641   0.248   1.274 -0.5826  1.7988  2.1753
  659SOL    HW2 1977   1.499   0.215   1.203  0.9867 -0.3259 -1.4752
  660SOL     OW 1978   1.809   1.234   0.420 -0.1132 -0.7912  0.1261
  660SOL    HW1 1979   1.843   1.143   0.450  1.1518  0.5066  0.4632
  660SOL    HW2 1980   1.711   1.250   0.444  0.8902 -2.7469  2.6108
  661SOL     OW 1981   0.407   1.526   0.305  0.1649  0.3790 -0.4162
  661SOL    HW1 1982   0.427   1.431   0.274  1.3904  0.3301 -1.1269
  661SOL    HW2 1983   0.307   1.544   0.325  1.8066  2.2665 -2.0833
  662SOL     OW 1984   2.855   1.120   2.271 -0.8961  0.0347  0.2545
  662SOL    HW1 1985   2.861   1.211   2.324  0.3787  1.8664 -0.8221
  662SOL    HW2 1986   2.787   1.135   2.195  1.4083  1.4800  2.0424
  663SOL     OW 1987   2.297   1.337   1.350  0.7171  0.1293 -0.5175
  663SOL    HW1 1988   2.355   1.422   1.341  1.6578  1.4864  2.2380
  663SOL    HW2 1989   2.276   1.308   1.446 -0.2939  1.1340  1.3772
  664SOL     OW 1990   0.593   0.082   1.053  0.0344 -0.8824  0.1858
  664SOL    HW1 1991   0.543   0.007   1.105 -2.2578 -1.3005  0.1790
  664SOL    HW2 1992   0.692   0.087   1.092  1.1391  0.6499  2.6670
  665SOL     OW 1993   1.313   3.024   2.765  0.4041  0.1805 -0.5673
  665SOL    HW1 1994   1.409   3.039   2.801  1.3824 -1.3804  1.5175
  665SOL    HW2 1995   1.260   2.960   2.823 -2.7621 -0.7989 -0.8203
  666SOL     OW 1996   0.533   0.517   2.315  0.7632  0.0961 -0.0749
  666SOL    HW1 1997   0.492   0.482   2.229 -1.1017  0.0033  1.2738
  666SOL    HW2 1998   0.458   0.541   2.380 -2.6076 -0.0487  1.3504
  667SOL     OW 1999   1.948   1.544   2.318 -0.1807 -0.0653  0.1357
  667SOL    HW1 2000   2.028   1.545   2.252  0.0026  0.3388 -3.2057
  667SOL    HW2 2001   1.935   1.458   2.365  0.0634  0.9511 -1.2400
  668SOL     OW 2002   0.094   1.546   2.686 -0.0803  0.4338 -0.3712
  668SOL    HW1 2003   0.050   1.472   2.737  0.3178 -1.0364  1.4253
  668SOL    HW2 2004   0.087   1.638   2.734 -0.8605 -0.5750 -1.2279
  669SOL     OW 2005   2.384   0.002   2.421  0.0470 -0.2403 -0.1026
  669SOL    HW1 2006   2.427   3.056   2.493 -1.0055  0.2037  0.2871
  669SOL    HW2 2007   2.432   0.094   2.436 -0.0265  0.2525 -0.5557
  670SOL     OW 2008   2.712   1.016   2.577 -0.2651  0.2059  0.1104
  670SOL    HW1 2009   2.763   0.943   2.523  3.3173 -2.8601 -3.1957
  670SOL    HW2 2010   2.662   0.974   2.655 -3.1174 -3.8695 -0.5693
  671SOL     OW 2011   2.616   1.997   3.105  0.0165  0.7569  0.1195
  671SOL    HW1 2012   2.612   2.038   0.078 -2.1240 -0.4881 -2.1629
  671SOL    HW2 2013   2.692   1.930   3.101 -1.6896  1.4714  2.5991
  672SOL     OW 2014   2.497   1.453   2.194  0.5090  0.0173  0.6214
  672SOL    HW1 2015   2.455   1.444   2.285  0.4257  0.2772  1.0505
  672SOL    HW2 2016   2.429   1.484   2.125  1.2117 -4.0225 -0.2310
  673SOL     OW 2017   2.877   1.559   0.992 -0.1259 -0.9587 -0.1871
  673SOL    HW1 2018   2.777   1.542   1.011  0.5794  2.1114  2.2103
  673SOL    HW2 2019   2.902   1.658   0.996 -0.6508 -0.5957 -1.5543
  674SOL     OW 2020   1.309   1.661   2.034  0.1244  0.1200  0.1246
  674SOL    HW1 2021   1.378   1.730   2.008 -3.8367 -1.4596 -0.3935
  674SOL    HW2 2022   1.286   1.613   1.951  0.9067  0.7648  1.1311
  675SOL     OW 2023   2.725   0.534   1.129  0.6950  0.4191  0.3713
  675SOL    HW1 2024   2.816   0.561   1.152 -1.4209 -0.8505 -1.1426
  675SOL    HW2 2025   2.718   0.441   1.099 -3.0054  2.3061  0.7915
  676SOL     OW 2026   2.825   1.225   0.561 -0.1761 -0.1798  0.3029
  676SOL    HW1 2027   2.726   1.236   0.589 -1.7605  0.1374  1.4262
  676SOL    HW2 2028   2.877   1.157   0.614 -1.8734  2.2131 -1.5107
  677SOL     OW 2029   1.736   1.524   2.136  0.4063  0.1936  0.0639
  677SOL    HW1 2030   1.819   1.546   2.194 -0.3585  2.3790  0.3203
  677SOL    HW2 2031   1.702   1.427   2.135 -1.3364  1.2150 -0.1381
  678SOL     OW 2032   2.499   1.346   1.020 -0.2733 -0.0636 -0.1608
  678SOL    HW1 2033   2.520   1.421   0.952 -0.4469  0.3036  2.6342
  678SOL    HW2 2034   2.413   1.357   1.075  0.0250 -0.3659 -0.7118
  679SOL     OW 2035   0.399   2.544   0.715 -0.1820 -0.5081  1.2292
  679SOL    HW1 2036   0.492   2.574   0.743 -1.9824  0.5563  0.2296
  679SOL    HW2 2037   0.363   2.475   0.774  0.5615  0.5868  0.5568
  680SOL     OW 2038   2.754   1.880   1.165  0.0270 -0.3787  0.2330
  680SOL    HW1 2039   2.852   1.893   1.133  0.5137  1.4071  0.6766
  680SOL    HW2 2040   2.711   1.970   1.183  1.3812 -0.7074 -1.3726
  681SOL     OW 2041   0.834   0.890   1.243 -0.6066  0.1183  0.3168
  681SOL    HW1 2042   0.914   0.883   1.307 -0.9939 -0.5950 -0.2341
  681SOL    HW2 2043   0.764   0.820   1.261  1.5747  0.5654 -1.3866
  682SOL     OW 2044   1.662   3.114   0.802 -0.2152 -0.2095 -0.6413
  682SOL    HW1 2045   1.619   3.060   0.880  1.1271 -1.8391  1.6195
  682SOL    HW2 2046   1.590   0.015   0.735  0.6439 -0.7902  1.5584
  683SOL     OW 2047   2.392   1.446   1.702  0.1078 -0.0689  0.3687
  683SOL    HW1 2048   2.368   1.523   1.642 -0.6951 -0.8106  2.2479
  683SOL    HW2 2049   2.493   1.431   1.695 -0.5912 -0.4599  0.1863
  684SOL     OW 2050   3.093   1.679   1.684  0.0837 -0.6423 -0.2889
  684SOL    HW1 2051   3.082   1.587   1.645 -1.3153  1.7661 -1.0849
  684SOL    HW2 2052   0.061   1.683   1.739  0.5963 -0.8203  2.6034
  685SOL     OW 2053   2.104   1.735   0.347  0.2427 -0.7226 -0.1195
  685SOL    HW1 2054   2.149   1.738   0.440  1.1590  0.5698  0.2576
  685SOL    HW2 2055   2.122   1.640   0.314  1.0227  1.5852  0.8583
  686SOL     OW 2056   2.719   0.224   0.742  0.3056 -0.5305  0.2302
  686SOL    HW1 2057   2.784   0.295   0.776  3.2280  0.5897 -0.9411
  686SOL    HW2 2058   2.680   0.250   0.652 -1.1348  1.9425 -1.5969
  687SOL     OW 2059   1.522   0.117   2.574  0.4446 -0.1123 -1.0228
  687SOL    HW1 2060   1.501   0.171   2.661 -1.0493  1.1502  2.1272
  687SOL    HW2 2061   1.603   0.052   2.584  3.1803 -1.1765 -2.5204
  688SOL     OW 2062   1.568   2.019   2.373 -0.1842 -0.0985 -0.3980
  688SOL    HW1 2063   1.628   1.936   2.392 -2.6147 -0.8142  1.6533
  688SOL    HW2 2064   1.515   2.017   2.284  0.9557 -2.5481 -1.2136
  689SOL     OW 2065   2.757   1.237   2.032 -0.1378  0.3056 -0.0196
  689SOL    HW1 2066   2.792   1.319   2.079  1.3876 -0.3189 -0.1556
  689SOL    HW2 2067   2.791   1.225   1.937  0.3308 -0.6175  2.9194
  690SOL     OW 2068   1.741   1.955   0.988  0.0460  0.3734  0.1494
  690SOL    HW1 2069   1.710   1.914   1.077 -0.4628 -0.0317 -1.5476
  690SOL    HW2 2070   1.803   1.888   0.940  2.1362 -1.1261  2.5717
  691SOL     OW 2071   0.373   1.337   0.874  0.4173 -0.1075  0.4656
  691SOL    HW1 2072   0.417   1.269   0.812 -0.5206  1.8603 -1.1001
  691SOL    HW2 2073   0.303   1.297   0.936 -2.2377  2.5876  1.1230
  692SOL     OW 2074   2.576   3.084   2.193 -0.1095  0.0392 -0.0090
  692SOL    HW1 2075   2.537   0.011   2.111  0.2894  0.2288  0.4516
  692SOL    HW2 2076   2.508   3.089   2.274 -0.6053 -0.7778  1.0957
  693SOL     OW 2077   0.034   1.473   2.426  0.2972 -0.8168  0.6601
  693SOL    HW1 2078   0.045   1.515   2.516 -2.7652 -1.6376  0.7858
  693SOL    HW2 2079   0.119   1.420   2.404  1.5275 -0.7448  1.8651
  694SOL     OW 2080   2.186   3.057   1.369 -0.4052  0.5026  0.1002
  694SOL    HW1 2081   2.217   2.987   1.431 -1.5373  3.1850  0.7031
  694SOL    HW2 2082   2.150   0.018   1.419  2.3624  0.5909 -0.5666
  695SOL     OW 2083   1.132   1.005   2.906  0.1246  0.0145 -0.5250
  695SOL    HW1 2084   1.142   1.009   3.009  2.0308  0.1385  1.1726
  695SOL    HW2 2085   1.128   0.907   2.879  0.4265  0.8315 -0.8385
  696SOL     OW 2086   1.833   0.224   1.927 -0.4017 -0.1509  0.3859
  696SOL    HW1 2087   1.869   0.321   1.921  1.1590 -1.6218 -1.2415
  696SOL    HW2 2088   1.790   0.198   1.835 -1.0134  2.7866 -1.5920
  697SOL     OW 2089   1.609   0.155   2.117 -0.6806  0.4023 -0.5104
  697SOL    HW1 2090   1.581   0.207   2.203 -1.2572 -1.4047 -0.2125
  697SOL    HW2 2091   1.701   0.180   2.080  1.5077  0.3151  3.0363
  698SOL     OW 2092   1.796   1.823   2.381  0.1445  0.0237  0.3631
  698SOL    HW1 2093   1.765   1.765   2.461  0.4306 -1.0628  1.9614
  698SOL    HW2 2094   1.888   1.790   2.342  1.9703 -0.0926 -2.4197
  699SOL     OW 2095   1.887   0.642   0.427 -0.5084  0.1553  0.1114
  699SOL    HW1 2096   1.874   0.668   0.326 -1.9136  0.6664 -0.5755
  699SOL    HW2 2097   1.795   0.620   0.475 -4.8444 -0.7145 -0.3398
  700SOL     OW 2098   1.459   3.073   0.043  0.1185  0.0077 -0.3901
  700SOL    HW1 2099   1.512   3.080   0.132  1.0032 -1.2627  2.2519
  700SOL    HW2 2100   1.358   3.052   0.052  1.8319  0.4187 -0.1084
  701SOL     OW 2101   3.103   0.482   1.211  0.5690 -0.3574 -0.1003
  701SOL    HW1 2102   3.106   0.552   1.136 -0.5672  2.4236 -1.7830
  701SOL    HW2 2103   3.072   0.395   1.170  1.4135  0.1503 -0.0021
  702SOL     OW 2104   1.844   0.001   1.521 -0.0659 -0.1647 -0.2116
  702SOL    HW1 2105   1.783   0.067   1.571  1.4652  0.8325 -0.3118
  702SOL    HW2 2106   1.801   3.025   1.519 -0.4194  0.4880 -0.2479
  703SOL     OW 2107   2.870   0.860   1.422 -0.4670 -0.3257  0.0906
  703SOL    HW1 2108   2.789   0.796   1.415  2.9173  0.0010 -0.5205
  703SOL    HW2 2109   2.837   0.961   1.427 -1.0190  3.0496 -1.6368
  704SOL     OW 2110   0.751   2.175   1.445 -0.3065  0.2212 -0.2467
  704SOL    HW1 2111   0.830   2.224   1.406 -1.6184  1.8998  1.9391
  704SOL    HW2 2112   0.679   2.244   1.469  1.1508 -1.1889 -1.3791
  705SOL     OW 2113   0.419   1.579   2.372  0.3236 -0.4911 -0.2411
  705SOL    HW1 2114   0.464   1.602   2.287 -1.6673  0.1072  2.5141
  705SOL    HW2 2115   0.404   1.669   2.422  1.2007  0.1122  0.6790
  706SOL     OW 2116   2.650   0.369   2.841 -0.7680  0.8087  0.0545
  706SOL    HW1 2117   2.562   0.344   2.800  3.5663  0.1562 -4.4195
  706SOL    HW2 2118   2.702   0.287   2.872  0.3999 -0.5706  2.4795
  707SOL     OW 2119   1.857   2.634   2.340  0.1741  0.0545 -0.1902
  707SOL    HW1 2120   1.928   2.703   2.315  0.1293 -0.6138 -3.6259
  707SOL    HW2 2121   1.766   2.660   2.300 -0.3389  0.3651  2.1089
  708SOL     OW 2122   0.466   2.349   1.741  0.1679  0.2393 -0.1577
  708SOL    HW1 2123   0.550   2.352   1.798 -1.0491 -2.0481 -0.8137
  708SOL    HW2 2124   0.383   2.383   1.786  1.0165 -1.8929 -1.4475
  709SOL     OW 2125   0.085   0.858   1.982 -0.4252 -0.2166  0.7392
  709SOL    HW1 2126   0.024   0.909   1.915 -5.4790 -0.8934 -1.4742
  709SOL    HW2 2127   0.034   0.770   2.001 -3.7612  1.5996 -0.6992
  710SOL     OW 2128   0.025   0.503   1.473  0.1881  0.1863  0.0675
  710SOL    HW1 2129   0.020   0.488   1.374  1.4043  2.5034  0.3504
  710SOL    HW2 2130   0.011   0.600   1.505  0.6117 -0.2902  2.5751
  711SOL     OW 2131   3.061   2.586   1.214  0.0229  0.7682  0.3815
  711SOL    HW1 2132   3.064   2.484   1.209  0.3691  0.5620 -0.0057
  711SOL    HW2 2133   0.000   2.621   1.138 -1.4128  0.7026  4.3396
  712SOL     OW 2134   0.312   0.108   2.433 -0.4913  0.1639 -0.4287
  712SOL    HW1 2135   0.303   0.031   2.500 -0.2078 -2.1877  0.7169
  712SOL    HW2 2136   0.296   0.199   2.476 -0.9048  2.4610  1.2181
  713SOL     OW 2137   2.301   0.263   0.342 -0.4765 -0.3202 -0.5474
  713SOL    HW1 2138   2.226   0.332   0.350 -1.3341  1.3899 -1.9454
  713SOL    HW2 2139   2.384   0.311   0.310 -2.2713 -1.1689 -0.5324
  714SOL     OW 2140   1.790   1.640   0.165  0.3007  0.0617  0.3288
  714SOL    HW1 2141   1.746   1.693   0.237  3.1708 -0.3186 -3.6641
  714SOL    HW2 2142   1.775   1.539   0.180  0.4010  0.9394  0.5928
  715SOL     OW 2143   3.080   0.305   0.626  0.1117 -0.0732 -0.5304
  715SOL    HW1 2144   3.093   0.201   0.603 -2.7141 -1.4447 -1.5798
  715SOL    HW2 2145   3.016   0.321   0.702  1.7913  0.1844 -1.8606
  716SOL     OW 2146   1.266   0.553   1.984  0.1037 -0.2755 -0.6365
  716SOL    HW1 2147   1.318   0.483   1.934 -0.7571  0.1680 -1.7675
  716SOL    HW2 2148   1.198   0.507   2.043  0.4319 -2.5737  0.6048
  717SOL     OW 2149   0.461   0.355   3.111 -0.5210  0.1706  0.2099
  717SOL    HW1 2150   0.390   0.426   0.008  4.9401 -2.0005  0.4900
  717SOL    HW2 2151   0.553   0.397   3.085  2.3926  1.4485 -1.1134
  718SOL     OW 2152   1.041   0.808   0.072 -0.4031 -0.1613 -0.2665
  718SOL    HW1 2153   1.056   0.909   0.080 -0.8723  3.6734 -0.0781
  718SOL    HW2 2154   1.125   0.767   0.029 -0.1960  0.6591  0.6112
  719SOL     OW 2155   2.644   2.531   2.651 -0.5115 -0.4980  0.0709
  719SOL    HW1 2156   2.715   2.471   2.610 -1.8395  1.2643 -0.4757
  719SOL    HW2 2157   2.558   2.479   2.673 -1.3318  0.5069 -0.9145
  720SOL     OW 2158   1.252   0.706   1.215  0.1962  0.5232 -0.2009
  720SOL    HW1 2159   1.233   0.681   1.311 -0.7777 -0.3334  0.7649
  720SOL    HW2 2160   1.288   0.627   1.159 -2.2176  2.2376 -1.5997
  721SOL     OW 2161   0.169   2.606   1.388  0.2358 -0.2689 -0.1309
  721SOL    HW1 2162   0.156   2.592   1.490 -1.1730 -0.7440  1.2609
  721SOL    HW2 2163   0.077   2.619   1.348 -1.2880 -0.1019  1.2119
  722SOL     OW 2164   0.882   1.572   2.934  0.0794  0.1075 -0.1347
  722SOL    HW1 2165   0.809   1.609   2.999 -1.4711 -1.5646  2.5572
  722SOL    HW2 2166   0.948   1.644   2.906  1.1346  0.2854 -3.0031
  723SOL     OW 2167   1.973   0.328   0.519 -0.6144 -0.3714 -0.1374
  723SOL    HW1 2168   2.065   0.338   0.555  0.3404  0.1131  1.5862
  723SOL    HW2 2169   1.908   0.376   0.582  1.0694  0.8962 -0.6286
  724SOL     OW 2170   0.656   2.258   3.102  0.4073 -0.0527 -0.0068
  724SOL    HW1 2171   0.716   2.198   0.039 -0.9221 -0.8484 -1.0501
  724SOL    HW2 2172   0.639   2.337   0.044 -0.2777 -1.9239 -0.0217
  725SOL     OW 2173   0.112   0.799   1.205  0.3268 -0.8212  0.1262
  725SOL    HW1 2174   0.030   0.855   1.201 -0.2452  0.2691 -1.4072
  725SOL    HW2 2175   0.158   0.813   1.293  0.1979  0.1734 -1.1324
  726SOL     OW 2176   2.529   0.655   0.449  0.4847  0.1979 -0.0384
  726SOL    HW1 2177   2.599   0.726   0.448 -1.9697  0.6764 -0.4613
  726SOL    HW2 2178   2.535   0.611   0.540 -0.3780 -1.6262  1.9598
  727SOL     OW 2179   1.891   1.337   2.606  0.2532 -0.4583  0.1684
  727SOL    HW1 2180   1.947   1.412   2.651  0.6067 -0.6554 -0.5893
  727SOL    HW2 2181   1.916   1.247   2.642  1.4189  0.7139  0.6184
  728SOL     OW 2182   1.846   2.845   1.400  0.1762  0.2030 -0.0666
  728SOL    HW1 2183   1.924   2.792   1.445  2.9193 -0.2597  0.7272
  728SOL    HW2 2184   1.749   2.820   1.427 -0.0470 -0.6329  1.6936
  729SOL     OW 2185   2.323   0.870   2.348  0.3330 -0.2295  0.2813
  729SOL    HW1 2186   2.358   0.817   2.426  1.3458 -0.8419 -0.9852
  729SOL    HW2 2187   2.293   0.964   2.381 -2.0367  1.4073 -0.2427
  730SOL     OW 2188   1.028   0.856   1.461 -0.3774  0.2094  0.0240
  730SOL    HW1 2189   1.099   0.929   1.457  2.0935  0.9954 -0.0605
  730SOL    HW2 2190   1.075   0.767   1.438 -0.5357 -1.3866 -1.7386
  731SOL     OW 2191   0.327   0.219   0.188 -0.2240 -0.3427 -0.3389
  731SOL    HW1 2192   0.302   0.293   0.255  2.6093 -1.2111 -2.2975
  731SOL    HW2 2193   0.394   0.255   0.115  1.3755  0.9897 -0.0483
  732SOL     OW 2194   0.317   0.450   0.338  0.3646  0.1259  0.5177
  732SOL    HW1 2195   0.394   0.514   0.340 -2.9151  0.0344 -4.3630
  732SOL    HW2 2196   0.288   0.428   0.436 -0.9659 -0.1589 -0.6764
  733SOL     OW 2197   1.664   1.692   2.609 -0.3838  0.5653 -0.1604
  733SOL    HW1 2198   1.665   1.589   2.594  0.5161  0.2404 -2.1147
  733SOL    HW2 2199   1.635   1.707   2.705  0.2861 -0.4302 -1.6220
  734SOL     OW 2200   0.029   2.044   2.656 -0.0320  0.3906 -0.2577
  734SOL    HW1 2201   0.096   2.046   2.579 -2.2204  1.1389 -0.4762
  734SOL    HW2 2202   0.043   1.956   2.709  0.2879 -1.3604  0.6652
  735SOL     OW 2203   1.919   0.465   1.248 -0.0355 -0.4039 -0.1574
  735SOL    HW1 2204   1.982   0.448   1.170  0.0713 -2.3217 -0.2541
  735SOL    HW2 2205   1.927   0.559   1.283  1.7408 -2.9647 -3.5545
  736SOL     OW 2206   1.759   1.840   3.077  0.1757  0.1458  0.1121
  736SOL    HW1 2207   1.775   1.782   0.041  1.7571 -1.1517  2.3636
  736SOL    HW2 2208   1.806   1.931   3.089  2.0477 -0.7224  1.7018
  737SOL     OW 2209   2.890   0.500   0.474 -0.7695  0.1182  0.2037
  737SOL    HW1 2210   2.880   0.602   0.459  3.6255  2.1908 -2.3145
  737SOL    HW2 2211   2.978   0.478   0.524  1.6705 -0.9256  2.1749
  738SOL     OW 2212   0.636   2.023   1.931 -0.0639  0.5281  0.5107
  738SOL    HW1 2213   0.558   2.018   1.865  0.3619 -1.3583 -5.0898
  738SOL    HW2 2214   0.667   1.930   1.969 -1.7630 -0.5126  1.4145
  739SOL     OW 2215   1.132   2.834   2.499  0.1766 -0.2110  0.0287
  739SOL    HW1 2216   1.055   2.795   2.556 -1.2580 -0.0930 -1.5517
  739SOL    HW2 2217   1.220   2.795   2.523 -1.3236  5.0368  0.2731
  740SOL     OW 2218   1.678   2.355   1.505 -0.3125 -0.4341  0.0527
  740SOL    HW1 2219   1.712   2.266   1.469  0.3132 -1.8213 -1.7358
  740SOL    HW2 2220   1.624   2.334   1.591 -0.2542  1.4719 -2.4102
  741SOL     OW 2221   2.293   0.692   0.297 -0.3290 -0.3999  0.4294
  741SOL    HW1 2222   2.370   0.691   0.361 -2.7468  1.7350 -1.3600
  741SOL    HW2 2223   2.231   0.765   0.331  0.7590  0.5275 -0.3060
  742SOL     OW 2224   0.919   2.607   0.160  0.1334 -0.3832 -0.5290
  742SOL    HW1 2225   0.959   2.560   0.080 -2.0136  2.7400  1.4382
  742SOL    HW2 2226   0.955   2.565   0.247 -0.6917 -0.0450 -0.9968
  743SOL     OW 2227   2.505   0.876   2.153  0.0049 -0.2004 -0.0835
  743SOL    HW1 2228   2.431   0.871   2.223 -0.0461 -0.0769  0.2764
  743SOL    HW2 2229   2.565   0.951   2.179 -1.0031  0.4567 -0.5804
  744SOL     OW 2230   2.470   0.457   0.634  0.3033  0.6459 -0.2236
  744SOL    HW1 2231   2.379   0.405   0.637 -0.8332 -0.2717  2.4261
  744SOL    HW2 2232   2.543   0.393   0.602 -0.2887  0.6683  2.6037
  745SOL     OW 2233   2.659   1.374   1.674  0.0029 -0.0037  0.6528
  745SOL    HW1 2234   2.676   1.275   1.679  0.7781  1.5677  0.4336
  745SOL    HW2 2235   2.718   1.424   1.740 -1.0906  0.6781  0.7185
  746SOL     OW 2236   1.440   1.287   0.711  0.5031  0.4489  0.1924
  746SOL    HW1 2237   1.481   1.378   0.725 -0.4077 -0.8626 -0.2366
  746SOL    HW2 2238   1.340   1.284   0.687 -0.4717  1.9375 -1.4971
  747SOL     OW 2239   1.450   1.603   1.702  0.5937  0.0233 -0.1576
  747SOL    HW1 2240   1.470   1.702   1.685 -1.3388 -1.6779  0.7710
  747SOL    HW2 2241   1.362   1.585   1.750 -3.1186  0.7493  1.1189
  748SOL     OW 2242   0.320   2.796   3.057  0.3222 -0.9034 -0.4773
  748SOL    HW1 2243   0.349   2.697   3.056  0.6869 -1.8318  3.0968
  748SOL    HW2 2244   0.362   2.842   0.022 -0.5214 -0.8092 -0.8188
  749SOL     OW 2245   0.359   1.182   2.577  0.3512  0.2472  0.4268
  749SOL    HW1 2246   0.448   1.157   2.535 -0.5269  3.1409 -2.2947
  749SOL    HW2 2247   0.319   1.257   2.520 -0.9227  0.3549 -1.1079
  750SOL     OW 2248   1.964   0.914   2.102 -0.3991 -0.0175  0.0965
  750SOL    HW1 2249   2.050   0.871   2.074  1.5266 -0.7248  0.0784
  750SOL    HW2 2250   1.884   0.852   2.089 -2.4509 -0.9430  2.5268
  751SOL     OW 2251   2.500   0.398   0.249  0.3119  0.0234 -0.4352
  751SOL    HW1 2252   2.547   0.367   0.165 -1.1956 -1.6537  2.2038
  751SOL    HW2 2253   2.533   0.485   0.288 -1.4557  0.5052  3.3910
  752SOL     OW 2254   0.307   2.349   0.872  0.5320  0.4628  0.0772
  752SOL    HW1 2255   0.236   2.276   0.861  2.3709 -0.6351 -0.4739
  752SOL    HW2 2256   0.320   2.356   0.971 -1.9999  2.6424 -1.3194
  753SOL     OW 2257   1.161   2.527   0.994 -0.5281 -0.1658  0.0837
  753SOL    HW1 2258   1.115   2.435   0.968  0.1650 -0.7857 -1.5317
  753SOL    HW2 2259   1.098   2.609   0.994  2.3834 -0.2843  3.8277
  754SOL     OW 2260   0.174   3.115   1.884  0.0149  0.6842  0.5378
  754SOL    HW1 2261   0.144   0.061   1.953  1.3491 -1.0093 -2.5839
  754SOL    HW2 2262   0.110   3.105   1.804 -0.0841 -0.4390  2.6793
  755SOL     OW 2263   2.086   0.826   0.477  0.0549 -0.1543 -0.1131
  755SOL    HW1 2264   2.025   0.751   0.436  0.3117 -1.6866 -1.9574
  755SOL    HW2 2265   2.116   0.796   0.571 -0.1185  0.3312  1.4296
  756SOL     OW 2266   2.150   2.339   2.655 -0.0855 -0.0995 -0.4406
  756SOL    HW1 2267   2.077   2.332   2.726 -0.0925  0.2766 -0.0923
  756SOL    HW2 2268   2.110   2.381   2.572 -3.4595 -2.6054 -1.0134
  757SOL     OW 2269   1.623   0.252   0.682  0.6894  0.2706  0.3530
  757SOL    HW1 2270   1.697   0.321   0.701 -2.8171 -1.9611  1.9316
  757SOL    HW2 2271   1.623   0.173   0.745  1.5837 -1.6214  0.2360
  758SOL     OW 2272   2.298   0.626   1.338 -0.0143  0.2115  0.5350
  758SOL    HW1 2273   2.339   0.585   1.421 -0.5461 -0.6843 -1.0780
  758SOL    HW2 2274   2.319   0.564   1.255 -0.9715  0.5730 -0.9539
  759SOL     OW 2275   2.385   0.491   1.087 -0.3236  0.5443  0.2531
  759SOL    HW1 2276   2.451   0.419   1.056  1.7107  1.8648  0.3405
  759SOL    HW2 2277   2.379   0.569   1.021  1.0373 -0.2737  0.1583
  760SOL     OW 2278   2.176   1.218   1.134  0.0166 -0.4677 -0.0559
  760SOL    HW1 2279   2.235   1.234   1.213 -0.2534 -0.3759 -3.5582
  760SOL    HW2 2280   2.126   1.137   1.158 -1.0442 -0.3308  1.3123
  761SOL     OW 2281   0.769   0.504   0.283  0.2980 -0.1156 -0.2870
  761SOL    HW1 2282   0.851   0.567   0.282  1.6416  0.9182 -0.1402
  761SOL    HW2 2283   0.690   0.546   0.341 -5.3701  1.7839  3.2568
  762SOL     OW 2284   1.027   1.960   0.954  0.3233  0.1118 -0.4498
  762SOL    HW1 2285   1.049   2.007   1.041 -2.5321 -2.4306  0.9587
  762SOL    HW2 2286   0.924   1.968   0.933 -0.0848  1.0641  1.7188
  763SOL     OW 2287   1.396   0.901   1.466 -0.3314 -0.0144 -0.5736
  763SOL    HW1 2288   1.423   0.923   1.564 -0.9952 -0.7872  2.5715
  763SOL    HW2 2289   1.449   0.956   1.398  0.2927  2.9278  0.5899
  764SOL     OW 2290   0.334   1.646   2.668 -0.2279  0.1971  0.0566
  764SOL    HW1 2291   0.242   1.603   2.655  1.9596 -0.2984  1.5333
  764SOL    HW2 2292   0.331   1.743   2.642 -0.5729 -0.2749 -0.3030
  765SOL     OW 2293   0.800   2.576   1.547 -0.3018  0.2944 -0.3508
  765SOL    HW1 2294   0.830   2.585   1.452 -1.1600  1.1954  0.8229
  765SOL    HW2 2295   0.831   2.664   1.595  1.7841  3.0514 -0.7132
  766SOL     OW 2296   2.821   2.401   2.495  0.5434  0.1725  0.6592
  766SOL    HW1 2297   2.883   2.341   2.549  0.5075  1.0828 -0.4509
  766SOL    HW2 2298   2.838   2.386   2.396  1.0539  2.1763 -0.2460
  767SOL     OW 2299   1.447   1.140   2.352 -0.0711 -0.0569 -0.6618
  767SOL    HW1 2300   1.447   1.160   2.250 -3.5121 -1.6657 -2.2127
  767SOL    HW2 2301   1.393   1.218   2.392  0.1361  3.3601 -0.5516
  768SOL     OW 2302   1.332   2.016   0.075 -0.1040  0.9088  0.0012
  768SOL    HW1 2303   1.353   1.934   0.020  1.4117 -0.5046 -0.0556
  768SOL    HW2 2304   1.390   2.096   0.041  1.3190 -1.4444 -2.9540
  769SOL     OW 2305   0.342   2.015   1.485 -0.5029 -0.3560  0.1000
  769SOL    HW1 2306   0.388   2.052   1.400  0.7724  1.5436  0.8669
  769SOL    HW2 2307   0.242   1.979   1.469 -2.0510 -1.2918  0.9918
  770SOL     OW 2308   1.609   0.946   2.769  0.0517  0.1328 -0.0744
  770SOL    HW1 2309   1.568   0.962   2.862 -0.6455 -2.1184  0.8172
  770SOL    HW2 2310   1.603   1.031   2.707 -0.7166  1.0538 -1.2564
  771SOL     OW 2311   0.105   2.988   2.133  0.2666  0.0465 -0.2233
  771SOL    HW1 2312   0.188   2.955   2.185 -2.6939 -3.3427  1.0133
  771SOL    HW2 2313   0.131   3.002   2.039 -0.3631 -0.3000  2.4208
  772SOL     OW 2314   2.290   2.066   1.676 -0.2094  0.1996  0.3326
  772SOL    HW1 2315   2.301   2.006   1.759  0.6010 -1.6727  0.1844
  772SOL    HW2 2316   2.186   2.089   1.670 -3.2938  2.7377 -0.6989
  773SOL     OW 2317   0.424   1.755   1.648  0.1855 -0.2458 -0.4364
  773SOL    HW1 2318   0.350   1.729   1.718  0.4135  1.6660  2.0421
  773SOL    HW2 2319   0.413   1.853   1.633 -2.4809  0.0628  2.3955
  774SOL     OW 2320   1.322   0.599   2.577  0.3676 -0.0948 -0.3733
  774SOL    HW1 2321   1.305   0.507   2.623  2.0730 -1.1719 -1.3380
  774SOL    HW2 2322   1.234   0.653   2.567 -2.3886  0.6809  2.2138
  775SOL     OW 2323   2.013   2.857   3.009 -0.1073 -0.0939 -0.2024
  775SOL    HW1 2324   1.936   2.921   2.997 -0.9953  1.3325 -1.6199
  775SOL    HW2 2325   2.071   2.845   2.926  0.5933  1.2565  1.9677
  776SOL     OW 2326   3.089   0.624   2.011  0.4735  0.1337 -0.0839
  776SOL    HW1 2327   3.034   0.591   2.097 -3.3589  0.2544  3.5202
  776SOL    HW2 2328   0.053   0.562   1.998  0.4781 -1.2448 -3.4330
  777SOL     OW 2329   2.417   1.977   2.143 -0.4539  0.4392 -0.0910
  777SOL    HW1 2330   2.437   1.919   2.223 -1.1111  0.0120  1.3636
  777SOL    HW2 2331   2.404   2.077   2.167 -0.6777 -1.6774  0.9487
  778SOL     OW 2332   2.022   1.191   2.098  0.4816  0.0126 -0.3281
  778SOL    HW1 2333   1.946   1.252   2.126 -0.1782 -0.1342 -0.7999
  778SOL    HW2 2334   2.000   1.091   2.104 -1.4329  0.3264  0.2143
  779SOL     OW 2335   2.551   1.065   0.270  0.2039  0.9271 -0.4516
  779SOL    HW1 2336   2.589   1.154   0.274 -3.9923 -2.9079  0.0789
  779SOL    HW2 2337   2.498   1.048   0.183  4.5854 -1.6879 -1.2331
  780SOL     OW 2338   2.366   0.502   2.943  0.0599 -0.2681  0.2606
  780SOL    HW1 2339   2.380   0.423   2.875 -1.4464 -1.8473 -1.4955
  780SOL    HW2 2340   2.313   0.473   3.023 -1.3211  2.1245  0.0607
  781SOL     OW 2341   0.068   1.908   1.549 -0.0996 -0.2554 -0.0347
  781SOL    HW1 2342   0.030   1.984   1.608 -0.1733  0.6635  0.6187
  781SOL    HW2 2343   0.042   1.817   1.588 -2.0142 -0.6590 -2.3234
  782SOL     OW 2344   2.486   2.553   3.019  0.0765 -0.3283  0.3839
  782SOL    HW1 2345   2.473   2.518   2.925 -1.9589  1.5289  1.4547
  782SOL    HW2 2346   2.509   2.471   3.080  1.0262 -1.7633  1.4584
  783SOL     OW 2347   0.524   1.357   1.421 -0.0746 -0.0311  0.4851
  783SOL    HW1 2348   0.618   1.325   1.428 -2.8131 -0.7298 -1.3117
  783SOL    HW2 2349   0.515   1.461   1.407  1.0103  1.1919 -2.6355
  784SOL     OW 2350   1.747   0.713   2.844  0.1497  0.3252  0.0183
  784SOL    HW1 2351   1.843   0.749   2.843  3.0658  3.4126  1.2049
  784SOL    HW2 2352   1.684   0.774   2.793 -0.3702 -2.1134 -1.8215
  785SOL     OW 2353   2.500   2.691   0.919  0.3013  0.0646 -0.1455
  785SOL    HW1 2354   2.523   2.593   0.912 -0.4393  1.7644 -0.2756
  785SOL    HW2 2355   2.399   2.703   0.904 -2.5471  0.5133 -2.0501
  786SOL     OW 2356   0.833   1.977   2.192  0.2763  0.1719 -0.5413
  786SOL    HW1 2357   0.852   2.021   2.103  1.6754 -1.5478 -0.1993
  786SOL    HW2 2358   0.893   2.014   2.268 -0.5396 -0.2842  3.7789
  787SOL     OW 2359   1.163   0.821   0.996  0.2007 -0.2990  0.1436
  787SOL    HW1 2360   1.182   0.787   1.088 -1.4264  0.3573  0.2297
  787SOL    HW2 2361   1.248   0.846   0.947  0.8593  0.0453  1.0184
  788SOL     OW 2362   0.054   0.830   0.508 -0.0875 -0.7889 -0.4790
  788SOL    HW1 2363   0.148   0.870   0.495  0.3148  1.1387  0.6965
  788SOL    HW2 2364   0.035   0.772   0.425  0.3288 -0.0693  1.4080
  789SOL     OW 2365   0.002   1.913   1.256  0.1023 -0.2940 -0.1441
  789SOL    HW1 2366   3.055   1.991   1.248  0.6313  1.7996 -2.2627
  789SOL    HW2 2367   0.028   1.900   1.356  1.0592  0.6230 -1.0753
  790SOL     OW 2368   1.181   0.820   2.150  0.0043 -0.1926  0.6244
  790SOL    HW1 2369   1.162   0.722   2.126 -1.3371 -0.2579 -0.4784
  790SOL    HW2 2370   1.220   0.839   2.241  0.8189  1.8226  0.0492
  791SOL     OW 2371   1.339   0.476   0.519 -0.4573 -0.3996  0.2636
  791SOL    HW1 2372   1.426   0.441   0.479  0.0018  1.2478  0.3417
  791SOL    HW2 2373   1.264   0.473   0.449 -0.8483 -1.2892  0.5701
  792SOL     OW 2374   1.601   2.792   1.800 -0.4546 -0.3646 -0.2916
  792SOL    HW1 2375   1.511   2.753   1.836  1.3926 -1.9009  2.0068
  792SOL    HW2 2376   1.630   2.736   1.719  2.1242 -0.8266 -1.2930
  793SOL     OW 2377   1.244   0.404   0.767 -0.1775 -0.4518  0.5466
  793SOL    HW1 2378   1.169   0.457   0.813  0.9933 -0.3946 -0.1200
  793SOL    HW2 2379   1.280   0.453   0.681 -1.0341  2.8456 -0.5476
  794SOL     OW 2380   0.622   0.945   2.058 -0.0049  0.0209  0.5085
  794SOL    HW1 2381   0.524   0.943   2.043  0.8045 -1.5963 -0.4010
  794SOL    HW2 2382   0.660   1.041   2.049  1.0726 -0.5958 -1.7022
  795SOL     OW 2383   0.204   2.104   2.468  0.5450  0.4088  0.3469
  795SOL    HW1 2384   0.294   2.130   2.513  0.2160  1.4779 -2.8449
  795SOL    HW2 2385   0.178   2.155   2.387  0.0563 -1.7979  3.6113
  796SOL     OW 2386   2.558   1.159   2.218  0.6369 -0.0799  0.6377
  796SOL    HW1 2387   2.587   1.209   2.302 -1.1860  0.4713 -0.0063
  796SOL    HW2 2388   2.597   1.201   2.129  1.0834  1.6871 -1.5027
  797SOL     OW 2389   2.914   2.744   2.975  0.4839  0.0974 -0.0707
  797SOL    HW1 2390   3.006   2.747   2.924  1.3693  0.1037 -0.8518
  797SOL    HW2 2391   2.838   2.773   2.913  1.1937 -0.0715  1.3458
  798SOL     OW 2392   0.109   2.296   2.278  0.1241  0.3245  0.3485
  798SOL    HW1 2393   0.119   2.396   2.269  0.9758 -3.8999  0.0948
  798SOL    HW2 2394   0.013   2.273   2.254 -0.8790 -1.5702 -0.9974
  799SOL     OW 2395   0.528   2.305   2.870  0.3390 -0.2771  0.3645
  799SOL    HW1 2396   0.568   2.279   2.959  1.9721 -2.1852  1.4376
  799SOL    HW2 2397   0.427   2.291   2.868  1.7970 -0.0903  2.2328
  800SOL     OW 2398   1.045   1.671   0.069 -0.1666  0.2595 -0.3280
  800SOL    HW1 2399   0.961   1.619   0.092  2.4466  3.4501 -2.2235
  800SOL    HW2 2400   1.100   1.706   0.150  1.4557 -0.6798  0.1587
  801SOL     OW 2401   1.766   1.352   1.411  0.2298  0.4862  0.6622
  801SOL    HW1 2402   1.810   1.262   1.382 -0.9890 -2.7579  0.3330
  801SOL    HW2 2403   1.712   1.348   1.497 -0.1338  0.1251 -0.3273
  802SOL     OW 2404   2.726   1.281   0.286  1.0459 -0.0194  0.1852
  802SOL    HW1 2405   2.773   1.259   0.373 -0.6851 -0.9787  0.9364
  802SOL    HW2 2406   2.761   1.218   0.212 -0.6555  0.0677  2.7656
  803SOL     OW 2407   1.012   1.911   2.689 -0.2549  0.3359  0.6755
  803SOL    HW1 2408   1.002   1.865   2.780 -1.5774  0.8122  3.0201
  803SOL    HW2 2409   1.042   1.844   2.617  0.0585 -1.5876  0.7738
  804SOL     OW 2410   1.741   1.363   0.181  0.2240  0.7480  0.5133
  804SOL    HW1 2411   1.768   1.311   0.264 -1.8338  0.1976 -0.1130
  804SOL    HW2 2412   1.809   1.338   0.107 -0.5872 -0.5299  0.1210
  805SOL     OW 2413   2.613   1.846   2.648 -0.1661  0.1586 -0.4585
  805SOL    HW1 2414   2.585   1.933   2.690 -0.0789 -0.9784 -1.6192
  805SOL    HW2 2415   2.710   1.829   2.674 -0.7410 -0.8170 -1.5919
  806SOL     OW 2416   0.329   3.083   0.515 -0.2989  0.4458  0.7067
  806SOL    HW1 2417   0.355   3.053   0.421 -1.1509 -0.1676  1.4853
  806SOL    HW2 2418   0.397   0.036   0.542  0.6708  2.9224 -2.1402
  807SOL     OW 2419   1.903   1.578   2.945  0.1630  0.3353 -0.4978
  807SOL    HW1 2420   1.883   1.638   3.029 -1.1952  1.0164 -0.7249
  807SOL    HW2 2421   1.843   1.495   2.954 -0.8333 -2.0393 -0.6261
  808SOL     OW 2422   3.077   1.657   0.597  0.3454  0.0173  0.2526
  808SOL    HW1 2423   3.063   1.571   0.644 -1.5070  1.5296  0.6149
  808SOL    HW2 2424   2.986   1.692   0.565 -0.8220  2.9781 -0.1850
  809SOL     OW 2425   2.395   1.030   0.049 -0.4799 -0.5090 -0.3688
  809SOL    HW1 2426   2.383   0.931   0.027  1.5062 -0.4114  1.7387
  809SOL    HW2 2427   2.306   1.066   0.079 -0.3526  0.0426 -1.2153
  810SOL     OW 2428   0.597   1.215   0.222 -0.2254  0.0619 -0.1328
  810SOL    HW1 2429   0.615   1.127   0.177  0.6109 -1.4404  0.3788
  810SOL    HW2 2430   0.497   1.243   0.203 -1.7102 -3.2210  1.5524
  811SOL     OW 2431   1.225   2.403   1.458 -0.5189 -0.1133  0.0438
  811SOL    HW1 2432   1.243   2.499   1.425 -0.4629  1.0658  0.0015
  811SOL    HW2 2433   1.296   2.333   1.425  2.9143  1.7370 -3.1190
  812SOL     OW 2434   0.947   2.488   1.782 -0.0306 -0.1141  0.0598
  812SOL    HW1 2435   0.911   2.500   1.687  0.4050 -0.1063 -0.6620
  812SOL    HW2 2436   1.040   2.445   1.776  2.7994  0.8638 -1.9284
  813SOL     OW 2437   1.395   0.070   1.983 -0.1714 -0.5979 -0.1239
  813SOL    HW1 2438   1.488   0.096   2.023  0.7285 -0.8688 -3.3920
  813SOL    HW2 2439   1.313   0.102   2.033 -1.8370 -0.7098 -0.6498
  814SOL     OW 2440   1.253   2.425   2.685 -0.1774  0.3128 -0.2938
  814SOL    HW1 2441   1.284   2.496   2.744 -2.5034 -0.8597 -0.6032
  814SOL    HW2 2442   1.282   2.446   2.594 -1.4299 -0.7232  4.1977
  815SOL     OW 2443   0.875   0.196   2.350  0.0914 -1.0027  0.1995
  815SOL    HW1 2444   0.918   0.138   2.279 -0.8943 -0.5496  0.4193
  815SOL    HW2 2445   0.778   0.211   2.318 -0.9550 -0.2895  0.3000
  816SOL     OW 2446   1.994   0.513   2.944  0.1649 -0.6834  0.0525
  816SOL    HW1 2447   2.038   0.605   2.943 -0.0895 -2.9136 -1.5688
  816SOL    HW2 2448   1.963   0.473   2.855  2.3220  0.4173  1.5182
  817SOL     OW 2449   2.195   0.347   2.305  0.5304  0.2671  0.4751
  817SOL    HW1 2450   2.283   0.319   2.265 -1.3742 -1.4852 -1.4466
  817SOL    HW2 2451   2.176   0.441   2.283  0.7884 -3.3208  1.0177
  818SOL     OW 2452   1.783   0.287   0.157  0.2346 -0.4147  0.1881
  818SOL    HW1 2453   1.798   0.375   0.105  0.6081 -0.3307 -1.5118
  818SOL    HW2 2454   1.849   0.226   0.113 -3.4352  2.5015 -1.2081
  819SOL     OW 2455   2.201   1.894   2.807 -0.1146 -0.1994 -0.0403
  819SOL    HW1 2456   2.105   1.933   2.793 -1.0146  1.0998 -4.4167
  819SOL    HW2 2457   2.234   1.918   2.902 -2.4735 -0.8933  1.4026
  820SOL     OW 2458   0.149   2.022   3.075 -0.6352  0.6309  0.2434
  820SOL    HW1 2459   0.087   2.092   3.041  0.3355  0.4417 -0.2393
  820SOL    HW2 2460   0.197   2.053   0.040  2.2204  2.9524  3.4600
  821SOL     OW 2461   0.367   3.000   0.851  0.2977 -0.6866 -0.0909
  821SOL    HW1 2462   0.427   2.995   0.771 -2.2822  0.0012  5.1481
  821SOL    HW2 2463   0.300   3.077   0.844 -1.4363 -3.9632  2.0903
  822SOL     OW 2464   2.898   2.845   0.145  0.1992 -0.5513  0.2742
  822SOL    HW1 2465   2.811   2.799   0.167  0.5296  0.9006 -0.3937
  822SOL    HW2 2466   2.934   2.815   0.051 -4.3423  0.8333 -1.2427
  823SOL     OW 2467   1.251   0.362   2.720 -0.3372  0.2538 -0.0167
  823SOL    HW1 2468   1.237   0.286   2.659  0.4752  0.4423  3.2725
  823SOL    HW2 2469   1.313   0.324   2.795 -0.5116 -1.6624  2.2088
  824SOL     OW 2470   2.661   2.060   2.035  0.1016  0.1587 -0.2243
  824SOL    HW1 2471   2.737   2.012   2.080 -0.0365 -2.8145  0.7311
  824SOL    HW2 2472   2.571   2.013   2.057 -1.2760  1.4890  0.3269
  825SOL     OW 2473   3.087   2.291   2.548  0.4592  0.3032 -0.2638
  825SOL    HW1 2474   3.091   2.213   2.615 -1.6022 -0.1953  1.8171
  825SOL    HW2 2475   0.041   2.277   2.477  2.0414 -1.9624 -2.9889
  826SOL     OW 2476   2.296   1.561   2.404 -0.4392 -0.9409  0.4325
  826SOL    HW1 2477   2.304   1.460   2.430 -2.1600  1.1026 -0.9086
  826SOL    HW2 2478   2.252   1.611   2.484 -0.6457  2.4455 -0.8960
  827SOL     OW 2479   2.300   2.338   1.334 -0.5270 -0.2648 -0.3800
  827SOL    HW1 2480   2.202   2.358   1.338  0.7908 -1.7427  1.8276
  827SOL    HW2 2481   2.368   2.405   1.372  0.7892 -0.3004  2.2931
  828SOL     OW 2482   0.290   0.058   1.348  1.0741  0.0298 -0.0504
  828SOL    HW1 2483   0.222   0.128   1.387 -2.9560  2.6214  2.5537
  828SOL    HW2 2484   0.373   0.066   1.406 -0.2457 -1.7493  2.7406
  829SOL     OW 2485   1.432   2.473   2.441 -0.8799  0.4584 -1.0000
  829SOL    HW1 2486   1.488   2.416   2.505  0.0738 -1.1004 -0.3800
  829SOL    HW2 2487   1.427   2.432   2.353  0.8171  1.0271 -0.6163
  830SOL     OW 2488   0.695   0.395   0.678  0.5131 -0.1327  0.0807
  830SOL    HW1 2489   0.647   0.336   0.742 -1.6558 -1.6022 -0.8405
  830SOL    HW2 2490   0.769   0.444   0.722  0.3508  0.8394 -0.6545
  831SOL     OW 2491   2.679   1.260   2.796  0.1604 -0.6738  0.1174
  831SOL    HW1 2492   2.760   1.241   2.740 -0.2538  2.5032 -0.8304
  831SOL    HW2 2493   2.624   1.335   2.755  0.4584 -0.5702  2.0603
  832SOL     OW 2494   1.506   1.848   1.995  0.0620 -0.0101  0.3998
  832SOL    HW1 2495   1.472   1.906   2.071  0.4422 -1.8020  0.8916
  832SOL    HW2 2496   1.510   1.900   1.904 -0.8615 -1.7076 -1.8000
  833SOL     OW 2497   0.610   0.225   2.269  0.0221 -0.7804 -0.0681
  833SOL    HW1 2498   0.555   0.303   2.310  0.8987  2.3059 -0.8941
  833SOL    HW2 2499   0.594   0.135   2.313 -1.8753  1.7666 -2.2619
  834SOL     OW 2500   0.646   1.016   1.592  0.2649  0.0983  0.0188
  834SOL    HW1 2501   0.581   0.984   1.511 -0.8607 -1.1278 -1.5161
  834SOL    HW2 2502   0.717   0.946   1.612 -2.4971 -1.0960 -0.9890
  835SOL     OW 2503   2.770   0.913   3.074 -0.0324  0.2920 -0.8849
  835SOL    HW1 2504   2.856   0.901   3.023 -1.9285 -1.4301  3.4334
  835SOL    HW2 2505   2.697   0.940   3.013  1.3251 -0.5412  0.3755
  836SOL     OW 2506   1.187   1.717   0.293 -0.1609 -0.2024  0.3970
  836SOL    HW1 2507   1.121   1.758   0.356  0.1877  0.0214 -0.6500
  836SOL    HW2 2508   1.284   1.755   0.308 -0.1486  4.1695 -1.0711
  837SOL     OW 2509   1.737   1.582   1.030  0.0395  0.4848 -0.4565
  837SOL    HW1 2510   1.818   1.607   1.085  3.2464  1.5980  0.4236
  837SOL    HW2 2511   1.664   1.647   1.058  1.6603 -1.9020 -2.7986
  838SOL     OW 2512   1.198   1.299   2.177 -0.1923  0.0872 -0.1247
  838SOL    HW1 2513   1.128   1.235   2.213 -0.7930 -1.3370 -0.4469
  838SOL    HW2 2514   1.255   1.338   2.252 -0.0359  0.5462  2.2985
  839SOL     OW 2515   0.810   2.048   2.589 -0.4973  0.5193  0.3623
  839SOL    HW1 2516   0.891   2.019   2.643  2.3924  0.0112  1.6118
  839SOL    HW2 2517   0.770   2.130   2.627  2.9095 -0.8401  0.7563
  840SOL     OW 2518   0.624   2.491   0.404 -0.0882  0.0011  0.5105
  840SOL    HW1 2519   0.693   2.560   0.438 -2.1967 -2.6548 -0.0064
  840SOL    HW2 2520   0.645   2.402   0.448 -1.5001 -0.1876 -0.3187
  841SOL     OW 2521   1.883   2.751   0.269  0.3764 -0.0701  0.0734
  841SOL    HW1 2522   1.832   2.725   0.352 -2.1494  2.2004  2.4189
  841SOL    HW2 2523   1.854   2.701   0.186 -0.6868 -0.7780 -2.1369
  842SOL     OW 2524   0.686   0.475   2.978  0.0615  0.7475 -0.5809
  842SOL    HW1 2525   0.704   0.415   2.902 -1.4523  3.1552  2.2743
  842SOL    HW2 2526   0.750   0.556   2.968  2.7118  2.1489 -1.2205
  843SOL     OW 2527   1.233   0.126   0.781 -0.3996 -0.1162  0.8485
  843SOL    HW1 2528   1.184   0.099   0.863  0.3417  0.4053 -1.9260
  843SOL    HW2 2529   1.241   0.231   0.770  0.9574  3.2173  1.5340
  844SOL     OW 2530   2.917   2.899   2.568  0.2675 -0.0508  0.3796
  844SOL    HW1 2531   2.930   2.853   2.480  2.9021 -2.1279 -1.1728
  844SOL    HW2 2532   2.867   2.841   2.636  1.2636  0.0515 -1.7921
  845SOL     OW 2533   2.822   2.346   0.955 -0.3475  0.2072  0.5876
  845SOL    HW1 2534   2.891   2.418   0.938 -2.6020  0.4248 -1.0858
  845SOL    HW2 2535   2.789   2.356   1.050  0.9799  1.2876  1.3145
  846SOL     OW 2536   2.909   1.716   2.464  0.0468  0.9600  0.1398
  846SOL    HW1 2537   2.873   1.653   2.537  3.0901  2.1403  1.3054
  846SOL    HW2 2538   2.917   1.664   2.379 -0.8554  1.4938  3.3699
  847SOL     OW 2539   1.253   0.639   1.481 -0.1763  0.3887 -0.1961
  847SOL    HW1 2540   1.306   0.718   1.515  0.9937 -0.0821  1.8723
  847SOL    HW2 2541   1.316   0.564   1.463  1.5434  1.4377  0.9523
  848SOL     OW 2542   2.516   3.057   3.096 -0.0159 -0.1693  0.1139
  848SOL    HW1 2543   2.437   3.024   0.031  0.7553  0.3025 -0.4252
  848SOL    HW2 2544   2.600   3.062   0.040 -0.3179 -0.9227  1.6044
  849SOL     OW 2545   0.684   2.866   2.872 -0.4019  0.0495 -0.6040
  849SOL    HW1 2546   0.713   2.894   2.968  0.9685 -1.0398  2.1452
  849SOL    HW2 2547   0.765   2.870   2.804  1.4576  2.4162 -2.5377
  850SOL     OW 2548   1.120   2.682   1.409  0.3161  0.5036  0.4620
  850SOL    HW1 2549   1.189   2.650   1.338  2.8446 -2.1237  1.2844
  850SOL    HW2 2550   1.026   2.660   1.380 -0.1348  0.5655 -0.9129
  851SOL     OW 2551   2.675   0.297   2.019  0.2722  0.1105 -0.0401
  851SOL    HW1 2552   2.690   0.379   2.076  3.5189 -1.8754 -0.8804
  851SOL    HW2 2553   2.756   0.274   1.963  0.2814  0.1514  0.3820
  852SOL     OW 2554   2.145   1.118   2.397  0.4292  0.4229  0.3874
  852SOL    HW1 2555   2.087   1.174   2.334 -3.8724  1.2670 -0.9003
  852SOL    HW2 2556   2.099   1.037   2.433 -1.0164  1.8515 -1.2284
  853SOL     OW 2557   2.750   3.096   0.618  0.1656  0.0928  0.7564
  853SOL    HW1 2558   2.727   0.079   0.637 -0.6819 -0.5196 -2.2041
  853SOL    HW2 2559   2.674   3.028   0.630 -0.0878 -0.1980  1.8373
  854SOL     OW 2560   2.314   1.198   2.093  0.3095  0.2131 -0.3980
  854SOL    HW1 2561   2.224   1.182   2.131  1.5625  0.0129  0.3441
  854SOL    HW2 2562   2.390   1.176   2.157 -0.7733  1.7436 -1.4633
  855SOL     OW 2563   1.026   2.412   0.309 -0.5722 -0.0136 -0.4298
  855SOL    HW1 2564   1.000   2.318   0.341  0.5739 -0.9142 -0.6945
  855SOL    HW2 2565   1.122   2.410   0.274 -3.3979  0.6533  3.3512
  856SOL     OW 2566   0.055   0.267   2.746  0.0013  0.2540 -0.5034
  856SOL    HW1 2567   0.071   0.168   2.763 -1.5724 -0.1695  2.6293
  856SOL    HW2 2568   0.029   0.314   2.835  0.4864  0.3689  2.0861
  857SOL     OW 2569   1.097   0.054   1.853 -0.0790 -0.0442 -0.2154
  857SOL    HW1 2570   1.103   0.144   1.801  0.9409 -0.2802  1.8523
  857SOL    HW2 2571   1.006   0.010   1.845  0.9723 -1.6270  0.9183
  858SOL     OW 2572   2.485   2.252   1.714  0.0557 -0.3851  0.1429
  858SOL    HW1 2573   2.568   2.210   1.670  1.5755  0.3488 -0.0425
  858SOL    HW2 2574   2.404   2.187   1.705 -4.2662  1.1217  0.6632
  859SOL     OW 2575   1.193   2.368   1.721 -0.2247 -0.2236 -0.5434
  859SOL    HW1 2576   1.193   2.270   1.740 -2.0514  2.1954 -1.5747
  859SOL    HW2 2577   1.195   2.395   1.621 -1.9391 -0.0135 -0.0261
  860SOL     OW 2578   2.388   2.723   0.109  0.0843  0.2030  0.7150
  860SOL    HW1 2579   2.400   2.656   0.028  1.3950 -1.0076 -2.8765
  860SOL    HW2 2580   2.297   2.762   0.109  1.7110  1.3361 -0.4346
  861SOL     OW 2581   2.257   2.798   0.829  0.3225  0.6275  0.8757
  861SOL    HW1 2582   2.263   2.842   0.734 -0.8282  0.6454 -1.6911
  861SOL    HW2 2583   2.256   2.869   0.899 -0.3276  1.0877  1.1518
  862SOL     OW 2584   1.802   3.107   2.460 -0.2265  0.1265  0.8419
  862SOL    HW1 2585   1.869   0.060   2.437 -0.9663 -0.6668  1.1717
  862SOL    HW2 2586   1.844   3.032   2.513 -1.2345 -2.3346  4.3113
  863SOL     OW 2587   0.037   0.807   0.822  0.2014  0.2661  0.7411
  863SOL    HW1 2588   0.054   0.903   0.855  3.1304 -0.3224  2.3038
  863SOL    HW2 2589   0.064   0.796   0.719  3.1054 -1.3401 -4.3818
  864SOL     OW 2590   0.326   2.897   2.238  0.8043 -0.1264  0.0760
  864SOL    HW1 2591   0.417   2.901   2.201 -2.5315 -1.5319  0.5881
  864SOL    HW2 2592   0.310   2.828   2.311 -2.2961  0.2682 -1.0021
  865SOL     OW 2593   0.513   1.310   2.805  0.2218 -0.3478 -0.3554
  865SOL    HW1 2594   0.521   1.248   2.885 -0.3298  2.3129 -1.3044
  865SOL    HW2 2595   0.432   1.286   2.749  2.0282 -1.7430  1.2339
  866SOL     OW 2596   3.000   0.836   2.958 -0.2292  0.3239 -0.1677
  866SOL    HW1 2597   2.974   0.805   2.867  2.8135  4.1076  1.0360
  866SOL    HW2 2598   3.049   0.758   3.008 -1.9390  0.7894  0.0680
  867SOL     OW 2599   2.923   0.004   2.720 -0.9845  0.9481  0.5777
  867SOL    HW1 2600   3.016   0.008   2.765  1.2792  0.6070 -0.5640
  867SOL    HW2 2601   2.926   3.040   2.656 -1.7167  1.5074  1.8551
  868SOL     OW 2602   1.109   3.078   0.566  0.3720 -0.6998 -0.6152
  868SOL    HW1 2603   1.123   0.028   0.638 -3.0350 -1.5788  0.9593
  868SOL    HW2 2604   1.134   2.984   0.586  0.9683  1.3092 -3.0189
  869SOL     OW 2605   1.486   1.543   0.754 -0.3507 -0.4929 -0.0190
  869SOL    HW1 2606   1.537   1.583   0.675  0.8689 -0.2776 -0.4964
  869SOL    HW2 2607   1.488   1.606   0.833  0.2824 -0.8819  1.5657
  870SOL     OW 2608   1.974   1.812   0.862 -0.4260  0.1654 -0.5747
  870SOL    HW1 2609   2.042   1.886   0.880  0.5328  1.0710 -0.6360
  870SOL    HW2 2610   2.024   1.726   0.836 -0.4242 -0.7712  0.1427
  871SOL     OW 2611   1.093   1.451   1.543 -0.5872  0.0977  0.6361
  871SOL    HW1 2612   1.116   1.445   1.445  1.5431 -2.2374 -2.6828
  871SOL    HW2 2613   0.997   1.480   1.545  1.1347 -2.5913 -0.7458
  872SOL     OW 2614   0.819   1.512   1.487  0.2250 -0.1393 -0.1403
  872SOL    HW1 2615   0.757   1.561   1.424  0.4523  2.3572 -1.2804
  872SOL    HW2 2616   0.800   1.410   1.493  0.6672 -0.7893 -0.3969
  873SOL     OW 2617   1.331   0.972   2.606 -0.5561 -0.0290  0.2826
  873SOL    HW1 2618   1.317   1.058   2.658 -1.5159 -2.7090  2.3401
  873SOL    HW2 2619   1.427   0.941   2.621  1.3333  1.6033 -2.9820
  874SOL     OW 2620   0.126   1.432   1.266 -0.3232  0.4768 -0.1804
  874SOL    HW1 2621   0.081   1.466   1.180  0.0359 -1.6752 -0.5325
  874SOL    HW2 2622   0.171   1.340   1.248  1.2614 -2.4508  1.9264
  875SOL     OW 2623   2.724   0.031   0.961  0.0543  0.0857  0.2916
  875SOL    HW1 2624   2.740   0.096   0.883  0.5302 -0.0944 -0.5940
  875SOL    HW2 2625   2.707   3.056   0.914 -1.2885 -2.1977 -3.2822
  876SOL     OW 2626   0.806   0.729   3.028 -1.1868  0.1750  0.3042
  876SOL    HW1 2627   0.903   0.730   3.042  1.0978 -0.1867  2.9855
  876SOL    HW2 2628   0.772   0.730   0.002  0.6096  0.6479 -3.2337
  877SOL     OW 2629   3.002   0.256   1.092 -0.0315 -0.2642  0.0952
  877SOL    HW1 2630   2.974   0.239   1.191 -0.8590  0.2778  2.1001
  877SOL    HW2 2631   3.079   0.198   1.064 -1.6337 -0.1440 -0.1685
  878SOL     OW 2632   1.667   2.215   0.136 -0.1150 -0.0203 -0.1694
  878SOL    HW1 2633   1.720   2.300   0.165 -1.6908 -0.2887 -1.2565
  878SOL    HW2 2634   1.728   2.144   0.110 -0.2963  1.4489  0.9057
  879SOL     OW 2635   2.273   1.773   1.395  0.0593 -0.1327  0.1220
  879SOL    HW1 2636   2.265   1.718   1.483 -0.6500  1.5047  0.4449
  879SOL    HW2 2637   2.323   1.863   1.409  2.9791  1.8405  0.7403
  880SOL     OW 2638   0.803   0.256   1.632 -0.2145 -0.5938  0.2686
  880SOL    HW1 2639   0.869   0.313   1.690  1.5251 -0.4912  1.3822
  880SOL    HW2 2640   0.704   0.265   1.665 -0.0336 -1.3457 -0.3805
  881SOL     OW 2641   1.050   1.987   0.022 -0.1201  0.1616 -0.7593
  881SOL    HW1 2642   1.150   2.007   0.030 -1.8189 -1.9978 -1.3802
  881SOL    HW2 2643   1.036   1.888   0.038 -0.2510 -0.5353 -0.5061
  882SOL     OW 2644   2.217   0.987   1.519 -0.5168 -0.2008  0.3541
  882SOL    HW1 2645   2.220   1.089   1.540  0.4264  1.4547 -0.1428
  882SOL    HW2 2646   2.282   0.963   1.443  0.2883  0.2948  0.5653
  883SOL     OW 2647   1.470   0.683   2.114 -0.4985  0.0953  0.2686
  883SOL    HW1 2648   1.427   0.759   2.170 -0.4149 -1.3133  0.2440
  883SOL    HW2 2649   1.402   0.638   2.057  0.1459 -1.3246 -0.5789
  884SOL     OW 2650   2.578   0.278   0.017  0.6538 -0.4591 -0.2424
  884SOL    HW1 2651   2.587   0.178   0.021  1.8478  2.7333 -2.7491
  884SOL    HW2 2652   2.527   0.309   3.050  1.5979  0.5446 -0.0432
  885SOL     OW 2653   0.217   2.025   0.566 -0.2356 -0.3668  0.3564
  885SOL    HW1 2654   0.238   1.976   0.482 -3.5011  0.7049 -1.6108
  885SOL    HW2 2655   0.115   2.041   0.572 -0.4462 -0.4368 -2.8554
  886SOL     OW 2656   1.657   1.392   2.921  0.8068  0.0050 -0.0118
  886SOL    HW1 2657   1.715   1.308   2.921 -2.1202 -1.4133 -0.4818
  886SOL    HW2 2658   1.564   1.371   2.954 -1.5710 -0.3022  0.2977
  887SOL     OW 2659   1.539   0.389   1.678 -0.5619 -0.4800 -0.0759
  887SOL    HW1 2660   1.627   0.442   1.666  1.3184  0.4683  1.7405
  887SOL    HW2 2661   1.477   0.404   1.601 -0.0032  0.2914  1.9929
  888SOL     OW 2662   2.979   1.151   1.610 -0.0294  0.1588  0.1146
  888SOL    HW1 2663   3.060   1.153   1.550  1.6763 -2.1868  0.8132
  888SOL    HW2 2664   2.895   1.129   1.558  0.4553  1.0342 -0.8107
  889SOL     OW 2665   0.119   2.573   0.982 -0.1322  0.1124  0.4093
  889SOL    HW1 2666   0.177   2.633   0.925 -0.7373 -1.5098  0.2634
  889SOL    HW2 2667   0.174   2.500   1.023  0.3733  2.2236 -3.5718
  890SOL     OW 2668   0.230   2.697   2.413  0.8611 -0.0874  0.5328
  890SOL    HW1 2669   0.289   2.622   2.455  0.6872  0.8003  3.1863
  890SOL    HW2 2670   0.175   2.750   2.481 -0.0550  0.7648  1.0090
  891SOL     OW 2671   0.472   1.790   0.222  0.1088  0.3617  0.0489
  891SOL    HW1 2672   0.543   1.846   0.270  1.8099 -0.1051 -2.5672
  891SOL    HW2 2673   0.473   1.696   0.260  1.6553  1.1233  0.9490
  892SOL     OW 2674   0.028   2.318   1.256 -0.1262  0.2440  0.1720
  892SOL    HW1 2675   3.100   2.324   1.345  0.8173 -0.7004 -1.3584
  892SOL    HW2 2676   3.092   2.257   1.193 -1.6950 -0.9743  2.1206
  893SOL     OW 2677   0.493   0.086   1.504 -0.5782  0.0314 -0.2025
  893SOL    HW1 2678   0.568   0.022   1.524 -2.4474  1.8673 -2.3406
  893SOL    HW2 2679   0.498   0.156   1.582  0.5059  0.5145 -0.3593
  894SOL     OW 2680   2.612   1.538   0.828 -0.6225 -0.5092 -0.1266
  894SOL    HW1 2681   2.638   1.632   0.861 -4.9110 -1.5173 -0.9273
  894SOL    HW2 2682   2.529   1.548   0.768  1.1476  1.4739  2.1826
  895SOL     OW 2683   2.461   2.486   1.488 -0.0621 -0.5038 -0.0203
  895SOL    HW1 2684   2.426   2.450   1.575  1.1876 -1.5930 -0.5219
  895SOL    HW2 2685   2.553   2.453   1.465 -2.8261 -1.0750 -0.6940
  896SOL     OW 2686   0.907   0.136   1.424 -0.2425 -0.4047  0.4579
  896SOL    HW1 2687   0.974   0.208   1.414  1.5698 -0.7598  1.4044
  896SOL    HW2 2688   0.870   0.141   1.523  1.2047 -1.1735  3.4528
  897SOL     OW 2689   0.934   1.606   1.117  0.0941 -0.2119 -0.2198
  897SOL    HW1 2690   0.854   1.607   1.184 -0.9451 -1.1466 -2.0475
  897SOL    HW2 2691   0.935   1.684   1.050  0.0765 -0.8340 -2.2941
  898SOL     OW 2692   1.783   2.598   1.625  0.4496  0.0345  0.1947
  898SOL    HW1 2693   1.785   2.495   1.622  0.6953 -1.1722  1.1703
  898SOL    HW2 2694   1.879   2.635   1.606 -0.7425 -2.3520 -0.6620
  899SOL     OW 2695   1.102   0.231   2.998  0.2368  0.0123 -0.0384
  899SOL    HW1 2696   1.062   0.309   2.945 -2.2244  2.6144 -0.9977
  899SOL    HW2 2697   1.036   0.155   2.997 -0.9387  1.4497  1.1497
  900SOL     OW 2698   1.277   2.463   1.964 -0.0156  0.0983  0.1141
  900SOL    HW1 2699   1.205   2.426   2.023  0.7378 -0.4572  0.1395
  900SOL    HW2 2700   1.257   2.432   1.864  0.2055  1.4372 -4.2577
  901SOL     OW 2701   0.818   2.102   0.128  0.3934  0.0937 -0.1747
  901SOL    HW1 2702   0.838   2.159   0.206 -0.0051 -0.3742  1.0193
  901SOL    HW2 2703   0.905   2.078   0.076  1.2475  2.6163 -2.5423
  902SOL     OW 2704   1.517   1.135   0.916 -0.1302 -0.3760 -0.1645
  902SOL    HW1 2705   1.446   1.175   0.979 -0.8706 -1.3340  1.7193
  902SOL    HW2 2706   1.509   1.172   0.820 -0.3070 -0.0073 -1.2341
  903SOL     OW 2707   2.549   1.053   2.947 -0.0474  0.1025  0.3891
  903SOL    HW1 2708   2.591   1.141   2.910  0.2520 -0.8361  0.0580
  903SOL    HW2 2709   2.494   1.074   3.028  3.0475 -0.4377 -1.8191
  904SOL     OW 2710   0.915   1.248   0.172 -0.2588  0.8454  0.4940
  904SOL    HW1 2711   0.920   1.306   0.089 -0.2997 -1.2204 -0.1445
  904SOL    HW2 2712   0.949   1.295   0.257  2.1508 -0.7487 -0.4773
  905SOL     OW 2713   1.819   3.063   1.231 -0.0691 -0.2562  0.1960
  905SOL    HW1 2714   1.821   0.039   1.274 -1.4093  2.2473 -2.4819
  905SOL    HW2 2715   1.818   2.989   1.300  1.7354 -0.6998  1.4947
  906SOL     OW 2716   2.628   2.681   1.175 -0.2310  0.7606  0.8900
  906SOL    HW1 2717   2.571   2.741   1.240 -0.2028 -1.2712  0.6449
  906SOL    HW2 2718   2.599   2.707   1.078 -1.6494 -0.7655  0.5820
  907SOL     OW 2719   1.204   0.989   0.380 -0.4071 -0.5752  0.3122
  907SOL    HW1 2720   1.237   0.957   0.470 -0.0952 -0.6970  0.1433
  907SOL    HW2 2721   1.136   1.057   0.394  2.5324 -0.7685 -1.3687
  908SOL     OW 2722   1.601   3.040   1.065 -0.2709 -0.0880 -0.4026
  908SOL    HW1 2723   1.526   3.112   1.068 -1.5245 -1.6642  0.9464
  908SOL    HW2 2724   1.673   3.064   1.138  0.0146  1.6387  1.2920
  909SOL     OW 2725   2.323   0.904   1.292 -0.7647  0.4544 -0.2575
  909SOL    HW1 2726   2.373   0.923   1.203  0.0740 -1.9245 -0.4285
  909SOL    HW2 2727   2.313   0.804   1.312 -0.1887 -2.6953  1.7283
  910SOL     OW 2728   2.182   0.795   2.005  0.0511 -0.2226 -0.3175
  910SOL    HW1 2729   2.156   0.807   1.908  0.2056 -0.2744 -0.6872
  910SOL    HW2 2730   2.285   0.790   2.005 -1.2421 -0.1940  0.8140
  911SOL     OW 2731   2.238   0.668   2.726 -0.0985  0.1247 -0.1722
  911SOL    HW1 2732   2.308   0.683   2.651 -0.9641 -1.0531 -2.6964
  911SOL    HW2 2733   2.270   0.636   2.815 -3.3283 -0.5683  0.0376
  912SOL     OW 2734   0.407   1.050   1.764  0.2323 -0.2871  0.3672
  912SOL    HW1 2735   0.500   1.063   1.725  1.3533 -0.4864  0.3298
  912SOL    HW2 2736   0.344   1.105   1.703 -1.2475  1.0184 -0.2918
  913SOL     OW 2737   3.017   2.322   1.579 -0.4685  0.6205 -0.1418
  913SOL    HW1 2738   3.040   2.259   1.656  1.5315 -2.3734 -0.9381
  913SOL    HW2 2739   2.951   2.396   1.606  0.7790 -1.0849 -1.4050
  914SOL     OW 2740   1.677   0.763   1.800  0.3813  0.1863  0.2400
  914SOL    HW1 2741   1.711   0.833   1.734  0.7485  2.1156  0.3859
  914SOL    HW2 2742   1.694   0.671   1.764  0.7680 -0.0925 -0.0168
  915SOL     OW 2743   2.464   0.965   1.077 -0.1744  0.1306 -0.3183
  915SOL    HW1 2744   2.442   0.950   0.980  0.2648  0.9343  2.0930
  915SOL    HW2 2745   2.519   1.048   1.082 -2.0279 -1.4556 -3.9456
  916SOL     OW 2746   1.722   2.193   0.859  0.7636  0.1106  0.9106
  916SOL    HW1 2747   1.672   2.243   0.932 -1.3836 -0.2730 -2.6792
  916SOL    HW2 2748   1.738   2.094   0.881  1.3150 -2.4265  1.4417
  917SOL     OW 2749   2.019   2.117   2.223  0.1843 -0.5318 -0.0563
  917SOL    HW1 2750   1.937   2.150   2.276 -2.2002 -1.7358 -3.2789
  917SOL    HW2 2751   2.025   2.143   2.129  0.1323 -1.3398  4.8603
  918SOL     OW 2752   1.958   2.417   2.452 -0.2017 -0.1896 -0.2070
  918SOL    HW1 2753   1.924   2.488   2.393 -1.5472 -1.0352 -0.3893
  918SOL    HW2 2754   1.894   2.336   2.443  0.6262  0.2845 -0.2969
  919SOL     OW 2755   1.264   0.146   1.509 -0.1078  0.3084 -0.0700
  919SOL    HW1 2756   1.295   0.049   1.525 -1.3210  0.4861 -0.0604
  919SOL    HW2 2757   1.226   0.187   1.594  0.4535 -2.4827  3.1298
  920SOL     OW 2758   2.984   0.363   2.567  0.6837 -0.4728  0.6884
  920SOL    HW1 2759   3.052   0.328   2.636  3.9809  0.8255  1.3971
  920SOL    HW2 2760   2.983   0.309   2.477 -0.6261  1.5353 -0.5701
  921SOL     OW 2761   3.031   1.009   1.831 -0.3677 -0.1442 -0.4074
  921SOL    HW1 2762   3.010   1.068   1.754  1.8470 -0.4564  1.6859
  921SOL    HW2 2763   2.956   0.946   1.854  0.6426 -1.9966 -1.2113
  922SOL     OW 2764   2.270   2.449   0.463 -0.4357  0.4750  0.2087
  922SOL    HW1 2765   2.214   2.532   0.499 -0.7641  0.6216  0.2510
  922SOL    HW2 2766   2.302   2.469   0.367 -1.6467  2.8400  0.3216
  923SOL     OW 2767   0.629   2.185   0.476  0.0751 -0.0475 -0.7568
  923SOL    HW1 2768   0.705   2.174   0.540 -0.8729  1.6519 -3.9234
  923SOL    HW2 2769   0.546   2.210   0.530 -1.4072 -0.0972  0.0931
  924SOL     OW 2770   1.122   1.050   0.066 -0.1990  0.6109 -0.5643
  924SOL    HW1 2771   1.082   1.136   0.107  0.1692  1.1251  0.4585
  924SOL    HW2 2772   1.206   1.021   0.120 -2.2003 -0.5925  2.0826
  925SOL     OW 2773   2.630   0.706   0.934 -0.2360  0.1455  0.1154
  925SOL    HW1 2774   2.653   0.637   1.002 -0.0647 -1.6682  1.2106
  925SOL    HW2 2775   2.539   0.689   0.895 -3.3518  0.2029 -1.1999
  926SOL     OW 2776   0.527   0.349   1.369  0.1439  0.2788  0.7769
  926SOL    HW1 2777   0.522   0.249   1.390  2.7211  0.6043 -0.5069
  926SOL    HW2 2778   0.446   0.369   1.309 -1.1571  2.7981  0.8707
  927SOL     OW 2779   0.741   1.359   2.473  0.2665  0.2575  0.4422
  927SOL    HW1 2780   0.731   1.390   2.570 -2.2835  1.1422 -0.9016
  927SOL    HW2 2781   0.677   1.285   2.467  0.2353  1.2492  0.8100
  928SOL     OW 2782   0.142   0.605   2.597 -0.3655 -0.2952  0.0221
  928SOL    HW1 2783   0.048   0.628   2.564  0.3773  0.3537  0.6703
  928SOL    HW2 2784   0.171   0.510   2.577  1.7378  0.9796 -0.0405
  929SOL     OW 2785   2.791   3.062   1.231 -0.2014  0.2014  0.0643
  929SOL    HW1 2786   2.829   2.970   1.233 -0.1908  1.4697  0.9909
  929SOL    HW2 2787   2.779   3.091   1.133 -1.2139 -2.3981 -0.7024
  930SOL     OW 2788   2.047   0.611   1.608  0.2546  0.0954 -0.2692
  930SOL    HW1 2789   2.133   0.567   1.635 -2.3595 -1.9111 -0.3033
  930SOL    HW2 2790   2.045   0.703   1.648 -1.8269  0.4652  1.6497
  931SOL     OW 2791   1.922   0.939   3.072 -0.9236  0.0433  0.1923
  931SOL    HW1 2792   1.875   1.022   3.032  1.3125  1.1455  0.8705
  931SOL    HW2 2793   1.979   0.971   0.033 -0.7315 -0.3478  1.8743
  932SOL     OW 2794   2.069   1.309   0.438  1.0362 -0.6099 -0.0583
  932SOL    HW1 2795   2.104   1.222   0.415 -0.8479  1.2052 -1.2204
  932SOL    HW2 2796   1.969   1.295   0.450 -2.5718 -0.8758 -1.2907
  933SOL     OW 2797   2.217   1.504   1.068 -0.3311 -0.2838  0.3407
  933SOL    HW1 2798   2.283   1.551   1.126 -1.4128  0.4112 -2.2968
  933SOL    HW2 2799   2.221   1.406   1.090 -2.0024  3.2853  0.2834
  934SOL     OW 2800   1.948   1.060   2.719 -0.3392 -0.2189 -0.5098
  934SOL    HW1 2801   2.035   1.105   2.741  0.7831 -1.6813  0.3808
  934SOL    HW2 2802   1.961   0.959   2.732 -0.5928  1.6528  0.1943
  935SOL     OW 2803   0.278   1.071   0.684 -0.1410  0.9374 -0.4636
  935SOL    HW1 2804   0.280   1.000   0.605 -0.7181 -2.4871 -5.1760
  935SOL    HW2 2805   0.199   1.133   0.668  0.6874  1.0108 -1.6416
  936SOL     OW 2806   0.620   0.161   0.804 -0.3666 -0.0056  0.4240
  936SOL    HW1 2807   0.615   0.123   0.900  1.0409  2.5913 -0.6842
  936SOL    HW2 2808   0.557   0.104   0.741 -2.6771  0.0228  0.9413
  937SOL     OW 2809   2.921   0.024   1.739  0.2205  1.0870 -0.2218
  937SOL    HW1 2810   3.012   0.013   1.699 -0.7493  1.4637 -2.4814
  937SOL    HW2 2811   2.906   3.072   1.813  1.4962 -0.2775 -0.3760
  938SOL     OW 2812   3.093   2.514   3.004  0.0100  0.4276 -0.3652
  938SOL    HW1 2813   2.995   2.497   3.001 -2.2410 -0.1838 -1.1339
  938SOL    HW2 2814   0.003   2.557   3.090  1.2344  0.6885 -0.8216
  939SOL     OW 2815   1.130   1.438   1.257 -0.6065  0.1955 -0.1789
  939SOL    HW1 2816   1.068   1.354   1.251 -0.9176  0.1508 -2.6798
  939SOL    HW2 2817   1.086   1.519   1.212  1.3020 -0.0374  0.1591
  940SOL     OW 2818   0.017   0.617   3.068  0.4224  0.0624 -0.6128
  940SOL    HW1 2819   0.011   0.540   3.000  0.5203 -0.3674 -1.3741
  940SOL    HW2 2820   0.022   0.570   0.045 -0.7114 -0.2193  1.2243
  941SOL     OW 2821   2.200   0.330   2.580  0.6875 -0.0378  0.0790
  941SOL    HW1 2822   2.190   0.339   2.477  1.9892 -0.8193 -0.2251
  941SOL    HW2 2823   2.116   0.332   2.633 -0.6159 -0.2311  0.0775
  942SOL     OW 2824   1.434   0.299   0.926  0.7736  0.2816 -0.2110
  942SOL    HW1 2825   1.360   0.340   0.865 -1.9899  2.4645 -1.3573
  942SOL    HW2 2826   1.523   0.317   0.884 -0.5583 -2.4864  4.1598
  943SOL     OW 2827   1.216   0.950   1.896 -0.1113 -0.4342  0.2529
  943SOL    HW1 2828   1.227   0.896   1.978  1.9861 -1.3080 -0.5472
  943SOL    HW2 2829   1.122   0.984   1.892  0.7492  1.2923 -0.4825
  944SOL     OW 2830   1.967   0.933   1.445 -0.2921  0.0150  0.0662
  944SOL    HW1 2831   1.952   0.840   1.403  0.2084 -0.6399  2.2651
  944SOL    HW2 2832   2.063   0.949   1.473  1.0136 -0.9395  0.5899
  945SOL     OW 2833   2.819   0.157   2.916  0.0084  0.3320 -0.2433
  945SOL    HW1 2834   2.845   0.087   2.842  1.5558 -0.1134 -1.3976
  945SOL    HW2 2835   2.847   0.122   3.009 -0.1871  2.4332  1.7422
  946SOL     OW 2836   2.907   1.368   1.839  0.1055 -0.0190 -0.4289
  946SOL    HW1 2837   2.933   1.322   1.754  0.8472  1.7798 -0.0219
  946SOL    HW2 2838   2.991   1.380   1.892 -3.2964 -1.5196  0.7764
  947SOL     OW 2839   1.183   2.982   0.127  0.5084  0.4058 -0.6596
  947SOL    HW1 2840   1.095   2.945   0.094 -0.3826 -1.8827 -0.1453
  947SOL    HW2 2841   1.178   3.058   0.189  1.3107 -2.5096 -0.1180
  948SOL     OW 2842   2.396   1.587   1.243  0.1035  0.4111  0.1199
  948SOL    HW1 2843   2.369   1.670   1.296  1.1926 -0.4741 -0.0501
  948SOL    HW2 2844   2.495   1.577   1.224 -1.5965 -2.0523 -0.1277
  949SOL     OW 2845   0.215   1.355   3.091 -0.1179 -0.0222  0.3486
  949SOL    HW1 2846   0.154   1.292   3.034 -0.2533 -0.3285 -0.9490
  949SOL    HW2 2847   0.253   1.432   3.039 -2.6508 -0.1633  0.9766
  950SOL     OW 2848   0.774   2.402   1.018 -0.1859  0.2297 -0.2374
  950SOL    HW1 2849   0.716   2.435   1.096 -1.6139  1.1851 -1.5814
  950SOL    HW2 2850   0.737   2.442   0.929 -1.9006  0.4116 -2.4161
  951SOL     OW 2851   0.741   1.439   2.725  0.5527  0.1380  0.3914
  951SOL    HW1 2852   0.802   1.488   2.789 -2.2815 -1.7572 -0.1778
  951SOL    HW2 2853   0.660   1.406   2.785 -2.5956 -1.8406  0.7119
  952SOL     OW 2854   0.560   0.872   0.547 -0.2095 -0.4952 -0.2544
  952SOL    HW1 2855   0.572   0.799   0.620 -2.8885 -1.0321  0.1893
  952SOL    HW2 2856   0.561   0.968   0.589 -2.7174  0.5629 -0.3416
  953SOL     OW 2857   2.556   3.027   2.615 -0.1896  0.0778 -0.2322
  953SOL    HW1 2858   2.576   2.939   2.568  1.0735  0.6620 -1.1980
  953SOL    HW2 2859   2.626   3.094   2.587  2.6874  2.4174 -0.2401
  954SOL     OW 2860   1.729   0.860   0.751  0.0327 -0.4139  0.1691
  954SOL    HW1 2861   1.766   0.925   0.818 -0.5859 -0.5374 -3.3487
  954SOL    HW2 2862   1.758   0.880   0.656  2.1650  0.1996  1.5179
  955SOL     OW 2863   0.656   1.950   0.334 -0.2880 -0.0715 -0.1889
  955SOL    HW1 2864   0.716   1.974   0.256 -1.9582 -0.7393  0.8172
  955SOL    HW2 2865   0.631   2.033   0.391 -1.6573  1.7426  2.7044
  956SOL     OW 2866   2.357   0.490   2.001  0.0007 -0.0841  0.5528
  956SOL    HW1 2867   2.258   0.484   2.013 -1.6386  1.9407  1.9450
  956SOL    HW2 2868   2.398   0.421   2.065 -0.4269  0.1022  0.0943
  957SOL     OW 2869   2.048   2.238   1.952  0.6761 -0.1015  0.0379
  957SOL    HW1 2870   2.120   2.303   1.925  0.5673  0.3592  0.4827
  957SOL    HW2 2871   2.059   2.150   1.894  2.0579 -1.8237 -0.9975
  958SOL     OW 2872   1.556   1.079   1.302  0.3281 -0.0443 -0.4805
  958SOL    HW1 2873   1.502   1.132   1.238  0.5651 -2.1329  2.2020
  958SOL    HW2 2874   1.647   1.121   1.316  1.1319  0.5489 -0.0296
  959SOL     OW 2875   1.964   1.825   2.012  0.4137 -0.2861 -0.3498
  959SOL    HW1 2876   1.878   1.781   1.973 -0.5681 -1.7702  0.9817
  959SOL    HW2 2877   1.998   1.789   2.104  1.2678  0.1079  0.5855
  960SOL     OW 2878   0.644   0.862   2.821 -0.2670  0.6803  0.4029
  960SOL    HW1 2879   0.632   0.819   2.732  0.1316  0.8314  1.0629
  960SOL    HW2 2880   0.720   0.816   2.875  1.7426 -0.8840  0.4715
  961SOL     OW 2881   0.087   1.152   2.975 -0.0051 -0.2255  0.4132
  961SOL    HW1 2882   0.066   1.075   3.044  0.5827  0.1192  1.5409
  961SOL    HW2 2883   0.135   1.118   2.892 -0.6981  0.3962 -0.8326
  962SOL     OW 2884   0.775   1.643   2.411  0.1654  0.6863 -0.8298
  962SOL    HW1 2885   0.731   1.552   2.438 -0.6509 -1.0561 -0.7041
  962SOL    HW2 2886   0.724   1.722   2.449  0.6574 -1.5431  0.1910
  963SOL     OW 2887   3.074   2.210   2.974  0.1266  0.1681  0.1921
  963SOL    HW1 2888   2.990   2.268   2.974 -0.1644  1.1126 -0.0824
  963SOL    HW2 2889   0.022   2.233   2.900 -2.2239  0.6340  0.6963
  964SOL     OW 2890   1.017   1.825   1.891 -0.8108 -0.4312 -0.4599
  964SOL    HW1 2891   1.051   1.795   1.985 -1.1105 -2.1418  2.2909
  964SOL    HW2 2892   0.975   1.754   1.834 -2.2362  0.2175  0.1270
  965SOL     OW 2893   1.569   2.002   0.578  0.2665  0.5470 -0.2237
  965SOL    HW1 2894   1.574   2.096   0.537 -3.6036 -2.5858 -0.8876
  965SOL    HW2 2895   1.653   1.975   0.627 -0.8231 -0.3779 -0.6490
  966SOL     OW 2896   3.115   1.811   3.057 -0.2171  0.7229 -0.0022
  966SOL    HW1 2897   0.048   1.897   3.083 -1.6115 -1.6815 -4.5426
  966SOL    HW2 2898   0.015   1.735   0.004  0.1275 -0.1535  0.9402
  967SOL     OW 2899   2.153   3.055   2.283  0.4102  0.6917 -0.4460
  967SOL    HW1 2900   2.232   3.072   2.348 -1.0466  0.6251  0.3096
  967SOL    HW2 2901   2.113   2.960   2.293 -1.1220 -1.8786 -0.8916
  968SOL     OW 2902   0.971   0.687   0.313 -0.2450 -0.1567  0.2480
  968SOL    HW1 2903   0.924   0.765   0.357  1.1246 -0.5768  1.5130
  968SOL    HW2 2904   1.004   0.718   0.220 -2.3809  0.5435 -1.8723
  969SOL     OW 2905   0.474   1.651   2.094  0.2950 -0.4075 -0.1080
  969SOL    HW1 2906   0.537   1.730   2.084 -0.9374 -0.4238 -3.2654
  969SOL    HW2 2907   0.516   1.558   2.073  3.6641 -2.1362  3.2010
  970SOL     OW 2908   1.743   2.507   1.286 -0.2171  0.3396  0.2565
  970SOL    HW1 2909   1.842   2.511   1.268 -0.8695  0.3202  0.8157
  970SOL    HW2 2910   1.724   2.441   1.365  1.1888  0.1030 -0.2353
  971SOL     OW 2911   2.172   2.350   0.934 -0.0903  0.5358  0.0279
  971SOL    HW1 2912   2.153   2.446   0.910  1.7349  0.3736  0.2125
  971SOL    HW2 2913   2.245   2.335   1.002  0.2453 -0.4803 -1.5332
  972SOL     OW 2914   0.053   0.959   2.574 -0.0286 -0.2886 -0.0215
  972SOL    HW1 2915   0.090   1.005   2.490  1.3188 -0.3364 -1.6422
  972SOL    HW2 2916   0.120   0.955   2.653 -0.4844 -0.5235  1.4072
  973SOL     OW 2917   0.513   0.051   0.291  0.2710 -0.4377  0.8328
  973SOL    HW1 2918   0.552   0.100   0.374  1.2377  0.0069 -1.5142
  973SOL    HW2 2919   0.434   0.098   0.256 -0.4834  1.7346  1.5178
  974SOL     OW 2920   2.402   1.113   1.833  0.3608  0.5747  0.2921
  974SOL    HW1 2921   2.322   1.111   1.773 -1.0165  1.9870 -3.1157
  974SOL    HW2 2922   2.391   1.155   1.926 -0.4145  0.5323  0.5242
  975SOL     OW 2923   3.021   0.008   0.654  0.0146 -0.1606 -0.4341
  975SOL    HW1 2924   2.920   3.117   0.659  2.7938 -0.1767 -0.5477
  975SOL    HW2 2925   3.050   3.108   0.559 -0.7144  2.2164  2.1624
  976SOL     OW 2926   0.229   1.940   1.068 -0.5526 -0.4956  0.1617
  976SOL    HW1 2927   0.166   1.920   1.142  1.4516  0.5303  1.6369
  976SOL    HW2 2928   0.242   1.857   1.017  0.2676 -1.3274  0.9521
  977SOL     OW 2929   1.011   1.827   0.483  0.5737 -0.2365 -0.0451
  977SOL    HW1 2930   0.912   1.802   0.506 -1.9707  0.2056  1.8283
  977SOL    HW2 2931   1.035   1.922   0.514 -0.4766  0.8253  2.7035
  978SOL     OW 2932   0.242   0.976   0.161 -0.4309  0.0625 -0.2437
  978SOL    HW1 2933   0.305   0.927   0.100 -0.0816  1.4518 -1.4116
  978SOL    HW2 2934   0.153   0.971   0.112 -1.2194 -0.3851 -0.6983
  979SOL     OW 2935   1.853   1.517   0.801 -0.1967  0.2643  0.2244
  979SOL    HW1 2936   1.949   1.545   0.807 -3.0379  1.6356 -2.3104
  979SOL    HW2 2937   1.805   1.552   0.884  1.2908  2.3025  2.4515
  980SOL     OW 2938   0.530   2.207   2.110  0.8816 -0.5093  0.1094
  980SOL    HW1 2939   0.590   2.291   2.096 -0.4281 -0.2361  0.9630
  980SOL    HW2 2940   0.561   2.130   2.052 -1.1004  2.4204 -0.7070
  981SOL     OW 2941   2.156   1.137   2.898  0.5454 -0.3819  0.2417
  981SOL    HW1 2942   2.220   1.202   2.855 -0.3025 -1.8128  0.3953
  981SOL    HW2 2943   2.198   1.055   2.934  0.2012 -0.6624 -2.3703
  982SOL     OW 2944   3.041   2.728   1.745  0.4574  0.0568  0.3628
  982SOL    HW1 2945   3.006   2.822   1.730 -1.0751 -0.1898  1.4853
  982SOL    HW2 2946   0.024   2.719   1.716  0.1834 -0.5707 -0.5297
  983SOL     OW 2947   1.665   0.140   1.665 -0.0256  0.6398 -0.2394
  983SOL    HW1 2948   1.621   0.235   1.667  1.1960  1.5108 -1.3532
  983SOL    HW2 2949   1.598   0.071   1.706 -3.0398 -0.4591 -0.2198
  984SOL     OW 2950   1.969   2.961   2.610 -0.5251 -0.3398  0.1704
  984SOL    HW1 2951   2.038   2.923   2.670 -2.4843 -0.7472 -1.0855
  984SOL    HW2 2952   1.906   2.887   2.593 -1.2799 -1.2139 -0.0149
  985SOL     OW 2953   1.596   1.343   1.631 -0.2203 -0.5936  0.3393
  985SOL    HW1 2954   1.538   1.269   1.676 -0.9994 -2.6128 -0.2227
  985SOL    HW2 2955   1.546   1.436   1.624 -1.3725  5.6302 -0.6063
  986SOL     OW 2956   2.128   2.646   2.492  0.0540 -0.1374 -0.0651
  986SOL    HW1 2957   2.130   2.706   2.573  2.8609 -1.5120 -2.7560
  986SOL    HW2 2958   2.052   2.578   2.483  2.3163 -1.6005 -1.5193
  987SOL     OW 2959   2.869   1.851   2.731 -0.0351  0.1488 -0.2020
  987SOL    HW1 2960   2.872   1.748   2.727 -0.2930  1.5124  0.2745
  987SOL    HW2 2961   2.955   1.894   2.697  0.7917  0.3020  0.9433
  988SOL     OW 2962   3.071   0.757   1.575 -0.1297 -1.0918  0.0781
  988SOL    HW1 2963   3.035   0.725   1.660  0.7584  0.8771  0.9142
  988SOL    HW2 2964   3.000   0.795   1.517  0.3523 -1.2511  3.1836
  989SOL     OW 2965   1.855   1.116   1.292 -0.0904  0.4295  0.5346
  989SOL    HW1 2966   1.878   1.085   1.197  0.3563  0.3332 -1.4199
  989SOL    HW2 2967   1.896   1.049   1.362 -0.3349  1.7924  1.4101
  990SOL     OW 2968   2.805   0.707   0.147 -0.1645 -0.3227  0.0577
  990SOL    HW1 2969   2.778   0.783   0.080  1.3080  0.9820  1.8249
  990SOL    HW2 2970   2.829   0.615   0.108  0.7526  1.5005 -0.9834
  991SOL     OW 2971   0.486   1.726   3.040 -0.3961  0.4743 -0.5337
  991SOL    HW1 2972   0.528   1.788   2.971 -0.6960 -0.5718  1.1694
  991SOL    HW2 2973   0.474   1.772   0.015 -1.6613  1.6302 -0.5752
  992SOL     OW 2974   2.279   1.667   1.637 -0.1581  0.8871 -0.2194
  992SOL    HW1 2975   2.191   1.618   1.641  2.4734 -1.0555  0.5279
  992SOL    HW2 2976   2.283   1.742   1.701 -1.2832 -2.0581 -2.3015
  993SOL     OW 2977   0.574   3.001   0.645  0.1661 -0.3236  1.1761
  993SOL    HW1 2978   0.674   3.023   0.651  0.8966  2.4841 -1.0471
  993SOL    HW2 2979   0.545   2.910   0.601  0.1218 -0.4938  1.2473
  994SOL     OW 2980   2.705   2.123   1.572  0.1449  0.3527 -0.4804
  994SOL    HW1 2981   2.765   2.086   1.646 -1.4623 -2.1501  1.3482
  994SOL    HW2 2982   2.662   2.046   1.522  2.6982 -0.4851  0.8983
  995SOL     OW 2983   2.082   1.836   2.309 -0.3153  0.4022 -0.0891
  995SOL    HW1 2984   2.097   1.932   2.295 -1.1567 -2.5322 -1.7359
  995SOL    HW2 2985   2.166   1.790   2.263  1.4147  1.3787 -0.9738
  996SOL     OW 2986   2.025   1.684   0.057 -0.2741 -0.5601 -0.2888
  996SOL    HW1 2987   1.940   1.676   0.109  0.7135  0.9315 -1.6219
  996SOL    HW2 2988   2.090   1.750   0.098  1.8708  0.1467  0.3925
  997SOL     OW 2989   1.347   1.384   2.411 -0.2043  0.4166 -0.3592
  997SOL    HW1 2990   1.251   1.391   2.451 -2.0542 -1.3939  0.5492
  997SOL    HW2 2991   1.400   1.473   2.423  1.2349  1.0594  0.5223
  998SOL     OW 2992   3.009   2.498   0.862 -0.5028  0.2186  0.1525
  998SOL    HW1 2993   3.023   2.462   0.767  0.2302 -0.5815  2.1287
  998SOL    HW2 2994   3.097   2.515   0.912  0.9559  1.0363 -1.6999
  999SOL     OW 2995   0.232   2.726   0.804 -0.1445  0.2172 -0.5108
  999SOL    HW1 2996   0.281   2.655   0.753 -0.9139 -0.7753  2.1886
  999SOL    HW2 2997   0.227   2.808   0.749 -0.4539  0.0862  0.5622
 1000SOL     OW 2998   1.056   2.864   2.889 -0.1760  0.0879 -0.2130
 1000SOL    HW1 2999   1.085   2.815   2.975  1.2418  0.9515  1.2469
 1000SOL    HW2 3000   1.053   2.969   2.897  0.0172 -0.8030 -1.4858
   3.11698   3.11698   3.11698
