1000 SPC/Fw water molecules t= 477.00000 step= 477000
 3000
    1SOL     OW    1   2.690   0.082   1.589  0.3132  0.7452 -0.2792
    1SOL    HW1    2   2.692   0.165   1.528  1.8818 -0.0886 -0.1013
    1SOL    HW2    3   2.641   0.099   1.672 -1.0547  0.2228 -0.2777
    2SOL     OW    4   0.089   2.881   2.838 -0.3833  0.1761 -0.0593
    2SOL    HW1    5   0.033   2.794   2.861 -0.6663 -2.2246  0.8817
    2SOL    HW2    6   0.163   2.864   2.760 -0.3026 -0.9080  0.2219
    3SOL     OW    7   1.060   2.127   0.042 -0.1279 -0.0127  0.0217
    3SOL    HW1    8   1.061   2.038   3.095 -0.9243 -2.5539  1.1233
    3SOL    HW2    9   1.051   2.105   0.141  0.9284  0.4579  1.6340
    4SOL     OW   10   1.404   2.857   2.341  0.0092 -0.1583  0.1305
    4SOL    HW1   11   1.322   2.842   2.280  0.1071  0.1065  1.9024
    4SOL    HW2   12   1.375   2.914   2.420  0.4176  0.3579 -0.3702
    5SOL     OW   13   2.133   0.283   2.849 -0.0683 -0.3088 -0.0908
    5SOL    HW1   14   2.203   0.293   2.920  0.4501  1.7204 -0.3036
    5SOL    HW2   15   2.076   0.364   2.848 -0.3443 -2.2540 -0.2996
    6SOL     OW   16   0.102   1.662   1.015  1.5987 -0.3348 -0.1059
    6SOL    HW1   17   0.176   1.654   1.078  1.6370  1.3240 -1.1760
    6SOL    HW2   18   0.053   1.572   0.990  2.3056  1.1327 -2.5748
    7SOL     OW   19   0.987   1.853   0.505 -0.2787  0.6397  0.9487
    7SOL    HW1   20   1.017   1.913   0.581 -2.1666  1.1867 -0.5554
    7SOL    HW2   21   1.061   1.796   0.465 -1.8493  3.2930  0.0896
    8SOL     OW   22   0.313   0.593   0.453  0.2519  0.1189 -0.1192
    8SOL    HW1   23   0.329   0.687   0.416  2.8869  1.1696 -0.3545
    8SOL    HW2   24   0.218   0.589   0.496  0.6263  0.9900 -0.9890
    9SOL     OW   25   0.312   2.593   1.733 -0.1562 -1.2074 -0.1220
    9SOL    HW1   26   0.400   2.646   1.722  2.9710 -0.5850  0.5774
    9SOL    HW2   27   0.257   2.593   1.646  0.9720 -0.0879  0.7305
   10SOL     OW   28   1.226   1.666   0.162 -0.3112  0.1317 -0.2950
   10SOL    HW1   29   1.169   1.737   0.113  0.6283  1.9977 -0.9945
   10SOL    HW2   30   1.197   1.571   0.156  2.7447 -0.8605 -0.7202
   11SOL     OW   31   2.047   0.672   1.442 -0.3705  0.2588 -0.2877
   11SOL    HW1   32   2.138   0.695   1.487  2.2908  0.5634 -0.2137
   11SOL    HW2   33   1.980   0.668   1.515  3.5611  0.3929 -1.2281
   12SOL     OW   34   0.264   0.911   2.235  0.2386 -0.2421 -0.1664
   12SOL    HW1   35   0.297   0.970   2.157  1.7544  0.5825 -3.6874
   12SOL    HW2   36   0.344   0.866   2.277  2.4555 -0.1024  0.6264
   13SOL     OW   37   2.221   3.080   0.433  0.2629 -0.6779  0.1968
   13SOL    HW1   38   2.281   0.059   0.427 -0.0082  1.5590  3.5545
   13SOL    HW2   39   2.186   3.049   0.339  0.0904 -1.0160 -0.9577
   14SOL     OW   40   2.272   1.952   0.194  0.0958 -0.3603 -0.3552
   14SOL    HW1   41   2.343   1.962   0.121  0.8299  1.0841 -0.8737
   14SOL    HW2   42   2.293   2.022   0.266  0.8522  1.3284  2.6021
   15SOL     OW   43   2.906   2.935   3.016 -0.4977  0.3543  0.0103
   15SOL    HW1   44   2.974   2.976   2.949  1.2579 -0.7454  2.6459
   15SOL    HW2   45   2.812   2.933   2.977 -0.8730  0.9057 -1.0114
   16SOL     OW   46   3.001   0.634   0.920 -0.0838  0.0287 -0.3885
   16SOL    HW1   47   3.042   0.563   0.977 -0.6245  0.2873  1.2275
   16SOL    HW2   48   2.958   0.592   0.840 -1.8928 -0.1223  4.9588
   17SOL     OW   49   0.695   0.390   0.972  0.2127 -0.1911  0.1581
   17SOL    HW1   50   0.629   0.316   0.986  0.4120  1.4894 -0.8546
   17SOL    HW2   51   0.735   0.418   1.060  1.5114  0.4709 -0.1688
   18SOL     OW   52   2.768   0.010   0.818  0.2572 -0.6694  0.0609
   18SOL    HW1   53   2.682   3.080   0.861 -2.2950  1.8605  1.0140
   18SOL    HW2   54   2.790   0.096   0.867  0.3672  0.7428  0.3805
   19SOL     OW   55   1.929   1.640   1.213  0.1407 -0.0695 -0.2514
   19SOL    HW1   56   1.906   1.691   1.129  0.4459 -0.3574 -0.7005
   19SOL    HW2   57   1.906   1.539   1.211  0.5410 -0.0035  2.2480
   20SOL     OW   58   2.091   1.837   2.510 -0.4805  0.7368 -0.4541
   20SOL    HW1   59   2.037   1.835   2.595 -1.0710 -1.5248 -2.3223
   20SOL    HW2   60   2.034   1.852   2.425 -0.1423 -2.0720 -0.5052
   21SOL     OW   61   1.329   3.032   0.490 -0.0835  0.5843  0.2544
   21SOL    HW1   62   1.290   3.101   0.432  0.8261 -0.8306  0.3844
   21SOL    HW2   63   1.412   2.995   0.446  2.7490 -0.0423  0.1983
   22SOL     OW   64   2.390   1.029   3.092 -0.4547 -0.5712  0.8614
   22SOL    HW1   65   2.479   1.076   0.021  2.2842 -0.0909 -0.2086
   22SOL    HW2   66   2.405   0.965   3.014 -0.5888 -3.2811 -0.2559
   23SOL     OW   67   0.654   0.458   2.135 -0.3096  0.1985 -0.1347
   23SOL    HW1   68   0.655   0.352   2.128 -0.5384  0.5297  0.9292
   23SOL    HW2   69   0.747   0.496   2.132  0.9174  2.1736 -1.3545
   24SOL     OW   70   2.064   2.169   0.948 -0.1121  0.2216 -0.1201
   24SOL    HW1   71   2.068   2.256   1.000  0.0456  1.1505 -1.3111
   24SOL    HW2   72   1.980   2.167   0.891  0.1811  0.6513 -0.5286
   25SOL     OW   73   1.364   3.035   0.113 -0.0743 -0.0319 -0.0895
   25SOL    HW1   74   1.320   3.057   0.021  2.2159  1.3801  0.3535
   25SOL    HW2   75   1.421   0.007   0.150  0.1399 -0.5659  0.4150
   26SOL     OW   76   1.057   2.895   2.787 -0.1694  0.4308  0.1185
   26SOL    HW1   77   0.970   2.896   2.838  0.5211  2.9948  0.4374
   26SOL    HW2   78   1.089   2.798   2.781 -0.9493  1.4175 -0.4409
   27SOL     OW   79   1.019   0.610   1.281  0.2075  0.5043 -0.6786
   27SOL    HW1   80   1.005   0.661   1.194  0.7485 -1.4609  0.7986
   27SOL    HW2   81   0.951   0.535   1.285  1.0026  0.3841 -3.0374
   28SOL     OW   82   0.799   1.857   0.909 -0.4118 -0.4690  0.9134
   28SOL    HW1   83   0.719   1.847   0.843  0.0746  2.3856 -0.7075
   28SOL    HW2   84   0.828   1.765   0.937 -0.2369  2.6028  1.4450
   29SOL     OW   85   2.721   0.800   0.734 -0.6838 -0.0425  0.4105
   29SOL    HW1   86   2.637   0.739   0.726  0.8638 -0.5889  0.1194
   29SOL    HW2   87   2.716   0.854   0.820 -0.0851 -0.1166  0.5098
   30SOL     OW   88   1.428   3.079   1.724 -0.4004 -0.3280 -0.3500
   30SOL    HW1   89   1.442   3.056   1.624  3.3853 -1.5162  0.0702
   30SOL    HW2   90   1.352   3.022   1.763  1.8555 -0.2000 -1.7346
   31SOL     OW   91   1.268   3.055   1.179  0.1389 -0.5540 -0.0806
   31SOL    HW1   92   1.363   3.049   1.130  3.3848 -1.8424 -2.7673
   31SOL    HW2   93   1.189   3.057   1.111 -1.1094 -0.6120 -1.6675
   32SOL     OW   94   2.471   1.229   2.008  0.5576  0.1063 -0.2572
   32SOL    HW1   95   2.368   1.232   2.016 -1.3077 -0.4038 -3.2793
   32SOL    HW2   96   2.496   1.313   1.961  0.9009  3.0497  2.8747
   33SOL     OW   97   2.197   2.659   2.901  0.3845 -0.4011 -0.3603
   33SOL    HW1   98   2.147   2.748   2.920 -0.2073  0.8168  0.5195
   33SOL    HW2   99   2.295   2.686   2.875  1.4215  0.2904  0.5827
   34SOL     OW  100   1.893   0.973   3.091 -0.5853 -1.0360  0.1982
   34SOL    HW1  101   1.985   0.972   0.036 -0.0005  1.1013  2.1165
   34SOL    HW2  102   1.889   0.917   3.006  1.9946  0.0759 -2.9076
   35SOL     OW  103   3.101   1.193   1.475 -0.1789 -0.0881  0.3266
   35SOL    HW1  104   3.075   1.286   1.456  0.6992 -1.8284 -0.3729
   35SOL    HW2  105   0.049   1.154   1.397  1.5882 -0.2131  0.0933
   36SOL     OW  106   2.489   2.388   2.727  0.3576  0.4714  0.1211
   36SOL    HW1  107   2.506   2.425   2.633  0.8701 -0.2060 -1.7939
   36SOL    HW2  108   2.390   2.388   2.745  2.0522 -0.5477 -1.1644
   37SOL     OW  109   1.719   3.092   2.117 -0.3445  0.7187  0.1352
   37SOL    HW1  110   1.784   0.059   2.150  0.7002  1.0735  0.0182
   37SOL    HW2  111   1.709   3.094   2.015  3.0933 -1.0784 -1.2567
   38SOL     OW  112   0.981   1.247   2.422  0.1589  0.1244 -0.3265
   38SOL    HW1  113   0.903   1.317   2.415 -1.3907 -0.1442 -0.9626
   38SOL    HW2  114   0.992   1.193   2.334  0.8059  0.8288  1.7362
   39SOL     OW  115   1.644   0.395   1.663  0.1057 -0.6361 -0.0608
   39SOL    HW1  116   1.637   0.364   1.568 -0.7890  1.7546  0.4691
   39SOL    HW2  117   1.645   0.329   1.738  1.0509 -0.3672 -2.7437
   40SOL     OW  118   0.896   2.448   0.511  0.0046 -0.1113  0.1473
   40SOL    HW1  119   0.908   2.439   0.408  0.6448 -1.5242 -2.8471
   40SOL    HW2  120   0.985   2.463   0.554 -2.7239 -2.0863 -1.3240
   41SOL     OW  121   2.415   2.274   1.368  0.7764  0.5388  0.5910
   41SOL    HW1  122   2.375   2.286   1.275  0.1869  0.2322  0.4581
   41SOL    HW2  123   2.513   2.291   1.372 -1.8418  1.4499  0.8627
   42SOL     OW  124   2.621   3.020   0.460 -0.2960 -0.0042  0.2819
   42SOL    HW1  125   2.707   3.069   0.443 -2.7560  0.3117 -0.0697
   42SOL    HW2  126   2.579   3.049   0.548 -0.7098  0.5188  2.2046
   43SOL     OW  127   0.785   1.423   2.339 -0.1253  0.3939 -0.1500
   43SOL    HW1  128   0.816   1.418   2.240 -0.9594 -0.2935 -4.2489
   43SOL    HW2  129   0.688   1.389   2.348 -2.0367  1.5946  2.1539
   44SOL     OW  130   2.133   2.775   1.000 -0.1623  0.6874  0.0391
   44SOL    HW1  131   2.039   2.807   1.018  0.5105 -2.8832  1.9483
   44SOL    HW2  132   2.180   2.824   0.931 -0.5741  0.8985  1.4350
   45SOL     OW  133   0.122   2.310   2.909 -0.2964  0.3764  0.2194
   45SOL    HW1  134   0.149   2.268   2.998  1.5487  1.0401  2.3081
   45SOL    HW2  135   0.194   2.304   2.840 -1.4983  0.8416  1.6466
   46SOL     OW  136   0.720   2.625   2.117  0.3118  0.0864 -0.0610
   46SOL    HW1  137   0.703   2.644   2.219  3.2203 -0.3582  0.0534
   46SOL    HW2  138   0.774   2.540   2.099  1.6888  0.7330 -0.5753
   47SOL     OW  139   0.457   1.585   0.638  0.0219 -0.3842 -0.4488
   47SOL    HW1  140   0.441   1.687   0.624 -0.9677  2.4286  2.7145
   47SOL    HW2  141   0.486   1.542   0.553  0.4740  0.9716  1.0072
   48SOL     OW  142   0.715   2.813   1.335 -0.9250 -0.7861  0.0594
   48SOL    HW1  143   0.664   2.741   1.292  2.5553  2.0191  1.7372
   48SOL    HW2  144   0.660   2.881   1.388  0.8849  1.8264 -2.3230
   49SOL     OW  145   0.182   2.905   0.014 -0.1303  0.1094  0.3851
   49SOL    HW1  146   0.157   2.955   0.099 -0.5923 -1.1187 -0.4533
   49SOL    HW2  147   0.114   2.832   3.095  1.5253 -2.2547  1.6546
   50SOL     OW  148   1.598   0.579   0.437 -0.5949  0.4585 -0.0447
   50SOL    HW1  149   1.516   0.586   0.502 -1.3517  1.4638  0.2134
   50SOL    HW2  150   1.635   0.673   0.429 -0.2431  1.0057 -0.6494
   51SOL     OW  151   1.965   3.054   0.863 -0.1494 -0.2120  0.1515
   51SOL    HW1  152   1.951   2.997   0.783 -1.2959  1.7109 -0.1744
   51SOL    HW2  153   2.049   0.002   0.850  0.3200 -0.4791 -0.8750
   52SOL     OW  154   0.552   1.660   1.074 -0.1290  0.0076  0.4827
   52SOL    HW1  155   0.621   1.607   1.132  0.8602 -0.3618 -0.6663
   52SOL    HW2  156   0.511   1.735   1.125  1.7512  1.4507 -0.3077
   53SOL     OW  157   0.297   1.239   2.841  0.0974  0.2590  0.5532
   53SOL    HW1  158   0.382   1.187   2.852 -1.4087  1.2346  1.6393
   53SOL    HW2  159   0.258   1.257   2.934  1.2643  1.9443  2.0445
   54SOL     OW  160   2.666   2.241   2.525  0.1213  0.0753 -0.3455
   54SOL    HW1  161   2.595   2.308   2.503  1.8222  0.0190 -0.5101
   54SOL    HW2  162   2.627   2.151   2.552  0.0294  1.0123  0.0714
   55SOL     OW  163   2.723   2.262   1.468  0.1287 -0.8204  0.0409
   55SOL    HW1  164   2.746   2.363   1.473  1.1542 -0.6219  1.7030
   55SOL    HW2  165   2.665   2.229   1.545 -2.6026  1.9442 -1.5197
   56SOL     OW  166   1.357   0.852   1.456 -0.1718 -0.5861 -0.2220
   56SOL    HW1  167   1.449   0.861   1.501  2.0787  2.9292  1.7348
   56SOL    HW2  168   1.370   0.814   1.358  1.0932 -3.0043  0.7490
   57SOL     OW  169   1.918   1.751   0.896 -0.4320 -0.3284 -0.4404
   57SOL    HW1  170   1.995   1.811   0.930 -0.4725  1.4508  0.2160
   57SOL    HW2  171   1.957   1.688   0.825  0.3991 -3.2733  0.2679
   58SOL     OW  172   2.168   0.094   2.257  0.3489 -0.4944  0.0764
   58SOL    HW1  173   2.225   0.100   2.338  0.3212  0.9647  0.2794
   58SOL    HW2  174   2.182   0.178   2.201  0.6885 -1.1826  2.7326
   59SOL     OW  175   1.626   0.242   2.770  0.6549 -0.3048  0.1920
   59SOL    HW1  176   1.719   0.225   2.805  1.3419 -2.0943 -0.7654
   59SOL    HW2  177   1.619   0.314   2.698  1.0982 -0.4177 -0.5743
   60SOL     OW  178   1.548   1.989   2.820  0.3935 -0.1719 -0.0241
   60SOL    HW1  179   1.634   2.028   2.850 -1.2757  1.9399  0.0745
   60SOL    HW2  180   1.517   2.029   2.730  1.7196 -0.2970  0.1508
   61SOL     OW  181   0.464   2.051   0.062  0.1550 -0.3427  0.2086
   61SOL    HW1  182   0.391   2.025   3.098  0.3634  0.4105 -1.8281
   61SOL    HW2  183   0.539   1.981   0.057 -2.1323 -0.1246  0.5259
   62SOL     OW  184   1.589   1.923   1.524 -0.4037 -0.1621  0.1236
   62SOL    HW1  185   1.535   1.847   1.563 -0.3888  0.3928  0.9053
   62SOL    HW2  186   1.682   1.892   1.495  3.4242 -1.2292  0.9247
   63SOL     OW  187   0.983   2.118   0.341 -0.2418  0.5852 -0.1851
   63SOL    HW1  188   0.901   2.156   0.290  2.7768  1.0537  0.2008
   63SOL    HW2  189   0.960   2.027   0.368 -2.3030  1.6146 -2.3410
   64SOL     OW  190   1.782   1.711   2.541 -0.1881  0.1678  0.1299
   64SOL    HW1  191   1.799   1.616   2.571 -2.0675  2.3740 -0.8968
   64SOL    HW2  192   1.810   1.733   2.445  0.8237  0.9449 -0.7722
   65SOL     OW  193   1.839   1.782   1.432 -0.6956 -0.6111 -0.3862
   65SOL    HW1  194   1.866   1.717   1.361  2.1339  0.3181 -0.7813
   65SOL    HW2  195   1.885   1.874   1.410  0.2304  0.3577 -2.0514
   66SOL     OW  196   2.858   0.530   0.695 -0.3195 -0.1228 -0.0643
   66SOL    HW1  197   2.789   0.457   0.709  0.0734 -0.6825 -2.2907
   66SOL    HW2  198   2.809   0.611   0.666 -1.6285 -0.1959 -0.5254
   67SOL     OW  199   2.014   2.430   1.037  0.0441  0.1273  0.4160
   67SOL    HW1  200   1.969   2.512   1.085 -1.1070  0.0719  0.0097
   67SOL    HW2  201   2.105   2.466   1.004  1.1535  1.2468  1.0714
   68SOL     OW  202   2.485   2.764   1.875  0.0797  0.6641 -0.0692
   68SOL    HW1  203   2.472   2.723   1.780  0.4645 -0.5421 -1.1191
   68SOL    HW2  204   2.445   2.857   1.877  3.0986 -1.7587  1.5215
   69SOL     OW  205   2.544   2.887   2.614 -0.7268 -0.1590 -0.2750
   69SOL    HW1  206   2.450   2.918   2.624  3.3981  0.9902  1.7354
   69SOL    HW2  207   2.559   2.787   2.601 -0.5469  0.1523  1.7675
   70SOL     OW  208   1.064   1.521   2.382  0.1281 -0.3150 -0.0960
   70SOL    HW1  209   1.037   1.463   2.306  0.7211 -1.7217  0.0601
   70SOL    HW2  210   1.148   1.484   2.426  1.7034  1.0528 -1.0933
   71SOL     OW  211   0.940   1.747   2.011 -0.1623  0.4068 -0.3688
   71SOL    HW1  212   0.970   1.655   1.978  0.6222  0.0732  0.0667
   71SOL    HW2  213   0.899   1.805   1.935 -0.0468  0.8177 -0.3442
   72SOL     OW  214   2.861   1.401   1.644 -0.1897  0.7906  0.1354
   72SOL    HW1  215   2.842   1.365   1.736 -3.2617  0.4947  0.8569
   72SOL    HW2  216   2.774   1.408   1.592 -3.1026  0.7470 -0.9640
   73SOL     OW  217   0.705   2.271   2.864  1.2112  0.2165 -0.4166
   73SOL    HW1  218   0.762   2.341   2.821 -0.4495 -0.9029 -0.9086
   73SOL    HW2  219   0.674   2.292   2.956  0.8301 -1.6267 -1.7518
   74SOL     OW  220   1.098   0.312   2.131 -0.2042  0.3300 -0.6506
   74SOL    HW1  221   1.019   0.245   2.140 -1.0740 -0.1160  0.7949
   74SOL    HW2  222   1.141   0.340   2.221  0.3431  2.8201  0.0266
   75SOL     OW  223   0.923   0.019   0.652  0.3214 -1.2725 -0.3659
   75SOL    HW1  224   0.867   3.055   0.600 -0.8330  0.4085 -2.3715
   75SOL    HW2  225   1.003   3.072   0.696  2.0009 -0.9962  1.5938
   76SOL     OW  226   0.522   1.698   2.748  0.0596 -0.1317 -0.2215
   76SOL    HW1  227   0.624   1.694   2.726  2.3953 -2.9472 -0.7514
   76SOL    HW2  228   0.471   1.609   2.728 -0.8248 -0.9545 -0.9761
   77SOL     OW  229   0.547   2.732   0.575 -0.0300 -0.2812  0.4179
   77SOL    HW1  230   0.484   2.754   0.653 -0.2370  1.5162  1.5497
   77SOL    HW2  231   0.575   2.634   0.569  0.9503 -1.3138 -0.8822
   78SOL     OW  232   2.755   1.088   2.960  0.2426 -0.4785  0.0345
   78SOL    HW1  233   2.827   1.041   3.014 -0.2725  0.2312  1.5247
   78SOL    HW2  234   2.691   1.121   3.029  2.7042 -1.2835 -0.7611
   79SOL     OW  235   0.863   1.496   2.625  0.0098  0.0154 -0.1340
   79SOL    HW1  236   0.881   1.477   2.525 -1.7780  0.1748 -0.3436
   79SOL    HW2  237   0.841   1.596   2.637 -0.0273  0.0406 -0.3606
   80SOL     OW  238   2.198   1.067   1.375  0.1613 -0.1012 -0.4321
   80SOL    HW1  239   2.184   1.064   1.475 -0.7690 -1.6279 -1.7312
   80SOL    HW2  240   2.253   1.148   1.349 -0.5278 -1.5131 -0.9986
   81SOL     OW  241   2.069   1.039   2.622 -0.4199  0.5441 -0.0285
   81SOL    HW1  242   2.077   1.138   2.652 -2.4367  0.4325  4.2589
   81SOL    HW2  243   1.980   1.018   2.577 -0.3248  0.6273 -1.7810
   82SOL     OW  244   2.366   2.013   1.419 -0.4595  0.5954 -0.2449
   82SOL    HW1  245   2.343   2.110   1.400 -0.6560 -2.5094  0.6035
   82SOL    HW2  246   2.318   1.981   1.507 -0.5155  0.3694  0.8114
   83SOL     OW  247   2.145   2.731   0.173  0.6986 -0.2447 -0.3646
   83SOL    HW1  248   2.243   2.756   0.161  0.2389  0.3310  0.3184
   83SOL    HW2  249   2.121   2.684   0.264 -1.7520 -0.7856  1.5036
   84SOL     OW  250   0.702   0.820   0.671 -0.2518 -0.2064  0.1972
   84SOL    HW1  251   0.772   0.866   0.729  1.8648 -2.0575  2.3838
   84SOL    HW2  252   0.702   0.722   0.697 -0.4514  2.0675 -0.3920
   85SOL     OW  253   2.168   1.635   1.367 -0.5552  0.2603 -0.4044
   85SOL    HW1  254   2.101   1.583   1.308  1.9230 -1.7940  0.2936
   85SOL    HW2  255   2.202   1.720   1.326 -1.0479  1.6535 -0.8392
   86SOL     OW  256   0.590   0.873   1.098  0.4448 -0.1916  0.3798
   86SOL    HW1  257   0.500   0.832   1.066 -0.2045 -0.1313 -1.3324
   86SOL    HW2  258   0.631   0.944   1.039  1.5542 -0.4827  1.5241
   87SOL     OW  259   0.001   2.165   2.506 -0.2549 -0.3546 -0.3436
   87SOL    HW1  260   0.072   2.110   2.461 -3.1997  1.5426 -1.5862
   87SOL    HW2  261   0.010   2.260   2.474  0.2833 -1.5753  1.9166
   88SOL     OW  262   0.206   3.015   0.282  0.9049  0.3091  0.4908
   88SOL    HW1  263   0.185   2.933   0.334  1.2471  2.7524 -0.8952
   88SOL    HW2  264   0.304   3.023   0.282 -1.9026 -0.4076 -2.9376
   89SOL     OW  265   1.417   0.346   1.281 -0.0871 -0.3760  0.1345
   89SOL    HW1  266   1.422   0.434   1.225  0.2363  0.5884 -1.1416
   89SOL    HW2  267   1.327   0.339   1.331 -0.0791  0.5134 -2.2029
   90SOL     OW  268   0.043   1.113   2.022 -0.4090 -0.5153 -0.0014
   90SOL    HW1  269   0.028   1.081   2.118 -0.2048 -0.1947  0.7626
   90SOL    HW2  270   0.100   1.055   1.965 -0.5495 -0.7354 -0.1638
   91SOL     OW  271   1.816   2.536   0.679  0.5119 -0.3778  0.1573
   91SOL    HW1  272   1.917   2.528   0.676 -3.8474 -1.5374 -0.3068
   91SOL    HW2  273   1.784   2.480   0.760  0.7167  0.8531 -1.9458
   92SOL     OW  274   1.644   1.826   0.828 -1.0254 -0.1970 -0.3014
   92SOL    HW1  275   1.740   1.819   0.864  0.7419 -2.0095 -0.3443
   92SOL    HW2  276   1.626   1.749   0.765 -0.2990  0.3878  0.7080
   93SOL     OW  277   0.264   1.351   0.477 -0.5836  0.2597 -0.6466
   93SOL    HW1  278   0.194   1.306   0.419 -0.5025  0.9490  0.4190
   93SOL    HW2  279   0.337   1.390   0.420 -0.3432  0.9456  0.6938
   94SOL     OW  280   0.633   2.357   0.931  0.2304 -0.0301  0.4474
   94SOL    HW1  281   0.529   2.354   0.902 -0.9982 -1.1100  0.6954
   94SOL    HW2  282   0.647   2.304   1.013 -1.6730  1.5014  1.3157
   95SOL     OW  283   0.342   0.848   0.374  0.1639  0.3641  0.0226
   95SOL    HW1  284   0.351   0.918   0.449  1.3545 -1.4431  1.4262
   95SOL    HW2  285   0.432   0.826   0.337  1.6743  2.3538 -0.5687
   96SOL     OW  286   0.861   2.402   2.053  0.1694 -0.0129 -0.0543
   96SOL    HW1  287   0.858   2.343   2.136 -1.2344 -0.5695 -1.2822
   96SOL    HW2  288   0.807   2.357   1.980  2.5319  2.1287 -0.2150
   97SOL     OW  289   2.273   0.881   0.549  0.1768 -0.3464 -0.5985
   97SOL    HW1  290   2.306   0.875   0.452 -0.1142 -2.2257  1.9521
   97SOL    HW2  291   2.207   0.959   0.560 -0.9242  3.0853 -1.1101
   98SOL     OW  292   0.203   1.946   1.819  0.0971 -0.1646  0.2421
   98SOL    HW1  293   0.289   1.896   1.811  0.3007 -0.2698  1.9032
   98SOL    HW2  294   0.210   1.984   1.913 -2.2010 -0.2976  1.0459
   99SOL     OW  295   3.081   0.311   1.758  0.3331 -0.5848  0.0373
   99SOL    HW1  296   3.005   0.369   1.796 -2.6326 -0.8720  3.0255
   99SOL    HW2  297   3.100   0.241   1.830 -2.9458 -1.1030 -2.3932
  100SOL     OW  298   2.069   0.406   2.523  0.5051 -0.3798  0.2494
  100SOL    HW1  299   2.159   0.370   2.514 -1.0430  1.5109 -0.3271
  100SOL    HW2  300   2.068   0.490   2.587  1.5783  3.0852  1.9133
  101SOL     OW  301   1.217   2.954   1.834  0.2594 -0.2757 -0.0207
  101SOL    HW1  302   1.119   2.925   1.823 -1.6474 -1.2639  2.7321
  101SOL    HW2  303   1.226   3.011   1.918  1.3433 -2.3384  0.5843
  102SOL     OW  304   0.518   0.489   1.649  0.7220 -0.1944  0.2936
  102SOL    HW1  305   0.416   0.481   1.618 -0.4009  1.4860 -2.2564
  102SOL    HW2  306   0.544   0.456   1.742  3.1467 -0.1238  0.1289
  103SOL     OW  307   0.427   0.866   2.818 -0.1439  0.0721 -0.5941
  103SOL    HW1  308   0.380   0.921   2.889  3.3379 -1.1026 -1.7363
  103SOL    HW2  309   0.506   0.913   2.781 -4.1601 -0.9707  1.4703
  104SOL     OW  310   0.484   3.072   1.883  0.3813 -0.0213  0.2006
  104SOL    HW1  311   0.469   3.086   1.783 -0.9393 -3.3906 -1.0281
  104SOL    HW2  312   0.462   0.045   1.943 -0.1424 -1.5262 -0.5251
  105SOL     OW  313   2.582   2.666   2.095 -0.5951 -0.4565 -0.0324
  105SOL    HW1  314   2.530   2.715   2.018 -0.7570  1.5029 -1.4771
  105SOL    HW2  315   2.544   2.691   2.192 -1.9132 -1.9651  1.9389
  106SOL     OW  316   0.591   3.086   0.897  0.2258  0.0921  0.1821
  106SOL    HW1  317   0.667   0.053   0.884  1.8946  0.2376 -1.3620
  106SOL    HW2  318   0.616   2.993   0.867 -1.5765 -0.0156 -0.6580
  107SOL     OW  319   3.086   1.898   1.146  0.0299 -0.4723 -0.9109
  107SOL    HW1  320   0.035   1.971   1.192 -0.4502  0.7346 -0.6002
  107SOL    HW2  321   0.045   1.829   1.099 -2.1455  1.8587  1.4906
  108SOL     OW  322   0.391   2.292   0.857 -0.0163 -0.6637  0.0335
  108SOL    HW1  323   0.310   2.352   0.871  0.5030  0.2707  2.2287
  108SOL    HW2  324   0.410   2.285   0.756  1.0611  1.1675  0.3715
  109SOL     OW  325   1.622   2.988   0.723  0.3472 -0.4831 -0.2169
  109SOL    HW1  326   1.555   2.942   0.783 -0.4424 -0.7662 -0.5005
  109SOL    HW2  327   1.688   2.924   0.678 -1.6532  1.1368  1.4968
  110SOL     OW  328   1.535   2.026   0.605 -0.1140  0.0562 -0.2207
  110SOL    HW1  329   1.599   2.084   0.556 -0.2881 -2.1038 -0.7052
  110SOL    HW2  330   1.575   1.959   0.670  1.3754 -2.4477 -2.0089
  111SOL     OW  331   1.704   2.830   2.003 -0.1063  0.2278 -0.2391
  111SOL    HW1  332   1.645   2.772   2.061  0.5406  0.6252  1.7869
  111SOL    HW2  333   1.724   2.921   2.050  4.2670 -0.2245 -0.9703
  112SOL     OW  334   1.769   2.393   2.668 -0.4249 -0.4139  0.4578
  112SOL    HW1  335   1.783   2.471   2.738 -0.9852 -1.6847  1.6502
  112SOL    HW2  336   1.687   2.412   2.609 -2.7036 -0.5339  0.5056
  113SOL     OW  337   2.348   2.227   1.951 -0.2057 -0.4695 -0.0499
  113SOL    HW1  338   2.401   2.189   2.029 -1.2488  0.6478 -2.5045
  113SOL    HW2  339   2.393   2.316   1.918  2.6611  4.2687 -0.0792
  114SOL     OW  340   0.315   1.190   1.715  0.1338 -0.1562  0.5974
  114SOL    HW1  341   0.325   1.222   1.619  1.1745  0.6768  0.0570
  114SOL    HW2  342   0.276   1.266   1.770  0.3584 -1.5111  2.0164
  115SOL     OW  343   2.656   0.751   2.851  0.1435 -0.2199  0.5727
  115SOL    HW1  344   2.595   0.831   2.847  1.4970 -1.5950 -2.1844
  115SOL    HW2  345   2.675   0.715   2.945  1.8190  0.5085 -0.2957
  116SOL     OW  346   2.915   0.412   0.016  0.3343 -1.1051  0.0346
  116SOL    HW1  347   2.992   0.348   0.004 -1.2555  1.2798 -1.3905
  116SOL    HW2  348   2.846   0.405   3.041 -0.7846  0.3452  1.8108
  117SOL     OW  349   2.507   2.752   0.906 -0.4894  0.3706  0.5960
  117SOL    HW1  350   2.439   2.755   0.835  2.3436  0.7868 -0.0134
  117SOL    HW2  351   2.537   2.656   0.921  0.4044 -0.2388  0.0013
  118SOL     OW  352   1.138   2.155   2.258 -0.3717 -0.5881 -0.9256
  118SOL    HW1  353   1.115   2.057   2.244 -1.5689  1.5322  2.8293
  118SOL    HW2  354   1.150   2.178   2.357 -0.4728 -0.9150  1.4956
  119SOL     OW  355   0.629   2.682   0.104 -0.4157  0.0185 -0.3070
  119SOL    HW1  356   0.546   2.720   0.057 -0.8471 -1.7531 -0.7366
  119SOL    HW2  357   0.645   2.732   0.192  0.1502  1.5879 -0.6203
  120SOL     OW  358   1.311   0.774   0.403  0.3786  0.0035  0.3891
  120SOL    HW1  359   1.345   0.681   0.374  0.2129 -2.1331 -0.1211
  120SOL    HW2  360   1.366   0.847   0.358 -0.0775  0.1987 -1.4046
  121SOL     OW  361   1.720   0.850   1.016 -0.5794  0.2125 -0.3406
  121SOL    HW1  362   1.639   0.883   0.967  1.5230 -1.3669 -0.8115
  121SOL    HW2  363   1.715   0.861   1.119 -0.8309  2.6862  0.3061
  122SOL     OW  364   1.913   1.673   2.051  0.6396  0.1237  0.2639
  122SOL    HW1  365   1.828   1.690   1.999  0.5329  0.9470 -2.9610
  122SOL    HW2  366   1.967   1.613   1.988  1.9010  1.9215  0.8678
  123SOL     OW  367   0.305   0.983   0.588  0.0615  0.4155  0.6759
  123SOL    HW1  368   0.261   1.070   0.615  0.2096  0.6952  0.1758
  123SOL    HW2  369   0.275   0.911   0.648  0.9909 -0.9055 -0.2865
  124SOL     OW  370   0.764   0.316   2.664 -0.1281  0.4072  0.1552
  124SOL    HW1  371   0.855   0.300   2.612  1.3088 -1.2185 -1.1899
  124SOL    HW2  372   0.765   0.266   2.755 -2.4315 -1.6849  0.9167
  125SOL     OW  373   0.710   3.100   2.833  0.1778  0.1884  0.1046
  125SOL    HW1  374   0.742   3.029   2.896 -2.2710  1.9709  0.4981
  125SOL    HW2  375   0.687   3.064   2.741 -0.3336 -0.5577  0.5362
  126SOL     OW  376   0.635   1.467   2.975 -0.1055  0.3221 -0.1145
  126SOL    HW1  377   0.639   1.447   2.872 -1.7844  1.7259 -2.9260
  126SOL    HW2  378   0.723   1.445   3.020 -1.4488  1.1723 -2.3008
  127SOL     OW  379   0.993   2.695   0.755 -0.5205 -0.1795  0.0868
  127SOL    HW1  380   0.901   2.740   0.762 -0.1683 -1.0820  0.9515
  127SOL    HW2  381   1.059   2.763   0.797 -1.7143 -0.4670 -0.1691
  128SOL     OW  382   1.646   2.065   0.088 -0.3591  0.1562  0.0814
  128SOL    HW1  383   1.576   1.995   0.113 -3.5049 -0.6532  0.0331
  128SOL    HW2  384   1.702   2.033   0.006  0.1006 -0.9032  0.0525
  129SOL     OW  385   1.893   1.755   1.696 -0.2005 -0.5955 -0.2942
  129SOL    HW1  386   1.869   1.746   1.598  0.5582  0.2546  2.8635
  129SOL    HW2  387   1.820   1.707   1.754 -3.4704 -1.0444  1.5873
  130SOL     OW  388   2.129   1.784   1.789  0.2722  0.0466  0.3044
  130SOL    HW1  389   2.034   1.786   1.745 -1.9256  2.0060  2.9172
  130SOL    HW2  390   2.137   1.814   1.886  0.7255 -0.6789  0.2574
  131SOL     OW  391   1.096   2.532   2.040 -0.7136 -0.3266  0.4851
  131SOL    HW1  392   1.088   2.568   1.943 -0.1474 -3.6331 -0.9306
  131SOL    HW2  393   1.005   2.487   2.063  0.9593 -2.3035  0.7452
  132SOL     OW  394   2.552   1.482   0.895  0.1303  0.7455 -0.3570
  132SOL    HW1  395   2.545   1.572   0.856  1.7624 -1.6334  0.9333
  132SOL    HW2  396   2.563   1.415   0.821 -2.8859  1.3539 -0.7468
  133SOL     OW  397   0.743   1.872   1.805  0.4261 -0.1817  0.1874
  133SOL    HW1  398   0.710   1.846   1.712 -0.4212  1.7379  1.7364
  133SOL    HW2  399   0.664   1.895   1.860 -0.7377  1.4972 -2.5645
  134SOL     OW  400   3.093   1.438   0.976  0.0571 -0.4180  0.2848
  134SOL    HW1  401   3.029   1.434   0.891 -2.7293 -1.4849 -1.0757
  134SOL    HW2  402   0.070   1.377   0.966 -0.2066  1.5407 -0.2839
  135SOL     OW  403   2.178   1.687   2.838  0.3490  0.2964 -0.5021
  135SOL    HW1  404   2.239   1.768   2.838  0.5336  0.3360 -2.8844
  135SOL    HW2  405   2.084   1.717   2.822  1.0503 -0.4920  1.5264
  136SOL     OW  406   0.046   1.743   1.399  0.0359  0.4843  0.0762
  136SOL    HW1  407   0.120   1.710   1.342  1.4511  1.5537  0.9753
  136SOL    HW2  408   0.016   1.838   1.378  0.8021  0.1918  1.9750
  137SOL     OW  409   2.952   1.280   2.817 -0.1252  0.3069 -0.1407
  137SOL    HW1  410   2.895   1.201   2.788  1.0964  1.0202  1.3435
  137SOL    HW2  411   2.920   1.377   2.787 -2.8085  0.0932 -0.2368
  138SOL     OW  412   2.813   0.248   0.939 -0.2187  0.3159  0.1845
  138SOL    HW1  413   2.729   0.265   0.998  0.0695  0.6827  0.4454
  138SOL    HW2  414   2.796   0.291   0.848 -0.4965  0.1091  0.3120
  139SOL     OW  415   2.097   2.227   2.981 -0.4511  0.2020 -0.1391
  139SOL    HW1  416   2.083   2.324   3.012  3.0960  1.9427  2.0826
  139SOL    HW2  417   2.141   2.221   2.891  1.3471  0.3252 -0.4480
  140SOL     OW  418   0.892   1.504   0.678 -0.6921  0.0023  0.4940
  140SOL    HW1  419   0.806   1.543   0.718  0.4427  0.9652  1.6387
  140SOL    HW2  420   0.897   1.404   0.698 -2.6398 -0.1674  1.4562
  141SOL     OW  421   1.139   1.351   0.847 -0.1840  0.1112  0.0368
  141SOL    HW1  422   1.214   1.421   0.840  0.3167 -0.2957 -2.3488
  141SOL    HW2  423   1.115   1.310   0.756 -0.8575  0.2218 -2.6296
  142SOL     OW  424   1.333   0.781   1.151  0.1050  0.3863 -0.4663
  142SOL    HW1  425   1.233   0.807   1.148 -1.0024  1.8318 -1.0056
  142SOL    HW2  426   1.345   0.682   1.121 -1.2709 -0.9920  0.9923
  143SOL     OW  427   0.320   0.452   2.780 -0.7114  0.2549 -0.2091
  143SOL    HW1  428   0.232   0.492   2.785  1.4606 -0.1208  0.2562
  143SOL    HW2  429   0.378   0.517   2.729  0.5723 -1.2104 -4.4630
  144SOL     OW  430   2.376   0.190   0.343  0.1721  0.0979  0.1785
  144SOL    HW1  431   2.460   0.190   0.392 -2.5119 -0.5725 -1.8017
  144SOL    HW2  432   2.380   0.255   0.267 -3.5633 -0.7029 -1.1867
  145SOL     OW  433   2.288   2.919   2.700 -0.1642  0.6286  0.9290
  145SOL    HW1  434   2.220   2.855   2.660  0.8081  0.1859 -1.1900
  145SOL    HW2  435   2.244   3.008   2.722 -0.0149  1.1844  0.1734
  146SOL     OW  436   3.059   2.719   0.428 -0.4528  0.1142  0.2296
  146SOL    HW1  437   3.090   2.624   0.405  0.6238 -2.5526  0.3703
  146SOL    HW2  438   2.988   2.748   0.360 -0.7033 -2.2205  0.9564
  147SOL     OW  439   1.363   0.895   3.080  0.4068  0.2776  0.5312
  147SOL    HW1  440   1.268   0.936   3.095 -0.8692  1.5253 -1.2182
  147SOL    HW2  441   1.358   0.797   3.050 -0.3640 -2.5598  1.2033
  148SOL     OW  442   1.080   0.024   0.149  0.0131  0.6067  0.2489
  148SOL    HW1  443   1.072   0.063   0.245  1.6400  2.1355 -0.2351
  148SOL    HW2  444   1.148   3.048   0.136 -0.6492 -3.0526 -1.2177
  149SOL     OW  445   1.359   0.756   2.544  0.0734 -0.3158  0.1964
  149SOL    HW1  446   1.286   0.742   2.479  0.2110  2.0483  1.7897
  149SOL    HW2  447   1.323   0.794   2.632 -1.0219 -1.0169  3.8815
  150SOL     OW  448   1.460   2.834   2.857 -0.2383 -0.3505 -0.1025
  150SOL    HW1  449   1.365   2.868   2.875 -2.0005 -1.3513  0.5021
  150SOL    HW2  450   1.458   2.731   2.868 -1.0703  0.2611  1.4867
  151SOL     OW  451   3.048   1.260   3.082 -0.1188  0.1478 -0.5916
  151SOL    HW1  452   3.027   1.267   2.978 -1.1862  0.3769 -1.3426
  151SOL    HW2  453   2.998   1.330   0.034 -0.5297  0.6992  1.6178
  152SOL     OW  454   0.651   0.023   1.633 -0.4057  0.5560  0.0646
  152SOL    HW1  455   0.631   0.113   1.590 -0.6104  2.0751 -1.8233
  152SOL    HW2  456   0.729   3.083   1.587 -1.4692 -1.7930 -0.8858
  153SOL     OW  457   2.469   0.139   1.754  0.4748  0.3178 -0.7596
  153SOL    HW1  458   2.409   0.152   1.674 -1.4597  0.6589 -1.3563
  153SOL    HW2  459   2.462   0.206   1.829 -1.3658 -0.9093 -0.9173
  154SOL     OW  460   2.177   0.146   1.891  0.2654  0.1675  0.0018
  154SOL    HW1  461   2.078   0.135   1.865  1.8366  0.5994 -0.4459
  154SOL    HW2  462   2.223   0.062   1.856  0.6895 -3.3056  0.7347
  155SOL     OW  463   0.079   1.223   0.312  0.8228  0.2838 -1.0798
  155SOL    HW1  464   0.077   1.123   0.327 -0.0392  2.2176  0.0778
  155SOL    HW2  465   3.092   1.271   0.336 -2.4709  1.0212  1.2676
  156SOL     OW  466   1.586   1.038   0.016  0.2365  0.1905  0.0398
  156SOL    HW1  467   1.668   0.980   3.094  1.3423  0.5778  1.5676
  156SOL    HW2  468   1.504   0.984   0.004  0.5085  1.5807 -0.3361
  157SOL     OW  469   0.854   2.367   3.085 -0.0203 -0.1805  0.0671
  157SOL    HW1  470   0.927   2.312   3.047 -0.1595 -1.0507  2.0582
  157SOL    HW2  471   0.779   2.307   0.019 -0.3671  0.8160 -2.4676
  158SOL     OW  472   1.643   0.926   1.535 -0.0477 -0.2979  0.3886
  158SOL    HW1  473   1.693   0.876   1.603 -2.4810  2.2103 -2.2591
  158SOL    HW2  474   1.638   1.027   1.557 -0.7765  0.6123 -1.6719
  159SOL     OW  475   0.305   0.229   0.651 -0.1575 -0.3294  0.3775
  159SOL    HW1  476   0.341   0.135   0.691  1.2120 -0.0787 -0.8568
  159SOL    HW2  477   0.234   0.219   0.584  1.0430  0.9107  0.9179
  160SOL     OW  478   2.454   1.889   1.821 -0.3925  0.0503 -0.1770
  160SOL    HW1  479   2.490   1.830   1.748  0.8809  2.0892 -1.0037
  160SOL    HW2  480   2.359   1.868   1.851  1.9121 -2.0394  1.1035
  161SOL     OW  481   0.009   0.097   0.214 -0.2089  0.1904  0.1375
  161SOL    HW1  482   3.036   0.040   0.177  0.2301  1.5653  0.9470
  161SOL    HW2  483   0.093   0.046   0.204 -1.6204 -1.5173 -1.8980
  162SOL     OW  484   0.368   0.520   2.151 -0.6418  0.5761  0.2240
  162SOL    HW1  485   0.374   0.533   2.252 -0.7550  0.7764  0.0419
  162SOL    HW2  486   0.456   0.527   2.099  1.3641  0.8813  3.1935
  163SOL     OW  487   2.968   3.064   2.465 -0.5873  0.2708  0.7460
  163SOL    HW1  488   2.913   3.089   2.549 -1.6676 -1.8724  0.6464
  163SOL    HW2  489   2.958   2.969   2.434 -1.9418  2.6957  1.0897
  164SOL     OW  490   2.308   1.520   0.217  0.2984  1.1041 -0.0247
  164SOL    HW1  491   2.246   1.595   0.246  2.5296  0.4953 -0.4433
  164SOL    HW2  492   2.299   1.503   0.117  1.3904 -1.3926  1.4196
  165SOL     OW  493   0.675   0.105   1.297  0.0085 -0.3621  0.0950
  165SOL    HW1  494   0.615   0.155   1.363 -0.2729  0.1627  0.3128
  165SOL    HW2  495   0.744   0.057   1.348 -1.8198 -0.5769 -1.6670
  166SOL     OW  496   0.119   0.246   0.412  0.6072 -0.0616 -0.4165
  166SOL    HW1  497   0.215   0.270   0.388 -0.0076 -0.3109  1.6787
  166SOL    HW2  498   0.079   0.180   0.345  2.8406  0.2659  0.1973
  167SOL     OW  499   1.999   0.578   0.754  0.3979  0.1028  0.7231
  167SOL    HW1  500   1.960   0.607   0.843 -2.9434 -2.1279 -0.9716
  167SOL    HW2  501   1.976   0.477   0.739 -1.8748 -1.2263 -0.5789
  168SOL     OW  502   1.158   0.463   2.354  0.6908 -0.4293  0.2166
  168SOL    HW1  503   1.127   0.468   2.452  1.5781 -0.0419  3.1523
  168SOL    HW2  504   1.202   0.555   2.339 -0.9871 -0.2605  0.0737
  169SOL     OW  505   1.038   1.937   1.155 -0.1172 -0.0303  0.9625
  169SOL    HW1  506   1.080   1.874   1.081  1.4530 -2.0577  0.3938
  169SOL    HW2  507   1.000   2.021   1.117  2.0392  0.2915  0.1944
  170SOL     OW  508   2.941   3.087   1.711  0.4914 -0.0634  0.5238
  170SOL    HW1  509   2.987   3.028   1.649  0.3593  1.5043  2.4000
  170SOL    HW2  510   2.850   0.016   1.669 -0.2754  1.5092 -3.1904
  171SOL     OW  511   2.739   0.749   2.210  0.1477 -0.0023  0.1000
  171SOL    HW1  512   2.653   0.769   2.160  0.9837  0.1979  2.8315
  171SOL    HW2  513   2.726   0.688   2.290  2.2260  0.1552 -3.6952
  172SOL     OW  514   1.345   2.183   1.083 -0.1211  0.5313 -0.3774
  172SOL    HW1  515   1.272   2.216   1.026  1.3057 -0.2988 -0.2069
  172SOL    HW2  516   1.425   2.161   1.024 -1.5063  2.8795  0.8501
  173SOL     OW  517   2.445   2.372   0.195  0.1853  0.3489 -0.1364
  173SOL    HW1  518   2.348   2.334   0.208 -1.7419  1.3639  0.5718
  173SOL    HW2  519   2.447   2.437   0.120  1.8328 -1.6400 -0.3942
  174SOL     OW  520   1.707   0.817   0.334  0.6022  0.1479 -0.1128
  174SOL    HW1  521   1.700   0.756   0.251  1.8147  1.1649  1.7413
  174SOL    HW2  522   1.796   0.863   0.336  1.2069 -2.6471 -0.4007
  175SOL     OW  523   0.879   1.765   1.328  0.2061 -0.3418 -0.3833
  175SOL    HW1  524   0.822   1.685   1.302  1.6236  0.1288  1.2619
  175SOL    HW2  525   0.933   1.819   1.256  0.8012  2.6423  0.0667
  176SOL     OW  526   0.364   3.098   0.737 -0.2353  0.0657 -0.5156
  176SOL    HW1  527   0.447   3.079   0.793  0.3069  0.3076 -0.9633
  176SOL    HW2  528   0.319   3.012   0.719  1.0643  2.3351  1.2660
  177SOL     OW  529   2.725   1.337   0.339 -0.2155  0.1906 -0.0917
  177SOL    HW1  530   2.764   1.264   0.397  2.4083  0.2343 -0.4894
  177SOL    HW2  531   2.651   1.386   0.388 -0.4407 -1.2250 -0.0018
  178SOL     OW  532   2.689   2.434   2.157  0.5728 -0.0309 -0.7381
  178SOL    HW1  533   2.658   2.517   2.104 -0.0995 -0.0073 -0.5125
  178SOL    HW2  534   2.777   2.452   2.198 -1.7825  0.7086  2.2483
  179SOL     OW  535   2.486   3.086   0.110  0.7619 -0.2825 -0.1132
  179SOL    HW1  536   2.517   0.058   0.172  1.8565  4.1363  3.3091
  179SOL    HW2  537   2.391   3.097   0.075  1.2675  1.8270 -0.9733
  180SOL     OW  538   2.213   0.624   0.599  0.0890  0.0688  0.9253
  180SOL    HW1  539   2.135   0.612   0.660  0.8592  0.3272  0.6358
  180SOL    HW2  540   2.239   0.722   0.583 -0.2745  1.7441  1.5166
  181SOL     OW  541   2.910   0.166   2.810 -0.4006 -0.3482 -0.3203
  181SOL    HW1  542   3.002   0.128   2.829 -0.0425  1.8340  2.5693
  181SOL    HW2  543   2.848   0.094   2.769  4.9792 -2.4317  1.6350
  182SOL     OW  544   2.490   2.015   2.592  0.3367  0.6387  0.3930
  182SOL    HW1  545   2.414   2.034   2.527  0.1532 -0.3077  0.6680
  182SOL    HW2  546   2.465   1.951   2.668  1.9848  1.6243  0.1689
  183SOL     OW  547   0.134   0.915   1.604 -0.0226  0.0197  0.3827
  183SOL    HW1  548   0.169   0.946   1.513  1.9797 -1.6930 -2.6174
  183SOL    HW2  549   0.073   0.983   1.646  1.5208  2.0758 -4.1029
  184SOL     OW  550   0.092   1.436   1.321 -0.4677  0.1425 -0.5200
  184SOL    HW1  551   0.149   1.496   1.267 -0.7264 -0.1973 -1.5223
  184SOL    HW2  552   0.001   1.425   1.278  0.3114  0.6081 -1.7972
  185SOL     OW  553   2.901   2.932   1.341 -0.5250  0.1031 -0.8993
  185SOL    HW1  554   2.926   2.872   1.263  0.8351  1.9771  2.6179
  185SOL    HW2  555   2.968   3.009   1.347 -0.1971 -1.7481 -1.7713
  186SOL     OW  556   2.115   2.733   2.602 -0.6690  0.1998  0.0610
  186SOL    HW1  557   2.106   2.634   2.580 -0.1669  0.4949 -1.1328
  186SOL    HW2  558   2.032   2.786   2.591  0.2391  0.1562  0.2346
  187SOL     OW  559   0.235   1.207   0.702  0.2837 -0.1815 -0.0584
  187SOL    HW1  560   0.232   1.280   0.631 -2.3681  0.1940  0.3636
  187SOL    HW2  561   0.236   1.249   0.798  1.3344 -0.1126 -3.1086
  188SOL     OW  562   2.016   1.637   0.117 -0.8987  0.8285  0.0452
  188SOL    HW1  563   2.067   1.654   0.205  0.6418 -0.7917  1.8927
  188SOL    HW2  564   2.081   1.598   0.052 -1.7036 -1.3056  2.1853
  189SOL     OW  565   3.068   1.721   2.929  0.5464  0.2074  0.1639
  189SOL    HW1  566   0.027   1.643   2.951 -0.7127 -1.3362 -1.5638
  189SOL    HW2  567   0.001   1.795   2.861 -0.0091  1.4368 -0.3448
  190SOL     OW  568   2.318   0.727   2.235 -0.4470 -0.0521 -0.3579
  190SOL    HW1  569   2.289   0.824   2.259 -2.3336  0.6355 -0.8228
  190SOL    HW2  570   2.367   0.695   2.315 -0.1067 -2.3052  2.4250
  191SOL     OW  571   0.851   1.211   2.064  0.3041 -0.1274  0.5601
  191SOL    HW1  572   0.877   1.141   1.995 -0.3536  0.2229 -1.7311
  191SOL    HW2  573   0.772   1.182   2.126  0.3116  1.5515  1.2593
  192SOL     OW  574   2.048   1.470   1.876  0.3303 -0.5824  0.3714
  192SOL    HW1  575   1.952   1.444   1.845  0.3063  1.3118 -0.1591
  192SOL    HW2  576   2.103   1.491   1.791 -2.2959  0.5673 -1.1670
  193SOL     OW  577   0.808   0.141   0.865 -0.1231 -0.5212  0.1651
  193SOL    HW1  578   0.862   0.227   0.892  0.7272  0.9962  0.0254
  193SOL    HW2  579   0.851   0.091   0.788  0.3465 -0.1467 -0.1331
  194SOL     OW  580   1.489   1.446   1.748 -0.2741 -0.6090 -0.1076
  194SOL    HW1  581   1.536   1.360   1.713  2.3066 -1.2346  0.0538
  194SOL    HW2  582   1.444   1.426   1.835  2.8848 -0.7141 -0.7895
  195SOL     OW  583   1.816   0.219   0.979  0.0101 -0.4594  0.2209
  195SOL    HW1  584   1.746   0.153   0.954  0.0274 -0.9926 -0.4636
  195SOL    HW2  585   1.854   0.255   0.890 -2.3938 -2.7954 -0.8258
  196SOL     OW  586   1.102   1.515   1.941  0.2607 -0.0852 -0.1681
  196SOL    HW1  587   1.199   1.525   1.963  0.0073 -3.1024 -3.3931
  196SOL    HW2  588   1.083   1.489   1.844  0.4945 -1.6157  1.3140
  197SOL     OW  589   0.517   0.154   2.613  0.2501 -0.7697  0.3483
  197SOL    HW1  590   0.565   0.246   2.590  0.7450  3.3363  0.2471
  197SOL    HW2  591   0.581   0.077   2.606 -2.4456  3.5579 -2.7303
  198SOL     OW  592   3.060   0.883   0.844  0.0969 -0.6107 -0.2849
  198SOL    HW1  593   0.043   0.852   0.800  0.3466  1.4389  0.4464
  198SOL    HW2  594   3.008   0.798   0.876 -1.8267 -0.7618  1.7317
  199SOL     OW  595   0.497   2.053   0.995  0.0691 -0.8112 -0.1329
  199SOL    HW1  596   0.562   2.025   0.923 -0.0914  0.3240 -0.1747
  199SOL    HW2  597   0.437   2.121   0.952  2.2445 -2.1355 -0.3162
  200SOL     OW  598   2.766   1.858   2.701 -0.0902  0.1737  0.1708
  200SOL    HW1  599   2.837   1.785   2.691 -1.7277  1.2985  0.8850
  200SOL    HW2  600   2.676   1.822   2.737 -1.6895 -2.5277  2.2457
  201SOL     OW  601   0.856   2.570   1.185 -0.4968 -0.1343  0.6564
  201SOL    HW1  602   0.868   2.520   1.098  2.5556 -0.5409  0.7599
  201SOL    HW2  603   0.766   2.564   1.229 -0.1507 -0.2970  1.3514
  202SOL     OW  604   0.932   2.424   0.238  0.2954 -0.2163 -0.2114
  202SOL    HW1  605   0.902   2.424   0.143  1.3480  1.8294  1.7400
  202SOL    HW2  606   1.031   2.400   0.244 -0.4115  2.3065  2.0681
  203SOL     OW  607   1.630   2.976   3.015 -1.0170 -0.1273 -0.6803
  203SOL    HW1  608   1.573   3.057   3.034  0.0048  0.4681  1.5344
  203SOL    HW2  609   1.569   2.902   2.976  0.6797 -0.1918 -0.1260
  204SOL     OW  610   0.526   1.584   1.370 -0.3107  0.0894 -0.4707
  204SOL    HW1  611   0.601   1.581   1.305 -2.8592 -0.0846 -0.5126
  204SOL    HW2  612   0.553   1.528   1.453 -0.9110  2.0020 -1.8463
  205SOL     OW  613   2.105   1.321   2.317  0.2857  0.1100 -0.0010
  205SOL    HW1  614   2.168   1.394   2.286 -1.1726 -0.1159  1.5044
  205SOL    HW2  615   2.051   1.282   2.242 -4.3486  0.5910 -0.0664
  206SOL     OW  616   0.197   1.989   3.062 -0.2740  0.1540 -0.3922
  206SOL    HW1  617   0.164   1.973   2.967  0.7528  0.8549 -0.8833
  206SOL    HW2  618   0.150   1.915   0.016 -1.7838  0.2317 -1.1713
  207SOL     OW  619   0.436   2.244   2.273 -0.5538  0.2676 -0.5724
  207SOL    HW1  620   0.524   2.191   2.277  1.6652  2.4814 -1.0463
  207SOL    HW2  621   0.398   2.247   2.180  0.6821  0.0284  0.0903
  208SOL     OW  622   0.283   2.700   1.343  0.2155  0.0262  0.1815
  208SOL    HW1  623   0.248   2.612   1.376 -0.9030  0.5145  0.5198
  208SOL    HW2  624   0.249   2.782   1.395 -1.8824  1.4480  0.6504
  209SOL     OW  625   1.168   2.802   2.169 -0.9221  0.3211 -0.1847
  209SOL    HW1  626   1.162   2.717   2.110  2.4079 -0.8181 -1.7347
  209SOL    HW2  627   1.088   2.859   2.146  2.9337  1.3637  2.7666
  210SOL     OW  628   2.711   1.168   2.102 -0.6947  0.4149  0.1273
  210SOL    HW1  629   2.765   1.084   2.078 -0.7365 -0.5098  0.8475
  210SOL    HW2  630   2.615   1.160   2.068 -1.3662  0.1152  0.1456
  211SOL     OW  631   1.219   0.022   2.036  0.5948  0.5479 -0.0713
  211SOL    HW1  632   1.298   3.084   2.086  1.8291  0.1234  0.4117
  211SOL    HW2  633   1.240   0.116   2.005 -3.4795 -2.8076  1.5135
  212SOL     OW  634   1.876   2.590   1.944 -0.0348  0.1495 -0.7786
  212SOL    HW1  635   1.852   2.685   1.961  1.1172  1.4304  0.6355
  212SOL    HW2  636   1.948   2.556   2.012 -0.3366 -1.7912  1.8135
  213SOL     OW  637   2.666   0.519   1.677 -0.6078  0.2174 -0.3628
  213SOL    HW1  638   2.651   0.465   1.594  0.6486  0.6552  0.4373
  213SOL    HW2  639   2.637   0.614   1.657  0.4569 -1.8134  1.4445
  214SOL     OW  640   0.790   2.110   0.622  0.3884 -0.1184 -0.0349
  214SOL    HW1  641   0.852   2.048   0.674 -0.2367 -1.0123  2.0370
  214SOL    HW2  642   0.835   2.187   0.578 -3.2445 -0.2474  1.0417
  215SOL     OW  643   2.531   1.759   0.772  0.2072  0.0342 -0.3829
  215SOL    HW1  644   2.606   1.800   0.829  0.8281  1.8749 -0.8802
  215SOL    HW2  645   2.487   1.832   0.715 -0.4113  0.5201  3.1719
  216SOL     OW  646   2.787   0.795   1.698  0.0165  0.0433  0.7553
  216SOL    HW1  647   2.795   0.897   1.718 -1.1449  2.5778  2.8170
  216SOL    HW2  648   2.854   0.744   1.757  1.3146 -0.5186 -0.2878
  217SOL     OW  649   2.182   0.399   1.476  0.1106 -0.3063 -0.3124
  217SOL    HW1  650   2.217   0.400   1.380 -3.5313 -1.2389  0.2612
  217SOL    HW2  651   2.145   0.492   1.496  2.0919 -0.5125  0.3989
  218SOL     OW  652   1.985   2.492   1.396 -0.0812  0.3953 -0.7483
  218SOL    HW1  653   1.927   2.539   1.328  1.2781 -1.2107 -0.3124
  218SOL    HW2  654   1.974   2.529   1.488 -1.2486 -0.8910 -1.0011
  219SOL     OW  655   2.190   2.295   0.185 -0.1331  0.2663 -0.5403
  219SOL    HW1  656   2.096   2.255   0.207 -0.7009  1.5764  1.5079
  219SOL    HW2  657   2.177   2.353   0.101 -0.4775 -1.9427 -0.1095
  220SOL     OW  658   1.528   2.883   0.361  0.5437  0.1355 -0.2287
  220SOL    HW1  659   1.541   2.796   0.413 -1.6402 -0.5408 -0.4810
  220SOL    HW2  660   1.514   2.850   0.260  0.2966 -0.9418  0.4097
  221SOL     OW  661   0.028   2.141   1.744 -0.2314  0.0501  0.4614
  221SOL    HW1  662   3.047   2.087   1.723  0.3723  2.1851  0.9330
  221SOL    HW2  663   0.103   2.078   1.775 -0.3293  0.9993 -1.6350
  222SOL     OW  664   1.774   2.372   0.916 -0.1018 -0.2488  0.7588
  222SOL    HW1  665   1.860   2.404   0.962 -2.4233  4.1423  1.3857
  222SOL    HW2  666   1.776   2.270   0.909 -2.4228  0.0235 -2.7799
  223SOL     OW  667   1.355   2.566   1.236  0.1580  0.0241 -0.2917
  223SOL    HW1  668   1.375   2.630   1.309 -0.0204 -0.6109 -0.5456
  223SOL    HW2  669   1.336   2.474   1.276 -0.0453  0.1828 -0.5570
  224SOL     OW  670   2.807   2.532   1.429 -0.1337 -0.0505 -0.0240
  224SOL    HW1  671   2.875   2.532   1.356  0.1979 -1.5793  0.7288
  224SOL    HW2  672   2.845   2.523   1.527  0.7748  0.6943  2.9432
  225SOL     OW  673   2.327   2.185   0.867  0.2041  0.1829  0.1333
  225SOL    HW1  674   2.230   2.164   0.889 -1.5963  0.4117  0.3635
  225SOL    HW2  675   2.341   2.219   0.770  1.3004 -1.1891  0.5773
  226SOL     OW  676   1.444   2.397   0.299  0.0975 -0.0619  0.3103
  226SOL    HW1  677   1.472   2.345   0.220 -0.0385  0.0746 -1.5214
  226SOL    HW2  678   1.368   2.354   0.350 -0.1252  0.1889  3.1708
  227SOL     OW  679   1.930   1.087   0.708  0.2518  0.1541 -0.2052
  227SOL    HW1  680   1.849   1.130   0.755 -0.6634 -0.2929 -1.0670
  227SOL    HW2  681   1.899   1.004   0.664 -1.0649  2.3071  0.5073
  228SOL     OW  682   1.591   0.685   0.103  0.3307  0.0578  0.2960
  228SOL    HW1  683   1.597   0.634   0.014 -3.5475  0.9790 -2.3134
  228SOL    HW2  684   1.527   0.640   0.168  0.3465 -1.8774  3.4422
  229SOL     OW  685   2.724   1.001   2.353 -0.4838 -0.4876  0.1517
  229SOL    HW1  686   2.745   0.923   2.291 -0.9805  0.3184  0.6820
  229SOL    HW2  687   2.763   1.091   2.318  1.2456  0.7243 -1.3756
  230SOL     OW  688   0.407   1.163   1.096  0.2972  0.5217 -0.0263
  230SOL    HW1  689   0.424   1.199   1.188  0.4040  0.4265  0.0409
  230SOL    HW2  690   0.492   1.129   1.046  3.8970 -2.0832  0.0683
  231SOL     OW  691   2.412   0.487   2.680  0.9389  0.1933  0.5548
  231SOL    HW1  692   2.367   0.511   2.775  1.1238  1.0226  1.9567
  231SOL    HW2  693   2.511   0.495   2.688 -1.2824  1.4335  1.4254
  232SOL     OW  694   2.953   2.023   0.820  0.5806 -0.2592  0.2772
  232SOL    HW1  695   3.039   2.029   0.868  0.3696 -1.4918  1.7849
  232SOL    HW2  696   2.946   2.095   0.750  1.0031 -1.8264  1.3009
  233SOL     OW  697   1.849   2.784   2.616  0.3891 -0.2186 -0.1261
  233SOL    HW1  698   1.810   2.732   2.694 -0.8193  1.2831 -0.9898
  233SOL    HW2  699   1.828   2.880   2.633  0.0181 -1.9785 -0.1453
  234SOL     OW  700   1.437   1.970   1.255 -0.4447 -0.1332 -0.4627
  234SOL    HW1  701   1.527   1.995   1.297  1.7138 -0.2853  2.1488
  234SOL    HW2  702   1.398   2.053   1.214  4.6786  1.9339 -0.2222
  235SOL     OW  703   1.010   1.893   1.716 -0.0961 -0.8012 -0.0030
  235SOL    HW1  704   0.916   1.890   1.745  1.2690  2.2540  4.2623
  235SOL    HW2  705   1.029   1.815   1.655  0.0019  0.2408  0.0903
  236SOL     OW  706   0.811   2.508   2.758  0.0667  0.0902 -0.3992
  236SOL    HW1  707   0.844   2.573   2.828 -0.6163 -1.7326  0.4317
  236SOL    HW2  708   0.714   2.520   2.727 -3.1430  1.2372  0.1518
  237SOL     OW  709   0.539   2.912   1.511 -0.2258 -0.6156 -0.2395
  237SOL    HW1  710   0.511   2.825   1.559  1.7928  0.0843  0.9132
  237SOL    HW2  711   0.557   2.982   1.578 -2.2833 -1.8591 -3.4385
  238SOL     OW  712   1.044   0.759   0.224  0.5968 -0.2714 -0.1009
  238SOL    HW1  713   1.112   0.754   0.300 -0.6455 -0.1140 -0.4138
  238SOL    HW2  714   0.950   0.765   0.257  1.2747 -3.3261 -0.2509
  239SOL     OW  715   2.381   0.849   2.913  0.0865 -0.0406 -0.2296
  239SOL    HW1  716   2.355   0.867   2.812 -2.6223 -0.3717 -2.8257
  239SOL    HW2  717   2.375   0.751   2.932  1.1277 -0.5761 -1.2532
  240SOL     OW  718   2.891   2.076   1.102  0.1738  1.0829  0.7632
  240SOL    HW1  719   2.796   2.044   1.097 -0.2500 -0.0257  1.0621
  240SOL    HW2  720   2.953   1.999   1.088 -0.3666  1.4743 -1.3485
  241SOL     OW  721   1.133   1.627   0.735  0.8593  0.2813  0.1356
  241SOL    HW1  722   1.213   1.621   0.675 -0.3531 -0.9101  2.7056
  241SOL    HW2  723   1.041   1.601   0.692  1.2244  2.0078  0.5404
  242SOL     OW  724   0.981   0.509   0.830 -0.6954  0.1742  0.1470
  242SOL    HW1  725   0.885   0.532   0.831  2.9361  0.0250 -1.0907
  242SOL    HW2  726   1.014   0.509   0.730 -2.1788 -3.8058 -0.4599
  243SOL     OW  727   0.361   0.545   1.190 -0.4047 -0.2359  0.5240
  243SOL    HW1  728   0.348   0.456   1.140 -1.4301 -2.2117 -0.4493
  243SOL    HW2  729   0.356   0.619   1.121 -1.4760 -1.7108 -0.4575
  244SOL     OW  730   1.082   0.090   0.405 -0.5239  0.3676  0.5801
  244SOL    HW1  731   1.041   0.049   0.490 -0.5432  1.3345  1.2937
  244SOL    HW2  732   1.065   0.194   0.400 -0.0248  1.9450  1.4260
  245SOL     OW  733   1.962   0.867   0.364 -0.0725  0.2553 -0.0160
  245SOL    HW1  734   1.933   0.840   0.459 -2.3151 -0.2596  0.2105
  245SOL    HW2  735   2.039   0.936   0.363 -1.9628 -0.4514 -3.5475
  246SOL     OW  736   0.290   0.220   1.655  0.5086 -0.0338  0.2405
  246SOL    HW1  737   0.281   0.119   1.650 -0.3593  1.3453  0.2137
  246SOL    HW2  738   0.201   0.267   1.632 -0.6863  0.9139  1.0655
  247SOL     OW  739   0.971   0.055   1.889 -0.0099  0.4942  0.1386
  247SOL    HW1  740   1.006   0.064   1.793  0.9370  0.3306 -0.0657
  247SOL    HW2  741   1.042   0.028   1.961 -0.3898 -0.7117  1.7050
  248SOL     OW  742   0.445   1.833   2.092  0.1658  0.5354  0.1839
  248SOL    HW1  743   0.520   1.900   2.092  0.5671  0.1408  2.3004
  248SOL    HW2  744   0.461   1.755   2.156 -0.5696 -1.8818 -0.7747
  249SOL     OW  745   0.526   2.468   0.260 -0.0925  0.0716  0.3884
  249SOL    HW1  746   0.425   2.492   0.252 -1.1082  0.6554  1.5880
  249SOL    HW2  747   0.572   2.501   0.177 -0.8720 -1.3366  0.0133
  250SOL     OW  748   0.657   0.192   2.114  0.4624 -0.3198 -0.5527
  250SOL    HW1  749   0.566   0.154   2.148 -2.3004  1.5908 -0.2087
  250SOL    HW2  750   0.683   0.159   2.021  0.9560  1.8719  0.3555
  251SOL     OW  751   2.914   1.984   1.699 -0.0863  0.1917 -0.2110
  251SOL    HW1  752   2.904   1.893   1.742 -1.1203  1.4795 -0.9700
  251SOL    HW2  753   2.821   2.024   1.676  2.5020 -1.8605 -0.8699
  252SOL     OW  754   1.341   0.252   1.698  0.1388  0.3047 -0.0190
  252SOL    HW1  755   1.321   0.282   1.796 -1.9147  2.0917  0.6292
  252SOL    HW2  756   1.376   0.158   1.694  0.8997 -0.4062 -0.4306
  253SOL     OW  757   2.351   2.050   2.362 -0.0446  0.2231  0.2122
  253SOL    HW1  758   2.411   2.131   2.334  0.6660  0.5882 -0.6997
  253SOL    HW2  759   2.254   2.077   2.370 -0.7720  2.8321 -1.4530
  254SOL     OW  760   0.928   1.577   0.991 -0.2938  1.0653  0.2592
  254SOL    HW1  761   0.995   1.635   0.951 -0.2712 -0.7475 -0.1371
  254SOL    HW2  762   0.929   1.491   0.931  1.1102 -3.0008 -1.1070
  255SOL     OW  763   0.160   2.707   1.962  0.1773 -0.0008 -0.0012
  255SOL    HW1  764   0.077   2.660   2.001  0.5464  1.1327 -1.2240
  255SOL    HW2  765   0.192   2.656   1.880  0.5385 -2.1841  1.1877
  256SOL     OW  766   0.235   2.777   0.422 -0.0664  0.6379  0.4141
  256SOL    HW1  767   0.262   2.718   0.339 -0.4578 -0.1935 -1.9116
  256SOL    HW2  768   0.147   2.747   0.465  0.2156  0.6039  0.8972
  257SOL     OW  769   1.196   2.507   2.286 -0.0720 -0.1661 -0.0966
  257SOL    HW1  770   1.296   2.515   2.286 -2.3932 -3.2405  1.1130
  257SOL    HW2  771   1.154   2.499   2.191 -1.7427 -1.1916 -0.2148
  258SOL     OW  772   1.493   2.033   1.849 -0.0994 -0.3800 -0.0789
  258SOL    HW1  773   1.447   2.102   1.790 -1.6442 -2.5585 -1.6946
  258SOL    HW2  774   1.586   2.013   1.808  1.6623 -1.2710 -0.3309
  259SOL     OW  775   0.907   0.873   2.002 -0.4705  0.0094 -0.0552
  259SOL    HW1  776   0.976   0.869   1.927  3.2213  2.1849 -3.3735
  259SOL    HW2  777   0.812   0.853   1.977  1.5516  1.7106  1.5435
  260SOL     OW  778   2.892   0.829   2.763  0.5100  0.4546  0.0975
  260SOL    HW1  779   2.946   0.786   2.840 -0.3176 -1.1487 -3.0899
  260SOL    HW2  780   2.793   0.801   2.775 -0.4892 -3.3077 -2.4776
  261SOL     OW  781   0.885   1.285   0.947 -0.2788  0.1667  0.3295
  261SOL    HW1  782   0.921   1.300   1.043  1.2752  1.9573 -0.2363
  261SOL    HW2  783   0.961   1.274   0.880 -2.2601  2.0614  0.9440
  262SOL     OW  784   2.126   2.179   2.434 -0.2882 -0.1850  0.0658
  262SOL    HW1  785   2.129   2.280   2.423 -0.7058  1.2633  1.8224
  262SOL    HW2  786   2.045   2.152   2.484 -0.5013  0.6298 -1.2421
  263SOL     OW  787   0.760   2.822   0.898  0.3527  0.0101  0.1022
  263SOL    HW1  788   0.810   2.858   0.978 -2.7314  0.1312 -1.2055
  263SOL    HW2  789   0.713   2.734   0.917  2.7534 -1.8886 -0.4127
  264SOL     OW  790   2.861   2.116   0.503  0.2553 -0.1144  0.7525
  264SOL    HW1  791   2.816   2.171   0.572  2.4609 -0.3581  0.2795
  264SOL    HW2  792   2.801   2.072   0.430 -2.0501  0.0075  4.5499
  265SOL     OW  793   2.077   1.313   2.591 -0.0811  0.2305  0.4531
  265SOL    HW1  794   2.087   1.298   2.490  1.3100 -0.1188  0.2131
  265SOL    HW2  795   2.151   1.376   2.630  0.3541  1.9367 -1.1724
  266SOL     OW  796   1.369   1.831   2.002  0.3517  0.6923  0.0904
  266SOL    HW1  797   1.411   1.916   1.970 -2.7238 -2.5483  0.4231
  266SOL    HW2  798   1.334   1.841   2.096  1.1016 -1.3036 -2.1281
  267SOL     OW  799   2.457   0.650   2.473 -0.1714 -0.5421 -0.4536
  267SOL    HW1  800   2.499   0.737   2.500  0.9450 -0.9149  2.7229
  267SOL    HW2  801   2.446   0.580   2.548 -2.4328  2.0706 -0.8219
  268SOL     OW  802   0.973   1.099   2.889  0.4233 -0.1902  0.4419
  268SOL    HW1  803   1.006   1.188   2.855 -2.4591 -4.8248 -0.1363
  268SOL    HW2  804   0.956   1.042   2.807 -0.0138  1.7915  3.2813
  269SOL     OW  805   0.150   2.052   2.067 -0.6629  0.1712  0.1308
  269SOL    HW1  806   0.157   1.967   2.127  1.4890  0.3979 -0.5836
  269SOL    HW2  807   0.053   2.083   2.067  4.1406  0.5842 -0.9787
  270SOL     OW  808   3.102   1.840   0.068  0.1468 -0.2249 -0.6036
  270SOL    HW1  809   3.081   1.767   0.135  2.3441  1.7270 -1.3464
  270SOL    HW2  810   3.084   1.799   3.081  0.6673 -0.5579 -0.4192
  271SOL     OW  811   0.370   0.328   0.326 -0.1280  0.3057  0.2217
  271SOL    HW1  812   0.443   0.271   0.370  0.8704 -2.2425 -4.8126
  271SOL    HW2  813   0.356   0.422   0.361  0.6147  1.1699  2.0592
  272SOL     OW  814   3.073   2.823   0.671 -0.2366  0.0689 -0.1316
  272SOL    HW1  815   3.023   2.753   0.728  0.5519  0.2411  2.8287
  272SOL    HW2  816   3.058   2.803   0.572 -2.3259 -0.8506  1.8167
  273SOL     OW  817   0.216   2.974   1.963 -0.6618 -0.0572  0.1268
  273SOL    HW1  818   0.259   2.994   2.055  1.9096  0.1857 -1.6268
  273SOL    HW2  819   0.193   2.875   1.953  0.5384 -3.4995 -0.9302
  274SOL     OW  820   0.186   0.356   1.374 -0.1932 -0.2952  0.6457
  274SOL    HW1  821   0.206   0.330   1.274 -2.1832 -0.2918  0.9193
  274SOL    HW2  822   0.250   0.436   1.400  2.1608  1.3700  0.6545
  275SOL     OW  823   1.171   1.759   0.970  0.3817  0.6372 -0.2203
  275SOL    HW1  824   1.270   1.782   0.982 -1.7187 -1.5852  0.5993
  275SOL    HW2  825   1.148   1.716   0.881 -2.4738 -0.1104  0.2025
  276SOL     OW  826   0.732   1.393   1.831  0.2247  0.4937 -0.1003
  276SOL    HW1  827   0.783   1.399   1.918 -1.1171  0.1286 -0.6223
  276SOL    HW2  828   0.644   1.438   1.843  0.8744  0.6345 -1.3667
  277SOL     OW  829   1.362   2.228   1.712  0.4142 -0.1201 -0.3286
  277SOL    HW1  830   1.396   2.308   1.769  1.1961  0.6489  0.0056
  277SOL    HW2  831   1.269   2.200   1.743 -3.0106 -2.6789 -1.4257
  278SOL     OW  832   2.087   2.946   2.219 -0.1024 -0.1842 -0.2218
  278SOL    HW1  833   1.993   2.933   2.252  2.0982 -1.2000 -0.8325
  278SOL    HW2  834   2.117   3.043   2.222  1.8172 -2.4435 -1.9002
  279SOL     OW  835   1.429   1.636   3.027  0.1108  0.9051 -0.0999
  279SOL    HW1  836   1.489   1.602   2.953  3.1409 -0.0878 -2.3473
  279SOL    HW2  837   1.407   1.733   3.025 -1.5183 -2.5535  1.4446
  280SOL     OW  838   1.650   0.378   0.688 -0.1366  0.5433 -0.4999
  280SOL    HW1  839   1.586   0.298   0.702  1.4281 -3.9021  2.0070
  280SOL    HW2  840   1.609   0.437   0.618 -0.0093  0.6041  0.5952
  281SOL     OW  841   0.169   0.357   2.106 -0.4334  0.2994  0.4198
  281SOL    HW1  842   0.154   0.381   2.003 -1.8037 -0.8088  0.2467
  281SOL    HW2  843   0.250   0.410   2.129  0.0589  0.2073  0.1489
  282SOL     OW  844   0.265   2.832   0.685  0.0327 -0.4275 -0.6763
  282SOL    HW1  845   0.165   2.828   0.720 -2.2749 -0.4909  1.4898
  282SOL    HW2  846   0.267   2.822   0.582  0.5012 -2.8461  1.6537
  283SOL     OW  847   1.312   2.312   1.314  0.4614  0.1491 -0.0863
  283SOL    HW1  848   1.312   2.264   1.224 -3.5341  0.3151  2.4566
  283SOL    HW2  849   1.355   2.251   1.383  0.4203  0.0016  2.1042
  284SOL     OW  850   2.230   2.587   1.365 -0.3141  0.3976  1.1422
  284SOL    HW1  851   2.312   2.528   1.361 -0.2146  0.4106 -0.8385
  284SOL    HW2  852   2.138   2.540   1.376 -0.8667  2.0553  1.5454
  285SOL     OW  853   0.586   1.928   0.761  0.2802 -0.4764  0.9796
  285SOL    HW1  854   0.635   2.009   0.726 -0.7045 -0.6767  1.7436
  285SOL    HW2  855   0.510   1.902   0.694 -1.1519  0.2686 -2.2875
  286SOL     OW  856   3.044   2.568   2.023  0.4447 -0.3287  0.0303
  286SOL    HW1  857   2.960   2.626   2.046 -1.2752  1.8429  2.9488
  286SOL    HW2  858   3.007   2.501   1.951 -1.6665  0.8495 -1.2574
  287SOL     OW  859   0.662   1.090   0.925  0.0954 -0.3968  0.4835
  287SOL    HW1  860   0.729   1.165   0.923 -4.3673  1.8321  0.0448
  287SOL    HW2  861   0.618   1.081   0.834  1.2948  0.7289 -1.6018
  288SOL     OW  862   1.379   2.265   2.748  0.4692  0.8065 -0.1096
  288SOL    HW1  863   1.358   2.181   2.697  2.2668  0.6763  0.1960
  288SOL    HW2  864   1.299   2.277   2.811 -1.0774 -0.4430  2.3130
  289SOL     OW  865   2.377   1.322   2.763 -0.0252 -0.2992  0.0503
  289SOL    HW1  866   2.308   1.291   2.831  0.3923  1.2102  1.3063
  289SOL    HW2  867   2.352   1.406   2.714  2.9754 -1.2036  0.0067
  290SOL     OW  868   1.512   1.564   1.062  0.8624 -0.4661 -0.1475
  290SOL    HW1  869   1.474   1.503   0.988  0.5807 -1.0208 -0.5400
  290SOL    HW2  870   1.489   1.662   1.046  1.2481  1.5671 -1.3344
  291SOL     OW  871   1.102   0.960   0.012  0.0723  0.5446  0.3860
  291SOL    HW1  872   1.081   0.876   0.066 -0.5064 -0.9691 -0.5631
  291SOL    HW2  873   1.032   0.994   3.049  0.0837  1.0264 -0.6476
  292SOL     OW  874   1.860   1.477   0.677  0.0951 -0.7189 -0.2404
  292SOL    HW1  875   1.956   1.470   0.647 -1.1850  4.0305  0.3435
  292SOL    HW2  876   1.813   1.393   0.708 -1.3485  2.2112 -0.5034
  293SOL     OW  877   1.552   3.066   1.108  0.1154  0.0122 -0.0017
  293SOL    HW1  878   1.601   3.060   1.192 -3.0112 -4.0441 -3.7954
  293SOL    HW2  879   1.548   0.061   1.074  2.1820  0.0674 -1.0362
  294SOL     OW  880   2.138   0.966   0.074 -0.0581  0.2287  0.4853
  294SOL    HW1  881   2.228   0.978   0.030 -2.6315  0.2637  1.2252
  294SOL    HW2  882   2.137   0.960   0.178  1.1775 -0.2151 -0.4899
  295SOL     OW  883   2.102   2.085   2.739 -0.3913 -0.1681 -0.5575
  295SOL    HW1  884   2.023   2.038   2.712 -0.1496 -0.0261  2.2080
  295SOL    HW2  885   2.115   2.165   2.678  0.2576 -0.6422  1.5679
  296SOL     OW  886   1.491   1.506   1.349  0.4182 -0.8283  0.1879
  296SOL    HW1  887   1.508   1.507   1.251  1.4709  1.8686 -0.4274
  296SOL    HW2  888   1.422   1.575   1.373 -2.0527  0.4049  0.0136
  297SOL     OW  889   0.449   0.811   2.426 -0.2495  0.0913  0.1204
  297SOL    HW1  890   0.414   0.775   2.516  0.9713  2.7019  0.7563
  297SOL    HW2  891   0.524   0.873   2.440 -1.2668  0.9342 -1.7714
  298SOL     OW  892   1.729   2.629   1.457 -0.0544 -0.5266  0.1500
  298SOL    HW1  893   1.704   2.556   1.526  2.4236  1.1036  1.4235
  298SOL    HW2  894   1.744   2.723   1.501 -1.9313  2.2687  3.0050
  299SOL     OW  895   1.108   0.520   2.653  0.0635 -0.5003 -0.3036
  299SOL    HW1  896   1.064   0.614   2.657  0.7422  0.9208 -0.2955
  299SOL    HW2  897   1.072   0.457   2.723 -0.2781  1.9416  0.1971
  300SOL     OW  898   2.001   1.232   0.176 -0.0672  0.3914 -0.5821
  300SOL    HW1  899   1.988   1.177   0.094 -3.3629  1.0622  0.2966
  300SOL    HW2  900   1.944   1.313   0.164  2.2828 -1.9944 -0.0554
  301SOL     OW  901   2.319   0.316   2.459  0.0917 -0.5165  0.1956
  301SOL    HW1  902   2.388   0.306   2.380  0.9415 -0.6517  1.1742
  301SOL    HW2  903   2.361   0.379   2.527 -1.9712 -1.4621 -0.9863
  302SOL     OW  904   2.624   1.539   2.575 -0.5510  0.3723  0.7094
  302SOL    HW1  905   2.577   1.480   2.506 -1.8142  0.0631 -1.5273
  302SOL    HW2  906   2.560   1.612   2.612  0.9754  0.8439  3.1717
  303SOL     OW  907   0.061   2.429   2.486 -0.1321  0.1058 -0.1370
  303SOL    HW1  908   0.082   2.437   2.386 -1.0939  0.9938 -0.5052
  303SOL    HW2  909   0.043   2.519   2.523  1.5348  1.3431  1.0605
  304SOL     OW  910   2.942   1.411   1.190 -0.2797  0.2807  0.1673
  304SOL    HW1  911   2.865   1.341   1.188 -2.9888 -1.2731  0.8751
  304SOL    HW2  912   3.004   1.401   1.108  0.7383  0.2547 -1.3314
  305SOL     OW  913   0.020   0.369   2.333  0.4576  0.3168 -0.0871
  305SOL    HW1  914   0.077   0.351   2.247 -0.0167 -0.6418  0.1500
  305SOL    HW2  915   0.068   0.342   2.420 -0.8950  1.1506 -0.8707
  306SOL     OW  916   1.279   1.396   0.530 -0.1346  0.0411  0.1482
  306SOL    HW1  917   1.298   1.298   0.539 -1.4090 -0.4043  0.2795
  306SOL    HW2  918   1.362   1.444   0.489 -0.0159  1.9083 -0.4905
  307SOL     OW  919   3.072   0.031   1.295  0.4536  0.2782 -0.0860
  307SOL    HW1  920   0.066   0.054   1.328  2.4756 -0.5161  0.1622
  307SOL    HW2  921   3.011   0.112   1.279  1.2429  1.9718  0.9644
  308SOL     OW  922   2.996   1.721   2.645  0.2239  0.1418 -0.2405
  308SOL    HW1  923   2.972   1.656   2.718  0.9996  0.4006  0.0102
  308SOL    HW2  924   2.960   1.689   2.555 -1.0527 -0.5111 -0.2014
  309SOL     OW  925   0.070   1.936   2.807  0.3648 -0.2334  0.1489
  309SOL    HW1  926   3.094   1.977   2.758 -1.0814 -1.0550  0.6072
  309SOL    HW2  927   0.150   1.927   2.749  0.5845  0.0341  0.3705
  310SOL     OW  928   2.413   0.381   0.159 -0.5840  0.6036  0.4073
  310SOL    HW1  929   2.513   0.389   0.141  0.8535  0.5954 -2.0909
  310SOL    HW2  930   2.382   0.458   0.215 -0.1283  1.0001  0.1350
  311SOL     OW  931   1.968   1.258   2.986  0.1963  0.5214  0.3000
  311SOL    HW1  932   1.899   1.190   2.989 -0.0062  1.8349 -1.1118
  311SOL    HW2  933   1.923   1.349   3.001 -1.4676  1.0128  1.7685
  312SOL     OW  934   1.273   1.167   2.193  0.1129  0.3710  0.1469
  312SOL    HW1  935   1.196   1.226   2.184  0.7452 -0.4738 -3.8130
  312SOL    HW2  936   1.255   1.074   2.161  0.8474  0.3761  2.4625
  313SOL     OW  937   0.178   0.486   0.040 -0.2872 -0.0474  0.5374
  313SOL    HW1  938   0.159   0.395   0.004 -0.7154  0.0515  2.1488
  313SOL    HW2  939   0.130   0.490   0.128  0.6855  1.3070  0.1132
  314SOL     OW  940   0.385   1.797   1.525 -0.7718  0.7542 -0.2861
  314SOL    HW1  941   0.431   1.846   1.600 -3.0285 -2.9828  1.7274
  314SOL    HW2  942   0.454   1.752   1.458  2.1765 -1.7241 -1.0584
  315SOL     OW  943   1.304   1.745   1.384  0.0073 -0.1456 -0.4159
  315SOL    HW1  944   1.361   1.730   1.472  0.8943 -2.3039  0.7595
  315SOL    HW2  945   1.329   1.833   1.334  0.7964 -1.0290 -2.5055
  316SOL     OW  946   0.185   2.158   0.646  0.3434  0.2330 -0.0638
  316SOL    HW1  947   0.138   2.096   0.583  2.7181  2.6310  0.1646
  316SOL    HW2  948   0.284   2.166   0.618  0.7970 -1.7815 -2.3648
  317SOL     OW  949   2.579   0.251   1.122 -0.4041  0.2055 -0.2987
  317SOL    HW1  950   2.563   0.315   1.194  0.5995 -0.1662 -5.6599
  317SOL    HW2  951   2.595   0.155   1.160 -1.9552 -1.9810  1.5583
  318SOL     OW  952   1.281   2.783   0.167  0.4850  0.2045  0.1878
  318SOL    HW1  953   1.229   2.779   0.254  1.0509 -0.3062  0.8150
  318SOL    HW2  954   1.321   2.877   0.141  1.2363  5.3538 -0.8123
  319SOL     OW  955   1.471   0.116   2.962  0.1562 -0.1760 -0.3261
  319SOL    HW1  956   1.433   0.180   3.035 -0.1478  0.7853  2.2896
  319SOL    HW2  957   1.511   0.170   2.885  0.0385 -0.2762 -0.6791
  320SOL     OW  958   2.569   2.013   2.046  0.3855  0.1266 -0.0002
  320SOL    HW1  959   2.604   1.939   2.110  1.3655  0.1332  1.4560
  320SOL    HW2  960   2.545   1.987   1.948 -1.6948  2.3045 -0.0614
  321SOL     OW  961   0.136   2.511   0.028 -0.1419  0.2631 -0.0164
  321SOL    HW1  962   0.059   2.577   0.020 -0.2842 -0.9865 -2.4414
  321SOL    HW2  963   0.101   2.419   0.055  0.0374  0.5147  0.2981
  322SOL     OW  964   2.744   1.050   1.737  0.2449  0.1388 -0.4055
  322SOL    HW1  965   2.696   1.078   1.653  1.5518  1.4484  3.9856
  322SOL    HW2  966   2.686   1.057   1.822  2.0526  0.6321  2.9575
  323SOL     OW  967   1.693   1.326   0.089  0.0917  0.6624 -0.7061
  323SOL    HW1  968   1.596   1.368   0.088 -0.6213  0.8607  0.2263
  323SOL    HW2  969   1.684   1.225   0.076 -0.6724  1.0192 -0.7901
  324SOL     OW  970   3.042   0.328   1.491  0.0319  0.6798  0.0032
  324SOL    HW1  971   0.036   0.329   1.456  0.1606 -0.1470 -0.1144
  324SOL    HW2  972   3.042   0.321   1.591  0.5055 -0.1241  1.0153
  325SOL     OW  973   2.643   2.985   1.419 -0.5681  0.3642  0.3093
  325SOL    HW1  974   2.732   2.948   1.383 -1.5206  3.5689  0.6908
  325SOL    HW2  975   2.662   3.050   1.495 -3.3759 -4.5498 -1.6171
  326SOL     OW  976   1.766   2.639   0.315 -0.7204  0.1756  0.3519
  326SOL    HW1  977   1.747   2.715   0.252  0.3924  0.2285 -0.0094
  326SOL    HW2  978   1.690   2.623   0.384 -1.6303 -1.4621  3.9212
  327SOL     OW  979   2.091   2.059   0.415  0.0837  0.2499  0.5481
  327SOL    HW1  980   2.049   1.996   0.479  0.8448  0.5369  0.8072
  327SOL    HW2  981   2.022   2.087   0.346 -0.8858 -0.5415  1.7809
  328SOL     OW  982   2.704   2.308   1.886 -0.7996 -0.4830 -0.4990
  328SOL    HW1  983   2.803   2.299   1.880 -0.3300 -3.9848  0.2227
  328SOL    HW2  984   2.687   2.323   1.984 -1.0740  0.8087 -2.4022
  329SOL     OW  985   0.185   2.147   1.157 -0.0537 -0.1527 -0.0031
  329SOL    HW1  986   0.182   2.250   1.157  2.1512 -2.9422 -0.3831
  329SOL    HW2  987   0.218   2.104   1.242 -2.8010 -1.2243 -2.1035
  330SOL     OW  988   2.206   0.972   2.348  0.0744  0.1418  0.3264
  330SOL    HW1  989   2.157   0.974   2.437 -1.2088 -0.7769  0.2828
  330SOL    HW2  990   2.269   1.053   2.341 -0.6002  0.5292  0.8662
  331SOL     OW  991   2.143   1.448   0.494 -0.3950  0.5388  1.3424
  331SOL    HW1  992   2.227   1.437   0.438  0.0754  0.4262  1.1868
  331SOL    HW2  993   2.069   1.382   0.470 -3.0266  1.2477 -0.9087
  332SOL     OW  994   0.154   2.905   1.472 -0.1299  0.2725  0.7608
  332SOL    HW1  995   0.056   2.881   1.484 -1.5918  0.8383 -0.6755
  332SOL    HW2  996   0.160   2.991   1.416 -0.7364 -0.3858  1.4391
  333SOL     OW  997   0.061   1.641   2.079 -0.4203 -0.8524  0.3401
  333SOL    HW1  998   0.011   1.686   2.000 -0.5511  2.2276 -0.0503
  333SOL    HW2  999   0.136   1.586   2.040  1.2709 -1.0588  2.3691
  334SOL     OW 1000   0.346   0.768   1.350  0.1014  0.1877 -0.5000
  334SOL    HW1 1001   0.293   0.851   1.312  0.3451  1.1174 -1.9177
  334SOL    HW2 1002   0.317   0.678   1.303  2.0496 -1.5594 -3.0031
  335SOL     OW 1003   2.900   1.859   2.011 -0.1705 -0.3335 -0.3086
  335SOL    HW1 1004   2.971   1.831   1.941  1.9051  0.3238 -3.7280
  335SOL    HW2 1005   2.858   1.774   2.049  5.6056 -0.2020 -0.1182
  336SOL     OW 1006   1.892   3.050   2.980 -0.0535 -0.2466 -0.1709
  336SOL    HW1 1007   1.795   3.018   2.965  0.2788  0.8441 -1.9935
  336SOL    HW2 1008   1.957   2.973   2.978 -0.0479  1.9982  0.5903
  337SOL     OW 1009   0.642   0.624   1.182  0.0413 -0.1862  0.2317
  337SOL    HW1 1010   0.638   0.716   1.142 -0.4072  0.2225  1.5420
  337SOL    HW2 1011   0.556   0.590   1.231 -0.4055  0.3528  0.5195
  338SOL     OW 1012   1.513   2.308   0.734  0.1101  0.6231 -0.4583
  338SOL    HW1 1013   1.599   2.304   0.679  0.4993  0.3061 -1.0653
  338SOL    HW2 1014   1.510   2.218   0.794 -2.1381 -0.6774 -0.3954
  339SOL     OW 1015   0.396   1.893   1.193 -0.3147  0.1697 -0.2476
  339SOL    HW1 1016   0.332   1.957   1.242  0.2981 -0.9678 -3.0963
  339SOL    HW2 1017   0.432   1.941   1.112 -0.2480 -2.7384  1.5517
  340SOL     OW 1018   0.406   0.124   2.180  0.2173 -0.2824 -0.4329
  340SOL    HW1 1019   0.334   0.200   2.187 -3.6138  1.9189 -2.6113
  340SOL    HW2 1020   0.357   0.037   2.195  0.9956  1.9013  1.6884
  341SOL     OW 1021   2.110   1.505   0.937 -0.3510 -0.5051  0.6850
  341SOL    HW1 1022   2.017   1.543   0.950 -1.3690  2.0280 -0.6362
  341SOL    HW2 1023   2.185   1.579   0.925  1.5862  0.4841 -0.3158
  342SOL     OW 1024   1.656   1.638   0.618 -0.1452  0.0422 -0.3061
  342SOL    HW1 1025   1.734   1.576   0.641 -3.2883  1.1582  2.1873
  342SOL    HW2 1026   1.676   1.698   0.533  0.1832  1.1962  0.2174
  343SOL     OW 1027   2.215   0.094   0.869  0.1881 -0.2146 -0.5188
  343SOL    HW1 1028   2.303   0.059   0.900 -1.4518 -0.2952 -2.4694
  343SOL    HW2 1029   2.225   0.156   0.789  0.8658 -1.6623 -3.0239
  344SOL     OW 1030   2.746   0.378   2.902 -0.3942 -0.4945 -0.2360
  344SOL    HW1 1031   2.713   0.424   2.817 -1.9924 -0.7096  2.4619
  344SOL    HW2 1032   2.815   0.303   2.883 -2.1824 -1.8342 -0.8431
  345SOL     OW 1033   1.110   2.678   1.101  0.1425  0.4281  0.1505
  345SOL    HW1 1034   1.188   2.653   1.160 -1.6420  0.9857  0.0704
  345SOL    HW2 1035   1.022   2.637   1.130  0.5662  0.2927 -2.0249
  346SOL     OW 1036   2.282   2.439   1.607 -0.1781 -0.4793  0.5539
  346SOL    HW1 1037   2.223   2.378   1.662 -1.8554 -0.3034 -2.2046
  346SOL    HW2 1038   2.317   2.387   1.533 -1.8971  4.0165  3.1918
  347SOL     OW 1039   2.543   3.025   0.939 -0.1878 -0.3850 -0.1296
  347SOL    HW1 1040   2.492   2.933   0.934 -1.4788 -1.8011 -0.4611
  347SOL    HW2 1041   2.537   3.053   1.036  1.0727 -1.1411  0.1771
  348SOL     OW 1042   0.861   0.970   1.214 -0.0568 -0.0738 -0.6331
  348SOL    HW1 1043   0.902   0.929   1.301  1.5804 -2.0952 -1.3024
  348SOL    HW2 1044   0.776   0.923   1.183 -1.3288  1.5855  0.5452
  349SOL     OW 1045   2.300   0.279   3.043  0.6060  0.0579  0.0042
  349SOL    HW1 1046   2.331   0.331   0.025  0.6913 -0.1938 -0.1567
  349SOL    HW2 1047   2.372   0.217   3.006  0.5075 -0.4115 -1.4814
  350SOL     OW 1048   2.473   1.998   0.019  0.8240  0.3830  0.0651
  350SOL    HW1 1049   2.553   1.938   0.041 -0.0834 -2.6488 -0.8473
  350SOL    HW2 1050   2.483   2.067   3.049 -0.9633  0.4740 -0.1301
  351SOL     OW 1051   1.173   0.418   0.610  0.3074  0.3412  0.4007
  351SOL    HW1 1052   1.166   0.335   0.667  2.0772 -0.1557  2.0843
  351SOL    HW2 1053   1.113   0.402   0.530  1.0800 -0.0890  0.0373
  352SOL     OW 1054   2.211   2.421   2.738 -0.9658  0.3394 -0.2076
  352SOL    HW1 1055   2.154   2.491   2.784 -1.6374 -2.3313  2.4419
  352SOL    HW2 1056   2.214   2.429   2.635  1.3890  0.6738 -1.3742
  353SOL     OW 1057   0.410   0.633   3.096  0.1560  0.5302  0.3251
  353SOL    HW1 1058   0.332   0.562   0.004 -1.9693 -2.0201  2.6762
  353SOL    HW2 1059   0.385   0.730   3.098 -1.8521  0.4839  1.5420
  354SOL     OW 1060   1.093   1.837   0.015 -0.6853  0.0841  0.1231
  354SOL    HW1 1061   1.116   1.783   3.035  0.6764  2.0116  1.0329
  354SOL    HW2 1062   1.015   1.803   0.069 -0.8682  0.7725  1.1196
  355SOL     OW 1063   2.779   2.757   1.777  0.1140 -0.3180 -0.4791
  355SOL    HW1 1064   2.813   2.809   1.857  0.4376  0.9361  1.4562
  355SOL    HW2 1065   2.676   2.749   1.783 -0.7240  0.8253 -0.2047
  356SOL     OW 1066   2.820   0.871   0.496 -0.0132 -0.3104  0.1471
  356SOL    HW1 1067   2.876   0.793   0.457  0.2221 -1.0884 -1.8492
  356SOL    HW2 1068   2.784   0.850   0.590 -0.3146  2.2156 -1.0393
  357SOL     OW 1069   2.411   0.331   0.902 -0.3362  0.5935 -0.3446
  357SOL    HW1 1070   2.393   0.431   0.927 -1.8904  1.4335 -1.3490
  357SOL    HW2 1071   2.446   0.278   0.981 -2.8416  0.4400  1.7087
  358SOL     OW 1072   0.893   2.477   0.952  0.5009 -0.2644 -0.7438
  358SOL    HW1 1073   0.805   2.433   0.921 -1.3619 -0.0186  0.3097
  358SOL    HW2 1074   0.915   2.563   0.900 -1.2351 -1.3638  0.1551
  359SOL     OW 1075   0.051   2.596   2.792  0.1824 -0.3125 -0.8817
  359SOL    HW1 1076   0.078   2.511   2.836  0.2452  2.9700  0.1663
  359SOL    HW2 1077   3.053   2.615   2.800  0.6239 -0.1296 -0.4244
  360SOL     OW 1078   0.522   1.038   1.707 -0.6222 -0.0863 -0.4991
  360SOL    HW1 1079   0.461   1.117   1.727  0.5355  0.9224  0.7636
  360SOL    HW2 1080   0.508   0.991   1.618  0.9787  0.9909 -0.9990
  361SOL     OW 1081   2.442   2.822   0.444  0.3048  0.1161 -0.1459
  361SOL    HW1 1082   2.362   2.823   0.502  4.7526  1.3506  0.2432
  361SOL    HW2 1083   2.491   2.906   0.436  2.8480 -0.2540  0.6630
  362SOL     OW 1084   0.049   2.995   1.037  0.0707 -0.6240 -0.1057
  362SOL    HW1 1085   0.137   2.954   1.077 -0.3015 -1.2903  0.9592
  362SOL    HW2 1086   0.005   3.064   1.099  0.2742  1.0438 -2.1243
  363SOL     OW 1087   0.735   1.195   0.504  0.8383  0.0550  0.0968
  363SOL    HW1 1088   0.739   1.135   0.418  2.0046  1.3270 -0.2208
  363SOL    HW2 1089   0.652   1.171   0.561 -2.0076  0.0792  3.5630
  364SOL     OW 1090   0.651   1.444   1.552  0.2241 -0.0039 -0.0767
  364SOL    HW1 1091   0.693   1.379   1.485  0.4896 -1.7089  1.4502
  364SOL    HW2 1092   0.651   1.388   1.640  1.2521 -0.5551 -0.1622
  365SOL     OW 1093   2.451   0.941   0.268 -0.0507 -0.0474 -0.4350
  365SOL    HW1 1094   2.459   1.037   0.302 -1.7647  1.4627 -1.1438
  365SOL    HW2 1095   2.433   0.934   0.168 -0.7805  0.4485 -1.4636
  366SOL     OW 1096   2.723   1.819   1.185 -0.0559  0.2800 -1.1183
  366SOL    HW1 1097   2.696   1.898   1.241  3.8107  0.1381 -0.1150
  366SOL    HW2 1098   2.783   1.761   1.244  1.7533 -0.6148  0.4853
  367SOL     OW 1099   2.138   2.073   1.925  0.3513 -0.4818 -0.7233
  367SOL    HW1 1100   2.119   1.997   1.989 -0.9563 -2.7602  1.7696
  367SOL    HW2 1101   2.224   2.119   1.946 -0.3321 -0.7887 -1.5438
  368SOL     OW 1102   2.778   1.184   1.140 -0.5326 -0.3705  0.5154
  368SOL    HW1 1103   2.820   1.197   1.046 -2.0360 -1.1882  3.1578
  368SOL    HW2 1104   2.835   1.123   1.200 -0.2949  1.3640 -0.8348
  369SOL     OW 1105   2.469   2.618   0.023  0.1054 -0.7613 -0.4467
  369SOL    HW1 1106   2.443   2.681   0.105 -0.0736  1.4566  1.3556
  369SOL    HW2 1107   2.470   2.673   3.042  2.3044 -1.3708  0.3174
  370SOL     OW 1108   3.019   2.777   1.544 -0.1042 -0.4319  0.1038
  370SOL    HW1 1109   2.958   2.727   1.607 -3.6011 -0.9499  0.7829
  370SOL    HW2 1110   2.960   2.818   1.472  1.9986 -0.1111  3.3829
  371SOL     OW 1111   0.790   1.781   2.684 -0.3403  0.2938 -0.0795
  371SOL    HW1 1112   0.823   1.822   2.775  1.3283  0.2302  2.3020
  371SOL    HW2 1113   0.808   1.842   2.603  1.2691  0.0982  0.6968
  372SOL     OW 1114   0.847   1.025   0.282  0.0892 -0.3559  0.6043
  372SOL    HW1 1115   0.847   0.924   0.303  0.0271 -0.7353  0.8703
  372SOL    HW2 1116   0.812   1.044   0.184 -1.4539 -1.9375  0.1017
  373SOL     OW 1117   1.515   2.577   2.923  0.3996 -0.1488  0.0100
  373SOL    HW1 1118   1.457   2.573   3.010 -0.3254  2.0359  2.0656
  373SOL    HW2 1119   1.550   2.479   2.910  0.5917 -1.3665  2.7679
  374SOL     OW 1120   0.289   1.957   0.388  0.1568 -0.6992  0.4104
  374SOL    HW1 1121   0.326   2.047   0.354  1.3065 -0.3848 -1.6667
  374SOL    HW2 1122   0.191   1.971   0.408  1.6822 -0.5070  2.2652
  375SOL     OW 1123   1.019   1.441   1.679 -0.2109 -0.1336  0.4007
  375SOL    HW1 1124   0.924   1.434   1.714 -0.1093  1.0430 -0.6532
  375SOL    HW2 1125   1.038   1.523   1.621  2.9809  0.1763  0.7864
  376SOL     OW 1126   0.791   2.270   1.576  0.5981  0.1289  0.4382
  376SOL    HW1 1127   0.737   2.343   1.521  0.2866  2.4905 -2.1720
  376SOL    HW2 1128   0.887   2.305   1.598  3.8847 -1.2306 -1.6622
  377SOL     OW 1129   2.419   1.544   2.193  0.2279 -0.4591 -0.1029
  377SOL    HW1 1130   2.377   1.629   2.234  1.4620  1.3102 -1.0164
  377SOL    HW2 1131   2.460   1.480   2.259  0.9596  2.0900  3.2655
  378SOL     OW 1132   0.855   2.899   2.967  0.4654 -0.2669 -0.5707
  378SOL    HW1 1133   0.854   2.796   2.973  0.6354  2.2022  0.6585
  378SOL    HW2 1134   0.852   2.938   3.061  1.0668  1.3373 -0.2643
  379SOL     OW 1135   1.949   0.303   0.730 -0.1217 -0.3776 -0.7018
  379SOL    HW1 1136   1.867   0.313   0.676  0.8079  0.7091  2.6989
  379SOL    HW2 1137   2.015   0.245   0.685  1.0165 -4.0018  0.6271
  380SOL     OW 1138   3.018   1.982   1.443  0.4135  0.0661  0.2047
  380SOL    HW1 1139   2.978   2.000   1.531  0.7575 -0.4193 -0.4161
  380SOL    HW2 1140   2.991   2.052   1.375  0.8899 -0.8266  0.1822
  381SOL     OW 1141   1.799   2.006   1.788  0.0091  0.4727 -0.4037
  381SOL    HW1 1142   1.796   2.067   1.710 -0.3532  0.3303  0.1136
  381SOL    HW2 1143   1.834   1.910   1.764  1.6540 -1.5254 -3.2090
  382SOL     OW 1144   3.015   0.389   2.681  0.1548  0.7509  0.7561
  382SOL    HW1 1145   2.984   0.308   2.736  0.6967  1.2501 -1.1523
  382SOL    HW2 1146   2.964   0.403   2.597  1.2889 -3.6323 -2.3905
  383SOL     OW 1147   1.848   1.462   2.646 -0.3370  0.2654 -0.4794
  383SOL    HW1 1148   1.774   1.395   2.629 -1.0427  0.8751  0.2759
  383SOL    HW2 1149   1.939   1.416   2.630 -0.7463 -0.6961  1.5016
  384SOL     OW 1150   1.102   2.297   0.945 -0.1379  0.6268 -0.2666
  384SOL    HW1 1151   1.045   2.379   0.964 -1.7823  0.5712 -2.0820
  384SOL    HW2 1152   1.031   2.225   0.929 -0.4503 -0.7139 -0.4879
  385SOL     OW 1153   1.891   2.124   0.728 -0.6794  0.0479  0.1733
  385SOL    HW1 1154   1.834   2.186   0.670 -0.3816  0.6616 -1.2494
  385SOL    HW2 1155   1.890   2.035   0.685  2.0603  1.3915  2.0103
  386SOL     OW 1156   2.106   1.903   1.026  0.1542  0.0684 -0.5294
  386SOL    HW1 1157   2.067   1.993   1.027  2.2795 -0.3826  0.4583
  386SOL    HW2 1158   2.181   1.894   1.096  2.4996  0.5545 -2.0026
  387SOL     OW 1159   0.364   2.284   1.504  0.0092 -0.7340  0.1946
  387SOL    HW1 1160   0.264   2.274   1.500  2.4427 -2.4820 -1.0462
  387SOL    HW2 1161   0.405   2.211   1.563 -1.3733 -1.6171  0.3784
  388SOL     OW 1162   2.959   0.722   1.891 -0.3413  0.1369  0.3534
  388SOL    HW1 1163   2.972   0.621   1.874 -0.7112  0.4166  1.8492
  388SOL    HW2 1164   3.029   0.751   1.959 -2.3895 -0.2442  3.1372
  389SOL     OW 1165   1.725   1.248   0.839 -0.1266  0.2218  1.2143
  389SOL    HW1 1166   1.734   1.283   0.935  0.5862  0.0087  1.2555
  389SOL    HW2 1167   1.633   1.213   0.818  3.5508 -1.5981  1.9235
  390SOL     OW 1168   0.972   2.197   2.589  0.0465  0.1578 -0.6929
  390SOL    HW1 1169   0.890   2.264   2.588 -2.2101  5.3027 -1.0751
  390SOL    HW2 1170   1.052   2.249   2.553  0.4558 -2.2782  1.2763
  391SOL     OW 1171   1.041   2.044   2.803  0.0089 -0.3669  0.5288
  391SOL    HW1 1172   0.947   2.031   2.845  0.1952 -1.2598  2.5639
  391SOL    HW2 1173   1.027   2.106   2.722  0.5304  1.2920  3.7723
  392SOL     OW 1174   2.828   2.746   2.084  0.8463  0.0730 -0.2329
  392SOL    HW1 1175   2.730   2.715   2.097  0.6621  0.3977  0.4487
  392SOL    HW2 1176   2.838   2.837   2.044 -2.2719 -0.0877  1.3236
  393SOL     OW 1177   2.020   2.638   0.398 -0.0266 -0.2967 -0.7670
  393SOL    HW1 1178   1.924   2.651   0.375 -0.4294 -0.6578  0.5799
  393SOL    HW2 1179   2.035   2.541   0.430  0.8988 -2.0280 -1.7336
  394SOL     OW 1180   0.688   0.661   2.325  0.2833 -0.1842  0.1335
  394SOL    HW1 1181   0.600   0.706   2.344  1.0282 -1.5048  0.8924
  394SOL    HW2 1182   0.686   0.596   2.247  2.3414  1.0251  0.8565
  395SOL     OW 1183   0.561   1.192   1.335  0.0444  0.1301  0.0019
  395SOL    HW1 1184   0.547   1.094   1.360  0.1664 -0.0456  3.8389
  395SOL    HW2 1185   0.660   1.204   1.306  0.6253 -0.3949 -2.5831
  396SOL     OW 1186   1.576   1.487   2.174 -0.0749  0.5614 -0.2197
  396SOL    HW1 1187   1.650   1.417   2.168 -2.1760 -1.5028 -2.8368
  396SOL    HW2 1188   1.552   1.508   2.274 -1.0535  2.2824  2.7823
  397SOL     OW 1189   0.808   0.679   2.831  0.2442  0.1769  0.4849
  397SOL    HW1 1190   0.738   0.650   2.904 -3.5628 -0.1656  1.2526
  397SOL    HW2 1191   0.778   0.644   2.739 -1.7089 -0.5051  0.6382
  398SOL     OW 1192   0.275   1.987   2.631 -0.0552  0.5328 -0.0230
  398SOL    HW1 1193   0.339   2.048   2.685  0.3645 -1.2264 -1.2515
  398SOL    HW2 1194   0.245   2.036   2.547 -0.4592 -1.7261  0.8066
  399SOL     OW 1195   0.150   1.858   2.249 -0.2199 -0.2471 -0.1107
  399SOL    HW1 1196   0.227   1.829   2.312 -1.3817 -1.7272 -2.0032
  399SOL    HW2 1197   0.128   1.770   2.202  1.8511  1.3070  0.4996
  400SOL     OW 1198   2.552   0.772   1.553  0.3608  0.0085  0.0344
  400SOL    HW1 1199   2.513   0.813   1.469  0.0317 -1.1556  0.5483
  400SOL    HW2 1200   2.647   0.806   1.564 -1.3810 -0.5252 -2.2700
  401SOL     OW 1201   1.052   1.484   0.420  0.6898  0.0877 -0.7551
  401SOL    HW1 1202   0.979   1.500   0.488  1.0842 -1.6497 -0.7489
  401SOL    HW2 1203   1.138   1.461   0.458 -0.1669  3.1596 -1.3851
  402SOL     OW 1204   0.086   2.436   2.218 -0.7270 -0.2842 -0.1128
  402SOL    HW1 1205   0.035   2.506   2.165  1.8158  0.9038  0.5408
  402SOL    HW2 1206   0.156   2.392   2.159  0.3031 -0.7489  0.1400
  403SOL     OW 1207   0.475   1.629   2.274  0.2894  0.5790 -0.0563
  403SOL    HW1 1208   0.416   1.652   2.350 -0.3322  2.1980 -3.1832
  403SOL    HW2 1209   0.497   1.530   2.280  2.4039 -0.5425  0.3861
  404SOL     OW 1210   1.873   2.174   1.576 -0.3319 -0.0063 -0.1147
  404SOL    HW1 1211   1.828   2.258   1.560  2.7344 -2.6275  0.9246
  404SOL    HW2 1212   1.904   2.127   1.492 -1.1301  0.8011 -1.1500
  405SOL     OW 1213   2.891   2.576   2.867 -0.0522  0.5301 -0.1249
  405SOL    HW1 1214   2.836   2.558   2.952 -0.5289 -0.3529  0.2800
  405SOL    HW2 1215   2.859   2.500   2.805  0.9960  2.2386 -1.0166
  406SOL     OW 1216   0.578   1.235   0.075 -0.8035 -0.0819  0.1960
  406SOL    HW1 1217   0.646   1.163   0.052 -0.1528 -0.3893 -1.4379
  406SOL    HW2 1218   0.579   1.312   0.004  1.3260  1.7005 -2.4522
  407SOL     OW 1219   2.117   2.481   0.001  0.1044  0.2604  0.2115
  407SOL    HW1 1220   2.179   2.514   3.030 -3.2736 -0.9648  1.0545
  407SOL    HW2 1221   2.087   2.553   0.067  0.3869 -0.1493 -1.8406
  408SOL     OW 1222   2.887   3.006   0.164  0.1557  0.1283  0.3485
  408SOL    HW1 1223   2.858   2.920   0.210  1.8490 -0.7160  2.3624
  408SOL    HW2 1224   2.883   2.992   0.066  0.7407  2.7757  0.3307
  409SOL     OW 1225   2.152   1.205   0.837 -0.4122 -0.1541 -0.7032
  409SOL    HW1 1226   2.157   1.302   0.850  1.3042 -2.6879  0.4566
  409SOL    HW2 1227   2.070   1.172   0.790 -0.1978  0.4475 -2.3461
  410SOL     OW 1228   2.900   1.761   0.638  0.0960  0.1847  0.2109
  410SOL    HW1 1229   2.895   1.820   0.721 -1.6405 -1.7916 -0.6194
  410SOL    HW2 1230   2.995   1.757   0.603 -2.6122 -0.5091 -1.6943
  411SOL     OW 1231   0.235   1.328   0.964 -0.6566  0.6015 -0.1018
  411SOL    HW1 1232   0.292   1.410   0.932 -1.6849 -3.2641  2.3555
  411SOL    HW2 1233   0.292   1.272   1.029  2.7901 -0.9425  1.2479
  412SOL     OW 1234   2.299   2.164   0.553 -0.2247  0.1769 -0.2073
  412SOL    HW1 1235   2.307   2.258   0.516 -1.5462 -1.8098  0.0094
  412SOL    HW2 1236   2.221   2.113   0.512 -1.0567 -0.1727 -2.0366
  413SOL     OW 1237   1.824   0.994   2.491  0.1933  0.0600 -0.1029
  413SOL    HW1 1238   1.851   1.026   2.397  0.7100  0.6585 -0.5268
  413SOL    HW2 1239   1.721   0.994   2.505  1.4852  0.7940 -0.9931
  414SOL     OW 1240   2.865   0.060   0.402 -0.3310  0.5904 -0.0105
  414SOL    HW1 1241   2.894   0.011   0.321 -0.2051  0.1822  2.6312
  414SOL    HW2 1242   2.930   0.039   0.474 -3.6734 -1.1960 -1.4955
  415SOL     OW 1243   0.851   2.098   1.037 -0.0815  0.0054 -0.3286
  415SOL    HW1 1244   0.780   2.153   1.084  0.4918  1.1567 -3.1164
  415SOL    HW2 1245   0.823   2.034   0.966  0.8647  0.1011  3.5519
  416SOL     OW 1246   0.247   2.706   2.647 -0.1257 -0.9101  0.0356
  416SOL    HW1 1247   0.212   2.740   2.557  1.6437 -0.1921  1.8083
  416SOL    HW2 1248   0.181   2.649   2.694  3.2720  1.1774 -0.9971
  417SOL     OW 1249   3.018   0.780   1.178  0.2758  0.0850 -0.3849
  417SOL    HW1 1250   3.012   0.739   1.084 -1.8411 -0.7694 -0.8066
  417SOL    HW2 1251   3.010   0.700   1.245 -2.6114 -1.8193 -1.4508
  418SOL     OW 1252   0.015   0.251   0.005 -0.0448  0.5563  0.0802
  418SOL    HW1 1253   0.030   0.188   0.081  4.1977  1.9755 -2.3587
  418SOL    HW2 1254   0.051   0.204   3.024 -0.5205 -0.1761  1.1766
  419SOL     OW 1255   0.271   1.598   1.680 -0.3442 -0.6017  0.2058
  419SOL    HW1 1256   0.168   1.589   1.658  0.1400 -0.5218 -1.0923
  419SOL    HW2 1257   0.314   1.656   1.604  1.3858 -2.9399 -0.5956
  420SOL     OW 1258   0.465   1.499   0.343  0.1655 -0.1367  0.2046
  420SOL    HW1 1259   0.438   1.587   0.300  0.2154 -1.3240  0.0357
  420SOL    HW2 1260   0.561   1.486   0.344  0.5082 -0.2200 -0.8035
  421SOL     OW 1261   2.100   2.456   2.447 -0.7696 -0.3235  0.1993
  421SOL    HW1 1262   2.011   2.480   2.397 -1.9529  0.5151  2.5534
  421SOL    HW2 1263   2.176   2.448   2.375  2.8876  0.6554 -2.1659
  422SOL     OW 1264   0.078   0.593   2.743  0.4859 -0.0709  0.1429
  422SOL    HW1 1265   0.112   0.622   2.652 -0.0728  0.5983 -0.4036
  422SOL    HW2 1266   0.006   0.520   2.725 -3.7295 -1.7914  0.1758
  423SOL     OW 1267   1.227   2.259   0.425  0.8717  0.7338  0.3583
  423SOL    HW1 1268   1.225   2.300   0.522 -1.5685 -2.9958  1.8312
  423SOL    HW2 1269   1.134   2.226   0.390 -1.3690 -0.3762 -1.8134
  424SOL     OW 1270   0.672   1.797   1.569 -0.1776 -0.0921  0.0626
  424SOL    HW1 1271   0.683   1.864   1.495 -0.7902 -0.6481 -0.0124
  424SOL    HW2 1272   0.702   1.701   1.552  1.0091 -0.2075  0.8521
  425SOL     OW 1273   2.877   2.584   2.480 -0.2692 -0.5141 -0.4631
  425SOL    HW1 1274   2.882   2.512   2.412 -0.2812  0.8720 -0.6289
  425SOL    HW2 1275   2.857   2.540   2.569  0.9012  1.6459 -3.2654
  426SOL     OW 1276   1.629   0.465   0.963  0.1057  0.4375  0.7711
  426SOL    HW1 1277   1.686   0.526   1.018 -0.1809  0.6051 -0.8608
  426SOL    HW2 1278   1.665   0.451   0.870 -2.6344  0.5127  0.7471
  427SOL     OW 1279   0.208   1.293   3.093 -0.2936  0.5048 -0.0266
  427SOL    HW1 1280   0.266   1.211   0.019 -3.3775  1.4379 -0.8058
  427SOL    HW2 1281   0.111   1.273   3.098  2.9443 -0.4202 -2.5182
  428SOL     OW 1282   1.306   1.257   0.048 -0.5428 -0.5179  0.1668
  428SOL    HW1 1283   1.283   1.193   0.126  0.1834 -1.7586  1.2495
  428SOL    HW2 1284   1.348   1.207   3.074  0.5200 -0.3534  2.3724
  429SOL     OW 1285   2.824   2.675   0.675  0.8815 -0.2637 -0.4535
  429SOL    HW1 1286   2.816   2.755   0.741  3.8143  2.5766  2.6874
  429SOL    HW2 1287   2.744   2.665   0.610 -0.2067 -0.1714 -2.8713
  430SOL     OW 1288   0.556   2.441   2.479  0.0386  0.4116 -0.2443
  430SOL    HW1 1289   0.520   2.481   2.563 -1.4548  0.1401  1.0055
  430SOL    HW2 1290   0.485   2.381   2.431 -1.4001 -0.9812 -0.6925
  431SOL     OW 1291   2.886   1.150   0.476 -0.2925 -0.3595  0.3238
  431SOL    HW1 1292   2.936   1.180   0.560 -0.4769 -1.5460 -2.0790
  431SOL    HW2 1293   2.876   1.049   0.474 -0.0079  1.0294  0.5092
  432SOL     OW 1294   1.746   2.738   2.339 -0.1013 -0.0528  0.0649
  432SOL    HW1 1295   1.801   2.826   2.347 -3.9258 -0.2497  1.9721
  432SOL    HW2 1296   1.723   2.704   2.431  0.7083  0.1516 -2.3540
  433SOL     OW 1297   1.515   2.598   0.699  0.1773 -0.1500 -0.4689
  433SOL    HW1 1298   1.492   2.502   0.727  0.5658 -0.4826  0.1281
  433SOL    HW2 1299   1.559   2.650   0.771 -2.4113 -2.5231  0.6258
  434SOL     OW 1300   1.168   1.852   2.173 -0.6144  0.0013  0.0906
  434SOL    HW1 1301   1.089   1.827   2.111  0.4776  0.4839 -1.7838
  434SOL    HW2 1302   1.156   1.812   2.263  1.1169 -0.5097  2.0198
  435SOL     OW 1303   2.737   0.708   0.016  0.0285  0.5155  0.5352
  435SOL    HW1 1304   2.820   0.736   3.071 -1.0413  4.0237  1.1507
  435SOL    HW2 1305   2.728   0.774   0.091  2.8583 -1.2920 -2.1707
  436SOL     OW 1306   0.330   2.702   2.217 -0.1237 -0.1755 -0.0062
  436SOL    HW1 1307   0.306   2.665   2.128 -1.3000  3.7558  1.0994
  436SOL    HW2 1308   0.418   2.665   2.261 -0.0915  0.9906 -0.6899
  437SOL     OW 1309   1.942   3.053   1.465  0.2578 -0.1723 -0.0452
  437SOL    HW1 1310   2.013   2.978   1.464  1.5289  1.9785 -0.5675
  437SOL    HW2 1311   1.968   0.028   1.406  0.4141  0.7519 -0.5166
  438SOL     OW 1312   0.182   1.814   0.815 -0.1722 -0.4294  0.2872
  438SOL    HW1 1313   0.161   1.912   0.843  0.0019 -0.3364  0.3826
  438SOL    HW2 1314   0.147   1.747   0.882 -1.3901  0.0298  1.4870
  439SOL     OW 1315   0.294   0.304   1.110 -0.0921  0.1129 -0.1666
  439SOL    HW1 1316   0.379   0.249   1.096  1.9335 -2.4543 -0.1108
  439SOL    HW2 1317   0.222   0.274   1.044 -0.2844 -3.2570 -2.2974
  440SOL     OW 1318   2.941   2.819   2.357  0.0406 -0.0661 -0.2929
  440SOL    HW1 1319   2.907   2.752   2.425  2.0513 -0.0694 -1.7244
  440SOL    HW2 1320   2.946   2.774   2.265  1.5729  0.4335  2.0237
  441SOL     OW 1321   0.059   0.950   0.353  0.2862 -0.5224 -0.3025
  441SOL    HW1 1322   0.157   0.935   0.368  1.6816  0.4718 -0.2506
  441SOL    HW2 1323   0.005   0.868   0.386 -0.5808 -0.5689  1.2133
  442SOL     OW 1324   1.477   2.380   2.203  0.2632 -0.4938  0.5039
  442SOL    HW1 1325   1.444   2.334   2.120  0.0763  2.2064  0.4811
  442SOL    HW2 1326   1.565   2.345   2.242  0.3112  1.2532 -0.0431
  443SOL     OW 1327   0.576   0.041   0.036  0.5969  0.3621  0.2824
  443SOL    HW1 1328   0.670   3.099   0.044  1.5225 -0.3224  0.7394
  443SOL    HW2 1329   0.576   0.140   0.058 -0.2189 -0.1596  0.1804
  444SOL     OW 1330   1.325   2.037   2.623 -0.5474 -0.1888 -0.0078
  444SOL    HW1 1331   1.361   2.043   2.525  3.4205 -0.4087 -1.2813
  444SOL    HW2 1332   1.255   1.965   2.646  1.0913  2.9758  2.0261
  445SOL     OW 1333   0.470   0.457   0.641 -0.2222  0.1758  0.1096
  445SOL    HW1 1334   0.429   0.366   0.659 -0.9299  0.7043  0.6869
  445SOL    HW2 1335   0.422   0.513   0.568  3.4916 -0.3275  3.0206
  446SOL     OW 1336   1.669   0.694   0.739 -0.3334 -0.3141  0.5152
  446SOL    HW1 1337   1.585   0.647   0.703 -1.0143 -1.2448 -0.3495
  446SOL    HW2 1338   1.676   0.689   0.839  1.7198 -0.7487  0.1723
  447SOL     OW 1339   2.771   0.953   0.228 -0.0945 -0.0534 -0.0253
  447SOL    HW1 1340   2.775   0.929   0.328 -0.4503  0.3041  0.0417
  447SOL    HW2 1341   2.857   1.003   0.196  3.0918  1.7243  2.8822
  448SOL     OW 1342   1.987   1.992   1.366 -0.0450  0.2520 -0.2997
  448SOL    HW1 1343   2.072   1.964   1.417  0.3036 -0.7569  3.1185
  448SOL    HW2 1344   2.001   2.079   1.320  0.6916 -1.1579 -1.9774
  449SOL     OW 1345   0.920   1.416   3.066  0.0722  0.4412 -0.0320
  449SOL    HW1 1346   0.973   1.408   2.980 -1.1606 -1.7408 -0.5698
  449SOL    HW2 1347   0.988   1.414   0.036 -2.3612  1.6252  0.2141
  450SOL     OW 1348   2.278   2.845   2.380  0.3322 -0.7638  0.1398
  450SOL    HW1 1349   2.248   2.790   2.465  0.0518  1.2558 -1.3219
  450SOL    HW2 1350   2.198   2.874   2.320 -1.9847  1.1399 -0.1414
  451SOL     OW 1351   2.281   0.854   2.664  0.0201  0.0026 -0.0740
  451SOL    HW1 1352   2.211   0.922   2.639 -0.2181 -3.1585  0.5356
  451SOL    HW2 1353   2.353   0.844   2.589 -3.1194 -0.4189 -0.3040
  452SOL     OW 1354   1.701   1.160   1.212 -0.0904  0.3039 -0.9216
  452SOL    HW1 1355   1.622   1.107   1.249  1.1977  0.6198  0.8711
  452SOL    HW2 1356   1.787   1.113   1.214 -0.6147 -1.5535 -2.8564
  453SOL     OW 1357   1.816   0.628   1.608  0.0976 -0.3036  0.5725
  453SOL    HW1 1358   1.768   0.536   1.612 -0.3291 -1.5086 -1.8394
  453SOL    HW2 1359   1.788   0.693   1.684  0.3617 -0.1277  0.3609
  454SOL     OW 1360   2.836   1.091   2.666  0.7478 -0.1649  0.2327
  454SOL    HW1 1361   2.873   1.007   2.715 -1.3738 -2.0611  0.7506
  454SOL    HW2 1362   2.853   1.082   2.567 -0.2328  3.2687  1.1889
  455SOL     OW 1363   2.889   1.650   1.332 -0.2853  1.0277 -0.4798
  455SOL    HW1 1364   2.978   1.703   1.326  1.9604  0.3618 -2.1466
  455SOL    HW2 1365   2.896   1.564   1.280 -1.3534  0.8326 -0.2463
  456SOL     OW 1366   1.411   2.761   1.410 -0.1207  0.2584 -0.1671
  456SOL    HW1 1367   1.478   2.775   1.485  0.7123 -1.7441 -0.5896
  456SOL    HW2 1368   1.425   2.835   1.344 -0.9576 -1.8225 -1.9563
  457SOL     OW 1369   1.464   2.872   0.920 -0.8164  0.3016  0.1073
  457SOL    HW1 1370   1.521   2.789   0.938  0.0108 -0.0204 -1.1715
  457SOL    HW2 1371   1.503   2.956   0.974  0.9381  2.5838  1.2116
  458SOL     OW 1372   2.785   2.855   0.885  0.5700  0.2124  0.0821
  458SOL    HW1 1373   2.686   2.830   0.894 -3.1883 -0.7985 -2.4959
  458SOL    HW2 1374   2.806   2.955   0.869  2.1722 -1.6105  0.4525
  459SOL     OW 1375   1.510   0.991   0.337 -0.0370  0.0718  0.2585
  459SOL    HW1 1376   1.510   1.066   0.268  1.5637 -2.0671  1.5836
  459SOL    HW2 1377   1.604   0.945   0.344  2.2748 -1.2862  1.1039
  460SOL     OW 1378   0.684   2.740   2.351 -0.0137  0.0579  0.8887
  460SOL    HW1 1379   0.749   2.749   2.432 -2.6293  0.5629 -1.8137
  460SOL    HW2 1380   0.609   2.812   2.350 -0.7794  0.7980 -0.1793
  461SOL     OW 1381   0.143   1.591   0.370  0.1041  0.1196 -0.0580
  461SOL    HW1 1382   0.171   1.521   0.435  1.0819  1.4320 -0.6535
  461SOL    HW2 1383   0.226   1.619   0.314  0.9096 -1.4976  2.2395
  462SOL     OW 1384   1.668   2.140   0.374  0.3204 -0.0586  0.3145
  462SOL    HW1 1385   1.749   2.122   0.317 -1.6442 -2.3815  1.7519
  462SOL    HW2 1386   1.582   2.114   0.327 -2.9952  1.5454 -0.1932
  463SOL     OW 1387   2.573   0.458   0.507  0.8055  0.5945  0.3529
  463SOL    HW1 1388   2.570   0.550   0.463  0.5074 -1.4754  0.3209
  463SOL    HW2 1389   2.609   0.383   0.443  2.9035  1.7602 -0.0566
  464SOL     OW 1390   0.737   2.127   0.239  0.1757  0.1379 -0.1674
  464SOL    HW1 1391   0.740   2.065   0.157 -2.0426  2.0032  0.5136
  464SOL    HW2 1392   0.657   2.114   0.301 -0.6349 -0.6219 -0.1099
  465SOL     OW 1393   2.212   0.405   1.196  0.7709 -0.2008 -0.1752
  465SOL    HW1 1394   2.164   0.322   1.157 -1.3630 -1.1482  1.9709
  465SOL    HW2 1395   2.166   0.493   1.177  1.3956  1.3161  0.0574
  466SOL     OW 1396   2.134   0.164   0.596  0.4161 -0.0966 -0.3728
  466SOL    HW1 1397   2.146   0.084   0.532 -1.0359 -1.1504 -0.3080
  466SOL    HW2 1398   2.219   0.222   0.610  1.0213  2.3909 -0.4065
  467SOL     OW 1399   0.903   0.574   2.065  0.4012 -0.4790 -0.1751
  467SOL    HW1 1400   0.916   0.676   2.056  0.7788 -0.3487  0.8236
  467SOL    HW2 1401   0.988   0.523   2.080 -3.4916  1.2968  2.6070
  468SOL     OW 1402   2.622   0.278   2.023 -0.0346 -0.3424  0.2288
  468SOL    HW1 1403   2.556   0.351   2.008  0.9915 -2.7891  4.3220
  468SOL    HW2 1404   2.702   0.316   2.076 -2.7125  2.0953  1.7095
  469SOL     OW 1405   1.068   2.621   1.767  0.3467  0.3801  0.3562
  469SOL    HW1 1406   1.122   2.626   1.684 -3.2923  0.1832  3.3922
  469SOL    HW2 1407   1.011   2.703   1.767  0.1564 -1.9234 -0.8596
  470SOL     OW 1408   2.420   1.152   1.678 -0.0987  0.6077 -0.1856
  470SOL    HW1 1409   2.449   1.090   1.754 -1.0480 -2.1643  1.6028
  470SOL    HW2 1410   2.392   1.245   1.715  0.1011  2.4145  2.5477
  471SOL     OW 1411   2.849   1.607   3.036  0.5116 -0.0074  0.1145
  471SOL    HW1 1412   2.937   1.647   3.004  1.1534  0.7093 -0.2847
  471SOL    HW2 1413   2.792   1.673   3.086 -1.4766 -0.8290  3.8412
  472SOL     OW 1414   0.465   2.229   0.569 -0.1757 -0.1062 -0.1715
  472SOL    HW1 1415   0.504   2.147   0.520 -1.5517 -2.3655  0.9649
  472SOL    HW2 1416   0.522   2.313   0.542  1.8673 -1.1440 -1.4649
  473SOL     OW 1417   1.287   2.224   2.054  0.4812  0.1179 -0.0017
  473SOL    HW1 1418   1.249   2.202   1.963 -2.0071  0.4089 -1.8638
  473SOL    HW2 1419   1.216   2.211   2.131 -2.1418 -0.1819 -0.1390
  474SOL     OW 1420   0.879   2.863   2.569 -0.5413 -0.0611  0.0113
  474SOL    HW1 1421   0.930   2.793   2.518 -2.4758  3.3924 -0.0596
  474SOL    HW2 1422   0.925   2.908   2.651  0.3212  1.2491  0.2018
  475SOL     OW 1423   0.726   1.933   0.039  0.1794 -0.7011  0.1493
  475SOL    HW1 1424   0.745   1.963   3.051 -2.5000 -0.7968 -1.1897
  475SOL    HW2 1425   0.800   1.873   0.076  0.4637  1.3035 -0.8293
  476SOL     OW 1426   1.039   0.698   1.021  0.4209  0.4282  0.2489
  476SOL    HW1 1427   1.027   0.627   0.946 -1.7120 -1.8469 -1.1066
  476SOL    HW2 1428   1.028   0.796   0.991  0.7335  1.4023  1.2173
  477SOL     OW 1429   2.082   2.259   1.306  0.4812  0.1261 -0.3366
  477SOL    HW1 1430   2.164   2.276   1.250 -1.3552 -2.4896  1.2698
  477SOL    HW2 1431   2.032   2.347   1.321 -1.0780  0.8874  1.6270
  478SOL     OW 1432   0.087   0.701   3.004  0.0249 -0.5653 -0.0637
  478SOL    HW1 1433   0.101   0.686   2.906 -1.8252 -1.9539  1.2361
  478SOL    HW2 1434   0.132   0.629   3.060 -1.0664 -0.4073  1.0104
  479SOL     OW 1435   0.844   3.049   1.447 -0.3857  0.0570  0.3984
  479SOL    HW1 1436   0.937   3.087   1.459 -2.0432 -0.8269  0.9032
  479SOL    HW2 1437   0.845   2.966   1.391  0.4936  2.7255 -1.4496
  480SOL     OW 1438   2.628   2.350   0.506 -0.0861 -0.5300 -0.4244
  480SOL    HW1 1439   2.621   2.287   0.427  0.8689  1.2253 -1.3847
  480SOL    HW2 1440   2.684   2.314   0.582 -1.1972 -0.6598 -1.2247
  481SOL     OW 1441   0.012   0.659   1.535 -0.6326  0.5528 -0.1118
  481SOL    HW1 1442   0.047   0.751   1.562  1.6776 -0.9187  2.1719
  481SOL    HW2 1443   3.026   0.638   1.575  1.0193 -0.0079 -0.9063
  482SOL     OW 1444   1.065   0.001   1.030 -0.6104 -0.6296  0.3137
  482SOL    HW1 1445   1.036   0.097   1.065 -1.0962  0.3263  1.1545
  482SOL    HW2 1446   0.992   3.037   1.059  2.9023 -0.1017 -0.0703
  483SOL     OW 1447   0.143   1.601   2.628 -0.1476 -0.5399  0.6162
  483SOL    HW1 1448   0.118   1.505   2.642  0.2010 -1.2736  0.2369
  483SOL    HW2 1449   0.063   1.669   2.646  0.0265  0.2304  0.5482
  484SOL     OW 1450   1.627   1.725   2.078  0.2770  0.2126  0.4683
  484SOL    HW1 1451   1.533   1.762   2.048 -1.9966  0.4431 -1.2205
  484SOL    HW2 1452   1.607   1.637   2.133  2.7970  2.1269  1.2593
  485SOL     OW 1453   0.286   2.965   2.214  0.8288 -0.1979  0.4603
  485SOL    HW1 1454   0.212   3.002   2.278 -2.1665  2.9772 -0.8621
  485SOL    HW2 1455   0.304   2.861   2.215 -0.1105 -1.0832 -0.5194
  486SOL     OW 1456   1.166   3.031   0.716  0.2873 -0.0611 -0.6732
  486SOL    HW1 1457   1.179   2.973   0.801 -0.2419 -0.9452  0.0049
  486SOL    HW2 1458   1.232   3.015   0.639  1.1297  0.6768 -0.8733
  487SOL     OW 1459   1.500   0.162   0.779  0.1001 -0.9766  0.1432
  487SOL    HW1 1460   1.550   0.076   0.769  0.8523 -1.5164  1.1463
  487SOL    HW2 1461   1.496   0.185   0.876 -2.0724  1.9930 -0.9706
  488SOL     OW 1462   2.198   0.850   1.056  0.0898 -0.5682  0.3028
  488SOL    HW1 1463   2.285   0.900   1.029  0.5736 -1.7507  0.2221
  488SOL    HW2 1464   2.114   0.893   1.011  1.0858  0.1886 -1.0918
  489SOL     OW 1465   1.073   0.068   1.395  0.5032  0.5253  0.3631
  489SOL    HW1 1466   1.155   0.012   1.355  1.5896  0.2089  1.1076
  489SOL    HW2 1467   1.020   0.119   1.323 -0.1168 -1.3418 -1.6355
  490SOL     OW 1468   0.667   0.607   3.048  0.3215 -0.1472  0.0588
  490SOL    HW1 1469   0.720   0.582   0.028  2.5325 -2.4439 -0.5718
  490SOL    HW2 1470   0.564   0.593   3.063  0.7235  0.8834 -1.2041
  491SOL     OW 1471   0.908   2.765   0.333  0.1713  0.2060  0.5592
  491SOL    HW1 1472   0.997   2.793   0.378 -0.6077 -0.6443 -1.6924
  491SOL    HW2 1473   0.921   2.682   0.281 -4.3871  0.9362  1.3211
  492SOL     OW 1474   1.439   1.706   1.604 -0.0943  0.2317  0.5140
  492SOL    HW1 1475   1.357   1.743   1.656 -2.0182  0.7677 -0.3209
  492SOL    HW2 1476   1.475   1.619   1.653  0.4939  0.2536  1.3366
  493SOL     OW 1477   0.360   1.733   0.241 -0.2739 -0.1269  0.1600
  493SOL    HW1 1478   0.347   1.820   0.292  1.2840  1.1642 -1.0484
  493SOL    HW2 1479   0.381   1.739   0.140 -1.5930 -3.2658  2.4361
  494SOL     OW 1480   1.936   1.888   0.551 -0.3273  0.3045 -0.3443
  494SOL    HW1 1481   1.995   1.805   0.577 -0.4209  0.4649  1.9178
  494SOL    HW2 1482   1.853   1.863   0.502  2.0216 -1.1544  1.7428
  495SOL     OW 1483   0.286   1.431   2.402 -0.0858  1.0294  0.1531
  495SOL    HW1 1484   0.321   1.464   2.497 -1.7832 -1.0826  3.7178
  495SOL    HW2 1485   0.198   1.376   2.414 -0.9596  0.9889 -1.8179
  496SOL     OW 1486   0.542   2.985   2.328 -0.2008  0.1364  0.4405
  496SOL    HW1 1487   0.444   3.000   2.316  2.3900 -3.0530  2.3756
  496SOL    HW2 1488   0.576   2.965   2.236 -1.5597  4.2344  0.4827
  497SOL     OW 1489   1.463   1.203   0.792  0.1909 -0.3851  0.3566
  497SOL    HW1 1490   1.414   1.178   0.711  2.6486 -0.2349  3.4598
  497SOL    HW2 1491   1.463   1.307   0.794 -0.9222 -1.5280  0.2667
  498SOL     OW 1492   2.807   2.757   0.276  0.3062  0.7060 -0.6801
  498SOL    HW1 1493   2.832   2.670   0.222 -0.2961 -1.7092 -1.9235
  498SOL    HW2 1494   2.732   2.735   0.342 -1.5491  0.6838  3.8014
  499SOL     OW 1495   2.077   2.407   0.516 -0.1446 -0.1740  0.1242
  499SOL    HW1 1496   2.048   2.309   0.515 -2.0757  0.7366 -0.3030
  499SOL    HW2 1497   2.176   2.424   0.531 -1.9005 -0.1296 -1.0471
  500SOL     OW 1498   0.478   0.623   2.660 -0.4609 -0.1568  0.4723
  500SOL    HW1 1499   0.434   0.682   2.732 -1.4332  0.0822 -2.3836
  500SOL    HW2 1500   0.571   0.599   2.693 -0.5268  0.0561 -0.3700
  501SOL     OW 1501   1.535   2.778   1.669 -0.1757 -0.3776  0.2592
  501SOL    HW1 1502   1.626   2.827   1.656  0.9344 -1.4770  0.9704
  501SOL    HW2 1503   1.519   2.746   1.764  0.9197 -1.8927 -0.8936
  502SOL     OW 1504   0.141   3.089   2.423  0.4639  0.3841  0.1571
  502SOL    HW1 1505   0.042   3.084   2.430  1.1879 -0.0522 -1.3933
  502SOL    HW2 1506   0.188   3.075   2.510  0.0202  0.6218  0.0036
  503SOL     OW 1507   1.878   2.491   2.303 -0.4191 -0.1690  0.0872
  503SOL    HW1 1508   1.924   2.466   2.218  0.7979  1.8640  1.7747
  503SOL    HW2 1509   1.844   2.588   2.302 -0.9033  0.1729  3.6064
  504SOL     OW 1510   1.867   0.079   1.747  0.2405  0.1278  0.2398
  504SOL    HW1 1511   1.784   0.029   1.777  1.1090  1.1209 -0.3976
  504SOL    HW2 1512   1.887   0.060   1.646  0.8165 -0.2739 -3.1445
  505SOL     OW 1513   2.526   1.703   1.653 -0.6817 -0.3919 -0.3946
  505SOL    HW1 1514   2.621   1.736   1.620  0.3261  0.2156 -3.3315
  505SOL    HW2 1515   2.486   1.647   1.582 -1.4849  0.3838  0.7896
  506SOL     OW 1516   0.221   1.480   1.912 -0.2601 -0.0784 -0.2434
  506SOL    HW1 1517   0.130   1.435   1.907  2.5551 -2.7078 -0.0600
  506SOL    HW2 1518   0.243   1.535   1.824 -0.5973 -3.2014 -2.2885
  507SOL     OW 1519   0.552   2.683   1.671  0.0215 -0.3041  0.3711
  507SOL    HW1 1520   0.616   2.707   1.748  0.4737  3.3354 -0.5894
  507SOL    HW2 1521   0.567   2.589   1.639  2.1028  3.2813  1.6600
  508SOL     OW 1522   0.732   0.678   1.567 -0.1020 -0.0603 -0.0350
  508SOL    HW1 1523   0.814   0.653   1.628  2.0395  0.2739 -1.9927
  508SOL    HW2 1524   0.652   0.614   1.588  0.4309 -0.1371  2.3526
  509SOL     OW 1525   1.677   2.408   1.847 -0.0644 -0.1566  0.1889
  509SOL    HW1 1526   1.739   2.488   1.873 -0.0248  0.0013  2.5833
  509SOL    HW2 1527   1.581   2.429   1.869 -0.7481 -0.6865 -0.9088
  510SOL     OW 1528   2.562   1.078   2.730 -0.2206  0.0774 -0.6911
  510SOL    HW1 1529   2.650   1.129   2.719  0.8813  0.4284 -1.5920
  510SOL    HW2 1530   2.488   1.140   2.765 -1.9966 -0.7977  0.7320
  511SOL     OW 1531   0.848   1.310   1.380  0.1104 -0.0548 -0.5719
  511SOL    HW1 1532   0.906   1.304   1.297 -0.6181 -2.0425  1.9919
  511SOL    HW2 1533   0.864   1.222   1.432  1.0719  1.7912  2.3261
  512SOL     OW 1534   2.658   1.621   0.569  0.1378  0.3977 -0.3714
  512SOL    HW1 1535   2.747   1.617   0.613 -3.7427  1.0835  1.8032
  512SOL    HW2 1536   2.612   1.703   0.607 -3.0851 -2.1370 -1.9241
  513SOL     OW 1537   0.852   1.963   2.487 -0.3796 -0.1595 -0.8335
  513SOL    HW1 1538   0.883   2.047   2.540 -1.5909 -0.1340  1.5757
  513SOL    HW2 1539   0.928   1.914   2.437 -1.4973  1.9337  0.8023
  514SOL     OW 1540   0.080   2.265   1.510 -0.4598  0.4219 -0.0745
  514SOL    HW1 1541   0.013   2.242   1.439  2.0390  0.7267  1.1803
  514SOL    HW2 1542   0.043   2.237   1.596 -0.4781  0.4459 -2.1953
  515SOL     OW 1543   2.173   1.049   1.645  0.2207 -0.5221  0.1643
  515SOL    HW1 1544   2.268   1.086   1.648  0.0926 -0.0482  1.2295
  515SOL    HW2 1545   2.103   1.123   1.653 -1.4820  0.1211  1.6519
  516SOL     OW 1546   2.635   2.984   2.965  0.1476 -0.1366 -0.2083
  516SOL    HW1 1547   2.595   3.035   2.886  0.8225 -4.2870 -0.2584
  516SOL    HW2 1548   2.589   3.005   3.051  1.4783  0.4547  0.8810
  517SOL     OW 1549   1.170   1.643   2.934 -0.0880 -0.1406 -0.0939
  517SOL    HW1 1550   1.216   1.618   3.021  0.3631  0.3102  1.4069
  517SOL    HW2 1551   1.213   1.595   2.857 -1.0487 -2.9803  0.8255
  518SOL     OW 1552   1.417   3.069   1.443  0.2665  0.2023 -0.1442
  518SOL    HW1 1553   1.508   3.084   1.401 -0.1864  1.5443  1.8180
  518SOL    HW2 1554   1.351   3.055   1.368 -0.7337 -0.1373 -2.0682
  519SOL     OW 1555   2.262   2.530   1.002  0.0691 -0.5995 -0.1750
  519SOL    HW1 1556   2.364   2.531   0.984  0.1005 -0.0578  0.0277
  519SOL    HW2 1557   2.218   2.621   0.991 -1.4073  0.2676 -0.7954
  520SOL     OW 1558   2.973   2.128   2.102 -0.3379 -0.0560  0.3028
  520SOL    HW1 1559   2.938   2.039   2.073 -0.4956 -0.6933 -4.9730
  520SOL    HW2 1560   2.949   2.146   2.200  1.3072  0.9797  1.3320
  521SOL     OW 1561   2.957   0.849   3.045  0.1649  0.1012  0.6000
  521SOL    HW1 1562   3.041   0.796   3.030  0.4107 -0.8849  1.8744
  521SOL    HW2 1563   2.972   0.918   0.019  1.6634 -0.2721 -0.4814
  522SOL     OW 1564   0.935   0.827   2.416 -0.2033  0.5940  0.1961
  522SOL    HW1 1565   0.965   0.910   2.363  1.8460 -0.1073  0.3444
  522SOL    HW2 1566   0.854   0.790   2.366 -0.5789  2.1188  1.0855
  523SOL     OW 1567   0.102   2.412   0.656  0.4210  0.1927 -0.4580
  523SOL    HW1 1568   0.120   2.454   0.748  0.0431  1.0255  2.4206
  523SOL    HW2 1569   0.118   2.312   0.661 -1.1264 -0.5520  1.5178
  524SOL     OW 1570   1.874   2.581   3.072 -0.1704 -0.2946 -0.6029
  524SOL    HW1 1571   1.962   2.538   3.048 -1.6787 -1.2086 -1.3170
  524SOL    HW2 1572   1.830   2.516   0.034  2.4560  2.3367  1.1392
  525SOL     OW 1573   2.496   0.472   1.267 -0.2324  0.1139  0.3724
  525SOL    HW1 1574   2.510   0.564   1.225 -0.0294 -1.8394  0.0347
  525SOL    HW2 1575   2.402   0.441   1.250  2.2025  1.1104  0.1956
  526SOL     OW 1576   1.146   2.797   0.431 -0.6281  0.7984 -0.6800
  526SOL    HW1 1577   1.203   2.878   0.456 -1.8957 -1.5180 -1.6911
  526SOL    HW2 1578   1.157   2.726   0.507  2.5389  2.0214  1.1934
  527SOL     OW 1579   2.164   2.861   0.551  0.0570 -0.2518 -0.3385
  527SOL    HW1 1580   2.103   2.792   0.508 -0.2120  0.4286  1.1923
  527SOL    HW2 1581   2.191   2.937   0.483  3.1581  0.4026 -2.6863
  528SOL     OW 1582   1.763   0.811   2.886 -0.3622  0.0612 -0.0250
  528SOL    HW1 1583   1.798   0.801   2.793  1.6591 -2.3944 -1.7638
  528SOL    HW2 1584   1.766   0.718   2.926  0.1555 -2.8899 -2.8274
  529SOL     OW 1585   1.532   1.559   2.425 -0.0780 -0.2038  0.2779
  529SOL    HW1 1586   1.484   1.639   2.472 -0.8525  1.6975 -0.5910
  529SOL    HW2 1587   1.577   1.498   2.494  3.1422 -1.1054 -2.1796
  530SOL     OW 1588   2.437   2.774   2.902 -0.4771 -0.0568 -0.5246
  530SOL    HW1 1589   2.391   2.801   2.818 -1.3934 -0.4797  2.9278
  530SOL    HW2 1590   2.522   2.829   2.921  0.7104 -1.5143  0.7549
  531SOL     OW 1591   1.849   1.493   2.998 -0.3810  0.4524  0.2759
  531SOL    HW1 1592   1.815   1.478   3.090  4.4526  1.7890 -2.7429
  531SOL    HW2 1593   1.892   1.580   2.984 -2.4102 -0.9535 -0.1792
  532SOL     OW 1594   1.515   0.233   1.036 -0.4658  0.0117  0.2537
  532SOL    HW1 1595   1.462   0.260   1.118  0.4894 -0.8076  0.5080
  532SOL    HW2 1596   1.580   0.311   1.008 -0.0147  0.1520 -0.8604
  533SOL     OW 1597   0.558   1.139   2.846 -0.3597  0.4444  0.1475
  533SOL    HW1 1598   0.581   1.223   2.793 -1.3278 -0.5476  1.5262
  533SOL    HW2 1599   0.640   1.074   2.855  0.1735  1.3561 -0.2322
  534SOL     OW 1600   1.442   0.370   0.022  0.0181 -0.0009 -0.2363
  534SOL    HW1 1601   1.548   0.371   0.020  1.2588 -0.4822  0.5989
  534SOL    HW2 1602   1.394   0.403   3.042 -1.6278 -1.0034  2.5704
  535SOL     OW 1603   0.570   2.295   3.096  0.2531 -0.4274 -0.6898
  535SOL    HW1 1604   0.504   2.369   3.079 -1.7165  0.0999 -0.7887
  535SOL    HW2 1605   0.524   2.209   0.018 -2.5377  1.1415  1.6922
  536SOL     OW 1606   0.466   3.040   0.251 -0.3724 -0.2608 -0.1000
  536SOL    HW1 1607   0.496   3.074   0.161 -1.8393 -1.4688 -1.7656
  536SOL    HW2 1608   0.528   2.968   0.280  0.7275 -0.8722 -2.7586
  537SOL     OW 1609   1.790   0.436   0.295 -0.2155  0.1559  0.0088
  537SOL    HW1 1610   1.825   0.353   0.338 -2.2723  4.8455  0.2905
  537SOL    HW2 1611   1.716   0.485   0.350  0.9844 -1.3772  1.6294
  538SOL     OW 1612   2.539   2.148   2.884 -0.1417  0.2298  0.3495
  538SOL    HW1 1613   2.626   2.097   2.878  0.9533 -0.1973  0.2910
  538SOL    HW2 1614   2.541   2.229   2.820  1.8945  0.7268  1.2854
  539SOL     OW 1615   2.610   1.351   2.928  0.3604 -0.4380 -0.6694
  539SOL    HW1 1616   2.539   1.336   2.855 -0.4140  2.3614  0.2277
  539SOL    HW2 1617   2.701   1.310   2.897  0.5886 -2.0183 -0.9816
  540SOL     OW 1618   0.942   2.884   1.777  0.5141 -0.1864 -0.4437
  540SOL    HW1 1619   0.934   2.981   1.813  1.1033 -0.2083  0.1315
  540SOL    HW2 1620   0.900   2.862   1.690  0.2584 -2.2059  1.1870
  541SOL     OW 1621   2.427   0.004   2.393  0.1095 -0.3138 -0.2177
  541SOL    HW1 1622   2.367   3.030   2.369 -2.2683 -0.4582  0.0924
  541SOL    HW2 1623   2.525   3.076   2.395  0.0765 -0.3458 -2.6042
  542SOL     OW 1624   0.304   0.899   3.068 -0.2373  0.6551  0.0979
  542SOL    HW1 1625   0.214   0.860   3.054  2.4417 -0.0198 -0.7919
  542SOL    HW2 1626   0.313   0.960   0.048  1.7722 -0.6310  2.0561
  543SOL     OW 1627   0.356   0.770   0.997 -0.5942 -0.1046 -0.5759
  543SOL    HW1 1628   0.278   0.836   1.027 -1.2510  0.3020 -0.1193
  543SOL    HW2 1629   0.325   0.702   0.927 -1.7359  2.3954  0.3429
  544SOL     OW 1630   2.524   0.722   1.165 -0.3795  0.1086  0.3595
  544SOL    HW1 1631   2.611   0.741   1.114  0.7314  2.0563 -1.7383
  544SOL    HW2 1632   2.488   0.806   1.218 -2.4447  1.0420 -2.2464
  545SOL     OW 1633   1.220   1.761   0.415 -0.2658 -0.1559 -0.1871
  545SOL    HW1 1634   1.280   1.844   0.408  1.2837 -3.4233 -0.0293
  545SOL    HW2 1635   1.219   1.726   0.316  4.4493 -0.1215 -1.4626
  546SOL     OW 1636   2.408   2.680   1.633  0.4366 -0.0853  0.0924
  546SOL    HW1 1637   2.364   2.589   1.621 -0.7076 -0.3530  1.1436
  546SOL    HW2 1638   2.430   2.733   1.542  0.9941  4.0751 -3.2455
  547SOL     OW 1639   0.868   2.243   2.254 -0.9100  0.1169 -0.1841
  547SOL    HW1 1640   0.965   2.212   2.252 -1.6491  3.0346  2.4437
  547SOL    HW2 1641   0.846   2.290   2.347 -0.5180 -0.0166  5.9176
  548SOL     OW 1642   1.257   0.837   2.784 -0.2018 -1.1010  0.2561
  548SOL    HW1 1643   1.165   0.837   2.742  1.3835  0.9137 -0.6682
  548SOL    HW2 1644   1.257   0.769   2.858 -0.1197  1.5471 -2.0035
  549SOL     OW 1645   2.547   0.706   0.352 -0.3158 -0.4098  0.3146
  549SOL    HW1 1646   2.451   0.675   0.341 -0.1899  2.1124  2.2913
  549SOL    HW2 1647   2.559   0.805   0.327  0.3978  1.8531  0.2326
  550SOL     OW 1648   2.125   1.082   0.338 -0.1254 -0.4501 -0.1394
  550SOL    HW1 1649   2.216   1.111   0.365 -2.4416 -2.9503 -0.7766
  550SOL    HW2 1650   2.083   1.140   0.259 -0.8444 -0.3633  2.5555
  551SOL     OW 1651   1.656   0.293   1.389 -0.5988 -0.2303  0.1393
  551SOL    HW1 1652   1.740   0.321   1.336  1.6991  0.1272 -0.9229
  551SOL    HW2 1653   1.577   0.336   1.343  0.1804  0.0942 -0.5696
  552SOL     OW 1654   1.880   0.171   2.815 -0.4310 -0.2344  0.1606
  552SOL    HW1 1655   1.963   0.230   2.815 -1.4041 -0.5047 -0.4129
  552SOL    HW2 1656   1.898   0.096   2.877  1.8216 -0.1770 -0.0641
  553SOL     OW 1657   0.633   2.915   2.058  0.3603 -0.4830 -0.4637
  553SOL    HW1 1658   0.665   2.829   2.007  0.2111 -2.9455 -1.8997
  553SOL    HW2 1659   0.583   2.974   1.990  2.7835 -0.8635 -0.2749
  554SOL     OW 1660   0.237   0.078   1.367  0.1868 -0.4155  0.3230
  554SOL    HW1 1661   0.237   0.176   1.396  0.3580 -0.0923  0.7686
  554SOL    HW2 1662   0.329   0.061   1.321 -0.0244 -1.3332  0.3445
  555SOL     OW 1663   2.378   1.839   2.209 -0.2305  1.1094  0.6225
  555SOL    HW1 1664   2.361   1.927   2.256 -1.0083  1.9758 -0.5927
  555SOL    HW2 1665   2.479   1.827   2.205 -1.5270  0.1829  0.6267
  556SOL     OW 1666   1.033   0.518   3.009 -0.1771 -0.1427 -0.8161
  556SOL    HW1 1667   1.034   0.426   2.970  1.5418  1.3203 -1.5262
  556SOL    HW2 1668   0.958   0.581   2.984 -1.3278  1.1347  2.4779
  557SOL     OW 1669   0.241   2.098   2.388 -0.4551 -0.9164  0.0021
  557SOL    HW1 1670   0.316   2.159   2.349 -0.1065  0.0454 -1.2545
  557SOL    HW2 1671   0.188   2.062   2.308  1.4849  0.6882  1.7729
  558SOL     OW 1672   1.981   0.513   2.884  0.0275 -0.1434 -0.1612
  558SOL    HW1 1673   2.015   0.552   2.795  1.3203 -0.1359 -0.2321
  558SOL    HW2 1674   2.023   0.565   2.964  3.6856  0.6491 -0.3490
  559SOL     OW 1675   2.215   1.991   1.631 -0.1460  0.0330  0.2484
  559SOL    HW1 1676   2.192   1.909   1.690 -0.1916  0.3168  1.7765
  559SOL    HW2 1677   2.238   2.071   1.692 -1.2510 -2.8282 -0.1369
  560SOL     OW 1678   1.987   1.071   1.949 -0.8527 -0.1480  0.8937
  560SOL    HW1 1679   2.002   1.009   1.873  0.7649  0.2256  0.2829
  560SOL    HW2 1680   1.888   1.098   1.961 -1.8675 -1.2153 -1.5568
  561SOL     OW 1681   0.057   0.040   2.870 -0.2363  0.5315  0.0466
  561SOL    HW1 1682   0.064   3.041   2.878  1.2131 -1.7676 -2.1595
  561SOL    HW2 1683   0.119   0.075   2.796 -2.8850  0.6199 -0.5739
  562SOL     OW 1684   1.046   1.705   1.528  0.2709  0.3931  0.3260
  562SOL    HW1 1685   1.139   1.708   1.488  0.2759  0.4139 -1.8083
  562SOL    HW2 1686   0.978   1.721   1.453  0.2562 -1.0468 -2.0736
  563SOL     OW 1687   1.037   0.211   3.053  0.4776  0.3779  0.1864
  563SOL    HW1 1688   1.083   0.163   0.025 -1.0821  1.6395 -1.5798
  563SOL    HW2 1689   0.941   0.175   3.049 -2.8852 -0.0169 -0.4677
  564SOL     OW 1690   2.948   2.456   0.750 -0.2218 -0.3995 -0.3018
  564SOL    HW1 1691   3.041   2.469   0.718 -0.2914 -1.2722 -0.7219
  564SOL    HW2 1692   2.896   2.531   0.706  1.3411  0.3415 -0.7754
  565SOL     OW 1693   0.650   2.191   1.176 -0.2379 -0.5009 -0.0571
  565SOL    HW1 1694   0.680   2.146   1.262 -0.5912 -0.5052 -2.3264
  565SOL    HW2 1695   0.571   2.141   1.138  1.9821  0.8800 -0.0428
  566SOL     OW 1696   1.195   0.139   2.596  0.7787 -0.7379  0.0656
  566SOL    HW1 1697   1.218   0.041   2.588  1.3895 -0.5006 -0.9949
  566SOL    HW2 1698   1.113   0.161   2.541 -0.9969  1.8854 -0.8383
  567SOL     OW 1699   2.281   2.883   0.791 -0.1183  0.2143 -0.4841
  567SOL    HW1 1700   2.339   2.962   0.763  2.7148 -1.4258  2.3037
  567SOL    HW2 1701   2.209   2.867   0.720  0.8523  0.3961 -0.6221
  568SOL     OW 1702   1.478   1.465   0.794  0.1837 -0.2811 -0.3078
  568SOL    HW1 1703   1.570   1.490   0.755  0.5115 -1.3803 -0.0786
  568SOL    HW2 1704   1.408   1.527   0.759  1.0599  1.0078  1.4219
  569SOL     OW 1705   2.400   1.142   2.441 -0.4977 -0.1418  0.1917
  569SOL    HW1 1706   2.365   1.171   2.534  2.5416 -0.6708  3.0644
  569SOL    HW2 1707   2.465   1.064   2.448 -1.0785  3.0624 -1.3070
  570SOL     OW 1708   3.025   0.183   2.144 -0.3779 -0.1630  0.0021
  570SOL    HW1 1709   3.059   0.203   2.236  1.1494 -0.4258 -2.4264
  570SOL    HW2 1710   3.089   0.126   2.089  1.9850 -1.6871 -2.3166
  571SOL     OW 1711   0.289   3.064   1.691  0.4889  0.0864 -0.4462
  571SOL    HW1 1712   0.275   3.042   1.789  0.5781  1.4640 -0.8520
  571SOL    HW2 1713   0.276   2.980   1.634 -1.2486  1.5011  0.0728
  572SOL     OW 1714   2.995   2.231   1.300 -0.3022 -0.3983  0.5180
  572SOL    HW1 1715   2.906   2.283   1.314  2.0390  1.1684  0.8089
  572SOL    HW2 1716   3.003   2.196   1.204 -1.3631  3.5271  1.3531
  573SOL     OW 1717   0.996   0.804   2.679  0.3344  0.0034 -0.1662
  573SOL    HW1 1718   0.921   0.766   2.741  0.8641 -2.6197  0.4847
  573SOL    HW2 1719   0.969   0.795   2.580 -0.2905 -0.8694 -0.4820
  574SOL     OW 1720   2.492   2.468   2.470 -0.4308 -0.1234 -0.9324
  574SOL    HW1 1721   2.552   2.542   2.442 -1.4188 -3.0867  0.7861
  574SOL    HW2 1722   2.426   2.445   2.400  2.0911 -0.3888  0.7904
  575SOL     OW 1723   1.194   2.834   0.906 -0.5356 -0.5988  0.3867
  575SOL    HW1 1724   1.165   2.773   0.982  0.1819 -1.7352 -1.0939
  575SOL    HW2 1725   1.294   2.850   0.911 -0.6900  1.2327 -1.5470
  576SOL     OW 1726   1.185   0.381   0.969 -0.0549  0.1458 -0.2899
  576SOL    HW1 1727   1.215   0.292   0.931 -2.5085 -2.7860  0.8871
  576SOL    HW2 1728   1.113   0.434   0.920  2.4353 -0.5067  0.1735
  577SOL     OW 1729   1.951   1.262   0.488  0.4242  0.5042  0.1157
  577SOL    HW1 1730   1.963   1.205   0.405 -1.9369 -1.5370 -2.3613
  577SOL    HW2 1731   1.947   1.204   0.568  0.8320 -1.0860  0.6499
  578SOL     OW 1732   1.861   0.621   1.009 -0.0638  0.3727 -0.0174
  578SOL    HW1 1733   1.820   0.714   0.989  2.0495 -1.1493  0.3265
  578SOL    HW2 1734   1.937   0.623   1.076  0.8049 -0.4694 -1.6624
  579SOL     OW 1735   1.831   0.779   2.633  0.5372  0.0417 -0.3444
  579SOL    HW1 1736   1.748   0.730   2.597 -0.9887 -1.0718  0.8458
  579SOL    HW2 1737   1.858   0.856   2.569 -1.0014 -1.6356  0.8414
  580SOL     OW 1738   1.537   0.965   1.870  0.0156 -0.0548 -0.2286
  580SOL    HW1 1739   1.483   1.047   1.891  0.3209 -5.0202 -0.9410
  580SOL    HW2 1740   1.500   0.881   1.925 -0.2465 -0.8710  2.2156
  581SOL     OW 1741   0.280   0.560   0.841 -0.0707 -0.2718 -0.7242
  581SOL    HW1 1742   0.215   0.496   0.887 -0.8081 -0.3260  0.9161
  581SOL    HW2 1743   0.357   0.518   0.789 -0.4075 -0.0121  1.4438
  582SOL     OW 1744   2.876   0.467   1.843  0.1137 -0.1475  0.4116
  582SOL    HW1 1745   2.796   0.504   1.788 -0.3396  2.4422  1.0868
  582SOL    HW2 1746   2.843   0.436   1.932 -1.4035 -0.3039 -2.8612
  583SOL     OW 1747   0.342   0.519   2.425 -0.1506 -0.2460 -0.5077
  583SOL    HW1 1748   0.412   0.511   2.496 -1.1224 -1.5290 -3.6034
  583SOL    HW2 1749   0.277   0.440   2.446 -2.1313  0.3078  0.7620
  584SOL     OW 1750   1.917   2.141   0.228 -0.2847  0.7339  0.2165
  584SOL    HW1 1751   1.922   2.064   0.158 -3.0514 -3.5497 -1.3468
  584SOL    HW2 1752   1.902   2.228   0.177 -0.7843  0.9550  1.8923
  585SOL     OW 1753   0.158   2.218   0.110 -0.2009 -0.1637 -0.0587
  585SOL    HW1 1754   0.146   2.133   0.056  1.9395  0.5578  0.2959
  585SOL    HW2 1755   0.240   2.206   0.175  2.4703  1.2631  2.2405
  586SOL     OW 1756   1.914   1.829   2.288  0.0679  0.6101 -0.5942
  586SOL    HW1 1757   1.903   1.750   2.225  2.7440  1.9446  1.2933
  586SOL    HW2 1758   1.897   1.922   2.246  0.3366  2.6762  0.4011
  587SOL     OW 1759   2.536   1.729   2.799 -0.4420 -0.7154  0.1373
  587SOL    HW1 1760   2.546   1.674   2.883  0.6101  0.0895 -0.8122
  587SOL    HW2 1761   2.461   1.798   2.814  1.3640 -0.0997 -1.5532
  588SOL     OW 1762   2.873   0.255   1.289  0.0196 -0.3818  0.7208
  588SOL    HW1 1763   2.916   0.308   1.213 -0.7917  0.3072 -2.6549
  588SOL    HW2 1764   2.916   0.277   1.381 -2.4283 -0.6314 -0.4805
  589SOL     OW 1765   1.016   0.358   0.406  0.2114 -0.0155  0.4250
  589SOL    HW1 1766   1.060   0.414   0.336  0.4775 -0.9841  1.2376
  589SOL    HW2 1767   0.914   0.362   0.386 -4.2335  0.7047  0.2471
  590SOL     OW 1768   2.463   1.959   0.618 -0.0980 -0.0453  0.0415
  590SOL    HW1 1769   2.391   2.032   0.597 -1.0551  0.8086  0.0624
  590SOL    HW2 1770   2.522   1.947   0.538 -0.4257  1.7283 -1.0695
  591SOL     OW 1771   0.587   2.615   0.980 -0.7739  0.1031 -0.2450
  591SOL    HW1 1772   0.599   2.514   0.951 -1.4799 -1.3873  3.1114
  591SOL    HW2 1773   0.496   2.655   0.957 -1.9825  2.7718 -0.4077
  592SOL     OW 1774   1.455   1.003   1.195  0.1468  0.3246  0.3723
  592SOL    HW1 1775   1.422   1.042   1.279  2.4240  0.0287 -0.2851
  592SOL    HW2 1776   1.421   0.908   1.183 -1.6274 -0.8419  1.3481
  593SOL     OW 1777   1.027   2.379   1.644 -0.3898  0.3903 -0.1163
  593SOL    HW1 1778   1.045   2.392   1.544  0.4383  1.5996 -0.4149
  593SOL    HW2 1779   1.037   2.460   1.704 -1.4120 -0.1689  1.9969
  594SOL     OW 1780   1.083   1.406   0.160 -0.5643  0.6340  0.0535
  594SOL    HW1 1781   1.164   1.340   0.170  1.4481 -3.3124 -0.3336
  594SOL    HW2 1782   1.045   1.440   0.249 -2.6494  1.8960  0.6223
  595SOL     OW 1783   1.600   1.191   1.553  0.8193  0.1605  0.1918
  595SOL    HW1 1784   1.642   1.287   1.554  0.0237 -0.8856 -1.3996
  595SOL    HW2 1785   1.508   1.203   1.507  0.0633  0.9788 -1.3408
  596SOL     OW 1786   2.834   0.963   2.023  0.2603  0.0386  0.0058
  596SOL    HW1 1787   2.794   0.870   2.036 -1.4444 -1.8640  1.0260
  596SOL    HW2 1788   2.923   0.960   1.980 -1.7673 -0.7416 -1.0321
  597SOL     OW 1789   1.411   2.726   1.904  0.0403  0.8980 -0.4101
  597SOL    HW1 1790   1.359   2.812   1.887  2.7086  1.2281  1.6616
  597SOL    HW2 1791   1.407   2.712   2.007 -1.0869 -0.2874 -1.4692
  598SOL     OW 1792   2.621   1.380   1.485 -0.0512  0.2304 -0.1997
  598SOL    HW1 1793   2.649   1.444   1.414 -3.2202 -1.6258 -0.3235
  598SOL    HW2 1794   2.537   1.407   1.533 -2.9154 -0.1468  0.1774
  599SOL     OW 1795   0.819   2.644   3.013 -0.0663  0.1761 -0.2342
  599SOL    HW1 1796   0.738   2.663   3.074 -1.8834 -1.8124 -0.0144
  599SOL    HW2 1797   0.856   2.550   3.033 -1.3073 -0.4715 -1.2712
  600SOL     OW 1798   3.021   2.284   0.195  0.2601 -0.4453  0.0180
  600SOL    HW1 1799   2.951   2.218   0.159 -0.3238  2.9257 -0.8835
  600SOL    HW2 1800   0.012   2.255   0.161  3.2182 -0.5860 -0.5917
  601SOL     OW 1801   0.575   0.923   1.444  0.0992 -0.2883 -0.0680
  601SOL    HW1 1802   0.510   0.870   1.389 -1.2593 -0.0023  1.5954
  601SOL    HW2 1803   0.642   0.859   1.491  1.5429  1.7902  1.8724
  602SOL     OW 1804   0.540   0.182   1.071 -0.5259 -0.2616 -0.0655
  602SOL    HW1 1805   0.588   0.166   1.158 -0.8948 -1.0204  0.5276
  602SOL    HW2 1806   0.545   0.096   1.013 -1.4611  0.2947 -0.3110
  603SOL     OW 1807   0.316   3.074   2.652 -0.0867 -0.5172  0.4069
  603SOL    HW1 1808   0.328   3.063   2.753 -2.7137  0.4774 -0.2980
  603SOL    HW2 1809   0.380   0.038   2.606 -1.0623  0.3145 -2.1644
  604SOL     OW 1810   1.069   2.425   1.367  0.1804  0.0161 -0.6074
  604SOL    HW1 1811   1.156   2.385   1.329 -1.2181 -0.8000 -0.5186
  604SOL    HW2 1812   0.999   2.439   1.294 -1.0617  2.7887  2.7950
  605SOL     OW 1813   1.721   1.203   1.968 -0.0716 -0.3785  0.2077
  605SOL    HW1 1814   1.778   1.270   1.912  0.3388  2.1696  0.1841
  605SOL    HW2 1815   1.621   1.207   1.941 -0.4705  0.6447 -1.3405
  606SOL     OW 1816   2.094   2.866   3.040 -0.8328  0.1912  0.4547
  606SOL    HW1 1817   2.113   2.802   0.014 -0.6703  1.0382  3.5607
  606SOL    HW2 1818   2.147   2.953   3.056  1.0578  0.5144  0.3726
  607SOL     OW 1819   0.723   0.157   1.854 -0.3886 -0.3827  0.5218
  607SOL    HW1 1820   0.822   0.127   1.861 -0.2983 -2.2715 -2.3076
  607SOL    HW2 1821   0.667   0.104   1.785 -2.2333 -0.8912  1.4927
  608SOL     OW 1822   0.279   2.293   2.049 -0.4647  0.4287  0.0478
  608SOL    HW1 1823   0.214   2.212   2.043  0.4379 -1.5772  0.8276
  608SOL    HW2 1824   0.337   2.298   1.965 -0.3188  1.2391  0.1923
  609SOL     OW 1825   1.189   1.123   0.246 -0.4020  0.2282  0.0458
  609SOL    HW1 1826   1.154   1.091   0.334  1.4751 -0.7926 -1.6414
  609SOL    HW2 1827   1.144   1.079   0.166 -1.2244 -0.5896 -0.5207
  610SOL     OW 1828   0.284   2.893   1.133 -0.4110 -0.0086 -0.1506
  610SOL    HW1 1829   0.349   2.957   1.174 -0.1087  0.4739  0.0446
  610SOL    HW2 1830   0.257   2.822   1.203 -0.1519 -0.9530  0.7077
  611SOL     OW 1831   0.952   1.212   0.669 -0.2277  0.1061  0.0123
  611SOL    HW1 1832   0.885   1.211   0.591  1.7556  0.4849  1.3183
  611SOL    HW2 1833   0.945   1.125   0.716  0.2775  1.5757 -0.0922
  612SOL     OW 1834   2.179   1.723   0.307  0.3851 -0.2832 -0.3657
  612SOL    HW1 1835   2.202   1.816   0.265  0.4491  1.6863 -1.5678
  612SOL    HW2 1836   2.119   1.732   0.388 -1.4213 -0.9131 -1.2949
  613SOL     OW 1837   1.517   1.476   0.389  0.8292 -0.2962 -0.6544
  613SOL    HW1 1838   1.615   1.500   0.378  0.5819 -2.0758  2.0267
  613SOL    HW2 1839   1.467   1.483   0.299  0.2657 -2.5897  0.7783
  614SOL     OW 1840   2.708   0.198   2.503  0.1838 -0.3396  0.2048
  614SOL    HW1 1841   2.656   0.217   2.418 -1.1691  2.7168 -0.1797
  614SOL    HW2 1842   2.791   0.261   2.503 -1.7504  2.7351  1.5981
  615SOL     OW 1843   0.750   1.449   0.349 -0.3191  0.1052  0.9051
  615SOL    HW1 1844   0.811   1.423   0.268  1.7915 -2.0715 -3.0500
  615SOL    HW2 1845   0.735   1.368   0.410 -1.0393 -2.6221 -2.0703
  616SOL     OW 1846   1.462   1.036   2.785  0.0343  0.6511 -0.2342
  616SOL    HW1 1847   1.502   0.998   2.872  1.2313 -1.7587  0.9464
  616SOL    HW2 1848   1.367   1.003   2.783  0.9198 -0.7345 -0.3745
  617SOL     OW 1849   1.460   0.261   0.426  0.1220 -0.1435  0.0176
  617SOL    HW1 1850   1.471   0.359   0.407  1.5966  0.4745  0.8324
  617SOL    HW2 1851   1.384   0.255   0.491  2.6668  1.4401 -0.3940
  618SOL     OW 1852   2.764   1.886   2.434 -0.7469  0.1421 -0.0658
  618SOL    HW1 1853   2.842   1.823   2.419 -1.5161  1.4195  0.0087
  618SOL    HW2 1854   2.734   1.885   2.530  3.0651 -1.7403  0.7044
  619SOL     OW 1855   2.225   1.727   0.824  0.4211 -0.3459 -0.2099
  619SOL    HW1 1856   2.215   1.808   0.890 -0.5798  1.6955 -0.6605
  619SOL    HW2 1857   2.321   1.715   0.792 -0.7791 -1.2184 -0.4875
  620SOL     OW 1858   2.260   0.024   1.260 -0.0754 -0.1305 -0.2717
  620SOL    HW1 1859   2.190   0.084   1.221 -2.8656 -1.2776  0.6310
  620SOL    HW2 1860   2.230   3.031   1.282 -1.3034  2.4966 -0.4751
  621SOL     OW 1861   0.121   2.071   0.901  0.5223  0.7965 -0.0566
  621SOL    HW1 1862   0.158   2.109   0.986  2.9335 -1.7679 -1.0075
  621SOL    HW2 1863   0.153   2.123   0.819 -0.7895 -1.4243  0.5470
  622SOL     OW 1864   0.757   1.559   2.071 -0.1701 -0.5138 -0.6076
  622SOL    HW1 1865   0.693   1.587   2.146  2.1729 -0.2299  0.1954
  622SOL    HW2 1866   0.841   1.613   2.061 -0.2888 -0.4813 -1.5470
  623SOL     OW 1867   2.535   2.732   2.355  0.0093  0.1585 -0.1362
  623SOL    HW1 1868   2.443   2.770   2.344  0.8975  0.5983 -2.0993
  623SOL    HW2 1869   2.600   2.809   2.348 -0.3292  0.2269 -0.0516
  624SOL     OW 1870   0.756   1.730   0.429 -0.4176  0.1586 -0.2577
  624SOL    HW1 1871   0.759   1.635   0.461  0.2641  1.5602  0.5622
  624SOL    HW2 1872   0.834   1.783   0.467 -1.2332 -0.4902 -0.5786
  625SOL     OW 1873   0.659   2.079   2.276  0.7658 -0.2371  0.2449
  625SOL    HW1 1874   0.686   2.015   2.351  1.7486 -0.2938 -2.9126
  625SOL    HW2 1875   0.743   2.132   2.245 -1.1955  0.3789  0.1296
  626SOL     OW 1876   0.062   2.461   0.398 -0.1776 -0.0823 -0.3190
  626SOL    HW1 1877   0.078   2.435   0.498 -1.2594  1.8047  0.9365
  626SOL    HW2 1878   0.055   2.382   0.332 -0.6457 -3.6316 -1.3991
  627SOL     OW 1879   1.048   1.788   2.419  0.0603  0.7415 -0.0944
  627SOL    HW1 1880   1.029   1.689   2.398 -0.5017 -0.0430 -1.3160
  627SOL    HW2 1881   1.097   1.806   2.507 -2.0928 -1.7887 -0.0541
  628SOL     OW 1882   1.349   2.016   0.404  0.3139  0.0355 -0.1520
  628SOL    HW1 1883   1.291   2.097   0.407  0.8892  0.2620  0.9773
  628SOL    HW2 1884   1.431   2.023   0.465 -2.0317 -0.3626  0.4788
  629SOL     OW 1885   0.871   0.553   1.773 -0.4796 -0.3233 -0.3528
  629SOL    HW1 1886   0.869   0.547   1.874  0.6550 -2.2229  2.9122
  629SOL    HW2 1887   0.964   0.522   1.750 -2.1446 -1.0787  0.5166
  630SOL     OW 1888   2.321   0.073   1.548 -0.0088 -0.1278 -0.7812
  630SOL    HW1 1889   2.314   0.090   1.445  0.4521 -0.1075 -2.7093
  630SOL    HW2 1890   2.270   3.094   1.578  1.8891  3.2022 -0.3247
  631SOL     OW 1891   1.410   0.561   0.627 -0.1898 -0.1497 -0.2043
  631SOL    HW1 1892   1.400   0.630   0.701  0.4502  0.5456 -0.9844
  631SOL    HW2 1893   1.325   0.508   0.611 -0.6496  0.6257 -2.2301
  632SOL     OW 1894   2.194   0.323   2.111 -0.4954  0.0594 -0.9350
  632SOL    HW1 1895   2.176   0.424   2.096  1.0452  1.3458 -2.6470
  632SOL    HW2 1896   2.200   0.273   2.019  0.7383 -0.0839  0.0985
  633SOL     OW 1897   1.453   1.309   2.863  0.3926  0.3994 -0.2441
  633SOL    HW1 1898   1.365   1.343   2.827 -1.2781  1.0950  0.2416
  633SOL    HW2 1899   1.467   1.209   2.848  0.9893  1.1319 -0.4255
  634SOL     OW 1900   0.379   2.207   0.258  0.2721 -0.0755  0.4247
  634SOL    HW1 1901   0.442   2.285   0.263  0.8463 -2.3577 -1.3646
  634SOL    HW2 1902   0.420   2.133   0.199  0.0545 -0.9728  1.2683
  635SOL     OW 1903   2.801   1.592   2.110 -0.3442 -0.1048 -0.2950
  635SOL    HW1 1904   2.886   1.568   2.169  1.7074  0.0074  1.9597
  635SOL    HW2 1905   2.799   1.545   2.019 -0.4049 -1.8447 -1.4440
  636SOL     OW 1906   0.473   1.938   2.864  0.0338  0.1439  0.1956
  636SOL    HW1 1907   0.463   1.878   2.784 -0.6640  3.4629  1.5484
  636SOL    HW2 1908   0.445   2.034   2.844  0.2827  3.3925  0.6226
  637SOL     OW 1909   0.050   2.010   0.470  0.6053  0.1397  0.2307
  637SOL    HW1 1910   0.027   1.917   0.513  0.4576 -2.8453  3.1253
  637SOL    HW2 1911   3.068   2.068   0.452 -2.5099  2.3458 -2.4960
  638SOL     OW 1912   2.630   2.634   0.488  0.4096 -0.1016 -0.1342
  638SOL    HW1 1913   2.552   2.685   0.454  0.6695 -0.7189  1.0703
  638SOL    HW2 1914   2.609   2.535   0.496 -1.4887  1.9399  0.7518
  639SOL     OW 1915   1.092   0.492   0.181 -0.2055  0.0793 -0.1643
  639SOL    HW1 1916   1.056   0.472   0.086 -1.4073 -0.3967 -3.0060
  639SOL    HW2 1917   1.078   0.588   0.197  1.1127 -0.6384  0.7924
  640SOL     OW 1918   2.474   2.459   1.860  0.4372  0.0181  0.5495
  640SOL    HW1 1919   2.560   2.404   1.859 -2.4963  0.0514  1.2710
  640SOL    HW2 1920   2.445   2.496   1.769 -0.2294 -0.1665 -0.5166
  641SOL     OW 1921   2.471   2.780   1.377 -0.5506  0.3004 -0.0998
  641SOL    HW1 1922   2.389   2.799   1.319 -3.1985  1.6565  0.1922
  641SOL    HW2 1923   2.540   2.855   1.374  2.0412 -0.8891 -1.3164
  642SOL     OW 1924   1.223   1.030   1.631  0.3658 -0.2345 -0.1603
  642SOL    HW1 1925   1.205   1.122   1.590  0.1860 -3.2454 -1.6377
  642SOL    HW2 1926   1.259   0.973   1.552  1.8888 -0.7341  0.7965
  643SOL     OW 1927   1.052   1.351   2.165 -0.0399 -0.3452  0.3640
  643SOL    HW1 1928   0.975   1.296   2.126 -1.6178  1.5872 -0.0798
  643SOL    HW2 1929   1.091   1.412   2.091 -0.5241 -1.6929  1.4277
  644SOL     OW 1930   1.319   0.284   1.985  0.9566 -0.1330 -0.2512
  644SOL    HW1 1931   1.228   0.317   2.028 -1.0971  0.7657 -0.4496
  644SOL    HW2 1932   1.390   0.261   2.054 -0.6479  1.0411  0.6640
  645SOL     OW 1933   2.052   1.308   1.578 -0.2378 -0.2616  0.1865
  645SOL    HW1 1934   2.015   1.330   1.485  0.9728 -0.3199  1.7656
  645SOL    HW2 1935   2.111   1.387   1.597 -1.8928  0.1316 -1.8153
  646SOL     OW 1936   1.551   2.308   0.066  0.2204  0.0778  0.7140
  646SOL    HW1 1937   1.578   2.332   3.072 -0.8497 -1.6018 -2.5171
  646SOL    HW2 1938   1.584   2.211   0.086 -2.0688  0.1132  1.8779
  647SOL     OW 1939   1.654   2.662   0.944 -0.3844 -0.6215 -0.6645
  647SOL    HW1 1940   1.685   2.575   0.907 -2.3697 -0.0175  1.2529
  647SOL    HW2 1941   1.641   2.647   1.046  0.3813 -0.2632  1.8488
  648SOL     OW 1942   0.111   2.552   1.509  0.1279  0.5245 -0.0480
  648SOL    HW1 1943   0.027   2.598   1.536  0.9023 -0.4825 -1.9863
  648SOL    HW2 1944   0.106   2.452   1.524 -0.6598 -0.4408 -0.3932
  649SOL     OW 1945   1.217   2.678   2.736  0.3221  0.1063  0.0896
  649SOL    HW1 1946   1.200   2.606   2.810  1.5784  1.0361  1.0535
  649SOL    HW2 1947   1.292   2.654   2.673 -1.7703  0.3698  0.7116
  650SOL     OW 1948   2.664   1.806   0.019 -0.0364  0.4855 -0.0397
  650SOL    HW1 1949   2.712   1.798   0.107 -0.8631  2.3035 -0.1487
  650SOL    HW2 1950   2.600   1.729   3.099 -2.8728  0.2011 -1.4952
  651SOL     OW 1951   2.495   2.215   2.206 -0.1538  0.1782 -0.4490
  651SOL    HW1 1952   2.514   2.123   2.165  1.7357 -0.2817  0.6172
  651SOL    HW2 1953   2.578   2.273   2.187  0.2542  1.5942  0.5476
  652SOL     OW 1954   2.367   2.421   0.472  0.6817  0.1610  0.2048
  652SOL    HW1 1955   2.399   2.428   0.375 -2.1684  3.0582  1.1713
  652SOL    HW2 1956   2.454   2.400   0.521  0.2174  2.1621 -1.0315
  653SOL     OW 1957   2.756   1.781   1.540 -0.5727 -0.0521 -0.4465
  653SOL    HW1 1958   2.727   1.856   1.480 -0.8349  1.4866 -0.6243
  653SOL    HW2 1959   2.819   1.718   1.489  1.3720 -1.3477 -2.7573
  654SOL     OW 1960   0.767   1.087   3.103  0.5880  0.6626  0.0173
  654SOL    HW1 1961   0.856   1.122   3.062 -0.7020 -2.7704  0.1415
  654SOL    HW2 1962   0.735   1.006   3.047 -0.9273  0.6216  0.9840
  655SOL     OW 1963   1.214   1.169   1.062  0.1284 -0.0723 -0.1109
  655SOL    HW1 1964   1.309   1.150   1.069 -3.1449  1.1972  0.7808
  655SOL    HW2 1965   1.200   1.241   0.990  0.3743 -1.0743 -1.5813
  656SOL     OW 1966   1.496   2.648   2.141  0.3630 -0.8042 -0.5380
  656SOL    HW1 1967   1.514   2.706   2.222 -0.9622 -2.0655 -0.9251
  656SOL    HW2 1968   1.480   2.551   2.173  4.6574  0.0820 -0.9002
  657SOL     OW 1969   1.762   1.575   0.206 -0.1481  0.0211  0.0766
  657SOL    HW1 1970   1.718   1.497   0.160 -0.2170 -2.5855 -2.1433
  657SOL    HW2 1971   1.856   1.591   0.174 -1.8967  1.4540  2.4031
  658SOL     OW 1972   1.794   2.860   1.595 -0.1888  0.4200  0.4637
  658SOL    HW1 1973   1.871   2.841   1.665  0.8151  0.0633  1.5866
  658SOL    HW2 1974   1.818   2.946   1.545  0.3263  1.3218 -0.8842
  659SOL     OW 1975   2.819   1.742   0.274  0.0184  0.1921 -0.3578
  659SOL    HW1 1976   2.906   1.710   0.241 -0.8466  0.7406 -3.0240
  659SOL    HW2 1977   2.791   1.686   0.356 -0.4422 -0.7966  0.2146
  660SOL     OW 1978   1.220   0.194   0.754  0.1938 -0.2063  0.2545
  660SOL    HW1 1979   1.174   0.103   0.752  2.6538 -1.9196  1.0288
  660SOL    HW2 1980   1.322   0.184   0.736 -0.4774  1.6635 -2.9490
  661SOL     OW 1981   1.713   0.372   0.054  0.3475 -0.3883  0.0388
  661SOL    HW1 1982   1.732   0.404   0.149  1.6108  0.5371 -1.5730
  661SOL    HW2 1983   1.762   0.286   0.045 -0.1162  1.1059  2.9219
  662SOL     OW 1984   0.556   0.160   0.405 -0.0361 -0.2842  0.2799
  662SOL    HW1 1985   0.557   0.108   0.493  2.9794  0.4953  2.8917
  662SOL    HW2 1986   0.507   0.097   0.334 -1.6085 -1.0280 -3.3706
  663SOL     OW 1987   1.395   2.608   2.545  0.1334 -0.0322 -0.5261
  663SOL    HW1 1988   1.375   2.674   2.473  0.0743 -1.4690  0.7018
  663SOL    HW2 1989   1.462   2.539   2.510  1.8581  0.8086  2.1353
  664SOL     OW 1990   0.587   2.442   1.460  0.0980 -0.2551 -0.5007
  664SOL    HW1 1991   0.505   2.391   1.479  1.6052  3.6755 -0.7948
  664SOL    HW2 1992   0.570   2.514   1.390  0.3650 -2.0492  1.4172
  665SOL     OW 1993   1.649   2.585   1.207  0.4851  0.4062  0.2621
  665SOL    HW1 1994   1.554   2.554   1.214 -0.4081  0.4007 -1.5474
  665SOL    HW2 1995   1.685   2.597   1.300 -3.2328  0.7354  0.4205
  666SOL     OW 1996   0.993   2.687   2.400 -0.4718  0.1097  0.5474
  666SOL    HW1 1997   1.084   2.642   2.376  2.7295 -0.6045 -2.9922
  666SOL    HW2 1998   0.909   2.661   2.342  0.0711 -0.1639 -0.4927
  667SOL     OW 1999   3.024   0.542   1.311  0.0492 -0.3145 -0.0900
  667SOL    HW1 2000   3.070   0.595   1.386 -1.3506  2.7447  0.9437
  667SOL    HW2 2001   2.986   0.454   1.339  0.4164  1.5750  1.0290
  668SOL     OW 2002   1.086   0.104   1.656  0.7589 -0.0797 -0.1341
  668SOL    HW1 2003   1.091   0.084   1.558 -1.0594  1.7461 -2.5946
  668SOL    HW2 2004   1.177   0.134   1.680 -0.5446 -1.1439 -4.0359
  669SOL     OW 2005   1.899   2.629   1.164 -0.5567 -0.3418 -0.2193
  669SOL    HW1 2006   1.800   2.599   1.163  1.8218 -0.4223 -2.4235
  669SOL    HW2 2007   1.913   2.727   1.143  0.8183  0.3741  0.7655
  670SOL     OW 2008   1.612   2.324   2.881  0.3515  0.2765  0.2675
  670SOL    HW1 2009   1.528   2.279   2.845 -1.3951  0.9375 -0.5674
  670SOL    HW2 2010   1.674   2.332   2.807 -2.7007  1.1837  1.7453
  671SOL     OW 2011   0.330   1.090   0.178 -0.4682 -0.3321 -0.6038
  671SOL    HW1 2012   0.424   1.120   0.153  0.3336  1.5978 -2.9578
  671SOL    HW2 2013   0.276   1.170   0.216 -0.2064  2.1742  0.4628
  672SOL     OW 2014   2.684   0.528   2.672  0.8375  0.3900 -0.0629
  672SOL    HW1 2015   2.712   0.622   2.704  0.2516  2.7467  0.1295
  672SOL    HW2 2016   2.740   0.487   2.600  1.7820  3.4585  0.7207
  673SOL     OW 2017   0.262   1.999   1.373 -0.6042  0.4578  0.4949
  673SOL    HW1 2018   0.196   2.056   1.425  0.0488 -0.4757 -2.0112
  673SOL    HW2 2019   0.292   1.913   1.426  0.9748 -0.7565  0.6342
  674SOL     OW 2020   1.484   2.176   1.478  0.3030 -0.2438 -0.0569
  674SOL    HW1 2021   1.429   2.190   1.563 -0.5739 -1.5881  0.7005
  674SOL    HW2 2022   1.513   2.079   1.473 -1.7609 -0.3588  0.1641
  675SOL     OW 2023   1.177   1.583   1.200 -0.0224 -0.6687 -0.1499
  675SOL    HW1 2024   1.224   1.634   1.270 -0.3851 -2.7002 -3.0221
  675SOL    HW2 2025   1.150   1.650   1.127  1.0480  1.9469  1.1015
  676SOL     OW 2026   2.330   0.589   0.961 -0.1932  0.0141 -0.0263
  676SOL    HW1 2027   2.239   0.565   1.008  0.9063  0.8496  1.1767
  676SOL    HW2 2028   2.369   0.674   1.000 -2.1658 -2.2136 -2.9941
  677SOL     OW 2029   2.658   0.251   0.363 -0.1365  0.1497 -0.2399
  677SOL    HW1 2030   2.729   0.181   0.385 -1.2229  2.4177 -1.7941
  677SOL    HW2 2031   2.677   0.319   0.287  2.4528  0.5701 -2.1986
  678SOL     OW 2032   2.534   1.265   1.086 -0.1507 -0.0084  0.3533
  678SOL    HW1 2033   2.626   1.233   1.108 -1.2869 -1.4398  1.1153
  678SOL    HW2 2034   2.548   1.354   1.035  0.5725  1.2595 -0.7918
  679SOL     OW 2035   2.695   0.453   0.192  0.6405  0.1363  0.2335
  679SOL    HW1 2036   2.662   0.549   0.176 -0.2608  0.2208 -0.3283
  679SOL    HW2 2037   2.780   0.436   0.132 -1.3700 -1.8181 -2.0204
  680SOL     OW 2038   0.519   1.355   2.281  0.3241 -0.5250 -0.3611
  680SOL    HW1 2039   0.537   1.260   2.259 -1.9360 -0.2354  0.6174
  680SOL    HW2 2040   0.426   1.365   2.324 -0.0056 -0.0841 -0.2203
  681SOL     OW 2041   2.651   2.097   1.699 -0.7939  0.3727  0.4080
  681SOL    HW1 2042   2.668   2.152   1.778 -0.5914 -1.8927 -0.8898
  681SOL    HW2 2043   2.570   2.032   1.715 -3.7768 -0.0274 -1.5025
  682SOL     OW 2044   0.759   1.999   2.898  0.0649 -0.0910 -0.0116
  682SOL    HW1 2045   0.676   1.937   2.894 -2.7263  1.3862 -0.8343
  682SOL    HW2 2046   0.731   2.093   2.866 -0.1701 -2.7761  0.0780
  683SOL     OW 2047   2.641   1.999   1.360 -0.2345  0.7814  0.1700
  683SOL    HW1 2048   2.542   2.011   1.374  2.2272 -2.1169 -1.4989
  683SOL    HW2 2049   2.695   2.079   1.390  3.6938 -1.2048 -2.4954
  684SOL     OW 2050   2.775   1.378   1.925 -0.2332  0.5278  0.1877
  684SOL    HW1 2051   2.683   1.412   1.886 -1.8090  0.3540 -1.4364
  684SOL    HW2 2052   2.758   1.302   1.992  0.4857  0.1831 -1.3144
  685SOL     OW 2053   1.058   0.967   1.043  0.1689 -0.3737 -0.1896
  685SOL    HW1 2054   1.127   1.036   1.063 -3.2826 -2.2677 -1.6382
  685SOL    HW2 2055   0.975   0.981   1.104 -2.2070  0.3983  2.5627
  686SOL     OW 2056   0.737   0.238   2.936 -0.1860  0.0894 -0.1555
  686SOL    HW1 2057   0.720   0.140   2.911  0.0222  2.0269  0.1549
  686SOL    HW2 2058   0.656   0.295   2.920  0.4738  1.2626 -1.7804
  687SOL     OW 2059   0.628   2.038   2.013 -0.6008 -0.3953 -0.5444
  687SOL    HW1 2060   0.666   2.117   1.959  0.7896 -2.0689 -0.2814
  687SOL    HW2 2061   0.631   2.058   2.114 -1.2816  0.0494  1.8390
  688SOL     OW 2062   2.018   0.199   1.388  0.5239 -0.8938  0.0078
  688SOL    HW1 2063   1.963   0.261   1.327  1.2870  1.4051  0.8808
  688SOL    HW2 2064   2.072   0.246   1.457  0.1986  0.1016 -1.3140
  689SOL     OW 2065   1.895   0.827   0.631 -0.2126  0.1418  0.5470
  689SOL    HW1 2066   1.803   0.796   0.653  0.8635 -2.2121 -0.6554
  689SOL    HW2 2067   1.964   0.755   0.655  3.3732  0.5445 -2.7231
  690SOL     OW 2068   2.920   1.009   1.278 -0.4567 -0.6303  0.3334
  690SOL    HW1 2069   2.952   1.032   1.371 -0.2484 -0.2271  0.1666
  690SOL    HW2 2070   2.964   0.927   1.233 -0.4893 -0.1141 -2.2090
  691SOL     OW 2071   0.260   0.991   1.921  0.0204 -0.3555  0.3675
  691SOL    HW1 2072   0.275   1.034   1.828  0.0540  0.8066 -2.1682
  691SOL    HW2 2073   0.254   0.889   1.908 -1.5011  0.3019  2.6603
  692SOL     OW 2074   0.647   0.822   1.900  0.1351  0.4204  0.2126
  692SOL    HW1 2075   0.595   0.900   1.859  3.7747  0.3425 -1.3268
  692SOL    HW2 2076   0.619   0.732   1.857  1.2850 -2.5602 -0.9000
  693SOL     OW 2077   0.457   1.382   2.006  0.2927 -0.2444 -0.2696
  693SOL    HW1 2078   0.369   1.429   1.969 -0.5329  0.1079 -0.5227
  693SOL    HW2 2079   0.508   1.441   2.074 -0.1276  0.7686  1.4435
  694SOL     OW 2080   1.370   1.672   0.619  0.0013 -0.5135  0.0079
  694SOL    HW1 2081   1.466   1.645   0.591  2.5251  0.8520 -0.9356
  694SOL    HW2 2082   1.318   1.703   0.533 -1.7755  2.1074 -1.2645
  695SOL     OW 2083   0.191   0.977   1.051 -0.2674  0.4640 -0.2875
  695SOL    HW1 2084   0.278   1.029   1.056  0.1398 -0.4010 -0.6144
  695SOL    HW2 2085   0.133   1.007   0.971 -1.2017 -0.3433  1.3221
  696SOL     OW 2086   0.610   2.457   0.521  0.2130  0.0223 -0.3933
  696SOL    HW1 2087   0.591   2.466   0.419  0.0303  1.2152 -0.0870
  696SOL    HW2 2088   0.709   2.438   0.532 -1.6309 -0.0994 -0.4702
  697SOL     OW 2089   1.201   0.623   1.482  0.4771  0.4638  0.2550
  697SOL    HW1 2090   1.244   0.711   1.503  0.4366  1.3311 -1.1593
  697SOL    HW2 2091   1.157   0.636   1.387  2.0561  0.8054 -2.1850
  698SOL     OW 2092   1.701   1.605   1.819  0.3232 -0.3827  0.1302
  698SOL    HW1 2093   1.629   1.543   1.786  0.5161 -2.8722  0.2087
  698SOL    HW2 2094   1.676   1.616   1.920 -2.4172 -1.6614  2.7100
  699SOL     OW 2095   0.091   0.622   2.445  0.2057 -0.0760  0.0541
  699SOL    HW1 2096   0.035   0.565   2.387  0.7570  0.5067  0.8626
  699SOL    HW2 2097   0.191   0.599   2.430 -0.5716  1.3110  4.3839
  700SOL     OW 2098   1.745   2.303   0.586  0.2577 -0.1074  0.0613
  700SOL    HW1 2099   1.740   2.260   0.493  0.6711 -1.6179  0.2167
  700SOL    HW2 2100   1.764   2.405   0.585  3.3574  0.1049 -0.1072
  701SOL     OW 2101   0.317   1.759   2.480  0.0794  0.3209 -0.3084
  701SOL    HW1 2102   0.254   1.694   2.532 -0.7069  0.0660 -0.4650
  701SOL    HW2 2103   0.327   1.851   2.528  1.3910  0.6294  2.0374
  702SOL     OW 2104   0.402   0.242   2.953  0.5131 -0.3626 -0.1280
  702SOL    HW1 2105   0.414   0.155   2.900 -2.9654  2.8026 -0.0253
  702SOL    HW2 2106   0.367   0.308   2.882 -2.8142  1.7212  0.7978
  703SOL     OW 2107   1.428   0.481   2.856  0.5957 -0.6279 -0.1891
  703SOL    HW1 2108   1.528   0.500   2.864  1.1693 -0.6437 -2.3840
  703SOL    HW2 2109   1.404   0.419   2.776 -0.2083 -1.5117 -0.6519
  704SOL     OW 2110   2.721   1.911   0.908  0.1281  0.3794 -0.5682
  704SOL    HW1 2111   2.744   1.854   0.989 -1.8230  1.4495  0.5993
  704SOL    HW2 2112   2.795   1.953   0.852  0.3419  1.1649 -0.2830
  705SOL     OW 2113   2.640   1.809   2.206 -0.2345  0.1608 -0.1100
  705SOL    HW1 2114   2.698   1.735   2.162 -0.1437 -4.0301 -3.5521
  705SOL    HW2 2115   2.675   1.837   2.298 -1.4509  0.1285 -1.4839
  706SOL     OW 2116   2.963   2.798   1.078 -0.3766  0.6053 -0.2069
  706SOL    HW1 2117   2.886   2.821   1.017  1.5723  2.1902  0.7749
  706SOL    HW2 2118   3.044   2.860   1.065  0.2860 -0.4819 -0.6441
  707SOL     OW 2119   0.816   3.025   0.088 -0.3658 -0.0651  0.1130
  707SOL    HW1 2120   0.787   2.968   0.165  0.5325 -2.6952 -1.3639
  707SOL    HW2 2121   0.912   3.057   0.106  0.8691  1.0244 -1.9728
  708SOL     OW 2122   0.757   2.066   1.403  0.3256  0.0261 -0.3793
  708SOL    HW1 2123   0.851   2.033   1.393 -3.3102 -0.9608 -1.0902
  708SOL    HW2 2124   0.752   2.132   1.482 -1.4090 -0.3093  0.9401
  709SOL     OW 2125   1.825   0.367   2.387  0.2951 -0.0921 -0.1333
  709SOL    HW1 2126   1.750   0.369   2.457 -1.7612 -2.7702  1.9004
  709SOL    HW2 2127   1.908   0.378   2.442 -0.3379 -0.1063 -1.4086
  710SOL     OW 2128   1.282   2.966   2.564 -0.2267  0.0387 -0.2906
  710SOL    HW1 2129   1.217   2.896   2.605  0.0745 -2.3409  1.2537
  710SOL    HW2 2130   1.355   2.993   2.628 -0.8379 -1.5680  0.1357
  711SOL     OW 2131   1.176   2.328   2.491  0.4474 -0.1982  0.0024
  711SOL    HW1 2132   1.246   2.356   2.560  2.6442  2.9519 -0.4167
  711SOL    HW2 2133   1.175   2.392   2.409 -0.8770  2.0742 -3.7718
  712SOL     OW 2134   1.177   2.238   2.941  0.0232  0.0309  0.4478
  712SOL    HW1 2135   1.137   2.153   2.896  0.4522 -1.4639 -0.2354
  712SOL    HW2 2136   1.154   2.233   3.042 -0.5405  0.4476  0.2037
  713SOL     OW 2137   1.100   0.853   1.821  0.0995 -0.1078  0.4735
  713SOL    HW1 2138   1.131   0.917   1.749  0.6464  2.5222 -1.1901
  713SOL    HW2 2139   1.114   0.753   1.796 -0.4587  2.6899 -0.0339
  714SOL     OW 2140   1.429   1.839   1.033  0.0263 -0.1861 -0.1423
  714SOL    HW1 2141   1.503   1.859   0.968 -0.4618 -0.0307 -0.8958
  714SOL    HW2 2142   1.452   1.880   1.125  0.4553 -0.3267  0.4798
  715SOL     OW 2143   0.055   0.499   0.514  0.1588  0.1462  0.5402
  715SOL    HW1 2144   0.080   0.409   0.467 -0.4463  0.4386  0.4552
  715SOL    HW2 2145   3.081   0.479   0.577 -0.1612 -2.4968 -0.7581
  716SOL     OW 2146   0.648   2.836   0.333  0.1847 -0.1601  0.0457
  716SOL    HW1 2147   0.748   2.809   0.329  1.1710  0.0301 -1.8695
  716SOL    HW2 2148   0.604   2.800   0.415 -0.8485 -1.0095 -0.6214
  717SOL     OW 2149   3.073   0.478   0.227  0.2829  0.0049 -0.1041
  717SOL    HW1 2150   3.078   0.379   0.250  3.2010  0.1539 -1.9903
  717SOL    HW2 2151   3.006   0.494   0.150  1.1457 -0.7425  1.1721
  718SOL     OW 2152   1.713   2.041   1.076  0.4172  0.1872  0.2222
  718SOL    HW1 2153   1.802   1.990   1.090  3.0449 -2.0849 -0.2076
  718SOL    HW2 2154   1.698   2.102   1.151  1.1913 -1.4814 -3.0418
  719SOL     OW 2155   2.952   2.364   0.997  0.3270 -0.0644 -0.5418
  719SOL    HW1 2156   2.915   2.265   0.997  0.8835  0.9263  2.7202
  719SOL    HW2 2157   2.930   2.410   0.907 -0.3199  2.3022 -2.4768
  720SOL     OW 2158   1.009   1.360   1.179  0.1309  0.4634 -0.1987
  720SOL    HW1 2159   1.032   1.459   1.180 -1.4288  0.0317  0.6587
  720SOL    HW2 2160   1.082   1.298   1.144  0.9567  1.6542  1.2324
  721SOL     OW 2161   1.391   0.534   1.064 -0.2694 -0.3708 -0.3895
  721SOL    HW1 2162   1.319   0.457   1.051 -0.2975 -0.5811 -1.7477
  721SOL    HW2 2163   1.477   0.517   1.012 -1.6117  1.1761  0.4914
  722SOL     OW 2164   1.199   1.203   1.845 -0.0100  0.1307 -0.6244
  722SOL    HW1 2165   1.211   1.142   1.769  0.0061  2.8777  3.5103
  722SOL    HW2 2166   1.185   1.302   1.815  0.1175  0.5484  1.3793
  723SOL     OW 2167   0.925   2.766   1.522  0.1000  0.0530 -0.3113
  723SOL    HW1 2168   0.849   2.763   1.448 -1.0222  0.3488 -2.9867
  723SOL    HW2 2169   1.022   2.749   1.498  2.7978  1.8245  1.6456
  724SOL     OW 2170   2.090   2.269   1.735  0.1521  0.0895 -0.1191
  724SOL    HW1 2171   2.100   2.194   1.805 -1.3847  1.4040 -1.2778
  724SOL    HW2 2172   2.007   2.272   1.678  2.2624 -1.6993 -2.5658
  725SOL     OW 2173   0.924   2.903   1.128  0.2322 -0.2138  0.8412
  725SOL    HW1 2174   0.853   2.872   1.190  1.0497  1.6835 -0.1397
  725SOL    HW2 2175   1.013   2.869   1.156 -1.0365  2.2058  1.5436
  726SOL     OW 2176   1.550   0.123   0.197  0.1307 -0.2280  0.3239
  726SOL    HW1 2177   1.544   0.175   0.283 -0.9325  0.9139 -0.5110
  726SOL    HW2 2178   1.639   0.143   0.153 -1.1490  1.2667  0.8707
  727SOL     OW 2179   1.327   1.918   0.755 -0.5659 -0.2179 -0.3144
  727SOL    HW1 2180   1.389   1.963   0.692 -1.4954 -1.4323  3.7606
  727SOL    HW2 2181   1.311   1.818   0.732 -1.5323  0.2214  0.3614
  728SOL     OW 2182   1.899   0.222   2.156 -0.2555  0.2361 -0.1165
  728SOL    HW1 2183   1.857   0.269   2.239 -0.8284  1.9178 -3.7740
  728SOL    HW2 2184   2.001   0.217   2.166 -0.0050  0.2256  0.5722
  729SOL     OW 2185   2.438   1.603   1.408 -0.0461  0.4823 -0.1630
  729SOL    HW1 2186   2.340   1.612   1.375 -0.9050 -1.1635  2.0535
  729SOL    HW2 2187   2.501   1.658   1.351  1.4263 -0.0136  5.7970
  730SOL     OW 2188   2.078   0.671   2.673 -0.1916 -0.1194  0.2215
  730SOL    HW1 2189   2.166   0.724   2.673 -1.3339  1.4172 -2.6953
  730SOL    HW2 2190   1.997   0.727   2.643 -1.8956  0.3427  0.4244
  731SOL     OW 2191   0.533   0.228   1.533  0.3053 -0.1540  0.4559
  731SOL    HW1 2192   0.560   0.329   1.524 -2.6674 -0.1266 -0.8571
  731SOL    HW2 2193   0.452   0.220   1.595 -2.2895 -1.4084  0.1608
  732SOL     OW 2194   1.857   0.380   1.239  0.3255 -0.1447  0.6610
  732SOL    HW1 2195   1.827   0.475   1.267 -1.3244 -0.8344  4.4440
  732SOL    HW2 2196   1.875   0.371   1.140 -1.0462  0.7652  0.5114
  733SOL     OW 2197   0.915   1.088   1.529  0.2062 -0.6561  0.5177
  733SOL    HW1 2198   0.876   1.100   1.624  0.3481 -0.5865  1.1867
  733SOL    HW2 2199   0.910   0.992   1.502  1.0462  2.0804 -4.4203
  734SOL     OW 2200   2.462   1.442   0.430  0.4678  0.1339  0.0311
  734SOL    HW1 2201   2.403   1.477   0.353  1.9626 -1.0366 -0.6512
  734SOL    HW2 2202   2.507   1.520   0.476 -0.6313  0.6840 -0.1456
  735SOL     OW 2203   0.531   0.685   0.229  0.3340  0.5637 -0.1723
  735SOL    HW1 2204   0.470   0.691   0.143 -0.8480 -0.9159 -1.7841
  735SOL    HW2 2205   0.598   0.608   0.223  1.2797 -1.7103  0.2445
  736SOL     OW 2206   1.761   2.647   2.829 -0.2522  0.6390 -0.9888
  736SOL    HW1 2207   1.820   2.642   2.912 -1.5548 -3.0664  2.4477
  736SOL    HW2 2208   1.667   2.636   2.868 -1.1154  0.9855  2.4363
  737SOL     OW 2209   1.019   1.986   0.743 -0.0629 -0.1536 -0.2125
  737SOL    HW1 2210   0.974   1.939   0.819  0.6522  0.5088 -0.3540
  737SOL    HW2 2211   1.119   1.996   0.753 -1.4513  0.6654  1.6537
  738SOL     OW 2212   2.271   0.129   2.669 -0.3063  0.5227  0.0601
  738SOL    HW1 2213   2.303   0.172   2.583  1.9073  2.2582 -1.0542
  738SOL    HW2 2214   2.199   0.175   2.720 -1.3902  1.7355  0.1697
  739SOL     OW 2215   1.725   2.283   2.331 -0.0254  0.0277  0.5762
  739SOL    HW1 2216   1.771   2.210   2.276  1.4221  2.5972  0.9914
  739SOL    HW2 2217   1.781   2.369   2.328  1.9268  0.1521 -0.8824
  740SOL     OW 2218   1.839   2.220   1.933 -0.4112 -0.5936  0.0062
  740SOL    HW1 2219   1.770   2.290   1.904 -0.1160  1.1335  1.1995
  740SOL    HW2 2220   1.827   2.131   1.889 -1.5082  0.5494 -0.1961
  741SOL     OW 2221   2.267   1.523   2.627  0.2505 -0.8740  0.2440
  741SOL    HW1 2222   2.310   1.585   2.557 -2.2281 -1.3564 -2.0792
  741SOL    HW2 2223   2.224   1.580   2.701  1.5641 -2.1863  1.3469
  742SOL     OW 2224   1.021   1.369   2.820  0.1979  0.2091 -0.1945
  742SOL    HW1 2225   1.110   1.421   2.816 -0.3426 -0.9143 -2.0618
  742SOL    HW2 2226   0.958   1.408   2.749  1.6373 -1.8390 -2.1810
  743SOL     OW 2227   1.606   1.350   2.601  0.0808  1.1963  0.5789
  743SOL    HW1 2228   1.609   1.295   2.518 -0.3857  3.2184 -1.0214
  743SOL    HW2 2229   1.542   1.316   2.671 -3.8109 -0.8613 -0.2762
  744SOL     OW 2230   2.208   2.851   1.243 -0.2179 -0.4067 -0.1907
  744SOL    HW1 2231   2.194   2.770   1.303  2.1016 -0.3919  0.0088
  744SOL    HW2 2232   2.185   2.834   1.146  1.7071  1.3541 -1.1635
  745SOL     OW 2233   2.355   1.076   0.945  0.6331 -0.2927  0.1874
  745SOL    HW1 2234   2.404   1.147   1.000  0.2468 -0.0640  1.4403
  745SOL    HW2 2235   2.261   1.110   0.909 -1.8569  2.3727  2.1523
  746SOL     OW 2236   2.291   1.842   1.219 -0.2024  0.1273 -0.0501
  746SOL    HW1 2237   2.369   1.790   1.173  0.0193 -1.6020  1.1223
  746SOL    HW2 2238   2.330   1.908   1.288  1.8084 -2.5543  0.1058
  747SOL     OW 2239   2.065   3.007   0.229  0.1939 -0.0734 -0.0275
  747SOL    HW1 2240   1.984   3.005   0.294  2.4227 -1.2069 -0.4314
  747SOL    HW2 2241   2.060   2.919   0.182  1.8839  1.2319  1.5830
  748SOL     OW 2242   0.893   1.698   0.164 -0.3223 -0.4812 -0.2422
  748SOL    HW1 2243   0.849   1.701   0.253  0.7354 -0.8362  1.8381
  748SOL    HW2 2244   0.869   1.612   0.117  2.2022  1.3007  2.4434
  749SOL     OW 2245   2.838   0.371   2.135  0.7670  0.3905  0.0053
  749SOL    HW1 2246   2.874   0.460   2.168  2.7568 -2.0889 -0.3136
  749SOL    HW2 2247   2.913   0.303   2.153  0.3648  1.6144  0.1677
  750SOL     OW 2248   1.166   0.580   1.741  0.4390  0.1303 -0.3414
  750SOL    HW1 2249   1.257   0.572   1.793 -0.6354  0.6384  4.1704
  750SOL    HW2 2250   1.180   0.580   1.640  0.6753  0.3094 -3.1443
  751SOL     OW 2251   2.284   2.567   2.067  0.0497  0.0160  0.1350
  751SOL    HW1 2252   2.369   2.556   2.013 -2.4037 -1.3073  0.9532
  751SOL    HW2 2253   2.245   2.664   2.048 -0.1376  1.9028 -1.7362
  752SOL     OW 2254   1.929   1.341   1.327  0.4201 -0.3145 -0.0092
  752SOL    HW1 2255   1.887   1.262   1.283  0.7426  2.3340  1.6720
  752SOL    HW2 2256   2.013   1.360   1.274  1.9709  0.3805  0.4839
  753SOL     OW 2257   1.223   0.901   2.081 -0.6292  0.1705 -0.6121
  753SOL    HW1 2258   1.157   0.918   2.003 -0.5089  3.0128 -1.0786
  753SOL    HW2 2259   1.304   0.852   2.049  2.1377  1.2373 -1.1039
  754SOL     OW 2260   0.196   2.481   0.905 -0.5404  0.4947 -0.1314
  754SOL    HW1 2261   0.252   2.567   0.901  1.6920  0.3292  1.9809
  754SOL    HW2 2262   0.160   2.478   1.001 -0.7497  1.5394 -0.3787
  755SOL     OW 2263   2.508   3.099   1.211  0.3797 -0.1676  0.2277
  755SOL    HW1 2264   2.545   3.055   1.292  0.2949  2.1941 -3.8039
  755SOL    HW2 2265   2.414   0.029   1.232  0.8082 -0.5941  1.6404
  756SOL     OW 2266   1.888   2.086   2.180  0.2255  0.0747 -0.3173
  756SOL    HW1 2267   1.947   2.158   2.219 -1.0655  1.1756  0.1553
  756SOL    HW2 2268   1.871   2.113   2.084  0.9076 -0.8112  0.7342
  757SOL     OW 2269   2.881   2.975   1.964 -0.1525  0.6769 -0.0574
  757SOL    HW1 2270   2.899   3.024   1.878  1.0494 -0.9702  0.8354
  757SOL    HW2 2271   2.857   3.046   2.032  1.5702  1.3750  0.7817
  758SOL     OW 2272   0.540   2.620   1.248 -0.3435 -0.7038  0.2442
  758SOL    HW1 2273   0.550   2.615   1.150  0.1224  1.3844  1.2324
  758SOL    HW2 2274   0.450   2.654   1.269 -0.1487 -0.9050  1.7947
  759SOL     OW 2275   1.963   0.973   0.946  0.2452  0.1815 -0.6923
  759SOL    HW1 2276   1.878   0.926   0.982  1.7142 -1.2425 -0.2451
  759SOL    HW2 2277   1.933   1.020   0.857 -0.7698  0.1746 -2.6021
  760SOL     OW 2278   1.219   0.357   1.466  0.4411 -0.3583 -0.3240
  760SOL    HW1 2279   1.265   0.321   1.549  1.1036  1.1750 -3.5686
  760SOL    HW2 2280   1.211   0.460   1.477 -2.2853 -2.0517 -1.4669
  761SOL     OW 2281   2.082   0.160   1.093 -0.4741 -0.4689  0.5698
  761SOL    HW1 2282   2.134   0.135   1.007  0.9344  0.9357 -0.0517
  761SOL    HW2 2283   1.983   0.175   1.070 -2.0584 -2.6179 -0.8908
  762SOL     OW 2284   1.810   2.980   0.362 -0.5443 -0.6971 -0.0214
  762SOL    HW1 2285   1.780   3.066   0.407  1.2490 -2.3198 -2.8642
  762SOL    HW2 2286   1.733   2.929   0.325 -0.7469  1.7416  0.6705
  763SOL     OW 2287   0.809   0.400   1.271 -0.3672 -0.0984 -0.2673
  763SOL    HW1 2288   0.816   0.394   1.373 -0.6566  0.0564  1.0315
  763SOL    HW2 2289   0.733   0.463   1.248  0.6060 -3.0827  1.3956
  764SOL     OW 2290   2.308   2.403   2.274  0.3561  0.0026 -0.0515
  764SOL    HW1 2291   2.389   2.343   2.253  0.3070  1.1241  1.5714
  764SOL    HW2 2292   2.303   2.470   2.189  1.4710  2.1807 -3.1279
  765SOL     OW 2293   0.047   1.291   2.406  0.1165  0.1693 -0.6170
  765SOL    HW1 2294   0.055   1.192   2.377 -0.6159  0.1595  0.3731
  765SOL    HW2 2295   0.043   1.297   2.504 -0.1311 -2.2215 -1.2749
  766SOL     OW 2296   2.817   1.291   2.314  0.4833 -0.2769 -0.2001
  766SOL    HW1 2297   2.916   1.285   2.312 -2.2301  1.6590 -1.2125
  766SOL    HW2 2298   2.773   1.252   2.229 -1.1916  2.3699  1.6530
  767SOL     OW 2299   0.443   2.104   1.692 -0.6025 -0.5118 -0.6099
  767SOL    HW1 2300   0.534   2.059   1.694  1.3498 -2.1623  0.4816
  767SOL    HW2 2301   0.369   2.036   1.716  1.3803  0.0130  1.6108
  768SOL     OW 2302   0.688   0.912   2.927 -0.1048  0.3524 -0.1454
  768SOL    HW1 2303   0.589   0.884   2.930 -1.8408 -3.1128 -0.7022
  768SOL    HW2 2304   0.754   0.834   2.918  1.5172 -3.2554 -0.8079
  769SOL     OW 2305   1.384   2.565   0.053  0.4832  0.1639 -0.0506
  769SOL    HW1 2306   1.345   2.655   0.092  1.2986  3.1506  0.3068
  769SOL    HW2 2307   1.418   2.503   0.128  1.7134 -1.9130  3.0001
  770SOL     OW 2308   0.973   0.253   2.467 -0.2292 -0.2131 -0.2360
  770SOL    HW1 2309   1.042   0.322   2.433  1.3278 -0.0405 -1.0876
  770SOL    HW2 2310   0.925   0.203   2.389  0.6746  0.7021  0.3919
  771SOL     OW 2311   0.794   2.899   0.576 -0.4114  0.1761  0.3750
  771SOL    HW1 2312   0.817   2.837   0.501 -0.2807 -1.9311  1.7477
  771SOL    HW2 2313   0.760   2.848   0.657  0.6667 -0.5067  0.3634
  772SOL     OW 2314   2.628   1.147   0.087 -0.1434  0.0637 -0.0144
  772SOL    HW1 2315   2.662   1.239   0.112  0.4213 -1.8787  0.5100
  772SOL    HW2 2316   2.668   1.072   0.145 -0.3087 -0.2371  0.1415
  773SOL     OW 2317   2.016   0.851   1.757 -0.0428  0.0856 -0.7516
  773SOL    HW1 2318   2.077   0.775   1.799  3.1538 -0.1227  0.6573
  773SOL    HW2 2319   2.065   0.922   1.701 -0.1964  1.0746  2.6241
  774SOL     OW 2320   0.756   0.370   0.447 -0.5942 -0.0539 -0.2243
  774SOL    HW1 2321   0.748   0.412   0.539  0.6102  0.2557 -0.6835
  774SOL    HW2 2322   0.713   0.279   0.436 -0.1997 -0.1342 -2.4397
  775SOL     OW 2323   1.692   0.065   0.528  0.0852  0.0790  0.4146
  775SOL    HW1 2324   1.671   3.102   0.605 -1.4543  0.1129 -2.0348
  775SOL    HW2 2325   1.609   0.103   0.488  3.0130  1.5359 -1.0411
  776SOL     OW 2326   2.523   0.232   2.276  0.1462  0.2119  0.5138
  776SOL    HW1 2327   2.535   0.242   2.173  1.8650  1.6016 -2.3236
  776SOL    HW2 2328   2.463   0.152   2.304 -0.2057  0.0606 -1.5988
  777SOL     OW 2329   1.467   1.453   0.112 -0.3573 -0.3258  0.4880
  777SOL    HW1 2330   1.450   1.521   0.035 -2.5964 -2.6452 -0.8691
  777SOL    HW2 2331   1.408   1.370   0.093 -1.4425 -1.6224 -2.5464
  778SOL     OW 2332   0.275   2.548   0.252  0.8300 -0.2755  0.0362
  778SOL    HW1 2333   0.228   2.496   0.326  0.0299 -0.6577  0.3722
  778SOL    HW2 2334   0.237   2.524   0.161 -0.4212  0.3876  3.3617
  779SOL     OW 2335   3.041   1.615   0.194  0.4932 -0.1012 -0.0483
  779SOL    HW1 2336   3.009   1.524   0.157 -1.1360  0.1456  0.2397
  779SOL    HW2 2337   0.015   1.604   0.259 -0.1605  0.6124  0.2384
  780SOL     OW 2338   1.802   0.291   1.895 -0.0302 -0.0340  0.2809
  780SOL    HW1 2339   1.822   0.265   1.992 -2.2719  1.1970  0.2524
  780SOL    HW2 2340   1.825   0.222   1.830 -1.7709 -1.9458 -1.1763
  781SOL     OW 2341   1.710   1.428   1.515 -0.1915  0.4729  0.1095
  781SOL    HW1 2342   1.654   1.489   1.450 -3.2984  1.3547 -1.9284
  781SOL    HW2 2343   1.798   1.399   1.470 -0.6531 -1.5789  1.2975
  782SOL     OW 2344   2.027   2.408   2.100  0.3635  0.2793  0.0962
  782SOL    HW1 2345   2.008   2.357   2.014 -1.0954 -0.8517  1.0414
  782SOL    HW2 2346   2.113   2.376   2.145  0.8884  1.6998 -0.8107
  783SOL     OW 2347   1.401   0.528   1.851 -0.2079  0.0231  0.1193
  783SOL    HW1 2348   1.463   0.470   1.796  1.5897 -2.5493  2.7199
  783SOL    HW2 2349   1.382   0.477   1.935  0.7929 -0.7036 -1.5988
  784SOL     OW 2350   1.717   1.009   2.156 -0.0756  0.0835 -0.1599
  784SOL    HW1 2351   1.713   1.077   2.080  0.5552 -0.6353 -0.7591
  784SOL    HW2 2352   1.802   1.018   2.209 -0.5928  0.2506  1.0878
  785SOL     OW 2353   2.015   0.618   0.209 -0.2461 -0.1903  0.2556
  785SOL    HW1 2354   1.997   0.694   0.274 -0.7001 -0.5170  0.0722
  785SOL    HW2 2355   1.937   0.549   0.207 -1.2323 -1.0739 -0.8921
  786SOL     OW 2356   2.849   1.221   0.867 -0.1822 -0.2565 -0.8123
  786SOL    HW1 2357   2.768   1.249   0.813  2.6710  0.0054 -0.8391
  786SOL    HW2 2358   2.923   1.189   0.803 -1.4136  3.2622  0.3506
  787SOL     OW 2359   1.722   1.783   0.394 -0.3633  0.1594 -0.6239
  787SOL    HW1 2360   1.759   1.716   0.329  0.8747  1.7825  1.6072
  787SOL    HW2 2361   1.653   1.843   0.353 -1.0823 -0.8602 -0.6230
  788SOL     OW 2362   2.382   1.273   1.314 -0.3143  0.3596 -0.1764
  788SOL    HW1 2363   2.431   1.268   1.221  2.0571  0.6521 -0.2247
  788SOL    HW2 2364   2.454   1.275   1.389  0.4260 -0.1261 -0.3876
  789SOL     OW 2365   2.863   1.621   2.438  0.5905  0.3192 -0.1050
  789SOL    HW1 2366   2.777   1.574   2.477 -2.5831  1.0929  0.7643
  789SOL    HW2 2367   2.900   1.566   2.365 -0.3536 -1.5384  1.1110
  790SOL     OW 2368   0.670   3.035   2.574 -0.0377  0.0063  0.4722
  790SOL    HW1 2369   0.748   2.971   2.572 -1.0214 -2.8088 -0.8408
  790SOL    HW2 2370   0.615   3.037   2.488 -0.4805 -5.1315 -0.0912
  791SOL     OW 2371   0.523   2.525   2.731  0.1699  0.5312  0.4612
  791SOL    HW1 2372   0.515   2.626   2.747 -1.2605 -1.8466 -3.2521
  791SOL    HW2 2373   0.502   2.465   2.808  0.1955  1.0707 -0.4313
  792SOL     OW 2374   1.528   0.298   2.204 -0.0302 -0.6351  0.3404
  792SOL    HW1 2375   1.520   0.361   2.285 -0.5778 -0.3636 -1.7611
  792SOL    HW2 2376   1.607   0.238   2.208 -2.4314  1.5566 -1.0195
  793SOL     OW 2377   2.783   0.075   2.102  0.6759 -0.0622  0.2983
  793SOL    HW1 2378   2.710   0.143   2.067 -0.1083  1.6890  0.1024
  793SOL    HW2 2379   2.871   0.116   2.114 -1.4304 -2.4091 -2.1833
  794SOL     OW 2380   0.589   0.393   1.869  0.2970  0.1543 -0.7423
  794SOL    HW1 2381   0.596   0.441   1.957  1.7030  0.9659 -0.7531
  794SOL    HW2 2382   0.636   0.302   1.861 -2.4576 -0.1645 -3.7123
  795SOL     OW 2383   2.631   1.310   0.697  0.2035 -0.3394  0.2836
  795SOL    HW1 2384   2.606   1.380   0.625  0.2176  0.9188 -0.2274
  795SOL    HW2 2385   2.576   1.223   0.680 -0.9591  0.0851 -3.6247
  796SOL     OW 2386   2.825   2.392   2.681  0.0060 -0.3479  0.4090
  796SOL    HW1 2387   2.760   2.352   2.615  0.2652 -0.6963 -1.5557
  796SOL    HW2 2388   2.893   2.321   2.704  1.3143  0.0821 -0.7217
  797SOL     OW 2389   2.626   2.174   0.267  0.1316  0.1002 -0.1105
  797SOL    HW1 2390   2.706   2.149   0.214 -1.6069 -1.4113  0.3936
  797SOL    HW2 2391   2.558   2.236   0.225 -1.1799 -0.5488 -0.0292
  798SOL     OW 2392   0.254   0.733   1.830 -0.1260  0.7024  0.4086
  798SOL    HW1 2393   0.254   0.634   1.827  0.6392  2.5632  0.2104
  798SOL    HW2 2394   0.234   0.771   1.733 -1.2236 -0.1412 -4.8514
  799SOL     OW 2395   2.649   0.513   2.348  0.3267  0.7557 -0.1090
  799SOL    HW1 2396   2.601   0.440   2.292 -1.3875 -1.5333 -0.2215
  799SOL    HW2 2397   2.580   0.572   2.393 -0.7684 -0.4480 -0.7761
  800SOL     OW 2398   2.747   2.238   0.718  0.5264  0.0277  1.1439
  800SOL    HW1 2399   2.683   2.231   0.799 -0.1347  1.6859  1.7735
  800SOL    HW2 2400   2.813   2.313   0.731 -1.3968  1.1565 -2.3329
  801SOL     OW 2401   1.352   0.729   0.831 -0.1386 -0.2083  0.4092
  801SOL    HW1 2402   1.319   0.657   0.890  1.6894  0.3100 -3.0525
  801SOL    HW2 2403   1.408   0.796   0.884  0.4702 -1.5452 -2.9263
  802SOL     OW 2404   1.509   2.100   0.894  0.1428 -0.0010  0.4185
  802SOL    HW1 2405   1.598   2.070   0.933  0.2560  1.1326  1.5047
  802SOL    HW2 2406   1.451   2.027   0.856 -0.6382 -1.8360  2.4705
  803SOL     OW 2407   0.056   1.757   0.570  0.4854 -0.7512  1.0249
  803SOL    HW1 2408   0.087   1.707   0.486  1.8336  2.1600  2.1606
  803SOL    HW2 2409   0.104   1.735   0.657  1.2670  3.1780  0.1552
  804SOL     OW 2410   1.532   2.606   0.440 -0.3651  0.5675 -0.6539
  804SOL    HW1 2411   1.486   2.534   0.388  0.3256  1.0714  1.0561
  804SOL    HW2 2412   1.515   2.603   0.543  1.4889  0.1562 -0.2281
  805SOL     OW 2413   1.420   2.085   2.359  0.1682  0.0587 -0.0497
  805SOL    HW1 2414   1.359   2.119   2.284 -0.3926  2.8443  1.7405
  805SOL    HW2 2415   1.490   2.018   2.330  0.1775 -0.8014  0.0636
  806SOL     OW 2416   1.705   0.010   1.360  0.1822  0.6237  0.6686
  806SOL    HW1 2417   1.790   3.088   1.410  0.4499  0.4006  0.5190
  806SOL    HW2 2418   1.676   0.102   1.372 -0.8106 -0.4191  1.4842
  807SOL     OW 2419   2.231   0.008   0.023 -0.2905  0.4554  0.5007
  807SOL    HW1 2420   2.165   3.094   0.100  0.9524  1.6157  1.9843
  807SOL    HW2 2421   2.205   0.096   3.078 -1.5805  0.1251 -1.8041
  808SOL     OW 2422   0.469   1.658   3.045  0.3141  0.5580  0.5208
  808SOL    HW1 2423   0.477   1.718   2.963  1.9565  2.7373  0.2534
  808SOL    HW2 2424   0.541   1.585   3.037  0.0745 -1.1705 -1.3547
  809SOL     OW 2425   3.029   0.824   2.495 -0.0510  0.4756 -0.2496
  809SOL    HW1 2426   3.097   0.750   2.471  1.7748 -0.3925  1.1448
  809SOL    HW2 2427   3.009   0.822   2.594 -1.7089 -1.3127 -0.3087
  810SOL     OW 2428   2.888   0.423   2.458  0.2004 -0.0607 -0.5989
  810SOL    HW1 2429   2.808   0.435   2.397  1.8679 -1.9017 -0.8968
  810SOL    HW2 2430   2.975   0.413   2.407  0.4242  1.0513  1.3944
  811SOL     OW 2431   2.050   2.557   1.672  0.0094 -0.5680  0.6251
  811SOL    HW1 2432   2.009   2.491   1.737 -0.2654 -0.6224  0.1088
  811SOL    HW2 2433   2.144   2.534   1.653 -0.8093 -0.2889 -1.8796
  812SOL     OW 2434   1.372   0.523   0.238  0.6794 -0.0538  0.0121
  812SOL    HW1 2435   1.273   0.514   0.245  0.7957 -0.5785  0.3311
  812SOL    HW2 2436   1.408   0.471   0.160  0.5956  0.0191  0.2268
  813SOL     OW 2437   1.731   0.562   1.941  0.3052 -0.1266  0.3361
  813SOL    HW1 2438   1.747   0.641   1.875  0.9340  2.2028  0.8289
  813SOL    HW2 2439   1.767   0.470   1.906  2.9247 -1.8480  2.5344
  814SOL     OW 2440   1.963   1.068   1.237 -0.1016 -0.8862  0.1309
  814SOL    HW1 2441   2.047   1.057   1.298  0.2947 -0.0675  1.2864
  814SOL    HW2 2442   1.987   1.050   1.142  0.8690 -0.4269  2.2418
  815SOL     OW 2443   0.569   1.049   0.675  0.5442  0.3333 -0.3432
  815SOL    HW1 2444   0.601   0.954   0.665 -2.7572  4.0938  0.5247
  815SOL    HW2 2445   0.468   1.059   0.661 -1.9939 -0.1317  0.1447
  816SOL     OW 2446   2.013   2.014   0.014  0.2616 -0.3811  0.6016
  816SOL    HW1 2447   2.050   2.099   3.066  0.8902  2.9813 -1.8971
  816SOL    HW2 2448   2.083   1.940   0.015 -0.7731  0.7803 -0.5907
  817SOL     OW 2449   2.978   2.535   1.215 -0.2822 -0.0158 -0.0668
  817SOL    HW1 2450   2.963   2.473   1.135 -1.8366 -1.1071  2.4490
  817SOL    HW2 2451   2.966   2.631   1.182  2.2783 -3.3363  1.4424
  818SOL     OW 2452   1.279   0.637   2.988 -0.4450 -0.8353  0.1913
  818SOL    HW1 2453   1.186   0.597   3.005 -2.7708  0.0420  0.6507
  818SOL    HW2 2454   1.337   0.568   2.927  0.4457 -0.7058 -2.5778
  819SOL     OW 2455   0.712   0.507   0.723  0.3332  0.0096  0.4187
  819SOL    HW1 2456   0.620   0.524   0.682 -0.8661 -0.5176  0.5168
  819SOL    HW2 2457   0.705   0.457   0.808 -2.3677 -2.6424 -3.8717
  820SOL     OW 2458   2.079   0.639   1.176  0.1579 -0.0128 -0.6348
  820SOL    HW1 2459   2.119   0.723   1.133 -0.2594 -0.4835 -3.5296
  820SOL    HW2 2460   2.068   0.655   1.280  0.0747 -0.7251 -1.3434
  821SOL     OW 2461   2.987   0.003   0.638 -0.0891 -0.1228 -0.4948
  821SOL    HW1 2462   2.900   0.010   0.694 -0.7097  0.8704  2.4526
  821SOL    HW2 2463   3.044   3.032   0.679  1.1713 -2.2016  3.4995
  822SOL     OW 2464   0.819   2.407   2.479  0.1230  0.2100  0.3798
  822SOL    HW1 2465   0.854   2.464   2.552  4.8145 -1.3878 -0.4281
  822SOL    HW2 2466   0.720   2.412   2.475  1.7102  0.8345 -1.9693
  823SOL     OW 2467   3.085   1.377   1.915 -0.2515  0.1162  0.3312
  823SOL    HW1 2468   2.986   1.383   1.890 -1.3124 -0.1155 -0.3317
  823SOL    HW2 2469   3.102   1.287   1.958 -0.8072  0.1008  1.2749
  824SOL     OW 2470   0.898   2.936   2.185 -0.4451 -0.4253  0.2670
  824SOL    HW1 2471   0.904   2.889   2.274  0.9291  1.3974 -1.4579
  824SOL    HW2 2472   0.799   2.945   2.154 -0.7497 -1.0073 -1.2779
  825SOL     OW 2473   1.411   1.919   3.036  0.2582  0.0225 -0.4765
  825SOL    HW1 2474   1.318   1.952   3.032  0.2235 -0.0366  2.1305
  825SOL    HW2 2475   1.465   1.949   2.951  0.9091  2.7865 -0.5121
  826SOL     OW 2476   1.134   2.522   2.986 -0.3842  0.0532  0.6108
  826SOL    HW1 2477   1.196   2.564   3.050 -2.0839  0.3655 -4.5141
  826SOL    HW2 2478   1.179   2.434   2.952  0.8052 -0.8300  0.7126
  827SOL     OW 2479   0.434   1.796   1.805  0.0155 -0.4114  0.2151
  827SOL    HW1 2480   0.419   1.701   1.775 -1.9866 -2.8426  0.3622
  827SOL    HW2 2481   0.435   1.801   1.908 -0.6682  3.2971  3.2156
  828SOL     OW 2482   0.269   1.660   1.268  0.2828 -0.0625  1.0824
  828SOL    HW1 2483   0.355   1.608   1.273 -0.5212 -0.0564  0.6039
  828SOL    HW2 2484   0.295   1.758   1.266  0.6699  0.9811  0.6848
  829SOL     OW 2485   2.882   2.527   0.138  0.4450 -0.3714  0.3450
  829SOL    HW1 2486   2.929   2.447   0.172 -1.4762  1.3011  2.3024
  829SOL    HW2 2487   2.799   2.509   0.077 -0.1547  0.3631  0.6441
  830SOL     OW 2488   1.245   0.907   0.654 -0.4429  0.2174 -0.3737
  830SOL    HW1 2489   1.270   0.864   0.568 -0.2287  1.8256 -0.2614
  830SOL    HW2 2490   1.286   0.851   0.729  0.4133  2.1947  0.7963
  831SOL     OW 2491   2.690   2.480   3.030 -0.4406  0.0573 -0.1566
  831SOL    HW1 2492   2.650   2.431   2.951 -1.1865  1.2783 -0.6913
  831SOL    HW2 2493   2.620   2.540   3.081 -2.2632 -0.2191  0.0828
  832SOL     OW 2494   1.806   2.399   0.166 -0.0921  0.4597  0.3019
  832SOL    HW1 2495   1.712   2.355   0.162  0.1854  1.2676  0.5047
  832SOL    HW2 2496   1.803   2.465   0.243 -1.4128  0.5264 -0.4476
  833SOL     OW 2497   0.616   0.991   2.515 -0.1522 -0.0325 -0.5504
  833SOL    HW1 2498   0.563   1.072   2.531  1.2306  2.4352 -3.7264
  833SOL    HW2 2499   0.706   0.997   2.570  1.9786 -0.5915  2.2554
  834SOL     OW 2500   2.666   0.361   0.744  0.0706  0.6854 -0.1115
  834SOL    HW1 2501   2.634   0.368   0.648  0.0516 -2.3590  2.0491
  834SOL    HW2 2502   2.587   0.358   0.806  1.2831 -0.5496 -1.3773
  835SOL     OW 2503   2.113   0.594   2.083 -0.0915 -0.5017 -0.4442
  835SOL    HW1 2504   2.185   0.633   2.146 -0.7053 -0.1736  0.7404
  835SOL    HW2 2505   2.017   0.611   2.120 -2.6748  0.8675  0.1090
  836SOL     OW 2506   0.571   2.030   0.439  0.1549  0.5773  0.2689
  836SOL    HW1 2507   0.669   2.024   0.463 -0.4839  0.5338 -1.1369
  836SOL    HW2 2508   0.543   1.936   0.408  0.6739 -0.6291 -3.5093
  837SOL     OW 2509   2.383   1.420   1.700  0.2228 -0.2310  0.4069
  837SOL    HW1 2510   2.417   1.459   1.789  2.0921  0.6096  0.0595
  837SOL    HW2 2511   2.306   1.482   1.667  0.5317  1.3379 -0.6645
  838SOL     OW 2512   0.029   1.020   2.327 -0.3903 -0.0127  0.0862
  838SOL    HW1 2513   3.078   0.939   2.356  3.3790 -0.1370 -0.4967
  838SOL    HW2 2514   0.124   0.992   2.296  2.0313  1.4439  1.1376
  839SOL     OW 2515   0.475   2.810   2.799  0.0493  0.1755 -0.2728
  839SOL    HW1 2516   0.395   2.799   2.735  1.8758  2.1264 -3.0912
  839SOL    HW2 2517   0.482   2.905   2.838 -1.0115 -0.5649  1.3465
  840SOL     OW 2518   0.088   1.339   2.703 -0.3834 -0.3099  0.3478
  840SOL    HW1 2519   0.153   1.303   2.775 -0.3355  1.0387 -1.2636
  840SOL    HW2 2520   3.095   1.338   2.738 -0.3461 -0.9820  2.1155
  841SOL     OW 2521   0.424   2.185   2.760  0.5811  0.1740  0.0335
  841SOL    HW1 2522   0.359   2.254   2.730  0.6815 -2.4251 -0.0234
  841SOL    HW2 2523   0.511   2.223   2.796 -0.3782 -1.1052  0.5311
  842SOL     OW 2524   1.021   0.236   1.174 -0.0559  0.3539 -0.5471
  842SOL    HW1 2525   1.097   0.294   1.142 -1.5594  1.9447  2.3548
  842SOL    HW2 2526   0.935   0.285   1.208 -4.3271 -2.0211 -2.5343
  843SOL     OW 2527   3.035   1.481   2.265 -0.0058  0.0902  0.2155
  843SOL    HW1 2528   3.085   1.547   2.205  0.1432 -1.9674 -2.4112
  843SOL    HW2 2529   3.102   1.407   2.301 -0.3395 -1.5233  0.3932
  844SOL     OW 2530   1.640   1.911   2.274 -0.2246 -0.7268  0.1089
  844SOL    HW1 2531   1.648   1.842   2.196 -1.2359  1.2486 -0.5594
  844SOL    HW2 2532   1.701   1.988   2.252  0.0243  0.3194  0.3881
  845SOL     OW 2533   1.775   3.074   2.578 -0.2299 -0.5944 -0.0236
  845SOL    HW1 2534   1.692   3.044   2.623  3.3311  0.4017 -0.5558
  845SOL    HW2 2535   1.810   0.058   2.628 -0.9629  3.8767 -0.0423
  846SOL     OW 2536   2.522   1.577   3.042 -0.1759 -0.0233 -0.0811
  846SOL    HW1 2537   2.425   1.558   3.050  2.3078 -1.6790 -0.3390
  846SOL    HW2 2538   2.568   1.491   3.022 -0.9064 -1.7006  2.0858
  847SOL     OW 2539   2.473   0.162   2.880  0.4262  0.3443 -0.0009
  847SOL    HW1 2540   2.407   0.142   2.802 -2.1773  1.4286 -0.8734
  847SOL    HW2 2541   2.541   0.230   2.849 -1.5087 -2.1357 -0.2030
  848SOL     OW 2542   2.289   0.541   0.357 -0.0013  0.0832 -0.0329
  848SOL    HW1 2543   2.203   0.528   0.306 -0.5770 -0.8048 -0.3103
  848SOL    HW2 2544   2.267   0.561   0.455  0.1461 -3.4667  2.1502
  849SOL     OW 2545   1.246   3.028   2.965  0.1598  0.0822  0.5103
  849SOL    HW1 2546   1.158   2.991   2.931 -0.2739  2.1133  1.0043
  849SOL    HW2 2547   1.291   3.092   2.897  1.6298  0.1118  1.3321
  850SOL     OW 2548   3.034   0.708   0.402 -0.0549 -0.2865  0.4602
  850SOL    HW1 2549   3.036   0.676   0.304 -0.1984 -0.3181 -0.1611
  850SOL    HW2 2550   3.064   0.632   0.463  0.2596 -0.9044 -1.3790
  851SOL     OW 2551   0.312   1.235   1.427 -0.3308  0.1994 -0.1912
  851SOL    HW1 2552   0.412   1.232   1.393 -1.4953 -0.4408 -1.1326
  851SOL    HW2 2553   0.270   1.330   1.436 -0.2587  2.0755 -1.6651
  852SOL     OW 2554   1.450   0.747   2.015 -0.1251 -0.3209  0.3859
  852SOL    HW1 2555   1.513   0.730   2.088 -0.9384  0.3419  0.2904
  852SOL    HW2 2556   1.443   0.672   1.945 -0.6940  2.9871  2.9264
  853SOL     OW 2557   2.221   1.534   3.042  0.1880 -0.3427  0.1221
  853SOL    HW1 2558   2.219   1.436   3.020 -0.1509 -1.1247  1.1928
  853SOL    HW2 2559   2.210   1.581   2.952  1.5304  0.1753  0.4066
  854SOL     OW 2560   1.432   1.207   1.971  0.2359  0.0986 -0.4217
  854SOL    HW1 2561   1.340   1.199   1.926  1.4797  0.4022 -0.9362
  854SOL    HW2 2562   1.407   1.210   2.069 -0.7363 -0.0873  0.0334
  855SOL     OW 2563   0.430   2.361   1.821 -0.2066  0.1440 -0.0205
  855SOL    HW1 2564   0.380   2.448   1.812  1.4151  0.2201 -1.7970
  855SOL    HW2 2565   0.397   2.290   1.754 -0.6909 -0.3824 -2.4907
  856SOL     OW 2566   1.245   1.335   2.500 -0.1562 -0.0066 -0.7553
  856SOL    HW1 2567   1.327   1.282   2.478  1.9981  2.3647  2.7849
  856SOL    HW2 2568   1.167   1.295   2.448  1.2755 -3.1077 -0.1924
  857SOL     OW 2569   0.885   1.045   2.609 -0.4968  0.2731 -0.1555
  857SOL    HW1 2570   0.964   0.985   2.577  1.9522 -0.4675  1.1260
  857SOL    HW2 2571   0.901   1.143   2.584  0.1698  0.3578  1.4678
  858SOL     OW 2572   0.217   0.460   1.826  0.0216  0.1385  0.6731
  858SOL    HW1 2573   0.296   0.407   1.794 -1.5769  3.9301  1.9252
  858SOL    HW2 2574   0.134   0.409   1.797  0.4794  2.3235  0.5624
  859SOL     OW 2575   2.368   0.283   0.639 -0.2055 -0.1664  0.2078
  859SOL    HW1 2576   2.419   0.330   0.563  0.4052 -1.0379 -0.1576
  859SOL    HW2 2577   2.402   0.317   0.731  1.0305  1.5759  2.0814
  860SOL     OW 2578   0.920   0.812   1.455  0.2245 -0.4312 -0.5079
  860SOL    HW1 2579   0.833   0.775   1.494 -0.7717 -0.7700 -0.5407
  860SOL    HW2 2580   0.972   0.747   1.399  0.9763  3.6369  0.0022
  861SOL     OW 2581   1.755   0.883   1.289  0.1151 -1.1360 -0.0821
  861SOL    HW1 2582   1.845   0.941   1.289  2.8692 -0.2296  2.0884
  861SOL    HW2 2583   1.699   0.900   1.375  1.0167 -0.5483 -0.0904
  862SOL     OW 2584   0.899   0.132   2.245  0.2230 -0.3111 -0.8733
  862SOL    HW1 2585   0.905   0.029   2.234  1.2406 -0.8963 -0.9281
  862SOL    HW2 2586   0.811   0.173   2.215 -0.8258 -0.7545 -2.3020
  863SOL     OW 2587   2.631   0.337   1.442 -0.5274 -0.6514 -0.3130
  863SOL    HW1 2588   2.560   0.386   1.389  0.9944  0.2221 -0.8628
  863SOL    HW2 2589   2.714   0.330   1.384 -1.1411 -2.7547 -1.3423
  864SOL     OW 2590   2.682   3.009   2.294 -0.0461 -0.4748  0.9285
  864SOL    HW1 2591   2.751   2.965   2.356 -1.3748 -0.9180  1.0699
  864SOL    HW2 2592   2.726   3.079   2.227  1.4481  1.5889 -1.9029
  865SOL     OW 2593   1.450   1.204   2.391  0.5315 -0.8027 -0.2280
  865SOL    HW1 2594   1.499   1.120   2.425  0.6575  0.0220  0.6941
  865SOL    HW2 2595   1.387   1.181   2.314  1.6199 -2.7631  1.9153
  866SOL     OW 2596   2.550   2.482   0.998  0.1526 -0.7433 -0.1695
  866SOL    HW1 2597   2.587   2.509   1.092  1.1551 -1.0134  1.6834
  866SOL    HW2 2598   2.572   2.389   0.971 -0.0929  3.1431 -0.6844
  867SOL     OW 2599   2.594   2.569   1.253 -0.7511  0.0601 -0.2755
  867SOL    HW1 2600   2.527   2.644   1.273 -0.1208  0.8273  2.5564
  867SOL    HW2 2601   2.676   2.572   1.317  0.7842 -1.0650  0.5547
  868SOL     OW 2602   0.005   1.586   1.624  0.7469  0.2559 -0.5019
  868SOL    HW1 2603   3.035   1.517   1.621 -0.7472  1.3352  0.1439
  868SOL    HW2 2604   0.002   1.635   1.535 -1.9702  0.3061 -0.9141
  869SOL     OW 2605   2.155   1.834   2.068 -0.2327 -0.3379 -0.2806
  869SOL    HW1 2606   2.243   1.850   2.118  2.9511 -0.6860 -0.6384
  869SOL    HW2 2607   2.101   1.754   2.100  1.0554  2.2124 -0.7989
  870SOL     OW 2608   1.475   0.952   0.926 -0.2707  0.2626 -0.3312
  870SOL    HW1 2609   1.464   0.970   1.025 -1.1906  0.3890 -1.7241
  870SOL    HW2 2610   1.463   1.046   0.874  1.1101  1.0966 -1.3446
  871SOL     OW 2611   2.493   1.518   1.930  0.0729 -0.6582 -0.1448
  871SOL    HW1 2612   2.478   1.522   2.032  0.0453  0.1583  1.2736
  871SOL    HW2 2613   2.539   1.605   1.903 -0.0370  0.7123  1.7500
  872SOL     OW 2614   1.458   1.722   2.667  0.0553 -0.1313  0.0804
  872SOL    HW1 2615   1.517   1.657   2.721  0.8040 -0.6023 -0.0074
  872SOL    HW2 2616   1.480   1.817   2.700 -2.1027  0.3116  3.0807
  873SOL     OW 2617   1.124   1.236   1.471 -0.2476 -0.0408  0.3047
  873SOL    HW1 2618   1.090   1.334   1.471 -0.4518 -0.4766 -0.6978
  873SOL    HW2 2619   1.051   1.168   1.494 -0.4912  0.5997 -2.7756
  874SOL     OW 2620   1.404   1.248   1.402  0.7914 -0.1112  0.2867
  874SOL    HW1 2621   1.301   1.251   1.413  0.4346 -0.9037 -1.3741
  874SOL    HW2 2622   1.439   1.345   1.388  1.2403  0.2636 -2.5981
  875SOL     OW 2623   2.754   3.096   2.674  0.3487  0.4346  0.3486
  875SOL    HW1 2624   2.718   0.075   2.625 -0.9519 -2.5820  1.9697
  875SOL    HW2 2625   2.686   3.017   2.669  2.3631 -1.3364 -1.0291
  876SOL     OW 2626   0.793   0.772   0.371  0.3116  0.3247 -0.3598
  876SOL    HW1 2627   0.753   0.798   0.463  1.0773 -1.6544 -1.0117
  876SOL    HW2 2628   0.728   0.715   0.323  1.0603  0.6764  1.3491
  877SOL     OW 2629   1.778   2.829   0.621  0.4885 -0.0228 -0.1138
  877SOL    HW1 2630   1.803   2.840   0.524 -3.0859  0.1230 -0.2530
  877SOL    HW2 2631   1.784   2.727   0.647  2.1084 -0.1481  0.2124
  878SOL     OW 2632   2.612   1.924   0.380  0.0512  0.2379  0.3950
  878SOL    HW1 2633   2.675   1.868   0.318 -2.1876 -2.1953 -0.4895
  878SOL    HW2 2634   2.588   2.015   0.340 -1.8846 -0.6420  0.8756
  879SOL     OW 2635   2.971   2.326   1.886  0.0548 -0.2043  0.3710
  879SOL    HW1 2636   2.975   2.292   1.983  2.0395 -0.4643  1.4401
  879SOL    HW2 2637   3.037   2.276   1.825 -0.4831  0.3327  0.7258
  880SOL     OW 2638   0.386   1.521   0.878  0.3665  0.1470  0.0571
  880SOL    HW1 2639   0.456   1.568   0.936 -0.1563 -0.5381 -0.5766
  880SOL    HW2 2640   0.410   1.532   0.780  1.1810 -0.7682  2.2620
  881SOL     OW 2641   1.342   0.372   2.618 -0.5370  0.1216 -0.1221
  881SOL    HW1 2642   1.307   0.286   2.577 -0.1675  1.2978 -0.5871
  881SOL    HW2 2643   1.267   0.434   2.643 -0.5066 -0.6674 -1.3201
  882SOL     OW 2644   2.456   1.065   0.696 -0.4562 -0.2628 -0.0699
  882SOL    HW1 2645   2.411   1.079   0.788 -0.6906 -0.2845  0.7411
  882SOL    HW2 2646   2.411   0.991   0.649 -0.0485  2.0530  1.3833
  883SOL     OW 2647   1.616   0.663   2.516 -0.0483 -0.1988  0.1555
  883SOL    HW1 2648   1.519   0.689   2.541  1.0528  2.8879 -0.2771
  883SOL    HW2 2649   1.632   0.699   2.421 -2.3332  1.0533  0.2872
  884SOL     OW 2650   0.040   0.066   1.916  0.0620  0.0124  0.0206
  884SOL    HW1 2651   3.081   0.035   1.843 -2.4828  1.2859  0.4779
  884SOL    HW2 2652   0.122   0.005   1.934 -1.1417  2.4686 -1.3784
  885SOL     OW 2653   1.959   1.058   2.229 -0.0521 -0.5970  0.1277
  885SOL    HW1 2654   1.967   1.072   2.127  0.1225  1.8719 -0.9011
  885SOL    HW2 2655   2.047   1.030   2.270 -2.8354 -0.9941 -0.7526
  886SOL     OW 2656   1.690   0.518   2.946  0.3266  0.6223 -0.0683
  886SOL    HW1 2657   1.703   0.465   3.035  0.9973 -0.3136  1.2635
  886SOL    HW2 2658   1.769   0.524   2.889  2.9411 -4.5588  0.8032
  887SOL     OW 2659   1.187   2.651   1.526  0.6054  0.0460  0.0932
  887SOL    HW1 2660   1.283   2.682   1.507  1.9340  0.5335 -0.6789
  887SOL    HW2 2661   1.160   2.576   1.464 -0.0138  2.0579 -0.4695
  888SOL     OW 2662   2.456   0.932   1.329  0.0534  0.1324  0.5192
  888SOL    HW1 2663   2.354   0.950   1.307 -3.7102 -1.9514 -1.5597
  888SOL    HW2 2664   2.500   1.016   1.366  2.3585 -0.5170  1.5586
  889SOL     OW 2665   1.859   2.850   1.018  0.1505 -0.1220  0.1670
  889SOL    HW1 2666   1.777   2.813   0.977  2.3344  0.6392  0.0060
  889SOL    HW2 2667   1.873   2.946   0.977  0.7500 -0.7443  0.6432
  890SOL     OW 2668   1.153   2.551   0.593  0.3854 -0.3190  0.7699
  890SOL    HW1 2669   1.211   2.491   0.644 -1.9525  3.4485  0.1456
  890SOL    HW2 2670   1.072   2.584   0.646 -0.3613 -0.7316 -0.1229
  891SOL     OW 2671   2.859   1.423   0.136 -0.9411  0.1571 -0.4279
  891SOL    HW1 2672   2.800   1.378   0.208 -0.1226  1.0609  1.6767
  891SOL    HW2 2673   2.803   1.472   0.068 -0.7454  2.7214  1.6081
  892SOL     OW 2674   2.355   1.745   2.504 -0.2751  0.3627 -0.6577
  892SOL    HW1 2675   2.405   1.782   2.423 -0.1432  0.4758  2.6759
  892SOL    HW2 2676   2.260   1.781   2.497  2.4853 -1.4751  1.0592
  893SOL     OW 2677   2.324   2.287   1.115  0.2440  0.4545  0.1383
  893SOL    HW1 2678   2.358   2.217   1.045 -0.2593  0.0575  0.3459
  893SOL    HW2 2679   2.295   2.373   1.069  1.3541 -1.6607  2.0207
  894SOL     OW 2680   0.147   0.740   0.695 -0.2210  0.1168  0.2873
  894SOL    HW1 2681   0.181   0.660   0.753  3.0164 -0.9442  2.8266
  894SOL    HW2 2682   0.087   0.700   0.628  1.3751 -3.8666  1.3838
  895SOL     OW 2683   2.874   2.161   2.344  0.6049  0.3316 -0.0793
  895SOL    HW1 2684   2.955   2.137   2.397  0.0260 -2.3205 -3.8663
  895SOL    HW2 2685   2.789   2.162   2.398  1.7641 -3.6191  0.3365
  896SOL     OW 2686   1.534   3.046   2.710  0.2155 -0.4941  0.1615
  896SOL    HW1 2687   1.511   2.965   2.772  0.7083 -1.3781 -0.0214
  896SOL    HW2 2688   1.536   0.026   2.769 -1.4070  2.3850 -0.4592
  897SOL     OW 2689   3.081   1.762   1.845 -0.0929  0.2461 -0.1650
  897SOL    HW1 2690   0.053   1.834   1.838  1.3969  1.8658  0.7196
  897SOL    HW2 2691   3.096   1.688   1.777  1.1685 -1.7731  0.4930
  898SOL     OW 2692   0.700   2.233   1.840 -0.1289 -0.0213 -0.1860
  898SOL    HW1 2693   0.615   2.290   1.844  1.2826  1.0540 -0.3666
  898SOL    HW2 2694   0.723   2.232   1.739 -2.3480  0.5444 -1.1196
  899SOL     OW 2695   1.631   3.063   1.881 -0.4196 -0.0289  1.0725
  899SOL    HW1 2696   1.653   2.962   1.891  1.1086 -1.1582  1.8402
  899SOL    HW2 2697   1.546   3.074   1.819 -0.4187  3.7514  0.5626
  900SOL     OW 2698   1.319   1.133   0.557 -0.5452 -0.6137 -0.0885
  900SOL    HW1 2699   1.384   1.101   0.483  0.0341 -0.9206 -1.3631
  900SOL    HW2 2700   1.274   1.049   0.597 -0.5395  0.0774 -1.1399
  901SOL     OW 2701   1.513   0.984   2.523 -0.1463 -0.1426 -0.4570
  901SOL    HW1 2702   1.497   1.015   2.619  1.4551 -1.0317  0.7385
  901SOL    HW2 2703   1.466   0.899   2.501  0.4423  4.3063  2.5193
  902SOL     OW 2704   0.131   2.436   1.191 -0.4021  0.4728  0.0676
  902SOL    HW1 2705   0.032   2.445   1.219 -0.2216  1.1306 -1.8438
  902SOL    HW2 2706   0.196   2.447   1.269 -1.6376 -1.3867 -0.2542
  903SOL     OW 2707   2.556   1.354   2.384 -0.0013 -0.2013  0.4712
  903SOL    HW1 2708   2.513   1.259   2.376 -2.2636 -1.3397  1.6114
  903SOL    HW2 2709   2.662   1.349   2.390  1.6690  3.0795  1.0178
  904SOL     OW 2710   1.500   1.848   0.178 -0.1343  0.4976  0.1826
  904SOL    HW1 2711   1.471   1.748   0.181  1.6107  0.5335 -1.0050
  904SOL    HW2 2712   1.459   1.881   0.092  0.9431  0.0170  2.2790
  905SOL     OW 2713   2.028   2.814   1.735  0.3386  0.1703 -0.0671
  905SOL    HW1 2714   2.031   2.719   1.697 -2.8547  0.8765  1.7132
  905SOL    HW2 2715   2.060   2.818   1.831  0.0755  0.8484  2.0183
  906SOL     OW 2716   1.708   2.791   0.118  1.1736  0.2648 -0.0961
  906SOL    HW1 2717   1.794   2.760   0.071 -1.6241  0.3782  1.2533
  906SOL    HW2 2718   1.651   2.855   0.062 -4.0841 -0.4829  0.2003
  907SOL     OW 2719   0.348   2.712   0.917 -0.2028  0.0875 -0.1257
  907SOL    HW1 2720   0.324   2.781   0.988 -0.1517  0.8519  1.1439
  907SOL    HW2 2721   0.336   2.761   0.827  0.0347  0.4132 -0.9386
  908SOL     OW 2722   0.725   2.739   1.877 -0.7022 -0.1323  0.8834
  908SOL    HW1 2723   0.812   2.790   1.872  0.9549  1.5838 -0.5838
  908SOL    HW2 2724   0.713   2.680   1.956  0.0943 -0.3151 -1.9869
  909SOL     OW 2725   1.766   0.611   1.328 -0.0574  0.3986 -1.0952
  909SOL    HW1 2726   1.759   0.708   1.300  0.4051  1.7077 -2.0759
  909SOL    HW2 2727   1.792   0.599   1.428 -1.1852 -1.6307  0.7238
  910SOL     OW 2728   0.717   0.472   0.186 -0.6305 -0.2910 -0.0038
  910SOL    HW1 2729   0.666   0.398   0.135 -1.3498 -1.7370 -0.4512
  910SOL    HW2 2730   0.755   0.441   0.277 -0.2035  1.7511 -3.5811
  911SOL     OW 2731   0.365   3.068   2.946 -0.4806 -1.0830 -0.4894
  911SOL    HW1 2732   0.445   0.013   2.993  2.2694 -1.0735  1.2889
  911SOL    HW2 2733   0.297   3.035   3.010 -0.3145  2.2786 -0.3900
  912SOL     OW 2734   3.004   2.218   2.743  0.0287  0.1309 -0.2849
  912SOL    HW1 2735   3.076   2.252   2.808  0.1626 -0.1129  0.1723
  912SOL    HW2 2736   3.047   2.195   2.651  0.1264 -0.5999 -0.1254
  913SOL     OW 2737   2.389   2.824   0.185 -0.2123  0.5314  0.0492
  913SOL    HW1 2738   2.444   2.911   0.162  1.8388  1.6304 -1.2385
  913SOL    HW2 2739   2.387   2.815   0.282 -0.3355  1.3798 -1.5800
  914SOL     OW 2740   1.368   1.554   2.001  0.1002  0.2632 -0.3672
  914SOL    HW1 2741   1.454   1.530   2.053  0.6122  2.6016 -3.6641
  914SOL    HW2 2742   1.370   1.651   1.971  3.2908 -1.9742 -0.7368
  915SOL     OW 2743   2.921   2.410   2.278  0.3407  0.5205 -0.4139
  915SOL    HW1 2744   3.019   2.398   2.260 -2.0311 -0.4090  0.1209
  915SOL    HW2 2745   2.887   2.321   2.314 -0.2488  0.6331 -1.8020
  916SOL     OW 2746   2.967   0.608   2.186  0.4704  0.0393 -0.0769
  916SOL    HW1 2747   2.904   0.680   2.218  1.4010  2.0079 -1.3394
  916SOL    HW2 2748   3.045   0.661   2.157 -2.6894 -0.0638  1.4738
  917SOL     OW 2749   1.819   0.117   0.095 -0.2107  0.2223 -0.1488
  917SOL    HW1 2750   1.881   0.124   0.175 -0.5667  2.7890 -0.2745
  917SOL    HW2 2751   1.842   0.038   0.036 -0.9031 -0.5477  1.3995
  918SOL     OW 2752   1.843   2.991   2.324  0.3006 -0.4854 -0.0639
  918SOL    HW1 2753   1.825   3.032   2.418  2.1332 -0.6000  1.2036
  918SOL    HW2 2754   1.771   3.026   2.259  1.8061  0.8052  0.5652
  919SOL     OW 2755   1.676   2.374   1.585  0.1715  0.0993 -0.2671
  919SOL    HW1 2756   1.652   2.393   1.690  0.1174  1.8405  2.5196
  919SOL    HW2 2757   1.611   2.309   1.542  0.4443 -1.4509  2.4259
  920SOL     OW 2758   3.003   1.038   0.135 -0.5557  0.1057 -0.2794
  920SOL    HW1 2759   3.085   1.013   0.197  3.7148 -2.5514  0.3653
  920SOL    HW2 2760   3.028   1.124   0.086  1.7132 -2.9507  1.2724
  921SOL     OW 2761   2.542   0.909   2.530 -0.6328  0.3274  0.5254
  921SOL    HW1 2762   2.619   0.933   2.467  1.5926 -1.1351  0.3894
  921SOL    HW2 2763   2.553   0.961   2.616  0.5718 -0.7866  2.2263
  922SOL     OW 2764   1.141   1.836   2.659  0.2556 -0.0463  0.2852
  922SOL    HW1 2765   1.081   1.871   2.733 -1.2618 -0.8634 -0.7672
  922SOL    HW2 2766   1.193   1.753   2.686  0.0605 -0.3650  0.2863
  923SOL     OW 2767   0.663   1.099   2.220  0.0742 -0.3681 -0.0253
  923SOL    HW1 2768   0.675   1.053   2.307 -1.7425  1.9245  0.3154
  923SOL    HW2 2769   0.578   1.069   2.171 -1.2649  0.4839  1.8111
  924SOL     OW 2770   0.262   2.375   2.677 -0.1336  0.8739 -0.8736
  924SOL    HW1 2771   0.325   2.454   2.672  1.3182 -3.9237 -1.3330
  924SOL    HW2 2772   0.185   2.379   2.607 -0.0917 -1.2814 -0.9244
  925SOL     OW 2773   1.747   1.414   1.109 -0.6821 -0.5068  0.2826
  925SOL    HW1 2774   1.719   1.325   1.148 -0.2942 -0.1255  1.0761
  925SOL    HW2 2775   1.665   1.474   1.091 -0.7613  1.6432  0.9751
  926SOL     OW 2776   1.603   0.406   2.557  0.0833 -0.2571 -0.6276
  926SOL    HW1 2777   1.505   0.375   2.577 -0.5902  0.4011  1.3142
  926SOL    HW2 2778   1.612   0.507   2.559  0.3118 -0.3222  0.5103
  927SOL     OW 2779   2.155   2.838   1.969 -0.3018  0.3312  0.0345
  927SOL    HW1 2780   2.232   2.900   1.943 -0.8093 -1.2906 -2.3900
  927SOL    HW2 2781   2.119   2.866   2.062 -0.8912 -0.6480 -0.3698
  928SOL     OW 2782   0.656   1.359   2.722 -0.4278 -0.5269 -0.0054
  928SOL    HW1 2783   0.585   1.388   2.660  1.6064  1.9110 -1.2899
  928SOL    HW2 2784   0.749   1.383   2.682 -0.1408 -1.2694 -0.1151
  929SOL     OW 2785   0.135   0.250   0.874  0.3895 -0.6085 -0.8789
  929SOL    HW1 2786   0.194   0.263   0.795  0.2236 -2.7255 -2.2521
  929SOL    HW2 2787   0.094   0.157   0.873  1.9511 -0.1866  1.0983
  930SOL     OW 2788   2.493   0.478   1.895  0.1180  0.1908 -0.1695
  930SOL    HW1 2789   2.401   0.478   1.847  2.8394 -2.2383 -1.5519
  930SOL    HW2 2790   2.562   0.489   1.824 -1.2305 -0.0051  2.4597
  931SOL     OW 2791   2.225   1.241   2.963 -0.3773  0.1121  0.2654
  931SOL    HW1 2792   2.124   1.236   2.973  1.1504 -1.5658  3.1685
  931SOL    HW2 2793   2.272   1.172   3.027  1.2321 -0.7891  0.4464
  932SOL     OW 2794   2.500   1.676   1.127 -0.2168 -0.2300  0.1337
  932SOL    HW1 2795   2.591   1.714   1.143 -2.9628 -1.5648 -1.0334
  932SOL    HW2 2796   2.495   1.602   1.058 -4.1273 -3.9918  0.3573
  933SOL     OW 2797   2.919   2.543   1.675  0.4741 -0.3259  0.2202
  933SOL    HW1 2798   2.928   2.462   1.733 -2.0748  2.5946 -3.5832
  933SOL    HW2 2799   2.857   2.608   1.724 -0.9944  2.1010 -0.1531
  934SOL     OW 2800   0.473   3.043   1.285  0.3968 -0.0151  0.4430
  934SOL    HW1 2801   0.461   2.991   1.373  1.1727  3.2796  0.0771
  934SOL    HW2 2802   0.566   3.091   1.268 -0.8496  0.5717  1.9448
  935SOL     OW 2803   2.508   0.695   2.043 -0.0774  0.0614 -0.8812
  935SOL    HW1 2804   2.438   0.683   2.124  1.3429 -2.9075  6.1305
  935SOL    HW2 2805   2.521   0.609   1.998  1.4389  2.1246  1.0546
  936SOL     OW 2806   2.488   0.899   1.824  1.0757  0.1851 -0.2222
  936SOL    HW1 2807   2.488   0.866   1.726 -0.1604  2.1833 -0.5306
  936SOL    HW2 2808   2.514   0.828   1.899  1.5855 -0.8881  1.9776
  937SOL     OW 2809   1.836   1.362   1.744 -0.3267  0.2866 -0.4773
  937SOL    HW1 2810   1.789   1.413   1.667 -0.5716  0.3885 -0.2984
  937SOL    HW2 2811   1.923   1.325   1.709 -1.1399 -0.9115  0.6459
  938SOL     OW 2812   0.390   2.521   3.017  0.3772  0.1549  0.5118
  938SOL    HW1 2813   0.413   2.617   3.044  1.2592  0.1749 -2.0225
  938SOL    HW2 2814   0.288   2.509   3.018 -0.0217  0.3095 -3.2219
  939SOL     OW 2815   2.317   0.545   2.940 -0.3174  0.3123 -0.6347
  939SOL    HW1 2816   2.230   0.591   2.960 -1.4784  3.3805  0.3536
  939SOL    HW2 2817   2.324   0.453   2.981  0.4219 -1.7540 -3.6471
  940SOL     OW 2818   1.240   2.301   0.703  0.5419  0.0404 -0.0310
  940SOL    HW1 2819   1.341   2.297   0.722 -0.0101 -0.5439 -0.8195
  940SOL    HW2 2820   1.186   2.295   0.790 -1.1500 -0.9716  3.0692
  941SOL     OW 2821   1.111   2.141   1.796  0.5058  0.0534  0.2127
  941SOL    HW1 2822   1.047   2.214   1.766  1.7497 -0.6193 -3.0278
  941SOL    HW2 2823   1.076   2.049   1.769 -2.6848 -1.9020  1.1403
  942SOL     OW 2824   2.841   2.108   0.093  0.1596  0.7758  0.6813
  942SOL    HW1 2825   2.887   2.015   0.081  2.0623  0.7649 -0.2027
  942SOL    HW2 2826   2.793   2.129   0.004  0.5649  1.4230  1.6818
  943SOL     OW 2827   2.225   2.924   1.607  0.1362  0.0335  0.7201
  943SOL    HW1 2828   2.268   2.852   1.553  0.6231  0.5381 -1.6898
  943SOL    HW2 2829   2.140   2.886   1.652 -2.7580 -0.5225  1.1929
  944SOL     OW 2830   1.856   2.118   2.565 -0.7132  0.1407 -0.0919
  944SOL    HW1 2831   1.771   2.059   2.562 -0.8361  1.3657  2.3274
  944SOL    HW2 2832   1.837   2.214   2.586 -0.9003 -4.0140  3.6074
  945SOL     OW 2833   2.605   2.193   0.939 -0.6314 -0.0524  0.7736
  945SOL    HW1 2834   2.627   2.095   0.938 -0.3307  0.3983  0.4104
  945SOL    HW2 2835   2.502   2.206   0.941  0.5291 -0.2950  1.6564
  946SOL     OW 2836   1.266   1.475   2.727 -0.6328  0.7931  0.7912
  946SOL    HW1 2837   1.230   1.416   2.647 -0.6040 -1.8033 -3.9854
  946SOL    HW2 2838   1.356   1.524   2.695  5.0434  1.0547 -3.2427
  947SOL     OW 2839   0.077   0.761   2.061 -0.1795  0.1698  0.8608
  947SOL    HW1 2840   0.124   0.820   2.131 -0.6900 -0.3848 -1.2823
  947SOL    HW2 2841   0.132   0.708   1.995 -0.8787  0.2384 -0.4278
  948SOL     OW 2842   3.053   1.131   0.715 -0.0934  0.0376  0.0074
  948SOL    HW1 2843   0.053   1.150   0.703  0.9822  0.4790  2.3345
  948SOL    HW2 2844   3.042   1.038   0.759  0.4163  0.3130  1.4437
  949SOL     OW 2845   0.739   0.576   2.595 -0.0275  1.1350 -1.0085
  949SOL    HW1 2846   0.749   0.607   2.499 -0.4905 -4.0161  0.6492
  949SOL    HW2 2847   0.753   0.474   2.601  0.4152 -0.6930  2.5507
  950SOL     OW 2848   0.279   0.564   1.536 -0.4905 -1.3373  0.1380
  950SOL    HW1 2849   0.175   0.572   1.543  0.8520 -4.6003  0.9518
  950SOL    HW2 2850   0.318   0.653   1.499  3.1183  2.1994 -1.2977
  951SOL     OW 2851   0.371   1.482   2.716 -0.3963  0.1844 -0.5786
  951SOL    HW1 2852   0.283   1.532   2.701  1.4492  0.3835 -2.9605
  951SOL    HW2 2853   0.355   1.394   2.772  0.2881  0.6494  1.8848
  952SOL     OW 2854   1.709   2.226   1.286 -0.4536 -0.7250  0.3213
  952SOL    HW1 2855   1.641   2.236   1.356  2.3793  1.5192 -2.8735
  952SOL    HW2 2856   1.754   2.317   1.273 -2.1396  1.3027  0.5128
  953SOL     OW 2857   0.439   2.784   3.065  0.1682  0.2043  0.1701
  953SOL    HW1 2858   0.360   2.849   3.073  1.1987 -1.7314  2.9209
  953SOL    HW2 2859   0.465   2.779   2.964  0.3060 -0.8704 -3.0040
  954SOL     OW 2860   2.751   0.839   1.030  0.6437 -0.0602 -0.1313
  954SOL    HW1 2861   2.830   0.824   0.969 -2.3613 -0.5124 -0.2157
  954SOL    HW2 2862   2.771   0.906   1.107  1.3749  1.2644 -0.5764
  955SOL     OW 2863   1.601   1.542   2.831  0.8444 -0.3559  0.4984
  955SOL    HW1 2864   1.700   1.534   2.821 -0.3698 -2.1508 -2.0829
  955SOL    HW2 2865   1.567   1.451   2.862 -0.5934  1.7971  0.4427
  956SOL     OW 2866   1.174   0.736   2.335 -0.7886 -1.0009  0.1619
  956SOL    HW1 2867   1.080   0.757   2.354  3.0149 -0.4562  0.4146
  956SOL    HW2 2868   1.193   0.759   2.237  0.7230 -2.0815 -2.9478
  957SOL     OW 2869   0.831   0.355   1.552 -0.5417  0.6708 -0.5682
  957SOL    HW1 2870   0.813   0.397   1.645 -0.5240  0.1588  0.1252
  957SOL    HW2 2871   0.924   0.313   1.556 -0.0585  1.6137 -0.6015
  958SOL     OW 2872   0.375   1.832   0.610  0.1911 -0.2021  0.4345
  958SOL    HW1 2873   0.311   1.825   0.690 -1.2158  0.9489  1.2090
  958SOL    HW2 2874   0.338   1.882   0.525  2.1573  0.4274 -1.8456
  959SOL     OW 2875   2.278   0.699   1.575 -0.0541 -0.0957 -0.0041
  959SOL    HW1 2876   2.381   0.707   1.549  4.5046  0.7017  0.5649
  959SOL    HW2 2877   2.260   0.728   1.671  0.1350  0.4404 -1.5751
  960SOL     OW 2878   0.191   1.552   2.996  0.0971  0.2679 -0.1953
  960SOL    HW1 2879   0.273   1.618   2.994  3.7961  1.7077  0.9026
  960SOL    HW2 2880   0.212   1.469   3.053  1.0967 -2.3765  1.1147
  961SOL     OW 2881   0.666   1.626   0.815  0.0696  0.9929  0.4101
  961SOL    HW1 2882   0.605   1.613   0.735  3.2495 -1.0518  1.6415
  961SOL    HW2 2883   0.620   1.659   0.899  1.9596  2.1486 -2.3922
  962SOL     OW 2884   0.760   1.547   1.234 -0.1529 -0.4803  0.2699
  962SOL    HW1 2885   0.812   1.542   1.148 -0.2339 -1.5351  0.5004
  962SOL    HW2 2886   0.775   1.465   1.291  0.4518 -0.0699 -0.5281
  963SOL     OW 2887   1.545   2.386   2.515  0.0633  0.6979  0.0083
  963SOL    HW1 2888   1.468   2.326   2.525  2.1932  1.5118 -1.9800
  963SOL    HW2 2889   1.613   2.340   2.455  0.7524 -2.3203  1.2483
  964SOL     OW 2890   0.125   2.757   2.408  0.0205 -0.4537 -0.1777
  964SOL    HW1 2891   0.189   2.733   2.338 -1.6518  0.0623  2.2279
  964SOL    HW2 2892   0.047   2.822   2.378 -4.5296 -0.1802 -1.5304
  965SOL     OW 2893   2.807   2.083   2.874  0.4581  0.2801 -0.4837
  965SOL    HW1 2894   2.885   2.140   2.832 -1.7094 -0.5798 -1.3268
  965SOL    HW2 2895   2.794   1.993   2.830  1.9867 -2.2654  1.5852
  966SOL     OW 2896   2.846   1.528   2.747 -0.3127 -0.8211  0.0498
  966SOL    HW1 2897   2.828   1.563   2.846  1.4255  0.8585  1.8393
  966SOL    HW2 2898   2.756   1.541   2.691 -2.4959 -1.4370 -1.3989
  967SOL     OW 2899   1.901   0.201   0.409  0.4477 -0.8724 -0.0741
  967SOL    HW1 2900   2.000   0.190   0.435  0.1356 -0.7116 -0.2847
  967SOL    HW2 2901   1.837   0.147   0.460  0.4180 -1.3915  0.9445
  968SOL     OW 2902   2.436   3.097   0.668  0.1579  0.0349 -0.9025
  968SOL    HW1 2903   2.519   3.098   0.729 -0.8135  1.2718  0.5692
  968SOL    HW2 2904   2.401   0.089   0.655 -1.5677  0.3014  1.8103
  969SOL     OW 2905   0.419   1.108   2.103  0.5442  0.1993  0.1981
  969SOL    HW1 2906   0.347   1.081   2.030 -0.4912  0.3507 -0.4998
  969SOL    HW2 2907   0.435   1.206   2.101 -0.7577 -0.8962  0.7101
  970SOL     OW 2908   1.912   1.780   2.787 -0.0752 -0.0701  0.0465
  970SOL    HW1 2909   1.863   1.738   2.706  0.2506  3.1759  0.8542
  970SOL    HW2 2910   1.851   1.848   2.830  1.4289 -1.1115  1.0248
  971SOL     OW 2911   2.267   0.408   1.746 -0.1059 -0.0105 -0.1430
  971SOL    HW1 2912   2.247   0.316   1.784  0.4946  0.0121  1.1491
  971SOL    HW2 2913   2.275   0.405   1.644  0.9228 -0.4397  1.7782
  972SOL     OW 2914   3.043   0.345   1.033  0.6598 -0.4382  0.0426
  972SOL    HW1 2915   2.949   0.323   1.002  0.2460  0.9485  1.0144
  972SOL    HW2 2916   0.010   0.312   0.966  0.2708  0.5695 -0.6193
  973SOL     OW 2917   0.206   0.290   2.503 -0.1412 -0.1314  0.6696
  973SOL    HW1 2918   0.202   0.198   2.465 -1.1775  1.4802 -0.3502
  973SOL    HW2 2919   0.239   0.281   2.597 -2.8157 -1.8418 -1.8434
  974SOL     OW 2920   3.022   1.106   1.730 -0.3300 -0.5518 -0.3181
  974SOL    HW1 2921   3.058   1.180   1.668 -2.3224 -0.4538 -1.0691
  974SOL    HW2 2922   2.924   1.102   1.725  1.7943 -1.1350  1.5677
  975SOL     OW 2923   1.457   3.063   2.141  0.5819  0.4881 -0.2459
  975SOL    HW1 2924   1.551   3.090   2.122  0.2434 -0.2194  1.3351
  975SOL    HW2 2925   1.457   3.004   2.230 -1.7153 -0.7636  3.9794
  976SOL     OW 2926   2.165   1.562   1.644  0.0781 -0.6564  0.4543
  976SOL    HW1 2927   2.183   1.599   1.552 -0.3235  1.5643 -0.4458
  976SOL    HW2 2928   2.144   1.644   1.704  1.5466  1.1780  2.8478
  977SOL     OW 2929   3.037   2.722   0.000 -0.3750  0.6504 -0.6991
  977SOL    HW1 2930   2.975   2.657   0.042  0.8700  0.1785 -2.9073
  977SOL    HW2 2931   2.978   2.801   3.067 -1.1544 -0.7289 -0.5330
  978SOL     OW 2932   2.179   1.270   2.010 -0.2449  0.8418 -0.0495
  978SOL    HW1 2933   2.138   1.347   1.955 -1.1480  0.4229 -2.1523
  978SOL    HW2 2934   2.122   1.187   1.998  0.4149  0.4113  0.2197
  979SOL     OW 2935   1.001   1.015   2.237  0.2301  0.0168  0.4239
  979SOL    HW1 2936   1.078   0.964   2.186  1.8827 -2.7466 -1.0411
  979SOL    HW2 2937   0.920   1.015   2.175  0.9856 -1.6909 -0.6017
  980SOL     OW 2938   1.629   1.957   2.564 -0.1842 -0.1301  0.0589
  980SOL    HW1 2939   1.593   1.945   2.470  1.3130  0.1864  1.8258
  980SOL    HW2 2940   1.690   1.874   2.578  1.2861  0.6214  1.6237
  981SOL     OW 2941   1.746   0.808   1.787 -0.3057  0.0571 -0.0579
  981SOL    HW1 2942   1.831   0.862   1.790  0.6898  1.8573 -2.3363
  981SOL    HW2 2943   1.667   0.853   1.829  0.7070 -0.8589 -0.3106
  982SOL     OW 2944   0.522   0.295   0.094 -0.4471  0.2276 -0.1865
  982SOL    HW1 2945   0.462   0.309   0.179 -0.3728 -0.6732 -0.9024
  982SOL    HW2 2946   0.468   0.273   0.010 -1.7003  0.1863  2.0820
  983SOL     OW 2947   2.103   0.663   3.066  0.5238  0.4719 -0.2832
  983SOL    HW1 2948   2.066   0.654   0.057 -0.6460 -1.6482 -1.7261
  983SOL    HW2 2949   2.126   0.763   3.049 -1.9179 -3.1357 -2.6339
  984SOL     OW 2950   1.063   0.298   2.810 -0.6745 -0.3726 -0.3200
  984SOL    HW1 2951   1.102   0.223   2.749  0.4225 -1.2617  1.8027
  984SOL    HW2 2952   1.056   0.262   2.904  2.8154  2.5568 -0.8867
  985SOL     OW 2953   1.409   2.450   1.863  0.0016  0.5940  0.7977
  985SOL    HW1 2954   1.358   2.426   1.948  1.2340 -0.3538  0.4717
  985SOL    HW2 2955   1.388   2.549   1.835 -0.8129 -1.1062 -2.4376
  986SOL     OW 2956   2.336   3.002   1.835  0.5404  0.8459  0.1247
  986SOL    HW1 2957   2.310   2.938   1.757  2.5090 -4.4344 -0.5195
  986SOL    HW2 2958   2.403   3.071   1.803 -1.5232 -0.3418  1.6591
  987SOL     OW 2959   2.152   1.413   1.183  0.0271  0.1002  0.7285
  987SOL    HW1 2960   2.162   1.423   1.080  0.9859  0.4324  0.1101
  987SOL    HW2 2961   2.233   1.372   1.226 -0.7812 -0.8721  1.1325
  988SOL     OW 2962   2.618   1.096   1.495  0.1644 -0.4338 -0.2962
  988SOL    HW1 2963   2.539   1.116   1.555 -0.5767 -0.3620 -1.4865
  988SOL    HW2 2964   2.639   1.178   1.437 -0.7617  1.6061  0.6143
  989SOL     OW 2965   1.787   2.037   2.940  0.1777  0.5099  0.8072
  989SOL    HW1 2966   1.823   2.121   2.897  0.2329 -0.8156  0.5408
  989SOL    HW2 2967   1.851   2.001   3.011  1.9120  2.4250  0.5418
  990SOL     OW 2968   1.643   0.771   2.230 -0.5312 -0.2993  0.0520
  990SOL    HW1 2969   1.734   0.719   2.215  3.4531  0.1481  0.0898
  990SOL    HW2 2970   1.662   0.866   2.197 -1.8604 -3.2718 -2.0848
  991SOL     OW 2971   0.953   0.940   0.768 -0.4360  0.2936  0.2075
  991SOL    HW1 2972   1.038   0.915   0.717  2.7088  2.4532  0.3290
  991SOL    HW2 2973   0.975   0.933   0.866  1.1080  0.4792  0.6804
  992SOL     OW 2974   0.176   1.004   1.327 -0.1504 -0.2842 -0.7840
  992SOL    HW1 2975   0.223   1.092   1.366  0.3911  1.5149 -2.3508
  992SOL    HW2 2976   0.174   0.998   1.228 -0.1543 -0.9247  2.7487
  993SOL     OW 2977   2.192   0.653   1.830  0.2460  0.2679 -0.4544
  993SOL    HW1 2978   2.172   0.661   1.930 -0.3440  2.7520  0.0769
  993SOL    HW2 2979   2.225   0.558   1.813  2.3826  0.2547  1.5935
  994SOL     OW 2980   1.260   1.815   1.758 -0.1168 -0.4901 -0.3896
  994SOL    HW1 2981   1.303   1.845   1.850  1.4549 -1.6967  2.4060
  994SOL    HW2 2982   1.166   1.856   1.751  3.0784  0.5035 -0.1477
  995SOL     OW 2983   2.311   1.928   2.819  0.2980 -0.1830  0.2708
  995SOL    HW1 2984   2.372   2.002   2.857 -0.1793  2.5151  1.9643
  995SOL    HW2 2985   2.233   1.971   2.769 -0.1916  0.4677 -0.8622
  996SOL     OW 2986   2.106   1.689   0.590  0.6528 -0.4986  0.1711
  996SOL    HW1 2987   2.150   1.707   0.681  2.5026 -1.5290  0.3186
  996SOL    HW2 2988   2.128   1.593   0.565  1.6448  2.0462 -1.2827
  997SOL     OW 2989   1.845   0.612   2.180 -0.3464  0.4148 -0.2724
  997SOL    HW1 2990   1.803   0.576   2.091  0.9984  0.0246  1.8365
  997SOL    HW2 2991   1.832   0.534   2.246  0.9888  1.0243  2.2516
  998SOL     OW 2992   2.508   0.648   0.742 -0.0019  0.0730 -0.1240
  998SOL    HW1 2993   2.452   0.607   0.817 -1.5867  2.0015  2.1194
  998SOL    HW2 2994   2.445   0.655   0.659  2.2681  0.4270 -0.1781
  999SOL     OW 2995   2.383   1.175   0.466 -0.0223  0.0898  0.0415
  999SOL    HW1 2996   2.410   1.141   0.560  1.5491  0.5926 -0.9357
  999SOL    HW2 2997   2.424   1.268   0.454  0.6541  1.4775  0.1836
 1000SOL     OW 2998   0.793   1.117   1.755  0.6462 -0.5808 -0.1622
 1000SOL    HW1 2999   0.777   1.212   1.793 -0.3942  0.4920 -0.1083
 1000SOL    HW2 3000   0.703   1.069   1.746  1.0774 -0.3619 -1.4880
   3.10263   3.10263   3.10263
