1000 SPC/Fw water molecules t= 134.00000 step= 134000
 3000
    1SOL     OW    1   2.320   2.271   0.860 -0.0656  0.0688  0.5087
    1SOL    HW1    2   2.253   2.344   0.847  2.8816 -1.1596  3.2934
    1SOL    HW2    3   2.276   2.178   0.865  0.0346 -1.8025  0.6008
    2SOL     OW    4   1.442   1.865   2.172 -0.1373 -0.0682  0.1788
    2SOL    HW1    5   1.346   1.893   2.183  0.2950 -1.8728  0.6653
    2SOL    HW2    6   1.448   1.772   2.217 -0.7678 -0.3231 -0.2783
    3SOL     OW    7   1.585   2.412   2.242  0.1506  0.0138  0.3529
    3SOL    HW1    8   1.650   2.462   2.299 -3.3072 -0.1709 -2.2865
    3SOL    HW2    9   1.628   2.360   2.169  0.1524  0.7977  2.3180
    4SOL     OW   10   1.379   2.445   2.078 -0.0797 -0.1565  0.1992
    4SOL    HW1   11   1.461   2.419   2.130 -1.4317 -1.4378  0.4341
    4SOL    HW2   12   1.301   2.387   2.103  0.8710  2.3532 -1.0909
    5SOL     OW   13   0.501   0.637   1.607 -0.1213  0.5091  0.3290
    5SOL    HW1   14   0.514   0.571   1.527 -1.6745 -0.6321 -4.2475
    5SOL    HW2   15   0.415   0.686   1.599  5.2468  2.1923 -0.4207
    6SOL     OW   16   2.488   0.976   0.062  0.3590  0.7629 -0.1790
    6SOL    HW1   17   2.436   1.023   0.139 -0.2629  2.7443  1.9439
    6SOL    HW2   18   2.521   0.889   0.098 -1.5862 -0.8263  0.4468
    7SOL     OW   19   0.428   0.072   1.573 -0.0284 -0.5559  0.0938
    7SOL    HW1   20   0.489   0.133   1.629 -0.0761  1.3941 -0.5952
    7SOL    HW2   21   0.375   0.011   1.634  1.7071  2.0733  3.1295
    8SOL     OW   22   1.110   2.765   1.677  0.2859  0.1599 -0.4450
    8SOL    HW1   23   1.056   2.748   1.590 -0.8616  0.6086 -2.4129
    8SOL    HW2   24   1.191   2.709   1.672 -2.0255 -0.3768 -1.1783
    9SOL     OW   25   0.687   0.857   0.330  0.2986  0.2271  0.1124
    9SOL    HW1   26   0.589   0.857   0.359  2.5225 -0.5379 -1.3223
    9SOL    HW2   27   0.742   0.936   0.360  1.0913  2.5121 -2.2981
   10SOL     OW   28   0.742   2.417   2.444 -0.1731 -0.1164 -0.0365
   10SOL    HW1   29   0.671   2.352   2.470  2.4734  0.7462  0.5643
   10SOL    HW2   30   0.695   2.497   2.398  1.6081  1.9766 -1.4132
   11SOL     OW   31   0.417   1.969   0.113 -0.1536 -0.3173 -0.0307
   11SOL    HW1   32   0.315   1.977   0.097  1.6067 -1.2707 -4.1692
   11SOL    HW2   33   0.434   1.963   0.214 -0.4700 -0.5987  0.4868
   12SOL     OW   34   0.560   3.048   1.362 -0.0228  0.2143  0.2179
   12SOL    HW1   35   0.489   3.063   1.434  0.4649 -1.5613  0.0418
   12SOL    HW2   36   0.525   3.033   1.269  1.0782 -0.7533  2.3228
   13SOL     OW   37   0.773   2.689   0.139  0.3432 -0.5004  0.9555
   13SOL    HW1   38   0.872   2.682   0.162 -0.7177  1.4666 -0.4243
   13SOL    HW2   39   0.753   2.787   0.118 -1.7854  1.6057 -1.7595
   14SOL     OW   40   1.558   1.490   0.929 -0.4492 -0.1007  0.6793
   14SOL    HW1   41   1.582   1.549   1.009  1.8986  0.2505  2.3974
   14SOL    HW2   42   1.573   1.535   0.837 -0.0041  3.4347 -2.4495
   15SOL     OW   43   2.797   0.939   2.474 -0.0533  0.1603 -0.6648
   15SOL    HW1   44   2.723   0.897   2.527  1.5055  1.2019 -2.4061
   15SOL    HW2   45   2.806   1.035   2.499 -0.0464 -3.1535 -0.5879
   16SOL     OW   46   1.594   2.895   3.077  0.0654 -0.3457 -0.1103
   16SOL    HW1   47   1.566   2.841   2.990 -1.3224 -0.3102  0.1218
   16SOL    HW2   48   1.692   2.923   3.081 -1.7443  0.6592  1.3513
   17SOL     OW   49   0.764   2.424   2.090 -0.4195 -0.4046 -0.1928
   17SOL    HW1   50   0.755   2.326   2.108  1.8319  0.9269 -0.4546
   17SOL    HW2   51   0.710   2.483   2.156 -0.6345  1.1165 -0.0010
   18SOL     OW   52   1.605   1.088   0.433  0.2184  0.5892  0.4978
   18SOL    HW1   53   1.567   1.181   0.415  0.7184 -0.3541 -1.3794
   18SOL    HW2   54   1.530   1.019   0.448 -0.9769 -0.0250 -0.6462
   19SOL     OW   55   2.451   2.130   2.744 -0.2030 -0.1030 -0.0962
   19SOL    HW1   56   2.482   2.121   2.840 -0.8054  0.3297 -0.9211
   19SOL    HW2   57   2.439   2.037   2.708  0.2450  2.2986 -0.0303
   20SOL     OW   58   2.444   1.918   2.383  0.2938  0.8401  0.4805
   20SOL    HW1   59   2.372   1.918   2.307 -2.5376 -0.2162 -1.3901
   20SOL    HW2   60   2.524   1.982   2.362 -0.7386  0.8622  2.1246
   21SOL     OW   61   0.526   2.200   3.090  0.1106 -0.2841 -0.0278
   21SOL    HW1   62   0.574   2.226   0.088  1.4218  0.4957  3.3274
   21SOL    HW2   63   0.470   2.117   0.021  0.3621  2.7679  3.7790
   22SOL     OW   64   2.203   2.953   1.335  0.6030  0.3013 -0.7122
   22SOL    HW1   65   2.195   3.029   1.411 -0.5416  1.9983 -0.1523
   22SOL    HW2   66   2.237   2.862   1.371  0.5895 -1.0004  1.1953
   23SOL     OW   67   0.270   1.290   1.458 -0.1077  0.4583  0.4899
   23SOL    HW1   68   0.266   1.365   1.528 -1.4379  3.2577 -1.1061
   23SOL    HW2   69   0.342   1.225   1.474 -2.3895  0.0636  0.7767
   24SOL     OW   70   2.141   1.893   1.514  0.7176  0.1665 -0.2134
   24SOL    HW1   71   2.230   1.844   1.502 -2.0229 -0.8003 -1.2029
   24SOL    HW2   72   2.150   1.988   1.544  0.9596  0.6181 -3.2023
   25SOL     OW   73   1.959   3.050   2.770  0.0386 -0.9107 -0.2227
   25SOL    HW1   74   2.059   3.046   2.754 -0.5213 -0.7907 -2.9108
   25SOL    HW2   75   1.925   2.955   2.764 -1.5346  0.9832 -0.8294
   26SOL     OW   76   1.251   3.036   0.914 -0.0290 -0.2295  0.1902
   26SOL    HW1   77   1.351   3.066   0.897  0.8393 -1.8779  0.9020
   26SOL    HW2   78   1.198   0.018   0.962  0.3534 -2.6135  0.8744
   27SOL     OW   79   1.058   1.922   0.053  0.1057 -0.5608  0.3055
   27SOL    HW1   80   1.043   1.947   0.151  1.9183  0.4920  0.3473
   27SOL    HW2   81   0.977   1.892   3.091 -0.4454 -3.1525 -1.1479
   28SOL     OW   82   2.844   1.700   1.203  0.2331 -0.3285  0.0887
   28SOL    HW1   83   2.817   1.637   1.276 -1.7966  4.6074 -0.3007
   28SOL    HW2   84   2.939   1.734   1.210 -2.9547 -0.3239 -0.9273
   29SOL     OW   85   2.387   2.308   2.155 -0.1343 -0.2785  0.2740
   29SOL    HW1   86   2.420   2.398   2.197 -0.3361  1.1750  0.7982
   29SOL    HW2   87   2.293   2.311   2.117  1.0068  3.5671  1.7007
   30SOL     OW   88   1.085   2.783   1.210 -0.1976 -0.3613  0.8533
   30SOL    HW1   89   1.141   2.861   1.249 -0.3422 -1.7783 -0.6766
   30SOL    HW2   90   1.077   2.798   1.106 -3.3488 -0.0749 -1.6881
   31SOL     OW   91   0.004   2.008   2.009  0.0943  0.1223  0.2782
   31SOL    HW1   92   3.039   1.928   2.015  2.0666  0.3999 -0.0785
   31SOL    HW2   93   0.087   1.989   1.955 -1.8933  0.9316  0.8071
   32SOL     OW   94   1.440   1.135   2.186 -0.3501 -0.0253  0.1642
   32SOL    HW1   95   1.414   1.077   2.106 -0.8428 -0.9253 -1.3873
   32SOL    HW2   96   1.360   1.192   2.206 -1.4527 -0.2552  1.7706
   33SOL     OW   97   0.402   2.894   2.593 -0.1056  0.4043  0.3620
   33SOL    HW1   98   0.310   2.920   2.556  1.1814 -3.0333 -0.0021
   33SOL    HW2   99   0.480   2.924   2.531 -1.8620 -0.6353 -0.6452
   34SOL     OW  100   1.479   3.041   1.682 -0.3765  0.2130 -0.0067
   34SOL    HW1  101   1.478   2.968   1.612  0.6203  0.9040 -0.8832
   34SOL    HW2  102   1.484   3.003   1.778  1.2832 -0.8786 -0.3125
   35SOL     OW  103   2.094   0.317   1.167 -0.0887  0.2893 -0.4576
   35SOL    HW1  104   2.016   0.373   1.153  0.7888 -4.2670  2.2620
   35SOL    HW2  105   2.074   0.226   1.207  1.5946  0.0767  1.5737
   36SOL     OW  106   2.157   2.748   2.592  0.2263  0.4241  0.5405
   36SOL    HW1  107   2.217   2.678   2.637  2.7352 -0.7393 -0.9003
   36SOL    HW2  108   2.181   2.751   2.490 -0.4585  0.6734 -2.2167
   37SOL     OW  109   1.187   2.315   2.745 -0.2112  0.4416 -0.0057
   37SOL    HW1  110   1.115   2.377   2.784 -2.8051 -0.3545 -1.5302
   37SOL    HW2  111   1.273   2.311   2.801  0.8298 -1.1687 -0.2634
   38SOL     OW  112   2.484   0.579   2.863  0.0915 -0.4620  0.0736
   38SOL    HW1  113   2.390   0.590   2.904 -1.0769 -0.5390  0.8622
   38SOL    HW2  114   2.552   0.650   2.889 -1.9026 -1.8169  0.4542
   39SOL     OW  115   2.124   2.166   1.966 -0.0043 -0.2288 -0.1109
   39SOL    HW1  116   2.055   2.096   1.982  2.7144  3.5636 -1.2738
   39SOL    HW2  117   2.079   2.254   1.946  0.8575 -0.9796 -0.1174
   40SOL     OW  118   0.300   0.285   3.070 -0.5043  0.5955  0.3389
   40SOL    HW1  119   0.372   0.283   0.048  1.5162 -1.2645 -0.7394
   40SOL    HW2  120   0.213   0.247   0.014 -1.3656  0.5214  2.7252
   41SOL     OW  121   1.233   1.137   1.583  0.5084 -0.2337  0.1988
   41SOL    HW1  122   1.234   1.103   1.488  1.0353  1.6951  1.2759
   41SOL    HW2  123   1.148   1.192   1.605  1.8056  2.7733 -2.0038
   42SOL     OW  124   0.124   0.249   2.010  0.0210 -0.1418  0.0783
   42SOL    HW1  125   0.075   0.330   2.021  1.8314 -1.6428 -2.9343
   42SOL    HW2  126   0.224   0.268   1.987  2.2363  0.9452  0.5411
   43SOL     OW  127   1.474   1.507   2.058 -0.1383 -0.2513  0.3531
   43SOL    HW1  128   1.423   1.526   2.144  0.9847 -0.8192 -1.8287
   43SOL    HW2  129   1.560   1.451   2.082  2.1104 -2.8481 -1.8626
   44SOL     OW  130   0.019   2.689   2.697  0.0626 -0.2416  0.3475
   44SOL    HW1  131   0.043   2.737   2.782 -1.1892  0.3766  0.8419
   44SOL    HW2  132   3.084   2.754   2.622 -1.4040  0.3375 -1.4499
   45SOL     OW  133   0.709   2.531   1.241  0.6515  0.8116 -0.0624
   45SOL    HW1  134   0.696   2.573   1.146 -2.3389 -1.0785 -1.4879
   45SOL    HW2  135   0.783   2.466   1.233 -0.3587  0.2561 -2.0882
   46SOL     OW  136   2.568   2.226   1.991  0.0738 -0.2314  0.2656
   46SOL    HW1  137   2.499   2.257   2.061  0.1156  1.8611  1.7675
   46SOL    HW2  138   2.660   2.259   2.017 -0.9177 -0.7860  0.3210
   47SOL     OW  139   1.709   1.868   1.579  0.2827 -0.0056  0.1572
   47SOL    HW1  140   1.646   1.873   1.657  1.1419  0.3665 -0.6488
   47SOL    HW2  141   1.744   1.775   1.568 -0.3182  3.9061 -0.0970
   48SOL     OW  142   0.287   2.051   0.537  0.2844  0.1115 -0.0464
   48SOL    HW1  143   0.347   2.062   0.618 -0.0001  2.9510  0.7521
   48SOL    HW2  144   0.242   2.142   0.517 -1.2452 -0.9372 -0.0076
   49SOL     OW  145   0.036   0.861   2.149  0.3171 -0.1575  0.1782
   49SOL    HW1  146   0.111   0.833   2.212  0.1183  1.8921 -1.2926
   49SOL    HW2  147   0.026   0.964   2.159 -1.0151  2.6542 -0.1266
   50SOL     OW  148   2.042   0.586   0.794 -0.5588 -0.4092 -0.4053
   50SOL    HW1  149   2.027   0.686   0.790  2.4435 -2.8687 -0.8908
   50SOL    HW2  150   2.020   0.542   0.883  0.9204  1.8419  1.4427
   51SOL     OW  151   1.218   0.724   0.635  0.2331  0.7122  0.1980
   51SOL    HW1  152   1.168   0.786   0.700 -0.0374  2.0929  0.7815
   51SOL    HW2  153   1.269   0.649   0.680 -0.2817  1.1897  0.5855
   52SOL     OW  154   1.248   1.238   0.288 -0.2669 -0.6033 -0.3807
   52SOL    HW1  155   1.276   1.142   0.266 -0.5504 -1.7964 -3.3670
   52SOL    HW2  156   1.170   1.238   0.354  1.3567 -2.0745 -0.6607
   53SOL     OW  157   1.185   2.286   2.487 -0.2642  0.0333 -0.4007
   53SOL    HW1  158   1.276   2.255   2.445  3.3394  1.7019 -2.7699
   53SOL    HW2  159   1.204   2.299   2.589  2.3611  0.2517 -1.0124
   54SOL     OW  160   1.377   0.940   1.736 -0.5101  0.4080 -0.1730
   54SOL    HW1  161   1.359   0.838   1.724 -1.7962  0.6296  1.1221
   54SOL    HW2  162   1.314   0.995   1.679 -1.7739  0.6115  1.9929
   55SOL     OW  163   1.946   2.996   0.545  0.1980 -0.1309 -0.9350
   55SOL    HW1  164   1.899   2.930   0.602  1.4344  1.3755 -0.4554
   55SOL    HW2  165   1.941   3.087   0.587 -1.7239  1.7666  3.0485
   56SOL     OW  166   0.953   2.739   1.460 -0.2030  0.2286 -0.2815
   56SOL    HW1  167   1.006   2.762   1.376  2.0182 -0.3622  1.1277
   56SOL    HW2  168   0.899   2.818   1.487  0.2198 -1.0006 -0.9197
   57SOL     OW  169   1.805   0.813   2.920 -0.0815  0.6300  1.5590
   57SOL    HW1  170   1.862   0.826   2.839  1.8712  2.9335 -1.0135
   57SOL    HW2  171   1.806   0.906   2.966  1.6728 -4.6488 -2.3584
   58SOL     OW  172   3.043   0.933   1.863 -0.6949  0.6985 -0.6364
   58SOL    HW1  173   3.049   0.909   1.962  0.0906 -1.7754  0.6321
   58SOL    HW2  174   2.957   0.977   1.834  0.7361 -1.0858 -1.4355
   59SOL     OW  175   0.626   2.597   2.295 -0.1102 -0.3290 -0.3076
   59SOL    HW1  176   0.554   2.603   2.228  1.4091  2.2540  0.4196
   59SOL    HW2  177   0.691   2.667   2.271 -1.4241  0.1752  0.4474
   60SOL     OW  178   2.580   2.564   1.141 -0.2916  0.2040 -0.2550
   60SOL    HW1  179   2.558   2.519   1.049  1.5622 -1.1204  1.4114
   60SOL    HW2  180   2.678   2.594   1.145 -0.0708 -2.1049  1.4462
   61SOL     OW  181   1.123   2.189   0.587  0.0445 -0.3721  0.0494
   61SOL    HW1  182   1.118   2.171   0.485  0.8929  0.0914  1.2463
   61SOL    HW2  183   1.063   2.124   0.632  3.1997  3.7565 -0.0319
   62SOL     OW  184   2.187   2.687   2.995 -0.0272 -0.2147 -0.1988
   62SOL    HW1  185   2.252   2.618   2.950  3.2850 -1.4148  0.4691
   62SOL    HW2  186   2.089   2.663   2.989 -1.7246  0.4462 -1.0910
   63SOL     OW  187   2.192   0.018   0.127  0.0102  0.0684 -0.2922
   63SOL    HW1  188   2.208   3.061   0.042 -2.3578  1.7243 -0.6000
   63SOL    HW2  189   2.136   0.105   0.120 -0.0366  1.0105 -1.5337
   64SOL     OW  190   0.947   1.077   2.529  0.1211  0.6188 -0.1626
   64SOL    HW1  191   0.900   1.154   2.571  0.0813 -1.2442 -4.0887
   64SOL    HW2  192   0.925   0.994   2.585  4.4026  0.8264  1.8650
   65SOL     OW  193   1.243   2.674   0.527 -0.2443 -0.2613 -0.0656
   65SOL    HW1  194   1.315   2.611   0.495  0.3269  1.2738 -1.3074
   65SOL    HW2  195   1.218   2.648   0.624  0.3187  2.6215 -1.4944
   66SOL     OW  196   0.724   1.518   1.548  0.4080 -0.2975  0.4764
   66SOL    HW1  197   0.805   1.547   1.491 -1.2174  0.1287 -3.5076
   66SOL    HW2  198   0.749   1.498   1.642 -2.4130 -1.0197 -1.4423
   67SOL     OW  199   2.444   3.018   2.060  0.0671  0.1928  0.7272
   67SOL    HW1  200   2.481   3.016   2.157  0.7334 -0.4117 -1.6983
   67SOL    HW2  201   2.411   0.019   2.034 -2.1798 -1.3596  0.3371
   68SOL     OW  202   0.863   0.760   1.396  0.2481 -0.5547 -0.5240
   68SOL    HW1  203   0.835   0.667   1.374  1.9750  1.7279 -1.0202
   68SOL    HW2  204   0.780   0.819   1.398  2.3073  1.1338  1.8809
   69SOL     OW  205   2.028   2.887   0.283 -0.6806 -0.6259  0.3204
   69SOL    HW1  206   1.963   2.957   0.254  0.8778 -2.3414  1.7959
   69SOL    HW2  207   2.046   2.912   0.381  2.0122 -2.1666 -0.4951
   70SOL     OW  208   2.630   1.102   2.776  0.7757 -0.2511  0.3521
   70SOL    HW1  209   2.683   1.134   2.695  0.9708 -0.3310  2.0896
   70SOL    HW2  210   2.688   1.057   2.843 -3.4026  0.2701 -2.0439
   71SOL     OW  211   2.750   1.871   3.081 -0.5545  0.1886 -0.1527
   71SOL    HW1  212   2.775   1.944   3.018  0.6107 -1.1607 -0.7833
   71SOL    HW2  213   2.735   1.778   3.037 -4.6781 -1.6686 -0.2434
   72SOL     OW  214   0.110   1.826   0.517  0.4179 -0.5476  0.4738
   72SOL    HW1  215   0.117   1.748   0.451 -0.9743  1.1508  2.0640
   72SOL    HW2  216   0.197   1.878   0.507  3.0862 -2.4107  0.8404
   73SOL     OW  217   1.056   1.235   0.484  0.8061  0.1539  0.1211
   73SOL    HW1  218   1.084   1.147   0.525  1.4486  1.0100  0.2628
   73SOL    HW2  219   1.033   1.301   0.556 -2.5187  0.0497  0.0545
   74SOL     OW  220   0.269   1.798   1.805  0.3457 -0.6086  0.3359
   74SOL    HW1  221   0.286   1.889   1.851  1.9952  1.8382  0.8401
   74SOL    HW2  222   0.355   1.778   1.753  0.3367 -0.3862  1.3975
   75SOL     OW  223   1.714   1.357   1.645  0.0502 -0.1609 -0.2445
   75SOL    HW1  224   1.752   1.286   1.709 -0.1914  0.9471  0.3897
   75SOL    HW2  225   1.616   1.335   1.622 -0.7230 -0.4800 -0.9578
   76SOL     OW  226   2.200   2.419   1.329 -0.3082  0.3243  0.3021
   76SOL    HW1  227   2.248   2.435   1.418  0.5312 -0.4152  0.5999
   76SOL    HW2  228   2.257   2.356   1.266  0.3025 -1.6354 -3.5334
   77SOL     OW  229   2.650   1.297   1.589  0.0100 -0.4591  0.1928
   77SOL    HW1  230   2.604   1.252   1.666  0.2118  1.0781 -2.5658
   77SOL    HW2  231   2.676   1.390   1.613  0.5259 -0.4398 -1.5386
   78SOL     OW  232   1.615   0.706   0.356  0.4621  0.5792  0.2720
   78SOL    HW1  233   1.543   0.772   0.385  0.3932  0.0243 -1.7223
   78SOL    HW2  234   1.593   0.660   0.266  0.0808 -1.5989  0.4958
   79SOL     OW  235   2.277   1.502   1.487 -0.2720  0.8042 -1.1020
   79SOL    HW1  236   2.276   1.447   1.399  0.5839 -2.0465 -0.5338
   79SOL    HW2  237   2.341   1.579   1.474  0.8813 -2.9606  2.2461
   80SOL     OW  238   0.807   0.489   1.262 -0.5893  0.5068  0.0185
   80SOL    HW1  239   0.712   0.468   1.291  2.7549  0.0451 -0.1043
   80SOL    HW2  240   0.868   0.441   1.333 -0.1735 -0.9977 -0.3624
   81SOL     OW  241   0.818   2.955   0.889 -0.0734  0.2294  0.0221
   81SOL    HW1  242   0.844   3.056   0.883 -0.6532 -0.0856 -1.1020
   81SOL    HW2  243   0.895   2.904   0.927 -2.6592  0.0341 -2.2919
   82SOL     OW  244   1.494   2.958   1.940  0.0468 -0.0471 -0.0138
   82SOL    HW1  245   1.485   2.870   1.993  1.7686 -1.0827  2.8599
   82SOL    HW2  246   1.535   3.029   1.994 -2.7529 -1.1983 -0.1924
   83SOL     OW  247   1.303   1.807   0.761  0.4227  0.0668 -0.1768
   83SOL    HW1  248   1.338   1.861   0.839  0.4663  0.4468 -0.5681
   83SOL    HW2  249   1.328   1.852   0.670  0.8746  1.7891 -1.8037
   84SOL     OW  250   0.168   1.588   2.652 -0.4114 -0.4852  0.0660
   84SOL    HW1  251   0.142   1.504   2.602  0.6134  3.0252  0.6017
   84SOL    HW2  252   0.092   1.655   2.640  0.7052  1.7718 -0.4762
   85SOL     OW  253   0.418   2.410   1.189  0.0628 -0.0699 -0.1094
   85SOL    HW1  254   0.414   2.462   1.104  0.9030  0.3575  1.7982
   85SOL    HW2  255   0.515   2.416   1.218  1.2667 -0.7487 -0.2780
   86SOL     OW  256   2.317   2.452   1.578 -0.0657  0.0761  0.1410
   86SOL    HW1  257   2.413   2.491   1.575 -0.9884  0.7427  0.1385
   86SOL    HW2  258   2.252   2.521   1.619 -0.1494  1.2720  0.9443
   87SOL     OW  259   3.056   2.140   0.776 -0.1064  0.7032  0.2619
   87SOL    HW1  260   3.055   2.240   0.787 -0.1076  0.9841  0.4093
   87SOL    HW2  261   3.009   2.109   0.692  0.6849 -0.0331 -0.2753
   88SOL     OW  262   0.936   1.093   1.167  0.2484 -0.4217 -0.4080
   88SOL    HW1  263   0.941   1.138   1.074  1.4672  0.0010 -0.2134
   88SOL    HW2  264   0.854   1.034   1.170  2.4863  0.0532  0.3146
   89SOL     OW  265   1.125   3.045   2.276  0.1525  0.3014  0.0423
   89SOL    HW1  266   1.082   0.019   2.340 -0.1850 -0.1403  0.3360
   89SOL    HW2  267   1.064   3.026   2.195  0.8895 -1.8799 -3.1508
   90SOL     OW  268   3.078   2.136   1.504 -0.2210  0.2039 -0.3423
   90SOL    HW1  269   3.082   2.036   1.500 -1.9839 -0.3091 -1.0485
   90SOL    HW2  270   0.080   2.178   1.491  1.0248  0.4701 -2.6872
   91SOL     OW  271   1.535   1.980   1.402  0.7038  0.2170  0.1727
   91SOL    HW1  272   1.591   1.934   1.474  1.0277 -3.5508  2.1048
   91SOL    HW2  273   1.492   1.911   1.340  2.0550 -1.8846  2.9734
   92SOL     OW  274   2.731   2.944   1.514  0.1046 -0.9440 -0.2642
   92SOL    HW1  275   2.655   2.970   1.575 -0.9787 -1.4760 -0.6556
   92SOL    HW2  276   2.720   3.013   1.436  0.2392  3.8683 -0.5681
   93SOL     OW  277   0.006   1.203   2.688 -0.3500  0.6331  0.5067
   93SOL    HW1  278   0.083   1.169   2.746 -1.4160  0.2982  0.0047
   93SOL    HW2  279   3.026   1.241   2.743  0.0597 -1.3121 -3.2613
   94SOL     OW  280   2.719   2.612   1.970 -0.6057 -0.1954  0.3335
   94SOL    HW1  281   2.742   2.658   2.058 -0.6857 -0.6526  1.1890
   94SOL    HW2  282   2.642   2.653   1.919 -0.3975  0.4700  1.5799
   95SOL     OW  283   1.391   0.429   2.029  0.5834  0.8235 -0.3911
   95SOL    HW1  284   1.351   0.352   2.078  1.3551  0.2128 -1.1533
   95SOL    HW2  285   1.478   0.458   2.072 -1.1580 -2.0535  0.1425
   96SOL     OW  286   2.424   0.668   1.663  0.0957  0.1514 -0.1963
   96SOL    HW1  287   2.470   0.685   1.752 -0.0535 -0.1542  1.0379
   96SOL    HW2  288   2.335   0.616   1.675  0.5836 -1.6873  1.5268
   97SOL     OW  289   1.978   0.384   1.803 -0.1915 -0.2591 -0.1804
   97SOL    HW1  290   1.969   0.281   1.813 -0.8650 -0.8173  1.4420
   97SOL    HW2  291   1.881   0.424   1.801 -0.3607  2.2307 -1.1757
   98SOL     OW  292   1.998   2.812   1.223 -0.0200 -0.1419  0.0233
   98SOL    HW1  293   2.071   2.854   1.283  3.4936  0.2840 -0.6264
   98SOL    HW2  294   1.985   2.710   1.253 -1.4366 -3.5765  0.3459
   99SOL     OW  295   2.693   0.311   1.932 -0.0213 -0.0240 -0.2151
   99SOL    HW1  296   2.718   0.287   2.029  2.6048  0.3697 -0.0615
   99SOL    HW2  297   2.686   0.412   1.921  0.7506 -0.3785 -2.1277
  100SOL     OW  298   2.319   1.360   1.765  0.0457  0.0937  0.3612
  100SOL    HW1  299   2.310   1.404   1.676 -1.9472  2.3049 -0.8048
  100SOL    HW2  300   2.395   1.290   1.771 -0.0199 -1.9175 -0.7264
  101SOL     OW  301   1.492   0.014   0.836  0.4766 -0.2142  0.0556
  101SOL    HW1  302   1.458   0.108   0.808  0.4559 -0.9723  0.1204
  101SOL    HW2  303   1.594   0.009   0.859  0.0060 -2.7621 -0.1565
  102SOL     OW  304   0.700   0.955   1.191  1.0943  0.2949 -0.0515
  102SOL    HW1  305   0.614   0.993   1.149 -0.2187  0.4699 -0.7136
  102SOL    HW2  306   0.676   0.918   1.280 -0.2786  1.4938 -1.8337
  103SOL     OW  307   2.903   0.499   3.002  0.1944 -0.1398 -0.0264
  103SOL    HW1  308   2.867   0.447   2.922  0.2911  1.6678  1.5195
  103SOL    HW2  309   2.932   0.436   3.079  1.5910 -0.0238 -1.8416
  104SOL     OW  310   2.709   0.114   1.736 -0.6133  0.2021 -0.4276
  104SOL    HW1  311   2.801   0.085   1.707  0.0115 -1.3102  0.0065
  104SOL    HW2  312   2.719   0.171   1.824 -0.3864  1.1223  2.7021
  105SOL     OW  313   1.874   0.716   2.148  0.2024 -0.4659  0.0882
  105SOL    HW1  314   1.905   0.684   2.237  0.0837 -1.7394 -1.5854
  105SOL    HW2  315   1.782   0.755   2.146  1.6587 -1.6346 -0.2563
  106SOL     OW  316   1.762   0.023   0.880 -0.2891 -0.0327 -0.0504
  106SOL    HW1  317   1.814   3.054   0.938  1.2684  1.9968 -0.6026
  106SOL    HW2  318   1.824   0.068   0.810 -2.5009 -1.4339 -0.3438
  107SOL     OW  319   0.696   1.042   0.699  0.1397  0.5144 -0.0600
  107SOL    HW1  320   0.655   1.128   0.668  0.2250  1.3614  1.0819
  107SOL    HW2  321   0.631   0.979   0.744 -2.2459  0.1589 -0.6953
  108SOL     OW  322   2.716   0.260   2.181  0.2788 -0.2157  0.0733
  108SOL    HW1  323   2.802   0.215   2.221 -0.0345  0.9965 -1.1965
  108SOL    HW2  324   2.653   0.276   2.259  1.1357  3.0563 -0.1304
  109SOL     OW  325   2.015   0.657   0.023 -0.1551  0.1124 -0.4144
  109SOL    HW1  326   1.934   0.609   3.078  0.5214 -0.9711  0.5163
  109SOL    HW2  327   2.083   0.664   3.038  1.9992  1.7997  0.8508
  110SOL     OW  328   0.196   2.186   2.719  0.6253  0.3454  0.6030
  110SOL    HW1  329   0.158   2.263   2.667 -0.1753 -0.8785 -1.7516
  110SOL    HW2  330   0.124   2.120   2.750 -0.9023 -0.3590  1.0444
  111SOL     OW  331   2.313   0.206   2.202  0.4265  0.3701 -0.8854
  111SOL    HW1  332   2.252   0.284   2.194 -1.8071  1.0510  2.3837
  111SOL    HW2  333   2.366   0.180   2.120 -1.6098 -2.7241 -0.9717
  112SOL     OW  334   2.405   2.937   0.474  0.5165  0.1832 -0.1208
  112SOL    HW1  335   2.360   3.020   0.440  0.6683  0.7626  0.9497
  112SOL    HW2  336   2.331   2.883   0.524 -5.0073  2.1526 -0.3511
  113SOL     OW  337   2.379   1.778   1.496 -0.2515 -0.0674 -0.5336
  113SOL    HW1  338   2.444   1.808   1.420  0.5620 -0.1509  0.7188
  113SOL    HW2  339   2.423   1.817   1.583  0.1962  4.2287 -1.8950
  114SOL     OW  340   2.933   0.803   0.780  0.0935  0.4738 -0.0529
  114SOL    HW1  341   3.033   0.817   0.792 -0.2840 -0.1541 -2.3665
  114SOL    HW2  342   2.875   0.809   0.863 -0.8781 -0.9410 -0.4979
  115SOL     OW  343   2.851   1.814   0.252 -0.0132  0.7558  0.3231
  115SOL    HW1  344   2.902   1.728   0.272  0.5818  2.2968 -1.3819
  115SOL    HW2  345   2.827   1.825   0.152 -1.4280 -0.4821 -0.2526
  116SOL     OW  346   3.008   1.546   1.886  0.4702 -0.0999 -0.3759
  116SOL    HW1  347   2.945   1.464   1.890 -0.8436 -0.8969 -1.2350
  116SOL    HW2  348   3.083   1.551   1.958  1.0878  0.1746  2.5454
  117SOL     OW  349   2.644   0.141   0.549  0.5643  0.0172  0.1774
  117SOL    HW1  350   2.585   0.146   0.632 -1.2654  1.8060  1.3734
  117SOL    HW2  351   2.598   0.202   0.476 -1.6618  1.9441 -3.8681
  118SOL     OW  352   0.586   2.345   1.655  0.1569 -0.2898  0.0321
  118SOL    HW1  353   0.652   2.408   1.710  2.4148  3.0043  0.8439
  118SOL    HW2  354   0.553   2.401   1.575  1.3412 -2.6087  0.2454
  119SOL     OW  355   1.873   2.157   1.013 -0.3708  0.1328 -0.5980
  119SOL    HW1  356   1.959   2.171   1.066 -1.0824  2.1654 -1.1992
  119SOL    HW2  357   1.828   2.244   1.007  1.0053 -1.0515  2.4503
  120SOL     OW  358   0.317   1.662   2.078  0.3396 -0.6112  0.8378
  120SOL    HW1  359   0.390   1.718   2.118 -1.2455 -0.0120 -1.6334
  120SOL    HW2  360   0.280   1.701   1.990 -0.7519  0.2256  0.2460
  121SOL     OW  361   2.747   1.586   0.957 -0.2702  0.1394  0.1524
  121SOL    HW1  362   2.761   1.645   1.042 -1.4314 -0.3270  1.0080
  121SOL    HW2  363   2.836   1.547   0.922 -0.9535 -1.7308 -3.8100
  122SOL     OW  364   2.035   1.609   2.240  0.2310 -0.6035 -0.2132
  122SOL    HW1  365   1.953   1.671   2.236 -2.7169  2.0677 -0.3482
  122SOL    HW2  366   2.047   1.583   2.338  1.3822 -1.8239 -2.5380
  123SOL     OW  367   2.812   0.254   0.757 -0.9167 -0.2718  0.3367
  123SOL    HW1  368   2.815   0.189   0.833 -0.4928  1.0908 -1.8934
  123SOL    HW2  369   2.760   0.210   0.682 -0.1497  0.1271  2.2101
  124SOL     OW  370   1.244   1.185   2.789  0.3050  0.2511  0.6977
  124SOL    HW1  371   1.232   1.211   2.691  1.6620  0.6119  0.4831
  124SOL    HW2  372   1.344   1.194   2.813 -1.2917  3.5806  0.6328
  125SOL     OW  373   0.393   1.408   2.561 -0.0875 -0.0267 -0.0253
  125SOL    HW1  374   0.397   1.401   2.665  2.2744  0.3676  2.7220
  125SOL    HW2  375   0.303   1.379   2.525 -0.1853  0.1508  0.9868
  126SOL     OW  376   2.800   2.199   0.315 -0.4822 -0.6726  0.2596
  126SOL    HW1  377   2.808   2.274   0.381 -0.8609  2.3763 -2.3586
  126SOL    HW2  378   2.855   2.122   0.349 -1.9117  0.5395 -1.5447
  127SOL     OW  379   0.713   1.759   0.822 -0.4633 -0.0692 -0.1813
  127SOL    HW1  380   0.634   1.769   0.886 -1.1242  0.1248  1.4016
  127SOL    HW2  381   0.708   1.829   0.751  0.4795 -1.3571 -0.2259
  128SOL     OW  382   1.511   0.913   3.078 -0.4546  0.1034  0.0666
  128SOL    HW1  383   1.595   0.947   0.031 -0.4565 -1.2678  1.1907
  128SOL    HW2  384   1.527   0.902   2.977 -0.2092 -1.5249  1.4620
  129SOL     OW  385   2.408   1.717   1.156  0.0395  0.3133 -0.5874
  129SOL    HW1  386   2.397   1.734   1.055  3.5106  0.0523 -0.2204
  129SOL    HW2  387   2.421   1.806   1.202  1.3522  1.2957  0.3139
  130SOL     OW  388   1.892   1.294   0.665 -0.3889 -0.5988 -0.5776
  130SOL    HW1  389   1.857   1.343   0.583  0.2936 -1.1773 -0.1141
  130SOL    HW2  390   1.881   1.347   0.754 -1.4795 -1.0570  1.5033
  131SOL     OW  391   0.085   1.030   2.476 -0.4326 -0.3146 -0.2063
  131SOL    HW1  392   0.010   1.043   2.409 -0.8535 -1.7215  4.1844
  131SOL    HW2  393   0.054   1.073   2.559 -2.0429  2.9262 -1.7061
  132SOL     OW  394   2.061   1.649   1.597 -0.2763  0.0662  0.3320
  132SOL    HW1  395   2.059   1.745   1.567 -0.6044 -1.6842 -0.3478
  132SOL    HW2  396   2.150   1.605   1.573  0.2225 -2.0405  1.2367
  133SOL     OW  397   3.022   1.412   0.002  0.1152 -0.3466 -0.2851
  133SOL    HW1  398   3.040   1.372   3.002 -0.7509  2.3004  0.2340
  133SOL    HW2  399   3.026   1.337   0.070  2.1327  0.1019 -2.6227
  134SOL     OW  400   0.042   1.636   0.079  0.6648  0.1955  0.2613
  134SOL    HW1  401   3.089   1.546   0.058 -0.0350  1.7370  0.9198
  134SOL    HW2  402   0.041   1.701   3.093 -0.8473 -1.5149 -1.4014
  135SOL     OW  403   2.305   1.369   0.359 -0.0623  0.2504 -0.2840
  135SOL    HW1  404   2.250   1.426   0.298  1.0948 -0.8893  0.6284
  135SOL    HW2  405   2.398   1.403   0.368 -2.1033  0.4135  2.0860
  136SOL     OW  406   1.938   1.230   1.389  0.3186 -0.1015 -0.5282
  136SOL    HW1  407   2.039   1.253   1.406  1.8196  1.6831 -1.7211
  136SOL    HW2  408   1.882   1.319   1.384  1.7969  1.5719 -0.9756
  137SOL     OW  409   2.667   2.302   0.716 -0.1238 -0.5174 -0.1303
  137SOL    HW1  410   2.596   2.243   0.666  2.2133  1.4847 -1.5327
  137SOL    HW2  411   2.729   2.340   0.647 -0.4007 -1.1675 -0.9894
  138SOL     OW  412   1.308   0.197   1.692 -0.0661  0.0149 -0.3830
  138SOL    HW1  413   1.378   0.129   1.667 -2.2710  1.8941  0.5974
  138SOL    HW2  414   1.248   0.154   1.764 -0.2212  0.0632 -1.2552
  139SOL     OW  415   2.537   0.269   2.899 -0.0588 -0.1949  0.6792
  139SOL    HW1  416   2.566   0.333   2.826 -1.1575 -1.2305 -0.2053
  139SOL    HW2  417   2.573   0.294   2.992  1.2168 -1.1374  2.1911
  140SOL     OW  418   1.654   2.096   2.560  0.2214  0.0332  0.1463
  140SOL    HW1  419   1.748   2.084   2.528 -1.6044 -1.2878  1.6464
  140SOL    HW2  420   1.615   2.008   2.585 -0.0741 -2.3215 -0.4284
  141SOL     OW  421   0.639   1.041   1.732  0.0004 -0.2664  0.0798
  141SOL    HW1  422   0.598   0.975   1.803 -2.9654 -1.1515  0.7632
  141SOL    HW2  423   0.718   0.995   1.686  1.2100  3.3975 -0.3702
  142SOL     OW  424   2.494   2.913   0.070 -0.2354 -0.3424 -0.2078
  142SOL    HW1  425   2.408   2.866   0.093  0.8312  0.6964 -2.9426
  142SOL    HW2  426   2.490   2.963   3.080 -0.5456 -1.5795  1.5134
  143SOL     OW  427   0.773   2.131   2.889 -0.1697 -0.0186 -0.6724
  143SOL    HW1  428   0.797   2.200   2.816  1.1925  1.6427 -0.1591
  143SOL    HW2  429   0.673   2.146   2.918 -1.2598  2.3134  0.2325
  144SOL     OW  430   1.028   2.631   0.203 -0.1365  0.0213  0.6352
  144SOL    HW1  431   1.032   2.595   0.109  1.8761  1.2549 -0.5048
  144SOL    HW2  432   1.017   2.551   0.264  1.1301  2.5569 -2.1494
  145SOL     OW  433   2.281   1.755   0.101 -0.1694  0.4314 -0.9262
  145SOL    HW1  434   2.375   1.790   0.117 -1.5935  1.4829  0.3485
  145SOL    HW2  435   2.210   1.829   0.119 -0.6738  0.4815  1.3896
  146SOL     OW  436   2.703   2.676   2.976 -0.2820 -0.4738  0.6325
  146SOL    HW1  437   2.664   2.768   2.956 -0.2089 -1.5508  1.8151
  146SOL    HW2  438   2.741   2.633   2.887 -1.2359 -1.3965  0.8634
  147SOL     OW  439   2.746   1.966   1.329 -0.0084  0.4702  0.3696
  147SOL    HW1  440   2.761   2.038   1.260 -0.1520 -1.7771  2.6381
  147SOL    HW2  441   2.805   1.882   1.308  1.0797 -3.5710  1.3945
  148SOL     OW  442   2.023   0.237   0.205 -0.4544 -0.5270  0.0898
  148SOL    HW1  443   2.094   0.307   0.172  0.3156 -0.2242 -3.5960
  148SOL    HW2  444   1.935   0.286   0.237  0.0045  1.4210  2.9427
  149SOL     OW  445   1.037   1.587   2.787 -0.3031  0.2893 -0.7080
  149SOL    HW1  446   1.066   1.504   2.838 -1.4627  0.1965 -0.0741
  149SOL    HW2  447   1.003   1.567   2.693  2.3624  2.5049 -1.8867
  150SOL     OW  448   0.730   2.202   0.610  0.2070 -0.5263 -0.0932
  150SOL    HW1  449   0.706   2.138   0.685 -2.1502 -0.0113 -1.4195
  150SOL    HW2  450   0.805   2.268   0.635 -0.9433 -1.4420  0.8194
  151SOL     OW  451   0.601   1.652   2.806 -0.3121 -0.1194  0.3168
  151SOL    HW1  452   0.640   1.644   2.897  1.4970 -3.5086 -1.1165
  151SOL    HW2  453   0.682   1.678   2.739  2.6383  0.1643 -4.1824
  152SOL     OW  454   2.530   1.537   0.483 -0.0909 -0.2278  0.4978
  152SOL    HW1  455   2.539   1.536   0.383 -0.9965  0.1011  0.0603
  152SOL    HW2  456   2.588   1.464   0.521 -0.8466 -0.1338 -0.2053
  153SOL     OW  457   2.126   2.568   0.521  0.0271 -0.0445  0.1705
  153SOL    HW1  458   2.126   2.470   0.503 -2.4307  0.9537 -0.2544
  153SOL    HW2  459   2.027   2.599   0.500  0.4876 -1.7017 -1.0963
  154SOL     OW  460   0.557   2.982   0.828  0.0487  0.0234  0.0762
  154SOL    HW1  461   0.544   3.059   0.763  1.4129  0.0683 -1.2643
  154SOL    HW2  462   0.655   2.974   0.854 -4.0208  0.8424 -1.1453
  155SOL     OW  463   0.458   2.101   0.771 -0.0361 -0.3073 -0.4412
  155SOL    HW1  464   0.547   2.107   0.822 -1.0804 -1.3489 -2.2332
  155SOL    HW2  465   0.394   2.178   0.795 -0.2788 -0.5846 -0.1381
  156SOL     OW  466   2.595   2.461   0.012  0.3203 -0.1521 -0.9302
  156SOL    HW1  467   2.646   2.372   0.016  2.1564  0.4104 -0.1021
  156SOL    HW2  468   2.647   2.532   3.049  0.2062  2.2700 -1.6318
  157SOL     OW  469   1.097   2.110   1.299  0.2778  0.7301  0.4864
  157SOL    HW1  470   1.029   2.167   1.348  1.5820  0.4689 -0.4613
  157SOL    HW2  471   1.079   2.106   1.199  0.4995 -0.5558 -0.1727
  158SOL     OW  472   1.746   0.581   3.058 -0.6820  0.2202 -0.4733
  158SOL    HW1  473   1.772   0.499   3.003  1.6671 -1.2203  0.0144
  158SOL    HW2  474   1.741   0.665   2.999  1.4233 -2.2499  1.5518
  159SOL     OW  475   1.059   0.394   2.952  0.4534  0.1342 -0.0964
  159SOL    HW1  476   1.022   0.478   2.995 -1.6953 -0.5820  0.6578
  159SOL    HW2  477   1.107   0.335   3.018 -1.8874  1.6067 -0.3065
  160SOL     OW  478   1.189   1.409   0.094 -0.0112  0.1406  0.3982
  160SOL    HW1  479   1.138   1.485   0.140  1.1704 -3.3034  0.5626
  160SOL    HW2  480   1.211   1.327   0.159  0.8027 -4.5889 -0.6551
  161SOL     OW  481   3.071   1.998   2.850 -0.8644 -0.0848  0.2258
  161SOL    HW1  482   3.055   1.965   2.758 -1.4361 -0.0908  0.2133
  161SOL    HW2  483   0.034   1.935   2.910  1.5217 -1.8976  4.1279
  162SOL     OW  484   0.685   2.646   0.998  0.1841  0.2911  0.0194
  162SOL    HW1  485   0.715   2.744   0.979  2.3411  1.6619 -3.0204
  162SOL    HW2  486   0.586   2.630   0.993  1.1052 -1.2802  1.0214
  163SOL     OW  487   2.794   1.156   0.008 -0.4659  0.0917  0.4591
  163SOL    HW1  488   2.784   1.067   3.048 -3.2109  2.2404  0.9534
  163SOL    HW2  489   2.740   1.156   0.097 -0.6968  3.4724  1.6082
  164SOL     OW  490   0.153   2.945   2.818 -0.0102  0.1543 -0.0005
  164SOL    HW1  491   0.118   2.870   2.880  1.4362 -0.4826  1.0876
  164SOL    HW2  492   0.250   2.969   2.824 -2.3435  0.8003  0.5865
  165SOL     OW  493   1.987   0.245   1.543  0.2383  0.0961  0.3882
  165SOL    HW1  494   2.029   0.316   1.599  0.4046  0.0584 -0.7991
  165SOL    HW2  495   1.942   0.279   1.458 -2.0034 -1.1324 -0.2722
  166SOL     OW  496   1.820   0.216   1.286 -0.7259  0.8423  0.3553
  166SOL    HW1  497   1.748   0.168   1.341 -1.7227 -2.4136  0.8223
  166SOL    HW2  498   1.898   0.150   1.258  1.7169  1.7167  1.1691
  167SOL     OW  499   1.050   0.347   1.847 -0.4281 -0.0055 -0.4877
  167SOL    HW1  500   1.109   0.431   1.842 -0.8574  0.0426  0.1931
  167SOL    HW2  501   1.106   0.266   1.879  0.7509 -1.1707 -1.2826
  168SOL     OW  502   2.438   0.518   1.979 -0.5423 -0.0684 -0.2349
  168SOL    HW1  503   2.530   0.535   1.939 -2.2511  0.4889 -0.2237
  168SOL    HW2  504   2.396   0.437   1.942 -3.3648 -2.7078  1.6450
  169SOL     OW  505   0.276   1.434   0.132  0.0151  0.2793 -0.0715
  169SOL    HW1  506   0.208   1.510   0.117 -0.3648 -0.4827 -1.0627
  169SOL    HW2  507   0.237   1.339   0.141 -0.4795 -1.2241  0.7291
  170SOL     OW  508   0.269   1.493   1.608  0.0637 -0.1318  0.3422
  170SOL    HW1  509   0.292   1.448   1.695  0.1124  0.2684 -1.5020
  170SOL    HW2  510   0.193   1.563   1.615  1.2796 -1.6512 -3.9888
  171SOL     OW  511   1.139   2.330   2.145  0.3289  0.1901  0.4468
  171SOL    HW1  512   1.066   2.402   2.122  1.0837 -0.8044 -0.7943
  171SOL    HW2  513   1.098   2.243   2.182  2.1459  1.8577 -1.6631
  172SOL     OW  514   0.532   2.507   1.463 -0.0537  0.5848 -0.0219
  172SOL    HW1  515   0.475   2.587   1.451 -1.0119  0.7496 -0.6943
  172SOL    HW2  516   0.596   2.501   1.389 -2.5537  0.8549 -0.5520
  173SOL     OW  517   1.508   2.391   0.890  0.0900 -0.1072  0.4995
  173SOL    HW1  518   1.605   2.388   0.917  1.6807 -0.4341 -1.1402
  173SOL    HW2  519   1.442   2.369   0.963 -1.1271 -0.8143  0.3592
  174SOL     OW  520   1.163   3.042   0.370 -0.0333 -0.0123  0.1766
  174SOL    HW1  521   1.158   3.059   0.473  0.6710 -0.0066  6.8291
  174SOL    HW2  522   1.229   2.969   0.354  1.1928 -0.2682  1.7814
  175SOL     OW  523   0.926   1.165   3.024 -0.3125  0.5380 -0.0257
  175SOL    HW1  524   0.960   1.255   3.000 -0.9520 -1.8026  0.7471
  175SOL    HW2  525   0.963   1.096   2.961  1.4898 -1.9823  1.2671
  176SOL     OW  526   1.815   0.368   0.296  0.5048  1.0031  0.3073
  176SOL    HW1  527   1.828   0.469   0.303 -0.1413  1.5331 -0.3681
  176SOL    HW2  528   1.738   0.347   0.236  1.3128  2.5656  1.8555
  177SOL     OW  529   1.236   0.771   1.036  0.4946  0.3284  0.7977
  177SOL    HW1  530   1.167   0.809   0.968 -0.7948 -1.8192  0.3569
  177SOL    HW2  531   1.280   0.848   1.086 -1.6374  0.0081 -1.3004
  178SOL     OW  532   2.699   1.645   2.947  0.0625 -0.2034  0.7541
  178SOL    HW1  533   2.617   1.586   2.975 -1.5263  1.2200  1.7211
  178SOL    HW2  534   2.770   1.594   2.894 -0.0248  0.2568 -1.7746
  179SOL     OW  535   0.620   2.646   3.011  0.1842  0.1499 -0.1680
  179SOL    HW1  536   0.661   2.644   2.917 -0.9222  0.2020  0.8976
  179SOL    HW2  537   0.697   2.631   3.076  1.5860  1.7292 -1.2851
  180SOL     OW  538   1.803   1.604   1.598  0.6360  0.2225 -0.2299
  180SOL    HW1  539   1.902   1.618   1.616  0.4918  0.0720  0.8473
  180SOL    HW2  540   1.769   1.509   1.629  0.7711  1.1683  2.1884
  181SOL     OW  541   1.243   1.322   2.258 -0.2375 -0.3776 -0.0020
  181SOL    HW1  542   1.150   1.299   2.217 -2.5198 -0.0032  4.1767
  181SOL    HW2  543   1.271   1.420   2.248  0.9295  0.8082 -1.0628
  182SOL     OW  544   0.287   0.877   2.541  0.5566 -0.1868 -0.0597
  182SOL    HW1  545   0.349   0.888   2.619  0.7779  2.3223 -2.4019
  182SOL    HW2  546   0.210   0.944   2.538  2.0035  0.3194  1.5960
  183SOL     OW  547   1.652   0.386   2.328  0.4754  0.4575 -0.2711
  183SOL    HW1  548   1.567   0.360   2.379 -1.4114 -2.8101  1.5143
  183SOL    HW2  549   1.717   0.415   2.400 -3.1780  1.4179 -0.7304
  184SOL     OW  550   0.155   0.438   1.411 -0.2364 -0.5055 -0.4174
  184SOL    HW1  551   0.154   0.517   1.348  1.3354 -1.2360 -0.2834
  184SOL    HW2  552   0.058   0.403   1.416 -2.5906  2.8206 -0.1757
  185SOL     OW  553   2.403   1.777   0.885 -0.1794 -0.0471 -0.2846
  185SOL    HW1  554   2.474   1.846   0.857  3.2478  1.8032 -0.9301
  185SOL    HW2  555   2.430   1.683   0.855 -1.1762 -0.0807 -0.9102
  186SOL     OW  556   0.584   1.839   2.494  0.1209 -0.6033 -0.0082
  186SOL    HW1  557   0.530   1.768   2.448 -0.1237  0.8932 -0.3615
  186SOL    HW2  558   0.522   1.891   2.558  0.9922  2.9907 -0.0093
  187SOL     OW  559   2.519   2.131   3.010 -0.2824 -0.1968  0.4550
  187SOL    HW1  560   2.583   2.090   3.074 -0.8878 -0.2567  3.4795
  187SOL    HW2  561   2.460   2.196   3.063  1.0025 -0.6142  0.2061
  188SOL     OW  562   0.852   2.226   0.230  0.5700 -0.1425 -0.0093
  188SOL    HW1  563   0.875   2.131   0.262  0.1249  2.6683 -0.1289
  188SOL    HW2  564   0.749   2.238   0.256 -4.2770 -1.3522 -1.1153
  189SOL     OW  565   2.184   0.873   2.956  0.2502  0.1159  0.2966
  189SOL    HW1  566   2.275   0.885   2.915 -0.1282  0.3009  2.3006
  189SOL    HW2  567   2.180   0.919   3.046 -1.5842  1.7586 -0.7920
  190SOL     OW  568   0.945   1.898   2.008 -0.4628 -0.0779 -0.2799
  190SOL    HW1  569   0.868   1.948   1.968 -2.7734  2.9362  0.0747
  190SOL    HW2  570   1.031   1.898   1.951 -0.8315  0.7612 -1.8499
  191SOL     OW  571   2.095   0.649   1.302 -0.2429 -0.4102  0.1998
  191SOL    HW1  572   2.016   0.615   1.355 -1.6027 -2.2901  0.9704
  191SOL    HW2  573   2.119   0.592   1.223 -0.3058  1.1399 -0.4125
  192SOL     OW  574   1.970   0.106   1.820 -0.6205 -0.3558 -0.5579
  192SOL    HW1  575   1.962   0.093   1.923  0.8801  0.3680  0.9391
  192SOL    HW2  576   1.885   0.081   1.771 -2.9855  0.4926  2.2414
  193SOL     OW  577   0.246   0.751   0.866  0.5378  0.0796  0.1303
  193SOL    HW1  578   0.304   0.670   0.889  0.8764 -1.0850 -2.1299
  193SOL    HW2  579   0.267   0.791   0.776  0.7235 -1.8224  2.5075
  194SOL     OW  580   1.807   2.439   1.455  0.1607  0.5897 -0.1496
  194SOL    HW1  581   1.725   2.412   1.403  1.7820  0.9263  2.5817
  194SOL    HW2  582   1.849   2.351   1.491  1.2929 -1.0041  1.6612
  195SOL     OW  583   2.646   0.551   0.921  0.5054  0.1831  0.0192
  195SOL    HW1  584   2.590   0.519   0.837 -1.5847  0.7690  1.7323
  195SOL    HW2  585   2.745   0.547   0.896 -0.7820  1.4919  1.3454
  196SOL     OW  586   1.406   2.053   1.935  0.6710  0.5863  0.6375
  196SOL    HW1  587   1.414   2.101   2.022 -1.0052 -1.4321 -1.6110
  196SOL    HW2  588   1.317   1.994   1.927 -0.5371 -1.3612 -0.8901
  197SOL     OW  589   3.065   0.040   2.718 -0.3346 -0.4446 -0.2816
  197SOL    HW1  590   0.048   3.084   2.766 -0.0888  2.5149  1.1422
  197SOL    HW2  591   3.002   0.079   2.787 -0.2944 -0.0581 -0.2672
  198SOL     OW  592   1.129   1.150   0.749 -0.5716  0.4139 -0.4128
  198SOL    HW1  593   1.208   1.096   0.785 -1.7431 -1.7636  1.5767
  198SOL    HW2  594   1.061   1.088   0.707  2.4650 -2.3928 -1.0162
  199SOL     OW  595   2.623   0.851   1.805  0.2034 -0.2650  0.3522
  199SOL    HW1  596   2.699   0.815   1.747  1.6101 -2.0584 -4.0150
  199SOL    HW2  597   2.548   0.884   1.741  2.7588 -0.0475 -0.7968
  200SOL     OW  598   2.213   2.733   2.336  0.1757  0.8151 -0.5139
  200SOL    HW1  599   2.199   2.831   2.318 -2.2636 -4.1317 -1.2904
  200SOL    HW2  600   2.141   2.678   2.285 -0.3463  3.8971 -1.4822
  201SOL     OW  601   2.553   0.304   1.618 -0.2232 -0.3458  0.2810
  201SOL    HW1  602   2.598   0.232   1.671  1.0008  0.1868 -1.6644
  201SOL    HW2  603   2.595   0.312   1.527 -0.4132 -0.6420  0.5299
  202SOL     OW  604   2.268   0.065   0.384 -0.0462 -0.0481  0.6318
  202SOL    HW1  605   2.206   0.107   0.450  1.7080 -0.5643 -2.6219
  202SOL    HW2  606   2.227   0.055   0.294 -1.1637  1.0604  0.4755
  203SOL     OW  607   1.261   2.036   2.258  0.2007  0.0250  0.2126
  203SOL    HW1  608   1.162   2.047   2.266  0.8817 -0.1048 -0.0884
  203SOL    HW2  609   1.298   2.117   2.312 -1.4939  0.2385  2.1197
  204SOL     OW  610   0.961   1.492   2.553  0.0222 -0.4283 -0.5327
  204SOL    HW1  611   0.940   1.396   2.579  0.2315 -3.5377 -0.9947
  204SOL    HW2  612   0.968   1.498   2.451  1.6245  0.0648 -1.5322
  205SOL     OW  613   0.963   1.593   1.409  0.3293  0.1856  0.4577
  205SOL    HW1  614   0.970   1.589   1.309  1.1275 -1.2844  0.7384
  205SOL    HW2  615   1.028   1.526   1.447 -1.9558  1.6284 -3.6096
  206SOL     OW  616   0.229   0.477   2.802  0.4516 -0.5186  0.2238
  206SOL    HW1  617   0.159   0.422   2.757 -0.1146  1.7217  0.0886
  206SOL    HW2  618   0.273   0.418   2.875  2.5475  1.0716  1.4784
  207SOL     OW  619   1.732   2.577   2.391 -0.0492  0.6955 -0.1267
  207SOL    HW1  620   1.806   2.514   2.422 -2.7904  0.9792  1.9818
  207SOL    HW2  621   1.770   2.667   2.358 -3.3395 -0.2395 -0.2501
  208SOL     OW  622   0.928   2.363   1.183 -0.4705  0.0089  0.1919
  208SOL    HW1  623   1.008   2.417   1.219  0.1468 -0.2009 -0.6271
  208SOL    HW2  624   0.926   2.363   1.083 -0.1424  0.0154  1.2312
  209SOL     OW  625   1.205   1.221   2.509 -0.2960  0.0139  0.2454
  209SOL    HW1  626   1.225   1.259   2.417  0.2200  2.5612 -1.0980
  209SOL    HW2  627   1.121   1.163   2.505  2.6264  1.7998  0.8323
  210SOL     OW  628   1.906   0.830   1.038  0.4089 -0.2450  0.1845
  210SOL    HW1  629   1.934   0.869   1.126 -0.3348 -1.4672 -1.5173
  210SOL    HW2  630   1.811   0.864   1.013 -0.8031  0.4745 -2.1843
  211SOL     OW  631   0.857   2.610   0.493  0.7283 -0.5925 -0.6040
  211SOL    HW1  632   0.879   2.539   0.421 -3.4599  0.8880  2.3428
  211SOL    HW2  633   0.919   2.695   0.498  1.6390  1.3347  0.3082
  212SOL     OW  634   1.837   1.833   0.256  0.1643  0.2607 -0.0380
  212SOL    HW1  635   1.749   1.887   0.236  1.2860  1.1075 -0.0955
  212SOL    HW2  636   1.873   1.862   0.343 -0.6377 -0.5900  0.1024
  213SOL     OW  637   1.762   0.327   2.966  0.1747 -0.6494 -0.1054
  213SOL    HW1  638   1.704   0.297   3.041 -0.6826  1.5402 -0.3133
  213SOL    HW2  639   1.853   0.279   2.975  0.5582 -0.9675  1.3023
  214SOL     OW  640   1.167   1.737   2.189  0.0819 -0.1911  0.6138
  214SOL    HW1  641   1.174   1.841   2.174  1.1451  1.0934  0.0907
  214SOL    HW2  642   1.084   1.710   2.243  1.4835  1.3268 -1.2433
  215SOL     OW  643   0.769   1.796   0.215 -0.1526 -0.6731  0.2584
  215SOL    HW1  644   0.709   1.795   0.132 -1.5308  0.2555 -0.4796
  215SOL    HW2  645   0.746   1.724   0.275  2.9434  4.0509 -0.2895
  216SOL     OW  646   0.077   2.776   2.307  0.2648 -0.0564 -0.0778
  216SOL    HW1  647   0.177   2.755   2.299  2.6378  2.9566  0.0094
  216SOL    HW2  648   0.027   2.707   2.251  1.6900  1.4507 -0.6575
  217SOL     OW  649   2.410   0.678   1.012  0.0443 -0.4322  0.4364
  217SOL    HW1  650   2.498   0.647   0.969  0.1445  0.1314 -2.2822
  217SOL    HW2  651   2.377   0.607   1.074  0.2134 -0.7280 -0.9190
  218SOL     OW  652   1.937   1.547   1.989  0.2432 -0.2826 -0.2766
  218SOL    HW1  653   1.973   1.561   2.083  0.4162  0.9981  0.3877
  218SOL    HW2  654   1.990   1.478   1.936  2.9764  0.6004 -3.8484
  219SOL     OW  655   1.931   1.572   0.235 -0.2166  0.9062  0.5753
  219SOL    HW1  656   1.852   1.530   0.187 -0.8276  0.3214 -0.4641
  219SOL    HW2  657   1.914   1.672   0.246 -2.6609  0.1135  2.2118
  220SOL     OW  658   1.564   1.390   0.639 -0.4011  0.4241  0.2053
  220SOL    HW1  659   1.476   1.443   0.627 -0.7912  0.3877  1.4795
  220SOL    HW2  660   1.623   1.403   0.560 -0.5203  0.7168 -0.9021
  221SOL     OW  661   0.672   0.576   2.781 -0.2722 -0.3289 -0.1224
  221SOL    HW1  662   0.685   0.610   2.878  0.4576 -0.9241 -2.4198
  221SOL    HW2  663   0.579   0.585   2.747 -0.6039  0.4660  2.5883
  222SOL     OW  664   1.488   1.340   0.348 -0.1189 -0.1181 -0.0978
  222SOL    HW1  665   1.498   1.439   0.352 -0.1631  2.8506  0.5191
  222SOL    HW2  666   1.394   1.313   0.318  1.7662  0.5108  2.3451
  223SOL     OW  667   1.036   0.061   0.165  0.2927 -0.1052 -0.2413
  223SOL    HW1  668   1.074   0.025   0.252 -2.4304  0.3792 -0.4066
  223SOL    HW2  669   0.937   0.082   0.187 -1.0018 -0.2596  1.4872
  224SOL     OW  670   2.178   0.025   1.531  0.2961 -0.4304 -0.4510
  224SOL    HW1  671   2.127   0.115   1.539 -0.7327  3.2403 -3.0834
  224SOL    HW2  672   2.187   3.082   1.625 -2.4181 -0.9140  1.5696
  225SOL     OW  673   0.378   2.952   1.037 -0.9039 -0.2428  0.3959
  225SOL    HW1  674   0.347   3.044   1.074 -0.7216 -0.0253  1.1549
  225SOL    HW2  675   0.450   2.974   0.966  0.5737  0.4841  1.9456
  226SOL     OW  676   1.088   1.376   2.943  0.0719 -0.1776  0.5397
  226SOL    HW1  677   1.145   1.301   2.898 -0.2869 -0.0386  0.0969
  226SOL    HW2  678   1.121   1.394   3.044  0.7822  0.3700  0.1068
  227SOL     OW  679   1.124   1.667   0.950  0.1574  0.0789 -0.6203
  227SOL    HW1  680   1.151   1.732   0.874  1.0166 -0.9014 -1.3979
  227SOL    HW2  681   1.191   1.589   0.961  0.0587  0.8953  1.9966
  228SOL     OW  682   0.441   1.695   0.501  0.4638 -0.1879 -0.0611
  228SOL    HW1  683   0.429   1.613   0.447  0.6371  1.8008  1.1629
  228SOL    HW2  684   0.402   1.678   0.595  1.3519  1.3047  0.3976
  229SOL     OW  685   1.399   0.372   0.105 -0.7750  0.2118 -0.1807
  229SOL    HW1  686   1.411   0.471   0.109  2.1384 -3.9622 -0.7805
  229SOL    HW2  687   1.329   0.337   0.036  0.7365  0.7221 -1.1644
  230SOL     OW  688   1.797   0.416   2.583  0.3302 -0.0408  0.7613
  230SOL    HW1  689   1.822   0.321   2.617  2.6431  0.2023 -1.0310
  230SOL    HW2  690   1.852   0.488   2.626 -2.2414  3.5051 -1.0047
  231SOL     OW  691   1.280   1.898   2.531  0.3141 -0.2529  0.2796
  231SOL    HW1  692   1.197   1.916   2.588  1.1781 -0.1657  0.6888
  231SOL    HW2  693   1.252   1.886   2.435  0.2491 -0.3797 -0.7375
  232SOL     OW  694   2.460   2.170   0.632 -0.1549 -0.3751  0.2010
  232SOL    HW1  695   2.408   2.218   0.705  0.6388 -2.0015 -0.3032
  232SOL    HW2  696   2.410   2.164   0.549  0.1563  1.1836  0.7760
  233SOL     OW  697   2.601   2.824   0.302  0.1431  0.3853  0.3745
  233SOL    HW1  698   2.585   2.870   0.210  0.8079 -0.4329  2.4237
  233SOL    HW2  699   2.533   2.855   0.376 -1.6562  1.3448  3.0222
  234SOL     OW  700   0.845   0.366   2.807 -0.0901 -0.3597  0.4084
  234SOL    HW1  701   0.778   0.441   2.788  0.7039 -1.6526 -0.5659
  234SOL    HW2  702   0.931   0.393   2.861  2.6017  0.5132 -1.6702
  235SOL     OW  703   2.739   0.301   2.475  0.0817  0.0339 -0.0752
  235SOL    HW1  704   2.777   0.344   2.390 -1.2597 -1.3719 -1.6567
  235SOL    HW2  705   2.636   0.300   2.470 -0.9643 -0.5019 -0.3659
  236SOL     OW  706   2.139   2.656   1.688  0.5131 -0.1100  0.5330
  236SOL    HW1  707   2.052   2.602   1.704 -2.1414  3.0027 -0.4979
  236SOL    HW2  708   2.144   2.728   1.755 -2.7115 -0.2766 -1.6049
  237SOL     OW  709   0.580   1.523   2.039  0.1131  0.4295  0.3856
  237SOL    HW1  710   0.503   1.588   2.056  0.6942 -0.0974 -0.7373
  237SOL    HW2  711   0.603   1.479   2.129 -0.8731 -2.0653 -0.2119
  238SOL     OW  712   1.521   0.179   2.793 -0.0108 -0.7368 -0.6844
  238SOL    HW1  713   1.587   0.247   2.826 -0.0303  2.2206  1.2331
  238SOL    HW2  714   1.558   0.127   2.711 -1.0574  1.3016  0.8450
  239SOL     OW  715   0.250   2.218   1.475 -0.5026  0.4588 -0.2821
  239SOL    HW1  716   0.291   2.223   1.567  0.8130 -0.3191  0.6309
  239SOL    HW2  717   0.271   2.129   1.431  0.4608  1.1417 -1.5166
  240SOL     OW  718   3.035   2.421   0.834  0.3537 -0.5799 -0.4998
  240SOL    HW1  719   2.950   2.475   0.824  1.3750  1.1603 -0.7327
  240SOL    HW2  720   3.066   2.426   0.931 -2.1849  1.0596 -3.1138
  241SOL     OW  721   2.387   1.257   0.722 -0.5351 -0.0924  0.0388
  241SOL    HW1  722   2.388   1.322   0.801 -1.4251 -0.7233 -3.0533
  241SOL    HW2  723   2.293   1.249   0.688  2.4972  0.0448  3.4550
  242SOL     OW  724   2.055   1.974   2.564 -0.1370  0.0764 -0.5232
  242SOL    HW1  725   2.060   1.966   2.462  1.1206 -3.2113 -2.7482
  242SOL    HW2  726   2.109   1.900   2.608  1.3109  4.2441 -0.5400
  243SOL     OW  727   0.873   2.488   1.557  0.2799  0.7226 -0.3253
  243SOL    HW1  728   0.873   2.582   1.526 -2.9162  0.1013 -0.0394
  243SOL    HW2  729   0.810   2.479   1.641  0.8135  0.1098  1.1293
  244SOL     OW  730   2.262   2.950   2.989 -0.0262  0.6232 -0.4720
  244SOL    HW1  731   2.231   2.853   2.998 -0.2010  2.1635  0.7326
  244SOL    HW2  732   2.275   2.985   2.894 -0.9316  1.8803 -2.6114
  245SOL     OW  733   1.252   2.953   1.372  0.2473 -0.0864 -0.1495
  245SOL    HW1  734   1.172   3.000   1.413 -1.5474  0.3788 -1.4626
  245SOL    HW2  735   1.313   2.914   1.446  0.1956 -0.5789 -1.1667
  246SOL     OW  736   1.616   2.578   0.232 -0.1808  0.6528  0.1760
  246SOL    HW1  737   1.639   2.481   0.207 -0.9832 -0.7267 -0.4252
  246SOL    HW2  738   1.684   2.648   0.194 -0.4792 -0.9171  0.4619
  247SOL     OW  739   1.396   0.328   2.423 -0.1647  0.1099  1.1275
  247SOL    HW1  740   1.317   0.389   2.402  0.7573  0.0703 -0.4220
  247SOL    HW2  741   1.391   0.290   2.519  3.5038 -1.7236  0.5857
  248SOL     OW  742   0.544   1.841   1.799  0.1722 -0.1964  0.8758
  248SOL    HW1  743   0.505   1.908   1.729 -0.5686  1.7510 -1.0295
  248SOL    HW2  744   0.554   1.748   1.759 -1.1325 -0.4071  1.0751
  249SOL     OW  745   2.060   0.234   0.464  0.4178 -0.1977 -0.2651
  249SOL    HW1  746   2.048   0.234   0.362  3.1946  1.5817 -3.1809
  249SOL    HW2  747   2.033   0.322   0.508 -0.7436 -1.4529 -0.8720
  250SOL     OW  748   0.239   0.625   0.547  0.0171 -0.1503  0.0444
  250SOL    HW1  749   0.301   0.695   0.510 -0.4018  3.1781  1.2523
  250SOL    HW2  750   0.145   0.642   0.507  0.7660  0.8852 -1.4014
  251SOL     OW  751   1.308   0.573   2.864 -0.7860  0.1973 -0.5283
  251SOL    HW1  752   1.365   0.582   2.780  0.6214 -2.7587  0.9756
  251SOL    HW2  753   1.227   0.512   2.848 -0.5166 -1.2395  1.0254
  252SOL     OW  754   1.715   1.710   2.063 -0.0925  0.2912  1.0149
  252SOL    HW1  755   1.794   1.661   2.016  3.5884 -3.5999 -0.9539
  252SOL    HW2  756   1.625   1.672   2.030 -1.5316 -1.9525  2.0498
  253SOL     OW  757   2.781   2.303   1.774 -0.0087  0.9646  0.2605
  253SOL    HW1  758   2.684   2.290   1.804 -0.6735  0.7788  0.2154
  253SOL    HW2  759   2.843   2.221   1.789  2.1375  0.9139  0.3447
  254SOL     OW  760   2.677   1.359   1.100 -0.7737 -0.2472 -0.6012
  254SOL    HW1  761   2.703   1.441   1.049 -1.1049 -1.1413 -1.2416
  254SOL    HW2  762   2.739   1.336   1.179  2.6362 -0.2798  1.7079
  255SOL     OW  763   1.042   0.471   1.110  0.8828  0.3843  0.1046
  255SOL    HW1  764   0.952   0.452   1.151 -0.4631  1.6446 -0.9591
  255SOL    HW2  765   1.100   0.520   1.172 -1.7026 -1.5845 -1.7395
  256SOL     OW  766   1.976   2.228   1.553  0.6985 -0.0047 -0.3572
  256SOL    HW1  767   2.068   2.192   1.540 -0.8646  0.2503 -2.0735
  256SOL    HW2  768   1.924   2.173   1.626 -2.4040 -2.0686 -1.2962
  257SOL     OW  769   0.632   2.940   2.466  0.3747 -1.0528  0.4677
  257SOL    HW1  770   0.716   2.960   2.518 -2.1667 -0.4136 -1.9947
  257SOL    HW2  771   0.646   2.879   2.384 -1.5431 -1.1455 -2.3903
  258SOL     OW  772   0.962   2.257   3.067 -0.0700  0.0319  0.0846
  258SOL    HW1  773   0.891   2.245   2.997  0.2154 -2.8161 -0.6441
  258SOL    HW2  774   0.929   2.243   0.069 -0.7975  1.3574 -3.1179
  259SOL     OW  775   1.257   0.004   2.590 -0.0207 -0.1867 -0.3803
  259SOL    HW1  776   1.228   3.009   2.634 -1.0094 -1.4544  3.0963
  259SOL    HW2  777   1.339   3.081   2.529  0.4919 -3.1680 -1.5520
  260SOL     OW  778   1.675   0.631   1.138 -0.3141  1.1323  0.2403
  260SOL    HW1  779   1.649   0.697   1.205 -3.2291 -0.2357 -0.3741
  260SOL    HW2  780   1.662   0.657   1.042  0.6136  0.9937 -1.2111
  261SOL     OW  781   0.526   0.296   2.581  0.1141  0.2129  0.1278
  261SOL    HW1  782   0.464   0.340   2.512  0.0896  1.8588 -2.9199
  261SOL    HW2  783   0.619   0.331   2.566 -1.8810 -1.7941 -1.5200
  262SOL     OW  784   0.272   2.044   1.931  0.6954 -0.4159 -0.5593
  262SOL    HW1  785   0.297   2.073   2.028  1.4424  0.8557 -0.2639
  262SOL    HW2  786   0.309   2.108   1.861  0.1493  0.4684 -2.0288
  263SOL     OW  787   2.625   1.294   2.302 -0.0465  0.4372 -0.0589
  263SOL    HW1  788   2.574   1.215   2.340  2.9049  2.2290  1.1596
  263SOL    HW2  789   2.651   1.352   2.375 -1.7494 -4.8322 -6.0325
  264SOL     OW  790   0.959   1.254   0.944  0.5665 -0.0453 -0.1855
  264SOL    HW1  791   0.874   1.299   0.909  0.3184  1.5371  1.5820
  264SOL    HW2  792   1.008   1.210   0.865 -1.6808  3.3606  1.7234
  265SOL     OW  793   1.326   2.366   1.095 -0.0655 -0.2094  0.0369
  265SOL    HW1  794   1.375   2.294   1.151  1.7360  2.0238  0.5308
  265SOL    HW2  795   1.265   2.417   1.157  1.0370  0.6941 -2.5788
  266SOL     OW  796   1.588   1.111   1.136 -0.7237  0.4291  0.6594
  266SOL    HW1  797   1.686   1.085   1.165 -0.4917 -0.1734  1.2487
  266SOL    HW2  798   1.595   1.142   1.037 -0.3350  0.6845 -2.1810
  267SOL     OW  799   2.409   1.234   2.956 -0.3931 -0.3605 -0.6544
  267SOL    HW1  800   2.435   1.221   2.860 -2.8946  0.0983  1.3336
  267SOL    HW2  801   2.444   1.160   3.019  0.4123 -1.2776  1.5613
  268SOL     OW  802   1.268   0.366   0.349 -0.0049 -0.5936  0.0910
  268SOL    HW1  803   1.340   0.346   0.420 -0.5527  2.0211 -0.1984
  268SOL    HW2  804   1.305   0.380   0.252 -0.2299  0.6811 -2.6731
  269SOL     OW  805   2.561   0.439   2.657 -0.2636  0.0059 -0.4045
  269SOL    HW1  806   2.541   0.492   2.739  0.4343 -1.6348 -1.4367
  269SOL    HW2  807   2.478   0.412   2.610  1.1326  0.5370 -0.6826
  270SOL     OW  808   0.215   1.055   2.842 -0.5683  0.1287 -0.0867
  270SOL    HW1  809   0.290   1.054   2.770 -1.8573 -3.3717 -0.4765
  270SOL    HW2  810   0.261   1.075   2.931  1.3145  2.6026 -2.4639
  271SOL     OW  811   2.854   1.058   0.270  0.0694  0.2888 -0.0663
  271SOL    HW1  812   2.782   0.999   0.311 -1.2034  1.7145  1.1192
  271SOL    HW2  813   2.882   1.139   0.331  0.2936  2.8100  0.3756
  272SOL     OW  814   2.782   2.680   2.613 -0.0733  0.1868  0.5846
  272SOL    HW1  815   2.851   2.749   2.579 -0.6495  1.5855  0.0610
  272SOL    HW2  816   2.822   2.615   2.682  0.0711  1.8658  0.5130
  273SOL     OW  817   2.780   2.967   2.995  0.3395 -0.7181 -0.0626
  273SOL    HW1  818   2.823   3.050   2.958  1.2486 -0.7620 -1.7716
  273SOL    HW2  819   2.795   2.961   0.001 -2.7010  1.2422  0.5349
  274SOL     OW  820   0.797   2.414   0.919  0.1834 -0.0376 -0.2913
  274SOL    HW1  821   0.764   2.508   0.935 -0.7507 -0.4679  0.7054
  274SOL    HW2  822   0.865   2.414   0.846  0.7617  2.3873 -0.2425
  275SOL     OW  823   2.393   1.117   0.281  0.3238 -0.3877 -0.0716
  275SOL    HW1  824   2.337   1.203   0.294 -0.2799 -1.2602  0.5926
  275SOL    HW2  825   2.447   1.102   0.367 -0.6301 -0.6062 -1.2644
  276SOL     OW  826   2.824   1.089   1.797 -0.7730 -1.1839  0.4331
  276SOL    HW1  827   2.734   1.103   1.838  1.7060 -2.3641 -1.2345
  276SOL    HW2  828   2.819   1.109   1.696  0.2695  0.5243 -1.8887
  277SOL     OW  829   2.016   0.064   1.220 -0.2879 -0.7082  0.2035
  277SOL    HW1  830   1.999   0.005   1.142  0.4012  0.8974 -0.3493
  277SOL    HW2  831   2.081   0.022   1.287 -1.1182 -1.4861  0.4894
  278SOL     OW  832   1.427   2.569   2.440 -0.1635 -0.7551 -0.5209
  278SOL    HW1  833   1.461   2.506   2.370 -4.1648 -0.5252  1.0101
  278SOL    HW2  834   1.407   2.658   2.395  0.9854 -0.7654 -0.5408
  279SOL     OW  835   1.630   2.019   0.991  0.5890 -0.0756  0.5131
  279SOL    HW1  836   1.640   1.961   1.074 -1.8016  1.7953 -1.7599
  279SOL    HW2  837   1.708   2.081   0.984 -3.4575  1.0476  0.4181
  280SOL     OW  838   0.496   1.435   0.859  0.9831  0.1322  0.7454
  280SOL    HW1  839   0.452   1.505   0.795  2.2393  0.0013  0.0269
  280SOL    HW2  840   0.476   1.456   0.960  0.4243  3.3810  2.5281
  281SOL     OW  841   3.066   1.141   2.234  0.3841 -0.3392  0.5017
  281SOL    HW1  842   2.965   1.138   2.204 -4.2833  0.6732  0.6941
  281SOL    HW2  843   3.089   1.237   2.253  1.1277 -0.3760  0.3448
  282SOL     OW  844   0.496   1.496   3.054  0.7618  0.0158 -0.5971
  282SOL    HW1  845   0.419   1.475   0.027  0.7543 -1.2046 -0.7214
  282SOL    HW2  846   0.581   1.511   0.011 -1.9776  2.0206 -0.2506
  283SOL     OW  847   2.463   2.525   0.234  0.4325 -0.4284 -0.1180
  283SOL    HW1  848   2.440   2.621   0.224  0.0275  0.5386 -2.0507
  283SOL    HW2  849   2.512   2.491   0.153  0.0746 -0.2200 -0.0997
  284SOL     OW  850   0.899   0.099   0.839  0.3206  0.2858 -0.3642
  284SOL    HW1  851   0.989   0.139   0.817 -1.3680  0.1636  3.6402
  284SOL    HW2  852   0.831   0.126   0.767 -0.9450  1.2637 -4.2926
  285SOL     OW  853   2.296   1.162   2.667  0.3310 -0.4928 -0.2811
  285SOL    HW1  854   2.304   1.069   2.702  1.4092 -0.2291 -2.5827
  285SOL    HW2  855   2.205   1.205   2.691 -0.4621 -1.4052  3.3545
  286SOL     OW  856   1.900   2.604   1.021  0.5686 -0.1202  0.7645
  286SOL    HW1  857   1.911   2.582   1.121  1.6798 -1.7621 -0.1479
  286SOL    HW2  858   1.993   2.635   0.985  0.7419  1.7000  0.6300
  287SOL     OW  859   1.097   0.303   0.764  0.4383  0.1655  0.2925
  287SOL    HW1  860   1.066   0.284   0.666  0.6780  0.0899 -0.7325
  287SOL    HW2  861   1.067   0.400   0.790 -1.6562  1.8459  0.9271
  288SOL     OW  862   0.812   2.341   2.726 -0.2431 -0.0171  0.7275
  288SOL    HW1  863   0.759   2.368   2.643  2.2343 -2.1885  0.0260
  288SOL    HW2  864   0.868   2.416   2.765 -1.2770  0.2425  0.1899
  289SOL     OW  865   2.995   1.489   0.864 -0.1479 -0.3505 -0.6268
  289SOL    HW1  866   3.035   1.571   0.821 -0.7997 -0.8295 -0.0834
  289SOL    HW2  867   3.028   1.481   0.961  0.8791 -2.3824  1.9379
  290SOL     OW  868   1.365   1.998   0.967 -0.4423  0.0988 -0.6198
  290SOL    HW1  869   1.463   2.003   0.986  0.0904 -0.0726 -0.6602
  290SOL    HW2  870   1.349   2.074   0.900 -0.2815  4.4463 -0.7496
  291SOL     OW  871   1.468   2.940   0.235 -0.3269 -0.3477  0.0407
  291SOL    HW1  872   1.387   2.880   0.251 -0.3041 -1.1063 -0.3079
  291SOL    HW2  873   1.523   2.906   0.152 -0.3727  0.4301 -0.0978
  292SOL     OW  874   0.398   0.263   1.970  0.1940 -0.0166 -0.0454
  292SOL    HW1  875   0.451   0.290   2.051 -0.0356  0.8211 -2.1539
  292SOL    HW2  876   0.456   0.220   1.899  0.6389 -2.0283  1.5837
  293SOL     OW  877   2.484   1.950   1.319 -0.4592  0.5934  0.2056
  293SOL    HW1  878   2.584   1.955   1.341  1.9810 -1.7950  0.7383
  293SOL    HW2  879   2.426   2.031   1.328 -0.9626 -1.6438 -1.0137
  294SOL     OW  880   0.988   0.118   2.452 -0.2705 -0.2339 -0.2156
  294SOL    HW1  881   0.995   0.152   2.547 -0.1954 -0.4373  1.6360
  294SOL    HW2  882   0.917   0.173   2.404  3.0101  2.0152  1.6139
  295SOL     OW  883   1.654   1.635   1.145  0.0478  0.2340  0.2405
  295SOL    HW1  884   1.708   1.565   1.195 -0.0335 -2.4201 -1.2501
  295SOL    HW2  885   1.697   1.725   1.148 -2.4459 -2.3523  1.9424
  296SOL     OW  886   2.534   1.839   0.203  0.8166  0.2017 -0.2405
  296SOL    HW1  887   2.525   1.929   0.246 -1.9817 -2.4143 -3.4003
  296SOL    HW2  888   2.618   1.838   0.142 -0.8799 -2.8531  2.8941
  297SOL     OW  889   2.551   0.261   0.335  0.2828  0.4493 -0.1973
  297SOL    HW1  890   2.520   0.196   0.262  3.7743 -2.3934  1.7049
  297SOL    HW2  891   2.581   0.350   0.290  2.1221  0.8822 -0.8615
  298SOL     OW  892   0.922   3.053   2.823  0.0799 -0.3338 -0.2722
  298SOL    HW1  893   0.978   3.021   2.900  0.8407 -1.6025 -2.5374
  298SOL    HW2  894   0.864   0.043   2.847 -2.6145 -1.5894 -1.0510
  299SOL     OW  895   0.763   2.164   2.153  0.1149 -0.3930 -0.0355
  299SOL    HW1  896   0.735   2.099   2.077 -1.6651  3.2578 -0.0793
  299SOL    HW2  897   0.708   2.144   2.236 -2.1013 -0.7049 -1.0287
  300SOL     OW  898   2.778   3.017   2.336  0.1226  0.5062 -0.1254
  300SOL    HW1  899   2.814   3.020   2.243 -0.7202 -1.8880  1.8657
  300SOL    HW2  900   2.835   3.068   2.402 -0.5341 -0.5555 -2.6973
  301SOL     OW  901   1.040   0.799   1.923 -0.1424 -0.1232  0.6698
  301SOL    HW1  902   1.063   0.700   1.936 -1.6745 -1.9737 -1.0977
  301SOL    HW2  903   1.095   0.863   1.976  3.2250 -0.7662  0.3442
  302SOL     OW  904   3.082   2.256   0.414 -0.4972  0.2551  0.1746
  302SOL    HW1  905   0.066   2.293   0.463  1.1189 -3.1325  0.0051
  302SOL    HW2  906   3.034   2.182   0.462  2.3146  0.7481 -0.7192
  303SOL     OW  907   2.532   2.618   1.558 -0.1460 -0.0909 -0.3699
  303SOL    HW1  908   2.623   2.575   1.523  1.6295  3.1017 -0.6271
  303SOL    HW2  909   2.543   2.639   1.657 -1.1958 -0.1677 -0.3715
  304SOL     OW  910   2.831   0.807   1.561 -0.1630  0.2462  0.2541
  304SOL    HW1  911   2.794   0.713   1.567  2.7208  0.5830  0.4567
  304SOL    HW2  912   2.934   0.806   1.571  0.5500  0.4825  1.0338
  305SOL     OW  913   0.729   1.725   1.211  0.4716  0.2119  0.2165
  305SOL    HW1  914   0.650   1.743   1.149 -0.8141 -0.0744 -2.2551
  305SOL    HW2  915   0.696   1.756   1.302  0.5956 -2.6926 -1.5940
  306SOL     OW  916   0.399   1.238   2.153  0.7452  0.1415 -0.0047
  306SOL    HW1  917   0.385   1.268   2.054 -0.0891  1.0605 -2.0174
  306SOL    HW2  918   0.473   1.296   2.196 -0.6467 -2.7908  0.9276
  307SOL     OW  919   0.810   0.314   1.751  0.1500 -0.4095 -0.1528
  307SOL    HW1  920   0.910   0.333   1.778  1.6136 -0.5573  2.2021
  307SOL    HW2  921   0.808   0.316   1.651  0.0566 -1.5510 -0.4710
  308SOL     OW  922   0.006   1.048   1.087  0.6275 -0.2853 -0.8704
  308SOL    HW1  923   0.029   1.038   1.187  0.7609 -0.6826  0.4200
  308SOL    HW2  924   2.996   1.056   1.076  0.6117  0.9186  1.2476
  309SOL     OW  925   2.571   1.019   1.167  0.6662  0.1763 -0.0916
  309SOL    HW1  926   2.551   1.068   1.255  0.9925 -1.1006 -0.1016
  309SOL    HW2  927   2.653   1.054   1.120 -3.8380 -0.0220 -0.8653
  310SOL     OW  928   0.032   1.868   2.591 -0.3310 -0.0472 -0.6097
  310SOL    HW1  929   3.031   1.896   2.559 -0.7367 -0.0075  1.2218
  310SOL    HW2  930   0.100   1.908   2.526 -2.1015  0.6920  1.3992
  311SOL     OW  931   2.716   2.551   2.371 -0.1012 -0.4744 -0.7826
  311SOL    HW1  932   2.767   2.607   2.299  0.3999 -1.7659 -3.0691
  311SOL    HW2  933   2.731   2.601   2.461 -1.5283  1.6830  1.4215
  312SOL     OW  934   2.145   2.159   0.009  0.0032  0.0587  0.6605
  312SOL    HW1  935   2.076   2.234   0.031  0.3356  1.9439 -1.0969
  312SOL    HW2  936   2.110   2.065   0.030 -0.3420 -1.5933 -1.1269
  313SOL     OW  937   2.790   2.984   0.600  0.3178  0.3164  0.4138
  313SOL    HW1  938   2.742   3.064   0.555 -2.6524 -1.8666  0.7711
  313SOL    HW2  939   2.827   2.922   0.529  1.5322  1.2923  1.6159
  314SOL     OW  940   1.821   1.077   2.990 -0.4613 -0.3184 -0.2807
  314SOL    HW1  941   1.786   1.075   3.085  1.3762  0.9342  0.0937
  314SOL    HW2  942   1.879   1.160   2.968  0.9308  2.1875  1.8082
  315SOL     OW  943   1.483   2.959   2.475  0.0154  0.1866  0.0599
  315SOL    HW1  944   1.561   2.994   2.419  1.3323  2.3526  0.8723
  315SOL    HW2  945   1.515   2.887   2.540  2.3189  0.6125  0.5668
  316SOL     OW  946   0.032   1.363   0.366  0.0124 -0.6840 -0.1577
  316SOL    HW1  947   3.043   1.322   0.408  1.1892  1.5939  0.1190
  316SOL    HW2  948   0.077   1.290   0.307  3.3023 -2.6985 -0.7780
  317SOL     OW  949   0.471   2.878   3.089  0.3732  0.0061 -0.7797
  317SOL    HW1  950   0.446   2.932   3.004  0.8791 -1.0802 -1.5550
  317SOL    HW2  951   0.520   2.801   3.051 -3.3719 -0.2360  1.9728
  318SOL     OW  952   2.530   2.460   0.894  0.0215 -0.1895  0.1830
  318SOL    HW1  953   2.597   2.405   0.834  1.2671 -0.4741 -1.3411
  318SOL    HW2  954   2.442   2.406   0.905 -0.5171  0.4646  0.3178
  319SOL     OW  955   1.222   2.055   2.920 -0.4935  0.3231 -0.6372
  319SOL    HW1  956   1.166   2.091   2.844  1.3175 -0.1748 -0.4355
  319SOL    HW2  957   1.164   2.014   2.989  0.4830  2.7477  1.7339
  320SOL     OW  958   0.534   2.007   1.224 -0.1537  0.0943  0.0442
  320SOL    HW1  959   0.572   2.070   1.293  2.2851  2.1429  0.1823
  320SOL    HW2  960   0.450   2.044   1.172 -1.6816  0.4273  0.2961
  321SOL     OW  961   1.166   2.841   2.676 -0.4797  0.0473 -0.3015
  321SOL    HW1  962   1.222   2.757   2.661  0.8256 -0.4871  0.1077
  321SOL    HW2  963   1.070   2.817   2.658  0.3357 -2.3210 -1.8787
  322SOL     OW  964   2.581   1.371   2.051 -0.0688 -0.2763 -0.0242
  322SOL    HW1  965   2.598   1.338   2.147 -1.1863  0.7445 -1.9900
  322SOL    HW2  966   2.562   1.472   2.044 -0.3334  3.3711 -0.1375
  323SOL     OW  967   2.826   0.760   1.085 -0.2821 -0.1467  0.5046
  323SOL    HW1  968   2.870   0.687   1.030 -2.2326 -0.4100  2.0546
  323SOL    HW2  969   2.733   0.726   1.104 -1.7043 -2.9291 -1.1023
  324SOL     OW  970   2.507   2.956   2.337 -0.1429 -0.2624 -0.5560
  324SOL    HW1  971   2.472   2.901   2.416 -2.7556  0.7337  1.3079
  324SOL    HW2  972   2.607   2.976   2.352  1.0741 -0.3424  2.1695
  325SOL     OW  973   1.174   0.490   2.378  0.1963  0.3068  0.3149
  325SOL    HW1  974   1.138   0.443   2.462 -0.5277 -1.0009  0.6850
  325SOL    HW2  975   1.093   0.512   2.319  0.1696 -0.9881 -0.3242
  326SOL     OW  976   1.855   2.796   2.243  0.0599 -0.4219 -0.3307
  326SOL    HW1  977   1.886   2.885   2.286 -1.6552 -2.3025 -0.3519
  326SOL    HW2  978   1.778   2.814   2.181 -0.2788 -0.5546  0.5638
  327SOL     OW  979   2.260   0.318   2.908 -0.2539  0.2585 -0.3670
  327SOL    HW1  980   2.355   0.289   2.923  0.7801 -0.1271  0.4450
  327SOL    HW2  981   2.244   0.401   2.959 -1.5153 -1.3485  0.2604
  328SOL     OW  982   3.090   1.430   2.296  0.4375  0.1750 -0.8462
  328SOL    HW1  983   0.052   1.441   2.213  1.2912 -1.4171  1.7175
  328SOL    HW2  984   3.050   1.519   2.316 -1.1360 -2.1699  1.9225
  329SOL     OW  985   1.723   0.071   1.651 -0.0066 -0.2012 -0.4234
  329SOL    HW1  986   1.633   0.021   1.647  1.7919 -0.5965  0.6110
  329SOL    HW2  987   1.728   0.122   1.566 -2.3857 -2.4556  0.5134
  330SOL     OW  988   0.338   1.190   0.808  0.2309  0.2058  0.1272
  330SOL    HW1  989   0.294   1.145   0.891 -1.7879 -0.9021  0.7875
  330SOL    HW2  990   0.391   1.273   0.833 -2.7923  0.0136  0.0944
  331SOL     OW  991   0.150   1.454   2.052  0.1245 -0.3862 -0.0240
  331SOL    HW1  992   0.191   1.405   1.971 -0.3623 -1.4733 -0.6548
  331SOL    HW2  993   0.224   1.510   2.094 -0.6658 -2.7852  1.0119
  332SOL     OW  994   0.021   2.621   1.537  0.3071  0.4025 -0.5820
  332SOL    HW1  995   3.019   2.633   1.570 -0.5494  0.6896  0.5511
  332SOL    HW2  996   0.040   2.537   1.491  0.1157  0.3342  3.5249
  333SOL     OW  997   2.485   0.128   0.764  0.6146 -0.3910 -0.5574
  333SOL    HW1  998   2.489   0.028   0.747  0.8279  2.8881  1.0355
  333SOL    HW2  999   2.429   0.142   0.850 -2.4115 -0.3989  0.0740
  334SOL     OW 1000   0.707   1.918   0.584  0.1235 -0.0169 -0.3802
  334SOL    HW1 1001   0.647   1.846   0.539 -0.8908 -0.5136 -0.6469
  334SOL    HW2 1002   0.700   2.006   0.524 -1.3915  1.6287 -0.6950
  335SOL     OW 1003   0.162   2.515   2.918 -0.5305 -0.2780 -0.1575
  335SOL    HW1 1004   0.149   2.483   2.822 -2.7024  0.5692 -3.9123
  335SOL    HW2 1005   0.254   2.484   2.958 -0.4667 -3.3665  2.6125
  336SOL     OW 1006   3.037   2.589   2.120 -0.4173  0.3348  0.4427
  336SOL    HW1 1007   3.009   2.585   2.020 -0.7726 -0.9852  0.3697
  336SOL    HW2 1008   3.054   2.494   2.160 -1.7920 -3.9970 -0.4369
  337SOL     OW 1009   2.031   2.567   2.214  0.2503  0.2831 -0.2615
  337SOL    HW1 1010   1.961   2.643   2.224  0.7273  0.8600 -3.1983
  337SOL    HW2 1011   2.016   2.483   2.270 -1.2900 -1.0178 -2.8761
  338SOL     OW 1012   0.611   3.001   0.467  0.1327 -0.0611 -0.8208
  338SOL    HW1 1013   0.713   3.005   0.456 -1.3321 -0.9138 -0.5951
  338SOL    HW2 1014   0.571   2.996   0.370 -2.5304 -1.7135 -2.8810
  339SOL     OW 1015   0.406   0.937   2.185  0.0833 -0.3362  0.2296
  339SOL    HW1 1016   0.341   0.873   2.231 -0.6936 -2.1951 -1.2275
  339SOL    HW2 1017   0.406   1.032   2.212  0.5829  1.1573 -0.5012
  340SOL     OW 1018   1.871   3.083   0.218 -0.3136 -0.1344 -0.2540
  340SOL    HW1 1019   1.922   0.082   0.217  2.1408  2.9584  0.8199
  340SOL    HW2 1020   1.790   3.091   0.283  1.2695 -0.6559  1.5382
  341SOL     OW 1021   1.986   0.876   0.773 -0.0193 -0.3851  0.4924
  341SOL    HW1 1022   1.904   0.916   0.730  0.5524 -0.7462 -1.2063
  341SOL    HW2 1023   1.968   0.854   0.873 -0.3121 -1.2428  2.0849
  342SOL     OW 1024   2.474   0.105   0.119 -0.2308  0.3766  0.1646
  342SOL    HW1 1025   2.374   0.100   0.101  2.0647 -1.0201 -0.6428
  342SOL    HW2 1026   2.515   0.009   0.128  0.6070 -2.3547  1.2773
  343SOL     OW 1027   1.204   2.260   1.712 -0.1943 -0.3181 -0.5824
  343SOL    HW1 1028   1.229   2.338   1.776 -0.5247  1.3862  1.8553
  343SOL    HW2 1029   1.279   2.192   1.705  2.1308 -2.2144 -0.3959
  344SOL     OW 1030   2.564   2.886   0.975  0.3927 -0.2489  0.0688
  344SOL    HW1 1031   2.548   2.909   0.879 -0.6015  1.7896  0.2219
  344SOL    HW2 1032   2.500   2.813   0.999 -0.3323 -2.8206 -2.8687
  345SOL     OW 1033   2.820   2.275   0.025 -0.0881  0.1256  0.1815
  345SOL    HW1 1034   2.903   2.316   3.079 -0.3467 -1.0738  0.4943
  345SOL    HW2 1035   2.817   2.276   0.125  0.5315 -1.3575 -2.2706
  346SOL     OW 1036   2.599   1.948   0.752  0.0356 -0.0537 -0.1476
  346SOL    HW1 1037   2.560   2.022   0.689 -0.8490 -0.2461 -0.2733
  346SOL    HW2 1038   2.662   1.987   0.824  1.7534 -0.9624  2.4604
  347SOL     OW 1039   1.521   1.875   1.771  0.3565 -0.4713  0.5437
  347SOL    HW1 1040   1.514   1.936   1.855  0.6811  0.1494 -0.4757
  347SOL    HW2 1041   1.508   1.780   1.793  1.5191  2.0896  1.1465
  348SOL     OW 1042   0.421   1.643   2.441 -0.7072 -0.2112 -0.1628
  348SOL    HW1 1043   0.335   1.700   2.454 -1.2680  3.2777 -2.0587
  348SOL    HW2 1044   0.437   1.566   2.512  0.0867  0.6405  1.1261
  349SOL     OW 1045   2.414   1.362   0.985  0.2367  0.0371 -0.4835
  349SOL    HW1 1046   2.478   1.339   1.063  0.3481  0.2751 -2.3253
  349SOL    HW2 1047   2.441   1.451   0.938 -1.1923  0.6587  0.7275
  350SOL     OW 1048   2.849   2.609   1.103  0.6812 -0.3006 -0.6309
  350SOL    HW1 1049   2.869   2.668   1.190  1.0752  0.3376  1.5808
  350SOL    HW2 1050   2.930   2.547   1.092  0.6718  0.3534  1.1351
  351SOL     OW 1051   0.505   2.861   1.972  0.5414 -0.0987 -0.0940
  351SOL    HW1 1052   0.408   2.846   1.997 -0.4380 -0.0443 -0.5119
  351SOL    HW2 1053   0.557   2.921   2.034 -2.0048  0.8272 -0.0180
  352SOL     OW 1054   0.963   1.596   1.141 -0.5891 -0.2169  0.2841
  352SOL    HW1 1055   0.877   1.651   1.133  2.1188  1.6805 -2.0798
  352SOL    HW2 1056   1.040   1.640   1.091  1.7607  1.9490  2.7186
  353SOL     OW 1057   1.310   1.652   2.716  0.1783  0.4076 -0.5618
  353SOL    HW1 1058   1.324   1.746   2.676  0.1718  1.7769 -2.4598
  353SOL    HW2 1059   1.214   1.642   2.752 -0.8659 -1.3358  1.8328
  354SOL     OW 1060   1.522   3.043   1.202  0.2982 -0.1596 -0.2024
  354SOL    HW1 1061   1.599   2.977   1.200 -2.4373  2.8801 -0.2075
  354SOL    HW2 1062   1.433   2.995   1.209  2.2835  1.4180 -0.2863
  355SOL     OW 1063   2.535   1.540   0.813 -0.3157 -0.1162  0.2693
  355SOL    HW1 1064   2.614   1.572   0.870 -0.3990  1.4785 -0.1247
  355SOL    HW2 1065   2.555   1.543   0.711 -1.6285  3.3525 -1.4805
  356SOL     OW 1066   2.534   1.666   2.068  0.0383  0.8499 -0.2630
  356SOL    HW1 1067   2.431   1.663   2.054  1.1301 -2.2674  1.2285
  356SOL    HW2 1068   2.561   1.686   2.160 -1.1184 -0.1852 -2.3999
  357SOL     OW 1069   0.368   2.725   1.477 -0.3890 -0.5585  0.3292
  357SOL    HW1 1070   0.322   2.694   1.392  1.2294  2.0617 -0.2325
  357SOL    HW2 1071   0.323   2.810   1.514 -2.2206 -1.1994  0.0603
  358SOL     OW 1072   2.389   0.933   1.679  0.6090  0.2125  0.3976
  358SOL    HW1 1073   2.326   0.991   1.618 -1.1258  2.5868 -1.4545
  358SOL    HW2 1074   2.381   0.833   1.651  0.7221 -1.0020 -0.2472
  359SOL     OW 1075   2.363   2.546   2.668  0.5176 -0.0194  0.3106
  359SOL    HW1 1076   2.385   2.463   2.620  0.3207 -1.2370  2.4395
  359SOL    HW2 1077   2.365   2.533   2.770  1.0192 -0.0634  0.7008
  360SOL     OW 1078   0.760   0.445   0.826  0.4110  0.4208  0.3892
  360SOL    HW1 1079   0.855   0.484   0.821 -0.6413  1.3414  0.3889
  360SOL    HW2 1080   0.689   0.522   0.839 -3.4045  1.1015  2.3201
  361SOL     OW 1081   1.929   2.938   1.011 -0.1816 -0.1216 -0.2312
  361SOL    HW1 1082   1.960   2.890   1.093 -2.4810  2.6194  0.0853
  361SOL    HW2 1083   1.986   2.916   0.924  3.4440 -1.6060 -5.3491
  362SOL     OW 1084   1.367   1.062   0.845  0.4108 -0.0392  0.0550
  362SOL    HW1 1085   1.448   1.115   0.824 -3.1468 -1.7249  2.6494
  362SOL    HW2 1086   1.360   1.033   0.940 -1.1569 -1.8873 -3.0630
  363SOL     OW 1087   2.465   1.408   2.696  0.3273  0.2050  0.1928
  363SOL    HW1 1088   2.435   1.445   2.785 -0.9924 -2.8850  1.1537
  363SOL    HW2 1089   2.409   1.329   2.661  1.6115  0.3231  2.5950
  364SOL     OW 1090   0.111   0.201   1.121 -0.3114 -0.2089 -0.0097
  364SOL    HW1 1091   0.200   0.180   1.159  0.7311 -0.9656 -0.1718
  364SOL    HW2 1092   0.041   0.130   1.139  0.2061  2.7308  0.1285
  365SOL     OW 1093   0.031   2.775   2.969  0.0342  0.0591  0.6273
  365SOL    HW1 1094   0.060   2.679   2.975 -1.4364  5.9146 -1.7314
  365SOL    HW2 1095   3.040   2.786   3.029 -3.6123 -0.2792  2.0573
  366SOL     OW 1096   2.377   2.267   0.124 -0.1224  0.5829 -0.1492
  366SOL    HW1 1097   2.285   2.233   0.101 -0.9975 -3.2847 -0.4724
  366SOL    HW2 1098   2.377   2.361   0.158  0.1272 -1.7534 -1.1463
  367SOL     OW 1099   2.865   2.500   2.793  0.0884  0.2221  0.1949
  367SOL    HW1 1100   2.834   2.415   2.748 -0.9896 -0.4094 -2.0439
  367SOL    HW2 1101   2.909   2.474   2.880 -2.2138 -1.7368  0.1303
  368SOL     OW 1102   0.327   1.871   0.859  0.4288 -0.1035 -0.0180
  368SOL    HW1 1103   0.373   1.955   0.821 -0.9708 -1.0237 -0.4637
  368SOL    HW2 1104   0.226   1.878   0.866  0.5954 -0.6604 -0.1195
  369SOL     OW 1105   0.776   2.725   2.782 -0.1207 -0.2557  0.6213
  369SOL    HW1 1106   0.798   2.805   2.843 -1.7824  2.2333 -0.1417
  369SOL    HW2 1107   0.839   2.725   2.706 -0.6731  2.3238  1.9269
  370SOL     OW 1108   0.244   0.991   0.982  0.0237 -0.5385 -0.2457
  370SOL    HW1 1109   0.157   1.016   1.026  0.7966 -0.2039 -2.1883
  370SOL    HW2 1110   0.231   0.896   0.943  0.9251 -0.9560  0.1022
  371SOL     OW 1111   1.969   2.276   0.759 -0.0326  0.3044  0.8027
  371SOL    HW1 1112   2.039   2.342   0.788  3.1823 -0.4217 -1.3840
  371SOL    HW2 1113   1.934   2.218   0.836 -1.5145 -2.1677 -1.5988
  372SOL     OW 1114   0.472   0.996   2.712 -0.1443  0.0202 -0.1086
  372SOL    HW1 1115   0.527   1.014   2.631  1.0333 -2.4537  0.9833
  372SOL    HW2 1116   0.521   1.025   2.797 -0.4826  0.7396  0.4326
  373SOL     OW 1117   0.086   1.949   0.906 -0.0487 -0.0710  0.3076
  373SOL    HW1 1118   0.050   2.027   0.852  0.3026  0.0163 -0.2038
  373SOL    HW2 1119   0.065   1.972   1.004 -0.3655  0.4908 -0.0983
  374SOL     OW 1120   0.075   2.640   0.192 -0.2593 -0.0351 -0.6819
  374SOL    HW1 1121   0.155   2.582   0.208 -1.4584  1.5153 -2.0147
  374SOL    HW2 1122   0.111   2.735   0.183 -0.9356  0.7978 -1.0835
  375SOL     OW 1123   0.352   0.453   0.240  0.5054  0.5906 -0.1016
  375SOL    HW1 1124   0.387   0.490   0.328 -3.5937  1.0570 -1.3108
  375SOL    HW2 1125   0.252   0.463   0.234  2.9131 -1.4318 -0.0412
  376SOL     OW 1126   0.133   2.478   1.894  0.0834 -0.0467  0.1487
  376SOL    HW1 1127   0.039   2.501   1.868  0.3377  1.3942  1.7990
  376SOL    HW2 1128   0.190   2.515   1.820 -1.8565 -1.8650  0.2232
  377SOL     OW 1129   1.418   2.348   2.885 -0.9873 -0.1416 -0.3110
  377SOL    HW1 1130   1.501   2.336   2.824 -0.4534  1.5367 -3.7988
  377SOL    HW2 1131   1.426   2.434   2.941 -1.2589 -1.5307  0.4526
  378SOL     OW 1132   0.770   0.640   0.530  0.5853  0.3951 -0.2853
  378SOL    HW1 1133   0.822   0.560   0.501  0.3718  0.8834  2.1010
  378SOL    HW2 1134   0.798   0.722   0.479 -0.3590 -0.6537  0.7873
  379SOL     OW 1135   0.687   1.546   0.339 -0.0077  0.5223  0.7981
  379SOL    HW1 1136   0.590   1.534   0.370  0.1798 -0.8739  2.5999
  379SOL    HW2 1137   0.751   1.481   0.384  2.6029 -0.0278 -0.6058
  380SOL     OW 1138   0.338   1.921   1.474  0.2543  0.4678  0.1663
  380SOL    HW1 1139   0.427   1.960   1.503  0.3449 -3.4609  1.2049
  380SOL    HW2 1140   0.361   1.847   1.407  1.6581  1.1140 -1.2346
  381SOL     OW 1141   0.541   1.299   1.796 -0.0715 -0.3145 -0.2342
  381SOL    HW1 1142   0.620   1.366   1.805  1.8900  2.3366  1.4175
  381SOL    HW2 1143   0.578   1.211   1.764 -3.0744 -3.2853  0.1532
  382SOL     OW 1144   2.225   1.900   0.532 -0.5514  0.1336 -0.0132
  382SOL    HW1 1145   2.304   1.849   0.499 -0.9143  4.6056 -1.1742
  382SOL    HW2 1146   2.197   1.883   0.629  1.3944  1.0701 -2.3549
  383SOL     OW 1147   2.593   1.649   2.386 -0.3245 -0.6686  0.4060
  383SOL    HW1 1148   2.498   1.680   2.411  1.6023 -3.1680 -0.1735
  383SOL    HW2 1149   2.662   1.722   2.369  1.9797 -1.4727  1.7565
  384SOL     OW 1150   0.234   1.962   2.382 -0.0136  0.6787 -0.1953
  384SOL    HW1 1151   0.284   1.968   2.468 -0.3957 -2.3775  1.1126
  384SOL    HW2 1152   0.287   2.001   2.302 -1.0965  0.5890 -0.8050
  385SOL     OW 1153   2.765   2.128   0.896 -0.5340 -0.0019 -0.8935
  385SOL    HW1 1154   2.865   2.121   0.894 -0.6546 -0.9497 -2.7850
  385SOL    HW2 1155   2.729   2.194   0.831 -1.3954  0.3916 -0.7235
  386SOL     OW 1156   1.680   0.918   0.876 -0.0420  0.5766  0.1182
  386SOL    HW1 1157   1.632   0.824   0.875 -1.4310 -4.1968  0.1142
  386SOL    HW2 1158   1.712   0.939   0.784  1.6488  1.0712 -0.4123
  387SOL     OW 1159   0.473   0.669   1.963  0.9464 -0.2434 -0.0400
  387SOL    HW1 1160   0.477   0.764   1.921 -1.0714  0.1513  0.7974
  387SOL    HW2 1161   0.563   0.622   1.943  2.8115  0.7289 -0.9561
  388SOL     OW 1162   2.334   0.884   2.311 -0.1422 -0.1322  0.0785
  388SOL    HW1 1163   2.230   0.869   2.292 -2.1885 -0.4991 -2.5697
  388SOL    HW2 1164   2.383   0.864   2.224  1.5430  1.2271 -1.7521
  389SOL     OW 1165   1.854   1.202   2.015 -0.0152  0.1110 -0.0690
  389SOL    HW1 1166   1.900   1.283   1.966  0.3861  0.2377 -0.3566
  389SOL    HW2 1167   1.912   1.171   2.097  0.1810  3.0191 -2.0376
  390SOL     OW 1168   1.851   2.710   0.195 -0.1994 -0.4817 -0.1130
  390SOL    HW1 1169   1.922   2.773   0.230 -1.1109 -0.0514 -0.2861
  390SOL    HW2 1170   1.861   2.683   0.095 -0.7405  0.4753 -1.0500
  391SOL     OW 1171   2.123   2.103   1.098 -0.0299  0.0428  0.4084
  391SOL    HW1 1172   2.125   2.089   0.996  0.1357  0.5911  1.5844
  391SOL    HW2 1173   2.059   2.035   1.143 -1.7824 -1.7289  0.9329
  392SOL     OW 1174   2.877   2.786   1.291 -0.0178  0.3576 -0.4435
  392SOL    HW1 1175   2.896   2.790   1.390  0.0313  0.4554 -1.2446
  392SOL    HW2 1176   2.813   2.857   1.262  0.6311 -0.8453 -3.1752
  393SOL     OW 1177   2.036   1.911   0.061 -0.1633 -0.4650 -0.4115
  393SOL    HW1 1178   1.978   1.899   0.145 -1.2869 -0.0780  3.0716
  393SOL    HW2 1179   1.982   1.875   3.072  0.5208 -2.3267 -1.9803
  394SOL     OW 1180   3.093   0.317   2.705 -0.4882 -0.4058 -0.2810
  394SOL    HW1 1181   3.086   0.219   2.672 -1.2597 -0.1057  1.5572
  394SOL    HW2 1182   3.089   0.388   2.628  1.0769 -1.8738  0.9063
  395SOL     OW 1183   1.042   0.828   0.867  0.0219  0.1877 -0.4274
  395SOL    HW1 1184   0.971   0.797   0.942 -1.8026  0.1668  1.4612
  395SOL    HW2 1185   0.990   0.896   0.807 -0.9506 -0.2972 -0.4847
  396SOL     OW 1186   1.267   0.798   3.022 -0.4236 -0.1551 -0.2082
  396SOL    HW1 1187   1.307   0.729   2.960 -0.0099 -0.7392  1.8494
  396SOL    HW2 1188   1.341   0.859   3.053 -2.0018  0.0292 -1.2085
  397SOL     OW 1189   0.507   0.426   2.188  0.3187  0.0197  0.2829
  397SOL    HW1 1190   0.443   0.388   2.258  2.3557  1.1657 -3.7796
  397SOL    HW2 1191   0.491   0.528   2.176 -0.2759 -0.0966 -0.4911
  398SOL     OW 1192   0.826   0.123   0.387 -0.2940 -0.0125 -0.3882
  398SOL    HW1 1193   0.838   0.022   0.371 -0.2303  1.8314 -0.8369
  398SOL    HW2 1194   0.734   0.154   0.358 -0.4088 -1.5189  2.4917
  399SOL     OW 1195   2.220   3.090   1.806 -0.0932  0.0414  0.3021
  399SOL    HW1 1196   2.124   0.027   1.804  1.4473 -0.6931 -0.3067
  399SOL    HW2 1197   2.232   3.023   1.884 -0.5714  1.1834  3.4513
  400SOL     OW 1198   0.541   1.827   2.076 -0.3769  0.1271  0.4144
  400SOL    HW1 1199   0.511   1.905   2.126 -0.2003 -2.2058 -1.6549
  400SOL    HW2 1200   0.546   1.841   1.975 -2.2871 -2.1665 -0.5099
  401SOL     OW 1201   0.797   0.374   2.491 -0.2903 -0.0954  0.1047
  401SOL    HW1 1202   0.886   0.372   2.535 -3.6283  1.0392 -1.2847
  401SOL    HW2 1203   0.760   0.469   2.489  1.1549  0.8631 -0.2919
  402SOL     OW 1204   2.952   2.078   1.735 -0.2382  0.1299  0.1123
  402SOL    HW1 1205   3.007   2.011   1.787 -2.0831 -3.8434  2.2043
  402SOL    HW2 1206   3.007   2.118   1.660 -1.3536 -1.3411 -0.0348
  403SOL     OW 1207   0.437   0.945   1.907 -0.2783 -0.3601 -0.3530
  403SOL    HW1 1208   0.354   0.982   1.860 -0.8587  0.3852  1.3547
  403SOL    HW2 1209   0.418   0.940   2.009 -0.1964 -1.5413  0.1701
  404SOL     OW 1210   0.098   2.793   1.778  0.2438  0.0757 -0.3088
  404SOL    HW1 1211   0.092   2.742   1.692  0.9041  2.7683 -1.8897
  404SOL    HW2 1212   0.007   2.831   1.817  2.5276  1.9032  1.0651
  405SOL     OW 1213   0.252   0.519   1.901  0.5526  0.1287  0.2329
  405SOL    HW1 1214   0.317   0.601   1.913  2.3342  0.3162 -3.4113
  405SOL    HW2 1215   0.302   0.434   1.891 -0.6366 -0.9958 -1.9236
  406SOL     OW 1216   1.856   2.310   2.919 -0.7729  0.3182  0.3916
  406SOL    HW1 1217   1.902   2.352   2.998 -1.2023  0.5898  0.2138
  406SOL    HW2 1218   1.889   2.208   2.905  3.1994 -1.2705 -0.0922
  407SOL     OW 1219   1.370   1.594   2.286  0.2910 -0.0541 -0.3117
  407SOL    HW1 1220   1.281   1.643   2.270  0.2276 -1.5335 -0.3715
  407SOL    HW2 1221   1.370   1.536   2.372  0.0276 -1.5579  1.6356
  408SOL     OW 1222   0.496   0.170   2.841  0.1352  0.0352  0.0697
  408SOL    HW1 1223   0.498   0.221   2.754  2.6328 -1.0129 -1.3908
  408SOL    HW2 1224   0.458   0.229   2.917  0.5880  0.1840 -1.9661
  409SOL     OW 1225   0.477   1.924   0.376  0.0257  0.1883 -0.2544
  409SOL    HW1 1226   0.476   1.832   0.419  1.0155 -3.0926 -0.0314
  409SOL    HW2 1227   0.448   1.992   0.450  2.5746  1.1599  2.5481
  410SOL     OW 1228   2.543   1.555   0.207 -0.0745  0.0828 -0.3326
  410SOL    HW1 1229   2.532   1.655   0.197 -3.0910 -1.0398 -0.6086
  410SOL    HW2 1230   2.641   1.521   0.192  1.6940  0.9397  1.2119
  411SOL     OW 1231   2.988   0.363   1.107 -0.2485  0.0025  0.0038
  411SOL    HW1 1232   2.912   0.309   1.152 -2.7440  1.8431  2.0828
  411SOL    HW2 1233   3.077   0.311   1.123  4.7292 -0.9795  0.0160
  412SOL     OW 1234   1.360   0.983   1.149  0.1288  0.0869 -0.2747
  412SOL    HW1 1235   1.451   1.032   1.148 -2.4983 -1.6135 -0.6103
  412SOL    HW2 1236   1.299   1.019   1.220 -0.5900 -0.5727 -0.2044
  413SOL     OW 1237   0.269   2.757   1.206 -0.3704  0.0937  0.3363
  413SOL    HW1 1238   0.321   2.834   1.162  0.6509 -0.3020  0.5823
  413SOL    HW2 1239   0.184   2.790   1.256  0.7540  2.0020  2.2008
  414SOL     OW 1240   3.022   1.717   2.783  0.1824 -0.5172  0.1514
  414SOL    HW1 1241   3.091   1.730   2.855  0.5065 -0.2425  0.7345
  414SOL    HW2 1242   3.048   1.773   2.701 -2.1070 -0.1114 -0.0886
  415SOL     OW 1243   0.452   2.163   2.807 -0.6902  0.3374  0.0056
  415SOL    HW1 1244   0.467   2.202   2.899  0.7132  0.7402  0.9982
  415SOL    HW2 1245   0.353   2.171   2.783  0.4682  1.6380  0.2324
  416SOL     OW 1246   1.456   0.310   0.547  0.7076 -0.2168  0.2811
  416SOL    HW1 1247   1.553   0.282   0.542 -1.5774  0.6143  3.0519
  416SOL    HW2 1248   1.417   0.291   0.639  1.3672  1.5665 -3.3081
  417SOL     OW 1249   0.321   0.963   0.684 -0.2344  0.8101 -0.0504
  417SOL    HW1 1250   0.324   1.055   0.719  0.4683  0.3935 -1.2444
  417SOL    HW2 1251   0.258   0.960   0.600 -1.7989  1.3944  0.5594
  418SOL     OW 1252   2.371   1.045   1.967  0.0831  0.5787  0.1432
  418SOL    HW1 1253   2.351   0.960   1.913  1.0253  1.3820 -1.2239
  418SOL    HW2 1254   2.287   1.097   1.983 -0.1591 -0.3229 -0.3047
  419SOL     OW 1255   0.129   0.414   0.685  0.0642  0.4405 -0.3464
  419SOL    HW1 1256   0.164   0.424   0.780 -0.4401  1.3052 -3.1510
  419SOL    HW2 1257   0.182   0.483   0.625  1.2074 -0.5446 -1.4746
  420SOL     OW 1258   0.435   1.476   0.359 -0.2453  0.0137 -0.0304
  420SOL    HW1 1259   0.401   1.472   0.264 -1.6302 -0.8206 -2.4256
  420SOL    HW2 1260   0.424   1.388   0.411  0.8516 -0.1706  2.0807
  421SOL     OW 1261   0.943   2.385   0.665  0.2290  0.5638 -0.4903
  421SOL    HW1 1262   1.017   2.323   0.644 -2.3122 -0.9755  0.0073
  421SOL    HW2 1263   0.931   2.455   0.596  2.0007 -1.3159  4.3403
  422SOL     OW 1264   0.081   0.989   1.399 -0.4949 -0.1796 -0.0245
  422SOL    HW1 1265   0.055   1.045   1.479  0.8395  0.0914 -2.5157
  422SOL    HW2 1266   0.183   0.994   1.379 -0.9745 -0.8736  0.0092
  423SOL     OW 1267   1.357   1.625   1.568  0.0895  0.3003 -0.3640
  423SOL    HW1 1268   1.383   1.531   1.593 -0.0677  3.0173  0.3913
  423SOL    HW2 1269   1.367   1.635   1.466  0.1872  0.9022 -0.8329
  424SOL     OW 1270   2.041   1.236   2.734  0.1055 -0.6551  0.2655
  424SOL    HW1 1271   1.990   1.267   2.817 -0.1830  0.1309 -2.3787
  424SOL    HW2 1272   2.023   1.308   2.659  0.3288  2.9010 -0.1482
  425SOL     OW 1273   0.042   0.541   2.104 -0.3599  0.1776  0.2053
  425SOL    HW1 1274   0.094   0.535   2.016 -0.9262  0.4325  0.9251
  425SOL    HW2 1275   3.058   0.601   2.096 -0.1716 -1.4606 -0.4690
  426SOL     OW 1276   2.449   2.802   2.580  0.1699 -0.3781  0.2435
  426SOL    HW1 1277   2.531   2.829   2.637  0.3013  0.2746  1.0006
  426SOL    HW2 1278   2.431   2.706   2.588 -0.0519  2.0237 -1.7386
  427SOL     OW 1279   0.957   0.504   2.185  0.0416 -0.3099  0.0350
  427SOL    HW1 1280   0.898   0.420   2.171  0.0138 -0.2205 -0.6338
  427SOL    HW2 1281   0.898   0.588   2.181  1.1050  1.4729  0.2585
  428SOL     OW 1282   2.031   0.787   1.735 -0.4094  0.2261 -0.5619
  428SOL    HW1 1283   1.956   0.820   1.795 -0.0276  1.0832  0.5765
  428SOL    HW2 1284   2.025   0.837   1.650  1.7603  0.2059 -0.0811
  429SOL     OW 1285   2.862   2.823   0.384 -0.3526 -0.4413  0.4425
  429SOL    HW1 1286   2.921   2.813   0.303 -1.0046 -0.8833  0.8044
  429SOL    HW2 1287   2.767   2.853   0.365  1.6215 -0.2545  2.4082
  430SOL     OW 1288   1.731   1.727   2.523 -0.0650  0.1201  0.3634
  430SOL    HW1 1289   1.691   1.636   2.497  0.0725 -1.4898 -1.5907
  430SOL    HW2 1290   1.656   1.789   2.552 -0.6516 -1.0843  1.3527
  431SOL     OW 1291   0.020   1.767   1.226 -0.6644 -0.6532  0.1078
  431SOL    HW1 1292   0.092   1.707   1.182  1.6197  0.2686 -0.2048
  431SOL    HW2 1293   0.041   1.788   1.322 -0.6116 -1.2190 -0.0524
  432SOL     OW 1294   1.602   2.745   2.608  0.0816  0.1891 -0.5836
  432SOL    HW1 1295   1.694   2.788   2.588  0.0500 -0.8194 -1.7497
  432SOL    HW2 1296   1.597   2.659   2.557  1.3530  1.6372 -0.9519
  433SOL     OW 1297   1.684   3.048   2.318  1.1312  0.2996 -0.7466
  433SOL    HW1 1298   1.637   3.076   2.231  1.0940 -2.4841  0.6277
  433SOL    HW2 1299   1.780   3.077   2.322 -1.6805  1.8591 -2.5666
  434SOL     OW 1300   0.399   2.593   2.150 -0.6098  0.9630 -0.0242
  434SOL    HW1 1301   0.344   2.509   2.170  1.2571  0.1085  0.7385
  434SOL    HW2 1302   0.349   2.660   2.090  0.0785 -1.9284 -1.0419
  435SOL     OW 1303   0.117   2.269   0.155 -0.3739 -0.5685  0.1988
  435SOL    HW1 1304   0.203   2.325   0.158 -0.1196  4.0876 -1.6525
  435SOL    HW2 1305   0.064   2.281   0.238  0.9989  1.5537  0.1962
  436SOL     OW 1306   0.681   0.603   1.803 -0.0608  0.5285  0.0380
  436SOL    HW1 1307   0.719   0.506   1.797  0.6582 -0.9443  1.7093
  436SOL    HW2 1308   0.602   0.616   1.739 -1.8223 -0.4060 -1.7989
  437SOL     OW 1309   0.365   2.658   2.430 -0.5177 -0.4970 -0.4329
  437SOL    HW1 1310   0.432   2.637   2.357 -1.1445 -0.5823  0.7487
  437SOL    HW2 1311   0.391   2.738   2.491 -0.1134  1.4915 -1.2184
  438SOL     OW 1312   0.638   1.765   1.451  0.0467 -0.2530 -0.2343
  438SOL    HW1 1313   0.695   1.846   1.477 -3.3103  0.6182 -1.3442
  438SOL    HW2 1314   0.645   1.685   1.510  0.1909 -0.1493 -2.6100
  439SOL     OW 1315   2.060   0.950   2.738 -0.0026  0.0115 -0.0159
  439SOL    HW1 1316   2.104   0.923   2.828  0.2480 -1.1374 -0.2768
  439SOL    HW2 1317   2.068   1.050   2.721 -0.8697 -0.2092 -2.5230
  440SOL     OW 1318   0.691   0.699   3.038 -0.7707  0.3253  0.3870
  440SOL    HW1 1319   0.742   0.693   0.034 -0.0863 -2.2127  1.7641
  440SOL    HW2 1320   0.744   0.760   2.975 -0.0402 -0.4063  2.0339
  441SOL     OW 1321   0.831   2.209   1.375 -0.6094  0.3468 -0.2066
  441SOL    HW1 1322   0.849   2.289   1.442  0.1388  3.7580  0.1707
  441SOL    HW2 1323   0.842   2.244   1.281  1.6550 -2.1267  1.4852
  442SOL     OW 1324   2.860   1.648   0.603  0.1303 -0.2855  1.5482
  442SOL    HW1 1325   2.800   1.718   0.571  2.0043 -0.7256  1.0588
  442SOL    HW2 1326   2.922   1.685   0.678 -2.2042  0.9090 -0.1660
  443SOL     OW 1327   2.857   1.932   2.547  0.0295  0.0448 -0.7589
  443SOL    HW1 1328   2.793   1.970   2.482  1.7382 -0.5361 -0.4552
  443SOL    HW2 1329   2.809   1.897   2.631 -0.7339  0.4295  0.5517
  444SOL     OW 1330   1.485   1.241   2.896 -0.0098 -0.3410  0.2566
  444SOL    HW1 1331   1.521   1.247   2.991 -0.5924 -1.1604 -3.3475
  444SOL    HW2 1332   1.499   1.330   2.851 -2.7893  0.9441 -1.3226
  445SOL     OW 1333   2.579   2.998   1.818  0.0386  0.3323  0.0228
  445SOL    HW1 1334   2.648   3.071   1.791 -1.9829 -0.4467  2.6910
  445SOL    HW2 1335   2.516   3.021   1.899  0.4820  0.6730  1.4272
  446SOL     OW 1336   0.465   1.086   1.089  0.0159  0.2690  0.0143
  446SOL    HW1 1337   0.478   1.189   1.102  1.8710  1.1755 -0.1640
  446SOL    HW2 1338   0.371   1.064   1.052 -1.4394 -0.2949  0.3764
  447SOL     OW 1339   0.920   1.921   1.196  0.0664  0.3549  0.0417
  447SOL    HW1 1340   0.844   1.852   1.196 -0.4580 -1.1387 -2.9185
  447SOL    HW2 1341   0.921   1.989   1.268 -0.5656 -0.5766 -1.0979
  448SOL     OW 1342   0.935   1.133   1.625  0.0895  0.0114 -0.4940
  448SOL    HW1 1343   0.884   1.137   1.538  1.4299  0.6101 -1.7993
  448SOL    HW2 1344   0.948   1.035   1.658  1.1806 -1.8944 -0.6698
  449SOL     OW 1345   2.886   2.146   2.151 -0.3978  0.4680  0.2189
  449SOL    HW1 1346   2.852   2.238   2.136 -0.6414 -0.9366 -1.1253
  449SOL    HW2 1347   2.977   2.135   2.099  4.3493  0.1564 -3.5462
  450SOL     OW 1348   0.047   1.668   1.671  0.3185  0.1130  0.1591
  450SOL    HW1 1349   3.087   1.602   1.728  1.1828 -0.0327 -1.5370
  450SOL    HW2 1350   0.124   1.715   1.724  1.5653 -2.0397  2.1366
  451SOL     OW 1351   1.920   0.500   1.031 -0.1113 -0.3172 -0.3241
  451SOL    HW1 1352   1.884   0.588   1.055 -1.9242 -2.4437 -1.4061
  451SOL    HW2 1353   1.842   0.439   1.003  2.3150  0.5868  1.6222
  452SOL     OW 1354   0.617   1.298   0.647  0.2325 -0.4459  0.0920
  452SOL    HW1 1355   0.701   1.346   0.608  0.8491  0.9535  1.4564
  452SOL    HW2 1356   0.577   1.349   0.727  0.4679 -1.9365  2.3772
  453SOL     OW 1357   1.348   2.159   0.726  0.7493 -0.3697 -0.3979
  453SOL    HW1 1358   1.256   2.172   0.674 -4.5438  0.5295  0.4757
  453SOL    HW2 1359   1.404   2.246   0.716  1.4327  0.8424 -0.8243
  454SOL     OW 1360   0.585   1.793   3.087 -0.0450  0.0196 -0.4054
  454SOL    HW1 1361   0.552   1.701   3.054 -1.0493 -0.9831 -0.1770
  454SOL    HW2 1362   0.514   1.856   0.033 -0.5531  1.2163  1.6735
  455SOL     OW 1363   1.398   0.869   0.431 -0.1157  0.3884 -0.1749
  455SOL    HW1 1364   1.364   0.885   0.337  1.1217 -0.2103 -1.7707
  455SOL    HW2 1365   1.325   0.838   0.497 -0.8686  1.1986 -0.6756
  456SOL     OW 1366   2.354   2.176   1.271  0.2073  0.3889 -0.2082
  456SOL    HW1 1367   2.285   2.169   1.195 -0.3896 -0.1644 -0.5352
  456SOL    HW2 1368   2.305   2.196   1.359  1.7876  1.2600  2.0657
  457SOL     OW 1369   1.848   2.963   3.062  0.0466 -0.1810  0.0924
  457SOL    HW1 1370   1.860   2.991   0.067 -0.7078  0.2742  0.5325
  457SOL    HW2 1371   1.901   3.032   3.007  0.5759  1.4511  0.1261
  458SOL     OW 1372   2.427   0.635   0.332 -0.2028 -0.5196  0.4726
  458SOL    HW1 1373   2.392   0.539   0.348  0.8666 -0.9545  1.0040
  458SOL    HW2 1374   2.385   0.701   0.404 -0.3076 -0.3020  0.6467
  459SOL     OW 1375   3.040   0.527   2.538  0.3224 -0.5053 -0.2022
  459SOL    HW1 1376   3.037   0.624   2.573 -0.1569 -0.8378 -3.1325
  459SOL    HW2 1377   2.967   0.504   2.475  1.7113 -2.6834  0.8235
  460SOL     OW 1378   3.071   1.096   0.008  0.0062 -0.0388 -0.3112
  460SOL    HW1 1379   3.082   1.033   3.023 -0.9066 -0.0920  3.5506
  460SOL    HW2 1380   2.972   1.128   0.007 -6.1251 -1.0145 -1.0488
  461SOL     OW 1381   2.855   2.673   0.845 -0.0153 -0.5359  0.4105
  461SOL    HW1 1382   2.841   2.659   0.949  0.2005 -0.3429  4.5202
  461SOL    HW2 1383   2.768   2.674   0.794  0.6138 -1.3131 -1.4600
  462SOL     OW 1384   2.964   0.004   1.718 -0.5044  0.0804  0.1897
  462SOL    HW1 1385   3.005   0.098   1.738 -1.4739 -2.8108 -1.9444
  462SOL    HW2 1386   2.983   3.068   1.623  0.1564 -0.8668 -2.9945
  463SOL     OW 1387   2.061   1.949   2.302  0.3518  0.1086 -0.0296
  463SOL    HW1 1388   2.130   1.979   2.237  0.0364 -1.1561 -1.5631
  463SOL    HW2 1389   1.999   1.878   2.263  0.6119  0.8290 -1.4353
  464SOL     OW 1390   0.785   2.980   1.538 -0.2673  0.5101 -0.4258
  464SOL    HW1 1391   0.761   2.951   1.635  2.9242  0.3360  2.4251
  464SOL    HW2 1392   0.703   3.009   1.483 -1.7133  2.0264 -0.1035
  465SOL     OW 1393   0.601   0.137   1.794  0.0044 -0.2682  0.0133
  465SOL    HW1 1394   0.639   0.050   1.764  1.1150  0.6073 -0.7397
  465SOL    HW2 1395   0.671   0.200   1.814 -1.5309 -0.0917 -2.2753
  466SOL     OW 1396   1.697   2.636   2.032 -0.2661  0.0669 -0.0930
  466SOL    HW1 1397   1.597   2.651   2.051  0.7204 -3.7473  2.4372
  466SOL    HW2 1398   1.737   2.572   2.103  2.1239  0.7364  2.7905
  467SOL     OW 1399   0.315   2.136   1.158  0.4529  0.4169  0.1866
  467SOL    HW1 1400   0.227   2.126   1.105 -1.6595  0.6070  1.9932
  467SOL    HW2 1401   0.351   2.231   1.157 -0.2438 -2.8660  1.7267
  468SOL     OW 1402   2.698   1.456   2.552 -0.4908 -0.3823 -0.0536
  468SOL    HW1 1403   2.664   1.538   2.498  0.1936 -1.0398 -0.1914
  468SOL    HW2 1404   2.634   1.425   2.630 -2.0646 -0.8226  2.2630
  469SOL     OW 1405   1.085   1.863   0.511 -0.5565  0.2165 -0.1049
  469SOL    HW1 1406   1.185   1.888   0.522  1.8812  1.2092 -0.2143
  469SOL    HW2 1407   1.030   1.915   0.584 -2.6679  2.7351  2.1945
  470SOL     OW 1408   2.475   1.171   1.401  0.0149  0.0689  0.2766
  470SOL    HW1 1409   2.546   1.209   1.463 -0.4748 -1.9690 -1.9274
  470SOL    HW2 1410   2.384   1.165   1.447 -3.0309  2.0212 -0.4103
  471SOL     OW 1411   0.416   2.460   3.019  0.2176  0.0506 -0.4287
  471SOL    HW1 1412   0.475   2.374   3.034  1.0440 -0.0192  0.8638
  471SOL    HW2 1413   0.480   2.538   2.991  5.3662  2.8859  0.7430
  472SOL     OW 1414   2.913   1.786   1.986 -0.4609 -0.1417  0.2957
  472SOL    HW1 1415   2.939   1.690   1.951 -1.3701 -0.5942 -0.9030
  472SOL    HW2 1416   2.821   1.805   1.955 -1.4132 -2.5936 -0.5643
  473SOL     OW 1417   0.855   2.951   0.359  0.3792  0.1726  0.2453
  473SOL    HW1 1418   0.950   2.922   0.378 -1.3077 -1.0932 -2.0602
  473SOL    HW2 1419   0.833   2.920   0.267  1.1590  3.6643 -0.3061
  474SOL     OW 1420   2.529   2.961   0.718  0.3163  0.1390  0.0287
  474SOL    HW1 1421   2.483   2.950   0.628 -0.7527 -0.1748 -0.6535
  474SOL    HW2 1422   2.627   2.952   0.703 -6.8981 -0.6461  2.6962
  475SOL     OW 1423   1.909   2.925   1.724  0.4919 -0.2911  0.5381
  475SOL    HW1 1424   1.944   2.954   1.636  0.4475  0.8218 -1.1462
  475SOL    HW2 1425   1.977   2.913   1.800  2.7968 -2.6622  2.5101
  476SOL     OW 1426   0.618   0.673   0.758  0.0168  0.2068 -0.2486
  476SOL    HW1 1427   0.673   0.675   0.671  0.2354 -1.2366  0.0371
  476SOL    HW2 1428   0.596   0.769   0.783  1.1817 -0.1758  0.8632
  477SOL     OW 1429   0.694   2.145   0.902  0.1647  0.2880 -0.5977
  477SOL    HW1 1430   0.716   2.247   0.900 -1.0064  2.4203  2.1718
  477SOL    HW2 1431   0.770   2.102   0.954 -0.9111  1.5520  1.2469
  478SOL     OW 1432   0.026   2.384   2.314 -0.6327 -0.3573 -0.2728
  478SOL    HW1 1433   3.064   2.316   2.371  0.7564 -1.4606  1.9329
  478SOL    HW2 1434   0.091   2.443   2.371  1.1910  2.1978  1.7963
  479SOL     OW 1435   0.079   0.537   1.664 -0.4647  0.4783 -0.7009
  479SOL    HW1 1436   0.140   0.531   1.749  1.4406 -0.8138  1.1070
  479SOL    HW2 1437   0.124   0.483   1.591  2.1124  0.0046  2.7530
  480SOL     OW 1438   2.990   2.462   3.037  0.2869 -0.6085  0.0182
  480SOL    HW1 1439   2.955   2.515   0.025 -0.0353  1.9286  0.4447
  480SOL    HW2 1440   3.092   2.460   3.055  3.2887  1.0397 -1.0258
  481SOL     OW 1441   1.688   2.004   2.136  0.0152  0.6735 -0.0484
  481SOL    HW1 1442   1.761   1.933   2.114 -0.7125 -0.2221 -0.5118
  481SOL    HW2 1443   1.599   1.955   2.140  0.5939 -0.1947  0.3674
  482SOL     OW 1444   1.650   2.290   2.745  0.1694 -0.0775  0.7027
  482SOL    HW1 1445   1.668   2.237   2.660 -1.4014  1.3896  0.4129
  482SOL    HW2 1446   1.717   2.274   2.819  1.1424 -0.3649 -0.9570
  483SOL     OW 1447   0.590   2.056   2.346 -0.2297 -0.0055 -0.1482
  483SOL    HW1 1448   0.606   1.967   2.389  1.2914  1.9526 -0.4103
  483SOL    HW2 1449   0.561   2.120   2.421 -2.4412 -3.3695 -0.5368
  484SOL     OW 1450   0.129   0.626   1.226 -0.1739 -0.0474  0.4309
  484SOL    HW1 1451   0.130   0.635   1.126 -1.8296  2.7709  0.8609
  484SOL    HW2 1452   0.057   0.685   1.268 -0.1112 -3.3971 -0.2123
  485SOL     OW 1453   2.323   0.816   0.518 -0.3546  0.5737 -0.8374
  485SOL    HW1 1454   2.334   0.769   0.609 -0.8414  0.5520 -1.3497
  485SOL    HW2 1455   2.237   0.870   0.514  1.0276 -1.5333 -0.2979
  486SOL     OW 1456   1.933   2.984   2.432 -0.2938  0.0582  0.7468
  486SOL    HW1 1457   2.023   3.038   2.429 -1.7028  1.1380  2.1174
  486SOL    HW2 1458   1.938   2.919   2.508 -1.6408  0.9832 -1.2975
  487SOL     OW 1459   1.283   1.454   0.965  0.1742  0.2571 -0.4665
  487SOL    HW1 1460   1.231   1.435   0.879  0.4551  1.8000  0.7019
  487SOL    HW2 1461   1.387   1.453   0.954  1.6259 -0.2127  3.5092
  488SOL     OW 1462   2.190   1.315   0.014 -0.1783 -0.0198 -0.0309
  488SOL    HW1 1463   2.279   1.282   3.076  1.2528 -1.7089 -1.6291
  488SOL    HW2 1464   2.193   1.382   0.094  0.1261  0.8489  1.1034
  489SOL     OW 1465   2.310   0.388   0.403  0.1758 -0.3039 -0.4871
  489SOL    HW1 1466   2.216   0.355   0.433 -4.1142  2.2938  2.0098
  489SOL    HW2 1467   2.381   0.314   0.395  1.2234 -0.4859 -1.2048
  490SOL     OW 1468   1.558   2.801   0.487  0.0238  0.2173 -0.4953
  490SOL    HW1 1469   1.569   2.841   0.394 -1.4195 -0.8631 -0.6870
  490SOL    HW2 1470   1.495   2.864   0.536 -1.3331 -0.6231 -1.9812
  491SOL     OW 1471   0.949   0.970   0.649 -0.4336  0.9005 -0.2906
  491SOL    HW1 1472   0.849   0.976   0.663 -0.6991  0.9145  0.7311
  491SOL    HW2 1473   0.968   0.924   0.561  0.6428 -2.5823  0.8486
  492SOL     OW 1474   1.638   0.257   0.112 -0.4356  0.4428  0.4713
  492SOL    HW1 1475   1.622   0.165   0.159 -3.0827 -1.1989  1.2761
  492SOL    HW2 1476   1.547   0.302   0.106 -0.3806 -0.1916  0.1853
  493SOL     OW 1477   1.944   2.373   0.071 -0.1213 -0.1873  0.2951
  493SOL    HW1 1478   2.024   2.415   0.116 -1.3004  1.2862 -0.4598
  493SOL    HW2 1479   1.859   2.383   0.126 -0.6593  2.5994 -4.0127
  494SOL     OW 1480   0.398   1.225   0.465 -0.0858 -0.0456 -0.4949
  494SOL    HW1 1481   0.298   1.199   0.481 -0.7935  1.1683 -3.1869
  494SOL    HW2 1482   0.447   1.222   0.559  1.5110  0.0854  6.2410
  495SOL     OW 1483   0.035   2.821   1.017  0.2363  0.3031 -0.1580
  495SOL    HW1 1484   0.047   2.832   0.916 -0.3737  0.4632  0.6343
  495SOL    HW2 1485   0.104   2.762   1.058 -3.2626 -1.5484 -4.1749
  496SOL     OW 1486   2.329   0.348   1.769 -0.3725 -0.0682 -0.3199
  496SOL    HW1 1487   2.406   0.332   1.704  1.7461 -2.3756 -3.0782
  496SOL    HW2 1488   2.285   0.436   1.752  0.8088 -0.6846 -1.3025
  497SOL     OW 1489   1.924   1.696   2.725  0.0193  0.4430 -0.3670
  497SOL    HW1 1490   1.856   1.702   2.648 -0.9125 -1.2111 -2.7118
  497SOL    HW2 1491   2.017   1.697   2.688  1.0919 -0.6215 -0.9950
  498SOL     OW 1492   0.952   1.995   0.711  0.4112 -0.0023  0.2619
  498SOL    HW1 1493   0.854   1.994   0.681 -0.0650 -1.8816  0.6574
  498SOL    HW2 1494   0.960   1.984   0.811 -1.4937  0.2885 -2.3506
  499SOL     OW 1495   0.485   1.792   1.059  0.6832 -0.0734  1.0036
  499SOL    HW1 1496   0.512   1.876   1.110  3.0281 -0.1029 -0.5786
  499SOL    HW2 1497   0.409   1.820   0.997  0.4975  1.5496  3.6828
  500SOL     OW 1498   1.375   1.970   0.252 -0.1218 -0.1359 -0.4142
  500SOL    HW1 1499   1.355   2.062   0.214 -0.9032 -0.1898 -1.1047
  500SOL    HW2 1500   1.342   1.896   0.186 -0.0780  2.4823  0.4842
  501SOL     OW 1501   2.370   2.710   1.173  0.9105 -0.2397 -0.2418
  501SOL    HW1 1502   2.448   2.647   1.157 -2.7120  1.1534  1.1187
  501SOL    HW2 1503   2.365   2.739   1.271  0.8426 -0.2649  0.5468
  502SOL     OW 1504   0.282   0.803   1.585 -0.2663  0.2179  0.3549
  502SOL    HW1 1505   0.184   0.796   1.614  0.2085  1.4579 -0.5066
  502SOL    HW2 1506   0.285   0.849   1.495 -0.5118  1.1080 -2.2047
  503SOL     OW 1507   1.805   0.473   1.337 -0.1771 -0.0948  0.2681
  503SOL    HW1 1508   1.799   0.372   1.313 -1.5927 -1.3306  0.1093
  503SOL    HW2 1509   1.746   0.536   1.281 -1.5567 -0.5393  1.0234
  504SOL     OW 1510   1.613   0.820   2.144 -0.0368 -0.0554 -0.3482
  504SOL    HW1 1511   1.583   0.853   2.238 -0.7446  0.5524  2.4080
  504SOL    HW2 1512   1.540   0.851   2.076 -1.6044  1.9155 -2.7879
  505SOL     OW 1513   1.090   0.183   2.695 -0.2108  0.6950 -0.2394
  505SOL    HW1 1514   1.163   0.122   2.652  0.4775 -0.9358 -0.6344
  505SOL    HW2 1515   1.035   0.126   2.755  0.3411 -2.2138 -1.0125
  506SOL     OW 1516   0.334   0.232   1.392  0.3201  0.3740  0.0537
  506SOL    HW1 1517   0.360   0.166   1.462 -0.2361 -0.2632 -1.3086
  506SOL    HW2 1518   0.276   0.307   1.426  0.1384  0.3835 -1.8637
  507SOL     OW 1519   1.399   0.025   3.004 -0.2814  0.1999 -0.5675
  507SOL    HW1 1520   1.470   3.070   3.057 -1.5054  2.0637  2.9340
  507SOL    HW2 1521   1.444   0.091   2.937  2.0833  3.0717 -3.8033
  508SOL     OW 1522   2.181   0.623   2.607 -0.5368  0.1704  0.4542
  508SOL    HW1 1523   2.197   0.531   2.565 -0.2286  0.8623 -1.3981
  508SOL    HW2 1524   2.266   0.680   2.584  0.1959  1.9667 -1.6642
  509SOL     OW 1525   0.752   1.474   1.826 -0.0354  0.1830  0.5025
  509SOL    HW1 1526   0.803   1.561   1.810 -2.7146 -2.2691 -0.8399
  509SOL    HW2 1527   0.689   1.484   1.905 -0.5450 -0.3277 -0.6632
  510SOL     OW 1528   3.040   1.181   0.854 -0.0903 -0.2386 -0.0671
  510SOL    HW1 1529   3.029   1.280   0.843  1.0972 -0.3312  0.2945
  510SOL    HW2 1530   3.069   1.172   0.953 -0.4028  0.0229  1.4652
  511SOL     OW 1531   1.700   1.784   0.834  0.4566  0.4934  0.2352
  511SOL    HW1 1532   1.671   1.872   0.890 -1.5129  1.9855  0.8433
  511SOL    HW2 1533   1.795   1.751   0.864 -1.3356  3.7906  1.0721
  512SOL     OW 1534   0.812   1.121   0.368  0.0407 -0.4085 -0.0908
  512SOL    HW1 1535   0.797   1.173   0.283 -0.3124  0.2844 -0.0329
  512SOL    HW2 1536   0.870   1.171   0.437 -0.7660 -1.6976  1.7643
  513SOL     OW 1537   0.494   2.337   0.565  0.1067 -0.3813  0.3183
  513SOL    HW1 1538   0.502   2.426   0.613  1.5015  0.7304  0.4348
  513SOL    HW2 1539   0.568   2.274   0.594 -0.4067  2.3766  0.4652
  514SOL     OW 1540   2.708   2.049   2.337  0.3324  0.1924  0.3778
  514SOL    HW1 1541   2.708   2.146   2.369  0.7129 -2.7181 -0.1386
  514SOL    HW2 1542   2.762   2.046   2.252 -0.0849 -0.9843 -0.4508
  515SOL     OW 1543   2.628   0.738   0.181 -1.0267 -0.0626 -1.0853
  515SOL    HW1 1544   2.652   0.809   0.248 -1.9937 -0.3508 -2.0661
  515SOL    HW2 1545   2.543   0.694   0.208  1.9415  0.4598  3.7196
  516SOL     OW 1546   2.142   2.903   0.830  0.1047  0.0643 -0.2622
  516SOL    HW1 1547   2.143   3.010   0.829  0.8050  1.9703 -0.0127
  516SOL    HW2 1548   2.140   2.872   0.733 -1.2296  0.3022  0.7414
  517SOL     OW 1549   1.438   1.895   2.884  0.4295 -0.0482 -0.3613
  517SOL    HW1 1550   1.434   1.804   2.934 -3.1395  2.0550 -0.2008
  517SOL    HW2 1551   1.346   1.941   2.888 -1.0362  1.8972 -1.2266
  518SOL     OW 1552   0.876   0.860   1.700  0.1832 -0.0743  0.2561
  518SOL    HW1 1553   0.813   0.787   1.662 -2.7436 -2.3829  0.0129
  518SOL    HW2 1554   0.942   0.825   1.773  1.9275 -3.0527  1.4189
  519SOL     OW 1555   2.922   1.570   0.358 -0.3505 -0.9005  0.5290
  519SOL    HW1 1556   2.908   1.590   0.453 -1.5674 -1.2242 -2.6329
  519SOL    HW2 1557   3.015   1.527   0.353 -0.1316 -0.3305 -0.4636
  520SOL     OW 1558   2.353   2.097   1.825 -0.0472  0.1836  0.4250
  520SOL    HW1 1559   2.431   2.113   1.894  1.1834 -0.4253  2.9765
  520SOL    HW2 1560   2.265   2.103   1.874 -0.2196  0.1668 -0.0110
  521SOL     OW 1561   0.865   2.993   2.585 -0.1141  0.8810 -0.4386
  521SOL    HW1 1562   0.877   3.006   2.686 -3.3859  0.5320 -0.5761
  521SOL    HW2 1563   0.932   3.050   2.536 -0.4437  0.5928 -0.4966
  522SOL     OW 1564   2.234   0.508   2.293  0.1790  0.4675  0.4671
  522SOL    HW1 1565   2.326   0.553   2.294  1.2046 -2.1634  1.2892
  522SOL    HW2 1566   2.184   0.536   2.208 -0.3457 -0.9799 -0.3207
  523SOL     OW 1567   1.962   2.544   1.271 -0.3582  0.0258 -0.3424
  523SOL    HW1 1568   1.892   2.513   1.334 -0.2787  0.1010  0.7280
  523SOL    HW2 1569   2.047   2.490   1.287 -3.0399  0.6105 -1.4777
  524SOL     OW 1570   1.559   2.131   3.016 -0.3991  0.2439 -0.1732
  524SOL    HW1 1571   1.522   2.214   2.967  0.1863 -0.0669  1.7155
  524SOL    HW2 1572   1.528   2.043   2.974 -2.5663  0.6722  3.3611
  525SOL     OW 1573   0.140   0.743   0.064 -0.3800  0.1180 -0.3119
  525SOL    HW1 1574   0.243   0.726   0.057  0.5795 -2.8649 -1.1746
  525SOL    HW2 1575   0.091   0.706   3.076 -0.1079  2.1731  1.7307
  526SOL     OW 1576   1.014   2.842   0.581 -0.2802  0.3082  0.1782
  526SOL    HW1 1577   1.114   2.817   0.561  0.2838  1.9437 -1.9152
  526SOL    HW2 1578   1.010   2.936   0.626  0.6020  1.4711  1.4199
  527SOL     OW 1579   2.755   1.883   0.521 -0.0223  0.7128 -0.2383
  527SOL    HW1 1580   2.673   1.869   0.580 -2.1290 -1.1048 -2.0941
  527SOL    HW2 1581   2.736   1.876   0.423  1.9281 -1.3554  2.3384
  528SOL     OW 1582   0.621   0.807   2.231  0.0149  0.1314  0.0320
  528SOL    HW1 1583   0.533   0.855   2.200 -2.6562 -1.5138  0.6367
  528SOL    HW2 1584   0.654   0.754   2.149  0.0507 -2.0673 -1.5043
  529SOL     OW 1585   1.518   1.877   2.624 -0.3102 -0.1149  0.3981
  529SOL    HW1 1586   1.509   1.885   2.724 -2.7493  0.7877 -0.5390
  529SOL    HW2 1587   1.425   1.897   2.585 -1.5640 -2.4634 -0.0658
  530SOL     OW 1588   1.537   1.042   2.406 -0.2654 -0.3854 -0.3262
  530SOL    HW1 1589   1.523   1.084   2.314  0.1048  0.2015  2.1910
  530SOL    HW2 1590   1.450   0.995   2.429 -0.4705 -0.0571 -3.3503
  531SOL     OW 1591   0.492   2.229   2.532  0.4314  0.0138  0.3738
  531SOL    HW1 1592   0.418   2.294   2.504  1.3782 -0.0906  0.0144
  531SOL    HW2 1593   0.500   2.225   2.632 -1.8352 -2.5114 -6.3898
  532SOL     OW 1594   2.479   1.052   0.531  0.0099 -0.5884  0.1198
  532SOL    HW1 1595   2.506   1.121   0.600  0.9328  0.0296 -2.5541
  532SOL    HW2 1596   2.416   0.979   0.567 -0.9162 -1.6245 -2.7842
  533SOL     OW 1597   3.022   0.274   1.732  0.1306 -0.4085 -0.3226
  533SOL    HW1 1598   3.050   0.360   1.772 -0.4455 -0.7603 -0.2031
  533SOL    HW2 1599   3.038   0.287   1.633  0.5053 -0.0001  2.1160
  534SOL     OW 1600   0.763   0.129   0.083 -0.7298 -0.0677 -0.6570
  534SOL    HW1 1601   0.687   0.187   0.123  1.6359 -0.1405  0.1064
  534SOL    HW2 1602   0.766   0.143   3.076 -2.3901 -1.2075 -0.9191
  535SOL     OW 1603   0.322   0.119   0.269  0.0219  1.2966  0.2780
  535SOL    HW1 1604   0.228   0.127   0.241  3.1989  0.4074 -0.9192
  535SOL    HW2 1605   0.335   0.136   0.364 -0.5643  0.7492 -5.6738
  536SOL     OW 1606   0.415   1.714   1.314  0.5876  0.2875 -0.2697
  536SOL    HW1 1607   0.445   1.720   1.217  2.4187 -0.4084 -2.4878
  536SOL    HW2 1608   0.493   1.734   1.373  0.7383 -0.5896 -0.6919
  537SOL     OW 1609   0.908   2.799   1.892  0.2989 -0.0063  0.0398
  537SOL    HW1 1610   1.000   2.804   1.844  1.0740 -1.0602  0.7905
  537SOL    HW2 1611   0.878   2.704   1.897  1.5037  1.1931 -1.1385
  538SOL     OW 1612   0.126   1.814   2.975 -0.4681 -0.2983  0.0333
  538SOL    HW1 1613   0.160   1.871   3.055  1.3069  1.1992  1.8871
  538SOL    HW2 1614   0.206   1.763   2.931 -1.0203 -1.3658  0.2753
  539SOL     OW 1615   2.401   0.936   2.788 -0.2955 -0.2477 -0.4370
  539SOL    HW1 1616   2.402   0.863   2.717  0.6186  2.2744  0.7598
  539SOL    HW2 1617   2.478   1.002   2.788 -0.8903  1.4933  2.8749
  540SOL     OW 1618   1.897   0.176   2.634 -0.4953 -0.0012 -0.0662
  540SOL    HW1 1619   1.906   0.088   2.696 -0.5964 -1.0494  0.9545
  540SOL    HW2 1620   1.976   0.172   2.563  1.1827 -0.6078 -3.3825
  541SOL     OW 1621   0.647   3.064   2.122 -0.1195 -0.0883  0.6242
  541SOL    HW1 1622   0.644   0.016   2.214  2.4128  1.1391 -0.0299
  541SOL    HW2 1623   0.720   0.009   2.063 -0.6097  1.6628 -0.1520
  542SOL     OW 1624   1.875   2.701   3.015  0.0132  0.4849  0.4362
  542SOL    HW1 1625   1.833   2.661   2.928  0.6747  2.9004 -1.0258
  542SOL    HW2 1626   1.852   2.795   3.039 -0.0542 -1.1038  1.4541
  543SOL     OW 1627   1.034   0.261   0.515  0.3109  0.4818 -0.1035
  543SOL    HW1 1628   1.102   0.295   0.445 -0.7420  0.8698 -2.4156
  543SOL    HW2 1629   0.968   0.199   0.466  1.6031  0.1667 -1.2099
  544SOL     OW 1630   2.554   1.209   1.822  0.2226  0.1774 -0.2838
  544SOL    HW1 1631   2.490   1.143   1.861  1.3612 -1.0617  2.4954
  544SOL    HW2 1632   2.566   1.277   1.897 -0.1118  3.0883 -1.5184
  545SOL     OW 1633   2.133   1.655   1.159 -0.1291 -0.1131 -0.1839
  545SOL    HW1 1634   2.230   1.663   1.141 -0.3724  2.0981 -0.0380
  545SOL    HW2 1635   2.103   1.585   1.229 -0.3455 -0.0959 -0.3473
  546SOL     OW 1636   0.086   3.078   2.131  0.1020 -0.2085  0.5073
  546SOL    HW1 1637   0.122   0.048   2.058  0.0209  1.1173 -0.8387
  546SOL    HW2 1638   0.123   0.001   2.219 -1.6645  0.7665 -4.9183
  547SOL     OW 1639   1.366   0.605   0.851  0.0873  0.0916 -0.1594
  547SOL    HW1 1640   1.327   0.659   0.928 -0.6782  3.4082 -0.1935
  547SOL    HW2 1641   1.390   0.514   0.891  0.0358  0.2879  0.4122
  548SOL     OW 1642   1.319   2.618   2.676  0.3030 -0.3018  0.2019
  548SOL    HW1 1643   1.304   2.540   2.740 -1.1957  2.2462  0.0165
  548SOL    HW2 1644   1.377   2.595   2.596 -1.8039 -0.5935  2.2591
  549SOL     OW 1645   2.169   0.471   0.162  0.5011  0.0098  0.5376
  549SOL    HW1 1646   2.119   0.557   0.127 -1.3487  1.8197  1.9051
  549SOL    HW2 1647   2.225   0.499   0.237 -2.6945 -0.2621 -3.1220
  550SOL     OW 1648   2.981   2.013   0.470  0.1990  0.2917 -0.1634
  550SOL    HW1 1649   2.891   1.966   0.473  0.2272 -0.1573  1.5921
  550SOL    HW2 1650   3.053   1.948   0.499 -1.1450  0.8640  0.5034
  551SOL     OW 1651   1.290   2.843   2.313  0.2955 -0.0869 -0.0684
  551SOL    HW1 1652   1.356   2.877   2.381  0.5922  1.5902 -2.8686
  551SOL    HW2 1653   1.223   2.924   2.296 -0.0074  2.2425 -0.3785
  552SOL     OW 1654   2.996   2.229   2.509  0.2290  0.1516  0.4227
  552SOL    HW1 1655   2.997   2.146   2.454 -0.6077  3.4525  0.4705
  552SOL    HW2 1656   2.906   2.250   2.550 -1.5904  0.8555  0.9770
  553SOL     OW 1657   0.120   0.076   0.761 -0.5522  0.5816  0.1545
  553SOL    HW1 1658   0.081   0.128   0.833  0.8733  1.1871 -0.4635
  553SOL    HW2 1659   0.071   3.081   0.744 -1.1802 -0.0568 -2.6690
  554SOL     OW 1660   2.245   2.167   1.553  0.3633 -0.1445 -0.1743
  554SOL    HW1 1661   2.315   2.146   1.625 -0.3731  2.4739  0.0686
  554SOL    HW2 1662   2.233   2.270   1.546 -0.3428  3.4098  1.4643
  555SOL     OW 1663   1.725   2.246   2.072  0.0263 -0.3313  0.0989
  555SOL    HW1 1664   1.710   2.152   2.111 -0.6912 -0.5655 -2.1962
  555SOL    HW2 1665   1.820   2.257   2.031  1.2646  1.5749 -0.4503
  556SOL     OW 1666   1.265   1.384   1.229  0.3450 -0.1564  0.3657
  556SOL    HW1 1667   1.256   1.398   1.127  0.2989 -0.7752 -0.8695
  556SOL    HW2 1668   1.257   1.472   1.280  1.5155  1.6969 -0.3866
  557SOL     OW 1669   2.139   2.839   1.890  0.7257  0.7741  0.3778
  557SOL    HW1 1670   2.204   2.769   1.921 -3.0724  2.0350  0.9342
  557SOL    HW2 1671   2.119   2.891   1.978 -0.3436 -2.6975  0.5969
  558SOL     OW 1672   0.243   2.798   2.055 -0.5147 -0.1354 -0.1815
  558SOL    HW1 1673   0.238   2.883   2.115 -0.7185  1.3314  0.1468
  558SOL    HW2 1674   0.174   2.806   1.983  0.1373 -0.9437  2.2439
  559SOL     OW 1675   1.950   0.114   0.705  0.3098  0.9294 -0.1984
  559SOL    HW1 1676   2.026   0.130   0.771  0.3037  0.4712 -0.5712
  559SOL    HW2 1677   1.956   0.185   0.629 -1.8072 -1.4875 -0.8509
  560SOL     OW 1678   1.762   2.804   0.671  0.3226 -0.2036  0.4489
  560SOL    HW1 1679   1.731   2.798   0.768 -1.0421  3.1779  2.1963
  560SOL    HW2 1680   1.685   2.799   0.605  0.8952  1.4703 -1.3619
  561SOL     OW 1681   0.744   0.253   1.017  0.0733  0.2493  0.3318
  561SOL    HW1 1682   0.751   0.343   0.976  0.9297 -0.1576  1.2903
  561SOL    HW2 1683   0.819   0.197   0.978 -0.5771 -0.9426 -1.3429
  562SOL     OW 1684   0.557   1.022   2.449 -0.1983 -0.0663  0.0182
  562SOL    HW1 1685   0.469   1.065   2.425  2.1603  1.4116  0.7704
  562SOL    HW2 1686   0.597   0.961   2.378  2.1846  0.1285 -2.6135
  563SOL     OW 1687   1.840   2.130   2.319  0.1202  0.1658  0.2575
  563SOL    HW1 1688   1.936   2.099   2.298 -2.9147  0.6566 -0.0510
  563SOL    HW2 1689   1.766   2.089   2.263 -2.4812  2.9237  0.6073
  564SOL     OW 1690   2.811   1.018   1.048  0.1907  0.0320 -0.4881
  564SOL    HW1 1691   2.817   0.917   1.046  0.7117 -0.7206  0.8103
  564SOL    HW2 1692   2.796   1.067   0.959  1.5180 -1.9640 -1.4963
  565SOL     OW 1693   1.000   0.934   0.140 -0.5366  0.1215 -0.4448
  565SOL    HW1 1694   0.946   0.849   0.129 -0.3155 -1.7755  0.2051
  565SOL    HW2 1695   0.950   1.017   0.106 -1.2602 -0.7267  2.8289
  566SOL     OW 1696   2.232   0.304   2.646  0.1176 -0.7565 -0.5213
  566SOL    HW1 1697   2.263   0.218   2.607 -1.2216 -0.1057  0.2106
  566SOL    HW2 1698   2.232   0.303   2.747 -1.4138 -0.5299 -0.4354
  567SOL     OW 1699   1.742   0.634   0.586 -0.8532 -0.4600  0.4856
  567SOL    HW1 1700   1.675   0.639   0.507 -2.9368 -0.6196 -2.2075
  567SOL    HW2 1701   1.812   0.704   0.564 -0.3697  2.1543  2.4069
  568SOL     OW 1702   1.878   1.818   2.951  0.0162 -0.2817  0.5943
  568SOL    HW1 1703   1.797   1.769   2.987  0.9528 -1.6897 -1.0215
  568SOL    HW2 1704   1.910   1.771   2.864  1.9593  1.1508  0.9138
  569SOL     OW 1705   1.968   1.292   2.971 -0.2781 -0.4846  0.5061
  569SOL    HW1 1706   1.896   1.344   3.017  1.4860 -1.1927  1.9735
  569SOL    HW2 1707   2.055   1.303   3.021 -0.7299 -2.1812 -0.9430
  570SOL     OW 1708   0.335   2.249   1.732  0.1299 -0.2096 -0.1650
  570SOL    HW1 1709   0.433   2.277   1.713 -0.2961 -0.0951 -2.6407
  570SOL    HW2 1710   0.284   2.328   1.770  0.1252  0.7125 -1.8559
  571SOL     OW 1711   0.277   1.328   1.838 -0.3600  0.1625  0.1914
  571SOL    HW1 1712   0.382   1.318   1.821  2.0657  0.9557 -0.2893
  571SOL    HW2 1713   0.225   1.240   1.817  4.2684 -2.1097  0.0763
  572SOL     OW 1714   1.364   1.873   0.518 -0.3964  0.5261  0.1489
  572SOL    HW1 1715   1.360   1.970   0.491  0.1435  0.2749  0.6017
  572SOL    HW2 1716   1.422   1.815   0.459  1.9396 -0.2000 -0.5567
  573SOL     OW 1717   1.861   2.201   0.438  0.0205 -0.2396  0.3912
  573SOL    HW1 1718   1.801   2.198   0.359 -2.9673  0.0069 -0.2960
  573SOL    HW2 1719   1.828   2.276   0.505  0.3889  0.3186  0.7791
  574SOL     OW 1720   0.699   0.174   1.293 -0.3119 -1.0601  0.2829
  574SOL    HW1 1721   0.636   0.097   1.304  2.5013 -1.3860 -0.4772
  574SOL    HW2 1722   0.705   0.198   1.193 -2.2619  1.5296 -2.3012
  575SOL     OW 1723   0.536   1.129   1.477  0.4552  0.5148  0.2272
  575SOL    HW1 1724   0.630   1.165   1.454  3.2342  0.2179 -1.4242
  575SOL    HW2 1725   0.527   1.105   1.573 -2.0046  1.7287 -0.6308
  576SOL     OW 1726   2.702   2.979   1.196 -0.0463  0.0767  0.1504
  576SOL    HW1 1727   2.651   2.924   1.125  1.0448  0.5256 -0.3760
  576SOL    HW2 1728   2.655   3.062   1.220  0.1314 -1.1329  0.9272
  577SOL     OW 1729   1.000   1.263   2.137 -0.3797 -0.0016  0.1788
  577SOL    HW1 1730   0.970   1.283   2.042  1.5893  0.2435 -0.5653
  577SOL    HW2 1731   0.965   1.174   2.178  1.8002  0.2764  0.6839
  578SOL     OW 1732   1.791   1.092   2.471  0.0257  0.4212 -0.0417
  578SOL    HW1 1733   1.696   1.057   2.467 -1.2095 -2.4550 -1.5209
  578SOL    HW2 1734   1.797   1.190   2.502  0.6785  0.3113 -0.9847
  579SOL     OW 1735   1.605   2.206   1.812 -0.5698 -0.0983 -0.2545
  579SOL    HW1 1736   1.642   2.229   1.906  0.0861 -0.4417 -0.2898
  579SOL    HW2 1737   1.517   2.154   1.828  1.2756  1.7601 -2.0925
  580SOL     OW 1738   1.308   1.763   0.069 -0.7303  0.1246 -0.5676
  580SOL    HW1 1739   1.337   1.667   0.089 -3.0861 -1.5585  1.3279
  580SOL    HW2 1740   1.211   1.770   0.081  1.4903 -0.2676 -0.2994
  581SOL     OW 1741   1.191   0.915   2.170 -0.3241  0.2625  0.9338
  581SOL    HW1 1742   1.093   0.944   2.189  0.1367  0.5095  2.5556
  581SOL    HW2 1743   1.242   0.912   2.257  2.2875 -1.8391 -0.6592
  582SOL     OW 1744   0.779   1.181   1.393 -0.7569 -0.1088 -0.3387
  582SOL    HW1 1745   0.747   1.274   1.362 -0.0612 -0.4870 -0.7051
  582SOL    HW2 1746   0.840   1.143   1.318  1.0622 -0.0130 -2.7755
  583SOL     OW 1747   0.959   1.270   1.847 -0.2008 -0.6066  0.3423
  583SOL    HW1 1748   0.958   1.219   1.759 -1.5038 -0.2564  3.3278
  583SOL    HW2 1749   0.890   1.345   1.829 -2.9934  2.0483 -0.3250
  584SOL     OW 1750   2.626   2.649   0.734  0.2636  0.0899  0.5720
  584SOL    HW1 1751   2.579   2.586   0.802 -1.9531  1.3611  1.8312
  584SOL    HW2 1752   2.605   2.621   0.639 -0.5090 -5.3086  1.5314
  585SOL     OW 1753   1.998   0.180   2.934 -0.0169 -0.4978  0.4696
  585SOL    HW1 1754   2.083   0.238   2.941 -1.0002 -2.4893  1.2278
  585SOL    HW2 1755   1.995   0.112   2.861  1.5146  0.3973 -0.4451
  586SOL     OW 1756   0.329   2.318   0.859  0.3292  0.8285 -0.1672
  586SOL    HW1 1757   0.326   2.409   0.815 -1.4232 -0.0987  2.0871
  586SOL    HW2 1758   0.268   2.316   0.943 -3.7052  0.1896  2.0731
  587SOL     OW 1759   1.661   1.701   0.005  0.7066  0.1947 -0.1045
  587SOL    HW1 1760   1.638   1.775   0.069 -0.5756 -2.1112 -1.8259
  587SOL    HW2 1761   1.578   1.646   3.086  0.7406  0.3147  1.1040
  588SOL     OW 1762   0.381   0.117   1.156  0.0324  0.3813  0.0188
  588SOL    HW1 1763   0.432   0.171   1.088 -2.8135  0.2031 -2.7410
  588SOL    HW2 1764   0.373   0.167   1.246  3.9371  3.2066 -0.5981
  589SOL     OW 1765   1.370   0.241   0.798  0.7269  0.1365  0.3292
  589SOL    HW1 1766   1.270   0.250   0.786  0.3358 -1.7056  0.4009
  589SOL    HW2 1767   1.398   0.283   0.886 -0.1664 -1.3906  1.4202
  590SOL     OW 1768   1.054   0.964   2.869  0.7022  0.5343 -0.0464
  590SOL    HW1 1769   1.128   1.007   2.813  1.7085 -1.7353 -0.8602
  590SOL    HW2 1770   1.095   0.927   2.953 -0.7884 -1.3855 -0.9247
  591SOL     OW 1771   2.649   2.298   2.447 -0.2871  0.0250  0.3511
  591SOL    HW1 1772   2.544   2.298   2.448 -1.7978 -2.1834 -0.4210
  591SOL    HW2 1773   2.693   2.388   2.432 -1.3557 -1.2108  1.3895
  592SOL     OW 1774   2.027   1.902   1.257 -0.1362 -0.0111 -0.0194
  592SOL    HW1 1775   2.022   1.930   1.358 -0.2521  1.0026  1.4780
  592SOL    HW2 1776   2.086   1.821   1.247 -3.6796 -1.1971  0.2215
  593SOL     OW 1777   1.128   0.808   1.448  0.0568 -0.0151 -0.4086
  593SOL    HW1 1778   1.024   0.797   1.447  0.7127 -4.2393 -2.4926
  593SOL    HW2 1779   1.163   0.751   1.374  0.4428 -1.1781  1.5169
  594SOL     OW 1780   2.443   1.118   2.428 -0.2974  0.1607  0.6365
  594SOL    HW1 1781   2.409   1.117   2.522  2.3154 -0.7071 -2.8331
  594SOL    HW2 1782   2.409   1.035   2.379 -1.7560 -2.0136 -0.8840
  595SOL     OW 1783   3.070   0.185   0.548 -0.0502  0.2113  0.0187
  595SOL    HW1 1784   0.016   0.237   0.622 -0.9325 -2.1304 -0.8426
  595SOL    HW2 1785   0.008   0.085   0.550  0.2440 -0.7202 -0.5943
  596SOL     OW 1786   0.025   1.413   1.122 -0.1256  0.1809  0.2434
  596SOL    HW1 1787   0.107   1.434   1.177  1.0696 -0.9221  0.3069
  596SOL    HW2 1788   3.043   1.366   1.171  0.2330  0.5828 -1.6660
  597SOL     OW 1789   1.816   1.476   0.477 -0.1325 -0.4207 -0.2792
  597SOL    HW1 1790   1.781   1.562   0.524  0.5161  1.5106 -0.7744
  597SOL    HW2 1791   1.865   1.494   0.391 -0.8544 -1.9957  2.1797
  598SOL     OW 1792   0.281   2.543   1.677 -0.0741 -0.0572  0.1714
  598SOL    HW1 1793   0.272   2.583   1.582 -0.7808 -1.4199  2.3477
  598SOL    HW2 1794   0.371   2.573   1.713  1.4272 -0.0624  2.3397
  599SOL     OW 1795   2.800   1.181   2.573  0.6086 -0.5364 -0.1380
  599SOL    HW1 1796   2.840   1.174   2.670  0.5301 -2.1309  1.9334
  599SOL    HW2 1797   2.820   1.275   2.533 -0.6386  2.1025 -4.1770
  600SOL     OW 1798   0.482   1.165   0.211  0.5436 -0.3632 -0.5506
  600SOL    HW1 1799   0.572   1.193   0.174 -2.1774  1.0198 -0.5257
  600SOL    HW2 1800   0.487   1.172   0.314  2.5394  0.0377  0.6706
  601SOL     OW 1801   0.537   0.905   0.856  0.2843 -0.0071  0.1228
  601SOL    HW1 1802   0.562   0.926   0.955 -1.4996  1.5576  1.9271
  601SOL    HW2 1803   0.436   0.907   0.846  1.4192 -2.3028 -0.6393
  602SOL     OW 1804   1.422   2.500   0.424 -0.1031 -0.5460 -0.3388
  602SOL    HW1 1805   1.465   2.454   0.504 -2.5929  1.1951 -0.2874
  602SOL    HW2 1806   1.492   2.544   0.361 -0.9484  0.1039 -0.5229
  603SOL     OW 1807   0.986   2.555   1.995  0.1719 -0.7553 -0.2854
  603SOL    HW1 1808   0.989   2.633   2.064  0.1089  1.0380  2.8831
  603SOL    HW2 1809   0.907   2.490   2.015 -0.9388  1.1655 -0.9948
  604SOL     OW 1810   0.345   0.327   2.390  0.5976 -0.3266 -0.1662
  604SOL    HW1 1811   0.296   0.242   2.391  2.5921  2.6545  2.3474
  604SOL    HW2 1812   0.274   0.396   2.380  3.0938 -2.5043  1.0810
  605SOL     OW 1813   2.849   1.098   1.497 -0.2806 -0.3291  0.2369
  605SOL    HW1 1814   2.761   1.153   1.498  0.4672 -1.1902  1.0099
  605SOL    HW2 1815   2.839   1.010   1.547  0.4969 -0.0151  2.1098
  606SOL     OW 1816   0.798   1.734   2.635 -0.0959 -0.1063  0.1954
  606SOL    HW1 1817   0.726   1.776   2.581  1.7977  1.2906  2.9213
  606SOL    HW2 1818   0.835   1.647   2.595 -1.7909 -1.0744  0.8119
  607SOL     OW 1819   0.503   2.988   0.238 -0.4027  0.1134  0.2305
  607SOL    HW1 1820   0.545   2.953   0.154 -1.7060 -0.0513 -0.0269
  607SOL    HW2 1821   0.439   3.062   0.210 -1.7341 -1.7593 -1.9469
  608SOL     OW 1822   2.271   1.690   2.074  0.1975 -0.2828 -0.3628
  608SOL    HW1 1823   2.215   1.721   1.999 -0.4570  1.9033  0.7943
  608SOL    HW2 1824   2.210   1.647   2.144 -2.3037 -0.9157 -0.1785
  609SOL     OW 1825   2.658   0.304   1.110 -0.0681 -0.2142  0.0922
  609SOL    HW1 1826   2.663   0.384   1.042  2.2674 -2.3746  0.3327
  609SOL    HW2 1827   2.602   0.235   1.067  2.1783  1.2237 -2.8750
  610SOL     OW 1828   0.254   2.790   0.385  0.3927 -0.1756 -0.1049
  610SOL    HW1 1829   0.351   2.763   0.412  0.9258 -0.4278  0.9687
  610SOL    HW2 1830   0.244   2.807   0.284  0.1856 -1.1174  0.8715
  611SOL     OW 1831   1.597   1.261   0.088 -0.3560  0.5444 -0.3651
  611SOL    HW1 1832   1.646   1.176   0.099 -0.5735  3.0989 -0.2150
  611SOL    HW2 1833   1.547   1.285   0.175  2.1282 -0.0238 -3.5961
  612SOL     OW 1834   0.729   2.517   1.830 -0.3409  0.5608 -0.1895
  612SOL    HW1 1835   0.732   2.502   1.931  0.1193  1.3217 -2.3454
  612SOL    HW2 1836   0.657   2.585   1.807  1.6956 -2.4054  1.7718
  613SOL     OW 1837   0.633   2.599   0.669 -0.3050  0.0160 -0.4417
  613SOL    HW1 1838   0.629   2.650   0.756  0.2872 -1.4797 -1.1708
  613SOL    HW2 1839   0.728   2.584   0.633 -2.6587 -2.1945  3.3428
  614SOL     OW 1840   2.294   2.748   1.475 -0.3441 -0.9133  0.1804
  614SOL    HW1 1841   2.389   2.719   1.503  0.1088 -2.3999 -1.3596
  614SOL    HW2 1842   2.228   2.711   1.538  3.0392  0.4155 -1.4383
  615SOL     OW 1843   1.728   1.040   0.180  0.1414  0.0747  0.5163
  615SOL    HW1 1844   1.694   1.052   0.277 -0.6259  1.8231  3.5053
  615SOL    HW2 1845   1.808   0.974   0.176  5.1457 -1.7053  2.6450
  616SOL     OW 1846   1.927   0.880   0.177  1.1355 -0.1686 -0.0283
  616SOL    HW1 1847   2.005   0.933   0.205 -1.2454 -1.8419 -2.5797
  616SOL    HW2 1848   1.944   0.798   0.122 -0.6573 -2.1295 -0.2435
  617SOL     OW 1849   1.034   0.692   2.713  0.2671  0.1525 -0.5051
  617SOL    HW1 1850   1.129   0.729   2.710  0.0433 -0.7476 -1.3400
  617SOL    HW2 1851   1.003   0.691   2.810 -3.8779 -0.9234 -3.3615
  618SOL     OW 1852   0.981   3.008   2.043 -0.2426 -1.3110  0.1756
  618SOL    HW1 1853   0.953   2.939   1.972  0.0627  1.1935 -1.0838
  618SOL    HW2 1854   0.936   0.007   2.022  0.0206 -0.2661  0.1711
  619SOL     OW 1855   2.959   1.304   1.328  0.4091 -0.1932  0.2350
  619SOL    HW1 1856   2.892   1.380   1.354  0.1444  1.5071  1.2460
  619SOL    HW2 1857   2.957   1.232   1.396 -0.4401 -3.3902 -1.0425
  620SOL     OW 1858   0.003   0.899   2.834  0.1148  0.2987  0.2021
  620SOL    HW1 1859   0.017   0.803   2.862 -0.5725 -0.5792  0.3642
  620SOL    HW2 1860   0.091   0.957   2.848  1.0573 -0.3641  0.3323
  621SOL     OW 1861   2.266   2.039   2.154 -0.7430 -0.3410 -0.5678
  621SOL    HW1 1862   2.234   2.077   2.063  0.4951 -2.5400 -0.4599
  621SOL    HW2 1863   2.345   2.096   2.194  2.9121  2.0626  0.8340
  622SOL     OW 1864   1.137   0.565   1.992 -0.3060 -0.3584  0.1027
  622SOL    HW1 1865   1.070   0.528   2.061 -1.5582 -1.8413 -1.9229
  622SOL    HW2 1866   1.233   0.535   2.009 -0.0058 -1.4038 -0.8518
  623SOL     OW 1867   0.942   1.005   2.234  0.0634  0.3372  0.5759
  623SOL    HW1 1868   0.856   0.954   2.209 -0.7106 -1.1084  2.1147
  623SOL    HW2 1869   0.938   1.023   2.335  1.9211 -0.5447 -1.2525
  624SOL     OW 1870   2.659   0.903   0.392  0.0043  0.0857  0.1824
  624SOL    HW1 1871   2.598   0.971   0.439  1.6067  1.9911 -1.8502
  624SOL    HW2 1872   2.725   0.861   0.464  1.1359 -2.4067  2.8471
  625SOL     OW 1873   0.893   1.564   0.839  0.6434  0.0958 -0.0877
  625SOL    HW1 1874   0.813   1.626   0.838  0.4080  1.5142  0.1283
  625SOL    HW2 1875   0.951   1.586   0.921  2.0648  0.5633 -1.5460
  626SOL     OW 1876   1.853   0.879   2.595 -0.4487 -0.0563 -0.5530
  626SOL    HW1 1877   1.930   0.905   2.658 -0.8564  1.6043  1.7486
  626SOL    HW2 1878   1.823   0.970   2.557  1.9826  1.2440 -3.0554
  627SOL     OW 1879   1.242   2.910   2.932 -0.6336 -0.3794 -0.2079
  627SOL    HW1 1880   1.296   2.990   2.954 -0.1556  0.0345 -0.4701
  627SOL    HW2 1881   1.219   2.902   2.831  0.1746 -0.0239 -0.3695
  628SOL     OW 1882   2.173   0.019   2.360  0.1462 -0.2885 -0.5746
  628SOL    HW1 1883   2.234   3.091   2.438  0.7764  1.2668  2.1225
  628SOL    HW2 1884   2.208   0.093   2.303 -1.2064 -0.7678  0.4334
  629SOL     OW 1885   0.752   0.150   2.916 -0.2449 -0.0771 -0.6968
  629SOL    HW1 1886   0.666   0.109   2.872  2.6533 -1.1812  0.4824
  629SOL    HW2 1887   0.757   0.249   2.891  1.2433  0.0880 -0.9845
  630SOL     OW 1888   1.037   0.446   2.598 -0.3293  0.0981  0.6545
  630SOL    HW1 1889   1.055   0.383   2.678  2.9382 -0.6117  2.1665
  630SOL    HW2 1890   1.029   0.538   2.633  1.4883 -0.2028  1.7693
  631SOL     OW 1891   2.148   1.234   0.583  0.1339  0.3811 -0.0045
  631SOL    HW1 1892   2.049   1.266   0.613 -1.1482 -2.2323  0.4537
  631SOL    HW2 1893   2.190   1.297   0.513 -1.2235 -1.9952  0.7874
  632SOL     OW 1894   1.987   0.937   1.502 -0.3321 -0.3794 -0.2257
  632SOL    HW1 1895   2.034   0.943   1.415  1.3563  1.8897  4.6169
  632SOL    HW2 1896   1.894   0.903   1.483  1.1132 -1.4555  1.6344
  633SOL     OW 1897   1.063   1.635   0.184 -0.0538  0.2227  0.3638
  633SOL    HW1 1898   1.007   1.667   0.104  0.2539  1.1881 -2.8052
  633SOL    HW2 1899   1.015   1.646   0.275  2.3026  3.0550  3.1504
  634SOL     OW 1900   2.454   0.025   1.604 -0.0800 -0.2786 -0.1340
  634SOL    HW1 1901   2.368   0.052   1.557 -3.4547  2.0634 -1.0027
  634SOL    HW2 1902   2.443   3.084   1.700  1.1551  0.8875  1.1860
  635SOL     OW 1903   1.747   0.308   0.965 -0.0507 -0.2891  0.0886
  635SOL    HW1 1904   1.759   0.341   0.871 -0.6415  0.5411  0.4627
  635SOL    HW2 1905   1.755   0.207   0.974 -0.3704  2.2469 -0.1355
  636SOL     OW 1906   0.727   1.220   0.129  0.4024  0.3846  0.1340
  636SOL    HW1 1907   0.704   1.319   0.115 -0.5542 -3.1522  0.5979
  636SOL    HW2 1908   0.810   1.203   0.069  1.1484 -0.9553 -0.7156
  637SOL     OW 1909   2.824   2.085   2.932  0.1028  0.5881  0.6568
  637SOL    HW1 1910   2.816   2.158   3.003  0.3157 -2.3777 -0.9536
  637SOL    HW2 1911   2.924   2.062   2.912  1.1361  0.6776 -1.3843
  638SOL     OW 1912   1.516   2.755   2.863  0.1935 -0.6100 -0.3935
  638SOL    HW1 1913   1.564   2.743   2.773 -1.0788  1.5403  1.5380
  638SOL    HW2 1914   1.419   2.765   2.841 -0.6734 -3.5286 -0.3497
  639SOL     OW 1915   1.409   1.676   1.310 -0.1715  0.1199  0.2312
  639SOL    HW1 1916   1.357   1.752   1.259  0.9178 -1.9108 -0.7353
  639SOL    HW2 1917   1.488   1.655   1.248 -1.4460  1.3532 -1.0537
  640SOL     OW 1918   2.175   2.836   0.567 -0.2854 -0.0210 -0.4576
  640SOL    HW1 1919   2.108   2.899   0.517 -0.1114  0.6399 -2.5978
  640SOL    HW2 1920   2.164   2.732   0.554 -2.4644 -0.3966 -0.1694
  641SOL     OW 1921   2.915   0.117   2.953  0.3519  0.5658  0.6548
  641SOL    HW1 1922   2.892   0.204   2.912 -0.3222 -1.5470  1.3578
  641SOL    HW2 1923   2.899   0.120   3.053 -0.8437 -0.1246  0.1453
  642SOL     OW 1924   2.993   0.789   1.307  0.2894 -0.3992 -0.1117
  642SOL    HW1 1925   2.937   0.829   1.228 -1.6298  0.6979  0.4833
  642SOL    HW2 1926   3.043   0.860   1.359 -1.2361 -1.0211 -1.7900
  643SOL     OW 1927   0.824   1.671   2.122 -0.6052 -0.5034 -0.0475
  643SOL    HW1 1928   0.727   1.660   2.099  1.3620 -0.9870  0.2149
  643SOL    HW2 1929   0.858   1.758   2.078 -1.3458  0.2313  0.5627
  644SOL     OW 1930   1.814   2.408   0.595 -0.8359 -0.1663  0.2440
  644SOL    HW1 1931   1.886   2.372   0.654  1.5277 -0.0397 -0.7432
  644SOL    HW2 1932   1.846   2.491   0.543  2.5919 -0.7215  1.0733
  645SOL     OW 1933   2.136   2.043   0.831 -0.1473  0.0547 -0.6519
  645SOL    HW1 1934   2.086   2.095   0.760  2.1281  0.7567  0.9477
  645SOL    HW2 1935   2.127   1.945   0.805 -0.3363  2.4284  2.0404
  646SOL     OW 1936   0.992   2.466   2.894 -0.1924  0.0969 -0.0183
  646SOL    HW1 1937   1.059   2.537   2.913 -0.3819 -1.0890 -0.2401
  646SOL    HW2 1938   0.984   2.404   2.976  1.6386 -2.7865  1.1687
  647SOL     OW 1939   0.524   2.696   1.765  0.2835  0.2110  0.8837
  647SOL    HW1 1940   0.506   2.762   1.841 -2.3995 -1.2468  4.3962
  647SOL    HW2 1941   0.513   2.731   1.669  0.3072 -0.7177  1.3080
  648SOL     OW 1942   1.709   0.473   1.832  0.0573  0.4500 -0.1015
  648SOL    HW1 1943   1.689   0.554   1.777  0.7760 -2.0709  0.3260
  648SOL    HW2 1944   1.689   0.487   1.932 -0.4687 -1.1531  0.3098
  649SOL     OW 1945   1.694   2.288   0.175 -0.1470 -0.0647  0.2342
  649SOL    HW1 1946   1.628   2.222   0.217 -0.2279  0.4233  0.4009
  649SOL    HW2 1947   1.716   2.271   0.075 -0.8739  0.8594  1.1932
  650SOL     OW 1948   2.092   1.771   1.880 -0.5540 -0.6681  0.0081
  650SOL    HW1 1949   2.026   1.705   1.912 -1.3206  0.5287 -0.6483
  650SOL    HW2 1950   2.123   1.749   1.785 -2.4506  1.9801  2.5968
  651SOL     OW 1951   1.444   2.549   3.076 -0.1946  0.1016 -0.1775
  651SOL    HW1 1952   1.490   2.558   0.075  1.1229 -0.5748  0.8842
  651SOL    HW2 1953   1.475   2.622   3.013 -0.6508 -0.5962 -2.0833
  652SOL     OW 1954   0.588   2.295   0.284  0.3966  0.0866 -0.1609
  652SOL    HW1 1955   0.540   2.275   0.369  0.1847  0.6065 -1.9160
  652SOL    HW2 1956   0.581   2.400   0.278 -0.4740  1.3206 -1.8799
  653SOL     OW 1957   2.596   2.343   1.282 -0.0845 -0.1431  0.0125
  653SOL    HW1 1958   2.519   2.276   1.285 -0.5776  0.6590  0.3248
  653SOL    HW2 1959   2.564   2.429   1.243 -1.3311 -2.3444 -0.8591
  654SOL     OW 1960   2.849   2.685   1.585 -0.0206 -0.1850  0.0012
  654SOL    HW1 1961   2.785   2.762   1.561 -2.1365 -1.4720  0.5911
  654SOL    HW2 1962   2.814   2.596   1.550 -0.1578  1.5827  0.3596
  655SOL     OW 1963   0.019   2.026   1.149  0.2596  0.5025 -0.0200
  655SOL    HW1 1964   0.026   1.938   1.199  1.9101 -2.4855  1.2853
  655SOL    HW2 1965   0.005   2.096   1.224  0.6275 -0.7472  1.8206
  656SOL     OW 1966   2.976   2.854   2.500 -0.3888  0.1248  0.0835
  656SOL    HW1 1967   2.926   2.939   2.467 -2.1586  0.7221 -0.5914
  656SOL    HW2 1968   3.013   2.802   2.423  3.3021  1.9868 -0.1803
  657SOL     OW 1969   2.908   1.259   2.877 -0.7112 -0.5452  0.4739
  657SOL    HW1 1970   2.846   1.230   2.951  2.3344  0.9688 -1.3413
  657SOL    HW2 1971   2.870   1.352   2.844 -2.1053 -1.1033 -0.5431
  658SOL     OW 1972   1.728   1.734   0.559 -0.1510 -0.1287  0.4403
  658SOL    HW1 1973   1.786   1.811   0.527 -2.5471 -2.6070  1.2600
  658SOL    HW2 1974   1.714   1.744   0.662 -1.1914 -0.1163  0.5067
  659SOL     OW 1975   1.211   0.612   1.265  0.3132  0.1407 -0.1376
  659SOL    HW1 1976   1.228   0.648   1.172 -1.1485 -1.1184 -1.2901
  659SOL    HW2 1977   1.255   0.521   1.281 -1.4783 -1.8767 -1.0718
  660SOL     OW 1978   1.437   1.531   0.027 -0.0985 -0.5972 -0.1752
  660SOL    HW1 1979   1.357   1.476   0.068  1.7506 -1.2219  3.2219
  660SOL    HW2 1980   1.456   1.510   3.019  2.0122  0.0761  0.4614
  661SOL     OW 1981   0.223   2.345   0.502  0.1594 -0.6844  0.2459
  661SOL    HW1 1982   0.321   2.341   0.541  3.1241 -0.1986  2.9889
  661SOL    HW2 1983   0.178   2.440   0.500 -1.6983  1.2238  0.7294
  662SOL     OW 1984   0.238   0.756   2.307  0.3332  0.2421 -0.2828
  662SOL    HW1 1985   0.240   0.799   2.400 -1.0466 -0.9226 -0.7720
  662SOL    HW2 1986   0.221   0.655   2.313 -0.2605  1.4861  0.2305
  663SOL     OW 1987   1.829   1.413   0.897  0.2440  0.0783 -0.2106
  663SOL    HW1 1988   1.730   1.406   0.905 -1.7391  0.5220  1.4387
  663SOL    HW2 1989   1.872   1.343   0.956  0.4621  0.5957 -0.9584
  664SOL     OW 1990   0.868   0.766   1.060  0.2072 -0.4409  0.0406
  664SOL    HW1 1991   0.820   0.682   1.089  0.3088 -0.7083  3.7863
  664SOL    HW2 1992   0.810   0.841   1.101  1.7432  3.0089  1.4937
  665SOL     OW 1993   1.020   2.971   3.058 -0.1068 -0.0472 -0.0846
  665SOL    HW1 1994   1.054   3.040   0.032 -0.6531  0.7190  0.5038
  665SOL    HW2 1995   1.097   2.924   3.014 -1.9236 -0.9631 -0.4973
  666SOL     OW 1996   2.928   0.068   2.502 -0.0335  0.1167 -0.0585
  666SOL    HW1 1997   2.994   0.047   2.579 -1.7779  0.9995 -0.4585
  666SOL    HW2 1998   2.859   0.133   2.535  0.1754  2.2196  0.9557
  667SOL     OW 1999   2.230   1.192   2.266 -0.0434 -0.4441  0.1388
  667SOL    HW1 2000   2.275   1.270   2.214  0.6663  0.7548 -3.0502
  667SOL    HW2 2001   2.291   1.153   2.338 -0.3364  2.0238  0.5530
  668SOL     OW 2002   0.616   1.282   2.507  0.0682  0.0678 -0.2256
  668SOL    HW1 2003   0.525   1.328   2.530 -0.1014  0.7856  1.9253
  668SOL    HW2 2004   0.603   1.183   2.483 -0.7485  1.3137  1.7257
  669SOL     OW 2005   2.107   2.283   2.580  0.6750  0.2936 -0.0419
  669SOL    HW1 2006   2.097   2.186   2.547 -2.8289  2.7042 -1.0554
  669SOL    HW2 2007   2.121   2.287   2.682 -0.5195 -2.9389 -1.8066
  670SOL     OW 2008   1.972   1.123   2.254 -0.2372 -0.7019 -0.1705
  670SOL    HW1 2009   1.928   1.114   2.344 -1.3262 -0.6565 -0.5588
  670SOL    HW2 2010   2.069   1.153   2.256  0.2224 -0.3199  0.7171
  671SOL     OW 2011   2.481   1.495   3.025  0.0262  0.2613  0.0114
  671SOL    HW1 2012   2.459   1.399   2.997 -0.7163 -0.8828  0.6427
  671SOL    HW2 2013   2.484   1.502   0.034  0.5428 -0.4832 -3.3821
  672SOL     OW 2014   2.630   0.973   2.028  0.6657  0.8417 -0.1128
  672SOL    HW1 2015   2.642   0.905   1.954 -2.5062 -0.4327  1.1626
  672SOL    HW2 2016   2.535   1.000   2.025  0.4834 -0.7863 -1.5097
  673SOL     OW 2017   2.633   0.856   1.364 -0.1451 -1.0455  0.6795
  673SOL    HW1 2018   2.590   0.908   1.284 -2.2597 -1.3497 -2.8025
  673SOL    HW2 2019   2.726   0.892   1.380 -2.3385  1.0091 -0.9329
  674SOL     OW 2020   1.943   1.976   2.003 -0.0213 -0.4326 -0.2331
  674SOL    HW1 2021   2.018   1.908   1.976 -1.7490  1.9637 -0.7630
  674SOL    HW2 2022   1.886   1.989   1.921 -0.9350 -1.3828 -0.9609
  675SOL     OW 2023   0.415   0.552   0.926  0.1687 -0.3027  0.1141
  675SOL    HW1 2024   0.481   0.549   0.852 -1.5010  2.4775 -2.7394
  675SOL    HW2 2025   0.359   0.467   0.922  1.6897 -1.4755  1.2324
  676SOL     OW 2026   1.836   1.024   1.234 -0.1834 -0.1207  0.3361
  676SOL    HW1 2027   1.879   1.101   1.283 -1.1545 -1.4779 -3.6768
  676SOL    HW2 2028   1.780   0.968   1.300 -0.5232  1.8106  0.7350
  677SOL     OW 2029   2.128   1.543   2.513  0.2450  0.1980 -0.2622
  677SOL    HW1 2030   2.155   1.610   2.590  2.5408  0.4785  2.1741
  677SOL    HW2 2031   2.208   1.495   2.471 -1.6697  0.1730  0.2861
  678SOL     OW 2032   3.089   1.742   0.745 -0.2536 -0.5317 -0.4567
  678SOL    HW1 2033   0.005   1.814   0.813 -1.0494 -2.4831 -4.0743
  678SOL    HW2 2034   0.026   1.774   0.655  0.0727  0.5355 -2.7172
  679SOL     OW 2035   2.979   2.676   0.608 -0.3628  0.3261 -0.2411
  679SOL    HW1 2036   2.930   2.706   0.524  0.4807 -1.3065 -0.9882
  679SOL    HW2 2037   2.927   2.685   0.695  0.1635 -2.9267 -0.6132
  680SOL     OW 2038   0.000   2.450   1.116  0.5067  0.4029  0.0944
  680SOL    HW1 2039   0.048   2.493   1.193 -0.1817 -1.5122 -1.1183
  680SOL    HW2 2040   3.059   2.359   1.149 -0.1453 -0.4283 -0.2110
  681SOL     OW 2041   0.477   1.337   1.143 -0.0353  0.4783 -0.7606
  681SOL    HW1 2042   0.569   1.365   1.189  1.1831  1.7825  3.8063
  681SOL    HW2 2043   0.400   1.386   1.186 -0.0189  2.1451 -1.4860
  682SOL     OW 2044   1.676   2.738   0.950 -0.1656  0.3587  0.5817
  682SOL    HW1 2045   1.762   2.685   0.974  1.0841  0.6912  0.1621
  682SOL    HW2 2046   1.640   2.789   1.025 -0.0648 -1.0391  0.2293
  683SOL     OW 2047   2.225   1.175   1.025  0.5348  0.0315 -0.0181
  683SOL    HW1 2048   2.283   1.242   0.981 -0.4234 -0.7084 -2.3174
  683SOL    HW2 2049   2.273   1.086   1.033 -3.1804  1.4594 -0.3239
  684SOL     OW 2050   0.735   2.047   1.912 -0.0089 -0.5306  0.3144
  684SOL    HW1 2051   0.798   2.118   1.873  1.1046 -2.7941  0.9152
  684SOL    HW2 2052   0.671   2.000   1.851 -1.2667  0.1869  0.8736
  685SOL     OW 2053   2.184   1.520   0.175 -0.5754  0.3190  0.4353
  685SOL    HW1 2054   2.221   1.607   0.141  0.9758  0.3320 -0.8796
  685SOL    HW2 2055   2.085   1.536   0.210  1.4276 -2.2323  0.1884
  686SOL     OW 2056   3.065   0.690   0.457  0.1098  0.0501  0.3882
  686SOL    HW1 2057   3.085   0.764   0.381 -2.2686  0.8251 -0.8288
  686SOL    HW2 2058   2.972   0.699   0.489  1.0829 -0.8034  1.6392
  687SOL     OW 2059   1.260   2.774   0.261 -0.5173  0.5122 -0.6270
  687SOL    HW1 2060   1.248   2.744   0.361 -0.2777 -0.5935  0.4026
  687SOL    HW2 2061   1.193   2.722   0.206 -1.5507 -0.8110  2.3213
  688SOL     OW 2062   1.842   1.789   2.287 -0.0105 -0.0869 -0.8244
  688SOL    HW1 2063   1.804   1.774   2.381 -0.7015 -0.0597  1.3620
  688SOL    HW2 2064   1.775   1.750   2.220 -0.8545 -1.9454  0.0050
  689SOL     OW 2065   2.666   0.805   2.228  0.2405  0.7691 -0.1560
  689SOL    HW1 2066   2.650   0.865   2.150  2.2234 -2.0399  1.0600
  689SOL    HW2 2067   2.700   0.863   2.305  2.6897  0.4315  3.0186
  690SOL     OW 2068   1.459   0.373   1.024  0.0594 -0.3971 -0.7331
  690SOL    HW1 2069   1.447   0.331   1.118 -1.7925 -1.5231  0.1854
  690SOL    HW2 2070   1.559   0.392   1.007 -1.1044  0.5940  0.3683
  691SOL     OW 2071   1.012   1.829   1.556 -0.2312 -0.0069  0.2420
  691SOL    HW1 2072   1.003   1.750   1.493  0.5470  2.7392  0.7850
  691SOL    HW2 2073   1.120   1.851   1.566  4.3851  2.8962  0.9903
  692SOL     OW 2074   1.697   0.199   1.906 -0.3066 -0.0801 -0.2118
  692SOL    HW1 2075   1.687   0.295   1.879 -0.3687 -0.7155 -1.0548
  692SOL    HW2 2076   1.689   0.136   1.826  1.4792  0.0978 -0.9625
  693SOL     OW 2077   0.625   1.090   2.921 -0.2841 -0.1995 -0.0969
  693SOL    HW1 2078   0.663   1.185   2.919  3.8823 -1.3926 -1.1108
  693SOL    HW2 2079   0.700   1.021   2.931  0.3008  1.0386  1.7717
  694SOL     OW 2080   2.164   2.484   0.795 -0.3515 -0.3378  0.1215
  694SOL    HW1 2081   2.177   2.550   0.876  0.1345 -1.1116  1.4896
  694SOL    HW2 2082   2.166   2.536   0.708 -0.5755  0.1270  0.0396
  695SOL     OW 2083   1.369   1.477   2.535 -0.1907 -0.0256 -0.3214
  695SOL    HW1 2084   1.345   1.555   2.604 -2.9719  0.5173  0.1116
  695SOL    HW2 2085   1.304   1.402   2.545 -1.2660 -0.7190 -3.3809
  696SOL     OW 2086   1.309   0.383   1.345 -0.1000 -0.0382 -0.1940
  696SOL    HW1 2087   1.324   0.303   1.284  0.7618  1.3941 -0.4885
  696SOL    HW2 2088   1.396   0.401   1.401  0.7784 -2.0568  1.5676
  697SOL     OW 2089   1.206   0.138   1.937 -0.6318  0.1521  0.0305
  697SOL    HW1 2090   1.218   0.040   1.906  0.9596 -0.9902  1.0396
  697SOL    HW2 2091   1.223   0.138   2.040 -0.3516  1.1061  2.4827
  698SOL     OW 2092   1.634   1.450   2.422  0.0283 -0.5362  0.4833
  698SOL    HW1 2093   1.629   1.401   2.336  0.4924 -0.1331  0.7087
  698SOL    HW2 2094   1.550   1.439   2.477  0.3067 -2.5411  1.3808
  699SOL     OW 2095   1.513   1.300   1.323 -0.0511  0.6121  0.1512
  699SOL    HW1 2096   1.545   1.237   1.251  0.5080 -0.2808 -0.1428
  699SOL    HW2 2097   1.433   1.357   1.288 -3.4816  0.1132  0.4813
  700SOL     OW 2098   1.588   0.057   0.322  0.6828  0.2670 -0.0013
  700SOL    HW1 2099   1.513   0.111   0.365 -0.1793  1.8201 -0.1832
  700SOL    HW2 2100   1.547   3.068   0.281 -2.0344  0.8581  1.4961
  701SOL     OW 2101   0.247   2.947   1.633 -0.0273  0.2628 -0.4704
  701SOL    HW1 2102   0.203   2.899   1.711  1.2833 -1.9081 -2.1919
  701SOL    HW2 2103   0.174   3.000   1.574 -1.1112  0.5925 -2.2824
  702SOL     OW 2104   1.371   2.728   1.077  0.1517  0.2581  0.2344
  702SOL    HW1 2105   1.304   2.680   1.019  1.7444  4.4099  1.4318
  702SOL    HW2 2106   1.410   2.808   1.029 -0.8115 -2.7647  1.9037
  703SOL     OW 2107   2.458   0.194   1.966 -0.4442  0.2149  0.2472
  703SOL    HW1 2108   2.392   0.229   1.894 -1.5721  3.4587  1.4720
  703SOL    HW2 2109   2.548   0.235   1.969 -0.2715 -1.4817 -0.0466
  704SOL     OW 2110   1.274   1.900   1.208 -0.7070 -0.7487 -0.1459
  704SOL    HW1 2111   1.220   1.963   1.264 -0.5425  1.2327 -2.2916
  704SOL    HW2 2112   1.310   1.943   1.121 -1.3300  0.3401  0.6576
  705SOL     OW 2113   2.831   1.352   1.884 -0.1133  0.7324 -0.2877
  705SOL    HW1 2114   2.753   1.352   1.942  0.8115 -2.4075 -3.1324
  705SOL    HW2 2115   2.847   1.257   1.853  1.1127  0.6128 -1.1953
  706SOL     OW 2116   1.171   0.010   0.642 -0.3782  0.2461 -0.3657
  706SOL    HW1 2117   1.139   0.109   0.628  0.8275  3.1651  2.6317
  706SOL    HW2 2118   1.210   0.004   0.735 -1.0759  1.4270  1.0086
  707SOL     OW 2119   1.014   2.485   2.401 -0.4944 -0.6098  0.1354
  707SOL    HW1 2120   0.910   2.466   2.406 -0.9655  2.4005 -2.0860
  707SOL    HW2 2121   1.076   2.402   2.425  2.3737 -0.2523 -0.2976
  708SOL     OW 2122   0.194   2.465   1.333 -0.1200  0.2069  0.0889
  708SOL    HW1 2123   0.169   2.377   1.370 -0.1170  0.7110  0.6129
  708SOL    HW2 2124   0.289   2.464   1.293  1.0592 -1.0588  1.8227
  709SOL     OW 2125   2.024   0.514   2.061  0.2547  0.0803  0.4501
  709SOL    HW1 2126   1.958   0.592   2.074  0.5269 -2.0652 -1.8628
  709SOL    HW2 2127   1.992   0.451   1.985 -0.0822  0.5078 -1.4426
  710SOL     OW 2128   2.773   0.543   1.616 -0.0390  0.6368 -0.1345
  710SOL    HW1 2129   2.680   0.501   1.599 -1.5548 -3.1088 -0.6721
  710SOL    HW2 2130   2.846   0.523   1.549 -0.0797  2.0459 -0.3881
  711SOL     OW 2131   0.113   2.590   0.497 -0.2990 -0.2243  0.6524
  711SOL    HW1 2132   0.178   2.657   0.453 -0.9689  1.6809  0.0360
  711SOL    HW2 2133   0.022   2.620   0.526 -0.8292  0.1438  0.1989
  712SOL     OW 2134   0.303   2.417   2.509  0.2479  0.5190  0.3917
  712SOL    HW1 2135   0.325   2.510   2.476 -0.3551 -1.8215  2.5322
  712SOL    HW2 2136   0.226   2.419   2.581 -1.7109 -0.1066 -0.2057
  713SOL     OW 2137   1.514   0.617   0.119 -0.3824  0.3929  0.3676
  713SOL    HW1 2138   1.482   0.702   0.076  3.2295 -1.2722 -3.0060
  713SOL    HW2 2139   1.594   0.588   0.064 -0.1570  2.3455 -0.4792
  714SOL     OW 2140   1.533   2.176   0.364 -0.3236 -0.5971  0.4169
  714SOL    HW1 2141   1.511   2.208   0.457 -0.7457  3.5062 -0.7086
  714SOL    HW2 2142   1.484   2.088   0.341  0.5313  1.2116 -1.8167
  715SOL     OW 2143   2.856   0.183   0.361  0.0427 -0.5058 -0.2941
  715SOL    HW1 2144   2.765   0.202   0.412 -3.9354  1.3794  1.4105
  715SOL    HW2 2145   2.933   0.184   0.433  0.7016  0.3602  4.8783
  716SOL     OW 2146   0.539   0.076   2.379  0.2062 -0.4329  0.3167
  716SOL    HW1 2147   0.529   0.143   2.455 -0.1931 -0.6812 -1.6191
  716SOL    HW2 2148   0.585   3.088   2.419 -2.4932  1.7543 -1.4212
  717SOL     OW 2149   0.039   0.644   2.930 -0.1292 -0.2846 -0.4482
  717SOL    HW1 2150   0.110   0.582   2.891 -0.5935  0.3585 -0.1255
  717SOL    HW2 2151   3.044   0.592   2.939  1.9280 -2.4183  1.1425
  718SOL     OW 2152   1.108   0.570   0.445  0.0365  0.0557  0.0286
  718SOL    HW1 2153   1.168   0.628   0.509  1.0881  4.5607  0.3157
  718SOL    HW2 2154   1.169   0.503   0.401  0.2273  1.1669  0.6715
  719SOL     OW 2155   2.763   2.285   2.682  0.5312  0.0097  0.1982
  719SOL    HW1 2156   2.714   2.295   2.594 -2.3297 -0.6853  0.1743
  719SOL    HW2 2157   2.725   2.208   2.741  0.0094  0.1525 -0.5178
  720SOL     OW 2158   1.673   0.676   1.656  0.3216  0.2331  0.0299
  720SOL    HW1 2159   1.736   0.750   1.641 -0.2817 -1.0473 -0.6984
  720SOL    HW2 2160   1.578   0.702   1.629 -1.7127  2.0452  0.7122
  721SOL     OW 2161   2.903   0.559   0.932 -0.0007  0.3030  0.5366
  721SOL    HW1 2162   2.937   0.538   0.838  0.3010 -1.1767 -0.7006
  721SOL    HW2 2163   2.942   0.488   0.995  0.5309  1.8302 -0.8373
  722SOL     OW 2164   1.432   2.202   2.384 -0.4899  0.3905 -0.0812
  722SOL    HW1 2165   1.481   2.281   2.342 -1.2133 -1.6724  0.0135
  722SOL    HW2 2166   1.500   2.152   2.446  3.7028  2.6824  1.7615
  723SOL     OW 2167   0.670   0.332   0.606  0.6611  0.5540 -0.6070
  723SOL    HW1 2168   0.695   0.363   0.696 -2.2519  0.6750 -1.9362
  723SOL    HW2 2169   0.619   0.404   0.553  0.5524 -0.6551  2.5342
  724SOL     OW 2170   0.998   2.090   2.290  0.8054 -1.0887 -0.3294
  724SOL    HW1 2171   0.986   2.098   2.392 -1.2713  0.8046 -0.0534
  724SOL    HW2 2172   0.910   2.101   2.245 -0.0899 -3.2157  1.0838
  725SOL     OW 2173   0.335   0.953   1.348  0.2294  0.2655 -0.1684
  725SOL    HW1 2174   0.402   1.032   1.341  0.5755 -1.0605 -1.4069
  725SOL    HW2 2175   0.354   0.883   1.278 -0.8939 -0.9506 -0.5994
  726SOL     OW 2176   1.797   0.381   0.718 -0.3783  0.6869 -0.2159
  726SOL    HW1 2177   1.809   0.478   0.689 -1.9252  0.7778 -1.2629
  726SOL    HW2 2178   1.778   0.317   0.637  0.5565 -1.1775 -0.2573
  727SOL     OW 2179   1.826   0.971   1.889 -0.0168 -0.4271 -0.2024
  727SOL    HW1 2180   1.823   1.062   1.940  2.6404  0.7703 -0.8893
  727SOL    HW2 2181   1.795   0.896   1.953  2.7472 -0.2640  2.3291
  728SOL     OW 2182   1.695   2.709   1.499  0.8018 -0.1663 -0.1926
  728SOL    HW1 2183   1.706   2.743   1.596  0.3810  0.3335 -2.1503
  728SOL    HW2 2184   1.731   2.615   1.491  0.6945 -2.8718  1.8985
  729SOL     OW 2185   1.336   0.454   1.736  0.7476  0.1251  0.1027
  729SOL    HW1 2186   1.324   0.353   1.711 -2.6973 -0.8085  1.3351
  729SOL    HW2 2187   1.353   0.451   1.833 -1.3409  1.1050 -2.4961
  730SOL     OW 2188   0.790   1.985   1.515  0.0542 -0.3995 -0.0848
  730SOL    HW1 2189   0.808   2.067   1.459  0.3745 -0.2361  2.7064
  730SOL    HW2 2190   0.875   1.945   1.547 -1.1146  1.4251 -1.5815
  731SOL     OW 2191   0.561   0.250   0.209  0.4291  0.5416  0.0768
  731SOL    HW1 2192   0.553   0.347   0.237  1.8275 -0.6446 -0.0961
  731SOL    HW2 2193   0.470   0.199   0.220 -0.8099  1.1834  2.9443
  732SOL     OW 2194   0.403   0.905   0.218 -0.2646 -0.1889 -0.6236
  732SOL    HW1 2195   0.405   0.827   0.151  0.0666 -1.9748  0.3873
  732SOL    HW2 2196   0.449   0.992   0.179  2.8766  0.8305 -1.2573
  733SOL     OW 2197   1.365   1.636   1.848 -0.2276  0.5027  0.1710
  733SOL    HW1 2198   1.415   1.574   1.915 -0.3888 -1.2302 -1.9832
  733SOL    HW2 2199   1.322   1.589   1.771 -0.0604 -1.1408  1.2174
  734SOL     OW 2200   2.821   2.714   2.190  0.1117  0.1103 -0.3402
  734SOL    HW1 2201   2.899   2.651   2.169 -1.1171  0.4642 -0.1346
  734SOL    HW2 2202   2.841   2.812   2.163 -2.1822  1.5037 -0.0559
  735SOL     OW 2203   1.084   2.808   0.956  0.5014 -0.6045  0.6278
  735SOL    HW1 2204   1.125   2.728   0.911 -1.6318  0.4313  0.4530
  735SOL    HW2 2205   1.146   2.888   0.951 -0.6848  0.4722  1.6990
  736SOL     OW 2206   1.272   0.851   2.693 -0.5886 -0.7249 -0.5586
  736SOL    HW1 2207   1.316   0.775   2.640  1.0087  0.2792  0.8683
  736SOL    HW2 2208   1.345   0.920   2.725  2.6966  1.1136 -0.6373
  737SOL     OW 2209   0.004   0.901   0.272 -0.1944  0.0252 -0.2792
  737SOL    HW1 2210   0.058   0.852   0.198  1.1698 -1.5933  0.7023
  737SOL    HW2 2211   3.011   0.946   0.242 -1.3328  0.2830  0.8101
  738SOL     OW 2212   0.050   2.808   1.342 -0.2018  0.2500  0.3237
  738SOL    HW1 2213   0.045   2.735   1.416  1.8229 -1.8388 -0.4628
  738SOL    HW2 2214   3.071   2.798   1.271 -3.3271  3.2794 -3.4290
  739SOL     OW 2215   1.424   2.974   0.632 -0.4962  0.1910 -0.0340
  739SOL    HW1 2216   1.461   3.017   0.715 -1.5507 -1.2076 -1.5826
  739SOL    HW2 2217   1.331   3.008   0.604  0.6216  1.5764  0.6869
  740SOL     OW 2218   1.696   2.810   1.222  0.2604 -0.2681  0.0808
  740SOL    HW1 2219   1.792   2.801   1.192  0.0841 -2.0159 -1.7995
  740SOL    HW2 2220   1.695   2.800   1.322  0.3770 -0.5879 -2.3582
  741SOL     OW 2221   2.061   0.518   0.529 -0.1138  0.2405 -1.2136
  741SOL    HW1 2222   2.071   0.531   0.630 -0.0057 -0.3106 -1.8241
  741SOL    HW2 2223   2.021   0.602   0.492  2.0891  0.1152 -2.2167
  742SOL     OW 2224   1.252   2.475   1.861 -0.1188  0.1057 -0.1798
  742SOL    HW1 2225   1.166   2.512   1.900  3.4765 -0.5191 -0.2411
  742SOL    HW2 2226   1.322   2.464   1.932  1.5101 -2.0411 -1.1574
  743SOL     OW 2227   2.256   0.735   1.956  0.3427  0.6176 -0.5926
  743SOL    HW1 2228   2.169   0.730   2.004  0.2003 -1.5874 -3.6135
  743SOL    HW2 2229   2.295   0.640   1.948 -0.0311  1.2213 -1.2574
  744SOL     OW 2230   2.341   0.477   1.177  0.5979  0.7606  0.3778
  744SOL    HW1 2231   2.261   0.420   1.214  0.3977  0.0161 -0.5631
  744SOL    HW2 2232   2.407   0.491   1.249  0.4801 -0.3533 -0.2014
  745SOL     OW 2233   2.079   1.371   1.852 -0.2177  0.4817  0.0138
  745SOL    HW1 2234   2.172   1.375   1.817 -1.9368 -0.5114 -2.1936
  745SOL    HW2 2235   2.026   1.320   1.786  1.1271 -0.7773  0.2362
  746SOL     OW 2236   1.347   1.563   0.634 -0.0022  0.5730 -0.2544
  746SOL    HW1 2237   1.359   1.644   0.691 -1.4162 -1.9254 -1.5781
  746SOL    HW2 2238   1.262   1.507   0.652  0.5117 -1.6120  0.7811
  747SOL     OW 2239   1.947   1.196   1.018 -0.0323  0.3852 -0.3418
  747SOL    HW1 2240   1.906   1.122   1.076 -2.3898  0.0137 -2.2541
  747SOL    HW2 2241   2.042   1.183   0.995  4.5305 -1.2729 -0.2276
  748SOL     OW 2242   3.086   2.976   0.238 -0.0361 -0.0642 -0.7570
  748SOL    HW1 2243   0.018   3.030   0.319 -1.5052  0.6063 -0.2216
  748SOL    HW2 2244   0.069   2.928   0.192 -1.8171 -1.4858  2.2984
  749SOL     OW 2245   0.126   0.472   2.339 -0.1857 -0.2064 -0.3727
  749SOL    HW1 2246   0.070   0.501   2.413  2.9341  2.7313 -0.1819
  749SOL    HW2 2247   0.092   0.493   2.246  0.4589  1.5142  1.8125
  750SOL     OW 2248   1.740   2.736   1.774 -0.1455 -0.2935 -0.1156
  750SOL    HW1 2249   1.808   2.817   1.774  0.9655  2.8735  1.1855
  750SOL    HW2 2250   1.727   2.699   1.869  1.0558 -0.3135 -0.0861
  751SOL     OW 2251   2.719   0.490   0.545  0.7603 -0.6686  0.0158
  751SOL    HW1 2252   2.655   0.433   0.594  4.5406 -1.0198  0.1894
  751SOL    HW2 2253   2.812   0.481   0.589  3.8286  0.3344  1.2056
  752SOL     OW 2254   0.266   2.601   0.774  0.0434  0.0134  0.3131
  752SOL    HW1 2255   0.212   2.590   0.692 -0.0972  1.5508 -2.1568
  752SOL    HW2 2256   0.268   2.703   0.789  2.0172  0.0517  1.4585
  753SOL     OW 2257   0.842   0.319   1.488  0.4402 -0.3047 -0.0766
  753SOL    HW1 2258   0.782   0.272   1.424 -2.3208  1.1729  0.3611
  753SOL    HW2 2259   0.933   0.273   1.491  0.3955 -1.3486  2.0589
  754SOL     OW 2260   0.797   2.816   2.247 -0.3662  0.4345  0.7379
  754SOL    HW1 2261   0.781   2.886   2.176  0.2399 -1.1386  0.0837
  754SOL    HW2 2262   0.893   2.775   2.239  0.0450 -0.5601 -1.1909
  755SOL     OW 2263   2.155   1.035   0.140  0.2491  0.5931 -1.0959
  755SOL    HW1 2264   2.240   1.043   0.197  2.3737  0.4118 -1.7546
  755SOL    HW2 2265   2.134   1.112   0.078 -1.0075 -3.8102  2.8427
  756SOL     OW 2266   2.416   1.874   2.646  0.2700 -0.7401 -0.0177
  756SOL    HW1 2267   2.506   1.848   2.685 -2.8970  2.6466  1.1660
  756SOL    HW2 2268   2.412   1.898   2.549  0.3546  1.6775 -0.1887
  757SOL     OW 2269   1.373   0.167   1.207  0.5538 -0.2653 -0.3308
  757SOL    HW1 2270   1.293   0.156   1.146 -0.7925 -0.4611 -2.0124
  757SOL    HW2 2271   1.420   0.074   1.215 -0.3571 -0.0485  0.2680
  758SOL     OW 2272   1.451   2.671   0.757  0.0322  0.1534 -0.0092
  758SOL    HW1 2273   1.528   2.680   0.824  2.5568 -3.3552  0.6829
  758SOL    HW2 2274   1.478   2.709   0.667 -1.2535 -1.9943  0.7508
  759SOL     OW 2275   2.545   0.616   1.421 -0.3154  0.3200  0.0728
  759SOL    HW1 2276   2.509   0.621   1.516  0.2998  0.7679 -0.1598
  759SOL    HW2 2277   2.577   0.713   1.399  2.4326 -1.8541 -0.5181
  760SOL     OW 2278   2.345   0.933   1.056  0.6366  0.5072 -0.6934
  760SOL    HW1 2279   2.434   0.964   1.092 -2.0255 -3.4164 -2.6495
  760SOL    HW2 2280   2.356   0.837   1.034  1.7596  0.1606 -0.9381
  761SOL     OW 2281   0.515   0.509   0.495 -0.1349 -0.3711 -0.4528
  761SOL    HW1 2282   0.595   0.571   0.472 -0.1668  0.4993  0.1270
  761SOL    HW2 2283   0.443   0.560   0.547  0.5462 -2.1185 -0.8948
  762SOL     OW 2284   1.760   1.878   1.226 -0.5423 -0.2996  0.2488
  762SOL    HW1 2285   1.860   1.892   1.207  1.0218 -2.0508 -2.3038
  762SOL    HW2 2286   1.721   1.945   1.290 -0.1967 -1.0032 -3.3395
  763SOL     OW 2287   1.109   1.395   1.508  0.2470  0.3305 -0.0167
  763SOL    HW1 2288   1.099   1.308   1.455 -0.3190 -1.7922  3.0461
  763SOL    HW2 2289   1.184   1.400   1.579 -1.9780  0.2618  0.2578
  764SOL     OW 2290   2.848   1.775   2.263  0.0822 -0.2123  0.2963
  764SOL    HW1 2291   2.886   1.767   2.168 -0.0909  0.4504 -1.2736
  764SOL    HW2 2292   2.890   1.856   2.307  1.4137  1.5965 -1.2498
  765SOL     OW 2293   1.584   2.408   1.291  0.2007  0.3886  0.2735
  765SOL    HW1 2294   1.516   2.331   1.306 -1.2707 -2.6229  0.6626
  765SOL    HW2 2295   1.540   2.499   1.311  1.3200  1.1620  0.4401
  766SOL     OW 2296   0.073   2.442   2.666 -0.0460  0.0608 -0.3874
  766SOL    HW1 2297   0.041   2.535   2.691  0.7389 -1.9505 -0.0219
  766SOL    HW2 2298   0.002   2.396   2.616  3.1207  2.4385  0.5470
  767SOL     OW 2299   1.340   0.657   2.507 -0.0849  0.5782  0.0109
  767SOL    HW1 2300   1.413   0.591   2.543  1.8723 -0.4677 -0.6211
  767SOL    HW2 2301   1.271   0.609   2.452 -1.7182 -0.8120 -0.3484
  768SOL     OW 2302   1.233   2.247   0.041  0.4961  0.2870  0.6055
  768SOL    HW1 2303   1.136   2.242   0.008 -3.6694  0.3603  1.1766
  768SOL    HW2 2304   1.287   2.202   3.063 -0.8977 -1.4866  0.4857
  769SOL     OW 2305   0.421   2.600   1.005  0.1366 -0.3487 -0.8485
  769SOL    HW1 2306   0.355   2.591   0.929 -0.0135 -2.0743  0.1670
  769SOL    HW2 2307   0.375   2.654   1.082  0.9566  2.5319 -0.7142
  770SOL     OW 2308   1.539   1.005   2.785  0.5491  0.6821  0.0764
  770SOL    HW1 2309   1.517   1.100   2.820 -0.0495  0.4537 -1.9201
  770SOL    HW2 2310   1.618   1.001   2.725  1.6825 -0.9314  3.5408
  771SOL     OW 2311   0.254   0.075   2.346 -0.2492  0.1642 -0.3798
  771SOL    HW1 2312   0.218   0.001   2.404 -1.4301  2.8218  0.1130
  771SOL    HW2 2313   0.356   0.080   2.346 -1.6466 -2.2049  2.2993
  772SOL     OW 2314   2.077   2.975   2.112 -0.1735  0.3982 -0.2163
  772SOL    HW1 2315   2.149   3.030   2.161  2.5279  0.0215  1.9957
  772SOL    HW2 2316   1.987   3.018   2.117  3.1233 -3.4243  0.4640
  773SOL     OW 2317   0.924   2.236   1.807  0.1870  0.2388 -0.1172
  773SOL    HW1 2318   1.019   2.221   1.780 -1.1356  0.7760 -0.2112
  773SOL    HW2 2319   0.906   2.333   1.781  1.8052 -0.0141  0.2229
  774SOL     OW 2320   1.546   0.086   2.112 -0.2335 -0.3089 -0.2081
  774SOL    HW1 2321   1.447   0.104   2.131  2.5166 -0.4819  0.7353
  774SOL    HW2 2322   1.596   0.164   2.065  1.2970  2.4045 -1.8643
  775SOL     OW 2323   2.260   2.777   0.167 -0.1486 -0.0416 -0.2802
  775SOL    HW1 2324   2.237   2.738   0.076 -1.3310  0.6301  0.3908
  775SOL    HW2 2325   2.182   2.829   0.203  0.1757 -0.9114  0.3168
  776SOL     OW 2326   2.642   0.658   2.514 -0.0770  0.6726  0.2389
  776SOL    HW1 2327   2.626   0.571   2.570 -0.5972 -2.9638  1.6109
  776SOL    HW2 2328   2.719   0.646   2.445  1.2450  0.8439  0.0272
  777SOL     OW 2329   2.361   1.428   2.431 -0.0255 -0.2760 -0.1197
  777SOL    HW1 2330   2.420   1.433   2.513  0.6852 -0.7883 -0.6784
  777SOL    HW2 2331   2.427   1.425   2.356  0.1564  1.9199  1.2315
  778SOL     OW 2332   2.082   0.874   2.225  0.2856 -0.1737  0.1628
  778SOL    HW1 2333   2.020   0.806   2.187  0.4963  1.6942  1.7795
  778SOL    HW2 2334   2.040   0.966   2.217 -0.5453  0.3359 -0.7147
  779SOL     OW 2335   2.981   0.343   0.131  0.1924 -0.4371 -0.3546
  779SOL    HW1 2336   3.045   0.414   0.167  0.7627  1.5067  2.1614
  779SOL    HW2 2337   2.906   0.322   0.196 -1.8714  0.6304  0.7727
  780SOL     OW 2338   2.718   0.705   3.006  0.2912  0.1873  0.5052
  780SOL    HW1 2339   2.794   0.634   2.990 -0.7966 -2.4443  0.1130
  780SOL    HW2 2340   2.677   0.704   0.005  0.0636  1.5939 -1.4520
  781SOL     OW 2341   0.027   3.043   1.486  0.9545 -0.3650  0.2459
  781SOL    HW1 2342   3.046   0.001   1.436 -0.8550  0.9535 -1.0749
  781SOL    HW2 2343   0.037   2.954   1.429 -0.2261  1.2194 -0.6450
  782SOL     OW 2344   1.868   2.631   0.470  0.3484 -0.4746  0.0282
  782SOL    HW1 2345   1.857   2.635   0.369 -2.6845 -0.4736 -0.6137
  782SOL    HW2 2346   1.794   2.686   0.518 -1.9789 -2.2012  0.8069
  783SOL     OW 2347   0.697   1.432   1.294 -0.3106 -0.1965  0.1759
  783SOL    HW1 2348   0.759   1.503   1.245  1.3795  2.1524 -2.3594
  783SOL    HW2 2349   0.657   1.463   1.381  0.8393  0.5270  0.4755
  784SOL     OW 2350   1.520   0.524   2.692  0.1503  0.1940 -0.1954
  784SOL    HW1 2351   1.455   0.449   2.672 -0.0319 -1.1734 -0.4187
  784SOL    HW2 2352   1.616   0.509   2.666 -1.0361  2.5660 -0.0312
  785SOL     OW 2353   2.641   0.375   1.362  0.3503 -1.0677 -0.4350
  785SOL    HW1 2354   2.611   0.475   1.371 -3.8304  1.5314  0.9975
  785SOL    HW2 2355   2.638   0.348   1.263 -1.8785 -0.7376  0.9505
  786SOL     OW 2356   1.338   2.615   1.641  0.3519 -0.0666  0.2275
  786SOL    HW1 2357   1.354   2.541   1.577  0.2462  0.4335  1.5153
  786SOL    HW2 2358   1.333   2.588   1.740  1.9399 -1.2399  0.5411
  787SOL     OW 2359   1.578   0.183   1.426 -0.3804 -0.1787 -0.0995
  787SOL    HW1 2360   1.515   0.148   1.355 -1.5634  1.6868  0.7639
  787SOL    HW2 2361   1.552   0.280   1.445 -1.6005 -0.7653  0.6796
  788SOL     OW 2362   2.887   1.246   0.468  1.3064  0.4155  0.2973
  788SOL    HW1 2363   2.803   1.283   0.509  0.3882 -2.6127 -1.9468
  788SOL    HW2 2364   2.932   1.182   0.538 -1.6310 -0.1073  0.8746
  789SOL     OW 2365   0.542   2.046   1.599 -0.3898  0.2199 -0.0903
  789SOL    HW1 2366   0.636   2.014   1.568 -0.4265 -3.6078  0.3529
  789SOL    HW2 2367   0.550   2.142   1.624 -0.2595 -2.9609 -1.5016
  790SOL     OW 2368   0.764   0.303   2.228  0.0880  0.0492 -0.0119
  790SOL    HW1 2369   0.793   0.320   2.325 -0.7069  0.4337 -1.1883
  790SOL    HW2 2370   0.671   0.338   2.213  0.6350 -0.8232 -2.8312
  791SOL     OW 2371   2.289   0.705   0.763  0.5395  0.4621  0.6781
  791SOL    HW1 2372   2.191   0.671   0.769 -0.0367 -3.0122  0.1472
  791SOL    HW2 2373   2.329   0.724   0.851  1.7610 -1.4002  1.2753
  792SOL     OW 2374   1.218   2.996   1.800 -0.1149 -0.1101  0.1316
  792SOL    HW1 2375   1.321   2.991   1.783  1.4931  0.9284 -0.8876
  792SOL    HW2 2376   1.164   2.932   1.739  0.0980  1.5941  2.5746
  793SOL     OW 2377   0.325   0.121   0.546  0.2699  0.4490 -0.2649
  793SOL    HW1 2378   0.421   0.105   0.580  0.1376  1.1305  1.4791
  793SOL    HW2 2379   0.258   0.140   0.622 -1.4390  2.8153  0.2819
  794SOL     OW 2380   0.124   1.120   1.763  0.1668 -0.4763 -0.1632
  794SOL    HW1 2381   0.073   1.037   1.793 -0.1161 -1.0365  0.4224
  794SOL    HW2 2382   0.070   1.177   1.700  3.1524  3.5634  0.8886
  795SOL     OW 2383   0.352   2.133   2.181  0.3773 -0.4326  0.5378
  795SOL    HW1 2384   0.312   2.224   2.168  1.3916 -4.1334  1.6898
  795SOL    HW2 2385   0.444   2.137   2.224 -0.1433  0.0914 -1.6375
  796SOL     OW 2386   2.501   0.592   2.250  0.2047 -0.0619  0.0560
  796SOL    HW1 2387   2.564   0.668   2.257 -2.5144  0.1075  1.4009
  796SOL    HW2 2388   2.482   0.571   2.148  0.6932  0.0373 -1.8973
  797SOL     OW 2389   2.376   2.301   2.536  0.2425  0.4838 -0.1148
  797SOL    HW1 2390   2.400   2.239   2.612  0.8310  1.2585  1.4665
  797SOL    HW2 2391   2.272   2.301   2.532 -0.8163  1.4631  0.0858
  798SOL     OW 2392   2.925   2.947   2.099  0.4729  0.4059  0.5156
  798SOL    HW1 2393   3.017   2.987   2.085  0.5514 -0.3829 -2.0553
  798SOL    HW2 2394   2.885   2.919   2.005 -0.6899  1.8485 -1.3885
  799SOL     OW 2395   0.224   2.371   2.125  0.0478 -0.2471  0.5034
  799SOL    HW1 2396   0.144   2.350   2.185  1.5520 -0.4884  1.7722
  799SOL    HW2 2397   0.199   2.425   2.040  0.4915  1.4401  0.9256
  800SOL     OW 2398   0.144   1.997   0.099  0.2534  0.4601  0.4384
  800SOL    HW1 2399   0.135   2.100   0.094 -0.0193 -0.8159  2.1525
  800SOL    HW2 2400   0.056   1.961   0.142 -3.7498 -1.5316  2.3881
  801SOL     OW 2401   1.764   1.482   1.341  0.1972  0.2682  0.4825
  801SOL    HW1 2402   1.687   1.421   1.353  2.9130  0.9455  0.7684
  801SOL    HW2 2403   1.763   1.551   1.416  1.3783 -0.6118 -2.9484
  802SOL     OW 2404   0.144   0.980   0.482 -0.2649  0.7247 -0.0730
  802SOL    HW1 2405   0.058   1.022   0.527 -0.4241  0.4762  1.6834
  802SOL    HW2 2406   0.114   0.946   0.386 -0.6287  0.1130 -2.9293
  803SOL     OW 2407   1.206   1.361   1.783  0.0407 -0.2693  0.3899
  803SOL    HW1 2408   1.273   1.315   1.842  0.2875 -2.1730  0.2466
  803SOL    HW2 2409   1.111   1.337   1.802  1.4174  3.2652 -1.7492
  804SOL     OW 2410   1.959   1.645   0.933  0.5538  0.1398 -0.2249
  804SOL    HW1 2411   1.998   1.645   1.027  0.7687 -0.9938  0.3380
  804SOL    HW2 2412   1.912   1.556   0.917 -1.6743  3.3615 -0.4237
  805SOL     OW 2413   2.849   1.502   2.773 -0.1485  0.0346  0.0394
  805SOL    HW1 2414   2.913   1.585   2.758  2.6615  1.6986 -3.9669
  805SOL    HW2 2415   2.798   1.489   2.685 -0.3009  3.4531  1.5953
  806SOL     OW 2416   0.300   2.498   0.191 -0.4020 -0.0416 -0.4647
  806SOL    HW1 2417   0.322   2.510   0.092  0.2997 -2.0551  0.0781
  806SOL    HW2 2418   0.384   2.500   0.243  0.0912  2.0088  1.0172
  807SOL     OW 2419   2.194   1.582   2.920  0.0796 -0.3833 -0.0652
  807SOL    HW1 2420   2.264   1.617   2.985 -2.6238 -0.9469 -0.0816
  807SOL    HW2 2421   2.146   1.503   2.960 -2.8778 -2.6978 -0.0015
  808SOL     OW 2422   1.402   2.202   1.312  0.7396 -0.6527  0.2523
  808SOL    HW1 2423   1.307   2.174   1.336 -0.3256 -1.1088  1.9360
  808SOL    HW2 2424   1.460   2.140   1.376  0.5193  1.5744  5.1853
  809SOL     OW 2425   2.804   0.759   0.558  0.0457  0.4350  0.5252
  809SOL    HW1 2426   2.858   0.782   0.641 -1.2331 -1.6867 -2.1278
  809SOL    HW2 2427   2.745   0.676   0.576  1.8678  1.0666 -0.5640
  810SOL     OW 2428   0.858   1.450   0.559 -0.0945 -0.4236  0.6924
  810SOL    HW1 2429   0.841   1.511   0.641  0.6461 -0.3715 -0.4947
  810SOL    HW2 2430   0.933   1.502   0.510 -0.7539 -1.2687  1.5891
  811SOL     OW 2431   1.730   2.378   1.033  0.1106  0.0893 -0.2532
  811SOL    HW1 2432   1.788   2.463   1.030  0.0078  1.1912 -0.2908
  811SOL    HW2 2433   1.662   2.388   1.109  0.2887 -0.4619 -1.0054
  812SOL     OW 2434   1.454   2.836   1.535 -0.5669  0.3689 -0.3154
  812SOL    HW1 2435   1.544   2.798   1.507 -0.3347 -0.2236 -2.3002
  812SOL    HW2 2436   1.406   2.760   1.580 -1.0710  0.5770  0.7877
  813SOL     OW 2437   0.689   2.941   1.782  0.2003  0.0507 -0.2325
  813SOL    HW1 2438   0.601   2.939   1.836  0.2740  1.6381  0.3107
  813SOL    HW2 2439   0.757   2.885   1.829 -1.0293 -3.0562  0.3184
  814SOL     OW 2440   1.048   2.707   2.238  0.2864  0.5397 -0.3027
  814SOL    HW1 2441   1.128   2.763   2.264  1.3475 -1.4080  0.6137
  814SOL    HW2 2442   1.041   2.619   2.292 -0.2624 -0.8210 -0.6874
  815SOL     OW 2443   0.426   3.004   2.854 -0.3275  0.3613  0.4580
  815SOL    HW1 2444   0.422   2.956   2.762 -0.8133 -1.2115 -0.6925
  815SOL    HW2 2445   0.450   0.008   2.842  1.8510 -0.8459  0.0366
  816SOL     OW 2446   2.191   0.629   2.876 -0.1468 -0.1210 -0.2085
  816SOL    HW1 2447   2.206   0.629   2.773  1.3153 -2.3893 -1.9637
  816SOL    HW2 2448   2.166   0.722   2.910  0.9460 -1.6807 -0.6567
  817SOL     OW 2449   2.441   2.550   2.294 -0.4334  0.1376  0.2655
  817SOL    HW1 2450   2.525   2.559   2.356  0.5694  0.6678  0.8656
  817SOL    HW2 2451   2.373   2.621   2.314  2.6951 -1.5904  0.7373
  818SOL     OW 2452   0.983   0.843   0.412 -0.1145  0.0067 -0.1435
  818SOL    HW1 2453   0.993   0.746   0.433  1.8819  1.3047 -0.4048
  818SOL    HW2 2454   1.014   0.869   0.318 -0.1577 -1.4376  4.5357
  819SOL     OW 2455   1.709   1.491   2.709  0.1082 -0.4908 -0.4824
  819SOL    HW1 2456   1.766   1.569   2.732  1.3214 -1.5936  0.4151
  819SOL    HW2 2457   1.772   1.424   2.665  0.5344 -0.8334 -0.5965
  820SOL     OW 2458   3.024   1.661   2.421  0.5063 -0.3459  0.3711
  820SOL    HW1 2459   3.076   1.734   2.469 -1.0280 -1.9346 -1.4447
  820SOL    HW2 2460   2.936   1.696   2.381  1.3969  1.1352  0.2719
  821SOL     OW 2461   0.312   2.878   0.745 -0.1342  0.5139 -0.4690
  821SOL    HW1 2462   0.354   2.953   0.805 -0.0479  0.7749  2.4233
  821SOL    HW2 2463   0.375   2.863   0.669 -2.7404 -0.2787  1.8960
  822SOL     OW 2464   2.366   2.496   2.926  0.7351 -0.1408  0.3020
  822SOL    HW1 2465   2.330   2.403   2.909  0.3085 -1.6228 -1.1309
  822SOL    HW2 2466   2.435   2.486   2.997  0.2586 -0.8881 -0.1645
  823SOL     OW 2467   1.653   0.098   2.569  0.0634  0.0754 -0.6797
  823SOL    HW1 2468   1.745   0.135   2.574 -2.0668 -1.5967  0.3279
  823SOL    HW2 2469   1.635   0.052   2.482 -0.6954 -1.8406  2.2638
  824SOL     OW 2470   2.764   2.389   2.129 -0.1140 -0.6343  0.1473
  824SOL    HW1 2471   2.777   2.465   2.059  1.8484 -0.7572  1.1834
  824SOL    HW2 2472   2.726   2.426   2.215 -0.4243  1.4719 -2.9003
  825SOL     OW 2473   3.060   2.024   2.343 -0.1587 -0.4702  0.5017
  825SOL    HW1 2474   0.066   2.015   2.362 -2.8253  0.7503  0.2140
  825SOL    HW2 2475   3.044   2.044   2.246 -0.5082  1.9282 -2.9989
  826SOL     OW 2476   1.927   0.610   2.715  0.1915 -0.3053  0.1996
  826SOL    HW1 2477   2.031   0.608   2.715  1.0979 -3.4815 -2.7549
  826SOL    HW2 2478   1.887   0.691   2.670 -0.8977 -2.0761  1.1161
  827SOL     OW 2479   2.730   1.538   1.663 -0.0739  0.0429 -0.7225
  827SOL    HW1 2480   2.707   1.621   1.715  0.0627 -2.3829 -0.1940
  827SOL    HW2 2481   2.797   1.478   1.712 -0.2040 -1.8134 -0.3102
  828SOL     OW 2482   2.917   0.065   1.338  0.0744  0.0933 -0.1068
  828SOL    HW1 2483   2.947   0.041   1.244  2.2512 -1.7506  0.7029
  828SOL    HW2 2484   2.817   0.042   1.352 -0.9514  0.1948 -0.8131
  829SOL     OW 2485   1.038   1.968   2.689  0.6555  0.0703  0.1730
  829SOL    HW1 2486   0.989   2.060   2.680 -1.1297  2.5066  2.1881
  829SOL    HW2 2487   0.974   1.897   2.717 -2.2255  1.0539 -1.4363
  830SOL     OW 2488   0.612   0.862   1.437  0.0049  0.0623  0.4461
  830SOL    HW1 2489   0.576   0.958   1.449 -1.5278 -1.0187 -0.8157
  830SOL    HW2 2490   0.570   0.791   1.494 -0.1236  2.1630 -0.0347
  831SOL     OW 2491   2.667   1.836   2.763  0.3553  0.5023  0.3906
  831SOL    HW1 2492   2.662   1.749   2.819 -0.2997 -0.7640 -2.7260
  831SOL    HW2 2493   2.689   1.912   2.823 -1.8806 -0.3886 -0.7032
  832SOL     OW 2494   1.823   2.551   2.781 -0.6514  0.2203  0.1673
  832SOL    HW1 2495   1.867   2.483   2.839 -1.7543  4.0853 -1.3798
  832SOL    HW2 2496   1.779   2.510   2.699  0.9429  2.1075  0.6810
  833SOL     OW 2497   0.842   0.163   2.000  0.0434 -0.3352 -0.2974
  833SOL    HW1 2498   0.866   0.230   1.930 -3.0466 -0.2320  1.4062
  833SOL    HW2 2499   0.810   0.211   2.086  1.6984 -0.6843 -1.8621
  834SOL     OW 2500   3.017   0.313   1.449  0.4741 -0.8850 -0.1220
  834SOL    HW1 2501   2.994   0.223   1.412  0.3481  0.5754  0.5906
  834SOL    HW2 2502   2.958   0.389   1.402 -1.0313  0.9478 -0.7542
  835SOL     OW 2503   2.715   0.485   0.272  0.3196  0.0403  0.4554
  835SOL    HW1 2504   2.693   0.573   0.231 -1.4272 -0.2739  0.6594
  835SOL    HW2 2505   2.714   0.491   0.376 -2.0639  1.5318  1.8592
  836SOL     OW 2506   1.619   1.948   0.142  0.5360 -0.0498  0.0176
  836SOL    HW1 2507   1.529   1.936   0.182  1.9855 -1.5787  0.4636
  836SOL    HW2 2508   1.618   2.002   0.055 -0.0671  0.4369  1.2147
  837SOL     OW 2509   1.938   1.932   0.492 -0.1862  0.4493  0.4409
  837SOL    HW1 2510   2.041   1.919   0.484  0.7349 -0.9367 -0.1664
  837SOL    HW2 2511   1.911   2.029   0.466  1.3153 -0.5015 -0.8890
  838SOL     OW 2512   1.299   0.907   2.396 -0.7552 -0.5859  0.1404
  838SOL    HW1 2513   1.313   0.816   2.438 -1.6934  2.0094 -0.4512
  838SOL    HW2 2514   1.259   0.965   2.468 -1.6247  2.8354  3.5715
  839SOL     OW 2515   0.666   1.404   2.277  0.4987 -0.0904  0.2341
  839SOL    HW1 2516   0.761   1.441   2.272  3.6985  2.0566  0.1819
  839SOL    HW2 2517   0.654   1.342   2.355  1.8503  2.5456  1.7455
  840SOL     OW 2518   1.060   1.600   0.470  0.0616 -0.2113  0.0234
  840SOL    HW1 2519   1.079   1.697   0.500  1.2210 -0.2334  2.5546
  840SOL    HW2 2520   1.145   1.557   0.436 -2.2620 -0.3329  1.2528
  841SOL     OW 2521   1.563   2.362   0.627 -0.3185 -0.8027  0.2888
  841SOL    HW1 2522   1.661   2.389   0.612 -1.2898 -0.1200  3.0637
  841SOL    HW2 2523   1.533   2.382   0.723  1.6399 -1.6745  1.4406
  842SOL     OW 2524   0.419   0.683   0.068  0.3033  0.0056  0.0678
  842SOL    HW1 2525   0.402   0.603   0.127  2.3703 -0.3577  0.2982
  842SOL    HW2 2526   0.499   0.659   0.008  0.6663 -0.2514  2.1449
  843SOL     OW 2527   0.564   0.091   0.671 -0.1825 -0.1891 -0.0928
  843SOL    HW1 2528   0.586   0.024   0.598 -0.2683  2.2517 -1.1146
  843SOL    HW2 2529   0.609   0.177   0.640 -0.0538  1.8560  1.2792
  844SOL     OW 2530   2.377   0.043   2.543  0.6346 -0.1221  0.6113
  844SOL    HW1 2531   2.405   0.039   2.641 -1.1996 -0.9095 -3.5064
  844SOL    HW2 2532   2.450   0.034   2.475 -3.9943  2.0615 -1.2968
  845SOL     OW 2533   2.951   2.514   1.843  0.0631  0.1463 -0.1678
  845SOL    HW1 2534   2.857   2.550   1.850 -0.5364  0.7354 -1.2193
  845SOL    HW2 2535   2.945   2.414   1.837 -1.8534  0.3701  2.2059
  846SOL     OW 2536   1.890   1.366   2.524 -0.0194 -0.3771 -0.1671
  846SOL    HW1 2537   1.967   1.426   2.503  3.9108  0.0401 -2.5889
  846SOL    HW2 2538   1.804   1.396   2.472 -1.3669  1.8178 -1.3830
  847SOL     OW 2539   0.795   0.694   2.023  0.2607 -0.4324  0.1338
  847SOL    HW1 2540   0.744   0.663   1.938 -1.1660  1.2455 -1.6056
  847SOL    HW2 2541   0.868   0.759   1.996 -2.6466  1.7441 -1.9951
  848SOL     OW 2542   2.468   0.022   2.790 -0.1290  0.3846 -0.2101
  848SOL    HW1 2543   2.541   3.048   2.758 -0.7347  2.4313  0.5463
  848SOL    HW2 2544   2.502   0.092   2.857 -0.3251  1.0599  0.3419
  849SOL     OW 2545   0.212   2.854   0.093 -0.0257  0.0316  0.2097
  849SOL    HW1 2546   0.160   2.859   0.006  2.8089  0.1374  0.4701
  849SOL    HW2 2547   0.312   2.854   0.084 -0.2095  0.6825 -1.7775
  850SOL     OW 2548   1.233   2.584   0.873 -0.0910  0.0263  0.2141
  850SOL    HW1 2549   1.234   2.504   0.938 -1.7207  0.6413 -0.7442
  850SOL    HW2 2550   1.327   2.603   0.837 -0.1364  0.7281  0.2428
  851SOL     OW 2551   2.055   0.340   2.438  0.4275 -0.4100  0.4119
  851SOL    HW1 2552   2.098   0.404   2.370  1.3577  0.6867 -0.3492
  851SOL    HW2 2553   2.106   0.331   2.527  0.5755 -0.5847 -1.1370
  852SOL     OW 2554   1.319   0.331   2.689 -0.6861  0.2393 -0.2398
  852SOL    HW1 2555   1.389   0.289   2.756  1.3435  0.2671  0.9988
  852SOL    HW2 2556   1.228   0.283   2.700  0.2421 -2.3505  1.3330
  853SOL     OW 2557   2.868   2.729   0.094  0.2093 -0.3440  0.5514
  853SOL    HW1 2558   2.879   2.650   0.154 -0.0277  0.0695 -1.0136
  853SOL    HW2 2559   2.781   2.730   0.047  1.6478  1.2525  3.0079
  854SOL     OW 2560   1.951   0.658   2.408 -0.4444 -0.2504  0.1720
  854SOL    HW1 2561   1.918   0.739   2.459 -0.2522 -0.6255  0.6322
  854SOL    HW2 2562   2.005   0.603   2.470  1.5605  1.4685 -0.5535
  855SOL     OW 2563   0.590   2.545   0.314 -0.1685  0.5203  0.3837
  855SOL    HW1 2564   0.547   2.602   0.387 -0.3846  0.2489  0.6666
  855SOL    HW2 2565   0.654   2.602   0.260 -1.5172 -1.6322  1.6656
  856SOL     OW 2566   0.157   2.961   2.482 -0.3659 -0.0004 -0.0020
  856SOL    HW1 2567   0.127   2.889   2.418 -1.1333  2.1411  0.2068
  856SOL    HW2 2568   0.081   2.988   2.541 -0.6196 -1.7552  0.8517
  857SOL     OW 2569   1.023   3.062   1.458  0.1509 -0.0479  0.2001
  857SOL    HW1 2570   1.061   0.051   1.509  1.9350 -0.7701  1.6560
  857SOL    HW2 2571   0.929   3.037   1.489  0.0897 -0.6120 -0.8822
  858SOL     OW 2572   2.506   1.915   1.704 -0.4811  0.0059 -0.2386
  858SOL    HW1 2573   2.565   1.964   1.638 -0.0208  1.0825  0.5413
  858SOL    HW2 2574   2.459   1.975   1.765 -0.4045 -0.7296 -3.1665
  859SOL     OW 2575   1.999   2.414   1.981 -0.3105 -0.6181  0.1856
  859SOL    HW1 2576   1.962   2.466   1.898 -2.8424  2.8124 -1.9522
  859SOL    HW2 2577   2.016   2.476   2.065 -0.2189  1.1363  0.9857
  860SOL     OW 2578   1.741   0.230   0.501 -0.4659 -0.1410 -0.1690
  860SOL    HW1 2579   1.769   0.298   0.431 -0.6163  3.2906  1.1138
  860SOL    HW2 2580   1.682   0.160   0.461 -1.5253  0.4570  0.6125
  861SOL     OW 2581   2.951   0.459   0.694  0.0143 -0.0369  0.2272
  861SOL    HW1 2582   3.039   0.452   0.647  1.6750 -4.5005  1.0529
  861SOL    HW2 2583   2.910   0.371   0.719  1.4003 -1.8409 -0.5623
  862SOL     OW 2584   0.957   2.697   2.590  0.3857  0.0902 -0.0338
  862SOL    HW1 2585   0.934   2.784   2.543  2.1017 -0.7639  0.5105
  862SOL    HW2 2586   1.028   2.642   2.546 -1.5397  0.5895  3.1708
  863SOL     OW 2587   0.511   0.477   1.367  0.3467  1.0068 -0.5107
  863SOL    HW1 2588   0.453   0.394   1.388  0.3848 -0.1239  1.1323
  863SOL    HW2 2589   0.474   0.546   1.298  0.2357  1.2359  1.1044
  864SOL     OW 2590   2.919   2.858   1.841 -0.8394  0.2510 -0.0738
  864SOL    HW1 2591   2.939   2.944   1.790 -0.5953  1.8196  1.4739
  864SOL    HW2 2592   2.866   2.791   1.785  1.3320  1.7478 -0.1247
  865SOL     OW 2593   0.398   1.374   2.833 -0.0466  0.2898 -0.0978
  865SOL    HW1 2594   0.382   1.273   2.863  1.3508  0.0258 -1.0884
  865SOL    HW2 2595   0.434   1.435   2.909  3.9086  1.2851 -0.5350
  866SOL     OW 2596   0.051   0.156   0.046 -0.2642 -0.0639  0.5811
  866SOL    HW1 2597   3.079   0.222   0.093 -1.5048  1.1630 -0.7238
  866SOL    HW2 2598   3.088   0.085   3.088  0.7719 -4.1408 -0.6589
  867SOL     OW 2599   2.669   2.883   2.760 -0.2326 -0.3235 -0.0725
  867SOL    HW1 2600   2.718   2.919   2.844  2.6481  3.9819  0.9526
  867SOL    HW2 2601   2.713   2.802   2.711 -1.3837 -1.0329  0.1710
  868SOL     OW 2602   1.275   0.971   0.211  0.2637  0.4689 -0.3742
  868SOL    HW1 2603   1.173   0.977   0.192  1.1014  0.5792  0.1443
  868SOL    HW2 2604   1.328   0.938   0.133 -0.3987 -1.2711  0.1875
  869SOL     OW 2605   2.726   1.399   0.636  0.2217  0.3626 -0.0628
  869SOL    HW1 2606   2.775   1.483   0.612  0.2166 -0.3317  0.2733
  869SOL    HW2 2607   2.754   1.360   0.728  1.0350 -2.3083 -2.0762
  870SOL     OW 2608   2.448   1.792   0.456 -0.1138 -0.3292  0.1262
  870SOL    HW1 2609   2.471   1.813   0.356 -0.8816 -0.3795 -2.9015
  870SOL    HW2 2610   2.467   1.695   0.481 -0.1294 -1.7757 -0.2956
  871SOL     OW 2611   1.146   1.421   0.726  0.3200 -0.7604  0.5231
  871SOL    HW1 2612   1.157   1.319   0.738  1.5240 -1.3060  1.7478
  871SOL    HW2 2613   1.053   1.459   0.738 -1.3817  2.0642  3.2362
  872SOL     OW 2614   1.202   1.885   1.884  0.4025  0.2816  0.2615
  872SOL    HW1 2615   1.230   1.873   1.790  4.4923 -0.5841  0.7757
  872SOL    HW2 2616   1.234   1.804   1.936  0.0483 -0.6480 -0.0577
  873SOL     OW 2617   1.006   1.759   2.401  0.0371 -0.3559 -0.4440
  873SOL    HW1 2618   1.005   1.698   2.484 -1.8576  0.1651  0.0973
  873SOL    HW2 2619   0.955   1.843   2.407 -0.2943 -3.3629  1.3360
  874SOL     OW 2620   1.015   1.996   0.978  0.4422 -0.6067 -0.8157
  874SOL    HW1 2621   1.112   1.970   0.964  1.1736  0.0450 -1.9503
  874SOL    HW2 2622   0.980   1.964   1.070 -0.8850  1.6856 -0.4727
  875SOL     OW 2623   2.410   0.207   1.023 -0.1539 -0.7248  0.1098
  875SOL    HW1 2624   2.380   0.286   1.072  1.2589 -0.2908 -3.1051
  875SOL    HW2 2625   2.361   0.127   1.059 -0.8954 -0.8561  0.5344
  876SOL     OW 2626   0.852   0.716   0.168  0.1308 -0.0725  0.3067
  876SOL    HW1 2627   0.778   0.774   0.217  0.5193  1.8810  0.1480
  876SOL    HW2 2628   0.859   0.623   0.212  0.7912  0.7269 -1.2078
  877SOL     OW 2629   2.874   0.555   1.361  0.2878 -0.5247 -0.1778
  877SOL    HW1 2630   2.776   0.556   1.344 -0.4109 -1.4880 -3.0219
  877SOL    HW2 2631   2.913   0.646   1.331 -1.6824  0.3197 -0.8654
  878SOL     OW 2632   2.110   2.311   0.451  0.1758 -0.2980  0.0366
  878SOL    HW1 2633   2.024   2.274   0.487  0.0058  0.9298 -2.3376
  878SOL    HW2 2634   2.181   2.236   0.440  0.3434 -0.7454  2.4460
  879SOL     OW 2635   2.784   1.504   1.405  0.1975 -0.5112 -0.3283
  879SOL    HW1 2636   2.694   1.496   1.358  1.1827  1.7878 -1.7336
  879SOL    HW2 2637   2.760   1.520   1.502 -1.4968  0.1521  1.0858
  880SOL     OW 2638   1.433   2.621   1.325  0.0765 -0.0279  0.0495
  880SOL    HW1 2639   1.425   2.632   1.224  0.8181  0.9988  0.8077
  880SOL    HW2 2640   1.398   2.710   1.370  0.4853  0.5844  3.7630
  881SOL     OW 2641   0.994   2.405   0.368 -0.1024  0.3986  0.6908
  881SOL    HW1 2642   0.930   2.341   0.319 -1.5139  0.6063  0.0750
  881SOL    HW2 2643   1.090   2.367   0.362  0.4149 -0.2926  0.2161
  882SOL     OW 2644   1.715   0.901   1.446  0.0285 -0.6279  0.1929
  882SOL    HW1 2645   1.685   0.964   1.520  1.0279 -0.2105  1.3214
  882SOL    HW2 2646   1.630   0.850   1.410 -1.0779  0.9075  2.1969
  883SOL     OW 2647   1.286   0.151   2.189 -0.1450  0.4522  0.6721
  883SOL    HW1 2648   1.328   0.202   2.263  2.3857 -2.8591 -0.8104
  883SOL    HW2 2649   1.228   0.071   2.218 -0.7678 -0.9064 -0.2054
  884SOL     OW 2650   0.105   0.539   0.273 -0.5281  0.4853  0.4358
  884SOL    HW1 2651   0.037   0.570   0.340  0.4033 -1.3307 -3.4510
  884SOL    HW2 2652   0.110   0.615   0.205 -2.0957 -1.2013  1.7131
  885SOL     OW 2653   0.706   1.377   2.898  0.2475 -0.4495  0.0500
  885SOL    HW1 2654   0.631   1.419   2.847  2.0364 -2.0364 -0.1629
  885SOL    HW2 2655   0.728   1.432   2.981 -2.6199 -1.7934  0.0955
  886SOL     OW 2656   1.491   1.521   2.866  0.1285 -0.3701 -0.0132
  886SOL    HW1 2657   1.409   1.556   2.814 -4.0693  2.4811 -1.5555
  886SOL    HW2 2658   1.575   1.513   2.805 -1.8155  2.0263 -2.3373
  887SOL     OW 2659   1.341   0.693   1.627  0.2388  0.1532 -0.3393
  887SOL    HW1 2660   1.249   0.727   1.594 -2.0454 -0.0086 -0.8349
  887SOL    HW2 2661   1.328   0.595   1.664 -3.4585 -0.6365  0.0779
  888SOL     OW 2662   2.730   0.567   1.893  0.0976  0.4527 -0.0200
  888SOL    HW1 2663   2.814   0.598   1.941  0.0103  1.1969  0.3338
  888SOL    HW2 2664   2.752   0.558   1.794 -1.0904 -0.5255  1.6490
  889SOL     OW 2665   0.030   2.925   0.744  0.0851  0.7844  0.2056
  889SOL    HW1 2666   3.031   2.895   0.705 -0.4836 -1.2590  0.7042
  889SOL    HW2 2667   0.106   2.897   0.688 -1.9092  2.9259 -0.5417
  890SOL     OW 2668   2.938   2.485   0.250 -0.0684 -0.2310  0.5218
  890SOL    HW1 2669   3.031   2.525   0.254  1.0123 -0.3752 -1.3368
  890SOL    HW2 2670   2.919   2.427   0.332 -2.0979  2.6682  0.7943
  891SOL     OW 2671   0.938   1.654   3.027 -0.0123 -0.4023 -0.3492
  891SOL    HW1 2672   0.881   1.735   3.012  2.1438  0.3188  0.2850
  891SOL    HW2 2673   0.972   1.621   2.939 -1.6555  2.4547 -0.6255
  892SOL     OW 2674   2.794   3.071   0.870  0.2070 -0.0120  0.0171
  892SOL    HW1 2675   2.815   3.034   0.779 -0.8299 -1.7627 -1.1232
  892SOL    HW2 2676   2.714   3.015   0.902 -0.1995 -1.6802 -1.7415
  893SOL     OW 2677   0.960   0.102   1.226  0.2211 -0.4942 -0.3164
  893SOL    HW1 2678   0.997   0.049   1.303 -2.0999 -0.6935  1.4025
  893SOL    HW2 2679   0.861   0.104   1.242 -1.1450  1.0892 -0.9687
  894SOL     OW 2680   3.001   1.042   0.618  0.5214 -0.5442 -0.0515
  894SOL    HW1 2681   2.961   0.948   0.627 -0.6174 -0.1550 -0.6305
  894SOL    HW2 2682   3.014   1.083   0.704 -1.2484 -1.5009 -2.7244
  895SOL     OW 2683   2.536   2.734   1.800 -0.5412  0.0798  0.8465
  895SOL    HW1 2684   2.461   2.713   1.869  0.6381 -0.2082  0.6795
  895SOL    HW2 2685   2.565   2.831   1.811  2.6442  0.1101  1.2319
  896SOL     OW 2686   1.096   0.233   1.488  0.4129  0.2406  0.8962
  896SOL    HW1 2687   1.162   0.274   1.427 -1.0854 -0.4406  0.1484
  896SOL    HW2 2688   1.137   0.243   1.581 -1.3477 -0.2302 -4.1449
  897SOL     OW 2689   0.881   1.705   1.778 -0.4059  0.2381 -0.0952
  897SOL    HW1 2690   0.934   1.750   1.700  0.7306  1.3380  0.4155
  897SOL    HW2 2691   0.901   1.746   1.870  3.3295 -0.3839  1.5831
  898SOL     OW 2692   1.902   2.504   1.746  0.2686 -0.5748 -0.0144
  898SOL    HW1 2693   1.885   2.436   1.677  0.5705  2.7635  3.4034
  898SOL    HW2 2694   1.814   2.551   1.778 -2.0276 -2.8604 -1.6824
  899SOL     OW 2695   1.010   0.542   0.850  0.2226  0.3764 -0.2256
  899SOL    HW1 2696   1.022   0.515   0.950 -2.0514 -0.1435  1.4650
  899SOL    HW2 2697   1.058   0.632   0.828  0.5859  2.9222  0.2427
  900SOL     OW 2698   1.917   2.359   2.391  0.0851 -0.4523 -0.6614
  900SOL    HW1 2699   1.863   2.275   2.362 -2.0940 -1.8528 -0.4922
  900SOL    HW2 2700   1.987   2.331   2.460  1.7551  3.0969  0.2247
  901SOL     OW 2701   0.957   2.188   2.566  0.5020  1.0762  0.1796
  901SOL    HW1 2702   1.033   2.246   2.534 -1.1329 -2.7325 -0.5769
  901SOL    HW2 2703   0.895   2.239   2.629  0.1943  2.3722  0.2256
  902SOL     OW 2704   2.108   0.978   0.553 -0.2996 -0.1785  0.6877
  902SOL    HW1 2705   2.131   1.076   0.548  0.9940  1.3482  0.2533
  902SOL    HW2 2706   2.073   0.955   0.646  0.8782  0.2540  0.7589
  903SOL     OW 2707   1.951   0.773   0.437 -0.4346 -0.6796 -0.1789
  903SOL    HW1 2708   1.906   0.806   0.355  1.2088 -3.3184  0.6927
  903SOL    HW2 2709   2.009   0.846   0.470  1.0163  0.9504 -1.1638
  904SOL     OW 2710   0.802   0.885   2.880  0.2742 -0.2473  0.5081
  904SOL    HW1 2711   0.903   0.902   2.888  1.5815 -2.0711  1.1964
  904SOL    HW2 2712   0.768   0.881   2.785  0.1097  0.5985 -1.2275
  905SOL     OW 2713   2.142   0.115   0.929 -0.2943 -0.0774  0.2080
  905SOL    HW1 2714   2.185   0.044   0.988 -2.4814  0.9741  3.3926
  905SOL    HW2 2715   2.136   0.201   0.984 -0.0881  0.8408  0.8322
  906SOL     OW 2716   3.020   2.248   1.275 -0.0382  0.1774 -0.3711
  906SOL    HW1 2717   3.023   2.196   1.365  0.0891  0.2893  2.0972
  906SOL    HW2 2718   2.931   2.235   1.226 -3.0867  2.4804 -1.2734
  907SOL     OW 2719   1.017   0.670   3.005  0.3349  0.2185  0.1993
  907SOL    HW1 2720   0.962   0.703   3.086  0.3171  1.6094 -0.7005
  907SOL    HW2 2721   1.105   0.718   2.997 -1.4034 -0.0715 -0.0855
  908SOL     OW 2722   2.178   2.680   0.970 -0.4603  0.1214  0.5018
  908SOL    HW1 2723   2.233   2.703   1.055  0.7420 -0.4996  1.9271
  908SOL    HW2 2724   2.168   2.767   0.913 -0.8428  2.7114 -0.0480
  909SOL     OW 2725   2.200   0.909   1.303 -0.2228  0.0986  0.4107
  909SOL    HW1 2726   2.180   0.808   1.318 -2.9557  1.4689 -0.0653
  909SOL    HW2 2727   2.252   0.925   1.221  0.7148  0.5673  0.4186
  910SOL     OW 2728   1.442   2.709   2.113  0.1551 -0.3987 -0.2389
  910SOL    HW1 2729   1.387   2.770   2.170  0.3417 -1.0262  0.6017
  910SOL    HW2 2730   1.405   2.615   2.102 -0.2768 -2.4438 -2.4634
  911SOL     OW 2731   2.889   0.494   2.317 -0.2372 -0.3964  0.6526
  911SOL    HW1 2732   2.902   0.571   2.249 -1.9669  1.3584  0.6259
  911SOL    HW2 2733   2.912   0.405   2.272  1.3723 -0.6289 -1.5170
  912SOL     OW 2734   0.017   1.289   1.568  0.5244  0.4163 -0.2251
  912SOL    HW1 2735   3.061   1.369   1.524 -0.3085 -1.4776  1.2715
  912SOL    HW2 2736   0.081   1.259   1.499  3.2851  0.5105 -1.7399
  913SOL     OW 2737   2.693   2.071   1.593  0.5195 -0.0055 -0.2776
  913SOL    HW1 2738   2.773   2.087   1.653 -0.8362  1.8581 -1.3338
  913SOL    HW2 2739   2.724   2.041   1.501  2.5345 -2.3907  0.3227
  914SOL     OW 2740   1.476   0.775   1.383  0.0403 -0.0649 -0.4128
  914SOL    HW1 2741   1.407   0.783   1.308 -1.1903 -1.5664 -2.4308
  914SOL    HW2 2742   1.437   0.735   1.469  0.5828 -2.9905  0.9663
  915SOL     OW 2743   1.525   0.436   1.504 -0.3134 -0.3828  0.2763
  915SOL    HW1 2744   1.469   0.459   1.586  1.5750 -0.7723  1.8668
  915SOL    HW2 2745   1.617   0.480   1.501  1.4274 -1.7131 -0.3498
  916SOL     OW 2746   2.741   2.433   1.523 -0.8811 -0.1401  0.3250
  916SOL    HW1 2747   2.718   2.392   1.431 -3.0298  0.9151  0.4444
  916SOL    HW2 2748   2.741   2.362   1.592  0.6213 -0.1187 -2.0757
  917SOL     OW 2749   2.529   2.091   0.285 -0.0193  0.5575 -0.4470
  917SOL    HW1 2750   2.472   2.148   0.224 -0.3469 -3.5576 -0.2962
  917SOL    HW2 2751   2.627   2.129   0.288 -0.6431  1.4285  1.2049
  918SOL     OW 2752   1.889   2.768   2.655  0.1864  0.0148 -0.0464
  918SOL    HW1 2753   1.983   2.750   2.624 -0.2746  0.1337  0.0535
  918SOL    HW2 2754   1.852   2.686   2.705 -1.4659 -0.4711 -0.1097
  919SOL     OW 2755   1.108   2.401   1.495 -0.1461  0.3843 -0.2730
  919SOL    HW1 2756   1.016   2.440   1.519 -0.8277 -1.4293 -1.4345
  919SOL    HW2 2757   1.122   2.330   1.564  1.2041  2.4703 -2.4315
  920SOL     OW 2758   2.978   0.223   2.264  0.2176  0.3767  0.3383
  920SOL    HW1 2759   2.980   0.162   2.346 -1.8319  2.0483  1.5625
  920SOL    HW2 2760   3.046   0.204   2.190  0.9789  0.2412 -1.5523
  921SOL     OW 2761   3.089   0.794   1.646  0.8093 -0.1841 -0.2962
  921SOL    HW1 2762   3.060   0.849   1.731 -1.7119  2.0910 -0.2139
  921SOL    HW2 2763   0.020   0.693   1.658  1.7374 -0.6162 -1.6968
  922SOL     OW 2764   2.296   2.134   0.424 -0.2181  0.6743 -0.2922
  922SOL    HW1 2765   2.374   2.119   0.358  1.9962 -2.6864 -0.4205
  922SOL    HW2 2766   2.276   2.051   0.471  1.4537  1.9768  0.1007
  923SOL     OW 2767   0.813   1.894   3.000  0.4575  0.3167  0.1502
  923SOL    HW1 2768   0.722   1.867   3.033  1.3555 -0.8801  1.1432
  923SOL    HW2 2769   0.815   1.988   2.965 -0.8711 -0.4274 -0.1129
  924SOL     OW 2770   0.875   0.480   0.294 -0.4723 -0.0603  0.0009
  924SOL    HW1 2771   0.850   0.380   0.286 -1.5423 -1.6022  1.0282
  924SOL    HW2 2772   0.972   0.498   0.326 -1.3050 -1.0227  1.3228
  925SOL     OW 2773   2.459   0.492   0.730 -0.4648  0.3451  0.3031
  925SOL    HW1 2774   2.382   0.552   0.703 -1.0279  0.7216  1.7869
  925SOL    HW2 2775   2.421   0.399   0.745 -1.8440  0.7897  0.7703
  926SOL     OW 2776   0.413   0.690   1.182 -0.7100 -0.4912  0.3640
  926SOL    HW1 2777   0.437   0.644   1.094  0.0541 -0.5833 -0.5911
  926SOL    HW2 2778   0.317   0.683   1.198  4.1939 -3.5458 -1.2627
  927SOL     OW 2779   0.117   1.358   2.519 -0.0873  0.1383  0.4841
  927SOL    HW1 2780   0.064   1.370   2.430 -1.2088  0.7017  1.7029
  927SOL    HW2 2781   0.066   1.294   2.580  0.6230  0.0066 -2.7499
  928SOL     OW 2782   2.805   0.950   2.940 -0.2904 -0.3634 -0.3944
  928SOL    HW1 2783   2.770   0.855   2.953  2.1291  1.9238  0.4633
  928SOL    HW2 2784   2.900   0.944   2.902 -0.6686  1.6376 -1.3291
  929SOL     OW 2785   2.638   0.091   1.385  0.1508 -0.2531 -0.1441
  929SOL    HW1 2786   2.647   0.193   1.358  1.9379  1.3503  3.0673
  929SOL    HW2 2787   2.573   0.077   1.460 -1.4725  0.7792  0.7530
  930SOL     OW 2788   1.925   1.165   1.697 -0.5260  0.4229 -0.1031
  930SOL    HW1 2789   1.909   1.078   1.751  0.3306 -4.0195  1.3646
  930SOL    HW2 2790   1.877   1.169   1.609  2.7549  0.9150 -2.8566
  931SOL     OW 2791   1.797   1.020   0.639  0.4145 -0.2971 -0.0005
  931SOL    HW1 2792   1.722   1.047   0.578  0.9623  3.1482 -0.2193
  931SOL    HW2 2793   1.870   1.093   0.649 -0.1768  1.3794  2.0179
  932SOL     OW 2794   2.665   1.207   0.876 -0.2162 -0.2274  0.1531
  932SOL    HW1 2795   2.578   1.218   0.831  2.2833 -2.3596  1.6291
  932SOL    HW2 2796   2.683   1.272   0.950  2.0330 -3.6207  1.4357
  933SOL     OW 2797   2.536   1.521   1.302  0.0786 -0.2606 -0.4065
  933SOL    HW1 2798   2.484   1.588   1.248 -0.7345 -0.0582  0.2299
  933SOL    HW2 2799   2.498   1.428   1.292 -0.2598 -0.4476 -0.6711
  934SOL     OW 2800   1.863   0.214   2.289  0.1730  0.0345  0.2657
  934SOL    HW1 2801   1.776   0.268   2.298 -0.3017  0.6150 -1.2056
  934SOL    HW2 2802   1.928   0.240   2.359 -1.4180 -3.1988 -0.1000
  935SOL     OW 2803   0.320   1.621   0.763 -0.1903 -0.2896 -0.4492
  935SOL    HW1 2804   0.229   1.582   0.741  0.7701  1.5038 -0.8094
  935SOL    HW2 2805   0.314   1.720   0.789  2.8329  0.6361 -0.2685
  936SOL     OW 2806   0.411   0.810   0.467  0.3245  0.4244 -0.1206
  936SOL    HW1 2807   0.379   0.855   0.380  0.3951  0.8074 -0.3236
  936SOL    HW2 2808   0.410   0.871   0.548 -1.1628 -1.4815 -1.5406
  937SOL     OW 2809   2.321   3.051   1.109 -0.6340 -0.3189  0.1119
  937SOL    HW1 2810   2.416   3.021   1.087 -2.9140 -1.5734 -2.7458
  937SOL    HW2 2811   2.288   3.019   1.198  1.4062 -2.4073  1.8992
  938SOL     OW 2812   2.840   2.408   0.526 -0.0163  0.0277  0.1125
  938SOL    HW1 2813   2.907   2.483   0.549 -2.4576  0.0419  0.4147
  938SOL    HW2 2814   2.750   2.455   0.505  1.4523  1.3350 -0.9054
  939SOL     OW 2815   0.934   1.968   0.312 -0.0122  0.5486 -0.0966
  939SOL    HW1 2816   0.867   1.900   0.268  1.2945  1.2445  2.4083
  939SOL    HW2 2817   0.989   1.920   0.388  1.6298 -0.2277 -1.3582
  940SOL     OW 2818   2.829   0.334   2.813 -0.1004  0.2196  0.3286
  940SOL    HW1 2819   2.924   0.347   2.767  3.4534  1.4388 -0.6886
  940SOL    HW2 2820   2.758   0.367   2.750  1.7720 -0.6828  0.8390
  941SOL     OW 2821   1.208   0.206   3.074  0.3718 -0.3711  0.4617
  941SOL    HW1 2822   1.269   0.140   3.027 -0.5619  1.1361 -1.7951
  941SOL    HW2 2823   1.154   0.166   0.060 -1.5332 -2.0239  2.7235
  942SOL     OW 2824   1.167   1.138   1.313 -0.0943 -0.3067  0.4876
  942SOL    HW1 2825   1.190   1.227   1.273 -0.0866 -0.9490 -0.1724
  942SOL    HW2 2826   1.073   1.111   1.286 -1.7080  0.0349  0.8814
  943SOL     OW 2827   1.421   0.908   1.986 -0.3462 -0.3032 -1.0134
  943SOL    HW1 2828   1.404   0.909   1.880 -1.5699 -2.1539 -0.9158
  943SOL    HW2 2829   1.343   0.879   2.038  2.0508 -2.2052 -2.0982
  944SOL     OW 2830   1.633   1.013   1.686 -0.1651  0.1209  0.3346
  944SOL    HW1 2831   1.540   0.988   1.716 -0.3104  2.0104  0.6091
  944SOL    HW2 2832   1.696   1.004   1.769  0.5596 -1.3875  2.5412
  945SOL     OW 2833   2.829   0.033   0.141 -0.5789 -0.1950 -0.1864
  945SOL    HW1 2834   2.911   3.064   0.155 -0.7329  1.2595  1.5205
  945SOL    HW2 2835   2.813   0.086   0.228  0.6775  0.6468 -0.0477
  946SOL     OW 2836   2.915   0.701   2.108  0.3106 -0.1476  0.1589
  946SOL    HW1 2837   2.994   0.761   2.111 -5.4299 -1.6862 -1.4619
  946SOL    HW2 2838   2.832   0.747   2.143  0.3584  1.3232 -0.8086
  947SOL     OW 2839   0.520   2.741   0.481 -0.1337 -0.1945 -0.4984
  947SOL    HW1 2840   0.573   2.676   0.543  0.9651  0.5939 -0.4727
  947SOL    HW2 2841   0.550   2.840   0.487  1.8042  3.7055 -2.7731
  948SOL     OW 2842   2.223   1.083   1.503 -0.6207 -0.2059 -0.0810
  948SOL    HW1 2843   2.128   1.106   1.528  0.4341  1.8001  0.0438
  948SOL    HW2 2844   2.231   1.014   1.428 -1.2142  2.3259 -1.0132
  949SOL     OW 2845   0.665   0.627   2.460 -0.2855 -0.4292  0.0593
  949SOL    HW1 2846   0.665   0.666   2.365  0.3748  0.3934 -3.0467
  949SOL    HW2 2847   0.569   0.607   2.489  1.4447 -1.1652  1.1502
  950SOL     OW 2848   0.493   0.212   0.911 -0.0620  0.6649 -0.3182
  950SOL    HW1 2849   0.585   0.230   0.945 -2.6774 -1.3176  0.3515
  950SOL    HW2 2850   0.501   0.161   0.823  0.5020 -1.2961  0.9385
  951SOL     OW 2851   0.936   1.487   2.276 -0.3583 -0.1870 -0.3683
  951SOL    HW1 2852   0.910   1.565   2.221  5.0412 -2.3678  0.0562
  951SOL    HW2 2853   0.960   1.404   2.220  0.7519 -0.5399  1.3880
  952SOL     OW 2854   0.738   1.516   0.066  0.0671 -0.1502 -0.0003
  952SOL    HW1 2855   0.810   1.569   0.013 -0.9901 -0.3980 -0.5572
  952SOL    HW2 2856   0.744   1.544   0.166 -1.1755 -0.7386  0.6208
  953SOL     OW 2857   2.500   0.331   2.350  0.2270  0.1026  0.9295
  953SOL    HW1 2858   2.496   0.432   2.338 -0.2461  3.4023 -1.4726
  953SOL    HW2 2859   2.422   0.284   2.299 -0.1594 -1.1564 -1.7233
  954SOL     OW 2860   1.590   1.205   0.827  0.6405  0.4332  0.2107
  954SOL    HW1 2861   1.681   1.165   0.829 -0.4690  2.5980  1.1371
  954SOL    HW2 2862   1.580   1.274   0.750 -0.2825 -1.6572 -0.6852
  955SOL     OW 2863   0.372   1.918   2.634 -0.5148 -0.1203  0.3800
  955SOL    HW1 2864   0.342   1.854   2.709  0.6965 -1.0763  0.1737
  955SOL    HW2 2865   0.409   2.004   2.678 -0.8651  1.6444 -0.7147
  956SOL     OW 2866   1.664   0.529   2.098 -0.0706  1.0349  0.0835
  956SOL    HW1 2867   1.668   0.469   2.187 -0.8413  0.4080  2.9670
  956SOL    HW2 2868   1.632   0.619   2.113 -1.0003 -0.0965  1.1707
  957SOL     OW 2869   1.926   2.069   2.840 -0.1555 -0.0595  0.0597
  957SOL    HW1 2870   1.873   1.984   2.872 -0.7353 -0.5168  2.3781
  957SOL    HW2 2871   1.970   2.053   2.751  0.0431 -0.6901 -0.6190
  958SOL     OW 2872   1.282   1.876   1.628  0.2403 -0.8042 -0.0480
  958SOL    HW1 2873   1.307   1.781   1.606 -0.1545  1.2772  0.4463
  958SOL    HW2 2874   1.364   1.922   1.666 -0.8707 -0.7761 -0.9766
  959SOL     OW 2875   2.224   2.257   2.841 -0.2944 -0.2398  0.6949
  959SOL    HW1 2876   2.302   2.206   2.802 -1.8580  0.7175  2.0842
  959SOL    HW2 2877   2.184   2.205   2.924 -0.5011 -0.2442  1.1227
  960SOL     OW 2878   3.029   0.796   2.603  0.0468  0.0099  0.3527
  960SOL    HW1 2879   2.953   0.838   2.552  2.1478 -3.5982  1.7199
  960SOL    HW2 2880   3.044   0.842   2.690 -1.5393  0.2988 -2.2871
  961SOL     OW 2881   0.813   0.835   2.609 -0.1011  0.2887  0.5871
  961SOL    HW1 2882   0.739   0.779   2.573  2.2796  0.9803 -0.7367
  961SOL    HW2 2883   0.881   0.766   2.645  0.6964 -0.7173  0.1614
  962SOL     OW 2884   0.824   1.284   2.673 -0.4176  0.0600  0.0850
  962SOL    HW1 2885   0.799   1.312   2.766  0.5121  2.6893 -1.6357
  962SOL    HW2 2886   0.739   1.279   2.623  1.2164 -2.0079  2.7337
  963SOL     OW 2887   2.604   2.567   0.462  0.2979 -0.1623  0.6574
  963SOL    HW1 2888   2.582   2.489   0.407  0.9202 -3.0712  1.0125
  963SOL    HW2 2889   2.619   2.651   0.403  2.9128  1.3459 -0.0917
  964SOL     OW 2890   1.152   2.516   1.243  0.5195 -0.2812 -0.1895
  964SOL    HW1 2891   1.152   2.490   1.344 -2.0090  0.3775  0.9599
  964SOL    HW2 2892   1.107   2.605   1.238 -0.0317  0.6487 -2.1353
  965SOL     OW 2893   1.518   1.619   0.400  0.3247 -0.1699 -0.1785
  965SOL    HW1 2894   1.598   1.682   0.421  1.0139 -2.4185 -0.6246
  965SOL    HW2 2895   1.445   1.626   0.467 -0.8180  0.8412 -1.0781
  966SOL     OW 2896   0.136   1.622   0.338 -0.1305  0.6075 -0.2446
  966SOL    HW1 2897   0.126   1.522   0.350 -2.7391  0.2651  2.7429
  966SOL    HW2 2898   0.105   1.643   0.243  0.7028 -0.1358 -0.6589
  967SOL     OW 2899   1.882   0.062   2.070  0.0616  0.4176  0.1865
  967SOL    HW1 2900   1.798   0.082   2.019  1.3920  0.8581  0.4246
  967SOL    HW2 2901   1.884   0.133   2.144  0.0642  1.4223  1.5193
  968SOL     OW 2902   1.617   0.648   0.853 -0.7263 -0.3850  0.4410
  968SOL    HW1 2903   1.668   0.648   0.763 -0.2691 -1.8694 -0.6960
  968SOL    HW2 2904   1.518   0.644   0.834 -1.9277 -1.0254  1.5685
  969SOL     OW 2905   0.321   1.149   2.394 -0.9649  0.0932 -0.4672
  969SOL    HW1 2906   0.337   1.194   2.305 -0.8074 -1.2379  2.6787
  969SOL    HW2 2907   0.227   1.117   2.404 -2.2337 -1.0293 -2.1689
  970SOL     OW 2908   2.275   1.326   1.296 -0.2193  0.1007  0.1046
  970SOL    HW1 2909   2.347   1.267   1.332 -0.7383  0.1599 -0.4636
  970SOL    HW2 2910   2.228   1.294   1.208  0.5836  1.7111 -1.6107
  971SOL     OW 2911   3.031   3.088   1.063 -0.3028 -0.3682 -0.0570
  971SOL    HW1 2912   3.062   2.994   1.067 -0.9829  1.3434 -1.4960
  971SOL    HW2 2913   2.946   3.092   1.008  0.0113 -2.3541  1.8739
  972SOL     OW 2914   0.393   0.593   2.548 -0.3233  0.1027 -0.5868
  972SOL    HW1 2915   0.335   0.543   2.616 -1.8040 -1.0422  0.8046
  972SOL    HW2 2916   0.346   0.677   2.518  0.9913 -1.2067  0.0096
  973SOL     OW 2917   0.257   0.349   0.927 -0.0414  0.4736 -0.1524
  973SOL    HW1 2918   0.193   0.302   0.993  0.9060  0.4828  1.3514
  973SOL    HW2 2919   0.335   0.282   0.915  3.7616 -1.6604 -1.9478
  974SOL     OW 2920   2.174   0.560   1.737  0.2728  0.4364 -0.8351
  974SOL    HW1 2921   2.130   0.652   1.718  0.6951  3.3367  0.8734
  974SOL    HW2 2922   2.101   0.491   1.759 -1.8052 -0.5084 -1.1281
  975SOL     OW 2923   2.653   0.372   0.033  0.0372 -0.8421 -1.2532
  975SOL    HW1 2924   2.686   0.434   0.114  0.0940 -0.1382  3.0659
  975SOL    HW2 2925   2.669   0.272   0.064 -2.0654 -5.1041  1.6135
  976SOL     OW 2926   0.260   1.473   1.249 -0.8880  0.1262  0.0571
  976SOL    HW1 2927   0.254   1.405   1.326 -1.2928  0.6066 -0.7025
  976SOL    HW2 2928   0.303   1.559   1.278  0.7141  4.9636  0.9050
  977SOL     OW 2929   1.243   2.317   0.326  0.5000  0.5039  0.4992
  977SOL    HW1 2930   1.246   2.300   0.223 -0.1644  0.3636 -0.3704
  977SOL    HW2 2931   1.312   2.381   0.368  1.7513 -1.5200  1.1966
  978SOL     OW 2932   0.388   1.111   3.039 -0.3085  0.4387  0.6923
  978SOL    HW1 2933   0.397   1.150   0.040  0.6536 -0.1346  1.3304
  978SOL    HW2 2934   0.483   1.097   2.998  3.8757  1.9961  0.0928
  979SOL     OW 2935   2.142   1.780   0.787 -0.1025  0.7497 -0.0049
  979SOL    HW1 2936   2.062   1.729   0.826 -2.2079 -0.9012 -1.3453
  979SOL    HW2 2937   2.236   1.748   0.808 -1.0862  1.5490  1.5232
  980SOL     OW 2938   0.502   1.620   1.669  0.2368 -0.0557  0.2310
  980SOL    HW1 2939   0.413   1.581   1.633 -0.5253 -3.2346 -1.6392
  980SOL    HW2 2940   0.579   1.563   1.654 -0.2330  2.4508  4.6400
  981SOL     OW 2941   2.802   1.497   0.156 -0.0221  0.1497  0.7167
  981SOL    HW1 2942   2.859   1.518   0.238 -0.0827 -1.7927 -1.1083
  981SOL    HW2 2943   2.857   1.447   0.093  0.6027  0.2095  0.8282
  982SOL     OW 2944   2.384   2.729   2.031 -0.4891 -0.3363  0.3501
  982SOL    HW1 2945   2.404   2.821   2.066  2.7585  0.6068  2.0418
  982SOL    HW2 2946   2.403   2.653   2.095 -1.5379  1.1143  1.3151
  983SOL     OW 2947   1.144   0.169   1.046  0.0874  0.0263  0.2404
  983SOL    HW1 2948   1.064   0.151   1.114 -0.0559 -0.3942  0.3451
  983SOL    HW2 2949   1.132   0.265   1.006 -2.3623  0.9392 -0.6877
  984SOL     OW 2950   1.172   2.634   3.018 -0.7046  0.4565 -0.0619
  984SOL    HW1 2951   1.178   2.734   2.991  0.4234  0.2975  0.1132
  984SOL    HW2 2952   1.264   2.603   3.046  1.6167 -2.4747  1.9046
  985SOL     OW 2953   1.847   2.063   1.722  0.0552  0.3629 -0.1401
  985SOL    HW1 2954   1.758   2.100   1.739  3.7571  2.0254 -3.5198
  985SOL    HW2 2955   1.841   1.985   1.657 -0.6838 -0.3226 -0.3270
  986SOL     OW 2956   2.208   2.967   2.719  0.1532 -0.6220  0.2939
  986SOL    HW1 2957   2.191   2.873   2.675 -1.2394  1.4410 -0.8274
  986SOL    HW2 2958   2.278   3.020   2.668 -1.0126  1.0291  1.0255
  987SOL     OW 2959   2.818   1.144   2.160  0.4869 -0.0478  0.1622
  987SOL    HW1 2960   2.762   1.077   2.103  1.4286 -0.6480 -0.5221
  987SOL    HW2 2961   2.765   1.218   2.207  2.5458  1.8124  0.5513
  988SOL     OW 2962   2.402   0.772   2.567  0.1866 -0.1120 -0.0471
  988SOL    HW1 2963   2.490   0.729   2.554 -3.1287  0.4358  0.0305
  988SOL    HW2 2964   2.380   0.816   2.476  0.7902 -1.2955  1.8314
  989SOL     OW 2965   1.636   1.311   2.151  0.4084 -0.4134 -0.0663
  989SOL    HW1 2966   1.568   1.234   2.152  2.8341  1.8881 -0.4496
  989SOL    HW2 2967   1.729   1.283   2.117  0.0424 -1.4618 -1.0553
  990SOL     OW 2968   0.149   1.172   0.216  0.4676 -0.1326  0.3330
  990SOL    HW1 2969   0.222   1.111   0.249  0.1602 -1.1236 -2.6977
  990SOL    HW2 2970   0.098   1.120   0.141 -1.2341 -2.1283 -1.5864
  991SOL     OW 2971   0.326   1.705   2.829  0.2314  0.4388 -0.1486
  991SOL    HW1 2972   0.273   1.639   2.769  0.7265  1.0166  1.2267
  991SOL    HW2 2973   0.423   1.681   2.838  0.7839 -0.7323 -1.4413
  992SOL     OW 2974   2.683   1.739   1.855  0.3916  0.0450  0.0472
  992SOL    HW1 2975   2.631   1.808   1.797  1.1565 -0.4274 -1.0264
  992SOL    HW2 2976   2.631   1.725   1.942 -0.7272  1.8577  2.0745
  993SOL     OW 2977   0.111   3.016   0.477  0.6042  0.0546  0.0324
  993SOL    HW1 2978   0.191   3.069   0.500  0.0682 -0.2507  0.0109
  993SOL    HW2 2979   0.144   2.929   0.434 -0.4497  2.2033  0.5963
  994SOL     OW 2980   0.061   1.863   1.475  0.0234 -0.1072 -0.3317
  994SOL    HW1 2981   0.028   1.807   1.550  0.2462  0.1708 -3.8506
  994SOL    HW2 2982   0.154   1.901   1.488 -0.2601  0.1636 -0.9623
  995SOL     OW 2983   2.198   1.726   2.704  0.1589  0.4455 -0.1669
  995SOL    HW1 2984   2.285   1.771   2.688  0.2389 -0.4225  3.9353
  995SOL    HW2 2985   2.196   1.685   2.794 -2.4241  1.8611 -4.3984
  996SOL     OW 2986   1.775   1.445   0.009 -0.1421  0.2290  0.6258
  996SOL    HW1 2987   1.696   1.399   0.044  0.1066  1.5933 -1.1661
  996SOL    HW2 2988   1.756   1.543   3.081 -1.4934  0.6463 -0.3205
  997SOL     OW 2989   1.445   1.314   1.578 -0.3486  0.2325  0.0884
  997SOL    HW1 2990   1.473   1.303   1.476  1.3055  0.6314 -0.7314
  997SOL    HW2 2991   1.370   1.248   1.597 -0.0224 -0.3883 -0.8137
  998SOL     OW 2992   2.792   2.187   1.153 -0.1350 -0.4564 -0.2072
  998SOL    HW1 2993   2.724   2.241   1.202  0.4456 -0.0248 -0.1476
  998SOL    HW2 2994   2.771   2.170   1.057  0.9717 -0.9981  0.0112
  999SOL     OW 2995   2.163   2.467   0.229  0.4034  0.3227 -0.1126
  999SOL    HW1 2996   2.230   2.543   0.242  2.5375 -0.8929  0.2524
  999SOL    HW2 2997   2.154   2.413   0.311 -1.9936  1.0952 -1.2352
 1000SOL     OW 2998   0.795   2.938   0.093 -0.1807 -0.0596 -0.9612
 1000SOL    HW1 2999   0.876   2.948   0.031 -0.9154 -0.9283 -2.2067
 1000SOL    HW2 3000   0.739   3.023   0.094  2.1360 -1.9040 -0.1110
   3.09290   3.09290   3.09290
