1000 SPC/Fw water molecules t= 486.00000 step= 486000
 3000
    1SOL     OW    1   2.690   3.011   1.299 -1.1080 -0.0591  0.7025
    1SOL    HW1    2   2.735   0.016   1.325 -3.1364  2.5276 -0.6620
    1SOL    HW2    3   2.594   3.017   1.332 -0.0429  0.2271  2.2448
    2SOL     OW    4   2.996   2.650   2.997 -0.5741 -0.3012  1.2130
    2SOL    HW1    5   2.911   2.682   2.950 -0.7486 -0.2863  0.0859
    2SOL    HW2    6   2.990   2.554   3.029  0.7847  1.0871 -1.8141
    3SOL     OW    7   1.045   2.019   3.072  0.2176  0.0703 -0.4064
    3SOL    HW1    8   0.962   1.991   3.025  0.6195  1.1171  0.4517
    3SOL    HW2    9   1.029   2.098   0.055 -3.6001  1.1476 -0.5861
    4SOL     OW   10   1.223   2.798   2.294  0.4807 -0.1795 -0.3476
    4SOL    HW1   11   1.124   2.819   2.283  1.9614  2.2579  0.8852
    4SOL    HW2   12   1.275   2.868   2.344  0.3769 -1.2174  1.8319
    5SOL     OW   13   1.932   0.280   3.065 -0.2484 -0.6228 -0.0502
    5SOL    HW1   14   2.000   0.216   3.037 -2.9951  0.8661 -0.9292
    5SOL    HW2   15   1.909   0.273   0.082  2.5237  2.0077 -1.8517
    6SOL     OW   16   0.147   1.468   0.835  0.6047 -0.1326  0.3425
    6SOL    HW1   17   0.153   1.513   0.928 -0.7962 -1.2721  1.6002
    6SOL    HW2   18   0.213   1.509   0.773 -0.9125  0.6128  2.0652
    7SOL     OW   19   1.062   1.856   0.609  0.3950  0.3856 -0.3772
    7SOL    HW1   20   1.018   1.767   0.599  3.4853  1.7767 -2.0098
    7SOL    HW2   21   1.112   1.867   0.700 -0.5641  1.3491  1.4124
    8SOL     OW   22   0.549   0.510   0.459 -0.6854  0.0707  0.2873
    8SOL    HW1   23   0.644   0.501   0.499  0.9735 -0.6283 -3.9632
    8SOL    HW2   24   0.541   0.589   0.396  1.1717 -1.5527  1.2603
    9SOL     OW   25   0.158   2.484   1.631 -0.1409 -0.2731 -0.0093
    9SOL    HW1   26   0.211   2.565   1.592  3.7589  1.1029 -0.5797
    9SOL    HW2   27   0.092   2.442   1.563 -0.8714 -2.6908 -0.0689
   10SOL     OW   28   1.305   1.673   0.157 -0.5219 -0.0472  0.6697
   10SOL    HW1   29   1.324   1.768   0.176  2.3899  0.7726  1.8766
   10SOL    HW2   30   1.345   1.654   0.061 -0.6007  1.2863 -2.8210
   11SOL     OW   31   1.853   0.602   1.590 -0.2058  0.5821  0.2603
   11SOL    HW1   32   1.842   0.605   1.690  1.1505 -1.9944 -2.2781
   11SOL    HW2   33   1.767   0.587   1.542 -0.0490 -0.8220 -0.4620
   12SOL     OW   34   0.404   0.704   2.158  0.5710  0.8788  0.0768
   12SOL    HW1   35   0.489   0.757   2.174  2.3009  1.0495 -1.4469
   12SOL    HW2   36   0.426   0.607   2.192  1.8192  0.2567 -1.2343
   13SOL     OW   37   2.094   0.210   0.413 -0.4370  0.0206  0.0655
   13SOL    HW1   38   2.080   0.112   0.393  2.7167 -0.0569 -0.1839
   13SOL    HW2   39   2.034   0.241   0.492 -2.5147  1.1201  0.9187
   14SOL     OW   40   2.545   2.198   0.227 -0.5164 -0.1374 -0.5313
   14SOL    HW1   41   2.502   2.286   0.214 -0.4722 -4.2199 -2.0936
   14SOL    HW2   42   2.536   2.139   0.148  1.8720  0.8768 -0.3402
   15SOL     OW   43   2.626   3.075   2.829  0.6511  0.0318  0.5426
   15SOL    HW1   44   2.675   3.025   2.753  0.0897  1.3807 -0.3368
   15SOL    HW2   45   2.553   0.054   2.789 -3.5244  0.0737  0.8937
   16SOL     OW   46   2.948   0.810   1.079 -0.2285  0.4825 -0.0219
   16SOL    HW1   47   3.020   0.734   1.064  3.5313  0.1530 -0.4232
   16SOL    HW2   48   2.862   0.777   1.034 -2.6051 -0.5164 -0.4332
   17SOL     OW   49   0.525   0.278   1.122  0.0457  0.4894  0.2106
   17SOL    HW1   50   0.603   0.306   1.058  1.3593  1.8787 -1.3109
   17SOL    HW2   51   0.494   0.350   1.190 -1.5541  0.0384  1.5333
   18SOL     OW   52   2.932   0.137   0.606  0.0713 -0.3607 -0.2650
   18SOL    HW1   53   2.904   0.077   0.684  0.5164 -0.0634 -1.1162
   18SOL    HW2   54   3.030   0.164   0.609 -1.4659  1.9289 -0.8700
   19SOL     OW   55   1.905   1.779   0.887 -0.0924  0.1235 -0.0376
   19SOL    HW1   56   1.914   1.841   0.806 -0.6135 -1.6967 -1.1436
   19SOL    HW2   57   1.912   1.682   0.860  2.5694 -1.3783  1.3028
   20SOL     OW   58   2.050   1.609   2.437 -0.3644  0.2714 -0.3954
   20SOL    HW1   59   1.952   1.589   2.435  0.2213  1.3990  2.0617
   20SOL    HW2   60   2.074   1.656   2.525 -0.0866  1.5584  1.1648
   21SOL     OW   61   1.107   0.273   0.215  0.1936 -0.5859  0.2811
   21SOL    HW1   62   1.051   0.223   0.150  0.6404  1.0747  0.6237
   21SOL    HW2   63   1.205   0.259   0.190 -0.1849 -0.8555 -0.4215
   22SOL     OW   64   2.525   0.945   0.028 -0.6478 -0.1694 -0.2182
   22SOL    HW1   65   2.618   0.915   0.051 -0.0691 -1.3038 -0.1060
   22SOL    HW2   66   2.506   0.947   3.010  0.6250 -2.2586 -0.9330
   23SOL     OW   67   0.434   0.073   2.352  0.4261  0.3075  0.2015
   23SOL    HW1   68   0.382   0.015   2.291  3.2539  2.9524  0.3891
   23SOL    HW2   69   0.537   0.055   2.351  2.1511 -1.2578  0.7562
   24SOL     OW   70   2.219   2.463   0.878 -0.1364 -0.5704 -0.1247
   24SOL    HW1   71   2.293   2.532   0.887  0.8796  0.2966  0.6022
   24SOL    HW2   72   2.155   2.471   0.958  1.1783 -1.2549  2.6251
   25SOL     OW   73   1.534   0.453   0.099 -0.3613  0.5034  0.0843
   25SOL    HW1   74   1.555   0.352   0.103  0.8400 -2.0370  0.8091
   25SOL    HW2   75   1.616   0.501   0.057  2.2425  3.2530 -0.2624
   26SOL     OW   76   1.097   2.721   2.892 -0.1686 -0.0537  0.2379
   26SOL    HW1   77   1.042   2.780   2.951  2.8749 -3.9496  1.2497
   26SOL    HW2   78   1.133   2.638   2.943 -0.6153 -3.5786  0.2944
   27SOL     OW   79   0.867   0.800   1.269  0.7471 -0.1349 -0.5236
   27SOL    HW1   80   0.838   0.713   1.226  0.2934  0.3582 -0.8986
   27SOL    HW2   81   0.858   0.884   1.208 -1.3312  0.6409 -2.3596
   28SOL     OW   82   0.859   1.981   1.234 -0.0024 -0.5846  0.1206
   28SOL    HW1   83   0.888   1.934   1.151  3.5490 -2.1513  2.3174
   28SOL    HW2   84   0.867   1.918   1.314 -0.9517  0.9626 -2.3092
   29SOL     OW   85   2.707   0.422   0.823 -0.2731  0.1924 -0.0298
   29SOL    HW1   86   2.607   0.409   0.838  1.0105 -0.3963 -0.3939
   29SOL    HW2   87   2.745   0.500   0.875 -1.1758 -1.2639 -1.2733
   30SOL     OW   88   1.571   0.153   1.615  0.1697 -0.5225  0.1265
   30SOL    HW1   89   1.577   0.130   1.516  0.0762  1.7877  0.3108
   30SOL    HW2   90   1.479   0.121   1.647  1.7276  1.8517 -2.1837
   31SOL     OW   91   1.075   0.168   1.134 -0.0073  0.4297  0.8629
   31SOL    HW1   92   1.161   0.176   1.190 -0.8140  0.5111 -2.5938
   31SOL    HW2   93   1.045   0.071   1.136  0.1587 -0.8391  0.5578
   32SOL     OW   94   2.409   0.998   2.172 -0.4407 -0.5592 -0.7145
   32SOL    HW1   95   2.472   1.071   2.212  0.7137  2.4670  3.1703
   32SOL    HW2   96   2.373   1.022   2.081 -2.1248 -2.3856  2.4204
   33SOL     OW   97   2.540   2.894   2.578 -0.2103 -0.0224  0.2443
   33SOL    HW1   98   2.538   2.792   2.569 -0.7896  1.6452 -1.8849
   33SOL    HW2   99   2.588   2.929   2.495  0.5608  1.2352  2.9664
   34SOL     OW  100   1.942   0.997   3.012 -0.0119 -0.5601 -0.2608
   34SOL    HW1  101   2.008   0.962   3.082 -0.8365 -0.6155 -0.9307
   34SOL    HW2  102   1.847   0.964   3.035 -2.5584  1.0986  0.9540
   35SOL     OW  103   2.884   1.271   1.078 -0.1220  0.4508 -0.0276
   35SOL    HW1  104   2.972   1.220   1.075 -0.7594  0.4436  0.7518
   35SOL    HW2  105   2.813   1.225   1.141 -2.7874 -1.0793  1.1969
   36SOL     OW  106   2.370   2.527   2.738  0.0421 -0.0559  0.4129
   36SOL    HW1  107   2.437   2.549   2.665  2.7186 -3.3796  1.0232
   36SOL    HW2  108   2.273   2.553   2.708  0.3606 -0.7879 -0.0667
   37SOL     OW  109   1.701   0.162   2.077  0.4099 -0.3109  0.4706
   37SOL    HW1  110   1.680   0.136   1.977  1.8851  1.0665 -2.7952
   37SOL    HW2  111   1.796   0.149   2.109  0.1059  1.8919  0.6062
   38SOL     OW  112   1.236   1.520   2.271  0.1074  0.4871 -0.1893
   38SOL    HW1  113   1.260   1.610   2.238  0.5072 -0.0158  2.7607
   38SOL    HW2  114   1.256   1.447   2.203 -0.5151  1.1376 -0.6765
   39SOL     OW  115   1.599   0.442   1.591  0.0973 -0.4351 -0.3216
   39SOL    HW1  116   1.502   0.468   1.566 -1.4400  0.1293  0.5786
   39SOL    HW2  117   1.605   0.339   1.595  0.7460 -1.7408 -0.6769
   40SOL     OW  118   0.993   2.375   0.666 -0.0537  0.2035 -0.5135
   40SOL    HW1  119   1.057   2.293   0.656  2.4848 -3.4596  1.5038
   40SOL    HW2  120   1.038   2.462   0.664 -0.6634 -0.5150 -0.3579
   41SOL     OW  121   2.365   2.246   1.261 -0.3093 -0.1799 -0.3802
   41SOL    HW1  122   2.375   2.351   1.268 -2.2315  0.1580  0.9170
   41SOL    HW2  123   2.436   2.192   1.309 -1.0219  0.5974  0.2125
   42SOL     OW  124   2.576   2.874   0.375  0.2807  0.1816 -0.7443
   42SOL    HW1  125   2.647   2.927   0.321 -0.2137 -3.0892 -0.3664
   42SOL    HW2  126   2.607   2.856   0.471 -0.4992  2.4646  1.8653
   43SOL     OW  127   1.029   1.759   2.129 -0.3434 -0.1272 -0.0628
   43SOL    HW1  128   1.033   1.661   2.101 -1.6781  0.0083  3.6775
   43SOL    HW2  129   1.122   1.789   2.169 -0.3453 -0.1128  1.4571
   44SOL     OW  130   1.806   2.870   1.107 -0.1362  0.9817  0.3544
   44SOL    HW1  131   1.818   2.909   1.015 -0.0598 -0.6889  0.7888
   44SOL    HW2  132   1.888   2.889   1.166  0.5771  0.1094  1.4153
   45SOL     OW  133   0.165   2.207   2.389  0.6080  0.1231  0.1830
   45SOL    HW1  134   0.196   2.112   2.377  1.4244  0.1205 -2.6990
   45SOL    HW2  135   0.125   2.228   2.481  1.2856  1.2602  2.0235
   46SOL     OW  136   0.712   2.486   1.855  0.1083 -0.7207  0.4759
   46SOL    HW1  137   0.640   2.492   1.931  2.2323 -1.6430  2.4233
   46SOL    HW2  138   0.798   2.462   1.903 -0.4140  2.6312  0.5195
   47SOL     OW  139   0.351   1.812   0.528 -0.2615  0.4682 -0.0352
   47SOL    HW1  140   0.385   1.886   0.591 -1.8323  0.4883 -0.7063
   47SOL    HW2  141   0.376   1.830   0.428 -1.8784 -2.4755  0.9727
   48SOL     OW  142   0.721   2.786   1.439 -0.1540  0.2188  0.1283
   48SOL    HW1  143   0.678   2.773   1.348  1.9003 -1.7185 -1.0079
   48SOL    HW2  144   0.681   2.866   1.484 -0.6299  0.2804  2.0463
   49SOL     OW  145   0.333   2.621   0.195  0.0355 -0.2713 -0.2142
   49SOL    HW1  146   0.324   2.714   0.157 -2.1326  1.1387  1.4943
   49SOL    HW2  147   0.304   2.602   0.289 -1.1411 -0.9167  1.1361
   50SOL     OW  148   1.618   0.930   0.609  0.0991 -0.2106  0.0216
   50SOL    HW1  149   1.586   0.926   0.708 -3.7194 -2.0347  0.2022
   50SOL    HW2  150   1.685   1.005   0.588  0.7404 -1.1648  0.5407
   51SOL     OW  151   1.898   2.861   0.834 -0.1045 -0.2664  0.1418
   51SOL    HW1  152   1.863   2.765   0.828  0.5706  1.1666  0.1227
   51SOL    HW2  153   1.821   2.925   0.813 -3.7239  2.3788 -1.0032
   52SOL     OW  154   0.504   1.638   0.957  0.0012 -0.3153 -0.4217
   52SOL    HW1  155   0.546   1.571   1.021 -0.5714 -2.6672 -2.1105
   52SOL    HW2  156   0.463   1.718   1.002 -1.1218 -1.2649 -1.7837
   53SOL     OW  157   0.146   0.907   2.632  0.5347  0.6033 -1.0104
   53SOL    HW1  158   0.063   0.921   2.684 -0.5319  1.9830  1.9796
   53SOL    HW2  159   0.155   0.812   2.593 -0.9083 -1.6926 -0.6940
   54SOL     OW  160   2.144   1.968   2.753 -0.4140  0.1564 -0.1824
   54SOL    HW1  161   2.059   2.022   2.768 -0.1814 -1.8978  2.8369
   54SOL    HW2  162   2.205   1.983   2.835  1.3487  3.2397  1.7036
   55SOL     OW  163   2.642   2.204   1.344  0.0139  0.0513  0.2571
   55SOL    HW1  164   2.679   2.264   1.264  1.3457  1.5190 -2.0296
   55SOL    HW2  165   2.610   2.263   1.421  2.4721  0.8661  1.2017
   56SOL     OW  166   1.313   1.076   1.626  0.1503  0.6559 -0.3553
   56SOL    HW1  167   1.289   1.086   1.726  1.3462 -1.7715 -0.2597
   56SOL    HW2  168   1.390   1.140   1.597  0.0035 -0.0014  0.2631
   57SOL     OW  169   2.149   2.045   0.712  0.9096 -0.0517  0.1468
   57SOL    HW1  170   2.150   2.039   0.812 -1.0583 -0.4620 -2.7927
   57SOL    HW2  171   2.191   2.132   0.684 -0.9063 -1.7324  1.4963
   58SOL     OW  172   2.027   0.368   2.161 -0.8356 -0.0624 -0.2450
   58SOL    HW1  173   2.010   0.411   2.251 -0.8936  1.1086  1.1462
   58SOL    HW2  174   1.979   0.419   2.087  2.6653 -1.8640  1.8185
   59SOL     OW  175   1.441   0.160   2.586 -0.1960 -0.1999  0.2260
   59SOL    HW1  176   1.497   0.144   2.674  0.6286 -1.9176  1.5540
   59SOL    HW2  177   1.392   0.075   2.560 -1.9643 -1.4493  2.4711
   60SOL     OW  178   1.869   1.860   2.980 -0.0727  0.4383  0.0349
   60SOL    HW1  179   1.795   1.837   3.054  0.5911  1.1401  2.0200
   60SOL    HW2  180   1.818   1.917   2.915  0.8609 -2.8484  2.0107
   61SOL     OW  181   0.596   2.028   2.976 -0.1961 -0.1994  0.4282
   61SOL    HW1  182   0.523   1.965   2.999  0.7577  0.0992 -2.0917
   61SOL    HW2  183   0.566   2.064   2.892 -0.8567  1.3858  1.4645
   62SOL     OW  184   1.415   2.240   1.340 -0.6431  0.2735  0.5885
   62SOL    HW1  185   1.323   2.259   1.298  0.0702  1.2041 -0.0952
   62SOL    HW2  186   1.402   2.223   1.441  1.3598  0.3666  1.2446
   63SOL     OW  187   1.010   2.034   0.411 -1.1438  0.3376 -0.3576
   63SOL    HW1  188   0.934   2.036   0.349 -1.5160  4.3359  1.9292
   63SOL    HW2  189   1.021   1.952   0.472 -3.0946  0.2093  0.8576
   64SOL     OW  190   1.759   1.754   2.540 -0.2886 -0.1025  0.0856
   64SOL    HW1  191   1.768   1.660   2.509  2.2020 -0.4315  0.0310
   64SOL    HW2  192   1.801   1.815   2.466  0.5457  2.3029 -1.9402
   65SOL     OW  193   1.837   2.099   1.233 -0.2364  0.4627 -0.6972
   65SOL    HW1  194   1.916   2.160   1.213 -1.9095 -2.9514  0.1592
   65SOL    HW2  195   1.860   2.003   1.224  0.0976 -1.9487  1.5534
   66SOL     OW  196   2.747   0.376   0.554 -0.0605 -0.1142  0.1640
   66SOL    HW1  197   2.826   0.320   0.520  0.4643 -1.9181 -0.4770
   66SOL    HW2  198   2.736   0.378   0.655  1.2111  1.6565 -0.2918
   67SOL     OW  199   2.042   2.548   1.126  0.5907 -0.2978  0.4846
   67SOL    HW1  200   1.942   2.547   1.112  1.7379  1.8375 -0.7022
   67SOL    HW2  201   2.085   2.628   1.076 -1.3967 -0.6025 -0.4619
   68SOL     OW  202   2.483   2.515   1.447  0.2801 -0.8102  0.1172
   68SOL    HW1  203   2.441   2.551   1.366  2.0222 -3.4748  0.8252
   68SOL    HW2  204   2.481   2.579   1.527 -0.0419  0.9639  0.6713
   69SOL     OW  205   2.764   2.718   2.821  0.0525  0.0268 -0.3004
   69SOL    HW1  206   2.767   2.798   2.759 -0.4326 -1.5918 -0.0368
   69SOL    HW2  207   2.669   2.705   2.856  1.0994  0.8290  0.0594
   70SOL     OW  208   1.297   1.756   2.156 -0.1653  0.6689 -0.1448
   70SOL    HW1  209   1.354   1.715   2.085  0.6563 -1.1876  0.9238
   70SOL    HW2  210   1.367   1.819   2.201 -1.7150  1.6182  1.2843
   71SOL     OW  211   1.025   1.844   1.874  0.7336 -0.4948 -0.2653
   71SOL    HW1  212   0.995   1.796   1.961  2.2864 -1.0524  2.2384
   71SOL    HW2  213   0.947   1.904   1.840 -2.5313 -1.3483 -0.3893
   72SOL     OW  214   2.677   1.354   1.507  0.0314 -0.1958 -0.1380
   72SOL    HW1  215   2.668   1.311   1.601  3.7080  3.0774  3.5386
   72SOL    HW2  216   2.599   1.415   1.482 -0.2019  0.3676  0.5434
   73SOL     OW  217   0.756   2.078   2.531  0.6685 -0.0346 -0.1325
   73SOL    HW1  218   0.723   2.114   2.439 -2.8599 -1.5237 -0.0774
   73SOL    HW2  219   0.842   2.129   2.553 -0.3226 -0.6060 -0.3720
   74SOL     OW  220   0.719   0.040   2.385 -0.2493  0.1267 -0.3082
   74SOL    HW1  221   0.734   3.025   2.406 -0.2288 -1.5295  0.2239
   74SOL    HW2  222   0.797   0.088   2.343 -0.2982 -0.9097 -0.9175
   75SOL     OW  223   0.861   3.059   0.650 -0.1833  0.2569  0.2131
   75SOL    HW1  224   0.900   2.973   0.686 -0.6910  2.3356  0.6615
   75SOL    HW2  225   0.938   0.039   0.628  1.3255  0.4273 -1.3897
   76SOL     OW  226   0.515   1.007   2.612 -0.5780 -0.2548 -0.5589
   76SOL    HW1  227   0.438   1.058   2.575  4.1569  0.9921  1.3266
   76SOL    HW2  228   0.491   0.910   2.609  0.7239 -3.1688 -1.6471
   77SOL     OW  229   0.621   2.742   0.555 -0.0003  0.1918 -0.5040
   77SOL    HW1  230   0.576   2.742   0.464  0.2500  0.3539  1.1184
   77SOL    HW2  231   0.721   2.752   0.547 -0.0846 -1.6458 -0.4876
   78SOL     OW  232   2.563   1.119   2.691 -0.4871 -0.2994 -0.0225
   78SOL    HW1  233   2.517   1.166   2.616 -1.1904 -1.4127  2.8022
   78SOL    HW2  234   2.636   1.049   2.664 -0.4544 -4.1251  0.0492
   79SOL     OW  235   1.153   1.283   2.414 -0.0070 -0.0178  0.3844
   79SOL    HW1  236   1.166   1.385   2.420 -1.6367 -0.4717 -1.8630
   79SOL    HW2  237   1.132   1.256   2.318  1.3412 -0.8348  0.5316
   80SOL     OW  238   2.060   1.022   1.445  0.6622 -0.1191 -0.1895
   80SOL    HW1  239   2.025   1.112   1.421 -0.3999  2.0637 -1.7287
   80SOL    HW2  240   2.155   1.026   1.478  0.9504 -2.5594  0.4888
   81SOL     OW  241   2.428   0.953   2.855 -0.3757  0.3431  0.1748
   81SOL    HW1  242   2.327   0.961   2.851 -1.8071 -0.9629 -2.9934
   81SOL    HW2  243   2.471   1.026   2.794  1.6231 -0.7352  1.2105
   82SOL     OW  244   2.338   2.102   1.572  0.0564 -0.1776 -0.1836
   82SOL    HW1  245   2.296   2.070   1.484  2.1100  0.1128 -0.8819
   82SOL    HW2  246   2.341   2.024   1.639 -2.0197 -1.0225  0.2633
   83SOL     OW  247   1.866   2.912   0.316 -0.4738  0.2896 -0.0403
   83SOL    HW1  248   1.781   2.921   0.372  0.6079  1.9428 -0.0705
   83SOL    HW2  249   1.846   2.885   0.217 -0.5186 -1.7092 -3.0131
   84SOL     OW  250   0.879   0.768   0.687 -0.0007  0.0253  0.0096
   84SOL    HW1  251   0.929   0.680   0.691  1.1799  1.9801 -0.6582
   84SOL    HW2  252   0.800   0.780   0.747  0.8918 -0.0011  0.2507
   85SOL     OW  253   2.072   1.635   1.225 -0.1220  0.0458  0.0073
   85SOL    HW1  254   2.133   1.558   1.202 -0.4073 -0.7740 -0.5303
   85SOL    HW2  255   2.115   1.720   1.192  0.0058  0.4235  0.2105
   86SOL     OW  256   0.553   0.780   1.188  0.6562  0.1962  0.1985
   86SOL    HW1  257   0.464   0.814   1.154 -1.5080  1.2018 -1.8018
   86SOL    HW2  258   0.578   0.822   1.278  2.7029 -2.6102  1.3362
   87SOL     OW  259   2.983   2.156   2.270  0.5524 -0.5267  0.4431
   87SOL    HW1  260   3.027   2.136   2.181 -0.6588  0.9407  1.1638
   87SOL    HW2  261   3.053   2.191   2.335 -1.0767  0.1137 -2.6946
   88SOL     OW  262   0.382   2.855   0.063  0.2882  0.3978  0.3504
   88SOL    HW1  263   0.454   2.810   0.006 -1.0207 -1.4077 -4.3825
   88SOL    HW2  264   0.351   2.944   0.026  2.4050  0.1923  3.7365
   89SOL     OW  265   1.384   0.589   1.296 -1.0756  0.0584 -0.1444
   89SOL    HW1  266   1.462   0.658   1.298 -0.5540 -0.7670  1.0882
   89SOL    HW2  267   1.369   0.556   1.391 -0.7319  2.2821 -0.1068
   90SOL     OW  268   2.915   1.108   2.015 -0.3038 -0.3764  0.2049
   90SOL    HW1  269   2.958   1.200   2.028  0.7733 -1.7749 -2.6314
   90SOL    HW2  270   2.893   1.102   1.916 -0.0979  2.8066  0.8472
   91SOL     OW  271   1.832   2.590   0.814  0.5056  0.0896  0.3016
   91SOL    HW1  272   1.888   2.506   0.820 -1.4846  2.2882  1.2787
   91SOL    HW2  273   1.786   2.610   0.901  0.0382  0.5486 -2.0730
   92SOL     OW  274   1.856   1.993   0.665 -0.5210 -0.1271 -0.3187
   92SOL    HW1  275   1.944   2.048   0.659  0.4902 -2.0496  1.4239
   92SOL    HW2  276   1.788   2.025   0.588 -0.7604  1.2020 -1.4615
   93SOL     OW  277   0.464   1.450   0.390  0.0825 -0.1276 -0.3375
   93SOL    HW1  278   0.460   1.529   0.454 -0.9615  1.1781  2.5204
   93SOL    HW2  279   0.462   1.366   0.445  1.1225 -0.1750  3.1332
   94SOL     OW  280   0.805   2.314   1.099  0.6708 -0.4699 -0.3012
   94SOL    HW1  281   0.859   2.259   1.028  1.4138 -1.7393  1.4148
   94SOL    HW2  282   0.739   2.250   1.144 -0.6852 -0.1349  0.9419
   95SOL     OW  283   0.462   0.794   0.278 -0.4159 -0.1826 -0.8171
   95SOL    HW1  284   0.390   0.827   0.343  1.5542 -0.2970  3.2281
   95SOL    HW2  285   0.505   0.866   0.224 -0.5646 -0.7975 -1.7125
   96SOL     OW  286   0.922   2.428   2.034 -0.0951 -0.3807  0.1469
   96SOL    HW1  287   0.976   2.505   1.989  0.5157  2.1202 -1.5508
   96SOL    HW2  288   0.968   2.339   2.011  4.4474 -0.1121 -1.6177
   97SOL     OW  289   2.229   1.038   0.573 -0.0332 -0.2294  0.2627
   97SOL    HW1  290   2.236   1.082   0.663  1.9001 -1.4528 -0.6860
   97SOL    HW2  291   2.309   1.056   0.519 -2.5157  1.2313  1.9063
   98SOL     OW  292   0.257   1.871   1.946 -0.5554 -0.4811 -0.0320
   98SOL    HW1  293   0.165   1.839   1.971 -0.7619  0.7041 -0.1103
   98SOL    HW2  294   0.325   1.794   1.954  2.2663 -1.5869 -1.5157
   99SOL     OW  295   0.201   0.518   1.978 -0.4047 -0.6357 -0.0773
   99SOL    HW1  296   0.271   0.584   1.940  0.5917  2.1694  0.7662
   99SOL    HW2  297   0.228   0.417   1.962 -0.7414 -1.5131 -0.5088
  100SOL     OW  298   2.124   0.662   2.586 -0.2122  0.2803  0.2535
  100SOL    HW1  299   2.132   0.584   2.652  1.3639 -0.0540 -0.9702
  100SOL    HW2  300   2.133   0.750   2.635 -1.9331  2.4024  0.5732
  101SOL     OW  301   1.052   0.260   1.915 -0.1320 -0.1423 -0.2186
  101SOL    HW1  302   1.077   0.171   1.947 -3.0413 -1.4248 -2.6810
  101SOL    HW2  303   0.975   0.254   1.849 -2.5528 -0.6870 -1.6683
  102SOL     OW  304   0.342   0.641   1.612  0.3290 -0.4070 -0.6236
  102SOL    HW1  305   0.295   0.697   1.537  0.0923  0.1008 -3.1686
  102SOL    HW2  306   0.307   0.658   1.705 -1.0982 -0.6731 -2.1960
  103SOL     OW  307   0.471   0.706   2.854 -0.4497  0.0864 -0.0148
  103SOL    HW1  308   0.474   0.616   2.901 -1.1597  2.4145 -0.7840
  103SOL    HW2  309   0.554   0.756   2.896  1.3342  0.5441  1.2642
  104SOL     OW  310   0.253   2.701   1.957  0.2263  0.0543 -0.2247
  104SOL    HW1  311   0.154   2.725   1.950 -1.2880 -0.6525 -1.4882
  104SOL    HW2  312   0.289   2.708   2.051 -1.0890  0.2110  0.1293
  105SOL     OW  313   2.302   2.742   1.821 -0.0528 -0.4453  0.8309
  105SOL    HW1  314   2.360   2.826   1.812  0.4357 -0.3478  2.0261
  105SOL    HW2  315   2.202   2.759   1.833  0.6387 -0.6392 -1.9968
  106SOL     OW  316   0.476   2.946   0.719 -0.5363  0.1355 -0.7241
  106SOL    HW1  317   0.542   3.018   0.748 -0.9881 -0.0653 -0.4005
  106SOL    HW2  318   0.522   2.880   0.661 -4.8099  2.5732  3.7832
  107SOL     OW  319   2.940   1.525   1.172 -0.2726  0.0331 -0.0863
  107SOL    HW1  320   2.966   1.432   1.151 -2.6328  0.3742 -2.1918
  107SOL    HW2  321   2.896   1.533   1.263  1.2102 -2.2849 -0.8349
  108SOL     OW  322   0.512   2.112   0.961 -0.3867 -0.5303  0.3994
  108SOL    HW1  323   0.482   2.196   0.914 -0.7800  1.6359  3.2825
  108SOL    HW2  324   0.545   2.140   1.055 -1.2959  1.1494  1.7415
  109SOL     OW  325   1.251   2.857   0.540 -0.3963  0.0783 -0.0624
  109SOL    HW1  326   1.270   2.921   0.616 -1.7292 -1.4660  0.6958
  109SOL    HW2  327   1.296   2.887   0.454  0.5037  0.1148  1.4559
  110SOL     OW  328   1.413   1.898   0.547 -0.1427  0.7234 -0.1808
  110SOL    HW1  329   1.492   1.969   0.541  1.5801 -0.1619  0.4689
  110SOL    HW2  330   1.430   1.830   0.620 -0.3113  1.9207 -0.6665
  111SOL     OW  331   1.542   2.777   2.006  0.1678 -0.1257 -0.0217
  111SOL    HW1  332   1.496   2.695   2.052 -2.2811 -1.4806  1.1552
  111SOL    HW2  333   1.573   2.847   2.070 -2.1207 -0.1217 -1.1933
  112SOL     OW  334   1.783   2.597   2.830  0.3855 -0.2584 -0.0325
  112SOL    HW1  335   1.828   2.573   2.742  1.7777 -1.9420 -0.4184
  112SOL    HW2  336   1.845   2.641   2.894 -1.4385  0.2670 -1.2431
  113SOL     OW  337   2.234   2.164   2.077  0.5397 -0.1291  0.3073
  113SOL    HW1  338   2.264   2.229   2.149  1.0302  0.1984 -1.2708
  113SOL    HW2  339   2.323   2.124   2.054 -1.3466 -0.1448 -0.3296
  114SOL     OW  340   0.032   1.196   1.729 -0.7848 -0.0970 -0.4388
  114SOL    HW1  341   0.096   1.129   1.690  1.5383  2.0449 -0.7729
  114SOL    HW2  342   0.083   1.277   1.776  0.7252 -0.9229  2.0582
  115SOL     OW  343   0.094   0.731   3.049  0.3902  0.3021 -0.1573
  115SOL    HW1  344   0.091   0.730   0.071  1.2014 -0.1062 -0.9526
  115SOL    HW2  345   0.171   0.793   3.019 -3.2019  0.5382  0.4050
  116SOL     OW  346   2.804   0.456   0.129 -0.0281  0.3734 -0.4873
  116SOL    HW1  347   2.833   0.487   0.037  2.3617  1.1092  0.5524
  116SOL    HW2  348   2.835   0.361   0.142 -0.4936 -0.6014 -1.5574
  117SOL     OW  349   2.918   2.702   0.733 -0.2562 -0.7933 -0.7186
  117SOL    HW1  350   2.928   2.611   0.694 -0.3348  1.6268  1.1863
  117SOL    HW2  351   2.876   2.701   0.823 -0.7499 -2.8977 -0.8630
  118SOL     OW  352   1.037   2.184   1.978 -0.4689  0.9664 -0.3276
  118SOL    HW1  353   1.135   2.153   1.965 -0.8785 -2.2925  2.5941
  118SOL    HW2  354   0.991   2.141   2.060  0.5612  0.5260  0.2287
  119SOL     OW  355   0.825   2.520   0.130 -0.3788 -0.2047  0.7692
  119SOL    HW1  356   0.729   2.521   0.101  0.5236  0.0801 -0.1519
  119SOL    HW2  357   0.824   2.512   0.230  0.6971 -2.4231 -0.3877
  120SOL     OW  358   1.439   1.069   0.140 -0.3088 -0.8526  0.5409
  120SOL    HW1  359   1.453   1.019   0.228  0.2131  1.0194 -1.2424
  120SOL    HW2  360   1.399   1.008   0.071 -0.9196  0.0769  2.1795
  121SOL     OW  361   1.362   1.107   1.180  0.1283 -0.1121 -0.0119
  121SOL    HW1  362   1.428   1.064   1.245 -2.1073 -1.1758  0.8467
  121SOL    HW2  363   1.415   1.133   1.096  0.3126 -1.3471  1.5309
  122SOL     OW  364   2.107   1.276   2.192 -0.0439 -0.1819  0.2377
  122SOL    HW1  365   2.012   1.244   2.203  3.1897 -2.6421  1.2111
  122SOL    HW2  366   2.170   1.199   2.205 -0.6051  1.4564  1.4641
  123SOL     OW  367   0.236   0.861   0.416 -0.0615 -0.0376 -0.2058
  123SOL    HW1  368   0.168   0.927   0.377  1.6051 -1.4209  1.1777
  123SOL    HW2  369   0.198   0.826   0.502 -1.8788 -0.3373 -3.8501
  124SOL     OW  370   0.864   0.184   2.868 -0.2980 -0.3121 -0.2937
  124SOL    HW1  371   0.812   0.167   2.782  1.5535 -1.1516 -0.6408
  124SOL    HW2  372   0.922   0.272   2.866  3.3482  0.4086 -0.5489
  125SOL     OW  373   0.544   2.737   2.931  0.3416 -0.5733  0.0259
  125SOL    HW1  374   0.550   2.636   2.937  1.1276 -0.3641  0.4625
  125SOL    HW2  375   0.458   2.768   2.884 -1.4626  0.9200 -0.8666
  126SOL     OW  376   0.826   1.387   2.665 -0.2923  0.0151 -0.5130
  126SOL    HW1  377   0.826   1.460   2.592 -1.8440 -0.8917 -0.8325
  126SOL    HW2  378   0.908   1.388   2.728  1.8078 -1.2610 -0.8085
  127SOL     OW  379   1.156   2.819   0.978 -0.0045  0.4732 -0.2360
  127SOL    HW1  380   1.113   2.852   1.067  0.2935  1.2495  2.7750
  127SOL    HW2  381   1.223   2.887   0.944  2.4118 -0.4573  1.4014
  128SOL     OW  382   1.678   2.094   0.118  0.0114  0.4672  0.4587
  128SOL    HW1  383   1.601   2.114   0.186 -2.3068  0.5837 -1.8455
  128SOL    HW2  384   1.663   1.998   0.084 -3.3140  0.0766  0.5637
  129SOL     OW  385   1.833   1.689   1.373 -0.1637  0.1042  0.2584
  129SOL    HW1  386   1.925   1.673   1.327  1.5342  0.8244  0.5214
  129SOL    HW2  387   1.769   1.755   1.318 -0.0796  2.9779 -0.3184
  130SOL     OW  388   1.995   1.940   1.479 -0.6340  0.3783  0.2916
  130SOL    HW1  389   1.903   1.974   1.448 -1.0381  2.7933 -3.5666
  130SOL    HW2  390   2.063   1.960   1.407  1.0889 -0.5884  0.5045
  131SOL     OW  391   0.858   2.799   1.912 -0.2977  0.0068  0.5347
  131SOL    HW1  392   0.844   2.787   2.011 -0.1100 -0.2460 -1.7461
  131SOL    HW2  393   0.769   2.821   1.873 -0.7691  3.5342 -1.3839
  132SOL     OW  394   2.626   1.585   0.708  0.4872 -0.5074 -0.1085
  132SOL    HW1  395   2.554   1.659   0.714  1.4645 -0.1243 -0.4188
  132SOL    HW2  396   2.668   1.588   0.801 -1.0572 -2.6914  1.8823
  133SOL     OW  397   0.700   1.599   1.690  0.1728  0.1026 -0.5036
  133SOL    HW1  398   0.654   1.508   1.686  0.9303  0.1600 -0.3449
  133SOL    HW2  399   0.635   1.659   1.731  3.1845  0.6540  1.6632
  134SOL     OW  400   0.184   1.046   0.688 -0.1984 -0.1902  0.9365
  134SOL    HW1  401   0.100   1.099   0.661 -0.6531 -2.6022 -3.2705
  134SOL    HW2  402   0.163   0.948   0.689  2.1569  2.2495 -0.1582
  135SOL     OW  403   2.090   1.917   0.041  0.1437  0.2883  0.5310
  135SOL    HW1  404   2.082   1.852   0.122  0.9675 -2.0360  1.1162
  135SOL    HW2  405   2.012   1.902   3.061  0.8687 -2.4365 -0.3622
  136SOL     OW  406   2.759   1.619   1.369  0.1585 -0.0949 -0.5495
  136SOL    HW1  407   2.716   1.545   1.428 -1.3962 -0.8835  1.0739
  136SOL    HW2  408   2.776   1.705   1.424  0.5777  1.7741 -0.4593
  137SOL     OW  409   2.678   1.295   2.856  0.4796 -0.2704  0.0970
  137SOL    HW1  410   2.641   1.216   2.807 -0.9835 -1.6453 -1.3815
  137SOL    HW2  411   2.636   1.303   2.950  0.3325 -2.7670 -0.2142
  138SOL     OW  412   2.951   0.340   0.957 -0.4521 -0.4284 -0.5503
  138SOL    HW1  413   2.883   0.333   1.031  1.8606  1.4031 -0.0936
  138SOL    HW2  414   2.916   0.300   0.869 -1.3075 -0.9129 -1.1209
  139SOL     OW  415   1.934   2.253   2.962 -0.1209 -0.6339 -0.4339
  139SOL    HW1  416   1.858   2.323   2.949 -1.2483 -0.1651 -1.6075
  139SOL    HW2  417   1.924   2.191   2.887 -1.0686  1.3887  1.2854
  140SOL     OW  418   0.861   1.571   0.818  0.6720  0.3747  0.0912
  140SOL    HW1  419   0.760   1.585   0.812  0.3318  0.2884  2.3269
  140SOL    HW2  420   0.895   1.583   0.723 -1.4367  0.3200  0.6266
  141SOL     OW  421   1.319   1.511   1.035 -0.7202 -0.9050 -0.1951
  141SOL    HW1  422   1.255   1.497   0.954 -1.3787  1.7002 -1.0380
  141SOL    HW2  423   1.418   1.510   1.005  0.5135  0.5202  0.4435
  142SOL     OW  424   1.092   0.785   1.054  0.3251  0.1838 -0.0424
  142SOL    HW1  425   1.054   0.856   0.991 -0.5757 -0.5446 -0.2526
  142SOL    HW2  426   1.039   0.697   1.052  0.3714 -1.3535  1.4495
  143SOL     OW  427   0.367   0.024   2.609 -0.4234 -0.3028 -0.3602
  143SOL    HW1  428   0.370   0.042   2.508 -1.3472  0.2167 -1.1991
  143SOL    HW2  429   0.362   0.115   2.655 -0.4458 -1.4346  2.1596
  144SOL     OW  430   2.335   0.187   0.499 -0.6591  0.3731 -0.1058
  144SOL    HW1  431   2.397   0.267   0.486 -0.4136  1.2995  4.0644
  144SOL    HW2  432   2.244   0.204   0.464  1.3599 -0.4021  1.7489
  145SOL     OW  433   1.864   3.046   2.793  0.4459  0.4928  0.8720
  145SOL    HW1  434   1.885   0.016   2.706  1.2582 -1.6713  0.9227
  145SOL    HW2  435   1.939   2.989   2.819  0.8616  0.2576  2.0408
  146SOL     OW  436   2.938   2.703   0.271 -0.7213 -0.2582 -0.0811
  146SOL    HW1  437   2.875   2.783   0.251  1.4272  0.9073 -1.9423
  146SOL    HW2  438   2.891   2.618   0.255 -0.9705  2.8983 -3.0590
  147SOL     OW  439   1.715   1.196   0.201  0.1583  0.3134  0.3756
  147SOL    HW1  440   1.619   1.165   0.211  1.1143 -0.4693 -0.8805
  147SOL    HW2  441   1.734   1.231   0.105 -2.2986 -0.8157 -0.5628
  148SOL     OW  442   0.949   2.996   0.330 -0.2798 -0.2954  0.1922
  148SOL    HW1  443   0.905   2.983   0.240 -1.2049 -0.6309  1.7015
  148SOL    HW2  444   0.902   3.080   0.373 -2.1652 -0.6709  1.6177
  149SOL     OW  445   1.378   0.663   2.475 -0.0854  0.1130 -0.2969
  149SOL    HW1  446   1.300   0.725   2.491  2.6232  0.8860  2.2710
  149SOL    HW2  447   1.354   0.569   2.518 -0.6757 -1.9185 -0.1780
  150SOL     OW  448   1.328   2.816   2.786 -0.1130 -0.0675 -0.3496
  150SOL    HW1  449   1.413   2.760   2.793 -0.2392  0.3825  2.4799
  150SOL    HW2  450   1.248   2.775   2.833  2.2779 -0.3579 -0.1623
  151SOL     OW  451   0.204   1.124   2.898  0.0452  0.7700  0.3720
  151SOL    HW1  452   0.289   1.182   2.878 -0.8044 -0.6486 -0.8649
  151SOL    HW2  453   0.242   1.034   2.923  2.5958  0.0125  0.5199
  152SOL     OW  454   0.543   0.228   1.526 -0.2835  0.0283  0.2115
  152SOL    HW1  455   0.461   0.296   1.547 -3.0077  3.0486 -0.3895
  152SOL    HW2  456   0.621   0.290   1.496  0.3076  1.9519  0.5343
  153SOL     OW  457   2.428   0.005   1.366  0.0423 -0.0102  0.1857
  153SOL    HW1  458   2.425   0.092   1.425  2.7471  2.9063  0.4650
  153SOL    HW2  459   2.356   3.021   1.399 -3.5975  0.2272  0.7338
  154SOL     OW  460   2.256   0.569   1.817 -0.6469  0.0564  0.0758
  154SOL    HW1  461   2.234   0.501   1.747  0.3068 -1.3399  0.5429
  154SOL    HW2  462   2.247   0.516   1.906 -0.5692  1.9001 -0.7999
  155SOL     OW  463   0.393   1.115   0.047  0.3140  0.0807 -0.0177
  155SOL    HW1  464   0.493   1.142   0.051 -1.5896 -2.3399  0.3999
  155SOL    HW2  465   0.341   1.112   0.134 -0.2465  1.5742 -1.2794
  156SOL     OW  466   1.940   1.311   0.285 -0.0448 -0.5233  0.1022
  156SOL    HW1  467   2.017   1.240   0.276  0.8281  1.4708  0.3269
  156SOL    HW2  468   1.848   1.266   0.284  0.0880  0.4631 -0.1559
  157SOL     OW  469   1.291   2.028   2.984  0.7382  0.0354  0.3376
  157SOL    HW1  470   1.306   2.035   2.884 -3.0895  1.0135  0.5543
  157SOL    HW2  471   1.193   2.022   3.012 -0.4654 -0.6635 -0.0269
  158SOL     OW  472   1.722   0.867   1.836  0.0764  0.1764 -0.2810
  158SOL    HW1  473   1.682   0.772   1.826 -1.0505  1.7129  0.3264
  158SOL    HW2  474   1.652   0.935   1.858  1.1162  3.0233  1.4004
  159SOL     OW  475   0.114   0.203   0.602  0.3193  0.0308  0.4180
  159SOL    HW1  476   0.140   0.126   0.667  1.6518 -1.2315  0.6807
  159SOL    HW2  477   0.178   0.213   0.523 -0.1562 -2.1532 -0.5372
  160SOL     OW  478   2.441   1.648   1.789  0.2447 -0.1568 -0.3094
  160SOL    HW1  479   2.521   1.598   1.834 -0.7537 -1.9560  0.2702
  160SOL    HW2  480   2.355   1.597   1.812 -1.6443 -2.6863 -0.9170
  161SOL     OW  481   0.165   3.041   0.344 -0.2863  0.0255 -0.6119
  161SOL    HW1  482   0.116   2.953   0.350  0.4622  1.0533 -2.3644
  161SOL    HW2  483   0.261   3.031   0.375 -0.8035 -1.6096  0.6047
  162SOL     OW  484   0.244   0.295   2.363 -0.3631 -0.0112 -0.2329
  162SOL    HW1  485   0.175   0.293   2.437 -1.2633 -1.3495  1.7164
  162SOL    HW2  486   0.288   0.205   2.346 -3.4861  2.9698 -0.6116
  163SOL     OW  487   3.077   2.831   2.475 -0.0766 -0.3627 -0.3334
  163SOL    HW1  488   0.041   2.748   2.506 -0.0010  2.1044 -3.4357
  163SOL    HW2  489   2.978   2.813   2.462  1.7205  0.2714  1.0906
  164SOL     OW  490   2.440   2.005   0.373 -0.8071  0.2515  0.4451
  164SOL    HW1  491   2.469   2.093   0.328  1.2505 -0.1078  0.1395
  164SOL    HW2  492   2.342   1.988   0.382  2.8984 -0.0048  1.1768
  165SOL     OW  493   0.965   0.588   1.566  0.1558  0.5095  0.6003
  165SOL    HW1  494   1.026   0.594   1.485 -1.1300  1.1223  1.8110
  165SOL    HW2  495   0.917   0.674   1.570  0.6866  1.8633 -2.6904
  166SOL     OW  496   2.970   0.064   0.321 -0.2760  0.1975 -0.1337
  166SOL    HW1  497   3.069   0.028   0.309  2.2009 -2.4936  1.8200
  166SOL    HW2  498   2.957   0.096   0.413 -2.1406 -0.8510 -1.8239
  167SOL     OW  499   2.080   0.556   0.898  0.7808 -0.2341  0.1868
  167SOL    HW1  500   2.136   0.556   0.982  1.4348 -2.6997  0.4547
  167SOL    HW2  501   1.992   0.507   0.926 -2.7967 -2.4430  0.6021
  168SOL     OW  502   1.056   0.367   2.268 -0.0421 -0.0145 -0.7330
  168SOL    HW1  503   1.144   0.332   2.232 -0.3239 -0.3687 -0.0827
  168SOL    HW2  504   1.058   0.374   2.370  0.9741 -2.2227  2.4627
  169SOL     OW  505   1.211   1.964   1.258 -0.0625  0.3462 -0.1225
  169SOL    HW1  506   1.177   1.868   1.237  1.2211  0.0184  1.1454
  169SOL    HW2  507   1.140   2.032   1.286 -2.0029  1.0571 -1.1302
  170SOL     OW  508   3.021   3.025   1.535  0.1495 -0.1362 -0.3710
  170SOL    HW1  509   2.992   2.945   1.474 -2.6609 -0.9465 -0.1538
  170SOL    HW2  510   3.049   0.027   1.480  2.7879  2.6793 -1.4268
  171SOL     OW  511   2.671   0.478   2.352  0.6087 -0.5261 -0.6727
  171SOL    HW1  512   2.609   0.458   2.274  1.5664 -0.6469  0.8301
  171SOL    HW2  513   2.622   0.512   2.434 -2.3051  1.7964 -2.0271
  172SOL     OW  514   1.290   2.915   1.420  0.6075 -0.1803 -0.3221
  172SOL    HW1  515   1.223   2.948   1.488 -0.2385  0.8419  1.4971
  172SOL    HW2  516   1.328   2.994   1.367  0.9120 -0.4769 -1.1286
  173SOL     OW  517   2.647   2.314   2.765  0.0896 -0.1068  0.4012
  173SOL    HW1  518   2.568   2.341   2.824 -1.0639 -3.1438 -2.3899
  173SOL    HW2  519   2.695   2.395   2.724 -1.7344 -0.0450  0.6104
  174SOL     OW  520   1.912   1.024   0.306 -0.2697 -0.1925 -0.1380
  174SOL    HW1  521   1.947   0.938   0.269  0.7054 -0.1677  1.5654
  174SOL    HW2  522   1.837   1.061   0.252  2.4981  1.8137 -1.8044
  175SOL     OW  523   0.856   1.596   1.281 -0.1628  0.5962 -0.6816
  175SOL    HW1  524   0.841   1.639   1.190  2.2453 -2.9641 -1.2666
  175SOL    HW2  525   0.859   1.671   1.347  2.4082 -0.3468  2.4192
  176SOL     OW  526   0.195   3.056   0.752 -0.3088 -0.2170  0.1866
  176SOL    HW1  527   0.292   3.024   0.747  0.7656 -0.5622  1.3507
  176SOL    HW2  528   0.128   2.989   0.723  3.5652  1.7392  2.0230
  177SOL     OW  529   2.591   1.310   0.360  0.5039 -0.4798 -0.0922
  177SOL    HW1  530   2.692   1.321   0.353 -2.7926 -3.4815  0.6838
  177SOL    HW2  531   2.546   1.397   0.376 -0.3564  2.0554 -2.9985
  178SOL     OW  532   2.792   2.624   2.068  0.4223  0.0707 -0.6351
  178SOL    HW1  533   2.859   2.668   2.011  1.7285 -2.3612 -0.1380
  178SOL    HW2  534   2.830   2.565   2.144  0.8083 -1.4516  2.4881
  179SOL     OW  535   2.332   2.988   0.463  0.0761 -0.2880 -0.1614
  179SOL    HW1  536   2.416   2.955   0.426 -2.2912 -0.9566  0.9677
  179SOL    HW2  537   2.316   0.009   0.464  0.0879  2.4962  1.1714
  180SOL     OW  538   2.041   0.525   0.626 -0.0008 -0.1013  0.0576
  180SOL    HW1  539   2.053   0.555   0.722  1.6555  1.2179 -0.7154
  180SOL    HW2  540   1.966   0.577   0.579 -1.4018 -0.4233  1.0243
  181SOL     OW  541   2.797   0.200   2.804 -0.3658  0.1473  0.0110
  181SOL    HW1  542   2.900   0.181   2.814  1.3198 -0.2688 -1.7632
  181SOL    HW2  543   2.737   0.121   2.826 -1.3104  0.8275 -2.9641
  182SOL     OW  544   2.675   1.843   2.498  0.1265  0.7080  0.5075
  182SOL    HW1  545   2.581   1.802   2.491  0.4211 -0.7014  0.0607
  182SOL    HW2  546   2.698   1.907   2.417  2.3735  1.9639 -2.8050
  183SOL     OW  547   0.261   1.046   1.660  0.6002 -0.1997 -0.2994
  183SOL    HW1  548   0.284   1.103   1.578  0.6156  2.5992  0.1644
  183SOL    HW2  549   0.343   0.999   1.696 -0.1334  0.0986  3.9356
  184SOL     OW  550   0.284   1.264   1.135  0.4989 -0.3042  0.0320
  184SOL    HW1  551   0.220   1.236   1.061  0.6360  0.7080  2.1538
  184SOL    HW2  552   0.374   1.229   1.102  0.8939  0.2379  1.2920
  185SOL     OW  553   3.049   2.510   1.225  0.3340 -0.3868  0.0292
  185SOL    HW1  554   3.078   2.504   1.128 -1.2891 -1.4254  0.9237
  185SOL    HW2  555   2.957   2.559   1.232 -1.8340 -1.9896  0.8330
  186SOL     OW  556   1.569   2.693   2.693 -0.1939 -0.1482 -0.1894
  186SOL    HW1  557   1.654   2.660   2.739 -2.4025 -0.1300  2.2710
  186SOL    HW2  558   1.489   2.629   2.715 -3.5897  1.2156  1.4685
  187SOL     OW  559   0.133   1.309   0.511 -0.2403 -0.2467 -0.0465
  187SOL    HW1  560   0.062   1.246   0.545  0.9889  0.9032  0.2249
  187SOL    HW2  561   0.220   1.308   0.574  2.2757 -1.8533 -2.1800
  188SOL     OW  562   1.837   1.836   0.285  0.4353  0.5460 -0.0898
  188SOL    HW1  563   1.786   1.791   0.212 -1.9123 -0.1570  0.6499
  188SOL    HW2  564   1.847   1.934   0.271  0.1226 -1.4284  0.3840
  189SOL     OW  565   0.090   1.695   2.918 -0.0000 -0.4963 -0.6098
  189SOL    HW1  566   0.096   1.746   3.006 -0.0066 -1.6700 -0.4292
  189SOL    HW2  567   3.080   1.714   2.877 -1.4699 -3.2063 -1.3044
  190SOL     OW  568   2.501   0.718   2.162  0.3130  0.4055  0.0319
  190SOL    HW1  569   2.446   0.803   2.151 -0.9941  3.1516 -2.9941
  190SOL    HW2  570   2.467   0.668   2.249  0.7653 -1.0528  1.4734
  191SOL     OW  571   0.647   1.264   2.253  0.2102 -0.2149  0.1081
  191SOL    HW1  572   0.552   1.292   2.248 -1.7266  1.2185  0.9628
  191SOL    HW2  573   0.674   1.259   2.351 -1.1514 -0.0220  2.3911
  192SOL     OW  574   1.959   1.305   1.906 -0.3281  0.0503 -0.0542
  192SOL    HW1  575   1.945   1.360   1.996 -1.4218  0.5442 -0.1709
  192SOL    HW2  576   2.046   1.322   1.855 -0.3919 -1.0133  0.2174
  193SOL     OW  577   0.661   0.053   0.846 -0.6677 -0.2398  0.5531
  193SOL    HW1  578   0.614   0.142   0.827  1.5574 -1.3531  3.1286
  193SOL    HW2  579   0.743   0.049   0.789 -2.5444  2.3444  1.9754
  194SOL     OW  580   1.573   1.569   1.322 -0.8254  0.6404 -0.0142
  194SOL    HW1  581   1.642   1.610   1.389  0.1694  3.2346  2.0356
  194SOL    HW2  582   1.525   1.643   1.269 -1.5703  0.6534 -3.5255
  195SOL     OW  583   1.825   0.434   0.978  0.0698 -0.1355  0.1468
  195SOL    HW1  584   1.834   0.339   0.948  1.7079 -0.9230  0.3506
  195SOL    HW2  585   1.751   0.475   0.920  0.0842 -0.5117 -2.8573
  196SOL     OW  586   1.231   1.699   1.788 -0.1079  0.0639  0.0188
  196SOL    HW1  587   1.298   1.692   1.863  0.3897 -0.2115 -2.9330
  196SOL    HW2  588   1.146   1.742   1.819 -0.9351  1.5675 -0.7898
  197SOL     OW  589   3.032   2.943   2.817 -0.5689  0.1043  0.0859
  197SOL    HW1  590   3.054   3.007   2.892  0.6527 -0.5136  0.5999
  197SOL    HW2  591   0.020   2.866   2.825 -0.0811  0.2450  0.6278
  198SOL     OW  592   0.096   0.772   0.630  0.1572 -0.5284  0.0358
  198SOL    HW1  593   0.115   0.670   0.620  2.0339 -3.1470  2.5658
  198SOL    HW2  594   0.006   0.782   0.679 -1.1785  0.5382 -0.4324
  199SOL     OW  595   0.395   1.851   1.104 -0.1098 -0.2801 -0.6155
  199SOL    HW1  596   0.462   1.925   1.084 -0.6620 -0.1570 -0.3440
  199SOL    HW2  597   0.397   1.835   1.208  2.1995 -3.2034  2.3029
  200SOL     OW  598   2.558   1.762   3.041 -0.4963 -0.7346  0.0814
  200SOL    HW1  599   2.630   1.834   3.048  1.7787 -0.7016 -1.5556
  200SOL    HW2  600   2.603   1.674   3.008 -1.7270 -1.8036 -1.0654
  201SOL     OW  601   1.130   2.563   1.570 -1.0940 -0.6177 -0.5096
  201SOL    HW1  602   1.145   2.589   1.471  0.6565 -0.1417 -1.4084
  201SOL    HW2  603   1.153   2.465   1.589 -1.3197 -0.7017 -0.5581
  202SOL     OW  604   1.071   2.618   0.081  0.1968  0.4278 -0.5942
  202SOL    HW1  605   0.976   2.591   0.104  1.1775 -1.0508 -2.2937
  202SOL    HW2  606   1.108   2.697   0.136 -0.6056  3.2000  0.4488
  203SOL     OW  607   1.340   0.012   2.973 -0.2340  0.5093  0.8090
  203SOL    HW1  608   1.414   0.030   2.907 -0.9982 -0.9423 -0.8023
  203SOL    HW2  609   1.268   0.082   2.967  1.8355  2.0030  0.0278
  204SOL     OW  610   0.390   1.602   1.417 -0.2015 -0.3495  0.0709
  204SOL    HW1  611   0.303   1.553   1.387 -1.5228 -0.2907  2.2017
  204SOL    HW2  612   0.474   1.541   1.412  0.5046 -0.3256  2.7842
  205SOL     OW  613   1.820   1.216   2.236  0.1366 -0.3715  0.1160
  205SOL    HW1  614   1.830   1.115   2.225  0.8507  0.0677 -1.5003
  205SOL    HW2  615   1.728   1.241   2.194  0.5738  0.6525 -0.7582
  206SOL     OW  616   0.147   2.027   0.007 -0.2569  0.0873  0.2315
  206SOL    HW1  617   0.188   2.073   3.007 -1.5686  3.2154 -1.1652
  206SOL    HW2  618   0.058   1.981   3.062 -0.9603  0.3489  1.1107
  207SOL     OW  619   0.406   2.036   2.103  0.4206  0.3528  0.2740
  207SOL    HW1  620   0.489   2.012   2.050 -1.3040 -1.5888 -0.0577
  207SOL    HW2  621   0.329   2.027   2.040  1.8026  0.2518  2.3205
  208SOL     OW  622   0.215   2.334   1.004  0.2207  0.4223 -0.0064
  208SOL    HW1  623   0.290   2.324   0.935  0.4954 -0.0993 -0.1439
  208SOL    HW2  624   0.139   2.400   0.980 -0.1827  2.9765  0.6181
  209SOL     OW  625   0.979   2.890   2.243  0.0620  0.5145 -0.3617
  209SOL    HW1  626   0.885   2.851   2.235 -0.4253  1.5497 -2.1285
  209SOL    HW2  627   1.013   2.929   2.153 -1.3128 -2.4258 -0.7675
  210SOL     OW  628   2.655   1.271   1.774 -0.4109  0.2308  0.2336
  210SOL    HW1  629   2.740   1.213   1.748  3.3982 -0.0378 -0.0453
  210SOL    HW2  630   2.579   1.206   1.774  1.3851  3.4168  0.0975
  211SOL     OW  631   1.036   2.993   1.827  0.1891 -0.4853  0.2526
  211SOL    HW1  632   1.098   2.992   1.743  2.6852 -1.7301 -0.2272
  211SOL    HW2  633   0.971   2.918   1.827 -0.2888 -1.8741 -1.6204
  212SOL     OW  634   2.056   2.826   1.934  0.2318  0.1632 -0.0043
  212SOL    HW1  635   1.966   2.800   1.893  0.5857 -0.4615  1.1074
  212SOL    HW2  636   2.050   2.798   2.028  0.8497  0.5236  0.6640
  213SOL     OW  637   2.907   0.213   1.863 -0.1170  1.1796 -0.4734
  213SOL    HW1  638   3.000   0.209   1.822 -1.9916  0.2925  0.4426
  213SOL    HW2  639   2.917   0.228   1.967 -0.4990 -0.8433  3.4595
  214SOL     OW  640   0.934   2.171   0.923 -0.2536 -0.3234  0.0871
  214SOL    HW1  641   1.011   2.124   0.972 -0.7859 -0.8139 -0.0315
  214SOL    HW2  642   0.972   2.214   0.838 -1.1165 -0.9322  1.1447
  215SOL     OW  643   2.572   1.955   0.611  0.1800 -0.2037 -0.0776
  215SOL    HW1  644   2.670   1.939   0.618 -0.3795 -0.1658  0.8187
  215SOL    HW2  645   2.544   1.979   0.519  1.6025 -4.2151  2.3446
  216SOL     OW  646   2.903   0.832   1.748  0.1113  0.1721  0.1619
  216SOL    HW1  647   2.976   0.858   1.682  0.6030 -0.4734  1.0262
  216SOL    HW2  648   2.938   0.757   1.806  0.5765  1.4603  0.0811
  217SOL     OW  649   2.405   0.218   1.504  0.2285  0.0589 -0.5965
  217SOL    HW1  650   2.306   0.203   1.488  0.1341 -1.4393  0.1790
  217SOL    HW2  651   2.435   0.311   1.479 -0.1657 -2.0610 -1.0531
  218SOL     OW  652   1.750   2.514   1.443 -0.4352 -0.0993  0.0333
  218SOL    HW1  653   1.683   2.495   1.366 -1.2625 -1.7564 -0.4959
  218SOL    HW2  654   1.709   2.509   1.536 -1.3384 -0.9070  1.1910
  219SOL     OW  655   2.139   2.644   0.121  0.5413  0.0125  0.1016
  219SOL    HW1  656   2.120   2.548   0.149  2.8924  0.6536  2.3782
  219SOL    HW2  657   2.232   2.662   0.160  0.1739  0.5992  1.7476
  220SOL     OW  658   1.386   3.015   0.338 -0.5720  0.1400  0.8841
  220SOL    HW1  659   1.352   0.025   0.308 -0.1637 -2.1977 -2.4038
  220SOL    HW2  660   1.404   2.960   0.252 -2.0391  0.7243 -0.2758
  221SOL     OW  661   2.991   1.998   1.564  0.0680 -0.1682  0.5908
  221SOL    HW1  662   3.072   2.052   1.590 -0.8017 -0.8831  1.6338
  221SOL    HW2  663   2.908   2.048   1.594 -2.7640 -1.8426  0.5052
  222SOL     OW  664   1.727   2.594   1.070  0.1947 -0.2627  0.6058
  222SOL    HW1  665   1.735   2.695   1.077  2.5753  1.6571  0.3782
  222SOL    HW2  666   1.643   2.558   1.107  2.1309  3.5943 -1.0749
  223SOL     OW  667   1.281   0.144   1.295 -0.2332  0.2508  0.6882
  223SOL    HW1  668   1.218   0.166   1.372  0.6635  1.5117 -0.4068
  223SOL    HW2  669   1.372   0.106   1.331 -1.9743 -2.9924  0.7014
  224SOL     OW  670   3.042   2.367   1.478  0.2652  0.1946  0.0863
  224SOL    HW1  671   3.046   2.412   1.385  1.1149 -0.9366 -1.9733
  224SOL    HW2  672   2.943   2.379   1.507 -2.0537 -0.1034  1.7019
  225SOL     OW  673   2.405   2.076   1.067  0.4723  0.3239 -0.0147
  225SOL    HW1  674   2.381   2.148   1.131 -0.1254  0.2267 -0.3772
  225SOL    HW2  675   2.416   2.107   0.973  1.0767 -0.0687 -0.5392
  226SOL     OW  676   1.474   2.153   0.351  0.4063  0.2694 -0.2783
  226SOL    HW1  677   1.408   2.080   0.327 -0.0617  0.7533 -2.1907
  226SOL    HW2  678   1.436   2.231   0.401  2.9305 -1.3608  1.1830
  227SOL     OW  679   1.926   1.085   0.791 -0.1696  0.7556 -0.2926
  227SOL    HW1  680   1.889   1.124   0.874 -2.2514 -0.2679 -0.0112
  227SOL    HW2  681   1.937   0.983   0.800  1.5692 -0.6452 -2.6783
  228SOL     OW  682   1.533   0.905   0.335  0.7101 -0.2656 -0.4067
  228SOL    HW1  683   1.538   0.804   0.326 -0.4447  0.1584  2.1290
  228SOL    HW2  684   1.564   0.935   0.425  2.0079 -0.8192  0.7039
  229SOL     OW  685   2.762   0.821   2.160 -0.2037  0.0040  0.4033
  229SOL    HW1  686   2.679   0.761   2.159  1.2191  0.7473  0.8549
  229SOL    HW2  687   2.741   0.901   2.099  2.3811 -0.4886 -2.5950
  230SOL     OW  688   0.532   1.167   1.028 -0.0864 -0.0722  0.4588
  230SOL    HW1  689   0.615   1.127   1.074 -0.3501  1.7836  1.5962
  230SOL    HW2  690   0.530   1.130   0.934 -3.9373 -0.6228  0.9081
  231SOL     OW  691   2.165   0.454   2.766 -0.1681  0.6004  0.1793
  231SOL    HW1  692   2.111   0.471   2.853 -2.0856 -0.4205  1.0991
  231SOL    HW2  693   2.265   0.449   2.791  0.2193 -0.4158  0.9709
  232SOL     OW  694   2.947   1.784   1.063 -0.1280  0.0411  0.5004
  232SOL    HW1  695   2.916   1.693   1.105 -0.2780 -3.2643  0.5473
  232SOL    HW2  696   2.973   1.849   1.139  1.0157  3.4638  0.8396
  233SOL     OW  697   1.631   2.971   2.681  0.3850  0.3893  0.7371
  233SOL    HW1  698   1.719   2.991   2.726 -0.1384  1.9463 -0.0795
  233SOL    HW2  699   1.599   2.874   2.693 -0.2361 -0.1480 -3.3594
  234SOL     OW  700   1.529   2.481   1.221 -0.2087  0.1573 -0.3700
  234SOL    HW1  701   1.456   2.549   1.244 -1.6710  1.5689 -0.2121
  234SOL    HW2  702   1.518   2.387   1.265  1.6403 -0.1474  1.0343
  235SOL     OW  703   0.994   1.500   1.676  0.0527 -0.9192 -0.8555
  235SOL    HW1  704   0.894   1.506   1.701 -0.7044 -1.0491 -0.4648
  235SOL    HW2  705   1.018   1.570   1.602 -1.7218  4.0350 -1.5768
  236SOL     OW  706   0.648   2.473   2.777  0.1896 -0.3922 -0.1212
  236SOL    HW1  707   0.741   2.460   2.819  0.8027  1.7551  0.0651
  236SOL    HW2  708   0.596   2.388   2.754 -2.7685 -0.2648 -2.3350
  237SOL     OW  709   0.672   0.008   1.623 -0.0332 -0.3467  0.3282
  237SOL    HW1  710   0.645   3.016   1.689 -2.2236 -1.1737  1.7671
  237SOL    HW2  711   0.600   0.079   1.613  2.7552  2.7138 -0.7059
  238SOL     OW  712   0.960   0.850   0.452 -0.3534  0.3466 -0.0535
  238SOL    HW1  713   0.925   0.816   0.360 -1.8360  0.2211 -0.7538
  238SOL    HW2  714   0.891   0.833   0.528 -0.7039 -1.3218  1.2472
  239SOL     OW  715   2.545   0.681   2.836 -0.3123  0.1793  0.1774
  239SOL    HW1  716   2.511   0.772   2.821  1.5557 -2.4549  0.0670
  239SOL    HW2  717   2.606   0.675   2.918  0.9048  1.0922  0.7939
  240SOL     OW  718   2.708   2.180   0.966  0.7731  0.1789  0.0443
  240SOL    HW1  719   2.740   2.085   0.989  0.2571 -0.8074  1.3503
  240SOL    HW2  720   2.613   2.177   0.931  1.4350  2.0238 -0.6968
  241SOL     OW  721   1.123   1.436   0.852 -0.1841 -0.0821  0.1422
  241SOL    HW1  722   1.186   1.441   0.770  2.4908  1.0508  1.1831
  241SOL    HW2  723   1.034   1.477   0.823 -2.5844 -1.1243  0.4013
  242SOL     OW  724   0.712   0.389   0.939 -0.7640  0.8929 -0.2162
  242SOL    HW1  725   0.690   0.484   0.959  2.0225 -1.8160 -0.6187
  242SOL    HW2  726   0.679   0.360   0.845  0.9802  1.2648 -1.8086
  243SOL     OW  727   0.127   0.548   1.285 -0.1524  0.2782  0.1231
  243SOL    HW1  728   0.081   0.527   1.194 -1.0647  2.0380 -0.6627
  243SOL    HW2  729   0.210   0.487   1.298  2.5390  1.8625  1.1655
  244SOL     OW  730   0.669   0.046   0.470  0.7356  0.0025  0.6811
  244SOL    HW1  731   0.713   0.113   0.407  0.1263 -0.6147 -1.2920
  244SOL    HW2  732   0.731   0.033   0.548  0.5982 -0.7272 -0.0899
  245SOL     OW  733   2.209   1.184   0.288  0.3149  0.0284 -0.4765
  245SOL    HW1  734   2.203   1.090   0.325 -1.8856 -2.5093 -0.5924
  245SOL    HW2  735   2.245   1.248   0.359  1.6296 -1.2326 -1.8830
  246SOL     OW  736   0.353   2.924   1.568  0.0143  0.1130  0.0544
  246SOL    HW1  737   0.368   2.826   1.589  1.1088 -1.7183 -0.9685
  246SOL    HW2  738   0.284   2.931   1.495  0.4522  1.1926 -1.1637
  247SOL     OW  739   0.799   0.243   1.766  0.1478 -0.3834  0.0193
  247SOL    HW1  740   0.732   0.320   1.771  0.3189 -0.6374  1.9307
  247SOL    HW2  741   0.779   0.177   1.692 -1.0149 -0.9495 -0.5745
  248SOL     OW  742   0.459   1.648   1.971 -0.2246 -0.8409 -0.2125
  248SOL    HW1  743   0.535   1.621   2.033 -1.8936 -0.6199  0.3848
  248SOL    HW2  744   0.503   1.706   1.896  1.4299  1.1783 -0.6933
  249SOL     OW  745   1.073   2.239   0.227  0.2952  0.0704  0.0459
  249SOL    HW1  746   1.069   2.158   0.292  1.9059  0.1969  2.7823
  249SOL    HW2  747   1.077   2.328   0.280  2.8022 -1.7688 -0.2927
  250SOL     OW  748   0.535   2.993   2.037 -0.2508 -0.3074 -0.4464
  250SOL    HW1  749   0.440   3.017   2.060 -0.0852  2.4583  1.1140
  250SOL    HW2  750   0.598   3.075   2.029  0.0875  1.7009 -1.4124
  251SOL     OW  751   2.746   2.114   1.645 -0.0915  0.2552  0.3669
  251SOL    HW1  752   2.793   2.161   1.721 -1.8180 -1.8629 -0.4280
  251SOL    HW2  753   2.664   2.170   1.625 -2.1987  0.6847 -2.4490
  252SOL     OW  754   1.410   0.196   1.936  0.0135  0.0045  0.2967
  252SOL    HW1  755   1.362   0.164   2.023 -1.5882 -3.2408  2.7467
  252SOL    HW2  756   1.376   0.157   1.850 -1.5132 -0.0896  0.0510
  253SOL     OW  757   2.412   1.809   2.428  0.1441 -0.0478  0.2934
  253SOL    HW1  758   2.432   1.783   2.330 -1.9864 -1.3003 -1.3647
  253SOL    HW2  759   2.378   1.905   2.438 -0.3425  0.3077 -0.5667
  254SOL     OW  760   0.817   1.309   0.886 -0.1713 -0.2092  0.4773
  254SOL    HW1  761   0.852   1.297   0.980 -2.8953 -0.2260 -0.4794
  254SOL    HW2  762   0.830   1.408   0.859 -1.7102  0.6008 -0.3408
  255SOL     OW  763   3.010   2.480   1.801  0.3070  0.1763 -0.5812
  255SOL    HW1  764   2.934   2.460   1.744  1.9492  1.1626  1.2426
  255SOL    HW2  765   0.016   2.475   1.747  0.3683  1.9550 -3.1178
  256SOL     OW  766   0.538   2.792   0.307 -0.1922  0.0408 -0.2394
  256SOL    HW1  767   0.622   2.794   0.243 -0.2693 -1.2383 -4.2103
  256SOL    HW2  768   0.460   2.750   0.263  0.6582  1.5313 -1.5976
  257SOL     OW  769   1.037   2.559   2.445 -0.2482  0.2188 -0.1181
  257SOL    HW1  770   1.029   2.629   2.514 -0.1032 -0.4985  0.2301
  257SOL    HW2  771   1.107   2.583   2.378 -0.7678 -0.2464 -0.7916
  258SOL     OW  772   1.691   2.256   2.203  0.4514 -0.3465  0.2809
  258SOL    HW1  773   1.675   2.167   2.158  5.4571  0.9473 -1.0644
  258SOL    HW2  774   1.749   2.312   2.139  0.9045  3.4953  0.4413
  259SOL     OW  775   0.701   0.549   2.231  0.0450 -0.2082 -0.2629
  259SOL    HW1  776   0.613   0.506   2.215  4.6378  1.3883 -0.9315
  259SOL    HW2  777   0.699   0.648   2.219 -0.9341 -0.2932  1.0906
  260SOL     OW  778   2.716   0.738   3.038  0.1380  0.3352 -0.5727
  260SOL    HW1  779   2.726   0.750   0.056 -0.5875 -2.0897  1.6394
  260SOL    HW2  780   2.802   0.762   2.983  1.8633  0.1427  1.2719
  261SOL     OW  781   1.039   1.190   0.634  0.0261  0.4106  0.7029
  261SOL    HW1  782   0.972   1.241   0.687  2.6787 -1.7072 -0.2935
  261SOL    HW2  783   1.027   1.193   0.532 -1.4593 -2.7711 -1.4913
  262SOL     OW  784   1.920   2.507   2.599 -0.0828  0.3063 -0.2939
  262SOL    HW1  785   1.905   2.556   2.510 -2.3870 -1.2358  2.2176
  262SOL    HW2  786   2.002   2.541   2.649 -0.2599 -0.4766  0.7627
  263SOL     OW  787   0.763   2.707   0.951  0.3743 -0.1089  0.1787
  263SOL    HW1  788   0.812   2.642   1.017  3.3638 -1.5607  0.6395
  263SOL    HW2  789   0.768   2.798   0.992 -0.2648 -2.0808  0.9582
  264SOL     OW  790   2.824   1.892   0.679 -0.1407 -0.5609 -0.3739
  264SOL    HW1  791   2.849   1.802   0.648  2.2190  1.9057 -0.0774
  264SOL    HW2  792   2.896   1.961   0.653 -2.1301  0.2479 -1.1791
  265SOL     OW  793   1.887   1.270   2.600 -0.3450 -0.1027 -0.4621
  265SOL    HW1  794   1.981   1.232   2.591  3.4721 -0.9837 -0.2283
  265SOL    HW2  795   1.890   1.365   2.630 -0.1205 -2.0461 -3.9498
  266SOL     OW  796   1.644   2.019   2.095  0.2717  0.5410 -0.2116
  266SOL    HW1  797   1.711   1.953   2.070 -2.8321  2.0050  1.1422
  266SOL    HW2  798   1.583   1.977   2.166 -2.5814 -0.3606  0.0920
  267SOL     OW  799   2.342   0.580   2.340  0.1615 -0.0235  0.5363
  267SOL    HW1  800   2.253   0.619   2.306  0.0821  1.7914 -0.0949
  267SOL    HW2  801   2.333   0.481   2.363 -1.0166  1.0051  1.0076
  268SOL     OW  802   1.020   1.105   2.916 -0.0915  0.0255  0.0288
  268SOL    HW1  803   1.015   1.195   2.870 -0.7031 -3.0239  0.5521
  268SOL    HW2  804   0.982   1.033   2.851  2.4117  1.4562 -0.3158
  269SOL     OW  805   3.031   1.885   2.042  0.2228  0.0485  0.0880
  269SOL    HW1  806   3.043   1.843   2.136 -0.0591 -1.2973 -3.3101
  269SOL    HW2  807   2.960   1.839   1.992  2.5289  4.0472  1.6474
  270SOL     OW  808   2.959   1.571   0.108 -0.3775 -0.0582  0.5018
  270SOL    HW1  809   2.994   1.663   0.139  1.9345  0.7088 -0.4855
  270SOL    HW2  810   3.038   1.512   0.097 -2.7011  0.8726 -1.9701
  271SOL     OW  811   0.495   0.259   0.402 -0.2423 -0.0537 -0.3688
  271SOL    HW1  812   0.547   0.195   0.458 -1.4116 -0.0318  1.5813
  271SOL    HW2  813   0.513   0.355   0.419  0.3378 -1.2515 -0.8341
  272SOL     OW  814   0.076   2.767   0.415  0.4139 -0.4063  0.1236
  272SOL    HW1  815   0.151   2.700   0.430  0.0517  0.0640 -1.8293
  272SOL    HW2  816   3.080   2.735   0.358  3.0465  0.4134  1.3159
  273SOL     OW  817   3.016   2.940   2.101 -0.1562 -0.5604  0.0348
  273SOL    HW1  818   0.012   2.911   2.164  1.1079 -1.8364  0.1729
  273SOL    HW2  819   2.991   2.877   2.023  0.3529  2.2741 -2.6430
  274SOL     OW  820   0.323   0.412   1.491  0.0442 -0.4018 -0.3209
  274SOL    HW1  821   0.224   0.383   1.482 -2.1037  2.0607  1.3822
  274SOL    HW2  822   0.322   0.507   1.538 -1.1746  0.4852  0.1202
  275SOL     OW  823   1.132   1.703   1.232 -0.7518 -0.0293 -0.2306
  275SOL    HW1  824   1.152   1.651   1.145 -0.0036 -0.4787  1.8740
  275SOL    HW2  825   1.081   1.644   1.295  0.2628  2.0592 -2.5210
  276SOL     OW  826   0.289   1.464   1.869 -0.3769  0.4563 -0.0209
  276SOL    HW1  827   0.348   1.535   1.915 -0.7521 -0.4758  0.0286
  276SOL    HW2  828   0.278   1.388   1.937 -0.3837 -1.0998  1.2799
  277SOL     OW  829   1.319   2.207   1.920 -0.2316  0.2856 -0.2078
  277SOL    HW1  830   1.327   2.304   1.909 -0.5573 -0.7140 -1.2749
  277SOL    HW2  831   1.343   2.177   2.014 -2.7498 -0.3906 -1.9854
  278SOL     OW  832   1.931   3.009   2.296 -0.1836  0.1458 -0.1469
  278SOL    HW1  833   1.844   2.971   2.260  1.9389  1.2583  0.8068
  278SOL    HW2  834   1.975   3.069   2.226 -0.0002 -1.7163 -0.5483
  279SOL     OW  835   1.416   1.602   2.990 -0.2178  0.1534 -0.2380
  279SOL    HW1  836   1.481   1.565   3.061  1.7996 -1.3445 -2.4072
  279SOL    HW2  837   1.461   1.622   2.902 -0.6150 -0.6126  1.9435
  280SOL     OW  838   1.245   0.616   0.862 -0.2556  0.5053 -0.2088
  280SOL    HW1  839   1.191   0.693   0.897  1.5367  0.3530  2.0047
  280SOL    HW2  840   1.189   0.575   0.784 -1.2502 -0.1900  1.2176
  281SOL     OW  841   0.079   0.482   2.233  0.0510 -0.3237  0.5622
  281SOL    HW1  842   0.113   0.500   2.138  0.2685 -0.0934 -1.6425
  281SOL    HW2  843   0.133   0.404   2.271  1.6996  0.1321 -0.4931
  282SOL     OW  844   0.334   2.568   0.448  0.1909 -0.4025 -0.0817
  282SOL    HW1  845   0.293   2.477   0.458  1.1725  3.0633 -1.8568
  282SOL    HW2  846   0.379   2.599   0.531 -0.6921 -2.0449  1.5680
  283SOL     OW  847   1.207   2.321   1.604 -0.6331 -0.3831 -0.3325
  283SOL    HW1  848   1.117   2.268   1.582 -5.1855 -1.4740 -1.7072
  283SOL    HW2  849   1.284   2.259   1.597 -2.0963  2.6956  2.0557
  284SOL     OW  850   1.961   2.756   1.540  0.0429 -0.4671 -0.0997
  284SOL    HW1  851   2.055   2.710   1.532  1.5101 -0.9115 -0.0243
  284SOL    HW2  852   1.895   2.718   1.472 -0.3299 -0.7352  0.1459
  285SOL     OW  853   0.870   1.744   1.032 -0.1281 -0.4304  0.5520
  285SOL    HW1  854   0.829   1.829   0.982 -2.3366  2.6965 -1.2765
  285SOL    HW2  855   0.894   1.678   0.961  1.1846  0.7770 -0.4885
  286SOL     OW  856   2.993   2.743   1.912 -0.0988  0.5267 -0.2942
  286SOL    HW1  857   2.926   2.792   1.855  2.0752 -1.9972  3.0584
  286SOL    HW2  858   3.011   2.660   1.852 -1.4800  1.6064 -0.1448
  287SOL     OW  859   0.604   1.215   0.744  0.6565  0.1321 -0.0400
  287SOL    HW1  860   0.673   1.242   0.815 -1.0290  1.3223  1.9604
  287SOL    HW2  861   0.634   1.222   0.648  0.2244  3.1456  0.7480
  288SOL     OW  862   1.276   2.162   2.685 -0.2988 -0.0818 -0.3201
  288SOL    HW1  863   1.219   2.236   2.647 -0.7089 -1.5873 -4.0976
  288SOL    HW2  864   1.221   2.083   2.709  2.7843  0.5920  0.6034
  289SOL     OW  865   2.149   1.222   2.662 -0.2304  0.5146  0.0489
  289SOL    HW1  866   2.225   1.223   2.727 -0.2508  0.3529 -0.1403
  289SOL    HW2  867   2.160   1.291   2.586 -2.6395  2.4832 -1.1009
  290SOL     OW  868   1.875   1.736   0.547  0.0124 -0.6280  0.2474
  290SOL    HW1  869   1.864   1.764   0.451 -0.0266  1.3624  2.6143
  290SOL    HW2  870   1.878   1.818   0.611  1.1383  1.7140 -0.3592
  291SOL     OW  871   1.297   0.887   3.057 -0.3967  0.0899  0.0302
  291SOL    HW1  872   1.294   0.926   2.963 -4.2838  0.1553 -3.5433
  291SOL    HW2  873   1.323   0.791   3.047  0.1213 -0.8245  0.2773
  292SOL     OW  874   2.001   1.523   0.812  0.1183  0.2429 -0.4687
  292SOL    HW1  875   2.002   1.428   0.770 -2.2778  0.6299 -1.1067
  292SOL    HW2  876   2.075   1.583   0.772  2.1746 -1.4585  1.4415
  293SOL     OW  877   1.649   0.069   1.052 -0.3419 -0.7668  0.4679
  293SOL    HW1  878   1.582   0.008   1.085  3.4928  1.7353 -1.8756
  293SOL    HW2  879   1.626   0.164   1.092  1.8269 -0.3347 -0.5987
  294SOL     OW  880   2.443   1.070   0.421  0.1791 -0.4390 -0.2423
  294SOL    HW1  881   2.541   1.038   0.421 -1.8040 -0.1473  1.6404
  294SOL    HW2  882   2.435   1.152   0.368  0.7578 -2.9380  0.1576
  295SOL     OW  883   2.095   1.712   2.690  0.3887 -0.2342 -0.2222
  295SOL    HW1  884   2.103   1.816   2.692 -1.3565  0.0751 -1.4986
  295SOL    HW2  885   2.170   1.675   2.749  2.2006 -0.8853 -0.8419
  296SOL     OW  886   1.406   1.734   1.194  0.2308 -0.6546 -0.0727
  296SOL    HW1  887   1.392   1.657   1.126  4.1322 -0.7359  0.2762
  296SOL    HW2  888   1.322   1.755   1.243 -0.4785  0.9597 -0.7419
  297SOL     OW  889   0.456   0.751   2.597 -0.0110 -0.4276 -0.3478
  297SOL    HW1  890   0.360   0.740   2.567 -0.2071  0.7374 -2.7245
  297SOL    HW2  891   0.469   0.730   2.694  0.0782  2.7990  0.2294
  298SOL     OW  892   1.553   2.906   1.540  0.2923 -0.4839  0.2652
  298SOL    HW1  893   1.603   2.887   1.628  0.3498  0.6214  1.2979
  298SOL    HW2  894   1.454   2.872   1.551 -0.0884 -2.8683 -0.4941
  299SOL     OW  895   1.051   0.373   2.537  0.3657 -0.2220  0.0039
  299SOL    HW1  896   0.957   0.405   2.567  1.5577  1.1381  1.8927
  299SOL    HW2  897   1.068   0.278   2.568  0.7195  1.4125 -4.0101
  300SOL     OW  898   1.948   1.452   0.053 -0.1963  0.2978 -0.0277
  300SOL    HW1  899   1.941   1.415   0.149 -1.1440  2.1064 -0.2293
  300SOL    HW2  900   1.969   1.368   3.077  1.4959  0.2117  0.2318
  301SOL     OW  901   2.283   0.334   2.397  0.1191 -0.0259 -0.2278
  301SOL    HW1  902   2.289   0.233   2.420 -0.4332  1.5473 -1.0776
  301SOL    HW2  903   2.194   0.370   2.431 -0.3991  0.0674  1.2909
  302SOL     OW  904   2.419   1.631   2.629 -0.2838 -0.2895  0.0480
  302SOL    HW1  905   2.503   1.579   2.611  0.4107  2.1511 -2.9232
  302SOL    HW2  906   2.402   1.698   2.555 -1.0890 -1.7511  2.0201
  303SOL     OW  907   0.196   2.421   2.224  0.3051 -0.4236 -0.2475
  303SOL    HW1  908   0.131   2.424   2.149  1.3842 -0.5671  0.9443
  303SOL    HW2  909   0.169   2.348   2.293 -0.9895 -0.8145  0.4274
  304SOL     OW  910   0.149   1.206   0.908 -0.6461  0.0007 -0.2430
  304SOL    HW1  911   0.140   1.301   0.873 -1.7946  0.5259  0.4698
  304SOL    HW2  912   0.186   1.140   0.835  0.3436 -0.7641 -3.3229
  305SOL     OW  913   2.937   0.267   2.122  0.1970  0.4888  0.7219
  305SOL    HW1  914   2.938   0.367   2.123 -1.9701 -0.8701  2.3369
  305SOL    HW2  915   2.912   0.238   2.214  0.8029  0.4351 -0.2230
  306SOL     OW  916   1.312   1.556   0.671  0.1522  0.1562 -0.0519
  306SOL    HW1  917   1.368   1.625   0.717 -0.6969  0.0673  0.1875
  306SOL    HW2  918   1.310   1.578   0.574 -3.4460 -0.9192  1.1306
  307SOL     OW  919   2.918   2.865   1.343  0.4305 -0.3824 -0.0578
  307SOL    HW1  920   2.946   2.835   1.254 -1.5500  1.5526  1.9717
  307SOL    HW2  921   2.834   2.922   1.332 -0.2760 -1.5410 -0.7027
  308SOL     OW  922   2.916   1.843   2.649  0.4277 -0.4198  0.6059
  308SOL    HW1  923   2.900   1.762   2.711 -1.4802 -1.8116  0.9448
  308SOL    HW2  924   2.828   1.874   2.606  0.6968  0.5568 -0.9331
  309SOL     OW  925   0.272   2.105   2.871 -0.4256 -0.1958  0.2045
  309SOL    HW1  926   0.269   2.020   2.811  0.8147  0.9460  0.3779
  309SOL    HW2  927   0.319   2.184   2.823  0.6191 -0.9577 -0.2605
  310SOL     OW  928   2.215   0.574   0.156  0.7835  0.6669  0.2306
  310SOL    HW1  929   2.289   0.619   0.202 -0.1005 -2.6086 -1.0451
  310SOL    HW2  930   2.251   0.477   0.149  1.0597 -1.4790  0.7012
  311SOL     OW  931   2.022   1.248   2.921 -0.2572 -0.1645  0.4230
  311SOL    HW1  932   2.012   1.236   2.819  0.5412  0.0958  1.7401
  311SOL    HW2  933   2.008   1.157   2.964 -0.2893 -0.5853  0.0397
  312SOL     OW  934   1.179   1.294   2.092  0.7362 -0.0461  0.8539
  312SOL    HW1  935   1.118   1.367   2.048  0.2279  1.1469 -0.6524
  312SOL    HW2  936   1.125   1.208   2.104 -0.4375 -0.9720  0.5814
  313SOL     OW  937   0.539   0.203   0.112  0.1021  0.6833  0.0187
  313SOL    HW1  938   0.443   0.167   0.110 -0.7279  1.6864 -0.4764
  313SOL    HW2  939   0.555   0.275   0.186 -1.3231 -0.5806  1.9233
  314SOL     OW  940   0.492   1.857   1.375  0.3855 -0.1100 -0.1813
  314SOL    HW1  941   0.442   1.776   1.414  0.5483  0.4610  1.3700
  314SOL    HW2  942   0.578   1.875   1.424 -1.4607 -2.2428  0.5698
  315SOL     OW  943   1.404   1.909   1.427  0.5248 -0.0406  0.1012
  315SOL    HW1  944   1.371   1.820   1.467 -1.8225 -2.5880 -0.2820
  315SOL    HW2  945   1.342   1.947   1.351  0.0654  0.5307 -0.6657
  316SOL     OW  946   0.639   2.289   0.344 -0.1945 -0.2676  0.5216
  316SOL    HW1  947   0.713   2.227   0.315  2.3575  1.2069  0.0244
  316SOL    HW2  948   0.680   2.360   0.408  0.7237  1.1478 -0.5447
  317SOL     OW  949   2.742   0.259   1.130 -0.7202  0.5564 -0.4539
  317SOL    HW1  950   2.745   0.220   1.225  3.0466  0.7397  1.2696
  317SOL    HW2  951   2.701   0.196   1.058  0.0743  1.3417 -0.2936
  318SOL     OW  952   1.134   2.469   0.335 -0.2505 -0.1889 -0.4786
  318SOL    HW1  953   1.142   2.540   0.413  0.1232  0.4949  4.3044
  318SOL    HW2  954   1.179   2.501   0.252 -0.7361 -0.8950  0.9116
  319SOL     OW  955   1.156   0.154   2.661  0.5158  0.1147  0.3177
  319SOL    HW1  956   1.121   0.073   2.705  0.1122  1.6238 -2.3705
  319SOL    HW2  957   1.205   0.220   2.723 -1.1668  1.7282 -0.7983
  320SOL     OW  958   2.358   1.900   1.760  0.3402  0.3763  0.4744
  320SOL    HW1  959   2.257   1.884   1.774  1.7582  0.4869 -1.8781
  320SOL    HW2  960   2.402   1.811   1.775  2.5194  0.0912  0.6905
  321SOL     OW  961   0.005   2.868   0.054  0.2355 -0.0673 -0.3852
  321SOL    HW1  962   3.068   2.840   0.146 -0.3485  0.0387 -1.5514
  321SOL    HW2  963   3.062   2.800   3.065  1.6609  0.3537 -1.8346
  322SOL     OW  964   2.497   0.925   1.372  0.4203 -0.3329 -0.1342
  322SOL    HW1  965   2.437   0.976   1.442 -0.2213 -0.6992  2.2057
  322SOL    HW2  966   2.526   0.980   1.292 -0.7355 -1.6134  2.1688
  323SOL     OW  967   2.060   1.520   0.440  0.4662  0.0841  0.6428
  323SOL    HW1  968   2.003   1.569   0.509  3.5513 -1.0396 -0.6141
  323SOL    HW2  969   2.007   1.455   0.384  1.8950  1.2319  1.7436
  324SOL     OW  970   0.062   0.329   1.533  0.0650 -0.2853 -0.2673
  324SOL    HW1  971   3.082   0.410   1.537 -1.1027  0.1454 -3.3761
  324SOL    HW2  972   0.042   0.267   1.612 -1.3289 -2.9801  1.8242
  325SOL     OW  973   2.754   2.788   0.958 -0.1715  0.5635 -0.1368
  325SOL    HW1  974   2.729   2.709   1.019 -1.7417 -0.1657 -0.4482
  325SOL    HW2  975   2.676   2.848   0.948 -1.8693  0.3031 -1.9196
  326SOL     OW  976   1.648   2.957   0.493  0.6000 -0.1532 -0.1990
  326SOL    HW1  977   1.548   2.963   0.479 -0.0914 -2.4450  3.4646
  326SOL    HW2  978   1.678   2.867   0.531  2.1307 -0.9911 -0.7090
  327SOL     OW  979   2.275   2.506   0.365  0.2452  0.8392 -0.3850
  327SOL    HW1  980   2.205   2.486   0.439  0.2699  2.9418  0.2554
  327SOL    HW2  981   2.302   2.602   0.366 -1.5600  1.4132 -1.0698
  328SOL     OW  982   2.681   2.438   1.932  0.4445  0.4704 -0.2890
  328SOL    HW1  983   2.753   2.370   1.903  2.4713 -2.9122 -0.2108
  328SOL    HW2  984   2.706   2.500   2.011  2.6648  1.2672  0.7424
  329SOL     OW  985   0.166   2.091   0.669  0.0075 -0.4738 -0.4346
  329SOL    HW1  986   0.117   2.078   0.758 -0.8699 -0.2265  4.3966
  329SOL    HW2  987   0.266   2.065   0.676  0.5451 -1.6391  0.5469
  330SOL     OW  988   2.255   1.110   1.941 -0.0096  0.3228  0.0263
  330SOL    HW1  989   2.246   1.204   1.903  0.1082 -0.7634 -1.1975
  330SOL    HW2  990   2.170   1.093   1.999 -0.1200 -0.2317  1.6063
  331SOL     OW  991   2.172   1.718   0.740  0.1037 -0.3118 -0.0382
  331SOL    HW1  992   2.261   1.752   0.767 -1.8112  1.0538  0.1798
  331SOL    HW2  993   2.135   1.786   0.670 -1.3262  2.8030 -0.2962
  332SOL     OW  994   0.184   2.639   1.345  0.1873 -0.2949  0.3111
  332SOL    HW1  995   0.095   2.598   1.316  0.2177  0.1159 -3.8183
  332SOL    HW2  996   0.172   2.740   1.367  1.1027 -1.4392  2.6097
  333SOL     OW  997   0.016   1.566   1.860  0.1614  0.2059 -0.0507
  333SOL    HW1  998   0.119   1.558   1.866  2.2677 -1.0208  0.9064
  333SOL    HW2  999   3.074   1.644   1.797 -2.0659  0.9114 -0.2687
  334SOL     OW 1000   0.225   0.772   1.404  0.7338 -0.3004 -0.2435
  334SOL    HW1 1001   0.197   0.867   1.373 -1.7172 -0.0699  0.1582
  334SOL    HW2 1002   0.189   0.698   1.341 -1.9219  1.3640 -0.0718
  335SOL     OW 1003   2.822   1.686   1.956  0.1445 -0.0371 -0.1329
  335SOL    HW1 1004   2.798   1.615   1.885 -2.1194  1.2140 -1.8533
  335SOL    HW2 1005   2.803   1.643   2.047  2.6027 -0.5454  0.8568
  336SOL     OW 1006   1.681   0.032   3.001 -0.2151 -0.3932  0.3620
  336SOL    HW1 1007   1.669   3.025   3.042 -0.5243  0.2011 -1.3397
  336SOL    HW2 1008   1.760   0.029   2.941  1.2498 -2.2712  2.9342
  337SOL     OW 1009   0.500   0.480   1.276  0.7541  0.1175 -0.0633
  337SOL    HW1 1010   0.506   0.579   1.260  0.2991 -1.0468 -2.0192
  337SOL    HW2 1011   0.472   0.459   1.370 -0.0528 -0.5053 -0.7234
  338SOL     OW 1012   1.556   2.268   0.800 -0.8335  0.4446 -0.3822
  338SOL    HW1 1013   1.581   2.324   0.719 -1.1588 -0.4250  2.6334
  338SOL    HW2 1014   1.639   2.233   0.850 -1.4922  0.8987 -1.4361
  339SOL     OW 1015   0.186   1.660   1.020 -0.3644 -0.0629  0.3098
  339SOL    HW1 1016   0.115   1.697   0.962  1.8032 -0.7532  0.8162
  339SOL    HW2 1017   0.244   1.728   1.059 -1.2026 -0.6787 -0.9073
  340SOL     OW 1018   0.281   3.032   2.107 -0.7983 -0.2130 -0.1507
  340SOL    HW1 1019   0.208   0.011   2.071  1.3597  1.3869 -1.4533
  340SOL    HW2 1020   0.244   2.944   2.150 -0.1303 -0.9461  2.4651
  341SOL     OW 1021   2.336   1.428   0.847  0.2780  0.1434  0.1941
  341SOL    HW1 1022   2.247   1.426   0.803 -0.4134 -0.8682  1.9594
  341SOL    HW2 1023   2.371   1.526   0.855  1.8431  1.8460 -1.6810
  342SOL     OW 1024   1.688   2.100   0.490 -0.3859 -0.1789 -0.0446
  342SOL    HW1 1025   1.611   2.123   0.424  0.5847  0.6718  1.1539
  342SOL    HW2 1026   1.736   2.186   0.513  0.0509  4.6472  1.7104
  343SOL     OW 1027   1.889   0.190   0.890  0.4770  0.1109 -0.8081
  343SOL    HW1 1028   1.792   0.153   0.897  1.3357  1.4011 -0.5545
  343SOL    HW2 1029   1.953   0.126   0.942  0.5729 -0.1282  1.8298
  344SOL     OW 1030   2.517   0.259   2.961  0.0521 -0.2714 -0.3764
  344SOL    HW1 1031   2.492   0.346   2.915  0.7363 -0.3642  1.0634
  344SOL    HW2 1032   2.615   0.234   2.967  1.1285  0.1212 -1.1574
  345SOL     OW 1033   1.334   3.076   0.916 -0.2122 -0.1128  0.2559
  345SOL    HW1 1034   1.392   3.024   0.980  0.0032  0.9601 -2.7817
  345SOL    HW2 1035   1.339   0.094   0.939 -1.4361  1.3147  1.9330
  346SOL     OW 1036   2.271   2.346   1.680 -0.1765  0.1504 -0.1936
  346SOL    HW1 1037   2.174   2.364   1.701 -0.4184  0.4684  3.5315
  346SOL    HW2 1038   2.274   2.259   1.633 -1.9950 -1.2077 -1.8599
  347SOL     OW 1039   2.700   2.848   0.609 -0.7207  0.5517  0.0370
  347SOL    HW1 1040   2.784   2.804   0.645 -0.4419 -2.1397  0.0609
  347SOL    HW2 1041   2.716   2.951   0.607  3.6561  0.3936  1.2067
  348SOL     OW 1042   0.771   1.090   1.199 -0.8156 -0.3058  0.1329
  348SOL    HW1 1043   0.852   1.151   1.189 -1.9614 -0.2929 -2.0670
  348SOL    HW2 1044   0.729   1.104   1.291  1.2243  0.0944 -1.5804
  349SOL     OW 1045   2.207   2.902   0.045 -0.5132  0.1526  0.3244
  349SOL    HW1 1046   2.214   2.959   0.128  1.5966  1.9916  1.4894
  349SOL    HW2 1047   2.179   2.807   0.069  1.4792 -1.8574  0.1496
  350SOL     OW 1048   2.525   2.126   3.045  0.3082 -0.6152 -0.4250
  350SOL    HW1 1049   2.435   2.081   3.041  2.1393 -1.0210  0.1528
  350SOL    HW2 1050   2.526   2.222   3.017 -0.7636  0.0525  1.1955
  351SOL     OW 1051   1.029   0.509   0.698  0.6089  0.3718 -0.3904
  351SOL    HW1 1052   1.048   0.433   0.762 -0.0857  0.9326 -1.7813
  351SOL    HW2 1053   1.082   0.500   0.609  0.4968  2.7454  0.0408
  352SOL     OW 1054   2.151   2.652   2.632 -0.1197  0.4834 -0.5447
  352SOL    HW1 1055   2.184   2.732   2.684 -1.2397  3.0454 -1.2397
  352SOL    HW2 1056   2.167   2.666   2.533 -0.7423 -1.5170  0.7239
  353SOL     OW 1057   0.778   0.633   3.059 -0.5723 -0.3434 -0.0007
  353SOL    HW1 1058   0.765   0.725   3.019  0.0764 -3.4475  0.1546
  353SOL    HW2 1059   0.693   0.579   3.044 -0.3416 -1.0516 -1.1336
  354SOL     OW 1060   0.871   1.689   2.826  0.7743 -0.2612 -0.4997
  354SOL    HW1 1061   0.813   1.621   2.882  0.7517 -2.4150  2.8928
  354SOL    HW2 1062   0.972   1.674   2.838  1.2006  0.3594 -0.9643
  355SOL     OW 1063   2.771   2.832   1.815  0.3496  0.1482  0.1620
  355SOL    HW1 1064   2.670   2.812   1.829  0.5178 -1.0315 -3.3793
  355SOL    HW2 1065   2.769   2.936   1.799 -2.3499  3.0566  0.4885
  356SOL     OW 1066   2.892   0.766   0.712 -0.0575  0.0006  0.0591
  356SOL    HW1 1067   2.849   0.858   0.719  2.7034 -2.2710  2.6562
  356SOL    HW2 1068   2.846   0.709   0.637 -1.4222 -0.0443  0.0901
  357SOL     OW 1069   2.486   0.384   1.118 -0.2953 -0.0809  0.3708
  357SOL    HW1 1070   2.560   0.431   1.170  2.2518  0.9689 -0.4584
  357SOL    HW2 1071   2.470   0.292   1.154  0.6739 -0.2066  0.9111
  358SOL     OW 1072   1.139   2.565   1.293 -0.2679 -0.3014 -0.1451
  358SOL    HW1 1073   1.167   2.465   1.298  2.1244 -4.9199 -0.5872
  358SOL    HW2 1074   1.226   2.622   1.278 -0.3658 -1.2458  0.6723
  359SOL     OW 1075   0.015   2.242   2.619  0.7912 -0.3551  0.3884
  359SOL    HW1 1076   0.039   2.143   2.610  0.2160  1.7405 -1.0848
  359SOL    HW2 1077   3.037   2.249   2.701  0.7720  0.1211  0.0610
  360SOL     OW 1078   0.516   0.942   1.738  0.0864  0.3019  0.2000
  360SOL    HW1 1079   0.495   1.022   1.796  2.8793  0.2037 -3.8118
  360SOL    HW2 1080   0.613   0.917   1.742 -0.2990  0.7455  3.4747
  361SOL     OW 1081   2.503   2.687   0.674  0.3588  0.0321  0.4252
  361SOL    HW1 1082   2.430   2.743   0.625  0.6676  0.0405  0.0514
  361SOL    HW2 1083   2.592   2.730   0.638  2.4121  1.2408  1.4723
  362SOL     OW 1084   2.999   2.828   1.088 -0.4015  0.3809  0.3616
  362SOL    HW1 1085   0.003   2.807   1.039 -0.6992 -0.8109  1.7362
  362SOL    HW2 1086   2.918   2.816   1.025  1.7296 -0.1842 -2.2736
  363SOL     OW 1087   0.779   1.484   0.496  0.2039  0.5816 -0.4130
  363SOL    HW1 1088   0.739   1.394   0.490  1.3166 -0.1937 -2.5072
  363SOL    HW2 1089   0.714   1.558   0.466  0.6018  0.8686 -2.4265
  364SOL     OW 1090   0.621   1.454   1.382  0.1024 -0.3543 -0.0152
  364SOL    HW1 1091   0.641   1.375   1.447  0.9097 -1.8286  2.5767
  364SOL    HW2 1092   0.684   1.530   1.376  1.2212 -0.6429 -2.4883
  365SOL     OW 1093   2.524   1.559   0.442 -0.0821  0.3535  0.0545
  365SOL    HW1 1094   2.577   1.565   0.531  1.2645  0.3395  0.9162
  365SOL    HW2 1095   2.544   1.648   0.391  3.3265  0.4311  1.9895
  366SOL     OW 1096   2.592   1.583   1.159  0.2970 -0.1950 -0.0886
  366SOL    HW1 1097   2.646   1.603   1.242  0.3332 -0.0414  0.0062
  366SOL    HW2 1098   2.533   1.660   1.123 -3.2822  2.3902 -0.2762
  367SOL     OW 1099   2.015   2.036   1.951  0.3885  0.8296  0.3034
  367SOL    HW1 1100   1.993   1.970   2.028 -1.4928  0.7624  2.4207
  367SOL    HW2 1101   2.090   2.100   1.980  1.9250  2.1601 -0.7939
  368SOL     OW 1102   2.739   1.159   1.308  0.0652  0.4151  0.2971
  368SOL    HW1 1103   2.740   1.215   1.392 -0.2748 -2.2879 -2.0740
  368SOL    HW2 1104   2.783   1.071   1.332  0.7570 -0.0796  1.3460
  369SOL     OW 1105   2.394   2.695   0.234 -0.1279  0.1644 -0.1640
  369SOL    HW1 1106   2.454   2.749   0.294  2.9766  1.7785 -0.5789
  369SOL    HW2 1107   2.458   2.644   0.173 -0.5367 -0.8619 -1.3723
  370SOL     OW 1108   2.851   2.694   1.555 -0.5500 -0.2176 -0.6011
  370SOL    HW1 1109   2.793   2.725   1.637 -1.2114  1.7606  1.5491
  370SOL    HW2 1110   2.888   2.777   1.504 -1.0392 -3.7953 -3.4160
  371SOL     OW 1111   0.848   1.549   2.375 -0.2266 -0.4141  0.2836
  371SOL    HW1 1112   0.891   1.620   2.435  1.3984 -1.5305  0.1658
  371SOL    HW2 1113   0.759   1.585   2.338 -2.4815  3.4299  0.5096
  372SOL     OW 1114   0.687   1.238   0.477 -0.3522  0.3040 -1.2517
  372SOL    HW1 1115   0.606   1.182   0.457 -0.6769  1.1701  1.8328
  372SOL    HW2 1116   0.770   1.220   0.423  0.5795  0.3443  1.7021
  373SOL     OW 1117   1.497   2.649   3.060 -0.2315  0.5002  0.1206
  373SOL    HW1 1118   1.512   2.567   0.041 -1.4972 -1.9083  1.2565
  373SOL    HW2 1119   1.453   2.617   2.974  1.0861  1.4720 -0.7818
  374SOL     OW 1120   0.239   1.696   0.105 -0.4103  0.2916  0.2705
  374SOL    HW1 1121   0.148   1.696   0.149 -0.5107  1.5080 -2.4575
  374SOL    HW2 1122   0.255   1.600   0.071  0.6415  1.9407  0.3427
  375SOL     OW 1123   1.020   1.505   1.991  0.7993 -0.0203  0.6635
  375SOL    HW1 1124   1.014   1.527   1.889  0.5940 -0.7798 -0.7917
  375SOL    HW2 1125   0.961   1.431   2.024  2.4454  1.8759 -0.3614
  376SOL     OW 1126   0.548   2.404   1.648 -0.5960  0.4721  0.2488
  376SOL    HW1 1127   0.461   2.372   1.685  0.9724  0.7316 -0.7754
  376SOL    HW2 1128   0.625   2.426   1.713 -2.7036 -2.1943  0.2762
  377SOL     OW 1129   2.464   1.473   2.135 -0.1067  0.6095  0.1144
  377SOL    HW1 1130   2.394   1.542   2.151 -0.2134 -0.7547 -1.6531
  377SOL    HW2 1131   2.419   1.385   2.141 -0.6425  1.5292 -0.6552
  378SOL     OW 1132   0.962   2.912   3.025  0.8908  0.2355 -0.9815
  378SOL    HW1 1133   0.867   2.921   2.992  2.2095  0.4020 -1.4197
  378SOL    HW2 1134   0.994   2.990   0.002  1.7142  1.6756 -2.3360
  379SOL     OW 1135   1.607   0.503   0.813  0.3137 -0.5590 -0.0392
  379SOL    HW1 1136   1.559   0.554   0.885 -1.1018 -1.0181 -2.2364
  379SOL    HW2 1137   1.610   0.566   0.730  1.2965 -0.4771 -2.5101
  380SOL     OW 1138   2.709   1.852   1.506 -0.0553 -0.6643 -0.4467
  380SOL    HW1 1139   2.731   1.929   1.570 -1.8413  1.0838  1.8592
  380SOL    HW2 1140   2.682   1.883   1.412 -2.7263  0.9212  1.2442
  381SOL     OW 1141   1.748   1.859   1.752  0.1174 -0.1605 -0.3933
  381SOL    HW1 1142   1.651   1.879   1.782 -0.9343  0.0378 -0.8308
  381SOL    HW2 1143   1.775   1.910   1.670 -0.3688  0.0828 -0.5237
  382SOL     OW 1144   0.070   0.482   2.934  0.3995 -0.0967  0.0548
  382SOL    HW1 1145   3.051   0.476   2.948  1.5248  3.2565  1.6118
  382SOL    HW2 1146   0.099   0.562   2.984 -1.0844 -4.9524 -1.1371
  383SOL     OW 1147   1.634   1.178   2.695 -0.2419 -0.0870  0.3682
  383SOL    HW1 1148   1.569   1.260   2.716  0.5915  0.2193 -2.6778
  383SOL    HW2 1149   1.723   1.216   2.664 -1.9851 -3.1535 -1.8527
  384SOL     OW 1150   1.206   2.315   1.185  0.2761  0.2325 -0.7516
  384SOL    HW1 1151   1.241   2.285   1.098 -0.1073  2.3747  2.6836
  384SOL    HW2 1152   1.124   2.266   1.214  1.2672  1.4032  1.6386
  385SOL     OW 1153   1.931   2.326   0.835  0.1885 -0.0440 -0.1317
  385SOL    HW1 1154   1.926   2.312   0.732  1.0745  1.1366 -3.0223
  385SOL    HW2 1155   1.859   2.273   0.888 -0.2589 -1.6088 -1.6093
  386SOL     OW 1156   2.084   2.110   0.966 -0.0972 -1.0165 -0.5409
  386SOL    HW1 1157   2.050   2.199   0.930 -2.2291  0.9330  0.6318
  386SOL    HW2 1158   2.070   2.106   1.068  0.8612  0.5059  2.0207
  387SOL     OW 1159   0.328   2.081   1.384 -0.0834  0.4603  0.2038
  387SOL    HW1 1160   0.386   2.157   1.364 -0.6001  0.2939  0.5589
  387SOL    HW2 1161   0.382   1.990   1.392  1.9717 -2.4986 -0.4614
  388SOL     OW 1162   3.059   0.672   1.956 -0.3250  0.1990 -0.4091
  388SOL    HW1 1163   2.977   0.614   1.954  1.2268  0.2821  0.1696
  388SOL    HW2 1164   0.066   0.626   1.952 -0.1605  0.4977 -2.9942
  389SOL     OW 1165   1.852   1.227   1.040 -0.6256  0.4361  0.7547
  389SOL    HW1 1166   1.871   1.320   1.073 -1.1627  1.0912 -1.9336
  389SOL    HW2 1167   1.753   1.210   1.032  0.1011  0.6108  3.0292
  390SOL     OW 1168   0.896   2.101   2.193 -0.3155 -0.6272  0.7799
  390SOL    HW1 1169   0.834   2.164   2.233  0.3943 -1.4723 -2.2721
  390SOL    HW2 1170   0.858   2.010   2.183  1.3062  1.4037 -1.1365
  391SOL     OW 1171   1.065   1.865   2.458 -0.3332 -0.4926  0.2504
  391SOL    HW1 1172   0.966   1.879   2.441  0.1173 -1.1146  0.0143
  391SOL    HW2 1173   1.113   1.928   2.399  1.4875 -0.9990  0.3239
  392SOL     OW 1174   2.787   2.985   2.210  0.6262  0.4176  0.2883
  392SOL    HW1 1175   2.783   3.081   2.241  0.9333  1.5730  1.2249
  392SOL    HW2 1176   2.878   2.971   2.162 -0.9540 -0.9889  0.4518
  393SOL     OW 1177   2.005   2.700   0.433  0.0975  0.6444  0.2396
  393SOL    HW1 1178   1.954   2.778   0.405  1.8228 -2.7852  2.9719
  393SOL    HW2 1179   1.966   2.618   0.391  0.4404  0.2261  0.8981
  394SOL     OW 1180   0.691   0.661   2.507 -0.3057 -0.1140 -0.0155
  394SOL    HW1 1181   0.609   0.711   2.528  1.8299  3.7020 -0.9178
  394SOL    HW2 1182   0.677   0.592   2.433 -1.7952 -0.8147  1.4964
  395SOL     OW 1183   0.644   1.122   1.435 -0.3548  0.0106  0.1246
  395SOL    HW1 1184   0.553   1.088   1.434  1.3007  0.2299 -4.4855
  395SOL    HW2 1185   0.703   1.073   1.499 -3.5842  2.7727 -1.4661
  396SOL     OW 1186   1.790   1.560   2.106  0.1483 -0.4657 -0.7808
  396SOL    HW1 1187   1.708   1.508   2.078 -0.4675  0.2890 -2.7949
  396SOL    HW2 1188   1.819   1.537   2.203  3.1889 -0.2166  0.6505
  397SOL     OW 1189   0.824   0.474   2.641  0.5973 -0.1949  0.0731
  397SOL    HW1 1190   0.869   0.488   2.733 -0.5944  3.1911 -2.3210
  397SOL    HW2 1191   0.762   0.550   2.605 -3.4718 -2.3561 -3.0139
  398SOL     OW 1192   0.400   1.889   2.498 -0.5321  0.1222 -0.1698
  398SOL    HW1 1193   0.443   1.963   2.556  0.2436 -0.6280  0.9152
  398SOL    HW2 1194   0.347   1.926   2.418 -2.2907  0.1400 -1.5754
  399SOL     OW 1195   0.236   1.620   2.177  0.4355 -0.4370 -0.0242
  399SOL    HW1 1196   0.216   1.523   2.199  1.3806  1.4828 -2.4248
  399SOL    HW2 1197   0.333   1.644   2.167 -2.7151  0.7567 -2.2840
  400SOL     OW 1198   2.699   0.439   1.655 -0.3882 -0.4464 -0.2127
  400SOL    HW1 1199   2.627   0.409   1.724 -1.9425  1.3107  0.9967
  400SOL    HW2 1200   2.782   0.462   1.707 -1.9739  0.1672 -1.0258
  401SOL     OW 1201   0.716   1.737   0.161 -0.1405 -0.3740 -0.1028
  401SOL    HW1 1202   0.695   1.684   0.078 -1.9540 -0.3939  0.7425
  401SOL    HW2 1203   0.763   1.685   0.229 -3.6300 -1.9734 -2.5374
  402SOL     OW 1204   3.060   2.403   2.053 -0.0633  0.6448 -0.0421
  402SOL    HW1 1205   3.041   2.453   1.964  1.9794 -2.4633 -0.6163
  402SOL    HW2 1206   3.073   2.304   2.039  0.5855  0.7280 -0.5835
  403SOL     OW 1207   0.243   1.254   2.023  0.5275  0.2798 -0.0888
  403SOL    HW1 1208   0.162   1.195   2.030  0.7997 -0.0763  1.1188
  403SOL    HW2 1209   0.295   1.247   2.109 -1.4568  1.9571 -0.9587
  404SOL     OW 1210   1.706   1.982   1.472  0.9015  0.1716  0.2448
  404SOL    HW1 1211   1.610   1.955   1.441  0.8376 -1.8431 -2.0865
  404SOL    HW2 1212   1.740   2.069   1.433  0.6226  0.5849  0.0245
  405SOL     OW 1213   2.776   2.508   2.611  0.0803 -0.4250 -0.3984
  405SOL    HW1 1214   2.779   2.581   2.682  4.5176 -1.1131  2.7352
  405SOL    HW2 1215   2.860   2.491   2.551 -0.7001 -1.8369 -0.9145
  406SOL     OW 1216   0.730   1.270   2.886  0.1014  0.6286 -0.2172
  406SOL    HW1 1217   0.712   1.172   2.870 -0.0341 -2.3899 -1.7553
  406SOL    HW2 1218   0.762   1.322   2.804 -0.6409 -1.2777  2.9804
  407SOL     OW 1219   2.315   2.821   2.775 -0.1576 -0.8210  0.2808
  407SOL    HW1 1220   2.370   2.880   2.715  0.2117  1.5838 -1.8156
  407SOL    HW2 1221   2.366   2.778   2.850 -2.3814 -1.3813 -0.9203
  408SOL     OW 1222   2.594   2.563   0.068  0.6139 -0.1971 -0.4256
  408SOL    HW1 1223   2.690   2.568   0.099  2.0444  0.9286 -2.0347
  408SOL    HW2 1224   2.571   2.468   0.035 -1.3199 -0.3548  0.8543
  409SOL     OW 1225   2.246   1.106   0.838 -0.5940  0.2728 -0.1292
  409SOL    HW1 1226   2.245   1.201   0.872  0.4877 -0.6630 -1.1049
  409SOL    HW2 1227   2.182   1.044   0.890 -0.8938 -1.3475 -0.3265
  410SOL     OW 1228   2.931   1.498   0.749 -0.2840  0.2494 -0.0806
  410SOL    HW1 1229   2.867   1.480   0.825 -1.2903 -2.2797 -0.6024
  410SOL    HW2 1230   3.030   1.510   0.769 -0.7848  0.6900  0.3416
  411SOL     OW 1231   0.364   1.363   0.651  0.0622  0.1656  0.4159
  411SOL    HW1 1232   0.354   1.466   0.671  0.7065  4.6618 -4.3040
  411SOL    HW2 1233   0.426   1.326   0.721 -2.9851  3.8116 -1.0356
  412SOL     OW 1234   2.283   2.272   0.685  0.3930 -0.2456  0.0283
  412SOL    HW1 1235   2.356   2.314   0.628  1.3034 -0.9135 -0.9342
  412SOL    HW2 1236   2.242   2.335   0.755 -0.2297  0.3946 -2.4254
  413SOL     OW 1237   1.559   1.187   2.092  0.5773 -0.7764 -0.0415
  413SOL    HW1 1238   1.561   1.098   2.038 -0.4534  0.4391  1.8246
  413SOL    HW2 1239   1.507   1.178   2.177  2.1311  0.0447  1.2430
  414SOL     OW 1240   2.791   2.960   0.247 -0.0323 -0.4324 -0.0322
  414SOL    HW1 1241   2.739   2.980   0.164  1.3157 -1.9219 -1.3070
  414SOL    HW2 1242   2.875   3.016   0.252 -0.7309 -0.8800  2.1262
  415SOL     OW 1243   1.022   2.174   1.306  0.1216 -0.2978  0.4162
  415SOL    HW1 1244   0.972   2.255   1.352  0.7944 -0.5299  0.2708
  415SOL    HW2 1245   0.951   2.105   1.280 -0.3770 -2.0930  1.9825
  416SOL     OW 1246   3.014   2.456   2.480 -0.1571  0.6539 -0.2016
  416SOL    HW1 1247   0.012   2.520   2.501  0.6559  1.8352  1.4651
  416SOL    HW2 1248   3.029   2.370   2.535 -0.6250 -1.9059  1.7707
  417SOL     OW 1249   2.707   0.516   1.243  0.2074 -0.6475  0.1861
  417SOL    HW1 1250   2.755   0.439   1.196 -0.5333  1.7298 -1.8597
  417SOL    HW2 1251   2.741   0.536   1.338  0.5390  0.0188  1.3206
  418SOL     OW 1252   2.826   0.176   0.097 -0.6461 -0.5790 -0.4960
  418SOL    HW1 1253   2.898   0.149   0.168 -1.1752 -0.5622  2.7394
  418SOL    HW2 1254   2.765   0.093   0.085 -0.0669  1.8272  2.1668
  419SOL     OW 1255   0.027   1.543   1.467 -0.3434  0.2134 -0.2902
  419SOL    HW1 1256   3.042   1.469   1.492  2.3458  0.5938 -1.5891
  419SOL    HW2 1257   0.066   1.525   1.375  2.2037 -0.3640 -1.2246
  420SOL     OW 1258   0.389   1.459   0.018  0.1824 -0.5206 -0.6026
  420SOL    HW1 1259   0.473   1.462   0.077  0.8202  5.1474  1.0819
  420SOL    HW2 1260   0.396   1.390   3.027  1.6039 -2.6322  0.8002
  421SOL     OW 1261   2.208   2.695   2.356 -0.5053 -0.4717 -0.2227
  421SOL    HW1 1262   2.125   2.673   2.305  1.0624 -0.1988 -0.3622
  421SOL    HW2 1263   2.282   2.641   2.311 -0.4058  0.2830 -0.0634
  422SOL     OW 1264   0.205   0.721   2.460 -0.5700 -0.4727  0.0519
  422SOL    HW1 1265   0.205   0.788   2.382  1.0716 -0.2040 -1.6761
  422SOL    HW2 1266   0.115   0.674   2.470  1.5401  0.7379 -0.1784
  423SOL     OW 1267   1.165   2.174   0.633  0.3029 -0.4162  0.7794
  423SOL    HW1 1268   1.237   2.143   0.698 -2.3784 -1.6703  2.6103
  423SOL    HW2 1269   1.138   2.093   0.580  1.4062 -1.1942  3.8177
  424SOL     OW 1270   0.705   1.948   1.564  0.1872 -0.0923 -0.1238
  424SOL    HW1 1271   0.704   2.049   1.562 -0.5755 -1.1818  2.1843
  424SOL    HW2 1272   0.655   1.920   1.647  1.6077  2.8547 -0.2764
  425SOL     OW 1273   2.536   2.615   2.533  0.3305 -0.9875 -0.0120
  425SOL    HW1 1274   2.534   2.639   2.432  0.2562 -3.2378 -1.1630
  425SOL    HW2 1275   2.606   2.550   2.552 -1.7023  2.4102  0.4164
  426SOL     OW 1276   1.453   0.603   1.027 -0.4819 -0.3600  0.8304
  426SOL    HW1 1277   1.421   0.589   1.125  0.5173  1.2038  0.6999
  426SOL    HW2 1278   1.377   0.593   0.960  0.6498 -1.0602  2.4632
  427SOL     OW 1279   0.197   1.512   2.733  0.2498 -0.1712  0.2535
  427SOL    HW1 1280   0.177   1.545   2.827  1.0464  0.5747 -1.7349
  427SOL    HW2 1281   0.107   1.480   2.697  0.5766  0.4216  2.4243
  428SOL     OW 1282   1.276   1.353   0.078 -0.5389 -0.0659 -0.1824
  428SOL    HW1 1283   1.227   1.283   0.130  0.9616  1.8731 -1.2504
  428SOL    HW2 1284   1.218   1.407   0.015  2.3194 -0.8977  1.2546
  429SOL     OW 1285   2.936   2.554   0.502 -0.3935  0.3161 -0.5141
  429SOL    HW1 1286   2.886   2.470   0.471  0.3347 -0.7240  2.0738
  429SOL    HW2 1287   2.914   2.629   0.444 -1.0090 -2.7671  0.4642
  430SOL     OW 1288   0.437   2.280   2.261 -0.2591 -0.1469  0.1193
  430SOL    HW1 1289   0.353   2.339   2.243 -1.3383 -0.3847  1.2513
  430SOL    HW2 1290   0.432   2.197   2.204 -1.2020  0.2583 -0.7954
  431SOL     OW 1291   2.972   1.005   0.129  0.5136 -0.6797  0.2145
  431SOL    HW1 1292   3.023   1.082   0.095 -4.0585  1.1841  0.6401
  431SOL    HW2 1293   3.033   0.930   0.161 -0.8963  0.8637  1.5673
  432SOL     OW 1294   1.518   2.665   2.434  0.2876 -0.4132 -0.2077
  432SOL    HW1 1295   1.532   2.756   2.391  0.7065  1.0571 -0.7823
  432SOL    HW2 1296   1.529   2.671   2.532  0.1092 -1.2614 -3.3767
  433SOL     OW 1297   1.169   2.605   0.576  0.1744 -0.4497 -0.1195
  433SOL    HW1 1298   1.196   2.703   0.558  0.7218  0.8476  0.9279
  433SOL    HW2 1299   1.197   2.578   0.671 -1.5660  1.3132 -0.1785
  434SOL     OW 1300   1.526   1.853   2.304  0.3205  0.4045 -0.3218
  434SOL    HW1 1301   1.524   1.926   2.378  1.8982  0.0036 -1.1764
  434SOL    HW2 1302   1.519   1.766   2.348  0.3261  1.9865  1.3911
  435SOL     OW 1303   2.425   0.790   0.227 -0.0475 -0.4443  0.3347
  435SOL    HW1 1304   2.463   0.837   0.141  2.0722  3.0993  0.4953
  435SOL    HW2 1305   2.372   0.852   0.288 -1.0380  0.7052  1.7510
  436SOL     OW 1306   0.345   2.658   2.219 -0.0919 -0.2101 -0.0411
  436SOL    HW1 1307   0.291   2.572   2.228  1.3025 -2.3972 -0.0288
  436SOL    HW2 1308   0.435   2.645   2.266 -1.7721 -1.6279  0.3457
  437SOL     OW 1309   1.973   3.053   1.532  0.1846 -0.0494 -0.3327
  437SOL    HW1 1310   1.981   2.950   1.519 -0.7874 -3.4854 -0.4646
  437SOL    HW2 1311   2.042   0.029   1.491 -2.4191  0.0394  1.1756
  438SOL     OW 1312   0.099   1.707   0.569  0.4546  0.2416 -0.6405
  438SOL    HW1 1313   0.075   1.698   0.669 -0.5213  1.0461 -1.7931
  438SOL    HW2 1314   0.189   1.749   0.561 -0.2635 -0.1732 -1.6081
  439SOL     OW 1315   0.041   3.081   1.166  0.0656 -0.3978 -0.4401
  439SOL    HW1 1316   0.062   0.044   1.077  0.2759 -1.3441  2.4670
  439SOL    HW2 1317   3.076   2.994   1.150 -0.9952 -0.9043 -0.7193
  440SOL     OW 1318   2.813   2.813   2.425 -0.6328  0.4252  0.5003
  440SOL    HW1 1319   2.752   2.741   2.391 -0.0088  1.6219  2.8523
  440SOL    HW2 1320   2.821   2.893   2.360  0.4313 -0.8022 -0.3644
  441SOL     OW 1321   0.386   0.532   0.195  0.2302  0.0916  0.2906
  441SOL    HW1 1322   0.394   0.628   0.223  0.6172 -0.8228 -1.3217
  441SOL    HW2 1323   0.292   0.500   0.212  0.6725 -1.3204 -0.6194
  442SOL     OW 1324   1.489   2.432   2.283  0.2373  0.1108  0.3613
  442SOL    HW1 1325   1.559   2.353   2.285  4.4817 -0.0979  0.0790
  442SOL    HW2 1326   1.496   2.500   2.357  0.2840 -0.2877  1.7153
  443SOL     OW 1327   0.698   2.944   2.960  0.0480  0.0353 -0.5164
  443SOL    HW1 1328   0.636   2.867   2.931 -1.5308 -0.0867 -2.8389
  443SOL    HW2 1329   0.648   3.033   2.947 -0.7911  0.1259 -0.9830
  444SOL     OW 1330   1.432   1.845   2.657  0.3019  0.6349  0.0398
  444SOL    HW1 1331   1.330   1.852   2.678  3.6111  0.2970  0.7898
  444SOL    HW2 1332   1.443   1.785   2.574  3.4073 -1.5929 -3.2815
  445SOL     OW 1333   0.274   0.353   1.010 -0.1359 -0.5667 -0.2418
  445SOL    HW1 1334   0.205   0.278   0.999  0.6850 -0.8513 -1.6832
  445SOL    HW2 1335   0.359   0.311   1.052  0.8782 -0.9266  0.9677
  446SOL     OW 1336   1.655   0.808   1.081  0.0243  0.6205 -0.1115
  446SOL    HW1 1337   1.593   0.735   1.046 -1.4125 -1.1330 -1.4095
  446SOL    HW2 1338   1.753   0.786   1.084 -4.7115  3.2242  2.8076
  447SOL     OW 1339   0.049   0.777   0.217 -0.1367 -0.4002 -0.3775
  447SOL    HW1 1340   3.067   0.707   0.249  0.5901 -0.0253  1.4649
  447SOL    HW2 1341   0.144   0.762   0.245 -0.0538  1.9308 -5.3781
  448SOL     OW 1342   2.166   1.837   1.026 -0.2344  1.0635  0.3329
  448SOL    HW1 1343   2.149   1.935   1.017 -1.3587 -0.3325 -0.7329
  448SOL    HW2 1344   2.107   1.784   0.960  2.1849 -0.9291  0.3534
  449SOL     OW 1345   1.018   1.361   2.842  0.0819 -0.0540  0.1649
  449SOL    HW1 1346   1.107   1.385   2.794  1.0913  0.9910  2.5778
  449SOL    HW2 1347   1.017   1.398   2.940  0.9341 -1.7862 -0.3286
  450SOL     OW 1348   2.183   2.962   2.351 -0.1885  0.0496 -0.3530
  450SOL    HW1 1349   2.202   2.861   2.359 -1.3613  0.6776 -2.6837
  450SOL    HW2 1350   2.083   2.977   2.330  0.1101 -1.1269  2.5160
  451SOL     OW 1351   2.638   0.840   2.583 -0.2883 -0.1611 -0.1071
  451SOL    HW1 1352   2.660   0.782   2.664  1.8535  1.0762 -2.1106
  451SOL    HW2 1353   2.540   0.834   2.554 -0.2718  1.2189  2.5644
  452SOL     OW 1354   1.673   1.152   1.439  0.1070  0.0577 -0.0672
  452SOL    HW1 1355   1.653   1.198   1.352  3.2777  1.7091 -1.4069
  452SOL    HW2 1356   1.616   1.200   1.504  2.6333 -0.9571  0.1045
  453SOL     OW 1357   1.673   0.572   1.833  0.1931  0.6899  0.3903
  453SOL    HW1 1358   1.656   0.527   1.740  2.6556  1.2737 -2.6244
  453SOL    HW2 1359   1.593   0.578   1.889  0.8424  0.0286  1.1617
  454SOL     OW 1360   2.964   0.803   2.891 -0.1101 -0.1013 -0.0147
  454SOL    HW1 1361   3.008   0.744   2.822 -1.4600 -1.2777 -0.5575
  454SOL    HW2 1362   3.008   0.792   2.980  1.9030 -0.1401  0.5713
  455SOL     OW 1363   2.425   1.775   1.515  0.1096 -0.0261  0.3671
  455SOL    HW1 1364   2.390   1.742   1.606 -0.6197  0.8942 -0.8045
  455SOL    HW2 1365   2.524   1.799   1.533 -1.2112 -0.2114  1.3016
  456SOL     OW 1366   1.675   2.887   1.785  0.1210  0.3720  0.0839
  456SOL    HW1 1367   1.604   2.869   1.860 -4.1284  0.8090 -0.6614
  456SOL    HW2 1368   1.719   2.978   1.798 -0.7829 -2.0177 -0.8088
  457SOL     OW 1369   1.539   2.690   0.873 -0.4525 -0.0052 -0.2736
  457SOL    HW1 1370   1.585   2.707   0.785 -1.2865  1.3396  0.3495
  457SOL    HW2 1371   1.455   2.635   0.867  0.5248  0.3955  0.5752
  458SOL     OW 1372   0.043   2.867   0.674  0.4187  0.1984  0.3891
  458SOL    HW1 1373   3.030   2.839   0.699 -0.5468 -2.6483 -4.7271
  458SOL    HW2 1374   0.064   2.831   0.582  0.8254  0.5509 -0.2653
  459SOL     OW 1375   1.782   1.141   0.538 -0.7649 -0.4397 -0.1643
  459SOL    HW1 1376   1.852   1.120   0.466  1.7045 -1.5455 -1.4316
  459SOL    HW2 1377   1.817   1.109   0.631 -0.7681 -0.6336  1.7717
  460SOL     OW 1378   0.825   2.485   2.285 -0.3457  0.4266  0.3492
  460SOL    HW1 1379   0.857   2.482   2.189 -2.1501 -1.1898  1.8252
  460SOL    HW2 1380   0.907   2.505   2.346  0.2695 -0.4915 -0.7242
  461SOL     OW 1381   0.649   1.573   3.001 -0.0339  0.3028  0.3557
  461SOL    HW1 1382   0.562   1.579   2.949  2.3948 -1.9292  0.8655
  461SOL    HW2 1383   0.642   1.519   0.003  1.2939  4.2303 -3.3885
  462SOL     OW 1384   2.009   2.179   0.323 -0.1539  0.0251 -0.0327
  462SOL    HW1 1385   2.075   2.108   0.355  0.7645  0.3934  0.2246
  462SOL    HW2 1386   2.027   2.204   0.224  3.0235  1.4990  0.8335
  463SOL     OW 1387   2.770   0.638   0.510 -0.1545 -0.5028 -0.0808
  463SOL    HW1 1388   2.750   0.537   0.510 -2.0619  1.8152  1.3949
  463SOL    HW2 1389   2.682   0.688   0.527 -3.5658  2.4418  0.5474
  464SOL     OW 1390   0.460   1.789   0.268 -0.3079 -0.4863  0.1161
  464SOL    HW1 1391   0.399   1.724   0.216  1.2491  0.9521 -0.2088
  464SOL    HW2 1392   0.545   1.808   0.217  1.0097  1.4397  1.3777
  465SOL     OW 1393   2.136   0.161   1.402  0.2096  0.7353  0.4556
  465SOL    HW1 1394   2.153   0.149   1.303 -1.6293  0.0061 -3.2562
  465SOL    HW2 1395   2.071   0.233   1.422  1.0614 -1.8594 -1.2452
  466SOL     OW 1396   2.476   0.180   0.738  0.0483 -0.2720 -0.5042
  466SOL    HW1 1397   2.400   0.157   0.678 -0.9404 -0.8268 -0.4172
  466SOL    HW2 1398   2.457   0.271   0.783 -0.3140 -0.5894 -0.5141
  467SOL     OW 1399   0.437   0.452   2.231 -0.0545 -0.5079 -0.3700
  467SOL    HW1 1400   0.391   0.388   2.292  0.2615  0.0809  0.8791
  467SOL    HW2 1401   0.461   0.401   2.146 -0.7589  0.6246 -2.3397
  468SOL     OW 1402   2.578   3.042   2.043 -0.0407  0.2206  0.2436
  468SOL    HW1 1403   2.607   0.055   2.020 -0.8214  1.4689  1.2487
  468SOL    HW2 1404   2.640   2.999   2.111  1.0486  1.0029  1.9031
  469SOL     OW 1405   1.053   2.991   1.543  0.3947 -0.2449 -0.3660
  469SOL    HW1 1406   0.990   3.067   1.518 -1.9000  0.4949 -2.9757
  469SOL    HW2 1407   1.033   2.905   1.489  1.6547 -1.5271 -1.4531
  470SOL     OW 1408   2.465   1.061   1.758  0.3839  0.6799  0.5107
  470SOL    HW1 1409   2.532   0.988   1.786 -2.2375  0.3469 -1.0592
  470SOL    HW2 1410   2.386   1.069   1.821  2.5590  0.0763  0.8050
  471SOL     OW 1411   2.861   1.608   2.794 -0.2833  0.1305  0.3771
  471SOL    HW1 1412   2.808   1.589   2.884 -2.2386 -2.6717  0.4831
  471SOL    HW2 1413   2.902   1.522   2.756  4.5596 -2.1795 -3.1035
  472SOL     OW 1414   0.660   2.057   0.526 -0.8994 -0.6386 -0.3558
  472SOL    HW1 1415   0.728   2.041   0.452 -1.0882 -1.1015  0.6978
  472SOL    HW2 1416   0.669   2.145   0.574  2.0782 -1.8505  1.5836
  473SOL     OW 1417   1.364   2.195   2.210 -0.1787 -0.1593  0.8159
  473SOL    HW1 1418   1.396   2.139   2.287  0.0514  2.2112 -0.3881
  473SOL    HW2 1419   1.390   2.295   2.226  0.8913  1.2390 -1.4249
  474SOL     OW 1420   0.528   2.663   2.617 -0.0150  0.0682 -0.0254
  474SOL    HW1 1421   0.569   2.602   2.686 -3.0739  2.8088 -3.4297
  474SOL    HW2 1422   0.549   2.757   2.645 -2.8135 -1.2755 -2.5342
  475SOL     OW 1423   0.787   1.799   2.564  0.0361  0.2677 -0.5241
  475SOL    HW1 1424   0.826   1.773   2.652 -1.7571  1.6933 -2.2204
  475SOL    HW2 1425   0.762   1.897   2.561  1.2772  1.3371 -0.0915
  476SOL     OW 1426   0.667   0.664   0.944 -0.4163 -0.0439 -0.4154
  476SOL    HW1 1427   0.635   0.708   1.028  1.8473 -0.2720  0.1312
  476SOL    HW2 1428   0.630   0.713   0.855 -0.7157  0.9924 -0.6718
  477SOL     OW 1429   2.095   2.242   1.259 -0.2667  0.2919  0.2032
  477SOL    HW1 1430   2.193   2.233   1.279 -3.2588  1.7538  0.4511
  477SOL    HW2 1431   2.043   2.264   1.350 -2.6929 -0.6172  4.9341
  478SOL     OW 1432   0.266   0.293   2.951 -0.3496  0.0287 -0.3547
  478SOL    HW1 1433   0.212   0.375   2.971 -0.3825  0.4333  0.5506
  478SOL    HW2 1434   0.296   0.296   2.853 -1.6931  2.5876  1.3848
  479SOL     OW 1435   1.140   0.197   1.509 -0.5912 -0.1809 -0.0682
  479SOL    HW1 1436   1.147   0.277   1.574  0.8331  2.0883  0.9555
  479SOL    HW2 1437   1.046   0.164   1.497 -1.1860 -0.0091 -0.7665
  480SOL     OW 1438   2.776   2.113   0.386  0.3253  0.2313 -0.0893
  480SOL    HW1 1439   2.674   2.114   0.381 -3.1098  2.5361  0.7472
  480SOL    HW2 1440   2.814   2.021   0.353 -4.4151  2.7463 -0.1538
  481SOL     OW 1441   0.118   0.784   1.710 -0.5167 -0.2210  0.1745
  481SOL    HW1 1442   0.137   0.856   1.641 -0.5666 -2.3371 -0.7245
  481SOL    HW2 1443   0.115   0.823   1.803  2.2244  0.9986  0.5568
  482SOL     OW 1444   0.991   2.961   1.154  0.2095  0.8681 -0.1414
  482SOL    HW1 1445   0.901   2.972   1.113 -1.3166  0.8161 -0.0059
  482SOL    HW2 1446   0.988   2.902   1.238 -1.2078  0.8671 -1.0999
  483SOL     OW 1447   3.050   1.453   2.603  0.3701  0.3298  0.1348
  483SOL    HW1 1448   3.006   1.363   2.621  2.2062  1.5919 -2.5438
  483SOL    HW2 1449   2.990   1.514   2.549 -0.0393 -1.0550  0.9381
  484SOL     OW 1450   1.824   1.811   2.026 -0.7432  0.7878  0.2756
  484SOL    HW1 1451   1.817   1.715   2.054  3.3993  1.6927 -1.4430
  484SOL    HW2 1452   1.803   1.818   1.928 -0.0061  1.2839 -3.2307
  485SOL     OW 1453   0.148   2.849   2.256  0.0276  0.1023  0.9514
  485SOL    HW1 1454   0.109   2.832   2.351  1.1280  1.8339  1.6647
  485SOL    HW2 1455   0.223   2.780   2.248 -0.4746 -0.0485 -1.9314
  486SOL     OW 1456   1.081   0.126   0.630  0.3967 -0.1429  0.3863
  486SOL    HW1 1457   1.172   0.090   0.618 -2.1252  2.9160 -1.9382
  486SOL    HW2 1458   1.071   0.184   0.716  2.6588  3.6334  2.9358
  487SOL     OW 1459   1.357   0.268   0.957 -0.0939  0.0265 -0.2581
  487SOL    HW1 1460   1.407   0.257   0.867 -1.7882 -2.0863  1.0908
  487SOL    HW2 1461   1.410   0.307   1.034  1.2422  1.1628  0.3133
  488SOL     OW 1462   2.482   0.984   0.873  0.0941  0.1871  0.6247
  488SOL    HW1 1463   2.398   1.032   0.839 -2.8857 -0.6002  0.7650
  488SOL    HW2 1464   2.502   1.028   0.961  1.9030  0.9120  1.1896
  489SOL     OW 1465   1.123   0.731   1.371 -0.4714  0.6656  0.0282
  489SOL    HW1 1466   1.045   0.775   1.321 -3.4485  1.3568 -0.6780
  489SOL    HW2 1467   1.180   0.672   1.306  0.8117 -0.5955 -2.2868
  490SOL     OW 1468   0.944   0.470   2.887  0.1777 -0.2198 -0.8821
  490SOL    HW1 1469   1.028   0.429   2.925  1.4245 -0.9707  1.3941
  490SOL    HW2 1470   0.899   0.529   2.959 -2.2052  1.5127 -0.1136
  491SOL     OW 1471   0.884   2.769   0.510  0.1868  0.7237 -0.1097
  491SOL    HW1 1472   0.905   2.857   0.466  1.0162 -1.5366 -0.9448
  491SOL    HW2 1473   0.919   2.760   0.604 -1.0446  0.6407  1.5090
  492SOL     OW 1474   1.212   1.719   1.518 -0.1755 -0.2798  0.6410
  492SOL    HW1 1475   1.223   1.736   1.622 -2.3176 -1.1206  0.0151
  492SOL    HW2 1476   1.216   1.618   1.499 -2.4780 -0.6586  4.5463
  493SOL     OW 1477   0.617   1.453   0.175 -0.0756 -0.4156  0.8702
  493SOL    HW1 1478   0.710   1.422   0.196  0.9008 -0.9641  0.3531
  493SOL    HW2 1479   0.551   1.434   0.252 -0.2335  0.8377 -2.9849
  494SOL     OW 1480   1.942   2.274   0.561  0.1318  0.0632  0.0432
  494SOL    HW1 1481   1.962   2.232   0.469  0.5720 -0.6922  0.2476
  494SOL    HW2 1482   1.991   2.362   0.573 -1.3377  0.1668  3.9751
  495SOL     OW 1483   0.450   1.470   2.411 -0.5897 -0.2723  0.1306
  495SOL    HW1 1484   0.510   1.542   2.455 -1.8268 -0.7003  0.2384
  495SOL    HW2 1485   0.400   1.422   2.487 -1.2296 -1.9161 -0.2248
  496SOL     OW 1486   0.371   2.458   2.521 -0.3494 -0.1899  0.0052
  496SOL    HW1 1487   0.412   2.551   2.519 -0.6402  2.8970 -1.2589
  496SOL    HW2 1488   0.403   2.403   2.443 -1.9109  0.4428 -1.7977
  497SOL     OW 1489   1.646   1.369   0.500  0.7145  0.3513 -0.6238
  497SOL    HW1 1490   1.569   1.339   0.435 -0.9502  1.6216 -0.6248
  497SOL    HW2 1491   1.709   1.290   0.510 -0.2509  4.1939  0.7371
  498SOL     OW 1492   2.815   2.460   0.169  0.4788  0.4110  0.2086
  498SOL    HW1 1493   2.892   2.424   0.111 -1.1643  0.3602  0.9369
  498SOL    HW2 1494   2.800   2.398   0.251  1.9701 -1.9022  0.4447
  499SOL     OW 1495   2.113   2.502   0.610 -0.1108  0.2014  0.7954
  499SOL    HW1 1496   2.145   2.487   0.706 -2.2082 -0.2972  1.4694
  499SOL    HW2 1497   2.068   2.590   0.603 -2.6285 -5.4111  4.2648
  500SOL     OW 1498   0.393   0.264   2.718  0.6042  0.5429 -0.2160
  500SOL    HW1 1499   0.399   0.354   2.666  2.0992  0.3985 -0.4604
  500SOL    HW2 1500   0.488   0.231   2.741  0.2089  0.4449  1.0640
  501SOL     OW 1501   1.875   2.714   1.772  0.2717  0.0547  0.3597
  501SOL    HW1 1502   1.907   2.742   1.674  0.6902  1.8851  0.9658
  501SOL    HW2 1503   1.802   2.783   1.789 -1.0568 -1.3123 -0.0294
  502SOL     OW 1504   3.015   0.016   2.502 -0.2632 -0.4160 -0.7832
  502SOL    HW1 1505   3.049   0.049   2.593 -1.1777 -0.8424  1.8883
  502SOL    HW2 1506   3.046   3.002   2.478 -0.4783 -0.1496 -1.0665
  503SOL     OW 1507   1.844   2.615   2.362 -0.2849  0.2908  0.1395
  503SOL    HW1 1508   1.900   2.595   2.280 -0.1761 -1.2278  0.5631
  503SOL    HW2 1509   1.747   2.619   2.340  1.9229 -0.0163  0.0802
  504SOL     OW 1510   2.171   0.346   1.700  0.6442 -0.2909 -0.3839
  504SOL    HW1 1511   2.093   0.283   1.719  1.2294  0.3444  0.4297
  504SOL    HW2 1512   2.147   0.405   1.622  0.5211  1.2999  1.5782
  505SOL     OW 1513   2.472   1.506   1.443 -0.2974  0.1954  0.2547
  505SOL    HW1 1514   2.460   1.602   1.474 -0.5414  2.7079 -0.0427
  505SOL    HW2 1515   2.425   1.503   1.353 -0.3503  0.3322  0.8401
  506SOL     OW 1516   0.038   1.767   1.633  0.0087 -1.0059  0.1914
  506SOL    HW1 1517   0.023   1.683   1.573 -0.9539  0.3937  0.2086
  506SOL    HW2 1518   3.058   1.849   1.610 -2.1741  3.5452  0.2778
  507SOL     OW 1519   0.497   2.310   1.384 -0.8101  0.0538  0.6413
  507SOL    HW1 1520   0.498   2.354   1.474  2.7922 -1.7998  2.2722
  507SOL    HW2 1521   0.482   2.379   1.313  1.4474 -4.7286  2.3158
  508SOL     OW 1522   0.612   0.580   1.593  0.0883 -0.2419 -0.3349
  508SOL    HW1 1523   0.642   0.550   1.686  0.2664 -0.5365 -0.7013
  508SOL    HW2 1524   0.511   0.595   1.589 -0.2450 -1.6094 -0.2414
  509SOL     OW 1525   1.671   2.542   1.729 -0.3196 -0.5482 -0.2134
  509SOL    HW1 1526   1.574   2.581   1.729 -1.4075 -1.5284 -0.3204
  509SOL    HW2 1527   1.734   2.620   1.729 -0.1373 -3.2493 -4.0915
  510SOL     OW 1528   2.447   1.283   2.525  0.3859 -0.5471  0.1228
  510SOL    HW1 1529   2.363   1.340   2.517 -0.5013  0.0249 -0.7851
  510SOL    HW2 1530   2.531   1.330   2.558 -0.0089 -0.9808 -1.0022
  511SOL     OW 1531   0.944   1.330   1.146  0.4000  0.1706 -0.4534
  511SOL    HW1 1532   1.044   1.316   1.172  1.9275 -0.8241 -0.8671
  511SOL    HW2 1533   0.897   1.389   1.211  1.8010 -0.1452  0.3982
  512SOL     OW 1534   2.933   1.623   0.511  0.1707  0.1377 -0.2277
  512SOL    HW1 1535   2.913   1.557   0.588 -2.6229 -0.9580  0.5536
  512SOL    HW2 1536   3.030   1.648   0.512 -2.6507 -0.1053  0.2628
  513SOL     OW 1537   1.143   2.085   2.327 -0.0886 -0.2019  0.3284
  513SOL    HW1 1538   1.059   2.090   2.265 -2.1717 -0.2819 -1.8216
  513SOL    HW2 1539   1.210   2.162   2.308 -0.7828  0.2591 -0.1979
  514SOL     OW 1540   0.116   2.143   1.201  0.3201  0.1280 -0.4163
  514SOL    HW1 1541   0.137   2.229   1.146  0.0924  0.2957  1.7028
  514SOL    HW2 1542   0.191   2.121   1.261 -3.2743  0.9996  0.5240
  515SOL     OW 1543   1.964   0.903   1.684  0.5816 -0.5739  0.1086
  515SOL    HW1 1544   1.866   0.892   1.694  2.5666 -0.1709  0.7132
  515SOL    HW2 1545   1.992   0.974   1.617 -0.8149 -0.0203  0.6448
  516SOL     OW 1546   2.401   0.367   0.112 -0.2080  0.0903 -0.3673
  516SOL    HW1 1547   2.427   0.326   0.026  0.9529 -0.7709  0.2105
  516SOL    HW2 1548   2.478   0.419   0.156  2.6011 -0.1894 -0.0841
  517SOL     OW 1549   1.148   1.670   2.865 -0.1030  0.0666 -0.8766
  517SOL    HW1 1550   1.215   1.656   2.942  0.2053 -2.0439 -2.0365
  517SOL    HW2 1551   1.149   1.589   2.804  0.2023  0.9420  2.5789
  518SOL     OW 1552   1.520   0.039   1.380  0.1229 -0.0526  0.4051
  518SOL    HW1 1553   1.533   3.031   1.431  1.8128 -1.3781  0.6041
  518SOL    HW2 1554   1.605   0.064   1.331 -1.2112 -0.2649 -1.3897
  519SOL     OW 1555   2.183   2.742   1.009 -0.4480 -0.2768 -0.1184
  519SOL    HW1 1556   2.282   2.712   1.015  1.0533  1.0044 -1.3272
  519SOL    HW2 1557   2.172   2.799   0.925 -0.3304  0.0616  0.7565
  520SOL     OW 1558   2.725   1.946   1.996 -0.1884 -0.6262  0.8050
  520SOL    HW1 1559   2.762   1.855   1.969 -0.0405 -0.7842  0.3463
  520SOL    HW2 1560   2.643   1.976   1.940  0.0198  1.3590 -1.6351
  521SOL     OW 1561   2.980   0.578   0.325 -0.1340  0.1477  0.8567
  521SOL    HW1 1562   2.921   0.544   0.252  1.2632  1.6658  0.0267
  521SOL    HW2 1563   2.920   0.619   0.396 -1.8811  1.1569 -1.3958
  522SOL     OW 1564   0.949   0.731   2.412 -0.3133 -0.6716 -0.3516
  522SOL    HW1 1565   0.881   0.663   2.429  0.6263  0.1459 -1.2348
  522SOL    HW2 1566   0.909   0.821   2.406  2.0453  0.1444 -0.4954
  523SOL     OW 1567   0.299   2.301   0.553 -0.0874 -0.2787  0.4993
  523SOL    HW1 1568   0.254   2.213   0.574  0.2392  1.3605 -1.1685
  523SOL    HW2 1569   0.345   2.291   0.462 -0.1370  0.4341 -1.9372
  524SOL     OW 1570   1.956   2.726   3.023 -0.0025 -0.0261  0.1786
  524SOL    HW1 1571   1.995   2.776   2.940 -0.0040  1.8597 -2.2826
  524SOL    HW2 1572   2.029   2.682   3.078 -3.4892  1.5676  0.8831
  525SOL     OW 1573   2.482   0.472   1.441 -0.0980 -0.4184 -0.0458
  525SOL    HW1 1574   2.557   0.507   1.385 -2.2728  2.2035  3.1838
  525SOL    HW2 1575   2.405   0.540   1.453 -2.2036 -0.2820  2.7687
  526SOL     OW 1576   0.929   0.203   0.433 -0.1291 -0.2642  0.0260
  526SOL    HW1 1577   0.986   0.183   0.514 -0.4021 -0.7656  0.0758
  526SOL    HW2 1578   0.989   0.204   0.352 -3.0204  1.2785  1.6007
  527SOL     OW 1579   2.260   2.757   0.572 -0.4384  0.0525 -0.2139
  527SOL    HW1 1580   2.176   2.717   0.531 -1.4517 -0.5153 -0.1264
  527SOL    HW2 1581   2.285   2.846   0.526 -0.2462  0.9426  0.0071
  528SOL     OW 1582   1.875   0.907   2.701  0.4409  0.1792  0.2972
  528SOL    HW1 1583   1.793   0.885   2.759  1.6910 -1.5910 -0.1050
  528SOL    HW2 1584   1.851   0.959   2.615 -0.8300 -1.8509  0.6046
  529SOL     OW 1585   1.815   1.473   2.380 -0.0219 -0.3510 -0.4083
  529SOL    HW1 1586   1.719   1.455   2.411  1.3747 -0.1515  1.5610
  529SOL    HW2 1587   1.881   1.397   2.406  1.5711  2.4134 -1.4590
  530SOL     OW 1588   2.510   2.768   2.958 -0.4217  0.4453  0.5460
  530SOL    HW1 1589   2.511   2.868   2.969 -1.6723  1.4164 -0.5867
  530SOL    HW2 1590   2.515   2.726   3.049  1.4900  1.0472  0.5517
  531SOL     OW 1591   1.807   1.582   2.943  0.1449 -0.0741 -0.3583
  531SOL    HW1 1592   1.853   1.522   3.010  0.2096  0.9156  0.8625
  531SOL    HW2 1593   1.842   1.675   2.963 -0.6434  2.4268  1.0708
  532SOL     OW 1594   1.537   0.279   1.155  0.4125 -0.4751 -0.5720
  532SOL    HW1 1595   1.467   0.271   1.223  0.1742 -0.5920 -4.2416
  532SOL    HW2 1596   1.607   0.346   1.188  1.3708  0.7747  1.6892
  533SOL     OW 1597   0.635   0.856   2.977 -0.3259 -0.0910 -0.5212
  533SOL    HW1 1598   0.636   0.907   3.061 -0.1694 -1.0803 -2.3438
  533SOL    HW2 1599   0.678   0.912   2.902  2.8816  1.9175 -1.1474
  534SOL     OW 1600   1.393   0.625   3.029 -0.0342  0.1588  0.0923
  534SOL    HW1 1601   1.421   0.616   2.929  1.3265 -0.5210  0.8308
  534SOL    HW2 1602   1.441   0.570   0.016  1.6380  0.9483 -1.6194
  535SOL     OW 1603   0.845   1.956   2.910 -0.0847 -0.0198 -0.1863
  535SOL    HW1 1604   0.749   1.975   2.937  2.0438  0.4962  0.1212
  535SOL    HW2 1605   0.862   1.857   2.884  0.6799 -2.8212 -2.1270
  536SOL     OW 1606   0.734   2.774   0.134  0.0068  0.2156  0.5693
  536SOL    HW1 1607   0.743   2.827   0.045  2.7395 -0.5220 -0.4952
  536SOL    HW2 1608   0.802   2.699   0.133  1.3403 -0.5178 -3.0278
  537SOL     OW 1609   1.900   0.298   0.248  0.2770 -0.0566  0.3252
  537SOL    HW1 1610   1.975   0.256   0.303 -1.9521 -0.3325  1.4667
  537SOL    HW2 1611   1.917   0.399   0.254  3.3644  0.8492 -0.5524
  538SOL     OW 1612   2.448   2.388   2.956 -0.7180 -0.3991 -0.0548
  538SOL    HW1 1613   2.410   2.449   2.877 -0.6646  1.3494  1.1957
  538SOL    HW2 1614   2.389   2.410   3.037  1.4899 -1.3534 -0.9314
  539SOL     OW 1615   2.608   1.313   0.049  0.7178  0.2029 -0.5630
  539SOL    HW1 1616   2.622   1.307   0.154  1.6230 -0.5344  3.4207
  539SOL    HW2 1617   2.520   1.264   0.025 -1.2988  0.4373 -1.3642
  540SOL     OW 1618   0.614   2.877   1.809  0.0586 -0.2581 -0.0059
  540SOL    HW1 1619   0.565   2.797   1.763 -0.5808 -1.4487  1.0803
  540SOL    HW2 1620   0.554   2.930   1.873  0.4000  0.4491 -4.7953
  541SOL     OW 1621   2.323   0.086   2.453 -0.3056  0.3784 -0.4680
  541SOL    HW1 1622   2.323   0.068   2.556 -0.4539  0.4600  1.1464
  541SOL    HW2 1623   2.279   0.009   2.402  0.1080 -0.9306 -1.7539
  542SOL     OW 1624   0.526   0.497   3.012 -0.1509 -0.1291  0.3519
  542SOL    HW1 1625   0.532   0.393   2.997  2.9467 -3.6745 -0.8419
  542SOL    HW2 1626   0.481   0.522   0.014  0.0736  2.0455 -0.0355
  543SOL     OW 1627   0.464   1.011   0.647 -0.3631 -0.6566 -0.4178
  543SOL    HW1 1628   0.364   1.023   0.657 -0.4561  0.6107 -0.6035
  543SOL    HW2 1629   0.519   1.085   0.697 -0.2776  2.0389  1.9584
  544SOL     OW 1630   2.533   0.717   1.191 -0.3517  0.3442 -0.4133
  544SOL    HW1 1631   2.601   0.642   1.204 -0.5830 -0.6473  1.5190
  544SOL    HW2 1632   2.535   0.777   1.272  0.6998 -2.9215 -1.6991
  545SOL     OW 1633   1.031   1.735   0.110  0.5227 -0.6089  0.1661
  545SOL    HW1 1634   1.036   1.808   0.036  2.9536  2.5945  1.6713
  545SOL    HW2 1635   1.119   1.703   0.138 -0.0529  0.1153 -0.0802
  546SOL     OW 1636   2.195   2.587   1.494 -0.1749 -0.1036  0.0534
  546SOL    HW1 1637   2.195   2.513   1.560  0.8304  1.7449  0.9501
  546SOL    HW2 1638   2.213   2.558   1.394 -0.0441 -1.4289 -2.4750
  547SOL     OW 1639   1.268   2.506   1.902  0.2108  0.1790  0.4443
  547SOL    HW1 1640   1.301   2.562   1.978  0.1141 -2.5018 -1.3396
  547SOL    HW2 1641   1.174   2.531   1.876  0.1244 -0.7534 -2.2035
  548SOL     OW 1642   1.629   0.783   2.859  0.2197 -0.0964  0.2502
  548SOL    HW1 1643   1.718   0.754   2.902 -3.0580  1.3923  0.7211
  548SOL    HW2 1644   1.579   0.705   2.820 -1.2971  0.3047  0.1720
  549SOL     OW 1645   2.234   0.838   0.400  0.8695 -0.5405  0.0476
  549SOL    HW1 1646   2.274   0.750   0.432 -0.6982 -0.6968  0.9590
  549SOL    HW2 1647   2.237   0.912   0.473 -0.1280  0.3902 -0.8763
  550SOL     OW 1648   2.289   1.372   0.443  0.5656  0.1534  0.0292
  550SOL    HW1 1649   2.373   1.430   0.442 -3.8000 -0.6255 -1.6696
  550SOL    HW2 1650   2.209   1.438   0.439  2.0139  0.5550 -1.5016
  551SOL     OW 1651   1.823   0.317   1.457 -0.1109  0.2377  0.1375
  551SOL    HW1 1652   1.776   0.346   1.540  0.8093 -1.4695 -2.6903
  551SOL    HW2 1653   1.778   0.360   1.376  1.0470 -0.4643  2.6168
  552SOL     OW 1654   1.551   0.188   2.832  0.5491  0.6368 -0.2485
  552SOL    HW1 1655   1.620   0.262   2.821 -3.0784 -2.3004  0.2711
  552SOL    HW2 1656   1.590   0.123   2.896  1.4051 -0.1177  1.7652
  553SOL     OW 1657   0.525   2.449   2.045  0.0257 -0.0069  0.2338
  553SOL    HW1 1658   0.509   2.440   2.144  1.7008  1.4591 -2.5362
  553SOL    HW2 1659   0.440   2.474   1.992  1.9720 -1.2161  0.2774
  554SOL     OW 1660   0.173   2.903   1.354 -0.4037 -0.3671  0.0350
  554SOL    HW1 1661   0.112   2.959   1.299  1.2321  0.4233 -2.8638
  554SOL    HW2 1662   0.268   2.898   1.305  0.4518  0.8152 -0.8255
  555SOL     OW 1663   2.520   1.774   2.167  0.1659  0.2010 -0.3416
  555SOL    HW1 1664   2.519   1.866   2.128 -0.6910 -0.7660 -0.0497
  555SOL    HW2 1665   2.611   1.732   2.180  0.8925  0.1562  1.6977
  556SOL     OW 1666   1.169   0.459   3.068  0.2719 -0.0863  0.6726
  556SOL    HW1 1667   1.252   0.522   3.065  0.9514  0.4653  0.2365
  556SOL    HW2 1668   1.144   0.420   0.080 -0.7139 -3.2828  0.3542
  557SOL     OW 1669   0.232   1.961   2.304  0.6519 -0.1987  0.7401
  557SOL    HW1 1670   0.283   1.976   2.214  3.9879 -0.4292 -2.2384
  557SOL    HW2 1671   0.144   1.909   2.296  0.1027 -0.2454 -0.8524
  558SOL     OW 1672   1.881   0.708   2.910  0.1144  0.2512 -0.1923
  558SOL    HW1 1673   1.960   0.651   2.946 -1.4410 -0.4128  1.3596
  558SOL    HW2 1674   1.912   0.785   2.852 -3.4908 -0.1333  2.3732
  559SOL     OW 1675   2.078   1.856   1.746  0.2540 -0.6092 -0.3013
  559SOL    HW1 1676   2.055   1.853   1.649  1.1063  0.0555  0.0793
  559SOL    HW2 1677   2.020   1.924   1.794 -0.1741 -0.6045  0.0833
  560SOL     OW 1678   1.912   1.036   1.990 -0.0746  0.3571  0.6369
  560SOL    HW1 1679   1.893   0.976   1.911 -1.8514  0.3863 -3.4875
  560SOL    HW2 1680   1.937   1.124   1.951  1.1485 -1.9709  0.4385
  561SOL     OW 1681   3.071   0.169   2.844  0.0352  0.3465  0.2174
  561SOL    HW1 1682   0.027   0.095   2.906 -0.3527  2.1266  1.1752
  561SOL    HW2 1683   0.040   0.255   2.845 -1.8658  0.9488 -1.5932
  562SOL     OW 1684   0.906   1.815   1.432  0.0348 -0.2233 -0.4023
  562SOL    HW1 1685   0.996   1.842   1.469  0.5988 -0.5511 -0.9782
  562SOL    HW2 1686   0.828   1.846   1.494 -1.5063 -0.8563 -1.6073
  563SOL     OW 1687   0.927   0.099   0.044  0.4051  0.2302 -0.0137
  563SOL    HW1 1688   0.926   0.101   3.022  1.7537  4.3089 -1.6653
  563SOL    HW2 1689   0.835   0.102   0.088 -1.7270  0.8555 -0.8058
  564SOL     OW 1690   0.104   2.545   0.621 -0.0064  0.3692  0.3536
  564SOL    HW1 1691   0.122   2.441   0.616 -0.9196 -1.9736 -1.0143
  564SOL    HW2 1692   0.015   2.569   0.578 -0.7713  0.2489  0.9421
  565SOL     OW 1693   0.631   2.140   1.215  0.4366  0.2191 -0.4777
  565SOL    HW1 1694   0.705   2.079   1.248  0.5154  1.6353 -0.6837
  565SOL    HW2 1695   0.590   2.189   1.293  0.0732  2.2310  2.5420
  566SOL     OW 1696   1.050   2.984   2.481 -0.7458 -0.2090  0.5276
  566SOL    HW1 1697   1.012   3.073   2.516 -0.4835  1.0676 -1.8842
  566SOL    HW2 1698   1.002   2.954   2.390 -1.2899 -2.4816 -0.6926
  567SOL     OW 1699   2.072   3.081   0.987 -0.6524 -0.4615 -0.1945
  567SOL    HW1 1700   2.072   3.029   1.076  1.3196 -2.5358 -0.2967
  567SOL    HW2 1701   2.107   3.023   0.912  0.4750  0.3402  1.6238
  568SOL     OW 1702   1.651   1.599   0.679  0.2525  0.3724  0.7396
  568SOL    HW1 1703   1.740   1.629   0.639  0.8956  4.3442  1.7820
  568SOL    HW2 1704   1.632   1.498   0.668 -1.6092 -1.5055  1.1863
  569SOL     OW 1705   2.057   0.831   2.394  0.0152 -0.2991  0.0217
  569SOL    HW1 1706   1.958   0.845   2.400  1.5330 -0.7533 -3.5031
  569SOL    HW2 1707   2.087   0.765   2.465  0.7752 -1.1201 -3.0006
  570SOL     OW 1708   0.071   0.103   2.065  0.0268  0.2363 -0.2854
  570SOL    HW1 1709   0.032   0.183   2.110  1.7974  3.3119 -1.3727
  570SOL    HW2 1710   3.082   0.035   2.046  0.7402 -3.3128 -0.4727
  571SOL     OW 1711   0.407   2.707   1.736  0.0729 -0.4219 -0.2735
  571SOL    HW1 1712   0.352   2.728   1.823  0.3666 -0.7417  2.5838
  571SOL    HW2 1713   0.425   2.608   1.730  0.8113  0.0622 -2.8270
  572SOL     OW 1714   0.123   2.162   1.567 -0.1248 -0.0919  0.7855
  572SOL    HW1 1715   0.071   2.235   1.520  3.0335 -2.2259  3.6813
  572SOL    HW2 1716   0.196   2.135   1.501  1.4776 -0.7086  0.2368
  573SOL     OW 1717   1.293   0.969   2.813 -0.7418 -0.0253  0.1667
  573SOL    HW1 1718   1.366   0.969   2.745 -5.1468 -2.1038 -1.9123
  573SOL    HW2 1719   1.202   0.997   2.780 -0.1458 -0.2268 -1.3582
  574SOL     OW 1720   2.589   2.682   2.260  0.1028 -0.2948 -0.1856
  574SOL    HW1 1721   2.652   2.703   2.189 -1.0692  2.3506  1.5348
  574SOL    HW2 1722   2.508   2.628   2.228 -3.0903  1.1155 -0.5312
  575SOL     OW 1723   1.345   0.040   0.653 -0.2263 -0.1147 -0.4405
  575SOL    HW1 1724   1.390   0.133   0.653 -1.6110  4.0620  1.6681
  575SOL    HW2 1725   1.335   0.014   0.749  0.7525  0.5093 -0.5928
  576SOL     OW 1726   0.863   0.352   1.154  0.6230  0.4884 -0.1325
  576SOL    HW1 1727   0.814   0.348   1.063 -3.0354  0.7487 -3.5801
  576SOL    HW2 1728   0.927   0.270   1.157 -0.8464 -0.6177  0.2170
  577SOL     OW 1729   2.195   1.746   0.340  0.2842  0.1922 -0.4355
  577SOL    HW1 1730   2.262   1.716   0.266  0.0652 -0.5023  1.2581
  577SOL    HW2 1731   2.152   1.674   0.397  0.5479  0.1220  1.6624
  578SOL     OW 1732   2.215   0.507   1.126 -0.0118  0.4711 -0.1855
  578SOL    HW1 1733   2.311   0.468   1.126  0.6967  0.9666 -1.3152
  578SOL    HW2 1734   2.199   0.552   1.214 -0.8203 -2.2564  1.1826
  579SOL     OW 1735   1.764   1.000   2.460 -0.2778  0.0075 -0.1922
  579SOL    HW1 1736   1.763   0.993   2.358  1.4990 -0.9122  0.5540
  579SOL    HW2 1737   1.782   1.097   2.485  0.8340 -0.4627 -1.6255
  580SOL     OW 1738   1.311   1.210   1.864  0.2391 -0.2505 -0.2229
  580SOL    HW1 1739   1.315   1.299   1.807 -1.3042  2.7339  0.9326
  580SOL    HW2 1740   1.264   1.224   1.954 -1.4514  0.2305  0.3384
  581SOL     OW 1741   0.299   0.837   1.039 -0.0584  0.1988 -0.0475
  581SOL    HW1 1742   0.215   0.874   1.083  2.0744  1.5662 -1.9604
  581SOL    HW2 1743   0.282   0.742   1.015  0.0313  1.5519  0.8472
  582SOL     OW 1744   2.795   0.549   1.912 -0.4096 -0.0481 -0.1892
  582SOL    HW1 1745   2.695   0.576   1.895 -0.7483 -0.2350 -1.1489
  582SOL    HW2 1746   2.819   0.547   2.009 -1.7731  2.2358 -0.4859
  583SOL     OW 1747   0.028   0.339   2.504 -0.0917 -0.3119 -0.2745
  583SOL    HW1 1748   3.073   0.427   2.516 -0.5899 -1.7344 -0.7493
  583SOL    HW2 1749   3.040   0.277   2.474  2.4549  3.2678  1.5235
  584SOL     OW 1750   1.942   2.452   0.257  0.2219 -0.0108  0.4065
  584SOL    HW1 1751   1.995   2.381   0.310 -1.1512  1.5963  1.3646
  584SOL    HW2 1752   1.881   2.407   0.178 -3.1355  0.8611 -2.4410
  585SOL     OW 1753   0.178   2.304   0.041 -0.2022 -0.0076 -0.5401
  585SOL    HW1 1754   0.184   2.209   0.013  0.0193  1.6703  0.9249
  585SOL    HW2 1755   0.195   2.312   0.145  1.3166 -0.3862  2.7236
  586SOL     OW 1756   1.876   1.875   2.310  0.3123 -0.2920 -0.1096
  586SOL    HW1 1757   1.853   1.853   2.211 -1.6520 -0.6767  0.1395
  586SOL    HW2 1758   1.973   1.893   2.319 -0.7371 -2.4068  1.9575
  587SOL     OW 1759   2.274   1.551   2.834 -0.3166 -0.1510 -0.6010
  587SOL    HW1 1760   2.340   1.565   2.755 -0.7591  0.2674 -3.4562
  587SOL    HW2 1761   2.277   1.453   2.867  0.1496 -0.0617  1.2109
  588SOL     OW 1762   3.024   0.173   1.358  0.3282  0.0588  0.5163
  588SOL    HW1 1763   3.071   0.120   1.281 -2.0254 -0.5461 -0.8146
  588SOL    HW2 1764   3.081   0.243   1.400  0.5329  0.2795 -2.5975
  589SOL     OW 1765   0.585   0.279   0.703  0.2781  0.0965  0.0411
  589SOL    HW1 1766   0.647   0.310   0.635 -0.9311 -1.3333 -0.1587
  589SOL    HW2 1767   0.513   0.346   0.731  1.4176  0.7114  0.0000
  590SOL     OW 1768   2.491   2.123   0.795  0.0379  0.1579  0.3199
  590SOL    HW1 1769   2.418   2.182   0.757 -0.7578  0.8042 -0.2481
  590SOL    HW2 1770   2.528   2.059   0.729 -0.4320 -0.6148  1.8325
  591SOL     OW 1771   0.905   2.551   1.161  0.0220  0.6550  0.4568
  591SOL    HW1 1772   0.862   2.458   1.145 -1.0087  0.3242  0.5252
  591SOL    HW2 1773   0.998   2.551   1.207 -0.2194 -0.2370  3.4973
  592SOL     OW 1774   1.132   0.996   1.222 -0.0563 -0.5785 -0.3901
  592SOL    HW1 1775   1.226   1.036   1.200  1.8119 -0.2008 -2.3759
  592SOL    HW2 1776   1.116   0.911   1.171  1.0101  0.5244  1.3271
  593SOL     OW 1777   0.891   2.385   1.417 -0.3045 -0.0787 -0.4871
  593SOL    HW1 1778   0.882   2.457   1.490  0.7417 -0.3570 -1.8214
  593SOL    HW2 1779   0.847   2.412   1.331 -3.2643 -1.7111  0.8163
  594SOL     OW 1780   1.026   1.474   0.009  0.1156 -0.8065  0.2456
  594SOL    HW1 1781   1.014   1.556   0.070 -1.4049  0.4337  0.7039
  594SOL    HW2 1782   0.960   1.404   0.041  0.4120 -0.4865 -0.0118
  595SOL     OW 1783   1.525   1.277   1.630  0.7249 -0.1483  0.2289
  595SOL    HW1 1784   1.605   1.321   1.677 -2.7074  0.5679  0.6952
  595SOL    HW2 1785   1.436   1.312   1.665  0.0822  0.0505 -0.0353
  596SOL     OW 1786   2.796   1.281   2.251  0.0880 -0.7920 -1.3586
  596SOL    HW1 1787   2.813   1.219   2.331 -0.9538 -1.5122  0.6343
  596SOL    HW2 1788   2.852   1.256   2.173 -2.2341 -0.7212  1.8226
  597SOL     OW 1789   1.378   2.625   1.686 -0.2452 -0.0706  0.1449
  597SOL    HW1 1790   1.286   2.617   1.640 -0.6686 -3.1001 -2.4931
  597SOL    HW2 1791   1.372   2.554   1.756  0.4102  3.0288  0.2469
  598SOL     OW 1792   2.255   1.351   1.542  0.5168 -0.2045 -0.0150
  598SOL    HW1 1793   2.334   1.411   1.514 -2.0351  1.8488  1.0387
  598SOL    HW2 1794   2.171   1.397   1.517  0.4675  2.3079 -0.4212
  599SOL     OW 1795   0.914   2.416   2.936  0.3194 -0.0218 -0.5889
  599SOL    HW1 1796   1.011   2.423   2.900  0.9558  1.1899 -0.0853
  599SOL    HW2 1797   0.909   2.464   3.026  0.1588 -2.4504 -1.0763
  600SOL     OW 1798   3.031   1.801   0.201  0.2799 -0.5836  0.2273
  600SOL    HW1 1799   2.948   1.821   0.254  0.5634  0.2108 -0.3573
  600SOL    HW2 1800   0.027   1.832   0.257 -2.0531 -1.9504 -0.9547
  601SOL     OW 1801   0.472   0.904   1.455 -0.1886  0.8501 -0.1618
  601SOL    HW1 1802   0.489   0.911   1.553  2.8766  1.4026 -1.3479
  601SOL    HW2 1803   0.388   0.853   1.429 -1.7336 -2.2458 -1.6726
  602SOL     OW 1804   0.552   0.053   1.292 -0.5398 -0.0843  0.1172
  602SOL    HW1 1805   0.560   0.082   1.389 -0.2924  1.2558 -1.3442
  602SOL    HW2 1806   0.540   0.136   1.236 -0.5252 -0.8008  2.3787
  603SOL     OW 1807   0.296   2.908   2.820 -0.5044  0.1925  0.4568
  603SOL    HW1 1808   0.322   2.955   2.729 -1.5986  0.8286 -0.9825
  603SOL    HW2 1809   0.241   2.826   2.798 -0.2286  0.0538 -1.1827
  604SOL     OW 1810   1.335   2.888   1.775  0.1883  0.1508  0.0525
  604SOL    HW1 1811   1.309   2.883   1.871  1.4893  1.2976 -2.6380
  604SOL    HW2 1812   1.335   2.793   1.732  2.5604 -2.2706  2.3483
  605SOL     OW 1813   1.596   1.425   1.972 -0.3982  0.2531  0.3125
  605SOL    HW1 1814   1.646   1.406   1.886  0.0556  2.8186  1.8008
  605SOL    HW2 1815   1.574   1.334   2.016  4.0473  2.2466 -0.7099
  606SOL     OW 1816   2.093   2.931   2.878 -0.1600  0.9834  0.5995
  606SOL    HW1 1817   2.119   2.937   2.976  0.8135 -1.9214 -1.4104
  606SOL    HW2 1818   2.175   2.898   2.828 -3.1243 -0.0065  3.7558
  607SOL     OW 1819   0.702   0.115   2.014  0.3034  0.5365  0.0378
  607SOL    HW1 1820   0.762   0.128   2.097  3.5194  2.5300 -0.5278
  607SOL    HW2 1821   0.755   0.143   1.932 -0.1529 -0.1948  2.1684
  608SOL     OW 1822   0.036   2.144   2.020 -0.1209 -0.1063  0.0291
  608SOL    HW1 1823   0.019   2.045   2.035  0.2720 -1.5820  0.7777
  608SOL    HW2 1824   0.113   2.156   1.955 -0.7814 -0.0501 -0.7136
  609SOL     OW 1825   1.127   1.178   0.248 -0.2350  0.3175 -0.9593
  609SOL    HW1 1826   1.212   1.149   0.295 -1.6795  2.7741 -1.0991
  609SOL    HW2 1827   1.106   1.107   0.180  2.6223  2.0940  0.9250
  610SOL     OW 1828   0.356   2.855   0.951  0.0361  0.2744 -0.3209
  610SOL    HW1 1829   0.432   2.892   0.898 -2.4483  2.3732 -1.7238
  610SOL    HW2 1830   0.368   2.876   1.051 -0.8282 -2.2215  0.5700
  611SOL     OW 1831   1.007   1.585   0.573 -0.1124 -0.2510  0.5717
  611SOL    HW1 1832   1.093   1.552   0.527 -1.5630  0.0466 -1.9192
  611SOL    HW2 1833   0.921   1.542   0.529 -1.2050 -1.0522  0.5870
  612SOL     OW 1834   2.183   2.006   0.446 -0.3291  0.4083  0.5062
  612SOL    HW1 1835   2.180   1.910   0.407  0.9025  1.8808  1.8996
  612SOL    HW2 1836   2.155   2.005   0.548  0.6886  0.8057  0.6772
  613SOL     OW 1837   1.636   1.567   0.334 -0.1252 -0.2543  0.1108
  613SOL    HW1 1838   1.647   1.654   0.378  0.2878  0.9262 -0.9560
  613SOL    HW2 1839   1.643   1.490   0.400 -2.6490 -0.5801 -0.1697
  614SOL     OW 1840   2.807   0.436   2.670  0.5032  0.2051  0.0768
  614SOL    HW1 1841   2.764   0.438   2.579  0.5307 -3.1361 -1.8783
  614SOL    HW2 1842   2.819   0.342   2.712  0.6942  0.6666  0.6651
  615SOL     OW 1843   0.647   1.698   0.473 -0.1769 -0.7420  0.5358
  615SOL    HW1 1844   0.572   1.756   0.430 -0.3930  1.1828 -2.2960
  615SOL    HW2 1845   0.680   1.733   0.569 -0.9946  0.5685  1.8084
  616SOL     OW 1846   1.517   0.949   2.673  0.1485 -0.0060 -0.3864
  616SOL    HW1 1847   1.563   1.039   2.689  1.3896  0.0363  2.7307
  616SOL    HW2 1848   1.551   0.883   2.743 -2.5117  1.7817 -0.6724
  617SOL     OW 1849   1.623   0.664   0.570 -0.1197 -0.0869  0.3787
  617SOL    HW1 1850   1.622   0.764   0.584 -1.3505  2.0956 -2.3167
  617SOL    HW2 1851   1.574   0.637   0.486 -0.4739 -1.9031  0.1622
  618SOL     OW 1852   0.032   1.766   2.283 -0.4163  0.6641  0.1525
  618SOL    HW1 1853   0.106   1.709   2.236  2.8354 -0.6765 -1.7472
  618SOL    HW2 1854   3.061   1.716   2.354 -1.8314  1.5112 -0.6029
  619SOL     OW 1855   2.441   1.786   0.774 -0.3227 -0.0714 -0.2776
  619SOL    HW1 1856   2.488   1.801   0.862  1.5711 -1.4528 -0.8517
  619SOL    HW2 1857   2.455   1.857   0.703 -0.9159  0.5278  1.5043
  620SOL     OW 1858   2.422   3.070   1.095  0.3396  0.2525  0.0447
  620SOL    HW1 1859   2.437   0.014   1.194  1.9621 -1.0330  0.9817
  620SOL    HW2 1860   2.354   0.053   1.063  0.0901  0.9316 -0.9003
  621SOL     OW 1861   0.009   1.773   0.835 -0.1473  0.4281  0.1143
  621SOL    HW1 1862   3.035   1.760   0.917  1.9453  0.0967 -2.0749
  621SOL    HW2 1863   0.025   1.870   0.821 -0.5570 -1.9497 -0.0799
  622SOL     OW 1864   0.538   1.815   1.764  0.1142  0.4001 -0.0286
  622SOL    HW1 1865   0.451   1.806   1.713 -0.6696 -0.6307  0.7227
  622SOL    HW2 1866   0.538   1.893   1.828  1.8437  2.0235 -0.2469
  623SOL     OW 1867   2.292   0.012   2.113  0.0598 -0.2906 -0.0834
  623SOL    HW1 1868   2.281   3.042   2.202  2.0350  0.2997 -0.1354
  623SOL    HW2 1869   2.389   0.017   2.088  0.4017  0.0753  0.2131
  624SOL     OW 1870   0.785   2.006   0.250 -0.4622  0.1691 -0.2643
  624SOL    HW1 1871   0.782   1.908   0.217  1.4826  0.9484  0.4089
  624SOL    HW2 1872   0.786   2.071   0.172  0.3559  0.8293 -0.8955
  625SOL     OW 1873   0.772   1.837   2.169  0.6747 -0.0735  0.3060
  625SOL    HW1 1874   0.873   1.812   2.160  1.0290 -1.9083  0.1930
  625SOL    HW2 1875   0.714   1.751   2.167 -2.0948  0.2615  0.9073
  626SOL     OW 1876   0.370   2.258   0.304  0.2203 -0.1109  0.0447
  626SOL    HW1 1877   0.466   2.267   0.329 -2.6443 -4.3996  3.7365
  626SOL    HW2 1878   0.344   2.166   0.262 -0.6225 -4.1392 -0.7229
  627SOL     OW 1879   1.412   1.659   2.468  1.4232 -0.0688 -0.8372
  627SOL    HW1 1880   1.468   1.575   2.473 -3.0023  0.5842 -0.1855
  627SOL    HW2 1881   1.319   1.640   2.425 -0.0964 -1.2457 -0.8489
  628SOL     OW 1882   1.282   1.955   0.308  0.0085  0.1990  0.4434
  628SOL    HW1 1883   1.183   1.967   0.324 -0.7187 -1.3816  1.6299
  628SOL    HW2 1884   1.318   1.920   0.397 -1.3087  2.1242  0.6229
  629SOL     OW 1885   0.873   0.471   2.016 -0.2782  0.3017  0.4200
  629SOL    HW1 1886   0.845   0.472   2.111 -3.0156  2.4134  1.6939
  629SOL    HW2 1887   0.939   0.397   2.004 -0.8260  0.5814  3.3423
  630SOL     OW 1888   2.221   2.851   1.418  0.0398 -0.2788  0.2829
  630SOL    HW1 1889   2.238   2.916   1.493  2.4949 -1.3618 -0.6369
  630SOL    HW2 1890   2.230   2.751   1.444 -1.7463 -0.8307  2.3284
  631SOL     OW 1891   1.551   0.955   0.877  0.2060 -0.5138  0.0608
  631SOL    HW1 1892   1.448   0.944   0.884  1.1088 -0.1071  0.9253
  631SOL    HW2 1893   1.601   0.897   0.949 -0.7184 -0.6828 -0.6217
  632SOL     OW 1894   2.280   0.470   2.055  0.4173 -0.2429 -0.2495
  632SOL    HW1 1895   2.220   0.401   2.101 -1.7520 -0.2886 -0.5501
  632SOL    HW2 1896   2.244   0.563   2.079 -0.4428 -0.4226 -0.8569
  633SOL     OW 1897   1.717   1.301   3.038 -0.1259  0.0406 -0.7489
  633SOL    HW1 1898   1.624   1.287   2.994 -1.3005 -1.7802 -0.4814
  633SOL    HW2 1899   1.788   1.283   2.969  1.4907 -3.0782  0.2015
  634SOL     OW 1900   0.304   2.012   0.210  0.0070  0.0056  0.1774
  634SOL    HW1 1901   0.357   1.926   0.212  1.2066 -1.0610 -2.5839
  634SOL    HW2 1902   0.236   2.019   0.134 -2.0396 -0.0739 -0.2735
  635SOL     OW 1903   2.721   1.549   2.193  0.1399 -0.1238  0.5559
  635SOL    HW1 1904   2.761   1.458   2.223  1.0153 -1.1529 -0.0498
  635SOL    HW2 1905   2.628   1.533   2.158  3.3388 -1.2170  0.3795
  636SOL     OW 1906   0.267   1.850   2.726 -0.2633  0.2081 -0.2612
  636SOL    HW1 1907   0.226   1.758   2.744  2.4947 -0.6662  1.5694
  636SOL    HW2 1908   0.338   1.843   2.654 -0.0251  2.9014 -0.3683
  637SOL     OW 1909   0.116   1.936   0.379 -0.1503  0.1105  0.2376
  637SOL    HW1 1910   0.200   1.976   0.337 -0.0308  0.2583 -0.1676
  637SOL    HW2 1911   0.134   1.904   0.473 -2.2214 -0.8608  2.4168
  638SOL     OW 1912   2.469   2.421   0.533 -0.2591  0.6294  0.0628
  638SOL    HW1 1913   2.492   2.505   0.584  0.5368  0.3353  0.9738
  638SOL    HW2 1914   2.402   2.450   0.461  0.8411 -0.3170  0.8593
  639SOL     OW 1915   0.858   0.796   0.196 -0.1954 -0.1957  1.2823
  639SOL    HW1 1916   0.935   0.845   0.146 -2.1475  0.2027 -0.0334
  639SOL    HW2 1917   0.809   0.732   0.136 -0.3840 -0.8482  2.1095
  640SOL     OW 1918   2.433   2.332   1.892  0.7277 -0.1896 -0.1209
  640SOL    HW1 1919   2.528   2.359   1.922  0.5385  1.2074  0.4360
  640SOL    HW2 1920   2.411   2.353   1.792 -4.8670  4.1590 -0.8199
  641SOL     OW 1921   2.428   2.798   1.193  0.1159 -0.3294 -0.2465
  641SOL    HW1 1922   2.458   2.874   1.137 -0.7976 -0.2520  1.4320
  641SOL    HW2 1923   2.351   2.826   1.254 -2.0159  0.4592  1.8013
  642SOL     OW 1924   0.851   1.033   1.646  0.3742  0.0140 -0.3831
  642SOL    HW1 1925   0.810   0.941   1.631  1.1221 -1.3889  2.3493
  642SOL    HW2 1926   0.927   1.054   1.582 -3.1564  1.1379 -0.4026
  643SOL     OW 1927   0.820   1.346   2.067 -0.1410  0.0515 -0.4123
  643SOL    HW1 1928   0.767   1.294   2.134  0.7494 -2.1455 -2.3233
  643SOL    HW2 1929   0.851   1.291   1.985 -0.6140  0.2985  1.1402
  644SOL     OW 1930   0.913   0.143   2.254  0.1009  0.1504  0.2783
  644SOL    HW1 1931   0.944   0.240   2.260  0.6836 -0.3437  0.6228
  644SOL    HW2 1932   0.969   0.087   2.190  0.2352  0.8877  2.8539
  645SOL     OW 1933   1.929   1.260   1.438  0.0028  0.0576 -0.1370
  645SOL    HW1 1934   1.828   1.240   1.445  2.3047  2.4023  0.6613
  645SOL    HW2 1935   1.947   1.360   1.465 -1.4512  0.4075  0.4318
  646SOL     OW 1936   1.761   2.335   0.119  0.3778 -1.0451 -0.0728
  646SOL    HW1 1937   1.730   2.371   0.026 -1.1927  0.4483 -1.6153
  646SOL    HW2 1938   1.721   2.243   0.134  0.1260  1.2914 -1.0140
  647SOL     OW 1939   1.688   2.701   0.604  0.2282  0.0747 -0.5578
  647SOL    HW1 1940   1.758   2.659   0.666  0.1473  0.8681 -0.4772
  647SOL    HW2 1941   1.657   2.641   0.529 -1.2531  2.1138  2.0674
  648SOL     OW 1942   0.368   2.497   1.222  0.0277 -0.0256  0.3859
  648SOL    HW1 1943   0.307   2.556   1.276  0.6352 -3.3199  1.4523
  648SOL    HW2 1944   0.317   2.455   1.142 -2.1696 -1.3229  0.2409
  649SOL     OW 1945   1.216   2.467   3.007  0.0500  0.3103  0.3926
  649SOL    HW1 1946   1.259   2.385   3.049  0.6178  0.6398 -0.6781
  649SOL    HW2 1947   1.176   2.526   3.078 -0.1158  0.1739 -2.5711
  650SOL     OW 1948   2.741   1.550   3.036 -0.2475  0.5604 -0.0999
  650SOL    HW1 1949   2.685   1.467   3.044  0.6696  0.6789 -1.2314
  650SOL    HW2 1950   2.830   1.547   0.008  3.8734 -0.5513  0.4719
  651SOL     OW 1951   2.357   2.290   2.304  0.1800 -0.1419  0.5563
  651SOL    HW1 1952   2.451   2.281   2.273 -4.4302 -0.5256 -1.1734
  651SOL    HW2 1953   2.342   2.265   2.403  0.4621 -1.4259  2.5939
  652SOL     OW 1954   2.756   2.362   0.426 -0.0431  0.5284  0.3136
  652SOL    HW1 1955   2.665   2.387   0.467 -1.3782 -0.6951 -1.1252
  652SOL    HW2 1956   2.764   2.261   0.409  0.4012  1.2956  2.5942
  653SOL     OW 1957   2.299   1.935   1.343  0.7933  0.4429  0.1370
  653SOL    HW1 1958   2.343   1.916   1.252  1.1227 -1.2315  0.1229
  653SOL    HW2 1959   2.360   1.885   1.413  1.8203 -1.3036  2.0320
  654SOL     OW 1960   0.914   1.111   0.391 -0.0533 -0.2129 -0.7813
  654SOL    HW1 1961   0.930   1.009   0.413  0.5132 -3.7967 -0.0330
  654SOL    HW2 1962   0.983   1.136   0.318  3.2717 -0.6440 -0.8293
  655SOL     OW 1963   1.507   1.345   0.752 -0.3587  0.2622 -0.0148
  655SOL    HW1 1964   1.557   1.351   0.667 -3.3076  0.4659  0.6867
  655SOL    HW2 1965   1.406   1.363   0.736 -2.8714  0.8833 -0.7999
  656SOL     OW 1966   1.350   2.617   2.134  0.0926 -0.1539  0.0292
  656SOL    HW1 1967   1.292   2.675   2.199 -1.8432 -0.1028  2.5599
  656SOL    HW2 1968   1.408   2.559   2.195 -0.1836  1.0139 -2.4905
  657SOL     OW 1969   2.069   1.290   0.683  0.4119 -0.1637  0.3659
  657SOL    HW1 1970   2.017   1.208   0.715 -1.2611 -0.1871 -1.2345
  657SOL    HW2 1971   2.115   1.270   0.597 -2.7372 -3.7976 -0.9060
  658SOL     OW 1972   1.999   0.139   1.754  0.3152 -0.7190  0.2532
  658SOL    HW1 1973   2.080   0.105   1.812 -0.8913  0.0166 -0.0186
  658SOL    HW2 1974   1.984   0.078   1.673  1.2297  0.0319 -0.5754
  659SOL     OW 1975   2.816   1.473   0.323 -0.1711  0.9730 -0.8239
  659SOL    HW1 1976   2.833   1.516   0.236  2.2702  0.0907  0.4731
  659SOL    HW2 1977   2.854   1.533   0.395 -0.5602 -1.7191  1.5895
  660SOL     OW 1978   1.101   0.290   0.860 -0.4960  0.0081 -0.0153
  660SOL    HW1 1979   1.058   0.267   0.948 -3.4464  0.0463 -2.0569
  660SOL    HW2 1980   1.189   0.334   0.877 -3.7549  1.3552  2.6756
  661SOL     OW 1981   1.740   0.608   0.043 -0.2916 -0.1803  0.6886
  661SOL    HW1 1982   1.801   0.593   0.126  1.8023  0.9761  1.0694
  661SOL    HW2 1983   1.787   0.668   3.056  0.4224  2.0143 -1.4344
  662SOL     OW 1984   0.427   3.045   0.337 -0.8822  0.1415 -0.5755
  662SOL    HW1 1985   0.513   3.081   0.385 -0.1823  1.1692 -0.2512
  662SOL    HW2 1986   0.450   2.949   0.314 -0.0828 -1.1795 -2.2157
  663SOL     OW 1987   1.395   2.529   2.823  0.3227  0.0960 -0.2951
  663SOL    HW1 1988   1.305   2.512   2.879  1.8897 -0.3180  0.3532
  663SOL    HW2 1989   1.434   2.439   2.803  2.0366 -1.1342  1.7363
  664SOL     OW 1990   0.571   2.708   1.227 -0.6105  0.3312 -0.3166
  664SOL    HW1 1991   0.496   2.640   1.246 -0.7187  2.5032 -0.9073
  664SOL    HW2 1992   0.618   2.679   1.142  0.9659  0.7569 -0.3978
  665SOL     OW 1993   1.526   2.875   1.068 -0.2901 -0.6206  0.4325
  665SOL    HW1 1994   1.537   2.832   0.974 -0.0520  0.8405 -1.3274
  665SOL    HW2 1995   1.617   2.879   1.115  3.1063 -0.5097  0.1436
  666SOL     OW 1996   0.865   2.206   2.783  0.0111  0.1583 -0.5183
  666SOL    HW1 1997   0.889   2.273   2.854 -0.4295  0.1733  0.5053
  666SOL    HW2 1998   0.847   2.116   2.828 -0.7048  0.0814 -1.3999
  667SOL     OW 1999   2.773   0.667   1.496  0.2252 -0.1076  0.0283
  667SOL    HW1 2000   2.718   0.644   1.577 -0.3840 -2.8553 -2.1686
  667SOL    HW2 2001   2.867   0.639   1.522 -1.0600 -0.8844 -0.2623
  668SOL     OW 2002   1.154   0.405   1.696  0.8796 -0.0172 -0.2892
  668SOL    HW1 2003   1.072   0.459   1.670  3.3797  0.2400 -1.4008
  668SOL    HW2 2004   1.161   0.381   1.798  0.1327  1.5972  2.4761
  669SOL     OW 2005   1.369   2.712   1.239 -0.4796  0.2412 -0.3520
  669SOL    HW1 2006   1.332   2.775   1.312 -0.7520  0.3385  0.5834
  669SOL    HW2 2007   1.436   2.757   1.178 -1.3418  1.8447  1.7095
  670SOL     OW 2008   1.662   2.388   2.958 -0.0912 -0.3509  0.0416
  670SOL    HW1 2009   1.600   2.321   2.916 -1.0585 -0.5173 -0.8626
  670SOL    HW2 2010   1.676   2.467   2.890  0.4495  3.8798  0.6545
  671SOL     OW 2011   0.455   1.312   2.878  0.1283 -0.3866  0.2675
  671SOL    HW1 2012   0.422   1.307   2.781 -1.4633 -1.0698 -0.8267
  671SOL    HW2 2013   0.557   1.306   2.887  0.4637  0.5460  0.2364
  672SOL     OW 2014   2.435   0.457   2.824  0.6118  0.3838  0.0031
  672SOL    HW1 2015   2.467   0.551   2.853 -0.5378  1.6713 -0.2291
  672SOL    HW2 2016   2.461   0.439   2.727  0.3863  2.1241  0.3508
  673SOL     OW 2017   3.001   1.953   1.260 -0.1955 -0.0897 -0.1943
  673SOL    HW1 2018   2.999   1.958   1.364  2.8670  0.5442 -0.1295
  673SOL    HW2 2019   3.056   2.032   1.228  1.4170 -0.0227 -0.0619
  674SOL     OW 2020   1.373   2.103   1.604  0.3600  0.3314  0.0348
  674SOL    HW1 2021   1.331   2.059   1.686 -3.6531  1.2541 -1.4858
  674SOL    HW2 2022   1.392   2.032   1.535  0.9540  0.8979  0.2209
  675SOL     OW 2023   1.206   1.332   1.205  0.1141  0.0787 -0.3550
  675SOL    HW1 2024   1.240   1.415   1.153 -0.4070  1.6891 -2.3377
  675SOL    HW2 2025   1.266   1.254   1.201 -1.7192  1.0434 -0.6096
  676SOL     OW 2026   2.430   0.712   0.874  0.0532  0.0719 -0.0017
  676SOL    HW1 2027   2.453   0.809   0.868 -0.6027 -1.9392 -1.9949
  676SOL    HW2 2028   2.400   0.694   0.971  1.3678 -1.5193 -0.5691
  677SOL     OW 2029   2.505   0.400   0.426  0.4759  0.8342 -0.2355
  677SOL    HW1 2030   2.599   0.386   0.473 -0.4034  2.0072  0.9429
  677SOL    HW2 2031   2.518   0.444   0.334 -2.4440 -0.6189  0.9742
  678SOL     OW 2032   2.542   1.104   1.123 -0.0643 -0.4236 -0.2220
  678SOL    HW1 2033   2.489   1.191   1.100  0.0702  2.7418  1.2991
  678SOL    HW2 2034   2.627   1.133   1.169 -0.4033  0.9325 -0.2120
  679SOL     OW 2035   2.575   0.551   0.217  0.3576  0.0246  0.0845
  679SOL    HW1 2036   2.547   0.650   0.218 -3.0422  1.7121  1.9390
  679SOL    HW2 2037   2.664   0.534   0.170  0.8754 -0.8536  3.2411
  680SOL     OW 2038   0.650   1.584   2.159 -0.3687 -0.2836 -0.0416
  680SOL    HW1 2039   0.696   1.492   2.157  0.5679 -2.8569  2.9537
  680SOL    HW2 2040   0.587   1.589   2.238 -0.5417  0.6625 -0.9486
  681SOL     OW 2041   2.541   2.294   1.590  0.3502  0.2886 -0.0754
  681SOL    HW1 2042   2.504   2.382   1.549  0.4994  0.3713  0.8970
  681SOL    HW2 2043   2.475   2.219   1.592  0.9719  0.0552  1.4802
  682SOL     OW 2044   0.591   1.703   2.411 -0.2581 -0.9561  0.0299
  682SOL    HW1 2045   0.668   1.737   2.468  1.0589 -0.8228  1.7161
  682SOL    HW2 2046   0.504   1.757   2.416 -1.8252 -0.0140 -0.3231
  683SOL     OW 2047   2.642   1.938   1.261 -0.3095  0.0622 -0.0153
  683SOL    HW1 2048   2.683   1.901   1.176  0.0145 -1.2351  0.4690
  683SOL    HW2 2049   2.666   2.034   1.280  2.8630  0.8977  1.8462
  684SOL     OW 2050   2.624   1.500   1.913  0.3001  0.1190 -0.0948
  684SOL    HW1 2051   2.567   1.479   1.991  0.4731 -0.4516 -1.7498
  684SOL    HW2 2052   2.649   1.426   1.853 -0.4873  0.4314 -1.2112
  685SOL     OW 2053   0.902   0.967   0.988 -0.4601 -0.5363  0.8085
  685SOL    HW1 2054   0.941   1.039   0.929  1.3532  0.1582  1.8004
  685SOL    HW2 2055   0.826   1.005   1.046 -1.0893  2.1332  1.7501
  686SOL     OW 2056   0.571   2.941   2.691 -0.1123  0.6300 -0.3122
  686SOL    HW1 2057   0.630   2.989   2.760 -2.7360  0.4796  1.4387
  686SOL    HW2 2058   0.502   3.012   2.657 -1.5221  1.2644 -1.0661
  687SOL     OW 2059   0.635   1.961   1.972  0.5919 -0.3305 -0.2927
  687SOL    HW1 2060   0.705   1.986   1.903 -0.4824  2.4101  0.9701
  687SOL    HW2 2061   0.676   1.918   2.051 -1.4114  1.7951 -3.2892
  688SOL     OW 2062   2.099   0.528   1.521 -0.6608 -0.0971  0.8444
  688SOL    HW1 2063   1.998   0.555   1.533 -0.8548  1.1819 -0.1057
  688SOL    HW2 2064   2.158   0.606   1.492  0.6668 -0.5372 -2.6270
  689SOL     OW 2065   1.982   0.817   0.833  0.3288  0.4357 -0.1505
  689SOL    HW1 2066   1.995   0.822   0.932  2.1222  0.6941 -2.5415
  689SOL    HW2 2067   2.030   0.737   0.799 -1.3703  2.5214  1.6780
  690SOL     OW 2068   2.851   0.909   1.330 -0.0857  0.0726  0.0988
  690SOL    HW1 2069   2.887   0.883   1.235  2.4879  1.0027 -3.2183
  690SOL    HW2 2070   2.817   0.829   1.379  0.6603  0.0756  0.5458
  691SOL     OW 2071   3.036   0.873   2.147  0.9549 -0.7115 -0.2666
  691SOL    HW1 2072   2.983   0.952   2.102  1.1186 -1.0397 -0.7353
  691SOL    HW2 2073   3.042   0.787   2.100  1.7916  3.9766  3.2178
  692SOL     OW 2074   0.650   1.072   2.045 -0.0571  0.0511  0.4145
  692SOL    HW1 2075   0.641   1.120   2.131  0.9714 -3.0342  0.6326
  692SOL    HW2 2076   0.747   1.058   2.017  2.2579 -2.6654 -1.4463
  693SOL     OW 2077   0.464   1.176   1.872  0.2391 -0.0842  0.5118
  693SOL    HW1 2078   0.543   1.147   1.932 -1.1163  2.2066 -0.6619
  693SOL    HW2 2079   0.381   1.203   1.924  1.4526 -1.3382  0.1980
  694SOL     OW 2080   1.481   1.772   0.769 -0.3050 -0.4933  0.3996
  694SOL    HW1 2081   1.566   1.725   0.741 -1.3648 -0.6456 -0.1240
  694SOL    HW2 2082   1.488   1.805   0.861  1.4940  0.5224  0.2834
  695SOL     OW 2083   0.073   1.005   1.093  0.2855  0.0456  0.2601
  695SOL    HW1 2084   0.108   1.052   1.013 -0.6995  0.0601  1.7317
  695SOL    HW2 2085   0.002   0.940   1.068  0.2482  2.5891  1.1119
  696SOL     OW 2086   0.722   2.288   0.660  0.2960  0.4952  0.0411
  696SOL    HW1 2087   0.682   2.369   0.707 -0.2265  0.8664 -0.2797
  696SOL    HW2 2088   0.820   2.304   0.653 -0.7758 -0.2297 -0.0650
  697SOL     OW 2089   1.283   0.792   1.587  0.8075 -0.0512  0.0623
  697SOL    HW1 2090   1.305   0.894   1.595 -1.4389  1.0676 -1.0562
  697SOL    HW2 2091   1.220   0.779   1.505  1.0350 -0.7575 -3.1682
  698SOL     OW 2092   1.821   1.601   1.636  0.5390 -0.0005 -0.4942
  698SOL    HW1 2093   1.809   1.682   1.694 -1.2549  2.3106 -1.6075
  698SOL    HW2 2094   1.815   1.629   1.540 -1.3372  1.9874  2.8724
  699SOL     OW 2095   0.360   0.466   2.547  0.2776 -0.1114  0.1171
  699SOL    HW1 2096   0.319   0.400   2.486 -0.3982  0.3264  0.9335
  699SOL    HW2 2097   0.332   0.561   2.524  1.8567  0.4679 -1.7478
  700SOL     OW 2098   1.588   2.384   0.560  0.2554  0.0575 -0.1251
  700SOL    HW1 2099   1.614   2.463   0.503 -1.6368 -0.9155 -2.7846
  700SOL    HW2 2100   1.488   2.360   0.546  0.6285 -2.5703 -2.6483
  701SOL     OW 2101   0.124   1.392   2.312  0.0487  0.0609 -0.0149
  701SOL    HW1 2102   0.137   1.421   2.408  0.1118  0.4621 -1.8465
  701SOL    HW2 2103   0.123   1.292   2.309 -1.1537 -1.9446  0.7627
  702SOL     OW 2104   0.617   0.142   2.937  0.1234  0.2474 -0.1141
  702SOL    HW1 2105   0.718   0.157   2.930  1.5610 -3.3599  1.8198
  702SOL    HW2 2106   0.580   0.167   3.029 -0.4878 -2.2488 -0.0815
  703SOL     OW 2107   1.511   0.529   2.784  0.1759  0.0372  0.3256
  703SOL    HW1 2108   1.591   0.466   2.811 -0.8896 -0.3931  2.0565
  703SOL    HW2 2109   1.471   0.502   2.691  1.6937  0.1476 -1.1653
  704SOL     OW 2110   2.743   1.496   0.970 -0.1840 -0.1167 -0.7640
  704SOL    HW1 2111   2.673   1.537   1.036 -2.5289 -2.7015 -0.1081
  704SOL    HW2 2112   2.815   1.445   1.027  0.6273  0.2495  2.2698
  705SOL     OW 2113   2.473   2.059   1.939  0.2182  0.1826 -0.4990
  705SOL    HW1 2114   2.461   2.160   1.911 -0.1239  2.1688  1.5640
  705SOL    HW2 2115   2.426   2.001   1.870  0.0472  1.3305  0.0671
  706SOL     OW 2116   0.016   2.488   0.929  0.5293 -0.5502 -0.3672
  706SOL    HW1 2117   0.063   2.542   0.860 -0.4165  0.5506  1.4297
  706SOL    HW2 2118   3.006   2.457   0.900  0.5026 -0.4566 -0.5186
  707SOL     OW 2119   1.134   2.819   0.219  0.3039 -0.1474  0.2458
  707SOL    HW1 2120   1.211   2.885   0.196  2.8285 -0.2486 -1.1634
  707SOL    HW2 2121   1.065   2.867   0.282  1.5354  0.5307  2.1032
  708SOL     OW 2122   0.729   2.208   1.558 -0.0516  0.0088  0.2457
  708SOL    HW1 2123   0.807   2.253   1.510 -0.1922  1.1473 -1.9154
  708SOL    HW2 2124   0.655   2.275   1.565  2.1927 -0.0242  1.1805
  709SOL     OW 2125   2.051   0.369   2.526  0.2021 -0.8711  0.4492
  709SOL    HW1 2126   1.966   0.424   2.516 -0.8289 -0.9115  0.7227
  709SOL    HW2 2127   2.096   0.382   2.615  0.9828 -0.9389 -0.9058
  710SOL     OW 2128   0.994   2.765   2.622 -0.2812  0.2424  0.0834
  710SOL    HW1 2129   1.030   2.852   2.584 -0.1718 -0.2760  0.9256
  710SOL    HW2 2130   1.027   2.757   2.717  1.3970 -2.1837 -1.6587
  711SOL     OW 2131   1.054   2.296   2.631 -0.4205 -0.8765 -0.3734
  711SOL    HW1 2132   1.008   2.359   2.564 -1.2118  0.1977  0.3270
  711SOL    HW2 2133   0.984   2.254   2.692 -2.5825  0.2003  1.4121
  712SOL     OW 2134   1.153   1.915   2.718  0.0340  0.3494 -0.1439
  712SOL    HW1 2135   1.089   1.913   2.637  3.3863 -1.2768  0.9597
  712SOL    HW2 2136   1.133   1.840   2.788 -0.0162 -0.9833  3.1612
  713SOL     OW 2137   0.900   0.996   1.927  1.0553  0.5151 -0.0070
  713SOL    HW1 2138   0.907   1.019   1.828 -2.2916  0.1421 -1.5437
  713SOL    HW2 2139   0.907   0.896   1.940  0.5217  0.6637  1.3572
  714SOL     OW 2140   1.494   1.907   1.020  0.2001 -0.2864  0.6602
  714SOL    HW1 2141   1.537   1.982   1.072  2.3884 -3.3839 -0.0053
  714SOL    HW2 2142   1.445   1.845   1.082 -0.0111 -0.8961  1.1483
  715SOL     OW 2143   0.140   0.500   0.578  0.0437  0.2625 -0.3793
  715SOL    HW1 2144   0.109   0.407   0.595  2.1246  2.1934 -1.1023
  715SOL    HW2 2145   0.129   0.523   0.482 -0.1681  1.4228  3.1364
  716SOL     OW 2146   0.831   2.501   0.415 -0.2953  0.2225 -0.2734
  716SOL    HW1 2147   0.839   2.603   0.423 -0.5631  1.1014 -1.8451
  716SOL    HW2 2148   0.921   2.458   0.438  1.0639  0.5552 -0.0555
  717SOL     OW 2149   0.223   0.221   0.364  0.3619  0.3523 -0.0970
  717SOL    HW1 2150   0.191   0.126   0.342 -1.3437 -0.2027 -0.6926
  717SOL    HW2 2151   0.326   0.227   0.373  0.7883 -0.0577  0.2702
  718SOL     OW 2152   1.569   2.120   1.153 -0.1288  0.0506 -0.0548
  718SOL    HW1 2153   1.500   2.167   1.210  0.5141  0.8766 -3.1887
  718SOL    HW2 2154   1.661   2.137   1.185 -1.9963  2.1194  1.0262
  719SOL     OW 2155   2.866   2.384   0.833 -0.9442 -0.0580 -0.4899
  719SOL    HW1 2156   2.810   2.316   0.889 -2.1629 -1.9747  3.3543
  719SOL    HW2 2157   2.848   2.360   0.734 -3.1744 -1.2153 -0.8751
  720SOL     OW 2158   1.111   1.162   0.950  0.5176  0.0696  0.2318
  720SOL    HW1 2159   1.092   1.257   0.919 -1.4441 -1.1367  0.4503
  720SOL    HW2 2160   1.131   1.149   1.046  1.0934  0.9268 -2.1767
  721SOL     OW 2161   0.912   0.590   1.089  0.0648  0.0484 -0.4186
  721SOL    HW1 2162   0.828   0.612   1.031 -1.5504  0.5820  0.2908
  721SOL    HW2 2163   0.904   0.492   1.117  1.7250  0.8329  0.7864
  722SOL     OW 2164   1.046   1.066   1.465 -0.3111  0.3174  0.3023
  722SOL    HW1 2165   1.139   1.074   1.504 -0.1801 -0.1739  0.7629
  722SOL    HW2 2166   1.056   1.027   1.367  0.2923 -0.3544 -3.5950
  723SOL     OW 2167   0.890   0.123   1.487 -0.0975  0.3464 -0.2096
  723SOL    HW1 2168   0.832   0.203   1.469  1.8176 -1.2225  0.9021
  723SOL    HW2 2169   0.823   0.064   1.541 -2.8129 -2.4685  2.5256
  724SOL     OW 2170   1.825   2.222   1.849  0.3491 -0.0442  0.0581
  724SOL    HW1 2171   1.874   2.135   1.875 -0.5315  2.0807  4.8943
  724SOL    HW2 2172   1.767   2.203   1.767 -1.0548  0.2570  0.9922
  725SOL     OW 2173   0.982   2.801   1.376  0.0252 -0.4237 -0.1383
  725SOL    HW1 2174   1.031   2.723   1.336  0.2748  2.1059 -1.3505
  725SOL    HW2 2175   0.889   2.780   1.405  3.1500  0.6496 -1.8284
  726SOL     OW 2176   1.459   0.647   0.330  0.5465  0.3284  0.8184
  726SOL    HW1 2177   1.363   0.679   0.332  1.8880 -0.9560  0.9861
  726SOL    HW2 2178   1.466   0.577   0.255  0.2370 -2.8048  1.4245
  727SOL     OW 2179   1.368   2.086   0.838  0.0367  0.0753 -0.3389
  727SOL    HW1 2180   1.449   2.152   0.831  2.5427  1.3240  0.2042
  727SOL    HW2 2181   1.402   1.996   0.878  0.5241 -0.3947  1.6727
  728SOL     OW 2182   1.682   0.259   2.444 -0.2947 -0.0074 -0.3428
  728SOL    HW1 2183   1.625   0.214   2.515  0.0897  1.1386  1.7223
  728SOL    HW2 2184   1.772   0.215   2.441 -0.3021  1.0883  0.5150
  729SOL     OW 2185   2.461   1.331   1.065 -0.5450 -0.4544  0.7329
  729SOL    HW1 2186   2.418   1.353   0.973  0.4750 -2.8080 -1.7235
  729SOL    HW2 2187   2.524   1.403   1.102  1.4868  0.8498  1.5230
  730SOL     OW 2188   2.149   0.920   2.677 -0.3996 -0.7079 -0.0907
  730SOL    HW1 2189   2.186   0.994   2.615 -1.0913 -1.0858 -2.4371
  730SOL    HW2 2190   2.053   0.945   2.690  2.9687  1.7775 -0.2643
  731SOL     OW 2191   0.344   0.101   1.672 -0.1991 -0.5219 -0.0283
  731SOL    HW1 2192   0.436   0.123   1.636  0.7149  1.2811  1.1900
  731SOL    HW2 2193   0.330   0.000   1.661  1.0162 -2.0472 -0.6468
  732SOL     OW 2194   1.730   0.466   1.236  0.0781  0.4398  0.1136
  732SOL    HW1 2195   1.699   0.556   1.256 -0.2320  1.3304  1.1319
  732SOL    HW2 2196   1.765   0.464   1.141 -0.0965 -2.1180 -0.9199
  733SOL     OW 2197   0.888   1.270   1.795  0.2318  0.1665  0.5910
  733SOL    HW1 2198   0.946   1.332   1.741 -0.5797  0.9242 -2.6810
  733SOL    HW2 2199   0.872   1.179   1.741 -1.3559 -2.0012 -1.1068
  734SOL     OW 2200   2.553   1.769   0.293  0.5994 -0.4940 -0.7116
  734SOL    HW1 2201   2.479   1.722   0.239  0.9788  1.2417  3.3454
  734SOL    HW2 2202   2.514   1.858   0.331 -0.6281  0.4544  2.2756
  735SOL     OW 2203   0.649   1.020   0.169  0.6546 -0.1049  0.0668
  735SOL    HW1 2204   0.604   1.079   0.234  1.7160 -0.1362 -1.3285
  735SOL    HW2 2205   0.730   0.969   0.200 -0.0577 -0.1198 -0.8383
  736SOL     OW 2206   1.691   2.838   3.074  0.0908  0.4996  0.2759
  736SOL    HW1 2207   1.786   2.801   3.070  1.3860 -0.0631  1.1609
  736SOL    HW2 2208   1.619   2.765   3.081  3.2648  0.0644 -0.3315
  737SOL     OW 2209   1.161   2.077   1.008  0.2683 -0.1057 -0.4261
  737SOL    HW1 2210   1.187   2.017   1.086  0.7148 -0.8477  0.7671
  737SOL    HW2 2211   1.232   2.089   0.940 -3.4054  1.8460 -0.7681
  738SOL     OW 2212   1.969   0.101   2.575  0.6798  0.3325 -0.4408
  738SOL    HW1 2213   1.992   0.198   2.571 -3.0440 -0.7003 -4.4745
  738SOL    HW2 2214   1.995   0.062   2.485  1.6051 -0.2331  2.0719
  739SOL     OW 2215   1.758   2.285   2.614 -0.0978 -0.4898 -0.7187
  739SOL    HW1 2216   1.762   2.218   2.535  1.8972  2.5905 -2.7065
  739SOL    HW2 2217   1.828   2.360   2.596 -1.4914 -1.6618 -0.8266
  740SOL     OW 2218   1.757   2.447   2.000  0.2348 -0.2536  0.2079
  740SOL    HW1 2219   1.729   2.520   1.935  2.6396 -0.4729  1.2642
  740SOL    HW2 2220   1.779   2.363   1.946 -0.6069  0.3663 -0.1742
  741SOL     OW 2221   2.313   2.037   2.510 -0.2116  0.1232 -0.5381
  741SOL    HW1 2222   2.255   2.013   2.589 -1.9497  0.2630  0.8904
  741SOL    HW2 2223   2.383   2.116   2.531  0.7932 -1.7941  4.4339
  742SOL     OW 2224   1.211   1.456   2.689  0.0949  0.4361 -0.5585
  742SOL    HW1 2225   1.296   1.408   2.656 -0.4655 -2.2157  0.7358
  742SOL    HW2 2226   1.183   1.520   2.620  1.7558 -0.5784  1.2023
  743SOL     OW 2227   1.476   1.397   2.725  0.6552 -0.3513 -0.1605
  743SOL    HW1 2228   1.443   1.356   2.811 -1.0770 -0.2267 -3.2089
  743SOL    HW2 2229   1.523   1.490   2.741 -0.7239 -0.5365  1.7310
  744SOL     OW 2230   2.070   2.915   1.193 -0.1879  0.4483  0.4859
  744SOL    HW1 2231   2.107   2.896   1.287  3.7075  0.8193  0.2619
  744SOL    HW2 2232   2.112   2.856   1.120  1.8312 -1.9662 -1.8493
  745SOL     OW 2233   2.730   0.972   0.731 -0.0000  0.6447 -0.3712
  745SOL    HW1 2234   2.639   0.978   0.782 -3.0365  0.3545  2.2967
  745SOL    HW2 2235   2.776   1.064   0.749  0.5772  1.8383  1.1378
  746SOL     OW 2236   2.434   1.801   1.064 -0.6814  0.4455 -0.0490
  746SOL    HW1 2237   2.332   1.797   1.059  1.6668  0.4780  0.8242
  746SOL    HW2 2238   2.473   1.896   1.066 -0.9574  0.4739  0.5989
  747SOL     OW 2239   1.618   0.213   0.117 -0.0654 -0.1048  0.1210
  747SOL    HW1 2240   1.684   0.232   0.190 -4.5189  2.1102  1.2029
  747SOL    HW2 2241   1.650   0.153   0.044  0.7892  2.6323 -0.7768
  748SOL     OW 2242   0.834   1.276   0.061  0.0609 -0.6515 -0.1097
  748SOL    HW1 2243   0.808   1.271   3.045  1.9630 -0.8471  1.7733
  748SOL    HW2 2244   0.778   1.219   0.118 -1.0700  1.4540 -1.6569
  749SOL     OW 2245   2.848   0.560   2.172  0.1757  0.3985  0.1348
  749SOL    HW1 2246   2.795   0.531   2.256  0.4278  1.5824  3.6708
  749SOL    HW2 2247   2.873   0.658   2.185  1.2185 -0.1179 -1.4047
  750SOL     OW 2248   0.973   0.724   1.942 -0.2403  0.6437 -0.0506
  750SOL    HW1 2249   0.938   0.630   1.941  2.5343  1.3391  0.6974
  750SOL    HW2 2250   1.054   0.724   2.007 -0.2350  0.2368 -1.4706
  751SOL     OW 2251   2.224   2.527   1.968  0.0602  0.1114  0.6699
  751SOL    HW1 2252   2.254   2.437   1.935  0.9537 -2.7866 -0.7983
  751SOL    HW2 2253   2.261   2.590   1.897  0.2966 -3.4087  3.0792
  752SOL     OW 2254   1.884   1.510   1.043  0.3771  0.1790  0.0263
  752SOL    HW1 2255   1.925   1.568   1.116 -0.7585  0.0023  0.2927
  752SOL    HW2 2256   1.934   1.514   0.953 -0.3724 -1.8942 -0.2330
  753SOL     OW 2257   1.046   1.061   2.130  0.1370 -0.0279  0.3770
  753SOL    HW1 2258   0.994   1.037   2.045 -2.1850 -2.2196  0.1787
  753SOL    HW2 2259   1.125   0.997   2.145 -0.3462 -3.6282 -2.5405
  754SOL     OW 2260   0.619   2.549   0.760  0.0645 -0.0316  0.4000
  754SOL    HW1 2261   0.608   2.612   0.678  2.4294  0.6972 -1.4222
  754SOL    HW2 2262   0.659   2.614   0.828 -0.5118  3.5842  0.9540
  755SOL     OW 2263   2.642   0.088   0.944  0.1054 -0.9082 -0.3021
  755SOL    HW1 2264   2.582   0.136   0.874  0.9567  3.1429 -0.4233
  755SOL    HW2 2265   2.585   0.012   0.985  0.1387 -0.5715  0.7133
  756SOL     OW 2266   2.135   1.975   2.314 -0.1807 -0.0207  0.4474
  756SOL    HW1 2267   2.187   1.979   2.396 -1.1410 -0.4170 -1.9274
  756SOL    HW2 2268   2.193   2.002   2.234  0.0984 -0.0006 -1.7771
  757SOL     OW 2269   2.773   0.012   1.733 -0.2966 -0.0977  0.3207
  757SOL    HW1 2270   2.836   3.074   1.657  1.2693  0.7071 -0.3170
  757SOL    HW2 2271   2.815   0.091   1.784  0.8719 -1.7257 -0.5625
  758SOL     OW 2272   0.417   2.342   0.806 -0.3662  0.6456 -0.0291
  758SOL    HW1 2273   0.371   2.312   0.720 -1.3485 -0.9505  0.2917
  758SOL    HW2 2274   0.491   2.411   0.787  2.4912 -1.4430 -0.2122
  759SOL     OW 2275   2.062   1.050   1.076 -0.0210  0.2483 -0.0541
  759SOL    HW1 2276   1.997   1.128   1.074 -1.7456 -0.5776  0.0637
  759SOL    HW2 2277   2.136   1.063   1.145 -2.3317 -1.0348 -2.9586
  760SOL     OW 2278   1.351   0.528   1.570 -0.1557  1.0011  0.2586
  760SOL    HW1 2279   1.287   0.475   1.630  1.9879  1.3096 -0.2500
  760SOL    HW2 2280   1.327   0.627   1.585 -1.4751 -1.7630 -1.7204
  761SOL     OW 2281   2.265   0.193   1.052 -0.3278 -0.3592 -0.0922
  761SOL    HW1 2282   2.255   0.293   1.033 -1.9406  1.0451 -0.6965
  761SOL    HW2 2283   2.193   0.140   1.010 -0.8396  1.5904  1.3108
  762SOL     OW 2284   1.681   0.118   0.576  0.5304  0.2001 -0.9082
  762SOL    HW1 2285   1.781   0.145   0.578 -0.9453 -0.4859  0.6271
  762SOL    HW2 2286   1.676   0.030   0.523 -0.3342  1.6283 -0.5604
  763SOL     OW 2287   0.775   0.352   1.429  0.1025 -0.5480  0.4676
  763SOL    HW1 2288   0.817   0.426   1.485 -4.1809  4.8879 -0.3893
  763SOL    HW2 2289   0.789   0.367   1.323 -1.4885  1.7364 -3.2848
  764SOL     OW 2290   2.361   2.537   2.202 -0.4066 -0.1320  0.6616
  764SOL    HW1 2291   2.365   2.443   2.231  1.2611 -0.6790 -0.0894
  764SOL    HW2 2292   2.307   2.546   2.115 -2.3253  2.0501 -2.5974
  765SOL     OW 2293   2.845   1.112   2.470  0.0832  0.5510 -0.1415
  765SOL    HW1 2294   2.853   1.009   2.471  0.3538  0.7824  0.2001
  765SOL    HW2 2295   2.857   1.158   2.563  0.5845  3.5195  1.4768
  766SOL     OW 2296   0.001   0.642   2.706 -0.4133 -0.2641  0.3704
  766SOL    HW1 2297   0.036   0.566   2.763 -2.0432  0.7015 -1.1632
  766SOL    HW2 2298   3.043   0.609   2.621  1.5293 -1.5122  0.1910
  767SOL     OW 2299   0.346   2.359   1.807 -0.1174  0.4904  0.3252
  767SOL    HW1 2300   0.310   2.266   1.839 -0.9112 -2.1364  0.5173
  767SOL    HW2 2301   0.275   2.406   1.748  0.3460  1.4066  0.1389
  768SOL     OW 2302   1.050   0.962   0.082  0.3590 -0.4049  0.6266
  768SOL    HW1 2303   1.145   0.939   0.063 -1.8902  0.8409 -2.8180
  768SOL    HW2 2304   1.024   1.014   3.079  5.1375 -1.6255 -0.4991
  769SOL     OW 2305   1.487   2.429   0.163  0.1763  0.4210 -0.0768
  769SOL    HW1 2306   1.426   2.347   0.147 -1.7245 -1.2302 -0.0967
  769SOL    HW2 2307   1.583   2.396   0.155  0.9636  2.1622 -2.5010
  770SOL     OW 2308   1.075   0.018   2.066  0.1093  0.2174 -0.4247
  770SOL    HW1 2309   1.175   0.016   2.075 -0.8192 -1.3000 -1.0166
  770SOL    HW2 2310   1.046   3.048   1.983  1.2743 -1.0183 -0.1358
  771SOL     OW 2311   0.945   2.809   0.770 -0.4457  0.1134 -0.3658
  771SOL    HW1 2312   1.032   2.805   0.823 -0.9904  1.9257  1.4584
  771SOL    HW2 2313   0.890   2.741   0.824  2.6641 -1.6930 -0.4922
  772SOL     OW 2314   2.758   0.822   0.207  0.0048 -0.3790 -0.7362
  772SOL    HW1 2315   2.838   0.882   0.180  1.0019  0.2883  1.6246
  772SOL    HW2 2316   2.728   0.843   0.308  0.8233  0.8560  1.7062
  773SOL     OW 2317   2.051   0.733   1.882 -0.2048 -0.1754 -0.3441
  773SOL    HW1 2318   2.115   0.673   1.834  0.3633 -0.8173 -2.1536
  773SOL    HW2 2319   2.012   0.803   1.819  2.6213  1.3355  1.7606
  774SOL     OW 2320   0.404   0.567   0.664  0.0745  0.5901  0.5057
  774SOL    HW1 2321   0.308   0.536   0.647  2.4548 -2.3323  1.4889
  774SOL    HW2 2322   0.461   0.553   0.579  0.6949  0.2540  0.0996
  775SOL     OW 2323   1.503   0.258   0.730  0.3190 -0.0367 -0.5051
  775SOL    HW1 2324   1.542   0.344   0.764 -0.8889 -0.9642  1.4677
  775SOL    HW2 2325   1.567   0.217   0.665  0.2895 -0.8490 -0.3809
  776SOL     OW 2326   2.034   0.100   2.132 -0.1782 -0.1742 -0.4652
  776SOL    HW1 2327   2.129   0.062   2.111  2.8501  0.0662 -1.7164
  776SOL    HW2 2328   2.037   0.200   2.122  0.5043  2.2897 -0.3560
  777SOL     OW 2329   1.250   1.523   0.389 -0.4371 -0.0875  0.4893
  777SOL    HW1 2330   1.240   1.580   0.303 -0.2481  1.1477 -1.5190
  777SOL    HW2 2331   1.310   1.447   0.369 -2.3710  1.3279 -1.4703
  778SOL     OW 2332   0.551   2.497   0.101 -0.1466 -0.6097  0.1017
  778SOL    HW1 2333   0.568   2.422   0.168  0.3262 -1.6383  1.0170
  778SOL    HW2 2334   0.461   2.537   0.125  0.3513  0.0014 -0.2031
  779SOL     OW 2335   0.131   1.434   0.115 -0.1287  0.3602  0.8914
  779SOL    HW1 2336   0.230   1.405   0.100 -0.3460  0.6013  0.3445
  779SOL    HW2 2337   0.127   1.479   0.210  0.1098  0.8716  2.4596
  780SOL     OW 2338   1.667   0.383   2.228 -0.0580  0.1303  0.6192
  780SOL    HW1 2339   1.685   0.311   2.156 -3.2807 -0.6595 -0.6773
  780SOL    HW2 2340   1.670   0.331   2.318  1.8934 -0.1401  0.5428
  781SOL     OW 2341   1.748   1.806   1.150 -0.3458  0.2372 -0.1009
  781SOL    HW1 2342   1.651   1.773   1.162 -1.0488  0.9947  0.2163
  781SOL    HW2 2343   1.793   1.777   1.062 -0.8788 -0.1324 -0.6461
  782SOL     OW 2344   1.978   2.559   2.113 -0.0158 -0.4830 -0.4974
  782SOL    HW1 2345   1.888   2.540   2.068  3.1568  0.0875 -0.2935
  782SOL    HW2 2346   2.057   2.528   2.057  2.0823 -0.3131  1.9365
  783SOL     OW 2347   1.392   0.524   1.940  0.2980 -0.5479  0.6758
  783SOL    HW1 2348   1.399   0.511   2.043 -0.6503  1.1559  1.5872
  783SOL    HW2 2349   1.397   0.435   1.894 -0.3088 -0.1302  0.9887
  784SOL     OW 2350   1.499   1.014   1.896  0.6278  0.9001 -0.1270
  784SOL    HW1 2351   1.449   1.096   1.860  1.6482 -0.4366 -1.8482
  784SOL    HW2 2352   1.436   0.932   1.884  1.9373 -1.0547 -1.3074
  785SOL     OW 2353   1.876   0.699   0.492  0.3546 -0.1262 -0.3321
  785SOL    HW1 2354   1.909   0.794   0.499 -0.7447 -0.7566 -2.9496
  785SOL    HW2 2355   1.783   0.677   0.533  0.1996  1.2761  0.1362
  786SOL     OW 2356   3.022   1.134   0.593 -0.3165  0.3984 -0.2563
  786SOL    HW1 2357   2.994   1.166   0.501 -0.0974 -2.0423  0.5034
  786SOL    HW2 2358   2.964   1.163   0.669  1.0168  2.2237 -2.5755
  787SOL     OW 2359   1.669   1.799   0.052 -0.0169  0.4722 -0.4870
  787SOL    HW1 2360   1.669   1.701   0.076 -0.0856 -0.7212  0.4233
  787SOL    HW2 2361   1.572   1.837   0.042  0.7907 -1.0827 -0.8374
  788SOL     OW 2362   2.292   1.072   1.227  0.2135  0.7373  0.2856
  788SOL    HW1 2363   2.295   1.089   1.330 -1.3142  0.9509  0.9650
  788SOL    HW2 2364   2.373   1.039   1.185 -1.8996  1.1263  2.0141
  789SOL     OW 2365   2.851   1.621   2.467 -0.0392 -0.5278  0.1753
  789SOL    HW1 2366   2.808   1.711   2.498  0.4805  1.6084  2.1972
  789SOL    HW2 2367   2.822   1.589   2.375  1.7642  0.8466  2.1603
  790SOL     OW 2368   0.783   2.875   2.484 -0.5196 -0.4454  0.4852
  790SOL    HW1 2369   0.728   2.884   2.569 -2.0000  0.9751  2.4288
  790SOL    HW2 2370   0.859   2.811   2.505  1.2156  1.6954  1.7596
  791SOL     OW 2371   0.144   2.650   2.843 -0.2961 -0.3511  0.4664
  791SOL    HW1 2372   0.209   2.586   2.885 -1.8158 -1.3663  0.4728
  791SOL    HW2 2373   0.054   2.634   2.886  0.7967  0.7461  1.4830
  792SOL     OW 2374   1.364   0.181   2.244 -0.2161 -0.6226 -0.3023
  792SOL    HW1 2375   1.391   0.280   2.228  0.4915  0.8451 -0.8807
  792SOL    HW2 2376   1.390   0.158   2.343 -0.2456  0.4490  0.2677
  793SOL     OW 2377   2.576   0.191   2.379  0.0137  0.9764  0.0398
  793SOL    HW1 2378   2.492   0.142   2.412  1.5852 -0.0969  2.5230
  793SOL    HW2 2379   2.546   0.255   2.302 -0.9181  1.9374  2.1777
  794SOL     OW 2380   0.493   0.272   2.049 -0.4414 -0.0659 -0.3016
  794SOL    HW1 2381   0.565   0.199   2.046  1.0910 -1.0177  0.3084
  794SOL    HW2 2382   0.411   0.256   1.993 -2.8555  1.2289  1.7780
  795SOL     OW 2383   2.957   1.235   0.351  0.2928  0.3486  0.0139
  795SOL    HW1 2384   2.931   1.181   0.268 -0.0604  0.9318  1.1724
  795SOL    HW2 2385   2.928   1.331   0.341 -0.6724  2.8097  0.9954
  796SOL     OW 2386   2.654   2.250   2.299  0.7414  0.2084  0.1168
  796SOL    HW1 2387   2.690   2.158   2.290 -1.7796  1.2226 -0.1178
  796SOL    HW2 2388   2.722   2.322   2.259  0.3365  1.8592 -3.1429
  797SOL     OW 2389   2.982   1.944   3.052 -0.4747 -0.1257 -0.1526
  797SOL    HW1 2390   2.888   1.955   3.012 -0.7823  1.0042  0.5539
  797SOL    HW2 2391   2.991   1.884   0.053  1.5372  1.0113  0.8725
  798SOL     OW 2392   0.383   0.725   1.885 -0.5395 -0.0562  0.0625
  798SOL    HW1 2393   0.403   0.728   1.982 -0.7468  0.4673 -0.8994
  798SOL    HW2 2394   0.413   0.810   1.837  1.3112 -1.5995  3.0809
  799SOL     OW 2395   2.863   0.817   2.422  0.5445  0.2618 -0.2426
  799SOL    HW1 2396   2.772   0.825   2.475 -1.5729  0.1153  4.9057
  799SOL    HW2 2397   2.847   0.813   2.320 -1.4896  0.0104 -0.2738
  800SOL     OW 2398   2.968   2.128   0.612  0.2490 -0.1825  0.2333
  800SOL    HW1 2399   2.909   2.145   0.528 -0.5711  0.5271 -3.1025
  800SOL    HW2 2400   3.062   2.155   0.595 -1.7702 -3.8181  1.7944
  801SOL     OW 2401   1.260   0.948   0.862  0.3832 -0.2967  0.1946
  801SOL    HW1 2402   1.222   1.030   0.910  2.9417  1.9383  1.4402
  801SOL    HW2 2403   1.242   0.943   0.763  0.1869 -2.3395  0.0892
  802SOL     OW 2404   1.757   2.126   0.923 -0.2972 -0.5038  0.0249
  802SOL    HW1 2405   1.728   2.056   0.991 -0.3366  0.1509 -1.3065
  802SOL    HW2 2406   1.791   2.072   0.840  0.8918 -1.5939 -0.5241
  803SOL     OW 2407   0.116   1.538   0.350  0.1225  0.0727  0.2456
  803SOL    HW1 2408   0.100   1.447   0.403 -2.4842 -2.2626 -0.5913
  803SOL    HW2 2409   0.163   1.603   0.413  1.3460 -0.6817  0.4053
  804SOL     OW 2410   1.322   2.333   0.491  0.2643  0.0652 -0.1416
  804SOL    HW1 2411   1.277   2.275   0.560 -1.3801 -1.0595 -0.4645
  804SOL    HW2 2412   1.257   2.398   0.450 -2.2277  0.1811  0.1071
  805SOL     OW 2413   1.456   2.085   2.440  0.3268  0.1150 -0.5286
  805SOL    HW1 2414   1.420   2.098   2.533  0.8890 -0.2541 -2.8783
  805SOL    HW2 2415   1.552   2.120   2.436  0.7834  1.0937  0.0490
  806SOL     OW 2416   1.791   0.073   1.323  0.3348 -0.1375 -0.1609
  806SOL    HW1 2417   1.861   0.010   1.356  0.5502  5.5406  0.1592
  806SOL    HW2 2418   1.814   0.161   1.368  3.1752  0.4304  1.8045
  807SOL     OW 2419   2.086   3.047   0.317  0.1168  0.0259  0.8487
  807SOL    HW1 2420   1.995   3.000   0.318 -0.4162  1.8772 -0.8044
  807SOL    HW2 2421   2.161   2.988   0.349  0.2470 -1.6134 -0.4122
  808SOL     OW 2422   0.396   1.814   2.997 -0.0907 -0.5730 -0.4937
  808SOL    HW1 2423   0.350   1.866   2.921 -1.2502 -1.2829  0.1257
  808SOL    HW2 2424   0.328   1.754   3.043 -1.2458 -0.0033  0.8178
  809SOL     OW 2425   3.041   1.055   2.780  0.5276  0.0797  0.5422
  809SOL    HW1 2426   0.031   1.087   2.843 -2.6605 -1.8000  0.3927
  809SOL    HW2 2427   2.997   0.975   2.819  0.7340 -0.2235 -0.4919
  810SOL     OW 2428   2.884   0.430   2.947  0.4779 -0.0291 -0.2586
  810SOL    HW1 2429   2.874   0.329   2.934 -0.1857 -0.8088 -1.3250
  810SOL    HW2 2430   2.853   0.486   2.863  0.3744  2.3373 -1.0231
  811SOL     OW 2431   2.015   2.410   1.748  0.3727 -0.2943 -0.3482
  811SOL    HW1 2432   1.968   2.505   1.758 -2.0616  1.1005 -0.9664
  811SOL    HW2 2433   1.968   2.340   1.804  1.6875  0.8470 -0.9379
  812SOL     OW 2434   1.125   0.448   0.468  0.1680 -0.6308  0.0173
  812SOL    HW1 2435   1.150   0.536   0.428  2.0570  1.5088 -2.1171
  812SOL    HW2 2436   1.104   0.379   0.400 -0.6275  0.4987  0.0085
  813SOL     OW 2437   1.916   0.511   1.965  0.2173  0.5069 -0.1793
  813SOL    HW1 2438   1.829   0.531   1.914 -1.4348  0.7773  1.4021
  813SOL    HW2 2439   1.973   0.596   1.974  0.4029 -0.3410 -0.3867
  814SOL     OW 2440   1.913   0.826   1.121 -0.1451 -0.4335 -0.0113
  814SOL    HW1 2441   1.916   0.810   1.220  0.3456 -0.4662  0.5241
  814SOL    HW2 2442   1.970   0.908   1.095  4.1600  1.2538 -1.9270
  815SOL     OW 2443   0.461   1.099   0.390  0.1306  0.5298  0.6115
  815SOL    HW1 2444   0.450   1.053   0.481  0.1105  2.5005 -1.9382
  815SOL    HW2 2445   0.372   1.117   0.349  1.3408 -1.1634  3.1429
  816SOL     OW 2446   2.326   2.384   0.125  0.3375 -0.2991 -0.6174
  816SOL    HW1 2447   2.246   2.340   0.081  0.8197  2.0549  0.4115
  816SOL    HW2 2448   2.305   2.421   0.219 -1.0452  2.2453  0.9451
  817SOL     OW 2449   2.785   2.348   1.157  0.0689 -0.3549 -0.5778
  817SOL    HW1 2450   2.760   2.274   1.090  1.3300 -0.5164 -1.7678
  817SOL    HW2 2451   2.870   2.399   1.127  0.7510 -0.1697  1.4240
  818SOL     OW 2452   1.688   0.873   0.065  0.0043  0.2607  0.3000
  818SOL    HW1 2453   1.680   0.768   0.068  0.9212 -1.9600  3.5805
  818SOL    HW2 2454   1.598   0.920   0.096  0.5717  3.6607  2.5740
  819SOL     OW 2455   0.578   0.781   0.712  0.8503 -0.8913 -0.4358
  819SOL    HW1 2456   0.535   0.873   0.689 -1.6225  0.0110 -0.6116
  819SOL    HW2 2457   0.506   0.710   0.695  0.6749 -1.2576  0.9351
  820SOL     OW 2458   1.933   0.778   1.386 -0.2571 -0.2248 -0.1392
  820SOL    HW1 2459   1.986   0.864   1.406  0.5143  1.1237  0.1363
  820SOL    HW2 2460   1.920   0.728   1.475 -2.6113 -1.7208  2.9424
  821SOL     OW 2461   2.897   0.031   0.861  0.2013 -0.1672 -0.7233
  821SOL    HW1 2462   2.957   3.061   0.920 -0.3058  2.2474  0.0148
  821SOL    HW2 2463   2.805   0.041   0.897  2.6371 -2.9998  0.9497
  822SOL     OW 2464   0.702   2.241   2.331  0.1271  0.1115 -0.3404
  822SOL    HW1 2465   0.750   2.329   2.341  0.5753 -0.6520 -0.8341
  822SOL    HW2 2466   0.604   2.252   2.302 -0.5146  0.6629  1.5309
  823SOL     OW 2467   2.863   1.106   1.718 -0.7389  0.0935 -0.5582
  823SOL    HW1 2468   2.863   1.011   1.698 -1.6155  0.7321  1.8308
  823SOL    HW2 2469   2.963   1.136   1.725  0.2913 -3.4438 -2.4060
  824SOL     OW 2470   0.569   2.608   2.347 -0.5348 -1.1166  0.5409
  824SOL    HW1 2471   0.582   2.618   2.452 -0.5208  0.9307 -0.8814
  824SOL    HW2 2472   0.655   2.575   2.303 -0.7708  0.4591  2.2473
  825SOL     OW 2473   1.584   1.621   2.767  0.1592 -0.0460  0.8214
  825SOL    HW1 2474   1.566   1.712   2.719 -1.9443  0.9694 -1.4764
  825SOL    HW2 2475   1.669   1.625   2.818 -2.2435  1.7486 -1.7201
  826SOL     OW 2476   1.303   2.253   0.072 -0.3743 -0.4214  0.4196
  826SOL    HW1 2477   1.213   2.236   0.117  3.4117  1.1871 -1.3867
  826SOL    HW2 2478   1.316   2.187   3.081 -0.3210  4.2684  1.2704
  827SOL     OW 2479   0.220   1.394   1.616 -0.0882 -0.0090 -0.5873
  827SOL    HW1 2480   0.136   1.429   1.568  0.6777  0.7197  1.8036
  827SOL    HW2 2481   0.230   1.439   1.707  1.9484 -1.6684  0.1645
  828SOL     OW 2482   0.170   1.488   1.236  0.3439 -0.0586  0.2641
  828SOL    HW1 2483   0.210   1.403   1.196  0.5206  0.3689  0.8476
  828SOL    HW2 2484   0.167   1.563   1.167 -1.7964 -2.7542  0.1749
  829SOL     OW 2485   2.988   2.387   3.053  0.2842 -0.3160  0.3728
  829SOL    HW1 2486   3.076   2.336   3.068 -1.5488 -1.2622 -0.3632
  829SOL    HW2 2487   2.932   2.350   2.981 -1.1724  0.7727  1.0971
  830SOL     OW 2488   1.224   0.718   0.380 -0.1871  0.1172 -0.4171
  830SOL    HW1 2489   1.152   0.785   0.349 -2.3030 -0.4546 -2.1013
  830SOL    HW2 2490   1.248   0.733   0.478  1.1636  0.8123  0.0403
  831SOL     OW 2491   2.891   2.220   2.839  0.4421 -0.0200 -0.0506
  831SOL    HW1 2492   2.912   2.140   2.898  1.9095 -2.4256  1.0922
  831SOL    HW2 2493   2.792   2.222   2.819  3.8997  0.2260  2.0815
  832SOL     OW 2494   1.653   2.554   0.338 -0.3057 -0.2480 -0.2831
  832SOL    HW1 2495   1.582   2.519   0.272 -1.2779  0.1754 -0.9737
  832SOL    HW2 2496   1.751   2.533   0.315 -0.3184  3.0611  0.4678
  833SOL     OW 2497   0.388   1.245   2.258 -0.6072 -0.3816  0.0236
  833SOL    HW1 2498   0.402   1.335   2.307  2.3914 -1.2945  1.6369
  833SOL    HW2 2499   0.366   1.169   2.322 -3.1047  0.3496  1.1193
  834SOL     OW 2500   2.311   0.580   0.483  0.0776  0.4559 -0.0909
  834SOL    HW1 2501   2.221   0.547   0.521  0.7772 -4.4726  1.7092
  834SOL    HW2 2502   2.381   0.508   0.464  0.2800  1.7016 -3.8859
  835SOL     OW 2503   2.110   0.684   2.166 -0.5929  0.1341 -0.1417
  835SOL    HW1 2504   2.086   0.728   2.079 -2.2167 -2.1646  0.6187
  835SOL    HW2 2505   2.070   0.734   2.246  1.9730 -1.4023 -1.6165
  836SOL     OW 2506   0.744   1.966   0.911  0.0137 -0.4692  0.6522
  836SOL    HW1 2507   0.657   2.011   0.932  0.4730 -1.7015 -0.4137
  836SOL    HW2 2508   0.813   2.033   0.885  0.9787 -2.0183  0.3901
  837SOL     OW 2509   2.204   1.348   1.797 -0.2638  0.1470 -0.6909
  837SOL    HW1 2510   2.229   1.341   1.699  1.5951  1.8675 -1.2367
  837SOL    HW2 2511   2.209   1.444   1.829 -0.1920 -0.7247  2.4662
  838SOL     OW 2512   0.082   1.109   2.333 -0.8372 -0.3848  0.2607
  838SOL    HW1 2513   0.111   1.040   2.267  1.8088  0.4703 -1.7011
  838SOL    HW2 2514   0.002   1.065   2.378 -0.6241 -0.1137  1.4448
  839SOL     OW 2515   0.056   0.022   3.041  0.1279  0.2902  0.1993
  839SOL    HW1 2516   0.027   3.018   3.077  2.2826  0.9467  0.2127
  839SOL    HW2 2517   0.150   0.038   3.069 -3.1651 -1.0110 -0.5210
  840SOL     OW 2518   2.886   1.254   2.701 -0.6112 -0.1862  0.1140
  840SOL    HW1 2519   2.954   1.188   2.739 -0.9102 -0.4091 -0.3436
  840SOL    HW2 2520   2.811   1.273   2.771 -0.0541 -0.8329  2.2555
  841SOL     OW 2521   0.514   2.065   2.702 -0.1042  0.2892  0.0571
  841SOL    HW1 2522   0.493   2.164   2.707 -0.8412 -1.1740 -0.1353
  841SOL    HW2 2523   0.609   2.054   2.667  0.8517  0.4800  0.0648
  842SOL     OW 2524   0.728   2.991   1.072 -0.0701  0.6484  0.0709
  842SOL    HW1 2525   0.694   3.047   1.154 -1.5449  2.2527 -1.3349
  842SOL    HW2 2526   0.701   3.027   0.981 -0.5471  1.2691 -1.6854
  843SOL     OW 2527   3.036   1.353   2.057 -0.0931  0.1574 -0.0480
  843SOL    HW1 2528   3.037   1.431   1.999 -0.1264 -2.9173  0.8001
  843SOL    HW2 2529   3.073   1.377   2.148 -1.0165  0.6551 -0.1761
  844SOL     OW 2530   1.739   2.104   2.423  0.1017 -0.4447 -0.4919
  844SOL    HW1 2531   1.752   2.164   2.342  1.0629 -0.7373  0.9294
  844SOL    HW2 2532   1.778   2.013   2.410  1.5899  3.0732  2.8304
  845SOL     OW 2533   1.566   2.930   2.416  0.3957 -0.3621  0.3796
  845SOL    HW1 2534   1.464   2.939   2.421  2.1620 -1.8046  2.3714
  845SOL    HW2 2535   1.607   2.971   2.500 -0.2252  1.0716  1.7214
  846SOL     OW 2536   2.378   1.678   0.133  0.3624  0.3992 -0.0927
  846SOL    HW1 2537   2.295   1.639   0.084  0.6642  1.0019 -2.1938
  846SOL    HW2 2538   2.452   1.703   0.069 -1.2916 -0.7380  0.8913
  847SOL     OW 2539   2.420   0.155   2.721 -0.1518  0.1503  0.1310
  847SOL    HW1 2540   2.392   0.168   2.818 -1.9218  0.1490  2.1507
  847SOL    HW2 2541   2.464   0.246   2.688  1.2903  3.5100  0.7401
  848SOL     OW 2542   1.954   0.579   0.246 -0.1821  0.3396 -0.0231
  848SOL    HW1 2543   1.936   0.636   0.332 -1.1658  1.9004  0.4231
  848SOL    HW2 2544   2.046   0.600   0.199  1.4662  0.4165 -4.2567
  849SOL     OW 2545   1.093   3.001   2.795  0.0261  0.6889 -0.5786
  849SOL    HW1 2546   1.186   2.969   2.814 -0.5661  3.2111 -0.6858
  849SOL    HW2 2547   1.040   2.981   2.876  0.1952  1.2734  0.9541
  850SOL     OW 2548   0.147   0.478   0.290 -0.3795  0.3566 -0.1863
  850SOL    HW1 2549   0.164   0.382   0.307  0.4583  2.4152 -0.7316
  850SOL    HW2 2550   0.045   0.491   0.287  0.7684  0.3220  0.9537
  851SOL     OW 2551   0.304   1.205   1.421 -0.0851 -0.1983  0.3490
  851SOL    HW1 2552   0.319   1.238   1.325  0.4911 -0.0945  1.4638
  851SOL    HW2 2553   0.282   1.281   1.483 -0.5228  1.1895  0.6283
  852SOL     OW 2554   1.264   0.870   2.144 -0.3739 -0.0859 -0.4386
  852SOL    HW1 2555   1.318   0.874   2.059 -0.1282 -0.3588  0.5975
  852SOL    HW2 2556   1.231   0.780   2.182  0.8270 -0.3214  1.3633
  853SOL     OW 2557   2.282   1.253   2.917 -0.3201 -0.2103 -0.3823
  853SOL    HW1 2558   2.322   1.232   3.008  0.2021  0.6359  0.4581
  853SOL    HW2 2559   2.179   1.257   2.917 -1.0652 -0.4379 -0.5707
  854SOL     OW 2560   1.292   1.422   1.707  0.8861  0.2678 -0.4105
  854SOL    HW1 2561   1.317   1.450   1.612 -0.4370  1.7429  2.5066
  854SOL    HW2 2562   1.223   1.485   1.751  1.1782 -0.4700  0.8699
  855SOL     OW 2563   0.247   2.115   1.809 -0.1032  0.0837 -0.0265
  855SOL    HW1 2564   0.218   2.147   1.713  0.3152  1.1812 -2.9954
  855SOL    HW2 2565   0.252   2.010   1.815 -2.4175 -0.8981 -1.5437
  856SOL     OW 2566   1.143   1.045   2.563  0.9101  0.6902 -0.3542
  856SOL    HW1 2567   1.209   0.992   2.510 -0.0418  0.8848  2.6568
  856SOL    HW2 2568   1.144   1.141   2.530 -2.4250 -0.2823 -2.6513
  857SOL     OW 2569   0.959   0.917   2.698  0.0023 -0.0415  0.3246
  857SOL    HW1 2570   1.012   0.963   2.624  3.7696  2.4847 -0.8064
  857SOL    HW2 2571   0.972   0.817   2.694  0.5477  2.0547  0.3653
  858SOL     OW 2572   0.265   0.255   1.923  0.1221  0.3135  0.1037
  858SOL    HW1 2573   0.315   0.214   1.845  5.0947  1.0523 -2.4891
  858SOL    HW2 2574   0.181   0.197   1.947  0.3274 -0.9033 -2.3035
  859SOL     OW 2575   2.407   0.421   0.860  0.4440 -0.0076  0.1146
  859SOL    HW1 2576   2.364   0.511   0.842  2.7407  0.0582  1.1320
  859SOL    HW2 2577   2.426   0.399   0.961  0.2157 -1.3614 -0.3453
  860SOL     OW 2578   0.771   0.811   1.552 -0.1292  0.1590  0.2593
  860SOL    HW1 2579   0.704   0.736   1.539  0.3375 -0.2810 -0.1647
  860SOL    HW2 2580   0.809   0.830   1.459 -0.7504  0.7903  0.5828
  861SOL     OW 2581   1.538   0.957   1.312  0.3132  0.2305 -0.0760
  861SOL    HW1 2582   1.605   0.919   1.246 -0.8492  0.0549  1.7275
  861SOL    HW2 2583   1.590   1.012   1.383  2.8623  1.2046  0.6940
  862SOL     OW 2584   0.718   2.844   2.180  0.3748 -0.6208  0.5999
  862SOL    HW1 2585   0.688   2.824   2.273  0.7192  0.2617  2.0221
  862SOL    HW2 2586   0.647   2.903   2.132 -0.2427  1.9008  0.7384
  863SOL     OW 2587   2.760   0.172   1.395  0.8366 -0.2585  0.3923
  863SOL    HW1 2588   2.709   0.219   1.478  1.2825 -0.0808  2.3147
  863SOL    HW2 2589   2.859   0.176   1.399 -3.5872 -1.0975  0.1585
  864SOL     OW 2590   2.810   2.945   2.669 -0.0336 -0.0118  0.7147
  864SOL    HW1 2591   2.886   2.941   2.728 -4.1527 -1.1778  0.4292
  864SOL    HW2 2592   2.828   2.881   2.592  0.0524  0.4009  0.7054
  865SOL     OW 2593   1.437   1.187   2.328 -0.8905  0.4983 -0.2644
  865SOL    HW1 2594   1.437   1.102   2.380  0.7493  2.0380  2.1383
  865SOL    HW2 2595   1.345   1.229   2.328  1.4804  2.7609  1.7001
  866SOL     OW 2596   2.422   2.637   0.918  0.4338  0.2262 -0.1110
  866SOL    HW1 2597   2.489   2.603   0.987  0.1251 -1.6884  1.3825
  866SOL    HW2 2598   2.460   2.670   0.826  0.0142  1.7955  0.8526
  867SOL     OW 2599   2.648   2.605   1.123  0.0477  0.2647  0.1465
  867SOL    HW1 2600   2.603   2.670   1.185  1.3875 -0.5414 -2.4325
  867SOL    HW2 2601   2.670   2.518   1.175 -1.2852  0.3822  2.3151
  868SOL     OW 2602   2.949   1.336   1.510  0.3769  0.0071  0.0243
  868SOL    HW1 2603   2.977   1.275   1.585 -0.9241  0.9704  0.0504
  868SOL    HW2 2604   2.847   1.345   1.505 -0.1852  0.1234 -0.0116
  869SOL     OW 2605   2.176   1.557   2.152  0.1288  0.0804  0.2908
  869SOL    HW1 2606   2.161   1.611   2.237  3.5501  1.2031  3.8300
  869SOL    HW2 2607   2.155   1.460   2.171  2.1825  0.1220 -2.7437
  870SOL     OW 2608   1.549   1.220   0.991 -0.5429  0.7498  0.8467
  870SOL    HW1 2609   1.570   1.130   0.942 -0.9892 -0.6473  0.3636
  870SOL    HW2 2610   1.520   1.280   0.916  1.3757 -0.0441  0.6587
  871SOL     OW 2611   2.169   1.620   1.878 -0.1310  0.4741 -0.1987
  871SOL    HW1 2612   2.113   1.702   1.844 -2.0743  0.0277  0.1388
  871SOL    HW2 2613   2.142   1.599   1.974  1.1900  2.6643 -0.3105
  872SOL     OW 2614   1.545   1.403   2.454  0.1875  0.3359  0.4413
  872SOL    HW1 2615   1.513   1.398   2.549 -0.3993  0.3789 -1.0297
  872SOL    HW2 2616   1.506   1.328   2.393 -1.8635 -0.9771 -0.9953
  873SOL     OW 2617   1.327   1.467   1.442 -0.4590 -0.3994 -0.2827
  873SOL    HW1 2618   1.265   1.415   1.379 -0.6667  2.6873  1.5116
  873SOL    HW2 2619   1.423   1.479   1.410 -1.3506  1.3114 -1.2840
  874SOL     OW 2620   1.598   1.316   1.247 -0.4451  0.1948  0.2367
  874SOL    HW1 2621   1.579   1.415   1.272 -0.6949 -1.6203  0.7018
  874SOL    HW2 2622   1.564   1.291   1.155  0.2104 -3.0500  2.5352
  875SOL     OW 2623   2.491   0.379   2.575  0.4845 -0.5248  0.4910
  875SOL    HW1 2624   2.419   0.360   2.505 -1.5313 -1.8537 -0.4845
  875SOL    HW2 2625   2.578   0.343   2.535 -3.0241  0.9176  0.2613
  876SOL     OW 2626   1.162   0.964   0.602 -0.0913  0.8787  0.0399
  876SOL    HW1 2627   1.091   0.896   0.579 -0.8043 -1.3334 -1.6577
  876SOL    HW2 2628   1.110   1.047   0.634 -0.3487  0.5908  0.3852
  877SOL     OW 2629   2.157   2.897   0.795  0.1203 -0.1191  0.5904
  877SOL    HW1 2630   2.207   2.863   0.714 -1.4540  2.1024  0.4360
  877SOL    HW2 2631   2.056   2.890   0.779 -0.8802  1.9023  1.3354
  878SOL     OW 2632   2.809   1.842   0.366  0.6010  0.1849 -0.1845
  878SOL    HW1 2633   2.863   1.763   0.413  1.7285 -2.2232  1.2999
  878SOL    HW2 2634   2.716   1.814   0.331 -0.0711  0.9095 -1.0525
  879SOL     OW 2635   2.866   2.220   1.873 -0.2328 -0.0572  0.1575
  879SOL    HW1 2636   2.826   2.128   1.895  1.4018 -0.6660 -1.6535
  879SOL    HW2 2637   2.969   2.227   1.892 -0.3048 -3.2442 -0.7231
  880SOL     OW 2638   0.363   1.610   0.721  0.2308 -0.3287  0.6212
  880SOL    HW1 2639   0.381   1.688   0.655 -1.0478  0.6380 -0.7931
  880SOL    HW2 2640   0.418   1.621   0.804 -0.8344 -0.8188  0.1838
  881SOL     OW 2641   1.332   0.420   2.574  0.0718 -0.5086  0.0273
  881SOL    HW1 2642   1.379   0.332   2.564 -1.6308  2.1098  0.4205
  881SOL    HW2 2643   1.231   0.413   2.581 -0.0807 -2.1872  0.1786
  882SOL     OW 2644   2.673   0.938   0.463  0.4191  0.2665 -0.3900
  882SOL    HW1 2645   2.730   0.942   0.550 -0.3440 -2.5515 -0.0248
  882SOL    HW2 2646   2.595   0.872   0.485  2.0864 -2.8044 -2.2649
  883SOL     OW 2647   1.640   0.728   2.481 -0.0097  0.3945 -0.0542
  883SOL    HW1 2648   1.544   0.700   2.487 -1.2706 -0.7298 -0.3780
  883SOL    HW2 2649   1.659   0.826   2.500  0.0027  2.4502 -0.9036
  884SOL     OW 2650   0.058   0.128   1.715  0.2964 -0.3698 -0.1345
  884SOL    HW1 2651   3.082   0.050   1.681 -1.4726 -0.5512 -1.1448
  884SOL    HW2 2652   0.156   0.118   1.721 -2.3678  0.2776 -1.6316
  885SOL     OW 2653   1.774   0.942   2.187 -0.7628 -0.6210 -0.7430
  885SOL    HW1 2654   1.819   0.967   2.100  1.9007 -0.2452  1.6943
  885SOL    HW2 2655   1.748   0.843   2.195 -0.4262 -0.8240  1.0259
  886SOL     OW 2656   1.743   0.391   2.804 -0.1967  0.4315 -0.4777
  886SOL    HW1 2657   1.807   0.417   2.731  0.4405  0.5698  0.4061
  886SOL    HW2 2658   1.778   0.424   2.899  2.9981 -0.3621  0.6653
  887SOL     OW 2659   1.323   0.058   1.672 -0.3799  0.1283 -0.1995
  887SOL    HW1 2660   1.237   0.087   1.627  1.8079  0.3283 -1.2454
  887SOL    HW2 2661   1.335   3.048   1.709 -0.6588  2.7319  0.3976
  888SOL     OW 2662   2.302   0.702   1.425 -0.3441  0.0185  0.2191
  888SOL    HW1 2663   2.306   0.758   1.516  1.2398  0.6665  2.5691
  888SOL    HW2 2664   2.349   0.756   1.353 -0.8558  1.3327  1.3920
  889SOL     OW 2665   1.685   3.043   0.798 -0.1390 -0.0529  0.0852
  889SOL    HW1 2666   1.666   0.020   0.718  2.2778 -0.9731  1.8142
  889SOL    HW2 2667   1.665   0.012   0.886  1.3149 -0.0447 -1.5617
  890SOL     OW 2668   1.230   2.561   0.843 -0.5209 -0.7177  0.3431
  890SOL    HW1 2669   1.292   2.510   0.899  0.2577 -0.3731 -2.9040
  890SOL    HW2 2670   1.182   2.638   0.901  0.3388  1.4044 -0.0104
  891SOL     OW 2671   0.081   1.180   0.043  0.4998  0.2496  0.0996
  891SOL    HW1 2672   0.133   1.160   3.031 -0.9196 -0.8012 -3.9576
  891SOL    HW2 2673   0.082   1.280   0.064 -0.6314 -1.8047 -0.1624
  892SOL     OW 2674   2.184   1.378   2.439 -0.5043  0.9048 -0.6973
  892SOL    HW1 2675   2.171   1.322   2.357  0.7912  0.8338  2.0425
  892SOL    HW2 2676   2.148   1.470   2.420  1.4813  0.9851 -0.1354
  893SOL     OW 2677   2.284   2.537   1.239 -0.4136 -0.5334 -0.0462
  893SOL    HW1 2678   2.201   2.514   1.186 -0.2691 -2.5960  1.2623
  893SOL    HW2 2679   2.314   2.630   1.203  0.4134 -0.2294 -1.7905
  894SOL     OW 2680   0.270   0.595   0.932  0.7644 -0.3495 -0.0099
  894SOL    HW1 2681   0.279   0.506   0.975  2.4103  2.4795 -0.0919
  894SOL    HW2 2682   0.306   0.600   0.839 -1.2177 -0.9998 -0.1767
  895SOL     OW 2683   2.773   2.002   2.278 -0.2661 -0.0561  0.0464
  895SOL    HW1 2684   2.868   2.041   2.287 -2.4925  1.4747  1.2984
  895SOL    HW2 2685   2.760   1.971   2.178  0.2113 -3.6461  0.2479
  896SOL     OW 2686   1.301   2.947   2.530 -0.3246 -0.2476  0.3759
  896SOL    HW1 2687   1.318   2.897   2.613  0.1510  0.6374  0.2055
  896SOL    HW2 2688   1.201   2.971   2.522  1.5792  1.6868  0.7669
  897SOL     OW 2689   0.320   1.781   1.606  0.6843  0.6492  0.2034
  897SOL    HW1 2690   0.218   1.791   1.596  0.3329  0.0569  0.0844
  897SOL    HW2 2691   0.354   1.712   1.534  0.8385  1.1197 -4.8265
  898SOL     OW 2692   0.853   2.033   1.809 -0.2720 -0.1501 -0.0484
  898SOL    HW1 2693   0.826   2.082   1.727 -2.6198 -0.1593 -2.9179
  898SOL    HW2 2694   0.906   2.099   1.867 -0.6316 -0.9732  0.4793
  899SOL     OW 2695   1.752   0.074   1.823 -0.0991 -0.2329 -0.0741
  899SOL    HW1 2696   1.847   0.101   1.794  2.9772  0.3802 -1.6115
  899SOL    HW2 2697   1.684   0.100   1.749 -1.4422  0.4568  0.3779
  900SOL     OW 2698   1.434   1.337   0.331  0.1908  0.2427  0.0672
  900SOL    HW1 2699   1.435   1.348   0.223  2.1471  1.1512 -1.9399
  900SOL    HW2 2700   1.398   1.247   0.363 -1.8723 -0.7995  1.2581
  901SOL     OW 2701   1.345   0.942   2.393 -0.8150 -0.2679 -0.3054
  901SOL    HW1 2702   1.443   0.944   2.413 -1.2917  2.0975 -0.1278
  901SOL    HW2 2703   1.329   0.904   2.299  2.3887 -1.0568 -0.8610
  902SOL     OW 2704   0.016   2.063   0.904 -0.1166 -0.4418  0.0322
  902SOL    HW1 2705   3.013   2.113   0.884 -0.7426  0.5221 -0.5993
  902SOL    HW2 2706   0.030   2.056   1.004 -0.1517  1.6715  1.3394
  903SOL     OW 2707   2.537   1.214   2.275  0.0776  0.1707 -0.0712
  903SOL    HW1 2708   2.632   1.248   2.271 -1.5594 -0.7031 -1.9171
  903SOL    HW2 2709   2.494   1.238   2.362  1.1710  2.4285 -1.4505
  904SOL     OW 2710   1.445   1.922   0.088 -0.1286  0.7215  0.1051
  904SOL    HW1 2711   1.385   1.954   0.009 -0.9709 -0.8728 -1.5293
  904SOL    HW2 2712   1.402   1.954   0.177 -2.2076  0.2355  2.8754
  905SOL     OW 2713   2.189   3.064   1.876 -0.2222 -0.0158  0.1685
  905SOL    HW1 2714   2.147   2.973   1.904 -0.6615  1.9343 -0.2846
  905SOL    HW2 2715   2.238   0.023   1.952  0.1492  0.6134 -0.6367
  906SOL     OW 2716   1.385   2.905   0.083  0.1398 -0.6255 -0.5331
  906SOL    HW1 2717   1.362   2.959   0.004  1.2038 -1.0674  2.4554
  906SOL    HW2 2718   1.428   2.821   0.054  0.3665 -0.2832  0.5119
  907SOL     OW 2719   0.106   2.789   0.925  0.2283  0.0316  0.5310
  907SOL    HW1 2720   0.205   2.811   0.932 -0.3374  2.1188 -0.2673
  907SOL    HW2 2721   0.067   2.794   0.832  0.3993 -1.3376  1.8768
  908SOL     OW 2722   0.823   2.552   1.604 -0.4284 -0.0912 -0.0837
  908SOL    HW1 2723   0.766   2.627   1.569  0.5639  0.6297  0.8237
  908SOL    HW2 2724   0.791   2.532   1.695 -1.0526 -0.2217 -1.1301
  909SOL     OW 2725   1.647   0.697   1.363 -0.7136  0.5199  0.1075
  909SOL    HW1 2726   1.607   0.765   1.418  3.8003  0.1618  1.0181
  909SOL    HW2 2727   1.744   0.721   1.342 -1.2080 -0.8381  3.3438
  910SOL     OW 2728   0.812   0.416   0.544 -0.1958 -0.6808 -0.0102
  910SOL    HW1 2729   0.855   0.344   0.482 -1.3264 -2.5168 -0.5602
  910SOL    HW2 2730   0.883   0.463   0.596 -3.1887 -4.0490  1.4841
  911SOL     OW 2731   0.336   0.043   3.011  0.0374  0.7920  0.0818
  911SOL    HW1 2732   0.324   3.067   2.927  1.2839  0.2451 -0.5335
  911SOL    HW2 2733   0.315   0.139   2.985  0.8612 -0.4217  2.8713
  912SOL     OW 2734   0.064   1.984   2.603  0.4442  0.0808  0.0658
  912SOL    HW1 2735   3.064   1.927   2.584 -2.2363  1.0666  1.9810
  912SOL    HW2 2736   0.133   1.935   2.656 -0.6629  1.5087  1.2837
  913SOL     OW 2737   2.464   0.102   0.196  0.6899  0.2260 -0.4737
  913SOL    HW1 2738   2.453   0.158   0.278 -1.3840 -1.8165  0.1096
  913SOL    HW2 2739   2.405   0.138   0.123  0.8801 -2.5917 -1.2982
  914SOL     OW 2740   1.455   1.653   1.979 -0.3614 -0.0500 -0.7411
  914SOL    HW1 2741   1.506   1.564   1.979  3.4421 -0.6560 -0.1473
  914SOL    HW2 2742   1.519   1.724   1.950  0.8892 -2.1575 -3.0778
  915SOL     OW 2743   2.880   2.454   2.254  0.2754  0.4451  0.5898
  915SOL    HW1 2744   2.942   2.399   2.196  1.6464  1.2716 -0.0912
  915SOL    HW2 2745   2.912   2.455   2.350  1.0725 -0.3708  0.5943
  916SOL     OW 2746   3.048   0.605   2.446 -0.5635  0.2706  0.0086
  916SOL    HW1 2747   3.080   0.560   2.357  0.1807 -0.5059 -2.5289
  916SOL    HW2 2748   2.986   0.681   2.433 -0.5631 -0.0394 -0.7089
  917SOL     OW 2749   1.334   0.148   0.155  0.1646  0.3182 -0.0895
  917SOL    HW1 2750   1.428   0.187   0.169 -2.1003  0.9026 -0.6702
  917SOL    HW2 2751   1.335   0.081   0.086  1.6553  3.4587  2.4638
  918SOL     OW 2752   1.656   2.974   2.176  0.0508  0.3092  0.1446
  918SOL    HW1 2753   1.619   2.946   2.273 -1.4441 -0.9286  2.3301
  918SOL    HW2 2754   1.642   3.072   2.154  1.4492 -0.1403 -1.4033
  919SOL     OW 2755   1.625   2.257   1.663 -0.0400 -0.5377 -0.7193
  919SOL    HW1 2756   1.612   2.358   1.664 -0.1247  0.1383  2.2799
  919SOL    HW2 2757   1.536   2.204   1.660 -2.3949  0.2217 -0.2098
  920SOL     OW 2758   0.317   0.876   3.002 -0.4132  0.2070  0.5208
  920SOL    HW1 2759   0.366   0.955   3.050  2.3433  0.9025 -1.4597
  920SOL    HW2 2760   0.384   0.819   2.950 -0.8791 -0.8000  1.4998
  921SOL     OW 2761   2.388   0.811   2.515 -0.5062 -0.3764  0.3427
  921SOL    HW1 2762   2.382   0.736   2.448 -0.6886 -0.6886  0.2123
  921SOL    HW2 2763   2.300   0.824   2.563 -2.9098 -0.6888  0.0935
  922SOL     OW 2764   1.115   1.611   2.500  0.1335 -0.1567  0.2145
  922SOL    HW1 2765   1.089   1.710   2.487 -2.2994  0.0481 -2.2477
  922SOL    HW2 2766   1.108   1.563   2.410  1.2449 -0.0480 -0.5753
  923SOL     OW 2767   0.735   1.182   2.501  0.1831  0.0970 -0.0087
  923SOL    HW1 2768   0.668   1.119   2.547  1.5136 -0.0298  0.7766
  923SOL    HW2 2769   0.760   1.263   2.561 -0.1022 -0.2113 -1.5446
  924SOL     OW 2770   0.415   2.313   2.747  0.3367  0.4079  0.7589
  924SOL    HW1 2771   0.407   2.372   2.824  2.8956 -1.0765 -2.7192
  924SOL    HW2 2772   0.391   2.366   2.663  1.1818 -1.8414  2.0761
  925SOL     OW 2773   1.598   1.564   0.985 -0.2131  0.0293 -0.9088
  925SOL    HW1 2774   1.689   1.525   1.009 -0.1177 -0.4008 -0.8478
  925SOL    HW2 2775   1.580   1.568   0.887 -0.9059  0.4487  1.7897
  926SOL     OW 2776   1.810   0.510   2.553 -0.2073  0.5467  0.2759
  926SOL    HW1 2777   1.750   0.467   2.487  0.3288 -0.6193  1.7342
  926SOL    HW2 2778   1.771   0.596   2.594  1.0568  0.3125  0.1865
  927SOL     OW 2779   2.564   2.624   1.753 -0.1581  0.1952 -0.3757
  927SOL    HW1 2780   2.593   2.553   1.821  1.2695 -2.4434 -0.9477
  927SOL    HW2 2781   2.470   2.655   1.771 -0.3358  1.5128 -1.5136
  928SOL     OW 2782   0.722   0.994   2.772 -0.3717 -0.1463  0.4853
  928SOL    HW1 2783   0.644   0.999   2.708 -1.4108 -1.7235 -1.5279
  928SOL    HW2 2784   0.815   0.987   2.729  1.3803  1.8717 -1.0314
  929SOL     OW 2785   0.101   0.136   0.932 -0.7087  1.0299  0.3303
  929SOL    HW1 2786   0.149   0.082   0.866  1.0925  0.7931  1.3928
  929SOL    HW2 2787   0.012   0.172   0.896 -3.6792 -1.5781  2.7513
  930SOL     OW 2788   2.634   0.213   1.940  0.0910 -0.0531 -0.2698
  930SOL    HW1 2789   2.562   0.238   1.872 -1.4357 -1.7632  0.5826
  930SOL    HW2 2790   2.729   0.239   1.915 -2.0807 -1.7683 -0.0999
  931SOL     OW 2791   2.363   1.166   0.067 -0.2023 -0.4475  0.1039
  931SOL    HW1 2792   2.310   1.176   0.158 -2.2101  0.6026  0.9310
  931SOL    HW2 2793   2.403   1.074   0.061 -1.9532  0.4948  2.5691
  932SOL     OW 2794   2.856   1.203   0.798 -0.2671  0.0072 -0.1087
  932SOL    HW1 2795   2.865   1.241   0.892 -0.0784 -0.5567 -1.8791
  932SOL    HW2 2796   2.778   1.249   0.745 -2.5599  2.1390  0.4422
  933SOL     OW 2797   2.795   2.440   1.589 -0.4439  0.2420 -0.3854
  933SOL    HW1 2798   2.702   2.412   1.616 -2.3351 -1.9296  2.0549
  933SOL    HW2 2799   2.817   2.541   1.588  1.9312 -1.5116  0.7926
  934SOL     OW 2800   0.413   2.911   1.239  0.7372 -0.0196  0.2154
  934SOL    HW1 2801   0.484   2.838   1.222 -1.1140  0.1326 -2.1926
  934SOL    HW2 2802   0.461   2.996   1.269 -1.0583 -1.2262  0.9976
  935SOL     OW 2803   2.495   0.341   2.160  0.6063 -0.1928 -0.2719
  935SOL    HW1 2804   2.413   0.388   2.114  0.1211 -1.3431 -1.3276
  935SOL    HW2 2805   2.539   0.283   2.088 -0.3047 -3.3852  1.1701
  936SOL     OW 2806   2.662   0.896   1.876 -0.1716 -0.2574 -0.5355
  936SOL    HW1 2807   2.756   0.882   1.835 -0.7301 -5.0858  1.7027
  936SOL    HW2 2808   2.610   0.804   1.880 -3.2743 -3.4367  1.5234
  937SOL     OW 2809   1.741   1.370   1.756  0.4357  0.0069 -0.3485
  937SOL    HW1 2810   1.774   1.463   1.713  1.0830  2.9142  2.8795
  937SOL    HW2 2811   1.819   1.324   1.805  0.9477 -0.6242  1.6753
  938SOL     OW 2812   0.780   2.177   0.027 -0.3602  0.4299  0.0538
  938SOL    HW1 2813   0.805   2.244   3.036 -1.5470  2.1909  1.7974
  938SOL    HW2 2814   0.695   2.124   0.003 -1.0915  1.3558  1.9566
  939SOL     OW 2815   2.062   0.499   3.015  0.3997 -0.0644  0.3040
  939SOL    HW1 2816   2.108   0.521   0.019 -0.1965  0.4909 -0.1254
  939SOL    HW2 2817   2.006   0.413   3.028  1.9975  0.7823 -1.4378
  940SOL     OW 2818   1.412   2.425   0.966 -0.0995 -0.4229  0.1862
  940SOL    HW1 2819   1.446   2.358   0.899  0.7396 -1.9554 -0.0392
  940SOL    HW2 2820   1.478   2.452   1.040  1.5111 -0.8125 -0.6098
  941SOL     OW 2821   1.236   1.994   1.798 -0.3713  0.8601 -0.0294
  941SOL    HW1 2822   1.249   2.081   1.852  0.8477  0.8914  2.4057
  941SOL    HW2 2823   1.159   1.941   1.838  3.2016  2.0791  2.4491
  942SOL     OW 2824   2.736   1.966   2.948  0.2392  0.4985  0.2150
  942SOL    HW1 2825   2.724   1.922   2.855 -0.8867 -0.7418 -1.4444
  942SOL    HW2 2826   2.658   2.026   2.970  1.4407 -2.6787  1.6047
  943SOL     OW 2827   2.281   3.011   1.624 -0.1356  0.2183 -0.3846
  943SOL    HW1 2828   2.219   3.018   1.701  1.6540 -1.1621 -1.4496
  943SOL    HW2 2829   2.376   3.051   1.641  1.6290  2.8394  1.3978
  944SOL     OW 2830   1.917   2.093   2.734  0.1772  0.2292  0.1225
  944SOL    HW1 2831   1.848   2.019   2.726 -0.9187 -1.2141  1.4133
  944SOL    HW2 2832   1.887   2.170   2.678 -0.1335 -0.7153 -0.9120
  945SOL     OW 2833   2.735   1.902   0.940 -0.0425 -0.3213 -0.5290
  945SOL    HW1 2834   2.800   1.834   0.983 -1.6653  1.2710  0.7187
  945SOL    HW2 2835   2.757   1.916   0.841  0.5958  0.6678  0.2588
  946SOL     OW 2836   1.432   1.271   2.946 -0.4370  0.3962  0.1318
  946SOL    HW1 2837   1.428   1.169   2.943  0.4532 -1.4490 -2.7318
  946SOL    HW2 2838   1.393   1.318   3.025  1.5373  0.0217 -3.0993
  947SOL     OW 2839   0.205   0.891   2.205  0.9170 -0.1020  0.0086
  947SOL    HW1 2840   0.106   0.870   2.194 -0.4594  0.3370  1.3492
  947SOL    HW2 2841   0.267   0.813   2.177 -0.9671  0.9074 -0.6239
  948SOL     OW 2842   0.208   1.147   0.280  0.2102 -0.2066 -0.4167
  948SOL    HW1 2843   0.134   1.192   0.340 -1.3918 -0.0232  0.5466
  948SOL    HW2 2844   0.175   1.150   0.183  1.3734  2.5565 -1.5462
  949SOL     OW 2845   0.673   0.209   2.635  0.0503 -0.0045 -0.0416
  949SOL    HW1 2846   0.692   0.310   2.623  0.2909  2.0103 -0.6947
  949SOL    HW2 2847   0.686   0.156   2.547  0.1077 -1.7040 -2.2676
  950SOL     OW 2848   3.028   0.612   1.512  0.0503  0.0628 -0.3220
  950SOL    HW1 2849   3.068   0.668   1.588  1.1986  0.7437 -0.7236
  950SOL    HW2 2850   0.020   0.605   1.437  0.6279  1.1551 -2.0119
  951SOL     OW 2851   0.282   1.090   2.510 -0.1518 -0.4140 -0.5020
  951SOL    HW1 2852   0.221   1.119   2.437  1.7002 -1.3553  1.2469
  951SOL    HW2 2853   0.231   1.020   2.572 -0.3998 -1.2750 -0.9365
  952SOL     OW 2854   1.968   2.322   1.481 -0.4833  0.1854 -0.0685
  952SOL    HW1 2855   1.986   2.375   1.564  2.0008 -2.9216 -1.7350
  952SOL    HW2 2856   1.873   2.346   1.449 -2.6189 -0.6612  0.4234
  953SOL     OW 2857   0.329   2.468   2.967  0.3229 -0.1775  0.0167
  953SOL    HW1 2858   0.403   2.475   3.033 -1.4289  0.9488 -1.8089
  953SOL    HW2 2859   0.265   2.399   3.003 -0.8618 -1.7211  0.1107
  954SOL     OW 2860   2.724   0.693   0.900 -0.3315 -0.0282  0.2885
  954SOL    HW1 2861   2.635   0.705   0.857  2.7358  2.2464  3.8543
  954SOL    HW2 2862   2.800   0.701   0.834  0.7713 -0.6636  1.0423
  955SOL     OW 2863   1.590   1.499   0.088 -0.5452  0.3161 -1.0219
  955SOL    HW1 2864   1.654   1.432   0.043 -0.4065  0.8165  2.7569
  955SOL    HW2 2865   1.600   1.511   0.189 -0.6845  0.6560 -0.6193
  956SOL     OW 2866   1.125   0.644   2.212 -0.1187 -0.5102 -0.5572
  956SOL    HW1 2867   1.059   0.664   2.290  0.9387  0.1590  2.0647
  956SOL    HW2 2868   1.119   0.544   2.194  0.1959  0.4635  0.3111
  957SOL     OW 2869   0.670   0.492   1.827 -0.0167 -0.1415 -0.3330
  957SOL    HW1 2870   0.600   0.556   1.850 -0.4100 -0.7193  0.7876
  957SOL    HW2 2871   0.727   0.469   1.909  0.6130  1.8116 -0.5705
  958SOL     OW 2872   0.444   2.003   0.701  0.0309  0.0512  0.0251
  958SOL    HW1 2873   0.461   2.036   0.797 -1.9577 -0.2334  1.1846
  958SOL    HW2 2874   0.521   2.022   0.637 -0.4849  1.1015 -0.0149
  959SOL     OW 2875   2.248   0.817   1.656  0.0213  0.5403 -0.3585
  959SOL    HW1 2876   2.149   0.843   1.667  0.7912  1.5409  1.6323
  959SOL    HW2 2877   2.278   0.788   1.746 -1.0027  2.5627 -0.0626
  960SOL     OW 2878   0.362   1.337   2.610 -0.0459 -0.4531  0.2755
  960SOL    HW1 2879   0.320   1.247   2.602 -0.3467 -1.4763  1.1265
  960SOL    HW2 2880   0.308   1.401   2.669  1.7872 -0.7760 -0.6244
  961SOL     OW 2881   0.657   1.773   0.736 -0.5236 -0.1440 -0.0513
  961SOL    HW1 2882   0.686   1.863   0.773 -2.9394 -0.3530 -0.9579
  961SOL    HW2 2883   0.624   1.725   0.817  0.9495 -0.3937 -1.4182
  962SOL     OW 2884   0.579   1.435   1.109 -0.0436 -0.0454  0.1222
  962SOL    HW1 2885   0.575   1.334   1.083 -2.8404 -2.4948 -0.9231
  962SOL    HW2 2886   0.602   1.441   1.210  1.5235  2.1900  0.7489
  963SOL     OW 2887   1.507   2.271   2.754 -0.0630 -0.5433  0.1579
  963SOL    HW1 2888   1.427   2.224   2.713 -0.9116  0.4882  0.6559
  963SOL    HW2 2889   1.591   2.270   2.695 -1.8642  0.7588 -1.8992
  964SOL     OW 2890   0.142   2.619   2.558  0.7019 -0.0148 -0.0296
  964SOL    HW1 2891   0.135   2.619   2.664 -2.4386 -0.3247  2.8756
  964SOL    HW2 2892   0.222   2.559   2.541 -2.6385 -0.1519 -0.6500
  965SOL     OW 2893   2.491   2.235   2.546  0.0472  0.4970 -0.2482
  965SOL    HW1 2894   2.547   2.271   2.624 -0.6887  0.4850  2.0313
  965SOL    HW2 2895   2.536   2.237   2.454 -2.1101 -1.5450 -2.7826
  966SOL     OW 2896   2.661   1.459   2.606  0.5661 -0.1865  0.6338
  966SOL    HW1 2897   2.733   1.525   2.586 -3.1167 -3.1918  0.8015
  966SOL    HW2 2898   2.650   1.446   2.709 -0.1414  1.6852 -0.4504
  967SOL     OW 2899   1.923   0.272   0.636 -0.1232 -0.3970 -0.0694
  967SOL    HW1 2900   1.905   0.240   0.731 -0.0086  0.0201 -2.4748
  967SOL    HW2 2901   1.940   0.375   0.634  1.3021  0.9663  1.6182
  968SOL     OW 2902   2.672   0.020   0.617  0.4814  0.4647 -0.7567
  968SOL    HW1 2903   2.596   0.072   0.655  1.6618  0.8850  0.0641
  968SOL    HW2 2904   2.722   0.088   0.560 -1.9902  1.5787  0.3267
  969SOL     OW 2905   0.661   0.818   2.174  0.2339  0.3388 -0.1120
  969SOL    HW1 2906   0.652   0.902   2.116 -0.1898 -1.3682 -0.4745
  969SOL    HW2 2907   0.722   0.840   2.251  0.5640  0.2809  0.0066
  970SOL     OW 2908   1.890   1.516   2.701 -0.2740 -0.0667  0.3032
  970SOL    HW1 2909   1.842   1.507   2.789 -1.1403  0.2612 -1.7306
  970SOL    HW2 2910   1.952   1.595   2.700 -1.1299 -1.6534  1.9232
  971SOL     OW 2911   2.450   0.297   1.769 -0.5691  0.1903  0.7423
  971SOL    HW1 2912   2.361   0.323   1.803 -1.3906  1.0856 -0.4904
  971SOL    HW2 2913   2.443   0.270   1.670  1.2246 -1.4818 -1.7618
  972SOL     OW 2914   0.005   0.578   1.011  0.4842  0.4959  0.2757
  972SOL    HW1 2915   3.046   0.488   0.979  3.4719 -3.4243  0.5037
  972SOL    HW2 2916   0.097   0.580   0.971  1.4028 -1.7109  0.1142
  973SOL     OW 2917   2.848   0.171   2.363  0.1212  0.3049 -0.4672
  973SOL    HW1 2918   2.896   0.119   2.434  1.9512 -0.3241 -0.7345
  973SOL    HW2 2919   2.749   0.200   2.383 -3.1427 -0.4833 -0.7056
  974SOL     OW 2920   3.031   0.947   1.535  0.6466  0.3862 -0.4991
  974SOL    HW1 2921   0.025   0.971   1.472 -1.6149  0.2182 -2.9890
  974SOL    HW2 2922   2.949   0.939   1.471  0.7376 -2.1905  0.2803
  975SOL     OW 2923   1.350   3.005   2.031  0.4456  0.1771 -0.3829
  975SOL    HW1 2924   1.439   3.050   2.035 -1.3330 -3.1282  1.1715
  975SOL    HW2 2925   1.362   2.906   2.049 -0.2374  0.6684  3.8735
  976SOL     OW 2926   2.051   1.514   1.485  0.4615  0.0466  0.2716
  976SOL    HW1 2927   2.080   1.570   1.405 -0.1229 -0.7066  0.9332
  976SOL    HW2 2928   2.016   1.569   1.560  2.7965  1.1119 -2.8484
  977SOL     OW 2929   2.640   3.045   0.032 -0.2794 -1.1354 -0.3170
  977SOL    HW1 2930   2.642   3.057   3.011  1.4955 -1.9233 -0.5376
  977SOL    HW2 2931   2.548   3.080   0.071 -3.3150  0.5064  2.0785
  978SOL     OW 2932   2.178   1.048   2.315  0.3547 -0.1665  0.1457
  978SOL    HW1 2933   2.274   1.017   2.309  1.8192 -1.5572 -1.5662
  978SOL    HW2 2934   2.118   0.959   2.329 -1.6657 -0.4960 -0.0988
  979SOL     OW 2935   0.847   0.975   2.338 -0.0892 -0.0344  0.4321
  979SOL    HW1 2936   0.899   1.027   2.265 -0.0910 -1.0442 -0.7605
  979SOL    HW2 2937   0.800   1.044   2.394 -2.0177  0.4955  0.7207
  980SOL     OW 2938   1.685   1.934   2.763 -0.8647 -0.1786 -0.4994
  980SOL    HW1 2939   1.588   1.944   2.755  1.4825 -1.4566  1.3895
  980SOL    HW2 2940   1.728   1.876   2.687  1.6420  0.9665 -0.5754
  981SOL     OW 2941   1.319   0.789   1.872 -0.6263 -0.0259 -0.0926
  981SOL    HW1 2942   1.279   0.792   1.777 -0.8681 -0.1175 -1.5897
  981SOL    HW2 2943   1.346   0.690   1.892 -2.1509  1.6984 -1.2875
  982SOL     OW 2944   0.694   0.004   0.181 -0.1131 -0.6786 -0.0704
  982SOL    HW1 2945   0.625   0.080   0.174  0.6763  0.3473 -0.4441
  982SOL    HW2 2946   0.644   3.000   0.184 -0.2260  1.8936 -0.8545
  983SOL     OW 2947   2.101   0.841   0.138 -0.3440 -0.1924  1.1021
  983SOL    HW1 2948   2.156   0.796   0.065  2.0479  2.2628 -2.7703
  983SOL    HW2 2949   2.154   0.853   0.223  0.5467  0.4200  0.2466
  984SOL     OW 2950   1.283   0.312   2.855 -0.4949  0.1030  0.1228
  984SOL    HW1 2951   1.379   0.290   2.834 -3.2764  0.5809  1.5189
  984SOL    HW2 2952   1.270   0.391   2.924 -1.2707  1.6143  0.8442
  985SOL     OW 2953   1.022   2.614   1.837  0.0018  0.2778  0.3366
  985SOL    HW1 2954   0.966   2.695   1.866  2.0018  0.0875 -2.3366
  985SOL    HW2 2955   1.027   2.608   1.737  0.6318 -1.3688  1.1363
  986SOL     OW 2956   2.507   3.003   1.772  0.3542 -0.0529 -0.0504
  986SOL    HW1 2957   2.505   3.008   1.875 -0.0679  1.5132  2.1089
  986SOL    HW2 2958   2.596   3.036   1.741 -2.9028 -0.5442  0.6447
  987SOL     OW 2959   2.229   1.395   1.212  0.5470  0.4867  0.2034
  987SOL    HW1 2960   2.308   1.365   1.153  1.7947 -1.4789  0.5858
  987SOL    HW2 2961   2.187   1.318   1.265  2.4384 -1.6723  1.7894
  988SOL     OW 2962   2.324   1.083   1.527 -0.0052  0.1030 -0.0068
  988SOL    HW1 2963   2.366   1.058   1.616  1.3976 -0.2035  1.3962
  988SOL    HW2 2964   2.293   1.181   1.534 -1.8788  3.1085 -0.1662
  989SOL     OW 2965   2.105   2.193   0.070  0.6634  0.3793  0.3022
  989SOL    HW1 2966   2.037   2.228   3.081 -2.1326  0.1676 -0.5755
  989SOL    HW2 2967   2.117   2.090   0.057  0.2600 -1.1206 -1.0022
  990SOL     OW 2968   1.418   0.467   2.210 -0.0701  0.3118 -0.1756
  990SOL    HW1 2969   1.410   0.552   2.266  0.1771 -2.7164  2.3109
  990SOL    HW2 2970   1.517   0.426   2.217  1.5121 -2.8703  2.9977
  991SOL     OW 2971   1.337   1.102   0.417 -0.1391  0.2518 -0.5507
  991SOL    HW1 2972   1.279   1.074   0.496  0.1593  0.0925  1.5618
  991SOL    HW2 2973   1.394   1.025   0.388 -3.3244 -0.9128  1.0819
  992SOL     OW 2974   0.139   1.007   1.352 -0.6109 -0.1012 -0.2175
  992SOL    HW1 2975   0.209   1.083   1.368 -0.4294 -1.9522  0.9001
  992SOL    HW2 2976   0.103   1.011   1.257  1.3746  1.6014  0.8132
  993SOL     OW 2977   2.539   0.586   1.896  0.3329  0.6416 -0.3485
  993SOL    HW1 2978   2.524   0.574   1.997  1.9079 -0.8873  3.4000
  993SOL    HW2 2979   2.460   0.539   1.851 -1.2749 -1.4476  1.0426
  994SOL     OW 2980   1.517   1.908   1.880 -0.0718  0.6158  0.7334
  994SOL    HW1 2981   1.542   1.987   1.936 -1.7560 -0.8665 -0.5489
  994SOL    HW2 2982   1.419   1.909   1.849 -1.1255 -0.1777 -2.0320
  995SOL     OW 2983   2.314   1.943   2.981 -0.2182 -0.0802  0.4075
  995SOL    HW1 2984   2.247   1.926   3.055  1.0593  0.1602  1.6866
  995SOL    HW2 2985   2.384   1.869   2.983  0.4519  0.0049  2.5646
  996SOL     OW 2986   2.164   1.605   3.078 -0.4562  0.0413  0.7237
  996SOL    HW1 2987   2.080   1.552   0.008  1.3969 -0.0055  2.6885
  996SOL    HW2 2988   2.197   1.604   2.980 -2.7402 -1.4377 -3.6172
  997SOL     OW 2989   1.755   0.673   2.230  0.2331 -0.0297 -0.4391
  997SOL    HW1 2990   1.752   0.577   2.204 -1.1048 -0.0981 -1.4411
  997SOL    HW2 2991   1.692   0.699   2.310  1.3109 -0.8083  2.9822
  998SOL     OW 2992   2.498   0.752   0.561  0.1625  0.4063  0.3435
  998SOL    HW1 2993   2.451   0.762   0.655 -0.7877 -0.3647  2.5479
  998SOL    HW2 2994   2.442   0.685   0.505  1.2432  1.8868 -0.8787
  999SOL     OW 2995   2.660   1.316   0.644  0.3056  0.4861  0.0093
  999SOL    HW1 2996   2.665   1.418   0.666  2.1128  0.5485 -0.9640
  999SOL    HW2 2997   2.616   1.293   0.551  0.9418  0.0743 -1.8484
 1000SOL     OW 2998   0.512   1.384   1.662 -0.2248 -0.1996 -0.1529
 1000SOL    HW1 2999   0.546   1.314   1.726  1.4130  0.2479 -3.0120
 1000SOL    HW2 3000   0.410   1.383   1.667 -2.0239  0.0069 -1.8441
   3.08213   3.08213   3.08213
