1000 SPC/Fw water molecules t= 361.00000 step= 361000
 3000
    1SOL     OW    1   2.382   2.973   1.512 -0.2911  0.4631  0.0284
    1SOL    HW1    2   2.386   2.870   1.500 -1.0549 -1.0238 -0.1423
    1SOL    HW2    3   2.358   3.017   1.422  1.0695 -1.0785  2.2077
    2SOL     OW    4   2.674   2.272   0.679 -0.0572  0.2709 -0.3531
    2SOL    HW1    5   2.663   2.339   0.754 -0.2581 -2.6296  0.4211
    2SOL    HW2    6   2.724   2.312   0.597 -2.5134 -1.1354 -0.8993
    3SOL     OW    7   1.357   0.090   0.080 -0.5568 -0.3308 -0.7091
    3SOL    HW1    8   1.431   0.140   0.029 -0.6584  0.9817  0.9838
    3SOL    HW2    9   1.331   0.008   0.027 -3.6600 -2.0893 -1.6189
    4SOL     OW   10   1.608   2.883   2.255 -0.3037 -0.1272  0.2870
    4SOL    HW1   11   1.511   2.900   2.232  0.8700  0.2221  1.5932
    4SOL    HW2   12   1.655   2.860   2.166 -1.5671 -1.3096 -1.8431
    5SOL     OW   13   1.970   0.313   1.642 -0.2208 -0.0788  0.0649
    5SOL    HW1   14   1.994   0.415   1.662  0.3084  1.3606  1.3224
    5SOL    HW2   15   1.870   0.300   1.629  1.3710 -3.6808 -1.8743
    6SOL     OW   16   2.087   2.360   0.458 -0.0843  0.0846  0.3612
    6SOL    HW1   17   2.016   2.435   0.440 -1.2426  0.0319 -1.0577
    6SOL    HW2   18   2.129   2.366   0.549  2.0458  2.4514  0.7261
    7SOL     OW   19   1.847   0.942   1.191 -0.3821 -0.2842 -0.1338
    7SOL    HW1   20   1.791   0.975   1.112 -0.5652  1.2014  0.8883
    7SOL    HW2   21   1.849   1.006   1.269 -0.5228  0.4072 -2.6567
    8SOL     OW   22   0.818   1.581   1.311 -0.3221 -0.1174 -0.3484
    8SOL    HW1   23   0.720   1.549   1.290  0.8582 -3.3926 -0.8130
    8SOL    HW2   24   0.886   1.538   1.246  1.4025 -1.5503 -1.8199
    9SOL     OW   25   1.163   2.309   1.936  0.5360 -0.2361  0.1107
    9SOL    HW1   26   1.082   2.365   1.962  0.1074 -0.0475 -1.2077
    9SOL    HW2   27   1.141   2.254   1.853  0.3955 -0.2756  0.0725
   10SOL     OW   28   0.655   2.382   0.652  0.1206 -0.4056  0.4233
   10SOL    HW1   29   0.594   2.427   0.723  0.7025 -1.7738  1.3790
   10SOL    HW2   30   0.679   2.454   0.586 -2.0362 -3.6766  1.8689
   11SOL     OW   31   1.527   2.034   1.433 -0.2652 -0.4467 -0.7754
   11SOL    HW1   32   1.465   2.112   1.449  0.2487  1.3598 -0.7322
   11SOL    HW2   33   1.551   2.033   1.334 -3.0368 -1.1772 -1.3122
   12SOL     OW   34   2.577   0.418   2.152  0.0465 -0.7814 -0.2115
   12SOL    HW1   35   2.668   0.372   2.182  0.0303 -1.1521  1.6598
   12SOL    HW2   36   2.596   0.511   2.114  0.7366  0.7267  1.2424
   13SOL     OW   37   2.646   2.977   0.609  0.3887  0.2153 -0.3050
   13SOL    HW1   38   2.626   2.924   0.691 -3.1582  2.2134 -1.3863
   13SOL    HW2   39   2.741   3.002   0.590 -0.3122  1.4053 -1.1362
   14SOL     OW   40   1.511   1.479   2.962 -0.3247 -0.0380  0.0084
   14SOL    HW1   41   1.563   1.564   2.979 -2.6522  0.7178  0.3790
   14SOL    HW2   42   1.482   1.433   3.048  3.1369 -1.7687 -2.2979
   15SOL     OW   43   2.313   2.486   1.351  0.1192 -0.1466  0.1171
   15SOL    HW1   44   2.387   2.419   1.371 -2.0053 -1.6682 -0.1820
   15SOL    HW2   45   2.229   2.474   1.408 -0.3415 -0.1176  0.1376
   16SOL     OW   46   2.333   2.756   0.433 -0.1245 -0.2715  0.0103
   16SOL    HW1   47   2.234   2.786   0.427  0.6628 -1.3205  2.6518
   16SOL    HW2   48   2.391   2.822   0.382 -0.1957  2.3452 -0.8142
   17SOL     OW   49   0.758   0.508   1.201 -0.1247 -0.3671 -0.2977
   17SOL    HW1   50   0.679   0.457   1.242  1.0070 -0.0310  0.3112
   17SOL    HW2   51   0.735   0.552   1.110  1.0023  0.7727 -1.5646
   18SOL     OW   52   2.021   0.517   0.371 -0.3309  0.3235 -0.1051
   18SOL    HW1   53   1.967   0.477   0.443  0.6330  0.5744 -0.0602
   18SOL    HW2   54   2.039   0.458   0.290  2.8189 -0.2276  0.0130
   19SOL     OW   55   2.041   1.380   0.091  0.0492 -0.3121 -0.3556
   19SOL    HW1   56   2.069   1.387   3.087  0.4695  0.8792  1.3971
   19SOL    HW2   57   2.020   1.474   0.119 -2.1118 -1.1988 -1.2847
   20SOL     OW   58   2.442   1.581   2.366  0.0368 -0.2487 -0.0952
   20SOL    HW1   59   2.515   1.534   2.417 -2.8652  3.1588 -1.9185
   20SOL    HW2   60   2.485   1.643   2.294  1.5141  0.1973 -0.0298
   21SOL     OW   61   1.427   0.174   0.665 -0.0513  0.7381 -0.3351
   21SOL    HW1   62   1.415   0.222   0.757  0.8236 -0.0911  1.6567
   21SOL    HW2   63   1.425   0.243   0.589 -0.6904 -0.8296  1.2706
   22SOL     OW   64   2.706   0.420   1.476  0.2657 -0.1874  0.2234
   22SOL    HW1   65   2.699   0.519   1.450  0.1102 -1.4672 -0.1395
   22SOL    HW2   66   2.664   0.358   1.409 -1.5020  0.1639 -1.2293
   23SOL     OW   67   0.263   0.303   1.710  0.8322 -0.0534  0.1094
   23SOL    HW1   68   0.262   0.398   1.672 -1.1677 -0.8944  2.3873
   23SOL    HW2   69   0.171   0.295   1.754 -2.0718  1.3595  2.3678
   24SOL     OW   70   2.688   2.656   0.355 -0.3423  0.0713 -0.3129
   24SOL    HW1   71   2.792   2.677   0.368  1.6166 -1.6125  3.2399
   24SOL    HW2   72   2.635   2.744   0.375  0.8657  1.4686 -1.1870
   25SOL     OW   73   1.033   2.757   2.768 -0.3061 -0.0958 -0.0685
   25SOL    HW1   74   0.973   2.712   2.702  1.7991 -0.7602  2.4321
   25SOL    HW2   75   1.064   2.845   2.733 -0.7465 -1.1015 -1.1140
   26SOL     OW   76   1.308   2.634   0.391 -0.5118  0.0418  0.0349
   26SOL    HW1   77   1.319   2.535   0.406 -1.4550  1.5388  0.3391
   26SOL    HW2   78   1.330   2.689   0.476  2.1803  0.2106 -0.8977
   27SOL     OW   79   2.157   0.824   0.858 -0.0201  0.0601  0.0135
   27SOL    HW1   80   2.118   0.875   0.936 -0.1377  0.5090  0.1868
   27SOL    HW2   81   2.256   0.813   0.871 -1.4081 -0.3389  2.0606
   28SOL     OW   82   1.003   1.483   1.113  0.1959 -0.3314  0.1026
   28SOL    HW1   83   0.983   1.404   1.054 -1.7050  1.1079 -2.5814
   28SOL    HW2   84   1.100   1.509   1.103 -0.8096 -2.2898  0.4018
   29SOL     OW   85   3.061   2.925   1.724 -0.3039 -0.3291 -0.1913
   29SOL    HW1   86   3.069   2.989   1.801 -0.8439 -1.6840  0.3451
   29SOL    HW2   87   2.964   2.910   1.700  1.8304 -0.3939  0.3047
   30SOL     OW   88   1.293   0.028   1.216 -0.0482 -0.3019 -0.1670
   30SOL    HW1   89   1.235   3.055   1.166 -1.3779 -0.8460  0.1643
   30SOL    HW2   90   1.256   0.047   1.310 -1.1794 -0.7476 -1.3381
   31SOL     OW   91   1.803   2.708   2.365 -0.1304 -0.5174  0.2805
   31SOL    HW1   92   1.719   2.751   2.321 -1.7561  0.0179 -1.0755
   31SOL    HW2   93   1.878   2.777   2.349 -0.7399  0.3196  1.4842
   32SOL     OW   94   1.069   1.464   0.191  0.1035  0.0091  0.0636
   32SOL    HW1   95   1.085   1.486   0.094  1.9349 -1.0637 -2.1570
   32SOL    HW2   96   1.045   1.544   0.248  0.2287 -1.4613  0.9224
   33SOL     OW   97   3.023   0.989   2.503  0.7386  0.5897 -0.2349
   33SOL    HW1   98   3.057   0.935   2.424  0.3543  0.6841 -1.3707
   33SOL    HW2   99   3.073   0.949   2.581  0.4773  0.2253 -2.4970
   34SOL     OW  100   2.095   0.081   0.520 -0.4883 -0.0275 -0.1354
   34SOL    HW1  101   2.094   0.118   0.619  0.4945  1.2708  2.0478
   34SOL    HW2  102   2.011   0.028   0.499  0.2794  0.3747 -1.5678
   35SOL     OW  103   2.595   2.350   1.933  0.0615  0.1378 -0.4806
   35SOL    HW1  104   2.655   2.383   2.005  0.5060 -1.4955 -1.9116
   35SOL    HW2  105   2.634   2.286   1.864  0.5626  1.1049 -1.2779
   36SOL     OW  106   2.282   2.179   2.808  0.3398 -0.3236 -0.0229
   36SOL    HW1  107   2.351   2.230   2.757 -1.1626 -3.1097  1.9886
   36SOL    HW2  108   2.197   2.231   2.809  0.4434  1.0628  1.1625
   37SOL     OW  109   1.779   0.322   1.921 -0.0209  0.0528  0.3019
   37SOL    HW1  110   1.812   0.415   1.915 -1.0433 -3.8558 -0.7462
   37SOL    HW2  111   1.758   0.280   1.829 -1.3312 -1.3458  0.6589
   38SOL     OW  112   0.016   0.464   2.794 -0.2718 -0.4549  0.4575
   38SOL    HW1  113   3.024   0.419   2.756  0.2594  0.5752 -1.7910
   38SOL    HW2  114   3.085   0.504   2.881 -1.6163 -0.1600  0.4042
   39SOL     OW  115   1.969   1.156   1.640 -0.3050  0.0140 -0.2575
   39SOL    HW1  116   2.040   1.119   1.705  0.8796  1.5504 -0.3185
   39SOL    HW2  117   1.960   1.257   1.662  0.5386  0.2341  0.2314
   40SOL     OW  118   1.213   2.178   0.539  0.2700  0.1887  0.1742
   40SOL    HW1  119   1.163   2.196   0.628 -0.9045  1.4548  1.4390
   40SOL    HW2  120   1.157   2.127   0.471 -0.9794 -3.7718 -1.2427
   41SOL     OW  121   2.033   1.611   1.031  0.2496  0.0575  0.2557
   41SOL    HW1  122   2.119   1.607   0.983 -0.7851  0.7891 -0.8456
   41SOL    HW2  123   1.969   1.666   0.980  2.5540 -0.6779 -0.2412
   42SOL     OW  124   0.545   0.298   1.134  0.1296  0.4594 -0.2379
   42SOL    HW1  125   0.555   0.215   1.195 -1.9737 -2.0641  0.4193
   42SOL    HW2  126   0.475   0.361   1.171  1.4402  0.2275 -1.9085
   43SOL     OW  127   3.024   1.681   2.545  0.4236  0.1017 -0.0845
   43SOL    HW1  128   3.044   1.773   2.586 -0.1575  2.1629 -0.3637
   43SOL    HW2  129   3.024   1.613   2.617 -0.0991  2.6293  0.2707
   44SOL     OW  130   2.047   2.857   1.279  0.3535  0.5804  0.3477
   44SOL    HW1  131   2.051   2.848   1.384 -1.1212 -1.0593  0.9663
   44SOL    HW2  132   2.113   2.797   1.232  1.0231 -0.3435  0.9891
   45SOL     OW  133   1.137   0.180   2.314 -0.3642 -0.1112 -0.3237
   45SOL    HW1  134   1.219   0.122   2.339 -1.2888  2.4087 -1.2687
   45SOL    HW2  135   1.081   0.138   2.238  1.2596 -0.2418 -0.4909
   46SOL     OW  136   0.848   2.671   2.552 -0.3021  0.1442 -0.5925
   46SOL    HW1  137   0.849   2.692   2.453  3.7462  0.7841 -0.2134
   46SOL    HW2  138   0.762   2.620   2.572 -0.3562 -0.3261 -1.7553
   47SOL     OW  139   0.808   1.905   0.780  0.0812 -0.2842 -0.6967
   47SOL    HW1  140   0.908   1.879   0.777 -2.3730 -0.9922 -0.2535
   47SOL    HW2  141   0.772   1.923   0.872 -0.5040  1.6272 -1.4735
   48SOL     OW  142   1.140   2.737   0.936 -0.0764  0.6938 -0.0076
   48SOL    HW1  143   1.174   2.668   0.872  2.1249  2.2183  0.3415
   48SOL    HW2  144   1.169   2.715   1.031  0.1194 -0.5728  1.6736
   49SOL     OW  145   2.332   0.217   3.008 -0.0481 -0.2315  0.0925
   49SOL    HW1  146   2.356   0.122   3.045 -0.3070 -1.4810  0.3395
   49SOL    HW2  147   2.380   0.237   2.924 -1.2204 -3.5063  1.4668
   50SOL     OW  148   1.753   0.163   0.133  0.2835 -0.4201 -0.1886
   50SOL    HW1  149   1.847   0.120   0.124  2.4695  0.0429  0.0516
   50SOL    HW2  150   1.753   0.259   0.104  0.5025 -0.3427  0.8814
   51SOL     OW  151   2.263   0.648   1.209 -0.3748  0.1525  0.4529
   51SOL    HW1  152   2.265   0.750   1.226 -0.2239  1.2139  0.4224
   51SOL    HW2  153   2.263   0.605   1.301 -2.0838  2.1255 -1.1583
   52SOL     OW  154   0.738   1.598   0.136 -0.4365  0.0876  0.2533
   52SOL    HW1  155   0.790   1.543   0.066 -1.7744 -0.6117 -0.6275
   52SOL    HW2  156   0.760   1.695   0.114  1.2554  0.4580 -0.9547
   53SOL     OW  157   0.216   1.437   2.791 -0.1562  0.4290 -0.4982
   53SOL    HW1  158   0.194   1.340   2.770  2.2747 -0.1443 -0.9295
   53SOL    HW2  159   0.280   1.447   2.869 -0.2520  1.4821 -3.4780
   54SOL     OW  160   2.812   1.142   1.756 -0.0769  0.2174 -0.2742
   54SOL    HW1  161   2.850   1.049   1.776 -1.7600 -0.6980 -0.3682
   54SOL    HW2  162   2.882   1.207   1.775 -1.4517  1.0318  0.0274
   55SOL     OW  163   2.288   1.999   0.359 -0.1400 -0.2245  0.0521
   55SOL    HW1  164   2.390   2.010   0.343  1.2668  0.8110 -0.2849
   55SOL    HW2  165   2.268   1.918   0.414  2.1753  0.7142  1.9483
   56SOL     OW  166   1.819   3.062   1.555 -0.3713  0.1965 -0.3911
   56SOL    HW1  167   1.838   2.975   1.608 -1.5160  0.6888 -0.3356
   56SOL    HW2  168   1.868   3.065   1.467  0.0909 -1.3758  1.4943
   57SOL     OW  169   1.575   1.277   2.760  0.5375 -1.1317 -0.5444
   57SOL    HW1  170   1.618   1.192   2.799 -1.6190 -0.5565  1.2814
   57SOL    HW2  171   1.570   1.342   2.837  0.7428 -0.2836  0.4627
   58SOL     OW  172   0.109   0.552   1.296 -0.0945  0.0621 -0.2730
   58SOL    HW1  173   0.083   0.580   1.390  1.3641 -2.4929 -0.3784
   58SOL    HW2  174   0.053   0.468   1.262 -2.0397 -1.0790  0.3460
   59SOL     OW  175   1.338   2.667   0.131  0.2144  1.0926 -0.0404
   59SOL    HW1  176   1.324   2.668   0.233  1.7846 -0.4709  0.6344
   59SOL    HW2  177   1.257   2.691   0.074  1.9009 -0.0026 -1.7886
   60SOL     OW  178   0.128   1.990   2.858 -0.2014 -0.0317  0.8267
   60SOL    HW1  179   0.195   1.920   2.893 -3.7009 -0.6074 -0.8345
   60SOL    HW2  180   0.166   2.083   2.859 -1.3912 -1.5970 -1.3931
   61SOL     OW  181   0.783   2.334   1.119  0.7197  0.2738 -0.4137
   61SOL    HW1  182   0.790   2.278   1.203  0.2882  2.5022 -1.6372
   61SOL    HW2  183   0.783   2.430   1.151  0.2190  0.6874 -0.5976
   62SOL     OW  184   1.583   1.589   2.634 -0.0665  0.1444  0.1852
   62SOL    HW1  185   1.485   1.584   2.664  1.6772 -0.2154  1.0571
   62SOL    HW2  186   1.646   1.538   2.694 -0.7414 -0.3902  0.3732
   63SOL     OW  187   2.128   1.865   0.186  0.3496  0.2429  1.1118
   63SOL    HW1  188   2.037   1.910   0.166  0.2374 -1.1987  0.4089
   63SOL    HW2  189   2.182   1.925   0.251  0.8522 -0.3926  1.4908
   64SOL     OW  190   2.041   1.183   0.292  0.2952  0.0200  0.3989
   64SOL    HW1  191   2.033   1.254   0.221 -0.9045  0.8122  1.4621
   64SOL    HW2  192   2.139   1.153   0.299  1.4552 -1.4908 -1.3250
   65SOL     OW  193   2.282   1.783   2.114 -0.0716  0.8978 -0.1714
   65SOL    HW1  194   2.238   1.699   2.084  0.7096  2.0558 -0.6637
   65SOL    HW2  195   2.376   1.764   2.155 -0.0455 -1.3001 -0.6455
   66SOL     OW  196   0.462   1.242   1.476  0.3741  0.1727 -0.2973
   66SOL    HW1  197   0.433   1.157   1.428  1.2714  1.1199 -0.8475
   66SOL    HW2  198   0.380   1.308   1.503 -2.6924  0.1531  0.8711
   67SOL     OW  199   2.019   0.040   2.605 -0.0187 -0.4828  0.0050
   67SOL    HW1  200   1.917   0.039   2.630 -0.7925  2.7944 -1.7927
   67SOL    HW2  201   2.020   0.084   2.512 -0.3491 -1.8819  0.4353
   68SOL     OW  202   1.383   2.250   1.512 -0.0452 -0.1579 -0.0635
   68SOL    HW1  203   1.309   2.295   1.453  0.4668  2.6151  1.8025
   68SOL    HW2  204   1.386   2.305   1.597  2.0496 -2.2145  2.1974
   69SOL     OW  205   0.543   2.554   0.023  0.2335  0.4122 -0.1245
   69SOL    HW1  206   0.591   2.483   0.080  1.6429  1.7843 -1.1455
   69SOL    HW2  207   0.608   2.586   3.043  2.7585 -0.2657  1.8736
   70SOL     OW  208   0.241   0.681   2.197  0.5020  0.2875 -0.1705
   70SOL    HW1  209   0.197   0.643   2.110 -0.3740  1.8273  0.2809
   70SOL    HW2  210   0.282   0.774   2.188 -1.3044  1.0351 -0.5682
   71SOL     OW  211   0.843   1.155   2.599 -0.6423  0.4044  0.4966
   71SOL    HW1  212   0.742   1.162   2.615 -0.0180  0.9806  1.8373
   71SOL    HW2  213   0.884   1.062   2.608 -0.6823 -0.1529  2.3773
   72SOL     OW  214   3.027   1.763   2.273  0.0554  0.1980 -0.3384
   72SOL    HW1  215   3.023   1.722   2.364 -0.6852  1.0828 -0.8186
   72SOL    HW2  216   3.027   1.868   2.278 -1.4906  0.6255 -0.9309
   73SOL     OW  217   1.614   1.602   0.264 -0.0663  0.7866 -0.1587
   73SOL    HW1  218   1.624   1.693   0.224 -1.4701 -2.1261 -0.2391
   73SOL    HW2  219   1.553   1.599   0.347 -2.3698 -2.8417  4.3624
   74SOL     OW  220   2.347   3.074   2.699 -0.0547 -0.2021  1.0990
   74SOL    HW1  221   2.265   3.040   2.751 -3.6776 -3.1049  0.8696
   74SOL    HW2  222   2.310   0.027   2.615 -0.7152  3.0963 -0.1456
   75SOL     OW  223   1.622   2.056   1.187  0.5818 -0.1246  0.0736
   75SOL    HW1  224   1.668   2.143   1.205 -1.5524  0.2257 -1.1966
   75SOL    HW2  225   1.675   2.003   1.117  2.0311 -0.5484 -0.8806
   76SOL     OW  226   0.074   1.925   1.954 -0.1113 -0.0049  0.1301
   76SOL    HW1  227   0.038   1.831   1.966  1.4255 -1.9304 -3.9647
   76SOL    HW2  228   0.104   1.945   1.861 -1.0389  0.9052  0.3000
   77SOL     OW  229   0.031   0.045   1.929 -0.0932  0.1756 -0.5258
   77SOL    HW1  230   0.114   0.007   1.878 -3.6742 -0.1020 -0.8965
   77SOL    HW2  231   0.009   0.137   1.901 -0.9301 -2.1527  2.6102
   78SOL     OW  232   2.505   1.049   0.192 -0.4895  0.1098  0.0431
   78SOL    HW1  233   2.542   1.092   0.106 -0.4840 -1.9650 -2.2161
   78SOL    HW2  234   2.583   1.020   0.246 -0.9337 -0.2060  0.0780
   79SOL     OW  235   2.923   1.257   2.451  0.3348  0.3597  0.2469
   79SOL    HW1  236   2.899   1.308   2.532  1.0029 -3.8793 -2.2468
   79SOL    HW2  237   2.996   1.184   2.468  1.0266 -0.5613 -0.5294
   80SOL     OW  238   1.573   1.345   1.474 -0.0204 -0.4117  0.0000
   80SOL    HW1  239   1.557   1.308   1.568  0.7849  0.6404  0.3016
   80SOL    HW2  240   1.547   1.445   1.470 -1.4252  0.5090  0.0637
   81SOL     OW  241   2.151   1.056   1.830 -0.0149 -0.1290  0.0531
   81SOL    HW1  242   2.108   0.967   1.860  0.3735 -1.0181  0.1045
   81SOL    HW2  243   2.226   1.028   1.766  0.1356  1.8282 -1.1871
   82SOL     OW  244   1.551   1.634   1.769  0.0670  0.3680  0.9569
   82SOL    HW1  245   1.526   1.591   1.855  0.1115 -1.0240 -1.0822
   82SOL    HW2  246   1.632   1.585   1.726  1.6806  0.3678 -0.7968
   83SOL     OW  247   0.095   0.352   0.279  0.7609  0.2020  0.4779
   83SOL    HW1  248   0.129   0.308   0.192 -0.1169  1.5526 -0.5965
   83SOL    HW2  249   0.116   0.291   0.360  0.0101  0.5780 -0.5635
   84SOL     OW  250   3.051   0.862   2.996  0.2603  0.4883  0.3172
   84SOL    HW1  251   0.013   0.842   3.077 -0.0575  3.1267 -0.6723
   84SOL    HW2  252   3.034   0.963   2.989 -1.0755 -1.0680  1.6486
   85SOL     OW  253   2.410   2.110   1.034  0.5685 -0.1794  0.1151
   85SOL    HW1  254   2.386   2.021   0.992  2.8194 -1.1599  1.2733
   85SOL    HW2  255   2.517   2.122   1.032  1.3330 -0.0081 -1.7611
   86SOL     OW  256   0.358   2.477   1.364 -0.4251  0.2704 -0.1073
   86SOL    HW1  257   0.397   2.567   1.378  1.4210 -0.2047 -2.5823
   86SOL    HW2  258   0.403   2.446   1.276  3.1706  0.1608 -1.0632
   87SOL     OW  259   0.621   2.490   2.190 -0.0365 -0.2061  0.1727
   87SOL    HW1  260   0.680   2.563   2.224 -3.5037 -6.0890 -1.1003
   87SOL    HW2  261   0.525   2.516   2.216 -1.0956  2.3838  0.4507
   88SOL     OW  262   0.163   1.947   0.298 -0.0438 -0.3322  0.8547
   88SOL    HW1  263   0.103   2.009   0.241 -0.3983  1.1866  0.0981
   88SOL    HW2  264   0.162   1.852   0.258 -0.1468  0.7289 -1.6363
   89SOL     OW  265   0.827   1.022   0.644  0.1302 -0.2980  0.4221
   89SOL    HW1  266   0.735   1.011   0.687  0.7750  0.2944  1.2688
   89SOL    HW2  267   0.854   0.941   0.591  0.1965 -0.6396  1.8964
   90SOL     OW  268   0.223   1.380   2.164  0.4859 -0.5598  0.0530
   90SOL    HW1  269   0.198   1.480   2.156  1.4042  1.9810 -0.4545
   90SOL    HW2  270   0.139   1.324   2.145  1.6246  3.3950 -3.3289
   91SOL     OW  271   1.685   0.985   0.978 -0.1519 -0.2457 -0.0406
   91SOL    HW1  272   1.670   1.084   0.972  0.7703  1.2008  0.0594
   91SOL    HW2  273   1.673   0.945   0.887 -1.8016  0.2723  2.5681
   92SOL     OW  274   2.122   1.210   0.885 -0.3442 -0.1738 -0.4591
   92SOL    HW1  275   2.036   1.269   0.873 -5.0607  1.7939 -0.3816
   92SOL    HW2  276   2.135   1.149   0.805  0.1105 -3.9500  0.6915
   93SOL     OW  277   2.776   0.779   2.352  0.2407  0.5539  0.6721
   93SOL    HW1  278   2.715   0.737   2.282  0.4066 -0.4857 -0.4875
   93SOL    HW2  279   2.839   0.715   2.399  2.0683 -1.8476  3.1403
   94SOL     OW  280   2.140   1.882   2.664 -0.5856  0.0375 -0.8927
   94SOL    HW1  281   2.230   1.867   2.617 -0.2679 -0.6138  1.2633
   94SOL    HW2  282   2.153   1.932   2.754 -1.8159  0.7908  1.0042
   95SOL     OW  283   2.799   0.207   1.087  0.6964 -0.1680  0.0325
   95SOL    HW1  284   2.826   0.228   0.992  2.0288  0.3191 -1.5685
   95SOL    HW2  285   2.831   0.114   1.108  0.2834 -0.4599 -2.8689
   96SOL     OW  286   2.436   2.688   1.489  0.2205  0.7555 -0.5212
   96SOL    HW1  287   2.452   2.666   1.589  1.2489 -0.9159 -0.0921
   96SOL    HW2  288   2.386   2.612   1.443  0.0875 -1.2257  3.1679
   97SOL     OW  289   2.675   0.991   1.550  0.3279 -0.1554  0.7168
   97SOL    HW1  290   2.751   1.000   1.478  0.9937  1.3430 -0.4865
   97SOL    HW2  291   2.705   1.042   1.629 -3.3232 -0.9955 -2.9000
   98SOL     OW  292   1.843   2.589   1.835  0.7767 -0.2574 -0.6221
   98SOL    HW1  293   1.934   2.579   1.879  0.5366 -0.0849 -0.8425
   98SOL    HW2  294   1.817   2.500   1.786 -0.0834  0.6809 -1.0231
   99SOL     OW  295   0.391   2.712   1.556  0.4339 -0.0445 -0.5464
   99SOL    HW1  296   0.385   2.625   1.609  0.6991 -3.9116 -0.6317
   99SOL    HW2  297   0.479   2.759   1.577 -0.0556  1.9175  0.5001
  100SOL     OW  298   1.682   0.380   2.682 -0.0266  0.5448 -0.1074
  100SOL    HW1  299   1.697   0.396   2.583 -2.0348  0.4442 -2.1732
  100SOL    HW2  300   1.724   0.450   2.743  1.2337  1.0561  0.2783
  101SOL     OW  301   2.439   0.490   2.679 -0.0059  0.1947  0.4408
  101SOL    HW1  302   2.367   0.422   2.702  1.4748 -0.9923  1.1109
  101SOL    HW2  303   2.425   0.527   2.584 -0.3086 -1.1017  2.6662
  102SOL     OW  304   0.482   0.938   1.400  0.5788  0.0275 -0.0698
  102SOL    HW1  305   0.419   0.889   1.468 -0.2391  0.2929 -2.8275
  102SOL    HW2  306   0.576   0.917   1.421 -2.3759 -1.1624 -1.5281
  103SOL     OW  307   0.929   0.875   2.615  0.0213 -0.4319  0.1132
  103SOL    HW1  308   1.019   0.884   2.568  0.4551  2.1931  1.0947
  103SOL    HW2  309   0.914   0.779   2.636 -0.0762 -1.2751 -2.3363
  104SOL     OW  310   0.233   0.858   2.563 -0.7617  0.4757  0.8172
  104SOL    HW1  311   0.138   0.838   2.592  0.1107 -0.2818  2.0702
  104SOL    HW2  312   0.278   0.762   2.544  0.8244 -1.7366 -0.1835
  105SOL     OW  313   2.212   1.954   1.485  0.4149  0.5797 -0.1356
  105SOL    HW1  314   2.181   2.024   1.549  1.3436 -0.3158 -1.3945
  105SOL    HW2  315   2.126   1.911   1.453 -1.8820  2.9455 -0.1909
  106SOL     OW  316   1.788   3.066   0.569  0.1751  0.2878 -0.4280
  106SOL    HW1  317   1.740   2.989   0.518 -2.7706 -2.0056 -0.5442
  106SOL    HW2  318   1.837   3.020   0.644 -1.8565 -0.8054 -4.1429
  107SOL     OW  319   1.989   2.278   1.095 -0.1976  0.2563 -0.3035
  107SOL    HW1  320   1.971   2.177   1.091  0.2876  0.4280  0.3556
  107SOL    HW2  321   2.090   2.297   1.087  1.8669 -2.0200  1.1477
  108SOL     OW  322   2.708   2.653   1.501 -0.3864 -0.0546  0.0892
  108SOL    HW1  323   2.738   2.562   1.542  0.5405  0.9954 -0.3908
  108SOL    HW2  324   2.609   2.647   1.493 -0.0568 -2.1116  0.2206
  109SOL     OW  325   1.948   2.367   0.841  0.2129  0.7597 -0.1595
  109SOL    HW1  326   2.031   2.325   0.802 -0.0832  1.7474 -0.5979
  109SOL    HW2  327   1.939   2.348   0.943  1.9954  0.3500 -0.3209
  110SOL     OW  328   0.927   1.666   1.911 -0.7650  1.0068  0.3338
  110SOL    HW1  329   0.955   1.571   1.941 -0.4406  1.0896  0.3711
  110SOL    HW2  330   1.001   1.712   1.862 -0.5069 -0.2833  0.8137
  111SOL     OW  331   1.699   2.299   2.184 -0.2649 -1.1086 -0.1024
  111SOL    HW1  332   1.690   2.254   2.095 -0.7823 -1.0920 -0.1166
  111SOL    HW2  333   1.625   2.369   2.199 -0.9443 -0.6715 -1.4233
  112SOL     OW  334   1.573   1.708   2.391 -0.2456  0.5346  0.0351
  112SOL    HW1  335   1.630   1.785   2.363 -0.3664 -1.7394 -1.1965
  112SOL    HW2  336   1.601   1.676   2.481 -0.8855  0.2202 -3.5281
  113SOL     OW  337   1.847   2.012   1.925 -0.0018 -0.4137 -0.3284
  113SOL    HW1  338   1.776   2.084   1.930  1.5886  0.9886 -0.4628
  113SOL    HW2  339   1.819   1.919   1.962 -1.5667  1.9335 -0.0432
  114SOL     OW  340   3.062   1.037   1.448  0.0709 -0.1700  0.4615
  114SOL    HW1  341   3.019   1.097   1.378  1.2228  0.4326  4.4568
  114SOL    HW2  342   3.005   0.953   1.453 -0.4745 -0.5973 -1.7499
  115SOL     OW  343   0.783   0.659   0.131  0.0900 -0.1022 -0.0852
  115SOL    HW1  344   0.718   0.640   0.209 -0.4214  3.0623  0.5911
  115SOL    HW2  345   0.829   0.746   0.145 -4.4236  0.1072  0.4681
  116SOL     OW  346   2.968   2.035   2.296  0.1670 -0.4224 -0.6567
  116SOL    HW1  347   2.952   2.042   2.195 -0.8482 -1.7490  0.3648
  116SOL    HW2  348   2.883   2.004   2.343 -1.3587  1.2493 -0.5369
  117SOL     OW  349   2.947   2.544   0.746 -0.0280  0.8065 -0.1275
  117SOL    HW1  350   2.981   2.522   0.654 -1.9765  2.0707  1.2385
  117SOL    HW2  351   3.011   2.499   0.814 -1.4498  1.1118 -1.6499
  118SOL     OW  352   0.806   1.735   2.918 -0.1214 -0.1671  0.4042
  118SOL    HW1  353   0.737   1.811   2.919 -1.4909  1.6799 -2.3285
  118SOL    HW2  354   0.888   1.759   2.967 -1.1686 -0.2902 -1.4118
  119SOL     OW  355   0.496   1.935   0.338  0.2781 -0.6294  0.1565
  119SOL    HW1  356   0.517   1.925   0.437  0.6168  1.9118 -2.0845
  119SOL    HW2  357   0.463   2.027   0.318  1.6970 -2.0570  0.0465
  120SOL     OW  358   1.150   0.532   0.131  0.0940 -0.2932  0.2717
  120SOL    HW1  359   1.143   0.556   0.231 -1.5184  0.1108  2.0060
  120SOL    HW2  360   1.123   0.440   0.111  1.1192  2.4198  0.7612
  121SOL     OW  361   1.442   2.398   0.730 -0.0453 -0.1545 -0.0285
  121SOL    HW1  362   1.420   2.304   0.761  1.7916 -0.1405 -0.2849
  121SOL    HW2  363   1.422   2.404   0.631 -1.5145 -1.8061  2.2654
  122SOL     OW  364   2.953   2.321   1.821  0.0220  0.9514  0.1051
  122SOL    HW1  365   3.044   2.316   1.776 -1.1108 -0.1998  2.1417
  122SOL    HW2  366   2.968   2.347   1.915  0.3529  0.5937  0.2001
  123SOL     OW  367   0.650   1.617   0.813  0.4228  0.2830  0.0599
  123SOL    HW1  368   0.747   1.644   0.800  0.1296  0.5293 -0.8618
  123SOL    HW2  369   0.588   1.633   0.733 -0.8196  1.5003 -0.1759
  124SOL     OW  370   0.083   0.986   0.431 -0.0040 -0.1464  0.2550
  124SOL    HW1  371   0.006   0.915   0.426  1.4785  0.4031  0.5317
  124SOL    HW2  372   0.061   1.067   0.368 -0.3178  3.3768 -0.8523
  125SOL     OW  373   0.362   0.792   2.936 -0.6165 -0.0848 -0.1047
  125SOL    HW1  374   0.332   0.708   2.888 -2.5488 -2.1661 -0.8003
  125SOL    HW2  375   0.314   0.798   3.028 -1.3892  1.3793  2.5479
  126SOL     OW  376   2.987   1.742   0.504  0.0636 -0.3419  0.5159
  126SOL    HW1  377   2.963   1.660   0.554  2.5705  1.0591 -2.1951
  126SOL    HW2  378   3.033   1.811   0.565 -1.2740  1.1619  3.0278
  127SOL     OW  379   1.416   2.440   1.965  0.2573 -0.0308 -0.0974
  127SOL    HW1  380   1.331   2.388   1.956  0.3834  2.7668  1.5452
  127SOL    HW2  381   1.434   2.447   2.066 -0.0320 -3.2884  1.2833
  128SOL     OW  382   1.172   1.188   0.118 -0.2383 -0.2542  0.3688
  128SOL    HW1  383   1.121   1.135   0.049 -0.9376  1.0801 -1.2904
  128SOL    HW2  384   1.122   1.264   0.158 -0.6442 -1.1269  0.2443
  129SOL     OW  385   1.955   1.892   1.702 -0.5304  0.0234  0.1213
  129SOL    HW1  386   1.910   1.958   1.638 -0.3663 -1.3736  2.1342
  129SOL    HW2  387   1.935   1.912   1.800 -1.4919  0.2757  0.6682
  130SOL     OW  388   2.145   1.663   1.701 -0.2257  0.0436  0.1844
  130SOL    HW1  389   2.222   1.691   1.763  0.7456 -0.7291 -0.0799
  130SOL    HW2  390   2.080   1.744   1.706  1.7215  0.2476  1.3183
  131SOL     OW  391   2.838   3.024   2.896 -0.2272 -0.2328  0.6155
  131SOL    HW1  392   2.751   3.063   2.852 -0.2202  2.3054 -0.9972
  131SOL    HW2  393   2.841   2.923   2.882 -0.2893 -0.7220 -0.5994
  132SOL     OW  394   2.486   2.117   0.589 -0.0066  0.2027 -0.5177
  132SOL    HW1  395   2.515   2.069   0.512 -1.1107  0.8199  1.6217
  132SOL    HW2  396   2.556   2.184   0.627  3.0738  0.2006  0.4399
  133SOL     OW  397   0.626   0.199   2.311  0.1113 -0.8833 -0.6489
  133SOL    HW1  398   0.550   0.150   2.263  2.2799  2.2383 -1.5816
  133SOL    HW2  399   0.640   0.288   2.266 -1.8764 -0.3641 -2.6908
  134SOL     OW  400   2.908   2.025   0.019  0.6730 -0.5810  0.2591
  134SOL    HW1  401   2.941   1.934   3.084 -3.2091  4.0656  0.8526
  134SOL    HW2  402   2.812   2.035   3.090 -1.4438  0.0693  0.1359
  135SOL     OW  403   1.554   0.883   2.230  0.1825 -0.0327 -0.0574
  135SOL    HW1  404   1.625   0.937   2.281 -0.7921  1.0123  1.4713
  135SOL    HW2  405   1.551   0.922   2.132 -0.7168 -2.1811  1.0266
  136SOL     OW  406   2.415   1.720   0.705 -0.2555  0.2163  0.2918
  136SOL    HW1  407   2.500   1.678   0.669 -0.8997 -0.8620 -1.4865
  136SOL    HW2  408   2.369   1.653   0.765 -1.3233  1.6686  0.0898
  137SOL     OW  409   2.736   1.701   0.796  0.4538 -0.6712 -0.1535
  137SOL    HW1  410   2.689   1.620   0.837  0.6847  0.2287 -1.7227
  137SOL    HW2  411   2.800   1.749   0.861 -1.8271  2.5271 -0.3639
  138SOL     OW  412   2.629   0.556   1.172 -0.5174  0.4574 -0.2091
  138SOL    HW1  413   2.567   0.638   1.179 -0.7755  1.5971  1.7938
  138SOL    HW2  414   2.704   0.564   1.104  1.6411  0.9371 -1.5429
  139SOL     OW  415   0.266   2.620   3.060 -0.3598  0.0556  0.9359
  139SOL    HW1  416   0.365   2.589   3.065  0.2716  0.9377 -1.3821
  139SOL    HW2  417   0.233   2.622   2.965  0.7289  0.3729 -1.0163
  140SOL     OW  418   0.677   1.859   1.514  0.0395 -0.1530 -0.2969
  140SOL    HW1  419   0.729   1.832   1.602 -2.5251 -2.0773 -1.2234
  140SOL    HW2  420   0.734   1.922   1.454  0.8938 -0.6159  0.0305
  141SOL     OW  421   1.086   2.110   0.775  0.2097 -0.1015 -0.4497
  141SOL    HW1  422   1.083   2.007   0.778 -1.5739 -3.6289  0.5353
  141SOL    HW2  423   1.002   2.156   0.808  0.7086 -1.4736  1.8686
  142SOL     OW  424   1.007   0.667   0.829 -0.0787 -0.0746  0.3857
  142SOL    HW1  425   0.928   0.635   0.772 -2.8036 -0.2103 -1.1791
  142SOL    HW2  426   0.989   0.766   0.844 -1.5151 -0.5754 -1.6827
  143SOL     OW  427   0.825   0.961   2.881  0.0230 -0.2123 -0.5463
  143SOL    HW1  428   0.907   0.985   2.936 -0.0725  1.0921 -0.2974
  143SOL    HW2  429   0.841   0.943   2.783  2.2197  1.3169 -0.3016
  144SOL     OW  430   1.752   2.498   0.698 -0.1373  0.2556  0.1823
  144SOL    HW1  431   1.692   2.565   0.743 -0.3403 -1.7367  0.0202
  144SOL    HW2  432   1.819   2.453   0.758 -1.5940  1.3715  1.2169
  145SOL     OW  433   1.857   0.828   2.834  0.2671  0.2518 -0.8824
  145SOL    HW1  434   1.838   0.855   2.737 -0.5563  0.6268  0.9033
  145SOL    HW2  435   1.956   0.823   2.852  2.0793  4.5753  0.6517
  146SOL     OW  436   3.090   2.798   0.768 -0.2738 -0.1806 -0.4041
  146SOL    HW1  437   0.084   2.796   0.815  0.3247  0.3481  0.5792
  146SOL    HW2  438   3.018   2.758   0.826  0.3394  2.8207 -1.3514
  147SOL     OW  439   1.295   0.792   2.038  0.0711 -0.2338  0.5580
  147SOL    HW1  440   1.276   0.859   1.956 -4.5576  0.4140 -2.1962
  147SOL    HW2  441   1.304   0.841   2.125 -4.6246 -1.8608  0.4753
  148SOL     OW  442   1.250   0.522   2.011  0.3280 -0.3800  0.4175
  148SOL    HW1  443   1.290   0.618   2.014 -2.7428  3.6884  0.8276
  148SOL    HW2  444   1.318   0.461   2.059 -0.0552 -1.5210 -2.1111
  149SOL     OW  445   1.628   0.116   2.264 -0.3855  0.2383 -0.0280
  149SOL    HW1  446   1.588   0.209   2.261  2.0546  0.5314 -0.6668
  149SOL    HW2  447   1.621   0.063   2.176  0.2251 -0.5563 -0.0929
  150SOL     OW  448   2.618   0.030   0.161 -0.0435  0.4967  0.8967
  150SOL    HW1  449   2.709   3.082   0.145 -2.6096 -0.4265  0.8063
  150SOL    HW2  450   2.634   0.128   0.194 -0.6648  2.0900 -2.9934
  151SOL     OW  451   0.627   1.210   2.943  0.5592 -0.2372 -0.6293
  151SOL    HW1  452   0.688   1.136   2.914 -0.6443 -0.8955 -1.5292
  151SOL    HW2  453   0.539   1.178   2.988 -0.5192  1.7365  0.0591
  152SOL     OW  454   2.968   0.248   0.897  0.0884  0.3734  0.0351
  152SOL    HW1  455   3.010   0.191   0.822 -0.7189  0.3514 -2.1505
  152SOL    HW2  456   3.031   0.324   0.925  3.0125 -0.2754 -3.2047
  153SOL     OW  457   2.287   0.272   1.529 -0.2836  0.0202 -0.1634
  153SOL    HW1  458   2.218   0.203   1.505  4.2692  1.1278  3.3398
  153SOL    HW2  459   2.380   0.230   1.528  1.5522  1.0612  0.5846
  154SOL     OW  460   1.680   0.382   2.171 -0.8766  0.0605  0.0918
  154SOL    HW1  461   1.663   0.484   2.178 -1.7343 -0.3561 -0.7178
  154SOL    HW2  462   1.674   0.353   2.075 -4.3140  1.5705  1.0608
  155SOL     OW  463   2.975   1.714   0.246 -0.4735  0.5504  0.6571
  155SOL    HW1  464   3.073   1.713   0.226 -0.2417  4.0411  0.1566
  155SOL    HW2  465   2.973   1.729   0.347  2.7820  2.3461  1.1120
  156SOL     OW  466   2.782   1.771   2.854  0.0902 -0.1426 -0.2532
  156SOL    HW1  467   2.874   1.806   2.885  1.6744 -0.9530  1.4771
  156SOL    HW2  468   2.768   1.672   2.882 -0.7300 -0.1992 -1.4639
  157SOL     OW  469   0.689   0.175   0.695 -0.0916 -0.4672  0.0512
  157SOL    HW1  470   0.659   0.077   0.692  2.1877 -0.0103  0.5519
  157SOL    HW2  471   0.655   0.215   0.606 -0.6044  0.3126  1.0080
  158SOL     OW  472   2.308   0.670   1.724 -0.4379 -0.5989  0.0298
  158SOL    HW1  473   2.291   0.587   1.774 -0.0263  3.0726 -3.1660
  158SOL    HW2  474   2.311   0.645   1.629  2.2309  1.1023  0.8834
  159SOL     OW  475   3.039   0.519   0.482  0.2446 -0.1860 -0.4139
  159SOL    HW1  476   2.998   0.437   0.530 -1.1331 -1.4471  0.8731
  159SOL    HW2  477   3.070   0.484   0.392 -1.4411  0.3980  2.6823
  160SOL     OW  478   2.073   2.178   1.951  0.2041 -0.3467 -0.2080
  160SOL    HW1  479   2.037   2.274   1.975  0.9883 -1.3812  1.4326
  160SOL    HW2  480   1.996   2.110   1.953  0.2533  1.4719 -0.6775
  161SOL     OW  481   2.933   0.609   2.469  0.8673 -0.3840 -0.0425
  161SOL    HW1  482   2.925   0.628   2.568 -1.4813 -1.0961  0.9927
  161SOL    HW2  483   2.934   0.508   2.451 -1.3104 -0.9678  0.7289
  162SOL     OW  484   1.016   2.723   1.383 -0.4746 -0.0022 -0.0336
  162SOL    HW1  485   1.056   2.664   1.455 -0.9679 -0.3435  0.3482
  162SOL    HW2  486   1.025   2.825   1.410  0.7113  4.0576 -1.9627
  163SOL     OW  487   2.496   0.090   2.285  0.2110 -0.4694 -0.1442
  163SOL    HW1  488   2.589   0.043   2.296 -2.2289  1.5910  1.0314
  163SOL    HW2  489   2.509   0.189   2.263 -1.7006  1.8255 -1.0601
  164SOL     OW  490   2.190   1.798   3.006 -0.6351 -0.0577 -0.2876
  164SOL    HW1  491   2.168   1.819   0.010 -1.8140  0.0501 -0.6036
  164SOL    HW2  492   2.246   1.712   3.001 -1.2779 -1.8137 -0.4353
  165SOL     OW  493   3.030   0.347   1.204 -0.2895 -1.0255  0.5537
  165SOL    HW1  494   3.086   0.304   1.128 -0.1691 -0.1836  1.7455
  165SOL    HW2  495   2.931   0.330   1.186 -0.2311  0.2789  0.6552
  166SOL     OW  496   2.375   0.836   0.444 -0.1718  0.0821  0.1451
  166SOL    HW1  497   2.462   0.810   0.499  3.2375 -1.1407  0.8603
  166SOL    HW2  498   2.346   0.935   0.457 -0.8658 -0.1062  0.3174
  167SOL     OW  499   2.634   0.943   2.997  0.0971  0.2615 -0.2415
  167SOL    HW1  500   2.553   0.938   2.934 -1.8114  0.8523  0.3523
  167SOL    HW2  501   2.634   1.035   3.035  0.0152 -1.1090 -0.1937
  168SOL     OW  502   1.783   0.153   2.918  0.7244 -0.4004 -0.3021
  168SOL    HW1  503   1.880   0.172   2.941 -0.4325 -0.3796 -1.4267
  168SOL    HW2  504   1.773   0.120   2.821  0.3900 -1.8385  0.4274
  169SOL     OW  505   0.205   1.493   0.938  0.1122 -0.1133  0.2802
  169SOL    HW1  506   0.156   1.445   1.014 -1.0905 -0.3993 -0.9332
  169SOL    HW2  507   0.298   1.457   0.918 -1.7035  2.3243 -0.7613
  170SOL     OW  508   0.089   0.755   1.129  0.8330  0.0817  0.4777
  170SOL    HW1  509   0.127   0.830   1.183 -0.0431 -0.9883 -0.4970
  170SOL    HW2  510   0.093   0.665   1.177 -2.1040 -1.2741 -0.2607
  171SOL     OW  511   2.607   2.016   1.988  0.2712 -0.4515  0.6560
  171SOL    HW1  512   2.650   2.077   1.915  2.9131  2.4887 -0.7187
  171SOL    HW2  513   2.507   2.028   1.978 -1.2487 -0.3590  2.3171
  172SOL     OW  514   0.281   2.268   1.488  0.4167  0.2495  0.2896
  172SOL    HW1  515   0.193   2.241   1.450  0.9250 -0.0636 -0.7071
  172SOL    HW2  516   0.317   2.344   1.430 -0.6947  0.9125 -0.5802
  173SOL     OW  517   1.337   1.386   0.074  0.0029 -0.2444 -0.1546
  173SOL    HW1  518   1.283   1.302   0.070 -1.2375  0.8589 -2.6931
  173SOL    HW2  519   1.278   1.457   0.028  0.5492 -0.3719 -1.8592
  174SOL     OW  520   1.433   0.600   2.858  0.4176  0.2990 -0.2281
  174SOL    HW1  521   1.512   0.617   2.799  0.0331 -1.0015  0.2109
  174SOL    HW2  522   1.447   0.619   2.958  1.9943 -1.4086  1.7628
  175SOL     OW  523   1.268   1.724   1.235  0.5762  0.4429  0.0169
  175SOL    HW1  524   1.356   1.720   1.285  0.7035  0.3075 -1.4910
  175SOL    HW2  525   1.253   1.638   1.183  1.2828 -1.1818  1.7766
  176SOL     OW  526   1.560   0.011   0.263  0.1318  0.2309  0.0608
  176SOL    HW1  527   1.489   0.058   0.211 -1.1337 -0.6350  2.9998
  176SOL    HW2  528   1.648   0.036   0.221 -2.2653  0.1946 -1.4490
  177SOL     OW  529   0.395   1.114   3.013  0.8891 -0.2625 -0.4730
  177SOL    HW1  530   0.312   1.165   3.056 -1.1825 -0.5735  1.5428
  177SOL    HW2  531   0.454   1.070   3.087  1.4949 -0.3043  2.1557
  178SOL     OW  532   2.383   2.360   2.273  0.3599  0.2017 -0.2663
  178SOL    HW1  533   2.394   2.440   2.342  0.2278  2.2044  5.0055
  178SOL    HW2  534   2.366   2.390   2.178 -2.3124 -1.5591  1.3532
  179SOL     OW  535   2.789   0.089   2.574 -0.1557 -0.2191 -0.7214
  179SOL    HW1  536   2.728   0.097   2.655  1.7957 -0.6543  0.2362
  179SOL    HW2  537   2.746   0.070   2.486  2.3493  2.6534  0.9676
  180SOL     OW  538   1.952   0.684   0.799  0.2658 -0.3115 -0.3521
  180SOL    HW1  539   2.030   0.752   0.795  2.3883  1.5010  1.4689
  180SOL    HW2  540   1.936   0.653   0.899 -0.8289 -1.8549  1.2471
  181SOL     OW  541   2.351   1.112   2.229  0.1010  0.1601 -0.8453
  181SOL    HW1  542   2.422   1.185   2.249  0.0646  2.0141  0.8157
  181SOL    HW2  543   2.275   1.119   2.294  2.5732  1.0766 -0.2932
  182SOL     OW  544   2.750   2.422   2.147 -0.1673 -0.2521  0.3164
  182SOL    HW1  545   2.847   2.396   2.123  0.6974 -0.9944  0.0800
  182SOL    HW2  546   2.727   2.381   2.235  0.5503  1.7744 -2.8047
  183SOL     OW  547   2.007   0.576   1.715 -0.0046 -0.1288 -0.1461
  183SOL    HW1  548   1.946   0.588   1.793  3.3574 -0.1846  0.0222
  183SOL    HW2  549   2.102   0.590   1.744  1.0570 -1.1288 -0.1663
  184SOL     OW  550   0.034   1.537   1.428 -0.1908  0.6211  0.0054
  184SOL    HW1  551   0.035   1.532   1.327  1.4318 -0.8415  0.2301
  184SOL    HW2  552   0.116   1.493   1.465 -1.4955 -1.3175 -2.3605
  185SOL     OW  553   2.465   3.064   0.953  0.1970 -0.0237  0.6588
  185SOL    HW1  554   2.471   0.058   0.899 -0.3064  0.3672  0.6456
  185SOL    HW2  555   2.503   2.994   0.890 -1.3003  0.0710  0.4611
  186SOL     OW  556   2.763   2.512   2.876  0.0105 -0.7510 -0.0381
  186SOL    HW1  557   2.792   2.420   2.846  1.5183  3.2489  1.9332
  186SOL    HW2  558   2.804   2.531   2.968 -0.1360 -0.8606  1.1207
  187SOL     OW  559   2.933   1.513   0.633  0.0410 -0.8424  0.1866
  187SOL    HW1  560   2.991   1.472   0.708  0.1364  1.3426 -1.8184
  187SOL    HW2  561   2.860   1.445   0.604 -1.1549  1.3052 -1.0084
  188SOL     OW  562   2.551   1.191   1.080  0.7200  0.3505  0.4385
  188SOL    HW1  563   2.474   1.239   1.032  0.6278 -1.6862  1.6581
  188SOL    HW2  564   2.536   1.182   1.178 -0.9961 -0.4312 -2.5868
  189SOL     OW  565   2.958   0.318   2.464 -0.4696 -0.3273 -0.0068
  189SOL    HW1  566   2.906   0.285   2.543  0.1957 -1.9407  1.8746
  189SOL    HW2  567   3.053   0.289   2.466 -2.1009  1.4632 -0.8506
  190SOL     OW  568   1.534   0.723   1.754 -0.1279 -0.9391  0.0224
  190SOL    HW1  569   1.497   0.801   1.698  1.5417  1.5936 -0.5480
  190SOL    HW2  570   1.593   0.669   1.696 -3.5346  0.5299 -0.1385
  191SOL     OW  571   0.808   0.471   2.095  0.6511 -0.5201 -0.7492
  191SOL    HW1  572   0.883   0.402   2.080 -0.3120  1.1372  0.7376
  191SOL    HW2  573   0.836   0.564   2.105 -2.9027 -2.1435  0.2431
  192SOL     OW  574   1.441   2.052   1.858 -0.0790  0.3522 -0.0436
  192SOL    HW1  575   1.368   2.018   1.914 -1.4061 -1.0509  0.2637
  192SOL    HW2  576   1.455   1.987   1.781  1.2646  2.6524  0.8923
  193SOL     OW  577   1.300   0.309   0.886  0.5751  0.3133  0.5959
  193SOL    HW1  578   1.242   0.388   0.906 -2.1994  0.2372  2.1048
  193SOL    HW2  579   1.391   0.319   0.935  2.1005  1.9925  0.2464
  194SOL     OW  580   0.725   2.102   1.303 -0.5933  0.5123 -0.1218
  194SOL    HW1  581   0.619   2.106   1.303  0.4864  0.5947  0.8484
  194SOL    HW2  582   0.761   2.037   1.230 -0.6388 -1.8839  2.7766
  195SOL     OW  583   1.539   0.574   0.361 -0.6331  0.2822 -0.0260
  195SOL    HW1  584   1.599   0.648   0.394 -0.0838 -0.9372 -0.5856
  195SOL    HW2  585   1.583   0.538   0.274  0.3248  2.4815 -1.8769
  196SOL     OW  586   0.618   1.464   1.725 -0.1995  0.6399  0.0281
  196SOL    HW1  587   0.697   1.507   1.674  2.7846 -1.2149 -0.2426
  196SOL    HW2  588   0.529   1.474   1.683  1.5205 -2.0412  0.9167
  197SOL     OW  589   0.942   0.370   1.675 -0.4268  0.1422  0.0726
  197SOL    HW1  590   0.943   0.348   1.573  0.1339  0.7191  4.2511
  197SOL    HW2  591   0.993   0.457   1.697 -0.7310  1.3389  3.4967
  198SOL     OW  592   1.141   1.211   0.910 -0.0574  0.3645 -0.4898
  198SOL    HW1  593   1.044   1.249   0.908 -1.9135  0.0223  0.6896
  198SOL    HW2  594   1.163   1.151   0.832 -1.2863 -0.7770  0.6832
  199SOL     OW  595   0.112   2.335   1.709  0.2348 -0.1384 -0.3637
  199SOL    HW1  596   0.095   2.435   1.702  2.0171  2.0546  0.0398
  199SOL    HW2  597   0.191   2.314   1.654 -0.0356 -1.8902  1.8598
  200SOL     OW  598   1.559   0.990   1.957 -0.1322 -0.2706  0.2572
  200SOL    HW1  599   1.531   1.088   1.977  0.4640 -0.8262  0.4631
  200SOL    HW2  600   1.479   0.936   1.925  2.5324 -0.6227  1.2866
  201SOL     OW  601   0.738   1.808   2.105  0.2835 -0.0890  0.8143
  201SOL    HW1  602   0.822   1.776   2.053 -0.8039 -2.7815  0.5597
  201SOL    HW2  603   0.686   1.725   2.127  0.1278  1.3874 -1.8342
  202SOL     OW  604   1.232   0.088   0.307  0.3497 -0.0022  0.0414
  202SOL    HW1  605   1.281   0.018   0.359 -0.3512 -1.7308  1.1972
  202SOL    HW2  606   1.280   0.095   0.217 -0.2165 -1.6622  1.6364
  203SOL     OW  607   1.371   0.037   2.360  0.1160  0.3008 -0.3512
  203SOL    HW1  608   1.357   3.034   2.400  0.4003  1.6991  0.6928
  203SOL    HW2  609   1.470   0.067   2.363  0.4998 -0.6914  0.6013
  204SOL     OW  610   0.797   1.818   1.744  0.3405  0.0233 -0.3288
  204SOL    HW1  611   0.835   1.907   1.782  0.7463  1.3623 -0.1604
  204SOL    HW2  612   0.818   1.746   1.811  0.6974 -0.0224 -1.2451
  205SOL     OW  613   1.683   1.310   2.360 -0.8267 -0.0049  0.4909
  205SOL    HW1  614   1.661   1.341   2.264  0.5274  0.3829 -2.7465
  205SOL    HW2  615   1.771   1.350   2.388  3.1803 -1.1727 -0.3731
  206SOL     OW  616   0.249   1.838   2.473  0.0599  0.3957 -0.4386
  206SOL    HW1  617   0.342   1.856   2.513 -2.1814 -1.3664 -2.6022
  206SOL    HW2  618   0.200   1.759   2.521  1.5041 -1.5257  1.8913
  207SOL     OW  619   1.040   2.991   1.465  0.4077  0.1274 -0.0411
  207SOL    HW1  620   1.025   2.965   1.564  0.7026 -1.4212 -1.2928
  207SOL    HW2  621   1.105   3.068   1.457 -0.5011 -0.4149 -2.9533
  208SOL     OW  622   0.433   2.494   1.723 -0.3914 -0.3291  0.6615
  208SOL    HW1  623   0.470   2.460   1.813 -0.4197 -0.2918 -0.8322
  208SOL    HW2  624   0.509   2.509   1.655 -1.0271  0.3838 -1.2374
  209SOL     OW  625   1.303   2.816   0.584  0.2153  0.0265 -0.0100
  209SOL    HW1  626   1.330   2.797   0.682 -0.0309  1.2053  0.1582
  209SOL    HW2  627   1.334   2.906   0.551 -1.1741 -1.7449  0.8807
  210SOL     OW  628   2.786   0.930   0.940 -0.4591 -0.1727  0.2559
  210SOL    HW1  629   2.825   0.882   0.860 -2.4600  1.4168 -0.3265
  210SOL    HW2  630   2.682   0.930   0.937 -3.3780 -2.0956  2.1090
  211SOL     OW  631   0.458   0.272   1.920  0.1710  0.3197  0.3539
  211SOL    HW1  632   0.548   0.303   1.883 -0.3475 -1.4083 -1.7146
  211SOL    HW2  633   0.383   0.274   1.849 -2.3101  0.4376 -1.6520
  212SOL     OW  634   1.375   2.452   1.695  0.5549 -0.7000  0.1527
  212SOL    HW1  635   1.446   2.495   1.636  0.9189 -0.6902  1.4885
  212SOL    HW2  636   1.410   2.455   1.792  0.2469 -1.7218 -2.5407
  213SOL     OW  637   2.961   0.356   1.553  0.1356 -0.2251 -0.2738
  213SOL    HW1  638   3.020   0.295   1.498 -0.0101  0.6494  0.9098
  213SOL    HW2  639   2.859   0.351   1.522 -2.9133  0.2083 -0.1746
  214SOL     OW  640   0.753   2.641   1.796 -0.3196  0.4364  0.0528
  214SOL    HW1  641   0.719   2.596   1.713 -0.4463 -0.5930  0.5142
  214SOL    HW2  642   0.698   2.725   1.813 -0.2003  1.3467  0.2915
  215SOL     OW  643   2.483   1.535   1.540 -0.3218  0.2321 -0.7429
  215SOL    HW1  644   2.399   1.514   1.483 -1.3262  1.5661  0.5269
  215SOL    HW2  645   2.499   1.634   1.553  1.1162  0.5331  0.0540
  216SOL     OW  646   0.399   0.950   2.158  0.3256 -0.2469 -0.5300
  216SOL    HW1  647   0.383   1.041   2.106 -3.3126  0.3661 -1.2252
  216SOL    HW2  648   0.491   0.914   2.136 -0.0718  1.2623  2.8895
  217SOL     OW  649   2.532   0.169   1.512  0.1197  0.4472 -0.0936
  217SOL    HW1  650   2.524   0.063   1.514  0.4581 -2.7841 -1.5234
  217SOL    HW2  651   2.580   0.190   1.427  1.3011  1.0848  2.1126
  218SOL     OW  652   1.397   2.198   1.087 -0.3256  0.0351 -0.0516
  218SOL    HW1  653   1.378   2.177   0.988 -1.5177 -0.0640  2.2772
  218SOL    HW2  654   1.470   2.135   1.121 -1.8838  1.4255  0.0890
  219SOL     OW  655   1.648   2.835   0.472  0.4502  0.0004 -0.1577
  219SOL    HW1  656   1.555   2.873   0.482 -1.7501 -1.6847 -0.8515
  219SOL    HW2  657   1.639   2.735   0.458 -1.3944  0.5704  0.9743
  220SOL     OW  658   1.612   2.326   0.297 -0.1104  0.1868  0.9395
  220SOL    HW1  659   1.622   2.277   0.210 -0.5672  2.0680  0.2889
  220SOL    HW2  660   1.643   2.422   0.281 -2.0076 -0.3732 -0.8718
  221SOL     OW  661   2.567   1.938   0.831  0.8341  0.5073 -0.2411
  221SOL    HW1  662   2.529   1.978   0.744  0.8456 -1.3768  0.0751
  221SOL    HW2  663   2.634   1.870   0.814 -0.2395  2.1208  0.1729
  222SOL     OW  664   0.867   2.317   0.849 -0.0458 -0.4058 -0.2541
  222SOL    HW1  665   0.787   2.326   0.785  1.8239  0.7633  1.3614
  222SOL    HW2  666   0.841   2.324   0.948  1.4842 -1.0446 -0.3727
  223SOL     OW  667   1.099   2.676   3.009 -0.1442 -0.1943 -0.1671
  223SOL    HW1  668   1.080   2.717   2.915  2.6939 -0.5899 -1.8680
  223SOL    HW2  669   1.015   2.648   3.059 -1.1151 -0.2299  0.9016
  224SOL     OW  670   2.991   0.954   1.132  0.6103 -0.1869 -0.2650
  224SOL    HW1  671   2.913   0.932   1.064  0.6449  0.2334 -1.5092
  224SOL    HW2  672   3.064   0.887   1.132 -1.8014  2.0754  0.9575
  225SOL     OW  673   2.899   1.818   0.958  0.0634 -0.3549  0.6130
  225SOL    HW1  674   2.891   1.903   0.898  1.0194 -1.7983  1.3169
  225SOL    HW2  675   2.997   1.794   0.970  0.6197 -1.7260 -0.4248
  226SOL     OW  676   0.857   2.629   0.851 -0.9150  0.1304 -0.2956
  226SOL    HW1  677   0.828   2.536   0.828  0.9455 -0.9294 -1.8668
  226SOL    HW2  678   0.947   2.645   0.805 -0.7448 -3.6730 -0.0051
  227SOL     OW  679   0.732   1.328   1.439 -0.0925  0.3134 -0.4828
  227SOL    HW1  680   0.636   1.293   1.451 -0.6072 -1.5363  1.0363
  227SOL    HW2  681   0.742   1.421   1.481 -0.9293 -0.1517  0.6938
  228SOL     OW  682   1.465   0.267   1.954  0.0815  0.1041  0.6915
  228SOL    HW1  683   1.520   0.186   1.959 -1.1142  1.2571  0.9273
  228SOL    HW2  684   1.426   0.295   2.044  0.1578 -0.0982  0.8959
  229SOL     OW  685   0.012   0.789   2.325  0.0128 -0.1310  0.1672
  229SOL    HW1  686   3.050   0.714   2.369 -1.1475 -0.0516  0.9764
  229SOL    HW2  687   0.090   0.742   2.275  3.0739 -0.5778 -1.3210
  230SOL     OW  688   0.167   1.028   0.912  0.2764 -0.3621 -0.1210
  230SOL    HW1  689   0.131   1.068   0.823  0.0554 -2.1075 -0.5295
  230SOL    HW2  690   0.092   0.997   0.971  1.2158 -0.9342  0.3022
  231SOL     OW  691   1.490   0.238   2.579  0.0869  0.0687  0.0643
  231SOL    HW1  692   1.562   0.280   2.640 -1.7223 -1.6244  0.1753
  231SOL    HW2  693   1.532   0.155   2.545  1.5161  1.6495  0.6006
  232SOL     OW  694   0.353   1.519   3.021  0.4919 -0.0411  0.0183
  232SOL    HW1  695   0.445   1.542   2.981 -1.2221  1.7409  1.5019
  232SOL    HW2  696   0.364   1.470   0.015 -0.4269  2.1505 -4.3502
  233SOL     OW  697   1.348   2.293   2.952  0.1124 -0.1710 -0.3391
  233SOL    HW1  698   1.400   2.219   2.905 -0.2558  1.1785  1.7617
  233SOL    HW2  699   1.273   2.326   2.894  0.5196  0.1028  2.5603
  234SOL     OW  700   1.017   1.449   2.042 -0.6609 -0.1682 -0.1222
  234SOL    HW1  701   0.959   1.368   2.014 -2.6850  0.5486  1.9423
  234SOL    HW2  702   1.031   1.462   2.142  0.0800 -1.8343 -2.1835
  235SOL     OW  703   0.537   2.416   1.954  0.3911  0.4533  0.0658
  235SOL    HW1  704   0.564   2.317   1.955 -2.4897  1.7061 -1.0529
  235SOL    HW2  705   0.572   2.464   2.034  0.6396 -3.1752  1.0646
  236SOL     OW  706   1.637   2.285   2.595 -0.6948  0.5625 -0.1354
  236SOL    HW1  707   1.616   2.274   2.696  0.5658 -2.5396  0.4097
  236SOL    HW2  708   1.662   2.383   2.565  0.4197  1.0318  0.0668
  237SOL     OW  709   1.439   0.488   0.684  0.1302 -0.4081 -0.8009
  237SOL    HW1  710   1.536   0.507   0.668 -0.7427 -2.4162  0.6820
  237SOL    HW2  711   1.391   0.444   0.605 -1.2017  0.3967  2.5540
  238SOL     OW  712   0.974   0.083   2.535  0.2847 -0.5179  0.0895
  238SOL    HW1  713   1.027   0.114   2.457  1.5216 -0.0930  3.2096
  238SOL    HW2  714   0.889   0.137   2.546 -4.0306  0.5395 -2.5787
  239SOL     OW  715   1.089   2.967   1.852  0.0730  0.3106 -0.2417
  239SOL    HW1  716   1.037   2.906   1.795  1.7996  4.0802  0.6631
  239SOL    HW2  717   1.065   3.064   1.834  1.2635  0.4864  0.5165
  240SOL     OW  718   2.017   2.656   0.798 -0.2099 -0.2002  0.1955
  240SOL    HW1  719   1.967   2.568   0.786  0.5237  0.1331  0.5531
  240SOL    HW2  720   2.040   2.662   0.899  0.4267 -2.3000 -1.6711
  241SOL     OW  721   1.523   1.256   1.972  0.3233  0.2521  0.8119
  241SOL    HW1  722   1.486   1.259   1.877 -2.8916 -2.2271  0.4836
  241SOL    HW2  723   1.462   1.295   2.046 -2.3373  0.8802  1.4570
  242SOL     OW  724   2.665   0.641   0.376 -0.1883  0.4962 -0.4567
  242SOL    HW1  725   2.717   0.640   0.290 -0.5475  0.3298 -1.2366
  242SOL    HW2  726   2.596   0.564   0.383  0.4971  0.7850 -0.8407
  243SOL     OW  727   0.739   0.892   1.079  0.1869  0.0366 -0.0634
  243SOL    HW1  728   0.764   0.907   1.178  1.6423  2.5121 -1.1038
  243SOL    HW2  729   0.816   0.912   1.011  0.5209  1.0471  0.1080
  244SOL     OW  730   1.542   0.245   3.040  0.8722  0.0936  0.5468
  244SOL    HW1  731   1.480   0.277   2.965  0.3912  0.9392  0.1652
  244SOL    HW2  732   1.623   0.212   2.993  0.4149  0.6642 -0.0547
  245SOL     OW  733   2.059   0.135   2.950 -0.0102 -0.0517 -0.3713
  245SOL    HW1  734   2.149   0.179   2.942  0.2322 -0.4949  2.4355
  245SOL    HW2  735   2.056   0.045   2.903 -2.5856  2.1881  3.4267
  246SOL     OW  736   1.096   1.032   1.317  0.5530 -0.1939  0.5228
  246SOL    HW1  737   1.050   0.980   1.394 -0.6738  0.7641  1.6939
  246SOL    HW2  738   1.187   0.989   1.297 -0.3605 -0.6264 -0.5433
  247SOL     OW  739   0.446   0.081   2.121  0.2430 -0.1489 -0.2713
  247SOL    HW1  740   0.366   0.093   2.177  0.9721 -1.2405  0.3475
  247SOL    HW2  741   0.439   0.127   2.029 -0.3354  0.5235  0.6160
  248SOL     OW  742   0.200   1.608   1.777  0.1511 -0.9216  0.2441
  248SOL    HW1  743   0.120   1.609   1.841 -0.8802  1.0068 -1.4711
  248SOL    HW2  744   0.260   1.692   1.789  0.6585 -0.7794  0.7066
  249SOL     OW  745   3.003   0.147   2.935 -0.5164 -0.1042  0.5303
  249SOL    HW1  746   2.967   0.050   2.915 -0.4937 -0.6353  0.0214
  249SOL    HW2  747   3.078   0.154   3.005  3.3321 -1.9489 -0.6523
  250SOL     OW  748   2.901   0.083   0.418  0.1945  0.0772  0.8610
  250SOL    HW1  749   2.924   3.088   0.463  1.4290  1.9022 -0.9135
  250SOL    HW2  750   2.933   0.076   0.321  1.5226 -0.8639  0.5554
  251SOL     OW  751   0.540   1.505   1.236  0.2080  0.1581  0.1692
  251SOL    HW1  752   0.454   1.508   1.293  0.9399  1.1359 -1.1871
  251SOL    HW2  753   0.550   1.415   1.188  0.6153  1.4425  0.0299
  252SOL     OW  754   1.586   2.804   1.560 -0.6143 -0.1068 -0.1053
  252SOL    HW1  755   1.657   2.786   1.486 -1.0695  1.7231  0.0159
  252SOL    HW2  756   1.500   2.823   1.513  2.2663  1.8470  1.9648
  253SOL     OW  757   2.385   1.813   2.557  0.0540  0.2183 -0.4359
  253SOL    HW1  758   2.397   1.911   2.547 -0.9827  3.0950  0.2430
  253SOL    HW2  759   2.449   1.754   2.506  1.1739 -1.6204  0.8478
  254SOL     OW  760   0.754   2.040   2.262 -0.6010  0.3487  0.2450
  254SOL    HW1  761   0.754   1.949   2.216 -0.1907  1.4472 -1.2795
  254SOL    HW2  762   0.792   2.030   2.355 -3.2348 -0.0824  0.0887
  255SOL     OW  763   0.976   0.269   1.381  0.5863 -0.3414 -0.0751
  255SOL    HW1  764   1.022   0.307   1.298 -0.3942  0.4929  0.6096
  255SOL    HW2  765   0.907   0.198   1.350 -1.7017  0.0655  0.3472
  256SOL     OW  766   2.379   2.102   1.337 -0.0855 -0.2987 -0.5631
  256SOL    HW1  767   2.320   2.035   1.389 -0.0986  0.5454  2.2423
  256SOL    HW2  768   2.401   2.065   1.242 -2.9598 -0.8773 -2.0116
  257SOL     OW  769   0.492   2.291   2.926 -0.2053 -0.8569  0.3618
  257SOL    HW1  770   0.551   2.359   2.887 -0.2287 -1.1824  0.6122
  257SOL    HW2  771   0.542   2.227   2.993  3.1646 -3.4082  0.4286
  258SOL     OW  772   0.596   1.573   2.934 -0.2126 -0.0728 -0.1404
  258SOL    HW1  773   0.674   1.637   2.956  1.7536  1.1159 -1.1155
  258SOL    HW2  774   0.616   1.506   2.858 -0.8930 -1.0962  1.0469
  259SOL     OW  775   0.617   1.425   2.696  0.2448  0.3862  0.5327
  259SOL    HW1  776   0.579   1.330   2.700  2.0084  0.4903 -0.2662
  259SOL    HW2  777   0.716   1.416   2.689 -0.2140 -0.0122 -0.2153
  260SOL     OW  778   2.218   1.135   1.395 -0.2796  0.0488  0.1943
  260SOL    HW1  779   2.247   1.198   1.470  0.6655 -1.3727 -0.5120
  260SOL    HW2  780   2.125   1.160   1.375  1.5678  1.7853  1.9634
  261SOL     OW  781   1.226   0.663   0.647 -0.4585 -0.0274 -0.1611
  261SOL    HW1  782   1.303   0.607   0.683 -0.6249 -0.0561 -0.0947
  261SOL    HW2  783   1.148   0.655   0.710  1.1123  3.3174 -0.5124
  262SOL     OW  784   1.883   2.140   2.582  0.2555 -0.5191  0.2435
  262SOL    HW1  785   1.948   2.205   2.538  0.0932 -1.4379 -2.6011
  262SOL    HW2  786   1.789   2.181   2.574 -0.7967 -0.0117 -0.9288
  263SOL     OW  787   0.081   1.590   3.044  1.1146 -0.4636 -0.1379
  263SOL    HW1  788   0.028   1.502   3.032 -1.0083  0.7332 -1.6576
  263SOL    HW2  789   0.176   1.571   3.022 -5.3112  0.4449  0.9949
  264SOL     OW  790   0.392   1.872   1.209 -0.3895 -0.6321 -0.1598
  264SOL    HW1  791   0.348   1.799   1.264  1.2665  1.5797 -2.1376
  264SOL    HW2  792   0.468   1.834   1.157  0.8351  0.6379 -0.1178
  265SOL     OW  793   0.592   0.825   0.498  0.5096  0.5010 -0.0627
  265SOL    HW1  794   0.535   0.790   0.574 -1.9591  0.2222  0.3087
  265SOL    HW2  795   0.580   0.925   0.502 -1.0156  0.4413 -1.3380
  266SOL     OW  796   1.346   1.738   0.151  0.0207  0.1621  0.2950
  266SOL    HW1  797   1.350   1.686   0.241 -2.1992  0.4425 -2.8275
  266SOL    HW2  798   1.300   1.681   0.079 -2.7691 -1.3349 -3.7667
  267SOL     OW  799   0.642   0.837   2.067 -0.1500 -0.3526 -0.1952
  267SOL    HW1  800   0.634   0.833   1.964  0.9699  1.8688 -0.4108
  267SOL    HW2  801   0.739   0.824   2.105  2.7303 -0.1990  1.0792
  268SOL     OW  802   0.620   0.762   2.839  0.3331 -0.3911  0.8662
  268SOL    HW1  803   0.681   0.821   2.895 -0.1885  1.4355  1.5397
  268SOL    HW2  804   0.522   0.777   2.870 -0.0898 -0.8112 -0.8002
  269SOL     OW  805   1.610   2.954   2.518  0.0261 -0.5985  0.4671
  269SOL    HW1  806   1.622   2.931   2.419  0.3912  1.8535  0.7942
  269SOL    HW2  807   1.525   2.911   2.556 -2.0954 -0.0375  1.6015
  270SOL     OW  808   1.069   1.499   2.317 -0.5671  0.0489  0.2468
  270SOL    HW1  809   1.012   1.416   2.339  0.3050 -3.2488 -1.2174
  270SOL    HW2  810   1.162   1.494   2.343 -1.8056 -0.2609 -2.7615
  271SOL     OW  811   0.130   0.224   0.018  0.0820  0.1196 -0.0263
  271SOL    HW1  812   0.179   0.298   3.062 -2.9503 -0.5393 -0.4855
  271SOL    HW2  813   0.180   0.139   0.025 -3.2673  1.1543 -0.7747
  272SOL     OW  814   2.349   0.810   0.171 -0.6896 -0.0167 -0.7391
  272SOL    HW1  815   2.351   0.781   0.270  0.5451 -2.2193 -2.6443
  272SOL    HW2  816   2.409   0.898   0.163  3.1432 -0.5926  0.7790
  273SOL     OW  817   0.169   0.169   2.206 -0.1575  0.1836 -0.1499
  273SOL    HW1  818   0.183   0.224   2.124  1.8336 -3.9266  1.2938
  273SOL    HW2  819   0.120   0.214   2.282  0.4593  2.2491 -0.8541
  274SOL     OW  820   0.006   0.321   1.817 -0.0303 -0.1119 -0.5396
  274SOL    HW1  821   3.059   0.341   1.912 -2.0330  3.1252  2.8366
  274SOL    HW2  822   3.043   0.359   1.738 -0.3944  1.4846  1.1285
  275SOL     OW  823   1.451   1.737   0.846 -0.5928 -0.5037  0.3723
  275SOL    HW1  824   1.389   1.668   0.811  1.5166  0.6294 -0.7153
  275SOL    HW2  825   1.529   1.691   0.902 -1.1058  1.1752  0.9252
  276SOL     OW  826   0.523   0.837   2.415 -0.5831  0.4045  0.1547
  276SOL    HW1  827   0.531   0.903   2.489 -1.0269  0.8571  4.2438
  276SOL    HW2  828   0.490   0.883   2.326  1.3835  0.7311 -0.7863
  277SOL     OW  829   2.025   2.551   2.340 -0.2495  0.0372 -0.4545
  277SOL    HW1  830   1.998   2.476   2.279  0.1648 -1.1896 -0.8981
  277SOL    HW2  831   1.947   2.599   2.376  1.5158  0.3717 -0.9998
  278SOL     OW  832   1.985   2.915   2.275 -0.0989 -0.4656 -0.0139
  278SOL    HW1  833   2.022   2.846   2.202  1.1078 -1.8656 -1.2904
  278SOL    HW2  834   1.952   3.007   2.241  0.0795  2.2077 -2.7427
  279SOL     OW  835   1.797   1.303   3.020 -0.2172  0.4298  0.2586
  279SOL    HW1  836   1.726   1.351   3.077  0.0623 -2.1642 -0.2767
  279SOL    HW2  837   1.890   1.318   3.048  0.7721 -0.9319 -0.7043
  280SOL     OW  838   0.814   1.048   0.138 -0.0027  0.1306  0.2241
  280SOL    HW1  839   0.861   1.018   0.228  0.3146 -1.9841  1.5554
  280SOL    HW2  840   0.877   1.039   0.055  1.7069  0.9123 -1.5289
  281SOL     OW  841   3.078   0.150   1.417 -0.3163 -0.1511 -0.0487
  281SOL    HW1  842   0.039   0.065   1.416  0.3263 -0.7042 -0.1803
  281SOL    HW2  843   0.008   0.210   1.336 -0.2112  2.0694 -1.7046
  282SOL     OW  844   2.896   2.049   0.801 -0.2059  0.0307  0.2077
  282SOL    HW1  845   2.940   2.124   0.854  2.3633 -2.1716  1.0890
  282SOL    HW2  846   2.852   2.084   0.714  1.7833 -0.0854 -2.2252
  283SOL     OW  847   1.289   1.881   2.010  0.4804  0.0656 -0.4450
  283SOL    HW1  848   1.381   1.834   2.011  1.3021  0.5033  0.8964
  283SOL    HW2  849   1.212   1.824   2.048 -0.2788 -0.2456  1.3243
  284SOL     OW  850   1.718   0.215   0.453 -0.1908 -0.0094  0.3120
  284SOL    HW1  851   1.755   0.130   0.491 -0.2663 -2.0677 -0.0598
  284SOL    HW2  852   1.704   0.206   0.353  0.2053 -2.7367 -0.6167
  285SOL     OW  853   2.826   2.753   2.750  0.5853 -0.2443 -0.0170
  285SOL    HW1  854   2.742   2.801   2.715  0.6831  2.3392 -0.1302
  285SOL    HW2  855   2.794   2.668   2.792 -2.3509 -2.4751  0.7870
  286SOL     OW  856   2.262   2.361   1.102  0.5342 -0.6344  0.1412
  286SOL    HW1  857   2.261   2.376   1.206  0.3194 -1.1314  0.8388
  286SOL    HW2  858   2.323   2.283   1.080  1.2673  2.4058  0.0260
  287SOL     OW  859   0.492   1.296   0.605 -0.3370  0.2721 -0.3918
  287SOL    HW1  860   0.459   1.296   0.701 -1.5413  1.0123  0.3997
  287SOL    HW2  861   0.435   1.361   0.552  0.5346  1.5327 -0.8067
  288SOL     OW  862   2.038   1.653   2.610 -0.2489  0.0592  0.3799
  288SOL    HW1  863   1.956   1.631   2.660  2.2386  1.1716  1.2865
  288SOL    HW2  864   2.074   1.740   2.640 -0.9637 -0.2271  0.5492
  289SOL     OW  865   0.397   1.604   2.672 -0.4459 -0.1823  0.2099
  289SOL    HW1  866   0.488   1.557   2.679 -1.2993  0.2867  1.3970
  289SOL    HW2  867   0.321   1.541   2.689  0.1659  1.7380 -0.1063
  290SOL     OW  868   1.135   2.087   1.249 -0.7591 -0.9191 -0.0885
  290SOL    HW1  869   1.197   2.109   1.176 -1.0211 -4.2352 -0.0343
  290SOL    HW2  870   1.093   1.998   1.246 -1.1434  0.4999 -2.1316
  291SOL     OW  871   1.742   1.077   2.886  0.5668 -0.3186 -0.1750
  291SOL    HW1  872   1.797   0.996   2.898 -1.7643  1.9438  2.0537
  291SOL    HW2  873   1.776   1.160   2.936  1.1026  0.3171 -1.0999
  292SOL     OW  874   1.135   1.602   0.670 -0.4462 -0.1995 -0.3842
  292SOL    HW1  875   1.051   1.552   0.647  1.1342  2.2914  1.3183
  292SOL    HW2  876   1.199   1.547   0.729  0.6845  0.7079 -2.2079
  293SOL     OW  877   1.817   2.922   1.004  0.2012  0.2915 -0.5021
  293SOL    HW1  878   1.898   2.967   0.964  0.6068 -1.2000  1.2290
  293SOL    HW2  879   1.733   2.971   0.966  0.1651  0.9035 -0.6466
  294SOL     OW  880   2.662   1.217   2.787  0.2419 -0.0853 -0.0953
  294SOL    HW1  881   2.575   1.247   2.744  1.8661  0.4458  0.4630
  294SOL    HW2  882   2.693   1.127   2.763  0.9727  1.8475  0.6454
  295SOL     OW  883   1.616   2.107   2.393 -0.0185  0.0156 -0.0375
  295SOL    HW1  884   1.628   2.162   2.483 -0.0061  1.8705  2.2862
  295SOL    HW2  885   1.632   2.169   2.313  1.7008  0.1611  2.0355
  296SOL     OW  886   1.787   0.588   1.909 -0.2527 -0.1050  0.5235
  296SOL    HW1  887   1.734   0.639   1.845 -0.3278 -1.1981  1.9473
  296SOL    HW2  888   1.747   0.592   2.002  2.3378 -0.7892 -0.1738
  297SOL     OW  889   0.089   0.573   2.011  0.3017  0.0342  0.2457
  297SOL    HW1  890   0.003   0.514   2.021 -2.1488 -1.1300 -0.7659
  297SOL    HW2  891   0.061   0.661   1.973  0.6277 -0.3313 -0.2247
  298SOL     OW  892   1.062   2.634   2.162  0.1311  0.0099  0.5826
  298SOL    HW1  893   1.015   2.576   2.090  0.2944  2.0305  0.0262
  298SOL    HW2  894   1.118   2.577   2.226 -1.0883  3.1516  0.6703
  299SOL     OW  895   1.186   2.477   2.833  0.0987  0.2986 -0.2469
  299SOL    HW1  896   1.184   2.538   2.912 -0.3011 -2.2319 -0.0934
  299SOL    HW2  897   1.224   2.515   2.747  0.2338 -0.3504  0.3434
  300SOL     OW  898   2.804   1.017   2.688  0.4225  0.0001  0.6052
  300SOL    HW1  899   2.754   0.934   2.708  0.8387  1.1263 -0.7896
  300SOL    HW2  900   2.852   1.015   2.592  2.8436 -1.6602 -3.7021
  301SOL     OW  901   1.696   0.924   1.505  0.0288 -0.4407  0.1957
  301SOL    HW1  902   1.740   0.831   1.509  1.3059 -0.6749 -0.8166
  301SOL    HW2  903   1.770   0.992   1.479  1.3983  0.2387  1.8472
  302SOL     OW  904   2.718   1.968   2.407 -0.4493  0.6241 -0.6449
  302SOL    HW1  905   2.695   1.882   2.462  0.3369 -0.6589 -2.4328
  302SOL    HW2  906   2.646   2.001   2.348 -0.1298  0.0841 -0.7066
  303SOL     OW  907   0.030   2.895   2.356  0.0517  0.1338 -0.2652
  303SOL    HW1  908   3.055   2.920   2.425  1.1830  0.9133 -0.5882
  303SOL    HW2  909   0.120   2.949   2.366  0.6779 -0.0228  0.7349
  304SOL     OW  910   0.189   0.960   1.302  0.2831  0.1397 -0.1525
  304SOL    HW1  911   0.278   0.980   1.343  0.0221 -2.2026 -0.2402
  304SOL    HW2  912   0.117   1.004   1.358  0.4528 -0.8465  1.4886
  305SOL     OW  913   2.714   0.487   1.771 -0.1466  0.3541  0.4873
  305SOL    HW1  914   2.706   0.462   1.672  0.5800  0.9727  1.2178
  305SOL    HW2  915   2.686   0.404   1.826  1.1539  3.8922  0.3447
  306SOL     OW  916   2.507   1.133   1.334  0.0888 -0.4254  0.3112
  306SOL    HW1  917   2.563   1.074   1.395 -2.6836 -0.0841 -0.3310
  306SOL    HW2  918   2.409   1.135   1.367 -2.5395  3.1770  0.6583
  307SOL     OW  919   2.518   2.816   0.791 -0.4661 -0.0262 -0.3009
  307SOL    HW1  920   2.602   2.758   0.803 -1.4696  2.3333 -1.9808
  307SOL    HW2  921   2.443   2.755   0.768  2.3773  0.6399  0.3142
  308SOL     OW  922   2.637   1.911   1.387 -0.1724 -0.1801 -0.3016
  308SOL    HW1  923   2.544   1.906   1.424 -0.5587  1.9931  0.7062
  308SOL    HW2  924   2.660   1.838   1.323 -2.6397  0.5695 -0.8673
  309SOL     OW  925   2.134   2.181   1.692 -0.2390  0.1222 -0.0764
  309SOL    HW1  926   2.108   2.274   1.658  0.7168  0.8436  1.2065
  309SOL    HW2  927   2.089   2.157   1.781 -0.1631  1.0079 -0.4977
  310SOL     OW  928   2.217   1.466   2.652  0.6650  0.5960  0.7774
  310SOL    HW1  929   2.158   1.548   2.645  0.0709  0.6126 -0.2954
  310SOL    HW2  930   2.173   1.383   2.610 -1.7793  1.3889 -1.4918
  311SOL     OW  931   2.126   1.115   2.834  0.7662 -0.2638  0.0380
  311SOL    HW1  932   2.088   1.127   2.738  1.6452  0.0438 -0.6137
  311SOL    HW2  933   2.103   1.019   2.871  0.1309  0.7455  0.3764
  312SOL     OW  934   1.211   2.419   2.288 -0.0217 -0.6236 -0.0143
  312SOL    HW1  935   1.200   2.329   2.248  0.2182 -1.9843  3.5577
  312SOL    HW2  936   1.143   2.430   2.359 -1.1835 -3.4194 -1.6949
  313SOL     OW  937   0.611   2.997   0.750  0.6830  0.4001 -0.3521
  313SOL    HW1  938   0.556   2.935   0.688 -0.8525 -2.8236 -0.6542
  313SOL    HW2  939   0.651   2.942   0.826 -3.4177 -0.7668 -0.3538
  314SOL     OW  940   0.585   1.733   1.059 -0.5919 -0.3261  0.3841
  314SOL    HW1  941   0.585   1.662   1.128  2.2500  2.5699  0.6331
  314SOL    HW2  942   0.607   1.695   0.966  0.7501 -1.3704  0.1161
  315SOL     OW  943   0.816   2.668   2.271  0.3775 -0.1996 -0.2151
  315SOL    HW1  944   0.779   2.751   2.233  0.1123 -1.8411  2.4901
  315SOL    HW2  945   0.915   2.663   2.236 -0.0439 -0.0947  0.2494
  316SOL     OW  946   3.056   2.135   1.014  0.0590 -0.3652  0.3324
  316SOL    HW1  947   3.013   2.159   1.107 -1.8808 -2.0873  0.3764
  316SOL    HW2  948   0.050   2.084   1.021  1.2859  1.2934 -1.3386
  317SOL     OW  949   1.936   0.732   0.522 -0.1641  0.0010  0.0637
  317SOL    HW1  950   1.969   0.705   0.615 -1.4719  1.0093 -0.9111
  317SOL    HW2  951   1.970   0.667   0.452 -1.9988 -2.1595  2.0280
  318SOL     OW  952   2.481   2.656   0.033  0.2708 -0.4765  0.4686
  318SOL    HW1  953   2.412   2.615   0.098  1.4642  0.6312 -1.2068
  318SOL    HW2  954   2.488   2.759   0.039  0.4822  0.8811 -0.1880
  319SOL     OW  955   1.565   1.767   3.051  0.4396  0.9040 -0.0958
  319SOL    HW1  956   1.542   1.812   2.962 -2.0702 -2.1089 -0.3689
  319SOL    HW2  957   1.481   1.739   0.004  4.6513  1.0465  0.2029
  320SOL     OW  958   0.652   2.487   2.550 -0.0649 -0.2689 -0.6328
  320SOL    HW1  959   0.573   2.423   2.568 -0.1490  0.2830  0.4544
  320SOL    HW2  960   0.737   2.438   2.526 -0.4393  1.9721  0.0627
  321SOL     OW  961   0.863   2.618   0.087  0.0099  0.3100 -0.3612
  321SOL    HW1  962   0.861   2.524   0.127 -1.9088  1.1116  0.8971
  321SOL    HW2  963   0.879   2.690   0.162  3.7233  0.3738  0.7836
  322SOL     OW  964   2.084   0.434   2.371  0.6396  0.0029  0.4333
  322SOL    HW1  965   2.105   0.491   2.454  2.6380  0.3280  0.1605
  322SOL    HW2  966   2.154   0.449   2.298 -0.1875 -0.9462  0.1978
  323SOL     OW  967   2.946   0.829   0.705  0.5062 -0.2806 -0.2456
  323SOL    HW1  968   2.990   0.760   0.765 -1.6068  0.5110 -1.1405
  323SOL    HW2  969   2.964   0.810   0.609 -0.4653  0.2624  2.2100
  324SOL     OW  970   0.311   0.427   2.323  0.0409  0.0783  0.0665
  324SOL    HW1  971   0.291   0.517   2.272 -1.8418  0.5888 -1.1129
  324SOL    HW2  972   0.408   0.401   2.299  0.5356  0.4660 -0.3249
  325SOL     OW  973   0.289   3.072   2.396  0.6642 -0.0014 -0.5548
  325SOL    HW1  974   0.237   0.053   2.345 -1.3147  1.1461  1.3451
  325SOL    HW2  975   0.295   0.010   2.495  1.2339 -0.3547  0.1602
  326SOL     OW  976   2.753   2.178   0.277  0.1782  0.6267  0.5545
  326SOL    HW1  977   2.731   2.218   0.186  1.1574  1.0213 -1.2822
  326SOL    HW2  978   2.757   2.248   0.351 -0.5244  0.4384  0.0980
  327SOL     OW  979   2.402   1.362   0.711  0.1105  0.3572 -0.0017
  327SOL    HW1  980   2.408   1.258   0.728 -1.1984 -1.5556 -1.6275
  327SOL    HW2  981   2.365   1.370   0.617  1.8143 -1.7117  2.1072
  328SOL     OW  982   0.285   1.960   2.234 -0.2934 -0.1425  0.4510
  328SOL    HW1  983   0.265   1.926   2.327  0.8968 -2.3158  0.3257
  328SOL    HW2  984   0.208   2.014   2.189 -2.7972  1.2572  0.3925
  329SOL     OW  985   2.855   2.405   1.498  0.2388 -0.2225 -0.5146
  329SOL    HW1  986   2.834   2.308   1.499  3.0076  2.0435 -1.3791
  329SOL    HW2  987   2.925   2.435   1.565 -0.0602 -1.3120 -0.1803
  330SOL     OW  988   2.522   1.292   1.828 -0.0448  0.4687  0.2413
  330SOL    HW1  989   2.434   1.282   1.870  2.4853  0.5609 -2.5565
  330SOL    HW2  990   2.597   1.327   1.881 -2.9643 -2.4009 -0.6103
  331SOL     OW  991   2.673   2.108   1.007 -0.2528 -0.6371  0.0607
  331SOL    HW1  992   2.732   2.068   1.081  1.1324 -1.1410  1.4680
  331SOL    HW2  993   2.649   2.037   0.941  1.1081  0.5520  0.9739
  332SOL     OW  994   0.416   2.722   0.915 -0.0889  0.3366  0.0840
  332SOL    HW1  995   0.390   2.739   0.819 -1.3133 -1.5172  2.4410
  332SOL    HW2  996   0.343   2.763   0.972 -0.8040  0.8739 -2.6954
  333SOL     OW  997   2.060   0.167   2.371 -0.2478 -0.3978 -0.6358
  333SOL    HW1  998   1.989   0.139   2.303 -1.8739  2.2342 -0.5348
  333SOL    HW2  999   2.067   0.270   2.378  0.2295  0.1988 -0.7534
  334SOL     OW 1000   0.996   1.057   0.370  0.4588  0.3060  0.2837
  334SOL    HW1 1001   1.034   1.137   0.421 -0.2030  1.3276  0.0425
  334SOL    HW2 1002   0.986   0.976   0.434 -1.9084  0.2088  0.1133
  335SOL     OW 1003   0.332   2.536   2.305  0.3389 -0.4039 -0.7585
  335SOL    HW1 1004   0.296   2.453   2.258  1.5045 -2.8169 -0.4038
  335SOL    HW2 1005   0.247   2.592   2.334 -2.7642 -0.9601 -0.1248
  336SOL     OW 1006   2.609   2.887   2.652 -0.4004  0.3312  0.2310
  336SOL    HW1 1007   2.548   2.943   2.708  1.8479 -3.0866 -0.3161
  336SOL    HW2 1008   2.565   2.855   2.567 -0.3387  1.8169 -1.2098
  337SOL     OW 1009   1.275   1.487   1.102 -0.0969  0.2058 -0.8650
  337SOL    HW1 1010   1.266   1.390   1.133 -1.8135  1.1621  2.7200
  337SOL    HW2 1011   1.312   1.488   1.006 -1.6785 -2.0088  0.0574
  338SOL     OW 1012   0.784   1.921   1.084 -0.2811  0.5157  0.1481
  338SOL    HW1 1013   0.873   1.883   1.108  1.2230  3.4032  0.6924
  338SOL    HW2 1014   0.716   1.848   1.076  0.2449 -1.3930  1.5489
  339SOL     OW 1015   0.099   1.176   1.633  0.0456 -0.3917  0.0137
  339SOL    HW1 1016   0.044   1.120   1.567 -0.7744  0.6568 -0.3307
  339SOL    HW2 1017   0.030   1.217   1.695 -3.5437  1.4845 -1.6548
  340SOL     OW 1018   1.589   0.028   1.989  0.8566  0.3447  0.7423
  340SOL    HW1 1019   1.682   0.016   1.947  1.4357 -0.9862  0.7896
  340SOL    HW2 1020   1.526   3.048   1.955  2.1649 -0.7178  1.5290
  341SOL     OW 1021   1.653   1.546   1.238 -0.1447 -0.4116 -0.6247
  341SOL    HW1 1022   1.607   1.616   1.299  1.5792  0.6524  3.3638
  341SOL    HW2 1023   1.617   1.452   1.241  2.9346  0.3326  0.1550
  342SOL     OW 1024   2.994   1.451   0.911 -0.5217 -0.1435  0.4674
  342SOL    HW1 1025   2.963   1.545   0.897  2.4291 -1.0395  0.2252
  342SOL    HW2 1026   2.918   1.385   0.915  0.3434  2.9443 -0.7180
  343SOL     OW 1027   2.920   0.793   1.512 -0.3251 -0.1118 -0.6727
  343SOL    HW1 1028   2.979   0.713   1.535  0.2111  0.8957 -1.1776
  343SOL    HW2 1029   2.826   0.766   1.481 -0.2320  1.3795  0.5271
  344SOL     OW 1030   1.766   0.475   0.972 -0.4787 -0.8565 -0.1042
  344SOL    HW1 1031   1.777   0.449   0.877 -0.7202  0.6258  2.5263
  344SOL    HW2 1032   1.812   0.571   0.984  1.3285  0.4121  2.4494
  345SOL     OW 1033   0.352   2.880   2.678  0.2736  0.3617 -0.4525
  345SOL    HW1 1034   0.373   2.814   2.603  0.3669 -0.7907  1.5473
  345SOL    HW2 1035   0.359   2.972   2.643 -3.7594 -2.2472  0.9455
  346SOL     OW 1036   2.456   1.617   0.317  0.4689  0.5907 -0.1483
  346SOL    HW1 1037   2.379   1.667   0.350 -0.1905 -1.3876  0.9474
  346SOL    HW2 1038   2.539   1.643   0.364 -0.6967 -1.8104 -2.4493
  347SOL     OW 1039   2.048   0.079   1.755  0.5117  0.6021 -0.1820
  347SOL    HW1 1040   2.015   0.172   1.734 -1.3995 -0.5387 -0.0496
  347SOL    HW2 1041   2.076   0.039   1.665 -1.6525  0.2621  0.8453
  348SOL     OW 1042   1.071   1.257   1.473 -0.7745 -0.4622  0.1511
  348SOL    HW1 1043   1.066   1.159   1.447  0.5431  1.5690 -1.1489
  348SOL    HW2 1044   1.152   1.311   1.435  1.6356  0.0950 -0.6848
  349SOL     OW 1045   2.728   0.732   1.883 -0.1240  0.3062 -0.5704
  349SOL    HW1 1046   2.737   0.647   1.828 -3.3392  2.8143 -0.8541
  349SOL    HW2 1047   2.794   0.799   1.843  0.8643  0.6997  0.5369
  350SOL     OW 1048   2.384   2.015   3.026  0.1160  0.4067  0.3015
  350SOL    HW1 1049   2.359   2.063   2.939  2.8358  0.3284 -0.1567
  350SOL    HW2 1050   2.334   1.928   3.039  1.1005 -1.1355  0.2710
  351SOL     OW 1051   0.714   0.025   1.761 -0.5050  0.3279  0.4626
  351SOL    HW1 1052   0.813   0.043   1.763 -0.6846  3.6990  1.4534
  351SOL    HW2 1053   0.668   0.069   1.682 -1.9623  1.6170  0.0381
  352SOL     OW 1054   2.064   2.511   1.971  1.0153 -0.2940  0.2536
  352SOL    HW1 1055   2.155   2.470   1.954  0.1063 -1.0226 -1.7288
  352SOL    HW2 1056   2.024   2.464   2.051  0.6568  0.9023 -2.2114
  353SOL     OW 1057   0.935   1.247   2.330 -0.2452 -0.5172  0.1273
  353SOL    HW1 1058   0.955   1.153   2.295 -0.0432  0.3225 -0.0682
  353SOL    HW2 1059   0.928   1.245   2.429 -0.2230  1.3223 -2.2521
  354SOL     OW 1060   1.046   1.813   3.069  0.1542 -0.3099  0.2706
  354SOL    HW1 1061   1.082   1.889   3.009  0.7868  0.8506 -1.9425
  354SOL    HW2 1062   0.979   1.849   0.048  0.5252 -0.6272  1.0882
  355SOL     OW 1063   2.011   0.010   0.930 -0.0746 -0.2388  0.4601
  355SOL    HW1 1064   2.098   3.072   0.971 -0.3639 -1.8963 -1.8407
  355SOL    HW2 1065   1.991   0.108   0.949  0.5308 -0.8760  1.9835
  356SOL     OW 1066   2.624   1.216   3.066 -0.1248 -0.9328  0.0619
  356SOL    HW1 1067   2.622   1.227   2.964 -0.7231 -0.7816  2.9684
  356SOL    HW2 1068   2.550   1.279   0.007 -2.0774  2.7858  0.9537
  357SOL     OW 1069   2.875   0.046   2.087 -0.9067 -0.4174 -0.2090
  357SOL    HW1 1070   2.970   0.034   2.062 -0.0455  0.4688 -0.1174
  357SOL    HW2 1071   2.812   0.023   2.009  0.1004 -0.3897  0.2602
  358SOL     OW 1072   0.150   1.419   0.675  0.6727 -0.3344  0.1470
  358SOL    HW1 1073   0.140   1.322   0.657 -0.3325  2.2669  2.6270
  358SOL    HW2 1074   0.167   1.438   0.773  1.6752 -0.3983  0.3623
  359SOL     OW 1075   2.607   0.315   2.833 -0.0436 -0.2089  0.4533
  359SOL    HW1 1076   2.581   0.383   2.762  2.4239  1.0566  1.5857
  359SOL    HW2 1077   2.621   0.370   2.920  1.1652 -2.3414 -0.7941
  360SOL     OW 1078   1.434   0.843   1.041 -0.3404  0.3678 -0.5785
  360SOL    HW1 1079   1.438   0.749   1.003  1.3996  2.6821 -2.6371
  360SOL    HW2 1080   1.527   0.880   1.034 -1.3210  0.5093 -2.5676
  361SOL     OW 1081   2.631   2.401   0.932 -0.7550 -0.0788 -0.1793
  361SOL    HW1 1082   2.633   2.304   0.958 -0.5265  3.6306 -0.7135
  361SOL    HW2 1083   2.534   2.429   0.909  1.1157 -0.0298 -0.7865
  362SOL     OW 1084   1.143   0.527   1.007  0.3759 -0.2617 -0.1216
  362SOL    HW1 1085   1.078   0.465   1.056 -3.0645  1.4452 -1.6901
  362SOL    HW2 1086   1.086   0.573   0.938 -2.5760 -0.2927  1.8105
  363SOL     OW 1087   1.922   1.935   0.449 -0.2289  0.0841  0.2409
  363SOL    HW1 1088   2.011   1.886   0.463  2.5144 -1.8336  0.3279
  363SOL    HW2 1089   1.922   2.020   0.499 -0.7724 -2.4342 -4.3571
  364SOL     OW 1090   0.418   0.547   1.271  0.9669 -0.7222 -0.0050
  364SOL    HW1 1091   0.315   0.544   1.273 -0.4624  2.2194 -1.5406
  364SOL    HW2 1092   0.449   0.641   1.240 -0.4877  1.1737 -3.8529
  365SOL     OW 1093   0.192   0.021   0.852  0.2756 -0.0680 -0.0499
  365SOL    HW1 1094   0.290   0.039   0.827  1.2627  0.3850  1.0233
  365SOL    HW2 1095   0.179   0.013   0.954 -0.7362  1.8321  0.5034
  366SOL     OW 1096   2.888   1.499   0.123 -0.5668  0.0070 -0.0397
  366SOL    HW1 1097   2.957   1.470   0.051 -0.3929 -1.9850 -1.0586
  366SOL    HW2 1098   2.934   1.578   0.171  0.1680  0.4826  2.1985
  367SOL     OW 1099   2.421   2.536   2.468  0.0110 -0.6003 -0.3039
  367SOL    HW1 1100   2.352   2.549   2.547 -0.4017  1.3138  0.7022
  367SOL    HW2 1101   2.516   2.564   2.489 -2.1143 -0.3207 -1.1086
  368SOL     OW 1102   2.273   1.758   0.477 -0.5504 -0.4579 -0.5272
  368SOL    HW1 1103   2.332   1.731   0.553  0.8885  0.4542 -3.4168
  368SOL    HW2 1104   2.188   1.696   0.479 -2.1311  0.1705 -2.0884
  369SOL     OW 1105   1.554   0.848   0.118 -0.1098 -0.4788  0.1728
  369SOL    HW1 1106   1.477   0.908   0.151  0.5456  1.4944 -0.3345
  369SOL    HW2 1107   1.514   0.758   0.084  0.0890 -1.8653  0.3279
  370SOL     OW 1108   0.431   0.140   0.878 -0.1500 -0.2502 -0.2422
  370SOL    HW1 1109   0.447   0.184   0.968 -1.9862  0.0710 -0.2340
  370SOL    HW2 1110   0.504   0.071   0.866 -0.9150 -0.9720  0.6632
  371SOL     OW 1111   2.841   1.399   2.681 -0.0862  0.1579 -0.6037
  371SOL    HW1 1112   2.909   1.454   2.731 -0.5368  4.5309  0.3115
  371SOL    HW2 1113   2.792   1.343   2.748  1.1957 -0.1387  1.1498
  372SOL     OW 1114   0.593   0.576   2.365 -0.2591  0.1009  0.1091
  372SOL    HW1 1115   0.581   0.546   2.270 -0.2182 -1.8149 -1.9708
  372SOL    HW2 1116   0.572   0.678   2.375 -1.8884  1.1301  0.8157
  373SOL     OW 1117   0.554   0.079   3.032  0.3380  0.2911  0.3667
  373SOL    HW1 1118   0.555   0.080   2.929 -0.6702  1.6339 -1.1109
  373SOL    HW2 1119   0.642   0.044   3.076  1.9824 -1.0324  0.2327
  374SOL     OW 1120   1.184   1.590   3.047 -0.0294 -0.3345  0.2925
  374SOL    HW1 1121   1.171   1.536   2.963  0.8463  1.2275  0.9719
  374SOL    HW2 1122   1.124   1.673   3.051  2.0493  1.3693  2.9891
  375SOL     OW 1123   0.715   0.361   1.823 -0.2649  0.0948 -0.0861
  375SOL    HW1 1124   0.799   0.357   1.757  5.0391  0.4920 -3.1482
  375SOL    HW2 1125   0.743   0.401   1.913 -1.4335  2.3544 -1.8062
  376SOL     OW 1126   0.343   2.867   2.017  0.3148  0.5258  1.0121
  376SOL    HW1 1127   0.245   2.885   2.037 -2.9459 -2.4308 -1.8612
  376SOL    HW2 1128   0.392   2.852   2.103  0.2288  0.0439 -0.4709
  377SOL     OW 1129   2.524   2.372   2.882  0.0283  0.0356  0.0603
  377SOL    HW1 1130   2.616   2.408   2.892 -2.7338 -1.7887 -0.7216
  377SOL    HW2 1131   2.483   2.355   2.973 -2.7749  3.4575  1.0316
  378SOL     OW 1132   2.088   0.357   0.164 -0.2363  0.3253  0.3832
  378SOL    HW1 1133   2.055   0.259   0.181 -2.4971 -4.7760  1.0507
  378SOL    HW2 1134   2.189   0.356   0.168 -0.6169  2.1215 -1.5860
  379SOL     OW 1135   1.692   0.775   0.408  0.2816  0.6448  0.4726
  379SOL    HW1 1136   1.762   0.760   0.477  0.0376 -0.7005 -0.9969
  379SOL    HW2 1137   1.724   0.836   0.335 -2.5815  5.0895 -0.6626
  380SOL     OW 1138   2.724   2.163   1.795 -0.4256  0.8029  0.1394
  380SOL    HW1 1139   2.821   2.199   1.802  4.0558 -1.2556 -0.3295
  380SOL    HW2 1140   2.717   2.097   1.716  1.1899 -0.5102 -0.3510
  381SOL     OW 1141   2.725   1.359   2.022 -0.0747 -0.2434  0.5329
  381SOL    HW1 1142   2.777   1.381   2.108  0.0164  0.6359 -0.5161
  381SOL    HW2 1143   2.722   1.259   2.002  0.5544  0.8649 -2.3699
  382SOL     OW 1144   2.808   2.243   2.824 -0.2514  0.0316 -0.5390
  382SOL    HW1 1145   2.749   2.171   2.871 -2.1034 -0.9655 -0.5941
  382SOL    HW2 1146   2.833   2.204   2.734  0.6679 -0.4493  2.7568
  383SOL     OW 1147   1.241   1.015   2.819  0.5425 -0.4241  0.2624
  383SOL    HW1 1148   1.221   0.978   2.723 -1.1549 -2.8689 -3.6348
  383SOL    HW2 1149   1.334   1.004   2.850  1.5969  0.5721  3.0407
  384SOL     OW 1150   1.785   1.889   2.301  0.2317  0.1084  0.4822
  384SOL    HW1 1151   1.727   1.965   2.341 -1.7526 -2.2419 -0.2132
  384SOL    HW2 1152   1.881   1.906   2.329  2.2502  1.3524  0.0291
  385SOL     OW 1153   2.284   2.498   0.161  0.3442  0.3743  0.0840
  385SOL    HW1 1154   2.323   2.420   0.108 -1.3924 -0.9705 -3.1415
  385SOL    HW2 1155   2.266   2.475   0.260 -0.1629  2.6227  3.5461
  386SOL     OW 1156   1.877   1.467   0.603  0.3354 -0.0205  0.4470
  386SOL    HW1 1157   1.823   1.390   0.562 -2.0468  1.0688 -0.9817
  386SOL    HW2 1158   1.841   1.558   0.574  0.3594  1.3425 -1.3996
  387SOL     OW 1159   2.397   1.715   1.260 -0.1396 -0.3769 -0.0865
  387SOL    HW1 1160   2.333   1.688   1.335  0.5468  0.4525 -3.0219
  387SOL    HW2 1161   2.472   1.646   1.245  2.2405 -0.4249 -0.7328
  388SOL     OW 1162   0.591   1.105   1.724 -0.3688 -0.3644  0.0511
  388SOL    HW1 1163   0.519   1.118   1.650 -1.1720 -2.4396  2.4341
  388SOL    HW2 1164   0.584   1.168   1.803  1.5007  1.4672 -2.0964
  389SOL     OW 1165   2.344   1.072   2.583 -0.1971 -0.4586 -0.4728
  389SOL    HW1 1166   2.249   1.104   2.580  1.3332 -0.2734  0.0823
  389SOL    HW2 1167   2.405   1.155   2.582 -1.3280 -2.8702  3.0469
  390SOL     OW 1168   0.830   1.416   3.052 -0.1265 -0.0811 -0.0088
  390SOL    HW1 1169   0.873   1.400   2.957 -1.2592 -1.1327 -1.0102
  390SOL    HW2 1170   0.748   1.356   3.050  2.4212 -1.5021 -1.1688
  391SOL     OW 1171   0.684   2.088   0.007 -0.5904  0.2947  0.0902
  391SOL    HW1 1172   0.740   2.120   3.022  0.1310 -0.2272  0.8231
  391SOL    HW2 1173   0.632   2.005   3.083 -0.0104  2.6036 -1.8136
  392SOL     OW 1174   2.809   2.695   2.137 -0.0606  0.0644  0.2810
  392SOL    HW1 1175   2.907   2.700   2.112  0.6102 -0.8753 -3.2311
  392SOL    HW2 1176   2.775   2.597   2.122 -0.1203 -3.6816 -0.5522
  393SOL     OW 1177   1.541   2.165   0.075 -0.4026  1.0551 -0.0092
  393SOL    HW1 1178   1.495   2.246   0.029 -0.6757  0.4298  2.0903
  393SOL    HW2 1179   1.489   2.131   0.154  1.9288 -0.0847 -1.0698
  394SOL     OW 1180   0.716   0.187   2.575  0.3045 -0.7881 -0.0227
  394SOL    HW1 1181   0.741   0.288   2.585  0.7395 -0.1818  0.0834
  394SOL    HW2 1182   0.676   0.176   2.484  1.5444  0.2857 -0.1561
  395SOL     OW 1183   0.348   1.555   1.426 -0.3236 -0.1266 -0.2237
  395SOL    HW1 1184   0.305   1.646   1.444 -0.1398 -1.0111 -1.1273
  395SOL    HW2 1185   0.332   1.485   1.496 -1.1988  3.5496 -4.2946
  396SOL     OW 1186   2.111   1.374   2.917  0.3263  0.2113  0.3310
  396SOL    HW1 1187   2.118   1.269   2.923 -0.9893  0.4666  0.6490
  396SOL    HW2 1188   2.145   1.396   2.826  0.7977 -3.7108  2.5274
  397SOL     OW 1189   0.208   0.618   0.232 -0.0024  0.1543  0.0086
  397SOL    HW1 1190   0.189   0.645   0.134 -0.6528  3.3311 -2.2805
  397SOL    HW2 1191   0.185   0.520   0.239  3.7698  4.2206 -2.1557
  398SOL     OW 1192   1.029   2.650   0.454  0.1801 -0.4046  0.7365
  398SOL    HW1 1193   1.125   2.661   0.418 -0.0217 -1.4287 -0.6139
  398SOL    HW2 1194   0.968   2.713   0.406 -2.9653  1.9902 -0.5877
  399SOL     OW 1195   2.053   2.329   2.512 -0.3443  0.3548  0.0248
  399SOL    HW1 1196   2.050   2.426   2.478  0.5431  1.1540 -0.8525
  399SOL    HW2 1197   2.091   2.273   2.435  5.5327 -1.2631 -3.5990
  400SOL     OW 1198   2.939   1.529   1.616 -0.1738  0.4079 -0.7964
  400SOL    HW1 1199   2.864   1.467   1.585 -2.5482 -0.8736  1.7427
  400SOL    HW2 1200   3.000   1.559   1.536  1.7924 -2.4230 -0.7068
  401SOL     OW 1201   1.617   0.896   0.715 -0.4897 -0.4400 -0.6051
  401SOL    HW1 1202   1.618   0.801   0.687 -1.7896  0.0056  0.0470
  401SOL    HW2 1203   1.543   0.946   0.661 -0.5086  2.8226  0.3504
  402SOL     OW 1204   0.342   0.047   2.642  0.1423  0.0086  0.5587
  402SOL    HW1 1205   0.441   0.061   2.667  1.4831 -0.0009  1.8873
  402SOL    HW2 1206   0.280   0.121   2.675 -0.5199 -0.2276  0.5439
  403SOL     OW 1207   2.857   1.722   1.806  0.1997 -0.0328  0.0071
  403SOL    HW1 1208   2.868   1.649   1.734 -2.0301 -0.8882 -0.5412
  403SOL    HW2 1209   2.819   1.804   1.760 -2.1227 -1.5249  3.6109
  404SOL     OW 1210   2.446   1.822   1.594 -0.4634 -0.0759  0.5215
  404SOL    HW1 1211   2.422   1.789   1.690 -4.6393 -1.1681 -1.5217
  404SOL    HW2 1212   2.363   1.844   1.540  0.6459 -1.0468  1.1384
  405SOL     OW 1213   2.240   0.299   2.724  0.3683  0.1573  0.2863
  405SOL    HW1 1214   2.217   0.258   2.631 -1.9921  1.4026  0.8112
  405SOL    HW2 1215   2.154   0.325   2.768 -1.2561  0.6200  1.3634
  406SOL     OW 1216   0.895   1.365   2.777 -0.3148  0.0314 -0.2930
  406SOL    HW1 1217   0.896   1.277   2.725 -1.9516 -1.5569 -1.4230
  406SOL    HW2 1218   0.894   1.446   2.715 -1.1125  0.3254 -1.4939
  407SOL     OW 1219   1.762   1.979   0.942 -0.3089 -0.4834  0.2091
  407SOL    HW1 1220   1.707   2.024   0.874 -0.9198  1.5578 -1.7955
  407SOL    HW2 1221   1.853   2.020   0.940 -0.1771 -0.6848  1.1160
  408SOL     OW 1222   3.067   0.066   0.694 -0.2936  0.1943  0.2648
  408SOL    HW1 1223   0.055   0.035   0.754 -1.8349  0.6635  1.5635
  408SOL    HW2 1224   3.040   3.069   0.644  0.8620 -3.3073 -0.5332
  409SOL     OW 1225   1.916   1.394   0.864 -0.5970 -0.0661 -0.4389
  409SOL    HW1 1226   1.976   1.459   0.917  0.0899 -1.1018  0.1109
  409SOL    HW2 1227   1.898   1.435   0.774  0.9214 -1.3013  1.6835
  410SOL     OW 1228   2.001   2.233   0.069  0.9113 -0.4165 -0.0492
  410SOL    HW1 1229   1.944   2.147   0.078 -0.9566 -1.5365  0.2291
  410SOL    HW2 1230   2.092   2.222   0.113  1.2274 -1.7232 -1.9688
  411SOL     OW 1231   0.136   3.010   0.379 -0.7386 -0.4192  0.2978
  411SOL    HW1 1232   0.063   3.058   0.320 -1.4322  1.2971  1.1217
  411SOL    HW2 1233   0.180   3.076   0.449 -0.4849  0.8615  0.1931
  412SOL     OW 1234   1.393   2.835   0.851  0.0650  0.0331 -0.2146
  412SOL    HW1 1235   1.300   2.839   0.890  0.8980  0.2623  1.0088
  412SOL    HW2 1236   1.438   2.924   0.873 -1.2726  4.1803 -2.8947
  413SOL     OW 1237   1.793   0.428   2.428  0.0949  0.0826  0.2540
  413SOL    HW1 1238   1.881   0.478   2.409  1.0097 -1.5660 -2.2047
  413SOL    HW2 1239   1.770   0.363   2.348  0.6793 -2.4202 -1.9386
  414SOL     OW 1240   0.375   0.636   0.423 -0.0378 -0.3913 -0.2918
  414SOL    HW1 1241   0.445   0.708   0.399 -0.3903  0.2300 -0.4720
  414SOL    HW2 1242   0.315   0.627   0.339  1.7426 -1.6214 -0.7076
  415SOL     OW 1243   3.062   1.196   1.209  0.7362  0.1936 -0.2153
  415SOL    HW1 1244   0.072   1.211   1.194  0.3076 -1.6465 -2.5049
  415SOL    HW2 1245   3.031   1.108   1.165 -0.7486 -0.3139  1.6567
  416SOL     OW 1246   0.240   0.468   3.061  0.5358  0.0815  0.5077
  416SOL    HW1 1247   0.257   0.516   2.971  2.4184 -0.2813 -0.6090
  416SOL    HW2 1248   0.328   0.423   0.002  1.1940  0.0579 -0.2498
  417SOL     OW 1249   2.441   0.181   0.756 -0.5830 -0.5797 -0.6348
  417SOL    HW1 1250   2.464   0.168   0.658  0.9873 -0.1679 -0.2883
  417SOL    HW2 1251   2.480   0.270   0.774  1.1493 -1.7596  0.4677
  418SOL     OW 1252   0.344   0.611   2.519 -0.3217 -0.2119 -0.1808
  418SOL    HW1 1253   0.434   0.633   2.479  0.5560 -0.4724 -0.9058
  418SOL    HW2 1254   0.302   0.554   2.450 -0.4590 -0.0530  2.3269
  419SOL     OW 1255   0.433   0.712   0.711  0.7434  0.2840 -0.0242
  419SOL    HW1 1256   0.341   0.672   0.694  0.4629  1.4406 -1.0850
  419SOL    HW2 1257   0.472   0.690   0.804 -0.9615  0.0821 -0.9009
  420SOL     OW 1258   2.086   1.468   1.263  0.2751 -0.1536 -0.3230
  420SOL    HW1 1259   2.010   1.463   1.334 -1.1709 -0.4071  0.9045
  420SOL    HW2 1260   2.052   1.514   1.176 -0.5073 -0.4749 -2.9182
  421SOL     OW 1261   1.207   1.956   2.723  0.2449  0.0953 -0.1683
  421SOL    HW1 1262   1.132   1.903   2.675  0.2297  0.4462  1.1981
  421SOL    HW2 1263   1.219   2.051   2.681 -0.0468 -0.9842 -1.3379
  422SOL     OW 1264   2.640   0.479   3.063  0.0651  0.1926 -0.2142
  422SOL    HW1 1265   2.539   0.503   3.076 -1.9658 -1.1424 -0.0646
  422SOL    HW2 1266   2.697   0.564   3.034  1.5990 -0.6369 -0.6909
  423SOL     OW 1267   1.992   1.643   0.236  0.4855 -0.3936  0.1398
  423SOL    HW1 1268   2.038   1.737   0.218 -0.0376  3.4454 -0.3346
  423SOL    HW2 1269   1.906   1.638   0.182 -1.4154  2.2198 -0.9550
  424SOL     OW 1270   0.818   1.073   1.595  0.2362 -0.0215  0.5567
  424SOL    HW1 1271   0.737   1.075   1.652  2.6957 -1.3447 -2.0412
  424SOL    HW2 1272   0.808   1.145   1.523 -1.1722 -0.8554  2.0973
  425SOL     OW 1273   2.792   2.796   2.387 -0.0483  0.6356 -0.3681
  425SOL    HW1 1274   2.688   2.782   2.379 -1.8063  0.6029  0.0989
  425SOL    HW2 1275   2.841   2.766   2.299 -0.5405  1.5120 -1.7874
  426SOL     OW 1276   1.874   2.539   0.453 -0.0932  0.1593  0.1771
  426SOL    HW1 1277   1.820   2.533   0.365  0.4846 -0.0237  1.3220
  426SOL    HW2 1278   1.815   2.530   0.537 -0.6483  0.6991  1.9025
  427SOL     OW 1279   0.671   0.547   3.001 -0.2358 -0.4958  0.0098
  427SOL    HW1 1280   0.721   0.573   3.087 -1.5935 -0.3650  1.4351
  427SOL    HW2 1281   0.625   0.624   2.953 -1.4781  0.4993  0.3613
  428SOL     OW 1282   2.452   1.321   2.625  0.2712 -0.2760 -0.0339
  428SOL    HW1 1283   2.502   1.334   2.536 -2.3041  1.2202 -1.9814
  428SOL    HW2 1284   2.375   1.388   2.617 -2.6170 -2.5500  0.9394
  429SOL     OW 1285   2.927   0.288   0.587  0.2545 -0.1334 -0.2416
  429SOL    HW1 1286   2.900   0.222   0.515 -0.0218 -1.3553  3.0082
  429SOL    HW2 1287   2.964   0.227   0.661  1.0552 -1.3511  1.5090
  430SOL     OW 1288   1.112   2.897   2.110 -0.3495  0.6271 -0.1447
  430SOL    HW1 1289   1.072   2.803   2.115 -0.3412 -1.6397  2.6136
  430SOL    HW2 1290   1.116   2.917   2.014  1.0579 -2.0877  4.8313
  431SOL     OW 1291   2.992   1.784   1.329  0.0719 -0.4354 -0.2091
  431SOL    HW1 1292   3.051   1.709   1.354 -1.1243 -1.1887 -0.1964
  431SOL    HW2 1293   2.892   1.759   1.313  0.4969  0.3543 -0.3214
  432SOL     OW 1294   2.354   2.414   2.007 -0.1117 -0.2228  0.3879
  432SOL    HW1 1295   2.451   2.397   1.980 -0.0835 -1.0522 -0.7549
  432SOL    HW2 1296   2.338   2.513   2.006 -2.2164 -0.7823  0.4390
  433SOL     OW 1297   1.401   2.041   0.297 -0.6028 -0.0867 -0.0733
  433SOL    HW1 1298   1.412   1.950   0.252  1.0275 -0.9538  1.1124
  433SOL    HW2 1299   1.299   2.057   0.308 -1.9189 -1.3423  1.0023
  434SOL     OW 1300   0.233   2.233   2.868  0.1239  0.0775  0.2502
  434SOL    HW1 1301   0.329   2.245   2.893  0.3844 -1.3905  0.0377
  434SOL    HW2 1302   0.210   2.280   2.781  2.7134  0.0919 -0.5138
  435SOL     OW 1303   0.090   1.138   0.670 -0.1086 -0.1688 -0.6361
  435SOL    HW1 1304   0.119   1.080   0.593  1.5687  2.8338  3.0763
  435SOL    HW2 1305   3.083   1.141   0.688 -0.6699  3.0846  1.0883
  436SOL     OW 1306   0.561   2.877   1.802  0.6681 -0.2376  0.5213
  436SOL    HW1 1307   0.508   2.889   1.888  1.7212  0.2453  0.9341
  436SOL    HW2 1308   0.624   2.953   1.784 -2.1553  0.1400  0.9614
  437SOL     OW 1309   1.256   2.421   1.093 -0.1603  0.1529  0.2353
  437SOL    HW1 1310   1.307   2.333   1.095 -0.3053  2.8190 -3.1014
  437SOL    HW2 1311   1.229   2.439   0.993  0.9707  1.0259 -2.9489
  438SOL     OW 1312   0.252   2.359   0.752  0.3898  0.3924 -0.4314
  438SOL    HW1 1313   0.259   2.339   0.651  2.0960  0.4659 -1.7706
  438SOL    HW2 1314   0.159   2.380   0.782 -0.1216  0.1776  0.8212
  439SOL     OW 1315   0.964   2.806   1.688  0.4561  0.0931 -0.1245
  439SOL    HW1 1316   1.023   2.728   1.661  1.0415  1.5370 -0.5334
  439SOL    HW2 1317   0.882   2.769   1.738 -0.0524  0.4835 -3.0036
  440SOL     OW 1318   2.031   2.771   2.056 -0.3610  0.0912 -0.3771
  440SOL    HW1 1319   2.047   2.689   2.002  1.1690  0.5539  5.5329
  440SOL    HW2 1320   2.076   2.854   2.014  2.1042 -1.3102  1.2853
  441SOL     OW 1321   0.201   0.573   1.754 -0.1226  0.1261 -0.4493
  441SOL    HW1 1322   0.264   0.652   1.778  0.9623  3.8181 -0.3763
  441SOL    HW2 1323   0.170   0.519   1.838 -0.9602  0.4148 -1.7761
  442SOL     OW 1324   1.684   2.260   0.570 -0.2273 -0.2053 -0.5843
  442SOL    HW1 1325   1.673   2.343   0.631  3.4705  2.4363  1.6332
  442SOL    HW2 1326   1.635   2.270   0.483  0.3879 -1.2243  2.2108
  443SOL     OW 1327   0.013   0.842   2.726  0.5230 -0.0833  0.1000
  443SOL    HW1 1328   3.025   0.784   2.739  1.1510 -0.2791  1.0660
  443SOL    HW2 1329   0.033   0.886   2.814 -1.0927  0.7978  0.0503
  444SOL     OW 1330   1.978   1.097   2.109  0.2554 -0.2065 -0.3785
  444SOL    HW1 1331   1.982   1.049   2.020 -1.8755 -0.7175  0.5601
  444SOL    HW2 1332   1.914   1.174   2.094  1.6476 -1.0654 -0.2470
  445SOL     OW 1333   0.019   2.510   1.338  0.3932 -0.4382 -0.4899
  445SOL    HW1 1334   3.012   2.523   1.338 -0.2864 -0.7734 -2.5820
  445SOL    HW2 1335   0.044   2.430   1.401 -0.2664 -1.6582  1.6204
  446SOL     OW 1336   2.757   1.758   1.190 -0.0659  0.4399 -0.1202
  446SOL    HW1 1337   2.684   1.688   1.168  0.0919 -0.2054 -1.2164
  446SOL    HW2 1338   2.814   1.783   1.109 -1.1335 -0.7451  1.2898
  447SOL     OW 1339   0.333   0.955   0.314  0.2773  0.0309  0.5446
  447SOL    HW1 1340   0.407   0.996   0.363 -2.7844  1.7149 -0.5480
  447SOL    HW2 1341   0.243   0.945   0.360  1.4209  3.8578 -1.1552
  448SOL     OW 1342   1.218   2.144   2.133  0.7270  0.6980  0.1780
  448SOL    HW1 1343   1.214   2.217   2.057  1.4210  3.2729 -1.3110
  448SOL    HW2 1344   1.265   2.062   2.089 -0.4988 -1.0734  0.7734
  449SOL     OW 1345   1.330   1.601   0.388 -0.0545 -0.0540  0.3126
  449SOL    HW1 1346   1.360   1.509   0.428 -1.2943  2.6317  0.6880
  449SOL    HW2 1347   1.233   1.621   0.402 -0.4857 -2.4757 -2.6143
  450SOL     OW 1348   2.804   2.553   1.821  0.4983 -0.0378  0.2221
  450SOL    HW1 1349   2.849   2.463   1.819  1.9129  0.7019 -1.2829
  450SOL    HW2 1350   2.866   2.631   1.800  1.4335  2.5953 -0.7782
  451SOL     OW 1351   2.195   0.784   2.447 -0.2845 -0.2063 -0.3923
  451SOL    HW1 1352   2.293   0.812   2.473  4.5971  1.3007 -0.8139
  451SOL    HW2 1353   2.167   0.713   2.510 -2.5423  4.0438 -0.6657
  452SOL     OW 1354   1.693   0.610   0.686 -0.0314  0.1915  0.3887
  452SOL    HW1 1355   1.722   0.548   0.614 -0.2368 -0.3694  3.3982
  452SOL    HW2 1356   1.774   0.627   0.744 -2.4107  0.9798 -2.2213
  453SOL     OW 1357   1.924   0.654   1.482 -0.2307 -0.2498  0.1291
  453SOL    HW1 1358   1.971   0.633   1.569 -0.4456  1.0296  0.3098
  453SOL    HW2 1359   1.943   0.584   1.408  2.7243  2.5336 -0.7666
  454SOL     OW 1360   3.036   1.422   0.384  0.1027  0.1493  0.1238
  454SOL    HW1 1361   2.997   1.436   0.477  1.3435  1.1018 -0.3792
  454SOL    HW2 1362   3.002   1.493   0.319 -2.4707 -1.7553  3.0747
  455SOL     OW 1363   2.464   2.859   1.151  0.2167  0.2047  0.1601
  455SOL    HW1 1364   2.556   2.858   1.195  1.3386  1.7645 -0.5889
  455SOL    HW2 1365   2.456   2.947   1.099 -2.7531  3.1549 -0.4244
  456SOL     OW 1366   0.145   2.852   1.523  0.3915  0.1150 -0.2136
  456SOL    HW1 1367   0.241   2.813   1.534  0.3012  1.1358  1.5715
  456SOL    HW2 1368   0.104   2.895   1.606 -1.6444  1.6220  0.5557
  457SOL     OW 1369   1.428   3.051   0.494  0.0855 -0.1986  0.1636
  457SOL    HW1 1370   1.491   3.070   0.418  0.3642 -1.8484  2.0484
  457SOL    HW2 1371   1.441   0.029   0.570 -0.1048  2.3239 -1.3561
  458SOL     OW 1372   2.319   2.653   0.693 -0.4723  0.0357 -0.2370
  458SOL    HW1 1373   2.219   2.641   0.712 -2.3195 -0.5429 -3.0883
  458SOL    HW2 1374   2.335   2.684   0.596  2.7575 -2.1638  0.6250
  459SOL     OW 1375   2.300   0.642   2.888 -0.2326 -0.2317 -0.1648
  459SOL    HW1 1376   2.323   0.617   2.990  2.5723  0.5564  2.3245
  459SOL    HW2 1377   2.337   0.570   2.829  1.8528 -0.4706  1.3773
  460SOL     OW 1378   2.236   2.825   3.004 -0.1722 -0.3000 -0.6373
  460SOL    HW1 1379   2.179   2.890   2.951 -0.0583  1.1241 -2.4180
  460SOL    HW2 1380   2.299   2.767   2.950 -1.1669  0.0146 -0.2898
  461SOL     OW 1381   0.801   1.857   0.128  0.7052 -0.8868  0.2857
  461SOL    HW1 1382   0.823   1.838   0.224  1.6855 -2.3848 -1.5506
  461SOL    HW2 1383   0.774   1.956   0.118 -0.5311  0.7666 -0.4509
  462SOL     OW 1384   2.024   2.045   0.833 -0.8046  0.2070  0.2080
  462SOL    HW1 1385   2.120   2.020   0.811 -0.7615 -0.1705 -1.3808
  462SOL    HW2 1386   1.988   2.086   0.743 -1.5417  0.5291 -0.6817
  463SOL     OW 1387   2.649   1.076   0.632  0.3366 -0.2371 -0.6958
  463SOL    HW1 1388   2.639   0.989   0.585  0.1864  0.6568 -0.7167
  463SOL    HW2 1389   2.569   1.092   0.694  1.3457 -0.4146  5.6703
  464SOL     OW 1390   0.677   2.823   0.951  0.4142 -0.3977 -0.0048
  464SOL    HW1 1391   0.581   2.796   0.932 -1.5595  1.3910  2.2584
  464SOL    HW2 1392   0.746   2.768   0.905  0.7110  1.8549  1.6917
  465SOL     OW 1393   2.463   1.472   0.087 -0.1260 -0.2719  0.1359
  465SOL    HW1 1394   2.470   1.538   0.165 -0.4335  0.9280 -0.5299
  465SOL    HW2 1395   2.409   1.513   0.010  1.3746  2.3832 -1.4992
  466SOL     OW 1396   2.011   0.405   2.835 -0.1203 -0.4792 -0.5470
  466SOL    HW1 1397   1.924   0.450   2.829  0.5342 -0.4657 -1.6606
  466SOL    HW2 1398   2.006   0.331   2.907 -1.3177 -0.0675  0.7090
  467SOL     OW 1399   0.900   0.636   1.408 -0.0352 -1.0543  0.0755
  467SOL    HW1 1400   0.995   0.619   1.390  0.9223  1.1947  0.1757
  467SOL    HW2 1401   0.850   0.590   1.330  1.0665 -2.8147  1.9327
  468SOL     OW 1402   0.334   1.040   2.745  0.1498 -0.0055 -0.2286
  468SOL    HW1 1403   0.348   1.006   2.841 -4.3304  0.8181  0.8407
  468SOL    HW2 1404   0.311   0.960   2.678 -2.5540 -3.7943 -0.3963
  469SOL     OW 1405   0.385   2.188   0.229 -0.3001 -0.0334 -0.0681
  469SOL    HW1 1406   0.340   2.168   0.139  0.2363  0.0426 -1.8966
  469SOL    HW2 1407   0.451   2.262   0.222  1.1731 -3.2670  2.1141
  470SOL     OW 1408   2.677   1.478   2.465  0.1108  0.3704 -0.5016
  470SOL    HW1 1409   2.728   1.456   2.554 -2.4291  2.8850  0.9378
  470SOL    HW2 1410   2.752   1.479   2.392  1.6951  1.7487 -0.1457
  471SOL     OW 1411   2.760   1.055   2.069  0.4740 -0.1427  0.5535
  471SOL    HW1 1412   2.716   1.039   2.157  1.1137 -0.2402  2.9746
  471SOL    HW2 1413   2.688   1.037   1.996 -0.6019  1.1456 -0.7490
  472SOL     OW 1414   0.453   2.810   0.613  0.7825 -0.2725  0.1487
  472SOL    HW1 1415   0.410   2.812   0.521 -1.2560 -1.1299  0.6207
  472SOL    HW2 1416   0.537   2.749   0.618  1.9546 -0.3317 -0.5069
  473SOL     OW 1417   0.894   2.917   0.044 -0.4449 -0.4536  0.2612
  473SOL    HW1 1418   0.818   2.849   0.048 -0.0919 -2.0376  3.1936
  473SOL    HW2 1419   0.887   2.973   3.051  2.8974  0.9332 -0.6025
  474SOL     OW 1420   1.887   0.061   2.144  0.4811  0.4086  0.3332
  474SOL    HW1 1421   1.795   0.106   2.154 -1.0968 -0.5871  0.0524
  474SOL    HW2 1422   1.901   0.028   2.049 -1.5280  0.7722  0.3095
  475SOL     OW 1423   1.397   2.362   0.465 -0.1904  0.0833 -0.0727
  475SOL    HW1 1424   1.328   2.287   0.476 -1.1075 -2.2940 -1.0203
  475SOL    HW2 1425   1.465   2.328   0.394  1.3924 -1.7673 -1.2528
  476SOL     OW 1426   0.611   0.932   0.779 -0.0521  0.1441 -0.7110
  476SOL    HW1 1427   0.532   0.878   0.738 -2.0513 -3.1745 -0.1838
  476SOL    HW2 1428   0.603   0.941   0.881 -1.0389  1.2687  2.0976
  477SOL     OW 1429   1.558   2.520   1.259 -0.6378 -0.4326 -0.0698
  477SOL    HW1 1430   1.459   2.544   1.265 -5.2992  2.3310  0.9592
  477SOL    HW2 1431   1.598   2.572   1.184 -0.3058 -0.2816  2.2987
  478SOL     OW 1432   0.501   1.832   2.572 -0.0681  0.5215  0.3696
  478SOL    HW1 1433   0.558   1.783   2.505 -3.2025 -1.8766 -1.3897
  478SOL    HW2 1434   0.450   1.762   2.632 -1.4262 -1.7499 -0.1686
  479SOL     OW 1435   2.888   3.041   1.159  0.2401  0.2752  0.2947
  479SOL    HW1 1436   2.841   2.970   1.103 -2.1567 -0.8573 -0.1409
  479SOL    HW2 1437   2.965   2.996   1.209 -0.7432 -2.7379 -1.3797
  480SOL     OW 1438   2.948   2.945   0.562  0.1613  0.3044  0.2029
  480SOL    HW1 1439   3.005   2.895   0.631 -0.9263 -0.5755 -1.8483
  480SOL    HW2 1440   2.919   2.878   0.488  0.9707 -1.1375 -2.8675
  481SOL     OW 1441   2.387   2.461   0.892  0.4537  0.1516 -0.6850
  481SOL    HW1 1442   2.341   2.535   0.843 -1.1631  0.0509  3.1223
  481SOL    HW2 1443   2.339   2.438   0.983 -0.1198 -0.7486  1.4281
  482SOL     OW 1444   1.266   2.224   2.636 -0.1394 -0.5131  0.4357
  482SOL    HW1 1445   1.294   2.165   2.559 -1.5684  0.6010  1.8642
  482SOL    HW2 1446   1.303   2.320   2.630 -1.9064  0.7263  0.8484
  483SOL     OW 1447   0.638   2.072   2.668  0.4606 -0.5172 -0.7545
  483SOL    HW1 1448   0.599   1.987   2.622  0.8033 -1.4152 -1.2075
  483SOL    HW2 1449   0.583   2.157   2.646  1.3855  0.2411 -2.1872
  484SOL     OW 1450   0.887   1.217   1.920 -0.3063 -0.3100 -0.1895
  484SOL    HW1 1451   0.897   1.118   1.936 -0.5048  0.9698  0.8069
  484SOL    HW2 1452   0.903   1.239   1.823  0.6671 -2.7293  0.8977
  485SOL     OW 1453   2.529   0.398   0.387  0.2488 -0.1597 -0.1396
  485SOL    HW1 1454   2.551   0.305   0.423  0.9970 -1.0061 -1.9857
  485SOL    HW2 1455   2.430   0.414   0.360 -0.5224  1.3037 -2.5645
  486SOL     OW 1456   1.569   3.052   0.875  0.1199 -0.0281 -0.4413
  486SOL    HW1 1457   1.551   0.038   0.941  2.9316  0.8812  0.9242
  486SOL    HW2 1458   1.584   3.086   0.782  0.6308  0.9368 -0.2439
  487SOL     OW 1459   0.400   2.137   0.838 -0.4886  0.5701 -0.4353
  487SOL    HW1 1460   0.343   2.213   0.811  0.9074 -0.4558 -0.1528
  487SOL    HW2 1461   0.495   2.170   0.864  3.5573  1.1121  1.5311
  488SOL     OW 1462   2.675   1.409   0.259  0.4761  0.3757  0.6473
  488SOL    HW1 1463   2.758   1.420   0.200  0.6519 -1.2361  3.0444
  488SOL    HW2 1464   2.596   1.421   0.201  0.9206 -3.2553 -0.3031
  489SOL     OW 1465   1.564   0.051   1.193 -0.4627 -0.1797  0.2841
  489SOL    HW1 1466   1.593   0.038   1.288  3.6290 -1.6650  2.2937
  489SOL    HW2 1467   1.464   0.033   1.196  2.3150 -0.0124 -0.2366
  490SOL     OW 1468   1.017   0.825   0.131 -0.2847  0.1929 -0.3853
  490SOL    HW1 1469   1.074   0.742   0.145  0.4840 -0.7339  0.8955
  490SOL    HW2 1470   1.055   0.895   0.188 -1.6292 -0.0136 -1.5078
  491SOL     OW 1471   0.786   2.462   0.411 -0.7195 -0.6655  0.3754
  491SOL    HW1 1472   0.856   2.532   0.428 -0.1965 -0.3490  1.5317
  491SOL    HW2 1473   0.708   2.508   0.367  3.2580  1.0868 -0.3229
  492SOL     OW 1474   1.399   1.397   2.165 -0.1332  0.4048  0.1976
  492SOL    HW1 1475   1.401   1.393   2.265 -0.7995 -1.3091  1.5122
  492SOL    HW2 1476   1.328   1.335   2.131  0.7071  0.4138 -0.1064
  493SOL     OW 1477   3.085   2.413   0.925  0.3038  0.0757 -0.3281
  493SOL    HW1 1478   3.062   2.321   0.961  2.1126  2.7155  1.2404
  493SOL    HW2 1479   0.057   2.469   0.984  0.9317  0.0005  0.3056
  494SOL     OW 1480   2.654   1.942   3.045  0.4365  0.4515 -0.4573
  494SOL    HW1 1481   2.662   1.876   2.968 -2.8797  2.8306  2.4773
  494SOL    HW2 1482   2.559   1.977   3.046 -0.9827 -1.7345  0.0301
  495SOL     OW 1483   2.676   1.742   2.539  0.1057 -0.4583  0.1641
  495SOL    HW1 1484   2.744   1.743   2.617  3.1847 -0.5434  0.5985
  495SOL    HW2 1485   2.685   1.654   2.490  0.5225 -0.4582  0.4394
  496SOL     OW 1486   2.642   0.196   1.795 -0.6896  0.0302  0.0329
  496SOL    HW1 1487   2.645   0.193   1.692  0.9778 -0.0011 -3.0197
  496SOL    HW2 1488   2.653   0.104   1.839  0.7411 -0.3675  1.8874
  497SOL     OW 1489   2.717   0.931   0.306  0.1594 -0.3408  0.7286
  497SOL    HW1 1490   2.724   0.888   0.402  1.4309  0.2699  0.8381
  497SOL    HW2 1491   2.761   0.874   0.232 -0.7529  0.5749  0.2624
  498SOL     OW 1492   0.196   2.346   2.598 -0.3863  0.6789 -0.2348
  498SOL    HW1 1493   0.143   2.432   2.589 -2.0694  0.7379 -0.7978
  498SOL    HW2 1494   0.148   2.275   2.538 -1.5415 -1.0469  0.7634
  499SOL     OW 1495   1.135   2.086   0.278  0.0309 -0.4182  0.0315
  499SOL    HW1 1496   1.041   2.099   0.313  3.1123 -2.0255 -0.1328
  499SOL    HW2 1497   1.145   2.134   0.187 -0.9762  0.6856 -0.3671
  500SOL     OW 1498   1.292   2.945   3.005  0.5146 -0.6139 -0.3965
  500SOL    HW1 1499   1.244   3.023   2.961 -0.6582 -0.9219 -2.9970
  500SOL    HW2 1500   1.241   2.859   3.002  0.4062  1.5583 -1.2650
  501SOL     OW 1501   1.580   0.095   1.484  0.4543  0.7448 -0.5170
  501SOL    HW1 1502   1.497   0.085   1.540  0.3009  0.8300 -1.3508
  501SOL    HW2 1503   1.663   0.052   1.526  1.1787 -0.7289  1.1953
  502SOL     OW 1504   2.810   0.295   2.232  0.1703 -0.3300 -0.3745
  502SOL    HW1 1505   2.868   0.284   2.317  0.3619 -1.7043 -0.1402
  502SOL    HW2 1506   2.809   0.206   2.185  0.6379  0.0673  1.6201
  503SOL     OW 1507   2.432   2.060   2.482 -0.3578 -0.2987 -0.6711
  503SOL    HW1 1508   2.432   2.076   2.381 -1.5905  2.4614  1.3806
  503SOL    HW2 1509   2.482   2.134   2.529 -1.3833  0.6413  2.4112
  504SOL     OW 1510   1.342   0.478   1.508  0.1727  0.4352 -0.4877
  504SOL    HW1 1511   1.405   0.451   1.429 -0.0367 -0.4260  0.9967
  504SOL    HW2 1512   1.361   0.423   1.595  0.9155 -3.6924  2.3248
  505SOL     OW 1513   0.340   0.821   1.581  0.3644  0.7653 -0.5342
  505SOL    HW1 1514   0.356   0.821   1.679 -1.1557 -1.1669 -0.6406
  505SOL    HW2 1515   0.244   0.802   1.562 -0.0664  2.9208  2.1166
  506SOL     OW 1516   0.314   1.038   2.388 -0.8024  0.3841 -0.0009
  506SOL    HW1 1517   0.272   0.967   2.451 -0.7040 -0.0337 -1.1783
  506SOL    HW2 1518   0.349   0.994   2.298 -0.7844 -0.5334 -1.7952
  507SOL     OW 1519   0.093   3.016   2.786  0.1435  0.6720 -0.0322
  507SOL    HW1 1520   0.009   3.005   2.726  1.0906 -0.3251 -0.5354
  507SOL    HW2 1521   0.171   2.996   2.730 -0.0282  0.4181 -0.8772
  508SOL     OW 1522   1.656   0.581   1.571 -0.0158  0.3041 -0.1226
  508SOL    HW1 1523   1.603   0.507   1.518  1.3322  0.2923  0.2157
  508SOL    HW2 1524   1.739   0.614   1.524 -1.2727 -0.4565  2.2104
  509SOL     OW 1525   1.224   1.989   1.524  0.9219  0.1736 -0.1917
  509SOL    HW1 1526   1.321   1.978   1.555 -3.1630  1.1504  1.0031
  509SOL    HW2 1527   1.214   2.025   1.427  1.6840 -0.0260 -0.9962
  510SOL     OW 1528   2.237   1.272   2.000 -0.0637  0.2408  0.0163
  510SOL    HW1 1529   2.270   1.211   2.071  0.4945  1.0626 -1.2848
  510SOL    HW2 1530   2.189   1.220   1.921  0.2898  0.3747 -1.5175
  511SOL     OW 1531   0.419   1.900   0.654  0.0893  0.0069 -0.4144
  511SOL    HW1 1532   0.326   1.946   0.641 -5.5031  2.6208  1.8588
  511SOL    HW2 1533   0.470   1.939   0.735  2.4244  1.3582 -1.7722
  512SOL     OW 1534   2.398   2.255   0.050  0.3126 -0.6097  0.5527
  512SOL    HW1 1535   2.422   2.169   0.004 -0.9418  0.3299  0.0782
  512SOL    HW2 1536   2.332   2.232   0.120  1.5624  0.9072 -1.7686
  513SOL     OW 1537   3.092   1.922   2.626 -0.0194  0.0441 -0.0894
  513SOL    HW1 1538   0.045   1.943   2.716 -0.3544 -1.3817 -1.4861
  513SOL    HW2 1539   0.070   1.934   2.556  0.0394  1.8896 -0.5474
  514SOL     OW 1540   0.240   2.659   2.797  0.1101 -0.3098 -0.4433
  514SOL    HW1 1541   0.294   2.589   2.752  0.4938  1.3312 -1.1698
  514SOL    HW2 1542   0.270   2.752   2.764  3.7884 -1.9698  1.9785
  515SOL     OW 1543   1.982   1.424   1.733 -0.1715 -0.4014 -0.2311
  515SOL    HW1 1544   1.924   1.435   1.814  3.5561  1.2157 -1.9623
  515SOL    HW2 1545   2.064   1.484   1.733  0.7858  0.1111 -0.1075
  516SOL     OW 1546   2.493   2.310   2.596  0.3469 -0.3509 -0.7530
  516SOL    HW1 1547   2.453   2.389   2.542 -0.0024 -2.4832 -0.1273
  516SOL    HW2 1548   2.509   2.333   2.698 -0.7037 -1.1985  2.9977
  517SOL     OW 1549   1.507   0.920   2.905  0.0920  0.4244 -0.1324
  517SOL    HW1 1550   1.589   0.967   2.880 -0.6280 -1.9305  0.5250
  517SOL    HW2 1551   1.512   0.879   2.999 -2.6875  0.2736 -0.8793
  518SOL     OW 1552   2.724   3.050   2.318  0.2089  0.2088  0.5406
  518SOL    HW1 1553   2.774   3.063   2.225  0.1015  0.5120 -0.2971
  518SOL    HW2 1554   2.733   2.956   2.355 -1.9409  1.0574  0.2086
  519SOL     OW 1555   1.733   1.775   2.058  0.6738  0.0390  0.5068
  519SOL    HW1 1556   1.636   1.751   2.070  2.2567  0.6022  1.7286
  519SOL    HW2 1557   1.778   1.806   2.145  2.9560 -2.1703 -0.4568
  520SOL     OW 1558   2.601   0.058   2.811 -0.6628  0.2651 -0.6635
  520SOL    HW1 1559   2.597   0.161   2.822 -3.5302 -2.6728  1.4407
  520SOL    HW2 1560   2.511   0.023   2.783  2.7121  0.8334 -1.6594
  521SOL     OW 1561   0.573   1.597   2.184  0.2221  0.7443 -0.4112
  521SOL    HW1 1562   0.474   1.589   2.177 -0.0751 -1.9536 -2.3441
  521SOL    HW2 1563   0.617   1.511   2.211 -0.2956  1.0238  3.5316
  522SOL     OW 1564   1.193   0.130   1.454 -0.0879 -0.0695 -0.1291
  522SOL    HW1 1565   1.252   0.142   1.536  1.1329  1.9481  0.2503
  522SOL    HW2 1566   1.122   0.200   1.456  1.8183 -2.9277 -0.2884
  523SOL     OW 1567   0.163   2.525   1.115 -0.1132 -0.5930  0.1853
  523SOL    HW1 1568   0.110   2.518   1.202  2.5973 -0.1771  0.4474
  523SOL    HW2 1569   0.244   2.459   1.118  2.9853  0.1999 -1.3919
  524SOL     OW 1570   1.564   2.614   0.860 -0.6496 -0.1735 -0.4793
  524SOL    HW1 1571   1.522   2.534   0.814  1.4300 -0.5713  0.0273
  524SOL    HW2 1572   1.506   2.697   0.850 -0.5617 -2.6550  0.9907
  525SOL     OW 1573   2.521   0.941   0.951  0.0082 -0.1050  0.2661
  525SOL    HW1 1574   2.546   0.998   1.033 -0.3975  1.3768  1.5935
  525SOL    HW2 1575   2.495   0.846   0.981 -0.5407 -0.3858 -0.4532
  526SOL     OW 1576   1.029   2.460   0.637  0.5249 -0.0453  0.1433
  526SOL    HW1 1577   1.004   2.369   0.597 -0.5069  1.5943 -0.0472
  526SOL    HW2 1578   1.032   2.538   0.569 -1.0502  1.2226 -2.4669
  527SOL     OW 1579   2.273   1.977   0.735 -0.4875 -0.2995 -0.5528
  527SOL    HW1 1580   2.313   2.014   0.643 -0.4915  1.8298 -1.0054
  527SOL    HW2 1581   2.324   1.897   0.772 -0.8807 -1.0568  0.1483
  528SOL     OW 1582   2.290   0.562   0.393 -0.0960  0.3529 -0.0915
  528SOL    HW1 1583   2.274   0.658   0.430 -0.5186  1.9408  3.1827
  528SOL    HW2 1584   2.196   0.519   0.397  0.0689  0.5463  0.7727
  529SOL     OW 1585   1.216   1.210   2.068 -0.2658 -0.1783 -0.3003
  529SOL    HW1 1586   1.131   1.256   2.047  5.5260  0.0763 -0.7255
  529SOL    HW2 1587   1.217   1.176   2.166  3.0665  1.9037  1.7435
  530SOL     OW 1588   2.401   0.949   2.845  0.2494 -0.3014  0.3921
  530SOL    HW1 1589   2.341   0.957   2.931  1.4502  1.2122 -0.9809
  530SOL    HW2 1590   2.357   0.995   2.766 -1.4081  0.8372  1.7280
  531SOL     OW 1591   1.285   0.939   0.191 -0.2860 -0.1213  0.0402
  531SOL    HW1 1592   1.273   1.038   0.203 -0.1810 -1.8316  2.4554
  531SOL    HW2 1593   1.242   0.880   0.262  0.1941 -0.1084  3.3112
  532SOL     OW 1594   2.158   0.266   0.724 -0.6646 -0.7599 -0.5665
  532SOL    HW1 1595   2.119   0.283   0.816  1.3978  2.4213  0.4045
  532SOL    HW2 1596   2.259   0.242   0.726  3.2850 -1.4561 -2.5664
  533SOL     OW 1597   0.671   0.845   1.805  0.6235 -0.4942 -0.2300
  533SOL    HW1 1598   0.644   0.935   1.761  0.7146  0.6864 -0.0545
  533SOL    HW2 1599   0.761   0.812   1.772 -1.0552  0.9307  2.9912
  534SOL     OW 1600   1.747   0.062   2.649 -0.1242  0.1384  0.4694
  534SOL    HW1 1601   1.711   3.066   2.612  2.0222  3.7802 -0.9531
  534SOL    HW2 1602   1.751   0.137   2.578  0.0603  0.9834  1.8010
  535SOL     OW 1603   0.456   0.200   0.245  0.3165  0.1892 -0.0029
  535SOL    HW1 1604   0.478   0.267   0.169  0.1900  0.8386 -0.8241
  535SOL    HW2 1605   0.381   0.134   0.218 -2.0382 -1.2514 -0.8445
  536SOL     OW 1606   0.840   2.628   1.187  0.0150 -0.0782  0.2170
  536SOL    HW1 1607   0.891   2.672   1.266  1.0805  2.0749  0.6288
  536SOL    HW2 1608   0.873   2.652   1.098  0.7118 -2.1051  1.2650
  537SOL     OW 1609   1.834   3.074   1.881  0.5810 -0.7001  0.1974
  537SOL    HW1 1610   1.902   0.028   1.824 -2.3376 -0.2465  1.5493
  537SOL    HW2 1611   1.814   2.980   1.846  1.7947  3.9032 -0.0626
  538SOL     OW 1612   2.960   2.714   0.384  0.5277  0.1476  0.0308
  538SOL    HW1 1613   2.985   2.721   0.283  1.1627 -0.0005 -2.7373
  538SOL    HW2 1614   2.986   2.626   0.421  0.4580  0.9201 -0.3597
  539SOL     OW 1615   2.897   2.018   2.042  0.0436 -0.2341  0.5008
  539SOL    HW1 1616   2.978   1.990   1.982  0.2470  2.3311 -1.3772
  539SOL    HW2 1617   2.812   1.989   1.994 -1.8698 -0.5856  0.3515
  540SOL     OW 1618   0.019   2.615   1.694  0.2273  0.1127 -0.2792
  540SOL    HW1 1619   0.047   2.645   1.785  0.2702  1.8188 -0.6087
  540SOL    HW2 1620   0.053   2.678   1.623  1.2964  0.3287  1.8245
  541SOL     OW 1621   2.796   2.910   1.647 -0.4842 -0.2527  0.3108
  541SOL    HW1 1622   2.774   2.828   1.586  0.0041  1.8290 -0.5813
  541SOL    HW2 1623   2.821   2.986   1.579 -1.4324  1.7293  1.0031
  542SOL     OW 1624   2.934   0.460   2.025  0.1335  0.2884 -0.4182
  542SOL    HW1 1625   2.867   0.515   1.971  1.8634 -1.8353  0.8853
  542SOL    HW2 1626   2.884   0.431   2.109  0.9178  0.9434  0.9903
  543SOL     OW 1627   0.775   0.566   0.709 -0.8159  0.1531 -0.1557
  543SOL    HW1 1628   0.698   0.625   0.710  2.2015 -0.9609  2.3497
  543SOL    HW2 1629   0.769   0.495   0.781 -1.0239 -0.5746  1.4611
  544SOL     OW 1630   2.098   1.989   1.085  0.0065 -0.1900 -0.1841
  544SOL    HW1 1631   2.058   1.990   0.992 -0.0701  1.5046 -1.2766
  544SOL    HW2 1632   2.183   1.928   1.087 -0.6482 -2.5420  0.3345
  545SOL     OW 1633   0.816   1.907   0.409  0.2131  0.0752  0.3753
  545SOL    HW1 1634   0.775   1.980   0.464 -0.6407  1.1758  0.8595
  545SOL    HW2 1635   0.778   1.814   0.430  0.1552 -0.1647  1.5991
  546SOL     OW 1636   2.309   0.509   2.182 -0.9621  0.1844  0.1666
  546SOL    HW1 1637   2.319   0.589   2.121  1.2278  1.5241  3.4198
  546SOL    HW2 1638   2.389   0.448   2.169  1.3179 -0.4690 -1.2148
  547SOL     OW 1639   0.148   0.257   2.457 -0.2836  0.3105 -0.2222
  547SOL    HW1 1640   0.121   0.253   2.557 -0.8350  0.3872  1.1703
  547SOL    HW2 1641   0.227   0.315   2.441 -1.8258 -0.1308  1.8743
  548SOL     OW 1642   2.140   2.159   2.301 -0.8366 -0.5517 -0.5233
  548SOL    HW1 1643   2.238   2.164   2.278 -1.9008 -0.9692 -1.3079
  548SOL    HW2 1644   2.112   2.065   2.326 -0.4156  1.7084  0.1955
  549SOL     OW 1645   2.584   0.416   0.871 -0.1154  0.4560 -0.2005
  549SOL    HW1 1646   2.651   0.411   0.793 -3.2378 -1.6424  0.4480
  549SOL    HW2 1647   2.622   0.380   0.956  0.3091 -0.9928 -1.9162
  550SOL     OW 1648   1.762   1.695   0.536  0.4034 -0.0763  0.1250
  550SOL    HW1 1649   1.759   1.710   0.433 -0.0998  0.9641 -3.1805
  550SOL    HW2 1650   1.669   1.694   0.573  0.6049 -1.4147  0.2427
  551SOL     OW 1651   1.240   0.289   1.174  0.0578 -0.1048  0.3458
  551SOL    HW1 1652   1.255   0.297   1.076 -3.5755  0.9023  2.8295
  551SOL    HW2 1653   1.237   0.192   1.208  0.5648  1.1843  1.5895
  552SOL     OW 1654   1.972   2.354   2.175  0.5442  0.3161  0.1868
  552SOL    HW1 1655   1.875   2.329   2.180  0.0352 -1.2172  0.7276
  552SOL    HW2 1656   2.031   2.278   2.195  1.2162  1.0473 -0.8088
  553SOL     OW 1657   0.620   2.869   0.085  0.3816 -0.1716 -0.3700
  553SOL    HW1 1658   0.642   2.935   0.159  0.4239 -1.9038  2.0368
  553SOL    HW2 1659   0.522   2.839   0.085 -1.1925  0.8095 -1.5619
  554SOL     OW 1660   1.745   2.755   2.027 -0.1214 -0.5249  0.1488
  554SOL    HW1 1661   1.760   2.668   1.973 -1.0030 -1.4336  0.8039
  554SOL    HW2 1662   1.832   2.796   2.049 -0.6634  0.4386 -0.8007
  555SOL     OW 1663   2.376   2.702   1.981 -0.0285 -0.2998  0.2925
  555SOL    HW1 1664   2.317   2.693   2.063  0.8019  0.3889 -1.0312
  555SOL    HW2 1665   2.332   2.760   1.908 -1.7073  3.0831 -0.4847
  556SOL     OW 1666   0.847   3.008   0.495  0.3125 -0.7403 -0.2286
  556SOL    HW1 1667   0.885   3.031   0.587 -1.2208  3.5487 -1.2498
  556SOL    HW2 1668   0.887   3.068   0.419 -0.2359  1.8406 -0.2494
  557SOL     OW 1669   0.818   2.278   2.146  0.1855 -0.0991  0.2800
  557SOL    HW1 1670   0.751   2.350   2.182 -1.1841  0.8500 -2.6084
  557SOL    HW2 1671   0.788   2.188   2.174 -0.7280  1.2986 -1.8411
  558SOL     OW 1672   2.690   1.038   2.331 -0.3388  0.1229  0.1650
  558SOL    HW1 1673   2.696   0.937   2.341  1.5542  2.7765 -3.9928
  558SOL    HW2 1674   2.768   1.087   2.372  0.7406  1.0722 -1.1078
  559SOL     OW 1675   2.523   2.112   2.228 -0.3514 -0.2200 -0.1641
  559SOL    HW1 1676   2.471   2.203   2.239  1.1871 -0.4236 -0.9627
  559SOL    HW2 1677   2.561   2.086   2.137  0.6669 -0.4940 -1.2857
  560SOL     OW 1678   0.561   0.410   2.149 -0.0018  0.4147 -0.6834
  560SOL    HW1 1679   0.657   0.437   2.123 -2.2946 -2.8240 -0.2394
  560SOL    HW2 1680   0.513   0.373   2.067 -1.4257  0.3522 -1.8795
  561SOL     OW 1681   1.094   0.258   0.108 -0.3307 -0.3792 -0.4459
  561SOL    HW1 1682   1.144   0.203   0.179  0.2791 -1.1106  0.9084
  561SOL    HW2 1683   1.028   0.199   0.057  1.4417  1.0128 -1.3123
  562SOL     OW 1684   0.809   1.583   1.581  0.6080 -0.2133  0.8813
  562SOL    HW1 1685   0.821   1.595   1.480  1.1707  2.9500 -0.7578
  562SOL    HW2 1686   0.804   1.675   1.621 -0.2226 -0.3526 -1.2554
  563SOL     OW 1687   1.690   2.577   0.232  0.2769 -0.1231 -0.1735
  563SOL    HW1 1688   1.763   2.574   0.159 -0.6125  1.3489  0.2699
  563SOL    HW2 1689   1.652   2.673   0.219  2.6121  1.8867 -0.1477
  564SOL     OW 1690   2.816   1.970   0.521 -0.0517  0.0959 -0.4902
  564SOL    HW1 1691   2.758   1.974   0.440 -0.7432  1.6567 -0.1422
  564SOL    HW2 1692   2.840   1.870   0.538 -1.2513 -3.1892  0.2579
  565SOL     OW 1693   0.437   2.872   2.275  0.4883 -0.0035  0.2001
  565SOL    HW1 1694   0.380   2.946   2.320 -0.7568 -0.7887 -1.6536
  565SOL    HW2 1695   0.465   2.810   2.351 -2.9169 -0.2136  0.8486
  566SOL     OW 1696   1.653   2.575   2.543  0.3729  0.4210 -0.0588
  566SOL    HW1 1697   1.696   2.575   2.634 -1.5163  0.7873  0.5517
  566SOL    HW2 1698   1.709   2.633   2.481  2.6271  2.5195 -0.1851
  567SOL     OW 1699   1.805   2.047   1.500 -0.1392  0.1868 -0.2839
  567SOL    HW1 1700   1.854   2.132   1.467  3.3402  0.0374  2.6609
  567SOL    HW2 1701   1.708   2.050   1.467  1.4090 -2.0569 -1.5509
  568SOL     OW 1702   2.104   0.841   2.927  0.2477  0.0291 -0.3000
  568SOL    HW1 1703   2.079   0.823   3.029 -1.2679 -0.8540  0.2409
  568SOL    HW2 1704   2.170   0.773   2.889 -1.1021 -0.8049 -0.4069
  569SOL     OW 1705   2.869   1.433   2.258 -0.0849 -0.2387  0.3827
  569SOL    HW1 1706   2.942   1.502   2.267  1.3417 -1.1614  0.6355
  569SOL    HW2 1707   2.888   1.353   2.317  0.5282  1.7092 -1.0362
  570SOL     OW 1708   2.501   2.593   1.757 -0.7278 -0.3183  0.0834
  570SOL    HW1 1709   2.456   2.633   1.838  0.6352  0.8145  2.6788
  570SOL    HW2 1710   2.595   2.556   1.784  0.1510  3.2306  1.5214
  571SOL     OW 1711   0.386   0.092   1.575  0.3324  0.3961  0.4168
  571SOL    HW1 1712   0.488   0.110   1.585 -1.2044  1.2767 -0.3892
  571SOL    HW2 1713   0.330   0.170   1.617  0.0208 -0.9198 -1.4657
  572SOL     OW 1714   0.012   1.897   0.711 -0.1764 -0.2377 -0.2567
  572SOL    HW1 1715   3.040   1.965   0.749  0.6262 -0.0778 -1.2971
  572SOL    HW2 1716   0.031   1.819   0.772  0.8569 -0.8591  1.3813
  573SOL     OW 1717   0.989   0.632   2.981  0.1168 -0.1106  0.2509
  573SOL    HW1 1718   0.914   0.700   3.002  0.0416  0.7079  0.7612
  573SOL    HW2 1719   1.024   0.601   3.068 -1.9572 -0.6329 -1.0264
  574SOL     OW 1720   3.060   0.042   0.206 -0.3698  0.1724  0.4407
  574SOL    HW1 1721   3.089   0.118   0.142 -0.1117 -0.2533 -1.6190
  574SOL    HW2 1722   2.988   3.080   0.162 -0.6181 -0.2645  2.5764
  575SOL     OW 1723   1.194   2.333   1.344 -0.0465  0.3011 -0.2119
  575SOL    HW1 1724   1.157   2.241   1.315 -0.8893 -2.8328 -2.1266
  575SOL    HW2 1725   1.200   2.405   1.268 -1.6476  0.7794 -0.9173
  576SOL     OW 1726   3.035   2.877   1.300  0.0042 -0.7752 -0.6420
  576SOL    HW1 1727   2.982   2.801   1.267  3.4676  1.2397  0.2428
  576SOL    HW2 1728   3.087   2.855   1.382 -0.1133 -0.5039 -0.0805
  577SOL     OW 1729   2.209   1.631   1.444 -0.4364 -0.1324 -0.2317
  577SOL    HW1 1730   2.160   1.633   1.534 -1.1675  2.7622 -0.9319
  577SOL    HW2 1731   2.162   1.584   1.365 -1.3835  2.1240  0.7665
  578SOL     OW 1732   1.105   3.010   2.705 -0.3103  0.4810 -0.0333
  578SOL    HW1 1733   1.048   3.058   2.632 -0.6931  2.3422  0.0911
  578SOL    HW2 1734   1.138   3.078   2.775 -0.4024 -1.5553 -1.6299
  579SOL     OW 1735   2.538   1.742   2.168 -0.3666 -0.0690 -0.6814
  579SOL    HW1 1736   2.581   1.705   2.083  0.5898  0.9946  1.4020
  579SOL    HW2 1737   2.594   1.824   2.202  1.0066  2.8940  2.5309
  580SOL     OW 1738   1.682   0.274   1.667  0.3662 -0.1195 -0.4167
  580SOL    HW1 1739   1.654   0.230   1.580  0.2072  1.6651 -2.5011
  580SOL    HW2 1740   1.612   0.338   1.701  0.1109 -2.7484  1.3353
  581SOL     OW 1741   1.228   1.435   1.797  0.0223 -0.4060  0.0695
  581SOL    HW1 1742   1.138   1.444   1.744  0.9189  1.9499 -3.1351
  581SOL    HW2 1743   1.205   1.422   1.898 -0.3279  0.7615  0.2876
  582SOL     OW 1744   0.056   2.602   2.105  0.3122  0.0589  0.2087
  582SOL    HW1 1745   0.120   2.646   2.040 -0.9380 -0.0383 -0.3315
  582SOL    HW2 1746   0.052   2.643   2.196  1.2272  1.6724 -1.0725
  583SOL     OW 1747   1.514   1.305   1.204  0.1070 -0.0395 -0.3776
  583SOL    HW1 1748   1.538   1.309   1.302 -1.2133  1.5004  1.1295
  583SOL    HW2 1749   1.417   1.279   1.204 -0.2841 -0.8571  0.6905
  584SOL     OW 1750   1.595   1.852   2.791 -0.1171 -0.4727 -0.1498
  584SOL    HW1 1751   1.689   1.893   2.800 -1.6518 -1.6079 -1.2176
  584SOL    HW2 1752   1.595   1.759   2.753  0.9633  1.9718  0.1807
  585SOL     OW 1753   0.192   2.503   0.402  0.4796 -0.2491  0.0568
  585SOL    HW1 1754   0.237   2.421   0.447 -1.6294  0.2737  2.0065
  585SOL    HW2 1755   0.165   2.474   0.308 -1.5612  0.4702  2.0535
  586SOL     OW 1756   1.885   2.335   2.956 -0.0388  0.6161 -0.3269
  586SOL    HW1 1757   1.936   2.315   3.047  0.6254  2.8662  0.3992
  586SOL    HW2 1758   1.941   2.341   2.872 -1.8831  2.0728 -0.0470
  587SOL     OW 1759   2.573   1.998   0.344  0.4714 -0.6171 -0.4892
  587SOL    HW1 1760   2.645   2.071   0.332  1.9560 -0.5050 -2.0238
  587SOL    HW2 1761   2.606   1.920   0.291 -1.7538  2.9912 -0.8111
  588SOL     OW 1762   2.201   0.406   1.123  1.2870  0.1451  0.3042
  588SOL    HW1 1763   2.288   0.356   1.119  1.2290  0.9786 -0.3138
  588SOL    HW2 1764   2.221   0.503   1.155  0.2607 -0.8096  1.2901
  589SOL     OW 1765   0.996   0.816   0.520  0.3816 -0.3013  0.2031
  589SOL    HW1 1766   0.976   0.717   0.494  2.2919 -4.0217 -0.8014
  589SOL    HW2 1767   1.083   0.816   0.575 -0.3960 -2.2862  1.3779
  590SOL     OW 1768   2.617   2.402   0.121 -0.2521  0.4712  0.1319
  590SOL    HW1 1769   2.534   2.343   0.109 -0.7181  0.1768  0.1436
  590SOL    HW2 1770   2.594   2.492   0.161 -0.9117 -0.6118 -0.0148
  591SOL     OW 1771   0.237   2.642   1.892  0.3329 -0.1468 -0.5519
  591SOL    HW1 1772   0.284   2.592   1.820 -0.7100  0.6630  3.3687
  591SOL    HW2 1773   0.300   2.714   1.930  0.7426  0.3868  2.3901
  592SOL     OW 1774   0.824   1.215   1.187 -0.3201  0.7733 -0.4268
  592SOL    HW1 1775   0.809   1.269   1.270 -2.0257 -0.5243  0.9985
  592SOL    HW2 1776   0.902   1.156   1.206 -1.9470  0.6942 -1.2772
  593SOL     OW 1777   1.003   1.832   1.286 -0.1077 -0.5947  0.0388
  593SOL    HW1 1778   1.089   1.786   1.259 -1.8265 -0.7524 -0.2325
  593SOL    HW2 1779   0.937   1.766   1.323  0.6355  1.5857 -2.9788
  594SOL     OW 1780   0.303   1.800   2.902 -0.3224 -0.1078  0.4447
  594SOL    HW1 1781   0.307   1.826   3.000 -0.1750 -1.1321 -2.3718
  594SOL    HW2 1782   0.324   1.704   2.872  0.3245 -0.3782 -0.1379
  595SOL     OW 1783   1.397   0.580   0.935 -0.1367 -0.2411 -0.0384
  595SOL    HW1 1784   1.415   0.544   0.845 -0.1670  1.2207  0.5307
  595SOL    HW2 1785   1.301   0.574   0.962 -0.0018  2.4031  1.3515
  596SOL     OW 1786   0.228   1.488   0.418  0.1079 -0.7256  0.1776
  596SOL    HW1 1787   0.149   1.519   0.368  0.0074 -0.8671  1.5069
  596SOL    HW2 1788   0.195   1.471   0.513 -0.2253  2.2814 -1.1330
  597SOL     OW 1789   2.990   2.276   3.004 -0.1198  0.4141 -0.8310
  597SOL    HW1 1790   2.937   2.255   2.921 -0.6897 -0.9627  0.6714
  597SOL    HW2 1791   2.996   2.192   3.059  1.6010  0.2596 -0.3223
  598SOL     OW 1792   2.126   1.888   2.339 -0.3036 -0.5968  0.1015
  598SOL    HW1 1793   2.177   1.829   2.281 -1.9193  1.8856 -0.2067
  598SOL    HW2 1794   2.102   1.847   2.430 -1.9557  4.3500 -0.2955
  599SOL     OW 1795   1.395   0.356   0.442  0.0975 -0.0881 -0.5215
  599SOL    HW1 1796   1.375   0.288   0.368 -0.8423  0.0713  1.6701
  599SOL    HW2 1797   1.452   0.435   0.404 -0.3913 -0.1706 -0.7154
  600SOL     OW 1798   0.812   2.779   0.338  0.1220  0.4293  0.6694
  600SOL    HW1 1799   0.800   2.882   0.349 -3.3290  1.8810  0.6769
  600SOL    HW2 1800   0.722   2.734   0.307  2.5815 -1.8627  1.1513
  601SOL     OW 1801   0.502   0.809   1.161 -0.1674  0.3515 -0.6716
  601SOL    HW1 1802   0.490   0.845   1.259  0.7699  0.4458  0.1718
  601SOL    HW2 1803   0.595   0.828   1.124  0.1303  1.2275  0.1745
  602SOL     OW 1804   0.187   2.780   1.065 -0.1214 -0.3014  0.5590
  602SOL    HW1 1805   0.120   2.833   1.126 -2.9872 -3.7321  1.6569
  602SOL    HW2 1806   0.171   2.677   1.079 -0.3992 -0.0580  2.0218
  603SOL     OW 1807   1.243   2.679   2.404  0.0182 -0.4036  0.2452
  603SOL    HW1 1808   1.274   2.704   2.310  0.1087  0.1444  1.3284
  603SOL    HW2 1809   1.260   2.754   2.474  0.0770  2.6104 -0.4645
  604SOL     OW 1810   0.672   2.837   2.716  0.1253 -0.0781 -0.2826
  604SOL    HW1 1811   0.597   2.769   2.734 -0.0067  0.9524  2.0843
  604SOL    HW2 1812   0.748   2.797   2.663  0.1923  0.0959  0.6674
  605SOL     OW 1813   0.876   0.727   1.667 -0.2777  0.1930  0.3464
  605SOL    HW1 1814   0.899   0.709   1.566 -0.7525  0.3827 -1.0460
  605SOL    HW2 1815   0.931   0.671   1.732 -0.2610 -2.0291  2.0030
  606SOL     OW 1816   2.125   0.565   2.602 -0.0918 -0.3804 -0.2356
  606SOL    HW1 1817   2.223   0.559   2.629 -1.8193  0.1528  2.4904
  606SOL    HW2 1818   2.072   0.503   2.664 -0.2287  0.4792 -1.8413
  607SOL     OW 1819   0.569   1.242   1.108  0.4068 -0.2804 -0.1168
  607SOL    HW1 1820   0.669   1.220   1.134  1.6430 -1.3275 -1.5268
  607SOL    HW2 1821   0.516   1.156   1.090 -0.7539 -1.0910 -1.5485
  608SOL     OW 1822   0.098   2.639   2.392 -0.0696 -0.1324  0.8148
  608SOL    HW1 1823   0.083   2.741   2.385  0.7101 -1.0103 -0.3985
  608SOL    HW2 1824   0.041   2.612   2.472 -0.3933 -0.2356 -0.4765
  609SOL     OW 1825   1.419   0.630   0.053  0.3703 -0.1786 -0.1967
  609SOL    HW1 1826   1.498   0.575   0.087 -2.1204  2.6201 -2.7438
  609SOL    HW2 1827   1.328   0.586   0.068 -1.9308  2.1437 -0.7930
  610SOL     OW 1828   0.599   2.663   1.326  0.0952 -0.4967  0.0513
  610SOL    HW1 1829   0.666   2.642   1.254 -0.7321 -2.0943  0.1140
  610SOL    HW2 1830   0.523   2.726   1.295 -0.1846 -0.1022 -3.1441
  611SOL     OW 1831   1.490   0.964   0.423  0.0380  0.7250 -0.4606
  611SOL    HW1 1832   1.529   1.055   0.403  0.9608  2.6627  0.8076
  611SOL    HW2 1833   1.565   0.897   0.427  3.7533  0.7334  0.0658
  612SOL     OW 1834   1.556   0.775   2.652 -0.2016 -0.1297  0.3398
  612SOL    HW1 1835   1.502   0.771   2.561 -2.0747  0.5679  0.3632
  612SOL    HW2 1836   1.503   0.823   2.727 -2.7062  1.6797  0.9422
  613SOL     OW 1837   2.418   1.107   0.753 -0.6451 -0.4810 -0.0119
  613SOL    HW1 1838   2.329   1.088   0.707  1.0807  1.2374 -2.5214
  613SOL    HW2 1839   2.437   1.048   0.835 -1.6051  1.4733 -1.4251
  614SOL     OW 1840   2.289   0.071   2.058  0.0586  0.0171 -0.0412
  614SOL    HW1 1841   2.351   0.063   2.139 -1.2866 -2.8290 -0.8372
  614SOL    HW2 1842   2.322   0.142   1.992  1.6270  3.4203  0.9820
  615SOL     OW 1843   0.648   2.117   0.967 -0.8583  0.3428  0.0322
  615SOL    HW1 1844   0.685   2.026   1.001 -0.7921 -1.7531  0.7527
  615SOL    HW2 1845   0.681   2.193   1.022  0.0910 -2.3127  2.0118
  616SOL     OW 1846   1.749   1.033   2.361  0.0276  0.5187  0.3741
  616SOL    HW1 1847   1.830   1.023   2.296  3.1420 -0.7920  0.3833
  616SOL    HW2 1848   1.710   1.127   2.360 -0.2297  1.6489  0.3917
  617SOL     OW 1849   1.617   2.837   0.174  0.1063  0.7166  0.5356
  617SOL    HW1 1850   1.600   2.929   0.218  1.1093  0.3137  1.0297
  617SOL    HW2 1851   1.538   2.797   0.126 -0.2879 -2.0465 -0.5873
  618SOL     OW 1852   1.318   1.458   2.413 -0.2186  0.2284  0.4615
  618SOL    HW1 1853   1.317   1.538   2.479 -2.2301  0.1171 -0.8995
  618SOL    HW2 1854   1.369   1.379   2.451 -0.2390  1.2855  0.1868
  619SOL     OW 1855   2.608   1.469   0.853  0.0031  0.0564 -0.0385
  619SOL    HW1 1856   2.523   1.427   0.819  3.3602  2.7561  0.5601
  619SOL    HW2 1857   2.682   1.399   0.855  0.9464  2.2520  1.7167
  620SOL     OW 1858   2.245   2.586   2.685 -0.1127  0.1932 -0.2725
  620SOL    HW1 1859   2.309   2.627   2.751 -1.9098 -0.1379 -1.6682
  620SOL    HW2 1860   2.164   2.642   2.664  0.9427 -1.3037 -1.9558
  621SOL     OW 1861   2.735   1.336   0.526  0.0917  0.5159  0.1087
  621SOL    HW1 1862   2.726   1.346   0.424 -1.6730 -0.1332  2.2967
  621SOL    HW2 1863   2.703   1.248   0.561  1.1619  3.1124  2.3015
  622SOL     OW 1864   1.388   2.486   2.589 -0.0737 -0.1532 -0.4060
  622SOL    HW1 1865   1.484   2.507   2.616 -1.1136 -1.9592  0.6809
  622SOL    HW2 1866   1.343   2.561   2.534 -0.3338 -0.1145 -1.7360
  623SOL     OW 1867   0.202   2.121   0.037 -0.0277 -0.9225  0.3553
  623SOL    HW1 1868   0.124   2.148   0.093 -1.5748  0.1868 -1.2414
  623SOL    HW2 1869   0.195   2.171   3.041  1.0171  0.4045  0.7347
  624SOL     OW 1870   0.297   0.011   0.038 -0.3245 -0.2260 -0.6221
  624SOL    HW1 1871   0.370   0.015   3.060  0.6558 -0.2354 -0.3062
  624SOL    HW2 1872   0.285   3.007   0.075 -0.0097 -1.9925 -0.7538
  625SOL     OW 1873   0.835   2.155   2.884  0.0419  0.6862  0.3922
  625SOL    HW1 1874   0.869   2.247   2.845  2.9661  1.9738 -2.9014
  625SOL    HW2 1875   0.759   2.127   2.821 -0.9121  1.1177  0.4162
  626SOL     OW 1876   2.966   0.788   0.426  0.2216 -0.4306  0.1801
  626SOL    HW1 1877   2.934   0.780   0.328 -0.8874 -2.4063 -0.8439
  626SOL    HW2 1878   3.003   0.697   0.453 -1.6461 -0.6848 -1.0690
  627SOL     OW 1879   1.826   1.507   2.821 -0.0003  0.2943  0.1692
  627SOL    HW1 1880   1.835   1.450   2.906  1.3797 -0.0489 -1.0222
  627SOL    HW2 1881   1.868   1.595   2.832 -1.6826 -1.0869 -0.3163
  628SOL     OW 1882   1.217   1.245   2.638 -0.1844 -0.0390  0.2402
  628SOL    HW1 1883   1.195   1.194   2.725 -0.1044  0.7682  2.1001
  628SOL    HW2 1884   1.318   1.228   2.610  1.0944 -1.2848 -0.1270
  629SOL     OW 1885   0.257   3.042   1.816 -0.1171 -0.4885 -0.9770
  629SOL    HW1 1886   0.302   2.957   1.848  0.3371  0.5118  0.8727
  629SOL    HW2 1887   0.306   3.083   1.733 -1.2996  0.6500 -1.7031
  630SOL     OW 1888   2.290   0.714   2.000 -0.7474 -0.0312  0.3606
  630SOL    HW1 1889   2.328   0.712   1.903  1.0529 -1.4531 -1.3847
  630SOL    HW2 1890   2.193   0.737   2.005  0.1132  1.7988  0.0363
  631SOL     OW 1891   1.896   0.370   0.571  0.0391  0.5166  0.1485
  631SOL    HW1 1892   1.972   0.317   0.617  1.4728 -1.1226 -0.6618
  631SOL    HW2 1893   1.828   0.306   0.533 -0.3481  0.7319  1.7948
  632SOL     OW 1894   3.075   0.589   1.572  0.2467  0.2714  0.2161
  632SOL    HW1 1895   3.029   0.502   1.562 -1.5209  2.6062  1.0586
  632SOL    HW2 1896   0.056   0.594   1.643 -1.9604 -1.6426 -2.6605
  633SOL     OW 1897   0.906   0.135   3.009  0.2379  0.7404  0.2017
  633SOL    HW1 1898   0.854   0.217   2.983  2.0282 -2.4628  2.0224
  633SOL    HW2 1899   0.879   0.053   2.953 -0.2342 -2.6080  0.0364
  634SOL     OW 1900   0.737   2.578   2.923 -0.3052 -0.2973  0.0498
  634SOL    HW1 1901   0.792   2.575   3.011  1.0811  1.6907  2.4190
  634SOL    HW2 1902   0.797   2.553   2.848 -0.2587  0.6421  2.5209
  635SOL     OW 1903   0.182   0.614   0.624 -0.4116 -0.0567 -0.0340
  635SOL    HW1 1904   0.093   0.602   0.578  0.6958 -0.0019  1.0192
  635SOL    HW2 1905   0.259   0.617   0.557  0.6160  2.7383  0.2090
  636SOL     OW 1906   0.615   1.295   0.250 -0.0604  0.5590 -0.1900
  636SOL    HW1 1907   0.649   1.211   0.202 -1.7752 -0.0866 -1.0607
  636SOL    HW2 1908   0.667   1.379   0.223  1.3051 -0.3758  0.8165
  637SOL     OW 1909   0.277   2.757   0.381 -0.2863 -0.2649 -0.4511
  637SOL    HW1 1910   0.240   2.670   0.413 -1.0180 -3.6745 -0.4586
  637SOL    HW2 1911   0.213   2.835   0.392 -1.7271 -1.4002  1.3535
  638SOL     OW 1912   3.027   2.453   0.489 -0.3630 -0.4592 -0.4400
  638SOL    HW1 1913   3.004   2.355   0.485 -2.3435 -0.0742 -0.3748
  638SOL    HW2 1914   0.032   2.473   0.465  0.7709  1.7074 -1.4093
  639SOL     OW 1915   1.808   0.926   0.207  0.1491 -0.1998 -0.4163
  639SOL    HW1 1916   1.722   0.908   0.148  0.0154 -0.6896 -0.7645
  639SOL    HW2 1917   1.805   1.029   0.229 -1.9557  2.6333  0.1206
  640SOL     OW 1918   1.721   2.365   1.726 -0.0098 -0.2982 -0.3334
  640SOL    HW1 1919   1.682   2.433   1.661  1.0746  0.1096 -0.9933
  640SOL    HW2 1920   1.775   2.300   1.673 -0.7515 -2.3097 -0.5157
  641SOL     OW 1921   2.867   2.445   1.085  0.1743  0.0811 -0.3099
  641SOL    HW1 1922   2.774   2.427   1.051 -2.4977  0.3165 -1.8407
  641SOL    HW2 1923   2.935   2.461   1.008  2.1761  0.8201 -0.9018
  642SOL     OW 1924   0.985   0.130   1.791  0.2065 -0.2632 -0.2324
  642SOL    HW1 1925   0.983   0.214   1.727 -0.8431  0.9166  0.5406
  642SOL    HW2 1926   1.006   0.165   1.884 -2.2753  2.1744 -0.9550
  643SOL     OW 1927   0.916   2.414   2.775 -0.2761 -0.2795 -0.4826
  643SOL    HW1 1928   0.918   2.365   2.683 -0.7103 -0.8016 -2.4950
  643SOL    HW2 1929   1.010   2.443   2.803 -1.0204 -0.9025 -4.3827
  644SOL     OW 1930   1.210   2.484   0.832 -0.0860 -0.4828 -0.2907
  644SOL    HW1 1931   1.302   2.466   0.800 -1.2507  1.3171  1.4310
  644SOL    HW2 1932   1.145   2.464   0.759  0.0943  2.1013  0.1987
  645SOL     OW 1933   1.441   1.288   1.731 -0.2993  0.4871  0.1614
  645SOL    HW1 1934   1.424   1.194   1.695 -0.1596  4.5480  0.1802
  645SOL    HW2 1935   1.354   1.336   1.749  0.0061 -0.9380  0.6469
  646SOL     OW 1936   0.214   0.845   0.051  0.2269  0.0264  0.3673
  646SOL    HW1 1937   0.245   0.858   0.142  1.4801  0.3236 -3.9930
  646SOL    HW2 1938   0.221   0.930   3.087 -1.9554  3.3060 -0.5598
  647SOL     OW 1939   1.094   0.358   0.584 -0.1301  0.2614  0.0264
  647SOL    HW1 1940   1.189   0.353   0.555 -2.6634  0.3759  0.7935
  647SOL    HW2 1941   1.048   0.435   0.545 -0.6400 -3.4689  0.0915
  648SOL     OW 1942   2.023   2.641   1.056 -0.1947  0.2399  0.4801
  648SOL    HW1 1943   2.119   2.656   1.091  0.1926  0.2290  0.8926
  648SOL    HW2 1944   1.952   2.635   1.126 -0.6304 -0.6772 -0.8546
  649SOL     OW 1945   0.580   1.884   2.891  0.4409  0.4897 -0.0687
  649SOL    HW1 1946   0.577   1.946   2.810  1.0604 -0.9359 -0.1290
  649SOL    HW2 1947   0.486   1.877   2.927  0.2446  1.7572 -4.4679
  650SOL     OW 1948   2.307   2.023   1.969 -0.4054  0.1018  0.0382
  650SOL    HW1 1949   2.236   2.094   1.969 -0.0825 -0.1532  1.4202
  650SOL    HW2 1950   2.282   1.951   2.040 -0.5465 -2.2248  1.2349
  651SOL     OW 1951   2.963   2.974   2.597  0.2064  0.0421 -0.1088
  651SOL    HW1 1952   2.914   2.907   2.662 -2.2901 -2.7384  0.9613
  651SOL    HW2 1953   2.907   3.060   2.584 -1.4456 -1.3640  0.8722
  652SOL     OW 1954   2.610   1.614   0.565  0.4507  0.2757 -0.3598
  652SOL    HW1 1955   2.671   1.640   0.639 -0.0417 -0.7653 -1.3402
  652SOL    HW2 1956   2.632   1.517   0.538  1.3579 -2.2331  0.4707
  653SOL     OW 1957   0.121   0.276   1.029 -0.6965  0.4207 -0.1062
  653SOL    HW1 1958   0.173   0.344   0.976 -0.2179 -2.6440  1.7641
  653SOL    HW2 1959   0.169   0.187   1.040 -1.8339 -0.5979  0.1648
  654SOL     OW 1960   0.966   0.014   0.249 -0.0590  0.5027 -0.3795
  654SOL    HW1 1961   1.068   0.014   0.266  2.3696 -3.0999  1.3400
  654SOL    HW2 1962   0.944   3.039   0.175 -0.4425  1.7962 -1.0250
  655SOL     OW 1963   0.395   2.832   1.241 -0.4042 -0.1566  0.1343
  655SOL    HW1 1964   0.379   2.917   1.296  2.3659  0.6076  0.1532
  655SOL    HW2 1965   0.330   2.810   1.168  0.9619 -0.4533  2.5337
  656SOL     OW 1966   0.108   2.922   2.100  0.5988  0.1710  0.5691
  656SOL    HW1 1967   0.086   2.903   2.198  1.4053  0.7355 -0.6704
  656SOL    HW2 1968   0.085   3.020   2.074  0.8767  2.4288 -1.7128
  657SOL     OW 1969   1.952   0.732   2.311  0.1721 -0.1665 -0.0790
  657SOL    HW1 1970   1.898   0.765   2.389  1.1138 -0.5761 -1.7450
  657SOL    HW2 1971   2.051   0.750   2.322 -1.5059 -0.7099 -0.2192
  658SOL     OW 1972   1.850   1.470   1.409  0.4221 -0.3888 -0.1549
  658SOL    HW1 1973   1.796   1.498   1.326  1.3043 -1.1510  0.2958
  658SOL    HW2 1974   1.840   1.536   1.489 -0.6507 -1.8074  1.1535
  659SOL     OW 1975   2.424   2.680   2.865 -0.2871  0.2562 -0.1035
  659SOL    HW1 1976   2.494   2.663   2.800 -1.3110 -1.8421  2.5175
  659SOL    HW2 1977   2.457   2.640   2.955 -0.6304 -2.7603  1.4741
  660SOL     OW 1978   1.259   0.707   0.370  0.2377 -0.7678  0.0725
  660SOL    HW1 1979   1.228   0.694   0.465 -0.7290 -2.4869  2.0572
  660SOL    HW2 1980   1.360   0.719   0.370  2.1235 -1.1252  0.3071
  661SOL     OW 1981   2.578   2.894   0.350 -0.0788  0.2633  0.3187
  661SOL    HW1 1982   2.573   2.927   0.446  0.4099 -2.0084 -1.5436
  661SOL    HW2 1983   2.577   2.973   0.287 -0.0934  0.8875  2.8208
  662SOL     OW 1984   0.960   0.373   1.108  0.0383 -0.3667 -0.6581
  662SOL    HW1 1985   0.868   0.415   1.119 -2.0501  0.8523 -0.9906
  662SOL    HW2 1986   0.955   0.278   1.079 -1.6695  2.6364  3.0699
  663SOL     OW 1987   1.347   2.785   2.187 -0.2653 -0.6736 -0.5001
  663SOL    HW1 1988   1.254   2.824   2.170  0.7442 -1.0020  0.8060
  663SOL    HW2 1989   1.370   2.724   2.111 -2.6616  0.4824  2.3203
  664SOL     OW 1990   0.746   2.289   1.496  0.4463 -0.5247 -0.1156
  664SOL    HW1 1991   0.841   2.319   1.519  0.2467  1.4289 -4.0786
  664SOL    HW2 1992   0.750   2.207   1.435 -1.8755 -0.5821  2.4768
  665SOL     OW 1993   1.088   2.145   1.724  0.1598 -0.6590  0.7015
  665SOL    HW1 1994   0.998   2.116   1.762  1.7257  2.1940 -0.3039
  665SOL    HW2 1995   1.135   2.081   1.664 -1.5543  2.7199  2.7968
  666SOL     OW 1996   0.063   2.844   2.997  0.1906 -0.4837  0.4649
  666SOL    HW1 1997   0.087   2.909   2.922  0.6925  0.0252  0.3140
  666SOL    HW2 1998   0.143   2.802   3.037 -0.2089 -1.1758  1.3353
  667SOL     OW 1999   1.498   1.714   1.392  0.5499  0.3398 -0.0572
  667SOL    HW1 2000   1.439   1.669   1.463 -1.5635  0.7990 -0.6489
  667SOL    HW2 2001   1.515   1.811   1.413 -0.5410  0.8465 -0.6158
  668SOL     OW 2002   1.363   0.376   2.202  0.0157  0.0775 -0.6106
  668SOL    HW1 2003   1.408   0.445   2.262 -1.2671 -1.5628  0.0991
  668SOL    HW2 2004   1.282   0.335   2.247 -2.0276  1.7644  0.6504
  669SOL     OW 2005   2.408   2.262   1.695  0.3698  0.0051  0.7410
  669SOL    HW1 2006   2.338   2.189   1.704  1.1405  3.5827 -2.3098
  669SOL    HW2 2007   2.456   2.273   1.787 -1.8075 -1.4747 -2.4268
  670SOL     OW 2008   1.880   1.959   0.130 -0.1369 -0.3004  0.4802
  670SOL    HW1 2009   1.812   1.921   0.197 -0.0803  0.1245  2.4297
  670SOL    HW2 2010   1.826   1.990   0.049 -1.1036 -2.4213 -1.4550
  671SOL     OW 2011   1.237   0.914   0.867  0.1608  0.1229  0.5767
  671SOL    HW1 2012   1.310   0.893   0.943  0.2822 -0.6820  1.6312
  671SOL    HW2 2013   1.276   0.920   0.776  0.7493 -3.1586  2.2447
  672SOL     OW 2014   2.545   1.256   2.345  0.2869  0.0696  0.5541
  672SOL    HW1 2015   2.599   1.333   2.382  0.3115 -1.5005 -0.2465
  672SOL    HW2 2016   2.605   1.177   2.323 -0.7474 -2.9287 -0.5938
  673SOL     OW 2017   3.036   1.653   2.021 -0.4135  0.3820  0.2433
  673SOL    HW1 2018   3.017   1.696   2.109  3.2987  0.2176 -0.6659
  673SOL    HW2 2019   2.970   1.678   1.945 -0.5959 -0.2467  0.9644
  674SOL     OW 2020   1.067   2.523   2.504  0.1859  0.4847  0.1597
  674SOL    HW1 2021   1.150   2.579   2.482  0.5017 -0.7093  0.2991
  674SOL    HW2 2022   0.996   2.592   2.530  0.3454  0.4968  1.6761
  675SOL     OW 2023   0.968   1.400   1.704  0.3941  0.1398  0.3621
  675SOL    HW1 2024   1.015   1.352   1.625 -0.7312  0.3319  1.3101
  675SOL    HW2 2025   0.902   1.465   1.662  1.9526 -1.8493 -1.5066
  676SOL     OW 2026   2.428   0.546   0.649  0.1047 -0.0586  0.0770
  676SOL    HW1 2027   2.409   0.534   0.553 -2.5755 -1.2152 -0.0454
  676SOL    HW2 2028   2.510   0.501   0.682 -3.8327  0.1806  2.0525
  677SOL     OW 2029   2.451   1.689   2.792 -0.5199 -0.3769 -0.2667
  677SOL    HW1 2030   2.555   1.699   2.798  3.8388 -2.0232  1.8887
  677SOL    HW2 2031   2.403   1.740   2.716  2.7450  0.2935 -1.1575
  678SOL     OW 2032   0.253   0.046   1.134 -0.7661  0.0447 -0.2837
  678SOL    HW1 2033   0.219   0.007   1.221  0.4821 -0.1515 -0.2616
  678SOL    HW2 2034   0.356   0.066   1.142  0.1381  1.5767  1.0795
  679SOL     OW 2035   2.364   0.340   0.158  0.0768  0.0568 -0.0044
  679SOL    HW1 2036   2.364   0.284   0.072 -0.1723 -2.7889  1.6764
  679SOL    HW2 2037   2.368   0.275   0.237  0.3114  0.8001 -1.4390
  680SOL     OW 2038   0.233   2.390   2.045  0.0817  0.3292 -0.1327
  680SOL    HW1 2039   0.307   2.424   1.983 -0.9704  0.9221  0.6966
  680SOL    HW2 2040   0.162   2.457   2.066  3.5824 -0.2347  2.2660
  681SOL     OW 2041   2.001   1.871   1.329  0.3947 -0.3199 -0.1678
  681SOL    HW1 2042   1.947   1.938   1.380 -1.3879  3.5582 -0.1884
  681SOL    HW2 2043   2.021   1.904   1.235 -0.0415  2.4536 -0.4346
  682SOL     OW 2044   0.120   2.158   2.137  0.4478 -0.4236 -0.1258
  682SOL    HW1 2045   0.098   2.074   2.080  0.8294 -1.2344 -0.8236
  682SOL    HW2 2046   0.183   2.221   2.088  1.2491  2.1582 -1.1799
  683SOL     OW 2047   0.003   2.221   1.396 -0.2489 -0.4982 -0.1326
  683SOL    HW1 2048   0.002   2.115   1.405  0.6421 -0.8383 -0.5644
  683SOL    HW2 2049   3.012   2.242   1.347  0.9636  0.2669 -0.7303
  684SOL     OW 2050   2.472   0.859   2.459 -0.1989  0.1306  0.4664
  684SOL    HW1 2051   2.451   0.886   2.360  2.2869 -1.3268 -0.1076
  684SOL    HW2 2052   2.454   0.939   2.522  0.1516  3.3952 -0.3854
  685SOL     OW 2053   1.487   1.394   0.482 -0.3766  0.3055 -0.2552
  685SOL    HW1 2054   1.521   1.330   0.412  1.7729 -0.9207  0.7913
  685SOL    HW2 2055   1.534   1.382   0.575  1.9925  2.0274  0.7169
  686SOL     OW 2056   0.147   0.190   0.495 -0.0005 -0.2717 -0.0582
  686SOL    HW1 2057   0.220   0.233   0.552  0.1596  0.7514  0.0474
  686SOL    HW2 2058   0.060   0.179   0.550  0.1866  0.7714  2.0197
  687SOL     OW 2059   1.475   1.244   2.508  0.2761  0.0565 -0.0375
  687SOL    HW1 2060   1.552   1.258   2.441  0.1497  1.3391 -3.2113
  687SOL    HW2 2061   1.506   1.247   2.600 -1.8212  0.8564 -0.3504
  688SOL     OW 2062   1.241   1.465   1.387  0.1133 -1.1060 -0.1048
  688SOL    HW1 2063   1.294   1.483   1.303 -0.2916 -1.7534 -1.0831
  688SOL    HW2 2064   1.280   1.508   1.474 -1.1848  1.6292  5.0043
  689SOL     OW 2065   2.237   0.040   1.274 -0.3885  0.4828  0.0063
  689SOL    HW1 2066   2.253   0.127   1.221  1.6824 -0.5105 -0.2340
  689SOL    HW2 2067   2.203   3.059   1.209 -0.2684 -0.3576 -1.5006
  690SOL     OW 2068   0.000   1.462   1.152  0.5528 -0.0882 -0.0064
  690SOL    HW1 2069   3.056   1.465   1.058 -1.8301 -3.2541  2.0022
  690SOL    HW2 2070   0.010   1.364   1.175  0.7838  1.2179 -3.4234
  691SOL     OW 2071   0.381   2.361   1.109  0.5250 -0.2535 -0.3062
  691SOL    HW1 2072   0.401   2.274   1.157  1.3079 -1.5553  0.0675
  691SOL    HW2 2073   0.444   2.378   1.037 -1.3944 -1.7502  2.4515
  692SOL     OW 2074   2.257   0.431   1.827  0.4649  0.3229  0.2517
  692SOL    HW1 2075   2.194   0.403   1.900  4.5313  1.3958  1.2818
  692SOL    HW2 2076   2.305   0.348   1.794  0.6112 -0.2987  0.6001
  693SOL     OW 2077   0.481   1.921   2.031  0.5301 -0.2217 -0.0753
  693SOL    HW1 2078   0.569   1.880   2.054 -3.3290  0.4475 -1.6225
  693SOL    HW2 2079   0.419   1.931   2.111  2.6980 -0.3375 -0.4586
  694SOL     OW 2080   1.438   0.877   1.507 -0.1487 -0.1320 -0.0965
  694SOL    HW1 2081   1.397   0.863   1.414 -1.2606 -1.0570 -3.1147
  694SOL    HW2 2082   1.537   0.892   1.496  1.1114  0.0173 -0.9893
  695SOL     OW 2083   0.780   1.286   0.666  0.2790 -0.1949  0.1296
  695SOL    HW1 2084   0.807   1.197   0.633  0.4981  1.9876  0.3064
  695SOL    HW2 2085   0.691   1.313   0.630  1.8213 -1.2846  0.2690
  696SOL     OW 2086   1.033   2.900   0.696  0.1122 -0.0413  0.5791
  696SOL    HW1 2087   1.070   2.817   0.643 -0.3660 -0.0294  0.7667
  696SOL    HW2 2088   1.100   2.974   0.709 -1.1213 -2.9816 -2.9576
  697SOL     OW 2089   1.472   0.421   1.732 -0.0121 -0.4212 -0.5418
  697SOL    HW1 2090   1.469   0.384   1.827  2.2420  1.4673 -1.0761
  697SOL    HW2 2091   1.480   0.521   1.731  0.6341  0.2097 -2.3336
  698SOL     OW 2092   1.786   1.313   2.060  0.0723 -0.5796  0.5695
  698SOL    HW1 2093   1.829   1.398   2.022  2.0392  1.2270 -1.3435
  698SOL    HW2 2094   1.693   1.297   2.018  4.8303 -0.6293  0.4928
  699SOL     OW 2095   2.372   0.193   1.825 -0.4466 -0.7400 -0.1613
  699SOL    HW1 2096   2.469   0.222   1.848  0.4133  0.1967  2.1631
  699SOL    HW2 2097   2.361   0.156   1.733  1.0504  1.3088  2.4768
  700SOL     OW 2098   0.895   2.235   0.403  0.1007  0.0005  0.3730
  700SOL    HW1 2099   0.853   2.328   0.421 -1.9438 -0.4181 -0.5384
  700SOL    HW2 2100   0.866   2.171   0.479 -2.4657 -1.1993  1.1172
  701SOL     OW 2101   2.030   2.730   2.641  0.5238  0.3246 -0.2327
  701SOL    HW1 2102   1.986   2.791   2.567 -2.6824 -0.3137  1.0474
  701SOL    HW2 2103   1.987   2.736   2.732  2.4985 -1.2378  0.2387
  702SOL     OW 2104   0.970   0.112   1.008 -0.3375  0.6523 -0.3419
  702SOL    HW1 2105   1.038   0.038   1.005 -2.2994  0.9188 -2.8780
  702SOL    HW2 2106   0.961   0.154   0.919 -0.0674 -2.9272 -0.5486
  703SOL     OW 2107   2.615   2.843   2.035  0.5209  0.7876 -0.2011
  703SOL    HW1 2108   2.525   2.804   2.038  0.6337  1.4684  2.6874
  703SOL    HW2 2109   2.680   2.778   2.075 -1.9711  1.7362 -1.3435
  704SOL     OW 2110   2.988   2.172   0.473  0.1112 -0.0306 -0.5383
  704SOL    HW1 2111   3.078   2.132   0.499 -0.3563  0.5151  1.5329
  704SOL    HW2 2112   2.913   2.107   0.500  1.4330 -1.2828  3.0965
  705SOL     OW 2113   2.482   2.810   2.398 -0.1675 -0.3035 -0.0077
  705SOL    HW1 2114   2.402   2.877   2.407 -0.8429 -0.1131  0.0253
  705SOL    HW2 2115   2.457   2.727   2.348 -1.4537  0.3950  0.2829
  706SOL     OW 2116   2.224   2.988   1.033 -0.4443 -0.1846  0.5673
  706SOL    HW1 2117   2.311   3.012   0.989 -0.5281  1.1964 -2.4926
  706SOL    HW2 2118   2.220   2.885   1.046 -2.1150 -2.3208  0.8156
  707SOL     OW 2119   0.994   0.061   2.128  0.1156  0.5951 -0.2179
  707SOL    HW1 2120   1.031   3.060   2.110  0.0582 -1.1411  0.6200
  707SOL    HW2 2121   0.893   0.065   2.110  0.1285  0.4083  0.3491
  708SOL     OW 2122   0.092   2.019   1.714 -0.0883 -0.0623  0.0119
  708SOL    HW1 2123   0.107   2.119   1.731  0.5681  1.5952 -1.2242
  708SOL    HW2 2124   0.050   2.011   1.623  0.5326  0.2008  0.0322
  709SOL     OW 2125   1.532   0.370   1.350  0.5927 -0.2971  0.0163
  709SOL    HW1 2126   1.535   0.422   1.261 -1.0689 -0.5515 -0.7218
  709SOL    HW2 2127   1.560   0.274   1.331  3.5062 -2.2891  0.3515
  710SOL     OW 2128   0.589   0.010   2.742  0.3673 -0.3888  0.1743
  710SOL    HW1 2129   0.618   3.004   2.754 -0.4944 -0.8527 -0.6846
  710SOL    HW2 2130   0.652   0.067   2.681 -2.9958  1.5620  0.6854
  711SOL     OW 2131   0.853   2.050   2.519 -0.0757  0.4610  0.1589
  711SOL    HW1 2132   0.788   2.066   2.594  0.1752  0.7886 -2.1137
  711SOL    HW2 2133   0.917   1.976   2.544 -1.0301 -0.1035 -0.7729
  712SOL     OW 2134   1.073   2.054   2.943 -0.0730  0.1097  0.1820
  712SOL    HW1 2135   0.981   2.082   2.913  2.0117  1.2693  2.1785
  712SOL    HW2 2136   1.130   2.022   2.867 -2.0964 -0.9886  3.0779
  713SOL     OW 2137   2.029   0.822   1.883 -0.3314  0.5361 -0.4193
  713SOL    HW1 2138   1.941   0.861   1.848 -1.0702  0.1046 -1.7534
  713SOL    HW2 2139   2.015   0.740   1.950 -1.4989 -1.1102  1.3457
  714SOL     OW 2140   1.158   1.795   1.728  0.9875 -0.0685 -0.0858
  714SOL    HW1 2141   1.197   1.857   1.795 -1.5582  0.6392 -4.0635
  714SOL    HW2 2142   1.136   1.847   1.643 -1.7168 -0.8299 -1.9802
  715SOL     OW 2143   2.394   0.573   0.045 -0.2319  0.1491  0.0725
  715SOL    HW1 2144   2.370   0.502   0.113 -0.7317  2.2747 -0.6590
  715SOL    HW2 2145   2.384   0.670   0.082 -0.8511 -3.2885 -0.7020
  716SOL     OW 2146   2.884   2.206   1.225  0.1242  0.0090 -0.0883
  716SOL    HW1 2147   2.808   2.200   1.297 -0.4715  1.1736  0.5496
  716SOL    HW2 2148   2.882   2.298   1.181  1.2822  0.2584  2.4225
  717SOL     OW 2149   2.786   1.266   0.918  0.0446 -0.6442  0.2898
  717SOL    HW1 2150   2.716   1.229   0.979  0.1870  3.9159  1.6357
  717SOL    HW2 2151   2.839   1.198   0.873 -2.5683  1.4011 -2.6954
  718SOL     OW 2152   1.332   1.617   1.587 -0.0408 -0.1193 -0.1521
  718SOL    HW1 2153   1.397   1.605   1.666  2.6160  0.5659  0.0591
  718SOL    HW2 2154   1.256   1.670   1.627 -4.7223 -0.5520  1.3353
  719SOL     OW 2155   2.841   0.698   0.178  0.2777 -0.1739 -1.0330
  719SOL    HW1 2156   2.832   0.715   0.075  1.6213  1.1188 -1.6729
  719SOL    HW2 2157   2.895   0.615   0.204  2.8977 -0.5760  0.1253
  720SOL     OW 2158   0.971   0.172   0.721  0.0846 -0.4743  0.0818
  720SOL    HW1 2159   1.011   0.262   0.701 -2.6590 -1.2587 -0.2270
  720SOL    HW2 2160   0.870   0.175   0.720  2.5122 -0.5768  0.5701
  721SOL     OW 2161   2.646   0.819   0.565 -0.5180  0.1855 -0.3758
  721SOL    HW1 2162   2.648   0.745   0.493  1.9313  0.8777  1.3870
  721SOL    HW2 2163   2.734   0.807   0.614 -2.8509 -0.8639  0.0544
  722SOL     OW 2164   0.463   2.685   2.512 -0.3521  0.0409 -1.3839
  722SOL    HW1 2165   0.536   2.621   2.540 -0.1272  0.0242  0.8906
  722SOL    HW2 2166   0.418   2.650   2.430  3.7280  2.0581  0.3169
  723SOL     OW 2167   2.020   0.281   0.966 -0.6457 -0.3392 -0.4079
  723SOL    HW1 2168   2.103   0.319   1.021  1.4222  1.1625  4.4063
  723SOL    HW2 2169   1.944   0.342   0.988  1.4584  2.5059  0.4374
  724SOL     OW 2170   0.976   1.769   2.304  0.0949 -0.3510  0.0943
  724SOL    HW1 2171   0.977   1.792   2.207 -0.9568 -0.9576 -0.0930
  724SOL    HW2 2172   1.039   1.694   2.331 -0.1477  2.1539  0.0195
  725SOL     OW 2173   1.424   2.824   1.310 -0.3450  0.2469 -0.1668
  725SOL    HW1 2174   1.467   2.858   1.223  1.8574  0.8875 -0.5639
  725SOL    HW2 2175   1.335   2.784   1.285  0.5035  2.4656  0.3013
  726SOL     OW 2176   2.095   2.671   0.072 -0.4452  0.0480 -0.3251
  726SOL    HW1 2177   2.136   2.728   3.090 -0.9770 -2.2913 -0.5489
  726SOL    HW2 2178   2.167   2.609   0.111 -1.0750 -0.2395 -0.1186
  727SOL     OW 2179   1.230   1.880   0.999  0.2027  0.0993 -0.1991
  727SOL    HW1 2180   1.241   1.843   1.092  0.0454  0.9874  2.6890
  727SOL    HW2 2181   1.304   1.855   0.935 -1.2049  0.9020  2.0807
  728SOL     OW 2182   2.242   2.686   2.214 -0.0954  0.1618  0.3487
  728SOL    HW1 2183   2.249   2.766   2.278 -1.2495  0.4952  1.1559
  728SOL    HW2 2184   2.171   2.625   2.252 -1.8251  1.4931  0.0494
  729SOL     OW 2185   1.913   2.297   1.469 -0.1597  0.1930  0.0942
  729SOL    HW1 2186   1.875   2.296   1.370  0.4345  1.4247 -3.5862
  729SOL    HW2 2187   1.960   2.383   1.490 -1.1090  0.9971 -1.6710
  730SOL     OW 2188   1.786   0.820   2.515 -0.0440  0.1855  0.0886
  730SOL    HW1 2189   1.710   0.780   2.567  2.5456  1.1356 -0.8817
  730SOL    HW2 2190   1.771   0.918   2.489 -0.2896  2.9373 -1.9147
  731SOL     OW 2191   0.819   0.039   1.362 -0.2909  0.1240  0.0534
  731SOL    HW1 2192   0.898   3.075   1.390 -1.4107  0.1604  1.6791
  731SOL    HW2 2193   0.785   0.002   1.274 -3.0661 -0.5454  1.4099
  732SOL     OW 2194   1.181   0.019   0.753 -0.4050  0.3379 -0.2340
  732SOL    HW1 2195   1.094   0.069   0.752  1.3705  0.3766 -1.0136
  732SOL    HW2 2196   1.249   0.082   0.716 -1.0332 -1.6638  0.2297
  733SOL     OW 2197   1.313   1.430   0.801  0.4653  1.1809  0.0044
  733SOL    HW1 2198   1.406   1.421   0.764 -3.6418 -0.0958 -4.0148
  733SOL    HW2 2199   1.265   1.348   0.812  3.0707  3.0380 -2.2042
  734SOL     OW 2200   2.686   2.547   2.526 -0.4202  0.3355 -0.0302
  734SOL    HW1 2201   2.768   2.593   2.563 -1.3284 -1.2722  1.1848
  734SOL    HW2 2202   2.709   2.449   2.503  1.6206 -0.8444 -0.5417
  735SOL     OW 2203   0.728   3.077   1.109  0.3710 -0.3999  0.2371
  735SOL    HW1 2204   0.709   2.987   1.061 -0.1815  0.2503 -4.2583
  735SOL    HW2 2205   0.815   0.028   1.074 -0.4467 -1.0487  0.5740
  736SOL     OW 2206   1.479   2.102   2.791  0.0162 -0.6708 -0.3777
  736SOL    HW1 2207   1.394   2.113   2.732 -1.1732  1.9303 -0.6407
  736SOL    HW2 2208   1.511   2.005   2.781 -0.7403 -1.6244  1.3164
  737SOL     OW 2209   0.435   2.127   1.281  0.1365  0.3238 -0.0766
  737SOL    HW1 2210   0.410   2.029   1.260  0.8034  2.0967 -0.0799
  737SOL    HW2 2211   0.392   2.158   1.366  0.2687  0.3351 -1.7559
  738SOL     OW 2212   1.446   2.739   2.802 -0.1294 -0.1609 -0.1572
  738SOL    HW1 2213   1.478   2.819   2.852 -0.5468  0.6624  0.3002
  738SOL    HW2 2214   1.463   2.650   2.848 -1.0114  0.2280 -0.7411
  739SOL     OW 2215   0.977   2.009   2.115 -0.0162  0.3521 -0.1925
  739SOL    HW1 2216   1.062   2.054   2.146 -2.8326  1.8622 -2.1006
  739SOL    HW2 2217   0.891   2.032   2.168 -1.4200 -0.0352  1.6950
  740SOL     OW 2218   1.213   2.687   1.201  0.3265  0.6006 -0.3999
  740SOL    HW1 2219   1.223   2.590   1.169  0.2566 -0.5416  0.2737
  740SOL    HW2 2220   1.130   2.688   1.264  0.1856 -2.8830 -0.1617
  741SOL     OW 2221   2.823   1.153   0.161 -0.0871 -0.1681 -0.5063
  741SOL    HW1 2222   2.788   1.089   0.232  2.2608  0.5115 -1.2076
  741SOL    HW2 2223   2.755   1.187   0.100 -0.0674 -0.2100  2.5439
  742SOL     OW 2224   0.704   1.727   2.409 -0.1658  0.2972  0.5291
  742SOL    HW1 2225   0.800   1.748   2.373  0.0280  0.4792 -1.6371
  742SOL    HW2 2226   0.649   1.676   2.341  0.5853  0.3055  0.6707
  743SOL     OW 2227   0.804   0.796   2.308  0.1893  0.0107  0.7368
  743SOL    HW1 2228   0.724   0.805   2.370  0.4173  1.8987 -0.5577
  743SOL    HW2 2229   0.860   0.716   2.340 -1.1389 -2.1856 -0.5662
  744SOL     OW 2230   2.066   2.521   1.515 -0.1161 -0.5848 -0.1755
  744SOL    HW1 2231   2.128   2.516   1.599 -0.0267  2.5002  2.5582
  744SOL    HW2 2232   2.075   2.621   1.485  0.3560  2.7473 -1.0608
  745SOL     OW 2233   1.848   1.153   1.409 -0.2062 -0.0123 -0.0089
  745SOL    HW1 2234   1.794   1.237   1.405 -2.5617 -1.6545 -0.4880
  745SOL    HW2 2235   1.911   1.152   1.490 -1.6379  0.3234  2.2849
  746SOL     OW 2236   2.084   0.991   1.040  0.4019  0.9163  0.5796
  746SOL    HW1 2237   2.096   1.084   1.005  0.3925 -1.0035  1.6956
  746SOL    HW2 2238   1.994   0.982   1.099 -4.5172 -0.9341  1.4982
  747SOL     OW 2239   1.843   1.714   0.840  0.3659  0.1455  0.3634
  747SOL    HW1 2240   1.830   1.808   0.877  1.0117 -0.7271  0.9821
  747SOL    HW2 2241   1.870   1.718   0.742  1.2493 -0.6683 -0.6111
  748SOL     OW 2242   0.706   1.648   0.421  0.3140  0.3564 -0.3306
  748SOL    HW1 2243   0.609   1.645   0.445 -2.9677  0.7987 -0.2287
  748SOL    HW2 2244   0.717   1.617   0.324  1.5926  2.0429  0.4401
  749SOL     OW 2245   3.063   2.620   2.641  0.5217 -0.0868 -0.4935
  749SOL    HW1 2246   2.974   2.669   2.651  1.2690  0.4877  2.0328
  749SOL    HW2 2247   0.031   2.638   2.721  1.1699 -0.2195 -0.2796
  750SOL     OW 2248   1.941   0.466   1.255  0.1455  0.4254 -0.0460
  750SOL    HW1 2249   2.036   0.447   1.218 -0.5471 -0.3803  0.6848
  750SOL    HW2 2250   1.901   0.376   1.287  1.8165  1.3011  1.7642
  751SOL     OW 2251   2.293   0.050   0.338  0.0435 -0.0600 -0.2696
  751SOL    HW1 2252   2.262   0.032   0.244  1.8842  0.3781  2.0388
  751SOL    HW2 2253   2.223   0.040   0.409 -2.8586 -0.3502 -0.8754
  752SOL     OW 2254   2.219   2.227   0.253 -0.4352 -0.0392 -0.2127
  752SOL    HW1 2255   2.166   2.286   0.319  3.2266 -2.6781 -0.1067
  752SOL    HW2 2256   2.245   2.140   0.302  0.2273 -0.4409 -0.0524
  753SOL     OW 2257   1.869   1.548   2.343 -0.0466 -0.4616  0.4267
  753SOL    HW1 2258   1.967   1.566   2.328  0.9117  0.4996  0.4619
  753SOL    HW2 2259   1.812   1.630   2.345 -0.0796 -0.7457 -1.1237
  754SOL     OW 2260   2.488   2.315   1.455  0.0730 -0.2127 -0.3670
  754SOL    HW1 2261   2.469   2.281   1.550 -1.7140 -0.6670 -1.2654
  754SOL    HW2 2262   2.449   2.246   1.389  0.3474  1.0895  0.8878
  755SOL     OW 2263   2.413   0.676   0.956 -0.1787  0.1090 -0.0409
  755SOL    HW1 2264   2.339   0.673   1.029 -1.3123  2.6372 -1.2530
  755SOL    HW2 2265   2.407   0.590   0.901  0.1189  1.5802 -0.8185
  756SOL     OW 2266   1.256   1.451   2.811  0.2909 -0.2768  0.2015
  756SOL    HW1 2267   1.355   1.452   2.830 -0.0289 -2.3200 -2.0298
  756SOL    HW2 2268   1.234   1.397   2.731  0.7516  0.0305  0.4754
  757SOL     OW 2269   1.698   2.683   1.081 -0.3914 -0.6372 -0.0252
  757SOL    HW1 2270   1.750   2.773   1.066 -3.4681  0.0562 -1.4360
  757SOL    HW2 2271   1.651   2.644   0.999  1.5034  1.1942  0.4415
  758SOL     OW 2272   0.997   2.341   1.552  0.1510  0.2655 -0.4636
  758SOL    HW1 2273   1.031   2.278   1.626 -0.3189 -0.6287  2.1809
  758SOL    HW2 2274   1.062   2.341   1.476  0.4842  0.4252  0.1480
  759SOL     OW 2275   2.294   1.363   1.064 -0.2503 -0.0972  0.5647
  759SOL    HW1 2276   2.238   1.371   1.147  1.5368 -0.1917 -2.3477
  759SOL    HW2 2277   2.242   1.322   0.986  0.7479 -2.1157  1.1813
  760SOL     OW 2278   2.293   0.904   1.215  0.4043 -0.7153  0.2145
  760SOL    HW1 2279   2.224   0.919   1.146  0.7334  0.1160  1.7300
  760SOL    HW2 2280   2.274   0.975   1.291 -0.2943 -0.1306  2.6786
  761SOL     OW 2281   2.016   2.902   0.197 -0.1191 -0.3478  0.6003
  761SOL    HW1 2282   2.012   2.878   0.296 -0.9722 -3.1213 -0.8639
  761SOL    HW2 2283   2.021   2.817   0.145 -0.1034  1.2930  0.0697
  762SOL     OW 2284   1.977   1.728   2.881  0.1126  0.4639  0.2191
  762SOL    HW1 2285   1.939   1.815   2.847 -0.9842  0.7966 -0.5405
  762SOL    HW2 2286   2.071   1.750   2.921 -0.4188  0.6649  1.3883
  763SOL     OW 2287   0.237   1.226   1.147 -0.5319  0.2277  0.1308
  763SOL    HW1 2288   0.326   1.270   1.169 -3.5412  1.4009 -2.3539
  763SOL    HW2 2289   0.241   1.129   1.124  0.2096 -1.7064 -0.5383
  764SOL     OW 2290   2.892   2.493   0.029 -0.5720  0.1948 -0.0974
  764SOL    HW1 2291   2.813   2.452   0.076 -0.8902  0.0821 -1.3835
  764SOL    HW2 2292   2.950   2.420   3.077  0.1800 -2.6849  0.4442
  765SOL     OW 2293   0.731   0.055   2.054 -0.1705 -0.2975 -0.2720
  765SOL    HW1 2294   0.705   0.067   1.956  1.2481 -0.1600  2.6664
  765SOL    HW2 2295   0.648   0.054   2.114 -0.9933 -0.8914 -1.7578
  766SOL     OW 2296   0.056   2.189   2.423 -0.1199  0.6253 -0.6346
  766SOL    HW1 2297   3.053   2.155   2.408  0.2237 -1.1368 -1.7132
  766SOL    HW2 2298   0.102   2.172   2.334  0.5300  0.9757  0.9974
  767SOL     OW 2299   3.028   1.328   1.833  0.2419  0.3875 -0.2110
  767SOL    HW1 2300   3.051   1.356   1.928 -1.6810  0.7544 -0.5089
  767SOL    HW2 2301   3.032   1.407   1.770 -1.8352  0.9001  0.7709
  768SOL     OW 2302   1.180   0.671   2.797 -0.6016  0.2033  0.5492
  768SOL    HW1 2303   1.118   0.652   2.872  1.2978  0.7414 -1.5666
  768SOL    HW2 2304   1.275   0.649   2.825 -2.1354  1.2413 -0.5887
  769SOL     OW 2305   1.941   2.154   0.601  0.4770  0.4608  0.8653
  769SOL    HW1 2306   2.013   2.212   0.564 -1.3965  0.1089  1.4839
  769SOL    HW2 2307   1.845   2.193   0.595  0.0944 -0.5411 -0.1581
  770SOL     OW 2308   2.925   0.440   0.215  0.3954 -0.1252  0.6489
  770SOL    HW1 2309   2.836   0.392   0.214 -0.9672  1.3192  0.3738
  770SOL    HW2 2310   2.999   0.378   0.237 -2.4247  0.8823 -1.7134
  771SOL     OW 2311   1.660   2.204   1.923  0.0987  0.3733  0.7554
  771SOL    HW1 2312   1.688   2.263   1.843 -0.6160  0.0828 -1.3932
  771SOL    HW2 2313   1.568   2.164   1.898  0.5491 -1.1483 -1.1134
  772SOL     OW 2314   0.754   0.308   2.895  0.1525 -0.8491  0.1035
  772SOL    HW1 2315   0.742   0.401   2.940  0.6985  2.0566  2.9731
  772SOL    HW2 2316   0.727   0.304   2.796  1.1067 -1.1630  1.6064
  773SOL     OW 2317   2.930   0.893   1.759  0.3162  0.5403  0.4570
  773SOL    HW1 2318   2.950   0.863   1.664 -0.5049  0.3363 -1.8441
  773SOL    HW2 2319   2.994   0.853   1.826  1.5056  2.0342  0.1816
  774SOL     OW 2320   1.623   1.204   0.339  0.6829  0.4082  0.5482
  774SOL    HW1 2321   1.615   1.274   0.261 -1.6385  1.3482 -1.1346
  774SOL    HW2 2322   1.709   1.215   0.397  1.7975  0.4929  2.5480
  775SOL     OW 2323   2.345   3.072   0.045 -0.0385  0.3204 -0.1084
  775SOL    HW1 2324   2.442   3.063   0.080 -0.2554 -2.4943  1.0468
  775SOL    HW2 2325   2.311   2.987   0.006 -0.1746  1.9072  0.7578
  776SOL     OW 2326   2.408   0.856   2.196 -0.2316 -0.2508  0.4788
  776SOL    HW1 2327   2.372   0.953   2.193  1.4047 -0.1383 -2.2605
  776SOL    HW2 2328   2.360   0.803   2.125  0.9181 -2.0259 -1.6305
  777SOL     OW 2329   0.105   1.200   2.705 -0.6690 -0.5434  0.1708
  777SOL    HW1 2330   0.178   1.131   2.728 -4.2185 -0.9816  2.3310
  777SOL    HW2 2331   0.109   1.217   2.605 -0.2992  0.5612  0.9996
  778SOL     OW 2332   0.613   0.248   0.454 -0.1946 -0.5448  0.3789
  778SOL    HW1 2333   0.711   0.233   0.421  0.4194  2.6539  0.0973
  778SOL    HW2 2334   0.547   0.235   0.376 -0.7297 -0.4694  0.8240
  779SOL     OW 2335   0.756   0.454   2.515 -0.4917 -0.5998  0.1557
  779SOL    HW1 2336   0.799   0.524   2.575  1.6497 -1.7555 -2.6580
  779SOL    HW2 2337   0.676   0.505   2.474 -1.3186  0.8250  2.2481
  780SOL     OW 2338   2.080   1.067   2.350  0.2577 -0.1067 -0.3637
  780SOL    HW1 2339   2.054   1.073   2.251 -0.5855 -2.4711  3.3605
  780SOL    HW2 2340   2.092   0.971   2.383  0.9577 -1.7174  0.2528
  781SOL     OW 2341   0.049   0.854   1.923 -0.1889  0.2487  0.2175
  781SOL    HW1 2342   0.133   0.907   1.897  1.1650  0.2222 -1.2131
  781SOL    HW2 2343   0.000   0.897   2.000  0.5140 -0.3348  2.4025
  782SOL     OW 2344   0.833   1.624   2.667  0.3268  0.7972 -0.1842
  782SOL    HW1 2345   0.763   1.658   2.595 -1.2216  2.3296  0.3390
  782SOL    HW2 2346   0.808   1.648   2.762  2.7681 -1.0579 -0.6603
  783SOL     OW 2347   0.657   2.539   1.561 -0.7621 -0.2309 -0.3272
  783SOL    HW1 2348   0.695   2.447   1.529 -0.1306  1.3579  0.2066
  783SOL    HW2 2349   0.645   2.600   1.477  1.6654  2.9811 -2.7245
  784SOL     OW 2350   1.330   0.336   2.859 -0.5746 -0.1195  0.0433
  784SOL    HW1 2351   1.267   0.331   2.777 -3.4092  1.3539  0.5909
  784SOL    HW2 2352   1.370   0.432   2.861 -0.5822 -1.6366 -2.4233
  785SOL     OW 2353   1.144   0.518   2.554  0.6535  0.0255 -0.1913
  785SOL    HW1 2354   1.146   0.423   2.588  1.0754 -0.1763 -0.1885
  785SOL    HW2 2355   1.134   0.588   2.626 -0.1836 -0.9086 -2.8440
  786SOL     OW 2356   0.439   1.702   0.228 -0.0359  0.2844 -0.4044
  786SOL    HW1 2357   0.526   1.662   0.189 -0.4197 -0.0293  1.2375
  786SOL    HW2 2358   0.460   1.785   0.286 -1.9576  0.8113  0.5804
  787SOL     OW 2359   1.842   1.210   0.469  0.1613  0.3710  0.0509
  787SOL    HW1 2360   1.932   1.199   0.422 -0.4158  1.0617 -0.1280
  787SOL    HW2 2361   1.832   1.129   0.528 -0.9837 -1.3499  2.6666
  788SOL     OW 2362   1.808   1.605   1.651  0.6548  0.2637 -0.4739
  788SOL    HW1 2363   1.829   1.706   1.654  0.1476 -0.1615 -0.9249
  788SOL    HW2 2364   1.886   1.543   1.657 -1.4996 -0.6660  1.0210
  789SOL     OW 2365   0.182   1.643   2.147  0.1080  0.6957  0.1944
  789SOL    HW1 2366   0.110   1.688   2.089 -0.1077  2.5455 -0.5399
  789SOL    HW2 2367   0.176   1.691   2.236 -1.0117 -2.6037 -2.5887
  790SOL     OW 2368   0.580   2.641   0.294  0.1792  0.7774 -0.0445
  790SOL    HW1 2369   0.571   2.616   0.196  3.8587 -0.4282  3.6873
  790SOL    HW2 2370   0.496   2.682   0.324  2.3264 -2.2007 -2.0700
  791SOL     OW 2371   0.482   0.374   0.023  0.5338  0.1180  0.5213
  791SOL    HW1 2372   0.554   0.438   3.079 -0.0454 -1.4757 -1.1744
  791SOL    HW2 2373   0.503   0.281   3.075 -1.0429  0.6552 -0.8664
  792SOL     OW 2374   1.700   0.658   2.167  0.0160 -0.6210 -0.3603
  792SOL    HW1 2375   1.781   0.676   2.224 -1.5374 -1.0356 -1.5873
  792SOL    HW2 2376   1.639   0.740   2.177  4.5211  1.5355  0.8248
  793SOL     OW 2377   0.468   0.603   0.962  0.5160  0.2037  0.3286
  793SOL    HW1 2378   0.392   0.532   0.949 -0.4407 -2.8429  0.2868
  793SOL    HW2 2379   0.449   0.680   1.029 -1.7706  0.9781  1.4724
  794SOL     OW 2380   0.647   0.148   1.532 -0.3941  0.0080 -0.0106
  794SOL    HW1 2381   0.729   0.119   1.478 -0.9814 -0.7385  0.7527
  794SOL    HW2 2382   0.621   0.240   1.506 -1.4760  2.1581  0.6043
  795SOL     OW 2383   3.052   1.337   3.047  0.4397  0.1966  0.5794
  795SOL    HW1 2384   0.046   1.291   3.065 -0.1671  0.1988  3.0856
  795SOL    HW2 2385   2.998   1.281   2.980 -2.0676  1.7638  0.0047
  796SOL     OW 2386   3.063   0.539   3.068  0.1088 -0.2141  0.1538
  796SOL    HW1 2387   0.068   0.512   3.092  0.4939 -0.1469 -1.5773
  796SOL    HW2 2388   2.992   0.495   0.033  0.5434  0.7825  1.8710
  797SOL     OW 2389   1.504   2.558   3.004  0.4036  0.0484 -0.0360
  797SOL    HW1 2390   1.470   2.597   3.091  1.8113  0.4440 -0.6906
  797SOL    HW2 2391   1.444   2.485   2.965 -1.3387 -0.2045 -1.1352
  798SOL     OW 2392   2.846   0.564   0.973  0.2516  0.0948 -0.0171
  798SOL    HW1 2393   2.787   0.526   0.895  2.0017 -0.6834 -1.7869
  798SOL    HW2 2394   2.940   0.584   0.936  1.9105 -1.7595  0.1066
  799SOL     OW 2395   2.639   0.692   2.134  0.3199 -0.1434  0.4074
  799SOL    HW1 2396   2.557   0.752   2.132 -1.3319 -2.0048  1.3196
  799SOL    HW2 2397   2.692   0.708   2.050 -2.0015  2.2019  0.6502
  800SOL     OW 2398   0.159   2.050   0.542 -0.5142 -0.0449 -0.0637
  800SOL    HW1 2399   0.124   1.977   0.606 -1.9811 -0.0002  1.2601
  800SOL    HW2 2400   0.175   2.004   0.448  0.4712 -2.7913 -0.9109
  801SOL     OW 2401   1.066   1.833   0.802 -0.6806  0.2569  0.4205
  801SOL    HW1 2402   1.122   1.853   0.888 -0.1384  2.1869  1.0465
  801SOL    HW2 2403   1.095   1.742   0.760 -0.5500 -0.3204  1.8228
  802SOL     OW 2404   1.001   1.819   2.568  0.3939  0.1254 -0.1363
  802SOL    HW1 2405   0.968   1.735   2.615 -1.4776 -0.4465 -0.9805
  802SOL    HW2 2406   0.979   1.802   2.470 -2.4957 -1.8073  1.2319
  803SOL     OW 2407   0.040   1.971   1.435  0.4175 -0.7015  0.5703
  803SOL    HW1 2408   3.066   1.911   1.386  1.1294  0.0436 -1.4119
  803SOL    HW2 2409   0.118   1.911   1.468  2.4658 -1.5654  0.2377
  804SOL     OW 2410   1.107   2.581   1.611 -0.3061  0.2895  0.0005
  804SOL    HW1 2411   1.199   2.546   1.639 -2.0225 -1.5859  0.5766
  804SOL    HW2 2412   1.048   2.499   1.592  1.3057 -1.3856  1.3742
  805SOL     OW 2413   2.309   1.562   2.978 -0.0784  0.1695 -0.0107
  805SOL    HW1 2414   2.347   1.606   2.894 -0.2937 -0.6608  3.4591
  805SOL    HW2 2415   2.248   1.484   2.951 -0.3582  2.2841  0.1506
  806SOL     OW 2416   1.981   2.919   0.719 -0.5035 -0.1535 -0.0093
  806SOL    HW1 2417   1.979   2.829   0.771 -0.8027  0.8272  0.1448
  806SOL    HW2 2418   2.013   2.996   0.782  1.4497  0.5723  0.1028
  807SOL     OW 2419   2.870   0.685   2.752  0.1644  0.0228  0.7748
  807SOL    HW1 2420   2.857   0.661   2.848  0.3126 -0.4265 -3.2087
  807SOL    HW2 2421   2.786   0.728   2.723 -0.2319  0.1223  1.3253
  808SOL     OW 2422   0.524   1.093   0.434 -0.6635  0.2303  0.5871
  808SOL    HW1 2423   0.579   1.129   0.358  0.3147 -2.3113 -2.1723
  808SOL    HW2 2424   0.498   1.168   0.497  0.8933  0.4555  1.4658
  809SOL     OW 2425   2.579   0.968   1.882 -0.0814 -0.3191  0.5684
  809SOL    HW1 2426   2.522   1.011   1.809  0.0380  0.1251  1.9704
  809SOL    HW2 2427   2.615   0.879   1.850 -0.3321  1.1909 -0.0373
  810SOL     OW 2428   1.141   0.567   1.290 -0.1464  0.4239  0.0740
  810SOL    HW1 2429   1.154   0.546   1.191  1.7742  0.0787  2.3424
  810SOL    HW2 2430   1.195   0.503   1.347  2.3625  1.6406 -1.2873
  811SOL     OW 2431   2.260   2.863   1.745 -0.0748 -0.3512  0.6102
  811SOL    HW1 2432   2.326   2.918   1.687 -0.4295  0.5610 -1.0750
  811SOL    HW2 2433   2.214   2.916   1.823 -2.5722 -2.4412  3.1847
  812SOL     OW 2434   1.746   2.100   3.015 -0.2082 -0.4066 -0.1023
  812SOL    HW1 2435   1.653   2.100   3.056 -0.8443 -1.0521  0.2350
  812SOL    HW2 2436   1.784   2.190   2.990  0.1356  1.3125  0.4383
  813SOL     OW 2437   1.245   0.724   1.614 -0.1593  0.4347  0.0341
  813SOL    HW1 2438   1.260   0.632   1.572 -3.0604 -2.4412 -0.9012
  813SOL    HW2 2439   1.315   0.790   1.580  1.2927  1.9411  0.4528
  814SOL     OW 2440   0.558   0.396   1.458  0.1698  0.2192 -0.2708
  814SOL    HW1 2441   0.522   0.468   1.394 -1.5788  1.2443 -0.3728
  814SOL    HW2 2442   0.590   0.444   1.543  1.2285  0.0706  1.0595
  815SOL     OW 2443   0.645   0.588   0.360  0.3980  0.1662 -0.2000
  815SOL    HW1 2444   0.577   0.518   0.397 -1.6986  0.5796  1.5622
  815SOL    HW2 2445   0.641   0.677   0.413  2.7054 -1.3922  1.1146
  816SOL     OW 2446   2.150   1.580   2.362  0.2359 -0.1168 -0.3599
  816SOL    HW1 2447   2.100   1.609   2.449 -1.2054  2.7838  1.6474
  816SOL    HW2 2448   2.254   1.578   2.374 -0.5878 -1.2118 -2.1768
  817SOL     OW 2449   0.709   2.706   0.604 -0.3437  0.1117 -0.3384
  817SOL    HW1 2450   0.763   2.691   0.690  0.2639 -2.2892  1.8481
  817SOL    HW2 2451   0.761   2.745   0.528 -2.7983 -4.0732  2.7935
  818SOL     OW 2452   1.790   0.569   2.874  0.4020  0.4822  0.1659
  818SOL    HW1 2453   1.791   0.555   2.975 -1.2499 -0.3288 -3.2801
  818SOL    HW2 2454   1.818   0.664   2.850 -0.1532 -0.5703  1.4194
  819SOL     OW 2455   1.627   0.467   0.127 -0.7322 -0.4076 -0.1962
  819SOL    HW1 2456   1.728   0.488   0.103  3.1868 -0.3506  0.5036
  819SOL    HW2 2457   1.586   0.395   0.064 -2.1080 -1.1645  1.0189
  820SOL     OW 2458   1.875   0.510   0.057 -0.3008 -0.6374 -0.1350
  820SOL    HW1 2459   1.964   0.463   0.082 -0.3754 -2.9609  0.6619
  820SOL    HW2 2460   1.894   0.609   0.056  1.2185 -0.9466  0.5085
  821SOL     OW 2461   2.538   0.132   0.485  0.1856 -0.2597 -0.4433
  821SOL    HW1 2462   2.459   0.096   0.429 -0.4204 -1.6652 -1.7898
  821SOL    HW2 2463   2.592   0.058   0.533  1.2012 -2.0287 -0.6066
  822SOL     OW 2464   0.944   2.474   1.979 -0.0755  0.2585 -0.0974
  822SOL    HW1 2465   0.879   2.528   1.917 -2.6684 -0.4063  1.0050
  822SOL    HW2 2466   0.886   2.404   2.024  2.5459 -1.5166 -2.6140
  823SOL     OW 2467   0.253   1.399   1.616  0.1650 -0.2516  0.0552
  823SOL    HW1 2468   0.251   1.478   1.683  1.6742 -1.8329  1.7594
  823SOL    HW2 2469   0.188   1.320   1.639 -0.7755  2.4143 -0.6557
  824SOL     OW 2470   1.327   2.866   2.606  0.0354  0.1581  0.3344
  824SOL    HW1 2471   1.367   2.805   2.679  1.7852 -1.0801 -0.3691
  824SOL    HW2 2472   1.242   2.909   2.649  1.5327  1.0774  0.4654
  825SOL     OW 2473   2.163   1.067   0.644 -0.1233 -0.7130 -0.2939
  825SOL    HW1 2474   2.073   1.022   0.646  3.4748 -1.6906 -0.4618
  825SOL    HW2 2475   2.204   1.061   0.551  0.0942  0.0762  1.0383
  826SOL     OW 2476   2.041   0.786   0.099 -0.4584  0.5196 -0.2271
  826SOL    HW1 2477   2.133   0.782   0.154  0.3239 -1.9361 -3.2309
  826SOL    HW2 2478   1.972   0.845   0.154 -1.7837  0.1294  1.6356
  827SOL     OW 2479   0.365   1.813   1.810  0.3795  0.7863  0.4127
  827SOL    HW1 2480   0.413   1.857   1.734  0.1160  0.7998 -0.0874
  827SOL    HW2 2481   0.405   1.842   1.898  1.3706 -2.6416 -3.8651
  828SOL     OW 2482   2.305   1.293   1.599 -0.1324  0.2619 -0.0102
  828SOL    HW1 2483   2.393   1.251   1.630  0.3386  0.5000  0.3971
  828SOL    HW2 2484   2.282   1.377   1.651  1.0090 -0.9454 -0.0152
  829SOL     OW 2485   0.162   1.674   0.192  0.2930  0.1986 -0.0743
  829SOL    HW1 2486   0.262   1.665   0.207  0.5667  0.3467 -0.1447
  829SOL    HW2 2487   0.133   1.661   0.097 -1.8496  1.1513 -1.5796
  830SOL     OW 2488   1.861   0.978   0.604  0.2405  0.5719 -0.1596
  830SOL    HW1 2489   1.781   0.948   0.654  0.3861  1.4778  2.4095
  830SOL    HW2 2490   1.912   0.894   0.578  3.2223  0.4431 -0.0932
  831SOL     OW 2491   3.048   1.829   2.970 -0.1300  0.0118 -0.6408
  831SOL    HW1 2492   0.023   1.896   2.932 -0.9584  0.0315 -0.4356
  831SOL    HW2 2493   0.001   1.741   2.986 -1.3174  2.6657 -2.7394
  832SOL     OW 2494   0.884   0.226   0.385 -0.2196  0.3246  0.0574
  832SOL    HW1 2495   0.954   0.224   0.460 -0.0738  2.4788  1.7087
  832SOL    HW2 2496   0.902   0.154   0.316 -0.7503  0.3739 -0.5558
  833SOL     OW 2497   0.647   0.567   1.663 -0.6286  0.2705 -0.3453
  833SOL    HW1 2498   0.710   0.646   1.665  1.7735  0.0718  2.0472
  833SOL    HW2 2499   0.660   0.505   1.742 -1.0267  0.2926  0.2886
  834SOL     OW 2500   0.248   0.448   0.834  0.3787  0.4842 -0.1500
  834SOL    HW1 2501   0.280   0.365   0.789  1.3948  1.9998  1.2961
  834SOL    HW2 2502   0.228   0.511   0.759  1.4058 -0.9488 -0.2000
  835SOL     OW 2503   2.251   2.694   1.166  1.2487 -0.0668 -0.6030
  835SOL    HW1 2504   2.288   2.614   1.205  0.3678  4.8796 -1.5408
  835SOL    HW2 2505   2.328   2.759   1.157  1.4548 -0.1497 -1.5004
  836SOL     OW 2506   0.400   1.930   0.039 -0.2212  0.2802 -0.5041
  836SOL    HW1 2507   0.344   2.011   0.064  1.0826  1.0360  1.2909
  836SOL    HW2 2508   0.399   1.859   0.108 -0.7150  0.8171  0.5587
  837SOL     OW 2509   1.896   1.398   2.565  0.1493  0.4167  0.6901
  837SOL    HW1 2510   1.830   1.438   2.626  0.1356 -0.1270 -1.4130
  837SOL    HW2 2511   1.888   1.445   2.474  0.2483  0.3567 -1.3229
  838SOL     OW 2512   0.377   1.196   2.024 -0.3314 -0.0644 -0.1884
  838SOL    HW1 2513   0.464   1.247   2.006  2.5551 -0.0220 -0.8722
  838SOL    HW2 2514   0.316   1.251   2.085  2.0008  0.9508  1.3912
  839SOL     OW 2515   0.405   1.331   0.896 -0.0209  0.2278 -0.4264
  839SOL    HW1 2516   0.484   1.356   0.958  1.9105  1.5055 -1.5818
  839SOL    HW2 2517   0.384   1.230   0.903  1.8507  0.0514  4.8722
  840SOL     OW 2518   2.286   0.091   2.470  0.6306 -0.3081  0.5918
  840SOL    HW1 2519   2.194   0.126   2.430  2.3720  0.0400  0.7846
  840SOL    HW2 2520   2.351   0.086   2.389 -0.3914  0.0894 -1.4610
  841SOL     OW 2521   0.949   2.378   0.179 -0.7146 -0.1235  0.5333
  841SOL    HW1 2522   0.925   2.308   0.252 -1.6734  0.4376  3.0236
  841SOL    HW2 2523   1.027   2.345   0.118  0.1652  0.7578 -1.6671
  842SOL     OW 2524   0.363   0.280   0.642 -0.3811  0.4447 -0.0636
  842SOL    HW1 2525   0.404   0.227   0.719 -1.1654  0.3620  0.2043
  842SOL    HW2 2526   0.421   0.275   0.557 -2.7208 -0.1270  0.6980
  843SOL     OW 2527   0.194   1.218   0.085 -0.2665  0.6191 -0.0907
  843SOL    HW1 2528   0.119   1.201   0.155 -2.5848  0.3085 -1.7064
  843SOL    HW2 2529   0.251   1.296   0.118  0.3457  0.9495 -0.3538
  844SOL     OW 2530   1.154   2.221   0.040 -0.1968  0.2574 -0.2273
  844SOL    HW1 2531   1.099   2.163   3.073 -1.1555  2.0762 -0.7644
  844SOL    HW2 2532   1.238   2.239   3.081 -2.7373 -0.1915  1.2245
  845SOL     OW 2533   2.217   2.902   2.416  0.1733  0.6140  0.0596
  845SOL    HW1 2534   2.224   2.968   2.496  2.4810 -1.4849  1.0458
  845SOL    HW2 2535   2.138   2.928   2.357  0.8562  1.6033 -0.6651
  846SOL     OW 2536   1.867   1.960   2.792  0.0097  0.2826 -0.7814
  846SOL    HW1 2537   1.828   2.016   2.872  2.7759  1.8146 -2.2858
  846SOL    HW2 2538   1.879   2.026   2.715  0.5622  1.8165  0.0295
  847SOL     OW 2539   2.683   0.320   0.186  0.0951 -0.2186  0.0060
  847SOL    HW1 2540   2.667   0.360   0.092  0.4428 -0.2578 -0.1464
  847SOL    HW2 2541   2.620   0.369   0.251  0.8545  0.6805 -0.7680
  848SOL     OW 2542   0.931   0.559   0.475  0.0618  0.0184 -0.0183
  848SOL    HW1 2543   0.872   0.537   0.552 -1.1759  1.1271  0.8590
  848SOL    HW2 2544   0.884   0.542   0.386 -0.8049 -1.4076  0.4823
  849SOL     OW 2545   1.505   2.722   1.904  0.7880  0.1210  0.3186
  849SOL    HW1 2546   1.586   2.743   1.963 -2.3486 -2.5250  1.6253
  849SOL    HW2 2547   1.487   2.621   1.894 -1.7536 -2.3627 -0.3536
  850SOL     OW 2548   0.919   1.501   0.563 -0.2156  0.4924  0.3167
  850SOL    HW1 2549   0.883   1.420   0.614  2.0058 -2.8759 -1.2204
  850SOL    HW2 2550   0.842   1.562   0.527 -1.8886 -0.9794 -2.4212
  851SOL     OW 2551   0.375   1.393   0.180  0.1532  0.4674  0.1310
  851SOL    HW1 2552   0.467   1.357   0.212  2.4696  1.3748  1.7336
  851SOL    HW2 2553   0.330   1.443   0.255 -1.8833  1.6420 -1.4369
  852SOL     OW 2554   1.390   2.949   1.832 -0.0914  0.1017 -0.0922
  852SOL    HW1 2555   1.287   2.938   1.825 -3.2591 -0.2696 -3.9262
  852SOL    HW2 2556   1.430   2.856   1.850 -1.1776 -2.2014  0.1448
  853SOL     OW 2557   2.723   1.584   3.029  0.1118 -0.4823  0.0759
  853SOL    HW1 2558   2.633   1.569   3.063  0.9382  0.7051 -3.1440
  853SOL    HW2 2559   2.789   1.543   3.090 -1.1164  0.4796  0.9333
  854SOL     OW 2560   1.282   1.005   1.887  0.1831  0.5366  0.0863
  854SOL    HW1 2561   1.266   1.079   1.955 -1.3860 -0.2148 -0.5790
  854SOL    HW2 2562   1.284   1.040   1.792  0.5350  0.2494 -1.6000
  855SOL     OW 2563   0.108   2.462   0.151  0.0342 -0.5723 -0.4659
  855SOL    HW1 2564   0.051   2.383   0.123 -2.5496 -0.9051 -0.2809
  855SOL    HW2 2565   0.144   2.509   0.071 -2.0822  0.1553  0.6856
  856SOL     OW 2566   0.391   0.773   1.844  0.0329  0.1356 -0.3233
  856SOL    HW1 2567   0.491   0.774   1.822  0.5228  1.0681 -1.7591
  856SOL    HW2 2568   0.362   0.856   1.890  0.3668 -1.2879  0.0650
  857SOL     OW 2569   1.207   1.116   2.305  0.0711  0.0370  0.2644
  857SOL    HW1 2570   1.130   1.054   2.313  2.1285  1.1986  0.6324
  857SOL    HW2 2571   1.238   1.144   2.393 -1.7586 -0.8423 -0.3832
  858SOL     OW 2572   0.448   1.276   2.401  0.0687  0.4396  0.0145
  858SOL    HW1 2573   0.383   1.349   2.380  0.5742 -0.7584 -0.3676
  858SOL    HW2 2574   0.403   1.191   2.381  0.5038 -0.2223  0.8758
  859SOL     OW 2575   2.396   0.217   1.110 -0.4746 -0.2277  0.2017
  859SOL    HW1 2576   2.399   0.122   1.071  0.9620  2.4096  0.6755
  859SOL    HW2 2577   2.482   0.243   1.150  0.4038  0.4347 -1.4991
  860SOL     OW 2578   2.017   0.077   0.143 -0.3293 -0.3299 -0.3739
  860SOL    HW1 2579   2.041   3.077   0.175  2.0245  4.2433  0.7666
  860SOL    HW2 2580   2.037   0.082   0.042 -0.8461 -0.9463 -0.8577
  861SOL     OW 2581   0.694   0.369   0.889 -0.4027 -0.0543  0.5463
  861SOL    HW1 2582   0.674   0.280   0.842 -0.1080  0.7814 -1.2681
  861SOL    HW2 2583   0.638   0.382   0.974 -0.3372 -1.6858  1.8816
  862SOL     OW 2584   1.224   0.261   2.618 -0.4381  0.1562 -0.0031
  862SOL    HW1 2585   1.170   0.187   2.571 -0.4243 -2.9304 -0.6033
  862SOL    HW2 2586   1.324   0.241   2.605  0.3048 -0.5262 -0.8889
  863SOL     OW 2587   2.239   2.296   0.719  0.4869  0.2094 -0.0366
  863SOL    HW1 2588   2.306   2.362   0.764  0.6202  2.1455  1.2064
  863SOL    HW2 2589   2.285   2.204   0.709 -0.5497 -2.0105  1.2833
  864SOL     OW 2590   2.715   3.032   1.864  0.0410  0.0749  0.5884
  864SOL    HW1 2591   2.733   2.985   1.776 -0.4868  0.8577 -0.8194
  864SOL    HW2 2592   2.676   2.969   1.933 -1.2784 -0.7865 -1.0879
  865SOL     OW 2593   1.087   0.603   1.791  0.2193 -0.1429  0.1984
  865SOL    HW1 2594   1.146   0.677   1.751  2.1670 -2.2850 -0.1420
  865SOL    HW2 2595   1.142   0.537   1.847  2.1303 -0.8039 -0.1469
  866SOL     OW 2596   1.766   2.778   1.370 -0.0255 -0.1999  0.4877
  866SOL    HW1 2597   1.827   2.855   1.345  1.5020  0.6853 -0.8896
  866SOL    HW2 2598   1.712   2.754   1.290 -0.9051 -1.2580  1.8675
  867SOL     OW 2599   2.771   2.395   0.446 -0.1045  0.2029 -0.3579
  867SOL    HW1 2600   2.721   2.477   0.417  1.7973  0.3224 -2.4181
  867SOL    HW2 2601   2.864   2.426   0.476 -2.2671 -2.5734  0.9038
  868SOL     OW 2602   0.539   2.203   1.656 -0.0971  0.1797 -0.0719
  868SOL    HW1 2603   0.466   2.273   1.648  1.1859 -1.4313 -2.1367
  868SOL    HW2 2604   0.619   2.226   1.599 -0.3691 -1.7761  0.2949
  869SOL     OW 2605   2.067   2.385   2.765  0.4027 -0.2202  0.1968
  869SOL    HW1 2606   2.059   2.360   2.666  0.3073 -1.3660 -2.2521
  869SOL    HW2 2607   2.146   2.445   2.779 -0.8871  3.5182  0.8772
  870SOL     OW 2608   1.637   1.609   0.968 -0.1594 -0.3742  0.0817
  870SOL    HW1 2609   1.723   1.647   0.935 -2.8223  0.7339  0.6855
  870SOL    HW2 2610   1.630   1.618   1.065 -0.2440 -2.1045  0.0929
  871SOL     OW 2611   0.235   1.794   1.511  0.4503  0.2161 -0.9067
  871SOL    HW1 2612   0.308   1.858   1.530 -0.5614 -3.4140 -0.7334
  871SOL    HW2 2613   0.177   1.775   1.591 -1.4830  0.4095 -0.5574
  872SOL     OW 2614   0.570   1.154   2.625 -0.4076  0.3698  0.1542
  872SOL    HW1 2615   0.526   1.182   2.539  0.6500  1.8697 -1.9242
  872SOL    HW2 2616   0.501   1.128   2.696 -1.8237  2.9301 -2.6501
  873SOL     OW 2617   0.864   2.055   1.880 -0.2910 -0.4760 -0.3958
  873SOL    HW1 2618   0.897   2.040   1.977  1.3519  0.7097  2.0554
  873SOL    HW2 2619   0.777   2.105   1.874  0.7075 -0.9777  1.2857
  874SOL     OW 2620   1.068   0.950   1.583 -0.0509  0.0580 -0.2762
  874SOL    HW1 2621   1.083   0.856   1.611 -1.4760  2.2921  0.2423
  874SOL    HW2 2622   0.973   0.983   1.594 -2.6571 -1.4680 -0.9931
  875SOL     OW 2623   2.724   2.656   0.860  0.3920 -0.1224  0.6454
  875SOL    HW1 2624   2.801   2.614   0.811 -0.1970 -1.0633  1.4902
  875SOL    HW2 2625   2.677   2.572   0.898  0.1997 -0.0311  0.8301
  876SOL     OW 2626   1.024   1.673   0.346 -0.2592  0.0909 -0.1469
  876SOL    HW1 2627   0.995   1.625   0.431 -0.4852 -0.5167 -0.9589
  876SOL    HW2 2628   1.008   1.772   0.348  0.2479 -0.9670  0.5148
  877SOL     OW 2629   2.778   2.828   1.062 -0.0320 -0.8386  0.4365
  877SOL    HW1 2630   2.754   2.774   0.978  1.4663 -1.8902 -0.0522
  877SOL    HW2 2631   2.779   2.773   1.152  0.9914 -1.0242  1.2260
  878SOL     OW 2632   2.091   1.539   0.473 -0.0897 -0.2260 -0.8026
  878SOL    HW1 2633   2.041   1.554   0.386 -0.2256 -0.0171  0.3156
  878SOL    HW2 2634   2.030   1.492   0.542 -0.0821 -0.0439  0.0103
  879SOL     OW 2635   2.300   1.812   1.028 -0.2120  0.0561  0.2963
  879SOL    HW1 2636   2.329   1.794   1.125  0.3631 -4.4729  2.2449
  879SOL    HW2 2637   2.296   1.727   0.972  1.3591 -0.4933 -1.1488
  880SOL     OW 2638   0.492   2.469   0.855 -0.1931  0.3830  0.0929
  880SOL    HW1 2639   0.406   2.424   0.823  4.0170  1.2900  1.8470
  880SOL    HW2 2640   0.474   2.556   0.901  1.6108 -0.9403 -0.1239
  881SOL     OW 2641   0.939   0.936   0.898  0.0430 -0.1182  0.6384
  881SOL    HW1 2642   0.902   0.982   0.816  1.0857  0.3296 -0.8619
  881SOL    HW2 2643   1.030   0.971   0.917 -1.0660 -1.1838  0.3906
  882SOL     OW 2644   2.291   1.133   0.367 -0.6926 -0.8920 -0.0651
  882SOL    HW1 2645   2.340   1.107   0.281 -1.7397 -0.6922  0.9313
  882SOL    HW2 2646   2.319   1.226   0.387 -1.2212 -3.4230  0.0758
  883SOL     OW 2647   1.373   0.096   1.664  0.0065 -0.3130  0.1171
  883SOL    HW1 2648   1.418   0.174   1.716  1.1271  3.2085  0.0643
  883SOL    HW2 2649   1.402   0.010   1.706 -2.2650 -1.7093  1.6866
  884SOL     OW 2650   2.835   3.086   1.436 -0.4860 -0.3199  0.4914
  884SOL    HW1 2651   2.920   0.053   1.456  0.7304 -0.7960 -0.3550
  884SOL    HW2 2652   2.820   3.081   1.335 -2.2519 -0.9203  0.6956
  885SOL     OW 2653   0.964   0.946   1.964  0.7492  0.6228  0.0007
  885SOL    HW1 2654   0.989   0.942   1.863  1.2798 -1.5238  0.8491
  885SOL    HW2 2655   0.970   0.852   2.005  1.1082  0.3936 -1.8895
  886SOL     OW 2656   1.391   0.807   2.433 -0.2246  0.3905  0.1107
  886SOL    HW1 2657   1.443   0.847   2.354  0.7036  1.3215 -2.7115
  886SOL    HW2 2658   1.401   0.705   2.435  2.9817 -1.1402  1.3737
  887SOL     OW 2659   1.545   0.551   1.157 -0.7544  0.3406 -0.2138
  887SOL    HW1 2660   1.474   0.560   1.084 -1.8840 -1.7460  2.4310
  887SOL    HW2 2661   1.634   0.584   1.121  0.7101  0.5614 -0.3006
  888SOL     OW 2662   2.383   1.730   1.839  0.1603 -0.3323 -0.1317
  888SOL    HW1 2663   2.467   1.677   1.869 -1.3893  1.8831 -0.5713
  888SOL    HW2 2664   2.353   1.784   1.922  0.7701 -2.8428  0.7633
  889SOL     OW 2665   1.630   2.071   0.727  0.0254  0.4563  0.1263
  889SOL    HW1 2666   1.661   2.148   0.667  0.5090  0.7142 -1.2721
  889SOL    HW2 2667   1.600   1.991   0.670 -1.6187 -0.3418  3.1539
  890SOL     OW 2668   0.721   2.086   0.604  0.5053  0.3027  0.4154
  890SOL    HW1 2669   0.744   2.033   0.693  0.8910 -2.8585  0.7164
  890SOL    HW2 2670   0.664   2.168   0.626 -3.1729 -1.1873  0.4210
  891SOL     OW 2671   2.631   0.787   2.689 -0.1685  0.3089  0.1385
  891SOL    HW1 2672   2.576   0.807   2.606  0.3511  1.2655 -1.3194
  891SOL    HW2 2673   2.572   0.772   2.769 -1.5145 -2.8288 -0.0146
  892SOL     OW 2674   0.967   0.576   2.350  0.2359  0.4576 -0.1300
  892SOL    HW1 2675   0.897   0.515   2.394 -1.4159 -0.9438  0.2008
  892SOL    HW2 2676   1.052   0.559   2.399 -1.4634  0.0837 -0.5884
  893SOL     OW 2677   1.555   0.263   1.017 -0.2470 -0.0994 -0.3067
  893SOL    HW1 2678   1.631   0.330   1.012  0.5668  3.8152 -0.3908
  893SOL    HW2 2679   1.582   0.191   1.080 -1.1067 -3.3181 -0.5728
  894SOL     OW 2680   2.874   2.663   1.275  0.6693 -0.0034  0.1510
  894SOL    HW1 2681   2.821   2.663   1.364  2.5229  1.8905  2.8269
  894SOL    HW2 2682   2.863   2.575   1.222 -0.8974 -3.0085  0.6122
  895SOL     OW 2683   1.910   2.768   2.901  0.0145  0.6763 -0.1025
  895SOL    HW1 2684   1.836   2.806   2.955 -0.8003 -1.4593 -2.0085
  895SOL    HW2 2685   1.919   2.665   2.919  0.5282 -2.7372  0.1406
  896SOL     OW 2686   2.134   2.996   1.918 -0.0633 -0.5808 -0.0319
  896SOL    HW1 2687   2.077   3.051   1.853 -1.1069 -0.3115  0.3242
  896SOL    HW2 2688   2.196   3.060   1.972 -0.7419  2.1381  1.3449
  897SOL     OW 2689   0.603   2.150   1.923 -0.5030 -0.1632  0.3003
  897SOL    HW1 2690   0.572   2.157   1.825 -0.0483 -1.7302 -2.1474
  897SOL    HW2 2691   0.548   2.079   1.970 -1.5411  0.9378  1.5065
  898SOL     OW 2692   2.632   1.629   1.945 -0.8821  0.1018 -0.7265
  898SOL    HW1 2693   2.654   1.537   1.982 -1.6189  1.4241  0.6360
  898SOL    HW2 2694   2.711   1.666   1.888 -0.9636 -1.3978  0.2316
  899SOL     OW 2695   1.378   2.160   0.814 -0.2456  0.3054 -0.0544
  899SOL    HW1 2696   1.285   2.130   0.780  0.7313  1.2725  0.3902
  899SOL    HW2 2697   1.443   2.099   0.774 -3.7980  0.7859 -1.4922
  900SOL     OW 2698   0.866   2.968   2.879 -0.5248 -0.0895  0.3284
  900SOL    HW1 2699   0.797   2.901   2.850  2.3242  0.9763  0.9367
  900SOL    HW2 2700   0.930   2.992   2.808 -3.5469  0.8957 -0.5546
  901SOL     OW 2701   1.337   1.716   2.532  0.1883 -0.2576  0.4307
  901SOL    HW1 2702   1.326   1.785   2.603 -0.2870  0.3547  0.8775
  901SOL    HW2 2703   1.409   1.726   2.465  1.7055 -1.8206 -0.1551
  902SOL     OW 2704   2.887   0.316   2.768  0.5570  0.5506 -0.2918
  902SOL    HW1 2705   2.786   0.319   2.789  0.2689  0.2026  1.9976
  902SOL    HW2 2706   2.925   0.240   2.824  0.3488 -0.4476  0.1618
  903SOL     OW 2707   2.015   0.631   2.065  0.9081  0.6994  0.1537
  903SOL    HW1 2708   1.954   0.637   2.145 -1.6678 -1.7302 -0.5734
  903SOL    HW2 2709   2.040   0.538   2.036 -0.1522 -1.9153 -2.2902
  904SOL     OW 2710   1.387   0.541   2.444 -0.5618 -0.4105 -0.2052
  904SOL    HW1 2711   1.455   0.471   2.478 -1.0409 -0.1561  1.8759
  904SOL    HW2 2712   1.296   0.530   2.493  0.2568  0.7937  1.0869
  905SOL     OW 2713   2.247   2.486   1.719 -0.4110  0.9954  0.2379
  905SOL    HW1 2714   2.324   2.557   1.723 -1.3488  0.2394 -0.1517
  905SOL    HW2 2715   2.287   2.392   1.700  0.3952 -0.3572 -0.8993
  906SOL     OW 2716   1.703   1.868   0.313  0.0411  0.0345 -0.3417
  906SOL    HW1 2717   1.786   1.902   0.366 -0.6616  0.2683  1.4109
  906SOL    HW2 2718   1.629   1.935   0.321 -0.2083 -1.5156  0.1705
  907SOL     OW 2719   1.174   2.996   1.000  0.2863 -0.6362 -0.2791
  907SOL    HW1 2720   1.195   3.042   0.912 -0.3374  2.5381  1.0738
  907SOL    HW2 2721   1.132   2.902   0.991 -1.0421 -0.7451 -0.0744
  908SOL     OW 2722   1.470   2.465   2.257 -0.1043 -0.3090 -0.5551
  908SOL    HW1 2723   1.510   2.538   2.318  0.2963 -0.8650  1.0170
  908SOL    HW2 2724   1.370   2.450   2.281  0.9203 -0.4501 -0.7978
  909SOL     OW 2725   2.079   0.353   2.006  0.6648  0.2275 -0.5383
  909SOL    HW1 2726   2.137   0.311   2.079 -1.0830 -1.5236  2.9277
  909SOL    HW2 2727   2.000   0.296   1.978 -1.6783  0.8658 -0.2304
  910SOL     OW 2728   1.057   1.008   3.023  0.2961 -0.0702 -0.1394
  910SOL    HW1 2729   1.067   0.934   3.090 -1.3669  1.4378  1.6247
  910SOL    HW2 2730   1.124   1.001   2.943  2.0023 -2.1884 -2.7296
  911SOL     OW 2731   3.081   1.196   0.253 -0.0733  0.1999  0.1996
  911SOL    HW1 2732   3.070   1.272   0.319  0.1429 -0.4165 -2.2712
  911SOL    HW2 2733   2.988   1.178   0.223  0.2258  0.2323  0.9458
  912SOL     OW 2734   0.285   2.259   0.493 -0.3183  0.4062 -0.0427
  912SOL    HW1 2735   0.236   2.171   0.526 -1.1407 -0.3687  1.2162
  912SOL    HW2 2736   0.341   2.238   0.410 -2.8392  0.4996  0.7156
  913SOL     OW 2737   2.714   2.288   2.426 -0.3230  0.7514 -0.1324
  913SOL    HW1 2738   2.730   2.191   2.399  0.6888  1.1526  0.0475
  913SOL    HW2 2739   2.639   2.289   2.495 -0.3802 -2.0727 -0.4394
  914SOL     OW 2740   1.495   1.887   1.652  0.0675  0.1194 -0.0342
  914SOL    HW1 2741   1.527   1.955   1.582 -0.5320 -2.0108 -1.5792
  914SOL    HW2 2742   1.559   1.811   1.677  1.9364 -2.6549  0.1292
  915SOL     OW 2743   0.722   2.915   2.190  0.3183  0.8703  0.9815
  915SOL    HW1 2744   0.730   2.989   2.119 -0.8257 -0.3282  1.0130
  915SOL    HW2 2745   0.635   2.921   2.242 -0.3651  1.1804  0.1444
  916SOL     OW 2746   0.773   0.906   1.374 -0.7855  0.2996  0.5005
  916SOL    HW1 2747   0.799   0.805   1.375  1.4929 -2.7120  1.7591
  916SOL    HW2 2748   0.793   0.951   1.462 -2.2728  0.7214  0.0166
  917SOL     OW 2749   2.712   0.456   0.647  0.2844  0.2875 -1.2052
  917SOL    HW1 2750   2.788   0.397   0.610  2.3713  0.3377  0.5712
  917SOL    HW2 2751   2.711   0.543   0.593  0.4736 -0.0098  0.1635
  918SOL     OW 2752   1.708   2.535   2.809  0.0724  0.2406  0.4437
  918SOL    HW1 2753   1.763   2.472   2.867 -1.1016  2.1127  0.6332
  918SOL    HW2 2754   1.631   2.570   2.862  0.8479  0.0626 -1.6204
  919SOL     OW 2755   1.577   2.531   1.537 -0.0488  0.3064 -0.0447
  919SOL    HW1 2756   1.592   2.509   1.435 -1.5187  1.4730  0.1085
  919SOL    HW2 2757   1.575   2.630   1.548  1.1639 -2.2042 -1.1196
  920SOL     OW 2758   0.863   0.616   2.724 -0.7141  0.2241 -0.0893
  920SOL    HW1 2759   0.906   0.572   2.805 -0.7380  2.5460 -2.9217
  920SOL    HW2 2760   0.773   0.654   2.747  2.0258  0.1016 -1.1134
  921SOL     OW 2761   2.801   0.736   3.016  0.5142  0.5900 -0.0290
  921SOL    HW1 2762   2.744   0.820   3.008 -2.3552  2.8267  1.3437
  921SOL    HW2 2763   2.897   0.761   2.998  0.2656  0.0219  1.9304
  922SOL     OW 2764   0.223   1.980   1.017  0.2964 -0.3136  0.1491
  922SOL    HW1 2765   0.269   1.964   1.106  2.7925 -0.5983 -0.2512
  922SOL    HW2 2766   0.275   2.046   0.958 -0.2457 -0.4206 -2.1396
  923SOL     OW 2767   0.626   1.300   1.947  0.7414  0.4656  0.0863
  923SOL    HW1 2768   0.720   1.288   1.980 -0.7375  1.6821  1.2403
  923SOL    HW2 2769   0.620   1.369   1.876 -0.0982 -0.3406  1.4908
  924SOL     OW 2770   1.741   2.940   3.035  0.5054  0.1844  0.2882
  924SOL    HW1 2771   1.721   2.895   0.031 -1.1424 -0.3109 -0.7141
  924SOL    HW2 2772   1.740   3.039   3.038  1.2989 -1.0596  0.8601
  925SOL     OW 2773   2.587   1.551   1.134 -0.1145  0.2038  0.3648
  925SOL    HW1 2774   2.565   1.525   1.034 -0.5312  0.3900  0.0313
  925SOL    HW2 2775   2.647   1.486   1.183 -3.9275  2.1403  1.2543
  926SOL     OW 2776   2.323   0.538   1.448  0.1500 -0.3995  0.2630
  926SOL    HW1 2777   2.423   0.534   1.470  0.6903  2.4530 -1.1217
  926SOL    HW2 2778   2.275   0.454   1.474 -1.5467  1.8109  0.0533
  927SOL     OW 2779   1.842   3.015   1.282 -0.3051  0.1060  0.0074
  927SOL    HW1 2780   1.927   2.965   1.255  0.7505 -0.8171  0.3175
  927SOL    HW2 2781   1.779   3.030   1.202 -1.2610  0.2299 -2.7676
  928SOL     OW 2782   0.128   1.238   2.436 -0.4352 -0.1908 -0.2933
  928SOL    HW1 2783   0.113   1.301   2.363  0.6075 -0.7797 -0.2227
  928SOL    HW2 2784   0.182   1.162   2.397  0.4977  3.8057  0.1161
  929SOL     OW 2785   2.534   0.812   1.224 -0.0306 -0.0970 -0.2541
  929SOL    HW1 2786   2.436   0.840   1.225 -0.7395 -1.3076 -1.1394
  929SOL    HW2 2787   2.604   0.884   1.214  1.7403 -1.3189 -0.2599
  930SOL     OW 2788   3.005   2.352   2.078 -0.1528  0.0987  0.3352
  930SOL    HW1 2789   3.070   2.427   2.091 -1.2738 -1.7486 -0.2023
  930SOL    HW2 2790   3.032   2.264   2.125  1.3255  2.9630  1.9766
  931SOL     OW 2791   1.889   0.685   1.074 -0.1698 -0.1418  0.0555
  931SOL    HW1 2792   1.880   0.609   1.141  2.1740  0.6709 -0.6774
  931SOL    HW2 2793   1.850   0.766   1.115 -0.7612 -0.5596 -3.2233
  932SOL     OW 2794   0.243   1.014   1.830  0.1996 -0.3283  0.9547
  932SOL    HW1 2795   0.281   1.070   1.905 -2.9607  2.2262 -1.6757
  932SOL    HW2 2796   0.193   1.068   1.755 -1.1353  1.1586 -1.4529
  933SOL     OW 2797   2.716   1.892   1.640  0.0261 -0.2330  0.0809
  933SOL    HW1 2798   2.712   1.913   1.540 -0.1496 -1.7275  1.9488
  933SOL    HW2 2799   2.622   1.859   1.668 -0.7088 -1.3042  0.9145
  934SOL     OW 2800   0.436   1.955   1.571  0.0979 -0.7668  0.2705
  934SOL    HW1 2801   0.522   1.906   1.546 -2.5018 -0.3301  1.1372
  934SOL    HW2 2802   0.461   2.053   1.592  0.8967  1.0670 -0.3930
  935SOL     OW 2803   2.761   1.418   1.279 -0.2694 -0.6430 -0.3404
  935SOL    HW1 2804   2.708   1.389   1.359 -0.6814 -0.2400 -0.9029
  935SOL    HW2 2805   2.860   1.428   1.305  1.0865 -1.2032  0.7140
  936SOL     OW 2806   2.691   1.373   1.571 -0.2579  0.1068  0.2360
  936SOL    HW1 2807   2.665   1.295   1.634 -1.9903 -0.6751  2.2435
  936SOL    HW2 2808   2.609   1.432   1.569  0.1654  1.9935 -0.2850
  937SOL     OW 2809   1.892   0.210   1.346 -0.4495  0.4415  0.3439
  937SOL    HW1 2810   1.908   0.138   1.278 -2.1308  0.6806 -1.2382
  937SOL    HW2 2811   1.948   0.195   1.428 -0.8331  1.1365  0.4276
  938SOL     OW 2812   0.342   2.825   0.136  0.0503 -0.1924  0.1271
  938SOL    HW1 2813   0.300   2.806   0.227  2.8159  0.2712  0.0782
  938SOL    HW2 2814   0.315   2.756   0.067 -0.7028 -2.8115  2.9519
  939SOL     OW 2815   2.844   2.028   2.654  0.2043 -0.0753  0.2212
  939SOL    HW1 2816   2.937   1.992   2.631  2.5841  3.2529 -1.7096
  939SOL    HW2 2817   2.771   2.013   2.583  1.0292 -1.7277  1.4708
  940SOL     OW 2818   1.448   1.915   0.566  0.0520 -0.3792 -0.0634
  940SOL    HW1 2819   1.389   1.963   0.500 -0.8581 -1.4464  0.5713
  940SOL    HW2 2820   1.392   1.864   0.637 -1.2605  0.5958  1.0516
  941SOL     OW 2821   1.859   2.583   0.012 -0.4658 -0.2432  0.1296
  941SOL    HW1 2822   1.951   2.611   0.032 -2.5868 -0.0157 -0.9913
  941SOL    HW2 2823   1.867   2.492   3.063  0.1201  0.2036  1.5815
  942SOL     OW 2824   1.761   2.296   1.251  0.6479  0.0494 -0.3241
  942SOL    HW1 2825   1.692   2.369   1.236 -0.3832 -0.1429 -0.3471
  942SOL    HW2 2826   1.841   2.318   1.194 -3.2093  1.1690  1.1424
  943SOL     OW 2827   2.362   0.951   1.682  0.0922 -0.0241  0.5177
  943SOL    HW1 2828   2.340   0.967   1.585  0.4023  0.4151 -0.1016
  943SOL    HW2 2829   2.361   0.851   1.714  0.9333 -1.0612 -0.4318
  944SOL     OW 2830   1.197   0.864   2.581 -0.6316 -0.3635  0.2587
  944SOL    HW1 2831   1.283   0.848   2.528 -0.6947  1.8454  0.9641
  944SOL    HW2 2832   1.190   0.796   2.653  1.0012 -0.1965  0.0341
  945SOL     OW 2833   2.709   2.177   1.421 -0.0483 -0.0754 -0.0595
  945SOL    HW1 2834   2.680   2.082   1.400  3.5398  1.0293  0.8111
  945SOL    HW2 2835   2.631   2.238   1.454  0.3113 -0.7998  0.9411
  946SOL     OW 2836   0.538   1.011   0.113  0.4513 -0.8920  0.0875
  946SOL    HW1 2837   0.478   0.993   0.194  0.1064 -0.2774  0.4288
  946SOL    HW2 2838   0.641   1.014   0.137  2.5658  1.9814  2.8836
  947SOL     OW 2839   2.072   2.790   1.551 -0.3001 -0.0732  0.1931
  947SOL    HW1 2840   1.977   2.785   1.594  0.1709  0.5618  1.9482
  947SOL    HW2 2841   2.145   2.802   1.624  1.0144 -1.1860  3.1925
  948SOL     OW 2842   0.086   1.745   0.927 -0.0655 -0.2469 -0.0714
  948SOL    HW1 2843   0.147   1.827   0.949 -1.1005  1.5962  1.3271
  948SOL    HW2 2844   0.139   1.658   0.924 -0.8868 -0.0420 -0.6164
  949SOL     OW 2845   1.300   1.079   1.636  0.1118 -0.3568 -0.4371
  949SOL    HW1 2846   1.371   1.020   1.593  1.1405  0.5813 -0.3655
  949SOL    HW2 2847   1.206   1.046   1.601 -2.0047 -0.6698  0.2501
  950SOL     OW 2848   0.402   1.032   1.057  0.2936 -0.6495 -0.0137
  950SOL    HW1 2849   0.326   1.021   0.987  2.2880  0.1012  0.1572
  950SOL    HW2 2850   0.417   0.943   1.104  1.5903 -0.3072  0.4655
  951SOL     OW 2851   0.486   2.128   2.350 -0.1639  0.3315  0.7283
  951SOL    HW1 2852   0.414   2.067   2.304  0.5434  2.3112 -1.0000
  951SOL    HW2 2853   0.582   2.109   2.314  0.4257  2.1670  0.7323
  952SOL     OW 2854   1.607   1.380   0.122  0.3849 -0.0796 -0.3869
  952SOL    HW1 2855   1.637   1.468   0.170  2.9633  0.7371  0.0276
  952SOL    HW2 2856   1.504   1.377   0.113 -4.0055  2.2590  0.6040
  953SOL     OW 2857   1.193   0.099   2.898  0.3724  0.2767  0.0792
  953SOL    HW1 2858   1.117   0.125   2.963 -0.6245 -0.3850  0.5596
  953SOL    HW2 2859   1.258   0.178   2.883  2.8127 -1.1788  0.5211
  954SOL     OW 2860   2.330   1.399   0.450 -0.7139  0.0732  0.1492
  954SOL    HW1 2861   2.234   1.427   0.455  2.8317  0.9991 -1.0505
  954SOL    HW2 2862   2.378   1.473   0.398 -1.0540  0.1257 -1.1683
  955SOL     OW 2863   2.864   3.012   0.081 -0.1225  0.1478  0.0274
  955SOL    HW1 2864   2.850   3.022   3.077 -1.4702  0.8925  3.6615
  955SOL    HW2 2865   2.892   2.914   0.094  0.6187 -0.3900 -0.7503
  956SOL     OW 2866   1.281   0.828   1.278 -0.4636  0.0545 -0.2960
  956SOL    HW1 2867   1.313   0.833   1.181 -0.1376  1.0512 -1.3394
  956SOL    HW2 2868   1.240   0.735   1.296 -2.2587 -0.8680  1.1246
  957SOL     OW 2869   1.239   1.235   1.165  0.2577  0.1467 -0.1691
  957SOL    HW1 2870   1.170   1.198   1.231  1.3768 -1.6360  1.4625
  957SOL    HW2 2871   1.217   1.200   1.074 -0.9648 -0.8471 -2.0143
  958SOL     OW 2872   0.460   1.641   0.501 -0.2030  0.1463  0.3568
  958SOL    HW1 2873   0.419   1.733   0.522  1.2154  2.6780  1.6812
  958SOL    HW2 2874   0.396   1.573   0.467  3.1312  0.9447  1.3763
  959SOL     OW 2875   1.673   1.261   0.975  0.0813  0.1307  0.1813
  959SOL    HW1 2876   1.755   1.318   0.968 -4.7967 -0.1749 -1.3298
  959SOL    HW2 2877   1.614   1.294   1.051 -1.1960 -0.1980 -1.0181
  960SOL     OW 2878   2.985   1.108   2.867  0.0048 -0.0979 -0.2489
  960SOL    HW1 2879   3.052   1.154   2.802 -1.8236 -0.1068 -2.0979
  960SOL    HW2 2880   2.912   1.068   2.810  2.0415  1.3027  1.8339
  961SOL     OW 2881   0.900   1.299   0.906  0.0650 -0.3430 -0.0155
  961SOL    HW1 2882   0.828   1.267   0.968 -0.9902  0.6468 -2.5961
  961SOL    HW2 2883   0.853   1.302   0.817  0.9753 -2.0036  0.1806
  962SOL     OW 2884   1.201   1.229   0.465  0.1956  0.1708  0.2671
  962SOL    HW1 2885   1.185   1.331   0.493  0.9280  1.5891  1.8231
  962SOL    HW2 2886   1.268   1.226   0.387 -0.6730  0.8240  0.0387
  963SOL     OW 2887   1.338   2.085   2.424 -0.5052  0.0271 -0.1148
  963SOL    HW1 2888   1.443   2.079   2.412  0.0640 -0.2589 -1.4968
  963SOL    HW2 2889   1.289   2.099   2.333  0.0207  0.7255 -0.2785
  964SOL     OW 2890   2.965   2.760   0.097 -0.0517  0.2491 -0.1977
  964SOL    HW1 2891   2.965   2.659   0.086  0.8793 -0.2332  1.1164
  964SOL    HW2 2892   3.036   2.800   0.038 -3.1596 -0.1140  0.3885
  965SOL     OW 2893   0.675   2.364   0.142  0.2566 -0.1531  0.3160
  965SOL    HW1 2894   0.778   2.376   0.160  4.2162  0.4021  1.2795
  965SOL    HW2 2895   0.660   2.266   0.110 -1.3543 -1.3352 -0.7684
  966SOL     OW 2896   3.060   1.549   2.789 -0.0307  0.5061 -0.0017
  966SOL    HW1 2897   0.058   1.497   2.784  0.4114 -0.0697  1.8280
  966SOL    HW2 2898   3.061   1.605   2.873  1.6747  0.2159  1.1871
  967SOL     OW 2899   2.078   2.986   2.826  0.0556 -0.4482 -0.0093
  967SOL    HW1 2900   1.995   2.936   2.858 -0.0569 -0.9350 -2.5050
  967SOL    HW2 2901   2.051   3.039   2.734 -1.7443 -1.1468 -0.3654
  968SOL     OW 2902   2.002   2.798   0.452  0.1245 -0.1657  0.3475
  968SOL    HW1 2903   1.974   2.702   0.458 -0.3943 -1.5523  0.3140
  968SOL    HW2 2904   2.002   2.855   0.537  0.5893  1.8687  0.8274
  969SOL     OW 2905   0.675   1.406   2.326 -0.1740 -0.2437 -0.3063
  969SOL    HW1 2906   0.762   1.346   2.318  2.0431 -1.5792  1.7172
  969SOL    HW2 2907   0.598   1.353   2.367  1.3841  0.3924 -1.4486
  970SOL     OW 2908   1.582   1.396   0.749 -0.3621 -0.9350  0.1993
  970SOL    HW1 2909   1.622   1.485   0.785 -1.4371  2.4207 -1.0834
  970SOL    HW2 2910   1.609   1.316   0.801 -0.3003  1.0167 -0.5991
  971SOL     OW 2911   2.128   3.089   1.506 -0.4674  0.0319 -0.3837
  971SOL    HW1 2912   2.182   3.006   1.531  0.7957  1.4169 -1.6866
  971SOL    HW2 2913   2.157   0.031   1.418  2.0707 -1.4526  0.6822
  972SOL     OW 2914   0.228   3.054   1.389 -0.4937 -0.6014  0.3352
  972SOL    HW1 2915   0.294   0.013   1.447  0.6010 -1.2104 -0.1165
  972SOL    HW2 2916   0.191   2.973   1.437  0.8897  0.8627 -0.2561
  973SOL     OW 2917   0.270   0.564   2.804  0.2541  0.2820 -0.2592
  973SOL    HW1 2918   0.171   0.562   2.784  3.4143  2.2491 -1.9395
  973SOL    HW2 2919   0.314   0.556   2.714 -0.3312  0.7651 -1.2083
  974SOL     OW 2920   2.166   1.528   2.104 -0.1395 -0.1186  0.3867
  974SOL    HW1 2921   2.153   1.538   2.205 -1.9714 -0.4809  1.0662
  974SOL    HW2 2922   2.191   1.430   2.076  0.8339  0.4441 -2.1652
  975SOL     OW 2923   0.518   0.066   1.269 -0.3091 -0.1108 -0.1968
  975SOL    HW1 2924   0.595   0.019   1.227 -2.4355 -0.4675  1.5889
  975SOL    HW2 2925   0.523   0.072   1.367  1.0473 -0.9778  0.6133
  976SOL     OW 2926   0.878   2.335   2.507 -0.0334 -0.3709 -0.5425
  976SOL    HW1 2927   0.969   2.380   2.493  2.3826  2.2182 -2.1876
  976SOL    HW2 2928   0.900   2.237   2.505 -0.9209 -0.0165 -2.7392
  977SOL     OW 2929   0.616   3.039   0.288  0.1192  0.1304 -0.3684
  977SOL    HW1 2930   0.571   0.032   0.254 -0.3322  2.2439  0.1585
  977SOL    HW2 2931   0.635   3.051   0.390 -2.0673 -1.6191  0.8713
  978SOL     OW 2932   0.011   1.217   2.121 -0.6471  0.3731 -0.1752
  978SOL    HW1 2933   3.080   1.117   2.110  1.8923 -0.4378 -0.2383
  978SOL    HW2 2934   3.033   1.255   2.179  3.5142  0.9431  0.6415
  979SOL     OW 2935   1.828   2.821   1.710 -0.3071  0.5002  0.3106
  979SOL    HW1 2936   1.730   2.839   1.683  0.9072 -1.0951 -0.8251
  979SOL    HW2 2937   1.831   2.729   1.752 -0.6544 -0.4452  0.1828
  980SOL     OW 2938   1.460   1.671   2.134  0.3834  0.0041  0.2408
  980SOL    HW1 2939   1.438   1.573   2.129  0.4657 -0.6717 -0.0462
  980SOL    HW2 2940   1.500   1.703   2.226  1.9296  1.6747  4.7515
  981SOL     OW 2941   2.645   0.725   1.456  0.2968  0.4138 -0.1141
  981SOL    HW1 2942   2.611   0.805   1.508  4.6364  1.4254 -0.5759
  981SOL    HW2 2943   2.625   0.738   1.357 -0.3646 -0.1423 -1.7167
  982SOL     OW 2944   0.114   0.209   2.720 -0.1098  0.8950 -0.0953
  982SOL    HW1 2945   0.067   0.139   2.778  0.8084  2.9559  0.9634
  982SOL    HW2 2946   0.099   0.302   2.757  0.5938 -0.8569 -1.3011
  983SOL     OW 2947   2.399   0.588   2.434  0.4084  0.5004 -0.1356
  983SOL    HW1 2948   2.448   0.677   2.429 -1.0854  0.0641  0.2567
  983SOL    HW2 2949   2.358   0.568   2.342 -0.6931 -2.6986  0.2523
  984SOL     OW 2950   1.049   0.340   2.039  0.1810  1.0004  0.2396
  984SOL    HW1 2951   1.131   0.401   2.030  0.6612  0.0306 -0.2161
  984SOL    HW2 2952   1.070   0.248   2.087 -0.6335 -3.5762 -1.4484
  985SOL     OW 2953   1.894   1.551   1.979  0.3130  0.0720  0.9241
  985SOL    HW1 2954   1.842   1.639   1.978  1.5102  1.3974  0.8933
  985SOL    HW2 2955   1.981   1.559   2.018 -1.9580 -3.5139 -4.5706
  986SOL     OW 2956   2.603   0.311   1.246 -0.0675  0.1674 -0.0906
  986SOL    HW1 2957   2.668   0.253   1.186  0.1907  1.1019 -1.4300
  986SOL    HW2 2958   2.606   0.406   1.216  0.9773 -0.3149  0.7168
  987SOL     OW 2959   2.754   0.995   1.264 -0.0241 -0.6381  0.0790
  987SOL    HW1 2960   2.731   1.088   1.237  1.0590  0.2811  1.5665
  987SOL    HW2 2961   2.850   0.973   1.247  0.8221 -1.9334  0.3477
  988SOL     OW 2962   3.002   0.965   2.133  0.6076  0.2987  0.3108
  988SOL    HW1 2963   2.907   0.987   2.101 -0.2900  1.4314 -0.7961
  988SOL    HW2 2964   2.999   0.888   2.196 -0.6934  0.6184 -2.1975
  989SOL     OW 2965   1.812   1.631   0.011 -0.2154 -0.2879 -0.5452
  989SOL    HW1 2966   1.860   1.634   3.015  1.2593  0.3552 -1.6639
  989SOL    HW2 2967   1.735   1.697   0.005 -1.0599  0.5106  0.3880
  990SOL     OW 2968   1.004   0.691   2.089 -0.4255  0.1116  0.8445
  990SOL    HW1 2969   1.076   0.645   2.031  1.5696  0.4194  0.0031
  990SOL    HW2 2970   1.022   0.674   2.187  0.2139 -0.5282  1.0205
  991SOL     OW 2971   1.274   1.006   0.588 -0.4337 -0.1688  0.0916
  991SOL    HW1 2972   1.253   1.099   0.550  0.8572  2.6650  2.0950
  991SOL    HW2 2973   1.350   0.961   0.533  0.5038 -1.2744 -2.2228
  992SOL     OW 2974   2.285   1.566   0.895  0.5130  0.3240 -0.5434
  992SOL    HW1 2975   2.340   1.519   0.968 -1.3692  1.0594 -2.3461
  992SOL    HW2 2976   2.288   1.512   0.808  1.7651  2.5313 -1.0099
  993SOL     OW 2977   0.002   0.660   0.859 -0.1895  0.6173 -0.2117
  993SOL    HW1 2978   0.024   0.692   0.957  3.0254  1.1810  3.1172
  993SOL    HW2 2979   0.086   0.627   0.810  1.2154 -1.6184 -1.2563
  994SOL     OW 2980   0.477   2.275   2.578  0.6478 -0.0912 -0.5034
  994SOL    HW1 2981   0.485   2.234   2.488 -1.4816  1.5378  3.5491
  994SOL    HW2 2982   0.376   2.293   2.595 -1.0257 -1.2572 -0.2650
  995SOL     OW 2983   2.077   1.215   2.575 -0.5923  0.2190  0.1978
  995SOL    HW1 2984   2.047   1.157   2.496 -3.0465 -2.0534  2.0629
  995SOL    HW2 2985   2.003   1.282   2.587  0.2467  0.3498 -1.1231
  996SOL     OW 2986   2.932   1.117   0.715 -0.5533 -0.3680  0.2379
  996SOL    HW1 2987   2.830   1.118   0.707 -1.3543 -0.1012 -0.0788
  996SOL    HW2 2988   2.970   1.026   0.707  0.7113  0.7566  0.6091
  997SOL     OW 2989   1.803   0.939   1.800  0.1828 -0.4894  0.0199
  997SOL    HW1 2990   1.708   0.955   1.825  3.8211  0.6434  0.7780
  997SOL    HW2 2991   1.827   1.002   1.727  1.6128 -1.0736  2.9894
  998SOL     OW 2992   2.688   1.797   0.199  0.0357 -0.1473  0.1804
  998SOL    HW1 2993   2.775   1.747   0.214  4.1782 -0.2562 -2.6510
  998SOL    HW2 2994   2.684   1.842   0.108  2.3900  0.4524  1.3545
  999SOL     OW 2995   3.086   2.135   0.198  0.0457 -0.7137 -0.0939
  999SOL    HW1 2996   3.014   2.095   0.137  1.2015 -0.3161 -0.6353
  999SOL    HW2 2997   3.046   2.154   0.288  2.7112  1.2015 -2.2268
 1000SOL     OW 2998   0.964   1.009   2.236 -0.0067  0.3877  0.4527
 1000SOL    HW1 2999   0.898   0.939   2.276 -1.1444 -2.8025  1.6088
 1000SOL    HW2 3000   0.956   1.013   2.134  0.3521  3.3261 -0.1339
   3.09273   3.09273   3.09273
