1000 SPC/Fw water molecules t= 312.00000 step= 312000
 3000
    1SOL     OW    1   2.835   3.103   0.838 -0.5187  0.0906  0.1861
    1SOL    HW1    2   2.761   3.031   0.822 -2.4955 -0.5463 -1.3141
    1SOL    HW2    3   2.861   3.105   0.936 -1.0626 -1.5469  1.6095
    2SOL     OW    4   2.945   2.238   0.854  0.6952 -0.2954  0.1045
    2SOL    HW1    5   2.850   2.196   0.862 -1.9347 -0.0980  0.8108
    2SOL    HW2    6   3.007   2.207   0.777  0.2747  0.2139 -1.6666
    3SOL     OW    7   0.762   2.985   2.946  0.1015 -0.2799 -0.0411
    3SOL    HW1    8   0.757   2.884   2.939 -1.8262  0.9090  0.4450
    3SOL    HW2    9   0.689   3.029   2.888 -2.4844  0.1825 -1.2738
    4SOL     OW   10   2.074   2.415   1.939 -0.9044  0.2628 -0.7606
    4SOL    HW1   11   1.990   2.380   1.984  0.2950 -1.9893  1.4550
    4SOL    HW2   12   2.150   2.350   1.959  0.0953 -0.6049 -0.3191
    5SOL     OW   13   1.506   0.821   1.367  0.1884 -0.1848  0.1659
    5SOL    HW1   14   1.497   0.887   1.292 -1.4394 -1.1965 -1.5559
    5SOL    HW2   15   1.409   0.790   1.394 -2.2107  1.1611  0.7873
    6SOL     OW   16   1.971   2.748   0.134  0.8346  0.5499 -0.1734
    6SOL    HW1   17   1.874   2.784   0.129  0.6692  0.8892 -0.8184
    6SOL    HW2   18   1.979   2.670   0.199  2.3192  0.9617  1.9331
    7SOL     OW   19   2.736   1.440   1.052  0.1146 -0.2736 -0.0144
    7SOL    HW1   20   2.783   1.523   1.073 -0.5481 -1.5112 -3.3076
    7SOL    HW2   21   2.702   1.398   1.136 -1.0809 -1.7093  0.9325
    8SOL     OW   22   1.439   2.304   1.267  0.4461 -0.2330 -0.4587
    8SOL    HW1   23   1.346   2.266   1.258 -0.9021 -0.6713 -2.5497
    8SOL    HW2   24   1.443   2.406   1.267  0.5620 -0.2227 -2.2903
    9SOL     OW   25   1.537   2.841   2.308  0.2493 -0.0079  0.7079
    9SOL    HW1   26   1.443   2.807   2.336 -0.0481  0.5498  0.6160
    9SOL    HW2   27   1.525   2.882   2.214  0.0333  0.6321 -0.0619
   10SOL     OW   28   0.682   1.942   1.226  0.0744  0.1607 -0.3835
   10SOL    HW1   29   0.765   1.983   1.181 -0.2650 -1.1586 -1.8703
   10SOL    HW2   30   0.623   2.015   1.266 -1.8597 -0.3905 -1.2070
   11SOL     OW   31   1.882   1.773   1.245 -0.1677 -0.3581  0.0739
   11SOL    HW1   32   1.982   1.750   1.225  1.0214 -0.5729 -1.5159
   11SOL    HW2   33   1.859   1.850   1.186  0.0877  1.3447 -1.9757
   12SOL     OW   34   2.455   2.488   1.859  0.0122  0.2549  0.1018
   12SOL    HW1   35   2.534   2.425   1.848  2.3571 -1.3166  0.3428
   12SOL    HW2   36   2.465   2.537   1.945 -0.4984 -0.8804 -0.9310
   13SOL     OW   37   2.323   3.081   0.438  0.6363 -0.2750  0.2352
   13SOL    HW1   38   2.289   2.992   0.480 -1.9024  0.0032  4.9341
   13SOL    HW2   39   2.402   3.077   0.374  0.1443 -0.2635 -0.2815
   14SOL     OW   40   1.742   2.250   0.287  0.1946 -0.8077  0.1234
   14SOL    HW1   41   1.664   2.206   0.235 -1.6530 -0.4913 -0.6021
   14SOL    HW2   42   1.815   2.181   0.305 -0.7203  2.2809 -1.0109
   15SOL     OW   43   2.849   2.181   1.934  0.0024 -0.1104  0.1370
   15SOL    HW1   44   2.843   2.097   1.988 -2.2445  1.2908 -0.0111
   15SOL    HW2   45   2.938   2.226   1.932 -1.3669 -1.8216  0.3329
   16SOL     OW   46   2.051   2.710   0.596  0.8236 -0.3923  0.8404
   16SOL    HW1   47   1.982   2.759   0.536 -2.6019  2.1319  0.9030
   16SOL    HW2   48   2.046   2.743   0.688 -0.0542 -0.5666 -2.8075
   17SOL     OW   49   0.578   0.328   1.154  0.1156 -0.5371  0.1383
   17SOL    HW1   50   0.643   0.361   1.224  0.7428  1.6538  0.1057
   17SOL    HW2   51   0.590   0.385   1.071 -1.2849  0.8582 -4.4113
   18SOL     OW   52   1.991   0.979   0.166  0.3973 -0.1889  0.1862
   18SOL    HW1   53   1.961   0.896   0.119  0.1425  1.9442  0.2094
   18SOL    HW2   54   2.087   0.972   0.193 -0.0813  2.4024  1.0594
   19SOL     OW   55   1.761   1.890   0.525 -0.0721 -0.2840 -0.1591
   19SOL    HW1   56   1.835   1.866   0.592  1.0550 -0.8096  0.3196
   19SOL    HW2   57   1.800   1.937   0.441 -0.4079 -0.4784 -2.0434
   20SOL     OW   58   2.272   1.965   2.160 -0.2639 -0.5229  0.4643
   20SOL    HW1   59   2.220   1.973   2.245  0.3085  0.8322 -1.7563
   20SOL    HW2   60   2.230   2.028   2.087 -2.8762 -0.0216 -3.6694
   21SOL     OW   61   1.892   0.506   0.835  0.0462 -0.0233  0.0519
   21SOL    HW1   62   1.848   0.479   0.750 -1.3531  1.3941  0.3673
   21SOL    HW2   63   1.993   0.488   0.834  0.0919 -1.0373 -2.0122
   22SOL     OW   64   2.430   0.144   1.553 -0.2339  0.0302 -0.1664
   22SOL    HW1   65   2.375   0.176   1.473  1.5789  0.4441 -2.6412
   22SOL    HW2   66   2.391   0.197   1.635 -0.7623  2.0573  1.2018
   23SOL     OW   67   0.105   0.526   1.942 -0.0275  0.3496  0.1125
   23SOL    HW1   68   0.013   0.483   1.939  2.4037 -0.3194 -2.9293
   23SOL    HW2   69   0.120   0.594   1.865  0.2626  1.6832 -3.5126
   24SOL     OW   70   2.500   2.717   0.410 -0.3106 -0.4544  0.4420
   24SOL    HW1   71   2.416   2.752   0.458 -0.3453 -0.3662 -1.4068
   24SOL    HW2   72   2.581   2.756   0.458  0.7112  1.0380  1.1168
   25SOL     OW   73   1.664   0.062   2.253  0.3594 -0.4135  0.2314
   25SOL    HW1   74   1.701   3.086   2.300 -1.9211  1.7075  1.0027
   25SOL    HW2   75   1.577   0.095   2.292 -1.0171 -1.1002 -3.7142
   26SOL     OW   76   1.268   2.298   0.346 -0.0965  0.0173 -0.2707
   26SOL    HW1   77   1.315   2.278   0.435 -0.9563 -1.9235  0.6441
   26SOL    HW2   78   1.287   2.394   0.316 -2.8683  0.2188 -0.9330
   27SOL     OW   79   2.478   1.513   2.788  0.2538  0.5466  0.1180
   27SOL    HW1   80   2.386   1.517   2.743  2.3326 -0.9240  1.7642
   27SOL    HW2   81   2.530   1.429   2.773 -0.2576 -3.2294 -0.2761
   28SOL     OW   82   0.864   1.577   1.561 -0.2646  0.0841 -0.0036
   28SOL    HW1   83   0.893   1.485   1.525 -0.7215 -3.9564 -1.3959
   28SOL    HW2   84   0.810   1.635   1.504  0.2270  3.3624  2.6696
   29SOL     OW   85   2.780   2.443   1.552  0.3516 -0.3068 -0.4046
   29SOL    HW1   86   2.810   2.530   1.515  1.1857 -3.3394  1.3436
   29SOL    HW2   87   2.710   2.397   1.494 -0.0418  1.9141  2.9023
   30SOL     OW   88   1.256   0.584   1.199  0.2172  0.1804 -0.0910
   30SOL    HW1   89   1.158   0.596   1.182 -0.1666  1.3309  3.3535
   30SOL    HW2   90   1.289   0.488   1.203  1.3816 -0.1350 -3.1071
   31SOL     OW   91   2.247   2.851   1.942 -0.0608  0.3243  0.1872
   31SOL    HW1   92   2.208   2.766   1.984  0.2823 -0.5134  0.9156
   31SOL    HW2   93   2.229   2.860   1.839 -0.3485  1.6164 -2.2778
   32SOL     OW   94   1.130   1.692   0.638 -0.0383  0.1159  0.0011
   32SOL    HW1   95   1.051   1.661   0.699 -3.3908 -0.1843  1.9280
   32SOL    HW2   96   1.117   1.647   0.549 -3.3754  0.4867 -0.3534
   33SOL     OW   97   0.299   0.472   2.565 -0.0785  0.5543  0.0705
   33SOL    HW1   98   0.350   0.545   2.614  0.7036 -2.9940  1.4971
   33SOL    HW2   99   0.325   0.450   2.468 -1.4150 -0.4462  2.4335
   34SOL     OW  100   1.852   2.840   0.451  0.1161 -0.2905  0.2474
   34SOL    HW1  101   1.816   2.826   0.546  0.6275  1.7401 -0.1457
   34SOL    HW2  102   1.836   2.937   0.418 -0.3784 -0.8257 -1.4160
   35SOL     OW  103   2.184   2.710   1.371  0.6419  0.3840 -0.3235
   35SOL    HW1  104   2.192   2.807   1.407  0.8054 -0.5737  2.5621
   35SOL    HW2  105   2.087   2.686   1.344  0.5956 -0.3085 -1.9024
   36SOL     OW  106   1.850   2.268   2.759 -0.5192  0.1978 -0.4666
   36SOL    HW1  107   1.785   2.211   2.816 -1.3085  1.3676  0.2598
   36SOL    HW2  108   1.824   2.248   2.663 -0.2208  2.8072 -0.5530
   37SOL     OW  109   1.466   0.160   2.408 -0.4386  0.2980  0.8791
   37SOL    HW1  110   1.453   0.259   2.410 -0.4161 -3.7677 -2.8455
   37SOL    HW2  111   1.418   0.118   2.487 -0.9160  2.1083 -2.4131
   38SOL     OW  112   0.301   0.266   2.776  0.1724 -0.2819  0.3505
   38SOL    HW1  113   0.288   0.323   2.690  2.2966  3.3647 -1.0748
   38SOL    HW2  114   0.387   0.209   2.770  0.9370  0.3182  0.8969
   39SOL     OW  115   2.578   1.338   1.539  0.2877 -0.3049 -0.0053
   39SOL    HW1  116   2.487   1.349   1.582  2.2999  0.5139  0.1529
   39SOL    HW2  117   2.650   1.320   1.613  0.7103  2.4027  2.0007
   40SOL     OW  118   1.181   2.989   0.343 -0.2626  0.2254  0.1385
   40SOL    HW1  119   1.160   3.088   0.340 -0.3639 -0.5115 -1.8020
   40SOL    HW2  120   1.134   2.942   0.262 -1.6554 -1.1449 -1.1316
   41SOL     OW  121   2.428   1.543   1.052  0.3677  0.0406  0.1787
   41SOL    HW1  122   2.422   1.507   1.145 -2.2943  1.4782 -0.0358
   41SOL    HW2  123   2.509   1.509   1.001  2.2582 -3.1125  1.9080
   42SOL     OW  124   1.018   0.375   1.304 -0.1468 -0.4080 -0.1162
   42SOL    HW1  125   0.916   0.391   1.329  1.6149 -1.7209  0.9966
   42SOL    HW2  126   1.075   0.400   1.387  2.6561  0.0991  2.5788
   43SOL     OW  127   3.031   1.696   2.391  0.5716  0.6265 -0.2562
   43SOL    HW1  128   3.047   1.671   2.485 -1.5553 -1.5841 -0.1178
   43SOL    HW2  129   2.975   1.780   2.383  0.1715 -0.5938 -1.0848
   44SOL     OW  130   2.404   0.344   1.833  0.1839  0.0579 -0.1388
   44SOL    HW1  131   2.401   0.358   1.935 -0.2652 -1.3333 -1.2508
   44SOL    HW2  132   2.483   0.398   1.795  0.0151 -0.2952 -0.7973
   45SOL     OW  133   1.079   0.096   2.021  0.3372  0.9068 -0.3908
   45SOL    HW1  134   1.087   0.197   2.033 -0.4138  0.5588 -3.0653
   45SOL    HW2  135   1.158   0.052   2.068 -1.4323  0.3988 -0.1046
   46SOL     OW  136   1.222   2.904   2.582 -0.3331 -0.9866  0.6190
   46SOL    HW1  137   1.133   2.899   2.629  2.5145  1.0781  0.5238
   46SOL    HW2  138   1.296   2.930   2.647 -0.5211 -0.6142 -0.2567
   47SOL     OW  139   1.979   1.792   0.687  0.8403 -0.0601 -0.8320
   47SOL    HW1  140   1.966   1.801   0.788 -1.1231 -0.4845  0.7501
   47SOL    HW2  141   1.997   1.696   0.668  2.1824  1.4793  1.3648
   48SOL     OW  142   1.098   2.179   0.644  0.2820 -0.0015  0.3580
   48SOL    HW1  143   1.070   2.164   0.547  0.8891 -0.1351 -1.3634
   48SOL    HW2  144   1.111   2.092   0.700  1.7326 -1.1894  0.7591
   49SOL     OW  145   2.283   2.639   2.339  0.0059  0.4282  0.5058
   49SOL    HW1  146   2.249   2.740   2.340  3.1819  0.5903  2.0119
   49SOL    HW2  147   2.386   2.630   2.328 -2.5766 -1.3665 -0.8483
   50SOL     OW  148   1.507   2.964   0.105 -0.0025 -0.0041 -0.2476
   50SOL    HW1  149   1.607   2.970   0.100  0.0584 -1.5063  0.2006
   50SOL    HW2  150   1.459   3.050   0.088 -2.0141 -1.7161  0.6594
   51SOL     OW  151   2.016   0.769   0.920 -0.2544 -0.6856  0.0869
   51SOL    HW1  152   1.958   0.687   0.903  1.9132 -1.2229 -2.3957
   51SOL    HW2  153   2.062   0.758   1.013 -1.6742 -2.1775 -0.2864
   52SOL     OW  154   1.260   1.634   1.099  0.1339  0.4113  0.1881
   52SOL    HW1  155   1.350   1.589   1.099 -1.5798  1.6718 -0.0697
   52SOL    HW2  156   1.220   1.630   1.194 -0.2859 -2.5156 -1.3655
   53SOL     OW  157   0.556   1.865   2.582  0.5402  0.3151  0.3043
   53SOL    HW1  158   0.464   1.853   2.626  0.0632  0.9742  0.9789
   53SOL    HW2  159   0.620   1.801   2.626 -1.0311  1.4566 -1.3651
   54SOL     OW  160   2.583   0.832   1.547 -0.0801 -0.6700  0.2076
   54SOL    HW1  161   2.680   0.857   1.531  1.5277 -0.9639 -3.3722
   54SOL    HW2  162   2.576   0.778   1.634 -1.0222 -0.2287 -1.7204
   55SOL     OW  163   2.655   1.944   0.416 -0.1072 -0.1093 -0.5981
   55SOL    HW1  164   2.565   1.929   0.459 -2.4061 -0.2879 -0.7372
   55SOL    HW2  165   2.718   1.993   0.480  2.3257  2.9337 -0.8889
   56SOL     OW  166   1.432   0.117   1.718 -0.0561  0.6768 -0.3011
   56SOL    HW1  167   1.506   0.054   1.679  1.7371 -1.8190 -1.1971
   56SOL    HW2  168   1.462   0.159   1.804  2.1503 -1.1102 -1.9043
   57SOL     OW  169   1.319   1.329   2.810 -0.6111  0.4511  0.4595
   57SOL    HW1  170   1.331   1.413   2.755  0.0164  0.6302  0.2777
   57SOL    HW2  171   1.376   1.335   2.888 -0.1167  2.8098 -2.8094
   58SOL     OW  172   3.025   0.789   1.765 -0.1218  0.1148  0.1737
   58SOL    HW1  173   0.014   0.752   1.750 -1.2744  0.9193  1.5697
   58SOL    HW2  174   3.007   0.880   1.724 -3.3289  1.5072 -0.8835
   59SOL     OW  175   1.517   2.691   0.234 -0.5014  0.1288 -0.1019
   59SOL    HW1  176   1.543   2.663   0.139  1.9572 -0.6998  0.8723
   59SOL    HW2  177   1.519   2.793   0.238 -1.4831  1.8581  0.1199
   60SOL     OW  178   2.924   1.802   0.071  0.4702  0.1788  0.1846
   60SOL    HW1  179   2.936   1.867   0.146  0.0965 -1.6820  0.5952
   60SOL    HW2  180   2.900   1.852   3.090 -0.4212  0.9248  1.1338
   61SOL     OW  181   0.786   2.811   0.927  0.1887  0.2855 -0.5056
   61SOL    HW1  182   0.821   2.900   0.898 -0.2393 -2.6303 -1.4222
   61SOL    HW2  183   0.760   2.760   0.840 -2.0881 -0.7325 -0.4859
   62SOL     OW  184   1.814   1.975   2.612 -0.1911  0.9762  0.1316
   62SOL    HW1  185   1.838   1.884   2.568 -1.5201 -3.5006 -3.0995
   62SOL    HW2  186   1.737   2.016   2.560 -1.1454 -1.7844  0.2389
   63SOL     OW  187   2.191   2.488   0.579 -0.0499  0.0788 -0.0207
   63SOL    HW1  188   2.134   2.570   0.580 -0.9933  0.0277 -2.1740
   63SOL    HW2  189   2.284   2.502   0.541 -1.6505  1.1504 -0.5533
   64SOL     OW  190   1.490   0.766   2.472  0.4577 -0.7198 -0.1976
   64SOL    HW1  191   1.384   0.761   2.477 -1.3253 -2.2888 -2.5273
   64SOL    HW2  192   1.529   0.681   2.524 -2.8669 -2.0704 -0.8361
   65SOL     OW  193   1.867   1.715   2.538  0.0554  0.2756 -0.1723
   65SOL    HW1  194   1.836   1.619   2.529 -2.1990  2.5608 -0.4087
   65SOL    HW2  195   1.860   1.750   2.442 -1.9382 -0.6198  0.8006
   66SOL     OW  196   0.223   0.979   1.794 -0.0567  0.2237  0.2224
   66SOL    HW1  197   0.144   1.041   1.796  0.8464 -1.7549 -0.3085
   66SOL    HW2  198   0.268   0.993   1.701  1.3163  0.3247 -6.2060
   67SOL     OW  199   2.325   2.788   2.660 -0.4028  0.2372  0.2269
   67SOL    HW1  200   2.359   2.811   2.757 -0.6286  0.0092  0.8699
   67SOL    HW2  201   2.378   2.832   2.591 -1.4961 -0.6427  3.1775
   68SOL     OW  202   1.138   2.574   1.166  0.1466 -0.0891 -0.5985
   68SOL    HW1  203   1.094   2.509   1.227  0.4252 -1.4018 -4.1237
   68SOL    HW2  204   1.072   2.582   1.092  1.1999  0.1897  1.1985
   69SOL     OW  205   0.557   2.348   3.075 -0.4035 -0.1206  0.2865
   69SOL    HW1  206   0.650   2.388   3.061 -0.9169 -1.5365  2.9566
   69SOL    HW2  207   0.548   2.260   3.023  0.1920 -2.2936 -1.1609
   70SOL     OW  208   2.987   0.252   2.300 -0.4458  0.1060 -0.2904
   70SOL    HW1  209   2.997   0.243   2.400 -0.0572 -1.3257 -1.3321
   70SOL    HW2  210   3.029   0.337   2.274  0.0528  0.9323  0.7564
   71SOL     OW  211   0.358   1.260   2.621  0.4192  0.0337  0.3465
   71SOL    HW1  212   0.286   1.276   2.548 -0.0797  1.0167  1.1991
   71SOL    HW2  213   0.310   1.261   2.711  1.8866  0.3909  0.2096
   72SOL     OW  214   2.945   2.021   2.958 -0.2894 -0.2157 -0.4170
   72SOL    HW1  215   2.862   2.074   2.929  0.5536 -1.1867  0.7123
   72SOL    HW2  216   2.974   1.961   2.881 -0.6015 -0.7877 -1.4579
   73SOL     OW  217   1.321   1.086   0.433 -0.2467  0.7385 -0.3263
   73SOL    HW1  218   1.388   1.163   0.418 -1.9098  0.5101  1.4860
   73SOL    HW2  219   1.233   1.097   0.383 -0.7140  1.0225 -0.1784
   74SOL     OW  220   2.366   2.864   2.915 -0.2027  0.0628 -0.4951
   74SOL    HW1  221   2.349   2.959   2.879  2.5923 -0.0283 -1.6644
   74SOL    HW2  222   2.306   2.841   2.993 -2.1349  1.3240 -4.7834
   75SOL     OW  223   2.250   2.063   0.946 -0.6887 -0.8315 -0.7219
   75SOL    HW1  224   2.151   2.069   0.930  0.2854 -1.1955  0.4583
   75SOL    HW2  225   2.276   1.970   0.958  0.5801  2.2025  2.9938
   76SOL     OW  226   2.224   2.542   1.727  0.1365 -0.3948  0.3246
   76SOL    HW1  227   2.317   2.505   1.742 -0.8802 -0.4730  1.0237
   76SOL    HW2  228   2.162   2.518   1.809 -0.2083  1.1815 -0.1392
   77SOL     OW  229   2.666   3.085   2.131  0.1876  0.2078  0.2322
   77SOL    HW1  230   2.643   0.079   2.115  0.5551 -1.4400  2.3040
   77SOL    HW2  231   2.602   3.011   2.095 -2.6442 -1.6968  0.4515
   78SOL     OW  232   1.794   1.050   2.957 -0.8948  0.3989 -0.1770
   78SOL    HW1  233   1.836   0.960   2.984  1.9751 -1.7404 -0.0238
   78SOL    HW2  234   1.715   1.067   3.016  0.0842  1.1074  1.1242
   79SOL     OW  235   2.547   1.398   2.352  0.5870 -0.2134  0.0206
   79SOL    HW1  236   2.603   1.427   2.437 -1.4423 -1.3334  1.1027
   79SOL    HW2  237   2.463   1.457   2.354 -1.5321  0.1333 -2.9567
   80SOL     OW  238   2.007   1.644   1.702  0.2882  0.2700  0.0481
   80SOL    HW1  239   1.907   1.645   1.690 -3.3950  2.9712 -1.4364
   80SOL    HW2  240   2.044   1.608   1.789  3.0198  0.8670  3.0197
   81SOL     OW  241   1.560   0.588   1.511  0.1511 -0.2259  0.2476
   81SOL    HW1  242   1.597   0.664   1.455  0.9596 -3.2780 -2.4608
   81SOL    HW2  243   1.475   0.616   1.561 -0.7824  2.3716 -1.0002
   82SOL     OW  244   1.833   2.381   1.425  1.1412  0.6517  0.4133
   82SOL    HW1  245   1.915   2.399   1.479 -1.2217 -0.7272  0.7932
   82SOL    HW2  246   1.815   2.282   1.433 -0.6031  0.0689  2.5946
   83SOL     OW  247   2.824   0.009   0.370  0.0955  0.4841  0.2041
   83SOL    HW1  248   2.887   0.061   0.427 -2.1492 -1.1111  0.4236
   83SOL    HW2  249   2.853   0.022   0.273 -0.0212 -0.2779 -0.1379
   84SOL     OW  250   0.372   1.000   0.097  0.2894  0.7021 -0.6207
   84SOL    HW1  251   0.430   0.989   0.181  1.1756 -0.2144  1.5898
   84SOL    HW2  252   0.402   1.084   0.045 -0.2138 -1.1068 -1.0022
   85SOL     OW  253   2.625   2.134   1.529  0.0512 -0.3182 -0.4617
   85SOL    HW1  254   2.691   2.117   1.604 -1.8828 -0.4302 -0.2816
   85SOL    HW2  255   2.563   2.054   1.515  1.1813 -0.1118  1.5962
   86SOL     OW  256   0.236   2.779   1.385  0.6987 -0.2138 -0.4580
   86SOL    HW1  257   0.311   2.734   1.332 -0.8194  0.9169  0.9269
   86SOL    HW2  258   0.267   2.850   1.449 -0.3183 -0.0645 -2.4223
   87SOL     OW  259   0.533   2.805   2.411  0.2736 -0.3097  0.5507
   87SOL    HW1  260   0.437   2.840   2.398 -3.0141 -0.0579 -3.4073
   87SOL    HW2  261   0.542   2.724   2.353 -2.3163  0.4488  2.3672
   88SOL     OW  262   0.484   2.093   0.852  0.0183 -0.2381  0.0240
   88SOL    HW1  263   0.537   2.171   0.813  0.2658 -1.1341 -2.2394
   88SOL    HW2  264   0.415   2.055   0.788 -2.6927  1.5686  0.8091
   89SOL     OW  265   1.034   0.709   1.644 -0.6368  0.1181  0.1772
   89SOL    HW1  266   1.106   0.784   1.640  0.2315 -0.2868 -1.2672
   89SOL    HW2  267   1.057   0.625   1.590  1.1694 -2.5871  0.3199
   90SOL     OW  268   2.987   1.014   1.625  0.2823  0.0674 -0.1091
   90SOL    HW1  269   3.085   1.041   1.618  0.5606 -1.5122  1.4624
   90SOL    HW2  270   2.936   1.093   1.658  0.4369 -3.3570 -0.1030
   91SOL     OW  271   1.280   1.039   1.130 -0.4254  0.3514 -0.1781
   91SOL    HW1  272   1.199   1.059   1.066  1.3298 -1.4268 -0.9300
   91SOL    HW2  273   1.356   1.001   1.078 -2.4166 -0.4678  3.0408
   92SOL     OW  274   2.320   1.298   0.711  0.7424  0.1302 -0.0645
   92SOL    HW1  275   2.266   1.207   0.709 -0.9192 -6.2165  3.4424
   92SOL    HW2  276   2.288   1.351   0.794  0.3018 -1.2138  2.5448
   93SOL     OW  277   2.306   0.898   2.587 -0.8838  0.2979 -0.6770
   93SOL    HW1  278   2.369   0.816   2.569 -0.8164  0.4773 -1.1405
   93SOL    HW2  279   2.213   0.865   2.589  1.9110 -0.6766  1.0091
   94SOL     OW  280   2.331   1.892   2.518 -0.0044  0.4552  0.1621
   94SOL    HW1  281   2.253   1.877   2.459  2.9426 -1.1652 -0.1251
   94SOL    HW2  282   2.300   1.955   2.593  0.3993  3.0718 -1.3185
   95SOL     OW  283   2.134   0.784   1.174 -0.1417  0.2592  0.2959
   95SOL    HW1  284   2.102   0.706   1.232  0.0153  1.1756 -1.2075
   95SOL    HW2  285   2.237   0.798   1.176  2.3893  0.1100  2.8040
   96SOL     OW  286   2.600   2.888   1.799 -0.3013  0.0253  0.2381
   96SOL    HW1  287   2.549   2.869   1.890 -0.9191 -2.5703 -0.6132
   96SOL    HW2  288   2.532   2.912   1.727 -1.0207  1.0459  0.8553
   97SOL     OW  289   2.398   0.833   1.165  0.5347  0.2899 -0.2640
   97SOL    HW1  290   2.405   0.887   1.077  1.1706 -1.7033 -1.5188
   97SOL    HW2  291   2.424   0.891   1.249 -1.7717 -0.2081  1.7649
   98SOL     OW  292   1.514   1.950   1.627  0.2025  0.0132 -0.0481
   98SOL    HW1  293   1.464   1.939   1.716 -0.1318  1.2661  0.2223
   98SOL    HW2  294   1.494   2.044   1.584  1.4169  2.4153  1.2122
   99SOL     OW  295   3.014   2.340   1.599 -0.1547  0.2597 -0.3291
   99SOL    HW1  296   2.928   2.399   1.598  1.1941  1.4753  0.5132
   99SOL    HW2  297   3.097   2.395   1.616 -1.5750  0.2343  0.0449
  100SOL     OW  298   1.181   0.823   0.022  0.2001  0.1374 -0.5469
  100SOL    HW1  299   1.082   0.846   0.024  2.4150 -1.1892  0.0895
  100SOL    HW2  300   1.227   0.899   3.078  0.2995 -0.8599  1.2710
  101SOL     OW  301   2.192   0.207   2.787 -0.2533 -0.2591 -0.0933
  101SOL    HW1  302   2.117   0.140   2.773 -3.1797  1.6974 -0.3350
  101SOL    HW2  303   2.172   0.266   2.867 -0.0430  2.2346  1.4194
  102SOL     OW  304   0.595   0.702   1.706  0.1573  0.4728 -0.0445
  102SOL    HW1  305   0.633   0.768   1.637  1.7950  2.1610 -3.2336
  102SOL    HW2  306   0.652   0.686   1.784 -2.1366  2.0136  0.2941
  103SOL     OW  307   0.124   0.663   2.862 -0.0656  0.2587  0.0091
  103SOL    HW1  308   0.156   0.748   2.903 -0.8316  0.3066  1.9287
  103SOL    HW2  309   0.192   0.584   2.871 -1.0688 -1.8011  1.4952
  104SOL     OW  310   1.147   0.453   2.508 -0.1846 -0.1921  0.7227
  104SOL    HW1  311   1.070   0.492   2.458  1.0294 -0.3700 -0.7439
  104SOL    HW2  312   1.119   0.385   2.580  0.1515 -0.4473  2.6445
  105SOL     OW  313   2.254   1.971   1.696  0.1773  0.3093  0.0215
  105SOL    HW1  314   2.248   1.897   1.768 -1.3753  0.8828  1.8568
  105SOL    HW2  315   2.305   2.050   1.735  1.2962 -0.1993  2.6509
  106SOL     OW  316   1.643   0.423   0.633  0.4144 -0.5083  0.4190
  106SOL    HW1  317   1.563   0.358   0.650 -1.4717  0.6369  1.0859
  106SOL    HW2  318   1.732   0.380   0.614  0.3571  0.2977  1.0995
  107SOL     OW  319   2.687   2.066   0.914  0.0562 -0.6566  0.6125
  107SOL    HW1  320   2.661   2.112   0.998  1.3110  1.4078  0.9777
  107SOL    HW2  321   2.761   1.997   0.933 -0.9886 -0.7084 -1.9062
  108SOL     OW  322   2.831   2.688   1.506  0.5241 -0.3103  0.2655
  108SOL    HW1  323   2.840   2.769   1.567 -0.7383 -1.6537  0.9774
  108SOL    HW2  324   2.867   2.710   1.414  0.7522 -1.3889  2.5605
  109SOL     OW  325   2.032   2.862   0.839  0.5353 -0.2788  0.5156
  109SOL    HW1  326   1.988   2.868   0.929  1.3152  1.2575  0.0840
  109SOL    HW2  327   2.115   2.921   0.833 -1.7280  0.5590  1.9384
  110SOL     OW  328   0.591   2.011   2.360 -0.3860  0.1458 -0.3472
  110SOL    HW1  329   0.525   2.088   2.357  1.3258  1.0759  0.4190
  110SOL    HW2  330   0.585   1.960   2.449 -0.3414  0.9722  0.2384
  111SOL     OW  331   1.774   2.425   1.994  0.1982  0.1375  0.6358
  111SOL    HW1  332   1.681   2.464   1.971 -2.5096 -1.7487 -2.0401
  111SOL    HW2  333   1.795   2.348   1.928 -0.2987  0.4547 -0.0792
  112SOL     OW  334   1.825   1.747   0.059 -0.3551  0.0800 -0.2958
  112SOL    HW1  335   1.876   1.764   0.144 -0.3449 -1.8496 -0.1312
  112SOL    HW2  336   1.885   1.704   3.096 -0.5585  0.9090 -1.4605
  113SOL     OW  337   1.821   2.108   1.435  0.1119  0.5922  0.0931
  113SOL    HW1  338   1.920   2.080   1.441  2.1149  0.2037  2.1816
  113SOL    HW2  339   1.766   2.043   1.491 -0.7897  0.6613  0.5936
  114SOL     OW  340   2.761   1.007   0.710 -0.8800 -0.4900  0.6671
  114SOL    HW1  341   2.743   1.110   0.706 -0.2556  1.3765 -0.4264
  114SOL    HW2  342   2.676   0.958   0.738  1.9918  1.5382 -0.8468
  115SOL     OW  343   0.711   0.684   3.063  0.5599  0.7165  0.1730
  115SOL    HW1  344   0.675   0.624   2.986 -0.1103  1.3018 -0.5204
  115SOL    HW2  345   0.650   0.668   0.040  0.8531  2.2112 -0.0452
  116SOL     OW  346   2.647   1.551   2.560  0.4206 -0.3488  0.0577
  116SOL    HW1  347   2.620   1.650   2.551 -1.3661  2.2621 -0.7755
  116SOL    HW2  348   2.618   1.514   2.653  0.0512  1.3685  1.1192
  117SOL     OW  349   0.020   2.831   0.591 -0.0245 -0.4036 -0.2296
  117SOL    HW1  350   0.018   2.774   0.500 -3.1492 -1.3652 -1.2429
  117SOL    HW2  351   3.031   2.818   0.627 -0.2996 -0.0491 -0.9215
  118SOL     OW  352   0.714   1.697   2.738 -0.3592  0.0170  0.1588
  118SOL    HW1  353   0.763   1.736   2.820  0.2420 -0.9228  4.1965
  118SOL    HW2  354   0.640   1.632   2.764 -2.2985 -0.7615 -1.2239
  119SOL     OW  355   0.435   2.134   0.294  0.3665  0.1193 -0.1494
  119SOL    HW1  356   0.529   2.125   0.326  1.1583  1.9922  0.5970
  119SOL    HW2  357   0.407   2.232   0.300 -0.7107  0.4677  0.5107
  120SOL     OW  358   1.280   0.566   0.018  0.2649 -0.4907 -0.1702
  120SOL    HW1  359   1.378   0.562   0.043 -0.4381  0.6584  1.0165
  120SOL    HW2  360   1.240   0.663   0.022 -1.3850  1.4176  1.1083
  121SOL     OW  361   1.233   2.613   0.554  0.1220  0.4781  0.0437
  121SOL    HW1  362   1.254   2.605   0.654  2.6594 -1.2233  0.2432
  121SOL    HW2  363   1.291   2.555   0.498 -2.0184  2.1046  1.1358
  122SOL     OW  364   2.340   2.482   1.432  0.0714  0.0579  0.0766
  122SOL    HW1  365   2.418   2.511   1.489 -2.1694 -1.0043 -0.1931
  122SOL    HW2  366   2.282   2.564   1.404 -1.6315  2.2833 -1.4159
  123SOL     OW  367   0.785   1.981   0.637  0.0669 -0.2855  0.5316
  123SOL    HW1  368   0.795   1.941   0.541 -1.0373  3.3379 -0.1916
  123SOL    HW2  369   0.731   2.068   0.633  0.9097 -1.5478  0.2686
  124SOL     OW  370   2.715   0.578   0.285  1.0154  0.0564  0.3683
  124SOL    HW1  371   2.777   0.515   0.333 -1.5074 -1.9935 -0.2952
  124SOL    HW2  372   2.631   0.590   0.347 -0.2702  0.9312  0.0455
  125SOL     OW  373   0.450   0.974   0.355  0.0895 -0.6490 -0.5793
  125SOL    HW1  374   0.427   0.894   0.411 -1.6093  0.2640 -0.6776
  125SOL    HW2  375   0.417   1.063   0.392 -2.5709  0.2615 -0.7409
  126SOL     OW  376   0.142   1.895   1.029 -0.1920 -0.1197  0.3516
  126SOL    HW1  377   0.179   1.805   1.026 -2.4693  2.6840  0.3980
  126SOL    HW2  378   0.070   1.906   1.099 -0.3545 -1.3954 -1.0371
  127SOL     OW  379   1.386   1.893   1.848  0.2470 -0.5249  0.0690
  127SOL    HW1  380   1.466   1.891   1.913 -2.3513  0.4640 -0.8358
  127SOL    HW2  381   1.316   1.958   1.878  1.0723  0.0841 -0.8047
  128SOL     OW  382   1.036   0.977   0.427 -0.6461  0.3948  0.4582
  128SOL    HW1  383   1.104   0.906   0.390  3.7856 -2.1440 -1.3628
  128SOL    HW2  384   1.017   1.046   0.354 -0.3122 -0.5201 -0.9687
  129SOL     OW  385   1.976   1.157   0.881  0.5680 -0.2440 -0.2360
  129SOL    HW1  386   2.025   1.099   0.816 -0.8179  0.4531  2.7513
  129SOL    HW2  387   1.939   1.238   0.831 -0.0977  2.4098  2.0560
  130SOL     OW  388   2.624   1.643   1.321 -0.2959 -0.4161 -0.1036
  130SOL    HW1  389   2.650   1.682   1.229  0.0013 -1.4827 -0.4505
  130SOL    HW2  390   2.639   1.542   1.326  0.1558  1.5221 -2.9790
  131SOL     OW  391   3.074   2.716   3.053  0.0838  0.1020 -0.3876
  131SOL    HW1  392   2.975   2.715   3.079  3.9327 -3.3491  1.4974
  131SOL    HW2  393   0.005   2.809   3.042 -0.1225  0.7156 -2.5160
  132SOL     OW  394   0.143   1.319   0.699  0.8517  0.3344  0.5239
  132SOL    HW1  395   0.107   1.318   0.604 -1.2266  0.7362  2.3193
  132SOL    HW2  396   0.139   1.220   0.732 -0.4394  0.1352  2.2840
  133SOL     OW  397   0.659   0.327   1.561  0.3370 -0.0563  0.4894
  133SOL    HW1  398   0.572   0.328   1.615  3.0073 -3.3211  0.7012
  133SOL    HW2  399   0.731   0.357   1.625  1.1136  0.2738  0.8097
  134SOL     OW  400   0.288   1.813   2.995 -0.3803 -0.4407  0.1173
  134SOL    HW1  401   0.293   1.857   3.087 -0.1779  1.2478  0.8608
  134SOL    HW2  402   0.316   1.888   2.929 -0.7992  1.2470  2.4190
  135SOL     OW  403   1.660   0.656   1.903  0.0949 -0.5556  0.4075
  135SOL    HW1  404   1.581   0.675   1.853  1.0795  0.1145  2.2960
  135SOL    HW2  405   1.651   0.703   1.996  0.3496  0.3829 -1.1503
  136SOL     OW  406   3.045   1.040   0.254  0.4841 -0.5082  0.2149
  136SOL    HW1  407   0.022   0.980   0.252 -0.1586 -0.2039  1.1644
  136SOL    HW2  408   2.972   1.015   0.320  2.2525 -1.3596 -2.2874
  137SOL     OW  409   3.062   1.172   1.125 -0.5354  0.8804  0.0510
  137SOL    HW1  410   0.004   1.086   1.089  3.1117 -0.4543 -2.8429
  137SOL    HW2  411   3.013   1.225   1.057  0.8451  0.3653 -0.8948
  138SOL     OW  412   1.947   0.569   1.241 -0.2151 -0.0528  0.0508
  138SOL    HW1  413   1.935   0.559   1.341 -0.7373 -0.3605  1.6966
  138SOL    HW2  414   1.857   0.545   1.196 -1.4870 -0.2980 -0.2168
  139SOL     OW  415   1.273   2.547   0.268 -0.6086 -0.6543  0.3078
  139SOL    HW1  416   1.360   2.601   0.242  1.7539  1.5096 -3.7703
  139SOL    HW2  417   1.210   2.550   0.193 -0.5618  2.8240  2.3998
  140SOL     OW  418   1.440   1.428   1.877 -0.4482 -0.0647 -0.4275
  140SOL    HW1  419   1.373   1.465   1.815  1.9537  1.8473 -0.2663
  140SOL    HW2  420   1.443   1.327   1.865  0.9269 -3.0729 -4.1077
  141SOL     OW  421   1.468   1.985   0.585 -0.0742  0.0196 -0.8701
  141SOL    HW1  422   1.543   1.928   0.551 -1.1846 -1.7062  1.1940
  141SOL    HW2  423   1.496   2.020   0.678 -0.5737 -0.8821 -0.6359
  142SOL     OW  424   0.938   0.584   0.219 -0.0748 -0.0162  0.3143
  142SOL    HW1  425   0.962   0.567   0.119  1.3434  1.2994 -0.9089
  142SOL    HW2  426   0.844   0.626   0.232 -0.7344  0.1982  1.7080
  143SOL     OW  427   0.315   1.954   2.710  0.4924 -0.4875  0.0881
  143SOL    HW1  428   0.296   2.031   2.770 -1.3362 -1.7913  0.5365
  143SOL    HW2  429   0.300   1.990   2.615 -0.6152  1.1337 -1.7833
  144SOL     OW  430   1.514   2.695   0.965 -0.3150 -0.1231 -0.5146
  144SOL    HW1  431   1.533   2.621   0.895 -0.3125 -0.9403  0.5519
  144SOL    HW2  432   1.541   2.790   0.937 -2.4806  0.2167 -2.8777
  145SOL     OW  433   1.988   1.080   2.755  0.3216  0.2188  0.6489
  145SOL    HW1  434   2.066   1.092   2.817 -3.0614  1.8662 -1.8395
  145SOL    HW2  435   1.900   1.095   2.803  3.8071  2.6904 -2.2559
  146SOL     OW  436   0.230   2.507   0.835  0.1299 -0.2668 -0.1805
  146SOL    HW1  437   0.185   2.596   0.809 -0.3238 -0.5253 -0.5481
  146SOL    HW2  438   0.160   2.443   0.880  0.4720 -2.9720  1.3109
  147SOL     OW  439   2.246   0.017   2.046  0.4853 -0.4405 -0.0852
  147SOL    HW1  440   2.261   3.033   2.009  0.4849  2.8840  2.4405
  147SOL    HW2  441   2.166   0.055   1.998  0.5969  1.5876  1.4032
  148SOL     OW  442   0.854   2.947   1.946 -0.0375  0.4472  0.3369
  148SOL    HW1  443   0.944   2.933   1.899  1.4747 -2.3666  0.0717
  148SOL    HW2  444   0.796   2.865   1.930  0.2862  0.7157  1.8243
  149SOL     OW  445   1.827   0.393   2.445 -0.6932 -0.0644  0.4270
  149SOL    HW1  446   1.742   0.357   2.483 -0.1159  1.3719  0.9629
  149SOL    HW2  447   1.906   0.332   2.462  0.0752  1.3945 -0.9119
  150SOL     OW  448   2.885   0.078   0.111 -0.2021 -0.5755 -0.1121
  150SOL    HW1  449   2.795   0.090   0.068  1.1416 -0.2303 -1.8535
  150SOL    HW2  450   2.932   0.168   0.117  1.9484 -1.6691 -2.2595
  151SOL     OW  451   0.751   1.657   0.561  0.2953  0.0079  0.4421
  151SOL    HW1  452   0.788   1.748   0.532  3.5340  2.0575  2.6462
  151SOL    HW2  453   0.704   1.607   0.485  2.5944 -1.6251  1.1491
  152SOL     OW  454   2.893   0.394   0.411  0.2770  0.0897 -0.1041
  152SOL    HW1  455   2.839   0.365   0.491 -1.5639  1.0727 -0.9137
  152SOL    HW2  456   2.974   0.442   0.449 -2.3326 -0.6758 -0.7959
  153SOL     OW  457   2.727   0.217   1.343  0.2058 -0.2394  0.7474
  153SOL    HW1  458   2.654   0.290   1.325 -1.2314  1.0908 -0.8147
  153SOL    HW2  459   2.814   0.244   1.294  0.4132  1.0244  0.3482
  154SOL     OW  460   1.307   0.027   2.171  0.2700  0.3232 -0.1147
  154SOL    HW1  461   1.345   0.113   2.213  1.9227  2.4888  1.3610
  154SOL    HW2  462   1.371   3.079   2.112 -1.8540  1.2638 -0.8981
  155SOL     OW  463   0.566   1.838   0.988  0.6583  0.5155 -0.3661
  155SOL    HW1  464   0.552   1.923   0.936  0.7579 -0.9712 -2.0011
  155SOL    HW2  465   0.612   1.869   1.076  2.1289  1.2235  0.0368
  156SOL     OW  466   2.185   2.089   2.966  0.4144 -0.6646 -0.2186
  156SOL    HW1  467   2.188   2.186   2.987  1.0768 -1.4107 -1.0811
  156SOL    HW2  468   2.142   2.040   3.046 -2.1883  0.5431 -2.1860
  157SOL     OW  469   0.700   0.757   0.269 -0.2642  0.0143  0.0346
  157SOL    HW1  470   0.617   0.717   0.227  2.0991  2.1383  1.9462
  157SOL    HW2  471   0.743   0.827   0.211  1.8172  0.1586  0.2862
  158SOL     OW  472   2.388   0.015   2.814 -0.3440 -0.5384  0.2493
  158SOL    HW1  473   2.388   0.022   2.918  2.0844 -0.4405  0.0941
  158SOL    HW2  474   2.321   0.081   2.772 -0.4270  1.3186  1.6135
  159SOL     OW  475   3.045   0.145   0.485  0.4364  0.0961  0.1361
  159SOL    HW1  476   3.094   0.229   0.445  0.6807  0.1155 -1.0508
  159SOL    HW2  477   0.004   0.100   0.545  1.4605 -0.3694 -1.8097
  160SOL     OW  478   1.369   1.832   2.328 -0.0701  0.2681 -0.1522
  160SOL    HW1  479   1.319   1.783   2.407 -1.7402 -0.7477  1.3062
  160SOL    HW2  480   1.331   1.807   2.235 -4.0218  1.3626 -1.0631
  161SOL     OW  481   2.904   0.934   2.646 -0.7074 -0.4608 -0.4939
  161SOL    HW1  482   2.871   0.852   2.602  1.2535  3.2930 -1.3627
  161SOL    HW2  483   2.902   0.931   2.751 -1.2087  1.1210  2.2155
  162SOL     OW  484   0.375   2.319   1.465 -0.0340  0.2966 -0.3852
  162SOL    HW1  485   0.356   2.280   1.558 -1.4123  0.0532 -0.3460
  162SOL    HW2  486   0.417   2.251   1.397  2.5114 -0.4741 -1.8599
  163SOL     OW  487   2.058   0.254   2.524  0.1450 -0.4173 -0.4200
  163SOL    HW1  488   2.112   0.216   2.602 -3.6235 -1.4168  0.2005
  163SOL    HW2  489   2.100   0.227   2.432  1.2614 -1.4470 -0.9735
  164SOL     OW  490   2.077   1.713   0.209  0.1215  0.3772 -0.1744
  164SOL    HW1  491   2.133   1.651   0.149 -1.2344 -2.0174  0.2825
  164SOL    HW2  492   2.086   1.684   0.306  2.1507  0.3598  2.1006
  165SOL     OW  493   0.000   0.260   1.598  0.8123  0.5701  0.1717
  165SOL    HW1  494   3.050   0.319   1.539 -4.3298  0.9581  0.9132
  165SOL    HW2  495   0.084   0.229   1.549  0.3221 -0.2862  1.3275
  166SOL     OW  496   2.213   1.071   2.932  0.6026  0.1962  0.1405
  166SOL    HW1  497   2.315   1.056   2.943  0.9640 -2.6259 -1.4782
  166SOL    HW2  498   2.168   1.076   3.025  0.3466  0.0684 -0.2772
  167SOL     OW  499   2.816   0.735   0.100  0.1679  0.4010 -0.1854
  167SOL    HW1  500   2.774   0.654   0.153  1.0400 -0.3113 -0.8230
  167SOL    HW2  501   2.866   0.703   0.016  0.1260 -1.9101 -4.0208
  168SOL     OW  502   1.617   2.577   2.521 -0.3173 -0.4159  0.2389
  168SOL    HW1  503   1.688   2.549   2.594 -1.4899  2.0386  0.7275
  168SOL    HW2  504   1.669   2.603   2.432  0.9939 -1.1361 -1.9150
  169SOL     OW  505   0.368   1.560   0.658 -0.5377 -0.7560  0.2914
  169SOL    HW1  506   0.466   1.540   0.689  0.3055  0.0511 -0.5447
  169SOL    HW2  507   0.325   1.466   0.648 -0.7984  0.6390  0.6541
  170SOL     OW  508   0.383   0.334   1.326  0.0498 -0.5591 -0.5849
  170SOL    HW1  509   0.390   0.411   1.386  2.2376  0.2231 -2.3101
  170SOL    HW2  510   0.467   0.318   1.271 -0.9049 -2.2561 -0.6571
  171SOL     OW  511   1.295   2.285   2.730 -0.2934  0.2636  0.5735
  171SOL    HW1  512   1.240   2.249   2.653  1.3939 -0.9470 -1.5002
  171SOL    HW2  513   1.384   2.319   2.689  4.2170  0.3606 -0.9448
  172SOL     OW  514   3.097   2.729   1.354  0.1276  0.4548  0.3446
  172SOL    HW1  515   3.076   2.655   1.286  0.8191  0.3104  0.1883
  172SOL    HW2  516   0.092   2.748   1.363 -3.2052  0.3145  1.4267
  173SOL     OW  517   1.535   0.489   0.084  0.1715  0.1576 -0.6250
  173SOL    HW1  518   1.563   0.514   0.180  1.2606  2.4997  1.0502
  173SOL    HW2  519   1.549   0.391   0.064 -0.8850  2.7004 -0.3431
  174SOL     OW  520   1.104   0.049   2.744 -0.1165 -0.2414  0.5425
  174SOL    HW1  521   1.026   3.094   2.726 -0.6644  0.7824  0.1767
  174SOL    HW2  522   1.147   0.014   2.827  0.2243  0.6762  0.1330
  175SOL     OW  523   2.140   1.975   0.532 -0.1724  0.1921  0.0702
  175SOL    HW1  524   2.096   2.063   0.555  3.0661 -1.1037 -1.8101
  175SOL    HW2  525   2.103   1.896   0.583 -0.6555 -0.8170 -0.5809
  176SOL     OW  526   1.376   0.088   0.046 -0.3055  0.0140 -0.5187
  176SOL    HW1  527   1.311   0.150   0.094  2.4794 -3.5511 -0.3429
  176SOL    HW2  528   1.321   0.057   3.074  1.1461  1.2057  2.3314
  177SOL     OW  529   1.051   1.511   0.394 -0.0641  0.3436  0.3749
  177SOL    HW1  530   1.004   1.582   0.344  1.1325 -0.4464  0.6134
  177SOL    HW2  531   1.144   1.483   0.355  0.9953 -0.1046 -0.6949
  178SOL     OW  532   2.458   2.308   2.852  0.3746  0.2443  0.1757
  178SOL    HW1  533   2.413   2.373   2.913  0.0967 -0.3627  1.9966
  178SOL    HW2  534   2.460   2.216   2.896  1.4571  0.2424  2.4953
  179SOL     OW  535   2.657   2.819   2.950  0.0262  0.1317  0.5449
  179SOL    HW1  536   2.558   2.814   2.929 -0.2286 -1.4945  0.8573
  179SOL    HW2  537   2.721   2.800   2.868  0.8182 -1.4319 -0.6421
  180SOL     OW  538   1.726   1.391   0.979 -0.3680  0.3662  0.5206
  180SOL    HW1  539   1.695   1.488   0.968  0.6477 -2.2432  0.7293
  180SOL    HW2  540   1.653   1.326   0.949  2.8567 -0.3824  0.3799
  181SOL     OW  541   1.844   0.917   2.296  0.1445 -0.1303  0.1257
  181SOL    HW1  542   1.764   0.954   2.347 -2.4694  0.1366  1.0613
  181SOL    HW2  543   1.842   0.817   2.285  0.2528  0.6411 -1.1312
  182SOL     OW  544   2.558   3.087   2.622  0.0683 -0.0560  0.0329
  182SOL    HW1  545   2.512   3.100   2.713 -0.8226 -0.8456  0.0466
  182SOL    HW2  546   2.520   0.046   2.555 -4.4402 -3.0047  0.8411
  183SOL     OW  547   1.856   0.646   2.296  0.7909  0.1709 -0.0558
  183SOL    HW1  548   1.893   0.610   2.208  1.2584 -1.6404 -1.5888
  183SOL    HW2  549   1.876   0.575   2.363 -0.3385  0.4302 -4.8401
  184SOL     OW  550   2.932   1.213   1.362 -0.9220  0.0461 -0.3577
  184SOL    HW1  551   2.982   1.198   1.276  0.4292  1.8136  2.1745
  184SOL    HW2  552   2.918   1.131   1.423 -1.3847  0.1287  2.2403
  185SOL     OW  553   1.957   0.746   0.551 -0.4665 -0.4079 -0.2867
  185SOL    HW1  554   1.998   0.819   0.611 -0.5538  0.2310 -1.8138
  185SOL    HW2  555   2.012   0.661   0.543 -1.1466  1.6666  1.1278
  186SOL     OW  556   0.383   2.693   2.932 -0.7679 -0.4430  0.1208
  186SOL    HW1  557   0.370   2.726   3.029  0.8774  0.9290  1.6976
  186SOL    HW2  558   0.375   2.761   2.858 -3.2512  1.3256 -0.5549
  187SOL     OW  559   2.466   1.069   3.067  0.2029  0.4514  0.5447
  187SOL    HW1  560   2.560   1.028   3.070  0.8218  0.2643  0.7043
  187SOL    HW2  561   2.470   1.171   3.091 -1.3113 -0.1873  0.2131
  188SOL     OW  562   3.106   1.676   1.335 -0.4217 -0.2040 -0.5846
  188SOL    HW1  563   3.070   1.596   1.384  0.6095  1.4064 -0.8941
  188SOL    HW2  564   3.055   1.757   1.366 -1.3277 -3.7424 -0.1099
  189SOL     OW  565   2.466   0.326   3.097  0.2154 -0.6633  0.0957
  189SOL    HW1  566   2.384   0.342   3.035 -1.4851  1.7516 -1.2927
  189SOL    HW2  567   2.486   0.413   0.038 -1.6134 -0.1591  1.9892
  190SOL     OW  568   1.394   1.136   1.843  0.3316  0.9823  0.0558
  190SOL    HW1  569   1.401   1.046   1.791  1.7318 -3.7285 -2.9038
  190SOL    HW2  570   1.469   1.147   1.913  1.2048  1.6223 -0.4821
  191SOL     OW  571   0.596   0.271   2.012  0.3639  0.2117  0.5250
  191SOL    HW1  572   0.654   0.222   1.941  0.5692 -1.6725  0.3267
  191SOL    HW2  573   0.515   0.321   1.971  0.0381  1.3454  0.9681
  192SOL     OW  574   2.127   1.441   1.284  0.1173 -0.1321 -0.3689
  192SOL    HW1  575   2.060   1.474   1.216  0.0235  0.6286 -0.0460
  192SOL    HW2  576   2.101   1.471   1.379 -0.9050  0.1297 -1.9980
  193SOL     OW  577   1.499   0.658   1.047  0.0184  0.1869 -0.0349
  193SOL    HW1  578   1.480   0.732   0.981 -0.6078  1.3942 -3.0054
  193SOL    HW2  579   1.416   0.633   1.101  0.0503  0.1868 -3.2720
  194SOL     OW  580   0.959   2.440   1.691 -0.0301 -0.3685  0.0723
  194SOL    HW1  581   1.029   2.514   1.686  0.2480  0.6742 -1.8168
  194SOL    HW2  582   0.973   2.363   1.631  0.5092 -1.3069 -0.6749
  195SOL     OW  583   1.914   3.065   2.967  0.8452  0.2269 -0.2313
  195SOL    HW1  584   1.953   3.084   2.871  0.4943 -3.2961 -0.2596
  195SOL    HW2  585   1.991   3.076   3.036 -1.6187  1.4195  3.0930
  196SOL     OW  586   0.817   1.891   1.888 -0.3630  0.2478  0.7359
  196SOL    HW1  587   0.831   1.903   1.787 -0.8589  0.4840 -0.0195
  196SOL    HW2  588   0.882   1.825   1.932  2.9106 -0.0543  1.8190
  197SOL     OW  589   1.155   0.164   1.198  0.4903  0.5417 -0.6334
  197SOL    HW1  590   1.241   0.210   1.182 -2.3442  0.1065  2.7055
  197SOL    HW2  591   1.078   0.222   1.214  1.6640 -0.9755  1.1875
  198SOL     OW  592   0.798   1.069   1.152 -0.4628 -0.1715  0.3569
  198SOL    HW1  593   0.829   1.007   1.230 -1.4744 -0.2999  2.1538
  198SOL    HW2  594   0.849   1.054   1.063  2.0086  0.5123 -2.2806
  199SOL     OW  595   0.059   2.628   1.595 -0.0768  0.1693 -0.5286
  199SOL    HW1  596   0.155   2.593   1.593 -1.3783  0.8976 -1.7509
  199SOL    HW2  597   0.032   2.672   1.509  1.8413 -5.0860 -0.0354
  200SOL     OW  598   1.954   1.834   2.020 -0.4820  0.1686  0.3620
  200SOL    HW1  599   2.038   1.827   2.073 -0.0129 -0.8885 -0.3465
  200SOL    HW2  600   1.964   1.888   1.928  2.1333  1.3875 -1.5045
  201SOL     OW  601   0.448   1.656   2.118 -0.1185 -0.4343 -0.5241
  201SOL    HW1  602   0.520   1.584   2.117  0.0129 -0.8957  0.7355
  201SOL    HW2  603   0.439   1.710   2.028 -0.5262  0.5199 -0.0616
  202SOL     OW  604   2.024   0.667   0.285 -0.0924 -0.1322 -0.0843
  202SOL    HW1  605   1.957   0.611   0.229 -2.4095 -0.8984  1.5971
  202SOL    HW2  606   1.991   0.681   0.380  2.5588 -2.0724 -0.9160
  203SOL     OW  607   1.054   2.410   2.178 -0.1402 -0.5104 -0.0870
  203SOL    HW1  608   1.007   2.399   2.267  0.3387  0.0148 -0.9311
  203SOL    HW2  609   0.991   2.398   2.095  0.3254  0.4024 -6.5276
  204SOL     OW  610   1.137   2.072   1.544 -0.2382 -0.1413 -0.1041
  204SOL    HW1  611   1.057   2.012   1.527  2.4212 -1.0784 -0.6560
  204SOL    HW2  612   1.144   2.106   1.643 -0.6039 -1.7436 -0.3928
  205SOL     OW  613   1.614   1.862   1.998 -0.5472 -0.5283 -0.2158
  205SOL    HW1  614   1.595   1.829   2.096  3.3437 -2.3456  0.7370
  205SOL    HW2  615   1.681   1.789   1.962  0.1906 -0.8011 -1.4894
  206SOL     OW  616   0.165   0.797   2.473 -0.8099 -0.0435 -0.7453
  206SOL    HW1  617   0.159   0.779   2.576 -1.3138 -0.7813  1.6117
  206SOL    HW2  618   0.261   0.812   2.436  2.1090 -1.6989 -2.8113
  207SOL     OW  619   1.209   2.829   1.986  0.3016  0.3048  0.1320
  207SOL    HW1  620   1.136   2.820   2.055  2.2189  3.2878  1.7701
  207SOL    HW2  621   1.175   2.835   1.887  1.2510  1.0001 -2.7482
  208SOL     OW  622   0.677   2.768   1.836 -0.6669 -0.0644  0.0137
  208SOL    HW1  623   0.692   2.671   1.809  1.0419 -0.6273  2.5186
  208SOL    HW2  624   0.580   2.781   1.869  0.4853 -0.3274  1.2204
  209SOL     OW  625   1.621   0.206   0.065  0.2191  0.0265  0.2691
  209SOL    HW1  626   1.624   0.218   0.168 -2.2487 -0.6928  3.0306
  209SOL    HW2  627   1.539   0.151   0.038  2.2667  0.3122  1.0936
  210SOL     OW  628   2.814   0.662   0.695 -0.0890 -0.0543  0.3095
  210SOL    HW1  629   2.851   0.670   0.789  0.2810 -0.4507 -1.7763
  210SOL    HW2  630   2.817   0.751   0.641  1.2434  0.9357 -0.0266
  211SOL     OW  631   0.761   0.453   1.359 -0.3407  0.5752 -0.9859
  211SOL    HW1  632   0.725   0.547   1.347  3.0549 -3.4234  1.3658
  211SOL    HW2  633   0.697   0.419   1.428  0.8132  0.3700  0.4012
  212SOL     OW  634   1.442   1.934   1.238 -0.1827 -0.1963 -0.5323
  212SOL    HW1  635   1.536   1.975   1.250 -1.3311  0.3781 -0.1924
  212SOL    HW2  636   1.419   1.927   1.136 -0.4459 -0.2485 -0.8235
  213SOL     OW  637   2.185   0.429   1.722  0.1018 -0.2870 -0.4039
  213SOL    HW1  638   2.269   0.383   1.758 -0.8385  1.1141  0.2206
  213SOL    HW2  639   2.205   0.528   1.717  0.7857  0.2055 -1.5703
  214SOL     OW  640   0.836   2.550   2.625 -0.0638  0.0333  0.4882
  214SOL    HW1  641   0.865   2.612   2.702  0.2764  2.5396  0.1308
  214SOL    HW2  642   0.770   2.483   2.661  2.2810  1.8102  0.6044
  215SOL     OW  643   2.705   1.789   1.536 -0.0863  0.2039 -0.1789
  215SOL    HW1  644   2.670   1.742   1.450  0.0070  0.2316 -2.6176
  215SOL    HW2  645   2.806   1.791   1.522  1.2965  0.8640 -2.4541
  216SOL     OW  646   0.782   1.066   1.791 -0.0130 -0.0459  0.3270
  216SOL    HW1  647   0.687   1.100   1.773  0.6108 -2.3882  1.1986
  216SOL    HW2  648   0.847   1.150   1.801  0.1602  1.3099  0.4186
  217SOL     OW  649   2.650   0.265   0.661  0.1764  0.3417 -0.0925
  217SOL    HW1  650   2.618   0.364   0.660 -0.4157  2.1239 -1.8555
  217SOL    HW2  651   2.741   0.247   0.708 -0.1336 -0.1383  1.0748
  218SOL     OW  652   1.828   2.015   1.052  0.2063 -0.0312  0.2137
  218SOL    HW1  653   1.900   2.068   1.004  0.1404  0.3730  0.1366
  218SOL    HW2  654   1.752   2.081   1.081 -2.1972  3.1491  0.8149
  219SOL     OW  655   1.493   3.073   0.385 -0.2856 -0.2989 -0.5421
  219SOL    HW1  656   1.487   3.073   0.487  2.1670 -0.4900  0.2216
  219SOL    HW2  657   1.424   3.020   0.341 -0.0729  3.5025  2.2488
  220SOL     OW  658   1.669   2.107   0.783  0.2470  0.0590 -0.1254
  220SOL    HW1  659   1.709   2.163   0.710  0.1608 -2.8476 -0.4586
  220SOL    HW2  660   1.727   2.026   0.804  2.1826  2.0803  0.8257
  221SOL     OW  661   2.615   1.092   0.249 -0.2833  0.1256  0.0381
  221SOL    HW1  662   2.656   1.181   0.275 -0.1178  1.8811 -0.6499
  221SOL    HW2  663   2.648   1.060   0.159  0.6537  1.1284  1.4135
  222SOL     OW  664   0.788   2.318   1.288 -0.6395 -0.1050  0.6791
  222SOL    HW1  665   0.770   2.421   1.296 -0.6393  1.1066 -1.6047
  222SOL    HW2  666   0.885   2.294   1.263  0.4641 -2.8190  0.5815
  223SOL     OW  667   1.316   0.303   0.406  0.1022  0.2428 -0.9289
  223SOL    HW1  668   1.276   0.389   0.446 -0.0454 -1.5396  1.2234
  223SOL    HW2  669   1.279   0.290   0.307 -2.0212  0.2797 -1.7452
  224SOL     OW  670   2.768   1.023   1.081  0.4135  0.4336 -0.1125
  224SOL    HW1  671   2.691   1.086   1.098  0.3804  2.0490  0.6021
  224SOL    HW2  672   2.840   1.064   1.027 -1.7805 -1.7975 -0.2353
  225SOL     OW  673   0.590   1.528   1.386  0.3340 -0.1031  0.3791
  225SOL    HW1  674   0.677   1.542   1.336  0.6059 -1.1774 -1.2364
  225SOL    HW2  675   0.518   1.495   1.321 -1.0539 -0.9182 -1.1331
  226SOL     OW  676   0.670   2.679   0.706 -0.4805 -0.2760 -0.3551
  226SOL    HW1  677   0.698   2.720   0.616 -2.3458 -0.2241  1.0521
  226SOL    HW2  678   0.625   2.590   0.689 -0.6581  0.6457 -1.5727
  227SOL     OW  679   1.248   1.641   1.815  0.1850  0.1760  0.7824
  227SOL    HW1  680   1.183   1.652   1.736  0.1841 -1.2174  0.3430
  227SOL    HW2  681   1.317   1.716   1.809 -1.3617  2.2418 -1.8089
  228SOL     OW  682   0.851   0.400   1.742  0.0636  0.4931  0.0027
  228SOL    HW1  683   0.885   0.487   1.783  0.3962  0.2752 -2.1505
  228SOL    HW2  684   0.926   0.332   1.750  0.3477 -0.9905  2.2232
  229SOL     OW  685   2.706   0.683   2.797  0.2161  0.0063  0.6231
  229SOL    HW1  686   2.757   0.682   2.709  2.3095 -0.7566  1.2176
  229SOL    HW2  687   2.759   0.673   2.879 -0.5126  2.0414  0.4168
  230SOL     OW  688   0.410   0.791   1.387  0.7464 -0.2611 -0.5852
  230SOL    HW1  689   0.346   0.842   1.324 -1.3293 -1.0871 -1.9152
  230SOL    HW2  690   0.373   0.710   1.436  0.5495  1.5028 -0.9161
  231SOL     OW  691   1.073   2.912   1.446 -0.2672 -0.2135  0.3600
  231SOL    HW1  692   1.001   2.980   1.481 -2.8127  0.1552  1.1845
  231SOL    HW2  693   1.146   2.953   1.390 -2.0059 -1.7014 -0.1793
  232SOL     OW  694   3.104   2.166   0.298  0.1765 -0.0391  0.2608
  232SOL    HW1  695   0.080   2.148   0.359 -1.3699 -1.2357  0.0291
  232SOL    HW2  696   0.035   2.198   0.206  1.5930  0.8126 -1.7299
  233SOL     OW  697   1.124   2.682   2.939  0.2501 -0.3953  0.4382
  233SOL    HW1  698   1.145   2.627   2.858 -0.4737 -1.6900 -1.5549
  233SOL    HW2  699   1.205   2.738   2.976  2.3396  0.0274  0.0994
  234SOL     OW  700   0.509   1.161   1.786  0.2417 -0.0922  0.1722
  234SOL    HW1  701   0.493   1.088   1.720  4.2336  0.6689 -1.6436
  234SOL    HW2  702   0.489   1.125   1.879  0.5784 -1.5341 -0.6963
  235SOL     OW  703   3.059   2.288   2.465 -0.1269  0.6410 -1.1673
  235SOL    HW1  704   0.040   2.339   2.437 -0.0745 -0.9013 -1.1286
  235SOL    HW2  705   3.000   2.341   2.529 -0.8191 -1.9126 -2.3462
  236SOL     OW  706   1.591   2.179   2.875  0.2500 -0.1815 -0.3202
  236SOL    HW1  707   1.559   2.221   2.789 -1.1820  2.5605  0.8778
  236SOL    HW2  708   1.532   2.096   2.898 -1.7856 -2.4560 -0.6029
  237SOL     OW  709   1.823   0.958   0.987 -0.3076  0.1358  0.2795
  237SOL    HW1  710   1.863   0.881   0.935  1.4062  1.4060  0.8310
  237SOL    HW2  711   1.872   1.044   0.963 -1.1960  0.5201 -1.3735
  238SOL     OW  712   1.255   2.558   2.052 -0.4766  0.1549  0.3110
  238SOL    HW1  713   1.182   2.532   2.122  0.2292  0.1764 -1.7200
  238SOL    HW2  714   1.247   2.655   2.029 -3.4344  2.1311 -0.0354
  239SOL     OW  715   0.863   2.453   1.955  0.1760 -0.2695  0.4567
  239SOL    HW1  716   0.795   2.379   1.948 -1.3293 -0.7296 -0.4006
  239SOL    HW2  717   0.924   2.458   1.872 -1.1997  0.2369  3.3874
  240SOL     OW  718   2.396   0.122   0.807  0.1856 -0.0736  0.0054
  240SOL    HW1  719   2.480   0.116   0.751 -0.0529 -1.4923  1.4365
  240SOL    HW2  720   2.327   0.173   0.761  1.9341 -2.8093 -0.8689
  241SOL     OW  721   1.194   1.408   3.085 -0.3918  0.1408  0.3295
  241SOL    HW1  722   1.095   1.393   3.073  2.5235 -0.8936 -0.3691
  241SOL    HW2  723   1.250   1.360   3.016  1.0391 -0.2946  0.3980
  242SOL     OW  724   2.735   1.004   0.028 -1.4287  0.2039  0.4401
  242SOL    HW1  725   2.738   0.903   0.034  0.1054  0.7885  2.8854
  242SOL    HW2  726   2.833   1.042   0.034 -1.3912  1.9069  1.7222
  243SOL     OW  727   0.932   0.677   1.912  0.1177  0.2388 -0.3244
  243SOL    HW1  728   1.010   0.667   1.980 -1.4491  0.5589 -0.0016
  243SOL    HW2  729   0.970   0.710   1.822 -2.0628 -0.4478  0.9361
  244SOL     OW  730   1.362   2.821   3.037  0.2675 -0.2783  0.3957
  244SOL    HW1  731   1.418   2.750   2.990 -2.0275 -0.1479  1.4589
  244SOL    HW2  732   1.409   2.858   0.013  0.0292  2.0836  0.9281
  245SOL     OW  733   1.568   2.470   0.038 -0.2204  0.2851 -0.2693
  245SOL    HW1  734   1.496   2.395   0.053 -0.8111 -3.2379 -0.3939
  245SOL    HW2  735   1.662   2.437   0.050  0.1009  0.2993  0.4956
  246SOL     OW  736   0.911   0.983   2.282 -0.3993  0.3186 -0.3670
  246SOL    HW1  737   0.879   0.950   2.193 -1.4711  0.9117  1.4422
  246SOL    HW2  738   0.835   1.018   2.343 -0.5018 -0.8651  0.5053
  247SOL     OW  739   3.034   0.556   2.409  0.1667  0.0514  0.2530
  247SOL    HW1  740   3.074   0.513   2.326 -2.5162  0.8723  2.1316
  247SOL    HW2  741   3.094   0.543   2.491 -1.4625  1.3005  1.6552
  248SOL     OW  742   0.122   1.309   1.978 -0.2817  0.5827 -0.0282
  248SOL    HW1  743   0.031   1.266   1.966  0.3955  0.5777 -2.2187
  248SOL    HW2  744   0.170   1.262   2.058 -1.3791 -3.3708 -2.0525
  249SOL     OW  745   3.002   0.341   0.163 -0.0314 -0.2696  0.8462
  249SOL    HW1  746   3.096   0.379   0.187  2.4500  0.2400  3.6385
  249SOL    HW2  747   2.943   0.363   0.243  1.7175 -0.5612 -0.7205
  250SOL     OW  748   2.689   0.234   2.972  0.2614  0.3920  0.2199
  250SOL    HW1  749   2.684   0.149   2.915 -1.2216 -0.1149 -0.5174
  250SOL    HW2  750   2.595   0.271   2.993  1.3661  0.4734  0.8839
  251SOL     OW  751   1.029   1.736   1.950 -0.3706  0.1820  0.0179
  251SOL    HW1  752   1.058   1.809   2.015 -1.4182 -1.6053 -3.4555
  251SOL    HW2  753   1.114   1.686   1.916  0.4371 -1.3188 -0.2188
  252SOL     OW  754   2.120   1.744   1.438  0.1668 -0.5951  0.3097
  252SOL    HW1  755   2.221   1.723   1.431 -0.9796 -0.6275 -1.0674
  252SOL    HW2  756   2.078   1.721   1.529 -0.3146 -0.6659  3.4406
  253SOL     OW  757   1.889   2.386   2.214 -0.1799  0.0925 -0.0995
  253SOL    HW1  758   1.844   2.416   2.128  1.3787 -1.6335 -0.6937
  253SOL    HW2  759   1.922   2.461   2.271 -1.6006 -1.5270 -0.5992
  254SOL     OW  760   0.545   2.630   2.135 -0.0300 -0.4591  0.3800
  254SOL    HW1  761   0.542   2.546   2.075  0.8526 -1.9473 -1.0083
  254SOL    HW2  762   0.641   2.669   2.137 -0.1914 -1.1044  1.1696
  255SOL     OW  763   1.430   0.332   0.886  0.0164  0.2313  0.3750
  255SOL    HW1  764   1.439   0.274   0.799 -1.0724  0.7985 -0.3566
  255SOL    HW2  765   1.416   0.433   0.874  4.0516  3.0201  0.5052
  256SOL     OW  766   2.294   2.208   1.348 -0.0840  0.3803 -0.0529
  256SOL    HW1  767   2.281   2.287   1.414  0.3173  3.4848 -0.5412
  256SOL    HW2  768   2.322   2.240   1.258 -2.6701 -0.5243  0.4850
  257SOL     OW  769   0.436   2.452   2.797  0.0172  0.6331  0.1282
  257SOL    HW1  770   0.398   2.384   2.863  0.0212 -0.3462  0.7589
  257SOL    HW2  771   0.422   2.541   2.842  1.2698 -0.7096 -1.2869
  258SOL     OW  772   0.434   0.841   2.421  0.0831  0.4995  0.5076
  258SOL    HW1  773   0.492   0.846   2.504 -2.0867  0.3428 -0.9260
  258SOL    HW2  774   0.487   0.885   2.345 -1.8135  0.8901  1.4134
  259SOL     OW  775   1.038   1.234   2.293  0.2150 -0.2196 -0.1937
  259SOL    HW1  776   1.053   1.230   2.193 -0.4456  0.3770 -0.1604
  259SOL    HW2  777   0.979   1.156   2.317 -3.1210 -0.0517 -1.8744
  260SOL     OW  778   2.102   0.955   0.753 -0.5961  0.4410 -0.5026
  260SOL    HW1  779   2.067   0.890   0.826  3.0781 -2.2060  0.7800
  260SOL    HW2  780   2.182   0.913   0.709  1.7658 -0.6251 -2.5408
  261SOL     OW  781   0.795   0.237   0.722 -0.4521  0.3041  0.1335
  261SOL    HW1  782   0.804   0.226   0.617  0.3461 -0.2948 -1.5130
  261SOL    HW2  783   0.889   0.238   0.761  2.8152 -1.2205  0.5520
  262SOL     OW  784   2.202   2.459   2.515 -0.2906 -0.1899 -0.0681
  262SOL    HW1  785   2.235   2.536   2.454 -1.5181  1.5217 -0.0160
  262SOL    HW2  786   2.276   2.392   2.519 -1.6930  0.0835  1.7523
  263SOL     OW  787   0.477   1.629   2.971 -1.0274 -0.6126 -0.2333
  263SOL    HW1  788   0.478   1.567   2.888 -1.3964 -0.3347 -2.1661
  263SOL    HW2  789   0.399   1.691   2.975  0.5363 -2.7617 -1.2313
  264SOL     OW  790   0.257   1.683   1.314 -0.6796  0.2970  0.1012
  264SOL    HW1  791   0.156   1.691   1.335 -3.8245 -1.5844  2.9842
  264SOL    HW2  792   0.300   1.768   1.338  2.7943 -1.4630  0.4667
  265SOL     OW  793   0.992   0.617   0.568 -0.2028  0.2858 -0.4891
  265SOL    HW1  794   0.927   0.670   0.513 -0.4824  1.4581  2.1530
  265SOL    HW2  795   0.932   0.574   0.638 -0.5825 -0.4164  0.9508
  266SOL     OW  796   1.183   1.686   0.043 -0.5629  0.1839 -0.3780
  266SOL    HW1  797   1.271   1.695   0.091 -0.5761  0.9220 -1.1392
  266SOL    HW2  798   1.189   1.618   3.076 -1.4697 -0.3551  0.2632
  267SOL     OW  799   0.355   0.507   2.951 -0.0433  0.6000 -0.2402
  267SOL    HW1  800   0.353   0.407   2.942 -0.4014  1.4157 -0.6483
  267SOL    HW2  801   0.408   0.548   2.871  0.8301  0.4548 -4.2422
  268SOL     OW  802   0.976   0.517   2.820  0.1804  0.1977  0.8632
  268SOL    HW1  803   1.014   0.440   2.769  1.1380  3.2649  0.5067
  268SOL    HW2  804   0.924   0.583   2.766 -0.8602  0.0893  0.1133
  269SOL     OW  805   1.775   0.073   2.615  1.1282  0.8147  0.1257
  269SOL    HW1  806   1.752   0.010   2.539  3.5068 -0.8257  0.4754
  269SOL    HW2  807   1.713   0.152   2.613  0.3691 -1.6892  4.8546
  270SOL     OW  808   0.771   0.682   2.644 -0.2686 -0.3950 -0.5539
  270SOL    HW1  809   0.750   0.628   2.563  1.2150 -1.6148 -1.0690
  270SOL    HW2  810   0.851   0.744   2.631 -1.8097 -0.4144  1.0073
  271SOL     OW  811   0.169   0.862   0.256 -0.2557  0.1183 -0.3583
  271SOL    HW1  812   0.246   0.921   0.222 -3.6379 -0.6569 -0.8155
  271SOL    HW2  813   0.213   0.800   0.330  0.1152 -4.6124  3.1632
  272SOL     OW  814   2.311   1.301   2.464 -0.3664  0.2468 -0.0952
  272SOL    HW1  815   2.349   1.289   2.368 -2.4635  2.9700 -2.6058
  272SOL    HW2  816   2.348   1.232   2.527  0.5114  1.3492 -3.4615
  273SOL     OW  817   0.075   0.462   2.207  0.1854 -0.3963  0.0419
  273SOL    HW1  818   0.163   0.463   2.256  3.5176 -2.1663 -0.1937
  273SOL    HW2  819   0.091   0.496   2.110 -0.7566 -0.6739 -1.3318
  274SOL     OW  820   2.822   3.095   1.861  0.2157  1.0896  0.0695
  274SOL    HW1  821   2.756   3.047   1.919  3.0758  0.7850  1.4464
  274SOL    HW2  822   2.775   0.036   1.788  0.3940 -5.3275  2.6925
  275SOL     OW  823   1.843   1.461   0.296 -0.0186 -0.3561 -0.0104
  275SOL    HW1  824   1.822   1.454   0.198 -0.8941  0.9234 -0.8744
  275SOL    HW2  825   1.769   1.520   0.340 -2.9144 -1.0833  0.7837
  276SOL     OW  826   0.191   1.354   2.803  0.4933  0.3353  0.2144
  276SOL    HW1  827   0.173   1.445   2.840  0.5990 -0.4308 -2.9006
  276SOL    HW2  828   0.124   1.288   2.844 -0.0456 -0.8539  1.1874
  277SOL     OW  829   1.954   2.812   2.162 -0.5212 -0.1289  0.6069
  277SOL    HW1  830   2.024   2.742   2.126 -0.2489 -3.3757  2.1200
  277SOL    HW2  831   1.886   2.756   2.212  0.8069  0.6099  0.8490
  278SOL     OW  832   1.972   2.985   1.333  0.3037 -0.1999  0.7957
  278SOL    HW1  833   1.944   2.887   1.346  1.0409  3.0032 -1.6566
  278SOL    HW2  834   1.928   3.042   1.404  0.6956  0.4554 -0.3372
  279SOL     OW  835   1.025   1.232   2.818 -0.7095 -0.3441 -0.0031
  279SOL    HW1  836   1.115   1.283   2.828  2.4715  1.8954  1.9645
  279SOL    HW2  837   0.945   1.277   2.860 -1.6877 -3.5513  0.4876
  280SOL     OW  838   0.744   1.287   0.403  0.1750  0.0394 -0.1825
  280SOL    HW1  839   0.699   1.369   0.367 -2.0256 -0.7156 -1.2097
  280SOL    HW2  840   0.843   1.282   0.376  0.1119  1.3589  0.8450
  281SOL     OW  841   0.148   2.906   1.713 -0.3350  0.0443 -0.9214
  281SOL    HW1  842   0.082   2.931   1.789 -0.4036  1.6004 -0.2718
  281SOL    HW2  843   0.145   2.806   1.694 -0.1660 -2.2074 -2.5377
  282SOL     OW  844   0.294   2.120   1.084 -0.2613  0.7222 -0.1702
  282SOL    HW1  845   0.367   2.153   1.017  3.2011  1.7064  0.2710
  282SOL    HW2  846   0.249   2.031   1.058 -0.6700  0.7523 -2.1762
  283SOL     OW  847   1.243   2.197   2.263  0.5158  0.2345 -0.6113
  283SOL    HW1  848   1.170   2.262   2.239  1.5667 -1.0647 -0.4012
  283SOL    HW2  849   1.321   2.196   2.196 -1.3525 -0.3786  1.5149
  284SOL     OW  850   2.297   0.972   0.175  0.1973 -0.5141 -1.0028
  284SOL    HW1  851   2.344   0.972   0.268 -0.1166 -1.5962 -0.1260
  284SOL    HW2  852   2.361   1.011   0.110 -0.5390  2.0995  3.1048
  285SOL     OW  853   2.857   2.831   2.775  0.2327  0.0539 -0.0528
  285SOL    HW1  854   2.952   2.839   2.740  0.1853 -0.3693  0.4526
  285SOL    HW2  855   2.803   2.775   2.714  2.9238  0.0584  2.0910
  286SOL     OW  856   1.875   2.891   1.061 -0.2381 -0.0936  0.4017
  286SOL    HW1  857   1.858   2.992   1.077 -1.1257  2.8878 -0.5955
  286SOL    HW2  858   1.893   2.848   1.149 -2.0189  1.5591  1.2149
  287SOL     OW  859   0.559   1.128   1.245 -0.2674 -0.2093 -0.2246
  287SOL    HW1  860   0.657   1.108   1.212 -1.1184  1.0346  1.9507
  287SOL    HW2  861   0.558   1.145   1.345  1.0138  0.7019 -1.8584
  288SOL     OW  862   1.376   2.199   0.111  0.4613 -0.0031 -0.5680
  288SOL    HW1  863   1.344   2.241   0.200 -0.5606 -2.3135 -0.5703
  288SOL    HW2  864   1.453   2.130   0.128 -2.8076  1.6006 -3.0351
  289SOL     OW  865   0.235   2.012   2.433  0.2572  0.3863 -0.3427
  289SOL    HW1  866   0.300   2.088   2.409 -0.1041  2.8112  1.2907
  289SOL    HW2  867   0.261   1.917   2.409  0.3239  1.4099  1.4014
  290SOL     OW  868   1.333   2.094   1.018 -0.1539  0.4667 -0.2788
  290SOL    HW1  869   1.271   2.173   1.031  1.2768 -1.4000 -1.0896
  290SOL    HW2  870   1.305   2.046   0.934  0.2928  0.5447  0.7466
  291SOL     OW  871   1.663   1.506   2.912  0.7450 -1.0495  0.4577
  291SOL    HW1  872   1.744   1.462   2.875 -0.6549  1.7930  3.6168
  291SOL    HW2  873   1.640   1.596   2.871 -1.3574  0.1023  2.2605
  292SOL     OW  874   1.402   1.470   1.462  0.3455  0.8369 -0.0580
  292SOL    HW1  875   1.319   1.441   1.401 -2.3462 -1.3067 -0.7230
  292SOL    HW2  876   1.431   1.564   1.439 -0.2620 -1.2535  1.1338
  293SOL     OW  877   1.783   2.783   0.724  0.1006  0.1717 -0.2009
  293SOL    HW1  878   1.873   2.811   0.766 -0.0895  0.3261 -0.1287
  293SOL    HW2  879   1.781   2.680   0.723  2.4495  0.3831  2.8475
  294SOL     OW  880   0.191   1.269   2.417  0.1764  0.3111 -0.0652
  294SOL    HW1  881   0.169   1.368   2.397  1.1505  0.4977  0.3270
  294SOL    HW2  882   0.100   1.222   2.425 -1.9467  1.9951  1.4357
  295SOL     OW  883   0.981   2.029   2.855  0.1435 -0.2675  0.2836
  295SOL    HW1  884   1.001   2.130   2.861 -2.0376  0.1077 -0.9937
  295SOL    HW2  885   1.030   1.977   2.926  0.8485  1.9594  0.7077
  296SOL     OW  886   1.601   1.736   2.239 -0.7130 -0.6656 -0.4653
  296SOL    HW1  887   1.591   1.633   2.232  1.5330 -1.5147  0.4559
  296SOL    HW2  888   1.518   1.771   2.284  0.3839  0.0938  0.6900
  297SOL     OW  889   2.815   0.695   2.558  0.1427  0.0981 -0.0867
  297SOL    HW1  890   2.892   0.642   2.518  3.3511 -1.0732 -0.8131
  297SOL    HW2  891   2.738   0.689   2.492  1.5113 -1.6011  0.5781
  298SOL     OW  892   0.938   2.341   2.436  0.0283 -0.3380  0.0189
  298SOL    HW1  893   0.916   2.433   2.469 -1.6551 -3.5376 -2.5394
  298SOL    HW2  894   0.861   2.297   2.388  2.6516 -1.2331 -3.2538
  299SOL     OW  895   0.928   2.897   2.682  0.0624  0.5349 -0.5863
  299SOL    HW1  896   0.851   2.927   2.620  0.3087  0.5954 -2.1785
  299SOL    HW2  897   0.890   2.837   2.756  3.9073  0.2368  0.9308
  300SOL     OW  898   2.934   0.624   2.991 -0.7920  0.6005 -0.0286
  300SOL    HW1  899   2.932   0.521   2.996  2.4130 -2.8220 -0.0351
  300SOL    HW2  900   3.028   0.648   2.955 -1.8323 -0.6436  2.9036
  301SOL     OW  901   1.245   0.741   1.431  0.2198  0.6917  0.0557
  301SOL    HW1  902   1.254   0.688   1.348 -0.9306  3.1602  0.3289
  301SOL    HW2  903   1.194   0.826   1.407  2.9131  0.4451 -0.3434
  302SOL     OW  904   2.979   1.870   2.715  0.5840 -0.0693 -0.1178
  302SOL    HW1  905   3.021   1.920   2.635  1.5921 -0.1626 -1.4265
  302SOL    HW2  906   3.022   1.780   2.743  1.0259 -1.1274  1.0875
  303SOL     OW  907   3.090   3.098   2.464 -0.2818 -0.8234 -0.4961
  303SOL    HW1  908   3.043   3.066   2.384 -0.0040  0.4267 -0.2327
  303SOL    HW2  909   3.056   0.083   2.494 -0.7111 -0.4818 -1.0210
  304SOL     OW  910   2.887   0.567   1.727 -0.2552  0.3081  0.0332
  304SOL    HW1  911   2.857   0.549   1.633 -1.2575  0.0497  2.2040
  304SOL    HW2  912   2.954   0.645   1.737  2.3561 -3.9700 -0.2322
  305SOL     OW  913   0.149   3.086   2.091 -0.4149  0.8828  0.1578
  305SOL    HW1  914   0.122   3.082   1.995 -3.4724  2.7472  0.0740
  305SOL    HW2  915   0.064   3.070   2.145 -0.0280  1.9710  0.7288
  306SOL     OW  916   2.690   1.345   1.296  0.1318  0.5434 -0.1129
  306SOL    HW1  917   2.764   1.278   1.313 -0.0179  0.7533  0.7048
  306SOL    HW2  918   2.634   1.344   1.382  0.3872 -0.2451 -0.1018
  307SOL     OW  919   2.043   0.314   1.248  0.1931 -0.3535  0.2164
  307SOL    HW1  920   2.018   0.407   1.215 -1.9407  1.5141 -0.8143
  307SOL    HW2  921   1.963   0.276   1.295 -0.8664  0.1421 -0.8046
  308SOL     OW  922   0.186   2.085   1.333 -0.0696 -0.0438  0.1663
  308SOL    HW1  923   0.244   2.103   1.248 -0.7182  1.0324 -0.4850
  308SOL    HW2  924   0.128   2.164   1.346  2.3245 -0.4789 -2.2527
  309SOL     OW  925   2.388   1.731   1.413  0.7142 -0.3270  0.4375
  309SOL    HW1  926   2.452   1.669   1.364 -1.1482 -1.5586 -0.3152
  309SOL    HW2  927   2.419   1.827   1.420 -0.4257  0.9288  0.6909
  310SOL     OW  928   2.813   1.598   0.177 -0.4808  0.0695 -0.6734
  310SOL    HW1  929   2.841   1.683   0.126  0.7673  0.7455 -0.9861
  310SOL    HW2  930   2.748   1.606   0.256 -0.1618 -2.5763 -1.5247
  311SOL     OW  931   2.339   1.603   2.421 -0.1172 -0.4543  0.6074
  311SOL    HW1  932   2.277   1.533   2.460 -0.2187 -2.0709 -2.4329
  311SOL    HW2  933   2.331   1.688   2.474  0.7903 -2.1171 -0.0893
  312SOL     OW  934   2.340   2.490   0.801  0.1020 -0.4104  0.8587
  312SOL    HW1  935   2.405   2.416   0.822  1.6688  0.8169  2.1683
  312SOL    HW2  936   2.279   2.459   0.728  0.1172  1.7874  1.5218
  313SOL     OW  937   3.081   2.594   1.112 -0.5642  0.6423  0.2204
  313SOL    HW1  938   0.044   2.521   1.100  1.6096  1.4461 -0.1097
  313SOL    HW2  939   2.992   2.558   1.083  0.8739 -0.4754 -1.4549
  314SOL     OW  940   1.244   2.132   1.314 -0.2552  0.3401 -0.1805
  314SOL    HW1  941   1.296   2.056   1.267  2.2654 -1.6611 -2.5541
  314SOL    HW2  942   1.204   2.102   1.402 -2.5819 -1.3450 -2.3724
  315SOL     OW  943   0.252   2.878   2.251  0.5605 -0.2613  0.6004
  315SOL    HW1  944   0.216   2.937   2.175 -0.3078 -1.8928 -1.0591
  315SOL    HW2  945   0.261   2.932   2.338 -2.2923 -1.1336 -3.0311
  316SOL     OW  946   2.924   1.910   0.963 -0.2969 -0.7701  0.0443
  316SOL    HW1  947   2.973   1.888   0.875  1.0628 -1.4292  2.5321
  316SOL    HW2  948   2.989   1.943   1.032 -3.4891 -0.5650 -0.3499
  317SOL     OW  949   1.853   0.014   0.372 -0.1764  0.3888  1.0441
  317SOL    HW1  950   1.801   0.097   0.356  0.5741  0.1231 -0.2894
  317SOL    HW2  951   1.859   3.104   0.467  1.5988  3.1157 -1.0074
  318SOL     OW  952   2.854   2.702   0.290 -0.1621  0.1391  0.1949
  318SOL    HW1  953   2.837   2.719   0.189  0.4196 -3.7580 -0.1854
  318SOL    HW2  954   2.793   2.766   0.343 -2.4160  1.1752  3.8071
  319SOL     OW  955   1.308   1.423   0.244  0.1645 -0.3354  0.2159
  319SOL    HW1  956   1.363   1.504   0.274 -0.2085  1.1620  0.0641
  319SOL    HW2  957   1.279   1.426   0.146 -1.0566  1.5253  0.9267
  320SOL     OW  958   0.592   3.008   2.717 -0.7866 -0.3074 -0.8578
  320SOL    HW1  959   0.610   3.007   2.617 -2.4904  1.7980  2.6189
  320SOL    HW2  960   0.515   2.946   2.726  2.8117  2.5183  0.4572
  321SOL     OW  961   0.969   0.134   0.171 -0.1197 -0.1648 -0.3904
  321SOL    HW1  962   0.992   0.120   0.269  0.1417  1.8588  0.0091
  321SOL    HW2  963   0.980   0.048   0.120 -0.6792  0.2485  2.7347
  322SOL     OW  964   2.416   1.103   1.865  0.2320 -0.1033  0.2556
  322SOL    HW1  965   2.346   1.115   1.937 -0.3827  0.6831  0.6014
  322SOL    HW2  966   2.443   1.196   1.833 -1.2199 -1.5816  1.3851
  323SOL     OW  967   2.443   0.927   0.414 -0.6117 -0.1639  0.1515
  323SOL    HW1  968   2.504   0.848   0.402 -2.1154 -0.3518  0.3540
  323SOL    HW2  969   2.496   1.008   0.379  0.9695 -1.3757  0.8579
  324SOL     OW  970   0.047   0.496   2.641 -0.2706 -0.4805  0.2331
  324SOL    HW1  971   0.048   0.544   2.729  0.2101  0.6964 -0.7858
  324SOL    HW2  972   0.146   0.488   2.614  1.2284  2.7510  1.0617
  325SOL     OW  973   1.466   2.927   2.076  0.0843 -0.0700  0.6064
  325SOL    HW1  974   1.532   2.903   2.005 -0.0113  1.7818 -1.0857
  325SOL    HW2  975   1.370   2.890   2.059 -1.9294  1.1915  1.2597
  326SOL     OW  976   2.489   2.984   1.559 -0.0016 -0.1259  0.2264
  326SOL    HW1  977   2.466   3.086   1.564 -1.2388  1.6060  0.6365
  326SOL    HW2  978   2.556   2.976   1.480  1.1503  2.0608 -0.6614
  327SOL     OW  979   1.869   0.785   0.009  0.5697  0.2697 -0.4266
  327SOL    HW1  980   1.827   0.717   0.075 -1.4714 -2.6502  0.4604
  327SOL    HW2  981   1.950   0.750   3.065 -0.1021  1.3580  0.1213
  328SOL     OW  982   2.894   1.554   2.198  0.0022  0.1921 -0.2128
  328SOL    HW1  983   2.946   1.465   2.192  0.5663  1.5853 -1.7998
  328SOL    HW2  984   2.938   1.606   2.274  0.1643  0.6406  1.5208
  329SOL     OW  985   1.451   2.536   1.719  0.5982  0.0117 -0.1562
  329SOL    HW1  986   1.493   2.594   1.790  1.1831 -0.4468  2.4044
  329SOL    HW2  987   1.503   2.540   1.630 -0.3235  1.9497 -1.0171
  330SOL     OW  988   2.655   1.612   1.761  0.0087  0.3087  0.3555
  330SOL    HW1  989   2.705   1.664   1.688 -1.6108  0.9805  0.7080
  330SOL    HW2  990   2.670   1.642   1.858  1.0385 -1.7685  1.3258
  331SOL     OW  991   3.095   2.124   0.641  0.5807  0.0122 -0.4261
  331SOL    HW1  992   3.090   2.027   0.678  3.5353 -4.6827 -2.4108
  331SOL    HW2  993   0.075   2.146   0.588  0.3315  1.8371  0.4132
  332SOL     OW  994   0.486   0.194   0.648 -0.0303 -0.2756  0.7076
  332SOL    HW1  995   0.440   0.277   0.685 -0.6993 -0.6958  2.3085
  332SOL    HW2  996   0.474   0.104   0.696  0.4533 -0.3174 -0.9530
  333SOL     OW  997   2.188   2.898   2.313 -0.1243 -0.6459 -0.3408
  333SOL    HW1  998   2.117   2.906   2.241  0.0718  0.6105  2.5582
  333SOL    HW2  999   2.226   2.995   2.335  0.7596  3.8134  0.2281
  334SOL     OW 1000   1.137   1.383   1.007 -0.2470 -0.0454  0.1009
  334SOL    HW1 1001   1.136   1.368   0.904 -0.3610  0.0157  3.9997
  334SOL    HW2 1002   1.181   1.476   1.024 -1.5177  1.0935  0.2707
  335SOL     OW 1003   3.066   2.655   2.421  0.0936 -0.0425 -0.0514
  335SOL    HW1 1004   0.022   2.578   2.409  1.3818  0.5404  0.0288
  335SOL    HW2 1005   3.101   2.732   2.486 -1.1066  0.1399  2.5653
  336SOL     OW 1006   2.844   2.551   2.061  0.2005 -0.2221 -0.0633
  336SOL    HW1 1007   2.918   2.602   2.100 -1.5304  0.3765 -0.7085
  336SOL    HW2 1008   2.852   2.543   1.961  1.5245  2.1695 -0.0785
  337SOL     OW 1009   2.056   1.526   0.682 -0.2434 -0.2994  0.2359
  337SOL    HW1 1010   2.131   1.518   0.746  0.7842 -0.9898  0.5887
  337SOL    HW2 1011   1.993   1.445   0.685  1.5470  0.6013  2.0806
  338SOL     OW 1012   1.174   1.689   1.354  0.2801  0.6179 -0.5931
  338SOL    HW1 1013   1.125   1.708   1.438  0.3890  0.9513 -4.2873
  338SOL    HW2 1014   1.273   1.687   1.374  0.4362 -1.0964  0.7390
  339SOL     OW 1015   2.997   0.471   1.411 -0.9515 -0.3591  0.0013
  339SOL    HW1 1016   3.069   0.547   1.419 -1.8479  2.6857  2.6615
  339SOL    HW2 1017   2.904   0.509   1.418  2.0080  0.2981 -1.1694
  340SOL     OW 1018   1.615   2.697   1.892  0.1866  0.1559  0.1809
  340SOL    HW1 1019   1.584   2.643   1.972  1.4244  0.3122  0.3972
  340SOL    HW2 1020   1.704   2.738   1.903  0.0837 -1.0789  0.6103
  341SOL     OW 1021   2.212   1.449   0.927  0.0974 -0.5839 -0.4087
  341SOL    HW1 1022   2.293   1.493   0.977 -2.9218  0.2126  0.9281
  341SOL    HW2 1023   2.122   1.477   0.968 -0.9357  1.2432  1.2142
  342SOL     OW 1024   0.012   1.895   0.786 -0.0804  0.2318 -0.3200
  342SOL    HW1 1025   0.058   1.927   0.871 -0.5249  2.0507 -0.6862
  342SOL    HW2 1026   0.071   1.835   0.732 -2.5451  1.3214  0.7724
  343SOL     OW 1027   2.447   1.004   1.363 -0.3193  0.2367  0.2985
  343SOL    HW1 1028   2.369   1.052   1.409 -0.9374 -0.8683  1.1097
  343SOL    HW2 1029   2.503   0.957   1.433 -1.7709 -2.6681  0.5882
  344SOL     OW 1030   2.159   0.396   0.814  0.3648 -0.0741  0.0022
  344SOL    HW1 1031   2.229   0.465   0.836  1.7136 -2.4591  1.0380
  344SOL    HW2 1032   2.173   0.340   0.733 -0.3673 -0.1431 -0.1327
  345SOL     OW 1033   3.036   2.691   2.170 -0.1511 -0.3344  0.3005
  345SOL    HW1 1034   3.058   2.673   2.269 -1.5412 -1.7220 -0.3231
  345SOL    HW2 1035   3.056   2.792   2.146  0.0932  1.4317 -1.0927
  346SOL     OW 1036   0.050   1.308   0.443  0.0047 -0.0019  0.1540
  346SOL    HW1 1037   3.103   1.222   0.455 -0.5153  1.2429 -0.9038
  346SOL    HW2 1038   0.019   1.351   0.352 -1.0395 -0.3692 -1.7848
  347SOL     OW 1039   1.817   2.789   1.480  0.1432  0.5266 -0.2049
  347SOL    HW1 1040   1.840   2.835   1.565 -1.7576 -0.6084 -1.9074
  347SOL    HW2 1041   1.731   2.742   1.491 -1.4503  1.7492  0.7812
  348SOL     OW 1042   1.165   1.093   1.948 -0.3712  0.2802 -0.8580
  348SOL    HW1 1043   1.260   1.114   1.926 -1.3417  1.9156  3.9317
  348SOL    HW2 1044   1.116   1.172   1.988  1.4901 -1.2894  1.2524
  349SOL     OW 1045   2.212   1.700   2.193  0.5061 -0.5934 -0.2952
  349SOL    HW1 1046   2.259   1.667   2.283  0.5879  1.5965  2.0040
  349SOL    HW2 1047   2.253   1.789   2.170 -1.4245  0.0410 -0.0195
  350SOL     OW 1048   2.816   2.120   0.585  0.2228 -0.6051 -0.2797
  350SOL    HW1 1049   2.762   2.203   0.612  1.4594 -0.8543  0.9364
  350SOL    HW2 1050   2.912   2.125   0.620 -2.7571 -0.1658  0.4094
  351SOL     OW 1051   0.431   0.329   1.727 -0.3072 -0.2612  0.2252
  351SOL    HW1 1052   0.387   0.238   1.718 -2.8963  1.0752 -0.7929
  351SOL    HW2 1053   0.398   0.376   1.810 -0.1469  0.4011  1.8422
  352SOL     OW 1054   1.163   2.863   1.719 -0.0587  0.4031 -0.0425
  352SOL    HW1 1055   1.121   2.863   1.626  1.5052 -0.3987  0.3423
  352SOL    HW2 1056   1.262   2.884   1.713  0.8177  0.0847  0.4023
  353SOL     OW 1057   0.735   1.322   2.679 -0.0038  0.3014  0.0996
  353SOL    HW1 1058   0.815   1.293   2.625 -1.3114  0.0436  0.3146
  353SOL    HW2 1059   0.653   1.310   2.616 -2.6471 -0.1509 -0.0436
  354SOL     OW 1060   1.472   1.655   0.279  0.2859  0.4735  0.1874
  354SOL    HW1 1061   1.545   1.669   0.347 -0.5571 -1.2134 -2.6184
  354SOL    HW2 1062   1.500   1.705   0.195 -0.2088  1.0830  0.3363
  355SOL     OW 1063   1.899   0.151   0.831 -0.8121 -0.4072 -0.5355
  355SOL    HW1 1064   1.818   0.177   0.886  0.1642  1.8597 -1.2853
  355SOL    HW2 1065   1.977   0.134   0.899  0.7624  0.4996  2.3341
  356SOL     OW 1066   0.054   1.397   0.075  0.8508  0.3400 -0.0347
  356SOL    HW1 1067   0.141   1.347   0.077 -1.4878  1.7055  3.2721
  356SOL    HW2 1068   3.079   1.346   0.113  0.2775 -3.0866 -1.2984
  357SOL     OW 1069   0.302   0.087   1.738 -0.2298  0.4247 -0.0868
  357SOL    HW1 1070   0.379   0.050   1.795 -0.5092 -0.1775 -0.4126
  357SOL    HW2 1071   0.210   0.066   1.782 -0.7854  1.3611  1.2632
  358SOL     OW 1072   0.369   1.237   2.993 -0.3102 -0.0969  0.1208
  358SOL    HW1 1073   0.302   1.272   2.928  3.0117 -0.1753 -2.0501
  358SOL    HW2 1074   0.346   1.260   3.092 -1.4971  2.3583  0.8255
  359SOL     OW 1075   2.729   2.663   2.624  0.1963 -0.1526 -0.1907
  359SOL    HW1 1076   2.646   2.612   2.641  0.7136  0.1190 -0.0932
  359SOL    HW2 1077   2.728   2.695   2.526 -0.9869  0.5264 -0.2950
  360SOL     OW 1078   1.535   1.193   0.935  0.1907 -0.0817 -0.6998
  360SOL    HW1 1079   1.447   1.236   0.898 -0.0240  0.2694 -0.7615
  360SOL    HW2 1080   1.530   1.098   0.975 -0.4502 -0.9883  0.6130
  361SOL     OW 1081   2.199   2.509   1.022  0.0412 -0.3615  0.3451
  361SOL    HW1 1082   2.262   2.499   0.940  0.0188  1.0232  1.1834
  361SOL    HW2 1083   2.206   2.600   1.063 -1.2732  0.0081  1.7281
  362SOL     OW 1084   1.973   1.512   1.024 -0.5481 -0.0860  0.4872
  362SOL    HW1 1085   1.967   1.604   0.982 -1.2601 -1.7177 -2.8863
  362SOL    HW2 1086   1.888   1.459   1.017  2.6131 -1.9935 -0.1464
  363SOL     OW 1087   2.436   2.273   0.194  0.0394  0.1224  0.1109
  363SOL    HW1 1088   2.388   2.200   0.252 -1.5445  0.2662 -0.2030
  363SOL    HW2 1089   2.498   2.226   0.125 -0.3587 -4.3516 -0.2810
  364SOL     OW 1090   2.671   3.032   1.367  0.1764  0.2525 -0.2449
  364SOL    HW1 1091   2.667   0.027   1.355  2.6815 -2.1278  1.7292
  364SOL    HW2 1092   2.767   3.004   1.389 -0.4910 -1.3504  0.0300
  365SOL     OW 1093   0.747   2.962   1.165  0.5358  0.2832 -0.8445
  365SOL    HW1 1094   0.745   2.915   1.077  0.5975  3.5567  2.3415
  365SOL    HW2 1095   0.770   2.901   1.246 -0.7745 -0.8566  0.3825
  366SOL     OW 1096   3.085   1.729   0.424 -0.3043  0.8430  0.2615
  366SOL    HW1 1097   3.024   1.806   0.394  2.3303  0.4773 -3.9149
  366SOL    HW2 1098   0.015   1.671   0.347  1.3541 -0.8933  1.1216
  367SOL     OW 1099   2.476   2.513   2.679 -0.1071  1.1299  0.5539
  367SOL    HW1 1100   2.400   2.573   2.652  1.6671  1.6122  1.5917
  367SOL    HW2 1101   2.447   2.430   2.728 -3.0366  0.6133 -2.6110
  368SOL     OW 1102   2.472   2.210   0.813  0.1541  0.3280  0.1820
  368SOL    HW1 1103   2.395   2.163   0.855  4.6275  0.5823 -0.2190
  368SOL    HW2 1104   2.561   2.167   0.848 -0.3840 -0.3306 -0.9514
  369SOL     OW 1105   0.985   1.090   0.674 -0.1888  0.7200  0.1673
  369SOL    HW1 1106   0.907   1.046   0.719 -0.8475 -0.3387 -1.4973
  369SOL    HW2 1107   0.998   1.059   0.577  3.0210 -0.6439 -0.3004
  370SOL     OW 1108   0.439   3.070   0.877 -0.7021  0.3517 -0.0671
  370SOL    HW1 1109   0.535   3.085   0.906 -0.9278 -0.1494  0.6431
  370SOL    HW2 1110   0.426   2.976   0.841  0.8336  0.8860 -0.8199
  371SOL     OW 1111   2.613   1.284   2.717 -0.2252  0.1654 -0.4278
  371SOL    HW1 1112   2.676   1.236   2.654 -0.2031 -0.1529 -0.1440
  371SOL    HW2 1113   2.528   1.227   2.723  0.7038  0.4306 -0.7417
  372SOL     OW 1114   0.689   0.559   2.393 -0.0975 -0.1735  0.0303
  372SOL    HW1 1115   0.622   0.622   2.346  1.0152 -0.4320 -0.7504
  372SOL    HW2 1116   0.653   0.459   2.389 -0.1627 -1.3115  0.9972
  373SOL     OW 1117   0.641   0.525   2.835 -0.3806  0.3474  0.5255
  373SOL    HW1 1118   0.707   0.543   2.759  1.5566 -3.5430 -1.6165
  373SOL    HW2 1119   0.638   0.421   2.852 -2.5797 -3.1657 -0.4263
  374SOL     OW 1120   0.951   2.082   0.074 -0.0103 -0.3535 -0.0932
  374SOL    HW1 1121   1.013   2.015   0.027 -1.3583 -0.9280 -2.8075
  374SOL    HW2 1122   0.853   2.064   0.053  2.0726 -0.2540  1.0063
  375SOL     OW 1123   0.705   0.026   0.883  0.2538  0.2796  0.3791
  375SOL    HW1 1124   0.782   0.046   0.947 -1.0119  0.2742  0.8608
  375SOL    HW2 1125   0.685   0.105   0.823  2.1055 -1.0370  0.8256
  376SOL     OW 1126   0.278   2.508   1.810  0.2796  0.0062 -0.7738
  376SOL    HW1 1127   0.216   2.559   1.875 -1.7756  2.3203  1.1873
  376SOL    HW2 1128   0.326   2.572   1.746 -1.1508 -0.9461  3.3624
  377SOL     OW 1129   2.455   2.033   2.941  0.2118 -0.1363 -0.0188
  377SOL    HW1 1130   2.359   2.059   2.934  1.3579  1.0029  1.3061
  377SOL    HW2 1131   2.476   1.937   2.910  0.9030 -2.0411 -0.2018
  378SOL     OW 1132   1.890   0.329   0.621  0.1783  0.7453 -0.5956
  378SOL    HW1 1133   1.990   0.348   0.607  1.5018 -0.4183 -0.8996
  378SOL    HW2 1134   1.883   0.257   0.688 -1.0453  1.1929 -2.0275
  379SOL     OW 1135   1.244   0.951   0.656 -0.0130 -0.9678  0.4494
  379SOL    HW1 1136   1.154   0.987   0.690 -1.4211  1.6352  0.8266
  379SOL    HW2 1137   1.252   0.975   0.556 -1.1729  1.3124 -1.2156
  380SOL     OW 1138   2.420   2.152   1.791  0.0280 -0.0911 -0.7403
  380SOL    HW1 1139   2.478   2.067   1.767 -1.9789 -2.6852  1.3130
  380SOL    HW2 1140   2.464   2.242   1.765 -0.0708 -0.7598  0.1240
  381SOL     OW 1141   2.983   1.291   2.203  0.0619  0.1899  0.0787
  381SOL    HW1 1142   3.001   1.230   2.283  0.9946 -0.0849  1.0446
  381SOL    HW2 1143   3.006   1.244   2.115  0.7713 -1.2508 -4.5241
  382SOL     OW 1144   2.888   2.316   0.197 -0.1183  0.2105 -0.0220
  382SOL    HW1 1145   2.929   2.226   0.224 -0.6321 -0.8191  1.3446
  382SOL    HW2 1146   2.864   2.364   0.283 -2.5594 -1.2508 -0.4066
  383SOL     OW 1147   1.448   0.945   2.228  0.1109  0.4365 -0.2514
  383SOL    HW1 1148   1.355   0.954   2.195  2.3513  0.5504  2.0913
  383SOL    HW2 1149   1.445   0.914   2.327 -0.7001 -1.1081 -0.5763
  384SOL     OW 1150   1.154   2.199   2.515 -0.3713 -0.1185  0.3763
  384SOL    HW1 1151   1.203   2.183   2.424  1.0575 -2.7737 -1.1182
  384SOL    HW2 1152   1.065   2.244   2.501 -2.3043  0.6167  1.6842
  385SOL     OW 1153   2.098   2.352   3.025  0.2912  0.2586  0.6104
  385SOL    HW1 1154   2.085   2.368   2.926 -0.4468 -3.4904 -1.3578
  385SOL    HW2 1155   2.162   2.422   3.058 -0.2998  0.8595  1.1966
  386SOL     OW 1156   1.707   1.279   0.529  0.0863  0.3094  0.0106
  386SOL    HW1 1157   1.667   1.357   0.579 -0.0118  0.1741  0.6298
  386SOL    HW2 1158   1.660   1.191   0.553 -1.5325  0.1131  1.5527
  387SOL     OW 1159   2.977   1.477   1.426  0.3915 -0.2823  0.3720
  387SOL    HW1 1160   2.948   1.488   1.521  1.6646 -1.2894 -3.9067
  387SOL    HW2 1161   2.958   1.382   1.390 -1.3672 -3.8932 -2.7456
  388SOL     OW 1162   0.427   1.008   1.588 -0.3687 -0.1949 -0.1853
  388SOL    HW1 1163   0.478   1.078   1.534  1.5711  2.0043 -2.6472
  388SOL    HW2 1164   0.419   0.924   1.535  0.6939 -1.2671 -2.8161
  389SOL     OW 1165   2.257   1.159   2.085  0.4914  0.2692 -0.1093
  389SOL    HW1 1166   2.315   1.104   2.148  0.5346  0.6292  1.9809
  389SOL    HW2 1167   2.158   1.156   2.116 -2.8222 -1.1303 -1.6544
  390SOL     OW 1168   1.264   1.856   0.483  0.3071 -0.1979  0.1095
  390SOL    HW1 1169   1.339   1.912   0.525  0.5544  2.9016  0.7971
  390SOL    HW2 1170   1.216   1.798   0.558  0.5803 -1.3778  1.2978
  391SOL     OW 1171   1.160   1.975   0.814  0.4454  0.1002 -0.5381
  391SOL    HW1 1172   1.220   1.890   0.819  0.1220 -0.1131 -0.6425
  391SOL    HW2 1173   1.062   1.945   0.836 -1.1626 -0.2674 -1.4187
  392SOL     OW 1174   2.595   2.586   2.079 -0.1551 -0.0654  0.1352
  392SOL    HW1 1175   2.581   2.561   2.180  0.7893  2.5957 -1.6332
  392SOL    HW2 1176   2.691   2.565   2.050 -0.4163 -0.3515 -2.8202
  393SOL     OW 1177   1.279   2.146   2.956 -0.4417 -0.5773 -0.2704
  393SOL    HW1 1178   1.283   2.214   2.874  1.8903 -0.9216 -1.6291
  393SOL    HW2 1179   1.310   2.194   3.045  0.8149 -4.0235 -1.5264
  394SOL     OW 1180   0.333   0.411   2.293 -0.2233 -0.7171  0.1436
  394SOL    HW1 1181   0.387   0.484   2.247  3.7113 -0.3473 -3.2790
  394SOL    HW2 1182   0.328   0.323   2.244  2.3634 -1.3105  1.5923
  395SOL     OW 1183   0.073   0.904   1.068  0.0437 -0.3212 -0.0253
  395SOL    HW1 1184   0.141   0.929   1.136  1.2818  2.0173  0.5662
  395SOL    HW2 1185   0.105   0.833   1.004  2.9818 -1.1520 -0.5568
  396SOL     OW 1186   2.227   1.522   2.689 -0.4787 -0.3029  0.0404
  396SOL    HW1 1187   2.172   1.439   2.673  0.0433  0.1664 -0.2723
  396SOL    HW2 1188   2.175   1.611   2.688  0.3923 -1.1322 -1.2823
  397SOL     OW 1189   0.204   0.886   3.020  0.4398  0.2073  0.3892
  397SOL    HW1 1190   0.279   0.903   3.085 -0.6814 -2.5608 -1.2429
  397SOL    HW2 1191   0.229   0.934   2.930  1.9639 -1.2890 -0.0290
  398SOL     OW 1192   0.932   2.535   0.536 -0.1355  0.1842  0.5498
  398SOL    HW1 1193   1.031   2.532   0.541 -0.9050 -1.4033 -0.7223
  398SOL    HW2 1194   0.892   2.627   0.519  0.2848  0.6202  2.6961
  399SOL     OW 1195   2.149   2.638   2.092 -0.4922 -0.3290  0.1403
  399SOL    HW1 1196   2.205   2.629   2.180  0.7906  1.4341 -1.2511
  399SOL    HW2 1197   2.133   2.553   2.036 -0.6827 -3.3217 -2.2352
  400SOL     OW 1198   0.113   1.400   1.723 -0.1332 -0.0256 -0.3075
  400SOL    HW1 1199   0.160   1.362   1.811  2.4245 -0.6767  2.5767
  400SOL    HW2 1200   0.183   1.452   1.676 -1.6043  0.3039 -1.0103
  401SOL     OW 1201   0.777   1.071   0.837 -0.1921  0.1419  0.0280
  401SOL    HW1 1202   0.695   1.020   0.871  0.1598  0.4224 -2.4925
  401SOL    HW2 1203   0.753   1.156   0.785 -3.3048  1.9774  4.4425
  402SOL     OW 1204   0.868   2.994   2.223 -0.0605  0.4987 -0.7624
  402SOL    HW1 1205   0.955   3.043   2.248  0.3108  2.0500  0.4170
  402SOL    HW2 1206   0.849   2.973   2.124  1.3819 -0.9781 -3.2141
  403SOL     OW 1207   2.547   1.919   1.739 -0.1845 -0.1460  0.4002
  403SOL    HW1 1208   2.503   1.861   1.805  0.9607 -1.3252  1.4876
  403SOL    HW2 1209   2.602   1.857   1.677 -1.6270 -2.5369  0.8440
  404SOL     OW 1210   2.670   2.349   1.802  0.4239 -0.1235  0.8340
  404SOL    HW1 1211   2.729   2.297   1.868 -0.3496 -0.6454  4.5951
  404SOL    HW2 1212   2.721   2.378   1.717 -5.0641  1.4451  0.5811
  405SOL     OW 1213   2.005   0.011   2.725  0.1586  0.0168  0.6654
  405SOL    HW1 1214   2.030   3.021   2.702 -3.1369 -0.0032  1.3433
  405SOL    HW2 1215   1.913   0.034   2.686 -3.4845 -0.6038 -2.1363
  406SOL     OW 1216   1.080   1.803   0.282 -0.3219  0.4816 -0.4406
  406SOL    HW1 1217   1.120   1.765   0.198 -3.3592  2.3851  1.8391
  406SOL    HW2 1218   1.151   1.833   0.351 -0.9961 -3.1304 -0.0629
  407SOL     OW 1219   1.500   1.254   0.319 -0.0440  0.5969  0.1130
  407SOL    HW1 1220   1.439   1.311   0.267 -0.4588 -2.9776 -0.1438
  407SOL    HW2 1221   1.570   1.305   0.367 -1.6744 -1.4728  2.2309
  408SOL     OW 1222   0.380   0.572   1.608 -0.0975 -0.2556  0.1586
  408SOL    HW1 1223   0.379   0.475   1.623  0.3271  3.4400  0.3610
  408SOL    HW2 1224   0.460   0.613   1.648 -1.2237  0.7015 -3.0869
  409SOL     OW 1225   2.772   1.392   0.014  0.2624  0.0037  0.7495
  409SOL    HW1 1226   2.668   1.377   0.019 -1.3777 -0.6197  1.9257
  409SOL    HW2 1227   2.805   1.481   0.054  0.3539  1.1112 -1.0567
  410SOL     OW 1228   2.893   2.758   0.706  0.1716 -0.0101  0.0022
  410SOL    HW1 1229   2.933   2.794   0.798 -0.1074  0.0974  2.3471
  410SOL    HW2 1230   2.852   2.664   0.714 -0.2728  1.4519  1.1701
  411SOL     OW 1231   0.539   0.636   0.590  0.0840 -0.8353  0.2256
  411SOL    HW1 1232   0.605   0.710   0.614 -0.5884 -0.8288 -1.3061
  411SOL    HW2 1233   0.573   0.545   0.613  1.3508 -1.7690 -0.8323
  412SOL     OW 1234   1.326   2.874   0.525 -0.2889 -0.2313  0.5925
  412SOL    HW1 1235   1.263   2.925   0.455  0.4133  1.6882  0.6464
  412SOL    HW2 1236   1.315   2.772   0.526 -1.2536 -2.6324  2.1208
  413SOL     OW 1237   1.912   0.553   2.029 -0.0783  0.0669 -0.5898
  413SOL    HW1 1238   1.960   0.459   2.034  1.2169 -2.7369  0.3614
  413SOL    HW2 1239   1.836   0.548   1.959 -1.4482  2.8529  1.5682
  414SOL     OW 1240   0.022   0.721   0.532  0.3410 -0.3583  0.3360
  414SOL    HW1 1241   3.051   0.732   0.464 -1.8044 -0.7968 -2.7652
  414SOL    HW2 1242   0.054   0.808   0.571 -1.1932  1.7014 -0.0953
  415SOL     OW 1243   2.820   1.025   0.431  0.8119 -0.4496  0.4260
  415SOL    HW1 1244   2.724   1.055   0.402 -3.5963  1.3702 -0.4979
  415SOL    HW2 1245   2.820   1.011   0.530  0.4591 -0.5655 -0.1071
  416SOL     OW 1246   2.458   0.587   2.745  0.3179  0.3351  0.7230
  416SOL    HW1 1247   2.424   0.629   2.656  1.3651 -0.3806 -1.0435
  416SOL    HW2 1248   2.557   0.618   2.758  4.8473  1.7431  0.8596
  417SOL     OW 1249   2.234   0.204   0.594 -0.4542 -0.0678 -0.1389
  417SOL    HW1 1250   2.266   0.117   0.548 -2.2421 -2.0869 -1.1480
  417SOL    HW2 1251   2.246   0.278   0.525  0.0796 -1.7607 -0.5170
  418SOL     OW 1252   0.480   0.138   0.087 -0.3711  0.0634  0.1727
  418SOL    HW1 1253   0.522   0.219   0.137 -2.4859  0.3855  1.1950
  418SOL    HW2 1254   0.386   0.133   0.109  2.1406 -0.4793 -2.3930
  419SOL     OW 1255   0.536   0.704   1.079  0.5766  0.3202  0.7173
  419SOL    HW1 1256   0.569   0.702   1.172 -2.4619  1.8750  0.5776
  419SOL    HW2 1257   0.542   0.610   1.032  0.3536 -0.5609  1.7942
  420SOL     OW 1258   2.927   0.789   1.184 -0.5713  0.3908  0.4779
  420SOL    HW1 1259   3.020   0.819   1.143  2.6791  2.5767 -0.4671
  420SOL    HW2 1260   2.855   0.859   1.171  0.3939 -2.0114  1.1544
  421SOL     OW 1261   0.745   1.677   3.056 -0.1231 -0.3109 -0.4555
  421SOL    HW1 1262   0.654   1.645   3.019  1.1372  0.8911  0.5153
  421SOL    HW2 1263   0.753   1.779   3.073  2.4164  1.1554 -1.2509
  422SOL     OW 1264   2.556   0.258   2.131 -0.2379  0.1976  0.2220
  422SOL    HW1 1265   2.624   0.321   2.171 -1.9647 -0.4893  0.2990
  422SOL    HW2 1266   2.463   0.297   2.130  0.4461  0.1601 -2.4775
  423SOL     OW 1267   1.824   1.423   0.020 -0.0605  0.0089 -0.6008
  423SOL    HW1 1268   1.908   1.475   0.002 -1.6635 -0.9702 -1.3820
  423SOL    HW2 1269   1.747   1.466   3.078 -1.2155  0.0911  2.0570
  424SOL     OW 1270   1.325   1.440   2.276  0.4455  0.2929  0.3204
  424SOL    HW1 1271   1.229   1.473   2.284 -1.9770  3.3579 -0.2425
  424SOL    HW2 1272   1.354   1.383   2.353 -0.6173  1.1150 -2.3526
  425SOL     OW 1273   0.124   2.653   1.973 -0.2203  0.1199  0.2001
  425SOL    HW1 1274   0.171   2.636   2.062  1.6949 -1.9475 -1.2964
  425SOL    HW2 1275   0.023   2.657   1.987  0.5996  0.9032  0.4497
  426SOL     OW 1276   2.285   2.823   0.537  0.1928  0.1493 -0.5583
  426SOL    HW1 1277   2.197   2.772   0.553 -0.0011 -0.3736  0.3656
  426SOL    HW2 1278   2.307   2.871   0.623 -1.0383 -0.0592 -1.7160
  427SOL     OW 1279   0.615   0.928   2.635  0.2255  0.4336  0.0800
  427SOL    HW1 1280   0.524   0.925   2.684  0.2725  1.5970 -3.2309
  427SOL    HW2 1281   0.680   0.849   2.660  4.3753 -0.1127  3.4493
  428SOL     OW 1282   2.898   1.458   2.573  0.0420  0.2313  0.4072
  428SOL    HW1 1283   2.889   1.359   2.595  2.3019  1.7034  3.3499
  428SOL    HW2 1284   2.808   1.501   2.558  0.4242  1.2629  0.1694
  429SOL     OW 1285   2.293   0.399   0.396 -0.0354  0.6642 -0.2296
  429SOL    HW1 1286   2.250   0.390   0.303 -1.8393  0.8201 -2.5949
  429SOL    HW2 1287   2.387   0.357   0.398 -0.7503  0.2363  0.6908
  430SOL     OW 1288   1.551   2.042   2.437 -0.0634  0.1862 -0.0082
  430SOL    HW1 1289   1.630   2.071   2.372  1.6428  0.3934  1.5419
  430SOL    HW2 1290   1.482   1.981   2.399 -3.0518  1.2275  1.2956
  431SOL     OW 1291   0.059   1.748   1.740  0.6043  0.2813 -0.2426
  431SOL    HW1 1292   3.105   1.714   1.814 -0.0336  0.3655 -1.1316
  431SOL    HW2 1293   0.135   1.687   1.723 -0.4364  0.3855  2.6142
  432SOL     OW 1294   1.438   2.228   2.087 -0.0751  0.2910 -0.0989
  432SOL    HW1 1295   1.504   2.164   2.052 -2.6174 -0.1242 -2.4634
  432SOL    HW2 1296   1.384   2.262   2.006 -0.9932  0.2310 -4.6967
  433SOL     OW 1297   1.071   2.098   0.352  1.0062  0.9681  0.7357
  433SOL    HW1 1298   1.156   2.150   0.339 -0.3598 -1.2617  1.2302
  433SOL    HW2 1299   1.031   2.086   0.261  2.1385  0.8655 -0.2519
  434SOL     OW 1300   0.416   2.213   2.365 -0.0813  0.1622  0.3211
  434SOL    HW1 1301   0.409   2.230   2.268 -2.1103 -0.8046  4.0131
  434SOL    HW2 1302   0.401   2.299   2.419  0.2374  1.2691 -0.2964
  435SOL     OW 1303   0.323   1.188   0.483  0.4245  0.2715 -0.0445
  435SOL    HW1 1304   0.239   1.237   0.491  0.2000  1.3553 -0.0669
  435SOL    HW2 1305   0.378   1.195   0.574 -0.2690  2.1655  1.0335
  436SOL     OW 1306   0.401   2.696   1.651  0.6286  0.3177  0.1446
  436SOL    HW1 1307   0.398   2.793   1.617 -1.1866 -0.6129  0.1091
  436SOL    HW2 1308   0.465   2.647   1.592 -1.6721  0.1851 -0.1506
  437SOL     OW 1309   0.867   0.330   0.444 -0.0122  0.5294  0.0840
  437SOL    HW1 1310   0.930   0.390   0.394  1.8374 -2.0769  0.9321
  437SOL    HW2 1311   0.774   0.344   0.401  0.5741 -2.3929 -1.1517
  438SOL     OW 1312   0.690   2.155   0.368 -0.4504 -0.0992 -0.1501
  438SOL    HW1 1313   0.759   2.083   0.358  0.5095  1.0213 -0.8791
  438SOL    HW2 1314   0.736   2.247   0.352 -1.8160  2.9542  1.3472
  439SOL     OW 1315   0.581   2.561   1.468 -0.4613  0.1616  0.4496
  439SOL    HW1 1316   0.523   2.479   1.483 -0.1309 -0.3615 -0.4297
  439SOL    HW2 1317   0.544   2.634   1.404  0.9198  1.8517 -0.3804
  440SOL     OW 1318   1.925   2.899   1.710  0.1530  0.3272  0.2056
  440SOL    HW1 1319   1.882   2.902   1.803  0.2006  0.3493  0.4816
  440SOL    HW2 1320   2.022   2.867   1.715  1.4747 -1.5459 -0.9354
  441SOL     OW 1321   2.687   0.430   1.809  0.2019  0.5517 -0.0144
  441SOL    HW1 1322   2.706   0.336   1.775  2.0204  2.3892 -2.1022
  441SOL    HW2 1323   2.765   0.491   1.783 -2.3237 -1.2809  1.3585
  442SOL     OW 1324   1.976   2.162   0.867  0.1003 -0.2565 -0.3913
  442SOL    HW1 1325   1.986   2.254   0.910  0.8577  1.2220 -1.8859
  442SOL    HW2 1326   1.993   2.170   0.769 -0.8086 -0.3306 -0.4252
  443SOL     OW 1327   2.634   0.670   2.329 -0.3800 -0.4878 -0.3800
  443SOL    HW1 1328   2.653   0.570   2.319  0.8179  1.4877 -1.2884
  443SOL    HW2 1329   2.680   0.731   2.259 -0.2790 -0.5565 -1.4133
  444SOL     OW 1330   2.036   0.963   1.874 -0.0953  0.3159 -0.1531
  444SOL    HW1 1331   1.959   1.017   1.917 -0.9012  0.7499 -1.9736
  444SOL    HW2 1332   2.092   0.907   1.943 -0.9861 -0.3781  1.6925
  445SOL     OW 1333   2.834   2.289   1.235 -0.3029 -0.0050 -0.2563
  445SOL    HW1 1334   2.744   2.304   1.285 -0.9274  0.5437 -1.7470
  445SOL    HW2 1335   2.830   2.342   1.148  0.0357  2.1875  0.9520
  446SOL     OW 1336   2.855   1.512   0.741  0.0638 -0.1710 -0.0291
  446SOL    HW1 1337   2.807   1.424   0.725 -0.4466  3.5203  1.6684
  446SOL    HW2 1338   2.944   1.501   0.790  0.0603  1.9809  0.2064
  447SOL     OW 1339   0.434   1.133   0.987 -0.4099  0.1209 -0.4358
  447SOL    HW1 1340   0.450   1.139   1.088 -1.0605  0.5371 -2.9715
  447SOL    HW2 1341   0.497   1.063   0.945 -2.2065 -0.0463 -1.5131
  448SOL     OW 1342   1.460   1.215   1.532  0.4145 -0.0295 -0.3283
  448SOL    HW1 1343   1.528   1.200   1.605 -1.5822  0.9627  1.3142
  448SOL    HW2 1344   1.451   1.318   1.519 -5.2380  2.3382  0.2623
  449SOL     OW 1345   1.081   1.119   0.081  0.0000  0.2420 -0.1475
  449SOL    HW1 1346   1.129   1.087   3.101 -0.6406 -0.6977  0.1705
  449SOL    HW2 1347   0.981   1.123   0.060  2.3999 -1.4643 -0.4885
  450SOL     OW 1348   2.473   2.289   2.223  0.1417 -0.1799  0.4439
  450SOL    HW1 1349   2.505   2.382   2.246  0.3025 -2.5356 -1.9185
  450SOL    HW2 1350   2.551   2.223   2.209 -0.8216  0.0153  1.3281
  451SOL     OW 1351   1.951   2.784   2.477  0.1311 -0.2105 -0.4470
  451SOL    HW1 1352   1.970   2.827   2.569  1.0806  0.6713  0.6652
  451SOL    HW2 1353   2.023   2.804   2.413  1.4163 -2.3555  2.1408
  452SOL     OW 1354   1.528   3.029   1.316  0.1197  0.8305  0.3134
  452SOL    HW1 1355   1.427   3.035   1.305 -2.2436 -2.1097 -0.6277
  452SOL    HW2 1356   1.563   2.988   1.224  0.9910 -2.1280 -1.6206
  453SOL     OW 1357   1.566   0.985   1.114  0.5674 -0.7469 -0.4042
  453SOL    HW1 1358   1.659   0.950   1.096 -2.5054  1.9872 -1.0783
  453SOL    HW2 1359   1.572   1.058   1.185 -1.0512 -1.1879 -5.2766
  454SOL     OW 1360   0.330   1.386   0.960 -0.2600  0.0888 -0.8276
  454SOL    HW1 1361   0.253   1.376   0.895 -3.7841  0.1547  1.6509
  454SOL    HW2 1362   0.369   1.294   0.989  1.2251 -0.1620  2.4119
  455SOL     OW 1363   2.571   3.078   0.300  0.1802 -0.3181 -0.6393
  455SOL    HW1 1364   2.572   3.037   0.208 -0.0258 -0.0549 -0.7243
  455SOL    HW2 1365   2.668   3.098   0.331 -1.1736 -1.3814  1.0655
  456SOL     OW 1366   2.806   2.481   1.023 -0.0904  0.4437 -0.4169
  456SOL    HW1 1367   2.720   2.522   1.059  2.6313 -0.2328  0.5415
  456SOL    HW2 1368   2.816   2.475   0.921  0.7119 -3.1633  2.4752
  457SOL     OW 1369   1.036   0.122   0.434 -0.1740  0.2487  0.4325
  457SOL    HW1 1370   1.086   0.083   0.518  3.3980 -0.6219  2.2485
  457SOL    HW2 1371   0.976   0.198   0.454  0.3639 -1.1016 -0.6342
  458SOL     OW 1372   2.503   0.630   0.404 -0.0226 -0.0983 -0.2592
  458SOL    HW1 1373   2.511   0.604   0.504  0.9320 -1.0035  0.9788
  458SOL    HW2 1374   2.410   0.637   0.365  0.1849  2.2566 -1.9214
  459SOL     OW 1375   1.999   0.458   2.716  0.3098 -0.0217 -0.1356
  459SOL    HW1 1376   2.004   0.392   2.638  0.0115  5.6674  1.1284
  459SOL    HW2 1377   2.027   0.417   2.804  0.6332  1.6301 -4.4056
  460SOL     OW 1378   2.731   3.099   2.829 -0.0943 -0.2449  0.2482
  460SOL    HW1 1379   2.767   3.009   2.863  3.4321  3.8777 -1.2411
  460SOL    HW2 1380   2.686   3.084   2.737 -2.9107 -0.3146 -0.1516
  461SOL     OW 1381   1.327   1.748   0.833 -0.1736  0.0806 -0.1922
  461SOL    HW1 1382   1.306   1.701   0.920  0.5278 -0.7752  1.0939
  461SOL    HW2 1383   1.269   1.717   0.759 -2.5192  1.1108 -1.1590
  462SOL     OW 1384   2.520   2.616   1.572  0.2256  0.2094 -0.0262
  462SOL    HW1 1385   2.608   2.658   1.576 -2.5369 -2.4696  1.5309
  462SOL    HW2 1386   2.479   2.615   1.670 -0.3435 -2.6754  0.6518
  463SOL     OW 1387   2.328   0.865   0.646  0.4815 -0.0312  0.0792
  463SOL    HW1 1388   2.350   0.888   0.546  0.2197  0.0184 -1.5438
  463SOL    HW2 1389   2.408   0.876   0.707 -1.4339 -0.1842  2.6053
  464SOL     OW 1390   0.351   2.543   1.089  0.0343 -0.5697  0.4643
  464SOL    HW1 1391   0.299   2.538   0.999 -1.5795  1.7713 -3.6808
  464SOL    HW2 1392   0.287   2.507   1.161  0.7473 -0.9407  0.6066
  465SOL     OW 1393   0.049   1.665   0.119  0.3409 -0.2592 -0.5789
  465SOL    HW1 1394   0.056   1.565   0.090  3.1917 -2.1032 -2.4320
  465SOL    HW2 1395   3.070   1.718   0.105  0.0962  0.0948 -3.0803
  466SOL     OW 1396   1.580   0.474   2.874  0.1036  0.0419  0.4927
  466SOL    HW1 1397   1.504   0.529   2.830 -0.5995 -0.3831 -0.5052
  466SOL    HW2 1398   1.589   0.481   2.973  1.4671 -1.5571 -1.9821
  467SOL     OW 1399   1.117   0.658   2.090 -0.7100  0.1497 -0.4394
  467SOL    HW1 1400   1.187   0.587   2.109  1.7502 -3.1058 -1.7687
  467SOL    HW2 1401   1.134   0.743   2.140 -0.9928 -0.2788 -0.6837
  468SOL     OW 1402   0.752   1.096   2.458 -0.4611 -0.0416 -0.1224
  468SOL    HW1 1403   0.724   1.024   2.526 -2.3173 -1.0916 -3.2453
  468SOL    HW2 1404   0.682   1.161   2.432 -0.9609 -0.4931  0.1850
  469SOL     OW 1405   0.080   2.095   0.009  0.1049  0.1278  0.5350
  469SOL    HW1 1406   0.008   2.047   3.068 -0.5469 -2.7015  1.2918
  469SOL    HW2 1407   0.065   2.197   0.017  0.9299  0.4976 -0.2543
  470SOL     OW 1408   2.548   1.805   2.892  0.1309  0.7681 -0.4014
  470SOL    HW1 1409   2.515   1.728   2.837  2.2538  4.3912  1.3922
  470SOL    HW2 1410   2.567   1.774   2.985  0.0672  2.3387 -1.6037
  471SOL     OW 1411   2.245   0.591   2.293  0.3167 -0.4520 -0.5191
  471SOL    HW1 1412   2.278   0.650   2.221  0.0255 -2.3770  1.0872
  471SOL    HW2 1413   2.179   0.642   2.356 -1.8038  0.5326 -0.7335
  472SOL     OW 1414   0.588   2.410   1.083  0.0967 -0.9244  0.3108
  472SOL    HW1 1415   0.658   2.460   1.134 -0.5085  0.3019  0.0629
  472SOL    HW2 1416   0.498   2.462   1.069  0.7429  1.0734  2.2431
  473SOL     OW 1417   0.426   0.098   2.388  0.1506  0.1430  0.4613
  473SOL    HW1 1418   0.523   0.127   2.375  0.5521  1.4096  0.8294
  473SOL    HW2 1419   0.373   0.121   2.307  0.7187  1.0339  5.1008
  474SOL     OW 1420   1.781   0.043   2.006 -0.2015  0.4897 -0.1615
  474SOL    HW1 1421   1.723   0.108   1.952  1.1943 -0.5850  2.1487
  474SOL    HW2 1422   1.751   0.046   2.104  1.1438 -1.8176  0.4361
  475SOL     OW 1423   1.735   2.491   0.703 -0.0371  0.3331 -0.9212
  475SOL    HW1 1424   1.791   2.460   0.783 -0.9171 -2.9100 -0.8370
  475SOL    HW2 1425   1.637   2.479   0.719 -0.5182 -0.4833 -1.2577
  476SOL     OW 1426   0.267   0.710   0.998 -0.2411  0.2984 -0.2720
  476SOL    HW1 1427   0.232   0.642   0.933 -0.0036  1.4802  1.9173
  476SOL    HW2 1428   0.367   0.707   1.012  0.4560 -2.4626 -0.6039
  477SOL     OW 1429   1.368   2.247   0.603  0.5234 -0.6990 -0.1614
  477SOL    HW1 1430   1.393   2.152   0.587 -1.5960  3.1716 -0.9544
  477SOL    HW2 1431   1.274   2.256   0.644 -0.5518  1.6334  0.3478
  478SOL     OW 1432   0.174   2.466   2.378 -0.2475 -0.2813 -0.4110
  478SOL    HW1 1433   0.259   2.469   2.438  2.1583 -3.8116  1.9030
  478SOL    HW2 1434   0.186   2.527   2.296 -1.0215  3.0745  0.7409
  479SOL     OW 1435   2.661   0.417   0.968 -0.1924 -0.3229  0.6305
  479SOL    HW1 1436   2.764   0.413   0.960 -0.2888 -2.1692  0.1896
  479SOL    HW2 1437   2.617   0.337   1.013 -0.0488 -0.9726 -0.4504
  480SOL     OW 1438   0.032   3.056   0.128 -0.3077 -0.1742  0.1517
  480SOL    HW1 1439   0.048   2.992   0.208 -0.5327 -0.9770 -1.7536
  480SOL    HW2 1440   3.043   3.089   0.131 -0.6928 -0.5592  0.7038
  481SOL     OW 1441   2.589   2.340   1.389 -0.2221 -0.5021  0.7744
  481SOL    HW1 1442   2.614   2.252   1.439  0.7950  0.9945 -0.3612
  481SOL    HW2 1443   2.493   2.362   1.401 -0.9318 -0.0570  0.7687
  482SOL     OW 1444   1.160   2.565   2.690 -0.0881 -0.1731 -0.0892
  482SOL    HW1 1445   1.248   2.546   2.643 -0.3653  1.2393  0.4397
  482SOL    HW2 1446   1.086   2.566   2.619  0.3208  1.5724  0.6143
  483SOL     OW 1447   0.655   2.508   2.420 -0.5470 -0.2134 -0.2503
  483SOL    HW1 1448   0.724   2.530   2.497  2.1861  1.9275  0.7086
  483SOL    HW2 1449   0.691   2.526   2.324  2.5783 -1.6025 -0.8197
  484SOL     OW 1450   1.161   0.947   1.724 -0.1716  0.5304 -0.4959
  484SOL    HW1 1451   1.146   0.994   1.817  2.6101  0.2022  1.5287
  484SOL    HW2 1452   1.262   0.952   1.712  0.2395  1.1903  1.0652
  485SOL     OW 1453   2.362   1.150   2.701  0.2398 -0.1203  0.0853
  485SOL    HW1 1454   2.359   1.052   2.670  0.1179 -0.7286 -0.2584
  485SOL    HW2 1455   2.300   1.150   2.782 -1.4413 -0.8451 -1.6490
  486SOL     OW 1456   2.639   3.006   1.087 -0.4182 -0.0121 -0.4011
  486SOL    HW1 1457   2.670   2.967   1.176 -0.9320 -2.1711  1.1462
  486SOL    HW2 1458   2.670   2.958   1.002  1.1271  0.9555 -0.8706
  487SOL     OW 1459   0.532   1.888   1.626 -0.2260  0.3417  0.6528
  487SOL    HW1 1460   0.601   1.832   1.571  3.6578 -3.4557 -2.7807
  487SOL    HW2 1461   0.451   1.917   1.571  3.5846 -0.7385  1.5653
  488SOL     OW 1462   2.486   1.375   3.092 -0.0410  0.6750 -0.1133
  488SOL    HW1 1463   2.410   1.352   0.053 -0.7037  2.7736  0.0401
  488SOL    HW2 1464   2.452   1.421   3.013  3.2666 -0.2731  1.8635
  489SOL     OW 1465   1.825   0.039   1.103  0.1900  0.2853 -0.4728
  489SOL    HW1 1466   1.858   0.080   1.188  1.1705  0.0041 -0.8923
  489SOL    HW2 1467   1.758   0.105   1.057 -1.4947  0.3419 -2.7906
  490SOL     OW 1468   0.825   0.823   0.488  0.2213 -0.4611  0.1024
  490SOL    HW1 1469   0.894   0.890   0.463 -0.4322 -1.7102 -0.6053
  490SOL    HW2 1470   0.753   0.810   0.416 -1.4859  0.6772  1.4872
  491SOL     OW 1471   0.635   2.343   0.828  0.0140 -0.4239 -0.3058
  491SOL    HW1 1472   0.722   2.389   0.801 -3.6081 -1.5253  0.2409
  491SOL    HW2 1473   0.627   2.362   0.934 -1.8503 -0.6581  4.0137
  492SOL     OW 1474   1.321   1.665   2.094 -0.0739  0.6361  0.4348
  492SOL    HW1 1475   1.304   1.647   1.997 -0.5088 -0.1058 -0.3897
  492SOL    HW2 1476   1.332   1.577   2.149 -1.8889 -1.1054 -0.3532
  493SOL     OW 1477   2.805   2.482   0.746  0.0399 -0.2250  0.1173
  493SOL    HW1 1478   2.877   2.410   0.751 -2.1227 -0.4592  0.3189
  493SOL    HW2 1479   2.720   2.447   0.698 -1.0374 -0.7132 -1.7683
  494SOL     OW 1480   2.612   2.124   0.026  0.0532  0.3654 -0.0539
  494SOL    HW1 1481   2.568   2.079   3.052 -0.6327  0.1203  0.3067
  494SOL    HW2 1482   2.678   2.191   3.097  1.9648 -4.3061  1.3740
  495SOL     OW 1483   2.835   2.444   3.069 -0.2299  0.4151 -0.2350
  495SOL    HW1 1484   2.794   2.392   2.985 -0.9997 -1.5890 -1.3057
  495SOL    HW2 1485   2.844   2.386   0.047 -2.7375 -0.7909  0.4510
  496SOL     OW 1486   2.710   0.178   1.664  0.6652 -0.3147 -0.2832
  496SOL    HW1 1487   2.614   0.144   1.662  0.4569 -1.6299  3.0852
  496SOL    HW2 1488   2.740   0.219   1.570 -0.4860  2.4507 -4.4213
  497SOL     OW 1489   2.949   1.288   0.188 -0.0874  0.2268  0.5903
  497SOL    HW1 1490   2.958   1.190   0.213 -0.3623 -0.2212 -1.0492
  497SOL    HW2 1491   2.880   1.305   0.115  3.2815 -0.8856  0.8607
  498SOL     OW 1492   2.975   1.662   1.920 -0.1053 -0.2779 -0.7734
  498SOL    HW1 1493   2.883   1.683   1.952  0.1994 -0.5346  0.7935
  498SOL    HW2 1494   3.043   1.650   2.000  3.3285 -0.9037 -1.7532
  499SOL     OW 1495   0.688   2.345   2.737 -0.0043 -0.0537 -0.1187
  499SOL    HW1 1496   0.599   2.387   2.765 -0.0355 -0.3713 -3.8369
  499SOL    HW2 1497   0.693   2.245   2.748  1.4300  2.2130 -1.5919
  500SOL     OW 1498   1.835   0.372   3.038 -0.2309 -0.6638  0.0602
  500SOL    HW1 1499   1.883   0.360   2.952  0.0140  1.1839 -0.2336
  500SOL    HW2 1500   1.769   0.296   3.058 -0.4675  1.5893 -0.9679
  501SOL     OW 1501   1.208   0.118   1.581  0.2179  0.0413 -0.9371
  501SOL    HW1 1502   1.299   0.099   1.623  0.7711 -0.6877 -0.9661
  501SOL    HW2 1503   1.198   0.110   1.481  0.0596  0.7481 -0.4826
  502SOL     OW 1504   2.562   0.872   1.954 -0.4669  0.0260  0.3081
  502SOL    HW1 1505   2.511   0.956   1.926 -1.5026  0.7571 -3.5151
  502SOL    HW2 1506   2.576   0.820   1.868 -2.5519  1.4109  1.4776
  503SOL     OW 1507   2.088   1.960   2.358 -0.5845  0.2492 -0.5576
  503SOL    HW1 1508   2.074   2.065   2.358  0.5255  3.6830 -0.8386
  503SOL    HW2 1509   1.994   1.911   2.354  1.5451  1.7720  5.4001
  504SOL     OW 1510   1.371   0.645   1.675 -0.3226 -0.5435  0.0237
  504SOL    HW1 1511   1.308   0.663   1.594  0.1893  0.0411  0.2310
  504SOL    HW2 1512   1.343   0.562   1.725  0.2689 -0.1071 -1.2817
  505SOL     OW 1513   0.814   0.891   2.038 -0.0987 -0.1891  0.5433
  505SOL    HW1 1514   0.820   0.967   1.968  0.6869  1.7440  0.3521
  505SOL    HW2 1515   0.856   0.805   1.994 -0.9975 -0.4530 -0.2484
  506SOL     OW 1516   0.403   0.681   2.722  0.4295  0.5716 -0.1483
  506SOL    HW1 1517   0.362   0.769   2.739  1.3817 -0.5143  1.0183
  506SOL    HW2 1518   0.500   0.674   2.746 -2.7805 -1.4947 -1.0194
  507SOL     OW 1519   0.217   0.169   0.132 -0.5321 -0.3380  0.3419
  507SOL    HW1 1520   0.174   0.074   0.134 -0.9133 -0.2663 -0.5591
  507SOL    HW2 1521   0.182   0.223   0.054  2.0654  1.0649 -0.0551
  508SOL     OW 1522   1.176   1.196   1.559  0.1878  0.1926  0.4815
  508SOL    HW1 1523   1.165   1.114   1.624  4.1120 -4.4988  1.9399
  508SOL    HW2 1524   1.275   1.202   1.531  1.3745  0.3695  1.0493
  509SOL     OW 1525   1.651   2.118   1.250  0.1087 -0.0132 -0.6503
  509SOL    HW1 1526   1.589   2.199   1.255 -0.0854 -2.3550  2.5319
  509SOL    HW2 1527   1.726   2.123   1.321 -0.5882 -0.3602 -0.7808
  510SOL     OW 1528   2.592   1.327   1.874 -0.2464 -0.1021 -0.2041
  510SOL    HW1 1529   2.583   1.423   1.853  1.6251  0.5610  2.1511
  510SOL    HW2 1530   2.611   1.314   1.972  0.7751  0.9736 -1.0021
  511SOL     OW 1531   0.775   2.159   1.531 -0.4006 -0.4042 -0.3070
  511SOL    HW1 1532   0.769   2.211   1.444 -0.6044 -2.3747 -1.6967
  511SOL    HW2 1533   0.687   2.165   1.587 -2.8082  0.3067  1.6516
  512SOL     OW 1534   2.531   1.876   0.817  0.7387  0.1552 -0.2636
  512SOL    HW1 1535   2.506   1.892   0.720 -0.7087 -0.5828  0.2294
  512SOL    HW2 1536   2.600   1.944   0.850  0.3731 -1.5270 -0.1946
  513SOL     OW 1537   0.111   1.553   2.944 -0.4774 -0.1623  0.5380
  513SOL    HW1 1538   0.130   1.646   2.985 -1.1001  1.3121 -0.1142
  513SOL    HW2 1539   0.083   1.488   3.017  4.1998  0.4095 -0.9811
  514SOL     OW 1540   2.859   2.343   2.262  0.1663 -0.4353  0.1391
  514SOL    HW1 1541   2.951   2.303   2.279 -0.1608  2.1850 -0.2860
  514SOL    HW2 1542   2.860   2.406   2.178  4.1884 -1.2717 -2.9900
  515SOL     OW 1543   2.120   1.214   1.101 -0.3333 -0.9198  0.5807
  515SOL    HW1 1544   2.059   1.215   1.020  0.5728 -0.3696  3.2296
  515SOL    HW2 1545   2.145   1.309   1.135  1.1436 -0.9897 -2.6118
  516SOL     OW 1546   2.095   1.977   0.088  0.2673 -0.3315  0.5248
  516SOL    HW1 1547   2.164   2.018   0.151  0.7383  0.5250 -1.5358
  516SOL    HW2 1548   2.065   1.883   0.116 -2.2895  1.6504  0.6894
  517SOL     OW 1549   0.826   1.098   0.023  0.2879 -0.3399 -0.0818
  517SOL    HW1 1550   0.767   1.132   3.047 -1.8521 -0.7441 -0.1054
  517SOL    HW2 1551   0.769   1.091   0.112 -0.7159 -1.2343  3.4360
  518SOL     OW 1552   3.050   2.943   1.910  0.0738 -0.2881  0.2914
  518SOL    HW1 1553   2.974   3.005   1.923 -2.7798  0.2559  0.0361
  518SOL    HW2 1554   3.035   2.862   1.853  1.9012  0.1061  2.4932
  519SOL     OW 1555   1.239   1.722   2.527  0.2498 -0.2170  0.8285
  519SOL    HW1 1556   1.176   1.798   2.561  1.2035  1.1026 -1.0040
  519SOL    HW2 1557   1.289   1.672   2.597 -0.5897 -0.3965 -4.4271
  520SOL     OW 1558   2.704   2.972   2.388 -0.6750 -0.1803 -0.8542
  520SOL    HW1 1559   2.687   3.036   2.312  2.3830  1.1445 -0.9650
  520SOL    HW2 1560   2.662   3.008   2.473  0.2883 -0.2134  0.8664
  521SOL     OW 1561   0.090   1.893   2.176  0.2494 -0.5664  0.2733
  521SOL    HW1 1562   0.168   1.949   2.137  0.6999  2.0076 -1.3977
  521SOL    HW2 1563   0.119   1.819   2.239 -0.3334  0.0047  1.2882
  522SOL     OW 1564   0.685   2.499   1.725  0.3593  0.0136  0.3899
  522SOL    HW1 1565   0.650   2.524   1.631  0.9099  1.2558 -3.7537
  522SOL    HW2 1566   0.775   2.453   1.722 -2.1654  0.9327  0.3333
  523SOL     OW 1567   3.082   2.273   1.330 -0.4367 -0.0257  0.0545
  523SOL    HW1 1568   3.056   2.302   1.424  0.1300  0.6860  0.9643
  523SOL    HW2 1569   2.998   2.272   1.273 -0.0945  1.2010  0.2051
  524SOL     OW 1570   1.492   2.432   0.773  0.1549  0.0970  0.4758
  524SOL    HW1 1571   1.443   2.381   0.699  2.0244  0.5167 -1.5488
  524SOL    HW2 1572   1.499   2.373   0.857  3.2671 -1.6684 -0.3134
  525SOL     OW 1573   2.380   1.054   0.986 -0.1344 -0.1079  0.3554
  525SOL    HW1 1574   2.455   1.107   1.035  0.4364  1.4250 -0.2499
  525SOL    HW2 1575   2.286   1.092   1.005 -1.4005  2.1717 -1.2148
  526SOL     OW 1576   0.899   2.381   0.762  0.7997  0.2135 -0.2222
  526SOL    HW1 1577   0.906   2.451   0.691  0.0820  1.9476 -0.8455
  526SOL    HW2 1578   0.921   2.291   0.723 -2.2158  0.8248  0.5537
  527SOL     OW 1579   2.064   2.230   0.587 -0.2058  0.2781 -0.0851
  527SOL    HW1 1580   1.971   2.268   0.564 -0.9237 -0.0611 -2.4187
  527SOL    HW2 1581   2.135   2.301   0.571 -0.1182  0.2590  2.1958
  528SOL     OW 1582   2.121   0.382   0.160 -0.0637 -0.1735 -0.4495
  528SOL    HW1 1583   2.073   0.469   0.178 -1.0086 -0.0942 -0.3464
  528SOL    HW2 1584   2.067   0.295   0.178 -1.1780 -0.7906 -1.6965
  529SOL     OW 1585   0.950   1.522   2.120 -0.5063 -0.7036 -0.2358
  529SOL    HW1 1586   0.982   1.538   2.216  0.9019 -0.3354 -2.8314
  529SOL    HW2 1587   0.983   1.599   2.059  1.4352  1.6514  1.0615
  530SOL     OW 1588   2.396   1.021   2.328  0.1195  0.5645  0.2799
  530SOL    HW1 1589   2.487   1.062   2.339 -0.7593 -1.3900 -0.4670
  530SOL    HW2 1590   2.359   0.983   2.411  1.7525  1.6610 -2.6982
  531SOL     OW 1591   0.926   0.851   3.017 -0.0143 -0.2107 -0.3443
  531SOL    HW1 1592   0.899   0.940   3.055  0.3461 -0.5854  0.7785
  531SOL    HW2 1593   0.849   0.782   3.025 -0.9028  0.4842 -1.6997
  532SOL     OW 1594   1.516   1.090   0.638 -0.5687  0.0591 -0.4039
  532SOL    HW1 1595   1.562   1.018   0.689  1.0397  0.0383 -2.2916
  532SOL    HW2 1596   1.432   1.056   0.594  0.4079  0.4282 -1.1543
  533SOL     OW 1597   0.485   0.623   2.152  0.8752  0.3623 -0.0286
  533SOL    HW1 1598   0.494   0.721   2.157  1.1607 -5.5768  1.2192
  533SOL    HW2 1599   0.560   0.577   2.097  1.0127 -2.0080  2.5095
  534SOL     OW 1600   1.615   0.286   2.635  0.2480  0.1496 -0.0595
  534SOL    HW1 1601   1.628   0.359   2.703  2.0760  1.4419 -1.1794
  534SOL    HW2 1602   1.521   0.238   2.642 -2.3886 -2.0741 -0.1602
  535SOL     OW 1603   0.593   0.163   0.403 -0.1029 -0.1547 -0.5347
  535SOL    HW1 1604   0.576   0.065   0.390 -2.6709 -0.7964  1.6702
  535SOL    HW2 1605   0.561   0.174   0.500  0.8667  0.6913 -1.2001
  536SOL     OW 1606   1.226   0.295   0.158 -0.1587 -0.2225  0.4662
  536SOL    HW1 1607   1.248   0.392   0.131  1.1524  0.0128  2.2235
  536SOL    HW2 1608   1.131   0.266   0.150  0.1278 -1.2189  2.6454
  537SOL     OW 1609   1.483   2.867   1.735  0.5873 -0.2384 -0.0767
  537SOL    HW1 1610   1.539   2.812   1.798  0.0294  2.8834 -2.1329
  537SOL    HW2 1611   1.532   2.918   1.668 -2.5220 -0.5355  2.2810
  538SOL     OW 1612   0.356   2.812   0.070 -0.2546 -0.1759 -1.2077
  538SOL    HW1 1613   0.277   2.843   0.127  0.9630 -1.9899 -1.3381
  538SOL    HW2 1614   0.430   2.881   0.056  1.5677  1.5763 -1.8162
  539SOL     OW 1615   2.822   1.212   1.781 -0.1376 -0.0611 -0.0186
  539SOL    HW1 1616   2.842   1.310   1.761 -1.4299 -1.7546  1.0533
  539SOL    HW2 1617   2.725   1.202   1.812  2.6128  0.9307 -0.1628
  540SOL     OW 1618   2.274   2.253   2.022 -0.6042 -0.0397 -0.1162
  540SOL    HW1 1619   2.344   2.267   2.096 -1.1320 -0.3346  1.0379
  540SOL    HW2 1620   2.325   2.214   1.940  1.7371  2.4401  0.2737
  541SOL     OW 1621   0.483   2.703   1.269  0.0658 -0.5016 -0.0560
  541SOL    HW1 1622   0.449   2.631   1.203 -2.8055 -1.0404 -1.5738
  541SOL    HW2 1623   0.495   2.792   1.225  0.7796  0.3815  0.6298
  542SOL     OW 1624   2.743   0.415   2.259 -0.1318  0.0316 -0.1399
  542SOL    HW1 1625   2.800   0.362   2.322 -1.2042  0.7720 -1.3133
  542SOL    HW2 1626   2.799   0.497   2.231  2.5221  0.1418  0.4246
  543SOL     OW 1627   0.984   0.649   1.162 -0.3876 -0.3535 -0.7193
  543SOL    HW1 1628   0.906   0.702   1.201 -2.4180  0.6198  0.2762
  543SOL    HW2 1629   0.980   0.556   1.202  1.4026 -0.2520  0.1964
  544SOL     OW 1630   2.340   2.280   1.082 -0.1256  0.7826  0.0278
  544SOL    HW1 1631   2.282   2.201   1.053 -2.1889  0.7000  0.4516
  544SOL    HW2 1632   2.286   2.367   1.064 -0.5650  1.5679 -1.5997
  545SOL     OW 1633   1.511   1.537   1.177 -0.1104  0.1434 -0.3976
  545SOL    HW1 1634   1.573   1.580   1.248  0.8510  1.0081 -0.2307
  545SOL    HW2 1635   1.456   1.459   1.211 -0.3869  0.4502 -1.5641
  546SOL     OW 1636   2.996   0.136   2.810  0.0296 -0.3438 -0.0392
  546SOL    HW1 1637   2.913   0.072   2.823 -3.0753 -3.1243 -1.5125
  546SOL    HW2 1638   2.972   0.220   2.860 -0.6814 -0.4760 -0.2142
  547SOL     OW 1639   2.413   0.315   2.674  0.4529  0.0239  0.4825
  547SOL    HW1 1640   2.331   0.278   2.722  1.2494 -1.7614 -0.2681
  547SOL    HW2 1641   2.435   0.413   2.680 -0.1403  0.2187  0.5377
  548SOL     OW 1642   2.720   1.964   2.732 -0.0538 -0.0880  0.2858
  548SOL    HW1 1643   2.678   1.906   2.806 -1.0037  1.6653  0.4169
  548SOL    HW2 1644   2.816   1.944   2.708 -1.4969  0.1750 -0.5313
  549SOL     OW 1645   2.114   0.519   0.562  0.5943 -0.5149 -0.0568
  549SOL    HW1 1646   2.166   0.551   0.644 -2.3301  0.4062  2.7568
  549SOL    HW2 1647   2.178   0.497   0.489 -1.5043  1.7558  1.0877
  550SOL     OW 1648   2.750   1.317   0.384  0.2406  0.0722  0.2905
  550SOL    HW1 1649   2.721   1.415   0.400 -0.4751 -0.2237  1.0004
  550SOL    HW2 1650   2.830   1.320   0.324  1.1263 -1.5534  2.0528
  551SOL     OW 1651   1.417   2.565   1.240 -0.2620 -0.4682  0.2479
  551SOL    HW1 1652   1.317   2.568   1.226  3.0350  0.8013 -0.8058
  551SOL    HW2 1653   1.461   2.626   1.167  3.0764 -0.5452 -0.1129
  552SOL     OW 1654   2.758   2.313   2.856  0.2385  0.2905 -0.1122
  552SOL    HW1 1655   2.799   2.355   2.772  1.2188  0.5289  1.9370
  552SOL    HW2 1656   2.655   2.325   2.854  1.0898  0.6098  2.9156
  553SOL     OW 1657   0.388   2.958   0.476  0.1536  0.8596  0.2258
  553SOL    HW1 1658   0.327   3.040   0.490  0.5717 -0.6522  0.0823
  553SOL    HW2 1659   0.401   2.900   0.559 -0.6636  1.1781 -1.5242
  554SOL     OW 1660   1.786   1.869   1.589 -0.6149 -0.1039 -0.2401
  554SOL    HW1 1661   1.698   1.915   1.601  3.4565 -2.5168  0.8660
  554SOL    HW2 1662   1.773   1.766   1.604 -1.0927 -1.8794 -2.2208
  555SOL     OW 1663   1.519   2.545   2.088  0.1852 -0.4976  0.5140
  555SOL    HW1 1664   1.540   2.484   2.168 -1.1632 -0.9739 -2.3657
  555SOL    HW2 1665   1.417   2.556   2.086  0.0053 -1.5046 -0.0782
  556SOL     OW 1666   1.634   0.900   0.793  0.0453  0.1799  0.4096
  556SOL    HW1 1667   1.696   0.924   0.868 -0.0154  0.5117  1.4178
  556SOL    HW2 1668   1.660   0.808   0.750  0.4923 -1.3335  0.2488
  557SOL     OW 1669   1.455   2.207   1.552  0.2725  0.0791 -0.3552
  557SOL    HW1 1670   1.433   2.233   1.459  1.4378 -3.6851  3.2095
  557SOL    HW2 1671   1.440   2.285   1.617 -2.6428 -0.6901  1.1818
  558SOL     OW 1672   3.062   1.111   2.407  0.0786 -0.4718 -0.2365
  558SOL    HW1 1673   2.994   1.124   2.482 -1.1569 -1.4359 -0.3785
  558SOL    HW2 1674   3.038   1.022   2.365 -0.0591  0.7007  1.9735
  559SOL     OW 1675   2.572   2.553   2.337 -0.0390  0.0084 -0.3357
  559SOL    HW1 1676   2.595   2.479   2.403 -1.6726  1.3871  1.9520
  559SOL    HW2 1677   2.640   2.629   2.356  1.0103  1.4090 -0.2711
  560SOL     OW 1678   0.244   3.032   2.489  0.2269  0.1755 -0.1839
  560SOL    HW1 1679   0.155   3.086   2.490 -2.0693 -1.3578  1.6144
  560SOL    HW2 1680   0.326   3.089   2.463 -0.0708 -2.8110  1.5206
  561SOL     OW 1681   1.716   0.686   0.654  0.1682 -0.1619 -0.1675
  561SOL    HW1 1682   1.678   0.593   0.644  3.0429  1.0123  0.8202
  561SOL    HW2 1683   1.794   0.701   0.587 -1.4718  0.8774  0.4360
  562SOL     OW 1684   0.586   1.376   2.131  0.4075 -0.2359 -0.0719
  562SOL    HW1 1685   0.661   1.341   2.075 -1.5187  1.0289  3.0434
  562SOL    HW2 1686   0.623   1.432   2.210  1.5788 -1.5613 -1.8234
  563SOL     OW 1687   1.620   2.059   0.107  0.2808 -0.6835  0.2973
  563SOL    HW1 1688   1.594   1.962   0.113 -1.0465  0.4838  0.3452
  563SOL    HW2 1689   1.714   2.083   0.072  2.4746  0.4749 -2.4743
  564SOL     OW 1690   0.372   1.981   0.642 -0.6196  0.0093 -0.2234
  564SOL    HW1 1691   0.449   1.937   0.592 -1.9714  1.4537  0.1491
  564SOL    HW2 1692   0.298   1.914   0.653 -1.0448 -1.3007  0.1281
  565SOL     OW 1693   0.584   3.001   0.050  0.0967  0.3452 -0.4723
  565SOL    HW1 1694   0.651   3.002   3.077  2.5955  0.2808 -0.6713
  565SOL    HW2 1695   0.555   3.091   0.077  0.9081 -1.8513  1.3504
  566SOL     OW 1696   1.540   2.631   2.921 -0.2523  0.6385 -0.3452
  566SOL    HW1 1697   1.561   2.563   2.998 -1.1110 -0.4863  0.6842
  566SOL    HW2 1698   1.586   2.607   2.833 -1.1845 -0.7117 -0.6444
  567SOL     OW 1699   2.394   1.816   1.034 -0.4889  0.6516  0.3465
  567SOL    HW1 1700   2.449   1.849   0.954 -0.4295 -1.6839  1.3396
  567SOL    HW2 1701   2.405   1.712   1.055  0.4488 -0.5620  1.1466
  568SOL     OW 1702   1.664   0.991   2.482 -0.4700  0.4953  0.7079
  568SOL    HW1 1703   1.610   0.902   2.480 -0.6130 -0.6240  0.0105
  568SOL    HW2 1704   1.650   1.036   2.573 -0.6215 -3.6632  0.3821
  569SOL     OW 1705   2.249   1.778   1.893 -0.0097 -0.7722 -0.5527
  569SOL    HW1 1706   2.306   1.737   1.818 -2.9466  0.6901 -0.0859
  569SOL    HW2 1707   2.252   1.725   1.982  0.7248  0.8826  0.4103
  570SOL     OW 1708   2.986   2.676   1.798 -0.1217 -0.2720 -0.5350
  570SOL    HW1 1709   3.051   2.666   1.723  0.2582 -0.5503  3.7760
  570SOL    HW2 1710   2.905   2.731   1.774 -2.0983 -0.5285 -1.1612
  571SOL     OW 1711   0.103   0.649   1.479  0.5558  0.0800  0.1639
  571SOL    HW1 1712   0.144   0.646   1.382  0.8108 -2.9899 -2.2535
  571SOL    HW2 1713   0.174   0.637   1.553  0.1662 -1.8421  0.6168
  572SOL     OW 1714   0.627   1.528   0.750 -0.1410 -0.2044 -0.1712
  572SOL    HW1 1715   0.649   1.533   0.849 -0.1726  0.3895 -0.3273
  572SOL    HW2 1716   0.678   1.586   0.682 -1.3113 -1.4180 -0.8821
  573SOL     OW 1717   1.189   0.767   0.300  0.1417 -0.0753  0.1622
  573SOL    HW1 1718   1.124   0.687   0.286  0.5349 -4.0512 -0.9981
  573SOL    HW2 1719   1.209   0.803   0.207  2.6312 -1.1538  3.2395
  574SOL     OW 1720   0.187   0.373   0.323 -0.1067 -0.5182  0.2265
  574SOL    HW1 1721   0.214   0.279   0.286  1.4077 -1.1429  0.4605
  574SOL    HW2 1722   0.210   0.443   0.252  2.4281  1.3224 -0.7439
  575SOL     OW 1723   0.912   2.034   1.126  0.0627 -0.1485  0.0045
  575SOL    HW1 1724   0.912   2.008   1.029  1.4543 -0.4147  2.2352
  575SOL    HW2 1725   0.952   2.128   1.128 -2.8454  2.1189 -3.3619
  576SOL     OW 1726   0.067   0.105   1.839  0.1054  0.0701  0.0183
  576SOL    HW1 1727   0.047   0.181   1.774 -0.1044  0.5492 -1.2948
  576SOL    HW2 1728   3.088   0.066   1.876 -0.0118 -1.4062 -0.0250
  577SOL     OW 1729   2.726   1.711   2.006 -0.0632 -0.4126  0.0701
  577SOL    HW1 1730   2.667   1.782   2.049  3.4074 -2.0460 -1.0385
  577SOL    HW2 1731   2.763   1.643   2.074  1.6683  0.9153 -0.2539
  578SOL     OW 1732   1.094   3.088   2.391  0.4094  0.4751 -0.3570
  578SOL    HW1 1733   1.159   0.010   2.316  0.1920  0.1899 -1.4325
  578SOL    HW2 1734   1.140   3.025   2.460  2.9990 -2.3442  1.3393
  579SOL     OW 1735   1.858   1.788   2.292 -0.8638 -0.4166  0.0727
  579SOL    HW1 1736   1.911   1.754   2.211 -1.6868  0.3967  0.3877
  579SOL    HW2 1737   1.756   1.801   2.274 -0.5882  0.7598  1.2110
  580SOL     OW 1738   1.774   1.025   2.042  0.5312  0.3394 -0.4603
  580SOL    HW1 1739   1.788   0.980   2.132 -2.4663  1.3384  3.0761
  580SOL    HW2 1740   1.691   1.086   2.053 -1.4083  1.0908  0.2665
  581SOL     OW 1741   1.187   1.087   2.492  0.1423 -0.1255 -0.0831
  581SOL    HW1 1742   1.271   1.147   2.505 -2.4345 -0.2937  1.9926
  581SOL    HW2 1743   1.135   1.119   2.408 -0.8131 -0.7250 -3.1920
  582SOL     OW 1744   3.077   2.337   1.950  0.5366  0.4795  0.7763
  582SOL    HW1 1745   0.033   2.315   2.025 -0.2389  1.6420 -1.0666
  582SOL    HW2 1746   0.010   2.401   1.885 -0.8583  0.9198  0.1061
  583SOL     OW 1747   1.771   1.381   1.236  0.3190  0.5750 -0.0749
  583SOL    HW1 1748   1.735   1.360   1.141 -0.3646 -0.2308 -1.2508
  583SOL    HW2 1749   1.773   1.478   1.262 -0.9068 -0.6860  0.3681
  584SOL     OW 1750   0.809   2.451   2.989  0.7239  0.9341 -0.0232
  584SOL    HW1 1751   0.849   2.398   3.072  2.0354  0.1301  1.7390
  584SOL    HW2 1752   0.837   2.409   2.900 -0.2250 -0.3375 -0.8799
  585SOL     OW 1753   0.283   2.361   0.303  0.2968  0.1178  0.1289
  585SOL    HW1 1754   0.205   2.394   0.247  1.8690  0.1712  0.3740
  585SOL    HW2 1755   0.370   2.405   0.276 -0.7701 -2.7806 -0.0268
  586SOL     OW 1756   2.091   1.530   0.404 -0.5009  0.5145  0.0405
  586SOL    HW1 1757   2.003   1.488   0.383  2.3315  0.3237  2.0577
  586SOL    HW2 1758   2.094   1.546   0.502 -2.0550 -0.2858 -4.4767
  587SOL     OW 1759   2.948   1.945   0.281  0.6170  0.3205 -0.3843
  587SOL    HW1 1760   2.999   2.032   0.305  1.2676  0.9553 -0.7147
  587SOL    HW2 1761   2.852   1.951   0.317 -0.8473 -1.0206  2.3397
  588SOL     OW 1762   2.953   0.669   0.943 -0.2723  0.5916 -0.2503
  588SOL    HW1 1763   2.925   0.716   1.028  0.4695  1.5498  2.8240
  588SOL    HW2 1764   2.955   0.566   0.950  0.1721  0.1849  2.4972
  589SOL     OW 1765   1.039   0.498   0.934 -0.8746  0.2063  0.1010
  589SOL    HW1 1766   1.132   0.531   0.913  1.4069  0.2173  0.4507
  589SOL    HW2 1767   1.003   0.552   1.013 -1.0199  1.2188  1.8625
  590SOL     OW 1768   2.363   2.456   3.076  0.6098  0.7201 -0.1619
  590SOL    HW1 1769   2.382   2.401   0.055  1.4168 -0.7040  1.3883
  590SOL    HW2 1770   2.337   2.552   3.097  1.0405 -0.2334 -1.0745
  591SOL     OW 1771   0.520   2.449   1.940 -0.5064 -0.0797 -0.0958
  591SOL    HW1 1772   0.585   2.441   1.864  0.1087 -1.0288  2.1989
  591SOL    HW2 1773   0.425   2.476   1.913 -2.3843  2.1750  2.9434
  592SOL     OW 1774   0.493   1.438   1.739  0.2135  0.1206 -0.6529
  592SOL    HW1 1775   0.563   1.485   1.792 -1.6161 -0.5223  1.2522
  592SOL    HW2 1776   0.486   1.340   1.769  2.1805 -1.1738 -1.7194
  593SOL     OW 1777   1.411   1.760   1.449  0.3075 -0.3696 -0.3345
  593SOL    HW1 1778   1.438   1.824   1.369 -0.7686  1.4249 -0.6141
  593SOL    HW2 1779   1.412   1.818   1.535 -1.6429  2.3129  2.0188
  594SOL     OW 1780   0.356   0.991   2.751 -0.3806 -0.2804  0.9862
  594SOL    HW1 1781   0.417   1.074   2.740  1.4205  0.3970 -1.1946
  594SOL    HW2 1782   0.268   0.999   2.697  0.1836 -1.2953  1.1293
  595SOL     OW 1783   1.695   0.242   0.993  0.0074 -0.4951  0.1394
  595SOL    HW1 1784   1.615   0.253   0.928 -0.6756  1.4882 -0.5907
  595SOL    HW2 1785   1.708   0.325   1.044  0.0625 -0.2562 -0.4712
  596SOL     OW 1786   0.296   1.005   1.252  0.5159 -0.4370 -0.2659
  596SOL    HW1 1787   0.397   1.034   1.254  0.6035 -1.8741  1.8312
  596SOL    HW2 1788   0.234   1.087   1.257  1.8019  1.0328 -3.2882
  597SOL     OW 1789   0.056   2.315   2.861  0.4480 -0.1662 -0.6763
  597SOL    HW1 1790   0.081   2.397   2.920  0.4830 -0.6616 -0.0852
  597SOL    HW2 1791   3.058   2.297   2.851 -3.1352 -1.1154  0.5866
  598SOL     OW 1792   2.149   2.023   2.708  0.5712  0.4822 -0.6815
  598SOL    HW1 1793   2.068   2.081   2.683 -0.3947  1.8488 -0.2834
  598SOL    HW2 1794   2.177   2.037   2.805  0.4755 -0.2775  0.8477
  599SOL     OW 1795   1.661   0.543   0.350  0.2575  0.6664  0.0372
  599SOL    HW1 1796   1.591   0.620   0.354  1.5692  1.3135 -2.9246
  599SOL    HW2 1797   1.669   0.505   0.441  2.1866 -0.2432  0.4642
  600SOL     OW 1798   0.799   0.321   0.088 -0.0115  0.0641  0.0085
  600SOL    HW1 1799   0.870   0.255   0.118 -0.9014  2.0689 -0.9414
  600SOL    HW2 1800   0.845   0.392   0.033  0.9728  0.4462  0.8222
  601SOL     OW 1801   0.551   0.054   1.521  0.5130  0.0986 -0.4961
  601SOL    HW1 1802   0.616   0.129   1.550  3.9752  1.1594  0.3558
  601SOL    HW2 1803   0.541   0.048   1.419 -3.2954 -0.3786  0.5304
  602SOL     OW 1804   0.168   2.763   0.801  0.3829  0.1656  0.7905
  602SOL    HW1 1805   0.120   2.786   0.716  1.0600 -0.9086 -0.2156
  602SOL    HW2 1806   0.128   2.814   0.881 -1.5051 -0.7012  0.1525
  603SOL     OW 1807   0.722   2.986   2.473 -0.7571  0.3242 -0.4808
  603SOL    HW1 1808   0.796   2.988   2.399  0.9966 -0.0083  0.9786
  603SOL    HW2 1809   0.652   2.914   2.452  4.8980  2.1378  0.4244
  604SOL     OW 1810   1.070   2.531   0.078 -0.0638  0.1028 -0.2717
  604SOL    HW1 1811   1.006   2.451   0.086  0.7679 -1.4634  0.8190
  604SOL    HW2 1812   1.068   2.577   3.092 -2.3562 -2.4007  1.4434
  605SOL     OW 1813   1.447   0.898   1.722 -0.0997  0.0741  0.8262
  605SOL    HW1 1814   1.413   0.805   1.702  0.4508  2.3087 -1.0456
  605SOL    HW2 1815   1.546   0.904   1.716 -3.0627  2.2856  4.3625
  606SOL     OW 1816   1.359   0.642   2.807  0.7318 -0.1752 -0.2456
  606SOL    HW1 1817   1.314   0.685   2.723 -0.4664 -0.0154 -1.2669
  606SOL    HW2 1818   1.289   0.636   2.881 -1.6530 -1.9664  1.9169
  607SOL     OW 1819   0.176   1.248   1.306 -0.2676 -0.1879 -0.4271
  607SOL    HW1 1820   0.099   1.254   1.240  0.5374  0.3466  0.1111
  607SOL    HW2 1821   0.239   1.329   1.288  2.3414  1.5160 -0.7298
  608SOL     OW 1822   2.672   2.361   2.460 -0.2326  0.3376  0.9442
  608SOL    HW1 1823   2.636   2.274   2.500  1.7894 -1.8225 -0.0707
  608SOL    HW2 1824   2.741   2.341   2.385  0.1843 -2.4640  2.1652
  609SOL     OW 1825   2.114   0.112   0.269 -0.4359  0.5952  0.2337
  609SOL    HW1 1826   2.030   0.066   0.313 -0.4602 -1.1802 -0.5848
  609SOL    HW2 1827   2.196   0.098   0.329  2.1687 -0.9408 -0.5949
  610SOL     OW 1828   0.778   2.570   1.221 -0.8059  0.2299  0.1027
  610SOL    HW1 1829   0.830   2.589   1.131  1.0227  0.8167  0.8436
  610SOL    HW2 1830   0.779   2.648   1.289  2.4476 -1.0105 -3.2222
  611SOL     OW 1831   0.927   1.556   0.750  0.2167 -0.7118  0.0394
  611SOL    HW1 1832   0.885   1.570   0.658 -1.0465 -0.4311  0.1469
  611SOL    HW2 1833   0.864   1.586   0.821  2.9687 -3.7136 -3.0412
  612SOL     OW 1834   0.661   0.213   2.297  0.4313  0.0743  0.3474
  612SOL    HW1 1835   0.658   0.237   2.198  1.5172 -0.4831  0.7546
  612SOL    HW2 1836   0.754   0.186   2.314 -5.2949  1.2071 -2.0432
  613SOL     OW 1837   2.656   1.590   0.434 -0.4115 -0.2075  0.1796
  613SOL    HW1 1838   2.601   1.531   0.497  2.5009 -0.0494 -1.2358
  613SOL    HW2 1839   2.724   1.653   0.471 -2.0448  0.9226  0.0872
  614SOL     OW 1840   1.765   0.473   1.721 -0.0450 -0.4818  0.0958
  614SOL    HW1 1841   1.707   0.541   1.767  1.2934  0.2055 -0.5870
  614SOL    HW2 1842   1.750   0.483   1.621  0.8948  2.5904  1.1242
  615SOL     OW 1843   0.954   1.764   1.223  0.1812 -0.1345  0.2776
  615SOL    HW1 1844   1.040   1.733   1.265  0.5212  1.5526  2.2446
  615SOL    HW2 1845   0.949   1.866   1.216  0.0296  1.5787 -3.5506
  616SOL     OW 1846   1.414   1.564   2.723  0.1346  0.1252  0.2853
  616SOL    HW1 1847   1.491   1.506   2.699 -2.7912  0.1724  1.9673
  616SOL    HW2 1848   1.448   1.653   2.765  0.8323  1.4274  0.8923
  617SOL     OW 1849   1.714   2.538   0.387  0.1767 -0.3317  0.5039
  617SOL    HW1 1850   1.649   2.574   0.318  0.4172  1.2510 -2.0966
  617SOL    HW2 1851   1.712   2.597   0.472  0.7979  1.9443  1.8227
  618SOL     OW 1852   0.997   0.847   2.510 -0.4460 -1.0264  0.3379
  618SOL    HW1 1853   0.983   0.895   2.598  1.2221 -2.7610 -1.3699
  618SOL    HW2 1854   0.975   0.910   2.429 -2.8643  2.6902 -2.8058
  619SOL     OW 1855   2.727   1.274   0.648  0.5691 -0.1299 -0.2620
  619SOL    HW1 1856   2.762   1.285   0.555 -0.2739 -0.8060  0.0276
  619SOL    HW2 1857   2.634   1.312   0.661 -2.6573 -3.7364 -0.0059
  620SOL     OW 1858   2.208   2.851   0.050 -0.1044  0.5900 -0.0069
  620SOL    HW1 1859   2.291   2.811   0.094 -1.7446  0.2296 -1.4138
  620SOL    HW2 1860   2.126   2.805   0.085  2.2505  2.3304 -0.4652
  621SOL     OW 1861   2.275   1.314   0.143 -0.1332  0.1023  0.3321
  621SOL    HW1 1862   2.289   1.294   0.243  0.7290  0.9920  1.4797
  621SOL    HW2 1863   2.192   1.279   0.101 -0.8645  1.5976  0.2917
  622SOL     OW 1864   1.323   2.543   2.458  0.3340  0.6999 -0.2180
  622SOL    HW1 1865   1.335   2.471   2.393 -0.6624  5.5281  1.0219
  622SOL    HW2 1866   1.416   2.583   2.472  2.0507 -0.5929  1.6859
  623SOL     OW 1867   0.676   1.536   0.326  0.2632  0.2774 -0.3122
  623SOL    HW1 1868   0.744   1.604   0.294  2.4605 -0.2136  1.5786
  623SOL    HW2 1869   0.585   1.555   0.292  1.0751 -0.9230  0.3614
  624SOL     OW 1870   0.540   0.148   2.767 -0.0445 -0.3311  0.0045
  624SOL    HW1 1871   0.605   0.175   2.841 -2.4937  2.9861 -2.0545
  624SOL    HW2 1872   0.564   0.053   2.737 -1.0090  2.5830 -0.8862
  625SOL     OW 1873   0.830   1.914   0.393  0.0884 -0.0352  0.2204
  625SOL    HW1 1874   0.802   1.843   0.327  0.0125  2.4080 -2.0532
  625SOL    HW2 1875   0.933   1.938   0.389  2.4082  2.8527  2.9958
  626SOL     OW 1876   2.379   0.059   3.069  0.3812  0.1462  0.4266
  626SOL    HW1 1877   2.281   0.036   3.093  2.1049 -0.6597  0.5652
  626SOL    HW2 1878   2.405   0.150   0.001  0.4952 -2.0998  1.0908
  627SOL     OW 1879   1.407   1.270   2.508 -0.0826 -0.2513  0.7446
  627SOL    HW1 1880   1.501   1.264   2.471 -0.4630 -0.0484 -0.4100
  627SOL    HW2 1881   1.418   1.301   2.606 -0.5388  0.2682  2.8184
  628SOL     OW 1882   0.953   0.612   2.405  0.1693  0.0983  0.1136
  628SOL    HW1 1883   0.958   0.707   2.435 -0.8247 -2.5780 -1.2595
  628SOL    HW2 1884   0.854   0.585   2.401 -1.0596 -3.3839  1.9496
  629SOL     OW 1885   0.490   3.092   1.902 -0.1446 -0.4893  0.2284
  629SOL    HW1 1886   0.466   2.995   1.898  0.8184  0.3789  0.9680
  629SOL    HW2 1887   0.595   3.102   1.904 -0.0748  2.2064 -1.0675
  630SOL     OW 1888   2.249   0.710   1.743  0.0572  0.5161 -0.1552
  630SOL    HW1 1889   2.215   0.795   1.703 -0.1701 -1.8187  0.1044
  630SOL    HW2 1890   2.212   0.702   1.836 -1.7590  0.2937  1.7168
  631SOL     OW 1891   2.249   1.262   0.418  0.6485 -0.2084 -0.2503
  631SOL    HW1 1892   2.272   1.288   0.517 -0.7488  2.5905  2.2312
  631SOL    HW2 1893   2.149   1.242   0.418 -0.7403  1.4415 -0.6496
  632SOL     OW 1894   2.061   0.350   2.001 -0.1059  0.0020 -0.3636
  632SOL    HW1 1895   2.094   0.390   1.913 -0.0085  0.5294 -2.2107
  632SOL    HW2 1896   2.032   0.250   1.989 -0.7853 -1.9961  0.2897
  633SOL     OW 1897   0.741   2.732   0.463 -0.4554 -0.5491  0.0933
  633SOL    HW1 1898   0.686   2.649   0.440  0.9311  3.9053  0.2613
  633SOL    HW2 1899   0.695   2.820   0.432  0.5766  1.2161 -0.6091
  634SOL     OW 1900   1.427   2.976   2.781  0.0823  0.2787 -0.0450
  634SOL    HW1 1901   1.529   2.974   2.785 -1.5330 -1.4507 -0.3829
  634SOL    HW2 1902   1.391   2.937   2.870  2.6574 -0.9213 -1.4059
  635SOL     OW 1903   2.502   0.570   0.107 -0.2085  0.3104  0.0720
  635SOL    HW1 1904   2.578   0.549   0.167 -3.1211  1.9282  0.3475
  635SOL    HW2 1905   2.437   0.630   0.159  1.1354  0.3807  0.4041
  636SOL     OW 1906   0.811   1.543   1.243 -0.0204 -0.0775 -0.4071
  636SOL    HW1 1907   0.863   1.627   1.226 -1.8142  1.3155  1.5551
  636SOL    HW2 1908   0.861   1.455   1.242 -2.4674  0.9361 -0.4426
  637SOL     OW 1909   0.011   2.699   0.369 -0.1455 -0.2569  0.7076
  637SOL    HW1 1910   0.038   2.601   0.396  2.6431 -3.2215 -2.2727
  637SOL    HW2 1911   3.026   2.701   0.322  0.5135 -0.1550  0.8022
  638SOL     OW 1912   0.205   2.887   0.287 -0.1623  0.2176  0.6260
  638SOL    HW1 1913   0.135   2.825   0.318  1.2605  2.7409  1.0937
  638SOL    HW2 1914   0.270   2.916   0.354 -0.6683  0.8264 -1.9958
  639SOL     OW 1915   1.016   1.254   0.312 -0.0981 -0.3847 -0.2298
  639SOL    HW1 1916   1.053   1.237   0.216 -1.3041 -2.0012 -0.3921
  639SOL    HW2 1917   1.019   1.353   0.334  2.7799  1.6999  0.1256
  640SOL     OW 1918   1.266   2.622   0.837 -0.3391 -0.3107 -0.0789
  640SOL    HW1 1919   1.350   2.605   0.896  1.7554 -1.5368 -2.4183
  640SOL    HW2 1920   1.232   2.716   0.849 -0.9168 -3.2245 -1.9683
  641SOL     OW 1921   0.046   2.456   0.466 -0.2619 -0.1476  0.2798
  641SOL    HW1 1922   3.052   2.433   0.472  0.8002 -0.8355 -0.4939
  641SOL    HW2 1923   0.110   2.401   0.522  2.7085 -2.2020 -0.9871
  642SOL     OW 1924   1.000   0.157   1.758  0.0586  0.1874 -0.1893
  642SOL    HW1 1925   1.084   0.141   1.698 -1.3091 -1.1321 -3.8902
  642SOL    HW2 1926   1.014   0.119   1.854  1.5172 -1.3176  2.1871
  643SOL     OW 1927   0.812   2.206   2.244 -0.2643 -0.1391  0.1318
  643SOL    HW1 1928   0.807   2.215   2.141  1.2691 -0.0860 -0.5411
  643SOL    HW2 1929   0.764   2.123   2.279  0.7956 -0.9084 -0.2449
  644SOL     OW 1930   0.923   3.022   0.794  0.0654 -0.1121  0.1118
  644SOL    HW1 1931   0.990   3.053   0.725 -3.1718  1.3063  1.1469
  644SOL    HW2 1932   0.844   3.090   0.795 -1.6665  0.9341 -0.0686
  645SOL     OW 1933   1.075   1.597   2.359  0.2724 -0.0107 -0.5747
  645SOL    HW1 1934   1.007   1.580   2.434 -0.6716  1.5108  2.2808
  645SOL    HW2 1935   1.159   1.643   2.395  0.3485 -0.1753  1.2684
  646SOL     OW 1936   0.705   1.061   0.247 -0.3617  0.2310 -0.4520
  646SOL    HW1 1937   0.635   1.017   0.302  3.0890  0.0484  0.2862
  646SOL    HW2 1938   0.727   1.146   0.303 -2.1594  0.4480  0.6729
  647SOL     OW 1939   1.043   0.230   0.849  0.4935 -0.1584 -0.1311
  647SOL    HW1 1940   1.056   0.329   0.862  0.9430 -1.9488  0.4341
  647SOL    HW2 1941   1.000   0.185   0.928  1.7994 -0.6334  1.4844
  648SOL     OW 1942   2.843   2.876   1.680  0.2512  0.9933  0.2260
  648SOL    HW1 1943   2.753   2.873   1.733 -2.2879 -0.0073  0.6476
  648SOL    HW2 1944   2.890   2.968   1.684  1.6621 -0.8808 -0.5703
  649SOL     OW 1945   0.700   1.933   3.080  0.4701  0.3049 -0.4509
  649SOL    HW1 1946   0.642   2.007   3.037 -0.8966  2.2996  0.0560
  649SOL    HW2 1947   0.652   1.899   0.060 -2.4976  1.8104 -1.4478
  650SOL     OW 1948   0.287   1.926   1.505 -0.4078  0.1449  0.0003
  650SOL    HW1 1949   0.246   1.962   1.590  1.3677  2.7639  1.4545
  650SOL    HW2 1950   0.240   1.977   1.430 -0.6918 -2.0250  2.0524
  651SOL     OW 1951   0.117   2.941   2.960  0.5979 -0.0965 -0.1723
  651SOL    HW1 1952   0.131   2.967   3.058  0.2448  2.6760 -0.5854
  651SOL    HW2 1953   0.121   3.030   2.907 -1.1087  0.6907  0.7270
  652SOL     OW 1954   2.519   1.900   0.159  0.3618 -0.2768  0.2760
  652SOL    HW1 1955   2.556   1.975   0.100  2.0493  1.5292 -0.2261
  652SOL    HW2 1956   2.554   1.909   0.257 -1.6579  1.8103  0.3321
  653SOL     OW 1957   0.175   0.311   1.142  0.2385 -0.4349 -0.0674
  653SOL    HW1 1958   0.208   0.239   1.082 -2.2356  2.1769 -0.4975
  653SOL    HW2 1959   0.245   0.313   1.217 -0.1445 -1.2884  0.4682
  654SOL     OW 1960   1.691   2.986   2.817  0.6043  0.0106 -0.1971
  654SOL    HW1 1961   1.708   3.037   2.731 -2.5944  1.8177 -1.6354
  654SOL    HW2 1962   1.747   3.027   2.887 -1.7892  0.9560  0.5859
  655SOL     OW 1963   0.945   2.573   0.981  0.0062 -0.2173  0.1586
  655SOL    HW1 1964   0.908   2.661   0.938 -0.5697  0.1979 -2.1852
  655SOL    HW2 1965   0.923   2.491   0.925  2.1599  2.9310 -2.4639
  656SOL     OW 1966   0.424   2.823   1.941 -0.4294 -0.3287 -0.7857
  656SOL    HW1 1967   0.462   2.753   2.005  0.6490 -1.6979 -1.3690
  656SOL    HW2 1968   0.340   2.794   1.888 -0.0880 -1.0468 -0.4568
  657SOL     OW 1969   2.124   0.731   1.991  0.6152 -0.5518  0.3544
  657SOL    HW1 1970   2.167   0.768   2.073  0.7201 -0.5058 -1.3408
  657SOL    HW2 1971   2.039   0.683   2.004  0.4540  2.5292  0.0055
  658SOL     OW 1972   2.149   1.811   1.165 -0.0974  0.0799 -0.1142
  658SOL    HW1 1973   2.146   1.772   1.263 -0.2257  1.7644  1.4018
  658SOL    HW2 1974   2.241   1.846   1.136 -1.1680 -0.0731  1.6136
  659SOL     OW 1975   2.426   2.758   0.159  0.1279  0.1330  0.3467
  659SOL    HW1 1976   2.486   2.827   0.115  0.9611  2.3113 -0.6110
  659SOL    HW2 1977   2.467   2.748   0.249 -0.9674  1.4618 -1.5820
  660SOL     OW 1978   0.985   0.952   2.750 -0.0179 -0.0061  0.4134
  660SOL    HW1 1979   0.988   1.050   2.760  2.3835  0.8359 -1.3422
  660SOL    HW2 1980   0.990   0.900   2.839 -0.5569 -1.6248  0.9134
  661SOL     OW 1981   2.434   2.742   0.876 -0.0178 -0.3934  0.0923
  661SOL    HW1 1982   2.387   2.744   0.970  0.0320  1.0427  0.2766
  661SOL    HW2 1983   2.398   2.659   0.832  0.4061 -0.0173  0.2184
  662SOL     OW 1984   0.507   0.622   0.146  0.3678  0.0239 -0.5577
  662SOL    HW1 1985   0.515   0.521   0.162  0.2070 -1.3213 -0.3126
  662SOL    HW2 1986   0.415   0.643   0.110  0.3237  2.3805 -1.1337
  663SOL     OW 1987   1.004   2.293   2.812 -0.5743 -0.0847  0.0901
  663SOL    HW1 1988   1.101   2.331   2.806  2.5866  0.8026  0.4954
  663SOL    HW2 1989   0.948   2.323   2.730  3.4063  1.5647  0.6997
  664SOL     OW 1990   0.796   2.801   1.386  0.2955  0.0715 -0.3534
  664SOL    HW1 1991   0.734   2.835   1.461 -1.5948  1.1323 -1.7885
  664SOL    HW2 1992   0.893   2.799   1.416  0.4356 -0.9681  0.7756
  665SOL     OW 1993   1.792   1.661   1.906 -0.1550 -0.9393 -0.3393
  665SOL    HW1 1994   1.802   1.559   1.921  0.2310 -1.0968  1.3565
  665SOL    HW2 1995   1.870   1.715   1.941  0.1813 -1.5996  1.2287
  666SOL     OW 1996   0.461   2.523   0.170  0.0619  0.2271 -0.4519
  666SOL    HW1 1997   0.493   2.471   0.086  0.9942  0.3065 -0.5836
  666SOL    HW2 1998   0.424   2.614   0.140 -4.3069  3.3983 -0.3523
  667SOL     OW 1999   2.063   1.433   1.556 -0.7969  0.1512 -0.2143
  667SOL    HW1 2000   1.977   1.382   1.534 -0.6026  0.4701 -1.5499
  667SOL    HW2 2001   2.037   1.519   1.599  0.5322 -2.9802  0.3094
  668SOL     OW 2002   0.359   0.156   2.131  0.2782  0.0039  0.3895
  668SOL    HW1 2003   0.413   0.173   2.046  0.7529 -1.0898 -1.7885
  668SOL    HW2 2004   0.302   0.078   2.111  1.6946 -1.2347  0.5202
  669SOL     OW 2005   1.733   2.142   2.222 -0.0509  0.1391  0.4603
  669SOL    HW1 2006   1.766   2.234   2.190 -2.3491 -1.9418  0.4153
  669SOL    HW2 2007   1.724   2.075   2.148  0.6881 -0.3018  0.2641
  670SOL     OW 2008   2.305   2.046   0.294 -0.4632 -0.2989  0.3873
  670SOL    HW1 2009   2.368   1.970   0.265  3.0141 -1.5349  0.5127
  670SOL    HW2 2010   2.256   2.021   0.378  0.9894  1.2546  0.1739
  671SOL     OW 2011   0.586   1.258   1.508  0.6785  0.1081 -0.7790
  671SOL    HW1 2012   0.608   1.283   1.607 -2.4036 -0.4047  2.5873
  671SOL    HW2 2013   0.588   1.340   1.449  1.7563 -0.7786 -0.8452
  672SOL     OW 2014   2.679   1.342   2.132  0.4283  0.5103 -0.0693
  672SOL    HW1 2015   2.629   1.377   2.213 -3.2768  0.1240 -2.9077
  672SOL    HW2 2016   2.764   1.388   2.117 -3.8260 -2.0416  2.6033
  673SOL     OW 2017   2.809   1.924   2.344 -0.0687  0.2728  0.0333
  673SOL    HW1 2018   2.728   1.869   2.385 -1.1585 -0.8481  2.6346
  673SOL    HW2 2019   2.877   1.950   2.412  0.1927  0.0145 -0.8835
  674SOL     OW 2020   1.045   2.773   2.187  0.1955  0.3298  0.0144
  674SOL    HW1 2021   1.123   2.743   2.249  0.9473 -2.7234  0.7204
  674SOL    HW2 2022   0.989   2.848   2.220  0.1524 -1.1464 -1.0951
  675SOL     OW 2023   0.803   0.869   1.587 -0.0020  0.4449 -0.1241
  675SOL    HW1 2024   0.867   0.790   1.596  1.0126 -3.4644 -0.0075
  675SOL    HW2 2025   0.825   0.937   1.661  1.6507  1.6106  1.1308
  676SOL     OW 2026   1.854   0.958   0.405  0.3450  0.8503  0.5350
  676SOL    HW1 2027   1.894   0.897   0.476 -0.3375 -1.6979 -1.4471
  676SOL    HW2 2028   1.906   0.964   0.318  1.0095 -0.9126 -0.4550
  677SOL     OW 2029   3.102   1.616   2.709  0.8139  0.4519  0.2043
  677SOL    HW1 2030   3.029   1.565   2.660  0.2468  2.2512  0.1817
  677SOL    HW2 2031   0.024   1.558   2.791 -0.8856  0.7302  2.4558
  678SOL     OW 2032   2.943   2.964   1.354  0.4584 -0.2677 -0.1518
  678SOL    HW1 2033   2.976   3.008   1.439 -0.6735  0.6415  0.2417
  678SOL    HW2 2034   2.997   2.879   1.340 -0.1347 -1.5503 -0.4000
  679SOL     OW 2035   1.926   3.075   0.632  0.1380  0.5523  0.0824
  679SOL    HW1 2036   1.938   0.046   0.699  0.2285 -0.8775 -1.3170
  679SOL    HW2 2037   1.957   2.989   0.668 -2.0279 -0.5991 -1.4191
  680SOL     OW 2038   0.383   2.223   2.081  0.5554  0.0717  0.0147
  680SOL    HW1 2039   0.357   2.149   2.012 -1.0884  0.8101 -1.0730
  680SOL    HW2 2040   0.419   2.300   2.028  1.4663 -4.4486  0.0457
  681SOL     OW 2041   0.359   1.431   1.231  0.2993 -0.2782  0.2782
  681SOL    HW1 2042   0.364   1.410   1.131  0.5925 -1.4458 -0.1837
  681SOL    HW2 2043   0.327   1.528   1.241  0.1326  0.5801 -1.8513
  682SOL     OW 2044   0.261   2.261   1.707  0.2893  0.5062 -0.0882
  682SOL    HW1 2045   0.179   2.213   1.742 -1.2566 -2.2121 -0.9729
  682SOL    HW2 2046   0.270   2.360   1.738  0.3456  1.2993  2.2780
  683SOL     OW 2047   2.969   1.853   1.539 -0.1616  0.2965  0.3413
  683SOL    HW1 2048   2.938   1.911   1.612  1.6717  1.3895 -1.0365
  683SOL    HW2 2049   3.048   1.792   1.567 -0.1310 -2.3233  1.3450
  684SOL     OW 2050   2.499   1.669   0.033  0.1131  0.1287  0.2585
  684SOL    HW1 2051   2.483   1.741   0.105 -1.1169  1.9779  1.8504
  684SOL    HW2 2052   2.561   1.598   0.068 -0.6638  2.3872 -0.0097
  685SOL     OW 2053   1.472   0.755   0.327 -0.1756  0.7551  0.4117
  685SOL    HW1 2054   1.524   0.842   0.305  1.1062  1.0534  0.2257
  685SOL    HW2 2055   1.374   0.774   0.336  2.1971 -0.1622 -1.6464
  686SOL     OW 2056   0.207   0.124   0.942  0.8093 -0.0808  0.0083
  686SOL    HW1 2057   0.295   0.072   0.938 -2.4354  0.9098 -0.1139
  686SOL    HW2 2058   0.146   0.050   0.981  0.1374  1.1506  0.3410
  687SOL     OW 2059   0.969   1.332   2.544 -0.0820  0.6574 -0.6563
  687SOL    HW1 2060   1.005   1.322   2.452 -1.9684 -0.7092  2.1187
  687SOL    HW2 2061   1.003   1.255   2.599 -1.1289  0.2731  3.9047
  688SOL     OW 2062   1.074   1.758   1.621  0.9613 -0.4537 -0.1883
  688SOL    HW1 2063   1.007   1.689   1.593  1.6067  0.6028 -0.9762
  688SOL    HW2 2064   1.023   1.838   1.663  0.5008  1.5413  0.0563
  689SOL     OW 2065   2.328   0.217   1.315 -0.1370  0.2761  0.3597
  689SOL    HW1 2066   2.368   0.164   1.236 -1.3544  2.3050 -0.7118
  689SOL    HW2 2067   2.235   0.249   1.294 -5.0280  0.7439  0.4555
  690SOL     OW 2068   3.069   1.440   0.858 -0.0374  0.1266 -0.1925
  690SOL    HW1 2069   3.103   1.489   0.943  0.4990 -1.0061  1.5350
  690SOL    HW2 2070   0.041   1.425   0.794 -3.0523 -0.2439 -0.4270
  691SOL     OW 2071   0.212   2.423   1.274 -0.4573  0.4445  0.3739
  691SOL    HW1 2072   0.285   2.402   1.344 -0.3994  0.9211 -2.4757
  691SOL    HW2 2073   0.121   2.377   1.291  0.3714  0.9701  2.2108
  692SOL     OW 2074   2.183   3.024   1.110 -0.3920 -0.4450  0.4419
  692SOL    HW1 2075   2.181   0.012   1.065 -0.6754  0.1775 -2.2544
  692SOL    HW2 2076   2.098   3.001   1.156  1.7986  0.0999  0.5423
  693SOL     OW 2077   0.306   1.760   2.344  0.2423  1.0407  0.0249
  693SOL    HW1 2078   0.352   1.747   2.253  0.8236  2.6236  0.6943
  693SOL    HW2 2079   0.279   1.674   2.388 -0.0486  0.3673  0.0654
  694SOL     OW 2080   1.725   0.919   1.435  0.0576 -0.3852  0.4708
  694SOL    HW1 2081   1.744   0.969   1.348  1.7926 -0.0878  0.6381
  694SOL    HW2 2082   1.629   0.890   1.433  0.1139  2.1925 -0.1220
  695SOL     OW 2083   0.905   0.906   1.337 -0.2358 -0.1147  0.1431
  695SOL    HW1 2084   0.868   0.908   1.433  2.3283 -0.5442 -1.0656
  695SOL    HW2 2085   0.996   0.949   1.334  0.3015  0.0471  2.0531
  696SOL     OW 2086   1.428   3.044   0.712 -0.5944 -0.2280  0.4950
  696SOL    HW1 2087   1.490   3.000   0.779 -0.4373 -1.8955 -1.3393
  696SOL    HW2 2088   1.381   2.972   0.657  0.8202  1.3772 -2.3332
  697SOL     OW 2089   1.108   0.462   1.575  0.1295 -0.1486 -0.1090
  697SOL    HW1 2090   1.116   0.453   1.677 -1.1968 -1.5007 -0.8593
  697SOL    HW2 2091   1.197   0.442   1.531 -1.0419  2.7559  1.4940
  698SOL     OW 2092   1.549   1.168   2.056 -0.0189  0.4159 -0.6317
  698SOL    HW1 2093   1.498   1.104   2.118  0.0414 -1.1207  0.9237
  698SOL    HW2 2094   1.570   1.252   2.109 -1.8044  0.3115  1.7009
  699SOL     OW 2095   1.719   0.504   1.090 -0.4066  0.1170 -0.0776
  699SOL    HW1 2096   1.782   0.498   1.006 -1.9994  2.3097 -2.0043
  699SOL    HW2 2097   1.633   0.549   1.060 -2.3434 -1.0376 -0.2648
  700SOL     OW 2098   0.880   2.338   0.099  0.2896  0.4409 -0.2113
  700SOL    HW1 2099   0.844   2.338   0.193  0.5519 -1.0945 -0.0157
  700SOL    HW2 2100   0.927   2.245   0.077 -2.3112 -0.2847 -1.4841
  701SOL     OW 2101   2.078   2.437   2.778 -0.0310  0.1818 -0.6323
  701SOL    HW1 2102   2.003   2.379   2.747 -1.0168 -1.4965 -0.6911
  701SOL    HW2 2103   2.118   2.490   2.700  0.4171 -1.2785 -0.8957
  702SOL     OW 2104   0.829   0.499   0.770 -0.2913 -0.2569  0.3749
  702SOL    HW1 2105   0.915   0.506   0.824 -2.4095 -0.3679 -2.0258
  702SOL    HW2 2106   0.807   0.396   0.751 -0.4437 -1.9251  0.7951
  703SOL     OW 2107   2.466   0.173   2.449  0.2332 -0.0934  0.1910
  703SOL    HW1 2108   2.454   0.232   2.531  0.2887  0.5607 -0.1000
  703SOL    HW2 2109   2.507   0.229   2.375  2.8813  2.4595  0.7531
  704SOL     OW 2110   0.206   2.150   0.481  0.4150  0.3415  0.5869
  704SOL    HW1 2111   0.268   2.108   0.552  2.5498 -1.2165 -1.0151
  704SOL    HW2 2112   0.253   2.218   0.425 -1.8595  0.3050  0.8220
  705SOL     OW 2113   2.777   2.714   2.361  0.4234 -0.5414  0.3881
  705SOL    HW1 2114   2.879   2.695   2.377  1.4278 -0.8312 -0.5872
  705SOL    HW2 2115   2.759   2.816   2.347 -2.7285  0.7373 -1.3133
  706SOL     OW 2116   2.314   2.767   1.126 -0.5382 -0.1625 -0.0590
  706SOL    HW1 2117   2.275   2.724   1.210 -0.0357 -2.5875  0.8586
  706SOL    HW2 2118   2.280   2.859   1.111 -0.4473 -0.4874 -2.2588
  707SOL     OW 2119   0.810   2.648   2.138 -0.2593  0.0640 -0.1793
  707SOL    HW1 2120   0.894   2.705   2.155 -0.6574 -1.1774  1.0262
  707SOL    HW2 2121   0.831   2.572   2.074  0.3455  2.8644  1.5370
  708SOL     OW 2122   0.092   2.273   2.171 -0.7430 -0.6886  0.4717
  708SOL    HW1 2123   0.193   2.262   2.161 -1.5809  3.5668 -0.8441
  708SOL    HW2 2124   0.061   2.293   2.263  2.3627  0.8196  1.1854
  709SOL     OW 2125   2.024   0.106   1.908 -0.0337 -0.3997 -0.2793
  709SOL    HW1 2126   2.007   0.171   1.827  2.3114  0.0541 -3.5601
  709SOL    HW2 2127   1.932   0.078   1.949  0.7578  0.6211  0.3683
  710SOL     OW 2128   1.640   0.570   2.590 -0.2279 -0.1504 -0.0700
  710SOL    HW1 2129   1.700   0.640   2.639  0.6528  1.1064 -2.0276
  710SOL    HW2 2130   1.696   0.511   2.525 -1.6684  0.4779 -4.2050
  711SOL     OW 2131   0.696   2.059   2.711 -0.0742 -0.1909 -0.6019
  711SOL    HW1 2132   0.792   2.050   2.723  2.5560  0.5920  0.2116
  711SOL    HW2 2133   0.657   1.981   2.663  2.0101  2.1946  0.3159
  712SOL     OW 2134   0.415   2.465   2.527  0.2934 -0.0540 -0.2263
  712SOL    HW1 2135   0.407   2.445   2.626 -1.6903 -0.5539  2.1806
  712SOL    HW2 2136   0.514   2.484   2.500  0.9455 -1.6178  1.3907
  713SOL     OW 2137   1.632   1.360   2.654  0.4874 -0.0180 -0.3400
  713SOL    HW1 2138   1.668   1.273   2.695 -0.2981  0.9034  0.6438
  713SOL    HW2 2139   1.695   1.397   2.583 -1.4519  0.3780 -0.1209
  714SOL     OW 2140   1.559   1.454   2.123 -0.0228  0.2635 -0.1287
  714SOL    HW1 2141   1.530   1.461   2.024  1.5233 -2.8642 -2.4159
  714SOL    HW2 2142   1.474   1.460   2.183 -2.5336 -0.9217  1.9391
  715SOL     OW 2143   2.082   0.652   2.511  0.0903  0.0280 -0.6732
  715SOL    HW1 2144   2.061   0.594   2.591 -0.2671  0.9670  3.0466
  715SOL    HW2 2145   2.046   0.744   2.528  2.5317 -6.1753  1.0465
  716SOL     OW 2146   2.919   2.099   1.661 -0.1274 -0.1287  0.0827
  716SOL    HW1 2147   2.876   2.112   1.751  0.5938 -1.7128 -3.2688
  716SOL    HW2 2148   2.954   2.188   1.624  1.7657 -0.4723 -3.0897
  717SOL     OW 2149   2.502   1.445   0.599 -0.0513  0.0899 -0.2746
  717SOL    HW1 2150   2.517   1.513   0.673 -0.1439 -1.9658 -2.8887
  717SOL    HW2 2151   2.422   1.383   0.624 -3.2553 -0.5345  3.1527
  718SOL     OW 2152   1.104   2.011   2.098 -0.3667  0.2290 -0.2596
  718SOL    HW1 2153   1.151   2.073   2.164 -0.3513  0.1287  1.6667
  718SOL    HW2 2154   1.043   1.945   2.151 -0.2931 -0.7426  0.1441
  719SOL     OW 2155   1.996   0.904   2.532 -0.1703 -0.5079  0.2372
  719SOL    HW1 2156   1.923   0.927   2.468  0.1080  3.3037  3.2309
  719SOL    HW2 2157   1.996   0.966   2.612 -0.3021  0.7011 -0.0851
  720SOL     OW 2158   0.581   0.462   0.926  0.1788 -0.1268 -0.2313
  720SOL    HW1 2159   0.653   0.490   0.856  1.6803  0.7276 -0.6016
  720SOL    HW2 2160   0.491   0.432   0.889  3.2547  0.8629  2.4731
  721SOL     OW 2161   2.912   0.785   0.396 -0.1475  0.0770  0.4752
  721SOL    HW1 2162   2.872   0.729   0.325 -1.9027  0.3497  1.5700
  721SOL    HW2 2163   2.864   0.874   0.411  1.6998 -1.0417 -1.8389
  722SOL     OW 2164   3.040   0.247   2.562 -0.0325 -0.5987 -0.2162
  722SOL    HW1 2165   3.017   0.200   2.650  0.4071 -1.6074  0.9391
  722SOL    HW2 2166   3.078   0.340   2.569  1.8343  1.0815 -0.8649
  723SOL     OW 2167   1.582   0.205   0.338  0.0270  0.2117  0.4987
  723SOL    HW1 2168   1.506   0.263   0.374 -2.5990 -0.8066  1.6216
  723SOL    HW2 2169   1.549   0.104   0.356 -1.6141  0.8293  1.6630
  724SOL     OW 2170   0.668   1.812   2.203 -0.1679 -0.4845  0.9558
  724SOL    HW1 2171   0.616   1.806   2.114  2.3625 -0.0670 -2.2968
  724SOL    HW2 2172   0.647   1.892   2.258 -0.6233  1.4728 -2.4790
  725SOL     OW 2173   1.617   2.927   0.895  0.1591  0.7677  0.4354
  725SOL    HW1 2174   1.676   2.871   0.838  1.5759  2.2556  1.6506
  725SOL    HW2 2175   1.654   2.948   0.987 -3.6545 -1.0737  0.4114
  726SOL     OW 2176   1.861   2.381   0.063  0.1849  0.1941 -0.3835
  726SOL    HW1 2177   1.961   2.388   0.041  0.7918  1.1172 -1.2532
  726SOL    HW2 2178   1.846   2.354   0.156 -0.6494  0.0256 -2.5737
  727SOL     OW 2179   1.679   1.619   1.353 -0.3697  0.2650 -0.6416
  727SOL    HW1 2180   1.654   1.637   1.450  2.4674  0.3369  0.3485
  727SOL    HW2 2181   1.745   1.692   1.328  0.8948  1.4342 -0.4962
  728SOL     OW 2182   2.168   2.803   1.679 -0.4704 -0.1344 -0.2155
  728SOL    HW1 2183   2.182   2.851   1.589 -1.4628  0.6611 -1.3097
  728SOL    HW2 2184   2.194   2.706   1.670 -0.1272  0.8581 -0.5259
  729SOL     OW 2185   2.077   2.072   1.443 -0.3235 -0.6056  0.5906
  729SOL    HW1 2186   2.156   2.106   1.384 -1.8812  0.8845 -0.9351
  729SOL    HW2 2187   2.095   1.976   1.476  1.8753 -0.6691 -1.0361
  730SOL     OW 2188   1.519   0.806   2.980 -0.1934  0.2018 -0.0610
  730SOL    HW1 2189   1.460   0.770   2.906  2.7354  3.1323  0.7174
  730SOL    HW2 2190   1.600   0.745   2.989 -2.2622 -2.0085 -1.4967
  731SOL     OW 2191   0.331   0.365   0.839  0.1296 -0.2772  0.3707
  731SOL    HW1 2192   0.254   0.433   0.821 -0.4145  0.9092 -0.6364
  731SOL    HW2 2193   0.285   0.286   0.882 -0.8651 -0.4804  2.3195
  732SOL     OW 2194   1.436   0.212   0.633 -0.3611 -0.1400  0.2574
  732SOL    HW1 2195   1.384   0.230   0.549  0.9020 -1.4259  4.0986
  732SOL    HW2 2196   1.433   0.116   0.669 -1.7467 -1.6457 -1.9753
  733SOL     OW 2197   0.694   1.779   1.428 -0.3324  0.0626  0.2325
  733SOL    HW1 2198   0.651   1.692   1.407 -0.0939 -0.2931 -0.0107
  733SOL    HW2 2199   0.698   1.840   1.342 -1.8928 -1.8144 -1.0184
  734SOL     OW 2200   2.822   2.707   0.018 -0.2315 -0.1981 -0.4424
  734SOL    HW1 2201   2.764   2.763   3.059 -1.3236 -0.6124  0.5327
  734SOL    HW2 2202   2.799   2.610   0.003 -1.7756  3.0336 -1.3335
  735SOL     OW 2203   1.258   3.048   1.293  0.1630  0.1424 -0.3552
  735SOL    HW1 2204   1.229   0.037   1.265 -1.9526  0.6811  0.4418
  735SOL    HW2 2205   1.229   2.980   1.224  2.1220 -0.0355  1.3970
  736SOL     OW 2206   1.869   1.981   0.296 -0.5687 -0.1144 -0.1552
  736SOL    HW1 2207   1.867   2.032   0.206 -1.4221  0.4291 -0.1419
  736SOL    HW2 2208   1.923   1.895   0.286  1.1618  2.6115  1.8236
  737SOL     OW 2209   0.075   1.576   1.076  0.0280 -0.1557 -0.0527
  737SOL    HW1 2210   0.163   1.618   1.064 -2.3283  0.0621 -0.6938
  737SOL    HW2 2211   0.042   1.577   1.174 -1.3907 -2.1612  0.5954
  738SOL     OW 2212   2.050   2.221   2.347 -0.3067  0.3181  0.4557
  738SOL    HW1 2213   2.128   2.288   2.359  0.5100  0.9592  3.0688
  738SOL    HW2 2214   1.991   2.259   2.275  2.0453 -1.3383 -1.3840
  739SOL     OW 2215   1.095   1.939   2.610  0.0975  0.3876 -0.2500
  739SOL    HW1 2216   1.104   2.037   2.576  0.6633  0.9771  1.2370
  739SOL    HW2 2217   1.032   1.936   2.696 -3.7194 -1.6862  1.8313
  740SOL     OW 2218   1.152   2.878   1.126  1.0295  0.2338  0.2883
  740SOL    HW1 2219   1.112   2.784   1.148  0.2493  0.0380  0.6082
  740SOL    HW2 2220   1.177   2.875   1.030  0.7593 -1.7274  1.6874
  741SOL     OW 2221   0.115   1.079   0.806 -0.6943 -0.3554  0.7326
  741SOL    HW1 2222   0.037   1.021   0.838  0.1108  0.9715 -1.2699
  741SOL    HW2 2223   0.199   1.042   0.844 -1.8559  1.3353 -0.4805
  742SOL     OW 2224   0.647   1.565   2.346 -0.5705 -0.1978  0.0991
  742SOL    HW1 2225   0.733   1.550   2.403  3.4293 -0.0265 -0.3705
  742SOL    HW2 2226   0.652   1.661   2.306 -1.8146  2.8205 -0.9604
  743SOL     OW 2227   1.187   0.906   2.170 -0.4443 -0.0790 -0.3854
  743SOL    HW1 2228   1.149   0.915   2.259  1.2724 -0.0123 -1.4794
  743SOL    HW2 2229   1.133   0.954   2.101  2.1264 -0.9163 -0.0553
  744SOL     OW 2230   1.967   0.270   1.695 -0.0308  0.3039 -0.5634
  744SOL    HW1 2231   1.891   0.334   1.714  0.3004  0.6968  1.1052
  744SOL    HW2 2232   2.054   0.327   1.691 -0.1440 -4.4050  0.8994
  745SOL     OW 2233   2.322   1.434   1.682 -0.1785 -0.4442 -0.1131
  745SOL    HW1 2234   2.335   1.529   1.706 -1.9435 -0.4192 -1.3037
  745SOL    HW2 2235   2.243   1.418   1.621  2.6035 -0.3001  1.4090
  746SOL     OW 2236   1.988   1.232   0.416 -0.1657  0.2058 -0.2447
  746SOL    HW1 2237   1.930   1.306   0.380  0.0218 -1.0317  1.2428
  746SOL    HW2 2238   1.932   1.152   0.429 -0.2942  1.5871 -0.9815
  747SOL     OW 2239   2.603   1.591   0.794 -0.0756 -0.3233 -0.2877
  747SOL    HW1 2240   2.704   1.580   0.802 -0.6558  0.4761 -1.6333
  747SOL    HW2 2241   2.574   1.686   0.816  0.0012 -0.4388  0.3311
  748SOL     OW 2242   0.472   1.772   0.457 -0.3528 -0.3303 -0.0315
  748SOL    HW1 2243   0.386   1.752   0.407 -2.7958 -1.0473  0.2490
  748SOL    HW2 2244   0.472   1.717   0.545 -1.1433  0.5875 -0.8654
  749SOL     OW 2245   2.872   2.422   2.625 -0.0039 -0.0203 -0.0583
  749SOL    HW1 2246   2.801   2.375   2.572  2.3787  0.1425 -1.4285
  749SOL    HW2 2247   2.854   2.519   2.637  0.1793 -5.2368 -1.3203
  750SOL     OW 2248   2.305   0.644   0.793  0.6639 -0.1204  0.1695
  750SOL    HW1 2249   2.289   0.728   0.734  0.0578 -0.2346 -2.6749
  750SOL    HW2 2250   2.380   0.664   0.861  1.3212  1.5121 -0.6555
  751SOL     OW 2251   2.568   2.988   0.047  0.3734 -0.0226  0.4270
  751SOL    HW1 2252   2.482   3.034   0.014 -3.5429 -2.2448  1.7941
  751SOL    HW2 2253   2.622   2.946   3.076  1.6038  2.0398  0.2214
  752SOL     OW 2254   3.002   2.812   0.953 -0.1954 -0.2457 -0.2017
  752SOL    HW1 2255   3.023   2.899   1.000  3.0949  1.2063  1.1329
  752SOL    HW2 2256   3.042   2.731   0.995 -1.7656 -0.1524  1.2932
  753SOL     OW 2257   1.638   1.220   2.332  0.1639  0.5019  0.0184
  753SOL    HW1 2258   1.725   1.260   2.290 -2.7746  3.0344  2.1783
  753SOL    HW2 2259   1.639   1.123   2.370  1.9527  1.7704 -0.2255
  754SOL     OW 2260   1.982   1.975   1.785 -0.0829  0.0155  0.1767
  754SOL    HW1 2261   1.917   1.938   1.714 -1.6894  1.0624 -2.3789
  754SOL    HW2 2262   2.078   1.976   1.745  0.7168  0.7146 -0.0286
  755SOL     OW 2263   2.525   0.902   0.806  0.5818  0.0010  0.4020
  755SOL    HW1 2264   2.555   0.822   0.863 -0.1434 -0.4801 -0.5519
  755SOL    HW2 2265   2.471   0.973   0.857  1.7176 -1.3098 -2.9997
  756SOL     OW 2266   0.680   1.202   2.923 -0.3325 -0.0550  0.2166
  756SOL    HW1 2267   0.578   1.216   2.925  1.9120 -2.0078 -0.5249
  756SOL    HW2 2268   0.715   1.244   2.840 -0.9337  0.4899  3.0237
  757SOL     OW 2269   1.795   2.426   1.165 -0.1609  0.0806 -0.4958
  757SOL    HW1 2270   1.714   2.379   1.120 -1.4851 -0.0344 -0.7469
  757SOL    HW2 2271   1.807   2.416   1.263 -0.0299  0.3964 -1.4102
  758SOL     OW 2272   1.178   2.602   1.680 -0.0631  0.5588  0.1292
  758SOL    HW1 2273   1.279   2.584   1.680  1.1447 -0.3271 -1.8745
  758SOL    HW2 2274   1.166   2.698   1.706  4.0604 -1.4316 -1.1441
  759SOL     OW 2275   2.888   1.245   0.921  0.3657  0.3763 -0.1597
  759SOL    HW1 2276   2.822   1.317   0.950  1.0722  0.8585  0.6881
  759SOL    HW2 2277   2.956   1.277   0.856 -0.7889 -1.3363 -0.3986
  760SOL     OW 2278   2.202   1.172   1.473 -0.4148  0.1229 -0.0189
  760SOL    HW1 2279   2.150   1.117   1.407 -0.4574 -3.1373 -0.8800
  760SOL    HW2 2280   2.148   1.253   1.502 -0.4353  1.0731  3.2027
  761SOL     OW 2281   1.777   2.944   0.091 -0.1767 -0.1384  0.3700
  761SOL    HW1 2282   1.825   2.997   0.165  4.2508  2.4730 -2.1262
  761SOL    HW2 2283   1.803   2.971   3.102 -3.7995  0.9784  1.1458
  762SOL     OW 2284   1.909   1.435   2.841 -0.0079  0.6014 -0.0821
  762SOL    HW1 2285   1.964   1.406   2.762  0.4670  0.3212  2.2504
  762SOL    HW2 2286   1.949   1.513   2.891  0.3706 -2.3503 -0.9681
  763SOL     OW 2287   0.535   2.166   1.703 -0.0633 -0.2777  0.5031
  763SOL    HW1 2288   0.544   2.065   1.684  1.6225 -0.9319  1.6945
  763SOL    HW2 2289   0.442   2.203   1.689  0.4813 -2.3771  3.0659
  764SOL     OW 2290   0.053   2.350   0.092 -0.8668 -0.2063 -0.7029
  764SOL    HW1 2291   3.066   2.383   0.117  0.1475 -1.2189 -2.5533
  764SOL    HW2 2292   0.106   2.419   0.040  0.6133 -0.0180 -1.1968
  765SOL     OW 2293   0.569   0.052   1.244 -0.4314 -0.1135  0.2230
  765SOL    HW1 2294   0.575   0.144   1.195  0.0323  1.8148  0.1841
  765SOL    HW2 2295   0.642   3.092   1.220 -3.8958 -2.5421  1.4658
  766SOL     OW 2296   2.672   2.116   2.188 -0.2504 -0.2319  0.2303
  766SOL    HW1 2297   2.726   2.188   2.140  0.6553  1.5349 -1.4845
  766SOL    HW2 2298   2.722   2.054   2.248  0.2377  1.4514  0.4225
  767SOL     OW 2299   2.739   0.846   2.151 -0.0751  0.1228 -0.2266
  767SOL    HW1 2300   2.668   0.843   2.072 -0.3664  2.4286 -1.1164
  767SOL    HW2 2301   2.831   0.874   2.108 -0.2346 -1.9172  0.2711
  768SOL     OW 2302   0.949   0.299   2.651  0.0702 -0.6562  0.0430
  768SOL    HW1 2303   0.844   0.306   2.656 -1.5644 -0.7347 -0.1972
  768SOL    HW2 2304   0.980   0.219   2.701 -2.0189  1.7822  1.4791
  769SOL     OW 2305   2.671   2.874   0.846  0.6425 -0.2226  0.1598
  769SOL    HW1 2306   2.745   2.813   0.804  0.5830  0.2889  0.0296
  769SOL    HW2 2307   2.577   2.833   0.853  0.0484 -1.1335  1.1754
  770SOL     OW 2308   0.342   2.885   2.749  0.2165  0.7636  0.3766
  770SOL    HW1 2309   0.307   2.910   2.664  0.3092 -2.9640  2.3684
  770SOL    HW2 2310   0.275   2.911   2.820  2.2192  1.5646  1.4822
  771SOL     OW 2311   1.633   2.126   1.909  0.1055 -0.0326 -0.6976
  771SOL    HW1 2312   1.699   2.157   1.836 -0.2764  0.0820  1.1916
  771SOL    HW2 2313   1.644   2.026   1.925 -1.7650  1.3953 -1.3122
  772SOL     OW 2314   1.209   3.045   2.986  0.6082  0.4498  0.4707
  772SOL    HW1 2315   1.125   3.048   3.049  2.4126  1.6997  1.6363
  772SOL    HW2 2316   1.265   2.961   2.996  1.5083 -1.1820  1.9131
  773SOL     OW 2317   2.417   0.665   1.433  0.2032  0.0871 -0.0894
  773SOL    HW1 2318   2.481   0.733   1.471  1.0795 -0.7517 -1.0627
  773SOL    HW2 2319   2.338   0.722   1.403  2.7309  0.4767  2.2746
  774SOL     OW 2320   0.946   1.314   1.197 -0.1207  0.6376  0.4478
  774SOL    HW1 2321   1.013   1.333   1.119  0.7926 -0.3996 -1.3541
  774SOL    HW2 2322   0.886   1.230   1.184 -0.9758 -2.2116 -0.5396
  775SOL     OW 2323   1.955   2.670   2.934  0.0250  0.0289 -0.3069
  775SOL    HW1 2324   1.960   2.669   3.037  0.7805 -0.6295  1.3115
  775SOL    HW2 2325   1.981   2.577   2.900  0.0214  2.1673 -0.5906
  776SOL     OW 2326   2.156   0.946   1.633 -0.7191 -0.2009 -0.0265
  776SOL    HW1 2327   2.106   0.973   1.719 -2.5929 -1.7225 -2.3220
  776SOL    HW2 2328   2.197   1.028   1.593  0.1839  0.0187 -0.5913
  777SOL     OW 2329   0.319   1.239   2.176 -0.3353  0.2633  0.3290
  777SOL    HW1 2330   0.280   1.258   2.269  0.7462 -1.6370 -0.7273
  777SOL    HW2 2331   0.399   1.296   2.154 -0.6002 -0.2956  1.3977
  778SOL     OW 2332   0.234   0.562   0.102  0.4715  0.1603 -0.7216
  778SOL    HW1 2333   0.193   0.656   0.118 -0.5899  0.8179 -0.8068
  778SOL    HW2 2334   0.263   0.536   0.011 -2.8094 -1.3609  3.9150
  779SOL     OW 2335   0.684   0.262   2.572  0.6138 -0.0418 -0.1602
  779SOL    HW1 2336   0.663   0.224   2.477 -1.8142 -2.5794 -0.4718
  779SOL    HW2 2337   0.623   0.223   2.643 -0.4001  0.4118 -1.2535
  780SOL     OW 2338   2.075   1.305   2.616 -0.4829  0.2456 -0.0832
  780SOL    HW1 2339   2.049   1.208   2.637  2.5369 -3.1790 -0.1209
  780SOL    HW2 2340   2.156   1.313   2.552  2.5478 -0.5265  1.2731
  781SOL     OW 2341   3.013   1.156   1.972  0.1429  0.3932 -0.3622
  781SOL    HW1 2342   2.938   1.171   1.903  0.5044  0.6207 -1.5313
  781SOL    HW2 2343   3.025   1.060   1.991  2.0152  0.7328 -2.4047
  782SOL     OW 2344   0.463   1.501   2.746 -0.1407 -0.6890 -0.1484
  782SOL    HW1 2345   0.448   1.410   2.696 -1.1916 -2.2803 -3.2876
  782SOL    HW2 2346   0.399   1.565   2.702  0.5388 -1.2511  0.2138
  783SOL     OW 2347   1.068   2.284   1.177 -0.6262 -0.1742 -0.0160
  783SOL    HW1 2348   1.138   2.228   1.226  0.9040  1.9879 -0.1095
  783SOL    HW2 2349   1.103   2.328   1.094 -2.0389 -0.1392 -1.3862
  784SOL     OW 2350   1.834   0.679   2.739 -0.1770 -0.3358 -0.2858
  784SOL    HW1 2351   1.886   0.742   2.793 -1.1394 -1.4606 -0.9465
  784SOL    HW2 2352   1.880   0.594   2.717  0.0415 -0.4692 -3.1021
  785SOL     OW 2353   0.755   0.096   1.848  0.2190 -0.5782  0.5648
  785SOL    HW1 2354   0.779   0.016   1.911  0.9482 -2.1967 -0.8903
  785SOL    HW2 2355   0.835   0.145   1.808 -2.3272  0.4822 -0.0454
  786SOL     OW 2356   0.542   1.845   0.174  0.2192  0.4592 -0.8485
  786SOL    HW1 2357   0.557   1.818   0.274  1.1862 -0.3185  1.1595
  786SOL    HW2 2358   0.456   1.895   0.155  2.7849  0.4742  2.8951
  787SOL     OW 2359   1.244   0.545   0.518 -0.0183  0.4917 -0.0383
  787SOL    HW1 2360   1.296   0.622   0.487  0.1303 -0.6135  0.6004
  787SOL    HW2 2361   1.145   0.575   0.523 -1.2040 -0.8004 -0.3062
  788SOL     OW 2362   2.826   1.692   1.105 -0.0491 -0.4057 -0.7322
  788SOL    HW1 2363   2.815   1.756   1.187  0.2830  0.5919  0.6451
  788SOL    HW2 2364   2.876   1.737   1.032 -3.4905 -1.9160  1.5153
  789SOL     OW 2365   2.695   1.088   2.304 -0.0715  0.3915  0.3630
  789SOL    HW1 2366   2.722   1.007   2.245  5.0155 -0.8933 -1.9633
  789SOL    HW2 2367   2.706   1.178   2.252  1.0286  0.7156  0.3379
  790SOL     OW 2368   0.564   0.358   0.231  0.1341 -0.7330 -1.1237
  790SOL    HW1 2369   0.563   0.291   0.312 -0.8440 -0.3979  1.8861
  790SOL    HW2 2370   0.654   0.367   0.185  1.3138  2.2601 -0.4978
  791SOL     OW 2371   2.931   0.347   2.993 -0.4068  0.1114 -0.1680
  791SOL    HW1 2372   2.836   0.314   2.974  1.7068 -0.9536  0.8226
  791SOL    HW2 2373   2.947   0.359   3.097  2.3476 -1.2470 -2.5706
  792SOL     OW 2374   1.416   0.436   2.478 -0.0911 -0.3572  0.1620
  792SOL    HW1 2375   1.322   0.436   2.517  1.7955 -0.1140  2.1441
  792SOL    HW2 2376   1.485   0.445   2.550  0.2864  0.8507 -2.6106
  793SOL     OW 2377   2.932   0.398   0.981  0.6126 -0.1190  0.1009
  793SOL    HW1 2378   2.948   0.340   0.900 -0.0817 -1.4920  0.6310
  793SOL    HW2 2379   2.968   0.359   1.071  2.6654  2.2013  0.4966
  794SOL     OW 2380   0.373   0.462   1.952  1.2233  0.0690 -0.0136
  794SOL    HW1 2381   0.393   0.529   2.022 -0.4824 -0.7508 -1.6182
  794SOL    HW2 2382   0.273   0.466   1.936 -1.1424 -2.0648 -2.3014
  795SOL     OW 2383   0.468   1.201   0.708  0.1314  0.8315  0.3357
  795SOL    HW1 2384   0.567   1.225   0.695  0.7993 -3.0986  1.7829
  795SOL    HW2 2385   0.440   1.198   0.807 -0.9748 -2.0291  0.0086
  796SOL     OW 2386   3.100   1.056   3.071 -0.0358  0.4300 -0.1298
  796SOL    HW1 2387   3.082   1.051   0.064  1.1150  0.8529  0.5673
  796SOL    HW2 2388   0.069   0.986   3.041  1.1703 -2.2893 -0.7926
  797SOL     OW 2389   1.941   2.514   2.459  0.5582 -0.1344 -0.1035
  797SOL    HW1 2390   2.036   2.481   2.476  1.5769 -0.6296 -1.5029
  797SOL    HW2 2391   1.930   2.614   2.468 -0.8313 -0.8846 -1.8039
  798SOL     OW 2392   0.233   0.177   1.499  0.2115  0.4957 -0.2175
  798SOL    HW1 2393   0.295   0.229   1.437 -3.1840 -1.8874 -0.7798
  798SOL    HW2 2394   0.277   0.150   1.590 -0.2092 -0.1967  1.2599
  799SOL     OW 2395   2.508   0.686   1.781 -0.8997  0.2801 -0.0492
  799SOL    HW1 2396   2.412   0.702   1.747 -0.1804  0.4091  2.2049
  799SOL    HW2 2397   2.534   0.589   1.796  1.3405  0.2655  1.1536
  800SOL     OW 2398   0.189   1.769   0.614 -0.5965 -0.9273  0.1850
  800SOL    HW1 2399   0.114   1.751   0.552  0.1079  4.4063  1.6772
  800SOL    HW2 2400   0.245   1.681   0.630  3.3644 -0.2398 -0.6491
  801SOL     OW 2401   1.666   1.654   0.462 -0.1265  0.6586  0.4508
  801SOL    HW1 2402   1.675   1.597   0.539  0.0019 -0.2656 -2.7257
  801SOL    HW2 2403   1.698   1.752   0.480  2.9442  1.7139  1.0178
  802SOL     OW 2404   1.321   1.068   2.757 -0.0319  0.3271  0.4611
  802SOL    HW1 2405   1.332   1.171   2.768  0.8959  0.1297  0.0088
  802SOL    HW2 2406   1.240   1.055   2.701  2.2741  0.1995 -0.2339
  803SOL     OW 2407   0.113   2.007   1.708 -0.7671  0.0017 -0.3170
  803SOL    HW1 2408   0.026   2.059   1.709  0.2359  2.5158 -0.6534
  803SOL    HW2 2409   0.097   1.908   1.722  2.7050  0.2270 -1.0647
  804SOL     OW 2410   1.577   2.298   0.996 -0.1515  0.1304 -0.3697
  804SOL    HW1 2411   1.607   2.220   0.933  1.8595 -0.5351 -0.9748
  804SOL    HW2 2412   1.502   2.266   1.064 -0.2968 -2.4643  2.4208
  805SOL     OW 2413   2.546   2.159   2.627  0.4103 -0.5571 -0.3437
  805SOL    HW1 2414   2.503   2.210   2.708 -0.3786  0.6927  0.8292
  805SOL    HW2 2415   2.607   2.082   2.651  1.3608 -0.7018 -1.5385
  806SOL     OW 2416   2.911   0.235   0.742  0.1296  0.5896 -0.0405
  806SOL    HW1 2417   2.867   0.155   0.781  1.6388 -0.2401 -0.3534
  806SOL    HW2 2418   2.975   0.210   0.667  0.6604 -0.3153  0.7023
  807SOL     OW 2419   2.832   1.267   2.890  0.1145 -0.7439  0.1796
  807SOL    HW1 2420   2.811   1.317   2.978 -0.8715  0.3091 -2.7682
  807SOL    HW2 2421   2.757   1.271   2.820 -1.7564 -0.6844 -0.1984
  808SOL     OW 2422   0.902   1.897   0.851  0.0059 -0.3457  0.4136
  808SOL    HW1 2423   0.849   1.934   0.771 -0.1129 -2.9183  0.9183
  808SOL    HW2 2424   0.855   1.810   0.875  1.4324  1.7222  0.7029
  809SOL     OW 2425   2.976   3.087   2.201  0.5568 -0.3811  0.2344
  809SOL    HW1 2426   2.885   3.062   2.160 -0.6640  2.0350 -1.9164
  809SOL    HW2 2427   2.971   0.073   2.243 -0.9334 -0.3360  2.2619
  810SOL     OW 2428   1.375   0.867   0.871 -0.4050  0.2180  0.7350
  810SOL    HW1 2429   1.472   0.889   0.857 -0.7803  2.9750 -1.9004
  810SOL    HW2 2430   1.320   0.896   0.790  1.6175 -1.1943  1.3765
  811SOL     OW 2431   1.819   2.881   1.958  0.2341 -1.0593 -0.0507
  811SOL    HW1 2432   1.869   2.857   2.042 -0.9984 -2.3894  0.5476
  811SOL    HW2 2433   1.794   2.982   1.966 -1.7035 -2.8965  0.6605
  812SOL     OW 2434   1.791   2.274   0.554 -0.1322 -0.2631 -0.6747
  812SOL    HW1 2435   1.757   2.265   0.456  1.4140 -0.4372 -1.4108
  812SOL    HW2 2436   1.792   2.371   0.599  2.5992  1.6833 -0.9197
  813SOL     OW 2437   1.226   0.364   2.084 -0.5160 -0.3880 -0.4136
  813SOL    HW1 2438   1.153   0.384   2.156  1.1762 -3.8675  2.7044
  813SOL    HW2 2439   1.315   0.413   2.094  0.5832 -0.3394 -0.7367
  814SOL     OW 2440   0.284   0.036   1.253  0.5345  0.0813  0.0009
  814SOL    HW1 2441   0.380   0.015   1.230 -1.9218 -1.7179 -1.6178
  814SOL    HW2 2442   0.271   0.055   1.347  0.2630 -0.9370 -1.8292
  815SOL     OW 2443   0.166   3.067   0.608 -0.4386  0.5500 -0.4403
  815SOL    HW1 2444   0.105   2.988   0.587  1.8780 -0.4359  1.0326
  815SOL    HW2 2445   0.181   3.073   0.710 -1.4181  0.0394  1.2744
  816SOL     OW 2446   2.539   1.881   2.092 -0.4645 -0.4382 -0.3654
  816SOL    HW1 2447   2.442   1.881   2.122 -2.3955  2.5263 -2.9954
  816SOL    HW2 2448   2.578   1.976   2.105  0.6306  1.7033  0.8126
  817SOL     OW 2449   1.137   0.053   0.670  0.1839 -0.4772 -0.0769
  817SOL    HW1 2450   1.100   0.107   0.748 -0.1669 -1.5741 -1.0336
  817SOL    HW2 2451   1.236   0.070   0.661 -3.7274  2.6755 -0.6601
  818SOL     OW 2452   1.849   0.533   0.144  0.2020  0.5130  0.1202
  818SOL    HW1 2453   1.828   0.470   0.059 -2.0270 -0.6081 -1.2606
  818SOL    HW2 2454   1.777   0.519   0.216 -1.1438 -0.5995 -2.4571
  819SOL     OW 2455   2.112   3.096   0.039 -0.0511 -0.3488 -0.0251
  819SOL    HW1 2456   2.123   0.047   0.127  0.9343 -1.2732  0.5620
  819SOL    HW2 2457   2.149   3.001   0.049 -0.4031  0.7997 -1.5284
  820SOL     OW 2458   1.609   1.065   2.738 -0.1292 -0.6120  0.0112
  820SOL    HW1 2459   1.509   1.036   2.762 -3.8886 -2.1228  0.4907
  820SOL    HW2 2460   1.669   1.046   2.819 -2.7361 -1.2442 -0.1407
  821SOL     OW 2461   0.195   0.601   1.237  0.3582  0.2086  0.2134
  821SOL    HW1 2462   0.177   0.502   1.227 -0.4418  1.1930  2.8651
  821SOL    HW2 2463   0.207   0.661   1.152  1.4559  0.1205  2.3320
  822SOL     OW 2464   1.243   2.768   2.348  0.2576  0.1273  0.2510
  822SOL    HW1 2465   1.256   2.668   2.369 -0.6314  1.4814  0.5292
  822SOL    HW2 2466   1.234   2.826   2.427 -1.2104 -2.3661 -1.5436
  823SOL     OW 2467   0.305   1.609   1.624  0.6988  0.1587 -0.1049
  823SOL    HW1 2468   0.301   1.593   1.526  3.0581 -0.1212 -1.6156
  823SOL    HW2 2469   0.394   1.575   1.663  0.6916 -1.0957  0.8092
  824SOL     OW 2470   1.739   2.650   2.282  0.0706  0.3692  0.3668
  824SOL    HW1 2471   1.692   2.567   2.249  1.2846  0.7111  1.7627
  824SOL    HW2 2472   1.676   2.732   2.289 -1.6429  1.6182 -0.4135
  825SOL     OW 2473   1.604   0.988   0.264  0.3967  0.0003 -0.1093
  825SOL    HW1 2474   1.680   0.987   0.337  2.6748  0.9675  2.1637
  825SOL    HW2 2475   1.551   1.070   0.279  1.3135 -0.0119 -0.2988
  826SOL     OW 2476   2.096   0.779   2.928  0.4358  0.3714 -0.1861
  826SOL    HW1 2477   2.151   0.849   2.875  1.3706  0.7226  0.2871
  826SOL    HW2 2478   2.166   0.713   2.962 -1.6913  4.1115  2.5206
  827SOL     OW 2479   0.532   2.114   2.929 -0.2907 -0.1256  0.4268
  827SOL    HW1 2480   0.432   2.143   2.917  0.7364  0.4932  0.3740
  827SOL    HW2 2481   0.573   2.088   2.839 -0.4307  2.5188  0.7585
  828SOL     OW 2482   2.545   1.177   1.151 -0.1057 -0.1519 -0.5675
  828SOL    HW1 2483   2.510   1.115   1.224  3.0852 -0.2320  3.6692
  828SOL    HW2 2484   2.601   1.253   1.192 -2.2969  0.3447 -0.7363
  829SOL     OW 2485   0.783   1.672   0.946  0.2492 -0.2847  0.6305
  829SOL    HW1 2486   0.690   1.719   0.957  1.1011  0.2764 -0.9719
  829SOL    HW2 2487   0.827   1.655   1.036 -2.3652  1.2235  1.4710
  830SOL     OW 2488   0.962   1.333   1.467 -0.0490 -0.1497  0.3448
  830SOL    HW1 2489   1.043   1.277   1.506  0.7562 -0.6053  1.6664
  830SOL    HW2 2490   0.978   1.344   1.364  1.0776  1.5449 -2.1752
  831SOL     OW 2491   0.290   1.975   0.147 -0.0362 -0.2885 -0.3591
  831SOL    HW1 2492   0.210   2.026   0.112  1.1971  0.5185 -1.0541
  831SOL    HW2 2493   0.342   2.029   0.216 -0.7745 -1.0795 -0.5835
  832SOL     OW 2494   0.623   0.254   2.999 -0.1465 -0.3850  0.1021
  832SOL    HW1 2495   0.553   0.198   3.046 -1.4072  1.9559 -0.0565
  832SOL    HW2 2496   0.711   0.257   3.047 -0.7306 -1.5756 -1.1823
  833SOL     OW 2497   0.699   0.554   2.018 -0.4700  0.5338 -0.4916
  833SOL    HW1 2498   0.795   0.585   1.996  3.0173  0.3923 -1.2341
  833SOL    HW2 2499   0.696   0.456   2.000 -0.2127  0.3490 -0.2959
  834SOL     OW 2500   0.116   0.546   0.781  0.2625 -0.3306 -0.0648
  834SOL    HW1 2501   0.041   0.579   0.835  4.0038 -3.2775  0.3812
  834SOL    HW2 2502   0.090   0.498   0.696  2.5792 -0.5246  1.8390
  835SOL     OW 2503   2.940   3.101   1.103 -0.1818 -0.1000 -0.0280
  835SOL    HW1 2504   2.951   0.099   1.122  0.5765  0.7651  0.2243
  835SOL    HW2 2505   2.938   3.057   1.195 -0.3276 -1.8771 -0.0911
  836SOL     OW 2506   0.264   2.153   2.935 -0.0939  0.1742  0.1393
  836SOL    HW1 2507   0.201   2.220   2.892 -1.2031 -1.6348 -1.8774
  836SOL    HW2 2508   0.223   2.114   3.022 -1.3495  0.5133 -0.6095
  837SOL     OW 2509   1.571   1.777   2.847  0.1338 -0.4777  0.1702
  837SOL    HW1 2510   1.664   1.817   2.873 -0.5300 -0.9891  0.1543
  837SOL    HW2 2511   1.519   1.846   2.794  0.9496  0.7414  3.5321
  838SOL     OW 2512   2.845   0.825   1.478 -0.0297  0.0418  0.3533
  838SOL    HW1 2513   2.888   0.837   1.387  1.1734  2.5881  0.0562
  838SOL    HW2 2514   2.895   0.879   1.546 -1.6667 -0.4919 -1.5532
  839SOL     OW 2515   1.063   1.118   0.964 -0.6631  0.3679 -0.3876
  839SOL    HW1 2516   1.064   1.219   0.982  1.2341  1.9885 -0.9037
  839SOL    HW2 2517   1.001   1.089   0.893  2.7040  0.1988 -0.5368
  840SOL     OW 2518   1.609   3.061   1.567 -0.0092 -0.5426 -0.3973
  840SOL    HW1 2519   1.711   3.077   1.574 -0.2658  2.7541  0.7527
  840SOL    HW2 2520   1.577   3.053   1.467  0.5187  0.9281 -1.4072
  841SOL     OW 2521   0.576   2.535   0.411  0.2029  0.4015  0.0905
  841SOL    HW1 2522   0.522   2.548   0.325 -1.0088  1.6858  1.0723
  841SOL    HW2 2523   0.519   2.536   0.496  2.1700  0.6904 -2.0521
  842SOL     OW 2524   0.589   0.904   0.919 -0.0840 -0.5109  0.3219
  842SOL    HW1 2525   0.562   0.837   0.992 -1.0964  1.6454  0.0190
  842SOL    HW2 2526   0.632   0.864   0.839 -1.4859 -0.2673  0.9538
  843SOL     OW 2527   0.979   1.271   2.035  0.1877 -0.3002 -0.4776
  843SOL    HW1 2528   0.967   1.360   2.087  0.4291 -0.9819  1.0318
  843SOL    HW2 2529   0.962   1.298   1.937 -0.6844 -0.1070 -0.1769
  844SOL     OW 2530   1.124   1.942   3.051  0.1951 -0.9569 -0.2794
  844SOL    HW1 2531   1.149   1.845   3.053 -0.2167  3.1344 -0.1711
  844SOL    HW2 2532   1.201   1.994   3.004  1.2752  0.7299 -3.9040
  845SOL     OW 2533   2.365   2.263   2.457  0.5766 -0.0015  0.6330
  845SOL    HW1 2534   2.398   2.253   2.361  2.5216 -0.9270 -0.4378
  845SOL    HW2 2535   2.411   2.202   2.519  0.7543 -1.0300  0.8033
  846SOL     OW 2536   1.798   1.911   2.893 -0.1559  0.5140  0.1997
  846SOL    HW1 2537   1.795   1.983   2.965  1.0647 -1.3758 -0.2073
  846SOL    HW2 2538   1.832   1.953   2.811  1.4441 -1.1420  3.3064
  847SOL     OW 2539   2.050   2.846   2.716  0.2446 -0.1558 -0.7019
  847SOL    HW1 2540   2.141   2.813   2.684  1.0529 -2.4916 -2.4554
  847SOL    HW2 2541   2.021   2.795   2.801  0.3219  0.5004  2.6011
  848SOL     OW 2542   0.727   0.792   0.722  0.2146 -0.0188  0.4628
  848SOL    HW1 2543   0.799   0.745   0.780  3.1651  0.4540  0.4295
  848SOL    HW2 2544   0.763   0.810   0.628  0.1289  0.9985  1.2529
  849SOL     OW 2545   0.886   3.075   1.580  0.4601  0.1124  0.0462
  849SOL    HW1 2546   0.924   0.010   1.661 -1.4319 -2.0204  1.4403
  849SOL    HW2 2547   0.788   3.062   1.599 -1.3429 -0.5825  1.1069
  850SOL     OW 2548   0.435   1.534   0.119  0.2505 -0.3275  0.6251
  850SOL    HW1 2549   0.403   1.619   0.172 -0.0989  3.5060  2.1851
  850SOL    HW2 2550   0.453   1.572   0.027 -2.5086 -2.6405  1.7714
  851SOL     OW 2551   3.007   0.924   0.811  0.3099  0.6161 -0.1584
  851SOL    HW1 2552   2.916   0.948   0.769  0.2762  1.4145  2.0246
  851SOL    HW2 2553   3.005   0.840   0.869  0.8900 -1.1972  0.8950
  852SOL     OW 2554   1.864   2.226   1.801  0.3079 -0.1593 -0.5664
  852SOL    HW1 2555   1.904   2.133   1.783 -0.2590 -1.3006 -0.0898
  852SOL    HW2 2556   1.917   2.297   1.749 -2.1860  1.2974 -2.7392
  853SOL     OW 2557   0.252   1.723   0.271 -0.5240  0.3992  0.2298
  853SOL    HW1 2558   0.172   1.701   0.212 -1.1012 -0.0631 -1.1987
  853SOL    HW2 2559   0.276   1.818   0.249  0.5589 -3.1103 -0.3545
  854SOL     OW 2560   1.746   1.201   1.653  0.5770 -0.5839 -0.1188
  854SOL    HW1 2561   1.804   1.189   1.571  0.3408 -2.7992  1.0599
  854SOL    HW2 2562   1.736   1.117   1.706  0.5091 -1.0348 -2.1848
  855SOL     OW 2563   0.864   2.699   2.847  0.0254 -0.1637 -0.7174
  855SOL    HW1 2564   0.957   2.716   2.882 -1.9402  1.6767 -0.8311
  855SOL    HW2 2565   0.823   2.623   2.905 -0.1160 -2.8520  1.4551
  856SOL     OW 2566   2.963   0.430   1.964 -0.2441  0.0948 -0.0541
  856SOL    HW1 2567   2.950   0.331   1.965  1.0142  2.1145 -0.3015
  856SOL    HW2 2568   2.916   0.481   1.887 -1.5454 -2.0632  0.6223
  857SOL     OW 2569   0.545   0.886   2.153 -0.3582  0.6879  0.4117
  857SOL    HW1 2570   0.495   0.954   2.095  0.3238  3.8269  0.5471
  857SOL    HW2 2571   0.644   0.906   2.135  0.5302 -2.3019  1.8302
  858SOL     OW 2572   0.552   1.298   2.435  0.3241  0.5055 -0.0973
  858SOL    HW1 2573   0.467   1.274   2.481 -0.1741  0.6772 -0.4497
  858SOL    HW2 2574   0.560   1.399   2.425  3.0096 -2.6620 -1.6340
  859SOL     OW 2575   2.532   0.263   0.397 -0.2621  0.0827  0.1059
  859SOL    HW1 2576   2.576   0.242   0.485 -0.6156  0.2829 -1.3802
  859SOL    HW2 2577   2.540   0.183   0.335 -1.1402 -1.8813 -2.3486
  860SOL     OW 2578   1.739   2.521   2.759  0.0539 -0.2681 -0.5548
  860SOL    HW1 2579   1.792   2.578   2.826 -0.7682  1.9113  1.3267
  860SOL    HW2 2580   1.772   2.428   2.757 -2.0858  2.8223 -2.7786
  861SOL     OW 2581   0.320   0.714   0.436  0.1361 -1.2082  0.1949
  861SOL    HW1 2582   0.249   0.701   0.503  1.5566  1.3171 -0.9264
  861SOL    HW2 2583   0.409   0.683   0.475  3.6384 -0.4387 -1.6116
  862SOL     OW 2584   1.629   0.327   2.157 -0.1779  0.0902  0.1835
  862SOL    HW1 2585   1.645   0.420   2.190 -1.7481 -0.2067  0.5284
  862SOL    HW2 2586   1.672   0.255   2.218 -0.7057 -2.2180 -0.4882
  863SOL     OW 2587   2.569   2.147   1.161  0.3728 -0.0765  0.2269
  863SOL    HW1 2588   2.488   2.202   1.129 -2.3157  1.9421  1.7518
  863SOL    HW2 2589   2.587   2.159   1.260  0.1510 -0.8273 -0.0296
  864SOL     OW 2590   2.507   2.854   2.051 -0.3890 -0.3604 -0.6387
  864SOL    HW1 2591   2.411   2.857   2.019  1.1288 -1.2478  2.3553
  864SOL    HW2 2592   2.539   2.760   2.072 -0.8724  0.2228 -0.0893
  865SOL     OW 2593   1.240   0.389   1.812 -0.2618  0.0542  0.3695
  865SOL    HW1 2594   1.271   0.308   1.762 -0.5164 -0.1013  1.5597
  865SOL    HW2 2595   1.243   0.374   1.916 -0.0439  0.4125  1.2320
  866SOL     OW 2596   2.294   2.968   0.768  0.2913 -0.3296 -0.0575
  866SOL    HW1 2597   2.310   3.067   0.798 -1.7106 -1.1192 -4.2907
  866SOL    HW2 2598   2.369   2.911   0.812  0.5594 -0.6964  0.9764
  867SOL     OW 2599   2.732   2.846   0.500  0.7030  0.1495 -0.5817
  867SOL    HW1 2600   2.746   2.940   0.470 -2.9603 -1.7201  2.9862
  867SOL    HW2 2601   2.777   2.824   0.590  0.0871 -2.0132  0.1453
  868SOL     OW 2602   1.197   2.109   1.829 -0.0531  0.1775  0.0759
  868SOL    HW1 2603   1.153   2.085   1.919  1.8356  2.3585 -0.2504
  868SOL    HW2 2604   1.213   2.210   1.826 -1.6930  0.4129  1.0763
  869SOL     OW 2605   1.868   2.090   3.091 -0.3966  0.8037 -0.1724
  869SOL    HW1 2606   1.961   2.053   0.004  1.7781  0.7750  0.2630
  869SOL    HW2 2607   1.876   2.188   3.075 -1.5742  0.4866 -0.4448
  870SOL     OW 2608   2.425   2.454   0.420 -0.2195  0.4311 -0.0991
  870SOL    HW1 2609   2.459   2.547   0.407  0.2037 -1.2308 -2.0287
  870SOL    HW2 2610   2.430   2.395   0.346 -0.5973  2.4065  2.8502
  871SOL     OW 2611   0.108   1.180   1.603 -0.4111  0.4092 -0.4592
  871SOL    HW1 2612   0.148   1.188   1.506  1.9022 -2.6488 -0.1871
  871SOL    HW2 2613   0.110   1.272   1.653  0.7967  0.2449 -3.1472
  872SOL     OW 2614   0.881   1.581   2.516 -0.6416 -0.8483  0.1918
  872SOL    HW1 2615   0.849   1.639   2.594  0.7802  0.2441  2.0210
  872SOL    HW2 2616   0.889   1.483   2.545 -0.7762 -2.6956  0.0994
  873SOL     OW 2617   0.656   2.889   1.602  0.3224 -0.4389 -0.0659
  873SOL    HW1 2618   0.681   2.847   1.691  0.6364 -0.3297  0.4262
  873SOL    HW2 2619   0.589   2.968   1.599 -1.6805  2.4005  0.5738
  874SOL     OW 2620   1.399   0.567   2.186 -0.1078  0.0565 -0.1521
  874SOL    HW1 2621   1.396   0.533   2.282  0.1912  0.6307 -1.8094
  874SOL    HW2 2622   1.467   0.642   2.166  0.3757  2.5186 -0.5440
  875SOL     OW 2623   2.580   2.577   1.128 -0.2033  0.3870 -0.0589
  875SOL    HW1 2624   2.527   2.494   1.163 -0.4756 -0.7908 -0.1727
  875SOL    HW2 2625   2.543   2.666   1.159  1.3475 -0.1745  0.5512
  876SOL     OW 2626   1.092   1.328   0.730 -0.8364  0.1305 -0.2144
  876SOL    HW1 2627   1.049   1.232   0.711  0.7704 -3.0241  0.3253
  876SOL    HW2 2628   1.019   1.396   0.727  2.0292 -0.0028 -1.2285
  877SOL     OW 2629   3.000   0.263   1.206 -0.4438  0.1520  0.1332
  877SOL    HW1 2630   2.984   0.303   1.298  1.2363 -0.4702  0.0021
  877SOL    HW2 2631   3.097   0.282   1.175  2.4183 -1.0208 -4.6430
  878SOL     OW 2632   2.245   1.571   3.078  0.4745  0.3852  0.6668
  878SOL    HW1 2633   2.335   1.619   3.099  0.8759  0.2012  1.4624
  878SOL    HW2 2634   2.255   1.477   0.001 -1.0372 -0.7385  2.9876
  879SOL     OW 2635   2.746   1.937   1.255 -0.3713  0.0941  0.1741
  879SOL    HW1 2636   2.737   1.948   1.356  0.0348 -2.2693 -0.1152
  879SOL    HW2 2637   2.667   1.974   1.202 -2.7942 -0.9735 -0.1367
  880SOL     OW 2638   0.520   2.170   1.264 -0.3004 -0.0005 -0.1159
  880SOL    HW1 2639   0.454   2.146   1.189  0.7837 -0.3787 -1.4897
  880SOL    HW2 2640   0.586   2.240   1.229 -2.4374  2.1199 -1.5408
  881SOL     OW 2641   1.372   1.309   0.717  0.3888 -0.2184  0.4660
  881SOL    HW1 2642   1.271   1.315   0.721  0.9007 -1.4335 -1.3357
  881SOL    HW2 2643   1.404   1.214   0.687  1.8649 -1.2637  0.3265
  882SOL     OW 2644   2.804   1.167   2.549 -0.2729 -0.7752 -0.1579
  882SOL    HW1 2645   2.759   1.136   2.460 -1.2969  0.7232 -1.0122
  882SOL    HW2 2646   2.848   1.089   2.594 -0.8562  1.9112 -1.8745
  883SOL     OW 2647   1.377   0.293   1.158 -0.0587  0.5551  0.2422
  883SOL    HW1 2648   1.449   0.331   1.216 -1.0678  0.8724 -1.3340
  883SOL    HW2 2649   1.398   0.304   1.058  1.4519 -0.8764 -2.0694
  884SOL     OW 2650   0.111   3.016   1.067  0.4678  0.2344 -0.2262
  884SOL    HW1 2651   0.025   3.053   1.096  1.0919 -0.3451  1.7871
  884SOL    HW2 2652   0.184   3.031   1.134 -2.6822 -1.3015  0.0944
  885SOL     OW 2653   1.343   1.329   1.206 -0.5457  0.4822 -0.2072
  885SOL    HW1 2654   1.375   1.236   1.229 -0.0430  0.7210 -0.5752
  885SOL    HW2 2655   1.260   1.319   1.147 -2.1127 -1.3347  0.6343
  886SOL     OW 2656   1.272   1.049   3.011 -0.1582 -0.2583  0.1987
  886SOL    HW1 2657   1.363   1.064   3.064  0.6558  0.6170  0.7407
  886SOL    HW2 2658   1.288   1.046   2.910 -1.6856  0.3048 -2.6987
  887SOL     OW 2659   1.273   0.601   0.808  0.0350  0.2202  0.5674
  887SOL    HW1 2660   1.260   0.572   0.715  0.9257  0.3366  3.3118
  887SOL    HW2 2661   1.312   0.695   0.811  0.7891 -0.8415 -1.2020
  888SOL     OW 2662   2.175   1.358   1.891 -0.0252 -0.3425 -0.3443
  888SOL    HW1 2663   2.219   1.368   1.799  0.8479 -2.1799  0.3213
  888SOL    HW2 2664   2.206   1.274   1.943  0.6942 -1.0899  1.4708
  889SOL     OW 2665   2.584   2.373   0.629  0.1402  0.2227  0.0156
  889SOL    HW1 2666   2.551   2.302   0.694 -1.6404  0.3548  0.7392
  889SOL    HW2 2667   2.507   2.405   0.570 -0.5374  1.8912 -4.0519
  890SOL     OW 2668   1.561   1.627   0.928  0.2042 -0.0207  0.2179
  890SOL    HW1 2669   1.493   1.692   0.888  0.5008  1.0845  0.2441
  890SOL    HW2 2670   1.544   1.609   1.026 -0.2739 -0.4283 -2.0976
  891SOL     OW 2671   2.430   0.675   2.492 -0.5023 -0.1310 -0.0664
  891SOL    HW1 2672   2.510   0.686   2.427 -4.0639  1.1656  1.4608
  891SOL    HW2 2673   2.351   0.635   2.443 -0.5936  3.0714 -0.0216
  892SOL     OW 2674   0.918   0.180   2.384  0.1444  0.0230 -0.2627
  892SOL    HW1 2675   0.988   0.104   2.393  0.7032  2.9003  3.2115
  892SOL    HW2 2676   0.909   0.222   2.478 -1.2839  1.8513  1.2123
  893SOL     OW 2677   1.345   0.366   1.477  0.5638 -0.0527 -0.5297
  893SOL    HW1 2678   1.306   0.282   1.517  0.0300 -0.2278 -0.3273
  893SOL    HW2 2679   1.423   0.346   1.419  1.7817  2.6004  0.6862
  894SOL     OW 2680   2.602   0.531   0.644  0.5422  0.0799 -0.2203
  894SOL    HW1 2681   2.542   0.551   0.717  0.3982  1.5238 -3.5586
  894SOL    HW2 2682   2.697   0.567   0.671  2.0761  0.3397  3.2853
  895SOL     OW 2683   1.777   2.268   2.455  0.1278  0.8776  0.1251
  895SOL    HW1 2684   1.821   2.353   2.467 -2.3131 -2.9737 -0.6206
  895SOL    HW2 2685   1.803   2.233   2.365  0.5906 -0.8384 -1.6833
  896SOL     OW 2686   1.894   0.022   1.564 -0.0385 -0.0567  0.5943
  896SOL    HW1 2687   1.941   0.102   1.611  0.3762 -1.1469 -0.0465
  896SOL    HW2 2688   1.909   3.048   1.626  0.0940  1.4922 -0.0823
  897SOL     OW 2689   0.543   1.856   1.921 -0.4338 -0.1497  0.5749
  897SOL    HW1 2690   0.522   1.848   1.821 -0.9639 -2.5928  0.1578
  897SOL    HW2 2691   0.634   1.900   1.944  0.8777 -0.4240  1.7742
  898SOL     OW 2692   2.027   1.497   2.107 -0.1506  0.1290 -0.5796
  898SOL    HW1 2693   2.072   1.432   2.042 -3.7521 -1.3896  0.6309
  898SOL    HW2 2694   2.091   1.559   2.157  0.7368  1.9306  2.3430
  899SOL     OW 2695   1.963   2.436   0.918 -0.1792 -0.4812  0.0499
  899SOL    HW1 2696   2.045   2.487   0.943 -1.8709 -0.0986 -0.8369
  899SOL    HW2 2697   1.910   2.425   1.005 -0.3047  0.3982  0.9536
  900SOL     OW 2698   0.972   3.010   0.036  0.1193 -0.0866 -0.0754
  900SOL    HW1 2699   0.963   2.920   0.079  1.4146  3.5370  0.7153
  900SOL    HW2 2700   0.890   3.030   3.084  0.3783 -1.4479  1.0679
  901SOL     OW 2701   0.969   1.824   2.244  0.3001  0.2315 -0.4757
  901SOL    HW1 2702   0.870   1.827   2.246  3.8525 -0.6384 -0.6519
  901SOL    HW2 2703   1.008   1.742   2.294 -0.7349 -4.9165  1.6088
  902SOL     OW 2704   2.185   0.368   3.007  0.1090  0.4158  0.7948
  902SOL    HW1 2705   2.198   0.466   2.992 -0.7336 -1.9432  0.0641
  902SOL    HW2 2706   2.158   0.353   3.101 -1.1986  2.4042 -0.6184
  903SOL     OW 2707   2.348   0.809   2.150  0.2928  0.0762 -0.0603
  903SOL    HW1 2708   2.425   0.819   2.079  3.6086  0.6900 -2.9463
  903SOL    HW2 2709   2.356   0.892   2.206 -1.0820 -2.1691  2.7512
  904SOL     OW 2710   1.722   0.942   1.756 -0.0742 -0.2676 -0.0644
  904SOL    HW1 2711   1.778   0.862   1.726  1.5849  0.0014  0.8117
  904SOL    HW2 2712   1.728   0.961   1.859 -0.9833  2.1969  1.4583
  905SOL     OW 2713   2.111   0.184   1.004  0.2645  0.0245  0.6156
  905SOL    HW1 2714   2.134   0.268   0.957 -0.4867 -0.9949  1.4099
  905SOL    HW2 2715   2.075   0.201   1.095 -0.1055 -0.0768 -0.5578
  906SOL     OW 2716   2.396   1.897   0.538  0.2475 -0.0136  0.3149
  906SOL    HW1 2717   2.304   1.943   0.533  0.6038 -0.3196 -0.0055
  906SOL    HW2 2718   2.382   1.797   0.516 -0.4113 -1.9211 -0.0840
  907SOL     OW 2719   1.169   2.881   0.851 -0.3362 -0.8259  0.1488
  907SOL    HW1 2720   1.226   2.963   0.830  0.9474 -0.3354  0.0310
  907SOL    HW2 2721   1.071   2.904   0.843 -1.3061 -0.9371 -0.8864
  908SOL     OW 2722   1.526   2.370   2.292  0.3261  0.3819 -0.4420
  908SOL    HW1 2723   1.605   2.335   2.352  2.5848 -2.6622  2.0662
  908SOL    HW2 2724   1.512   2.300   2.214  1.8711 -0.7955  0.4567
  909SOL     OW 2725   2.321   0.372   2.151 -0.1460 -0.3381  0.0332
  909SOL    HW1 2726   2.291   0.446   2.219  1.1705  2.4563  3.1058
  909SOL    HW2 2727   2.245   0.344   2.096  3.3094  1.9540 -0.3406
  910SOL     OW 2728   1.229   0.720   2.564  0.2741 -0.3242  0.0529
  910SOL    HW1 2729   1.195   0.631   2.530 -1.2899  0.7069  1.3181
  910SOL    HW2 2730   1.163   0.798   2.552 -0.0899 -0.9988 -1.8970
  911SOL     OW 2731   3.086   1.183   2.829 -0.0312  0.4385  0.1230
  911SOL    HW1 2732   3.095   1.131   2.914 -1.0038  1.0169  0.2556
  911SOL    HW2 2733   2.985   1.210   2.822  0.5309  0.1808 -1.8792
  912SOL     OW 2734   0.062   2.339   0.961  0.4884  0.1988  0.5025
  912SOL    HW1 2735   3.076   2.300   0.934  0.2603  0.4692  2.6713
  912SOL    HW2 2736   0.106   2.283   1.032  0.0970 -0.4669  0.3308
  913SOL     OW 2737   2.593   1.833   2.527  0.2398  0.4079 -0.3326
  913SOL    HW1 2738   2.501   1.862   2.491  0.6403  0.9049 -0.1571
  913SOL    HW2 2739   2.617   1.887   2.609  0.3214 -1.7985  3.4884
  914SOL     OW 2740   1.867   1.341   0.742 -0.1105 -0.8033  0.2860
  914SOL    HW1 2741   1.812   1.293   0.673  0.0226  0.8295  1.8257
  914SOL    HW2 2742   1.805   1.378   0.813 -2.5735  1.3285 -1.6939
  915SOL     OW 2743   0.288   2.630   2.184 -0.0891 -0.3764  0.1091
  915SOL    HW1 2744   0.249   2.727   2.203  1.2135  3.5149 -0.2829
  915SOL    HW2 2745   0.388   2.639   2.164 -1.5503 -0.8929  0.0792
  916SOL     OW 2746   0.943   0.072   1.061 -0.4831 -0.5291 -0.1888
  916SOL    HW1 2747   0.896   3.092   1.091 -0.3782  0.5396  0.5435
  916SOL    HW2 2748   1.030   0.077   1.109  0.3075 -4.1930 -2.9114
  917SOL     OW 2749   2.312   0.612   2.985 -0.1827 -0.5377  0.1157
  917SOL    HW1 2750   2.375   0.632   3.058  0.3036  2.4481 -3.7242
  917SOL    HW2 2751   2.364   0.590   2.900 -2.5994 -2.3525 -1.8088
  918SOL     OW 2752   1.533   2.309   2.595 -0.0054 -0.0191  0.2565
  918SOL    HW1 2753   1.575   2.398   2.578  0.1479 -1.5242  0.7040
  918SOL    HW2 2754   1.526   2.249   2.515 -0.8355  0.5792  4.5265
  919SOL     OW 2755   1.935   2.674   1.269  0.3955 -0.5711 -0.2692
  919SOL    HW1 2756   1.885   2.707   1.349 -0.5325  3.3447 -3.6650
  919SOL    HW2 2757   1.891   2.595   1.222  3.4430  0.8447 -1.2118
  920SOL     OW 2758   1.353   0.114   2.651  0.1047  0.2712 -0.4714
  920SOL    HW1 2759   1.253   0.120   2.669 -0.7082 -3.1927 -2.4473
  920SOL    HW2 2760   1.389   0.032   2.696 -2.7871  0.7260 -0.8906
  921SOL     OW 2761   0.101   0.986   2.666 -0.0872  0.1515 -0.0770
  921SOL    HW1 2762   0.037   0.969   2.589 -0.5414  0.4322 -2.1021
  921SOL    HW2 2763   0.070   1.073   2.713  0.4286  0.5135  0.5494
  922SOL     OW 2764   3.038   1.990   1.196  0.1797 -0.2197 -0.2775
  922SOL    HW1 2765   2.954   1.944   1.223 -0.5037  1.0775 -3.0941
  922SOL    HW2 2766   3.060   2.067   1.250  0.1106 -1.0203 -0.5326
  923SOL     OW 2767   0.146   1.552   2.071  0.1442  0.0936  0.1934
  923SOL    HW1 2768   0.247   1.569   2.074 -1.0525  0.0110  1.6216
  923SOL    HW2 2769   0.126   1.459   2.030 -3.1359 -0.6275  4.5240
  924SOL     OW 2770   1.750   2.962   2.431 -0.3186 -0.0529  0.1703
  924SOL    HW1 2771   1.663   2.913   2.406  1.2306 -0.1021  2.6178
  924SOL    HW2 2772   1.835   2.904   2.435 -2.8837 -2.5113  0.9649
  925SOL     OW 2773   2.851   1.736   0.594  0.4428  0.2399 -0.2576
  925SOL    HW1 2774   2.941   1.726   0.555 -0.3583 -1.7855  1.3962
  925SOL    HW2 2775   2.839   1.674   0.674 -2.4907 -1.8201  1.3745
  926SOL     OW 2776   2.511   0.665   0.949 -0.5458 -0.7273  0.2451
  926SOL    HW1 2777   2.569   0.581   0.960 -0.3228 -1.1078  1.1494
  926SOL    HW2 2778   2.490   0.704   1.040 -0.5764  0.3900 -1.1412
  927SOL     OW 2779   1.820   0.182   1.343  0.2236  0.6310  0.2562
  927SOL    HW1 2780   1.719   0.212   1.342 -2.3352  1.1673 -1.8953
  927SOL    HW2 2781   1.847   0.137   1.430  1.0864 -2.3545  1.8189
  928SOL     OW 2782   3.041   0.843   2.339 -0.2993  1.1023 -0.6215
  928SOL    HW1 2783   0.035   0.832   2.371 -1.3567  0.5300  0.2121
  928SOL    HW2 2784   2.980   0.769   2.371 -1.6540  1.5300 -1.5352
  929SOL     OW 2785   2.057   1.035   1.282  0.0564  0.0491 -0.8861
  929SOL    HW1 2786   2.052   0.949   1.235 -1.2709  0.2802 -0.3175
  929SOL    HW2 2787   2.089   1.108   1.218 -0.4738  2.1893  0.2971
  930SOL     OW 2788   2.044   2.356   1.579 -0.6780  0.0665 -0.0114
  930SOL    HW1 2789   2.073   2.263   1.550  0.1576  1.8713 -0.1942
  930SOL    HW2 2790   2.125   2.408   1.622  1.3828  3.0799 -2.5849
  931SOL     OW 2791   1.902   1.221   1.433  0.2573  0.0444 -0.3552
  931SOL    HW1 2792   1.850   1.257   1.359  3.0163 -2.0326  2.9606
  931SOL    HW2 2793   1.942   1.137   1.396  0.9673 -1.8662  0.8283
  932SOL     OW 2794   0.172   0.702   1.766 -0.2657 -0.8540  0.3224
  932SOL    HW1 2795   0.235   0.639   1.716  0.2103 -1.2861 -1.2740
  932SOL    HW2 2796   0.213   0.790   1.783 -0.1279 -3.5419 -0.1990
  933SOL     OW 2797   2.400   1.997   1.464  0.1173 -0.4459  0.6286
  933SOL    HW1 2798   2.354   2.078   1.420  3.3157  0.5273  0.2605
  933SOL    HW2 2799   2.361   1.976   1.556  1.6143 -0.1786  0.6264
  934SOL     OW 2800   1.296   2.360   1.866  0.4310 -0.2974  0.5676
  934SOL    HW1 2801   1.350   2.423   1.808 -2.6777  2.3222 -0.5594
  934SOL    HW2 2802   1.264   2.404   1.949  1.6937 -3.9003 -1.9747
  935SOL     OW 2803   2.951   1.461   1.703 -0.4950 -0.5848  0.1718
  935SOL    HW1 2804   3.040   1.414   1.708 -1.2697 -0.3484  1.3447
  935SOL    HW2 2805   2.954   1.540   1.763 -0.9878  0.2142  0.1159
  936SOL     OW 2806   2.749   0.560   1.486  0.2958 -0.6917 -0.6216
  936SOL    HW1 2807   2.746   0.658   1.466  2.2020  1.2810  0.1087
  936SOL    HW2 2808   2.662   0.515   1.460  0.5696  2.9743 -2.3229
  937SOL     OW 2809   1.580   0.412   1.325 -0.4676  0.7646 -0.4657
  937SOL    HW1 2810   1.645   0.446   1.254 -1.1907 -1.5493  0.7610
  937SOL    HW2 2811   1.587   0.470   1.412  0.4712  1.7774 -0.7710
  938SOL     OW 2812   0.438   2.834   0.721 -0.8209 -0.1469 -0.5473
  938SOL    HW1 2813   0.355   2.786   0.752 -2.1460  0.2913  0.9529
  938SOL    HW2 2814   0.514   2.765   0.714  0.7168 -3.8014  2.4905
  939SOL     OW 2815   3.046   2.009   2.499  0.0563 -0.2199 -0.4193
  939SOL    HW1 2816   0.022   1.979   2.451 -2.3186  0.0630  0.8933
  939SOL    HW2 2817   3.045   2.111   2.502  0.2012  0.7405  0.4247
  940SOL     OW 2818   1.549   1.781   0.048 -0.2244 -0.5085 -0.4796
  940SOL    HW1 2819   1.650   1.770   0.038 -1.0897  0.6000  0.9722
  940SOL    HW2 2820   1.506   1.793   3.061 -1.4014  1.7810  0.9741
  941SOL     OW 2821   1.972   2.517   0.319  0.6041 -0.2616  0.3563
  941SOL    HW1 2822   2.013   2.456   0.382 -1.7423 -0.2504 -4.0390
  941SOL    HW2 2823   1.879   2.554   0.353 -2.6480  1.8673 -1.3090
  942SOL     OW 2824   1.942   1.789   0.951 -0.2809 -0.5177 -0.0452
  942SOL    HW1 2825   1.870   1.856   0.978  0.4055  1.1700  0.9637
  942SOL    HW2 2826   2.022   1.802   1.017  1.2848 -0.4316  2.3113
  943SOL     OW 2827   1.938   0.798   1.584  0.6540 -0.8313  0.1639
  943SOL    HW1 2828   1.859   0.849   1.537 -0.9198  2.3575 -1.0732
  943SOL    HW2 2829   2.022   0.852   1.584 -3.4599  0.1872  0.0034
  944SOL     OW 2830   1.617   0.735   2.156 -0.0980  0.6142  0.2173
  944SOL    HW1 2831   1.698   0.696   2.203 -0.5289 -2.0702 -2.7523
  944SOL    HW2 2832   1.576   0.813   2.200 -1.5504  0.5033 -0.7112
  945SOL     OW 2833   2.238   2.942   1.462 -0.1105  0.2873  0.7081
  945SOL    HW1 2834   2.330   2.970   1.500  1.8832 -0.8318 -0.4336
  945SOL    HW2 2835   2.203   3.007   1.390  0.3909  2.5084  1.2175
  946SOL     OW 2836   0.721   1.287   0.692  0.2790 -0.1913  0.2184
  946SOL    HW1 2837   0.700   1.381   0.723  2.0535 -2.4319 -2.3479
  946SOL    HW2 2838   0.747   1.279   0.594  0.3301  0.7175 -0.2589
  947SOL     OW 2839   1.172   2.317   0.920 -0.2064 -0.6496 -0.3381
  947SOL    HW1 2840   1.209   2.409   0.898  0.3384  1.7552  0.0994
  947SOL    HW2 2841   1.163   2.263   0.836  1.2404 -1.3392 -0.2476
  948SOL     OW 2842   0.314   1.689   0.992 -0.5473  0.2499 -0.2684
  948SOL    HW1 2843   0.332   1.599   0.952 -1.4108  2.3317  0.6785
  948SOL    HW2 2844   0.400   1.746   1.004  1.2321  1.2363  1.7415
  949SOL     OW 2845   0.861   1.336   1.772  0.6136  0.0878  0.7129
  949SOL    HW1 2846   0.804   1.417   1.792  0.9121  1.2853 -0.1515
  949SOL    HW2 2847   0.888   1.329   1.671  2.0648  1.2841 -1.8621
  950SOL     OW 2848   0.657   0.730   1.321  0.5014  0.4361  0.0316
  950SOL    HW1 2849   0.717   0.815   1.317  0.0400 -0.6957 -1.0245
  950SOL    HW2 2850   0.560   0.754   1.346  0.1940  0.3864 -0.3156
  951SOL     OW 2851   0.736   2.192   1.956  0.0134  0.3539  0.0900
  951SOL    HW1 2852   0.637   2.177   1.941  1.4864 -0.0424  1.2736
  951SOL    HW2 2853   0.793   2.109   1.940 -1.1985 -0.3732 -0.8989
  952SOL     OW 2854   0.840   1.705   0.196  0.6254 -0.1027 -0.2349
  952SOL    HW1 2855   0.812   1.691   0.098 -0.7865  2.5673  2.7982
  952SOL    HW2 2856   0.934   1.746   0.200 -0.0906 -0.1833 -1.9743
  953SOL     OW 2857   1.029   2.794   0.223 -0.5194 -0.0250 -0.0349
  953SOL    HW1 2858   0.971   2.778   0.302 -1.5161 -1.5257  0.1374
  953SOL    HW2 2859   1.067   2.708   0.192  3.3744  1.7953  0.6234
  954SOL     OW 2860   1.511   1.307   3.018 -0.6770  0.1618  0.6141
  954SOL    HW1 2861   1.557   1.228   3.055 -2.6504  1.7054 -1.3362
  954SOL    HW2 2862   1.580   1.374   2.982  2.4401 -1.2352  0.3238
  955SOL     OW 2863   0.171   2.530   3.032 -0.2996  0.0869 -0.5529
  955SOL    HW1 2864   0.260   2.565   2.993  1.1289  1.4711  0.1688
  955SOL    HW2 2865   0.098   2.604   3.023  0.7428  1.5070 -1.0312
  956SOL     OW 2866   1.153   0.997   1.353 -0.3239 -0.3958 -0.4176
  956SOL    HW1 2867   1.215   1.008   1.269  2.2360 -1.8406 -4.1793
  956SOL    HW2 2868   1.158   1.078   1.406  0.0920 -2.5661 -1.9828
  957SOL     OW 2869   1.703   1.622   1.653  0.0514  0.0116  0.1196
  957SOL    HW1 2870   1.635   1.553   1.628  0.7648 -1.9176  0.6607
  957SOL    HW2 2871   1.713   1.637   1.756 -1.1316 -0.9120 -1.3147
  958SOL     OW 2872   0.859   1.927   1.613 -0.0484  0.2642 -0.5550
  958SOL    HW1 2873   0.802   1.866   1.549  0.5499 -3.5660 -1.7551
  958SOL    HW2 2874   0.848   2.018   1.579  0.5779 -1.6812 -4.1706
  959SOL     OW 2875   1.585   1.179   1.294 -0.0085 -0.2733  0.4408
  959SOL    HW1 2876   1.647   1.255   1.268 -1.2697 -0.4605 -0.6085
  959SOL    HW2 2877   1.539   1.200   1.385 -0.2072 -0.6628  0.5108
  960SOL     OW 2878   0.302   1.299   0.157  0.2741  0.7073 -0.8171
  960SOL    HW1 2879   0.351   1.391   0.154 -0.9490 -0.9369  1.0442
  960SOL    HW2 2880   0.303   1.252   0.250 -3.5616  0.1835  1.3795
  961SOL     OW 2881   0.707   1.574   1.828  0.6742  0.1127 -0.1924
  961SOL    HW1 2882   0.734   1.624   1.741  0.5507  2.4714 -0.2258
  961SOL    HW2 2883   0.752   1.623   1.906  0.9293 -0.8064 -0.2072
  962SOL     OW 2884   1.598   1.470   0.702 -0.2775 -0.0105 -0.3148
  962SOL    HW1 2885   1.592   1.545   0.772 -0.7574 -1.1944  0.9266
  962SOL    HW2 2886   1.514   1.412   0.710 -2.5107 -0.4844  1.6928
  963SOL     OW 2887   1.441   1.958   2.678  0.1402 -0.5407 -0.0381
  963SOL    HW1 2888   1.475   1.975   2.585 -1.1150  1.5460 -0.9277
  963SOL    HW2 2889   1.369   2.025   2.693  0.5448 -0.1463  1.4944
  964SOL     OW 2890   0.619   2.954   0.336  0.1472  0.1818  0.0890
  964SOL    HW1 2891   0.531   2.958   0.384  1.9031 -0.4792 -0.3718
  964SOL    HW2 2892   0.605   2.933   0.239  2.8034 -2.7121  0.7868
  965SOL     OW 2893   0.469   2.481   0.675  0.3821 -0.1409 -0.1199
  965SOL    HW1 2894   0.518   2.418   0.739 -1.3880  1.9951 -0.1762
  965SOL    HW2 2895   0.378   2.504   0.713 -0.8854 -0.6998  0.5753
  966SOL     OW 2896   0.283   1.694   2.676 -0.2209  0.2034  0.0695
  966SOL    HW1 2897   0.268   1.797   2.673 -0.9575  0.0772  0.1230
  966SOL    HW2 2898   0.195   1.651   2.698 -1.1066  0.9317 -0.0270
  967SOL     OW 2899   0.012   2.858   2.626  0.5807 -0.0621  0.0706
  967SOL    HW1 2900   0.040   2.941   2.577  0.2655  1.1401  0.9961
  967SOL    HW2 2901   0.028   2.868   2.725  0.4884 -1.2596  1.7655
  968SOL     OW 2902   2.293   0.711   0.216  0.3710  0.3707  0.0695
  968SOL    HW1 2903   2.201   0.683   0.245 -0.0277  0.0042 -2.6347
  968SOL    HW2 2904   2.286   0.809   0.183  0.9471 -3.7679  2.3057
  969SOL     OW 2905   0.405   1.061   2.005  0.2805  0.1363  0.3688
  969SOL    HW1 2906   0.316   1.014   1.978 -0.5379  0.8122  0.3078
  969SOL    HW2 2907   0.376   1.131   2.073  0.6060 -1.1981  0.9248
  970SOL     OW 2908   2.405   1.433   1.300  0.1941 -0.6787 -0.1505
  970SOL    HW1 2909   2.302   1.441   1.304 -0.2276  0.5928  0.7408
  970SOL    HW2 2910   2.437   1.338   1.310 -1.1122  0.0474  0.1121
  971SOL     OW 2911   2.526   0.149   1.095  0.0514  0.4360 -0.3661
  971SOL    HW1 2912   2.453   0.146   1.028  2.3129 -2.1835  3.7495
  971SOL    HW2 2913   2.557   0.053   1.113 -0.6137 -1.0582 -5.2029
  972SOL     OW 2914   0.364   2.944   1.562 -0.2057 -0.0492  1.1432
  972SOL    HW1 2915   0.289   2.946   1.632 -0.1010 -1.0413  2.1226
  972SOL    HW2 2916   0.403   3.039   1.543  0.7135  0.7268 -1.1498
  973SOL     OW 2917   0.127   0.272   3.010  0.0337 -0.2474  0.1591
  973SOL    HW1 2918   0.184   0.266   2.932 -1.1824  0.1635  6.1456
  973SOL    HW2 2919   0.032   0.298   2.988  1.1955 -0.3891 -0.0012
  974SOL     OW 2920   1.814   1.391   2.233 -0.1057 -0.1210  0.5963
  974SOL    HW1 2921   1.729   1.431   2.193 -0.9316 -1.3945  0.1430
  974SOL    HW2 2922   1.894   1.436   2.186 -0.9437  3.4332 -1.7056
  975SOL     OW 2923   3.039   3.078   1.585  0.8083  0.4450  0.5913
  975SOL    HW1 2924   0.033   3.061   1.601  2.8299  0.3340 -0.1741
  975SOL    HW2 2925   3.019   0.074   1.585 -1.7596  1.6579 -1.0622
  976SOL     OW 2926   0.311   2.008   1.924 -0.1147  0.0199  0.0028
  976SOL    HW1 2927   0.387   1.939   1.916 -0.5529  4.4595  0.0972
  976SOL    HW2 2928   0.230   1.988   1.863 -1.6423  0.8479 -2.3588
  977SOL     OW 2929   0.802   2.385   0.356 -0.8167 -0.2466  0.4751
  977SOL    HW1 2930   0.713   2.431   0.373  0.9488  0.3703  0.2125
  977SOL    HW2 2931   0.863   2.432   0.424  0.5806  0.9522 -1.8775
  978SOL     OW 2932   0.119   1.513   2.329  0.6862 -0.3079  0.3177
  978SOL    HW1 2933   0.124   1.514   2.228 -2.3419  1.8459  1.1074
  978SOL    HW2 2934   0.047   1.582   2.357 -0.9458 -0.0345 -1.0460
  979SOL     OW 2935   1.617   2.559   1.459 -0.7340  0.1630 -0.1165
  979SOL    HW1 2936   1.697   2.501   1.476 -1.0036  0.4244  0.6641
  979SOL    HW2 2937   1.560   2.523   1.384  1.2337  1.3126 -0.6190
  980SOL     OW 2938   0.890   1.457   3.026 -0.7149  0.6689 -0.2632
  980SOL    HW1 2939   0.813   1.393   3.041  1.2206  2.3308  1.4258
  980SOL    HW2 2940   0.857   1.554   3.039  1.5456  1.8939  0.5136
  981SOL     OW 2941   2.233   0.073   2.315 -0.1171 -0.1634  0.6018
  981SOL    HW1 2942   2.328   0.098   2.338  2.1942 -0.1271 -2.0441
  981SOL    HW2 2943   2.228   0.063   2.208 -0.7951 -0.4059 -1.2388
  982SOL     OW 2944   0.149   0.059   2.790 -0.0306  0.3125 -0.5188
  982SOL    HW1 2945   0.047   0.075   2.781  0.8333 -2.2786 -2.1241
  982SOL    HW2 2946   0.203   0.145   2.786  2.0189  1.7022 -1.4062
  983SOL     OW 2947   1.999   1.165   2.239  0.1452  0.2354 -0.4233
  983SOL    HW1 2948   1.959   1.075   2.260 -2.1356 -0.4352 -0.9585
  983SOL    HW2 2949   1.930   1.240   2.248  1.8272  1.1798  2.6476
  984SOL     OW 2950   1.634   0.239   1.884 -0.7583 -0.8512  0.4454
  984SOL    HW1 2951   1.606   0.278   1.971 -2.7854 -0.7996  0.0618
  984SOL    HW2 2952   1.678   0.307   1.820  0.4757  0.7976 -1.3428
  985SOL     OW 2953   1.859   1.387   1.823  0.1269  0.0700  0.5837
  985SOL    HW1 2954   1.802   1.316   1.783  2.5103 -0.1322  1.5789
  985SOL    HW2 2955   1.946   1.342   1.852 -0.0398 -1.5347  0.5948
  986SOL     OW 2956   1.960   0.543   1.509 -0.3715 -0.1797 -0.0630
  986SOL    HW1 2957   2.038   0.502   1.559 -1.1826 -2.2272  0.1668
  986SOL    HW2 2958   1.939   0.642   1.536 -2.0991  1.8277 -0.9728
  987SOL     OW 2959   2.505   0.416   1.348  0.1178 -0.0004  0.4433
  987SOL    HW1 2960   2.459   0.502   1.364  0.4815 -3.9290  2.1306
  987SOL    HW2 2961   2.440   0.341   1.326 -2.9060 -1.2135 -2.8598
  988SOL     OW 2962   3.016   0.911   2.049 -0.4315  0.5394 -0.3919
  988SOL    HW1 2963   3.059   0.850   1.983 -0.8549  0.4642 -0.4268
  988SOL    HW2 2964   3.040   0.881   2.145  0.5481  0.1932  0.0840
  989SOL     OW 2965   2.004   1.642   2.981  0.2691  0.2740  0.0620
  989SOL    HW1 2966   1.997   1.710   2.907  3.0008 -3.5976 -0.8145
  989SOL    HW2 2967   2.100   1.620   3.010  0.5853 -0.3074  0.4080
  990SOL     OW 2968   1.020   0.480   3.078 -0.3668 -0.3024  0.3065
  990SOL    HW1 2969   0.982   0.502   2.987  0.2545 -0.8121  1.1312
  990SOL    HW2 2970   1.117   0.508   3.083 -1.5564  0.7713 -2.0806
  991SOL     OW 2971   1.555   1.047   0.001 -0.6368 -0.4154 -0.4331
  991SOL    HW1 2972   1.565   1.029   0.104  0.0411  0.0999  3.1695
  991SOL    HW2 2973   1.549   0.956   3.059 -0.9647 -0.0362 -1.1440
  992SOL     OW 2974   2.030   1.235   0.030 -0.5698 -0.1965  0.4428
  992SOL    HW1 2975   1.949   1.293   0.014  0.8705 -1.1538 -0.0826
  992SOL    HW2 2976   2.012   1.144   0.071 -1.6832 -1.6488 -0.3987
  993SOL     OW 2977   0.027   0.455   0.519  0.1454 -0.5535  0.5268
  993SOL    HW1 2978   0.100   0.422   0.453 -0.0183 -0.1428  1.1522
  993SOL    HW2 2979   0.034   0.560   0.521 -0.3508  0.5661  0.8654
  994SOL     OW 2980   2.936   1.995   2.127  0.5228 -0.2842 -0.3055
  994SOL    HW1 2981   2.889   1.954   2.209 -2.3488 -2.0299  0.8724
  994SOL    HW2 2982   3.039   1.987   2.136 -0.4206 -1.3095 -0.8264
  995SOL     OW 2983   1.860   1.423   2.497 -0.1386 -0.5303  0.2864
  995SOL    HW1 2984   1.849   1.412   2.394  0.0739  0.8636  0.9994
  995SOL    HW2 2985   1.938   1.367   2.529 -1.7611  2.8516 -0.1121
  996SOL     OW 2986   2.081   1.766   2.681 -0.6379 -0.7539 -0.4945
  996SOL    HW1 2987   2.117   1.862   2.667 -0.0421  2.2009 -2.3084
  996SOL    HW2 2988   1.985   1.748   2.657 -0.0653  2.6196  0.6128
  997SOL     OW 2989   2.407   1.677   1.708  0.4053  0.0017 -0.0625
  997SOL    HW1 2990   2.397   1.684   1.608 -3.0340 -1.3869  0.0592
  997SOL    HW2 2991   2.505   1.657   1.734 -2.4824  4.0186 -0.4627
  998SOL     OW 2992   2.345   1.635   0.460 -0.6110 -0.0017  0.1851
  998SOL    HW1 2993   2.275   1.580   0.416  0.5111 -0.2314  2.5293
  998SOL    HW2 2994   2.421   1.567   0.469 -1.7233 -2.1896 -1.2818
  999SOL     OW 2995   2.814   2.460   0.413  0.4854  0.0219  0.2126
  999SOL    HW1 2996   2.716   2.439   0.436  0.0435 -1.3885 -2.4036
  999SOL    HW2 2997   2.815   2.551   0.369 -0.1708 -0.3870 -0.0809
 1000SOL     OW 2998   1.008   0.385   2.219 -0.1853  0.5711  0.1026
 1000SOL    HW1 2999   0.980   0.301   2.270 -1.3517 -0.3627  1.0674
 1000SOL    HW2 3000   0.955   0.464   2.257 -2.4281  0.2705 -0.9279
   3.10572   3.10572   3.10572
