1000 SPC/Fw water molecules t= 333.00000 step= 333000
 3000
    1SOL     OW    1   2.286   0.135   1.378  0.2360  0.3750 -0.0073
    1SOL    HW1    2   2.309   0.036   1.356  1.7076 -1.8972  0.0538
    1SOL    HW2    3   2.367   0.182   1.426 -0.9999 -0.3207  1.2702
    2SOL     OW    4   2.604   2.412   0.879  0.1393  0.0324 -0.0206
    2SOL    HW1    5   2.683   2.448   0.938 -0.5811 -0.4512 -1.6335
    2SOL    HW2    6   2.526   2.394   0.947 -1.0418 -1.1674  0.8978
    3SOL     OW    7   1.175   3.052   2.938  0.6971 -0.0091  0.0393
    3SOL    HW1    8   1.188   3.026   3.036 -0.1969 -2.8376 -1.9033
    3SOL    HW2    9   1.077   3.050   2.919  1.1228  0.6446 -0.8887
    4SOL     OW   10   1.943   2.638   2.163 -0.3896  1.2569 -0.6029
    4SOL    HW1   11   2.036   2.684   2.150  0.9134 -0.6347  0.5092
    4SOL    HW2   12   1.936   2.545   2.119 -0.7897 -1.0508  1.3927
    5SOL     OW   13   1.359   1.162   1.930  0.2688 -0.2008 -0.0247
    5SOL    HW1   14   1.407   1.162   1.839 -1.3451 -2.5266 -0.2033
    5SOL    HW2   15   1.346   1.068   1.968 -1.3801 -0.6844  0.4882
    6SOL     OW   16   2.049   2.632   0.875  0.0201  0.4971  0.2448
    6SOL    HW1   17   1.951   2.606   0.853  1.1091  1.3362 -3.0414
    6SOL    HW2   18   2.068   2.626   0.974  0.1484  0.1312 -0.6730
    7SOL     OW   19   2.211   1.138   1.319 -0.0779 -0.1540 -0.4561
    7SOL    HW1   20   2.185   1.227   1.359  0.8226 -0.8667 -0.2842
    7SOL    HW2   21   2.273   1.159   1.240  1.9928  1.6817  1.1037
    8SOL     OW   22   0.759   1.739   1.250  0.7019 -0.5035 -0.6750
    8SOL    HW1   23   0.686   1.677   1.219  2.5398 -1.1602  0.1672
    8SOL    HW2   24   0.726   1.797   1.328  4.5218 -0.6937  2.3179
    9SOL     OW   25   1.151   2.568   2.336  0.4890 -0.3204 -0.2249
    9SOL    HW1   26   1.054   2.534   2.341  2.3430  0.0542 -2.2193
    9SOL    HW2   27   1.147   2.659   2.284 -0.1809  0.6521  1.0431
   10SOL     OW   28   0.201   2.044   0.843 -0.2065  0.0990 -0.3938
   10SOL    HW1   29   0.279   1.982   0.844 -0.4760  3.5871 -0.4306
   10SOL    HW2   30   0.198   2.073   0.938  0.6219  0.2163  1.3573
   11SOL     OW   31   1.602   1.997   1.163 -0.1775  0.1416 -0.2304
   11SOL    HW1   32   1.591   2.054   1.249  0.0465  0.3430  2.0815
   11SOL    HW2   33   1.522   1.998   1.103 -1.8509 -1.6953  1.5868
   12SOL     OW   34   2.314   0.074   2.255  0.1257  0.0935  0.7156
   12SOL    HW1   35   2.391   0.136   2.237  0.4000 -2.6878 -1.8626
   12SOL    HW2   36   2.253   0.068   2.173  1.8000  2.3107  0.1665
   13SOL     OW   37   2.710   3.037   0.580 -0.0333  0.8094  0.5736
   13SOL    HW1   38   2.679   3.043   0.680 -0.3135  0.7924  1.4588
   13SOL    HW2   39   2.806   3.001   0.584 -0.0937  1.3260 -1.0130
   14SOL     OW   40   1.544   1.782   2.945 -0.7286  0.2201 -0.2646
   14SOL    HW1   41   1.610   1.708   2.956 -1.6723  0.2403  1.9331
   14SOL    HW2   42   1.557   1.834   2.857 -1.2161 -0.1582 -2.2613
   15SOL     OW   43   2.833   2.706   1.515  0.2177 -0.0414  0.3790
   15SOL    HW1   44   2.899   2.778   1.532 -3.3410  0.3438  1.6906
   15SOL    HW2   45   2.743   2.719   1.559  0.8377  1.0194 -1.1925
   16SOL     OW   46   2.733   2.971   0.275 -0.1568 -0.3224 -0.1599
   16SOL    HW1   47   2.691   3.006   0.362 -3.9401  0.3950 -2.1056
   16SOL    HW2   48   2.828   3.010   0.261  2.6790  1.2278  1.7669
   17SOL     OW   49   0.308   0.198   1.447 -0.1524  0.3463  0.2443
   17SOL    HW1   50   0.353   0.259   1.379  0.1317 -1.2722  1.1300
   17SOL    HW2   51   0.304   0.099   1.417 -2.7320  0.8097 -4.0506
   18SOL     OW   52   2.304   0.980   0.676  0.0904  0.4351  0.2629
   18SOL    HW1   53   2.393   0.980   0.625 -1.4316  1.9310  1.3837
   18SOL    HW2   54   2.310   0.943   0.772  1.4675  0.0107  1.3642
   19SOL     OW   55   1.562   1.806   0.137  0.5099  0.0839  0.6990
   19SOL    HW1   56   1.644   1.759   0.178 -0.9828 -0.4066  1.9573
   19SOL    HW2   57   1.568   1.813   0.035 -2.0205  1.4051 -3.2865
   20SOL     OW   58   2.452   1.985   2.262  0.1374  0.0916  0.5250
   20SOL    HW1   59   2.389   1.920   2.211 -3.9201 -0.6542 -1.2544
   20SOL    HW2   60   2.397   2.040   2.325 -2.1470 -2.0877 -2.5038
   21SOL     OW   61   1.841   3.047   0.610  0.8690  0.0594  0.2082
   21SOL    HW1   62   1.762   3.046   0.676  2.1704  0.6622 -0.8109
   21SOL    HW2   63   1.930   3.046   0.662 -0.8317 -0.6614  0.4327
   22SOL     OW   64   2.462   0.303   1.506  0.8610  0.7257  0.5678
   22SOL    HW1   65   2.504   0.229   1.559 -2.8979  1.0405 -1.6557
   22SOL    HW2   66   2.377   0.333   1.559  3.1578 -1.0216  1.6115
   23SOL     OW   67   0.428   0.573   1.588 -0.1351 -0.0847  0.2674
   23SOL    HW1   68   0.443   0.674   1.610  0.0162  4.3515 -1.0167
   23SOL    HW2   69   0.418   0.555   1.487  0.8313 -1.5498 -0.8178
   24SOL     OW   70   2.518   2.803   0.561  0.1827 -0.1549  0.2115
   24SOL    HW1   71   2.526   2.714   0.605 -1.9636 -0.8025  1.7057
   24SOL    HW2   72   2.608   2.848   0.547  0.6235  0.4133 -1.1785
   25SOL     OW   73   1.154   2.778   2.655  0.3011  0.6138  0.0375
   25SOL    HW1   74   1.116   2.862   2.612  0.0273 -2.2422  1.3039
   25SOL    HW2   75   1.246   2.763   2.620 -1.8742  1.5915 -1.8066
   26SOL     OW   76   1.529   2.439   0.074  0.0318 -0.2351 -0.2500
   26SOL    HW1   77   1.453   2.486   0.022  0.9085  1.0239 -1.6986
   26SOL    HW2   78   1.600   2.508   0.096  0.2534  1.6241  0.0603
   27SOL     OW   79   2.470   0.970   2.850  0.4749 -0.5476  0.0112
   27SOL    HW1   80   2.441   1.067   2.867  2.2592 -1.0260  0.5658
   27SOL    HW2   81   2.570   0.957   2.861 -1.4169  1.6301  1.6577
   28SOL     OW   82   1.203   1.562   1.076  0.4205 -0.6103 -0.3966
   28SOL    HW1   83   1.222   1.502   1.157  0.5457 -1.4903 -0.8351
   28SOL    HW2   84   1.109   1.587   1.068  0.6882 -1.5447  1.7664
   29SOL     OW   85   2.950   2.649   1.834 -0.3192  0.1241  0.0285
   29SOL    HW1   86   3.049   2.642   1.866 -0.2996 -3.2943 -1.5988
   29SOL    HW2   87   2.900   2.572   1.882 -0.7551  1.2186  1.6874
   30SOL     OW   88   1.282   0.075   1.141  0.1238 -0.3559 -0.3000
   30SOL    HW1   89   1.347   0.000   1.167  0.2507 -0.0815 -1.7998
   30SOL    HW2   90   1.324   0.144   1.080 -2.2973 -2.9998  3.4434
   31SOL     OW   91   1.985   2.953   2.393  0.2143  0.0098 -0.3304
   31SOL    HW1   92   1.932   2.940   2.478  1.9959 -2.7621  1.2877
   31SOL    HW2   93   1.925   2.976   2.313  0.3783 -1.3980  2.1580
   32SOL     OW   94   0.932   1.541   0.277 -0.4541 -0.1210 -0.2275
   32SOL    HW1   95   1.004   1.530   0.348 -0.4948 -0.9666  0.6717
   32SOL    HW2   96   0.941   1.630   0.229  1.1993  0.7184  2.5137
   33SOL     OW   97   0.277   0.761   2.436 -0.2719 -0.1015  0.1928
   33SOL    HW1   98   0.290   0.660   2.413  1.8636 -0.8917 -1.9943
   33SOL    HW2   99   0.190   0.796   2.398  0.6007  2.1782 -0.7822
   34SOL     OW  100   2.478   3.032   0.728  0.2546 -0.2811 -0.2945
   34SOL    HW1  101   2.400   3.087   0.695 -0.9458  0.2390  0.3589
   34SOL    HW2  102   2.487   2.951   0.667  1.0424  0.8298 -0.9700
   35SOL     OW  103   2.390   2.935   2.036  0.2068 -0.7246 -0.5046
   35SOL    HW1  104   2.434   2.879   2.111 -0.3705 -1.9717  2.1875
   35SOL    HW2  105   2.290   2.941   2.038 -1.5333 -1.0702 -1.2504
   36SOL     OW  106   2.082   2.169   0.043 -0.1806 -0.5216 -0.0710
   36SOL    HW1  107   1.998   2.183   3.127  1.0425 -0.1660  0.0564
   36SOL    HW2  108   2.090   2.081   0.093  0.0317  0.4468 -2.5315
   37SOL     OW  109   1.638   0.528   2.238  0.3366 -0.3730 -0.3458
   37SOL    HW1  110   1.705   0.591   2.279 -2.5536 -0.5289  2.0049
   37SOL    HW2  111   1.583   0.484   2.306  1.8219  3.5501 -1.9934
   38SOL     OW  112   0.131   0.233   2.846 -0.7794  0.4141  0.1340
   38SOL    HW1  113   0.185   0.175   2.909 -0.0879  1.1730 -0.6675
   38SOL    HW2  114   0.192   0.274   2.776 -2.6975  0.7008 -0.1232
   39SOL     OW  115   2.127   1.393   1.749  0.1371 -0.1369  0.9346
   39SOL    HW1  116   2.225   1.384   1.716  0.6881  0.7778 -2.0280
   39SOL    HW2  117   2.110   1.394   1.850 -2.1707  1.7948  1.0408
   40SOL     OW  118   1.340   2.666   0.266 -0.1905  0.0361 -0.0082
   40SOL    HW1  119   1.331   2.569   0.292  2.4541  1.0437 -2.4732
   40SOL    HW2  120   1.342   2.684   0.166  2.2173 -2.6035  3.0096
   41SOL     OW  121   2.422   1.384   0.882 -0.2475  0.6960  0.0789
   41SOL    HW1  122   2.375   1.371   0.970 -0.8475 -1.0234 -1.4904
   41SOL    HW2  123   2.476   1.471   0.887 -2.9202  0.2768  0.2433
   42SOL     OW  124   0.658   0.398   1.404  0.1456  0.3888  0.5269
   42SOL    HW1  125   0.738   0.455   1.414  2.0267 -3.3993 -1.5205
   42SOL    HW2  126   0.638   0.357   1.494  2.9726 -1.2821  0.0714
   43SOL     OW  127   0.078   1.378   2.443  0.0349  0.0872 -0.1889
   43SOL    HW1  128   0.062   1.414   2.538  0.9730  0.6133  0.9895
   43SOL    HW2  129   0.172   1.400   2.410 -3.3798  0.3212  1.8807
   44SOL     OW  130   2.573   0.130   1.666 -0.2724 -0.1475  0.3879
   44SOL    HW1  131   2.635   0.165   1.739 -0.2238 -1.6810 -0.3260
   44SOL    HW2  132   2.539   0.041   1.700  2.3806 -0.1129  1.6114
   45SOL     OW  133   1.318   3.019   2.382 -0.1609 -0.2457  0.5240
   45SOL    HW1  134   1.367   2.933   2.408  1.2161  0.2331  0.8249
   45SOL    HW2  135   1.229   3.015   2.429 -0.9958 -0.3164  2.4058
   46SOL     OW  136   0.961   2.609   2.719 -0.3569 -0.2947 -0.2094
   46SOL    HW1  137   1.033   2.681   2.721 -2.8751  1.2613  0.9551
   46SOL    HW2  138   0.883   2.639   2.659 -1.2064 -2.1304 -1.9530
   47SOL     OW  139   1.711   1.562   0.781  0.2832 -0.5198 -0.2138
   47SOL    HW1  140   1.654   1.588   0.703 -0.6813  1.6522 -1.1955
   47SOL    HW2  141   1.809   1.550   0.750 -2.0014  0.0086 -0.5545
   48SOL     OW  142   1.254   2.133   0.651  0.5209  0.5550 -0.0830
   48SOL    HW1  143   1.254   2.122   0.548  1.6551  0.5223  0.0437
   48SOL    HW2  144   1.279   2.054   0.708  2.1877  2.0629  0.1176
   49SOL     OW  145   2.083   0.065   2.783 -0.3913 -0.1789  0.1285
   49SOL    HW1  146   2.031   0.021   2.708 -0.4078 -2.4672  0.5218
   49SOL    HW2  147   2.184   0.067   2.750  1.0244  3.1147 -1.0007
   50SOL     OW  148   1.892   0.018   0.232 -0.0077  0.0391 -0.1178
   50SOL    HW1  149   1.892   0.074   0.148  0.7401  0.2881 -2.1703
   50SOL    HW2  150   1.985   3.112   0.256 -1.5888 -1.8197  1.5375
   51SOL     OW  151   2.260   0.687   1.353  0.1156  0.1090 -0.0137
   51SOL    HW1  152   2.298   0.601   1.320  2.6830  0.1126 -2.1050
   51SOL    HW2  153   2.323   0.735   1.414  1.4980  1.3697 -1.6263
   52SOL     OW  154   1.091   1.554   0.548 -0.0949 -0.4172  0.1346
   52SOL    HW1  155   1.070   1.656   0.533 -0.0421  2.0061 -0.7245
   52SOL    HW2  156   1.131   1.525   0.641  1.4367 -0.3949 -0.4773
   53SOL     OW  157   0.369   1.697   2.482 -0.6293  0.1429  0.0987
   53SOL    HW1  158   0.453   1.761   2.492  2.0575  1.6930  1.5314
   53SOL    HW2  159   0.364   1.638   2.561  0.5225  0.0172 -0.1092
   54SOL     OW  160   2.847   1.247   1.724 -0.5793  0.4059 -0.2812
   54SOL    HW1  161   2.847   1.169   1.788  0.1622  0.2875  2.7489
   54SOL    HW2  162   2.935   1.295   1.739  0.0885 -0.5005  0.1917
   55SOL     OW  163   2.422   1.951   0.704  0.2126 -0.3029  1.0158
   55SOL    HW1  164   2.361   1.883   0.651 -0.2285 -1.4762 -0.4555
   55SOL    HW2  165   2.368   2.031   0.738 -0.2136 -0.4854  2.6961
   56SOL     OW  166   1.507   0.206   1.563 -0.2011 -0.2082 -0.1999
   56SOL    HW1  167   1.503   0.294   1.508  1.4226  0.4896 -2.0735
   56SOL    HW2  168   1.467   0.221   1.657 -0.3708  1.3648  3.7828
   57SOL     OW  169   1.621   1.138   2.749  0.0021 -0.2853  0.1252
   57SOL    HW1  170   1.619   1.048   2.789 -0.4021  1.3499 -0.0060
   57SOL    HW2  171   1.529   1.170   2.723  6.0141 -1.7842  0.6416
   58SOL     OW  172   0.111   0.645   1.428  0.8980 -0.4126 -0.1361
   58SOL    HW1  173   0.186   0.622   1.367  1.2965 -3.3903 -1.2626
   58SOL    HW2  174   0.111   0.747   1.442 -1.8946 -1.3644  0.9922
   59SOL     OW  175   1.615   2.739   0.249  0.1732 -0.1450 -0.0977
   59SOL    HW1  176   1.648   2.820   0.299 -2.1811 -0.5572 -2.2951
   59SOL    HW2  177   1.524   2.709   0.281 -0.9241  0.2362 -2.1721
   60SOL     OW  178   2.945   1.959   3.051 -0.0039  0.0812 -0.3628
   60SOL    HW1  179   3.011   1.888   3.080 -2.1090 -0.7998 -2.3280
   60SOL    HW2  180   2.860   1.914   3.012  2.1852 -2.1514 -1.9791
   61SOL     OW  181   0.756   2.643   0.874 -0.5165  0.8317 -0.0942
   61SOL    HW1  182   0.839   2.702   0.884 -1.4096  0.0504  1.5052
   61SOL    HW2  183   0.787   2.544   0.858  2.5362 -2.0622  1.5542
   62SOL     OW  184   2.043   1.414   2.691 -0.1857  0.9527  0.2621
   62SOL    HW1  185   2.094   1.365   2.616  3.4201 -0.9870 -3.7291
   62SOL    HW2  186   2.062   1.508   2.694 -1.8633 -1.7299 -1.0418
   63SOL     OW  187   2.290   2.178   0.485  0.1137 -0.0784  0.2183
   63SOL    HW1  188   2.302   2.212   0.582  3.5859  3.4023  0.3019
   63SOL    HW2  189   2.353   2.232   0.425  1.1904  1.6228  0.7402
   64SOL     OW  190   1.754   1.138   3.082  0.0568 -0.1168  0.1219
   64SOL    HW1  191   1.696   1.067   3.128 -0.9313  0.7523  0.5551
   64SOL    HW2  192   1.842   1.100   3.050  0.5581  0.1346 -0.0835
   65SOL     OW  193   1.927   1.724   2.348  0.6171  0.0964  0.1570
   65SOL    HW1  194   2.022   1.684   2.341  0.4239 -1.3614 -0.4568
   65SOL    HW2  195   1.914   1.808   2.287 -1.1320 -0.8977 -0.2338
   66SOL     OW  196   0.217   0.885   1.172  0.0807 -0.3550  0.1337
   66SOL    HW1  197   0.309   0.852   1.202 -1.6934 -3.5628  1.2258
   66SOL    HW2  198   0.216   0.985   1.151 -0.1701  2.7475 -0.4486
   67SOL     OW  199   2.140   2.837   2.734  0.3527  0.2575 -0.3044
   67SOL    HW1  200   2.056   2.895   2.714  1.1022  2.6697 -1.8329
   67SOL    HW2  201   2.183   2.813   2.644 -1.7123  3.6301  1.3054
   68SOL     OW  202   1.115   2.457   1.286 -0.3258  0.2972 -0.0724
   68SOL    HW1  203   1.191   2.493   1.228  0.7625 -0.6958  3.3295
   68SOL    HW2  204   1.153   2.407   1.366  2.5305 -3.3113 -0.6878
   69SOL     OW  205   0.765   2.469   0.004  0.7748  0.2861 -0.0339
   69SOL    HW1  206   0.722   2.524   0.081  2.1372  1.2269  2.2139
   69SOL    HW2  207   0.868   2.468   3.128  0.5322 -1.7842 -3.8629
   70SOL     OW  208   3.003   0.489   2.457  0.0170  0.6895  0.1382
   70SOL    HW1  209   3.004   0.475   2.357 -0.3656 -0.0734 -0.7387
   70SOL    HW2  210   2.992   0.586   2.481  1.4495  0.9483 -2.9817
   71SOL     OW  211   0.660   1.823   2.933  0.6094 -0.8705 -0.1384
   71SOL    HW1  212   0.737   1.764   2.944 -3.1137  2.7046 -2.7325
   71SOL    HW2  213   0.583   1.795   2.992  1.6288  0.6081 -1.3501
   72SOL     OW  214   0.136   1.721   2.353 -0.4069  0.2107  0.0774
   72SOL    HW1  215   0.225   1.683   2.377 -2.1232  0.1770 -1.0832
   72SOL    HW2  216   0.127   1.822   2.379 -2.5454  1.4563 -1.1105
   73SOL     OW  217   1.637   1.463   0.283  0.4023 -0.4988 -0.0534
   73SOL    HW1  218   1.634   1.440   0.380  1.5635  4.2302 -0.6364
   73SOL    HW2  219   1.674   1.559   0.277 -2.2055 -1.9165 -0.6007
   74SOL     OW  220   2.171   2.766   2.990  0.0632  0.5292 -0.0612
   74SOL    HW1  221   2.159   2.773   2.890 -1.4882 -2.1491  1.2008
   74SOL    HW2  222   2.211   2.672   3.014  2.3711 -3.1839  0.0046
   75SOL     OW  223   2.186   2.141   1.011  0.2592  0.2938  0.0789
   75SOL    HW1  224   2.094   2.178   1.051 -4.1798  2.6868  0.5568
   75SOL    HW2  225   2.214   2.049   1.042 -0.5126  1.1882  1.5986
   76SOL     OW  226   2.531   2.121   2.027  0.2853  0.4310 -0.0366
   76SOL    HW1  227   2.496   2.068   2.112 -1.4638 -0.3403 -1.1168
   76SOL    HW2  228   2.571   2.207   2.062 -0.4566  0.1234 -2.6710
   77SOL     OW  229   2.723   0.155   2.338  0.4030  0.3920 -0.2069
   77SOL    HW1  230   2.663   0.122   2.259 -0.1576 -2.3954 -1.3298
   77SOL    HW2  231   2.746   0.076   2.398 -0.7853  2.2473 -0.4672
   78SOL     OW  232   2.042   1.076   3.025  0.0549 -0.4857 -0.1181
   78SOL    HW1  233   2.075   1.012   3.097 -2.4515 -1.5889 -0.1011
   78SOL    HW2  234   2.100   1.159   3.022  1.6682 -0.3472  2.2839
   79SOL     OW  235   2.786   1.475   2.576 -0.7029  0.2061  0.2626
   79SOL    HW1  236   2.682   1.466   2.582 -0.3124  0.2225 -1.5677
   79SOL    HW2  237   2.799   1.574   2.556  0.7048  1.6236  2.8575
   80SOL     OW  238   1.578   1.535   1.540  0.1440  0.2258 -0.4592
   80SOL    HW1  239   1.516   1.614   1.526 -0.4825  0.1815  1.2372
   80SOL    HW2  240   1.591   1.519   1.641 -0.8236 -0.6790 -1.9037
   81SOL     OW  241   1.705   0.763   1.979 -0.3724  0.4705 -0.8951
   81SOL    HW1  242   1.779   0.724   2.040 -3.2372 -1.0180 -0.2899
   81SOL    HW2  243   1.722   0.862   1.966 -0.3205  0.1951  0.4776
   82SOL     OW  244   1.856   2.028   1.735  0.0260 -0.2865  0.0840
   82SOL    HW1  245   1.842   2.034   1.636 -0.3138  4.0912 -0.3719
   82SOL    HW2  246   1.950   2.068   1.758 -0.3937  0.4682 -2.3176
   83SOL     OW  247   2.974   3.124   0.252 -0.0246  0.4092 -0.2831
   83SOL    HW1  248   3.028   0.060   0.302 -1.4273 -1.0583  1.5104
   83SOL    HW2  249   2.924   0.045   0.181 -1.7692 -1.0282  0.6372
   84SOL     OW  250   0.735   1.007   0.060  0.5399  0.1164  0.3631
   84SOL    HW1  251   0.695   0.921   0.105  0.5616  1.7407  1.1183
   84SOL    HW2  252   0.661   1.077   0.042  0.4726 -0.3932  2.2075
   85SOL     OW  253   2.725   2.057   1.553 -0.2409 -0.6028 -0.3421
   85SOL    HW1  254   2.665   1.984   1.516  1.2467  1.3084  2.1035
   85SOL    HW2  255   2.750   2.127   1.482  2.1555 -0.9608 -0.3294
   86SOL     OW  256   0.610   2.737   1.320  0.2477 -0.1383  0.0533
   86SOL    HW1  257   0.678   2.769   1.249  2.5653  0.9314 -1.9739
   86SOL    HW2  258   0.516   2.722   1.281 -2.1169  0.2307 -0.5099
   87SOL     OW  259   0.408   2.521   2.579 -0.3556  0.4973 -0.5047
   87SOL    HW1  260   0.440   2.508   2.487  0.6820 -0.1377  2.4595
   87SOL    HW2  261   0.314   2.479   2.585 -0.7629 -2.9777 -1.6638
   88SOL     OW  262   0.145   2.310   0.435  0.3339  0.4971 -0.4788
   88SOL    HW1  263   0.062   2.249   0.444 -0.3080 -0.7477 -0.8504
   88SOL    HW2  264   0.212   2.275   0.505 -2.2496 -1.0950 -0.3997
   89SOL     OW  265   0.931   1.074   0.887 -0.0692  0.4350 -0.0618
   89SOL    HW1  266   0.991   0.990   0.881 -0.3511 -1.8255  1.3377
   89SOL    HW2  267   0.833   1.057   0.893  2.2943  0.2611  0.4547
   90SOL     OW  268   0.281   1.163   1.775  0.0663  0.2629 -0.0095
   90SOL    HW1  269   0.252   1.255   1.755 -1.6397 -0.1228  0.7890
   90SOL    HW2  270   0.358   1.139   1.715  0.0814 -0.1016  1.0523
   91SOL     OW  271   1.129   0.868   0.886 -0.0392 -0.6225 -0.2138
   91SOL    HW1  272   1.226   0.870   0.920 -0.2757 -1.4757  0.2052
   91SOL    HW2  273   1.129   0.855   0.784  1.4009  1.0885  0.5888
   92SOL     OW  274   1.951   1.241   1.012 -0.2814  0.5845  0.0653
   92SOL    HW1  275   1.857   1.228   0.982  1.3693  1.9127 -1.1828
   92SOL    HW2  276   2.000   1.226   0.922  0.1421 -0.8113 -0.4268
   93SOL     OW  277   2.500   0.883   2.442 -0.6680 -0.0249 -0.1529
   93SOL    HW1  278   2.541   0.793   2.419  0.4812 -0.3414 -1.3483
   93SOL    HW2  279   2.420   0.872   2.503 -0.8155 -2.6718  0.5494
   94SOL     OW  280   2.080   1.694   2.722  0.0352  0.1238 -0.0297
   94SOL    HW1  281   1.996   1.756   2.716  0.0821 -0.7566  1.3918
   94SOL    HW2  282   2.169   1.741   2.708 -1.1722 -0.4205 -1.5017
   95SOL     OW  283   2.602   0.772   1.244 -0.3129 -0.1550 -0.2122
   95SOL    HW1  284   2.627   0.772   1.146  0.6543 -0.1870  0.7461
   95SOL    HW2  285   2.589   0.672   1.275 -0.3013 -5.2779 -0.7636
   96SOL     OW  286   2.548   3.018   1.801  0.0075  0.2784 -0.6746
   96SOL    HW1  287   2.639   2.971   1.792  2.8701  1.5158 -0.7417
   96SOL    HW2  288   2.508   2.998   1.894 -2.2125 -0.6388 -0.5803
   97SOL     OW  289   2.584   1.068   1.225 -0.1438 -0.1921  0.6715
   97SOL    HW1  290   2.639   0.990   1.257  1.9837  2.3950  1.3342
   97SOL    HW2  291   2.545   1.123   1.298  0.0841  0.6031 -0.2797
   98SOL     OW  292   1.696   2.464   1.655 -0.0144  0.1484 -0.0066
   98SOL    HW1  293   1.665   2.380   1.705 -1.5427  1.9670  0.0416
   98SOL    HW2  294   1.623   2.534   1.659  1.1397  0.8720 -0.1343
   99SOL     OW  295   0.499   2.388   1.600  0.2157 -0.4370 -0.1778
   99SOL    HW1  296   0.546   2.388   1.502 -1.3061 -1.0298 -3.6576
   99SOL    HW2  297   0.505   2.479   1.638  0.8662 -4.5064 -1.5605
  100SOL     OW  298   1.119   0.604   3.130 -0.3066  0.0524 -0.1622
  100SOL    HW1  299   1.112   0.600   0.099 -1.4825  1.5915 -3.2138
  100SOL    HW2  300   1.195   0.667   3.108  1.3294  3.9139  1.2903
  101SOL     OW  301   2.365   0.086   2.730 -0.0788  0.6203  0.0788
  101SOL    HW1  302   2.447   0.032   2.711 -2.5638  0.8691  0.3160
  101SOL    HW2  303   2.391   0.171   2.776 -2.0474 -0.0460  1.5354
  102SOL     OW  304   0.366   0.599   1.336 -0.1144  0.3825 -0.1572
  102SOL    HW1  305   0.393   0.514   1.289  0.3512 -1.1902  2.5912
  102SOL    HW2  306   0.407   0.681   1.290  1.1506 -1.0282 -0.4477
  103SOL     OW  307   0.647   0.552   2.660  0.5500 -0.4486 -0.3253
  103SOL    HW1  308   0.704   0.621   2.712 -1.6763 -1.9704 -2.3868
  103SOL    HW2  309   0.685   0.459   2.687 -1.1406  1.0830 -0.8415
  104SOL     OW  310   1.054   0.895   2.556  0.0603 -0.1013 -0.2254
  104SOL    HW1  311   1.006   0.937   2.634  0.7226 -0.6618 -0.6569
  104SOL    HW2  312   1.097   0.807   2.583  0.1641  1.2143 -1.9313
  105SOL     OW  313   2.107   2.090   1.793 -0.0021 -0.3128 -0.2421
  105SOL    HW1  314   2.100   2.112   1.895 -1.3566  1.7825 -2.1761
  105SOL    HW2  315   2.183   2.140   1.749 -1.2723  1.2420  2.9791
  106SOL     OW  316   2.083   3.065   0.732  0.3769 -0.1601  0.3991
  106SOL    HW1  317   2.135   2.978   0.749 -1.1529 -1.5292 -1.8444
  106SOL    HW2  318   2.149   0.003   0.704 -2.0045 -4.9192 -1.8510
  107SOL     OW  319   2.558   2.004   1.150  0.6634 -0.5434 -0.6232
  107SOL    HW1  320   2.574   1.906   1.125 -1.2311 -1.3563  2.8821
  107SOL    HW2  321   2.608   2.064   1.080  1.0692  3.3886  1.0107
  108SOL     OW  322   2.653   2.971   1.450 -0.3045 -0.5834 -0.2432
  108SOL    HW1  323   2.637   2.896   1.519  2.1373 -0.3293  0.3851
  108SOL    HW2  324   2.710   3.048   1.488 -0.9992  1.8366  0.6767
  109SOL     OW  325   1.893   2.435   1.217 -0.2825  0.1288  0.0530
  109SOL    HW1  326   1.877   2.436   1.315  0.8889 -0.0297 -0.9322
  109SOL    HW2  327   1.979   2.488   1.191  0.3792  0.1008  0.9674
  110SOL     OW  328   0.672   1.834   1.961  0.0822  0.1975 -0.2615
  110SOL    HW1  329   0.644   1.794   1.875 -0.6320 -0.7097  2.0221
  110SOL    HW2  330   0.593   1.828   2.026  1.7138  0.0784 -1.0098
  111SOL     OW  331   1.560   2.476   2.352  0.6142 -0.5323  0.7541
  111SOL    HW1  332   1.653   2.450   2.374 -2.7727  2.3265  1.6511
  111SOL    HW2  333   1.538   2.477   2.254  0.7410 -3.1285 -0.7926
  112SOL     OW  334   1.642   1.750   2.471  0.4469  0.3933  0.2300
  112SOL    HW1  335   1.580   1.672   2.445  0.3468 -0.2393 -0.9065
  112SOL    HW2  336   1.737   1.741   2.436 -2.3091 -1.0775  2.0808
  113SOL     OW  337   1.630   2.195   1.730 -0.0855  0.2098  0.1419
  113SOL    HW1  338   1.569   2.113   1.731  1.5314 -0.5122  1.7477
  113SOL    HW2  339   1.730   2.161   1.719  1.3482 -0.5166  2.9335
  114SOL     OW  340   3.010   0.871   0.783  0.0614 -0.5535  0.3756
  114SOL    HW1  341   2.915   0.875   0.736 -3.9300  2.4665 -2.6079
  114SOL    HW2  342   3.008   0.922   0.872 -1.7229 -0.5249  2.7558
  115SOL     OW  343   0.645   0.817   0.266  0.0572 -0.4286  0.8853
  115SOL    HW1  344   0.577   0.870   0.320  0.7082 -1.3548  3.6972
  115SOL    HW2  345   0.602   0.739   0.214  1.2010  1.1968 -1.8620
  116SOL     OW  346   2.791   1.747   2.480  0.2070  0.2203 -0.4040
  116SOL    HW1  347   2.723   1.822   2.464 -0.0554  1.3918 -0.0243
  116SOL    HW2  348   2.879   1.791   2.507 -1.4984  2.4029  1.3066
  117SOL     OW  349   2.942   2.920   0.642  0.0411 -0.7075 -0.8537
  117SOL    HW1  350   2.959   2.850   0.571  1.5165  0.0991  1.3286
  117SOL    HW2  351   2.953   2.881   0.733 -1.1248 -2.2350 -0.5453
  118SOL     OW  352   1.053   1.457   2.773  0.5862 -0.2741 -0.1524
  118SOL    HW1  353   0.956   1.440   2.747 -0.2880  2.5918  1.6204
  118SOL    HW2  354   1.103   1.500   2.697  2.5268 -1.6318 -1.9057
  119SOL     OW  355   0.297   2.111   0.137  0.7580 -0.1341  0.0021
  119SOL    HW1  356   0.222   2.167   0.091  0.3574  1.3777 -0.3497
  119SOL    HW2  357   0.262   2.067   0.218  0.0508  1.1089 -0.7655
  120SOL     OW  358   1.542   0.772   0.315  0.0773 -0.5635 -0.0815
  120SOL    HW1  359   1.558   0.707   0.389 -2.6947  1.0832  0.3691
  120SOL    HW2  360   1.488   0.852   0.351  1.2436  0.7267 -0.3521
  121SOL     OW  361   1.277   2.410   0.388 -0.4802 -0.4337 -0.4753
  121SOL    HW1  362   1.338   2.462   0.457 -1.0798  3.3312  2.0791
  121SOL    HW2  363   1.279   2.306   0.402 -2.6281 -1.7939  1.5598
  122SOL     OW  364   2.690   2.369   1.825  0.1471 -0.2465  0.2343
  122SOL    HW1  365   2.720   2.381   1.725  2.6443 -1.8390 -0.8951
  122SOL    HW2  366   2.618   2.295   1.813 -1.0735 -0.0056 -0.5126
  123SOL     OW  367   0.821   2.021   0.596  0.6224 -0.3702 -0.0420
  123SOL    HW1  368   0.747   2.058   0.535 -0.4908 -1.8117  1.6164
  123SOL    HW2  369   0.886   2.093   0.625  0.9301 -3.4766 -0.2718
  124SOL     OW  370   0.004   0.807   0.106 -0.0597  0.0061  0.0048
  124SOL    HW1  371   0.095   0.770   0.140 -1.1325 -2.0610  0.5000
  124SOL    HW2  372   3.079   0.837   0.184  0.6570  1.6347  1.5553
  125SOL     OW  373   0.474   0.985   0.423 -0.0954 -0.0493 -0.0774
  125SOL    HW1  374   0.377   0.942   0.430 -2.7325 -2.1012  2.7060
  125SOL    HW2  375   0.526   1.009   0.506  0.8256  0.9941 -0.6530
  126SOL     OW  376   3.006   1.839   0.813  0.1589 -0.0592 -0.2374
  126SOL    HW1  377   3.041   1.832   0.909  1.7886  0.9605  0.9935
  126SOL    HW2  378   3.087   1.869   0.759  0.5465 -0.3846  0.2403
  127SOL     OW  379   1.417   1.949   1.765 -0.4610 -0.2635 -0.1936
  127SOL    HW1  380   1.472   1.884   1.828  1.5132  0.3449  2.2572
  127SOL    HW2  381   1.333   1.977   1.815  0.6483  0.4694 -3.5044
  128SOL     OW  382   0.846   1.170   0.265  0.0576  0.0553  0.3624
  128SOL    HW1  383   0.809   1.104   0.198  0.8884 -0.5501  1.0579
  128SOL    HW2  384   0.871   1.258   0.215 -1.4165  0.5652 -0.3587
  129SOL     OW  385   1.892   1.358   1.239 -0.4919 -0.3629  0.3798
  129SOL    HW1  386   1.918   1.293   1.166 -1.3440 -2.8751 -1.6489
  129SOL    HW2  387   1.878   1.447   1.200  0.3362 -1.2644  0.0843
  130SOL     OW  388   2.386   1.676   1.671 -0.6040 -0.8116  0.1901
  130SOL    HW1  389   2.323   1.743   1.635  2.5034 -0.7023 -0.4092
  130SOL    HW2  390   2.477   1.721   1.694 -0.2377  0.4854 -2.5937
  131SOL     OW  391   3.052   2.652   2.852 -0.2001 -0.0091 -0.6588
  131SOL    HW1  392   2.978   2.677   2.921  0.0607  0.2855 -2.6101
  131SOL    HW2  393   3.048   2.713   2.773 -1.2024 -0.2717  1.8077
  132SOL     OW  394   2.902   1.608   0.688  0.4433  0.2329 -0.6933
  132SOL    HW1  395   2.916   1.696   0.739 -2.0188 -0.2043  0.9748
  132SOL    HW2  396   2.809   1.573   0.696  3.4989  4.2493 -0.1912
  133SOL     OW  397   0.546   2.953   1.895 -0.5483 -0.0796  0.5603
  133SOL    HW1  398   0.633   3.010   1.886 -0.0677  1.0304  1.3955
  133SOL    HW2  399   0.575   2.861   1.929  0.6069 -0.9099 -0.8681
  134SOL     OW  400   0.166   1.847   2.981  0.1648  0.0692  0.0181
  134SOL    HW1  401   0.123   1.849   3.072 -0.0511 -1.4664 -1.4543
  134SOL    HW2  402   0.164   1.941   2.944  0.0479 -1.8568  1.6501
  135SOL     OW  403   1.461   0.760   1.872 -0.0383 -0.3437 -0.2835
  135SOL    HW1  404   1.414   0.834   1.923  2.1525  2.2404 -0.9744
  135SOL    HW2  405   1.550   0.733   1.913  0.0957  0.9354 -2.7000
  136SOL     OW  406   2.862   1.384   0.253  0.0235  0.0428 -0.2808
  136SOL    HW1  407   2.926   1.426   0.325  0.8064  2.2693 -0.8692
  136SOL    HW2  408   2.834   1.456   0.190  3.8266  0.1087 -1.7212
  137SOL     OW  409   0.045   1.842   1.018  0.1053 -0.4769 -0.3628
  137SOL    HW1  410   0.082   1.749   1.023  1.0707 -1.3731 -0.1088
  137SOL    HW2  411   0.120   1.909   1.042  5.2615 -0.0007  1.5049
  138SOL     OW  412   2.438   0.540   1.153 -0.0675 -0.1920 -0.0225
  138SOL    HW1  413   2.499   0.499   1.220  0.3747 -0.0562 -1.3763
  138SOL    HW2  414   2.353   0.484   1.144 -2.1609 -0.4483  1.7281
  139SOL     OW  415   1.309   2.548   3.123 -0.1079  0.0839  0.3479
  139SOL    HW1  416   1.317   2.616   3.045  3.5407  0.9722 -1.6393
  139SOL    HW2  417   1.226   2.492   3.120 -1.0667  2.1174  1.3445
  140SOL     OW  418   1.393   1.754   1.115  0.3472 -0.1731 -0.2804
  140SOL    HW1  419   1.312   1.704   1.094  3.2129  4.5849  2.0442
  140SOL    HW2  420   1.434   1.802   1.037  1.4483  1.0693  0.8545
  141SOL     OW  421   1.241   2.134   0.389 -0.1176  0.8631  0.2215
  141SOL    HW1  422   1.146   2.135   0.350 -1.0259 -1.0086 -0.0281
  141SOL    HW2  423   1.295   2.073   0.324 -1.4820 -0.1431 -3.5513
  142SOL     OW  424   1.109   0.333   0.776 -0.3363  0.0508  0.5388
  142SOL    HW1  425   1.172   0.252   0.768 -0.1027  1.6851  0.8624
  142SOL    HW2  426   1.098   0.392   0.693 -1.7774 -0.7254  0.3323
  143SOL     OW  427   0.930   1.750   2.957 -0.2122  0.1474 -0.9762
  143SOL    HW1  428   0.962   1.844   2.925  1.5104  1.3982 -0.5480
  143SOL    HW2  429   0.988   1.678   2.910 -1.9336  1.3301  1.2683
  144SOL     OW  430   1.819   2.511   0.743  0.4531 -0.3216 -0.3410
  144SOL    HW1  431   1.766   2.501   0.655 -1.7792 -0.0760 -0.4659
  144SOL    HW2  432   1.890   2.439   0.747 -1.4209  2.4835  0.5860
  145SOL     OW  433   2.100   0.534   2.628 -0.0513 -0.2878  0.0716
  145SOL    HW1  434   2.133   0.576   2.543 -2.9499 -1.0445  2.0853
  145SOL    HW2  435   2.180   0.491   2.671 -0.1710  1.6270 -1.4744
  146SOL     OW  436   0.396   3.073   0.617  0.0931 -0.0560 -0.0235
  146SOL    HW1  437   0.326   3.055   0.689 -0.9225  1.4139 -0.9658
  146SOL    HW2  438   0.419   2.994   0.561  2.0773  1.3323 -0.7433
  147SOL     OW  439   2.281   0.418   2.088 -0.1168  0.6586  0.3915
  147SOL    HW1  440   2.180   0.426   2.092  1.8696  3.6517  2.1315
  147SOL    HW2  441   2.320   0.494   2.032 -2.3613 -0.6861 -1.7208
  148SOL     OW  442   0.951   0.010   2.155 -0.9803 -0.5860 -0.0813
  148SOL    HW1  443   0.887   0.085   2.139  1.5002  0.7315  0.2768
  148SOL    HW2  444   1.043   0.045   2.169 -0.4095 -2.0640 -1.5733
  149SOL     OW  445   1.628   0.480   1.961  0.5502  0.0343  0.3391
  149SOL    HW1  446   1.536   0.438   1.942  1.0937  0.4903 -0.2568
  149SOL    HW2  447   1.634   0.504   2.060 -2.4986  0.4592  1.0716
  150SOL     OW  448   0.018   0.311   0.047 -0.5948  0.1438  0.2847
  150SOL    HW1  449   3.056   0.277   0.053  2.4003 -1.0785 -1.4552
  150SOL    HW2  450   0.028   0.383   3.110 -0.3994 -1.1257 -1.8976
  151SOL     OW  451   0.663   1.571   0.226 -0.3124 -0.1090  0.0494
  151SOL    HW1  452   0.666   1.520   0.138 -1.0917 -1.8538 -2.6109
  151SOL    HW2  453   0.757   1.565   0.263 -1.7779 -1.9005 -1.1439
  152SOL     OW  454   3.127   0.390   0.396  0.5000 -0.7127 -0.1973
  152SOL    HW1  455   3.030   0.404   0.359  1.7348  2.3662 -0.3032
  152SOL    HW2  456   0.019   0.478   0.438  1.2518 -3.2419 -0.3322
  153SOL     OW  457   2.601   0.498   1.357  0.2615 -0.5111  0.0157
  153SOL    HW1  458   2.566   0.414   1.402 -0.0270  0.6293 -1.5457
  153SOL    HW2  459   2.683   0.532   1.410  0.6073 -1.1300 -3.2829
  154SOL     OW  460   1.557   0.027   2.323  0.1153 -0.1273  0.0724
  154SOL    HW1  461   1.608   0.009   2.233  2.1045  0.1530 -1.6316
  154SOL    HW2  462   1.461   3.129   2.335 -1.8174 -1.0037  0.2592
  155SOL     OW  463   0.123   1.847   0.650 -0.3117 -0.3148  0.2316
  155SOL    HW1  464   0.136   1.912   0.727  0.6375 -0.3543 -2.0501
  155SOL    HW2  465   0.197   1.773   0.647  1.0414  2.8301 -2.8116
  156SOL     OW  466   2.028   2.098   2.867  0.6452  0.4574  0.2344
  156SOL    HW1  467   1.985   2.007   2.880  2.6326  3.3402  0.4356
  156SOL    HW2  468   1.974   2.163   2.924 -0.8593  1.8791 -0.6596
  157SOL     OW  469   1.020   0.447   0.548 -0.4882 -0.4123 -0.1437
  157SOL    HW1  470   0.931   0.484   0.521 -0.9767 -0.4811  0.0824
  157SOL    HW2  471   1.079   0.400   0.477  0.8095  1.2957 -3.2834
  158SOL     OW  472   2.363   0.439   2.447  0.5233 -0.7614 -0.1620
  158SOL    HW1  473   2.313   0.354   2.477  0.9627 -2.5129 -1.0221
  158SOL    HW2  474   2.314   0.471   2.364  1.3474 -1.2237 -0.4034
  159SOL     OW  475   0.015   0.130   0.394 -0.1285  0.8378  0.6514
  159SOL    HW1  476   0.006   0.230   0.371  0.0358  3.5619 -1.8139
  159SOL    HW2  477   0.107   0.092   0.363 -0.1422 -0.5922  0.6292
  160SOL     OW  478   1.521   1.975   2.157  0.0020  0.0037  0.0524
  160SOL    HW1  479   1.435   2.029   2.145  1.7665  0.6275  1.7956
  160SOL    HW2  480   1.527   1.906   2.079  4.7726 -0.4245  0.7195
  161SOL     OW  481   2.868   0.696   2.785  0.7094  0.3798 -0.1278
  161SOL    HW1  482   2.953   0.747   2.770  0.0807 -2.1596  2.7755
  161SOL    HW2  483   2.857   0.601   2.744 -0.3212 -1.1440  1.2773
  162SOL     OW  484   0.844   2.619   1.486  0.0324  0.2432 -0.4489
  162SOL    HW1  485   0.916   2.683   1.448 -0.4288 -0.6997  1.0074
  162SOL    HW2  486   0.758   2.614   1.429 -0.9990  1.8513 -0.7997
  163SOL     OW  487   2.586   0.331   2.520 -0.6742  0.1306  0.0549
  163SOL    HW1  488   2.627   0.253   2.464  3.1894 -0.4445 -0.0504
  163SOL    HW2  489   2.501   0.369   2.474 -2.4549 -0.1507  0.7581
  164SOL     OW  490   2.167   1.728   0.034 -0.3189  0.1363 -0.1818
  164SOL    HW1  491   2.123   1.667   3.099 -1.6736  0.8123  0.5266
  164SOL    HW2  492   2.236   1.791   3.131 -0.8714  3.9754  0.7887
  165SOL     OW  493   2.885   0.423   1.675  0.5492 -0.3364 -0.6166
  165SOL    HW1  494   2.845   0.501   1.628  0.6370 -0.4472  0.7685
  165SOL    HW2  495   2.987   0.438   1.679  1.9886  1.3211  0.0486
  166SOL     OW  496   2.478   0.738   3.015 -0.3788  0.4161 -0.1398
  166SOL    HW1  497   2.567   0.695   3.007 -0.4643 -2.0035  2.5460
  166SOL    HW2  498   2.462   0.814   2.944  0.4091 -0.5907  0.0084
  167SOL     OW  499   2.956   0.571   0.051  0.0044 -0.4642 -0.9606
  167SOL    HW1  500   3.013   0.656   0.062 -0.9841 -1.9875 -0.3586
  167SOL    HW2  501   2.947   0.541   3.091 -0.4988 -0.0135 -0.3085
  168SOL     OW  502   1.833   2.959   2.891  0.1614  0.1827  0.2528
  168SOL    HW1  503   1.829   2.908   2.980  0.7434 -1.2214 -0.3781
  168SOL    HW2  504   1.792   3.054   2.902 -0.1583  1.9466  0.9115
  169SOL     OW  505   0.204   1.415   0.851 -0.1071  0.1528  0.0773
  169SOL    HW1  506   0.109   1.431   0.816  1.1887  2.2686 -1.3099
  169SOL    HW2  507   0.216   1.315   0.881  1.1567 -3.0108 -0.3428
  170SOL     OW  508   2.807   0.630   1.489  0.1112  0.2603 -0.5197
  170SOL    HW1  509   2.867   0.608   1.409 -0.4373 -0.9848  0.1252
  170SOL    HW2  510   2.855   0.695   1.552  1.4457  1.7570 -0.7573
  171SOL     OW  511   1.898   2.365   2.026 -0.4553  0.2254 -0.4773
  171SOL    HW1  512   1.798   2.328   2.032 -1.9995  0.2923 -0.3998
  171SOL    HW2  513   1.961   2.323   2.090 -3.3499  1.0486 -0.5897
  172SOL     OW  514   0.275   2.275   1.492  0.0610 -0.2806 -0.1983
  172SOL    HW1  515   0.266   2.180   1.523  1.8268  0.9592  1.1425
  172SOL    HW2  516   0.354   2.321   1.534 -0.3097  3.4342  0.3585
  173SOL     OW  517   1.293   1.178   0.079  0.0287  0.2873 -0.3263
  173SOL    HW1  518   1.372   1.168   0.141 -1.6241 -0.9264 -2.2346
  173SOL    HW2  519   1.257   1.083   0.058 -3.4564 -1.8804 -0.7382
  174SOL     OW  520   1.315   0.131   2.643 -0.4541  0.0955  0.0613
  174SOL    HW1  521   1.395   0.072   2.675  2.8285 -1.9545 -0.6273
  174SOL    HW2  522   1.311   0.117   2.543  0.5792 -0.8101 -0.4744
  175SOL     OW  523   1.960   1.853   0.919  0.3054  0.2001 -0.4278
  175SOL    HW1  524   2.038   1.854   0.989 -0.2673 -3.8415  1.7598
  175SOL    HW2  525   1.895   1.779   0.941  0.9583  1.5265 -1.5997
  176SOL     OW  526   1.539   0.160   0.351  0.2333 -0.2538 -0.0388
  176SOL    HW1  527   1.638   0.189   0.353  1.2476 -0.3465 -0.4866
  176SOL    HW2  528   1.475   0.236   0.360  0.1984  1.2464 -0.1692
  177SOL     OW  529   0.536   1.426   3.093  0.7205 -0.3102  0.0444
  177SOL    HW1  530   0.579   1.424   2.999  1.0200 -1.4640  2.3792
  177SOL    HW2  531   0.549   1.335   3.134  0.8712  0.2782 -0.0341
  178SOL     OW  532   2.615   2.235   2.677  0.5468 -0.1543  0.1134
  178SOL    HW1  533   2.693   2.198   2.623  0.0315  0.7683  2.2251
  178SOL    HW2  534   2.567   2.314   2.638  1.8376  2.4674  2.9399
  179SOL     OW  535   2.809   0.018   3.009 -0.6120  0.2444 -0.1920
  179SOL    HW1  536   2.814   0.058   2.916 -2.6371 -2.2256  1.1028
  179SOL    HW2  537   2.713   3.129   3.036 -0.1105 -1.2584  1.2061
  180SOL     OW  538   1.611   1.364   0.531  0.3743 -0.3490 -0.1013
  180SOL    HW1  539   1.640   1.293   0.594 -0.2432 -0.1271 -2.6185
  180SOL    HW2  540   1.527   1.411   0.578 -0.5065 -1.2133  2.0677
  181SOL     OW  541   1.802   1.283   2.432  0.0916  0.0852 -0.1906
  181SOL    HW1  542   1.801   1.179   2.428 -0.0245 -2.7716  1.2244
  181SOL    HW2  543   1.800   1.308   2.533  0.8123  0.4512  1.8668
  182SOL     OW  544   2.549   2.815   2.662  0.3587  0.1789 -0.2142
  182SOL    HW1  545   2.589   2.770   2.745 -1.4190  1.0872  0.0711
  182SOL    HW2  546   2.572   2.913   2.664  0.6559 -0.8749  0.5827
  183SOL     OW  547   1.928   0.681   2.132  0.3584  0.3452 -0.5243
  183SOL    HW1  548   2.004   0.732   2.091 -3.4128 -0.2439  0.9694
  183SOL    HW2  549   1.949   0.584   2.148 -0.1988  3.4388 -0.3439
  184SOL     OW  550   0.157   1.369   1.661  0.3137  0.6736  0.5479
  184SOL    HW1  551   0.137   1.419   1.572 -1.6817  0.5659 -2.4314
  184SOL    HW2  552   0.073   1.336   1.704  2.9388  1.4585  1.1882
  185SOL     OW  553   1.805   0.483   0.842 -0.0667 -0.4146 -0.2256
  185SOL    HW1  554   1.787   0.412   0.913  1.6578  1.2090 -1.8051
  185SOL    HW2  555   1.779   0.446   0.753 -0.5745  2.0822  1.2716
  186SOL     OW  556   0.320   2.441   2.958  0.1331 -0.1265  0.0900
  186SOL    HW1  557   0.281   2.530   2.980 -2.9994 -2.7047  2.2276
  186SOL    HW2  558   0.267   2.402   2.880 -5.2427 -0.5169 -3.0007
  187SOL     OW  559   2.838   1.120   0.306 -0.3508 -0.0931  0.5706
  187SOL    HW1  560   2.830   1.223   0.279  1.5846 -1.9961 -2.2703
  187SOL    HW2  561   2.814   1.056   0.229  0.1992 -0.4238 -2.7983
  188SOL     OW  562   2.594   1.380   1.333 -0.5370 -0.0971 -0.1995
  188SOL    HW1  563   2.646   1.304   1.380 -0.8627 -2.0276  0.4892
  188SOL    HW2  564   2.644   1.428   1.256  3.1364 -1.6601  0.0383
  189SOL     OW  565   2.803   0.418   2.652  0.0899 -0.1432 -0.2600
  189SOL    HW1  566   2.716   0.388   2.616  0.1894  2.3313  0.0081
  189SOL    HW2  567   2.870   0.435   2.577  1.3904  0.6010 -0.9429
  190SOL     OW  568   1.367   1.179   1.646 -0.6160  0.3179 -0.0273
  190SOL    HW1  569   1.430   1.209   1.570 -1.4112  1.5163  0.7943
  190SOL    HW2  570   1.275   1.229   1.643  0.0243 -0.0738 -0.9693
  191SOL     OW  571   0.560   0.424   2.161  0.2106 -0.3860 -0.2041
  191SOL    HW1  572   0.471   0.439   2.111  0.4461 -1.2543 -1.4608
  191SOL    HW2  573   0.614   0.343   2.130 -0.2505 -0.6703  0.4883
  192SOL     OW  574   1.829   1.842   1.264  0.0971  0.1254 -0.4906
  192SOL    HW1  575   1.750   1.885   1.209  1.5039 -0.9239 -1.4139
  192SOL    HW2  576   1.819   1.750   1.295  0.1020  1.2655  1.6472
  193SOL     OW  577   1.513   0.827   1.183  0.2417  0.6840  0.5632
  193SOL    HW1  578   1.567   0.883   1.245  1.1745 -2.9040 -2.8220
  193SOL    HW2  579   1.557   0.737   1.158 -1.6598  0.2430 -0.4322
  194SOL     OW  580   0.557   2.101   1.273 -0.0659 -0.4048  0.4077
  194SOL    HW1  581   0.566   2.200   1.292 -2.5640  0.2102 -0.8386
  194SOL    HW2  582   0.575   2.077   1.174 -0.7682 -1.2545 -1.3003
  195SOL     OW  583   1.868   0.158   0.470 -0.1699  0.1233  0.7601
  195SOL    HW1  584   1.867   0.084   0.540  0.0555 -0.6145 -1.9754
  195SOL    HW2  585   1.866   0.118   0.377 -2.8128 -0.0797 -0.8712
  196SOL     OW  586   0.276   1.222   1.356  0.1039  0.3587 -0.4150
  196SOL    HW1  587   0.259   1.285   1.430 -1.1347 -0.3065  0.3961
  196SOL    HW2  588   0.377   1.198   1.346  0.7392 -0.7069 -0.2360
  197SOL     OW  589   1.107   0.157   1.770  0.3392  0.7003  0.0267
  197SOL    HW1  590   1.109   0.097   1.687 -1.4963 -0.1219 -2.1484
  197SOL    HW2  591   1.181   0.139   1.834  0.2726  0.4647  3.1801
  198SOL     OW  592   0.684   1.100   1.012  0.3754  0.8486 -0.3514
  198SOL    HW1  593   0.629   1.068   1.089 -1.7508  0.1413 -0.6764
  198SOL    HW2  594   0.620   1.151   0.947  2.2829 -0.1631  0.5242
  199SOL     OW  595   0.189   2.409   1.783 -0.0698 -0.2847  0.2204
  199SOL    HW1  596   0.177   2.507   1.800  0.9858 -0.5590 -1.0239
  199SOL    HW2  597   0.246   2.400   1.698  0.4057 -2.4626 -1.6751
  200SOL     OW  598   1.812   1.809   1.893  0.0076 -0.0551 -0.0527
  200SOL    HW1  599   1.882   1.742   1.873 -0.7414 -2.2072  1.9780
  200SOL    HW2  600   1.812   1.891   1.836 -0.7154 -0.5307  0.0765
  201SOL     OW  601   0.474   1.844   2.154  0.3407  0.2346  0.0797
  201SOL    HW1  602   0.454   1.836   2.249  1.1070 -0.4811 -2.5570
  201SOL    HW2  603   0.428   1.928   2.120 -1.8984 -0.8554  2.8680
  202SOL     OW  604   1.746   0.513   0.160 -0.0703  0.4617  0.0762
  202SOL    HW1  605   1.716   0.543   0.066 -2.5583 -0.5799  0.4749
  202SOL    HW2  606   1.771   0.589   0.221  1.0802  1.7752  1.5692
  203SOL     OW  607   1.310   2.800   1.697  0.1646  0.1083  0.2575
  203SOL    HW1  608   1.338   2.855   1.779  0.3325  1.8501  3.3480
  203SOL    HW2  609   1.214   2.817   1.673  0.1676  1.8435  0.0059
  204SOL     OW  610   0.509   1.841   1.625 -0.3740 -0.1941 -0.1926
  204SOL    HW1  611   0.566   1.859   1.547 -1.7822 -3.0564  0.9241
  204SOL    HW2  612   0.413   1.808   1.598 -3.5152 -0.8534 -1.8506
  205SOL     OW  613   1.556   1.824   1.949 -0.3141 -0.3393  0.1765
  205SOL    HW1  614   1.658   1.803   1.935  2.5533 -1.4763  2.3292
  205SOL    HW2  615   1.502   1.745   1.980 -0.8191  1.7606  1.6776
  206SOL     OW  616   0.041   1.146   2.322 -0.0207  0.6029  0.3870
  206SOL    HW1  617   0.099   1.145   2.238  2.9058 -1.1861 -0.7005
  206SOL    HW2  618   0.045   1.232   2.373  2.2803 -2.2535 -1.4043
  207SOL     OW  619   0.717   2.856   2.150 -0.4583 -0.3856 -0.5010
  207SOL    HW1  620   0.725   2.838   2.251  1.2180  0.1358  2.2968
  207SOL    HW2  621   0.755   2.949   2.123  0.6283  1.1705 -1.3502
  208SOL     OW  622   0.585   2.687   1.996  0.0991 -0.1258  0.1683
  208SOL    HW1  623   0.638   2.757   2.047 -2.3399 -2.8468 -2.8345
  208SOL    HW2  624   0.611   2.595   2.016 -1.6322  1.8659 -1.7568
  209SOL     OW  625   1.492   3.073   0.499 -0.1932  0.5834 -0.2007
  209SOL    HW1  626   1.568   3.010   0.464  1.0311 -1.8641 -0.4982
  209SOL    HW2  627   1.503   0.029   0.460 -0.8251 -4.3937  1.7551
  210SOL     OW  628   2.666   0.616   0.754 -0.3750 -0.4205  0.0446
  210SOL    HW1  629   2.703   0.694   0.701 -0.7800 -1.3702 -1.7202
  210SOL    HW2  630   2.681   0.524   0.706  1.4769 -2.7047 -0.4297
  211SOL     OW  631   0.637   0.402   1.692  0.6223  0.1742 -0.3551
  211SOL    HW1  632   0.568   0.474   1.667  1.1358  0.6510 -1.5632
  211SOL    HW2  633   0.717   0.448   1.730 -1.2970 -2.9755  0.9944
  212SOL     OW  634   1.537   2.127   1.391  0.6235 -0.0159  0.6629
  212SOL    HW1  635   1.446   2.094   1.422  2.1471 -1.1901 -2.4316
  212SOL    HW2  636   1.554   2.230   1.390  1.4911  0.7307 -0.4757
  213SOL     OW  637   2.762   0.247   1.825  0.9378 -0.4272  0.7418
  213SOL    HW1  638   2.798   0.340   1.797  0.3233  0.4823  1.6214
  213SOL    HW2  639   2.824   0.200   1.893 -0.4261 -0.1488  0.2511
  214SOL     OW  640   0.588   2.348   2.302  0.1363  0.2486  0.3803
  214SOL    HW1  641   0.616   2.364   2.203  2.5947 -0.4978 -3.7390
  214SOL    HW2  642   0.666   2.369   2.366 -2.3791  0.5499  0.7320
  215SOL     OW  643   2.811   1.621   1.518 -0.4848 -0.3668  0.0019
  215SOL    HW1  644   2.868   1.627   1.601  2.0528  1.1233 -0.9065
  215SOL    HW2  645   2.808   1.526   1.488 -0.0947  1.7478  1.6608
  216SOL     OW  646   0.635   0.793   1.968 -0.7492  0.2740 -0.1566
  216SOL    HW1  647   0.569   0.741   2.025  1.9278 -1.1811  0.9697
  216SOL    HW2  648   0.689   0.851   2.031 -1.6081 -1.3805 -1.2163
  217SOL     OW  649   2.756   0.241   1.165 -0.2250  0.2197 -0.0705
  217SOL    HW1  650   2.814   0.272   1.086  0.1865  2.8244 -1.8014
  217SOL    HW2  651   2.817   0.225   1.243 -2.2961  0.7103 -3.0106
  218SOL     OW  652   1.469   1.892   0.894 -0.3139 -0.0398  0.4147
  218SOL    HW1  653   1.543   1.889   0.825 -3.0923 -0.3456  2.2576
  218SOL    HW2  654   1.463   1.988   0.925  1.9165  0.8875 -2.7153
  219SOL     OW  655   2.187   2.813   0.703 -0.2395 -0.1304 -0.2125
  219SOL    HW1  656   2.120   2.758   0.762 -1.5841 -0.4194  0.1424
  219SOL    HW2  657   2.172   2.797   0.602 -0.1935 -3.1697 -1.6908
  220SOL     OW  658   1.979   2.425   0.175 -0.4069  0.1723 -0.2165
  220SOL    HW1  659   1.934   2.371   0.245 -1.5689  0.9284 -1.1619
  220SOL    HW2  660   2.032   2.362   0.114  2.2813 -0.9710  2.1429
  221SOL     OW  661   3.007   1.783   0.296  0.4987  0.2070 -0.2239
  221SOL    HW1  662   2.923   1.832   0.324 -1.9217 -0.2096  0.6547
  221SOL    HW2  663   3.020   1.688   0.335 -0.2562 -1.6874  0.4217
  222SOL     OW  664   0.642   2.276   0.863  0.6581  0.0688 -0.2537
  222SOL    HW1  665   0.558   2.296   0.807 -0.6551 -1.5858  0.1819
  222SOL    HW2  666   0.721   2.337   0.840  1.7411  0.1213  0.9798
  223SOL     OW  667   1.145   0.227   0.429 -0.1815  0.0125 -0.1147
  223SOL    HW1  668   1.191   0.194   0.517 -0.4689 -3.1164  0.7769
  223SOL    HW2  669   1.114   0.149   0.370 -1.4029 -0.7576 -2.4834
  224SOL     OW  670   2.918   1.189   0.850  0.8518 -0.6679  0.0657
  224SOL    HW1  671   2.819   1.168   0.828 -0.6166  1.0118 -1.9397
  224SOL    HW2  672   2.961   1.123   0.910 -0.7463  0.9892 -1.2048
  225SOL     OW  673   0.384   1.673   1.250  0.0629 -0.4915 -0.1125
  225SOL    HW1  674   0.374   1.771   1.280  0.0791 -1.6405  0.7796
  225SOL    HW2  675   0.463   1.631   1.299 -3.2920  1.8085 -0.5270
  226SOL     OW  676   0.644   3.075   1.020  0.0965  0.0608 -0.2243
  226SOL    HW1  677   0.629   3.091   0.920  2.4240 -1.5840  1.2007
  226SOL    HW2  678   0.683   0.026   1.064  0.8689 -0.2810 -1.3056
  227SOL     OW  679   1.194   1.558   1.674 -0.4265 -0.5178  0.3095
  227SOL    HW1  680   1.138   1.643   1.699  0.1019  0.1070 -0.0197
  227SOL    HW2  681   1.247   1.574   1.589  1.4077 -0.0295  1.7416
  228SOL     OW  682   0.546   0.227   1.957 -0.0217 -0.0120 -0.1381
  228SOL    HW1  683   0.480   0.151   1.979  0.1651  1.8362  1.4421
  228SOL    HW2  684   0.524   0.269   1.867 -0.0236 -1.5724 -0.0749
  229SOL     OW  685   3.007   0.772   2.476 -0.2985  0.1851  0.2044
  229SOL    HW1  686   3.051   0.780   2.565  0.6284  0.9235 -1.5748
  229SOL    HW2  687   3.068   0.786   2.399 -1.9917  2.9833  0.9311
  230SOL     OW  688   0.196   0.630   1.027  0.2538  0.0592  0.7375
  230SOL    HW1  689   0.229   0.664   0.934  2.5093  1.8412 -1.1919
  230SOL    HW2  690   0.177   0.712   1.081 -2.8403 -0.0463 -3.4836
  231SOL     OW  691   1.313   0.057   1.941  0.1052 -0.3022 -0.3548
  231SOL    HW1  692   1.275   0.052   2.039 -4.4222 -1.4481 -0.5645
  231SOL    HW2  693   1.361   3.104   1.922 -2.0228  2.1371  1.1487
  232SOL     OW  694   3.065   2.131   0.405  0.0525 -0.7116  0.0948
  232SOL    HW1  695   3.122   2.047   0.407 -1.1875  1.8983 -0.7621
  232SOL    HW2  696   2.991   2.118   0.333 -4.1124  0.6477  1.8789
  233SOL     OW  697   1.428   2.458   2.788 -0.2809 -0.3520 -0.1077
  233SOL    HW1  698   1.376   2.468   2.704 -2.2993 -0.4216  0.4962
  233SOL    HW2  699   1.421   2.537   2.848  0.9201 -1.9468  2.3445
  234SOL     OW  700   0.488   1.096   1.624 -0.7946 -0.3945  0.4200
  234SOL    HW1  701   0.487   1.074   1.525 -0.9601  2.7803  2.0164
  234SOL    HW2  702   0.553   1.169   1.642  0.7875  1.5919 -1.0932
  235SOL     OW  703   3.044   2.381   2.535 -0.5561  0.0693  0.0620
  235SOL    HW1  704   0.008   2.371   2.539  0.5007 -0.3957  1.9948
  235SOL    HW2  705   3.003   2.372   2.629  1.6506 -1.5212  2.4078
  236SOL     OW  706   1.645   1.901   2.708 -0.1205 -0.0988 -0.4300
  236SOL    HW1  707   1.621   1.847   2.628 -1.1096 -0.1050 -1.1744
  236SOL    HW2  708   1.647   1.999   2.674  0.7518  0.9260 -1.9168
  237SOL     OW  709   1.571   0.789   0.744  0.1955 -0.2365  0.3619
  237SOL    HW1  710   1.507   0.712   0.726 -2.1352  0.1398  1.2384
  237SOL    HW2  711   1.554   0.832   0.836 -1.3515  1.5459  3.9119
  238SOL     OW  712   1.030   2.876   2.190  0.3371 -0.3543  0.3741
  238SOL    HW1  713   0.996   2.975   2.177 -0.0736  0.9586 -0.7676
  238SOL    HW2  714   1.035   2.828   2.098  1.2179 -1.0286  0.6624
  239SOL     OW  715   1.079   2.726   1.967  0.6512  0.9159 -0.6014
  239SOL    HW1  716   1.029   2.786   1.902  2.4666 -2.7933  0.1888
  239SOL    HW2  717   1.129   2.651   1.923  0.0520 -1.3303  1.3180
  240SOL     OW  718   2.058   3.093   0.999 -0.1949 -0.2112 -0.0396
  240SOL    HW1  719   2.052   3.091   0.899  0.8034  1.1153  0.9687
  240SOL    HW2  720   2.158   3.079   1.028  1.9998 -0.5336  1.2161
  241SOL     OW  721   1.198   1.238   2.448  0.2225  0.1329 -0.1223
  241SOL    HW1  722   1.116   1.191   2.402 -1.7275  0.4092 -0.2701
  241SOL    HW2  723   1.198   1.339   2.436  1.1366  2.0342  1.3623
  242SOL     OW  724   2.740   0.693   3.029  0.4168 -0.3967 -0.8944
  242SOL    HW1  725   2.787   0.643   3.108  2.1942 -1.1843  2.8078
  242SOL    HW2  726   2.794   0.682   2.945  0.6575  0.3432  2.7966
  243SOL     OW  727   0.867   0.596   1.444 -0.3629 -0.3878 -0.4037
  243SOL    HW1  728   0.899   0.553   1.528  0.8637 -0.5791  2.1180
  243SOL    HW2  729   0.936   0.592   1.367 -1.3596  1.4131 -0.2546
  244SOL     OW  730   1.446   2.946   2.910 -0.1129 -0.1960  0.4832
  244SOL    HW1  731   1.357   2.992   2.912  1.6685 -1.4952  0.2569
  244SOL    HW2  732   1.489   2.930   2.998 -3.1024  1.4922  1.0794
  245SOL     OW  733   1.843   2.822   0.001  0.2034 -0.3119 -0.0351
  245SOL    HW1  734   1.873   2.737   3.090  1.4568  3.0316 -0.6185
  245SOL    HW2  735   1.922   2.882   0.025  2.3558 -1.6633  2.0703
  246SOL     OW  736   0.651   0.757   1.453 -0.2903 -0.0180 -0.0151
  246SOL    HW1  737   0.622   0.803   1.536 -2.5013 -1.0522 -4.2423
  246SOL    HW2  738   0.738   0.708   1.455 -3.8664  1.8410 -1.3786
  247SOL     OW  739   0.258   0.407   2.080  0.1256 -0.1605 -0.0158
  247SOL    HW1  740   0.220   0.317   2.106  1.4487  0.2104 -2.2891
  247SOL    HW2  741   0.263   0.419   1.979  2.6698 -0.1427  1.1126
  248SOL     OW  742   3.022   1.301   2.070 -0.0388 -0.0238 -0.2826
  248SOL    HW1  743   2.928   1.344   2.082 -1.2414  0.5602  1.6530
  248SOL    HW2  744   3.084   1.340   2.140 -1.5442  0.0883  0.0163
  249SOL     OW  745   0.236   0.449   0.219  0.0659 -0.0177  0.2264
  249SOL    HW1  746   0.285   0.414   0.301  2.0713  1.6460 -0.8742
  249SOL    HW2  747   0.152   0.392   0.203  0.7446 -2.0928 -1.1277
  250SOL     OW  748   2.897   0.179   0.087 -0.0181  0.6656 -0.1451
  250SOL    HW1  749   2.854   0.266   0.117 -1.5947  0.1734  0.0342
  250SOL    HW2  750   2.852   0.133   0.009  2.9580 -0.8395  1.7931
  251SOL     OW  751   0.909   1.966   1.589 -0.2571  0.5814  0.3084
  251SOL    HW1  752   0.903   2.042   1.652 -1.5657 -0.4857  0.8102
  251SOL    HW2  753   0.976   1.896   1.626  0.3273  1.0118 -1.0733
  252SOL     OW  754   1.944   2.231   1.047 -0.0117  0.3070 -0.2593
  252SOL    HW1  755   1.877   2.162   1.011  0.2930 -0.8233 -0.5798
  252SOL    HW2  756   1.924   2.277   1.137  0.4707  0.0813  0.4205
  253SOL     OW  757   1.731   2.056   2.349  0.3097  0.1056 -0.5105
  253SOL    HW1  758   1.792   1.986   2.312 -1.0924  0.2624  2.1034
  253SOL    HW2  759   1.650   2.049   2.295  2.9607  1.1069  1.9515
  254SOL     OW  760   0.664   2.428   2.064 -0.2192  0.0286  0.0818
  254SOL    HW1  761   0.634   2.386   1.976  0.5939  0.7761  0.2656
  254SOL    HW2  762   0.754   2.474   2.054  0.5300 -2.1100 -0.4388
  255SOL     OW  763   1.134   0.188   1.341  0.0956 -0.0510  0.6719
  255SOL    HW1  764   1.186   0.140   1.269 -1.3991  0.8987  0.8720
  255SOL    HW2  765   1.149   0.139   1.431 -1.0543 -1.5243  2.0030
  256SOL     OW  766   2.311   2.216   1.669  0.1900  0.0024  0.2010
  256SOL    HW1  767   2.298   2.190   1.574  0.5724  2.6023  1.1617
  256SOL    HW2  768   2.402   2.186   1.703  1.4734 -0.1224 -0.7893
  257SOL     OW  769   0.721   2.296   2.759  0.3896 -0.0499 -0.2996
  257SOL    HW1  770   0.667   2.327   2.842 -0.6932  1.6935 -1.6845
  257SOL    HW2  771   0.819   2.282   2.774 -0.6687  0.3148 -0.8119
  258SOL     OW  772   0.525   0.975   2.273 -0.1741 -0.4044 -0.0790
  258SOL    HW1  773   0.509   0.982   2.370  0.3673  1.3376 -2.9740
  258SOL    HW2  774   0.497   0.884   2.240  0.8949  0.0936  2.2853
  259SOL     OW  775   0.616   1.456   1.999  0.0506  0.0078  0.1928
  259SOL    HW1  776   0.619   1.512   1.913  1.7535  0.0834  1.4740
  259SOL    HW2  777   0.713   1.439   2.036  1.9148 -0.6312 -0.2644
  260SOL     OW  778   1.973   1.036   1.442  0.0084  0.1677 -0.3320
  260SOL    HW1  779   2.037   1.075   1.372 -2.3003  1.6272 -2.2769
  260SOL    HW2  780   1.980   1.092   1.529  1.5707  1.0363 -0.4555
  261SOL     OW  781   1.037   3.089   0.751  0.0517 -0.5509 -0.0451
  261SOL    HW1  782   0.989   0.029   0.702  0.7032  1.3882  0.9877
  261SOL    HW2  783   1.111   3.043   0.697 -1.0128  0.6972  1.3654
  262SOL     OW  784   2.048   2.334   2.449 -0.7960 -0.6009 -0.4666
  262SOL    HW1  785   2.027   2.256   2.502 -0.8269  4.0645  0.5922
  262SOL    HW2  786   2.115   2.400   2.497 -1.6475  3.0026  0.4939
  263SOL     OW  787   0.168   1.585   2.883 -0.0399  0.2959  0.0398
  263SOL    HW1  788   0.161   1.687   2.891 -1.6248 -1.3887 -3.0963
  263SOL    HW2  789   0.187   1.537   2.970  0.2707  1.1856 -3.6082
  264SOL     OW  790   0.363   1.925   1.320 -0.5856 -0.1114  0.6648
  264SOL    HW1  791   0.449   1.977   1.305 -0.7239  0.9267 -0.2568
  264SOL    HW2  792   0.313   1.950   1.410 -5.0241  0.4747  1.0330
  265SOL     OW  793   0.609   1.050   0.644  0.6199  0.2250 -0.1894
  265SOL    HW1  794   0.646   0.961   0.680 -3.3258  0.6564  1.1209
  265SOL    HW2  795   0.674   1.119   0.608 -2.7875 -2.0253 -3.9110
  266SOL     OW  796   1.289   1.754   2.977 -0.3718 -0.0847 -0.0140
  266SOL    HW1  797   1.386   1.784   2.965  0.0483 -0.0477  0.6151
  266SOL    HW2  798   1.271   1.669   2.925 -0.9766  0.3589 -1.1949
  267SOL     OW  799   0.541   0.794   2.517  0.3024 -0.2569  0.0532
  267SOL    HW1  800   0.575   0.708   2.558  0.4340  0.9429 -0.1634
  267SOL    HW2  801   0.448   0.782   2.481  2.4252  1.7569  0.4458
  268SOL     OW  802   0.864   0.704   3.099 -0.2202 -0.1549 -0.5110
  268SOL    HW1  803   0.858   0.803   3.104  2.2613 -1.3937  1.2934
  268SOL    HW2  804   0.952   0.677   0.004 -1.0095 -0.9458 -0.8605
  269SOL     OW  805   1.889   3.006   2.641  0.5369  0.5779  0.3110
  269SOL    HW1  806   1.828   3.081   2.613  1.7727 -3.5271 -0.4550
  269SOL    HW2  807   1.865   2.964   2.736 -0.9272  0.1456  0.6723
  270SOL     OW  808   0.958   1.059   2.731  0.3055  0.7831 -0.3336
  270SOL    HW1  809   1.029   1.130   2.752 -0.5894 -0.5773 -2.2280
  270SOL    HW2  810   0.923   1.018   2.815  0.4140 -2.1481 -0.7460
  271SOL     OW  811   0.255   0.722   0.223  0.2476 -0.1770 -0.2679
  271SOL    HW1  812   0.310   0.744   0.141 -0.2363  0.1205  1.0431
  271SOL    HW2  813   0.228   0.627   0.223 -0.2131  0.4033  0.2366
  272SOL     OW  814   2.426   1.239   2.598  0.6226  1.0050  0.3795
  272SOL    HW1  815   2.413   1.260   2.695 -1.1313  1.0324  1.2573
  272SOL    HW2  816   2.491   1.164   2.586 -1.6816 -1.2169 -0.2259
  273SOL     OW  817   0.162   0.167   2.358 -0.6161  0.2581 -0.4022
  273SOL    HW1  818   0.108   0.219   2.432 -3.2319  1.7741  0.2998
  273SOL    HW2  819   0.234   0.107   2.403  0.1575  2.6086 -1.7218
  274SOL     OW  820   0.152   0.162   2.092 -0.0949  0.7214  0.1965
  274SOL    HW1  821   0.222   0.094   2.061 -0.1656 -0.4025  1.6577
  274SOL    HW2  822   0.162   0.165   2.192 -0.2163 -0.8984  1.4344
  275SOL     OW  823   2.013   1.441   0.454 -0.4407 -0.0916 -0.5836
  275SOL    HW1  824   2.006   1.508   0.378 -2.3804  2.1225 -1.6847
  275SOL    HW2  825   2.049   1.352   0.423 -2.2659  2.0471  1.1911
  276SOL     OW  826   0.296   0.854   2.719  0.5482  0.7963 -0.1710
  276SOL    HW1  827   0.268   0.949   2.732 -0.5397 -1.1717  0.4954
  276SOL    HW2  828   0.265   0.816   2.627  1.7247 -1.3288 -0.1098
  277SOL     OW  829   1.739   2.768   2.486  0.2364  0.8204 -0.6888
  277SOL    HW1  830   1.771   2.672   2.467  1.4305  3.4985 -0.3147
  277SOL    HW2  831   1.713   2.778   2.584 -0.0006 -1.4034  1.2109
  278SOL     OW  832   1.909   0.053   1.655 -0.3832  0.2295 -0.1967
  278SOL    HW1  833   1.847   0.125   1.676  4.0994 -2.9863 -0.3258
  278SOL    HW2  834   1.941   0.076   1.563 -0.7970  1.6468  3.2622
  279SOL     OW  835   1.534   1.341   3.009 -0.1589 -0.0407 -0.0430
  279SOL    HW1  836   1.624   1.296   2.979  2.3659  1.3251  0.2350
  279SOL    HW2  837   1.487   1.279   3.080 -2.5857 -1.9458 -0.6066
  280SOL     OW  838   0.815   1.227   2.953 -0.5894 -0.7498  0.4408
  280SOL    HW1  839   0.849   1.310   3.008 -0.9510 -1.0846 -2.2670
  280SOL    HW2  840   0.880   1.152   2.959 -1.4425  0.2548 -0.8167
  281SOL     OW  841   2.985   2.943   1.501  0.1959 -0.3773  0.7452
  281SOL    HW1  842   3.068   2.976   1.551 -1.2785 -1.0774  0.2986
  281SOL    HW2  843   2.913   3.010   1.519 -0.2563 -0.9027 -2.8007
  282SOL     OW  844   3.003   2.442   0.793  0.1791 -0.3626  0.1508
  282SOL    HW1  845   2.974   2.386   0.709 -2.1096  0.0491 -1.3478
  282SOL    HW2  846   3.095   2.489   0.785 -2.1254  1.6673  1.2833
  283SOL     OW  847   1.044   2.322   1.980  0.6543  0.2483  0.4946
  283SOL    HW1  848   0.963   2.385   1.988  0.3006 -2.1003 -1.1046
  283SOL    HW2  849   1.111   2.331   2.056 -2.0491  1.0882 -0.6063
  284SOL     OW  850   2.208   0.694   0.532  0.2354 -0.6421  0.1041
  284SOL    HW1  851   2.241   0.642   0.612  1.6250  1.1708  0.8377
  284SOL    HW2  852   2.205   0.794   0.552 -0.0635 -1.5247 -1.1395
  285SOL     OW  853   3.135   2.843   2.621 -0.3728 -0.1191 -0.2152
  285SOL    HW1  854   3.061   2.810   2.561  0.1317  0.1132 -1.9195
  285SOL    HW2  855   0.087   2.813   2.582 -1.1362  0.5409 -0.0626
  286SOL     OW  856   1.857   2.541   1.469  0.3721 -0.3966 -0.2398
  286SOL    HW1  857   1.798   2.527   1.550  0.5439  0.2100 -0.5637
  286SOL    HW2  858   1.818   2.612   1.408  0.8157  0.1872 -4.3381
  287SOL     OW  859   0.928   1.618   1.044 -0.1802 -0.4367  0.3851
  287SOL    HW1  860   0.926   1.537   0.986  1.6030  0.0101  2.6327
  287SOL    HW2  861   0.840   1.637   1.096 -1.5691 -0.7086  1.6720
  288SOL     OW  862   1.911   2.564   3.045  0.2945  0.0407 -0.2010
  288SOL    HW1  863   1.925   2.509   0.000 -0.7151  1.2429 -0.4446
  288SOL    HW2  864   1.843   2.521   2.986 -0.2577  1.5330  2.0409
  289SOL     OW  865   0.577   1.873   2.492  0.1130  0.1239  0.1788
  289SOL    HW1  866   0.575   1.937   2.415 -0.1785 -1.3466  1.0677
  289SOL    HW2  867   0.573   1.923   2.583 -1.3816 -0.7030 -0.4396
  290SOL     OW  868   1.411   2.122   0.987  0.3350 -0.3816 -0.1096
  290SOL    HW1  869   1.429   2.208   0.936 -0.1776  0.0473  1.1022
  290SOL    HW2  870   1.338   2.135   1.055  0.4299 -2.0907 -1.8457
  291SOL     OW  871   1.718   1.564   2.958 -0.2292  0.2923 -0.2488
  291SOL    HW1  872   1.761   1.526   2.875  0.8304  1.5439  2.5758
  291SOL    HW2  873   1.662   1.494   3.003  1.6266  2.1003 -0.7079
  292SOL     OW  874   1.562   1.361   0.925  0.2518 -0.5384  0.3218
  292SOL    HW1  875   1.607   1.431   0.864  1.2329 -0.9860 -3.2962
  292SOL    HW2  876   1.535   1.412   1.009 -0.6045 -1.9288 -1.8085
  293SOL     OW  877   1.547   2.840   0.815  0.4755 -0.4291  0.0516
  293SOL    HW1  878   1.603   2.768   0.850  1.2153  0.1059 -1.0757
  293SOL    HW2  879   1.459   2.833   0.869  1.5141  0.6099 -0.5404
  294SOL     OW  880   3.097   1.074   2.604 -0.1904 -0.2424  0.1115
  294SOL    HW1  881   3.048   1.152   2.658 -1.9789  3.7791 -0.1356
  294SOL    HW2  882   3.090   1.087   2.500  0.0832  0.1741 -0.2200
  295SOL     OW  883   1.483   2.189   2.771 -0.0172 -0.3352  0.1299
  295SOL    HW1  884   1.455   2.287   2.774  0.8914 -2.0680 -0.2199
  295SOL    HW2  885   1.565   2.171   2.713  1.8532 -0.2689  0.2784
  296SOL     OW  886   2.042   1.001   2.211  0.2931 -0.0720 -0.4633
  296SOL    HW1  887   1.941   1.008   2.226  0.1658 -2.5752 -0.8255
  296SOL    HW2  888   2.083   0.982   2.305 -3.3982 -0.1468  0.9375
  297SOL     OW  889   0.177   0.672   2.096  0.4144  0.6753 -0.2671
  297SOL    HW1  890   0.211   0.569   2.108  0.7958  0.3346 -0.1724
  297SOL    HW2  891   0.159   0.694   2.001 -0.0377 -0.1012  1.6737
  298SOL     OW  892   0.907   2.549   2.098 -0.0773  0.0774 -0.3632
  298SOL    HW1  893   0.970   2.627   2.080 -0.4400 -1.3514 -0.1576
  298SOL    HW2  894   0.889   2.539   2.196  0.2596  0.9906 -3.2802
  299SOL     OW  895   0.649   3.003   2.709  0.4176  0.1834 -0.1329
  299SOL    HW1  896   0.678   2.920   2.754 -0.5199  0.6574 -0.8311
  299SOL    HW2  897   0.720   3.077   2.715  0.7558  0.5933  2.7080
  300SOL     OW  898   0.207   0.664   2.926  0.0290 -0.2674  0.0574
  300SOL    HW1  899   0.197   0.720   2.840  0.0052  1.0666 -1.3602
  300SOL    HW2  900   0.265   0.723   2.990  0.9755 -1.0060  1.6919
  301SOL     OW  901   1.676   1.247   1.747  0.2311  0.0733 -0.2060
  301SOL    HW1  902   1.626   1.225   1.665  0.8857  2.3430  1.2792
  301SOL    HW2  903   1.667   1.347   1.758 -0.6429  0.4468 -1.3906
  302SOL     OW  904   2.615   1.934   2.456  0.0153  0.2849 -0.1359
  302SOL    HW1  905   2.681   2.016   2.467 -0.1791  2.4116 -1.8093
  302SOL    HW2  906   2.551   1.936   2.376  1.0218 -0.8663  0.7824
  303SOL     OW  907   3.059   0.125   2.678 -0.1206  0.3737  0.0120
  303SOL    HW1  908   0.007   0.080   2.718 -0.9276 -0.4273 -0.6213
  303SOL    HW2  909   3.087   0.214   2.647  0.8755 -2.5961  2.6004
  304SOL     OW  910   2.926   0.797   1.657 -0.7943  0.0255 -0.5150
  304SOL    HW1  911   3.019   0.844   1.667 -2.0346 -1.4052  2.5720
  304SOL    HW2  912   2.871   0.827   1.741  0.2100 -1.1513  0.9967
  305SOL     OW  913   2.975   3.108   1.780  0.0190 -0.0700  0.0833
  305SOL    HW1  914   2.943   0.014   1.869  1.6867 -1.6709 -0.2800
  305SOL    HW2  915   2.912   0.002   1.705 -0.8693 -0.1315  2.7577
  306SOL     OW  916   2.795   1.229   1.459 -0.1964 -0.3842  0.3948
  306SOL    HW1  917   2.818   1.237   1.555 -0.9830 -2.1482 -0.0064
  306SOL    HW2  918   2.878   1.198   1.409  0.8533 -0.7479  0.6016
  307SOL     OW  919   1.996   0.475   1.112  0.5953 -0.3373 -0.5720
  307SOL    HW1  920   2.019   0.399   1.045 -1.7550 -2.8350 -0.1713
  307SOL    HW2  921   1.969   0.561   1.069 -0.3967  2.5987 -0.6621
  308SOL     OW  922   3.035   1.966   1.218 -0.1381  0.3386  0.7090
  308SOL    HW1  923   3.098   1.935   1.137 -0.3468 -3.7063 -3.9039
  308SOL    HW2  924   2.977   2.040   1.181 -0.5305  0.2312 -1.1092
  309SOL     OW  925   2.230   1.897   1.623  0.4380 -0.6554  0.5530
  309SOL    HW1  926   2.235   1.951   1.538  0.9998 -1.1243 -2.0386
  309SOL    HW2  927   2.180   1.951   1.693  2.1140  0.7570 -0.8750
  310SOL     OW  928   2.533   1.639   3.075 -0.4657 -0.2735  0.1270
  310SOL    HW1  929   2.477   1.726   3.076 -3.3498  0.8955  3.0229
  310SOL    HW2  930   2.557   1.605   2.983 -1.1142 -0.1697 -1.8339
  311SOL     OW  931   2.399   1.244   2.872  0.4564 -0.0048  0.0243
  311SOL    HW1  932   2.481   1.251   2.933  0.7761 -0.1338  0.5611
  311SOL    HW2  933   2.317   1.295   2.902 -1.9200 -1.8992 -1.7549
  312SOL     OW  934   1.253   2.304   1.465  0.3459  0.0688 -0.5773
  312SOL    HW1  935   1.315   2.362   1.528 -1.9928  1.8527 -1.1233
  312SOL    HW2  936   1.267   2.214   1.511 -0.6282  1.9746 -1.5183
  313SOL     OW  937   0.388   2.725   1.145  0.4796  0.3208  0.4317
  313SOL    HW1  938   0.290   2.728   1.174  1.0903  1.0430  0.4642
  313SOL    HW2  939   0.404   2.630   1.102  1.1039 -0.8080  0.2248
  314SOL     OW  940   1.007   2.021   1.309 -0.6156 -0.0181  0.1034
  314SOL    HW1  941   0.950   2.023   1.223  0.1988 -0.3369  1.5309
  314SOL    HW2  942   0.955   2.034   1.397 -0.2854 -0.6533  0.4853
  315SOL     OW  943   0.418   2.941   2.403 -0.4360  0.1270  0.2750
  315SOL    HW1  944   0.428   3.043   2.377  1.6090  2.2660  1.1799
  315SOL    HW2  945   0.343   2.902   2.347 -1.3255  2.1137  0.6075
  316SOL     OW  946   3.095   2.295   1.008  0.8578  0.3837  0.1113
  316SOL    HW1  947   3.070   2.347   0.923  0.2927 -1.6751 -0.7999
  316SOL    HW2  948   3.120   2.203   0.985  1.2246  2.0959  0.2991
  317SOL     OW  949   2.023   0.539   0.396 -0.1154  0.2299 -0.1570
  317SOL    HW1  950   1.978   0.453   0.401  3.1545  1.5147  0.4160
  317SOL    HW2  951   2.089   0.545   0.470  0.4253 -0.2653 -3.8787
  318SOL     OW  952   2.928   2.578   0.179  0.1153  0.3242 -0.2926
  318SOL    HW1  953   2.838   2.620   0.162  2.7150 -2.6259 -0.1148
  318SOL    HW2  954   2.984   2.642   0.234 -0.7292 -1.9815  0.5343
  319SOL     OW  955   1.386   1.581   0.155  0.0021  0.0752  0.1141
  319SOL    HW1  956   1.442   1.519   0.214 -0.2162  3.0297  1.2426
  319SOL    HW2  957   1.431   1.670   0.142  1.6966  1.3832  0.0490
  320SOL     OW  958   0.584   2.590   2.759  0.1365  0.7227 -0.1804
  320SOL    HW1  959   0.509   2.546   2.707  0.9807 -1.9956 -0.3962
  320SOL    HW2  960   0.600   2.528   2.839  0.2250  0.7803 -0.6132
  321SOL     OW  961   1.026   0.001   0.290  0.3147  0.0684 -0.0891
  321SOL    HW1  962   1.016   3.048   0.345  0.6329  0.3140  0.4101
  321SOL    HW2  963   1.080   3.116   0.203 -0.9123  0.1670  0.9797
  322SOL     OW  964   2.262   0.994   2.040 -0.5253 -0.8987  0.1640
  322SOL    HW1  965   2.178   0.990   2.094  2.5786 -1.1329 -1.3918
  322SOL    HW2  966   2.352   1.003   2.090  0.6610 -4.1431 -2.1930
  323SOL     OW  967   3.041   0.834   0.363 -0.1999 -0.0947 -0.0639
  323SOL    HW1  968   3.071   0.751   0.416  2.4577 -3.1703  0.8657
  323SOL    HW2  969   3.075   0.921   0.404  0.4143  0.8578 -0.4980
  324SOL     OW  970   0.072   0.349   2.533 -0.4517  0.0760  0.1735
  324SOL    HW1  971   3.118   0.395   2.516  2.1402  1.8624 -0.3446
  324SOL    HW2  972   0.148   0.411   2.559 -1.7912 -1.3627 -2.2137
  325SOL     OW  973   0.856   0.014   2.493 -0.0684  0.7076  0.4711
  325SOL    HW1  974   0.811   0.077   2.424  2.6618  0.5880  0.7732
  325SOL    HW2  975   0.837   0.047   2.586  0.7536 -1.6830 -3.9071
  326SOL     OW  976   2.545   2.696   1.302  0.0763  0.0416  0.0023
  326SOL    HW1  977   2.469   2.661   1.243  0.7716  0.1265 -2.1558
  326SOL    HW2  978   2.602   2.762   1.248  1.1152  0.2259  0.6148
  327SOL     OW  979   1.942   0.766   0.270 -0.5879 -0.0068  0.6009
  327SOL    HW1  980   1.993   0.685   0.298  1.2137  0.2496 -0.4799
  327SOL    HW2  981   1.864   0.782   0.337 -1.2781  3.2556 -0.5656
  328SOL     OW  982   2.886   1.646   2.012  0.1257 -0.5433 -0.8594
  328SOL    HW1  983   2.963   1.658   2.078 -0.0360  3.6935 -0.6843
  328SOL    HW2  984   2.825   1.724   2.037 -0.6356  1.2611  0.8238
  329SOL     OW  985   2.093   2.922   1.937 -0.1976 -0.0721  0.5692
  329SOL    HW1  986   2.130   3.008   1.886  0.8830  0.9697  0.1242
  329SOL    HW2  987   2.059   2.856   1.866  1.3402 -1.5371 -1.8443
  330SOL     OW  988   2.306   1.636   1.931 -0.2195 -0.0104  0.9004
  330SOL    HW1  989   2.365   1.558   1.960  2.1729  1.9836 -0.1938
  330SOL    HW2  990   2.327   1.653   1.831 -1.3780 -0.8202 -0.9693
  331SOL     OW  991   2.869   2.204   1.141 -0.6406  0.2434 -0.5200
  331SOL    HW1  992   2.948   2.261   1.107  2.2002 -1.3653 -2.0297
  331SOL    HW2  993   2.802   2.187   1.065 -0.2128  0.2427 -3.3017
  332SOL     OW  994   0.552   2.845   0.349  0.1113  0.6080  0.2679
  332SOL    HW1  995   0.528   2.938   0.318 -1.6636 -0.8927  2.0828
  332SOL    HW2  996   0.465   2.796   0.366 -0.9297 -1.8700 -1.5904
  333SOL     OW  997   1.782   0.302   2.477  0.2741  0.1328 -0.4214
  333SOL    HW1  998   1.746   0.210   2.508  0.4667  0.4353  1.2989
  333SOL    HW2  999   1.860   0.275   2.416 -0.7192  2.7227  2.2867
  334SOL     OW 1000   0.598   1.453   0.712 -0.1727 -0.1601 -0.3561
  334SOL    HW1 1001   0.696   1.426   0.703  1.7520  0.6251  0.3378
  334SOL    HW2 1002   0.549   1.436   0.623  0.9348  1.1055  0.3923
  335SOL     OW 1003   3.119   2.979   2.167 -0.5171  0.4235 -0.0808
  335SOL    HW1 1004   3.093   3.057   2.224 -1.6768  2.9229  3.2491
  335SOL    HW2 1005   3.103   2.999   2.069  1.1956  0.9272 -0.4955
  336SOL     OW 1006   2.882   0.066   2.005  0.1145 -0.1482 -0.4576
  336SOL    HW1 1007   2.789   0.038   2.036 -0.3441 -0.8411 -0.0921
  336SOL    HW2 1008   2.931   0.097   2.092  0.6339  0.7231  2.2378
  337SOL     OW 1009   1.957   1.535   0.683 -0.1232 -0.1729  0.2329
  337SOL    HW1 1010   2.048   1.565   0.720  0.7377 -0.9830 -0.1968
  337SOL    HW2 1011   1.975   1.488   0.591 -1.5331 -0.1107  0.5390
  338SOL     OW 1012   1.052   1.841   0.955 -0.4661 -0.0146 -0.3493
  338SOL    HW1 1013   1.017   1.745   0.978 -0.3847  1.4918 -1.2432
  338SOL    HW2 1014   0.991   1.903   1.004 -0.2070 -1.2348 -1.8579
  339SOL     OW 1015   3.040   1.013   1.019 -0.1342 -0.2199  0.0023
  339SOL    HW1 1016   3.118   1.072   1.051  0.8523  0.8406  0.3734
  339SOL    HW2 1017   3.026   0.931   1.078  1.9598 -2.9698  3.0149
  340SOL     OW 1018   1.533   2.821   2.141 -0.3101  0.2968  0.0127
  340SOL    HW1 1019   1.468   2.793   2.217 -0.4681  0.3941  0.5602
  340SOL    HW2 1020   1.625   2.844   2.181 -0.9735 -3.7366 -1.3082
  341SOL     OW 1021   2.223   1.574   0.723  0.0745 -0.9029 -0.2275
  341SOL    HW1 1022   2.273   1.486   0.710  1.2599 -0.4339  0.9000
  341SOL    HW2 1023   2.213   1.590   0.823 -0.9009  2.5088 -1.9578
  342SOL     OW 1024   3.080   1.422   0.773 -0.4847 -0.6379  0.4830
  342SOL    HW1 1025   3.050   1.336   0.815  0.4351  1.9163  0.3369
  342SOL    HW2 1026   3.001   1.486   0.749 -0.4334  2.1917  1.6849
  343SOL     OW 1027   2.574   1.248   1.791  0.0060  0.2825 -0.0205
  343SOL    HW1 1028   2.535   1.151   1.799 -2.3558 -0.4822  0.7130
  343SOL    HW2 1029   2.670   1.247   1.752  2.1707  1.2364 -3.3096
  344SOL     OW 1030   1.947   0.819   1.088  0.3017 -0.1895  0.2162
  344SOL    HW1 1031   1.886   0.892   1.128 -2.8264  2.6015  0.9189
  344SOL    HW2 1032   2.045   0.842   1.107  3.2171 -2.1939 -1.2446
  345SOL     OW 1033   0.094   3.043   2.825  0.0853  0.8362 -0.3099
  345SOL    HW1 1034   0.048   2.982   2.764 -0.0020  1.2289  3.9438
  345SOL    HW2 1035   0.196   3.035   2.818 -0.2303  0.2136  1.1039
  346SOL     OW 1036   2.787   1.587   0.092  0.1559 -0.3283 -0.3327
  346SOL    HW1 1037   2.743   1.634   0.170  0.1691  1.1489  1.2476
  346SOL    HW2 1038   2.737   1.603   0.006  0.5104 -1.5704 -1.0309
  347SOL     OW 1039   1.959   2.776   1.744  0.2451  0.3588 -0.2659
  347SOL    HW1 1040   1.947   2.678   1.783  1.6721 -2.2580  0.8416
  347SOL    HW2 1041   1.902   2.786   1.654 -2.1388 -0.1361 -3.7284
  348SOL     OW 1042   1.124   1.308   1.657 -0.1279  0.0595  0.1032
  348SOL    HW1 1043   1.142   1.409   1.660 -0.3495  0.3808  0.0180
  348SOL    HW2 1044   1.026   1.284   1.662  0.5658  1.1551 -0.5378
  349SOL     OW 1045   2.093   1.272   2.193 -0.0018 -0.0844 -0.0199
  349SOL    HW1 1046   2.072   1.175   2.200  1.0904  0.4463  1.5216
  349SOL    HW2 1047   2.092   1.327   2.284  2.9150 -2.8794  0.9931
  350SOL     OW 1048   2.522   2.325   0.441 -0.6676 -0.6143  0.3148
  350SOL    HW1 1049   2.525   2.360   0.343  0.3462  2.0784 -1.5543
  350SOL    HW2 1050   2.517   2.407   0.506 -1.6521  1.2517  3.7890
  351SOL     OW 1051   0.306   0.219   1.742 -0.2147 -0.0460 -0.1607
  351SOL    HW1 1052   0.309   0.310   1.786  1.9110 -3.0002  0.6641
  351SOL    HW2 1053   0.316   0.217   1.642  0.4498 -0.6531  2.0898
  352SOL     OW 1054   1.432   2.566   1.691 -0.3000  0.2666  0.2727
  352SOL    HW1 1055   1.397   2.658   1.684  2.1315 -1.7723  1.4453
  352SOL    HW2 1056   1.361   2.497   1.709  1.2620  4.0250  2.1953
  353SOL     OW 1057   0.961   1.163   2.315  0.2409 -0.1739  0.1998
  353SOL    HW1 1058   0.899   1.180   2.396  1.0169  0.4044  2.7257
  353SOL    HW2 1059   0.973   1.064   2.308  3.1457 -0.7841  0.1153
  354SOL     OW 1060   1.446   1.582   0.593 -0.4974 -0.7774  0.4556
  354SOL    HW1 1061   1.375   1.586   0.668 -1.2898  0.3907  1.8629
  354SOL    HW2 1062   1.439   1.646   0.511 -0.0799  1.6553 -1.5218
  355SOL     OW 1063   2.095   0.252   0.960  0.1876  0.6176 -0.1184
  355SOL    HW1 1064   2.052   0.164   0.990 -0.4855  0.6304  2.1821
  355SOL    HW2 1065   2.171   0.243   0.891 -2.2641 -3.1318 -0.3062
  356SOL     OW 1066   3.088   1.291   3.024  0.2741  0.6914  0.6028
  356SOL    HW1 1067   0.046   1.260   3.055 -2.8477 -0.0262  0.0827
  356SOL    HW2 1068   3.026   1.212   3.026 -0.6366  2.7294 -2.0050
  357SOL     OW 1069   0.037   2.971   1.893  0.1152  0.1731  0.3512
  357SOL    HW1 1070   0.128   3.002   1.863 -1.4057 -0.7448 -0.7961
  357SOL    HW2 1071   3.104   3.014   1.830  0.6173  0.2389  1.5718
  358SOL     OW 1072   0.588   1.348   2.824 -0.3986 -0.3911 -0.1872
  358SOL    HW1 1073   0.517   1.327   2.761  0.3488  1.9317  1.1604
  358SOL    HW2 1074   0.629   1.260   2.860  1.8446  0.1307 -0.5845
  359SOL     OW 1075   2.765   2.836   2.439  0.0077  0.3642  0.6805
  359SOL    HW1 1076   2.687   2.805   2.501  0.8413 -1.0778  0.1810
  359SOL    HW2 1077   2.839   2.764   2.450 -1.7599  1.0579  1.8556
  360SOL     OW 1078   1.670   1.216   1.236  0.1203  0.3026  0.6075
  360SOL    HW1 1079   1.670   1.194   1.135 -2.9612 -1.2809  0.8481
  360SOL    HW2 1080   1.750   1.274   1.259 -0.1131  0.4539 -2.4696
  361SOL     OW 1081   1.957   2.288   1.485 -0.6527 -0.0246 -0.4527
  361SOL    HW1 1082   1.883   2.220   1.510 -0.4902  1.2698 -0.2031
  361SOL    HW2 1083   1.939   2.381   1.522 -2.0585  2.5951  3.4660
  362SOL     OW 1084   1.687   1.138   0.942 -0.8328  0.1497  0.3202
  362SOL    HW1 1085   1.687   1.060   0.874 -0.4775 -1.8340 -0.7336
  362SOL    HW2 1086   1.624   1.214   0.915  0.8423 -1.0980  1.3423
  363SOL     OW 1087   2.237   2.501   0.742 -0.6178  0.2694 -0.5455
  363SOL    HW1 1088   2.187   2.554   0.811  0.8121  1.0007  0.9889
  363SOL    HW2 1089   2.305   2.555   0.686 -0.2732  0.9423 -0.5923
  364SOL     OW 1090   0.082   0.195   1.088  0.2735 -1.0047  0.2821
  364SOL    HW1 1091   0.051   0.106   1.125 -2.1013  3.0904  1.1517
  364SOL    HW2 1092   0.183   0.201   1.088  0.4773  1.1790 -0.4683
  365SOL     OW 1093   0.551   2.845   0.789 -0.5449 -0.1409 -0.5396
  365SOL    HW1 1094   0.530   2.854   0.892  0.6451 -0.3458  2.1753
  365SOL    HW2 1095   0.636   2.791   0.777  0.2000 -1.5659  0.6258
  366SOL     OW 1096   0.274   1.557   0.414 -0.1123 -0.4937 -0.4503
  366SOL    HW1 1097   0.322   1.628   0.357  0.4182 -1.5318  0.0353
  366SOL    HW2 1098   0.277   1.583   0.512 -0.8606  0.5449 -0.1832
  367SOL     OW 1099   2.681   2.406   2.900 -0.4554  0.1248 -0.5152
  367SOL    HW1 1100   2.707   2.361   2.989  1.5045 -2.2492 -3.3351
  367SOL    HW2 1101   2.637   2.344   2.841  1.2000  2.2887  2.2364
  368SOL     OW 1102   2.447   1.777   0.921  0.4233  0.2823 -0.3424
  368SOL    HW1 1103   2.443   1.844   0.841  1.7645 -1.4207  0.3921
  368SOL    HW2 1104   2.528   1.714   0.912 -0.0346  1.4001 -0.6801
  369SOL     OW 1105   1.049   0.999   0.294 -0.1502  0.9182  0.2919
  369SOL    HW1 1106   0.980   1.069   0.281 -2.1167  0.1240  1.4768
  369SOL    HW2 1107   1.115   1.027   0.364 -3.0113  0.4250 -0.3908
  370SOL     OW 1108   0.402   2.994   1.126 -0.4900  0.1886  0.8201
  370SOL    HW1 1109   0.412   2.892   1.134 -2.2777  1.1690 -0.0943
  370SOL    HW2 1110   0.483   3.034   1.077 -0.9659 -1.8771  3.0750
  371SOL     OW 1111   2.974   1.289   2.728 -0.0664 -0.0122 -0.4579
  371SOL    HW1 1112   2.904   1.330   2.665  0.0762 -4.6026  2.0285
  371SOL    HW2 1113   2.941   1.296   2.820  1.9990 -0.3417 -0.6869
  372SOL     OW 1114   0.724   0.465   2.370 -0.4684 -0.0712  0.6936
  372SOL    HW1 1115   0.658   0.451   2.296  1.6845  0.5597  0.2021
  372SOL    HW2 1116   0.679   0.513   2.446  4.0270  0.8492  1.6407
  373SOL     OW 1117   0.754   0.464   0.061  0.3161  0.0901 -0.1228
  373SOL    HW1 1118   0.823   0.527   0.022 -0.9213 -0.7410  1.3541
  373SOL    HW2 1119   0.785   0.409   0.138  1.0973  0.5384 -1.7600
  374SOL     OW 1120   1.206   2.125   0.032 -0.2151  0.5311 -0.4429
  374SOL    HW1 1121   1.299   2.148   3.131 -0.4814  0.7138 -1.4826
  374SOL    HW2 1122   1.190   2.024   0.049  0.0245 -0.5254  0.6645
  375SOL     OW 1123   1.030   2.922   1.527 -0.2038 -0.0689  0.2525
  375SOL    HW1 1124   1.069   2.849   1.471 -2.1760  0.4806 -1.7780
  375SOL    HW2 1125   0.958   2.971   1.477  1.2467  1.2026  0.6623
  376SOL     OW 1126   0.297   2.635   2.079  0.2441 -0.5170  0.0130
  376SOL    HW1 1127   0.389   2.660   2.052  1.7160  1.6226 -0.8812
  376SOL    HW2 1128   0.293   2.545   2.123 -1.9226  0.2793 -1.7523
  377SOL     OW 1129   2.327   2.077   2.931  0.0813  0.5979 -0.0283
  377SOL    HW1 1130   2.234   2.117   2.942  1.0912 -0.2658 -0.4406
  377SOL    HW2 1131   2.351   2.057   2.832 -0.0437  1.6829  0.0597
  378SOL     OW 1132   2.338   0.308   0.790 -0.1812  0.5379 -0.3819
  378SOL    HW1 1133   2.279   0.391   0.786 -0.4793 -1.5047  2.4848
  378SOL    HW2 1134   2.433   0.322   0.811 -0.6887 -1.1462  1.3216
  379SOL     OW 1135   1.097   0.793   0.610 -0.8175  0.3406  0.1796
  379SOL    HW1 1136   1.155   0.754   0.531  2.7241  0.2710 -0.5826
  379SOL    HW2 1137   0.999   0.770   0.613 -1.0171  3.6606  0.8618
  380SOL     OW 1138   2.690   2.351   2.085 -0.0005  0.2992  0.1582
  380SOL    HW1 1139   2.731   2.436   2.113 -2.6513 -2.7523  2.0376
  380SOL    HW2 1140   2.708   2.338   1.983 -1.7862  0.1635  1.0681
  381SOL     OW 1141   2.774   1.420   2.040  0.9380  0.2508  0.5274
  381SOL    HW1 1142   2.830   1.500   2.013 -1.7115 -0.9207 -0.5328
  381SOL    HW2 1143   2.673   1.438   2.016 -3.3774 -1.5361 -0.3361
  382SOL     OW 1144   3.016   2.111   2.828 -0.0083  0.3140 -0.4610
  382SOL    HW1 1145   2.978   2.201   2.803  0.4914 -2.9139 -1.1781
  382SOL    HW2 1146   2.976   2.080   2.914  0.1085  4.4679 -1.3669
  383SOL     OW 1147   1.235   0.707   2.604  0.0564  0.1939 -0.3261
  383SOL    HW1 1148   1.258   0.751   2.694  1.3376 -1.3265 -0.1009
  383SOL    HW2 1149   1.305   0.732   2.534  0.7592 -1.5625 -1.1586
  384SOL     OW 1150   1.279   2.078   2.132  0.3108  0.5523 -0.0692
  384SOL    HW1 1151   1.268   2.175   2.127  0.7766 -1.0887  0.0806
  384SOL    HW2 1152   1.207   2.038   2.190  0.1403 -2.0891  2.2507
  385SOL     OW 1153   2.711   2.737   0.126 -0.0740  0.3598 -0.6661
  385SOL    HW1 1154   2.612   2.719   0.116  0.8927 -0.2670 -0.1189
  385SOL    HW2 1155   2.729   2.812   0.197 -1.0666  2.2438  1.5595
  386SOL     OW 1156   1.716   1.004   0.670 -0.2026 -0.6038 -0.3345
  386SOL    HW1 1157   1.662   0.923   0.695  0.9583  0.4177  3.3821
  386SOL    HW2 1158   1.809   0.978   0.637  1.8117 -2.0043  0.2929
  387SOL     OW 1159   3.088   1.863   1.699 -0.1776 -0.5786 -0.6689
  387SOL    HW1 1160   0.051   1.853   1.727  2.8616  1.6093  1.1939
  387SOL    HW2 1161   3.082   1.928   1.625  0.2421 -0.0141  0.7120
  388SOL     OW 1162   0.512   1.067   1.345 -0.1965  0.2681  0.6719
  388SOL    HW1 1163   0.610   1.084   1.329 -2.6085 -1.2370  2.5299
  388SOL    HW2 1164   0.485   0.985   1.296  2.3229  0.7688  4.3049
  389SOL     OW 1165   2.134   0.939   2.490 -0.5744 -0.1632 -0.0707
  389SOL    HW1 1166   2.198   0.908   2.564  0.3090 -1.9692 -0.1065
  389SOL    HW2 1167   2.035   0.936   2.519 -0.3937  0.1092 -1.6065
  390SOL     OW 1168   0.927   1.758   0.121 -0.3658 -0.1453  1.1795
  390SOL    HW1 1169   0.862   1.831   0.151 -1.0217 -0.6115  0.8094
  390SOL    HW2 1170   0.911   1.742   0.023 -0.5935 -0.0894 -0.7869
  391SOL     OW 1171   1.387   1.848   0.519 -0.2246  0.1897 -0.3935
  391SOL    HW1 1172   1.331   1.871   0.601  1.4066  0.7161  1.2370
  391SOL    HW2 1173   1.350   1.875   0.428  3.4792  0.9780 -0.3627
  392SOL     OW 1174   2.618   2.884   2.200 -0.4637  0.6551  0.0167
  392SOL    HW1 1175   2.629   2.801   2.141 -0.1292 -3.6667  0.3399
  392SOL    HW2 1176   2.674   2.864   2.287  0.6731 -0.4293  0.8411
  393SOL     OW 1177   1.658   2.062   0.094 -0.5628  0.2151  0.4746
  393SOL    HW1 1178   1.627   2.014   0.178  1.2660 -0.1123  1.2831
  393SOL    HW2 1179   1.586   2.103   0.040 -1.2761 -1.4061  4.0968
  394SOL     OW 1180   0.506   0.058   2.348  0.1025 -0.4083  0.0757
  394SOL    HW1 1181   0.605   0.086   2.329 -0.6577  0.5496 -1.3868
  394SOL    HW2 1182   0.454   0.076   2.264  0.6549  1.6865 -0.1091
  395SOL     OW 1183   0.190   1.522   1.412 -0.6456  0.8903 -0.1281
  395SOL    HW1 1184   0.269   1.532   1.346  1.4214 -0.6852  0.5396
  395SOL    HW2 1185   0.103   1.538   1.362  3.0960 -1.8346  1.4647
  396SOL     OW 1186   2.136   1.343   2.956 -0.6371  0.2260 -0.1689
  396SOL    HW1 1187   2.093   1.333   2.861  1.3863  1.2292  0.0850
  396SOL    HW2 1188   2.097   1.417   3.006  0.2276 -1.4924 -0.0627
  397SOL     OW 1189   0.528   0.851   2.869  0.2561  0.8497 -0.6404
  397SOL    HW1 1190   0.601   0.813   2.816  1.3076  3.1747  1.6543
  397SOL    HW2 1191   0.444   0.864   2.807 -1.3177  1.7740 -1.5859
  398SOL     OW 1192   1.050   2.524   0.255 -0.1019 -0.1291 -0.8207
  398SOL    HW1 1193   1.141   2.507   0.292 -0.0180  2.3152 -0.7656
  398SOL    HW2 1194   1.012   2.613   0.288  0.6522 -0.1701  0.7306
  399SOL     OW 1195   1.830   2.484   2.361 -0.7140 -0.0615  0.1980
  399SOL    HW1 1196   1.911   2.428   2.392 -1.0977 -0.2213 -0.3164
  399SOL    HW2 1197   1.856   2.547   2.281 -0.3878  0.0499  0.2694
  400SOL     OW 1198   3.102   1.001   2.070  0.3698  0.0237 -0.2265
  400SOL    HW1 1199   3.032   1.067   2.105 -2.2836 -0.6165  2.1680
  400SOL    HW2 1200   0.061   1.045   2.061 -0.3597  2.1226  0.2712
  401SOL     OW 1201   0.730   0.838   0.722 -0.0875  0.0071  0.1096
  401SOL    HW1 1202   0.669   0.757   0.726  2.3010 -1.2877 -1.4381
  401SOL    HW2 1203   0.803   0.825   0.790 -3.5860 -0.2344 -1.7442
  402SOL     OW 1204   0.805   0.096   2.734  0.3899 -0.1984 -0.4902
  402SOL    HW1 1205   0.799   0.192   2.769 -0.9411 -4.1055 -2.3428
  402SOL    HW2 1206   0.861   0.046   2.803 -0.5401 -0.1416  1.9856
  403SOL     OW 1207   2.636   1.777   1.694 -0.0025  1.0466  0.3622
  403SOL    HW1 1208   2.698   1.853   1.731  1.1110  1.0799  2.4812
  403SOL    HW2 1209   2.677   1.712   1.625  0.0670  0.0374  2.4545
  404SOL     OW 1210   2.746   2.405   1.564 -0.7395 -0.2432 -0.5843
  404SOL    HW1 1211   2.785   2.501   1.557 -0.2959  0.8789 -0.8975
  404SOL    HW2 1212   2.741   2.363   1.469  0.9544  0.1915 -0.8576
  405SOL     OW 1213   1.930   0.270   2.872  0.1613 -0.0549  0.1324
  405SOL    HW1 1214   1.984   0.192   2.833 -1.9437  2.6610  1.2538
  405SOL    HW2 1215   1.844   0.287   2.824  2.9581  0.8373  1.5315
  406SOL     OW 1216   1.159   1.866   0.055 -0.2583  0.2908 -0.0543
  406SOL    HW1 1217   1.197   1.815   3.106 -0.5241  1.7527 -2.3191
  406SOL    HW2 1218   1.071   1.825   0.087  0.1707 -1.8612  0.1681
  407SOL     OW 1219   1.840   1.737   0.546  0.1057  0.4813  0.7115
  407SOL    HW1 1220   1.875   1.656   0.587  1.0511  0.9328 -2.2357
  407SOL    HW2 1221   1.761   1.777   0.596  0.4059  2.3619  1.5598
  408SOL     OW 1222   0.012   0.458   1.625 -0.3974 -0.1743 -0.8206
  408SOL    HW1 1223   0.069   0.521   1.570 -1.1802 -1.6106 -1.1974
  408SOL    HW2 1224   0.026   0.363   1.583 -1.6256 -0.2587 -0.0381
  409SOL     OW 1225   2.588   1.263   3.090 -0.1820 -0.7602 -0.3060
  409SOL    HW1 1226   2.556   1.170   3.122  0.1885 -2.6843  0.1376
  409SOL    HW2 1227   2.556   1.343   0.011 -2.1091 -0.6580 -0.1534
  410SOL     OW 1228   2.366   2.375   1.057 -0.4385  0.3420 -0.6349
  410SOL    HW1 1229   2.425   2.337   1.132 -1.1106  0.4410 -2.9243
  410SOL    HW2 1230   2.295   2.305   1.027  0.9501  0.5195  1.3370
  411SOL     OW 1231   0.587   3.106   0.295  0.3752  0.1809  0.6706
  411SOL    HW1 1232   0.672   3.115   0.348  2.3743 -2.6899 -0.4273
  411SOL    HW2 1233   0.573   0.049   0.234  1.2192  1.3848  2.1373
  412SOL     OW 1234   1.707   2.965   0.388 -0.0883  0.3589 -0.3272
  412SOL    HW1 1235   1.740   3.038   0.327  1.1271  2.1189  1.9247
  412SOL    HW2 1236   1.758   2.971   0.478  2.9515 -2.3019  0.9710
  413SOL     OW 1237   1.993   0.403   2.124  0.0984  0.1636 -0.1632
  413SOL    HW1 1238   2.013   0.345   2.199  0.8026  0.2181 -0.5188
  413SOL    HW2 1239   1.930   0.358   2.054 -1.2094  1.7249  0.3162
  414SOL     OW 1240   0.022   0.652   0.539  0.4049 -0.5236 -0.1447
  414SOL    HW1 1241   0.124   0.637   0.549  1.7007  0.0604 -0.2418
  414SOL    HW2 1242   3.108   0.640   0.632  2.9827 -0.0959 -0.8377
  415SOL     OW 1243   3.058   1.103   0.462  0.2215 -0.8088  0.6585
  415SOL    HW1 1244   2.969   1.113   0.414  1.4637  0.1555 -1.0972
  415SOL    HW2 1245   3.066   1.167   0.538  0.9900  3.0024 -1.6161
  416SOL     OW 1246   0.043   0.475   2.943 -0.2413 -0.3510  0.0140
  416SOL    HW1 1247   0.084   0.391   2.906  0.7931  0.3704 -0.8043
  416SOL    HW2 1248   0.110   0.551   2.943  0.7941  1.1554 -1.1473
  417SOL     OW 1249   2.500   0.218   1.077 -0.0109 -0.1031 -0.1331
  417SOL    HW1 1250   2.414   0.263   1.108  1.3204  0.8717 -1.1248
  417SOL    HW2 1251   2.583   0.236   1.136  0.6714  1.8795 -1.2622
  418SOL     OW 1252   0.904   3.037   2.932  0.1150 -0.1492  0.4292
  418SOL    HW1 1253   0.870   3.066   3.019 -0.7748  2.3984 -2.5590
  418SOL    HW2 1254   0.870   2.942   2.912 -2.5235 -2.9798 -0.9321
  419SOL     OW 1255   0.281   0.745   0.794  0.0735  0.4541 -0.3784
  419SOL    HW1 1256   0.240   0.833   0.761  1.0395  0.9120  0.6273
  419SOL    HW2 1257   0.301   0.676   0.718 -1.4797 -0.0097 -2.9021
  420SOL     OW 1258   3.009   1.169   1.296 -0.0224 -0.7574  0.5003
  420SOL    HW1 1259   3.110   1.179   1.269  0.7890  2.3818  0.6597
  420SOL    HW2 1260   2.985   1.075   1.327  1.7225  1.0514  0.1175
  421SOL     OW 1261   1.091   1.948   2.859 -0.1177 -0.5523  0.2889
  421SOL    HW1 1262   1.164   1.917   2.926  0.1015 -1.2868 -0.6876
  421SOL    HW2 1263   1.136   1.984   2.778 -2.3701  0.8541  0.9793
  422SOL     OW 1264   2.359   0.680   2.241 -0.6357 -0.2097  0.3636
  422SOL    HW1 1265   2.335   0.695   2.141  3.4673  2.5478  0.0843
  422SOL    HW2 1266   2.457   0.704   2.260  0.3517  4.0883  0.8720
  423SOL     OW 1267   1.980   1.565   0.199 -0.0691  0.1835 -0.1726
  423SOL    HW1 1268   2.027   1.619   0.127  1.0479 -0.9207 -1.0821
  423SOL    HW2 1269   1.919   1.495   0.154 -0.5529  0.7145 -0.6639
  424SOL     OW 1270   0.899   0.762   1.820  0.3266 -0.6267  0.0850
  424SOL    HW1 1271   0.806   0.791   1.855  0.1861 -0.1192  0.5527
  424SOL    HW2 1272   0.971   0.837   1.822 -0.5341  0.6413 -0.2830
  425SOL     OW 1273   3.043   2.698   2.187 -0.0413 -0.2940 -0.1955
  425SOL    HW1 1274   3.099   2.647   2.122  1.8945 -1.8831 -0.3693
  425SOL    HW2 1275   3.054   2.796   2.174  1.3049 -0.2398  0.1635
  426SOL     OW 1276   2.341   2.852   0.360 -0.0657 -0.2795  0.4236
  426SOL    HW1 1277   2.403   2.819   0.435 -2.4282 -0.4435  2.0443
  426SOL    HW2 1278   2.244   2.831   0.396  1.0453 -0.5914 -0.3649
  427SOL     OW 1279   0.797   0.717   2.804 -0.0456 -0.2083 -0.2974
  427SOL    HW1 1280   0.849   0.800   2.772  0.6913  2.4478  0.2173
  427SOL    HW2 1281   0.812   0.684   2.899  0.2638 -1.5757  0.0129
  428SOL     OW 1282   2.797   1.380   2.954  0.3803  0.7085 -0.0255
  428SOL    HW1 1283   2.725   1.323   3.002 -0.4544 -2.4425 -0.6666
  428SOL    HW2 1284   2.889   1.368   2.992 -0.2181  1.7183 -1.4243
  429SOL     OW 1285   2.611   0.419   0.348 -0.2882  0.1220  0.4875
  429SOL    HW1 1286   2.621   0.382   0.443 -3.0030  1.5172  0.0413
  429SOL    HW2 1287   2.530   0.479   0.341  3.6339 -1.0226 -1.3460
  430SOL     OW 1288   1.248   2.387   2.162  0.4620  0.6234 -0.1074
  430SOL    HW1 1289   1.340   2.426   2.131 -0.2402 -2.3741  0.8861
  430SOL    HW2 1290   1.201   2.447   2.233  2.2398  1.7620  1.6903
  431SOL     OW 1291   0.202   2.028   1.554 -0.4979 -0.2152  0.4989
  431SOL    HW1 1292   0.111   2.027   1.510 -1.0857 -1.8068  2.9441
  431SOL    HW2 1293   0.203   2.030   1.653  0.0251  1.0476 -3.7448
  432SOL     OW 1294   1.793   2.844   2.215  0.3870  0.1902 -0.3195
  432SOL    HW1 1295   1.849   2.764   2.181  0.7883  0.6781 -2.0648
  432SOL    HW2 1296   1.796   2.849   2.315 -2.0477 -2.0265  2.2407
  433SOL     OW 1297   1.017   2.119   0.233 -0.7356  0.1847  0.3204
  433SOL    HW1 1298   1.089   2.118   0.158  2.8716 -3.1434 -2.8538
  433SOL    HW2 1299   0.936   2.054   0.216 -0.0237 -1.8182 -1.1521
  434SOL     OW 1300   0.322   2.104   2.643 -0.2316 -0.2527  0.4124
  434SOL    HW1 1301   0.421   2.116   2.655  0.5079 -0.2109  1.8987
  434SOL    HW2 1302   0.280   2.111   2.734  1.6790  3.3510 -0.6204
  435SOL     OW 1303   0.210   0.906   0.404  0.2715 -0.4244  0.5139
  435SOL    HW1 1304   0.152   0.970   0.348  1.9348  3.3391 -0.9567
  435SOL    HW2 1305   0.228   0.827   0.341  0.6716  3.0288 -0.4467
  436SOL     OW 1306   0.526   2.678   1.693 -0.0007  0.3763  0.0340
  436SOL    HW1 1307   0.523   2.772   1.645 -0.2269  2.5152 -0.3541
  436SOL    HW2 1308   0.539   2.695   1.796  1.4662 -0.5713  2.1748
  437SOL     OW 1309   0.870   0.168   0.699  0.7303  0.4558 -0.4876
  437SOL    HW1 1310   0.929   0.240   0.740  0.3835  2.2281  0.3605
  437SOL    HW2 1311   0.800   0.144   0.768 -3.8830  1.1497 -0.5523
  438SOL     OW 1312   0.296   2.178   0.608  0.3926 -0.0892 -0.2859
  438SOL    HW1 1313   0.341   2.263   0.645 -1.6865  0.6174  0.8459
  438SOL    HW2 1314   0.275   2.117   0.685 -0.4664  1.0382  0.3938
  439SOL     OW 1315   0.882   2.435   1.675  0.6541 -0.5194 -0.1916
  439SOL    HW1 1316   0.799   2.452   1.729  1.4666  2.0292  0.6679
  439SOL    HW2 1317   0.873   2.500   1.594 -1.7080 -1.0798 -1.4893
  440SOL     OW 1318   1.878   0.053   2.135 -0.0549  0.0302  0.4216
  440SOL    HW1 1319   1.874   0.133   2.075  0.1140  0.1368  0.2269
  440SOL    HW2 1320   1.855   3.108   2.074 -0.6166  0.9780 -2.0970
  441SOL     OW 1321   3.089   0.314   1.963  0.3324 -0.0769 -1.1650
  441SOL    HW1 1322   0.032   0.249   1.977  0.2828  0.6947  0.6219
  441SOL    HW2 1323   3.066   0.330   1.865  0.2272  0.5908  0.6778
  442SOL     OW 1324   1.996   2.301   0.786  0.8857  0.2153 -0.4991
  442SOL    HW1 1325   2.093   2.265   0.770  2.5679 -0.7247 -1.6627
  442SOL    HW2 1326   1.956   2.288   0.881 -2.7650  0.9810  1.2669
  443SOL     OW 1327   2.826   0.895   2.325  0.0824  0.1226 -0.2179
  443SOL    HW1 1328   2.883   0.843   2.390 -0.1487  0.0291 -0.3185
  443SOL    HW2 1329   2.831   0.994   2.346  0.5876 -0.2711 -2.4631
  444SOL     OW 1330   1.785   1.014   2.220  0.3204 -0.3916 -0.3091
  444SOL    HW1 1331   1.722   1.070   2.159  0.1994  0.3137 -0.9295
  444SOL    HW2 1332   1.743   0.923   2.250  0.8800  0.7032  2.4614
  445SOL     OW 1333   3.017   2.532   1.134 -0.0931  0.4173  0.0585
  445SOL    HW1 1334   3.014   2.591   1.052  1.1127 -0.2206 -2.2931
  445SOL    HW2 1335   3.071   2.448   1.101  3.1903  2.1173  0.7150
  446SOL     OW 1336   2.733   1.505   1.150  0.0178 -0.7202 -0.2714
  446SOL    HW1 1337   2.779   1.589   1.185  1.6041  0.3657 -0.8333
  446SOL    HW2 1338   2.796   1.429   1.122 -2.3362 -0.8280  1.3595
  447SOL     OW 1339   0.501   1.227   0.836  0.2585 -0.1996 -0.1287
  447SOL    HW1 1340   0.555   1.178   0.762  2.3278 -0.4063  0.3017
  447SOL    HW2 1341   0.493   1.327   0.823  1.6862  1.1626  1.6184
  448SOL     OW 1342   1.433   1.609   2.049  0.4561  0.1483  0.0157
  448SOL    HW1 1343   1.393   1.531   1.991  0.2906  1.2774 -2.0136
  448SOL    HW2 1344   1.530   1.582   2.076  1.7015 -0.5347  0.2729
  449SOL     OW 1345   1.185   1.411   3.126  0.4772 -0.0989  0.5770
  449SOL    HW1 1346   1.234   1.479   0.045  1.5979 -0.4713 -2.1765
  449SOL    HW2 1347   1.202   1.316   0.028  3.0599  0.4621 -1.4086
  450SOL     OW 1348   2.788   2.581   2.161 -0.2919  0.1252  0.1461
  450SOL    HW1 1349   2.870   2.627   2.199 -1.2539  0.5441  1.2058
  450SOL    HW2 1350   2.734   2.632   2.089 -1.0188 -3.9681  1.0381
  451SOL     OW 1351   2.251   0.191   2.490  0.2492 -0.4874 -0.1663
  451SOL    HW1 1352   2.273   0.132   2.412 -1.7689  4.0897  0.1747
  451SOL    HW2 1353   2.277   0.152   2.580  0.1537  1.5185 -1.5346
  452SOL     OW 1354   1.754   0.306   1.038 -1.0828  0.0657  0.0785
  452SOL    HW1 1355   1.660   0.325   1.068  0.3728  3.7163  1.4095
  452SOL    HW2 1356   1.817   0.323   1.113 -3.8011 -1.7460 -1.2350
  453SOL     OW 1357   1.656   0.971   1.344 -0.3708 -0.4102  0.6331
  453SOL    HW1 1358   1.717   0.938   1.416 -1.1480 -0.3855  0.7410
  453SOL    HW2 1359   1.660   1.073   1.323  0.4293 -1.3115 -1.6561
  454SOL     OW 1360   3.001   1.537   0.425 -0.0233  0.6284 -0.4504
  454SOL    HW1 1361   3.081   1.479   0.448 -3.1895 -0.5312  1.0026
  454SOL    HW2 1362   2.969   1.574   0.513  0.9422 -0.0530  0.4235
  455SOL     OW 1363   3.122   0.021   0.638  0.5815 -0.4637  0.3838
  455SOL    HW1 1364   0.004   0.069   0.548  1.3240 -1.3254 -0.4079
  455SOL    HW2 1365   3.062   3.073   0.630 -2.0655 -1.9061 -0.3236
  456SOL     OW 1366   0.120   2.727   1.257 -0.1682  0.1538  0.2692
  456SOL    HW1 1367   0.026   2.765   1.252 -0.8479  0.0904  0.8544
  456SOL    HW2 1368   0.131   2.653   1.325 -3.1679  1.4000  2.1707
  457SOL     OW 1369   1.253   0.139   0.662  0.1110  0.8950  0.4247
  457SOL    HW1 1370   1.221   0.041   0.670  0.7311 -3.3242 -2.2032
  457SOL    HW2 1371   1.352   0.160   0.681  1.2972  2.6463  0.6957
  458SOL     OW 1372   2.575   0.176   0.819  0.2429  0.3939  0.3072
  458SOL    HW1 1373   2.557   0.180   0.923 -1.7064  1.9405  1.3148
  458SOL    HW2 1374   2.570   0.084   0.779 -0.2090 -1.5630 -2.0877
  459SOL     OW 1375   2.364   0.515   2.706  0.3558  0.1618 -0.6085
  459SOL    HW1 1376   2.419   0.507   2.621 -2.0546  1.5795  0.4783
  459SOL    HW2 1377   2.395   0.442   2.767 -0.6690  0.2116 -2.2136
  460SOL     OW 1378   3.065   3.060   3.072 -0.4500 -0.7122  0.5408
  460SOL    HW1 1379   3.112   3.108   2.994 -0.5381  0.1660  1.2038
  460SOL    HW2 1380   2.971   3.100   3.082  0.8866  2.3291 -1.4514
  461SOL     OW 1381   1.041   1.821   0.563 -0.0319  0.2082 -0.6001
  461SOL    HW1 1382   1.102   1.868   0.632 -0.4706 -0.0080  0.5482
  461SOL    HW2 1383   0.955   1.868   0.544  2.2126  0.6422  3.2201
  462SOL     OW 1384   2.425   2.213   1.267 -0.1547  0.1624 -0.2173
  462SOL    HW1 1385   2.340   2.193   1.320  1.3363  2.2426 -0.2212
  462SOL    HW2 1386   2.457   2.129   1.224  0.1869  0.4347  0.9497
  463SOL     OW 1387   2.556   1.048   0.536 -0.7225  0.4042  0.0769
  463SOL    HW1 1388   2.476   1.097   0.502  2.4099 -1.4879  1.1951
  463SOL    HW2 1389   2.589   0.971   0.476 -1.3229 -3.6218 -1.9701
  464SOL     OW 1390   0.329   3.075   1.390 -0.3528  0.3204  0.4667
  464SOL    HW1 1391   0.341   3.069   1.287  1.3733 -1.8392 -0.8628
  464SOL    HW2 1392   0.398   3.028   1.440 -0.1607  3.1620 -2.5002
  465SOL     OW 1393   3.051   1.536   0.023 -0.6728 -0.1438  0.2871
  465SOL    HW1 1394   2.949   1.551   0.041 -1.0084  3.1309 -3.3352
  465SOL    HW2 1395   3.069   1.462   3.084  0.0345  0.4097 -1.5747
  466SOL     OW 1396   1.739   0.076   2.961 -0.4201 -0.0231 -0.2011
  466SOL    HW1 1397   1.807   0.150   2.965  0.8740 -0.5199 -0.5502
  466SOL    HW2 1398   1.710   0.053   3.055  2.2150  0.2538 -4.4983
  467SOL     OW 1399   0.890   0.511   1.730  0.6985  0.1839 -0.1748
  467SOL    HW1 1400   0.983   0.480   1.721  1.2935  0.7059  0.2399
  467SOL    HW2 1401   0.885   0.611   1.745  1.4843  0.3865 -0.4940
  468SOL     OW 1402   0.551   1.060   2.555 -0.1415 -0.5737  0.2688
  468SOL    HW1 1403   0.643   1.100   2.539  1.4400  2.5424  0.1805
  468SOL    HW2 1404   0.551   0.957   2.560 -0.7873 -0.8962 -1.1970
  469SOL     OW 1405   0.088   2.254   0.058 -0.1455  0.0830  0.0961
  469SOL    HW1 1406   0.073   2.352   0.074 -0.0689  2.4802  1.7062
  469SOL    HW2 1407   0.005   2.204   0.087 -0.2272  0.9123 -0.1244
  470SOL     OW 1408   2.334   1.784   2.610 -0.0863  0.0359  0.2110
  470SOL    HW1 1409   2.422   1.732   2.615  0.0722 -0.0929 -0.3478
  470SOL    HW2 1410   2.352   1.884   2.619 -1.4939 -1.4133  2.9376
  471SOL     OW 1411   2.480   1.001   2.198 -0.2077  0.3457  0.1754
  471SOL    HW1 1412   2.494   0.947   2.283  2.1481 -0.3765 -1.2471
  471SOL    HW2 1413   2.571   1.028   2.161 -1.9425 -1.5442  0.1712
  472SOL     OW 1414   0.351   2.686   0.676 -0.2618 -0.0994  0.3694
  472SOL    HW1 1415   0.322   2.712   0.583 -2.9912 -0.0198  0.9557
  472SOL    HW2 1416   0.411   2.759   0.720  1.8735  2.7453  0.1740
  473SOL     OW 1417   0.613   3.116   3.106  0.2491  0.4356 -0.4408
  473SOL    HW1 1418   0.700   3.094   0.018 -2.1409  0.8204  1.5762
  473SOL    HW2 1419   0.589   0.082   3.102  1.9682  1.3853  0.0791
  474SOL     OW 1420   1.715   0.061   2.554 -0.5376  1.2904  0.0633
  474SOL    HW1 1421   1.626   0.060   2.603  0.7827 -0.5608 -3.4006
  474SOL    HW2 1422   1.702   0.049   2.457  0.5881 -1.2268  1.3746
  475SOL     OW 1423   1.706   2.489   0.495  0.0995 -0.0622 -0.5375
  475SOL    HW1 1424   1.688   2.415   0.425  0.0386 -1.0155  1.0159
  475SOL    HW2 1425   1.786   2.545   0.470  1.3270 -1.2149 -0.2157
  476SOL     OW 1426   0.013   0.442   0.978 -0.6214  0.1732  0.2715
  476SOL    HW1 1427   0.065   0.523   1.012  0.3810 -0.6908 -1.0746
  476SOL    HW2 1428   0.039   0.360   1.039  0.7725  1.0148  0.0878
  477SOL     OW 1429   1.458   2.283   0.745  0.0476 -0.8342  0.0328
  477SOL    HW1 1430   1.530   2.215   0.721 -1.0920 -0.7655 -0.5662
  477SOL    HW2 1431   1.370   2.264   0.701 -1.0696 -0.2247 -1.6929
  478SOL     OW 1432   0.202   2.346   2.526  0.0156 -0.4034  0.0907
  478SOL    HW1 1433   0.239   2.259   2.570 -0.3855 -3.1414  1.0218
  478SOL    HW2 1434   0.218   2.354   2.428 -0.0634 -1.3631  1.7423
  479SOL     OW 1435   2.440   0.602   0.894 -0.0950  0.0420  0.7957
  479SOL    HW1 1436   2.522   0.599   0.832  1.2550 -1.6727  1.0699
  479SOL    HW2 1437   2.477   0.596   0.992  1.0798 -0.2656 -2.2529
  480SOL     OW 1438   3.104   2.873   0.238 -0.2031  0.0002  0.3970
  480SOL    HW1 1439   3.043   2.956   0.231  0.6332  0.8489 -0.7909
  480SOL    HW2 1440   0.058   2.892   0.195 -0.4660 -0.9117  2.7878
  481SOL     OW 1441   2.736   2.503   1.099 -0.3961  0.1428 -0.2968
  481SOL    HW1 1442   2.827   2.496   1.138 -0.8328  0.3977 -0.9289
  481SOL    HW2 1443   2.669   2.535   1.172 -1.0806  1.2687  1.6735
  482SOL     OW 1444   1.079   2.389   2.597  0.3921 -0.8091 -0.0349
  482SOL    HW1 1445   1.181   2.404   2.587  0.8468  0.1194  0.0598
  482SOL    HW2 1446   1.030   2.468   2.643  1.1620  0.6902  1.8702
  483SOL     OW 1447   0.588   2.048   2.708  0.1368  0.6994 -0.3853
  483SOL    HW1 1448   0.595   1.989   2.787  0.6873  1.0147 -3.0780
  483SOL    HW2 1449   0.628   2.140   2.728  1.8876 -2.6831 -0.0038
  484SOL     OW 1450   1.025   1.006   1.199  0.8057 -0.1842 -0.4944
  484SOL    HW1 1451   1.088   0.930   1.174  0.2606 -0.7351  0.2041
  484SOL    HW2 1452   1.000   1.011   1.296  1.3895  0.5700 -0.1529
  485SOL     OW 1453   2.381   0.593   0.331 -0.3886  0.2913  0.4422
  485SOL    HW1 1454   2.309   0.622   0.395 -2.3341  1.2093 -0.7354
  485SOL    HW2 1455   2.372   0.626   0.232  0.8751  0.2530 -1.6292
  486SOL     OW 1456   2.030   2.981   1.390  0.0421  0.6536 -0.3622
  486SOL    HW1 1457   1.958   2.934   1.454 -2.8228 -1.7339  3.8179
  486SOL    HW2 1458   2.030   3.085   1.397  1.2990  2.9289  2.0931
  487SOL     OW 1459   0.273   2.297   1.227 -0.2390  0.5749 -0.4660
  487SOL    HW1 1460   0.264   2.274   1.326 -0.3954 -0.2122  0.1689
  487SOL    HW2 1461   0.237   2.386   1.205  1.2999 -1.7296 -3.9326
  488SOL     OW 1462   2.747   0.967   0.098 -0.2164 -0.0778  0.3448
  488SOL    HW1 1463   2.648   0.984   0.077  0.5195 -0.3352 -3.8545
  488SOL    HW2 1464   2.791   0.902   0.036 -1.0084  0.2314  0.5899
  489SOL     OW 1465   1.770   0.017   1.013 -0.2498  0.0166  0.0579
  489SOL    HW1 1466   1.864   3.120   1.029 -1.5255 -0.6790 -0.8594
  489SOL    HW2 1467   1.763   0.117   1.032  1.4664 -0.4747 -1.5309
  490SOL     OW 1468   0.775   0.595   0.450 -0.2193  0.4151 -0.1625
  490SOL    HW1 1469   0.675   0.589   0.449  2.2550  0.5059 -1.8785
  490SOL    HW2 1470   0.804   0.681   0.406  0.4141 -0.6538  1.6378
  491SOL     OW 1471   0.454   2.401   0.710 -0.0329 -0.2638 -0.1152
  491SOL    HW1 1472   0.531   2.410   0.643  1.3453  1.1419  1.5419
  491SOL    HW2 1473   0.401   2.487   0.710 -0.0641 -2.0260 -1.6140
  492SOL     OW 1474   1.246   1.495   2.416 -0.3502  0.3626  0.5372
  492SOL    HW1 1475   1.347   1.483   2.424 -0.2819  3.0224  1.8183
  492SOL    HW2 1476   1.222   1.563   2.343 -1.9303 -1.2032  2.0098
  493SOL     OW 1477   0.038   2.827   1.005  0.1660 -0.1760  0.2517
  493SOL    HW1 1478   3.073   2.808   1.007 -1.7766 -2.2178  0.8818
  493SOL    HW2 1479   0.081   2.783   1.085 -0.2503  0.9752 -1.7788
  494SOL     OW 1480   2.899   2.115   0.134 -0.2507 -0.1287 -0.1343
  494SOL    HW1 1481   2.834   2.066   0.199 -1.2785 -2.1940  3.7921
  494SOL    HW2 1482   2.935   2.055   0.061 -2.0335  1.0240 -0.0561
  495SOL     OW 1483   2.717   1.837   2.889 -0.0091 -0.6090  0.2835
  495SOL    HW1 1484   2.666   1.886   2.821  0.2612 -0.6421  1.6197
  495SOL    HW2 1485   2.696   1.740   2.874  0.5754  0.1044  1.8233
  496SOL     OW 1486   2.815   0.039   1.561  0.2089 -0.1997  0.3606
  496SOL    HW1 1487   2.853   0.085   1.479  1.7859  1.2884  0.3693
  496SOL    HW2 1488   2.720   0.071   1.592 -2.0451  0.1800  1.1146
  497SOL     OW 1489   2.904   1.087   3.027 -0.4737 -0.0753 -0.4375
  497SOL    HW1 1490   2.853   1.065   2.944  1.9357  0.8878  0.4448
  497SOL    HW2 1491   2.844   1.072   3.108 -0.7037  0.9877  0.3908
  498SOL     OW 1492   3.109   1.964   2.189  0.0748  0.1116 -0.0320
  498SOL    HW1 1493   3.084   2.058   2.174 -1.9172 -2.5155  1.2487
  498SOL    HW2 1494   0.002   1.950   2.290  1.0388  0.8877  4.8290
  499SOL     OW 1495   0.983   2.231   2.825  0.2595  0.0162 -0.4039
  499SOL    HW1 1496   1.027   2.150   2.867 -0.0429 -1.4952 -0.9290
  499SOL    HW2 1497   1.050   2.275   2.761  1.2224  1.3095  1.4200
  500SOL     OW 1498   1.594   0.027   0.070 -0.2555 -0.1211 -0.2539
  500SOL    HW1 1499   1.584   3.063   0.079 -2.1564  2.1796 -1.4561
  500SOL    HW2 1500   1.581   0.073   0.162 -3.6254  2.4316 -1.5973
  501SOL     OW 1501   1.649   3.114   1.519 -0.4342  0.3920  0.2228
  501SOL    HW1 1502   1.743   3.120   1.565  3.0503 -3.4865  1.9474
  501SOL    HW2 1503   1.602   0.072   1.522 -0.7605 -1.4585 -0.7691
  502SOL     OW 1504   2.753   0.722   2.147 -0.3744 -0.7254  0.2251
  502SOL    HW1 1505   2.765   0.797   2.220  1.3634  2.2531  1.6034
  502SOL    HW2 1506   2.737   0.627   2.180 -0.6389 -1.7425  0.2633
  503SOL     OW 1507   2.127   2.308   2.196 -0.7344 -0.7142 -0.3434
  503SOL    HW1 1508   2.103   2.325   2.295  0.5173 -3.2320  1.7625
  503SOL    HW2 1509   2.190   2.385   2.166  2.8124  2.2248  1.5325
  504SOL     OW 1510   1.503   0.664   1.618  0.2156  0.1631  0.1855
  504SOL    HW1 1511   1.596   0.626   1.626 -3.3589 -2.3798  2.4839
  504SOL    HW2 1512   1.477   0.710   1.708 -1.4305 -1.8830 -0.5534
  505SOL     OW 1513   0.774   1.112   1.304 -0.2584  0.6388  0.1716
  505SOL    HW1 1514   0.844   1.056   1.355 -0.9928  2.2106  0.7617
  505SOL    HW2 1515   0.801   1.151   1.212  1.3736  1.3752 -2.5136
  506SOL     OW 1516   0.347   0.513   2.374  0.1608 -0.3315 -0.6396
  506SOL    HW1 1517   0.328   0.445   2.299 -2.2903 -0.8325 -1.2787
  506SOL    HW2 1518   0.355   0.471   2.468 -0.7629  0.2187 -2.7693
  507SOL     OW 1519   0.212   2.940   0.175  0.1455  0.3163  0.4116
  507SOL    HW1 1520   0.281   2.915   0.106 -0.4793 -1.6896  2.6743
  507SOL    HW2 1521   0.204   3.041   0.180  1.9041  0.1953  0.1415
  508SOL     OW 1522   1.218   0.925   1.523 -0.0153  0.3098  0.4997
  508SOL    HW1 1523   1.235   0.839   1.575  1.4087 -0.4472  1.6144
  508SOL    HW2 1524   1.279   1.004   1.553  1.7763  1.1022 -0.4892
  509SOL     OW 1525   1.206   2.169   1.183  0.4363 -0.2725  0.0199
  509SOL    HW1 1526   1.148   2.114   1.238  1.0706  2.4648 -2.5515
  509SOL    HW2 1527   1.209   2.261   1.221 -0.2417 -0.9364 -3.7806
  510SOL     OW 1528   2.385   1.269   2.213  0.0018 -0.0569 -0.6941
  510SOL    HW1 1529   2.284   1.276   2.223 -2.4212 -0.5182  0.7279
  510SOL    HW2 1530   2.416   1.173   2.198  3.7294 -1.1937  1.3913
  511SOL     OW 1531   0.845   1.957   1.102  0.7744  0.4291  0.1071
  511SOL    HW1 1532   0.764   1.990   1.046 -2.8112  0.3226 -0.0939
  511SOL    HW2 1533   0.814   1.876   1.157 -1.6132 -1.4922 -0.8740
  512SOL     OW 1534   2.609   2.057   0.511  0.4686 -0.1743 -0.1592
  512SOL    HW1 1535   2.587   2.157   0.507 -0.4055 -1.5758  0.9301
  512SOL    HW2 1536   2.533   2.013   0.557 -0.4139  1.3348 -0.3686
  513SOL     OW 1537   3.093   1.687   2.556  0.3504  0.4975 -0.1957
  513SOL    HW1 1538   0.037   1.688   2.487 -4.0162 -2.5822 -3.2510
  513SOL    HW2 1539   3.103   1.605   2.618 -0.2344 -0.5475  1.3684
  514SOL     OW 1540   2.983   2.674   2.445 -0.3287 -0.6748 -0.6475
  514SOL    HW1 1541   2.994   2.578   2.468 -0.6278  0.9578 -1.6064
  514SOL    HW2 1542   3.013   2.687   2.348  0.0356  0.2055 -0.1228
  515SOL     OW 1543   2.438   1.134   1.476 -0.3785  0.4730 -0.0664
  515SOL    HW1 1544   2.344   1.119   1.439 -1.4779 -0.7008  0.5066
  515SOL    HW2 1545   2.449   1.225   1.516  0.5380 -0.6463 -2.0795
  516SOL     OW 1546   2.329   2.265   0.009  0.1069  0.4155 -0.7148
  516SOL    HW1 1547   2.237   2.233   0.044 -3.2093 -0.2088  4.1386
  516SOL    HW2 1548   2.368   2.200   3.071 -1.7946  0.5151 -0.2788
  517SOL     OW 1549   1.397   0.897   0.011  0.0453 -0.2299 -0.3252
  517SOL    HW1 1550   1.492   0.898   0.048  2.3608  0.8094 -0.5127
  517SOL    HW2 1551   1.388   0.828   3.070 -2.0916  1.5666 -0.1349
  518SOL     OW 1552   3.006   0.102   2.259 -0.4800  0.2562 -0.4960
  518SOL    HW1 1553   3.096   0.135   2.287 -1.3748 -1.5822 -1.8404
  518SOL    HW2 1554   2.933   0.138   2.322  2.0018 -1.7013  0.8051
  519SOL     OW 1555   1.216   1.730   2.249 -0.2357 -0.1787  0.0605
  519SOL    HW1 1556   1.264   1.708   2.167 -0.4475  1.0244  0.9149
  519SOL    HW2 1557   1.164   1.818   2.238 -1.8381  1.7234  0.3273
  520SOL     OW 1558   2.803   3.097   2.485  0.0409 -0.3137 -0.3011
  520SOL    HW1 1559   2.801   3.001   2.451  1.1415  0.7431  1.1000
  520SOL    HW2 1560   2.873   3.115   2.555  0.2806 -0.2284 -2.7060
  521SOL     OW 1561   0.187   1.530   2.036  0.3148 -0.2184  0.5145
  521SOL    HW1 1562   0.257   1.537   2.111  1.5416  0.2367 -2.7754
  521SOL    HW2 1563   0.090   1.545   2.067  0.2682  1.5925 -0.2837
  522SOL     OW 1564   1.005   2.947   1.796  0.3171 -1.5493  0.2152
  522SOL    HW1 1565   1.027   2.935   1.698 -0.9665 -0.7866 -0.5509
  522SOL    HW2 1566   0.907   2.983   1.805 -3.2433  2.5494 -1.3841
  523SOL     OW 1567   0.143   2.480   1.385  0.0770  0.5407  0.1127
  523SOL    HW1 1568   0.190   2.402   1.430 -1.5080 -0.8753  3.2561
  523SOL    HW2 1569   0.045   2.469   1.378 -2.4297 -2.0507 -3.5123
  524SOL     OW 1570   1.429   2.544   0.563  0.2135  0.0266  0.4073
  524SOL    HW1 1571   1.532   2.552   0.562 -2.3419  1.3389 -0.6336
  524SOL    HW2 1572   1.388   2.494   0.642 -1.2419 -1.8618  0.0876
  525SOL     OW 1573   2.542   0.998   0.931 -0.8019 -0.1846  0.5806
  525SOL    HW1 1574   2.556   1.065   1.005  0.3140 -0.9096 -1.1318
  525SOL    HW2 1575   2.447   0.962   0.932 -2.9252 -0.6205 -0.4461
  526SOL     OW 1576   1.009   2.242   0.647 -0.1925  0.2027  0.3810
  526SOL    HW1 1577   0.968   2.275   0.561 -0.0770 -0.9519 -0.8489
  526SOL    HW2 1578   1.109   2.215   0.635 -1.2817 -1.1865  0.6187
  527SOL     OW 1579   2.668   2.158   0.949 -0.0357 -0.3061  0.1531
  527SOL    HW1 1580   2.717   2.112   0.873 -0.2012 -0.0773 -0.1642
  527SOL    HW2 1581   2.643   2.251   0.911  0.5696 -1.2655 -1.0932
  528SOL     OW 1582   2.292   0.653   0.059 -0.6488 -0.0083 -0.1666
  528SOL    HW1 1583   2.364   0.679   3.129  1.0707  0.3579  2.1771
  528SOL    HW2 1584   2.234   0.581   0.016  0.2996  0.6086 -1.6523
  529SOL     OW 1585   1.045   1.030   1.898 -0.0867  0.1211  0.0595
  529SOL    HW1 1586   0.954   1.074   1.905  1.9978  0.8005 -0.5336
  529SOL    HW2 1587   1.112   1.100   1.861  1.2912  3.0192  0.3297
  530SOL     OW 1588   2.649   1.074   2.563  0.2247  0.0191 -0.0245
  530SOL    HW1 1589   2.721   1.118   2.502  1.8749 -0.3719  1.7641
  530SOL    HW2 1590   2.609   0.990   2.515 -1.5423 -3.2798 -1.8102
  531SOL     OW 1591   1.137   0.939   0.039 -0.8737  0.4719  0.3272
  531SOL    HW1 1592   1.235   0.906   0.045  2.8641  0.9548  1.8857
  531SOL    HW2 1593   1.097   0.945   0.131  0.4625 -1.1635  0.9025
  532SOL     OW 1594   2.015   0.944   0.690 -0.3334 -0.0123  0.2763
  532SOL    HW1 1595   1.997   0.849   0.715  0.6608  0.2023  2.6836
  532SOL    HW2 1596   2.117   0.960   0.683  0.4681  0.5436  4.5851
  533SOL     OW 1597   0.461   0.714   2.174 -0.0659  0.1270 -0.0618
  533SOL    HW1 1598   0.361   0.736   2.160  1.3462 -0.3968  1.3080
  533SOL    HW2 1599   0.476   0.646   2.246  1.9826  0.9356 -0.1680
  534SOL     OW 1600   1.541   0.027   2.778 -0.1543 -0.1559 -0.3910
  534SOL    HW1 1601   1.617   0.054   2.843 -1.1621 -2.5104 -0.4633
  534SOL    HW2 1602   1.489   3.086   2.821 -0.6856  0.6556 -0.2776
  535SOL     OW 1603   0.818   0.129   0.417 -0.3256 -0.2283  0.1380
  535SOL    HW1 1604   0.823   0.135   0.521 -0.1142 -1.7891 -2.0368
  535SOL    HW2 1605   0.902   0.083   0.381  2.2064 -0.4808 -0.9458
  536SOL     OW 1606   1.028   0.032   1.014  0.2483 -0.1249  0.3310
  536SOL    HW1 1607   1.111   0.072   1.047  0.5600 -3.4780  0.7099
  536SOL    HW2 1608   1.032   0.008   0.915 -0.9145  1.2441  1.4706
  537SOL     OW 1609   1.465   2.946   1.899 -0.3351 -0.0353  0.1029
  537SOL    HW1 1610   1.473   2.903   1.994  5.1851 -0.7029  1.4181
  537SOL    HW2 1611   1.559   2.969   1.865 -0.3054  3.1877  0.2065
  538SOL     OW 1612   0.399   2.822   2.901 -0.7230 -0.3173  0.2153
  538SOL    HW1 1613   0.431   2.730   2.865  1.4768 -0.3203  0.0774
  538SOL    HW2 1614   0.369   2.875   2.823 -1.6723 -1.1334 -0.2213
  539SOL     OW 1615   2.999   1.622   1.746  0.4065 -0.9598  0.0066
  539SOL    HW1 1616   3.033   1.719   1.727  0.1891  1.0309  1.2926
  539SOL    HW2 1617   2.934   1.622   1.823 -3.9610  0.6399 -1.9499
  540SOL     OW 1618   2.479   2.394   2.284 -0.2313  0.3401 -0.6318
  540SOL    HW1 1619   2.428   2.460   2.228 -1.1086  1.0653  1.2258
  540SOL    HW2 1620   2.558   2.370   2.229 -3.7093  0.7265 -2.9768
  541SOL     OW 1621   0.101   3.067   1.562  0.1251  0.5516 -0.0826
  541SOL    HW1 1622   0.145   3.057   1.648  0.8788 -3.9026 -2.1020
  541SOL    HW2 1623   0.173   3.053   1.491  2.8039 -0.0357  1.8918
  542SOL     OW 1624   3.000   0.468   2.163 -0.1880 -0.0670  0.2196
  542SOL    HW1 1625   3.022   0.562   2.133 -0.0872 -1.3709 -0.1854
  542SOL    HW2 1626   3.051   0.395   2.110  1.4753 -0.6144 -2.0995
  543SOL     OW 1627   0.714   0.394   1.040  0.3616  0.3808  0.0571
  543SOL    HW1 1628   0.803   0.434   1.013  0.7122  0.5634 -2.3761
  543SOL    HW2 1629   0.642   0.468   1.029 -0.8965  3.3226  1.7195
  544SOL     OW 1630   2.194   2.154   1.432 -0.2647 -0.1053 -0.1559
  544SOL    HW1 1631   2.155   2.076   1.372 -0.2190  0.7386  1.4258
  544SOL    HW2 1632   2.119   2.222   1.450  2.5846 -0.9699 -1.1648
  545SOL     OW 1633   1.208   1.450   0.776  0.7954  0.1856  0.0992
  545SOL    HW1 1634   1.164   1.357   0.752 -0.8067  0.6276 -0.8367
  545SOL    HW2 1635   1.195   1.469   0.875  0.6077  3.8982 -4.1038
  546SOL     OW 1636   2.736   0.425   2.244 -0.0588  0.0396 -0.5539
  546SOL    HW1 1637   2.720   0.327   2.279 -0.0570 -1.1949  1.1273
  546SOL    HW2 1638   2.825   0.431   2.190 -1.1002 -1.8509  0.2570
  547SOL     OW 1639   2.907   0.436   2.920  0.3819  0.1248 -0.0066
  547SOL    HW1 1640   2.864   0.430   2.827 -0.4316  2.3904 -1.4049
  547SOL    HW2 1641   3.004   0.466   2.914 -1.3208 -1.5265  1.6771
  548SOL     OW 1642   2.391   2.063   2.656  0.6967 -0.3543  0.0034
  548SOL    HW1 1643   2.483   2.109   2.679  3.1667  0.5470 -1.8463
  548SOL    HW2 1644   2.349   2.093   2.568  2.1470 -1.8458 -2.3018
  549SOL     OW 1645   2.198   0.546   0.777  0.5498  0.4385 -0.4794
  549SOL    HW1 1646   2.120   0.604   0.810 -0.7307 -1.3623  2.5178
  549SOL    HW2 1647   2.281   0.566   0.828  0.8838  0.7006 -2.8632
  550SOL     OW 1648   2.625   1.447   0.414  0.2725  0.4373  0.0756
  550SOL    HW1 1649   2.544   1.389   0.395  2.0199  0.1876 -0.6179
  550SOL    HW2 1650   2.705   1.407   0.369 -1.9067  0.7850 -0.4455
  551SOL     OW 1651   1.466   2.665   1.367  0.6924 -0.0200  0.1190
  551SOL    HW1 1652   1.397   2.654   1.291 -3.7932  0.6325 -1.4550
  551SOL    HW2 1653   1.465   2.754   1.411 -0.9293 -2.3657 -2.4902
  552SOL     OW 1654   2.456   2.402   2.546 -0.1025 -0.5438 -0.4906
  552SOL    HW1 1655   2.483   2.391   2.446  0.0927  2.9790 -1.3370
  552SOL    HW2 1656   2.371   2.458   2.552 -1.6739 -1.6948 -1.2388
  553SOL     OW 1657   0.731   2.828   0.565  0.1647 -0.7402 -0.0094
  553SOL    HW1 1658   0.664   2.869   0.627 -3.1926 -1.4583  1.2687
  553SOL    HW2 1659   0.681   2.813   0.477  2.7657  2.9576  1.9841
  554SOL     OW 1660   1.913   2.520   1.795  0.4897 -0.0409  0.0113
  554SOL    HW1 1661   1.833   2.508   1.734 -1.8637 -0.9299 -0.4383
  554SOL    HW2 1662   1.899   2.486   1.891 -1.8077  0.5551 -0.0202
  555SOL     OW 1663   1.492   2.483   2.074  0.0137 -0.1094  0.1041
  555SOL    HW1 1664   1.526   2.393   2.046 -2.5543 -1.1952 -1.3439
  555SOL    HW2 1665   1.511   2.546   1.996  1.2802 -2.6495 -1.1906
  556SOL     OW 1666   1.321   0.650   0.714  0.3844  0.3025  0.1083
  556SOL    HW1 1667   1.309   0.606   0.804 -4.5082  1.6284 -0.8026
  556SOL    HW2 1668   1.234   0.692   0.686 -1.3161 -0.2895  1.4137
  557SOL     OW 1669   0.929   2.181   1.767 -0.1741 -0.5060  0.3088
  557SOL    HW1 1670   0.910   2.263   1.703  0.0390  1.5665 -1.2080
  557SOL    HW2 1671   0.946   2.213   1.865  0.2352  0.5148 -1.2439
  558SOL     OW 1672   2.959   1.427   2.368  0.8407  0.4662  0.5574
  558SOL    HW1 1673   2.882   1.434   2.438 -0.5054 -0.3877  0.0077
  558SOL    HW2 1674   3.053   1.415   2.413  0.8267  1.3591  1.7830
  559SOL     OW 1675   2.277   2.536   2.108  0.3299 -0.5742 -0.0935
  559SOL    HW1 1676   2.322   2.545   2.018 -1.2743 -0.5823 -2.2608
  559SOL    HW2 1677   2.240   2.629   2.129  0.0878  0.9433 -0.2535
  560SOL     OW 1678   0.390   0.132   2.598  0.4367  0.1958  0.5490
  560SOL    HW1 1679   0.441   0.099   2.515  0.3264  1.5409 -0.0755
  560SOL    HW2 1680   0.398   0.065   2.677  2.0185 -0.9877  1.3623
  561SOL     OW 1681   1.235   0.700   0.411 -0.3521 -0.5178  0.3576
  561SOL    HW1 1682   1.332   0.679   0.385 -1.6648  0.5121 -1.2939
  561SOL    HW2 1683   1.171   0.679   0.336  1.3841 -0.8948  1.3956
  562SOL     OW 1684   0.862   1.222   1.639 -0.3854 -0.1870  0.4794
  562SOL    HW1 1685   0.806   1.278   1.572 -0.9981  1.5786 -0.7198
  562SOL    HW2 1686   0.847   1.253   1.737 -1.7301 -0.1873  3.5950
  563SOL     OW 1687   2.082   1.940   0.159 -0.0418  0.1640  0.7849
  563SOL    HW1 1688   2.113   1.850   0.118  0.3010  0.0035 -2.3403
  563SOL    HW2 1689   2.083   1.942   0.261  1.4349 -0.7671  1.1972
  564SOL     OW 1690   2.912   2.281   0.593  0.2407  0.0202 -0.2478
  564SOL    HW1 1691   2.863   2.202   0.639 -0.3632 -1.1389  1.7858
  564SOL    HW2 1692   2.977   2.245   0.523 -0.2038 -1.2703  1.0233
  565SOL     OW 1693   0.411   3.082   2.809  0.4247  0.2699  0.0800
  565SOL    HW1 1694   0.390   0.006   2.888 -2.5424  2.3791 -4.7050
  565SOL    HW2 1695   0.512   3.061   2.789  3.7632 -0.4474 -0.8570
  566SOL     OW 1696   1.312   2.697   2.883 -0.0059 -0.5904 -0.1281
  566SOL    HW1 1697   1.231   2.706   2.820 -1.6591 -1.4775  0.5100
  566SOL    HW2 1698   1.359   2.789   2.895  3.5999 -0.1856 -1.2729
  567SOL     OW 1699   2.111   1.946   1.287 -0.2934  0.1790 -0.1442
  567SOL    HW1 1700   2.183   1.906   1.230 -1.4572  3.0940  0.3298
  567SOL    HW2 1701   2.024   1.900   1.267  2.2121  0.2547  2.1613
  568SOL     OW 1702   1.903   0.906   2.823 -0.1058 -0.2529  0.1087
  568SOL    HW1 1703   1.925   0.806   2.835  0.0779  0.0669  0.6384
  568SOL    HW2 1704   1.960   0.972   2.872  3.0174  0.6319  0.0062
  569SOL     OW 1705   2.094   2.054   2.081  0.7769 -0.1266 -0.1218
  569SOL    HW1 1706   2.155   1.972   2.089 -2.1811  0.6267  0.0323
  569SOL    HW2 1707   2.115   2.125   2.151 -0.4315 -1.6797  1.7833
  570SOL     OW 1708   2.792   2.877   1.797 -0.5542 -0.0914  0.1616
  570SOL    HW1 1709   2.843   2.963   1.808 -2.2096  0.6005  1.3743
  570SOL    HW2 1710   2.856   2.800   1.811 -1.3033  1.0457 -0.7560
  571SOL     OW 1711   0.076   0.911   1.412 -0.6074  0.4429 -0.0850
  571SOL    HW1 1712   0.118   0.917   1.322 -1.0220 -1.4748  0.8622
  571SOL    HW2 1713   3.109   0.926   1.404 -0.7267  2.7435  1.7475
  572SOL     OW 1714   3.102   1.496   1.249  0.1071  1.0135 -0.7830
  572SOL    HW1 1715   3.073   1.421   1.185  0.7117 -0.3419  0.9568
  572SOL    HW2 1716   3.044   1.576   1.239  1.9442 -2.0040  1.0166
  573SOL     OW 1717   0.906   0.777   0.282 -0.0786  0.4365  0.5518
  573SOL    HW1 1718   0.807   0.801   0.270  0.3345 -3.2149  1.8146
  573SOL    HW2 1719   0.956   0.853   0.328  0.3051  0.3201 -1.3594
  574SOL     OW 1720   0.547   0.256   0.373  0.1646  0.5085 -0.2972
  574SOL    HW1 1721   0.626   0.211   0.415  0.3113  1.4408  1.4694
  574SOL    HW2 1722   0.456   0.205   0.386  0.7209 -0.4592  0.7524
  575SOL     OW 1723   0.912   2.431   0.832  0.0544  0.5093 -0.2070
  575SOL    HW1 1724   0.954   2.372   0.758  0.0019  0.6653  1.1341
  575SOL    HW2 1725   0.938   2.395   0.925  2.3456  1.3224  1.0265
  576SOL     OW 1726   3.011   2.848   1.252 -0.2313 -0.2076  0.1227
  576SOL    HW1 1727   2.917   2.849   1.211  0.7981  1.7072  0.3417
  576SOL    HW2 1728   3.011   2.864   1.348  0.9573  0.5242 -3.8633
  577SOL     OW 1729   2.685   1.848   2.027 -0.3379  0.9337  0.2268
  577SOL    HW1 1730   2.644   1.938   2.045  0.1982  2.4321 -1.0680
  577SOL    HW2 1731   2.724   1.852   1.935 -1.6444  0.0670  0.7699
  578SOL     OW 1732   1.181   0.201   2.862  0.2522  0.0569  0.1117
  578SOL    HW1 1733   1.237   0.185   2.777  0.6391 -0.5829  0.4973
  578SOL    HW2 1734   1.185   0.120   2.920  1.2825 -0.2395  0.4085
  579SOL     OW 1735   1.899   1.910   2.166 -0.1427  0.4823 -0.0329
  579SOL    HW1 1736   1.960   1.979   2.123  0.3593  0.3393  1.1338
  579SOL    HW2 1737   1.849   1.857   2.097 -1.3633 -1.2715 -1.7922
  580SOL     OW 1738   1.772   0.754   2.336 -0.3086 -0.0449 -0.4379
  580SOL    HW1 1739   1.831   0.727   2.257 -1.2618 -1.9209 -1.9132
  580SOL    HW2 1740   1.833   0.770   2.423  5.1792  2.8839  6.0592
  581SOL     OW 1741   0.885   1.393   2.122 -0.3706  0.4658  0.2247
  581SOL    HW1 1742   0.888   1.474   2.189 -1.5594  0.1179  1.5381
  581SOL    HW2 1743   0.884   1.305   2.172  1.0996  1.0624 -0.0459
  582SOL     OW 1744   0.064   2.674   1.947 -0.9597 -0.1051  0.1828
  582SOL    HW1 1745   0.152   2.650   1.995 -0.1361 -1.6241 -1.1795
  582SOL    HW2 1746   0.074   2.764   1.898  0.7479 -0.5375 -0.2880
  583SOL     OW 1747   1.561   1.277   1.474 -0.2677 -0.6678 -0.4797
  583SOL    HW1 1748   1.574   1.251   1.377  1.7550  0.1766  2.6765
  583SOL    HW2 1749   1.594   1.371   1.488  0.5493  0.9683  1.8432
  584SOL     OW 1750   1.234   2.077   2.648  0.2515 -0.4029  0.4592
  584SOL    HW1 1751   1.250   2.010   2.576 -0.5324 -1.4771  1.1526
  584SOL    HW2 1752   1.320   2.114   2.685 -0.7016  1.1848 -0.2571
  585SOL     OW 1753   0.240   2.556   0.303 -0.1718  0.8504  0.7564
  585SOL    HW1 1754   0.177   2.563   0.227 -1.4428  2.9375  2.5261
  585SOL    HW2 1755   0.213   2.479   0.360 -0.9011  1.4345 -1.1657
  586SOL     OW 1756   2.023   1.912   0.660 -0.4118  0.0074 -0.3813
  586SOL    HW1 1757   1.967   1.833   0.622  1.8105 -4.0590 -0.0716
  586SOL    HW2 1758   2.002   1.930   0.758 -1.0602 -0.1904  0.3975
  587SOL     OW 1759   2.777   2.034   0.731  0.5433 -0.5940 -0.2273
  587SOL    HW1 1760   2.844   1.956   0.752  0.2944 -1.5537  1.0573
  587SOL    HW2 1761   2.704   2.017   0.664  0.0190  0.3857  1.6912
  588SOL     OW 1762   2.265   0.315   1.186  0.4070  0.5247 -0.1279
  588SOL    HW1 1763   2.253   0.255   1.269  0.0204 -0.0632  0.8510
  588SOL    HW2 1764   2.202   0.289   1.110 -0.1049 -0.0625 -2.6929
  589SOL     OW 1765   0.871   0.748   0.930  0.2846  0.2022  0.2771
  589SOL    HW1 1766   0.959   0.791   0.948  0.6870  2.7255  1.5226
  589SOL    HW2 1767   0.875   0.646   0.922  0.2133 -1.2357 -1.8176
  590SOL     OW 1768   2.557   2.401   0.148 -0.1190 -0.0722 -0.2029
  590SOL    HW1 1769   2.490   2.345   0.098 -0.2012  0.9812 -1.8731
  590SOL    HW2 1770   2.650   2.383   0.109 -0.8068 -0.9725 -1.2915
  591SOL     OW 1771   0.642   2.298   1.824 -0.1785 -0.3464  0.1056
  591SOL    HW1 1772   0.622   2.201   1.834 -1.0230  1.8257 -2.0649
  591SOL    HW2 1773   0.628   2.318   1.725  0.4921  0.0322  2.9518
  592SOL     OW 1774   0.779   1.392   1.382 -0.3473 -0.3879 -0.0164
  592SOL    HW1 1775   0.867   1.446   1.360  1.0560  1.5944 -1.9202
  592SOL    HW2 1776   0.770   1.303   1.334 -0.3758 -1.0678 -0.9289
  593SOL     OW 1777   1.020   2.241   0.984  0.0739 -0.1324  0.0433
  593SOL    HW1 1778   1.047   2.202   0.894  0.8604  1.9480 -1.3425
  593SOL    HW2 1779   1.080   2.206   1.059 -1.7348 -2.1256 -1.1969
  594SOL     OW 1780   0.792   1.182   2.531 -0.5058 -0.2296 -0.3604
  594SOL    HW1 1781   0.863   1.135   2.584  1.4219 -0.1404 -1.6237
  594SOL    HW2 1782   0.784   1.280   2.558  1.0873 -1.4666 -1.0970
  595SOL     OW 1783   1.313   0.559   0.970  0.3705 -0.0975 -0.5196
  595SOL    HW1 1784   1.403   0.596   1.004 -0.5086 -0.8725 -0.1811
  595SOL    HW2 1785   1.238   0.586   1.033  2.0262  1.5771 -3.2853
  596SOL     OW 1786   0.243   1.148   0.911 -0.4446 -0.6134 -0.3151
  596SOL    HW1 1787   0.344   1.166   0.895  4.1004 -0.9858  0.1960
  596SOL    HW2 1788   0.203   1.090   0.837 -3.1550  2.9768  1.3351
  597SOL     OW 1789   0.144   2.142   2.876 -0.4021 -0.1641  0.4118
  597SOL    HW1 1790   0.050   2.138   2.843  1.1986 -0.1040 -0.1605
  597SOL    HW2 1791   0.137   2.197   2.958 -2.1154 -2.0666 -0.5545
  598SOL     OW 1792   1.990   2.116   2.584  0.6362  0.1184  0.1369
  598SOL    HW1 1793   1.964   2.032   2.526  0.1274 -4.4491 -2.2658
  598SOL    HW2 1794   1.984   2.101   2.682 -0.1611  0.6094 -2.1808
  599SOL     OW 1795   1.484   0.538   0.526 -0.0935 -0.5116  0.3094
  599SOL    HW1 1796   1.439   0.461   0.476  1.0254 -0.9603  0.7154
  599SOL    HW2 1797   1.417   0.576   0.589  0.5330  0.0687 -3.7878
  600SOL     OW 1798   0.998   2.893   0.430  0.5017 -0.7382 -0.0420
  600SOL    HW1 1799   0.927   2.843   0.478  1.7914 -0.0152 -0.3077
  600SOL    HW2 1800   1.087   2.872   0.469  0.5573  2.8670  2.9695
  601SOL     OW 1801   0.458   0.365   1.224  0.0789  0.3890 -0.1242
  601SOL    HW1 1802   0.466   0.408   1.133  2.7196 -1.5013  2.5637
  601SOL    HW2 1803   0.542   0.378   1.285 -1.8003  0.9758  2.6392
  602SOL     OW 1804   0.170   3.018   0.849  0.1590 -0.2153 -0.1142
  602SOL    HW1 1805   0.131   2.956   0.919  0.0877  0.5743  1.5537
  602SOL    HW2 1806   0.098   3.058   0.793  0.2946 -2.7475 -1.7295
  603SOL     OW 1807   0.767   2.676   2.556  0.1951 -0.0903  0.4191
  603SOL    HW1 1808   0.736   2.758   2.503 -0.8501 -1.3065 -1.1433
  603SOL    HW2 1809   0.694   2.656   2.629 -2.4169 -0.2579  1.7647
  604SOL     OW 1810   1.000   2.598   2.984  0.4016 -0.0812 -0.3058
  604SOL    HW1 1811   1.040   2.507   3.007 -1.5689  0.4991  0.3783
  604SOL    HW2 1812   0.984   2.603   2.882  0.4569  1.3718 -0.4192
  605SOL     OW 1813   0.959   1.032   1.474  0.0134 -0.5634  0.2346
  605SOL    HW1 1814   1.051   1.007   1.510  0.1916  0.7781 -1.6239
  605SOL    HW2 1815   0.909   1.100   1.537 -0.3099  1.1754 -1.5096
  606SOL     OW 1816   1.391   0.440   2.659  0.2245 -0.0539  0.5043
  606SOL    HW1 1817   1.373   0.425   2.763 -0.9770  0.7884  3.3194
  606SOL    HW2 1818   1.305   0.443   2.607  0.9986 -0.2880 -1.8730
  607SOL     OW 1819   0.110   1.162   1.147 -0.0900 -0.1500 -0.3772
  607SOL    HW1 1820   0.176   1.192   1.221  0.6801 -1.8325  1.0416
  607SOL    HW2 1821   0.149   1.184   1.056 -0.1811  1.1498  1.2974
  608SOL     OW 1822   2.919   2.313   2.320  0.4477 -0.5723  0.1537
  608SOL    HW1 1823   2.865   2.389   2.278  0.2807 -2.2553  0.3905
  608SOL    HW2 1824   2.968   2.344   2.401 -0.2783  0.2504  0.6613
  609SOL     OW 1825   1.903   0.291   0.135  0.2906  0.3288 -0.5800
  609SOL    HW1 1826   1.982   0.311   0.077 -0.6926 -1.8263  0.4210
  609SOL    HW2 1827   1.835   0.370   0.147  0.0979  1.0572  1.3633
  610SOL     OW 1828   0.943   2.828   0.899 -0.0215  0.8309  0.7221
  610SOL    HW1 1829   0.954   2.897   0.823  1.6405 -0.7387  2.5232
  610SOL    HW2 1830   1.013   2.838   0.970 -0.1354  0.0649 -0.7310
  611SOL     OW 1831   0.557   1.436   0.438  0.0988 -0.2888 -0.4613
  611SOL    HW1 1832   0.602   1.513   0.389 -0.9031 -0.0702  2.5235
  611SOL    HW2 1833   0.462   1.438   0.420  2.8048 -0.7549  4.2692
  612SOL     OW 1834   0.980   0.419   2.303 -0.2217  0.1543  0.5339
  612SOL    HW1 1835   0.877   0.424   2.310 -0.1589 -2.9156 -1.1560
  612SOL    HW2 1836   1.034   0.443   2.390  1.3612  2.1432  2.3199
  613SOL     OW 1837   2.395   1.284   0.370  0.2675  0.3315 -0.2335
  613SOL    HW1 1838   2.349   1.283   0.460 -1.7659 -1.8401  0.0823
  613SOL    HW2 1839   2.346   1.221   0.307  0.4587 -1.1795  1.5566
  614SOL     OW 1840   1.731   0.578   1.725 -0.5200  0.1773 -0.3313
  614SOL    HW1 1841   1.696   0.530   1.810 -2.9061  3.1784  0.7832
  614SOL    HW2 1842   1.802   0.651   1.748 -0.2664  0.6049 -1.3625
  615SOL     OW 1843   0.584   2.047   1.013  0.0265 -0.4147  0.0399
  615SOL    HW1 1844   0.508   1.993   0.972 -0.0829  1.6724  1.1330
  615SOL    HW2 1845   0.610   2.114   0.939 -1.2875 -0.2231  0.8630
  616SOL     OW 1846   1.614   1.007   2.498  0.3346 -0.0449  0.3466
  616SOL    HW1 1847   1.548   1.069   2.452  3.3853  0.0790  2.9559
  616SOL    HW2 1848   1.610   1.028   2.598  0.4766  4.4423 -0.3635
  617SOL     OW 1849   1.904   2.641   0.329 -0.6446 -0.0846 -0.0839
  617SOL    HW1 1850   1.831   2.695   0.280  2.9768  0.2572 -0.6356
  617SOL    HW2 1851   1.950   2.567   0.270 -0.6544  1.5502  0.4481
  618SOL     OW 1852   0.928   0.983   3.018 -0.2749  0.2807  0.3174
  618SOL    HW1 1853   0.854   1.000   3.087 -2.6752  1.5295 -1.0658
  618SOL    HW2 1854   1.014   0.969   3.069 -1.6072  1.3686 -0.5776
  619SOL     OW 1855   2.694   1.431   0.695 -0.5018  0.0419 -0.1666
  619SOL    HW1 1856   2.678   1.340   0.734  2.1431 -1.2343  0.4401
  619SOL    HW2 1857   2.681   1.440   0.591  0.0096  3.8155 -1.0649
  620SOL     OW 1858   2.456   2.818   2.988  0.2938 -0.4134 -0.0243
  620SOL    HW1 1859   2.356   2.801   2.983  1.1428 -0.2895  0.4282
  620SOL    HW2 1860   2.509   2.752   2.931 -1.0802 -0.7387  0.1014
  621SOL     OW 1861   2.252   1.108   0.217  0.2427  0.3788 -0.0971
  621SOL    HW1 1862   2.197   1.028   0.182  0.0987 -1.8378 -1.3423
  621SOL    HW2 1863   2.200   1.197   0.201 -2.1758 -0.9698  0.6954
  622SOL     OW 1864   1.000   2.131   2.475  0.0467 -0.0847 -0.3351
  622SOL    HW1 1865   1.014   2.128   2.576 -1.0308  1.5902  0.3241
  622SOL    HW2 1866   1.012   2.227   2.453  0.3229  0.7971 -0.4084
  623SOL     OW 1867   0.422   1.794   3.076 -0.1525  0.2386  0.0780
  623SOL    HW1 1868   0.332   1.772   3.039 -0.4780 -0.0028 -0.6789
  623SOL    HW2 1869   0.450   1.895   3.056 -1.0871  3.0771  2.4517
  624SOL     OW 1870   0.304   0.116   3.009  0.1496  0.1346 -0.2358
  624SOL    HW1 1871   0.361   0.201   3.017  2.5658  1.5593 -1.6138
  624SOL    HW2 1872   0.256   0.088   3.092  4.0758 -1.1421 -0.0366
  625SOL     OW 1873   0.778   1.971   0.229 -0.5098  0.0814  0.4505
  625SOL    HW1 1874   0.755   2.019   0.140  1.6875  2.4134 -1.2087
  625SOL    HW2 1875   0.729   1.999   0.308 -1.8146 -1.8733 -1.2547
  626SOL     OW 1876   2.593   0.263   0.123  0.1206  0.2592 -0.7501
  626SOL    HW1 1877   2.568   0.164   0.152 -0.5875 -2.6460  2.2465
  626SOL    HW2 1878   2.597   0.318   0.207 -0.4517 -1.1828 -1.8247
  627SOL     OW 1879   1.300   0.868   2.815 -0.6765 -0.4297 -0.0577
  627SOL    HW1 1880   1.238   0.939   2.785 -1.2030 -1.9492 -0.0223
  627SOL    HW2 1881   1.395   0.905   2.829 -0.0636 -0.4424 -0.7674
  628SOL     OW 1882   1.100   0.477   2.566  0.2871 -0.7287  0.2029
  628SOL    HW1 1883   1.068   0.444   2.653  0.6334 -2.4571 -1.9519
  628SOL    HW2 1884   1.152   0.566   2.569  2.6709 -0.6523  1.0490
  629SOL     OW 1885   0.250   3.090   1.786  0.5086 -0.6482 -0.4289
  629SOL    HW1 1886   0.329   3.072   1.849 -3.3803  2.9182 -0.9480
  629SOL    HW2 1887   0.241   0.052   1.762 -3.5909 -0.5521  0.0327
  630SOL     OW 1888   2.455   0.994   1.837 -0.3596 -0.0493  0.7296
  630SOL    HW1 1889   2.373   0.978   1.897 -2.1256  2.7610  0.7041
  630SOL    HW2 1890   2.494   0.911   1.787 -2.1042 -1.5972 -0.2433
  631SOL     OW 1891   2.326   1.246   0.663 -0.0345  0.0953 -0.9367
  631SOL    HW1 1892   2.381   1.289   0.736 -0.1114 -1.7536 -3.9762
  631SOL    HW2 1893   2.309   1.145   0.681 -0.6061 -2.0316  1.1044
  632SOL     OW 1894   2.563   0.477   1.711 -0.2714  0.3064  0.3770
  632SOL    HW1 1895   2.613   0.439   1.792 -2.1622  1.4546  0.1901
  632SOL    HW2 1896   2.576   0.415   1.630  0.4410 -2.0564 -1.4927
  633SOL     OW 1897   0.919   2.763   0.060 -0.0546 -0.7094  0.4528
  633SOL    HW1 1898   0.956   2.684   0.007  2.8983 -0.5483 -0.3653
  633SOL    HW2 1899   0.836   2.740   0.111  0.9555 -2.1233  2.6390
  634SOL     OW 1900   1.586   2.856   3.126  0.1620  0.3492  0.1450
  634SOL    HW1 1901   1.557   2.813   0.079 -0.6778 -0.6144 -0.8346
  634SOL    HW2 1902   1.686   2.842   3.112 -1.2776 -0.3263  2.5921
  635SOL     OW 1903   2.895   0.400   0.263 -0.2672  0.2033  0.3655
  635SOL    HW1 1904   2.911   0.469   0.189  0.7869  0.5730  1.2946
  635SOL    HW2 1905   2.799   0.399   0.302 -1.4453  2.3429  0.3480
  636SOL     OW 1906   0.559   1.685   0.816 -0.1858  0.5381 -0.1297
  636SOL    HW1 1907   0.651   1.734   0.817  0.6191 -0.4859  1.2832
  636SOL    HW2 1908   0.573   1.586   0.788 -0.6200  0.1954 -1.3068
  637SOL     OW 1909   0.297   2.801   0.406 -0.2046 -0.1927 -0.1796
  637SOL    HW1 1910   0.285   2.709   0.367 -2.4217  4.3747 -0.7620
  637SOL    HW2 1911   0.257   2.868   0.341  0.9608  2.3771  0.2583
  638SOL     OW 1912   2.998   2.740   0.438 -0.1091 -0.6978 -0.1435
  638SOL    HW1 1913   3.049   2.806   0.376 -1.3087  3.0714 -1.9877
  638SOL    HW2 1914   3.058   2.661   0.459  0.4355 -0.0722 -0.9266
  639SOL     OW 1915   1.242   1.435   0.353  0.4359 -0.7237  0.4707
  639SOL    HW1 1916   1.282   1.498   0.281 -1.1346  2.7386  2.1066
  639SOL    HW2 1917   1.221   1.488   0.439 -1.1590  0.0185  0.6490
  640SOL     OW 1918   1.422   2.425   0.986  0.4110 -0.1206  0.1074
  640SOL    HW1 1919   1.507   2.401   1.031 -1.6579 -1.2997 -2.8238
  640SOL    HW2 1920   1.441   2.402   0.888  0.0382  2.0913 -0.6990
  641SOL     OW 1921   2.950   2.723   0.878  0.2964 -0.0402  0.1470
  641SOL    HW1 1922   2.944   2.626   0.846  0.0126  3.4656  0.7643
  641SOL    HW2 1923   2.857   2.766   0.889 -0.0328 -3.2727  1.6579
  642SOL     OW 1924   0.800   3.087   1.924 -0.8472 -0.4611  0.3269
  642SOL    HW1 1925   0.873   3.117   1.989  1.3095  0.5019 -0.6244
  642SOL    HW2 1926   0.775   0.033   1.877 -0.2114 -3.3110  3.7520
  643SOL     OW 1927   0.771   2.307   2.495  0.3062 -0.4709  0.0092
  643SOL    HW1 1928   0.799   2.210   2.482  1.2347  0.1974 -1.4106
  643SOL    HW2 1929   0.747   2.324   2.592  2.1312 -0.5930 -0.0939
  644SOL     OW 1930   1.003   2.615   0.652  0.6985  0.0336 -0.5821
  644SOL    HW1 1931   0.975   2.557   0.733 -1.1065 -0.8617  0.3922
  644SOL    HW2 1932   0.933   2.685   0.634  4.5436 -2.6832  1.4611
  645SOL     OW 1933   1.329   1.424   1.884  0.2977  0.5072 -0.9860
  645SOL    HW1 1934   1.249   1.459   1.826 -1.7789 -1.1696 -1.4044
  645SOL    HW2 1935   1.321   1.323   1.901 -0.5413 -3.6390 -1.9026
  646SOL     OW 1936   0.542   1.196   0.083  0.2260 -0.2969 -0.3251
  646SOL    HW1 1937   0.454   1.153   0.048  0.8156 -0.8547  0.4543
  646SOL    HW2 1938   0.534   1.215   0.182 -0.2131  0.4307 -0.5311
  647SOL     OW 1939   1.502   0.209   0.707 -0.6830 -0.1526 -0.3339
  647SOL    HW1 1940   1.536   0.113   0.718  1.7426  0.2652 -1.1671
  647SOL    HW2 1941   1.577   0.260   0.662  0.6479  2.6631 -0.1502
  648SOL     OW 1942   2.561   2.748   1.575  0.3064 -0.5157 -0.1035
  648SOL    HW1 1943   2.479   2.706   1.616 -0.2060  0.2249 -0.0458
  648SOL    HW2 1944   2.558   2.726   1.478 -0.3020 -1.2124  2.5082
  649SOL     OW 1945   0.721   2.069   0.000 -0.0958 -0.3968  0.7168
  649SOL    HW1 1946   0.773   2.102   3.060 -2.7903  1.9435  0.9056
  649SOL    HW2 1947   0.620   2.065   3.109 -0.5191 -2.7150 -2.6534
  650SOL     OW 1948   2.994   2.286   1.567 -0.0201 -0.5127 -0.0034
  650SOL    HW1 1949   3.034   2.340   1.492  0.0633 -2.6707  1.8948
  650SOL    HW2 1950   2.900   2.322   1.592 -0.8890 -0.0024  2.3376
  651SOL     OW 1951   0.161   0.067   0.096  0.3905 -0.7695  0.0071
  651SOL    HW1 1952   0.099   3.120   0.074  0.0529 -1.9096 -0.8006
  651SOL    HW2 1953   0.114   0.156   0.088 -1.2871 -3.8305  0.8276
  652SOL     OW 1954   2.377   1.873   3.112  0.3109 -0.3914  0.4504
  652SOL    HW1 1955   2.367   1.955   3.043 -0.2791  4.9647  0.1090
  652SOL    HW2 1956   2.382   1.899   0.074  1.2414 -0.3904 -0.2544
  653SOL     OW 1957   0.287   0.255   0.848  0.3848 -0.2281 -0.6096
  653SOL    HW1 1958   0.266   0.314   0.926 -0.2986  0.1259 -2.7500
  653SOL    HW2 1959   0.322   0.167   0.881 -0.3375  1.7189 -1.7974
  654SOL     OW 1960   1.317   2.939   0.332 -0.5650 -0.1569  0.0659
  654SOL    HW1 1961   1.318   2.841   0.311  0.6644 -2.5639 -0.6632
  654SOL    HW2 1962   1.394   2.965   0.393 -1.0950 -1.3918  0.2455
  655SOL     OW 1963   0.763   2.894   1.151 -0.2074  0.4855  0.5528
  655SOL    HW1 1964   0.720   2.968   1.095  1.4937  0.5374  2.1783
  655SOL    HW2 1965   0.831   2.840   1.099 -0.6577  1.2766 -0.5882
  656SOL     OW 1966   0.366   3.095   2.074 -0.3948  0.3189  0.0016
  656SOL    HW1 1967   0.324   3.025   2.132  2.2496 -2.3869  0.1695
  656SOL    HW2 1968   0.440   3.046   2.018  1.9660 -3.1473 -1.4039
  657SOL     OW 1969   1.843   0.545   2.579 -0.4299 -0.0468  0.4064
  657SOL    HW1 1970   1.822   0.454   2.536 -0.9722 -0.9401  0.3244
  657SOL    HW2 1971   1.947   0.547   2.582  2.3626 -1.0828 -2.5939
  658SOL     OW 1972   2.201   1.577   1.259 -0.6004  0.6723  0.0128
  658SOL    HW1 1973   2.171   1.507   1.325 -1.0451  0.9265 -1.3182
  658SOL    HW2 1974   2.259   1.641   1.316  2.1625  0.5122  0.1074
  659SOL     OW 1975   2.891   2.786   3.043  0.3379  0.3289 -0.7516
  659SOL    HW1 1976   2.970   2.831   3.081 -1.4914 -1.6318 -0.8749
  659SOL    HW2 1977   2.822   2.782   3.124 -2.4458  0.6936  1.2944
  660SOL     OW 1978   1.376   0.635   0.156 -0.0325  0.0946  0.5040
  660SOL    HW1 1979   1.396   0.631   0.059 -2.7219 -0.0560  2.0984
  660SOL    HW2 1980   1.445   0.690   0.210 -1.2079 -0.4152 -1.3909
  661SOL     OW 1981   2.366   2.647   1.083 -0.1886 -0.0152  0.8585
  661SOL    HW1 1982   2.392   2.721   1.012 -1.2803  0.1939 -0.4627
  661SOL    HW2 1983   2.378   2.553   1.044  1.3843 -0.6031 -0.3524
  662SOL     OW 1984   0.572   0.612   0.685  0.3638 -0.4131 -0.5818
  662SOL    HW1 1985   0.606   0.520   0.706 -1.5665  0.6044  2.0103
  662SOL    HW2 1986   0.477   0.617   0.638 -2.3137  0.7214 -1.1605
  663SOL     OW 1987   1.344   2.536   2.533 -0.2024  0.2348  0.1796
  663SOL    HW1 1988   1.425   2.504   2.481  2.3816  0.2050 -0.6973
  663SOL    HW2 1989   1.274   2.568   2.472  1.3058  1.6135 -0.3763
  664SOL     OW 1990   0.587   2.393   1.342  0.1651 -0.0524  0.4566
  664SOL    HW1 1991   0.682   2.390   1.314 -0.4814  1.6066  1.2467
  664SOL    HW2 1992   0.530   2.453   1.280 -0.9222 -0.3087  0.6412
  665SOL     OW 1993   1.293   2.027   1.527 -0.4161  0.6758 -0.0219
  665SOL    HW1 1994   1.335   1.981   1.606  0.1036 -3.9359 -2.9627
  665SOL    HW2 1995   1.243   1.956   1.473 -0.4546 -0.8728 -2.2629
  666SOL     OW 1996   0.480   2.879   3.131 -0.1071  0.2401 -0.0357
  666SOL    HW1 1997   0.525   2.969   3.130 -4.0964 -3.0606 -1.0007
  666SOL    HW2 1998   0.458   2.845   3.036  0.5529 -0.1637  0.2261
  667SOL     OW 1999   1.801   1.605   1.387 -0.4691 -0.0038 -0.6280
  667SOL    HW1 2000   1.887   1.622   1.438  1.0419  1.0723 -0.4976
  667SOL    HW2 2001   1.721   1.592   1.446  0.4397 -2.7094  0.9465
  668SOL     OW 2002   0.752   0.194   2.319  0.4354  0.3111 -0.0854
  668SOL    HW1 2003   0.790   0.206   2.227  0.3240 -1.5969 -0.1091
  668SOL    HW2 2004   0.731   0.282   2.366  0.3924  0.3917  0.3327
  669SOL     OW 2005   2.434   2.529   1.864  0.0245  0.3972  0.3873
  669SOL    HW1 2006   2.366   2.504   1.790  1.2172  1.0934 -4.1192
  669SOL    HW2 2007   2.505   2.463   1.869  0.6735 -1.7340  0.7755
  670SOL     OW 2008   2.438   1.883   0.348 -0.7694  0.0035  0.3165
  670SOL    HW1 2009   2.456   1.984   0.354 -1.3493  1.9318 -1.0096
  670SOL    HW2 2010   2.367   1.862   0.415  2.3001  2.7002 -0.3820
  671SOL     OW 2011   1.391   1.130   1.254  0.1862 -0.3548 -0.3266
  671SOL    HW1 2012   1.378   1.030   1.260  1.9067  1.6145  1.4767
  671SOL    HW2 2013   1.487   1.146   1.232 -0.0858  2.9904 -4.9369
  672SOL     OW 2014   2.428   1.539   2.309  0.1985 -0.1948 -0.1927
  672SOL    HW1 2015   2.506   1.592   2.273 -2.7979  0.9047  1.2808
  672SOL    HW2 2016   2.442   1.443   2.281  0.4790 -1.5887  0.5753
  673SOL     OW 2017   2.640   1.688   2.246 -0.0378  0.0199  0.0484
  673SOL    HW1 2018   2.693   1.720   2.326 -1.0096  0.2230 -1.4023
  673SOL    HW2 2019   2.634   1.759   2.177 -0.5029 -0.8865  1.5430
  674SOL     OW 2020   1.049   2.950   2.462  0.6030 -0.6193 -0.1822
  674SOL    HW1 2021   0.968   3.008   2.485 -2.7891 -0.2613 -0.2539
  674SOL    HW2 2022   1.045   2.914   2.369 -1.3766 -1.4645  3.9088
  675SOL     OW 2023   0.497   0.815   1.246 -0.4986  0.5355 -0.0742
  675SOL    HW1 2024   0.526   0.776   1.156 -0.9502  1.6901  1.3941
  675SOL    HW2 2025   0.561   0.784   1.327  2.0627 -1.1788  1.5474
  676SOL     OW 2026   1.974   0.679   0.848 -0.2826 -0.0377 -0.2947
  676SOL    HW1 2027   1.911   0.601   0.837  0.2267  1.0939 -3.2895
  676SOL    HW2 2028   1.942   0.756   0.907  2.0604  1.9582  0.5775
  677SOL     OW 2029   2.611   1.575   2.826 -0.4741 -0.5935  0.7415
  677SOL    HW1 2030   2.681   1.509   2.843  0.7963  3.8040  0.5319
  677SOL    HW2 2031   2.563   1.571   2.732 -1.4613  1.1967 -2.3928
  678SOL     OW 2032   3.108   3.101   1.180  0.1796 -0.6403  0.2993
  678SOL    HW1 2033   3.095   3.097   1.074 -2.4260  2.1623 -2.8531
  678SOL    HW2 2034   3.099   3.008   1.226 -0.0719  1.2921 -0.9121
  679SOL     OW 2035   2.332   0.161   0.264  0.0239 -0.0533  0.3007
  679SOL    HW1 2036   2.333   0.250   0.214 -0.1328  0.3991 -2.6282
  679SOL    HW2 2037   2.419   0.116   0.253 -4.5627  1.7146  0.2528
  680SOL     OW 2038   0.322   2.413   2.251  0.9492 -0.7331  0.5175
  680SOL    HW1 2039   0.416   2.379   2.264  0.5873  0.4853  1.4345
  680SOL    HW2 2040   0.277   2.377   2.163  1.9924 -1.8915 -0.9917
  681SOL     OW 2041   2.886   1.686   1.259  0.3113  0.0076  0.6156
  681SOL    HW1 2042   2.962   1.755   1.250 -1.1849  3.0871 -1.1599
  681SOL    HW2 2043   2.843   1.694   1.354 -1.7495  2.0474  0.7607
  682SOL     OW 2044   0.214   2.307   2.037 -0.1149 -0.0193 -0.4743
  682SOL    HW1 2045   0.210   2.317   1.937  1.0402  1.6276 -0.6442
  682SOL    HW2 2046   0.122   2.275   2.066  0.2968 -1.9087  2.0338
  683SOL     OW 2047   2.828   1.934   1.778  0.1109  0.4545 -0.3366
  683SOL    HW1 2048   2.794   1.993   1.701  0.9694 -0.4395 -1.1033
  683SOL    HW2 2049   2.915   1.883   1.755 -3.3239 -0.5253  0.2537
  684SOL     OW 2050   2.493   1.526   2.595  0.2195 -0.2217  0.3251
  684SOL    HW1 2051   2.475   1.556   2.495  0.0846  1.4951 -3.7169
  684SOL    HW2 2052   2.460   1.433   2.605  0.9336 -0.2182 -0.0856
  685SOL     OW 2053   1.588   1.176   0.236  0.4163 -0.8157 -0.1686
  685SOL    HW1 2054   1.553   1.123   0.321 -0.3794 -2.7523  4.1878
  685SOL    HW2 2055   1.586   1.277   0.244  0.9167  0.3700  1.1771
  686SOL     OW 2056   0.614   0.055   0.759 -0.0068 -0.1275 -0.2718
  686SOL    HW1 2057   0.585   0.150   0.734  0.9397 -2.4473  2.4497
  686SOL    HW2 2058   0.549   3.131   0.708 -1.3583  1.4521  3.6073
  687SOL     OW 2059   1.463   1.192   2.396 -0.0063  0.1781 -0.3912
  687SOL    HW1 2060   1.522   1.267   2.436  1.2583  1.5676 -0.0919
  687SOL    HW2 2061   1.363   1.215   2.403  1.4022 -0.4153  1.6096
  688SOL     OW 2062   1.202   1.831   1.342 -0.1578  0.3163 -0.2044
  688SOL    HW1 2063   1.260   1.844   1.263 -1.7299 -0.8348 -0.5148
  688SOL    HW2 2064   1.112   1.877   1.320 -1.2851  0.3340  1.4892
  689SOL     OW 2065   1.972   0.370   1.367 -0.0483  0.3859 -0.2663
  689SOL    HW1 2066   1.983   0.400   1.271  0.4032  0.6324  1.0233
  689SOL    HW2 2067   1.917   0.432   1.422  1.9890 -3.5465  0.2358
  690SOL     OW 2068   2.913   1.314   1.098  0.2078  0.1656  0.2551
  690SOL    HW1 2069   2.956   1.249   1.165  0.7820 -0.4629  4.0765
  690SOL    HW2 2070   2.905   1.281   1.002  1.5320 -0.1060 -1.4151
  691SOL     OW 2071   0.476   2.449   1.102 -0.1544 -0.5538 -0.3168
  691SOL    HW1 2072   0.539   2.396   1.042 -2.9202  1.5648  1.1190
  691SOL    HW2 2073   0.399   2.383   1.122 -1.2306 -0.2061  3.2936
  692SOL     OW 2074   2.220   0.407   1.566  0.1777  0.0375  0.0184
  692SOL    HW1 2075   2.166   0.342   1.510  1.4363 -0.0121  2.4740
  692SOL    HW2 2076   2.203   0.500   1.537 -2.4707 -0.3724  0.5377
  693SOL     OW 2077   0.182   1.845   2.060 -0.0675  0.4668 -0.3685
  693SOL    HW1 2078   0.190   1.750   2.100  1.4268  0.3380 -0.3145
  693SOL    HW2 2079   0.096   1.887   2.097 -0.8963 -0.7382  0.6647
  694SOL     OW 2080   1.583   1.509   1.817 -1.0531  0.0550  0.1726
  694SOL    HW1 2081   1.629   1.509   1.909 -0.5150  1.2356 -1.1240
  694SOL    HW2 2082   1.490   1.469   1.821 -0.0143 -0.7186 -0.0422
  695SOL     OW 2083   0.587   0.768   0.998  0.5244  0.1459 -0.2356
  695SOL    HW1 2084   0.531   0.832   0.951 -0.2491 -4.2944  1.3949
  695SOL    HW2 2085   0.686   0.777   0.970  0.0899  0.8746  1.1627
  696SOL     OW 2086   1.640   3.091   0.775 -0.1502 -0.6826 -0.8660
  696SOL    HW1 2087   1.677   3.131   0.860  2.3589  1.5525 -0.6454
  696SOL    HW2 2088   1.605   2.996   0.787  2.3218  0.1061  0.2831
  697SOL     OW 2089   1.157   0.441   1.422  0.2538 -0.3629  0.4111
  697SOL    HW1 2090   1.174   0.442   1.521  1.4847  0.2695  0.9686
  697SOL    HW2 2091   1.154   0.342   1.394  1.9438  0.3599 -0.2813
  698SOL     OW 2092   1.685   1.461   2.052 -0.0944 -0.5974  0.0773
  698SOL    HW1 2093   1.646   1.367   2.063 -0.8348 -0.8534  2.2756
  698SOL    HW2 2094   1.716   1.498   2.145  2.0245  0.9034  2.6346
  699SOL     OW 2095   2.005   0.749   1.420  0.1964  0.4172  0.1550
  699SOL    HW1 2096   2.102   0.725   1.400 -0.3425  1.5067  1.0085
  699SOL    HW2 2097   1.996   0.855   1.429 -2.0609  2.7514  0.3083
  700SOL     OW 2098   1.089   2.383   0.025  0.1454 -0.3798 -0.1912
  700SOL    HW1 2099   1.064   2.400   0.124 -1.6703  0.1507  0.2563
  700SOL    HW2 2100   1.137   2.288   0.020  0.0323 -1.7582 -0.9547
  701SOL     OW 2101   2.218   2.519   2.588 -0.3880  0.0599 -0.1761
  701SOL    HW1 2102   2.264   2.607   2.561 -0.4955  1.0533  0.9598
  701SOL    HW2 2103   2.174   2.525   2.681 -2.1908  1.7120 -0.8524
  702SOL     OW 2104   0.775   0.131   1.126 -0.7643  0.0399  0.3400
  702SOL    HW1 2105   0.739   0.222   1.111  2.2320 -1.8062  0.8982
  702SOL    HW2 2106   0.863   0.115   1.079  1.6913 -1.6203  1.3206
  703SOL     OW 2107   1.995   0.204   2.364  0.1498 -0.3011  0.1978
  703SOL    HW1 2108   2.065   0.200   2.441  0.8592 -3.3248  1.4437
  703SOL    HW2 2109   1.988   0.114   2.316  1.8396 -0.9728 -0.1406
  704SOL     OW 2110   2.777   2.597   0.514 -0.0645  0.4950 -0.4465
  704SOL    HW1 2111   2.839   2.659   0.461 -0.9747  1.9621 -1.4259
  704SOL    HW2 2112   2.824   2.505   0.530  2.0078 -1.8840  0.6051
  705SOL     OW 2113   2.630   0.015   2.106  0.3048  0.3407 -0.6422
  705SOL    HW1 2114   2.549   0.071   2.098  3.9037  1.2614  0.8502
  705SOL    HW2 2115   2.606   3.051   2.112 -0.9997  0.1350 -0.9393
  706SOL     OW 2116   2.281   2.855   1.433  0.4979 -0.0371  0.7799
  706SOL    HW1 2117   2.303   2.760   1.465 -1.1353  0.4397  0.5481
  706SOL    HW2 2118   2.180   2.856   1.412 -1.0548  3.5137  1.3734
  707SOL     OW 2119   0.691   2.905   2.420  0.8287  0.9364 -0.2710
  707SOL    HW1 2120   0.592   2.907   2.402  0.9003  0.2928 -0.6757
  707SOL    HW2 2121   0.719   2.966   2.493  1.1315 -4.3303  0.2838
  708SOL     OW 2122   3.115   2.224   1.806 -0.2463 -0.6548 -0.0674
  708SOL    HW1 2123   3.057   2.220   1.721  0.6957  0.5175  1.6567
  708SOL    HW2 2124   0.035   2.314   1.800  0.9486 -0.5049  1.0479
  709SOL     OW 2125   1.762   0.295   1.699 -0.7097  0.1938 -0.1891
  709SOL    HW1 2126   1.788   0.390   1.682  0.1216 -0.8337  1.5512
  709SOL    HW2 2127   1.659   0.290   1.707 -3.2174 -2.4440 -1.4214
  710SOL     OW 2128   1.348   0.400   2.909 -0.5070  0.7266 -0.3608
  710SOL    HW1 2129   1.426   0.380   2.977  2.6281 -1.7410  0.0495
  710SOL    HW2 2130   1.289   0.317   2.920 -1.3893  2.1454  0.1418
  711SOL     OW 2131   0.779   1.682   2.510 -0.1504 -0.2320 -0.2692
  711SOL    HW1 2132   0.843   1.711   2.584 -1.6682 -0.2428 -1.1984
  711SOL    HW2 2133   0.709   1.756   2.508 -0.4979 -1.3174  0.5564
  712SOL     OW 2134   0.999   1.752   2.674 -0.2368 -0.8922 -0.1924
  712SOL    HW1 2135   1.076   1.733   2.613 -0.0055 -1.9350 -0.1954
  712SOL    HW2 2136   1.013   1.839   2.723 -0.0239 -2.5457 -2.1156
  713SOL     OW 2137   1.882   0.910   2.566  0.1261  0.5052  0.0530
  713SOL    HW1 2138   1.793   0.951   2.535  1.9722  2.1599  2.4708
  713SOL    HW2 2139   1.889   0.909   2.670 -0.5056 -0.5694  0.8565
  714SOL     OW 2140   1.063   1.792   1.749  0.5598  0.1381  0.0968
  714SOL    HW1 2141   1.009   1.741   1.815 -0.3848  2.2508 -1.8281
  714SOL    HW2 2142   1.105   1.875   1.787 -2.1259  0.7158 -2.2134
  715SOL     OW 2143   2.099   0.442   3.051  0.2122 -0.3198  0.9119
  715SOL    HW1 2144   2.178   0.390   3.084  1.2233  1.6722 -1.4079
  715SOL    HW2 2145   2.039   0.381   2.994  0.6828  1.6243  0.7237
  716SOL     OW 2146   3.000   2.497   1.398 -0.3301 -0.1117  0.4907
  716SOL    HW1 2147   2.945   2.567   1.446 -0.0838 -1.2137  0.3078
  716SOL    HW2 2148   2.994   2.510   1.300 -1.4615  1.6050  1.4918
  717SOL     OW 2149   2.671   1.157   0.759  0.5241 -0.3077  0.5288
  717SOL    HW1 2150   2.636   1.097   0.833  1.0214  0.6853 -3.0466
  717SOL    HW2 2151   2.641   1.116   0.669  1.7518 -0.1126  0.4510
  718SOL     OW 2152   1.182   1.998   1.876 -0.3697  0.1491 -0.2589
  718SOL    HW1 2153   1.109   2.067   1.845 -2.0100  3.9224  0.5012
  718SOL    HW2 2154   1.206   2.013   1.972 -0.1100 -4.0426 -2.2919
  719SOL     OW 2155   2.433   0.307   2.870  0.5300  0.1967 -0.1185
  719SOL    HW1 2156   2.368   0.306   2.946  0.5618 -1.4640  0.3414
  719SOL    HW2 2157   2.526   0.324   2.902 -0.8829 -1.7911 -0.3323
  720SOL     OW 2158   0.965   0.459   0.983 -0.0075  0.0366 -0.0118
  720SOL    HW1 2159   1.008   0.509   1.061 -0.3942 -0.6203  0.9899
  720SOL    HW2 2160   1.031   0.402   0.928 -1.4660  1.3915  1.2458
  721SOL     OW 2161   2.847   0.902   0.567 -0.3496 -0.7143  0.4712
  721SOL    HW1 2162   2.779   0.982   0.568 -0.1262  3.8854  1.9402
  721SOL    HW2 2163   2.900   0.895   0.479  2.1289 -1.0976 -1.1232
  722SOL     OW 2164   0.301   2.777   2.601  0.2127  0.4606 -0.2854
  722SOL    HW1 2165   0.349   2.686   2.602 -0.9432 -2.7370 -0.7939
  722SOL    HW2 2166   0.346   2.837   2.535  0.1420 -0.5716  0.9264
  723SOL     OW 2167   1.698   0.371   0.592 -0.2172 -0.3945 -0.4734
  723SOL    HW1 2168   1.736   0.322   0.514 -1.3264 -0.3450 -1.0181
  723SOL    HW2 2169   1.618   0.432   0.569  0.8000  0.4497  0.9816
  724SOL     OW 2170   0.921   1.658   1.912 -0.2690  0.4648  0.3919
  724SOL    HW1 2171   0.948   1.631   2.005 -0.0865  0.2447  1.0186
  724SOL    HW2 2172   0.820   1.669   1.902 -2.6417  3.8432 -1.1117
  725SOL     OW 2173   1.381   2.953   1.215 -0.1019 -0.0974 -1.2907
  725SOL    HW1 2174   1.414   2.951   1.313  0.1890 -0.4663  0.3568
  725SOL    HW2 2175   1.460   2.930   1.155 -0.2899  0.9209 -0.7045
  726SOL     OW 2176   2.201   3.069   0.252  0.1653  0.1083  0.5019
  726SOL    HW1 2177   2.242   0.026   0.250 -0.3936  0.9930 -0.7628
  726SOL    HW2 2178   2.272   2.997   0.285  1.2146 -3.0017  3.4735
  727SOL     OW 2179   1.637   1.872   0.648  0.1302  0.1469 -0.0291
  727SOL    HW1 2180   1.645   1.970   0.668  3.1893 -3.5200  1.0557
  727SOL    HW2 2181   1.553   1.851   0.588  1.2359  0.4253 -0.8000
  728SOL     OW 2182   2.175   2.787   2.138 -0.6741  0.3008 -0.1893
  728SOL    HW1 2183   2.139   2.854   2.071  1.4655 -2.1757  3.2192
  728SOL    HW2 2184   2.209   2.834   2.220 -2.3120 -1.6742  0.9652
  729SOL     OW 2185   1.793   2.035   1.483 -0.3894  0.1577  0.2071
  729SOL    HW1 2186   1.704   2.067   1.446  1.8414 -0.7249  1.8608
  729SOL    HW2 2187   1.846   1.981   1.414  0.7428  3.6224  2.0873
  730SOL     OW 2188   1.643   0.944   0.119 -0.3897 -0.7194 -0.2174
  730SOL    HW1 2189   1.654   1.022   0.182  0.8280 -2.0015 -2.6476
  730SOL    HW2 2190   1.638   0.861   0.174 -0.4185 -0.4082  0.8862
  731SOL     OW 2191   0.882   3.066   1.330  0.0744  0.4225 -0.7101
  731SOL    HW1 2192   0.864   0.018   1.283  0.5698 -1.6841 -1.3109
  731SOL    HW2 2193   0.838   2.993   1.272 -1.6807 -3.5957 -2.6953
  732SOL     OW 2194   1.376   0.257   0.953 -0.3304 -0.7539 -0.2359
  732SOL    HW1 2195   1.341   0.353   0.950 -0.5576  1.7654 -2.2117
  732SOL    HW2 2196   1.431   0.242   0.866 -0.1154 -0.4160  2.4720
  733SOL     OW 2197   1.013   1.275   1.166  0.6823 -0.0409  0.1085
  733SOL    HW1 2198   1.003   1.174   1.148 -0.9489 -0.6009  2.7441
  733SOL    HW2 2199   0.970   1.328   1.091 -0.4475 -0.2890 -0.0526
  734SOL     OW 2200   2.683   2.690   2.880 -0.1454  0.0677 -0.4593
  734SOL    HW1 2201   2.756   2.745   2.931 -0.0365  0.2069  0.0486
  734SOL    HW2 2202   2.686   2.593   2.892 -0.6662  0.7804 -0.8213
  735SOL     OW 2203   1.124   2.908   1.121 -0.2181 -0.8966 -0.5974
  735SOL    HW1 2204   1.080   3.002   1.117 -1.1977  2.2911 -0.1854
  735SOL    HW2 2205   1.205   2.916   1.188  1.0717 -0.8374 -1.2566
  736SOL     OW 2206   1.836   1.881   3.128  0.0061  0.0292  0.4322
  736SOL    HW1 2207   1.768   1.946   0.035  0.5550  1.2767 -1.6366
  736SOL    HW2 2208   1.925   1.889   0.042 -1.5688 -0.5805  0.2508
  737SOL     OW 2209   3.075   2.039   1.468  0.6047 -0.5154  0.5180
  737SOL    HW1 2210   3.045   2.015   1.373  0.0959  0.4137 -2.2815
  737SOL    HW2 2211   3.019   2.117   1.511 -1.6066 -0.5888  0.5626
  738SOL     OW 2212   1.826   2.432   2.631 -0.1130 -0.0322  0.4666
  738SOL    HW1 2213   1.904   2.487   2.674 -0.2144 -0.1678  0.1617
  738SOL    HW2 2214   1.813   2.451   2.533 -0.4418  1.2791  0.7631
  739SOL     OW 2215   1.277   1.808   2.556 -0.2273 -0.0216 -0.2268
  739SOL    HW1 2216   1.273   1.765   2.460 -1.6466  0.7707  0.3099
  739SOL    HW2 2217   1.331   1.751   2.619 -3.8575  1.6942 -0.4628
  740SOL     OW 2218   1.294   2.843   0.924 -0.1812 -0.4313 -0.1731
  740SOL    HW1 2219   1.233   2.884   0.995 -1.6122  0.8897  1.4838
  740SOL    HW2 2220   1.277   2.884   0.835  0.8812 -2.6427  1.9897
  741SOL     OW 2221   0.084   1.133   0.255  0.0978  0.2930  0.3516
  741SOL    HW1 2222   0.007   1.119   0.324 -0.2211 -1.9543  2.7731
  741SOL    HW2 2223   0.085   1.227   0.230  2.7260 -1.7107 -0.6424
  742SOL     OW 2224   0.900   1.604   2.285  0.2395  0.3654 -0.1743
  742SOL    HW1 2225   0.984   1.656   2.273 -2.2224  1.0215 -2.3964
  742SOL    HW2 2226   0.847   1.649   2.359  0.5745 -2.0477  0.5722
  743SOL     OW 2227   0.981   0.889   2.289 -0.0796 -0.5888 -0.3742
  743SOL    HW1 2228   0.985   0.884   2.391  0.1978 -2.3863  1.0217
  743SOL    HW2 2229   1.078   0.872   2.270 -2.0843 -2.1072  2.6845
  744SOL     OW 2230   2.315   3.018   1.657 -0.3278  0.0568 -0.4824
  744SOL    HW1 2231   2.408   3.018   1.699  1.8552 -0.8103  0.8151
  744SOL    HW2 2232   2.302   2.964   1.573 -2.9350  0.9410  1.2270
  745SOL     OW 2233   2.106   1.387   1.415  0.1687 -0.1568  0.1854
  745SOL    HW1 2234   2.011   1.356   1.391  0.8657  0.2150  0.8030
  745SOL    HW2 2235   2.101   1.467   1.477 -1.4683 -0.4100 -1.2636
  746SOL     OW 2236   2.077   1.207   0.774 -0.2224  0.1599 -0.2651
  746SOL    HW1 2237   2.144   1.256   0.718  0.9696  0.0341  1.9019
  746SOL    HW2 2238   2.031   1.128   0.730 -0.5646  0.2740 -0.1316
  747SOL     OW 2239   2.278   1.802   0.558  0.0643  0.0376 -0.5122
  747SOL    HW1 2240   2.261   1.701   0.561 -0.4578  0.8236  1.5033
  747SOL    HW2 2241   2.195   1.848   0.591  2.3627 -1.3149  1.5641
  748SOL     OW 2242   0.400   1.936   0.377 -0.0937  0.5398  0.3846
  748SOL    HW1 2243   0.299   1.931   0.387  1.2521  0.8579 -2.0922
  748SOL    HW2 2244   0.439   1.858   0.325  4.5672  2.9459  0.5111
  749SOL     OW 2245   2.938   2.407   2.790 -0.3183 -0.3121 -0.4478
  749SOL    HW1 2246   2.845   2.396   2.823 -0.7627  1.1962  1.2304
  749SOL    HW2 2247   2.982   2.485   2.837 -1.3193  0.8625 -0.0099
  750SOL     OW 2248   2.321   0.831   0.906 -0.3018 -0.1678  0.4702
  750SOL    HW1 2249   2.365   0.744   0.892 -2.3756  1.0399  0.6886
  750SOL    HW2 2250   2.258   0.831   0.985 -2.5096  1.8494  0.5608
  751SOL     OW 2251   2.532   0.015   0.160  0.6379 -0.0709 -0.2360
  751SOL    HW1 2252   2.534   0.004   0.059  3.3869  0.3251  1.1755
  751SOL    HW2 2253   2.591   3.075   0.198  1.2508 -0.5068 -1.8217
  752SOL     OW 2254   2.417   2.824   0.882 -0.0332  0.0579  0.3139
  752SOL    HW1 2255   2.459   2.916   0.870  0.6702  0.2921 -1.3782
  752SOL    HW2 2256   2.336   2.809   0.819 -1.3056 -0.7823 -1.4861
  753SOL     OW 2257   1.747   1.515   2.303  0.3444  0.0749 -0.2150
  753SOL    HW1 2258   1.774   1.429   2.353  0.4294 -1.7529 -0.8613
  753SOL    HW2 2259   1.812   1.593   2.318 -0.4173  0.8304  0.7628
  754SOL     OW 2260   2.196   2.463   1.723  0.3356  0.2779  0.1710
  754SOL    HW1 2261   2.225   2.359   1.732 -0.9984 -1.2771 -2.0874
  754SOL    HW2 2262   2.099   2.473   1.757 -1.1648 -3.3975  0.1211
  755SOL     OW 2263   2.691   0.785   0.971  0.0297  0.4197 -0.0772
  755SOL    HW1 2264   2.687   0.710   0.898  0.3378 -0.5074  0.8143
  755SOL    HW2 2265   2.622   0.860   0.951  0.8977 -1.8039  1.0152
  756SOL     OW 2266   1.154   1.212   2.867  0.2068  0.1357  0.3853
  756SOL    HW1 2267   1.175   1.222   2.967 -2.5272  1.8174  5.8426
  756SOL    HW2 2268   1.142   1.305   2.828 -0.7300 -1.5235  0.2265
  757SOL     OW 2269   1.680   2.653   0.929  0.1586 -0.7758  0.8747
  757SOL    HW1 2270   1.738   2.614   0.852  0.0607  0.5366 -1.9834
  757SOL    HW2 2271   1.642   2.585   0.993 -0.5023  1.1275 -0.7690
  758SOL     OW 2272   0.834   2.340   1.225 -0.0890  0.2308  0.1370
  758SOL    HW1 2273   0.910   2.354   1.293  1.4497 -3.1045  0.4212
  758SOL    HW2 2274   0.860   2.292   1.140 -0.8625  2.5067  0.1497
  759SOL     OW 2275   2.383   1.315   1.153  0.0736  0.1744  0.5535
  759SOL    HW1 2276   2.455   1.322   1.220 -2.6094  2.1751  0.0942
  759SOL    HW2 2277   2.311   1.387   1.163  1.1246 -0.7306 -3.5870
  760SOL     OW 2278   1.807   1.033   1.902 -0.4278  0.4024 -0.7646
  760SOL    HW1 2279   1.907   1.040   1.889 -1.1290  1.5759  0.4596
  760SOL    HW2 2280   1.759   1.095   1.840  2.2344  0.5749  0.3661
  761SOL     OW 2281   2.089   2.848   0.422 -0.3261 -0.4831  0.1339
  761SOL    HW1 2282   2.010   2.801   0.372 -0.9530 -0.3117 -0.2080
  761SOL    HW2 2283   2.102   2.944   0.394 -1.3678 -3.8127  0.2340
  762SOL     OW 2284   2.013   1.577   3.009  0.4996 -0.2413  0.5533
  762SOL    HW1 2285   1.910   1.587   3.026 -1.0984  1.5357  0.3395
  762SOL    HW2 2286   2.039   1.601   2.913  2.2794 -0.0768  0.5007
  763SOL     OW 2287   0.580   1.572   1.411 -0.2193  0.4331 -0.4592
  763SOL    HW1 2288   0.659   1.513   1.414  2.5937 -1.8581  0.6418
  763SOL    HW2 2289   0.529   1.572   1.499 -0.5352 -0.0113  0.3340
  764SOL     OW 2290   0.050   2.530   0.082  0.1251 -0.1761  0.1460
  764SOL    HW1 2291   3.084   2.546   0.084 -0.4603  0.0431 -0.3819
  764SOL    HW2 2292   0.091   2.573   3.133  1.3945 -1.8596  0.1323
  765SOL     OW 2293   0.740   3.073   1.573  0.1017 -0.4071  0.1985
  765SOL    HW1 2294   0.766   3.109   1.480  2.5139  2.1405 -1.0558
  765SOL    HW2 2295   0.742   0.006   1.645  2.6841 -1.8968 -1.1233
  766SOL     OW 2296   3.093   2.220   2.096  0.1204 -0.3082 -0.1327
  766SOL    HW1 2297   3.012   2.253   2.147 -0.2265 -1.7579 -0.6846
  766SOL    HW2 2298   3.070   2.212   1.994  1.6482 -1.4932 -0.6243
  767SOL     OW 2299   2.688   1.148   2.085  0.5407 -0.1431  0.3483
  767SOL    HW1 2300   2.738   1.100   2.012 -1.2189 -0.2356 -1.1003
  767SOL    HW2 2301   2.698   1.252   2.072  1.0376  3.6074  0.7223
  768SOL     OW 2302   0.755   0.348   2.832  0.5143  0.2622  0.1811
  768SOL    HW1 2303   0.688   0.320   2.903 -0.4095  1.5379 -0.0900
  768SOL    HW2 2304   0.841   0.390   2.872  1.0104  0.7871 -0.7306
  769SOL     OW 2305   2.085   2.623   1.141  0.1038 -0.1222  0.3177
  769SOL    HW1 2306   2.179   2.647   1.116  1.0147 -0.3642  0.9548
  769SOL    HW2 2307   2.040   2.704   1.178  0.8183  2.8773  1.5305
  770SOL     OW 2308   2.816   0.146   2.769 -0.0399 -0.0472  0.4427
  770SOL    HW1 2309   2.791   0.239   2.737  3.3155  2.2019  1.2690
  770SOL    HW2 2310   2.913   0.129   2.751 -2.9416  3.4068 -1.8023
  771SOL     OW 2311   1.631   2.255   2.014  0.2176 -0.2657 -0.2414
  771SOL    HW1 2312   1.631   2.230   1.913  1.7634 -1.4816 -3.9259
  771SOL    HW2 2313   1.634   2.170   2.063  1.9669  0.0712 -2.6351
  772SOL     OW 2314   1.352   0.384   0.320 -0.1238 -0.8959 -0.0648
  772SOL    HW1 2315   1.261   0.346   0.343 -0.1309 -1.3611 -1.5714
  772SOL    HW2 2316   1.345   0.448   0.237 -1.6191 -0.6344  0.7587
  773SOL     OW 2317   2.763   0.805   1.867 -0.0800  0.0916  0.3010
  773SOL    HW1 2318   2.727   0.784   1.958 -0.2778  0.7441 -1.1974
  773SOL    HW2 2319   2.696   0.788   1.795 -0.0810 -2.0812  1.3439
  774SOL     OW 2320   1.062   1.217   0.691 -0.2071  0.0598  0.7597
  774SOL    HW1 2321   0.982   1.272   0.669 -0.0412  0.3024 -2.8649
  774SOL    HW2 2322   1.035   1.137   0.748 -2.4157  0.5168  0.8148
  775SOL     OW 2323   2.536   3.076   3.023  0.4379 -0.0751  0.6471
  775SOL    HW1 2324   2.460   3.126   2.974  0.7962 -0.4968 -0.0431
  775SOL    HW2 2325   2.517   2.974   3.029  2.4508 -0.9105  1.2476
  776SOL     OW 2326   2.476   1.408   1.992  0.4165  0.3448 -0.2437
  776SOL    HW1 2327   2.450   1.360   2.078 -0.0487 -0.0362  2.6156
  776SOL    HW2 2328   2.511   1.350   1.918  0.3569  0.4019 -0.7258
  777SOL     OW 2329   0.401   1.273   2.604  0.2984  0.3231  0.0371
  777SOL    HW1 2330   0.384   1.315   2.512 -0.5649  1.6496  0.6476
  777SOL    HW2 2331   0.433   1.177   2.596 -0.5322 -0.7680 -1.1040
  778SOL     OW 2332   0.549   0.623   0.103 -0.3725 -0.2389 -0.1039
  778SOL    HW1 2333   0.624   0.562   0.067  2.0289 -1.5154 -0.4387
  778SOL    HW2 2334   0.497   0.655   0.023  2.6719 -2.0153 -0.5653
  779SOL     OW 2335   0.393   0.398   2.618  0.2869 -0.1634  0.5595
  779SOL    HW1 2336   0.455   0.460   2.671  2.3307 -0.1628 -2.7188
  779SOL    HW2 2337   0.416   0.299   2.634  1.0565 -0.8640 -0.2812
  780SOL     OW 2338   2.316   0.816   2.649  0.2641 -0.3870  0.2927
  780SOL    HW1 2339   2.386   0.854   2.715  3.1227  1.4732  1.8539
  780SOL    HW2 2340   2.281   0.719   2.666 -1.6194 -0.7557  2.2360
  781SOL     OW 2341   2.859   1.048   1.917 -0.5484  0.3454  0.1818
  781SOL    HW1 2342   2.827   0.949   1.907  1.0204  0.5945  0.5811
  781SOL    HW2 2343   2.950   1.047   1.960  0.5184 -0.9505 -3.4611
  782SOL     OW 2344   0.787   1.437   2.684 -0.2165  0.2191 -0.3730
  782SOL    HW1 2345   0.717   1.418   2.756 -0.0467  2.3901 -0.3878
  782SOL    HW2 2346   0.776   1.530   2.647 -3.1250 -0.9426  2.4312
  783SOL     OW 2347   1.039   2.728   1.333 -0.0361 -0.0497 -0.2402
  783SOL    HW1 2348   1.045   2.801   1.256  0.2909  3.5014 -1.1888
  783SOL    HW2 2349   1.065   2.638   1.302 -2.5395  1.3867  1.4289
  784SOL     OW 2350   1.531   0.339   3.095 -0.0399 -0.2939  0.0835
  784SOL    HW1 2351   1.553   0.266   0.024 -1.0024  0.6229 -0.4101
  784SOL    HW2 2352   1.610   0.397   3.071 -1.8955 -2.0856  0.1528
  785SOL     OW 2353   0.859   0.273   2.090  0.3302  0.4717  0.1882
  785SOL    HW1 2354   0.918   0.334   2.148  0.5263  3.3432 -1.2168
  785SOL    HW2 2355   0.825   0.323   2.005 -2.9903  1.8280 -1.8683
  786SOL     OW 2356   0.602   2.089   0.451 -0.3728  0.1627  0.0652
  786SOL    HW1 2357   0.528   2.024   0.428  2.2355  0.3020  2.9479
  786SOL    HW2 2358   0.567   2.182   0.460  0.2298 -3.6512  0.0627
  787SOL     OW 2359   1.432   0.995   0.436  0.2990  0.3594 -0.3910
  787SOL    HW1 2360   1.342   1.040   0.448  0.5703  4.3529 -0.2116
  787SOL    HW2 2361   1.472   0.967   0.523 -0.8688 -1.6760  0.8262
  788SOL     OW 2362   2.455   1.655   1.405  0.2096  0.7975 -0.0681
  788SOL    HW1 2363   2.480   1.560   1.375  0.3875  1.2332 -0.1874
  788SOL    HW2 2364   2.433   1.655   1.503 -1.6033 -0.4488  1.7590
  789SOL     OW 2365   2.817   1.161   2.341 -0.0389  0.3120  0.1591
  789SOL    HW1 2366   2.751   1.161   2.268 -0.9069  0.4604 -0.8135
  789SOL    HW2 2367   2.893   1.230   2.326 -1.0980 -0.7131  1.0627
  790SOL     OW 2368   0.859   3.020   0.077  0.0678  0.2022  0.1705
  790SOL    HW1 2369   0.877   2.920   0.077  1.4675  0.8005  0.9924
  790SOL    HW2 2370   0.907   3.062   0.154 -1.2108  2.0836 -1.2215
  791SOL     OW 2371   0.370   0.819   3.099 -0.0154  0.0422 -0.0328
  791SOL    HW1 2372   0.331   0.903   0.006  1.0882 -0.1019 -1.0248
  791SOL    HW2 2373   0.417   0.837   3.011 -1.6695 -4.1793  0.4272
  792SOL     OW 2374   1.620   0.603   2.726  0.0736  0.2738 -0.2992
  792SOL    HW1 2375   1.531   0.549   2.716 -1.0048 -2.6217  1.7992
  792SOL    HW2 2376   1.689   0.601   2.650 -0.3897  0.7163 -0.0224
  793SOL     OW 2377   2.931   0.393   0.657 -0.5939  0.2333 -0.2466
  793SOL    HW1 2378   3.012   0.324   0.641  2.0378 -1.8607  0.5242
  793SOL    HW2 2379   2.964   0.480   0.696  1.2836  0.3258 -2.1259
  794SOL     OW 2380   0.284   0.493   1.837 -0.3673 -0.4304 -0.3393
  794SOL    HW1 2381   0.341   0.501   1.757  0.7579  1.8588 -0.2053
  794SOL    HW2 2382   0.219   0.568   1.838  0.6861 -0.8743 -0.8347
  795SOL     OW 2383   0.262   1.444   3.086  0.2351  0.4968  0.8023
  795SOL    HW1 2384   0.361   1.459   3.107 -1.4317  1.5093 -1.1841
  795SOL    HW2 2385   0.206   1.422   0.032 -0.4168  0.2667 -0.0160
  796SOL     OW 2386   0.278   1.055   0.080 -0.1394  0.3557 -0.0565
  796SOL    HW1 2387   0.203   1.092   0.143 -2.1247 -0.1669 -1.6251
  796SOL    HW2 2388   0.256   1.092   3.121 -0.6136 -2.3716  2.3993
  797SOL     OW 2389   1.687   2.452   2.867 -0.1577  0.1004  0.4053
  797SOL    HW1 2390   1.590   2.449   2.830 -1.4572  0.1110  1.5774
  797SOL    HW2 2391   1.742   2.465   2.781  0.5052  1.5905  0.6042
  798SOL     OW 2392   2.994   0.584   1.288 -0.6057  0.0941 -0.2987
  798SOL    HW1 2393   3.005   0.502   1.233  1.4087  2.3260 -1.7455
  798SOL    HW2 2394   3.072   0.613   1.344 -2.1606  2.6494 -0.9640
  799SOL     OW 2395   2.106   0.775   1.898  0.2163 -0.0259 -0.4921
  799SOL    HW1 2396   2.106   0.876   1.880 -2.7304  0.4272  0.7434
  799SOL    HW2 2397   2.030   0.738   1.840  2.3907 -0.1793 -1.1341
  800SOL     OW 2398   0.127   1.907   0.403 -0.5478 -0.4629 -0.0132
  800SOL    HW1 2399   0.134   1.901   0.504 -2.1151 -0.7787 -0.3461
  800SOL    HW2 2400   0.059   1.837   0.376 -0.0132  0.6865 -0.9975
  801SOL     OW 2401   1.663   2.137   0.693  0.3955 -0.1686  0.3021
  801SOL    HW1 2402   1.741   2.167   0.640  2.0334  3.0881  2.6345
  801SOL    HW2 2403   1.702   2.120   0.791 -0.5545 -0.3414  0.8420
  802SOL     OW 2404   1.329   1.470   2.900 -0.1132  0.1124 -0.1233
  802SOL    HW1 2405   1.414   1.427   2.939 -0.2187  1.1433  0.8750
  802SOL    HW2 2406   1.256   1.450   2.967 -1.5791  0.0330 -3.3145
  803SOL     OW 2407   0.194   2.001   1.832  0.5561 -0.2543 -0.6190
  803SOL    HW1 2408   0.120   2.069   1.832 -0.4886 -1.4908 -1.1723
  803SOL    HW2 2409   0.190   1.952   1.925  2.0664  0.6614  1.0529
  804SOL     OW 2410   1.295   2.601   1.147 -0.5416 -0.1701  0.0248
  804SOL    HW1 2411   1.342   2.553   1.075  0.0570  1.9346  1.7444
  804SOL    HW2 2412   1.276   2.694   1.116  1.3019 -0.8212  2.6671
  805SOL     OW 2413   2.285   2.139   2.423 -0.2059  0.6295  0.2376
  805SOL    HW1 2414   2.319   2.229   2.405 -1.1322 -3.8460 -0.3822
  805SOL    HW2 2415   2.192   2.141   2.472  0.8135  1.9883  1.2088
  806SOL     OW 2416   2.354   3.121   1.063 -0.2101  0.2873 -0.7825
  806SOL    HW1 2417   2.376   3.060   1.142 -0.6909 -0.2106 -1.6067
  806SOL    HW2 2418   2.421   0.056   1.045 -1.3428 -1.8928  0.5431
  807SOL     OW 2419   0.220   1.106   2.707  0.1998  0.4268 -0.3718
  807SOL    HW1 2420   0.266   1.188   2.665  2.3343  1.5500  0.1872
  807SOL    HW2 2421   0.134   1.083   2.657 -0.7917 -0.9771 -1.7547
  808SOL     OW 2422   0.786   1.822   0.793  0.4463 -0.0992 -0.2021
  808SOL    HW1 2423   0.879   1.827   0.835  0.3251  0.0485 -0.0078
  808SOL    HW2 2424   0.773   1.895   0.723 -3.6888 -1.4991 -1.3534
  809SOL     OW 2425   2.500   0.257   2.161 -0.3329  0.2068  0.3593
  809SOL    HW1 2426   2.430   0.322   2.122 -0.3569 -0.0310 -0.7472
  809SOL    HW2 2427   2.575   0.311   2.206  0.8827 -0.5945 -0.2583
  810SOL     OW 2428   1.429   0.466   1.465  0.5077  0.6053 -0.6524
  810SOL    HW1 2429   1.337   0.467   1.427  0.3859 -0.5815  2.0713
  810SOL    HW2 2430   1.445   0.547   1.533  0.9283 -1.2121  1.4983
  811SOL     OW 2431   1.834   0.275   1.966  0.1240  0.6090  0.1552
  811SOL    HW1 2432   1.829   0.248   1.869  0.3800  1.6783  3.7514
  811SOL    HW2 2433   1.751   0.328   1.999 -1.8575 -0.3052 -0.8586
  812SOL     OW 2434   1.771   1.705   0.291  0.9065 -0.4446 -0.0758
  812SOL    HW1 2435   1.860   1.672   0.253  0.4199 -0.3086  0.7834
  812SOL    HW2 2436   1.799   1.753   0.375  1.1666  0.3161 -1.1354
  813SOL     OW 2437   1.332   0.501   1.895  0.0465  0.5657 -0.0456
  813SOL    HW1 2438   1.292   0.488   1.988  2.1199  1.0688 -0.1460
  813SOL    HW2 2439   1.365   0.597   1.890  3.2256 -0.3241  0.3011
  814SOL     OW 2440   0.375   0.128   1.095  0.0006 -0.0192  0.5032
  814SOL    HW1 2441   0.364   0.032   1.120 -0.9894  1.2826  0.9672
  814SOL    HW2 2442   0.429   0.188   1.155 -0.5437  2.5121  1.3511
  815SOL     OW 2443   0.297   0.118   0.431 -0.2368  0.5162 -0.8736
  815SOL    HW1 2444   0.332   0.042   0.489 -1.4323 -1.6156 -0.3235
  815SOL    HW2 2445   0.253   0.178   0.498  0.5656  0.3767  0.0197
  816SOL     OW 2446   2.208   1.679   2.397 -0.3771 -0.1945 -0.2198
  816SOL    HW1 2447   2.291   1.627   2.364  1.0368  4.1299  1.0950
  816SOL    HW2 2448   2.232   1.723   2.486  0.0373 -0.1769  3.2593
  817SOL     OW 2449   1.270   2.988   0.649  0.2654 -0.2919  0.5634
  817SOL    HW1 2450   1.356   3.017   0.603 -0.9377 -1.3968 -2.1314
  817SOL    HW2 2451   1.254   2.888   0.625  1.1061  1.9753  0.5842
  818SOL     OW 2452   1.720   0.553   3.022 -0.0089  0.4541  0.8635
  818SOL    HW1 2453   1.685   0.561   2.925 -1.8095 -1.4175 -1.9221
  818SOL    HW2 2454   1.819   0.574   3.017 -0.9082  1.2039 -3.1247
  819SOL     OW 2455   2.310   0.275   0.001 -0.5707 -0.0829  0.2081
  819SOL    HW1 2456   2.412   0.270   0.011  2.1747 -2.0684 -0.9621
  819SOL    HW2 2457   2.276   0.184   3.115  1.3729  4.0071  0.8450
  820SOL     OW 2458   1.957   0.625   2.907  0.2327  0.0736  0.4194
  820SOL    HW1 2459   2.024   0.571   2.964  2.7568 -0.3645  0.5155
  820SOL    HW2 2460   1.968   0.607   2.808 -1.9412 -1.4216  0.2639
  821SOL     OW 2461   2.923   0.291   0.948  0.5032  0.3074 -0.2312
  821SOL    HW1 2462   2.999   0.356   0.945 -3.1750 -0.8240 -0.9182
  821SOL    HW2 2463   2.859   0.302   0.872  1.1898  0.3366 -0.0763
  822SOL     OW 2464   0.890   2.522   2.377  0.1947 -0.0726  0.5721
  822SOL    HW1 2465   0.871   2.437   2.425 -0.5047 -0.3746  1.2449
  822SOL    HW2 2466   0.859   2.594   2.447  0.2048  1.3676  2.7077
  823SOL     OW 2467   0.304   1.531   1.810 -0.0019  0.3758  0.2352
  823SOL    HW1 2468   0.263   1.529   1.907  1.8548 -0.4200 -0.7388
  823SOL    HW2 2469   0.253   1.468   1.747 -1.1645  0.5697  0.0262
  824SOL     OW 2470   1.460   2.783   2.418 -0.2692 -0.2323 -0.2866
  824SOL    HW1 2471   1.424   2.690   2.451 -0.7176 -3.3343 -0.9092
  824SOL    HW2 2472   1.562   2.793   2.425  0.6234  0.9087  1.0852
  825SOL     OW 2473   1.811   0.687   0.534  0.0347 -0.3576 -0.1448
  825SOL    HW1 2474   1.778   0.646   0.619 -0.7771  0.8011 -0.2056
  825SOL    HW2 2475   1.873   0.627   0.483 -2.0733 -0.0466  2.6533
  826SOL     OW 2476   2.112   0.910   0.093 -0.0438  0.0741 -0.6632
  826SOL    HW1 2477   2.031   0.874   0.146  2.2454  1.8055  0.7252
  826SOL    HW2 2478   2.172   0.832   0.070  0.3974  0.6144 -0.7278
  827SOL     OW 2479   0.436   1.579   2.154 -0.2078  0.4344  0.2387
  827SOL    HW1 2480   0.465   1.675   2.162  0.3731  0.5824  1.9882
  827SOL    HW2 2481   0.495   1.524   2.093  0.8235  3.5833 -2.5346
  828SOL     OW 2482   2.405   1.401   1.671  0.0942 -0.3230 -0.5355
  828SOL    HW1 2483   2.402   1.503   1.679 -1.1031  1.4704 -1.5182
  828SOL    HW2 2484   2.488   1.352   1.700 -3.3241  2.6266  0.2726
  829SOL     OW 2485   0.301   1.622   0.677  0.2716  0.7011 -0.0767
  829SOL    HW1 2486   0.262   1.559   0.746  2.1332 -0.3344  1.2046
  829SOL    HW2 2487   0.394   1.643   0.709 -0.5361 -0.0998 -0.8664
  830SOL     OW 2488   1.404   0.916   0.943  0.1772 -0.9070 -0.9783
  830SOL    HW1 2489   1.390   1.011   0.912  0.8629 -1.7844  2.0454
  830SOL    HW2 2490   1.443   0.917   1.034 -0.6030  1.5904  0.6772
  831SOL     OW 2491   3.109   1.791   0.049  0.4698 -0.0408  0.4494
  831SOL    HW1 2492   3.068   1.790   0.146 -4.6056  2.8568  2.3061
  831SOL    HW2 2493   3.105   1.694   0.016  0.4180  1.4097 -1.4943
  832SOL     OW 2494   0.839   0.381   0.304 -0.1192  0.4813 -0.2146
  832SOL    HW1 2495   0.827   0.457   0.371  0.5960  0.9644 -1.4366
  832SOL    HW2 2496   0.844   0.289   0.352  1.2976 -0.9679  1.0547
  833SOL     OW 2497   0.998   0.632   2.051 -0.3643  0.6865 -0.1865
  833SOL    HW1 2498   0.961   0.682   1.968 -0.6709 -3.3032 -0.9426
  833SOL    HW2 2499   0.956   0.651   2.140  1.4490 -1.0037 -2.8146
  834SOL     OW 2500   0.189   0.329   0.591  0.5008 -0.2387 -0.1948
  834SOL    HW1 2501   0.096   0.308   0.555 -3.1984  2.8328  0.5678
  834SOL    HW2 2502   0.198   0.294   0.687  1.5869  1.9787  0.2198
  835SOL     OW 2503   2.742   2.908   1.201 -0.3296  0.6944 -0.2994
  835SOL    HW1 2504   2.700   2.939   1.289 -2.7193 -1.5848  0.2558
  835SOL    HW2 2505   2.762   2.987   1.138  0.0266 -0.0915 -0.9840
  836SOL     OW 2506   0.443   2.079   3.051 -0.1537 -0.0528  0.5412
  836SOL    HW1 2507   0.441   2.162   2.991 -0.9775 -1.1788 -0.9372
  836SOL    HW2 2508   0.387   2.099   0.000 -1.0290 -0.0306  0.6034
  837SOL     OW 2509   1.527   1.451   2.455  0.0240 -0.1043 -0.1605
  837SOL    HW1 2510   1.506   1.491   2.547 -0.4624 -3.3441 -1.7965
  837SOL    HW2 2511   1.621   1.486   2.428  0.7149  0.6287 -0.8039
  838SOL     OW 2512   0.006   0.935   1.674  0.2679  0.0169  0.2757
  838SOL    HW1 2513   0.046   0.942   1.579 -0.4844  0.1463  1.4921
  838SOL    HW2 2514   0.040   1.010   1.735  1.0287  2.7095 -1.1317
  839SOL     OW 2515   0.877   1.372   0.915 -0.8526 -0.5164  0.6153
  839SOL    HW1 2516   0.885   1.272   0.916 -0.9071 -0.1942 -1.1290
  839SOL    HW2 2517   0.861   1.405   0.817 -1.1789 -1.0354 -3.3651
  840SOL     OW 2518   1.811   2.960   1.990 -0.3195  0.2178  0.1450
  840SOL    HW1 2519   1.799   2.915   2.081 -0.1963 -0.8618  1.6604
  840SOL    HW2 2520   1.906   2.951   1.954 -1.3017 -0.2399  0.7085
  841SOL     OW 2521   0.618   2.372   0.502 -0.0035  0.6083 -0.0154
  841SOL    HW1 2522   0.717   2.347   0.514  1.6310 -3.1334 -0.7632
  841SOL    HW2 2523   0.584   2.344   0.406 -1.9142 -0.7017  0.4570
  842SOL     OW 2524   0.574   0.340   0.787 -0.1638  0.3965  0.0921
  842SOL    HW1 2525   0.476   0.359   0.811  0.5345 -1.0658  0.6344
  842SOL    HW2 2526   0.630   0.334   0.871  1.2048 -0.8612 -0.4163
  843SOL     OW 2527   0.750   1.015   2.141  0.1386 -0.2318  0.1268
  843SOL    HW1 2528   0.665   1.005   2.199  1.7672 -0.7792 -0.8012
  843SOL    HW2 2529   0.832   1.008   2.196 -3.5682  1.4385 -2.0370
  844SOL     OW 2530   1.447   2.215   3.096 -0.1291 -0.0714  0.1271
  844SOL    HW1 2531   1.468   2.225   2.995 -0.3925  0.4828  0.4797
  844SOL    HW2 2532   1.496   2.287   0.019  2.4378 -0.3230  1.3133
  845SOL     OW 2533   2.304   2.785   2.523  0.0637 -0.9885  0.0530
  845SOL    HW1 2534   2.299   2.834   2.434  2.8582 -2.0697  0.0291
  845SOL    HW2 2535   2.395   2.789   2.570 -1.1996 -0.9718 -0.7963
  846SOL     OW 2536   1.887   1.861   2.852  0.0467 -0.2757 -0.5401
  846SOL    HW1 2537   1.798   1.847   2.801 -2.0647 -2.7107 -0.8907
  846SOL    HW2 2538   1.870   1.856   2.955 -1.4270  2.7486  1.6014
  847SOL     OW 2539   2.212   0.050   3.042 -0.1406 -0.2905 -0.0722
  847SOL    HW1 2540   2.160   3.123   3.105  1.1570 -0.9716 -0.0451
  847SOL    HW2 2541   2.175   0.048   2.950  2.2776  1.1075 -0.1991
  848SOL     OW 2542   0.312   0.569   0.597 -0.2776 -0.7488 -0.7406
  848SOL    HW1 2543   0.368   0.571   0.510  0.5771  1.8845 -1.1137
  848SOL    HW2 2544   0.270   0.477   0.597  0.8275 -0.5396 -0.7314
  849SOL     OW 2545   1.456   2.916   1.471  0.2793  0.3933  0.3323
  849SOL    HW1 2546   1.534   2.979   1.482 -2.3459 -1.5060 -2.9008
  849SOL    HW2 2547   1.416   2.896   1.563  1.7426 -0.5960 -1.5426
  850SOL     OW 2548   0.431   1.712   0.216  0.1700  0.3195 -0.2989
  850SOL    HW1 2549   0.416   1.746   0.126  1.7612  0.4312  1.2061
  850SOL    HW2 2550   0.522   1.669   0.222  0.6153  0.7220 -0.3454
  851SOL     OW 2551   0.136   0.980   0.705 -0.3041 -0.0996  0.3116
  851SOL    HW1 2552   0.159   0.961   0.606  1.1539 -4.4479 -1.5148
  851SOL    HW2 2553   0.048   0.941   0.730  0.4676 -0.9626 -0.2886
  852SOL     OW 2554   1.556   2.404   1.419 -0.3464 -0.7067 -0.4378
  852SOL    HW1 2555   1.630   2.415   1.486  0.5755  0.9152  1.3453
  852SOL    HW2 2556   1.501   2.486   1.406 -0.2946 -0.3072  1.2332
  853SOL     OW 2557   0.112   1.398   0.184 -0.2485 -0.1002  0.1406
  853SOL    HW1 2558   0.031   1.454   0.153  2.5040 -3.5461  2.4935
  853SOL    HW2 2559   0.164   1.450   0.252 -0.0630 -2.7234  0.7954
  854SOL     OW 2560   1.574   1.190   2.101  0.4188 -0.3742 -0.8018
  854SOL    HW1 2561   1.542   1.199   2.199  0.1680  0.2137  1.3614
  854SOL    HW2 2562   1.499   1.205   2.032  1.5118 -0.0207  2.1166
  855SOL     OW 2563   0.581   2.386   2.957  0.1495  0.0624  0.0017
  855SOL    HW1 2564   0.489   2.421   2.991  0.4934 -0.5408  0.9369
  855SOL    HW2 2565   0.650   2.403   3.029  0.1530  0.1400  0.1977
  856SOL     OW 2566   0.075   0.663   1.834 -0.3551 -0.4258  0.0505
  856SOL    HW1 2567   0.031   0.601   1.765 -1.1536  0.9749 -0.2826
  856SOL    HW2 2568   0.003   0.702   1.892  0.3057 -0.8260  1.2302
  857SOL     OW 2569   0.833   1.197   1.923  0.0269 -0.5055  0.1091
  857SOL    HW1 2570   0.812   1.120   1.989 -0.4611  1.5726  0.4122
  857SOL    HW2 2571   0.865   1.274   1.974  0.6093 -0.3199 -2.8206
  858SOL     OW 2572   0.327   1.411   2.363 -0.3224 -0.2333  0.0750
  858SOL    HW1 2573   0.378   1.495   2.341 -2.1030 -1.2824  0.3059
  858SOL    HW2 2574   0.356   1.342   2.292  3.1432  0.7140 -1.2658
  859SOL     OW 2575   2.786   3.111   1.016 -1.1228  0.4121 -0.1532
  859SOL    HW1 2576   2.750   0.070   1.041  0.0866 -1.9730 -1.3931
  859SOL    HW2 2577   2.880   3.108   0.979  0.7909 -0.0079 -1.7338
  860SOL     OW 2578   2.083   2.946   0.050 -0.0463 -0.4138  0.7278
  860SOL    HW1 2579   2.121   2.991   0.135 -3.6673  1.6941  1.7135
  860SOL    HW2 2580   2.152   2.887   3.135  2.4923 -0.7615 -1.4684
  861SOL     OW 2581   0.488   0.530   0.368 -0.5251 -0.3078 -0.3883
  861SOL    HW1 2582   0.496   0.573   0.276 -0.5817 -1.1412  0.1568
  861SOL    HW2 2583   0.507   0.429   0.369  0.6396 -0.4246  1.8944
  862SOL     OW 2584   1.433   0.265   1.830 -0.1816  0.0760  0.0294
  862SOL    HW1 2585   1.402   0.193   1.892  1.3002  4.2750 -0.0116
  862SOL    HW2 2586   1.380   0.349   1.848  1.2044 -2.0531 -1.0329
  863SOL     OW 2587   2.697   2.263   1.346 -0.0886  0.3218  0.2084
  863SOL    HW1 2588   2.598   2.253   1.325  0.9930  1.5132  1.5852
  863SOL    HW2 2589   2.756   2.247   1.265  1.2088 -1.1695 -2.3112
  864SOL     OW 2590   2.260   2.947   2.327  0.2075 -0.6410  0.4642
  864SOL    HW1 2591   2.171   2.965   2.374  1.9374 -1.5641  0.0056
  864SOL    HW2 2592   2.305   3.040   2.312  1.4964 -0.3721  1.1829
  865SOL     OW 2593   1.156   0.408   1.685 -0.0877 -1.1978 -0.0592
  865SOL    HW1 2594   1.131   0.310   1.700  0.2687 -2.2397  1.3137
  865SOL    HW2 2595   1.207   0.447   1.764 -0.8811 -3.0853  1.1491
  866SOL     OW 2596   1.978   2.859   1.153  0.2606 -0.2952  0.7919
  866SOL    HW1 2597   1.985   2.929   1.079  1.3707 -1.7379 -2.6199
  866SOL    HW2 2598   2.007   2.903   1.241 -0.5509  0.2916  1.2415
  867SOL     OW 2599   2.545   2.539   0.647 -0.3488  0.1135 -0.5391
  867SOL    HW1 2600   2.577   2.472   0.717 -0.2441 -3.6804 -0.7217
  867SOL    HW2 2601   2.636   2.574   0.605  3.3718  0.5183 -2.5330
  868SOL     OW 2602   0.695   1.939   1.426  0.1533 -0.4483 -0.8701
  868SOL    HW1 2603   0.768   1.962   1.496 -0.4101 -0.9825  1.1257
  868SOL    HW2 2604   0.655   2.019   1.379  1.8301 -1.2504  3.2948
  869SOL     OW 2605   2.285   2.521   3.076  0.5563  0.3839  0.3384
  869SOL    HW1 2606   2.303   2.419   3.100  1.7676 -1.0218 -0.1236
  869SOL    HW2 2607   2.357   2.584   3.112 -1.5205 -0.0450  0.7815
  870SOL     OW 2608   2.225   1.826   1.060  0.0723 -0.3095 -0.3088
  870SOL    HW1 2609   2.315   1.820   1.012 -1.1847 -0.1059  1.1704
  870SOL    HW2 2610   2.180   1.735   1.057  1.2582  2.2433 -1.5894
  871SOL     OW 2611   0.261   1.710   1.587  0.3394  0.6021  0.1541
  871SOL    HW1 2612   0.226   1.644   1.520  0.9748 -0.3653  1.1853
  871SOL    HW2 2613   0.266   1.671   1.680 -1.3759 -1.5191  0.8534
  872SOL     OW 2614   0.414   1.246   2.160 -0.1984 -0.7169  0.4513
  872SOL    HW1 2615   0.485   1.273   2.088 -2.0077  1.1728 -3.2444
  872SOL    HW2 2616   0.453   1.162   2.205  3.6502 -0.2549  2.7263
  873SOL     OW 2617   1.120   2.493   1.770 -0.1652  0.2677 -0.3272
  873SOL    HW1 2618   1.122   2.425   1.848 -1.0994  0.9597  0.1824
  873SOL    HW2 2619   1.034   2.482   1.716  0.9599  0.7536 -0.7325
  874SOL     OW 2620   1.269   0.908   2.010  0.2042  0.1415 -0.1477
  874SOL    HW1 2621   1.184   0.938   1.963 -0.5267  0.1175 -1.2733
  874SOL    HW2 2622   1.257   0.872   2.105  2.0930  0.1365 -0.7113
  875SOL     OW 2623   2.692   2.804   0.938  0.5069 -0.1166  0.0469
  875SOL    HW1 2624   2.600   2.788   0.902  0.9092 -1.1588 -1.5411
  875SOL    HW2 2625   2.685   2.867   1.021 -0.7100  1.0601  4.0732
  876SOL     OW 2626   0.747   1.236   0.503 -0.3561  0.2629 -0.6970
  876SOL    HW1 2627   0.807   1.209   0.419  1.3135  0.4327 -0.0126
  876SOL    HW2 2628   0.663   1.287   0.470 -0.4636 -0.2287 -3.1059
  877SOL     OW 2629   2.960   0.140   1.338  0.3951 -0.0861  0.1250
  877SOL    HW1 2630   2.996   0.073   1.268 -0.1834  0.7212  0.1311
  877SOL    HW2 2631   3.036   0.187   1.390 -0.6312 -0.6952 -1.5282
  878SOL     OW 2632   2.638   1.707   0.284  0.4347 -0.6182  0.3875
  878SOL    HW1 2633   2.639   1.640   0.361  3.6282  2.6032 -2.4769
  878SOL    HW2 2634   2.558   1.771   0.294 -1.2069 -1.0684  0.9372
  879SOL     OW 2635   2.564   1.917   1.410 -0.0717  0.5974 -0.3255
  879SOL    HW1 2636   2.527   1.818   1.415  0.9018  1.0080 -3.2045
  879SOL    HW2 2637   2.547   1.957   1.316  0.1814 -2.8327  0.6740
  880SOL     OW 2638   0.093   2.630   0.776 -0.0138 -0.2236  0.4677
  880SOL    HW1 2639   0.041   2.708   0.820 -0.7011  0.0837  1.2698
  880SOL    HW2 2640   0.184   2.661   0.735 -0.8346  4.3872 -1.1278
  881SOL     OW 2641   1.388   1.160   0.845  0.2900  0.7069  0.1758
  881SOL    HW1 2642   1.464   1.226   0.872  3.0973 -0.1532  1.1589
  881SOL    HW2 2643   1.338   1.193   0.762  1.4499  2.0983 -1.5828
  882SOL     OW 2644   2.771   0.976   2.803  0.1931  0.2274 -0.0679
  882SOL    HW1 2645   2.710   1.015   2.730  0.0533  0.9730  0.2200
  882SOL    HW2 2646   2.807   0.880   2.776  0.4218 -0.9112 -0.0823
  883SOL     OW 2647   1.183   3.133   1.534 -0.2161 -0.4660  0.0522
  883SOL    HW1 2648   1.132   3.044   1.521 -1.2751 -0.8904 -0.7747
  883SOL    HW2 2649   1.288   3.123   1.543  2.1372  1.1807  2.4195
  884SOL     OW 2650   3.027   0.003   0.899  0.2323 -0.2936 -0.7050
  884SOL    HW1 2651   3.064   0.009   0.805 -1.4112  0.5691  2.9688
  884SOL    HW2 2652   3.011   0.100   0.933  0.5533  1.3673  2.6365
  885SOL     OW 2653   1.235   0.806   1.255  0.1264 -0.0084 -0.2804
  885SOL    HW1 2654   1.239   0.863   1.342 -0.8797  0.3354 -1.6689
  885SOL    HW2 2655   1.325   0.804   1.206 -0.1761 -2.2630  0.8137
  886SOL     OW 2656   1.624   0.878   2.807  0.7964 -0.0247  0.0657
  886SOL    HW1 2657   1.621   0.787   2.768  0.1122  3.6956 -0.4690
  886SOL    HW2 2658   1.719   0.894   2.836  0.6587 -1.9125 -0.4774
  887SOL     OW 2659   1.594   0.598   1.050  0.5104  0.2227  0.7876
  887SOL    HW1 2660   1.601   0.529   1.128 -0.4810  0.0083  1.2609
  887SOL    HW2 2661   1.664   0.577   0.982  0.4747 -2.8258  1.3324
  888SOL     OW 2662   2.036   1.672   1.846 -0.0960  0.3873  0.2610
  888SOL    HW1 2663   2.037   1.585   1.897 -1.9884  3.2890 -1.9935
  888SOL    HW2 2664   2.125   1.719   1.840 -2.6949  0.2107 -2.0684
  889SOL     OW 2665   2.268   2.247   0.750  1.0241  0.2578  0.1080
  889SOL    HW1 2666   2.254   2.347   0.740 -1.0523 -1.9065  0.8808
  889SOL    HW2 2667   2.253   2.212   0.846  0.5248  0.1138 -1.8561
  890SOL     OW 2668   1.229   1.894   0.769  0.2150  0.2592 -1.0765
  890SOL    HW1 2669   1.320   1.885   0.818 -1.9090  0.2075  0.6882
  890SOL    HW2 2670   1.159   1.877   0.844 -1.3216 -0.9534  0.6125
  891SOL     OW 2671   2.586   0.632   2.421 -0.4961 -0.0982  0.3902
  891SOL    HW1 2672   2.668   0.581   2.394 -1.0888 -1.5027  0.5629
  891SOL    HW2 2673   2.499   0.579   2.424 -0.6037  1.8469  0.4673
  892SOL     OW 2674   1.259   0.280   2.362 -0.0845  0.0211  0.1238
  892SOL    HW1 2675   1.346   0.339   2.365  1.6931  3.7052  0.3944
  892SOL    HW2 2676   1.196   0.313   2.437  2.0471  2.0781  1.9062
  893SOL     OW 2677   1.623   0.470   1.273  0.2184  0.3314 -1.0093
  893SOL    HW1 2678   1.706   0.500   1.320 -1.2184  0.1176 -1.0103
  893SOL    HW2 2679   1.546   0.469   1.346 -1.1726 -0.6342  2.8582
  894SOL     OW 2680   2.665   0.368   0.630  0.1954 -0.0204  0.4930
  894SOL    HW1 2681   2.631   0.292   0.694 -0.8620  0.7544  0.7173
  894SOL    HW2 2682   2.767   0.364   0.626  1.7999 -2.6122 -1.5639
  895SOL     OW 2683   1.971   2.607   2.789 -0.3188 -0.0766  0.0096
  895SOL    HW1 2684   2.035   2.679   2.767 -1.7435 -3.0902 -0.6641
  895SOL    HW2 2685   1.948   2.609   2.890 -1.1148  1.1847  2.0561
  896SOL     OW 2686   1.820   2.875   1.529 -0.4792  0.5915  0.5797
  896SOL    HW1 2687   1.764   2.950   1.568  1.1728  2.5846  2.0160
  896SOL    HW2 2688   1.762   2.835   1.456 -2.8564 -1.0110 -0.4251
  897SOL     OW 2689   0.406   2.096   2.055  0.1137  0.2388 -0.1204
  897SOL    HW1 2690   0.443   2.068   1.964 -1.2340 -0.8778  1.8077
  897SOL    HW2 2691   0.321   2.153   2.043  2.4348 -1.4851  0.3931
  898SOL     OW 2692   2.240   1.829   2.125 -0.3567  0.1796  0.1160
  898SOL    HW1 2693   2.290   1.764   2.065  1.8631  0.8634  2.8285
  898SOL    HW2 2694   2.212   1.777   2.211 -2.2413  1.4028 -0.5921
  899SOL     OW 2695   1.899   2.240   0.522  0.1958  0.3207  0.1363
  899SOL    HW1 2696   1.968   2.272   0.590 -0.9542  0.3042  0.7290
  899SOL    HW2 2697   1.932   2.164   0.464 -0.2809 -2.4374 -0.9925
  900SOL     OW 2698   1.048   0.567   0.247  0.1899 -0.1899 -0.2308
  900SOL    HW1 2699   0.991   0.651   0.250  0.5153  1.3459  0.2833
  900SOL    HW2 2700   0.995   0.481   0.264 -2.1447 -1.7418 -0.5843
  901SOL     OW 2701   1.069   1.946   2.263 -0.0078 -0.9035  0.1917
  901SOL    HW1 2702   0.985   1.929   2.214  2.1744  0.2171  2.3360
  901SOL    HW2 2703   1.054   1.994   2.354  1.1657  1.9935  2.1271
  902SOL     OW 2704   2.669   0.353   2.997  0.1243 -0.4642  0.1742
  902SOL    HW1 2705   2.767   0.373   2.975 -1.2918  0.0981 -1.9818
  902SOL    HW2 2706   2.668   0.328   3.095  1.5401  0.4356 -0.3989
  903SOL     OW 2707   2.142   0.667   2.395 -0.3260 -0.9426  0.1278
  903SOL    HW1 2708   2.209   0.667   2.321 -2.7454  0.9822  2.7286
  903SOL    HW2 2709   2.123   0.767   2.424 -1.5499  0.3477 -0.6907
  904SOL     OW 2710   1.487   0.788   2.428 -0.1112  0.6544  0.2193
  904SOL    HW1 2711   1.537   0.868   2.462 -2.1881 -1.5493  0.9146
  904SOL    HW2 2712   1.563   0.730   2.384  2.8154  0.1232 -0.4187
  905SOL     OW 2713   2.140   0.028   1.796 -0.1259  0.8063 -0.4827
  905SOL    HW1 2714   2.206   3.126   1.726  4.7297  0.2414 -0.3160
  905SOL    HW2 2715   2.049   0.047   1.759 -0.6318 -0.0793  0.3220
  906SOL     OW 2716   2.074   2.022   0.432  0.0812 -0.4625 -0.6433
  906SOL    HW1 2717   2.146   2.093   0.454 -0.8957 -1.9749  0.5977
  906SOL    HW2 2718   2.040   1.975   0.522 -3.3015 -2.3156  0.3431
  907SOL     OW 2719   1.217   2.760   0.554  0.2085  0.4947 -0.5628
  907SOL    HW1 2720   1.290   2.703   0.509 -2.8433 -0.3379  0.5356
  907SOL    HW2 2721   1.145   2.701   0.595 -0.8319  0.3286 -0.0667
  908SOL     OW 2722   1.706   2.165   2.605  0.6207 -0.4300  0.6232
  908SOL    HW1 2723   1.760   2.251   2.626  0.9688 -0.9957  0.0246
  908SOL    HW2 2724   1.712   2.151   2.501 -0.7017  2.1247 -1.9158
  909SOL     OW 2725   2.331   0.655   1.961  0.0456  0.5523  0.1631
  909SOL    HW1 2726   2.248   0.704   1.930  2.9717  1.4122  0.1514
  909SOL    HW2 2727   2.398   0.640   1.889 -0.9321  1.0755  1.3573
  910SOL     OW 2728   1.368   0.668   2.987  0.0922 -0.6444  0.0611
  910SOL    HW1 2729   1.350   0.738   2.913 -2.3048 -0.5416  0.0663
  910SOL    HW2 2730   1.353   0.573   2.953 -2.0750  0.2827 -0.7444
  911SOL     OW 2731   0.006   0.890   2.984 -0.1897 -0.0436  0.3080
  911SOL    HW1 2732   3.075   0.967   2.992  1.7364 -1.0532 -0.5693
  911SOL    HW2 2733   0.036   0.858   3.075 -1.6491  0.5290  0.0517
  912SOL     OW 2734   0.042   2.549   0.529  0.0560  0.1135  0.1741
  912SOL    HW1 2735   0.079   2.460   0.492 -2.3912  0.1706 -0.7820
  912SOL    HW2 2736   0.073   2.574   0.627  0.4241  0.4885  4.1817
  913SOL     OW 2737   2.814   2.140   2.497 -0.0223  0.3995 -0.0552
  913SOL    HW1 2738   2.862   2.191   2.420  1.8089  3.6596 -0.1496
  913SOL    HW2 2739   2.880   2.069   2.529  1.2940  2.4610  3.3255
  914SOL     OW 2740   1.747   1.695   1.010 -0.1475  0.1178  0.5305
  914SOL    HW1 2741   1.730   1.652   0.914  1.6830  1.8517 -2.7758
  914SOL    HW2 2742   1.698   1.649   1.084  1.4606 -0.8227 -0.2759
  915SOL     OW 2743   0.247   2.883   2.209  0.0227  0.5066 -0.0878
  915SOL    HW1 2744   0.290   2.793   2.178  0.4548 -0.6924  0.3968
  915SOL    HW2 2745   0.151   2.897   2.170  0.5176 -0.7668 -0.4930
  916SOL     OW 2746   0.794   0.165   1.748 -0.4445  0.1898 -0.6327
  916SOL    HW1 2747   0.891   0.195   1.744  0.9283  2.1693  1.2865
  916SOL    HW2 2748   0.728   0.243   1.749 -0.7452  2.8295  1.9533
  917SOL     OW 2749   2.594   0.837   0.354  0.0273  0.0789  0.4887
  917SOL    HW1 2750   2.667   0.866   0.284  1.5349 -1.6084  0.0954
  917SOL    HW2 2751   2.552   0.747   0.335  0.5043  0.6360  2.8508
  918SOL     OW 2752   1.833   2.178   3.047 -0.7206 -0.6615  0.5009
  918SOL    HW1 2753   1.760   2.216   2.990  0.9455  1.6406 -0.7836
  918SOL    HW2 2754   1.797   2.142   3.134 -0.1199 -0.2515 -1.0223
  919SOL     OW 2755   1.654   2.930   1.110  0.3059  0.8714  0.1531
  919SOL    HW1 2756   1.668   3.024   1.077  1.2549 -0.3840  1.5778
  919SOL    HW2 2757   1.677   2.865   1.039  0.0922  1.9604 -0.2685
  920SOL     OW 2758   1.524   0.404   2.443  0.9634 -0.1694  0.2037
  920SOL    HW1 2759   1.481   0.408   2.536 -0.2291 -1.6400 -2.0946
  920SOL    HW2 2760   1.614   0.362   2.450  0.6192 -0.2783  2.2026
  921SOL     OW 2761   3.104   0.822   2.729 -1.3710  0.4471 -0.2404
  921SOL    HW1 2762   3.099   0.916   2.696 -4.5018 -0.8874 -1.0425
  921SOL    HW2 2763   3.117   0.830   2.830 -1.5597  1.7778  0.2831
  922SOL     OW 2764   0.212   2.047   1.125  0.5062  0.3369 -0.3054
  922SOL    HW1 2765   0.250   1.989   1.199 -1.8078  2.2015 -0.8365
  922SOL    HW2 2766   0.230   2.145   1.148 -4.4511  1.0775  1.2964
  923SOL     OW 2767   0.567   1.626   1.763  0.1016 -0.2692 -0.1773
  923SOL    HW1 2768   0.564   1.720   1.729 -2.2328  0.4987  2.2691
  923SOL    HW2 2769   0.471   1.598   1.783  0.0828  1.3381  1.8950
  924SOL     OW 2770   1.632   2.782   2.737  0.1514  0.2282 -0.0576
  924SOL    HW1 2771   1.646   2.729   2.828  0.7496  1.8120  2.2875
  924SOL    HW2 2772   1.617   2.880   2.766  2.2298  2.8725  4.6399
  925SOL     OW 2773   2.622   1.586   0.897  0.4636 -1.1972 -0.0650
  925SOL    HW1 2774   2.654   1.518   0.826 -0.1404 -1.3807  2.5126
  925SOL    HW2 2775   2.658   1.578   0.991 -0.3842 -0.6171 -1.8127
  926SOL     OW 2776   2.208   0.877   1.148  0.2383 -0.5898 -0.6485
  926SOL    HW1 2777   2.223   0.793   1.205  2.4102  0.2919  1.5063
  926SOL    HW2 2778   2.215   0.959   1.201 -1.2734 -2.4489 -0.9764
  927SOL     OW 2779   2.031   0.118   1.412 -0.2126  0.0941 -0.0292
  927SOL    HW1 2780   1.987   0.209   1.384 -2.1693 -3.2563  1.1680
  927SOL    HW2 2781   2.133   0.127   1.410 -2.5865 -2.2030  2.7687
  928SOL     OW 2782   0.052   0.824   2.264 -0.7785 -0.1023  0.0354
  928SOL    HW1 2783   0.091   0.755   2.199  0.9636 -2.3866 -0.3510
  928SOL    HW2 2784   0.058   0.913   2.212  0.5400  0.7502 -0.5036
  929SOL     OW 2785   2.467   0.855   1.478  0.2639 -0.3375  0.2429
  929SOL    HW1 2786   2.456   0.954   1.501 -0.2005 -0.1757  2.3877
  929SOL    HW2 2787   2.519   0.846   1.394  0.1223 -0.7282  1.9425
  930SOL     OW 2788   2.620   2.715   1.987  0.1741  0.5190  0.0266
  930SOL    HW1 2789   2.671   2.769   1.918 -1.0592  2.1678  1.3546
  930SOL    HW2 2790   2.541   2.665   1.939  0.5513 -1.5640 -1.1489
  931SOL     OW 2791   1.936   1.210   1.663  0.1939  0.0238  0.0909
  931SOL    HW1 2792   1.837   1.222   1.691 -0.3482 -0.7490  2.5457
  931SOL    HW2 2793   1.995   1.292   1.686 -0.3568  2.4080 -0.1668
  932SOL     OW 2794   0.554   0.844   1.715  0.3019  0.4960  0.4647
  932SOL    HW1 2795   0.495   0.928   1.715 -2.8525  1.1086 -1.0884
  932SOL    HW2 2796   0.595   0.825   1.806  3.3142  1.3069 -3.0682
  933SOL     OW 2797   2.547   2.154   1.769  0.4358  0.7889  0.1599
  933SOL    HW1 2798   2.590   2.079   1.716 -0.7699 -0.3147  0.1215
  933SOL    HW2 2799   2.544   2.117   1.864 -3.0143 -1.8106  1.6774
  934SOL     OW 2800   0.548   2.038   1.825 -0.3807  0.2790 -0.2697
  934SOL    HW1 2801   0.613   1.986   1.887  0.9602  1.8647  1.9124
  934SOL    HW2 2802   0.526   1.988   1.738  0.2197  2.4494 -0.9343
  935SOL     OW 2803   3.081   1.351   1.808  0.0697 -0.2216  0.3308
  935SOL    HW1 2804   3.076   1.450   1.787 -0.0063 -2.3702 -1.8977
  935SOL    HW2 2805   3.066   1.339   1.909  1.2062  0.3554  0.2343
  936SOL     OW 2806   2.946   0.931   1.397 -0.1094  0.1632  0.5078
  936SOL    HW1 2807   2.930   0.868   1.317 -0.0047 -3.8161  0.9297
  936SOL    HW2 2808   2.907   0.889   1.482 -0.7345 -1.2263 -0.3771
  937SOL     OW 2809   1.807   0.554   1.464  0.3428 -0.1602  0.0809
  937SOL    HW1 2810   1.880   0.620   1.443 -1.8675 -0.4608  0.8514
  937SOL    HW2 2811   1.774   0.563   1.562 -2.9820 -0.8931  2.9681
  938SOL     OW 2812   0.669   2.703   0.135  0.0841  0.3588  0.1630
  938SOL    HW1 2813   0.645   2.762   0.054  0.4618 -0.8317  0.5381
  938SOL    HW2 2814   0.608   2.733   0.210  1.4317 -1.8145  1.4992
  939SOL     OW 2815   3.003   1.945   2.584  0.6082 -0.0025 -0.3758
  939SOL    HW1 2816   3.019   1.844   2.581  1.2052 -0.3910  1.0513
  939SOL    HW2 2817   3.017   1.983   2.677 -0.5573  2.1537 -1.4846
  940SOL     OW 2818   1.342   1.907   0.254 -0.2816  0.2702 -0.1345
  940SOL    HW1 2819   1.440   1.888   0.230  0.7037 -0.1777 -0.3564
  940SOL    HW2 2820   1.284   1.879   0.175 -0.0400  1.0042  1.6211
  941SOL     OW 2821   2.428   2.672   0.148 -0.2571  0.7037  0.4267
  941SOL    HW1 2822   2.414   2.748   0.211  0.1643 -2.2494  0.3687
  941SOL    HW2 2823   2.468   2.589   0.191  0.3455  1.2464 -1.0538
  942SOL     OW 2824   1.755   2.064   0.948 -0.3237 -0.6373 -0.3246
  942SOL    HW1 2825   1.802   1.972   0.939  1.8053 -2.2452 -0.7773
  942SOL    HW2 2826   1.691   2.053   1.028 -1.2751 -0.4853 -0.3879
  943SOL     OW 2827   1.892   0.790   1.701 -0.2455  0.3070  1.0172
  943SOL    HW1 2828   1.925   0.799   1.600  0.8894 -0.0680 -4.4495
  943SOL    HW2 2829   1.882   0.878   1.748 -0.2883  1.8408 -0.1550
  944SOL     OW 2830   1.254   0.774   2.276  0.3397  0.8521  0.3007
  944SOL    HW1 2831   1.339   0.795   2.325 -0.8641  1.0067  1.9959
  944SOL    HW2 2832   1.250   0.673   2.243  1.7803 -0.7539 -2.2208
  945SOL     OW 2833   2.346   2.597   1.556  0.0691  0.2057  0.0543
  945SOL    HW1 2834   2.398   2.521   1.515 -1.6138 -1.4153 -0.0418
  945SOL    HW2 2835   2.276   2.562   1.618  3.4435  0.5050 -1.8878
  946SOL     OW 2836   0.390   1.204   0.325  0.2544  0.1784 -0.6758
  946SOL    HW1 2837   0.301   1.244   0.359 -1.3788  3.1404  0.2637
  946SOL    HW2 2838   0.408   1.107   0.355  3.5443  0.7551  1.4948
  947SOL     OW 2839   1.650   2.371   1.148  0.2131 -0.1842  0.0441
  947SOL    HW1 2840   1.624   2.384   1.244  3.6312  2.1092 -0.5531
  947SOL    HW2 2841   1.751   2.393   1.148 -0.3603  1.8070 -0.6346
  948SOL     OW 2842   0.231   1.638   1.027  0.0911  0.0512 -0.3529
  948SOL    HW1 2843   0.295   1.658   1.104 -0.2177 -1.9242 -0.7380
  948SOL    HW2 2844   0.239   1.543   0.993  0.8126  1.2562  2.5326
  949SOL     OW 2845   1.243   1.381   1.278  0.2653 -0.2988  0.2373
  949SOL    HW1 2846   1.143   1.353   1.268 -3.2963  2.3408  0.9797
  949SOL    HW2 2847   1.303   1.298   1.267  1.7114  0.9236  0.5153
  950SOL     OW 2848   0.453   0.516   1.006  0.6033 -0.6911  0.3170
  950SOL    HW1 2849   0.508   0.602   0.986  0.1223  0.5859  3.4342
  950SOL    HW2 2850   0.351   0.540   1.007 -3.7769 -0.5984  0.0053
  951SOL     OW 2851   0.609   2.072   2.249 -0.1569 -0.1480 -0.6571
  951SOL    HW1 2852   0.529   2.079   2.185 -1.8698 -0.3624  1.7372
  951SOL    HW2 2853   0.624   2.169   2.279 -0.2378  2.2983  1.2441
  952SOL     OW 2854   0.906   1.442   3.091  0.2236  0.4716  0.3940
  952SOL    HW1 2855   0.861   1.530   3.087  2.1619 -1.9657  1.6277
  952SOL    HW2 2856   1.008   1.444   3.094 -1.7919 -1.3616 -0.3403
  953SOL     OW 2857   1.152   2.979   0.117 -0.1503 -0.9860  0.1495
  953SOL    HW1 2858   1.223   2.961   0.181 -1.6117  0.9455 -0.6907
  953SOL    HW2 2859   1.093   2.896   0.093 -2.0293 -2.9002 -2.4479
  954SOL     OW 2860   1.801   1.389   0.081 -0.3774  0.0536  0.3525
  954SOL    HW1 2861   1.809   1.286   0.067  2.4390  0.4245 -0.5872
  954SOL    HW2 2862   1.710   1.419   0.108  0.4576 -0.1941 -1.3438
  955SOL     OW 2863   0.160   2.644   2.985 -0.7038  0.6010 -0.0441
  955SOL    HW1 2864   0.212   2.728   2.971 -1.7281 -0.3295 -1.0743
  955SOL    HW2 2865   0.069   2.647   2.942 -0.0750 -1.1100  0.6634
  956SOL     OW 2866   1.074   0.605   1.217  0.2478 -0.3685  0.6501
  956SOL    HW1 2867   1.116   0.696   1.231  0.5876  1.4080  0.3622
  956SOL    HW2 2868   1.119   0.543   1.286  0.0159  0.8088  0.1640
  957SOL     OW 2869   1.331   1.601   1.440  0.0528 -0.0188  0.0550
  957SOL    HW1 2870   1.305   1.697   1.417  2.8368  0.8134  0.7807
  957SOL    HW2 2871   1.313   1.533   1.367 -4.1066 -1.4608  0.9642
  958SOL     OW 2872   0.400   1.876   0.913  0.1241  0.2957  0.1279
  958SOL    HW1 2873   0.335   1.812   0.963  0.9308  1.8466  0.5835
  958SOL    HW2 2874   0.469   1.812   0.869 -2.6003 -2.6533  3.0665
  959SOL     OW 2875   1.550   1.527   1.209  0.1924  0.0011 -0.3431
  959SOL    HW1 2876   1.509   1.620   1.195  2.1847  1.7346 -1.1662
  959SOL    HW2 2877   1.544   1.492   1.304 -0.7241  1.0121 -2.8822
  960SOL     OW 2878   0.224   1.175   2.976  0.2897 -0.0717  0.0692
  960SOL    HW1 2879   0.255   1.270   2.988  0.2597 -1.6961  1.3379
  960SOL    HW2 2880   0.225   1.149   2.874  0.5701  2.3762 -5.0046
  961SOL     OW 2881   0.999   1.579   1.364  0.1391 -0.4857 -0.4078
  961SOL    HW1 2882   1.083   1.616   1.402 -1.2560 -0.0495 -0.7016
  961SOL    HW2 2883   0.938   1.657   1.338  0.3687  2.1177 -0.4374
  962SOL     OW 2884   0.858   1.429   0.642  0.1844 -0.0290 -0.4127
  962SOL    HW1 2885   0.924   1.487   0.592 -1.1625 -0.2111  3.3103
  962SOL    HW2 2886   0.805   1.364   0.579 -3.7530  0.8944  1.7529
  963SOL     OW 2887   1.433   1.602   2.678  0.4533 -0.9309 -0.6425
  963SOL    HW1 2888   1.492   1.659   2.740  2.6659  2.2549  1.0285
  963SOL    HW2 2889   1.375   1.538   2.733 -1.2375  0.8496  1.1593
  964SOL     OW 2890   0.761   2.771   2.879  0.3024 -0.4574  0.7077
  964SOL    HW1 2891   0.847   2.740   2.922 -0.8061  0.7039 -1.1090
  964SOL    HW2 2892   0.696   2.694   2.856 -0.1642 -0.0894  1.7745
  965SOL     OW 2893   0.468   2.318   0.267 -0.0530 -0.1703  0.0184
  965SOL    HW1 2894   0.430   2.238   0.228 -0.6082  2.4023 -0.6246
  965SOL    HW2 2895   0.399   2.390   0.280 -1.5923  1.1047  0.7678
  966SOL     OW 2896   0.037   1.461   2.700 -0.2929  0.4272 -0.1400
  966SOL    HW1 2897   3.128   1.372   2.725  0.1337 -2.3150 -1.0504
  966SOL    HW2 2898   0.076   1.505   2.785  0.9544  1.9498 -0.5519
  967SOL     OW 2899   2.607   3.084   2.677  1.2530 -0.6571  0.0410
  967SOL    HW1 2900   2.657   3.093   2.591 -2.5389 -0.6399  0.6410
  967SOL    HW2 2901   2.668   3.127   2.739  0.5601 -1.4527 -0.0746
  968SOL     OW 2902   2.283   0.080   0.649  0.1614 -0.4043 -0.4633
  968SOL    HW1 2903   2.266   0.114   0.555 -3.7055  1.4987 -0.4285
  968SOL    HW2 2904   2.304   0.157   0.712 -1.1452 -2.9179 -1.9234
  969SOL     OW 2905   0.193   1.163   2.043  0.4002  0.1793 -0.0022
  969SOL    HW1 2906   0.200   1.185   1.947 -1.9273 -1.7655  2.1215
  969SOL    HW2 2907   0.270   1.208   2.096  0.6950 -1.3170 -0.6331
  970SOL     OW 2908   2.114   1.553   0.988  0.2060 -0.2225 -0.8148
  970SOL    HW1 2909   2.152   1.549   1.083 -0.7216 -1.2402  0.8569
  970SOL    HW2 2910   2.028   1.493   0.983 -3.3538 -0.8539 -1.8533
  971SOL     OW 2911   2.429   3.045   1.313  0.2966  0.8488  0.1341
  971SOL    HW1 2912   2.361   2.988   1.361  0.6655  0.8209 -0.3876
  971SOL    HW2 2913   2.524   3.024   1.352  0.1574 -0.1654  0.0466
  972SOL     OW 2914   0.522   2.905   1.525 -0.0288 -0.1439  0.0299
  972SOL    HW1 2915   0.538   2.839   1.447  1.3252  1.5984  0.0774
  972SOL    HW2 2916   0.603   2.965   1.540  0.9956 -0.7744 -3.0371
  973SOL     OW 2917   0.583   0.287   3.063 -0.2882  0.4158 -0.2055
  973SOL    HW1 2918   0.653   0.343   3.115  1.9723  1.3752  0.9691
  973SOL    HW2 2919   0.489   0.327   3.061  1.4037  1.3363 -0.6287
  974SOL     OW 2920   1.987   1.421   1.983  0.4979 -0.4355 -0.5764
  974SOL    HW1 2921   1.889   1.413   2.000  2.5355  0.7046 -0.8365
  974SOL    HW2 2922   2.043   1.383   2.058 -4.1431 -2.5415  0.9343
  975SOL     OW 2923   0.034   0.206   1.518  0.1936 -0.0753 -0.2344
  975SOL    HW1 2924   0.127   0.226   1.484 -0.4321  1.7994  2.3890
  975SOL    HW2 2925   0.025   0.114   1.561 -1.6248 -1.1962 -0.6367
  976SOL     OW 2926   0.826   1.948   2.154 -0.5550  0.3432  0.8779
  976SOL    HW1 2927   0.747   1.995   2.203 -1.1004 -0.8826  3.4966
  976SOL    HW2 2928   0.801   1.922   2.061 -0.7157  0.0748 -0.5088
  977SOL     OW 2929   0.902   2.314   0.421  0.4481  0.6791 -0.2493
  977SOL    HW1 2930   0.919   2.401   0.372  1.6808 -0.1896 -0.4048
  977SOL    HW2 2931   0.927   2.239   0.358 -2.8681 -0.2326 -2.8957
  978SOL     OW 2932   3.098   1.596   2.197  0.5749 -0.1997  0.1525
  978SOL    HW1 2933   0.030   1.649   2.256  1.5426  0.0496 -2.2434
  978SOL    HW2 2934   3.030   1.546   2.255  0.8018  0.7869 -1.1617
  979SOL     OW 2935   1.731   2.729   1.319 -0.0498  0.1315  0.2612
  979SOL    HW1 2936   1.747   2.782   1.234 -0.8570  0.7347 -0.2235
  979SOL    HW2 2937   1.636   2.693   1.330  0.3956 -0.3341  1.2078
  980SOL     OW 2938   1.352   1.134   2.701 -0.4084 -0.4006 -0.1264
  980SOL    HW1 2939   1.295   1.171   2.626 -3.2361 -1.2097 -2.7947
  980SOL    HW2 2940   1.303   1.145   2.791  0.3392  1.6176 -1.1827
  981SOL     OW 2941   2.171   0.130   2.038 -0.0913 -0.2656  0.0669
  981SOL    HW1 2942   2.211   0.222   2.018 -1.9038  1.7272 -3.1129
  981SOL    HW2 2943   2.154   0.087   1.946  1.6781  1.3768  0.9583
  982SOL     OW 2944   0.342   0.420   3.064  0.3728 -0.2614 -0.2762
  982SOL    HW1 2945   0.328   0.416   0.029 -0.6014 -0.7401 -0.2504
  982SOL    HW2 2946   0.304   0.510   3.033  2.9280  2.7178  0.8039
  983SOL     OW 2947   2.174   1.244   2.521 -0.7731  0.7861 -0.1176
  983SOL    HW1 2948   2.273   1.250   2.546 -2.3075 -1.1700  0.0560
  983SOL    HW2 2949   2.160   1.146   2.490 -1.3007 -0.1692 -0.6317
  984SOL     OW 2950   1.223   0.064   2.192 -0.4141 -0.6040  0.1311
  984SOL    HW1 2951   1.254   3.115   2.245 -2.8271 -0.6059  0.0289
  984SOL    HW2 2952   1.245   0.148   2.243 -1.6533 -0.0155 -2.4446
  985SOL     OW 2953   2.045   1.653   1.556 -0.1995  0.3914 -0.4943
  985SOL    HW1 2954   2.032   1.639   1.656 -3.0548 -1.1770  3.9368
  985SOL    HW2 2955   2.074   1.747   1.542  0.3431  1.4273 -0.7617
  986SOL     OW 2956   2.506   0.737   1.712 -0.1300  0.0805 -0.5951
  986SOL    HW1 2957   2.515   0.640   1.711 -2.0843  0.2113 -0.4520
  986SOL    HW2 2958   2.494   0.782   1.624  4.6680  0.7959 -0.6892
  987SOL     OW 2959   2.936   0.786   1.119 -0.2754 -0.0458  0.7364
  987SOL    HW1 2960   2.957   0.704   1.172  0.1551  3.4302 -1.0981
  987SOL    HW2 2961   2.850   0.786   1.067 -1.1211  1.3318 -0.0545
  988SOL     OW 2962   3.015   0.741   2.028  0.3180 -0.0491  0.2453
  988SOL    HW1 2963   2.918   0.741   2.061 -1.6991  0.0767  1.4379
  988SOL    HW2 2964   3.055   0.832   2.054 -2.0645 -0.9864 -1.0366
  989SOL     OW 2965   2.456   1.450   0.108  0.3293  0.4461 -0.0406
  989SOL    HW1 2966   2.433   1.470   0.205 -0.0438  1.0876  0.3901
  989SOL    HW2 2967   2.482   1.531   0.050  1.1966 -0.8544 -1.8922
  990SOL     OW 2968   1.017   0.415   2.938 -0.6293  0.0763 -0.0451
  990SOL    HW1 2969   1.091   0.342   2.931 -1.0330  2.3151  2.3522
  990SOL    HW2 2970   1.050   0.496   2.993 -1.1615 -1.1557  2.4280
  991SOL     OW 2971   1.188   1.166   0.470 -0.3535 -0.4104  0.2519
  991SOL    HW1 2972   1.194   1.244   0.403 -0.7745 -1.0843 -1.3330
  991SOL    HW2 2973   1.136   1.192   0.554  0.0996  3.4714  0.4421
  992SOL     OW 2974   2.179   1.362   0.128 -0.0589  0.4042 -0.2197
  992SOL    HW1 2975   2.145   1.453   0.155  3.0141 -2.0900  0.2344
  992SOL    HW2 2976   2.282   1.360   0.097  0.3082  1.1283  0.0802
  993SOL     OW 2977   3.049   0.618   0.778 -0.4407 -0.2144  0.1919
  993SOL    HW1 2978   3.093   0.579   0.861 -1.4139 -1.0352  0.1935
  993SOL    HW2 2979   3.021   0.715   0.792  2.3015 -0.1940  1.4656
  994SOL     OW 2980   0.112   1.984   2.445 -0.5135 -0.4368  0.4717
  994SOL    HW1 2981   0.027   1.995   2.497 -1.2636  0.0296 -1.0093
  994SOL    HW2 2982   0.181   2.025   2.506  2.0250  0.7367 -0.5398
  995SOL     OW 2983   1.757   1.372   2.735  0.1697 -0.0226  0.2420
  995SOL    HW1 2984   1.725   1.278   2.747 -0.7421  0.1125  2.9723
  995SOL    HW2 2985   1.858   1.376   2.726 -1.8693  0.0107  0.7080
  996SOL     OW 2986   2.484   0.979   0.033  0.4717 -0.3200 -0.0078
  996SOL    HW1 2987   2.401   1.010   0.090  0.3858  0.3247  1.5214
  996SOL    HW2 2988   2.473   0.882   3.127 -0.0639 -0.9012 -1.4491
  997SOL     OW 2989   2.081   1.034   1.833 -0.2317 -0.1580  0.0783
  997SOL    HW1 2990   2.148   1.065   1.903 -2.1839 -0.9706 -1.0567
  997SOL    HW2 2991   2.062   1.110   1.765  0.1874  0.4070 -0.1830
  998SOL     OW 2992   2.759   1.976   0.293  0.5022 -0.4126  0.3094
  998SOL    HW1 2993   2.714   1.887   0.287  2.3234  1.0612  0.9487
  998SOL    HW2 2994   2.727   2.021   0.378  1.9102 -2.7521  1.2127
  999SOL     OW 2995   2.814   2.366   0.039 -0.3251 -0.4706  0.1031
  999SOL    HW1 2996   2.874   2.286   0.045  1.7042  3.8862  1.7419
  999SOL    HW2 2997   2.867   2.446   0.073 -1.7031  0.3199  0.7134
 1000SOL     OW 2998   1.221   0.509   2.170  0.4654  0.0375  0.4931
 1000SOL    HW1 2999   1.196   0.428   2.226 -0.9982  2.9186  0.9405
 1000SOL    HW2 3000   1.148   0.541   2.108  4.2034  0.0140  3.2022
   3.13465   3.13465   3.13465
