1000 SPC/Fw water molecules t= 324.00000 step= 324000
 3000
    1SOL     OW    1   2.324   0.147   1.137 -0.5583 -0.0251 -0.2884
    1SOL    HW1    2   2.256   0.070   1.147  2.8696  0.8966 -0.5574
    1SOL    HW2    3   2.419   0.116   1.154  0.6687 -0.3966  0.4226
    2SOL     OW    4   2.692   2.550   0.941  0.0221 -0.1613  0.3209
    2SOL    HW1    5   2.711   2.561   1.039 -1.7515  1.0423  0.4080
    2SOL    HW2    6   2.751   2.474   0.907  0.0575  3.3933 -0.2948
    3SOL     OW    7   0.999   3.051   2.842 -0.6417 -0.2737 -0.8596
    3SOL    HW1    8   1.041   2.988   2.912  0.1431 -0.2693  1.3224
    3SOL    HW2    9   0.919   3.093   2.889 -0.7878 -0.7200  0.6411
    4SOL     OW   10   1.953   2.513   2.009 -0.2921 -0.3460  0.0080
    4SOL    HW1   11   2.040   2.563   1.996  1.7660  2.4400 -1.3955
    4SOL    HW2   12   1.950   2.420   1.963  1.1885 -0.3451  0.1193
    5SOL     OW   13   1.779   0.888   1.684 -0.5362  0.2713 -0.3217
    5SOL    HW1   14   1.709   0.857   1.612 -0.9035  0.8887  0.8578
    5SOL    HW2   15   1.827   0.970   1.653 -2.1141  2.8314 -1.3352
    6SOL     OW   16   2.219   2.445   0.813  0.3269 -0.4442 -0.3908
    6SOL    HW1   17   2.198   2.357   0.769  2.6629  0.5186 -1.4480
    6SOL    HW2   18   2.170   2.460   0.900 -1.4456  1.8554 -0.6051
    7SOL     OW   19   2.416   1.521   1.085 -0.5849  0.0830 -0.8135
    7SOL    HW1   20   2.495   1.537   1.148  0.4114  1.7133 -0.4919
    7SOL    HW2   21   2.345   1.474   1.137 -1.5664 -0.4483 -0.6940
    8SOL     OW   22   0.946   1.873   1.341  0.4026  0.0448  0.0389
    8SOL    HW1   23   0.848   1.843   1.345 -0.7988 -2.7900 -1.9658
    8SOL    HW2   24   0.955   1.973   1.349 -0.2141 -0.3972  0.1357
    9SOL     OW   25   1.286   2.766   2.353 -0.3219 -0.5176  0.4940
    9SOL    HW1   26   1.242   2.681   2.392  0.1393 -1.6403 -2.1437
    9SOL    HW2   27   1.238   2.796   2.267  0.9061 -0.2586 -1.8181
   10SOL     OW   28   0.527   2.030   0.876  0.0324  0.2301 -0.9339
   10SOL    HW1   29   0.625   1.997   0.888  0.2426 -2.5191  2.0284
   10SOL    HW2   30   0.469   2.017   0.965 -3.2722  0.1486  2.7628
   11SOL     OW   31   1.766   1.653   1.014  0.4224 -0.0780  0.4357
   11SOL    HW1   32   1.820   1.570   1.010 -1.6423 -1.2424  0.4073
   11SOL    HW2   33   1.751   1.686   1.109  1.3342 -1.8436 -1.1213
   12SOL     OW   34   2.596   2.671   1.860 -0.2304  0.3785 -0.4662
   12SOL    HW1   35   2.581   2.569   1.848  0.3415 -1.3373  0.9999
   12SOL    HW2   36   2.697   2.683   1.856 -0.1879 -0.3930 -0.0158
   13SOL     OW   37   2.471   2.932   0.353  0.5660  0.3747 -0.3058
   13SOL    HW1   38   2.369   2.935   0.350  0.1856  0.0480 -2.7696
   13SOL    HW2   39   2.514   2.964   0.439  0.2643 -3.2175  2.0514
   14SOL     OW   40   1.486   2.051   0.039 -0.0676 -0.0563  0.2571
   14SOL    HW1   41   1.437   2.091   0.119  0.4998  1.0118 -0.7923
   14SOL    HW2   42   1.567   2.002   0.064 -0.7963  2.8788 -0.7860
   15SOL     OW   43   2.827   2.407   1.463  0.2606 -0.2792 -0.0172
   15SOL    HW1   44   2.859   2.430   1.559  1.0388  2.0114  0.8181
   15SOL    HW2   45   2.778   2.491   1.429  0.0810  0.5538  0.4110
   16SOL     OW   46   2.542   0.061   0.247  0.1120  0.0943  0.5487
   16SOL    HW1   47   2.527   3.072   0.273  1.1260  0.8563  1.1477
   16SOL    HW2   48   2.609   0.099   0.317 -0.2487 -1.0449 -2.5656
   17SOL     OW   49   0.091   0.353   1.496 -0.5661 -0.1141  0.1522
   17SOL    HW1   50   0.186   0.324   1.480 -2.6689  0.0179  2.7529
   17SOL    HW2   51   0.071   0.364   1.595 -1.1753 -1.0434  0.0595
   18SOL     OW   52   2.173   0.944   0.334  0.0966  0.6073 -0.3571
   18SOL    HW1   53   2.177   0.855   0.285 -0.5467  0.8212  1.6017
   18SOL    HW2   54   2.154   0.927   0.432  0.4064  1.5692 -0.5888
   19SOL     OW   55   1.652   1.836   0.505  0.0601 -0.6270  0.2727
   19SOL    HW1   56   1.621   1.737   0.493 -2.6126 -1.8933 -1.6706
   19SOL    HW2   57   1.749   1.833   0.517 -1.9526 -0.5459  0.8398
   20SOL     OW   58   2.380   2.151   2.209 -0.1893 -0.2121 -0.2864
   20SOL    HW1   59   2.342   2.145   2.304  1.0806 -1.0773  3.5013
   20SOL    HW2   60   2.357   2.246   2.174 -1.3431 -0.5578  2.0852
   21SOL     OW   61   1.598   0.247   0.729 -0.2318 -0.7923  0.7575
   21SOL    HW1   62   1.640   0.167   0.775  1.6310 -0.1911 -2.1735
   21SOL    HW2   63   1.514   0.278   0.778 -0.7097  1.8795 -2.5898
   22SOL     OW   64   2.546   0.069   1.615 -0.0171 -0.1177 -0.4388
   22SOL    HW1   65   2.532   0.160   1.657 -0.9028 -2.6459 -2.9451
   22SOL    HW2   66   2.465   0.007   1.626 -1.9088  0.3579 -1.6028
   23SOL     OW   67   0.026   0.565   1.986  0.4443  0.2973 -0.8685
   23SOL    HW1   68   3.096   0.577   2.079 -0.7161  0.5486  0.9313
   23SOL    HW2   69   3.096   0.626   1.916 -1.8096 -1.3673 -0.8521
   24SOL     OW   70   2.650   2.754   0.269 -0.1879  0.7277 -0.3971
   24SOL    HW1   71   2.640   2.702   0.353 -2.9691 -0.7994 -2.1881
   24SOL    HW2   72   2.605   2.842   0.287  2.8502 -0.7465  1.5895
   25SOL     OW   73   1.275   3.010   2.485 -0.7979  0.9364  0.3001
   25SOL    HW1   74   1.309   2.925   2.444 -1.6197 -0.6211 -1.6225
   25SOL    HW2   75   1.321   3.022   2.575  1.9826  1.6495  1.5051
   26SOL     OW   76   1.410   2.347   0.450  0.3086  0.0627 -0.0745
   26SOL    HW1   77   1.507   2.349   0.474 -1.8832 -0.9205  1.4692
   26SOL    HW2   78   1.380   2.428   0.400  1.8825  0.6415  1.9871
   27SOL     OW   79   2.412   1.234   2.898  0.1230  0.0659  0.4902
   27SOL    HW1   80   2.432   1.324   2.940 -0.3054  2.6293 -2.4291
   27SOL    HW2   81   2.456   1.222   2.802  1.1546  0.8333 -2.3443
   28SOL     OW   82   1.162   1.496   1.242  0.4742 -0.5783  0.5427
   28SOL    HW1   83   1.176   1.408   1.295 -1.9703 -1.9571  0.9801
   28SOL    HW2   84   1.061   1.523   1.236 -2.8721  0.4040  1.3046
   29SOL     OW   85   2.889   2.425   1.735  0.2640 -0.0227  0.3043
   29SOL    HW1   86   2.879   2.520   1.768  0.5127 -2.7174 -0.8563
   29SOL    HW2   87   2.980   2.384   1.748 -3.6632 -0.2319  0.2495
   30SOL     OW   88   1.291   0.123   1.096  0.1773  0.2500 -0.0731
   30SOL    HW1   89   1.203   0.170   1.077 -1.4102 -1.2437  1.4223
   30SOL    HW2   90   1.370   0.189   1.083 -0.4555 -0.8295 -1.0870
   31SOL     OW   91   2.193   2.996   1.885 -0.1728  0.2894  0.2356
   31SOL    HW1   92   2.198   3.096   1.918 -1.4550  1.7362  1.2981
   31SOL    HW2   93   2.102   2.957   1.907  2.1322  0.0822 -3.2101
   32SOL     OW   94   0.923   1.780   0.358 -0.2372 -0.3493 -0.1652
   32SOL    HW1   95   0.968   1.729   0.436  1.6791 -0.8364  2.5062
   32SOL    HW2   96   0.840   1.829   0.399  0.9921 -4.3284 -2.7475
   33SOL     OW   97   0.368   0.771   2.293 -0.2942  0.6129  0.3306
   33SOL    HW1   98   0.336   0.768   2.393  1.2132  0.6629  0.8289
   33SOL    HW2   99   0.433   0.693   2.273  1.5961  0.5649 -0.5531
   34SOL     OW  100   2.185   2.960   0.446 -0.4321 -0.2130 -0.1902
   34SOL    HW1  101   2.171   2.989   0.540 -2.1521 -1.6844 -1.4065
   34SOL    HW2  102   2.142   3.030   0.386  3.0574  0.3515 -0.1349
   35SOL     OW  103   2.050   2.628   1.713  0.7629 -0.1282 -0.4470
   35SOL    HW1  104   1.984   2.701   1.744  1.2858 -2.0072  2.6738
   35SOL    HW2  105   1.991   2.544   1.705 -1.1630 -0.4172  0.7027
   36SOL     OW  106   1.798   2.371   3.020  0.3234 -0.2368  0.0112
   36SOL    HW1  107   1.729   2.379   2.943 -2.5925  2.5127 -1.8028
   36SOL    HW2  108   1.870   2.308   3.001 -4.0570 -0.8313  1.0418
   37SOL     OW  109   1.336   0.485   2.368 -0.0349 -0.2997  0.2355
   37SOL    HW1  110   1.304   0.579   2.396 -0.6175 -1.4826  2.4199
   37SOL    HW2  111   1.256   0.421   2.391 -1.3117  0.5447  1.8588
   38SOL     OW  112   0.209   0.199   2.668 -0.1207 -0.1206 -0.4369
   38SOL    HW1  113   0.198   0.293   2.624 -1.9613  1.1931 -1.6782
   38SOL    HW2  114   0.294   0.151   2.646 -4.5863 -1.9664  0.7372
   39SOL     OW  115   2.430   1.446   1.824 -0.2582  0.2796 -0.0749
   39SOL    HW1  116   2.469   1.528   1.776  0.2158  0.5802 -2.8412
   39SOL    HW2  117   2.372   1.473   1.904  2.0090  1.7996 -2.5198
   40SOL     OW  118   1.359   2.911   0.460  0.4556 -0.0195 -0.2959
   40SOL    HW1  119   1.343   2.992   0.522 -1.6582 -1.5573 -0.1702
   40SOL    HW2  120   1.324   2.829   0.515 -1.0113 -1.4382  4.2928
   41SOL     OW  121   2.396   1.396   0.831  0.2511  0.1510  0.0520
   41SOL    HW1  122   2.399   1.458   0.911 -0.4356  2.1758 -0.4024
   41SOL    HW2  123   2.387   1.446   0.743  0.2178  1.9047 -0.7218
   42SOL     OW  124   0.602   0.461   1.435 -0.2866  0.6001 -0.0730
   42SOL    HW1  125   0.546   0.513   1.500 -1.4259 -1.0733 -0.2766
   42SOL    HW2  126   0.608   0.358   1.456  3.4484 -2.4664  2.1774
   43SOL     OW  127   0.168   1.503   2.401  0.3419 -0.3320 -0.3165
   43SOL    HW1  128   0.177   1.450   2.492  0.2831  0.0584 -1.0807
   43SOL    HW2  129   0.257   1.495   2.347  0.8135 -0.8648 -2.0429
   44SOL     OW  130   2.329   3.023   1.660 -0.4204 -0.4479 -0.2346
   44SOL    HW1  131   2.310   3.018   1.759 -0.4596 -0.6915  1.0348
   44SOL    HW2  132   2.256   3.079   1.614 -1.3088 -1.1045 -2.1958
   45SOL     OW  133   1.268   0.127   2.320 -0.3973  0.4610 -0.0951
   45SOL    HW1  134   1.365   0.156   2.324 -1.0433  0.1586  1.3303
   45SOL    HW2  135   1.261   0.041   2.376 -1.1619 -0.0417  0.2333
   46SOL     OW  136   1.197   2.731   2.771 -0.1601  0.1208 -0.5395
   46SOL    HW1  137   1.221   2.630   2.778  0.8185 -1.6547  2.2888
   46SOL    HW2  138   1.101   2.757   2.755  2.7112  1.1858  0.4164
   47SOL     OW  139   1.867   1.486   0.613  0.0430 -0.1351  0.4709
   47SOL    HW1  140   1.895   1.587   0.615  2.6577  1.9936 -1.1262
   47SOL    HW2  141   1.945   1.427   0.586 -0.6992  1.3931 -3.5825
   48SOL     OW  142   1.082   2.123   0.594 -0.5640 -0.4018  0.2077
   48SOL    HW1  143   1.071   2.146   0.497 -0.1633  0.1157 -0.5630
   48SOL    HW2  144   1.066   2.027   0.609 -1.1759  3.1707 -0.1768
   49SOL     OW  145   2.084   3.034   2.874 -0.2019  0.3578 -0.0374
   49SOL    HW1  146   2.082   2.992   2.780 -1.8642  1.7145  1.3322
   49SOL    HW2  147   2.178   3.053   2.910 -0.6747  0.1434  0.2576
   50SOL     OW  148   1.775   2.866   0.076  0.3404  0.4881 -0.2926
   50SOL    HW1  149   1.800   2.821   3.100 -0.3184 -0.4421  1.3155
   50SOL    HW2  150   1.858   2.909   0.116 -1.1958 -1.8746 -1.1180
   51SOL     OW  151   2.015   0.850   1.403 -0.8193 -0.3495 -0.2865
   51SOL    HW1  152   2.096   0.792   1.428  1.0880 -2.7644  0.7916
   51SOL    HW2  153   2.030   0.954   1.407  0.7040 -0.2828  2.7930
   52SOL     OW  154   0.979   1.582   0.892  0.3432  0.5700  0.0703
   52SOL    HW1  155   1.077   1.550   0.900  0.0480 -2.1644 -2.8855
   52SOL    HW2  156   0.960   1.657   0.960  0.8359 -1.1332  3.4871
   53SOL     OW  157   0.517   1.581   2.551 -0.0400  0.3747 -0.5356
   53SOL    HW1  158   0.491   1.658   2.616  2.5476  0.9170 -1.4803
   53SOL    HW2  159   0.471   1.494   2.572 -2.9158 -0.2148 -0.5061
   54SOL     OW  160   2.831   1.277   1.777 -0.1890  0.3070 -0.3147
   54SOL    HW1  161   2.896   1.216   1.827 -0.5136 -1.6519  1.0651
   54SOL    HW2  162   2.826   1.369   1.824  2.4068  1.4257 -3.8517
   55SOL     OW  163   2.540   1.758   0.478 -0.8031 -0.0655  0.1833
   55SOL    HW1  164   2.611   1.686   0.504 -0.8080 -1.1634  2.4318
   55SOL    HW2  165   2.579   1.843   0.514 -0.3911 -0.5128 -1.2779
   56SOL     OW  166   1.515   0.043   1.646  0.4167  0.1907 -0.4985
   56SOL    HW1  167   1.529   3.086   1.724 -0.4688  1.9620 -1.9223
   56SOL    HW2  168   1.481   0.131   1.686 -1.0112 -1.6083  0.1747
   57SOL     OW  169   1.458   1.388   2.747  0.0778  0.5293  0.4163
   57SOL    HW1  170   1.545   1.430   2.776 -2.3378  1.4010 -2.7214
   57SOL    HW2  171   1.472   1.300   2.690 -1.1717 -1.7911 -0.7536
   58SOL     OW  172   0.080   0.819   1.721  0.5221  0.8108  0.3590
   58SOL    HW1  173   0.171   0.810   1.765 -0.5895  0.3029  0.8568
   58SOL    HW2  174   0.065   0.909   1.680  1.4289  1.9652  0.7351
   59SOL     OW  175   1.859   2.789   0.392 -0.6064 -0.0651  0.2310
   59SOL    HW1  176   1.760   2.774   0.366 -2.3357 -0.5164  1.3606
   59SOL    HW2  177   1.913   2.850   0.336  0.1255 -0.2696  1.3435
   60SOL     OW  178   3.097   1.773   0.006 -0.6672 -0.0656  0.1064
   60SOL    HW1  179   3.020   1.823   0.045 -0.2660 -1.3634  1.3477
   60SOL    HW2  180   3.103   1.791   3.014 -0.7062 -1.1908  2.0947
   61SOL     OW  181   0.846   2.600   0.807 -0.0011  0.9624 -0.1428
   61SOL    HW1  182   0.762   2.614   0.866 -3.6458 -0.9782  2.4788
   61SOL    HW2  183   0.817   2.566   0.712 -1.8495 -2.3012 -1.4376
   62SOL     OW  184   1.917   1.600   2.619  0.2789  0.5967  0.2019
   62SOL    HW1  185   1.989   1.563   2.558  1.6111 -0.3063  1.5602
   62SOL    HW2  186   1.899   1.701   2.598  0.4960  0.5761 -2.0000
   63SOL     OW  187   2.188   2.186   0.698  0.0784  0.6295 -0.0647
   63SOL    HW1  188   2.269   2.175   0.637 -2.4590  0.1644 -0.2985
   63SOL    HW2  189   2.117   2.121   0.668  1.3848 -0.3515 -0.2648
   64SOL     OW  190   1.681   1.084   2.938 -0.0806  0.4030  0.5154
   64SOL    HW1  191   1.689   1.030   2.855 -0.6299  0.3918 -1.6633
   64SOL    HW2  192   1.770   1.107   2.981 -1.8030  0.8036  1.3166
   65SOL     OW  193   1.858   1.823   2.322  0.0654 -0.0655  0.0523
   65SOL    HW1  194   1.889   1.736   2.277  0.6291  3.2149 -1.2099
   65SOL    HW2  195   1.905   1.902   2.275  0.7641 -1.4089 -2.1687
   66SOL     OW  196   0.341   0.945   1.419  0.0337  0.1314 -0.0438
   66SOL    HW1  197   0.402   0.910   1.346 -1.7270  1.6455 -0.7969
   66SOL    HW2  198   0.285   1.027   1.379 -1.3267 -2.2293 -0.9099
   67SOL     OW  199   2.234   2.761   2.676  0.1053  0.1856  0.1594
   67SOL    HW1  200   2.278   2.709   2.604 -4.2967  1.7635  1.7316
   67SOL    HW2  201   2.283   2.848   2.698  0.3267 -2.2887  1.4820
   68SOL     OW  202   1.169   2.459   1.292 -0.1229  0.4027 -0.0779
   68SOL    HW1  203   1.270   2.450   1.306 -1.5829  0.4558  3.2331
   68SOL    HW2  204   1.143   2.539   1.240 -0.7328 -0.3994 -0.6831
   69SOL     OW  205   0.513   2.594   0.070  0.0424  0.2562  0.2152
   69SOL    HW1  206   0.558   2.616   0.160 -0.4252  4.3546  1.4228
   69SOL    HW2  207   0.460   2.508   0.078  1.5874  0.4310  0.9139
   70SOL     OW  208   2.786   0.531   2.409 -0.1468 -0.3344 -0.1984
   70SOL    HW1  209   2.818   0.437   2.391 -2.3185 -0.6673 -0.3717
   70SOL    HW2  210   2.858   0.589   2.459  1.6107  2.1890  0.8209
   71SOL     OW  211   0.382   1.388   2.684 -0.8742  0.4460  0.1210
   71SOL    HW1  212   0.284   1.411   2.699 -2.4496 -0.3531  0.2653
   71SOL    HW2  213   0.419   1.306   2.733  0.6172 -3.1625 -0.6408
   72SOL     OW  214   0.149   1.748   2.620  0.2695  0.3358 -0.0664
   72SOL    HW1  215   0.120   1.670   2.557  0.5211  0.7611  0.6864
   72SOL    HW2  216   0.186   1.830   2.574  0.5899 -0.3776  0.4755
   73SOL     OW  217   1.506   1.534   0.215  0.1879 -0.2391 -0.0132
   73SOL    HW1  218   1.568   1.554   0.287 -2.7746 -0.6957 -0.8895
   73SOL    HW2  219   1.418   1.591   0.223  0.7421  2.6296 -1.3626
   74SOL     OW  220   2.124   2.565   2.836 -0.2151  0.1449 -0.1202
   74SOL    HW1  221   2.158   2.647   2.790 -2.1041 -0.6447  2.2491
   74SOL    HW2  222   2.099   2.583   2.939  0.0356  0.8686  1.1846
   75SOL     OW  223   1.839   2.051   1.021 -0.1032 -0.6587 -0.0629
   75SOL    HW1  224   1.821   2.111   1.101  3.7920 -2.4055 -2.9724
   75SOL    HW2  225   1.902   1.976   1.049 -3.1332 -0.1652 -0.5951
   76SOL     OW  226   2.292   2.405   2.110  0.3669 -0.0801  0.8078
   76SOL    HW1  227   2.280   2.460   2.025 -1.0697  1.6350  1.6146
   76SOL    HW2  228   2.207   2.420   2.161  0.5720 -0.0280 -2.7961
   77SOL     OW  229   2.550   0.051   2.200 -0.0814  0.2422 -0.5551
   77SOL    HW1  230   2.516   0.058   2.105  0.7548  0.0419  0.6979
   77SOL    HW2  231   2.650   0.029   2.208  0.0911 -0.5586  2.2316
   78SOL     OW  232   1.938   1.100   3.039  0.1248  0.3500 -0.4450
   78SOL    HW1  233   2.000   1.155   3.094 -0.6851 -1.2868 -0.1397
   78SOL    HW2  234   1.986   1.014   3.008 -0.4247 -0.9367  3.2120
   79SOL     OW  235   2.630   1.586   2.591 -0.2162  0.2682 -0.3695
   79SOL    HW1  236   2.690   1.663   2.576  0.3778 -0.5879  0.6747
   79SOL    HW2  237   2.569   1.566   2.512 -0.0545 -1.3705 -0.5622
   80SOL     OW  238   1.801   1.691   1.504  0.5670 -0.2765  0.1207
   80SOL    HW1  239   1.748   1.754   1.559 -0.9336 -2.9722 -3.3606
   80SOL    HW2  240   1.813   1.604   1.556 -1.0760  3.6791  1.1309
   81SOL     OW  241   1.916   0.658   1.758 -0.3060  0.0370  0.0979
   81SOL    HW1  242   1.987   0.674   1.826 -0.6204  0.1750  0.1628
   81SOL    HW2  243   1.881   0.750   1.720 -2.3644 -0.2499  2.2672
   82SOL     OW  244   1.921   2.029   1.704  0.4272 -0.3742 -0.3192
   82SOL    HW1  245   1.959   1.967   1.636  0.3207  0.5753  2.8286
   82SOL    HW2  246   1.991   2.096   1.729  1.7200 -3.4248 -1.5162
   83SOL     OW  247   3.018   0.076   0.151  0.1777  0.5112  0.6318
   83SOL    HW1  248   3.060   0.124   0.230  1.9848 -0.1326 -0.9997
   83SOL    HW2  249   3.040   0.117   0.061  1.8672 -0.6463  0.1348
   84SOL     OW  250   0.597   1.207   0.152  0.2254 -0.0636  0.3450
   84SOL    HW1  251   0.649   1.180   0.063  3.5094  1.6934 -3.8327
   84SOL    HW2  252   0.657   1.193   0.233  0.7431  0.6067 -0.0290
   85SOL     OW  253   2.707   1.980   1.591  0.1075 -0.2192  0.5845
   85SOL    HW1  254   2.658   2.011   1.675 -0.7540  1.3838  3.9660
   85SOL    HW2  255   2.721   1.881   1.602  0.4800  1.5190  0.0981
   86SOL     OW  256   0.336   2.743   1.404  0.0880 -0.4008 -0.2308
   86SOL    HW1  257   0.401   2.684   1.359 -2.8263  1.2411  1.4606
   86SOL    HW2  258   0.392   2.793   1.477  1.3588 -1.2056  1.4455
   87SOL     OW  259   0.535   2.527   2.409 -0.2879 -0.5320 -0.0140
   87SOL    HW1  260   0.576   2.488   2.326 -0.5346  1.1192  0.1309
   87SOL    HW2  261   0.489   2.451   2.459  2.0352  3.7139 -1.6590
   88SOL     OW  262   0.140   2.219   0.626 -0.1406  0.1352 -0.6281
   88SOL    HW1  263   0.189   2.281   0.694  2.0313  1.3846 -1.7466
   88SOL    HW2  264   0.205   2.161   0.574  2.5393 -0.9724 -0.2880
   89SOL     OW  265   0.736   0.694   1.433  0.7521  0.1777 -0.2224
   89SOL    HW1  266   0.826   0.696   1.382  0.9422 -1.9255  0.7097
   89SOL    HW2  267   0.691   0.607   1.410  0.0271  2.7526  1.6542
   90SOL     OW  268   0.149   1.252   1.733  0.2448  0.1232  0.4161
   90SOL    HW1  269   0.097   1.322   1.675  0.9800  1.9659  0.0636
   90SOL    HW2  270   0.252   1.246   1.710  2.0170 -2.7513 -1.3058
   91SOL     OW  271   1.169   0.697   1.127 -0.1732 -0.0182 -0.2350
   91SOL    HW1  272   1.231   0.779   1.133 -0.7748  0.2163 -2.0930
   91SOL    HW2  273   1.199   0.639   1.051  0.8142 -0.9501 -0.1023
   92SOL     OW  274   2.100   1.001   0.738  0.5247 -0.5565  0.0590
   92SOL    HW1  275   2.159   1.085   0.722  1.6913  4.3347  0.0919
   92SOL    HW2  276   2.000   1.020   0.717 -3.6554 -0.1481 -1.2993
   93SOL     OW  277   2.459   0.758   2.428  0.0301 -0.3904 -0.0434
   93SOL    HW1  278   2.497   0.668   2.391 -1.2873  2.8805  0.8727
   93SOL    HW2  279   2.404   0.747   2.511  1.3626  2.4226 -0.2933
   94SOL     OW  280   2.104   1.811   2.516 -0.0949  0.1428  0.2374
   94SOL    HW1  281   2.028   1.880   2.511  0.6266  1.6832 -1.9354
   94SOL    HW2  282   2.140   1.802   2.612  1.0414  3.7392 -1.8875
   95SOL     OW  283   2.710   0.715   1.150 -0.0919 -0.2651 -0.2162
   95SOL    HW1  284   2.744   0.707   1.054  1.9302  1.3094  2.0381
   95SOL    HW2  285   2.614   0.684   1.157 -1.3469  2.0292 -0.0842
   96SOL     OW  286   2.427   2.783   1.645 -0.7094  0.5208  0.0825
   96SOL    HW1  287   2.395   2.879   1.650 -1.8108 -0.8563 -1.5164
   96SOL    HW2  288   2.502   2.763   1.713 -0.2340 -0.9724  1.0398
   97SOL     OW  289   2.636   1.122   1.305 -0.5078 -0.2324  0.6088
   97SOL    HW1  290   2.647   1.192   1.235  0.8411  0.5096  0.6937
   97SOL    HW2  291   2.638   1.165   1.400  1.3600  0.5541 -1.2402
   98SOL     OW  292   1.510   2.166   1.851 -0.2135 -0.1668  0.5279
   98SOL    HW1  293   1.499   2.067   1.829 -1.1408 -0.4695 -1.3583
   98SOL    HW2  294   1.426   2.223   1.843  0.4602 -2.4517 -0.5240
   99SOL     OW  295   0.376   2.444   1.362 -0.1371  0.7667  0.2287
   99SOL    HW1  296   0.323   2.446   1.278  0.8499 -1.8644 -1.0956
   99SOL    HW2  297   0.474   2.477   1.351  0.7011  1.5541  0.4400
  100SOL     OW  298   1.128   0.535   2.985  0.0745 -0.0237 -0.2375
  100SOL    HW1  299   1.167   0.608   3.044  1.5571 -1.6846 -1.4106
  100SOL    HW2  300   1.166   0.540   2.892 -3.2359  2.3288  3.9365
  101SOL     OW  301   2.468   0.093   2.722  0.5148 -0.6731  0.0947
  101SOL    HW1  302   2.501   0.082   2.626 -1.4465 -1.5355 -2.8133
  101SOL    HW2  303   2.422   0.183   2.739  0.2723 -1.0220  3.0164
  102SOL     OW  304   0.480   0.849   1.623 -0.1555  0.1363 -0.0257
  102SOL    HW1  305   0.422   0.886   1.549 -0.7322 -4.1990 -0.3059
  102SOL    HW2  306   0.574   0.884   1.616  0.9076 -2.8643 -1.0217
  103SOL     OW  307   0.283   0.743   2.547  0.0240 -0.0483 -0.0521
  103SOL    HW1  308   0.211   0.799   2.597 -1.0649  0.8033 -0.2556
  103SOL    HW2  309   0.349   0.688   2.608  1.8264 -1.1752  1.7505
  104SOL     OW  310   0.675   0.502   2.524 -0.0533  0.0826  0.3381
  104SOL    HW1  311   0.678   0.482   2.422  0.8204  1.2971  0.3555
  104SOL    HW2  312   0.752   0.454   2.569  1.9864  1.5524  0.3657
  105SOL     OW  313   2.158   2.214   1.691  0.1576 -0.1658 -0.6457
  105SOL    HW1  314   2.210   2.297   1.668  3.1848 -1.7746  0.1148
  105SOL    HW2  315   2.178   2.133   1.632 -1.3910 -1.1921 -3.6578
  106SOL     OW  316   1.939   0.132   0.585 -0.4262 -0.2966  0.2749
  106SOL    HW1  317   1.877   0.076   0.525  0.4608  0.0690 -0.6953
  106SOL    HW2  318   2.000   0.193   0.529  0.1941 -2.2237  2.2218
  107SOL     OW  319   2.785   2.036   1.020 -0.0658  0.1885 -0.6791
  107SOL    HW1  320   2.768   2.134   1.049 -0.5142  0.6112  1.9195
  107SOL    HW2  321   2.723   2.001   0.943  0.4878  0.7209 -4.6333
  108SOL     OW  322   2.899   2.768   1.511  0.1635 -0.5567  0.6544
  108SOL    HW1  323   2.850   2.855   1.510 -0.2925 -1.5871  1.7047
  108SOL    HW2  324   2.993   2.785   1.467  0.0803  1.4902 -0.4005
  109SOL     OW  325   2.123   2.493   1.062  0.2166  0.3720  0.2345
  109SOL    HW1  326   2.095   2.473   1.158  1.8865 -1.3947 -0.2981
  109SOL    HW2  327   2.144   2.591   1.052  1.9439 -2.7420 -1.6226
  110SOL     OW  328   0.725   1.740   2.445 -0.0991  0.0523  0.0993
  110SOL    HW1  329   0.660   1.680   2.497 -1.0471  2.1619  2.1823
  110SOL    HW2  330   0.814   1.750   2.488 -1.6892  1.4644 -0.4921
  111SOL     OW  331   1.585   2.502   2.271 -0.1687  0.0791  0.2328
  111SOL    HW1  332   1.680   2.549   2.276  3.0925 -1.2739  0.0752
  111SOL    HW2  333   1.535   2.538   2.190 -0.0886  1.7611 -0.3661
  112SOL     OW  334   1.939   1.747   2.974  0.2886  0.3471  0.0514
  112SOL    HW1  335   2.036   1.765   2.998 -0.6567 -1.7222 -0.0780
  112SOL    HW2  336   1.916   1.788   2.885 -1.7033  0.0610  2.1629
  113SOL     OW  337   1.722   2.124   1.551  0.9108  0.3901  0.2865
  113SOL    HW1  338   1.683   2.037   1.506 -2.4850 -0.9787  1.0586
  113SOL    HW2  339   1.789   2.101   1.626  0.4921 -1.7661  3.5834
  114SOL     OW  340   2.950   1.021   0.864  0.5982  0.1216  0.5001
  114SOL    HW1  341   2.883   0.951   0.838 -0.8534  1.2910 -0.7301
  114SOL    HW2  342   3.008   0.990   0.940 -0.1777 -1.1821 -0.4441
  115SOL     OW  343   0.701   0.807   0.275 -0.0186  0.1471  0.2070
  115SOL    HW1  344   0.622   0.842   0.330  0.9475  1.3292  0.4647
  115SOL    HW2  345   0.662   0.748   0.202 -0.1243 -2.4485  0.9651
  116SOL     OW  346   2.793   1.812   2.470  0.2910  0.4928 -0.8733
  116SOL    HW1  347   2.711   1.867   2.465  1.0671 -0.1264 -0.6234
  116SOL    HW2  348   2.862   1.874   2.514  0.4749 -1.5358 -0.6170
  117SOL     OW  349   2.897   2.929   0.589  0.2666  0.2196  0.5227
  117SOL    HW1  350   2.960   2.876   0.528  1.3452  3.2043 -1.1234
  117SOL    HW2  351   2.867   2.873   0.670 -0.3240 -3.1141  4.0842
  118SOL     OW  352   1.050   1.516   2.985  0.1305 -0.2046 -0.0610
  118SOL    HW1  353   0.984   1.538   2.914  1.9477  2.0440  1.8838
  118SOL    HW2  354   1.054   1.602   3.042  0.7292  0.8348  1.2903
  119SOL     OW  355   0.294   2.010   3.069  0.1143  0.1036  0.1139
  119SOL    HW1  356   0.207   2.072   3.081  0.0404  1.3396 -1.7544
  119SOL    HW2  357   0.279   1.910   3.089 -1.0263  0.1888 -1.8152
  120SOL     OW  358   1.386   0.683   0.287 -0.1598 -0.2482  0.1743
  120SOL    HW1  359   1.321   0.695   0.207  0.3534  2.5295  0.5275
  120SOL    HW2  360   1.477   0.719   0.259 -0.5370 -2.7898 -1.1066
  121SOL     OW  361   1.257   2.681   0.543  0.2257 -0.3858  0.3080
  121SOL    HW1  362   1.292   2.617   0.611 -2.1148  0.6471  0.4390
  121SOL    HW2  363   1.287   2.640   0.454  0.4680 -0.2852  1.7559
  122SOL     OW  364   2.448   2.388   1.388 -0.1838  0.1627 -0.8134
  122SOL    HW1  365   2.409   2.407   1.296 -1.9801 -1.5612  0.1480
  122SOL    HW2  366   2.524   2.314   1.394 -1.6900 -1.3231  0.3114
  123SOL     OW  367   0.699   1.947   0.447  0.2541 -0.2089 -0.5549
  123SOL    HW1  368   0.662   1.969   0.353 -1.2536  1.1375  1.6651
  123SOL    HW2  369   0.680   2.017   0.518  1.6324 -1.6858  0.5903
  124SOL     OW  370   2.926   0.787   0.300 -0.5171  0.1885 -0.0755
  124SOL    HW1  371   3.025   0.783   0.285  0.2389 -0.7068 -0.1180
  124SOL    HW2  372   2.896   0.881   0.275 -0.1997 -1.0614 -1.2886
  125SOL     OW  373   0.333   0.706   0.343  0.3123  0.2183  0.6816
  125SOL    HW1  374   0.363   0.710   0.245  1.5794 -0.9590  1.3230
  125SOL    HW2  375   0.389   0.775   0.399 -2.2910  0.5071  0.0385
  126SOL     OW  376   0.061   2.074   0.871 -0.5016 -0.0382  0.4043
  126SOL    HW1  377   0.137   2.004   0.851  1.4241  1.5115  0.8949
  126SOL    HW2  378   0.084   2.156   0.815 -1.3092 -1.0102 -0.6965
  127SOL     OW  379   1.460   1.883   1.837 -0.3392  0.3055  0.5059
  127SOL    HW1  380   1.499   1.847   1.926  1.6151  0.1085  0.7680
  127SOL    HW2  381   1.369   1.855   1.812  3.2541  2.4512  1.7634
  128SOL     OW  382   1.299   1.311   0.560 -0.4369 -0.3569  0.1686
  128SOL    HW1  383   1.309   1.304   0.459 -0.6847  0.5623  2.4878
  128SOL    HW2  384   1.343   1.235   0.611 -1.5129 -0.2492  0.0201
  129SOL     OW  385   2.064   1.248   1.146 -0.1986 -0.5097  0.1383
  129SOL    HW1  386   2.008   1.216   1.068  0.2913 -1.8954  2.0131
  129SOL    HW2  387   2.038   1.346   1.167 -2.2211  1.0519 -1.1949
  130SOL     OW  388   2.485   1.656   1.648 -0.1722  0.1711  0.4056
  130SOL    HW1  389   2.400   1.703   1.615 -2.2242 -0.3805  1.6359
  130SOL    HW2  390   2.575   1.697   1.610  2.1077 -1.2433 -1.5301
  131SOL     OW  391   3.032   2.637   2.843  0.3849 -0.4685 -0.4037
  131SOL    HW1  392   2.933   2.642   2.867 -2.2483 -3.2226  1.7059
  131SOL    HW2  393   3.047   2.699   2.766 -3.1803 -1.1945  0.3592
  132SOL     OW  394   0.023   1.556   0.353 -0.3317 -0.1161  0.1095
  132SOL    HW1  395   3.086   1.514   0.272 -0.2220  0.0221  0.1937
  132SOL    HW2  396   0.027   1.499   0.434 -1.5210  0.8337  1.6058
  133SOL     OW  397   0.333   0.453   1.809 -0.1085 -0.0982 -0.5988
  133SOL    HW1  398   0.355   0.470   1.908 -0.2345 -1.9414  2.3935
  133SOL    HW2  399   0.238   0.415   1.799  1.0148 -1.2726 -0.8813
  134SOL     OW  400   0.419   1.763   2.723  0.0535  0.6775 -0.0955
  134SOL    HW1  401   0.323   1.772   2.684  1.5228  0.5794  1.1068
  134SOL    HW2  402   0.444   1.853   2.767 -1.2148 -0.5352 -0.2553
  135SOL     OW  403   1.537   0.621   1.904 -0.3392  0.1293 -0.2100
  135SOL    HW1  404   1.572   0.712   1.923 -2.1671 -1.6942 -1.0162
  135SOL    HW2  405   1.506   0.575   1.987  1.3407  0.7107 -3.0418
  136SOL     OW  406   0.064   1.253   0.279  0.1092 -0.1504 -0.1316
  136SOL    HW1  407   0.155   1.205   0.275 -1.8584  1.4760 -1.5104
  136SOL    HW2  408   0.032   1.267   0.184  0.6956  0.6857  1.0672
  137SOL     OW  409   0.183   1.619   0.959  0.3265  0.2771  0.6080
  137SOL    HW1  410   0.125   1.594   0.878 -2.0147 -1.2732 -1.6178
  137SOL    HW2  411   0.260   1.670   0.917  0.0404  0.8218 -0.7132
  138SOL     OW  412   2.281   0.763   1.406 -0.4361  0.4469 -0.0050
  138SOL    HW1  413   2.312   0.831   1.336 -0.6962 -1.3694  0.9146
  138SOL    HW2  414   2.363   0.707   1.435  2.1666 -1.4445 -0.9739
  139SOL     OW  415   1.343   2.579   0.287  0.4127 -0.2873 -0.0317
  139SOL    HW1  416   1.388   2.626   0.208  3.1682 -0.2446  0.4620
  139SOL    HW2  417   1.246   2.548   0.261 -0.0326  1.8919  0.1696
  140SOL     OW  418   1.370   1.710   1.267 -0.0019  0.0138 -0.1182
  140SOL    HW1  419   1.305   1.635   1.259  1.0683  0.5383  0.8074
  140SOL    HW2  420   1.445   1.699   1.200  0.3185  0.8706 -0.8421
  141SOL     OW  421   1.355   2.166   0.274 -0.4162 -0.2918  0.2175
  141SOL    HW1  422   1.256   2.167   0.270  4.0084  3.3903  0.6112
  141SOL    HW2  423   1.382   2.237   0.341 -2.6371 -1.1162 -4.0334
  142SOL     OW  424   1.048   0.493   0.712  0.5525  0.8008  1.0001
  142SOL    HW1  425   1.066   0.410   0.655 -0.8126  0.1937 -1.5555
  142SOL    HW2  426   0.993   0.556   0.652 -0.9002 -2.2815 -0.0570
  143SOL     OW  427   0.719   1.870   2.890  0.6439 -0.1088  0.1752
  143SOL    HW1  428   0.803   1.929   2.891 -0.2490  0.5853  2.5707
  143SOL    HW2  429   0.643   1.933   2.873 -0.1368 -0.7968  1.3859
  144SOL     OW  430   1.510   2.668   0.830  0.4531 -1.2216  0.0716
  144SOL    HW1  431   1.498   2.742   0.898  0.9793 -0.6955 -0.8721
  144SOL    HW2  432   1.604   2.661   0.791  0.0308  0.8563 -1.0732
  145SOL     OW  433   1.850   0.614   2.592 -0.4817  0.1557 -0.2925
  145SOL    HW1  434   1.948   0.596   2.566  1.4219 -3.2496  0.7067
  145SOL    HW2  435   1.798   0.531   2.568  0.6975  1.4411 -1.3710
  146SOL     OW  436   0.088   2.931   0.738  0.5886 -0.5062  1.0383
  146SOL    HW1  437   0.012   3.001   0.727 -1.2384  0.7460  1.7970
  146SOL    HW2  438   0.154   2.945   0.660 -0.2112  1.1566 -0.8810
  147SOL     OW  439   2.184   0.160   1.933 -0.1542 -0.2959  0.1518
  147SOL    HW1  440   2.155   0.194   1.842 -0.8652 -0.2543  1.5641
  147SOL    HW2  441   2.105   0.155   1.993  1.6272 -2.2363  0.3396
  148SOL     OW  442   1.218   0.178   1.995 -0.2240 -0.5543 -0.6592
  148SOL    HW1  443   1.127   0.223   1.975 -3.2883 -1.0971  0.9763
  148SOL    HW2  444   1.240   0.198   2.095  2.6744 -3.0758  3.1150
  149SOL     OW  445   1.461   0.501   2.124 -0.2095 -0.1798 -0.6276
  149SOL    HW1  446   1.465   0.401   2.092  1.0660 -2.1746 -0.9846
  149SOL    HW2  447   1.389   0.496   2.199 -0.1792  0.5347 -0.9851
  150SOL     OW  448   3.091   0.198   3.023 -0.6496 -0.1195  0.8032
  150SOL    HW1  449   3.071   0.267   3.092  0.1793  2.0315 -1.5565
  150SOL    HW2  450   3.083   0.240   2.930 -0.3903  0.8377  1.4734
  151SOL     OW  451   0.673   1.650   0.248 -0.1474 -0.2356  0.0923
  151SOL    HW1  452   0.663   1.669   0.150 -1.8503 -1.1308  4.4715
  151SOL    HW2  453   0.741   1.707   0.290 -1.7073 -0.3470 -2.8859
  152SOL     OW  454   3.069   0.428   0.445 -0.1027  0.1229 -0.0396
  152SOL    HW1  455   2.984   0.461   0.401 -0.0379  2.4545 -0.9445
  152SOL    HW2  456   3.105   0.503   0.505 -1.1667  0.8105 -0.1818
  153SOL     OW  457   2.455   0.600   1.519 -0.2500 -0.0248 -0.0722
  153SOL    HW1  458   2.372   0.538   1.534 -0.0171  0.2847  1.0300
  153SOL    HW2  459   2.502   0.638   1.601  0.8533 -0.3854 -0.1086
  154SOL     OW  460   1.626   0.072   2.090  0.1101 -0.2442 -0.1649
  154SOL    HW1  461   1.601   3.082   2.077  1.1361 -0.4368 -1.6304
  154SOL    HW2  462   1.568   0.136   2.037  0.6927 -1.6490  0.8943
  155SOL     OW  463   0.279   1.949   0.761 -0.1341 -0.2866 -0.1748
  155SOL    HW1  464   0.359   1.988   0.808  0.2729  2.2980  1.1246
  155SOL    HW2  465   0.300   1.851   0.738 -0.0796 -0.5558 -2.0686
  156SOL     OW  466   1.943   2.132   2.913 -0.6026  0.3268  0.4725
  156SOL    HW1  467   1.984   2.104   2.824 -4.5503 -0.8768  0.5324
  156SOL    HW2  468   1.850   2.093   2.918  2.9802  0.2455  0.1304
  157SOL     OW  469   1.094   0.486   0.221 -0.0635  0.1930  0.5161
  157SOL    HW1  470   1.128   0.553   0.290  1.2113  0.4682 -0.5436
  157SOL    HW2  471   1.166   0.447   0.158  1.1596 -1.9213 -2.3372
  158SOL     OW  472   2.235   0.307   2.452  0.1524 -0.0773  0.1510
  158SOL    HW1  473   2.280   0.289   2.363  0.8222  3.1848 -0.7421
  158SOL    HW2  474   2.178   0.221   2.476 -1.3383 -1.5626 -2.5929
  159SOL     OW  475   3.080   0.158   0.426  0.2108  0.4809  0.1963
  159SOL    HW1  476   3.088   0.258   0.445 -3.3079 -0.5535 -0.1561
  159SOL    HW2  477   0.062   0.115   0.455 -1.5593 -2.7964 -1.1333
  160SOL     OW  478   1.583   1.844   2.400 -0.3067  0.6132  0.3590
  160SOL    HW1  479   1.566   1.755   2.353  1.9688  2.1104 -1.5048
  160SOL    HW2  480   1.682   1.863   2.386  2.0703  2.1026  2.0197
  161SOL     OW  481   2.651   0.855   2.626  0.1907 -0.2963 -0.4752
  161SOL    HW1  482   2.736   0.838   2.572  1.2121 -0.7750  2.1974
  161SOL    HW2  483   2.574   0.822   2.567  1.4835  1.1566 -0.0891
  162SOL     OW  484   0.600   2.614   1.358  0.0085  0.0281  0.2998
  162SOL    HW1  485   0.637   2.564   1.438 -1.8188 -0.4992 -0.9926
  162SOL    HW2  486   0.672   2.649   1.302 -0.9422  1.6578 -1.9025
  163SOL     OW  487   2.370   0.384   2.666  0.4234  0.1963 -0.3806
  163SOL    HW1  488   2.298   0.377   2.742 -1.1469  2.1284 -1.4861
  163SOL    HW2  489   2.319   0.367   2.573  1.4931 -2.3428  0.6147
  164SOL     OW  490   1.887   1.775   0.133 -0.1264  0.1962 -0.7684
  164SOL    HW1  491   1.911   1.793   0.036  0.1640 -1.1231 -0.1902
  164SOL    HW2  492   1.955   1.815   0.200 -0.0162  0.1952  3.4587
  165SOL     OW  493   2.823   0.383   1.534  0.0225 -0.4507 -0.1283
  165SOL    HW1  494   2.834   0.406   1.631  0.8020  0.9706  2.3080
  165SOL    HW2  495   2.843   0.462   1.470 -3.5874 -0.9030 -0.5470
  166SOL     OW  496   2.433   1.115   0.039  0.0872  0.4132 -0.5211
  166SOL    HW1  497   2.401   1.139   3.054  0.8170 -0.4903  0.4129
  166SOL    HW2  498   2.362   1.138   0.112 -1.9418  0.5402 -0.1503
  167SOL     OW  499   2.806   0.593   2.960 -0.0849 -0.4591  0.4501
  167SOL    HW1  500   2.772   0.548   2.874 -1.1217 -1.2062 -2.0954
  167SOL    HW2  501   2.765   0.546   3.039  1.8870  2.3615 -1.5830
  168SOL     OW  502   1.717   2.900   2.737  0.4835  0.2180 -0.2497
  168SOL    HW1  503   1.778   2.857   2.803  1.2382 -1.4122 -1.2354
  168SOL    HW2  504   1.714   3.003   2.752 -1.3968  1.8063 -1.0853
  169SOL     OW  505   0.068   1.354   0.606 -0.3583 -0.0056  0.4692
  169SOL    HW1  506   0.036   1.431   0.670 -1.1759  0.2130  2.1882
  169SOL    HW2  507   0.006   1.276   0.614 -1.0518  1.5967  0.0974
  170SOL     OW  508   2.857   0.555   1.322 -0.0634  0.3415  0.1507
  170SOL    HW1  509   2.788   0.588   1.253 -0.7099  0.8030 -1.3493
  170SOL    HW2  510   2.931   0.512   1.272  3.3117 -0.5097  1.4712
  171SOL     OW  511   1.867   2.191   2.322 -0.3175  0.3939  0.4265
  171SOL    HW1  512   1.892   2.127   2.245 -0.2274 -0.5404 -0.0116
  171SOL    HW2  513   1.764   2.204   2.316 -0.2661  4.7172  2.0684
  172SOL     OW  514   0.078   2.858   1.460 -0.3840 -0.1434 -0.2553
  172SOL    HW1  515   0.093   2.961   1.468  1.6751  0.8514  0.2030
  172SOL    HW2  516   0.165   2.813   1.447 -0.3813  0.5163  1.6892
  173SOL     OW  517   1.176   0.937   0.174  0.1497 -0.2330 -0.6372
  173SOL    HW1  518   1.202   1.020   0.121  2.2838 -0.6029  0.4946
  173SOL    HW2  519   1.082   0.940   0.224 -2.0425  0.3294  1.7122
  174SOL     OW  520   1.379   3.107   2.745  0.1928  0.7003 -0.3728
  174SOL    HW1  521   1.386   3.034   2.814 -2.0047 -0.3035  0.5904
  174SOL    HW2  522   1.296   0.055   2.762  1.6885 -2.9024 -2.4855
  175SOL     OW  523   1.905   1.754   0.593  0.1963  0.1471 -0.0145
  175SOL    HW1  524   1.840   1.769   0.676  1.4226 -0.8994  1.0383
  175SOL    HW2  525   2.000   1.772   0.628  1.8723 -1.5369 -0.8439
  176SOL     OW  526   1.436   0.418   0.322  0.7462 -0.0663 -0.0574
  176SOL    HW1  527   1.413   0.517   0.323 -0.6873 -1.4190 -1.3571
  176SOL    HW2  528   1.399   0.379   0.236  1.4553  2.8868  1.3347
  177SOL     OW  529   0.869   1.427   0.229  0.2079 -0.8464 -0.3368
  177SOL    HW1  530   0.801   1.489   0.268 -1.0716  0.8086  3.1153
  177SOL    HW2  531   0.960   1.459   0.258 -3.1441 -1.5485  2.0833
  178SOL     OW  532   2.659   2.204   2.813  0.4028  0.0617  0.0308
  178SOL    HW1  533   2.652   2.105   2.847  1.0951 -2.6938 -0.6608
  178SOL    HW2  534   2.648   2.214   2.711 -0.5050 -0.5230  0.1766
  179SOL     OW  535   2.698   0.060   2.892 -0.2490 -0.3318 -0.6159
  179SOL    HW1  536   2.612   0.053   2.834 -0.6072  0.0944  1.6888
  179SOL    HW2  537   2.747   0.140   2.852 -0.0540 -0.2951 -2.3669
  180SOL     OW  538   1.444   1.534   0.616  0.3779 -0.5931 -0.2170
  180SOL    HW1  539   1.381   1.455   0.608 -1.4663 -3.3342 -1.3179
  180SOL    HW2  540   1.392   1.619   0.640  1.1738 -0.0013  1.3482
  181SOL     OW  541   1.751   1.107   2.580  1.0620 -0.4426  0.0956
  181SOL    HW1  542   1.795   1.029   2.629 -1.9359  1.0590  1.5663
  181SOL    HW2  543   1.810   1.192   2.591 -0.3737  0.6587 -1.0934
  182SOL     OW  544   2.453   2.911   2.731 -0.7436  0.0280  0.3214
  182SOL    HW1  545   2.464   3.011   2.726 -3.1295 -3.3877 -0.5901
  182SOL    HW2  546   2.515   2.860   2.670  0.5890 -1.0934 -1.8533
  183SOL     OW  547   2.116   0.542   2.476 -0.3660 -0.1275 -0.5270
  183SOL    HW1  548   2.090   0.582   2.389  1.0452  2.0159 -1.1700
  183SOL    HW2  549   2.186   0.465   2.459  0.0648 -1.9319 -1.4387
  184SOL     OW  550   0.037   1.465   1.601 -0.4382 -0.5212 -0.4563
  184SOL    HW1  551   3.069   1.416   1.555  1.6306 -0.0931 -2.2395
  184SOL    HW2  552   0.008   1.541   1.665  0.9650 -0.6993  0.7911
  185SOL     OW  553   1.778   0.454   0.669 -0.1694  0.5212  0.0572
  185SOL    HW1  554   1.875   0.449   0.703  0.2856  2.8439 -0.6937
  185SOL    HW2  555   1.719   0.374   0.700 -1.1659 -0.4624  1.7496
  186SOL     OW  556   0.241   2.382   2.919 -0.5575  0.0214 -0.1966
  186SOL    HW1  557   0.189   2.461   2.960 -1.4687  1.3624 -0.9946
  186SOL    HW2  558   0.180   2.325   2.855 -0.2614  1.2364  1.3040
  187SOL     OW  559   2.809   1.073   0.212 -0.3104  0.0680  0.4922
  187SOL    HW1  560   2.855   1.163   0.209  0.4630 -0.4721  1.5647
  187SOL    HW2  561   2.788   1.038   0.121  2.1598  0.0250 -0.7528
  188SOL     OW  562   2.817   1.583   1.447 -0.6802 -0.5621  0.1314
  188SOL    HW1  563   2.845   1.487   1.465  0.4967  2.3211  2.9196
  188SOL    HW2  564   2.888   1.637   1.399 -0.2903 -0.9332  2.7166
  189SOL     OW  565   2.627   0.495   2.714  0.6231 -0.1833 -0.8221
  189SOL    HW1  566   2.538   0.445   2.724 -2.6594 -1.1486 -2.8871
  189SOL    HW2  567   2.647   0.500   2.617  1.0479  0.0584  1.9113
  190SOL     OW  568   1.713   1.450   2.014  0.4348 -0.1120  0.0304
  190SOL    HW1  569   1.648   1.415   1.942 -1.3312  1.4106 -1.3772
  190SOL    HW2  570   1.654   1.493   2.091 -0.6786 -0.0715  1.4246
  191SOL     OW  571   0.554   0.167   1.940 -0.1792 -0.3262 -0.9802
  191SOL    HW1  572   0.620   0.126   1.880  0.4051 -0.8210  0.8908
  191SOL    HW2  573   0.535   0.105   2.019 -1.8519  0.7419 -0.6999
  192SOL     OW  574   2.093   1.449   0.818 -0.0252 -0.2943 -0.8208
  192SOL    HW1  575   2.039   1.406   0.888  0.8448 -0.4730  0.3225
  192SOL    HW2  576   2.116   1.382   0.743  0.3466  0.1331 -1.1529
  193SOL     OW  577   1.760   0.745   1.039 -0.4788  0.2270  0.2033
  193SOL    HW1  578   1.780   0.845   1.054 -0.2495  0.7511 -1.9369
  193SOL    HW2  579   1.685   0.734   0.970  1.6146  0.1532 -0.4287
  194SOL     OW  580   0.590   2.068   1.344  0.4359  0.7736 -0.2997
  194SOL    HW1  581   0.654   2.136   1.312 -0.0609 -0.0649  0.3023
  194SOL    HW2  582   0.635   1.979   1.346 -1.0197  0.6949 -0.9447
  195SOL     OW  583   1.917   0.146   2.980  0.6048 -0.2585  0.3035
  195SOL    HW1  584   1.983   0.192   3.041  1.2273 -0.2123  0.7682
  195SOL    HW2  585   1.955   0.053   2.966  0.6385  1.9918  1.8602
  196SOL     OW  586   0.508   1.387   1.456  0.4374 -0.1563  0.5106
  196SOL    HW1  587   0.545   1.473   1.492  0.2146  0.2939 -0.4667
  196SOL    HW2  588   0.558   1.305   1.488  0.0078 -1.9461  0.7105
  197SOL     OW  589   1.114   0.060   1.559  0.3112 -0.1366 -0.1466
  197SOL    HW1  590   1.145   0.032   1.466 -1.3980  0.3353 -1.4173
  197SOL    HW2  591   1.150   3.103   1.631 -1.2578 -2.6350 -1.8061
  198SOL     OW  592   0.594   1.112   1.290 -0.3030  0.0208 -0.3042
  198SOL    HW1  593   0.634   1.121   1.388  3.0942 -3.7570  2.2777
  198SOL    HW2  594   0.615   1.186   1.225 -0.3502 -1.5178 -1.0988
  199SOL     OW  595   0.283   2.648   1.677 -0.7210 -0.1703 -0.1712
  199SOL    HW1  596   0.321   2.553   1.692  0.6983 -2.2319  0.5953
  199SOL    HW2  597   0.264   2.661   1.579 -1.3352 -0.5592 -0.6578
  200SOL     OW  598   1.828   1.893   1.908 -0.2453  0.2875 -0.1513
  200SOL    HW1  599   1.894   1.816   1.891  5.3795 -0.5527  0.0230
  200SOL    HW2  600   1.838   1.952   1.825  2.8762  1.1767 -2.0270
  201SOL     OW  601   0.418   1.760   2.226 -0.3628  0.2655  0.2228
  201SOL    HW1  602   0.337   1.705   2.197  1.4075  0.2657 -1.6217
  201SOL    HW2  603   0.424   1.773   2.328  0.3666 -2.4290 -1.0728
  202SOL     OW  604   1.787   0.640   3.081 -0.5834 -0.4257 -0.3614
  202SOL    HW1  605   1.774   0.600   2.989 -0.0246  0.8887  0.1216
  202SOL    HW2  606   1.784   0.571   0.047 -2.2048 -0.7590 -1.3347
  203SOL     OW  607   1.234   2.731   1.953 -0.0978 -0.6462 -0.4892
  203SOL    HW1  608   1.216   2.807   2.025 -3.2904  0.7197  3.8150
  203SOL    HW2  609   1.166   2.732   1.881  1.8681 -1.7381 -1.2496
  204SOL     OW  610   0.642   2.044   1.864  0.1764  0.0938 -0.3810
  204SOL    HW1  611   0.724   2.099   1.837 -2.1708 -4.3774  2.1735
  204SOL    HW2  612   0.599   2.006   1.778 -0.3389  0.4606 -0.7959
  205SOL     OW  613   1.603   1.813   2.065  1.1599 -0.2374 -0.2930
  205SOL    HW1  614   1.690   1.831   2.022 -4.3189 -1.8755 -1.4322
  205SOL    HW2  615   1.603   1.740   2.138  0.8525  0.9388 -0.5184
  206SOL     OW  616   0.060   1.066   2.417  0.0826  0.4826 -0.2533
  206SOL    HW1  617   0.092   0.992   2.352 -1.6252  0.2059 -0.2436
  206SOL    HW2  618   0.123   1.146   2.416 -2.1794 -0.3665  0.1759
  207SOL     OW  619   0.897   2.850   1.891  1.0668  0.6154  0.5442
  207SOL    HW1  620   0.870   2.940   1.917 -0.5384 -1.2053  1.3020
  207SOL    HW2  621   0.841   2.782   1.941  2.6295 -0.9714  2.9801
  208SOL     OW  622   0.482   2.699   1.855 -0.2412  0.0198 -0.5031
  208SOL    HW1  623   0.549   2.626   1.840 -0.5647  2.9933 -0.7352
  208SOL    HW2  624   0.402   2.686   1.793  0.3385 -2.3363 -2.5056
  209SOL     OW  625   1.653   0.148   0.181  0.6211 -0.6895  0.0466
  209SOL    HW1  626   1.625   0.077   0.248 -1.8021 -0.2047 -1.6413
  209SOL    HW2  627   1.665   0.235   0.231  0.8869 -0.1524  0.2274
  210SOL     OW  628   2.771   0.791   0.819 -0.6003  0.8307  0.2260
  210SOL    HW1  629   2.856   0.748   0.778 -0.2786 -0.1115 -0.5532
  210SOL    HW2  630   2.699   0.733   0.776 -0.9429 -2.5454  1.2011
  211SOL     OW  631   0.419   0.598   1.588  0.1160  0.4256  0.3652
  211SOL    HW1  632   0.435   0.699   1.606  0.4526  2.5351 -2.2865
  211SOL    HW2  633   0.381   0.549   1.666 -0.3842  3.2184 -1.8176
  212SOL     OW  634   1.696   1.695   1.275 -0.1666  0.0701 -0.2039
  212SOL    HW1  635   1.757   1.687   1.358  0.8387  1.1004  1.7205
  212SOL    HW2  636   1.645   1.784   1.282 -2.7472 -1.7043  0.6241
  213SOL     OW  637   2.580   0.409   1.935  0.5990  0.3779 -0.2519
  213SOL    HW1  638   2.663   0.397   1.878 -1.8817 -1.4805 -0.6763
  213SOL    HW2  639   2.605   0.427   2.030 -0.5623  2.1084 -1.1683
  214SOL     OW  640   0.646   2.391   2.156  0.3672  0.3918  0.9957
  214SOL    HW1  641   0.675   2.476   2.105  0.1524  0.2212 -1.4391
  214SOL    HW2  642   0.727   2.333   2.189  0.9875 -1.0932  2.2166
  215SOL     OW  643   2.745   1.721   1.667 -0.1311 -0.7069 -0.4024
  215SOL    HW1  644   2.825   1.748   1.720 -0.3931  1.3108  1.0139
  215SOL    HW2  645   2.778   1.684   1.577  0.0103  0.7730 -0.8970
  216SOL     OW  646   0.605   0.744   1.917  0.1640  0.5637 -0.2794
  216SOL    HW1  647   0.629   0.839   1.921 -0.9766 -2.1451  1.8046
  216SOL    HW2  648   0.510   0.740   1.884 -1.9851  0.2113  1.8525
  217SOL     OW  649   2.728   0.487   0.648  0.4085  0.8267  0.5912
  217SOL    HW1  650   2.767   0.455   0.735  1.4186 -1.0002 -3.2800
  217SOL    HW2  651   2.648   0.548   0.663  0.6570 -1.1072 -2.2857
  218SOL     OW  652   1.612   1.944   1.353  0.1383  0.1342  0.1716
  218SOL    HW1  653   1.540   1.965   1.279  0.4984 -2.0314  1.3818
  218SOL    HW2  654   1.574   1.904   1.439  1.1955  1.6685 -1.4135
  219SOL     OW  655   1.826   2.988   0.554 -0.5521 -0.0646  0.0608
  219SOL    HW1  656   1.856   2.955   0.647  1.4339  1.4787  0.8281
  219SOL    HW2  657   1.835   2.909   0.494 -2.4435  1.8574 -0.8101
  220SOL     OW  658   1.687   2.395   0.433 -0.2620 -0.0299 -0.0420
  220SOL    HW1  659   1.672   2.405   0.333 -0.2503  1.7137 -0.2984
  220SOL    HW2  660   1.769   2.447   0.467 -0.5726  1.7370 -2.6801
  221SOL     OW  661   2.776   1.502   0.283  0.1410 -0.4638 -0.2880
  221SOL    HW1  662   2.696   1.551   0.241  0.6929 -2.0331  1.4792
  221SOL    HW2  663   2.854   1.499   0.219 -2.1001 -2.3267  0.6176
  222SOL     OW  664   0.707   2.326   0.979 -0.5961  0.1439  0.0254
  222SOL    HW1  665   0.690   2.336   0.878  3.4458 -1.0639 -3.9536
  222SOL    HW2  666   0.787   2.261   0.992 -1.6119 -0.3785  2.2343
  223SOL     OW  667   1.297   0.155   0.407 -0.3630  0.2752  0.3801
  223SOL    HW1  668   1.289   0.085   0.333 -0.9798 -1.3274 -2.3995
  223SOL    HW2  669   1.364   0.231   0.387  0.5848  3.0356  1.0499
  224SOL     OW  670   2.948   1.185   0.658  0.1603  0.2615  0.5619
  224SOL    HW1  671   2.855   1.226   0.646 -1.5273  2.6925 -0.8215
  224SOL    HW2  672   2.948   1.133   0.745 -1.5171 -0.7056 -2.7975
  225SOL     OW  673   0.261   1.482   1.427  0.1068  0.2535  0.2828
  225SOL    HW1  674   0.355   1.444   1.446  0.1381  0.5818 -0.2737
  225SOL    HW2  675   0.197   1.486   1.507 -3.2646 -1.2732 -1.0454
  226SOL     OW  676   0.482   3.022   0.915 -0.5819 -0.4669  0.0409
  226SOL    HW1  677   0.395   3.019   0.967 -3.0304 -0.0660 -1.4229
  226SOL    HW2  678   0.565   3.053   0.969  0.3443 -4.0807 -1.5315
  227SOL     OW  679   1.383   1.560   1.797  0.0073 -0.1208 -0.0272
  227SOL    HW1  680   1.370   1.584   1.699  1.1024  0.3084 -0.4372
  227SOL    HW2  681   1.311   1.608   1.855  2.2556 -2.1968 -1.6745
  228SOL     OW  682   0.769   0.094   1.753 -0.3062  0.1955 -0.2501
  228SOL    HW1  683   0.758   0.197   1.729 -1.0733 -2.3278 -0.0798
  228SOL    HW2  684   0.784   0.044   1.666  1.4291 -0.9750  0.8257
  229SOL     OW  685   2.933   0.702   2.520  0.0092  0.0448  0.2965
  229SOL    HW1  686   2.992   0.733   2.446 -0.8645 -0.9181  1.0589
  229SOL    HW2  687   2.991   0.699   2.607  1.6680 -0.3883  0.3981
  230SOL     OW  688   0.260   0.728   1.038 -0.6603 -0.3856 -0.1357
  230SOL    HW1  689   0.234   0.796   0.963 -0.2106  1.4476 -3.6378
  230SOL    HW2  690   0.205   0.751   1.119 -1.9784  1.8155 -0.3941
  231SOL     OW  691   1.215   3.062   1.869 -0.5150 -0.2472 -0.2802
  231SOL    HW1  692   1.212   0.043   1.913 -0.1392  0.3584  0.7358
  231SOL    HW2  693   1.314   3.024   1.884  3.3163  0.4355  0.5052
  232SOL     OW  694   2.912   2.023   0.091 -0.2353  0.2772 -0.0181
  232SOL    HW1  695   2.932   2.045   0.193 -0.2770  1.5263  2.3557
  232SOL    HW2  696   2.814   2.020   0.084  1.3939 -2.2991  4.4240
  233SOL     OW  697   1.264   2.470   2.814 -0.5738 -0.2879  0.2074
  233SOL    HW1  698   1.279   2.442   2.712  0.7614 -0.1985 -0.0823
  233SOL    HW2  699   1.331   2.535   2.856 -0.3708  2.0054 -0.0146
  234SOL     OW  700   0.425   1.239   1.710 -0.1468 -0.0570  0.2709
  234SOL    HW1  701   0.494   1.206   1.642  1.6377  0.5911  2.8820
  234SOL    HW2  702   0.459   1.222   1.805 -0.3626  0.1976  0.1211
  235SOL     OW  703   0.092   2.361   2.427  0.2389  0.2627  0.3937
  235SOL    HW1  704   0.189   2.339   2.435 -2.9283  1.4909  0.4238
  235SOL    HW2  705   0.055   2.386   2.519  1.3339  0.1828 -1.0808
  236SOL     OW  706   1.576   1.904   2.668 -0.0342  0.4749 -0.1900
  236SOL    HW1  707   1.580   1.879   2.570  0.0246 -2.1764  0.5969
  236SOL    HW2  708   1.600   2.001   2.679 -2.3483 -1.4626  1.3330
  237SOL     OW  709   1.548   0.779   0.880  0.4367 -0.6773 -0.0986
  237SOL    HW1  710   1.534   0.722   0.799 -0.7198  0.8949  0.1419
  237SOL    HW2  711   1.506   0.874   0.874 -0.7236  2.3403  0.7798
  238SOL     OW  712   1.151   2.935   2.157 -0.0793  0.5202 -0.0416
  238SOL    HW1  713   1.127   3.006   2.085 -0.5938  2.0296  0.0456
  238SOL    HW2  714   1.093   2.949   2.246 -3.4638  3.4834  4.3117
  239SOL     OW  715   0.987   2.506   1.920 -0.2494 -0.2289 -0.4309
  239SOL    HW1  716   1.066   2.485   1.988  1.4069  3.1952  1.1909
  239SOL    HW2  717   1.020   2.532   1.820  1.5301  0.1800 -2.5504
  240SOL     OW  718   2.189   0.013   0.693 -0.0921 -0.1917 -0.2183
  240SOL    HW1  719   2.118   0.058   0.635 -1.2134 -0.7716 -1.3659
  240SOL    HW2  720   2.273   0.071   0.699  0.1215  0.4527 -0.7147
  241SOL     OW  721   1.196   1.437   2.755  1.1810 -0.2261 -0.0919
  241SOL    HW1  722   1.170   1.471   2.849  0.9650 -0.8959  1.4422
  241SOL    HW2  723   1.296   1.409   2.748  1.1504  1.3059 -0.5526
  242SOL     OW  724   2.735   0.858   2.875  0.2132  0.7760 -0.2180
  242SOL    HW1  725   2.764   0.760   2.899  1.0407  0.2298  0.5075
  242SOL    HW2  726   2.691   0.857   2.781  0.8211  1.2315  1.2289
  243SOL     OW  727   0.796   0.371   1.723 -0.3579  0.6272 -0.1895
  243SOL    HW1  728   0.767   0.467   1.730  0.3363 -2.6955  0.1765
  243SOL    HW2  729   0.879   0.367   1.665 -0.4450 -2.4151  0.6339
  244SOL     OW  730   1.354   2.933   2.943  0.1030 -0.2040 -0.1141
  244SOL    HW1  731   1.277   2.869   2.956  1.2371  0.2674  1.3452
  244SOL    HW2  732   1.420   2.934   3.021  0.3608 -1.4425 -2.6025
  245SOL     OW  733   1.583   2.635   0.068 -0.1188  0.2762  0.4429
  245SOL    HW1  734   1.637   2.550   0.091  3.1081  1.3269  0.3627
  245SOL    HW2  735   1.644   2.720   0.062 -0.9482 -1.5959 -3.1622
  246SOL     OW  736   0.709   0.992   1.894  0.4013 -0.2857  0.1818
  246SOL    HW1  737   0.663   1.070   1.942  2.6011 -2.1622  0.7601
  246SOL    HW2  738   0.814   1.002   1.903  1.6403 -0.4447 -1.5887
  247SOL     OW  739   3.108   0.361   2.348 -0.2637 -0.3621  0.5462
  247SOL    HW1  740   0.023   0.314   2.261 -0.2930 -1.0252  1.0952
  247SOL    HW2  741   0.075   0.399   2.403 -2.8173  2.8202 -0.6850
  248SOL     OW  742   3.006   1.401   2.087 -0.2781  0.2598 -0.0672
  248SOL    HW1  743   2.951   1.444   2.013 -0.7292 -1.6847  0.5610
  248SOL    HW2  744   2.984   1.445   2.175 -0.0865 -1.3460 -2.5125
  249SOL     OW  745   0.058   0.450   0.142 -0.1184 -0.0334 -0.1850
  249SOL    HW1  746   0.091   0.377   0.202  1.1261  1.5934  0.1581
  249SOL    HW2  747   3.068   0.433   0.121 -1.6117 -0.1267 -1.0527
  250SOL     OW  748   2.922   0.353   0.088 -0.1094 -0.2785  0.0858
  250SOL    HW1  749   2.899   0.399   0.177 -0.7221  2.8418  0.3662
  250SOL    HW2  750   2.856   0.276   0.068  1.9259  0.2370  0.0183
  251SOL     OW  751   0.860   1.770   1.812 -0.2946  0.1961  0.9758
  251SOL    HW1  752   0.762   1.769   1.795  1.7078  0.6620  1.1326
  251SOL    HW2  753   0.892   1.860   1.785  0.3279 -0.8807 -1.0336
  252SOL     OW  754   2.060   1.849   1.175 -0.1362 -0.5834  0.1228
  252SOL    HW1  755   2.125   1.866   1.098 -1.3242  0.6419 -2.6662
  252SOL    HW2  756   2.075   1.751   1.209 -0.5490 -1.2627  0.5090
  253SOL     OW  757   1.605   2.222   2.313 -0.8361  0.3297 -0.1072
  253SOL    HW1  758   1.596   2.325   2.300 -1.2035  0.5797  1.3778
  253SOL    HW2  759   1.549   2.161   2.252 -1.2105 -1.6142  2.2677
  254SOL     OW  760   0.474   2.247   2.010 -0.3418  0.0496 -0.0093
  254SOL    HW1  761   0.532   2.178   1.964 -1.4031 -0.5595  2.8943
  254SOL    HW2  762   0.528   2.320   2.055 -2.0832 -0.5032 -2.9162
  255SOL     OW  763   1.038   0.217   1.080  0.2859 -0.4978 -0.1927
  255SOL    HW1  764   0.987   0.280   1.020  1.8695  2.0709  0.0936
  255SOL    HW2  765   1.001   0.125   1.076  2.5769  1.4016 -1.2824
  256SOL     OW  766   2.182   2.103   1.391  0.1075 -0.0806 -0.4226
  256SOL    HW1  767   2.256   2.086   1.322 -0.3445  0.5059  0.6281
  256SOL    HW2  768   2.139   2.017   1.423 -3.0804  0.5661 -1.6744
  257SOL     OW  769   0.529   2.270   2.744 -1.0872  0.1724  0.6160
  257SOL    HW1  770   0.548   2.353   2.797 -0.9491 -3.2520  2.0319
  257SOL    HW2  771   0.616   2.224   2.723  3.0970 -0.6536  1.0157
  258SOL     OW  772   0.430   1.009   2.231  0.0104  0.0800  0.0975
  258SOL    HW1  773   0.416   0.905   2.234 -2.2290 -0.7536 -0.8970
  258SOL    HW2  774   0.492   1.034   2.303  0.1031 -1.9286 -0.5279
  259SOL     OW  775   0.536   1.473   2.046  0.0772  0.8507  0.2499
  259SOL    HW1  776   0.489   1.532   1.975 -2.2167  4.1249  0.3896
  259SOL    HW2  777   0.617   1.519   2.089  0.4167  2.5260 -0.0096
  260SOL     OW  778   2.144   0.855   0.976 -0.4735 -0.1298 -0.0293
  260SOL    HW1  779   2.238   0.841   1.009 -2.1354 -1.5215 -1.5851
  260SOL    HW2  780   2.138   0.915   0.892 -2.5922  0.0235  0.4436
  261SOL     OW  781   1.037   3.052   0.998 -0.9869 -0.7179 -0.3037
  261SOL    HW1  782   1.015   3.012   0.909  0.4350 -1.1110  2.1263
  261SOL    HW2  783   1.130   3.017   1.023  0.3564  2.8131 -2.9048
  262SOL     OW  784   2.034   2.651   2.431  0.3377  0.0677  0.6208
  262SOL    HW1  785   1.982   2.621   2.513  1.1335  0.0332 -0.3817
  262SOL    HW2  786   2.137   2.652   2.438  2.3790  0.2607  0.8706
  263SOL     OW  787   0.380   1.595   2.936  0.2100 -0.1872  0.3050
  263SOL    HW1  788   0.403   1.656   2.854  1.4761 -0.1763  0.2357
  263SOL    HW2  789   0.458   1.533   2.967  0.0550 -1.8369 -2.0046
  264SOL     OW  790   0.315   1.801   1.360  0.5638 -0.0136  0.6386
  264SOL    HW1  791   0.376   1.754   1.296 -1.2425 -0.8443  1.9178
  264SOL    HW2  792   0.240   1.858   1.320 -1.7917 -0.2079 -1.5402
  265SOL     OW  793   0.765   0.818   0.719 -0.2192 -0.0268  0.1366
  265SOL    HW1  794   0.665   0.819   0.741  0.3293  2.0989 -0.2466
  265SOL    HW2  795   0.823   0.799   0.804  1.7909 -1.1868  0.7791
  266SOL     OW  796   1.296   1.878   3.036  0.1583  0.0732 -0.1012
  266SOL    HW1  797   1.370   1.935   3.072  0.0960 -0.1428 -4.0969
  266SOL    HW2  798   1.329   1.818   2.957  2.0591  1.2278 -0.8688
  267SOL     OW  799   0.461   0.597   2.705 -0.7939  0.1977  0.1250
  267SOL    HW1  800   0.399   0.531   2.739  1.5993  0.1585 -0.1644
  267SOL    HW2  801   0.517   0.559   2.629  0.6606 -0.8721  0.0508
  268SOL     OW  802   0.855   0.665   2.921  0.3693  0.3126  0.2125
  268SOL    HW1  803   0.937   0.611   2.905 -1.3841 -0.9389  1.2087
  268SOL    HW2  804   0.876   0.753   2.965 -0.9227  1.0494 -1.1490
  269SOL     OW  805   1.566   2.933   2.391  0.0344  0.3146 -0.2120
  269SOL    HW1  806   1.563   3.030   2.424 -0.8982  0.2962  3.1817
  269SOL    HW2  807   1.508   2.874   2.453 -2.0521  0.1487  2.2671
  270SOL     OW  808   0.761   0.916   2.578  0.0720 -0.2964  0.7323
  270SOL    HW1  809   0.829   0.872   2.510  1.4922  0.7310 -0.6782
  270SOL    HW2  810   0.719   0.849   2.640  3.4218  0.0649 -1.3799
  271SOL     OW  811   0.082   0.726   0.249  0.3200 -0.4880  0.0348
  271SOL    HW1  812   0.178   0.739   0.286  0.0509  0.8203  0.5546
  271SOL    HW2  813   0.068   0.636   0.202  0.2229  1.8906 -0.3165
  272SOL     OW  814   2.243   1.113   2.511  0.0524  0.1959  0.9191
  272SOL    HW1  815   2.176   1.122   2.430 -2.2953 -0.1242 -1.4906
  272SOL    HW2  816   2.332   1.081   2.471  1.0707  1.9312  2.8847
  273SOL     OW  817   0.130   0.229   2.155 -0.2334 -0.5576 -0.3465
  273SOL    HW1  818   0.230   0.230   2.143 -2.4824  0.1212  0.7716
  273SOL    HW2  819   0.085   0.208   2.068 -0.1969 -1.2076  1.1611
  274SOL     OW  820   2.827   0.201   1.950  0.0835 -0.3181 -0.3057
  274SOL    HW1  821   2.924   0.194   1.911  1.9099  0.0850 -1.7336
  274SOL    HW2  822   2.772   0.127   1.915  2.1552  0.4025 -0.3491
  275SOL     OW  823   1.842   1.120   0.475  0.4917  0.0159  0.6357
  275SOL    HW1  824   1.831   1.030   0.436 -0.2942 -0.5784 -0.5732
  275SOL    HW2  825   1.821   1.190   0.404  0.3626 -0.8308 -2.4907
  276SOL     OW  826   0.409   1.169   2.858 -0.2484  0.3682  0.0356
  276SOL    HW1  827   0.442   1.092   2.918  0.9045 -0.8145  0.8250
  276SOL    HW2  828   0.378   1.132   2.766 -0.3315  0.3525 -0.9259
  277SOL     OW  829   1.814   2.901   2.250 -0.2496  0.0925  0.6130
  277SOL    HW1  830   1.824   2.800   2.274  0.5943 -3.0930 -0.2231
  277SOL    HW2  831   1.740   2.948   2.304 -1.5705  2.2523  0.6647
  278SOL     OW  832   1.818   0.044   1.522 -0.0890 -0.5018  0.4833
  278SOL    HW1  833   1.821   0.105   1.602 -0.7236  1.9425  1.7857
  278SOL    HW2  834   1.789   3.055   1.541 -0.2316  0.9172  2.8323
  279SOL     OW  835   1.493   1.249   3.020  0.1726  0.5798 -0.8976
  279SOL    HW1  836   1.440   1.280   2.938  0.1373  3.5159 -0.9372
  279SOL    HW2  837   1.573   1.185   2.991  1.1955 -1.1625 -1.1924
  280SOL     OW  838   0.852   1.200   0.383 -0.5774  0.0531 -0.1132
  280SOL    HW1  839   0.869   1.285   0.322 -1.7345 -0.2294 -0.5443
  280SOL    HW2  840   0.925   1.127   0.366 -0.4668  1.3754 -0.9578
  281SOL     OW  841   0.213   0.052   1.594  0.5433 -0.2136  0.1824
  281SOL    HW1  842   0.253   3.082   1.646 -0.2324  0.1887 -0.1009
  281SOL    HW2  843   0.267   0.135   1.615 -1.3315  2.6570  1.7111
  282SOL     OW  844   3.097   2.437   0.840  0.0997 -0.0083 -0.2716
  282SOL    HW1  845   3.082   2.539   0.819  0.6577 -0.2464  1.3607
  282SOL    HW2  846   0.087   2.414   0.820  0.5097 -1.9497 -1.2362
  283SOL     OW  847   1.140   2.180   2.069 -0.1878  0.3294  0.2047
  283SOL    HW1  848   1.156   2.279   2.052  0.5318 -1.0150 -2.1246
  283SOL    HW2  849   1.157   2.170   2.170 -0.2371  1.1582  3.1730
  284SOL     OW  850   2.380   0.701   0.527 -0.0107  0.1212 -0.3007
  284SOL    HW1  851   2.328   0.617   0.554 -1.9130  0.9517  0.8286
  284SOL    HW2  852   2.443   0.692   0.447  1.3680  0.8982  1.1245
  285SOL     OW  853   3.078   2.806   2.634  0.6068  0.5438  0.4233
  285SOL    HW1  854   0.010   2.774   2.544  0.5485  1.9876 -0.8087
  285SOL    HW2  855   3.104   2.900   2.659 -1.6464  1.8193  0.4457
  286SOL     OW  856   2.066   2.505   1.324  0.3035 -0.1834 -0.4216
  286SOL    HW1  857   2.108   2.560   1.400  1.3922  1.6159 -0.1470
  286SOL    HW2  858   2.028   2.417   1.363  1.0258 -0.9079 -0.1426
  287SOL     OW  859   0.629   1.374   1.122 -0.5639  0.5289 -0.0090
  287SOL    HW1  860   0.691   1.379   1.043  1.1329  1.1947 -1.3928
  287SOL    HW2  861   0.536   1.392   1.090  1.9512  1.1763  1.2320
  288SOL     OW  862   1.747   2.447   0.158 -0.4894 -0.1310 -0.4181
  288SOL    HW1  863   1.838   2.471   0.202  1.7731  1.5576  0.9499
  288SOL    HW2  864   1.763   2.424   0.057  1.4249  1.6839 -1.8839
  289SOL     OW  865   0.281   1.948   2.475  0.2202  0.6579 -0.0943
  289SOL    HW1  866   0.284   2.023   2.544 -1.1962 -0.4950  1.4264
  289SOL    HW2  867   0.296   1.986   2.383  0.4474 -1.8657 -1.3512
  290SOL     OW  868   1.423   2.082   1.199 -0.0046 -0.6021 -0.3316
  290SOL    HW1  869   1.416   2.122   1.101  2.8841  1.5330  0.9297
  290SOL    HW2  870   1.345   2.019   1.218 -1.4580 -1.8724 -0.1015
  291SOL     OW  871   1.649   1.758   2.972  0.7295 -0.0698  0.0331
  291SOL    HW1  872   1.751   1.740   2.983  0.4846  1.6270  1.4579
  291SOL    HW2  873   1.593   1.679   3.006  1.1537 -2.1116 -0.4347
  292SOL     OW  874   1.485   1.658   1.020  0.2332 -0.9380 -0.0833
  292SOL    HW1  875   1.436   1.726   0.957  1.2029  1.8649 -2.8776
  292SOL    HW2  876   1.586   1.652   0.998  1.6903  3.4742 -1.5462
  293SOL     OW  877   1.853   2.878   0.797  0.0015  0.1132 -0.2961
  293SOL    HW1  878   1.931   2.908   0.855 -2.5208  2.1047  0.6030
  293SOL    HW2  879   1.846   2.774   0.791  1.0775 -6.4598  0.1715
  294SOL     OW  880   2.994   1.281   2.672 -0.1165 -0.7670 -0.3547
  294SOL    HW1  881   2.910   1.340   2.697  0.3784  1.7481 -2.6450
  294SOL    HW2  882   2.984   1.211   2.595 -0.4490 -0.7722 -0.2507
  295SOL     OW  883   1.271   2.102   2.662 -0.4034 -0.1318 -0.4033
  295SOL    HW1  884   1.266   2.200   2.645 -2.4861  0.5238 -1.2754
  295SOL    HW2  885   1.298   2.099   2.759  1.7506  3.6109  0.6287
  296SOL     OW  886   1.945   1.329   2.117  0.0598  0.3452  0.2748
  296SOL    HW1  887   2.011   1.299   2.049  3.7503  0.4284  0.5127
  296SOL    HW2  888   1.855   1.349   2.079 -2.5371 -0.4711  1.5124
  297SOL     OW  889   3.068   0.622   2.274  0.3001  0.1030 -0.3912
  297SOL    HW1  890   3.094   0.527   2.300  0.3954  0.4121  0.2394
  297SOL    HW2  891   2.966   0.634   2.258 -2.8850  0.0199 -1.8198
  298SOL     OW  892   1.185   2.492   2.104 -0.2600 -0.0415 -0.1256
  298SOL    HW1  893   1.268   2.548   2.090 -1.9380 -0.7473  3.2630
  298SOL    HW2  894   1.177   2.458   2.199 -3.1104  1.7303 -0.4740
  299SOL     OW  895   0.930   2.703   2.819 -0.7905  0.3320  0.8196
  299SOL    HW1  896   0.826   2.701   2.808  0.3949  2.6190  0.9488
  299SOL    HW2  897   0.944   2.772   2.892  0.5183  0.1619 -1.6516
  300SOL     OW  898   3.051   0.644   2.756 -0.1607  0.7831  0.1281
  300SOL    HW1  899   3.061   0.554   2.800 -1.7025 -1.7757  0.1744
  300SOL    HW2  900   3.003   0.708   2.820  2.9586 -1.5137  1.8326
  301SOL     OW  901   1.782   1.171   1.526 -0.0536 -0.2090 -0.0707
  301SOL    HW1  902   1.769   1.158   1.426  0.7432 -0.5734 -0.2805
  301SOL    HW2  903   1.696   1.177   1.576  0.3099  0.9045 -2.6357
  302SOL     OW  904   2.528   1.899   2.657 -0.1641 -0.4489  0.3072
  302SOL    HW1  905   2.503   1.909   2.557 -0.1431  2.2957 -0.3115
  302SOL    HW2  906   2.515   1.804   2.694  0.8107 -1.2505  0.7342
  303SOL     OW  907   0.129   0.040   2.351  0.4267  0.3693  0.0921
  303SOL    HW1  908   0.157   0.078   2.439  2.9511 -0.5763  0.8190
  303SOL    HW2  909   0.153   0.099   2.272  0.5905  0.0757 -2.7389
  304SOL     OW  910   2.908   0.848   1.561  0.4220  0.1804 -0.0987
  304SOL    HW1  911   2.972   0.925   1.580 -0.4783  0.7297  1.5426
  304SOL    HW2  912   2.860   0.867   1.476 -0.2866  2.8057  0.1251
  305SOL     OW  913   3.047   0.156   1.809 -0.3959 -0.0664  0.6521
  305SOL    HW1  914   0.024   0.102   1.823 -1.5783 -0.0731  1.0387
  305SOL    HW2  915   3.005   0.129   1.719  0.6349 -1.1859  0.1886
  306SOL     OW  916   2.931   1.332   1.513  0.4506  0.3318 -0.0147
  306SOL    HW1  917   2.888   1.317   1.606  0.5530  2.2703  1.3616
  306SOL    HW2  918   2.935   1.241   1.466 -0.0753 -2.1818 -0.5016
  307SOL     OW  919   1.947   0.397   1.248 -0.4127 -0.0527 -0.1555
  307SOL    HW1  920   1.884   0.424   1.325 -0.5886 -0.1526  1.4997
  307SOL    HW2  921   1.952   0.474   1.185 -1.4567 -2.4825 -1.8222
  308SOL     OW  922   0.155   1.975   1.244  0.2951 -0.4234  0.3093
  308SOL    HW1  923   0.075   1.954   1.182  0.4531 -2.4485 -4.4273
  308SOL    HW2  924   0.129   2.040   1.317  0.1404 -1.0027  0.2243
  309SOL     OW  925   2.292   1.770   1.472 -0.4197  0.5586 -0.2281
  309SOL    HW1  926   2.371   1.783   1.407  1.6630 -0.2432 -1.6113
  309SOL    HW2  927   2.281   1.851   1.536  2.0924  2.5747  2.1536
  310SOL     OW  928   2.489   1.804   3.083  0.1791  0.2883 -0.4286
  310SOL    HW1  929   2.431   1.868   0.026 -0.1494 -0.2723  0.0421
  310SOL    HW2  930   2.531   1.851   3.005  2.4219  0.5471  1.5776
  311SOL     OW  931   2.273   1.381   2.591  0.4204  0.2785  0.6591
  311SOL    HW1  932   2.259   1.278   2.572 -3.3262  1.4397  0.0684
  311SOL    HW2  933   2.227   1.403   2.684 -1.9298  1.8486  0.4005
  312SOL     OW  934   1.759   2.207   1.228  0.4328 -0.8018  0.5822
  312SOL    HW1  935   1.728   2.281   1.290 -2.1222  0.7304  0.7403
  312SOL    HW2  936   1.737   2.110   1.255  1.1741 -0.1119 -1.7040
  313SOL     OW  937   0.266   2.491   1.100 -0.4681  0.1622  0.1418
  313SOL    HW1  938   0.346   2.443   1.060 -0.1677  0.2357 -1.8437
  313SOL    HW2  939   0.184   2.434   1.104 -2.2786  3.5711  1.6262
  314SOL     OW  940   1.046   1.706   1.586  0.0749 -0.1994 -0.6861
  314SOL    HW1  941   0.980   1.724   1.510 -2.7834 -1.1007 -0.8843
  314SOL    HW2  942   1.003   1.731   1.676 -0.3067  1.3254 -0.3889
  315SOL     OW  943   0.688   2.905   2.338  0.2104 -0.6031 -0.1413
  315SOL    HW1  944   0.775   2.963   2.335  2.6642 -1.1234  0.0497
  315SOL    HW2  945   0.707   2.812   2.371  0.7618  0.3889 -0.0817
  316SOL     OW  946   2.931   2.069   0.736 -0.5500 -0.0280 -0.6697
  316SOL    HW1  947   2.939   1.996   0.673 -1.9647  2.0615  0.9650
  316SOL    HW2  948   3.021   2.087   0.785 -2.3963 -0.5788  0.0734
  317SOL     OW  949   2.087   0.453   0.202  0.6461  0.0549  0.2387
  317SOL    HW1  950   1.997   0.486   0.234 -3.6861  0.5897  0.3302
  317SOL    HW2  951   2.144   0.535   0.177 -2.5151 -2.4344 -1.2949
  318SOL     OW  952   2.870   2.485   0.216  0.0614 -0.1768 -0.2850
  318SOL    HW1  953   2.860   2.567   0.161  0.9132 -0.5935  2.7397
  318SOL    HW2  954   2.888   2.508   0.314 -1.2240 -0.1311  0.0286
  319SOL     OW  955   1.315   1.738   0.201 -0.0660 -0.3833  0.0943
  319SOL    HW1  956   1.275   1.785   0.118  0.1824  2.2983  0.1365
  319SOL    HW2  957   1.343   1.804   0.272 -0.9709  0.1434  2.4085
  320SOL     OW  958   0.672   2.708   2.788  0.1554  0.0674 -0.1956
  320SOL    HW1  959   0.607   2.632   2.812  0.0232  1.7332 -0.7516
  320SOL    HW2  960   0.680   2.715   2.687  0.1680 -0.9572  4.4685
  321SOL     OW  961   1.020   2.963   0.175  0.3451 -0.0001 -0.3032
  321SOL    HW1  962   0.944   3.022   0.209  1.8988  2.8246 -1.7282
  321SOL    HW2  963   1.116   2.997   0.188  4.2150 -0.3761  1.1183
  322SOL     OW  964   2.291   1.105   2.164  0.3782  0.0929  0.1017
  322SOL    HW1  965   2.204   1.118   2.209 -1.1463 -0.6348  0.0332
  322SOL    HW2  966   2.323   1.005   2.167  3.5166 -1.3819  0.1893
  323SOL     OW  967   2.763   0.732   0.507  0.2607  0.0467 -0.0749
  323SOL    HW1  968   2.770   0.649   0.565 -2.6652  1.1164 -3.3035
  323SOL    HW2  969   2.839   0.741   0.437  0.3915  0.3659 -0.2263
  324SOL     OW  970   0.168   0.451   2.528 -0.6380 -0.2969 -0.5570
  324SOL    HW1  971   0.172   0.540   2.576  1.5228 -0.4039 -0.3933
  324SOL    HW2  972   0.258   0.426   2.483 -1.1665 -2.3909  0.8339
  325SOL     OW  973   0.957   2.994   2.321 -0.3961 -0.0563  0.1980
  325SOL    HW1  974   0.959   3.086   2.268 -0.4815  2.1402 -3.2322
  325SOL    HW2  975   0.980   3.016   2.415 -0.1557  0.1636 -0.1749
  326SOL     OW  976   2.360   2.828   1.272 -0.5765  0.6091 -0.2514
  326SOL    HW1  977   2.313   2.819   1.182  0.0673 -0.4102 -1.4268
  326SOL    HW2  978   2.294   2.809   1.352 -1.0393 -0.7568 -0.9933
  327SOL     OW  979   1.903   0.843   0.104 -0.2862 -0.2516  0.0581
  327SOL    HW1  980   1.918   0.928   0.046 -0.4292  3.1922 -1.3838
  327SOL    HW2  981   1.871   0.769   0.039 -1.6655 -2.3389 -0.6737
  328SOL     OW  982   2.879   1.850   2.114  0.3416  0.6189 -0.5995
  328SOL    HW1  983   2.962   1.895   2.150 -1.5021 -0.6141  1.4090
  328SOL    HW2  984   2.819   1.797   2.184 -1.4301 -1.2750  0.4295
  329SOL     OW  985   1.839   2.792   1.807  0.6614  0.1730  0.5971
  329SOL    HW1  986   1.794   2.697   1.813 -0.2072  0.3737 -0.0597
  329SOL    HW2  987   1.771   2.860   1.773 -3.0771 -2.0867 -0.0364
  330SOL     OW  988   2.572   1.757   1.892 -0.0866 -0.5606  0.4506
  330SOL    HW1  989   2.595   1.691   1.965  1.1578  1.5709  0.6785
  330SOL    HW2  990   2.598   1.727   1.801  2.8469 -0.8729  0.0573
  331SOL     OW  991   2.844   2.339   0.871  0.1606  0.0254  0.2055
  331SOL    HW1  992   2.852   2.239   0.868  1.7527  1.9355 -0.4692
  331SOL    HW2  993   2.932   2.379   0.840 -2.3590 -3.3878 -0.6991
  332SOL     OW  994   0.560   0.115   0.500 -0.5803  0.1560  0.1723
  332SOL    HW1  995   0.553   0.067   0.410 -1.7587 -0.5541 -0.4358
  332SOL    HW2  996   0.484   0.180   0.515  0.4624 -2.2853  0.5094
  333SOL     OW  997   2.103   0.098   2.580  0.0850 -0.5542  0.2277
  333SOL    HW1  998   2.050   0.012   2.581 -0.4427 -0.1124  0.6798
  333SOL    HW2  999   2.052   0.166   2.644 -1.0307  2.2911  2.1617
  334SOL     OW 1000   0.760   1.434   0.877  0.1702  0.3183  0.3440
  334SOL    HW1 1001   0.755   1.378   0.790  0.1137  1.8258 -0.0705
  334SOL    HW2 1002   0.852   1.472   0.883 -5.8487  0.5537 -0.5034
  335SOL     OW 1003   0.021   2.745   2.366  0.7081  0.0631 -1.4689
  335SOL    HW1 1004   0.035   2.655   2.325  0.7647  0.5038  2.3034
  335SOL    HW2 1005   3.094   2.807   2.297  3.5600 -2.5760 -0.8608
  336SOL     OW 1006   2.918   2.946   1.916 -0.5869  0.2858 -0.0656
  336SOL    HW1 1007   2.910   2.894   2.001 -1.6139 -0.9689 -1.1613
  336SOL    HW2 1008   2.832   3.000   1.899 -1.2133 -0.2098 -2.0364
  337SOL     OW 1009   2.040   1.277   0.574 -0.2504  0.0806  0.4161
  337SOL    HW1 1010   2.119   1.213   0.581  0.2134 -3.5302 -1.9345
  337SOL    HW2 1011   1.958   1.222   0.561  1.1654 -0.1259 -1.5537
  338SOL     OW 1012   0.897   1.740   1.102  0.4478 -0.3278  0.3517
  338SOL    HW1 1013   0.861   1.657   1.153 -1.5800 -1.3087 -0.9053
  338SOL    HW2 1014   0.918   1.813   1.170 -2.6609 -0.5311 -0.9470
  339SOL     OW 1015   3.040   0.891   1.099  0.3171 -0.0260  0.0131
  339SOL    HW1 1016   0.022   0.880   1.151  0.4322  2.3796 -0.2032
  339SOL    HW2 1017   2.955   0.909   1.159 -4.0309 -0.7728 -1.2967
  340SOL     OW 1018   1.574   2.900   2.100  0.8068 -0.2138 -0.3310
  340SOL    HW1 1019   1.505   2.914   2.175  1.4409 -1.6839 -0.1936
  340SOL    HW2 1020   1.663   2.876   2.144 -0.9984  0.2407  0.9883
  341SOL     OW 1021   2.277   1.187   0.689 -0.0109 -0.0947 -0.1332
  341SOL    HW1 1022   2.302   1.269   0.742  1.3120 -2.6335 -1.4899
  341SOL    HW2 1023   2.360   1.140   0.655 -0.4001 -0.0791  0.4769
  342SOL     OW 1024   3.081   1.605   0.742 -0.2410  0.2059 -0.1677
  342SOL    HW1 1025   2.999   1.597   0.803 -0.3134  0.1766  0.0149
  342SOL    HW2 1026   3.059   1.655   0.657  2.3722 -1.2009  0.1566
  343SOL     OW 1027   2.612   1.184   1.604 -0.2491 -0.4050  0.1343
  343SOL    HW1 1028   2.549   1.116   1.646 -2.2054  1.1971 -0.7026
  343SOL    HW2 1029   2.682   1.222   1.667  1.7292  2.3614 -0.3663
  344SOL     OW 1030   1.997   0.617   1.053 -0.0667 -0.5237 -0.3712
  344SOL    HW1 1031   1.925   0.691   1.051 -1.3111  0.6220  2.4425
  344SOL    HW2 1032   2.085   0.659   1.039  0.5642  1.9352  0.8162
  345SOL     OW 1033   0.169   2.929   2.198 -0.0008  0.0862 -0.3431
  345SOL    HW1 1034   0.229   2.848   2.210 -0.5811 -0.6738  0.9326
  345SOL    HW2 1035   0.158   2.986   2.283 -1.7640  0.9643 -0.9045
  346SOL     OW 1036   2.997   1.511   0.124 -0.6488  0.2259 -0.0179
  346SOL    HW1 1037   3.031   1.598   0.083  1.2732  0.0266  0.9693
  346SOL    HW2 1038   3.031   1.426   0.081 -3.4809  2.1004  0.6415
  347SOL     OW 1039   1.469   2.499   1.667 -0.3379 -0.2476 -0.7159
  347SOL    HW1 1040   1.392   2.442   1.704  0.5604 -0.0505  0.6686
  347SOL    HW2 1041   1.497   2.460   1.578  0.4291 -1.9040  0.5465
  348SOL     OW 1042   1.164   1.174   1.805  0.3805  0.1163  0.2806
  348SOL    HW1 1043   1.133   1.267   1.782  0.0706 -0.0981 -0.8387
  348SOL    HW2 1044   1.230   1.174   1.881  1.1438 -1.1058 -0.8019
  349SOL     OW 1045   2.437   1.543   2.402 -0.0077 -0.4720 -0.2828
  349SOL    HW1 1046   2.374   1.507   2.475 -0.8518  1.5219  3.6597
  349SOL    HW2 1047   2.390   1.626   2.364 -0.3300  0.8962 -1.7483
  350SOL     OW 1048   2.711   2.241   0.496 -0.1919 -0.5441 -0.5138
  350SOL    HW1 1049   2.687   2.233   0.395  0.1877  1.4129 -0.0511
  350SOL    HW2 1050   2.732   2.335   0.516 -1.6262 -3.1003 -0.9848
  351SOL     OW 1051   0.059   0.395   1.766  0.4155 -0.5912  0.4327
  351SOL    HW1 1052   0.003   0.316   1.790  0.5251  0.3531  0.4283
  351SOL    HW2 1053   0.059   0.468   1.832 -0.2826  0.4332 -4.1715
  352SOL     OW 1054   1.262   2.340   1.758  0.0939  0.0488  0.5223
  352SOL    HW1 1055   1.198   2.419   1.743 -2.7204 -1.0622 -1.2527
  352SOL    HW2 1056   1.235   2.253   1.710 -0.5304 -2.2421  3.0490
  353SOL     OW 1057   1.049   1.031   2.476  0.1866 -0.1752  0.7011
  353SOL    HW1 1058   1.001   1.110   2.518 -1.0491 -0.4466  0.2311
  353SOL    HW2 1059   0.995   0.945   2.474  0.2960 -0.3393 -1.1823
  354SOL     OW 1060   1.318   1.776   0.625  0.0263  0.1290 -0.2366
  354SOL    HW1 1061   1.346   1.820   0.538 -1.6112 -1.7428 -1.6353
  354SOL    HW2 1062   1.234   1.829   0.661 -2.7668  0.9973 -0.9935
  355SOL     OW 1063   1.912   0.164   0.842 -0.5182 -0.2440  0.2409
  355SOL    HW1 1064   1.850   0.113   0.902  2.0258 -0.2857 -0.9109
  355SOL    HW2 1065   1.910   0.139   0.745 -0.7381  2.8943 -0.6418
  356SOL     OW 1066   3.080   1.284   3.104 -0.5849  0.2447  0.4158
  356SOL    HW1 1067   0.017   1.213   3.051 -1.1726 -0.1868  2.8028
  356SOL    HW2 1068   2.981   1.283   3.077 -0.4313 -0.5378  1.0477
  357SOL     OW 1069   0.392   3.013   1.862 -0.0848 -0.3411  0.3725
  357SOL    HW1 1070   0.453   2.972   1.931  0.7251 -0.4745 -1.7946
  357SOL    HW2 1071   0.296   3.007   1.892  0.8362  0.9010  1.0293
  358SOL     OW 1072   0.522   1.382   3.023 -0.0494 -0.6014  0.2893
  358SOL    HW1 1073   0.473   1.311   2.977  2.6217  2.8175  1.9846
  358SOL    HW2 1074   0.532   1.361   0.010 -4.9123 -0.2568 -1.3333
  359SOL     OW 1075   2.850   2.659   2.528 -0.3384  0.0443 -0.0647
  359SOL    HW1 1076   2.921   2.727   2.539 -1.9372 -0.3611 -2.8461
  359SOL    HW2 1077   2.832   2.630   2.428 -1.1232 -2.1411  1.2481
  360SOL     OW 1078   1.601   1.329   1.035  0.4498  0.3533  0.0384
  360SOL    HW1 1079   1.615   1.398   0.958  0.4963  2.8508 -0.0843
  360SOL    HW2 1080   1.608   1.368   1.131 -0.2165 -3.1914  2.0657
  361SOL     OW 1081   1.980   2.269   1.435  0.0189  0.0212 -0.0977
  361SOL    HW1 1082   1.902   2.204   1.453  0.1207  0.8596 -1.2108
  361SOL    HW2 1083   2.057   2.214   1.399  1.3048 -0.3000  1.0316
  362SOL     OW 1084   1.664   1.486   0.806  0.6807 -0.6545 -0.0191
  362SOL    HW1 1085   1.747   1.476   0.747  0.7707 -1.2453  0.0541
  362SOL    HW2 1086   1.584   1.519   0.756 -0.3869 -3.1895 -0.0975
  363SOL     OW 1087   2.407   2.103   0.554  0.1412  0.0469  0.3659
  363SOL    HW1 1088   2.464   2.056   0.623 -2.2486  0.0631  1.2669
  363SOL    HW2 1089   2.465   2.168   0.504  0.9178  1.4835 -0.7289
  364SOL     OW 1090   2.760   0.251   1.308  0.2720  0.5040 -0.0270
  364SOL    HW1 1091   2.756   0.308   1.393 -0.4806 -0.6931 -1.9745
  364SOL    HW2 1092   2.852   0.213   1.306 -0.8539 -0.3984 -0.1070
  365SOL     OW 1093   0.513   2.737   0.871  0.4411 -0.0037  0.1713
  365SOL    HW1 1094   0.514   2.832   0.908  1.0888 -0.5458 -1.0680
  365SOL    HW2 1095   0.553   2.678   0.945 -0.9342  0.9519  1.8407
  366SOL     OW 1096   0.535   1.480   0.599  0.3337 -0.6465  0.3579
  366SOL    HW1 1097   0.471   1.480   0.528 -1.6156  0.8961  2.6319
  366SOL    HW2 1098   0.487   1.476   0.687 -1.3769 -1.9826 -0.4970
  367SOL     OW 1099   2.621   2.470   2.915  0.4258  0.1304 -0.4757
  367SOL    HW1 1100   2.522   2.484   2.887 -1.1869  1.9294  0.7751
  367SOL    HW2 1101   2.658   2.374   2.923  2.0965  0.5719  0.1392
  368SOL     OW 1102   2.537   1.952   0.757  0.5877  0.1905 -0.5825
  368SOL    HW1 1103   2.447   1.940   0.806 -1.0959 -0.2580  2.1337
  368SOL    HW2 1104   2.588   1.864   0.768 -0.0506 -0.4790 -1.2474
  369SOL     OW 1105   1.040   1.003   0.517 -0.4203 -0.6570 -0.3831
  369SOL    HW1 1106   1.034   1.067   0.600 -2.9002  2.7328  0.0557
  369SOL    HW2 1107   1.132   0.962   0.517  0.1655  1.4803 -0.8978
  370SOL     OW 1108   0.218   2.993   0.996  0.0767  0.6039 -0.7957
  370SOL    HW1 1109   0.163   2.987   0.910 -3.8441 -0.1051  1.6847
  370SOL    HW2 1110   0.228   2.896   1.033 -0.5492  0.5257  0.3267
  371SOL     OW 1111   2.751   1.361   2.734 -0.0825 -0.0160 -0.3704
  371SOL    HW1 1112   2.725   1.438   2.673 -3.0380 -2.1891 -1.3152
  371SOL    HW2 1113   2.701   1.276   2.708 -2.9201 -1.6404 -0.5246
  372SOL     OW 1114   0.757   0.417   2.248  0.1300  0.5425 -0.9083
  372SOL    HW1 1115   0.734   0.424   2.153  3.2128 -2.4046  0.9125
  372SOL    HW2 1116   0.729   0.325   2.290 -1.4469 -0.4716 -0.0662
  373SOL     OW 1117   0.693   0.464   3.017  0.6391  0.3544 -0.2803
  373SOL    HW1 1118   0.739   0.544   2.973  2.5982 -1.0524 -5.3252
  373SOL    HW2 1119   0.742   0.444   3.103 -0.1063 -0.5992  0.3951
  374SOL     OW 1120   0.947   2.323   0.128 -0.1000 -0.4424  0.7738
  374SOL    HW1 1121   1.006   2.311   0.044  0.2306  2.6770 -1.7585
  374SOL    HW2 1122   0.849   2.301   0.108  0.0216 -1.6770 -0.8792
  375SOL     OW 1123   0.877   3.081   1.202  0.4964 -0.6604  0.3867
  375SOL    HW1 1124   0.930   3.038   1.124  3.5360  1.3056 -0.6589
  375SOL    HW2 1125   0.779   3.090   1.177 -1.3199 -1.3757 -0.4838
  376SOL     OW 1126   0.214   2.338   1.969 -0.6617 -0.1827 -0.6198
  376SOL    HW1 1127   0.192   2.414   2.031 -0.1672  0.2301 -0.7231
  376SOL    HW2 1128   0.309   2.304   1.984 -0.4809 -1.1347 -0.0768
  377SOL     OW 1129   2.200   2.143   3.006 -0.0265  0.1635  0.1468
  377SOL    HW1 1130   2.104   2.142   2.976 -2.8331 -2.3971 -0.8790
  377SOL    HW2 1131   2.257   2.135   2.918  1.1806  1.9668  0.4313
  378SOL     OW 1132   2.226   0.487   0.637  0.0126  0.0568  0.0925
  378SOL    HW1 1133   2.137   0.480   0.677 -0.0520  0.3430  1.7619
  378SOL    HW2 1134   2.286   0.409   0.658  1.3200  1.4764 -0.5360
  379SOL     OW 1135   1.236   0.510   0.925  0.2330 -0.0907 -0.2004
  379SOL    HW1 1136   1.164   0.515   0.852  1.4020  1.9964 -4.5235
  379SOL    HW2 1137   1.289   0.420   0.912  1.0144  0.3187  2.5397
  380SOL     OW 1138   2.642   2.404   1.873 -0.7925  0.0092  0.1049
  380SOL    HW1 1139   2.638   2.332   1.941  1.6805  0.7954 -1.5589
  380SOL    HW2 1140   2.720   2.392   1.812  3.1907 -0.3981  4.4888
  381SOL     OW 1141   2.854   1.515   1.902  0.1356 -0.5482  0.5290
  381SOL    HW1 1142   2.894   1.602   1.868 -2.4337 -1.2664 -0.5155
  381SOL    HW2 1143   2.766   1.533   1.951  0.0600  0.8501 -0.5435
  382SOL     OW 1144   2.917   2.205   2.722  0.3061  0.4508  0.8764
  382SOL    HW1 1145   2.927   2.304   2.691 -0.3049 -0.7212 -0.4113
  382SOL    HW2 1146   2.835   2.189   2.779  0.9291  1.2949 -0.9509
  383SOL     OW 1147   1.230   0.698   2.483 -0.1656 -0.1825  0.7198
  383SOL    HW1 1148   1.243   0.771   2.413 -0.0598 -0.9151 -2.2065
  383SOL    HW2 1149   1.178   0.735   2.564 -0.2651 -0.4841  0.3504
  384SOL     OW 1150   1.120   2.044   2.317  0.2822 -0.1119  0.1328
  384SOL    HW1 1151   1.211   2.009   2.345 -0.8930  0.2976 -0.2261
  384SOL    HW2 1152   1.063   1.971   2.271  1.8970 -2.8310 -0.6301
  385SOL     OW 1153   2.511   2.658   0.072 -0.1617 -0.5897  0.1204
  385SOL    HW1 1154   2.463   2.574   0.097  0.6959  1.8004  0.8299
  385SOL    HW2 1155   2.582   2.688   0.142 -0.6992  4.3959  0.4022
  386SOL     OW 1156   1.454   1.045   0.642  0.2786  0.0694 -0.5261
  386SOL    HW1 1157   1.466   1.074   0.736  1.4079  0.0009  0.6358
  386SOL    HW2 1158   1.524   0.982   0.610 -1.3650  1.5378 -0.0715
  387SOL     OW 1159   0.100   1.679   1.777  0.4209  0.5575  0.1452
  387SOL    HW1 1160   0.143   1.617   1.849 -1.3652  0.6910  1.4328
  387SOL    HW2 1161   0.168   1.715   1.707 -0.2019 -0.8758 -1.4656
  388SOL     OW 1162   0.654   1.164   1.546  0.2529  0.5088 -0.8070
  388SOL    HW1 1163   0.722   1.237   1.567  1.4220  0.5007  0.3181
  388SOL    HW2 1164   0.703   1.078   1.569  1.5851  1.0808  0.2992
  389SOL     OW 1165   2.034   0.825   2.547  0.9488 -0.5850 -0.0477
  389SOL    HW1 1166   2.125   0.789   2.570  0.6467 -0.9191 -1.3478
  389SOL    HW2 1167   1.982   0.859   2.626  0.5277 -1.0581 -1.3198
  390SOL     OW 1168   0.905   1.967   0.158  0.6955  0.3103 -0.0149
  390SOL    HW1 1169   0.808   1.990   0.166 -0.0213  0.2972 -0.7632
  390SOL    HW2 1170   0.934   1.907   0.236  0.2926  0.0990 -0.8832
  391SOL     OW 1171   1.079   1.889   0.718 -0.0169 -0.0150  0.8173
  391SOL    HW1 1172   1.041   1.812   0.666 -0.0977 -0.5645  1.6639
  391SOL    HW2 1173   1.061   1.884   0.817  1.7716 -2.8432  0.2419
  392SOL     OW 1174   2.782   2.560   2.286 -0.1573  0.3509  0.5034
  392SOL    HW1 1175   2.684   2.551   2.244 -1.4437 -0.8788  4.0144
  392SOL    HW2 1176   2.839   2.475   2.256 -0.5258 -2.1157  1.4656
  393SOL     OW 1177   1.375   2.196   2.916 -0.0686 -0.4334  0.2348
  393SOL    HW1 1178   1.415   2.150   2.998  1.5443  0.9409 -1.2595
  393SOL    HW2 1179   1.434   2.274   2.890  1.9737  0.0671  2.6938
  394SOL     OW 1180   0.477   3.040   2.374 -0.3045  0.3304 -0.2188
  394SOL    HW1 1181   0.440   3.050   2.281  2.6181 -0.1142 -0.4984
  394SOL    HW2 1182   0.560   2.977   2.369  3.0892  0.7697 -1.4484
  395SOL     OW 1183   0.039   1.280   1.219 -0.6350 -0.1692  0.0117
  395SOL    HW1 1184   0.058   1.377   1.242 -0.6844 -0.9474 -2.3845
  395SOL    HW2 1185   0.120   1.223   1.248  1.2848 -0.4697 -1.6730
  396SOL     OW 1186   2.143   1.442   2.841  1.0947 -0.2540 -0.0409
  396SOL    HW1 1187   2.179   1.407   2.929  0.9660  3.0606 -0.2847
  396SOL    HW2 1188   2.134   1.539   2.836  0.7326 -1.3422  0.2823
  397SOL     OW 1189   0.538   0.957   3.029  0.3954 -0.3235  0.1894
  397SOL    HW1 1190   0.564   0.892   2.956 -0.5428 -0.7053  1.6299
  397SOL    HW2 1191   0.616   1.019   3.046  0.2519 -1.8717  1.0041
  398SOL     OW 1192   1.002   2.708   0.482  0.2631  0.3327  0.0353
  398SOL    HW1 1193   1.097   2.718   0.515 -2.1295  1.3580 -0.2344
  398SOL    HW2 1194   0.960   2.802   0.474  0.8905 -1.0486  2.1636
  399SOL     OW 1195   1.826   2.624   2.239  0.2617 -0.3492 -0.1491
  399SOL    HW1 1196   1.913   2.646   2.290 -1.4370  2.3527 -0.8217
  399SOL    HW2 1197   1.848   2.593   2.145 -0.6026  1.0248 -1.3423
  400SOL     OW 1198   0.116   1.276   1.995 -0.2984  0.0689 -0.1164
  400SOL    HW1 1199   0.022   1.291   2.033 -0.5854 -0.8368 -2.8812
  400SOL    HW2 1200   0.112   1.263   1.895  3.3760  0.0139 -0.4901
  401SOL     OW 1201   0.478   0.760   0.750 -0.0247 -0.0381 -0.2381
  401SOL    HW1 1202   0.386   0.779   0.719 -1.2984  0.3341 -0.0645
  401SOL    HW2 1203   0.486   0.657   0.765  0.5039  0.0792  0.3962
  402SOL     OW 1204   0.874   0.146   2.509 -0.1748  0.3685  0.0590
  402SOL    HW1 1205   0.854   0.218   2.576  0.3246  0.8344  1.0586
  402SOL    HW2 1206   0.935   0.069   2.536 -1.5054 -2.4973 -1.5622
  403SOL     OW 1207   2.611   2.038   1.841 -0.4066  0.1460 -0.4065
  403SOL    HW1 1208   2.614   2.105   1.915 -0.5879 -1.5783 -0.5502
  403SOL    HW2 1209   2.622   1.944   1.878  0.0704 -0.2114 -0.8245
  404SOL     OW 1210   2.646   2.229   1.418  0.1463  1.0984  0.3470
  404SOL    HW1 1211   2.709   2.310   1.431  0.2303 -1.8114 -0.1250
  404SOL    HW2 1212   2.658   2.147   1.482  2.2831 -2.1852  0.5394
  405SOL     OW 1213   1.703   0.337   2.660  0.2516 -0.3942  0.7627
  405SOL    HW1 1214   1.695   0.237   2.678 -0.5871  3.5060  1.0322
  405SOL    HW2 1215   1.674   0.358   2.565 -0.4804 -2.8299  1.1293
  406SOL     OW 1216   1.097   2.042   3.101 -0.4195 -0.5685 -0.0310
  406SOL    HW1 1217   1.151   1.967   3.059 -0.2404 -2.7833 -0.9809
  406SOL    HW2 1218   1.039   2.003   0.068  0.5404 -0.1776  2.1269
  407SOL     OW 1219   1.654   1.559   0.448 -0.4977 -0.1158 -0.3079
  407SOL    HW1 1220   1.565   1.551   0.505 -2.7826 -0.7882  0.9027
  407SOL    HW2 1221   1.729   1.512   0.491  0.1156  0.4779 -0.3928
  408SOL     OW 1222   0.063   0.613   1.449 -0.1035 -0.2873  0.0902
  408SOL    HW1 1223   0.038   0.679   1.524  1.1235 -1.6320 -0.2730
  408SOL    HW2 1224   0.088   0.524   1.488 -1.8820  1.6469 -1.6137
  409SOL     OW 1225   2.504   1.499   3.079  0.2448 -0.0497 -0.0930
  409SOL    HW1 1226   2.504   1.465   0.063  0.3555  1.2099 -1.7433
  409SOL    HW2 1227   2.481   1.600   3.077  0.4367  1.5578 -0.1118
  410SOL     OW 1228   2.440   2.403   0.603  0.4245  0.6404 -0.0100
  410SOL    HW1 1229   2.368   2.474   0.591  4.8483 -1.4986  1.1710
  410SOL    HW2 1230   2.441   2.376   0.700  1.5669  0.1989 -1.7830
  411SOL     OW 1231   0.454   0.253   0.162 -0.4824 -0.1507 -0.3001
  411SOL    HW1 1232   0.365   0.230   0.205  1.3526 -3.0451 -1.9054
  411SOL    HW2 1233   0.444   0.280   0.062  2.0889  3.0131 -2.7831
  412SOL     OW 1234   1.604   3.062   0.391 -0.3013  0.2984 -0.0249
  412SOL    HW1 1235   1.517   3.008   0.399 -1.6752 -1.7343 -3.3168
  412SOL    HW2 1236   1.660   3.051   0.475 -3.3994  3.3726  0.6968
  413SOL     OW 1237   1.629   0.725   2.262  0.1408  0.0192 -0.2934
  413SOL    HW1 1238   1.672   0.810   2.224 -1.4496  1.1194 -4.1325
  413SOL    HW2 1239   1.601   0.659   2.189 -1.1288  1.3527 -3.2484
  414SOL     OW 1240   0.111   0.615   0.581  0.0496 -0.2837 -0.1266
  414SOL    HW1 1241   0.149   0.716   0.569  0.4452  5.5661  1.9235
  414SOL    HW2 1242   0.191   0.562   0.611 -0.2912  1.3681  0.0258
  415SOL     OW 1243   0.006   1.065   0.464 -0.1315  0.3923  0.2291
  415SOL    HW1 1244   0.028   1.135   0.395 -2.7748 -1.1836 -1.3063
  415SOL    HW2 1245   3.015   1.075   0.486 -1.3707 -2.1656 -0.2917
  416SOL     OW 1246   3.074   0.330   2.733  0.3992 -0.0141  0.3626
  416SOL    HW1 1247   0.026   0.251   2.709 -1.5740  1.5808  0.1198
  416SOL    HW2 1248   3.081   0.398   2.659  0.0558  1.0190  2.4085
  417SOL     OW 1249   2.390   0.237   0.684 -0.0463 -0.3175  0.1001
  417SOL    HW1 1250   2.403   0.247   0.786  2.3672 -2.1462  1.7298
  417SOL    HW2 1251   2.486   0.236   0.637  1.5399 -0.6557 -2.6595
  418SOL     OW 1252   0.775   0.037   3.000 -0.0294 -0.2431  0.3187
  418SOL    HW1 1253   0.808   0.083   3.086  2.5128 -2.7705 -0.3358
  418SOL    HW2 1254   0.728   3.057   3.011  0.9149 -0.9962 -0.0509
  419SOL     OW 1255   0.044   0.470   1.188 -0.2635  0.1762  0.1999
  419SOL    HW1 1256   0.061   0.530   1.270 -0.8883 -0.5544 -3.4887
  419SOL    HW2 1257   0.135   0.435   1.152 -0.0832  0.5489 -0.8880
  420SOL     OW 1258   2.993   1.098   1.377 -0.2039  0.1949 -0.2381
  420SOL    HW1 1259   3.064   1.124   1.309 -2.1943 -2.9519  1.7227
  420SOL    HW2 1260   2.926   1.031   1.335  0.0984  1.1738  3.8543
  421SOL     OW 1261   0.937   2.028   2.848 -0.1468 -0.2093  0.3932
  421SOL    HW1 1262   1.023   2.027   2.902 -0.7795  0.1313 -1.0205
  421SOL    HW2 1263   0.957   2.032   2.746  3.1992 -1.6720  2.4575
  422SOL     OW 1264   2.418   0.301   2.227 -0.1328  0.1832 -0.5624
  422SOL    HW1 1265   2.449   0.215   2.177  0.6621 -2.8613 -0.9691
  422SOL    HW2 1266   2.354   0.357   2.172 -0.5527 -0.3457  2.2057
  423SOL     OW 1267   1.873   1.547   0.267  0.3318 -0.2285 -0.5028
  423SOL    HW1 1268   1.863   1.631   0.211 -2.7643 -0.8632  1.9979
  423SOL    HW2 1269   1.794   1.552   0.337  0.6722 -1.7702 -0.6531
  424SOL     OW 1270   1.319   1.220   2.003 -0.7372 -0.5500  0.4414
  424SOL    HW1 1271   1.284   1.307   2.043  0.0138  0.0574 -2.2466
  424SOL    HW2 1272   1.360   1.162   2.078 -5.4201 -1.2340 -1.2070
  425SOL     OW 1273   0.073   2.570   2.109 -0.3066  0.1712 -0.0324
  425SOL    HW1 1274   0.162   2.570   2.158  0.3841 -1.9669 -4.7553
  425SOL    HW2 1275   0.079   2.617   2.020 -2.5760 -0.0346  2.4936
  426SOL     OW 1276   2.265   2.615   0.624 -0.0292 -0.1558 -0.7361
  426SOL    HW1 1277   2.319   2.702   0.655  2.4334  0.2280  1.1565
  426SOL    HW2 1278   2.244   2.556   0.705 -2.5173  2.7656 -0.2413
  427SOL     OW 1279   0.629   0.761   2.816  0.0210  0.2391  0.2474
  427SOL    HW1 1280   0.553   0.702   2.778  1.7454 -0.9108 -1.3385
  427SOL    HW2 1281   0.713   0.705   2.832  0.3233 -1.7928  3.1645
  428SOL     OW 1282   2.727   1.579   2.956 -0.7665  0.3857  0.7558
  428SOL    HW1 1283   2.654   1.525   3.001  0.8442 -0.7524  3.2157
  428SOL    HW2 1284   2.786   1.518   2.896  0.8061 -0.8268 -1.6457
  429SOL     OW 1285   2.572   0.505   0.275  0.2285  0.0962 -0.3104
  429SOL    HW1 1286   2.515   0.441   0.328 -1.5645  2.3662 -0.5127
  429SOL    HW2 1287   2.533   0.601   0.274 -0.0674 -0.8261 -0.5542
  430SOL     OW 1288   1.334   1.958   2.423 -0.1179  0.6451  0.3965
  430SOL    HW1 1289   1.428   1.914   2.402  5.4062  0.3682 -1.2783
  430SOL    HW2 1290   1.342   2.016   2.505  0.0420 -0.6548  0.8534
  431SOL     OW 1291   0.259   2.116   1.668 -0.1492 -0.2610 -0.3921
  431SOL    HW1 1292   0.241   2.154   1.570  0.5952 -0.3254 -0.5362
  431SOL    HW2 1293   0.177   2.070   1.696  3.4991 -2.1117 -0.0380
  432SOL     OW 1294   1.662   2.583   1.844  0.2106 -0.0948 -0.1397
  432SOL    HW1 1295   1.714   2.502   1.884 -0.8028  2.1417  0.2085
  432SOL    HW2 1296   1.593   2.550   1.781  0.3597  1.5243  0.5103
  433SOL     OW 1297   1.085   2.170   0.306 -0.4215 -0.4522  0.0459
  433SOL    HW1 1298   1.067   2.274   0.315 -0.1912  4.7603 -0.9070
  433SOL    HW2 1299   1.005   2.128   0.248 -2.5931 -3.3208 -1.0160
  434SOL     OW 1300   0.295   2.139   2.650  0.2964  0.6882 -0.9531
  434SOL    HW1 1301   0.378   2.178   2.696 -0.6015 -1.5162  1.7496
  434SOL    HW2 1302   0.221   2.139   2.717 -0.3115 -1.8542 -1.6527
  435SOL     OW 1303   0.187   0.891   0.574  0.2614 -0.1136  0.4599
  435SOL    HW1 1304   0.121   0.960   0.534 -1.5458  1.7858 -2.5442
  435SOL    HW2 1305   0.277   0.905   0.535 -0.9335 -1.8749  0.9437
  436SOL     OW 1306   0.501   2.933   1.595 -0.3438  0.3215  0.0101
  436SOL    HW1 1307   0.466   2.956   1.690  0.4461  0.1669 -0.4749
  436SOL    HW2 1308   0.604   2.914   1.604  2.6421 -0.2472  0.4585
  437SOL     OW 1309   0.689   0.315   0.784  0.1287 -0.1254 -0.5604
  437SOL    HW1 1310   0.778   0.331   0.829 -0.9681 -1.2218 -1.3310
  437SOL    HW2 1311   0.709   0.274   0.695 -0.8768  1.7111  2.2140
  438SOL     OW 1312   0.633   2.129   0.640  0.3435  0.5594 -0.5742
  438SOL    HW1 1313   0.636   2.232   0.643  2.2332 -1.6108  2.5167
  438SOL    HW2 1314   0.603   2.094   0.731  0.2415  0.5274 -2.0110
  439SOL     OW 1315   0.781   2.564   1.603  0.5296  0.2771  0.0518
  439SOL    HW1 1316   0.721   2.521   1.670  0.3353  1.3441  1.4786
  439SOL    HW2 1317   0.802   2.663   1.616  1.3540  0.6055  0.0471
  440SOL     OW 1318   1.932   2.966   2.002 -0.2127  0.3099  0.2640
  440SOL    HW1 1319   1.891   2.908   1.931  2.1549  0.6213  2.2855
  440SOL    HW2 1320   1.889   2.954   2.091  1.9812  0.4592 -3.7055
  441SOL     OW 1321   2.836   0.443   1.792 -0.6217  0.1013  0.2590
  441SOL    HW1 1322   2.889   0.387   1.854  0.6817 -0.0927 -0.7168
  441SOL    HW2 1323   2.869   0.541   1.790  0.2450 -0.1166  0.7668
  442SOL     OW 1324   1.777   2.376   1.015  0.4294 -0.1725  0.1923
  442SOL    HW1 1325   1.794   2.335   0.924 -0.4990 -3.1778 -1.3160
  442SOL    HW2 1326   1.779   2.309   1.093  0.8585  1.6174 -1.2180
  443SOL     OW 1327   2.831   0.645   2.133  0.1129 -0.6770 -0.1664
  443SOL    HW1 1328   2.802   0.555   2.173 -0.7259  1.3683 -0.8401
  443SOL    HW2 1329   2.754   0.684   2.079  1.4848 -3.4363 -1.1173
  444SOL     OW 1330   2.122   1.231   1.952 -0.3064 -0.0469  0.1118
  444SOL    HW1 1331   2.170   1.168   2.014  0.4458 -0.0756 -1.0381
  444SOL    HW2 1332   2.192   1.269   1.891  0.8600 -1.8287  1.2172
  445SOL     OW 1333   0.001   2.408   1.123 -0.3620 -0.3609 -0.1653
  445SOL    HW1 1334   3.064   2.498   1.154 -1.0319  1.2748 -0.0791
  445SOL    HW2 1335   3.059   2.376   1.042 -1.8208  0.7607  2.2394
  446SOL     OW 1336   2.872   1.633   0.948 -0.1717  0.2522  0.3447
  446SOL    HW1 1337   2.913   1.706   1.000  0.7446  0.1361  0.2609
  446SOL    HW2 1338   2.898   1.543   0.989  1.1902  1.9400 -1.2550
  447SOL     OW 1339   0.532   0.983   0.912  0.8680  0.3728 -0.2639
  447SOL    HW1 1340   0.522   0.884   0.886  3.5787  1.2043  2.4219
  447SOL    HW2 1341   0.626   0.990   0.948 -0.7002 -4.0903 -0.5392
  448SOL     OW 1342   1.525   1.337   1.848 -0.6422 -0.1012 -0.1570
  448SOL    HW1 1343   1.467   1.423   1.837 -3.1835 -2.2435  0.9927
  448SOL    HW2 1344   1.506   1.280   1.927 -0.0370  1.3495 -2.2714
  449SOL     OW 1345   1.275   1.296   0.260 -0.0722 -0.3131  0.2541
  449SOL    HW1 1346   1.370   1.266   0.231  0.7822  1.5063  0.4743
  449SOL    HW2 1347   1.217   1.295   0.176  0.5374  2.9277  1.2156
  450SOL     OW 1348   2.889   2.200   2.132 -0.0640 -0.4151  0.0811
  450SOL    HW1 1349   2.945   2.277   2.169  1.1704 -2.6797  2.0857
  450SOL    HW2 1350   2.948   2.147   2.067  1.6177 -0.3364 -0.0019
  451SOL     OW 1351   2.006   2.934   2.634  0.4284 -0.4409 -0.3076
  451SOL    HW1 1352   2.062   2.851   2.613 -1.8373  1.0249  1.8719
  451SOL    HW2 1353   1.906   2.921   2.616 -1.7725  0.8080  0.9208
  452SOL     OW 1354   1.593   2.962   1.279 -0.4987 -0.1148  0.4154
  452SOL    HW1 1355   1.559   2.924   1.364 -0.5388 -2.0338 -3.5977
  452SOL    HW2 1356   1.600   3.061   1.296  1.3828 -1.2350  0.8045
  453SOL     OW 1357   1.884   0.987   1.075  0.2209 -0.3715 -0.1166
  453SOL    HW1 1358   1.973   0.944   1.064 -0.4552  1.2274  0.4430
  453SOL    HW2 1359   1.878   1.075   1.025  2.0303  0.8087  0.8685
  454SOL     OW 1360   0.321   1.218   0.495  0.3096 -0.1763  0.3388
  454SOL    HW1 1361   0.370   1.184   0.582 -0.4116 -0.5649 -1.0279
  454SOL    HW2 1362   0.235   1.270   0.513  1.2740  1.0041  0.2481
  455SOL     OW 1363   2.818   0.116   0.333  0.3480 -0.1673  0.0956
  455SOL    HW1 1364   2.895   0.120   0.400  0.7841  2.3416  0.4237
  455SOL    HW2 1365   2.864   0.106   0.246  0.9201  0.0856  2.1147
  456SOL     OW 1366   3.048   2.691   1.179 -0.3328  0.0783  0.3140
  456SOL    HW1 1367   0.033   2.716   1.188 -2.1679  0.1861 -0.0815
  456SOL    HW2 1368   3.002   2.772   1.141  0.7588  0.9827  1.6271
  457SOL     OW 1369   1.234   0.016   0.622  0.6609  0.4553  0.2035
  457SOL    HW1 1370   1.265   0.075   0.543 -2.2070 -2.4975 -0.1384
  457SOL    HW2 1371   1.294   0.011   0.700 -2.7467 -1.7700 -1.8837
  458SOL     OW 1372   2.392   0.335   0.399  0.4899 -0.7172 -0.2305
  458SOL    HW1 1373   2.407   0.284   0.487  1.8569 -3.1568 -1.8423
  458SOL    HW2 1374   2.297   0.322   0.367 -1.3213  0.4442  0.8193
  459SOL     OW 1375   2.273   0.720   2.630  0.3292  0.1219  0.0685
  459SOL    HW1 1376   2.240   0.630   2.596  0.0582 -1.6837  1.5159
  459SOL    HW2 1377   2.266   0.737   2.731 -0.5864 -1.1154  1.1530
  460SOL     OW 1378   2.888   2.958   2.910 -0.1688 -0.0790 -0.4606
  460SOL    HW1 1379   2.827   3.037   2.919  1.0743 -1.3011  1.5835
  460SOL    HW2 1380   2.840   2.872   2.901 -0.1023  1.4584  0.6301
  461SOL     OW 1381   0.981   1.655   0.622 -0.0207  0.0339  0.0601
  461SOL    HW1 1382   1.006   1.603   0.701 -1.7071  0.8408 -0.0865
  461SOL    HW2 1383   0.880   1.653   0.612  0.7104 -1.0882 -0.1847
  462SOL     OW 1384   2.408   2.378   1.104  0.4231 -0.7895  0.3770
  462SOL    HW1 1385   2.342   2.432   1.047 -0.2959  0.8937 -1.2972
  462SOL    HW2 1386   2.499   2.370   1.057  3.0839 -1.9645 -0.4397
  463SOL     OW 1387   2.434   1.017   0.576 -0.0575 -0.0970 -0.0990
  463SOL    HW1 1388   2.481   0.976   0.498  0.5698 -0.0368  1.6635
  463SOL    HW2 1389   2.473   0.969   0.656 -0.7998 -1.5067 -2.0252
  464SOL     OW 1390   0.200   2.750   1.132  0.1390  0.2853 -0.7047
  464SOL    HW1 1391   0.206   2.658   1.092 -0.8502  3.9272 -0.7604
  464SOL    HW2 1392   0.254   2.757   1.221 -0.8206 -3.3700  0.9569
  465SOL     OW 1393   0.137   1.520   2.965 -0.0226 -0.2558  0.1874
  465SOL    HW1 1394   0.109   1.486   3.056 -3.0596 -1.0801  0.7100
  465SOL    HW2 1395   0.237   1.520   2.945 -0.3275 -1.6088  0.1037
  466SOL     OW 1396   1.655   0.080   2.775  0.4159 -0.3828  0.1712
  466SOL    HW1 1397   1.555   0.076   2.749 -1.0850 -0.4287 -3.3459
  466SOL    HW2 1398   1.669   0.128   2.864 -1.9077  0.9746  0.9388
  467SOL     OW 1399   0.971   0.967   1.906 -0.1909  0.3322 -0.0935
  467SOL    HW1 1400   1.022   0.883   1.932 -1.2084  1.0581  1.5339
  467SOL    HW2 1401   1.031   1.043   1.886 -1.8206 -0.7669  0.8268
  468SOL     OW 1402   0.588   1.107   2.473 -0.0287 -0.6105  0.1087
  468SOL    HW1 1403   0.669   1.045   2.492  1.4140  1.8679  0.9839
  468SOL    HW2 1404   0.504   1.079   2.526  0.5308 -0.6027  2.1875
  469SOL     OW 1405   0.057   2.161   3.081  0.2890  0.3113  0.0338
  469SOL    HW1 1406   0.058   2.245   0.029 -1.1728  1.0007  1.8523
  469SOL    HW2 1407   3.082   2.111   3.109  0.5377 -1.0475 -1.4186
  470SOL     OW 1408   2.252   1.799   2.760  0.5163 -0.0334  0.1637
  470SOL    HW1 1409   2.320   1.737   2.797 -3.4263  1.1906 -1.2338
  470SOL    HW2 1410   2.278   1.898   2.764 -0.1539 -0.0561 -1.2261
  471SOL     OW 1411   2.378   0.828   2.158 -0.2845 -0.2055  0.3699
  471SOL    HW1 1412   2.417   0.790   2.243 -0.3438  1.4618  1.8627
  471SOL    HW2 1413   2.441   0.810   2.080 -0.1511 -1.8777 -1.6946
  472SOL     OW 1414   0.387   2.553   0.711  0.4708  0.6209  0.2275
  472SOL    HW1 1415   0.307   2.593   0.659  2.8197 -1.8393  0.7942
  472SOL    HW2 1416   0.429   2.624   0.770  1.3559  0.7020 -0.0502
  473SOL     OW 1417   0.581   0.141   2.821 -0.0494 -0.6710  0.4769
  473SOL    HW1 1418   0.651   0.075   2.854 -0.1341 -0.2126  2.4780
  473SOL    HW2 1419   0.547   0.190   2.903 -0.3792  0.6871 -0.1043
  474SOL     OW 1420   1.523   0.219   2.291 -0.4246 -0.4338 -0.1339
  474SOL    HW1 1421   1.555   0.310   2.318  0.8478  1.9625  1.7039
  474SOL    HW2 1422   1.585   0.185   2.222  1.4797 -0.0545  2.3247
  475SOL     OW 1423   1.779   2.607   0.798  0.1047 -0.0039  0.1162
  475SOL    HW1 1424   1.831   2.539   0.849 -1.2087  1.2891 -0.8020
  475SOL    HW2 1425   1.789   2.585   0.696  0.9060 -4.6635 -1.8395
  476SOL     OW 1426   3.041   0.615   1.000 -0.0827  0.3994 -0.0423
  476SOL    HW1 1427   3.030   0.710   1.039  1.3773 -0.6285  2.2861
  476SOL    HW2 1428   0.003   0.559   1.049 -0.1392 -1.7501  2.2993
  477SOL     OW 1429   1.335   2.237   0.699  0.5202 -0.0708 -0.1501
  477SOL    HW1 1430   1.424   2.210   0.654  0.6895  0.7661  1.8558
  477SOL    HW2 1431   1.259   2.173   0.676 -0.5379  1.7087  1.2112
  478SOL     OW 1432   0.405   2.279   2.427 -0.3934  0.0711  0.8098
  478SOL    HW1 1433   0.394   2.218   2.511 -1.3724 -1.1341 -0.1749
  478SOL    HW2 1434   0.431   2.224   2.342 -0.8136  1.5625 -0.6448
  479SOL     OW 1435   2.338   0.573   0.898 -0.2068 -0.0500  0.5474
  479SOL    HW1 1436   2.251   0.578   0.847 -1.2142  1.2870 -1.1856
  479SOL    HW2 1437   2.361   0.479   0.919 -1.4474  4.3684  0.4950
  480SOL     OW 1438   3.059   2.877   0.166  0.0959 -0.3999  0.2142
  480SOL    HW1 1439   3.012   2.969   0.169 -1.2029  4.0303  2.9919
  480SOL    HW2 1440   0.032   2.884   0.108 -2.5202  0.9810  3.6855
  481SOL     OW 1441   2.817   2.553   1.183  0.2359 -0.2858 -0.8079
  481SOL    HW1 1442   2.744   2.594   1.241  1.9445 -3.3997 -1.1278
  481SOL    HW2 1443   2.906   2.606   1.195 -0.3864  1.0779 -0.0252
  482SOL     OW 1444   0.953   2.437   2.858  0.4000  0.7759 -0.3345
  482SOL    HW1 1445   1.021   2.382   2.908 -1.8083 -2.6727 -3.1166
  482SOL    HW2 1446   0.982   2.534   2.867  0.5931 -1.1977  1.4520
  483SOL     OW 1447   0.727   2.264   2.511  0.5079 -0.1602  0.2138
  483SOL    HW1 1448   0.626   2.294   2.518 -4.1184  2.9175 -3.0816
  483SOL    HW2 1449   0.734   2.171   2.468  0.0329 -2.0849  1.3831
  484SOL     OW 1450   1.004   0.860   1.500  0.0522 -0.2806 -0.0757
  484SOL    HW1 1451   1.008   0.779   1.440 -0.6461  0.0482 -2.3997
  484SOL    HW2 1452   1.085   0.859   1.559 -0.3238  0.1659 -1.8597
  485SOL     OW 1453   2.364   0.821   0.007  0.6039  0.7972 -0.5151
  485SOL    HW1 1454   2.414   0.755   3.062 -1.2494  0.6413  0.6767
  485SOL    HW2 1455   2.403   0.916   0.021 -0.1946  1.7015  0.7238
  486SOL     OW 1456   2.125   3.074   1.184 -0.2645 -0.3682 -0.0080
  486SOL    HW1 1457   2.135   2.996   1.252 -1.7932 -2.7086  3.9199
  486SOL    HW2 1458   2.031   0.005   1.197 -2.1821 -1.6797  2.2829
  487SOL     OW 1459   0.409   2.025   1.141 -0.7310  0.5514 -0.1142
  487SOL    HW1 1460   0.463   2.027   1.228 -1.0985 -1.7422  2.0580
  487SOL    HW2 1461   0.307   2.015   1.154  1.8556 -0.2138  0.2922
  488SOL     OW 1462   2.687   1.002   3.094  0.1659 -0.5829 -0.0996
  488SOL    HW1 1463   2.592   1.040   3.107  0.0937 -1.7122 -0.4596
  488SOL    HW2 1464   2.697   0.935   3.015  0.1402  0.5231 -0.7537
  489SOL     OW 1465   1.718   0.112   1.024 -0.6509  0.0606 -0.1778
  489SOL    HW1 1466   1.777   0.109   1.111 -1.5157 -1.5111  2.0720
  489SOL    HW2 1467   1.649   0.185   1.041  1.0576 -0.7476 -3.9957
  490SOL     OW 1468   0.894   0.671   0.538 -0.5599  0.0646  0.2143
  490SOL    HW1 1469   0.825   0.613   0.486  1.2917 -0.9647  0.6002
  490SOL    HW2 1470   0.848   0.734   0.606  0.1525  0.5927  1.5452
  491SOL     OW 1471   0.602   2.383   0.710  0.1065  0.1334  0.0895
  491SOL    HW1 1472   0.666   2.433   0.649  2.3312  2.6093  0.7804
  491SOL    HW2 1473   0.509   2.424   0.704  1.6711  0.8633  1.1740
  492SOL     OW 1474   1.592   1.586   2.243  0.1410  0.5801 -0.0204
  492SOL    HW1 1475   1.638   1.513   2.302  1.2426  1.5248  2.3302
  492SOL    HW2 1476   1.492   1.570   2.227 -0.6634  0.1039  0.0396
  493SOL     OW 1477   3.061   2.689   0.757  0.5335  0.2982 -0.1924
  493SOL    HW1 1478   2.967   2.715   0.780  1.2304 -1.9437 -0.3305
  493SOL    HW2 1479   0.008   2.774   0.743 -1.6790  0.7786 -0.5167
  494SOL     OW 1480   2.635   2.070   0.047 -0.1942 -0.3671 -0.0915
  494SOL    HW1 1481   2.536   2.074   0.084 -0.1040 -0.0561 -0.5696
  494SOL    HW2 1482   2.636   2.038   3.057 -0.7456  1.5510  0.8324
  495SOL     OW 1483   2.640   1.955   2.890 -0.2191  0.6063  0.2486
  495SOL    HW1 1484   2.598   1.935   2.801  0.7046  1.2293  1.4310
  495SOL    HW2 1485   2.728   1.903   2.895 -0.5442  1.2805 -2.0548
  496SOL     OW 1486   2.730   2.987   1.496 -0.1802 -0.5595  0.5285
  496SOL    HW1 1487   2.653   3.036   1.543 -2.7793  1.5705  2.1709
  496SOL    HW2 1488   2.692   2.944   1.415 -0.0066  0.7092 -3.0398
  497SOL     OW 1489   2.831   1.233   3.014 -0.3999 -0.6526  0.5569
  497SOL    HW1 1490   2.812   1.252   2.919  0.0177 -0.5770  2.2738
  497SOL    HW2 1491   2.790   1.148   3.035  1.0677  0.9278  1.0826
  498SOL     OW 1492   0.030   1.941   2.160  0.2512  0.0719 -0.0757
  498SOL    HW1 1493   0.032   2.019   2.098  3.5621 -3.2751  1.3312
  498SOL    HW2 1494   0.019   1.973   2.256  1.0467  1.4977 -0.4481
  499SOL     OW 1495   0.773   2.235   2.898  0.1677  0.2420  0.4628
  499SOL    HW1 1496   0.827   2.150   2.880  2.1562 -3.0074 -1.8445
  499SOL    HW2 1497   0.824   2.322   2.866 -0.7033 -0.6597 -1.2735
  500SOL     OW 1498   1.675   0.238   3.044 -0.1270 -0.0195  0.3623
  500SOL    HW1 1499   1.662   0.226   0.033  0.9444  1.8429 -1.6742
  500SOL    HW2 1500   1.771   0.217   3.020 -2.1029 -0.7692  0.9686
  501SOL     OW 1501   1.340   2.966   1.485  0.1649  0.7614 -0.1134
  501SOL    HW1 1502   1.311   3.026   1.407  1.1621 -2.4864  1.7514
  501SOL    HW2 1503   1.377   3.027   1.558  2.8350 -0.8977  0.1342
  502SOL     OW 1504   2.604   0.730   2.014 -0.4679  0.1033 -0.3952
  502SOL    HW1 1505   2.635   0.824   1.980 -0.1531 -0.4106 -2.5839
  502SOL    HW2 1506   2.601   0.659   1.946 -2.3796  1.7033  1.1511
  503SOL     OW 1507   2.252   2.169   2.464  0.3312  0.5968 -0.4608
  503SOL    HW1 1508   2.292   2.243   2.523  1.2880  0.5274 -1.8554
  503SOL    HW2 1509   2.157   2.195   2.441 -1.1873  0.4095 -0.9355
  504SOL     OW 1510   1.401   0.720   1.706  0.4629  0.1585  0.3646
  504SOL    HW1 1511   1.484   0.713   1.648  2.2688 -2.7813 -0.5779
  504SOL    HW2 1512   1.435   0.674   1.794  0.9412  0.9700 -1.3702
  505SOL     OW 1513   0.734   0.621   1.697  0.0061 -0.5137  0.5457
  505SOL    HW1 1514   0.676   0.665   1.763  1.4658 -0.8193 -2.0045
  505SOL    HW2 1515   0.728   0.681   1.611 -0.1901 -0.6050 -1.3066
  506SOL     OW 1516   0.432   0.395   2.442  0.1432 -0.4070  0.1935
  506SOL    HW1 1517   0.486   0.312   2.452 -0.0519  1.5518  0.8468
  506SOL    HW2 1518   0.454   0.448   2.355 -1.0793 -0.4944 -0.3436
  507SOL     OW 1519   0.185   2.840   0.027 -0.4808  0.3856 -0.2797
  507SOL    HW1 1520   0.277   2.870   0.061 -2.7871  0.6235 -0.0542
  507SOL    HW2 1521   0.144   2.897   3.062  1.7750 -2.5761  2.0737
  508SOL     OW 1522   1.365   1.020   1.392  0.3776 -0.6089  0.2875
  508SOL    HW1 1523   1.304   0.994   1.473 -3.1952  0.5130  2.0933
  508SOL    HW2 1524   1.395   1.117   1.395 -2.2291 -4.2157 -2.5548
  509SOL     OW 1525   1.474   2.220   1.501 -0.3358 -0.1963 -0.2821
  509SOL    HW1 1526   1.471   2.234   1.401  0.8936 -2.9167  1.7542
  509SOL    HW2 1527   1.571   2.205   1.536 -0.6612 -0.3663 -0.4437
  510SOL     OW 1528   2.461   1.367   2.220 -0.3218  0.3018  0.0575
  510SOL    HW1 1529   2.459   1.423   2.303 -0.9656  1.3919 -0.2248
  510SOL    HW2 1530   2.443   1.271   2.246  1.8556  1.7705  2.2434
  511SOL     OW 1531   0.677   1.799   1.363  0.2308  0.6355 -0.0881
  511SOL    HW1 1532   0.609   1.748   1.304  1.6035 -1.3443  0.1233
  511SOL    HW2 1533   0.673   1.753   1.454  0.7782 -1.0936 -1.0996
  512SOL     OW 1534   2.712   1.971   0.535 -0.0255  0.0494  0.2226
  512SOL    HW1 1535   2.725   2.070   0.518 -1.7721  1.2698 -1.1164
  512SOL    HW2 1536   2.745   1.941   0.629  0.5612  0.4305  1.6308
  513SOL     OW 1537   0.023   1.754   2.857 -0.1701 -1.0188 -0.0730
  513SOL    HW1 1538   0.079   1.782   2.777  0.2311 -0.5021 -1.9250
  513SOL    HW2 1539   0.071   1.673   2.900  3.4438 -0.8686 -0.1922
  514SOL     OW 1540   3.017   2.397   2.244 -0.7293  0.6996 -0.5899
  514SOL    HW1 1541   3.090   2.390   2.320  0.6196 -0.2154  1.4629
  514SOL    HW2 1542   3.059   2.463   2.174 -0.2495  1.7446  0.9861
  515SOL     OW 1543   2.268   1.396   1.294  0.0197  0.0282  0.2833
  515SOL    HW1 1544   2.233   1.298   1.281 -2.1535  0.4725 -2.5515
  515SOL    HW2 1545   2.336   1.402   1.369 -2.1769  2.1552  3.6252
  516SOL     OW 1546   2.171   2.285   0.156 -0.3073  0.1793  0.1124
  516SOL    HW1 1547   2.200   2.205   0.217  1.2733 -0.5799  2.4821
  516SOL    HW2 1548   2.152   2.253   0.060 -1.0915 -1.3233 -0.4860
  517SOL     OW 1549   1.146   1.099   3.019  0.3638 -0.5271 -0.0476
  517SOL    HW1 1550   1.135   1.127   2.922  0.2277 -1.4132  2.6316
  517SOL    HW2 1551   1.137   1.177   3.085  1.2596  1.2991  1.5621
  518SOL     OW 1552   0.097   3.032   1.949  0.7884  0.4316  0.4249
  518SOL    HW1 1553   0.120   2.991   2.041  2.2409  0.5760  0.4457
  518SOL    HW2 1554   0.005   2.993   1.928  0.7455  1.5765  0.5647
  519SOL     OW 1555   1.725   1.409   2.425  0.1711 -0.0585 -0.1318
  519SOL    HW1 1556   1.818   1.451   2.413  1.0443 -0.2494  2.1794
  519SOL    HW2 1557   1.705   1.376   2.518 -2.7746 -0.1809  2.3321
  520SOL     OW 1558   2.629   2.805   2.513  0.7037 -0.1887  0.1814
  520SOL    HW1 1559   2.561   2.786   2.446 -1.1151 -0.6173  2.5925
  520SOL    HW2 1560   2.715   2.745   2.516 -0.4569 -1.8012  1.0580
  521SOL     OW 1561   0.307   1.998   1.944  0.0732  0.2246 -0.0833
  521SOL    HW1 1562   0.225   2.023   1.995 -0.0377 -2.7737 -1.4926
  521SOL    HW2 1563   0.328   2.061   1.870 -0.7799  1.0264  0.8761
  522SOL     OW 1564   1.074   2.520   1.660 -1.2053 -0.0420 -0.1644
  522SOL    HW1 1565   0.996   2.487   1.605 -0.1534 -0.1738 -0.0501
  522SOL    HW2 1566   1.123   2.592   1.607  0.8941  0.0691  1.4060
  523SOL     OW 1567   0.176   2.236   1.424  0.2024  0.5000 -0.3012
  523SOL    HW1 1568   0.224   2.308   1.375 -2.4537 -1.3129  1.6385
  523SOL    HW2 1569   0.075   2.247   1.405 -1.2773  1.5180 -1.3902
  524SOL     OW 1570   1.305   2.499   0.733 -0.2449  0.6115 -0.1541
  524SOL    HW1 1571   1.384   2.552   0.767 -0.7876 -2.3585 -0.3034
  524SOL    HW2 1572   1.330   2.413   0.687  1.3048 -0.2622 -2.6829
  525SOL     OW 1573   2.596   1.222   0.894  0.1949 -0.3388 -0.3430
  525SOL    HW1 1574   2.646   1.236   0.984  0.0609  0.2379  1.3598
  525SOL    HW2 1575   2.517   1.288   0.899 -0.3077 -0.3886 -0.2708
  526SOL     OW 1576   1.053   2.331   0.770 -0.2283 -0.4226  0.3091
  526SOL    HW1 1577   1.131   2.389   0.764 -1.8779 -0.2870 -0.5505
  526SOL    HW2 1578   1.070   2.246   0.715 -1.0346  0.9592 -1.2282
  527SOL     OW 1579   2.562   2.222   0.849 -0.8228  0.2146 -0.8445
  527SOL    HW1 1580   2.653   2.262   0.848 -1.4078 -1.4894  0.4113
  527SOL    HW2 1581   2.570   2.131   0.805  1.2576 -0.2615  0.8798
  528SOL     OW 1582   2.161   0.365   2.835  0.2355  0.0071  0.1853
  528SOL    HW1 1583   2.081   0.326   2.789 -0.9120 -0.7586  1.1955
  528SOL    HW2 1584   2.151   0.338   2.934  1.3429 -2.4363  0.6316
  529SOL     OW 1585   1.190   1.311   2.255 -0.2400 -0.4552 -0.1121
  529SOL    HW1 1586   1.238   1.246   2.313  1.3161 -0.7620 -2.0156
  529SOL    HW2 1587   1.234   1.405   2.263  1.8425 -0.0527  1.4287
  530SOL     OW 1588   2.484   1.047   2.403  0.0150  0.2343  0.4458
  530SOL    HW1 1589   2.555   1.076   2.333 -0.7523 -0.4401 -2.3592
  530SOL    HW2 1590   2.466   0.947   2.394  0.8143 -0.8056 -1.3260
  531SOL     OW 1591   0.932   0.918   3.035 -0.5472 -0.5250  0.1545
  531SOL    HW1 1592   1.029   0.950   3.014  0.9712  0.6877  1.1905
  531SOL    HW2 1593   0.921   0.907   0.026 -2.0405 -1.7218 -0.7789
  532SOL     OW 1594   1.620   0.856   0.532 -0.3248  0.0386 -0.0218
  532SOL    HW1 1595   1.562   0.776   0.572 -1.0761 -0.5399  0.0005
  532SOL    HW2 1596   1.693   0.824   0.465  2.8781 -1.0906 -2.3108
  533SOL     OW 1597   0.488   0.533   2.215  0.6181  0.1881  0.2558
  533SOL    HW1 1598   0.410   0.554   2.150  2.4787 -1.7690 -0.1307
  533SOL    HW2 1599   0.573   0.529   2.166  1.6086 -1.5135  1.0006
  534SOL     OW 1600   1.607   0.470   2.435 -0.8749 -0.2441 -0.5666
  534SOL    HW1 1601   1.645   0.527   2.361 -1.0681 -0.1033 -1.5707
  534SOL    HW2 1602   1.508   0.451   2.423  1.4208  1.1243 -0.4654
  535SOL     OW 1603   0.826   0.260   0.542  0.2329  0.1247 -0.2200
  535SOL    HW1 1604   0.919   0.276   0.499 -2.4971  0.9100 -1.2646
  535SOL    HW2 1605   0.795   0.167   0.517  1.1326  0.0455 -0.7251
  536SOL     OW 1606   0.896   0.397   0.921  0.1899  0.0498  0.0024
  536SOL    HW1 1607   0.852   0.473   0.974  1.0855 -1.1462 -0.0746
  536SOL    HW2 1608   0.944   0.438   0.841 -4.3532 -1.4449  1.5974
  537SOL     OW 1609   1.507   2.963   1.847 -0.6051 -0.1649  0.0527
  537SOL    HW1 1610   1.537   2.923   1.939  1.3757  1.5387  1.2741
  537SOL    HW2 1611   1.468   2.888   1.780 -3.2264 -0.0628 -2.8704
  538SOL     OW 1612   0.468   2.914   0.102 -0.7136 -0.4538 -0.2109
  538SOL    HW1 1613   0.496   2.816   0.122 -0.1737 -1.2648 -2.0397
  538SOL    HW2 1614   0.485   2.933   0.004  0.6184 -2.6241  0.2945
  539SOL     OW 1615   2.949   1.753   1.832 -0.1140 -0.0346  0.5346
  539SOL    HW1 1616   3.051   1.740   1.823  1.7263  0.6216 -1.3889
  539SOL    HW2 1617   2.940   1.798   1.922 -0.1803  1.3991  1.0824
  540SOL     OW 1618   2.553   2.499   2.140 -0.1329  0.2693 -0.0843
  540SOL    HW1 1619   2.586   2.487   2.042  0.8005  1.3900  0.1205
  540SOL    HW2 1620   2.461   2.455   2.149  0.9401 -0.5479  1.2875
  541SOL     OW 1621   0.440   3.073   1.344 -0.1802  0.3194  0.3572
  541SOL    HW1 1622   0.356   0.008   1.307  1.8415  1.4708  2.1762
  541SOL    HW2 1623   0.424   3.007   1.418 -2.8247  0.5850 -2.3993
  542SOL     OW 1624   2.738   0.344   2.168  0.6405  0.2300 -0.3501
  542SOL    HW1 1625   2.763   0.293   2.255  2.8768 -1.8915  2.2385
  542SOL    HW2 1626   2.771   0.296   2.086 -2.3294 -0.8449  1.1605
  543SOL     OW 1627   0.768   0.593   1.035  0.2984 -0.1038  0.6178
  543SOL    HW1 1628   0.668   0.616   1.022 -0.7111 -1.0361  0.6192
  543SOL    HW2 1629   0.772   0.525   1.113  0.7740  1.4782 -0.6546
  544SOL     OW 1630   2.378   2.095   1.197 -0.1664  0.0263  0.0294
  544SOL    HW1 1631   2.329   2.109   1.108 -0.6160  0.9447 -1.5982
  544SOL    HW2 1632   2.428   2.183   1.212  0.3583  2.4963  2.1442
  545SOL     OW 1633   1.234   1.514   0.973  0.1176  0.5682  0.2162
  545SOL    HW1 1634   1.330   1.553   0.981 -0.5834 -0.2517  2.8342
  545SOL    HW2 1635   1.194   1.509   1.069  0.4099 -2.2232  0.0242
  546SOL     OW 1636   2.778   0.203   2.387 -0.4771  0.0857 -0.5004
  546SOL    HW1 1637   2.691   0.169   2.430  1.6948 -1.3623  0.4921
  546SOL    HW2 1638   2.862   0.157   2.421  2.7052  0.5540 -1.9087
  547SOL     OW 1639   2.801   0.301   2.801 -0.4494 -0.0709 -0.0675
  547SOL    HW1 1640   2.743   0.367   2.746  2.0619  1.2932 -0.8733
  547SOL    HW2 1641   2.897   0.313   2.765  1.5114 -2.5442 -1.7785
  548SOL     OW 1642   2.326   2.087   2.742  0.7342  0.0815  0.0348
  548SOL    HW1 1643   2.398   2.034   2.695  0.2215  1.0959 -1.4819
  548SOL    HW2 1644   2.323   2.187   2.714  0.6278  0.1573  0.1657
  549SOL     OW 1645   2.005   0.438   0.826 -0.5326 -0.1917  0.5046
  549SOL    HW1 1646   1.983   0.341   0.825  0.4907 -0.8869  0.7573
  549SOL    HW2 1647   1.991   0.477   0.921 -1.9913 -2.1304  0.1047
  550SOL     OW 1648   2.515   1.342   0.214 -0.1840 -0.0027  0.4329
  550SOL    HW1 1649   2.484   1.248   0.187  1.4382 -2.7349 -2.2059
  550SOL    HW2 1650   2.607   1.335   0.256 -3.7360 -0.1515  2.4422
  551SOL     OW 1651   1.434   2.435   1.275  0.0374 -0.2503 -0.4943
  551SOL    HW1 1652   1.475   2.433   1.189 -0.7587  2.9576  5.6829
  551SOL    HW2 1653   1.507   2.457   1.343  0.1053  1.6282 -2.0707
  552SOL     OW 1654   2.644   2.270   2.542 -0.5511  0.5832  0.4507
  552SOL    HW1 1655   2.697   2.213   2.473  4.7825  2.2895  1.6467
  552SOL    HW2 1656   2.704   2.350   2.547 -0.3176 -1.1656 -1.3040
  553SOL     OW 1657   0.616   3.024   0.674 -0.4793 -0.2425 -0.3457
  553SOL    HW1 1658   0.602   0.001   0.626  2.9943 -2.3146 -1.3436
  553SOL    HW2 1659   0.583   3.022   0.770 -0.0299 -1.9589 -2.5286
  554SOL     OW 1660   1.736   2.325   1.850  0.6730 -0.1674 -0.1203
  554SOL    HW1 1661   1.645   2.273   1.865 -3.5591 -0.7895  3.2971
  554SOL    HW2 1662   1.816   2.269   1.875  1.0046  1.4350 -1.1673
  555SOL     OW 1663   1.463   2.601   2.023 -0.4014 -0.1228 -0.0763
  555SOL    HW1 1664   1.544   2.602   1.961 -0.2241 -1.6868 -0.0436
  555SOL    HW2 1665   1.390   2.658   1.981  1.6099  1.7117 -0.5238
  556SOL     OW 1666   1.544   0.631   0.651  0.7380 -0.1317 -0.1101
  556SOL    HW1 1667   1.627   0.576   0.665 -4.2976  2.7453 -1.7141
  556SOL    HW2 1668   1.459   0.570   0.623 -2.1687 -3.5059  0.0641
  557SOL     OW 1669   1.217   2.114   1.597  0.0294  0.1795 -0.1354
  557SOL    HW1 1670   1.309   2.151   1.572  1.7039  1.3122  1.9426
  557SOL    HW2 1671   1.153   2.116   1.514 -0.6926 -0.1815 -1.7926
  558SOL     OW 1672   2.947   1.205   2.394 -0.0887 -0.2184  0.1573
  558SOL    HW1 1673   2.866   1.145   2.401  0.0009  0.1527  1.8311
  558SOL    HW2 1674   3.032   1.146   2.396  1.1905 -0.5958 -0.9685
  559SOL     OW 1675   2.484   2.753   2.261  0.0034  0.2169 -0.2598
  559SOL    HW1 1676   2.529   2.673   2.214  1.6726  0.9434 -0.9812
  559SOL    HW2 1677   2.482   2.830   2.199 -0.4855  1.1512 -1.0926
  560SOL     OW 1678   0.409   0.014   2.647  0.7738  0.0140 -0.7247
  560SOL    HW1 1679   0.441   3.089   2.560 -1.7372  1.3690  1.4022
  560SOL    HW2 1680   0.485   0.065   2.699 -2.0238  1.1276  0.7084
  561SOL     OW 1681   1.319   0.447   0.578  0.3987  0.1584  0.1683
  561SOL    HW1 1682   1.252   0.522   0.594  1.8703  1.1423  0.9510
  561SOL    HW2 1683   1.334   0.439   0.479 -1.0368  2.1313  1.9496
  562SOL     OW 1684   0.963   1.515   1.959 -0.1096 -0.2883  0.0372
  562SOL    HW1 1685   0.936   1.470   2.040 -0.8845 -1.3544 -1.4930
  562SOL    HW2 1686   0.895   1.579   1.923  2.3648 -0.6452  0.9320
  563SOL     OW 1687   1.762   2.022   0.153 -0.6791 -0.1785 -0.2216
  563SOL    HW1 1688   1.818   2.050   0.075 -1.1916  0.4497  1.5901
  563SOL    HW2 1689   1.769   1.926   0.168  1.5015  2.1280  0.1098
  564SOL     OW 1690   3.019   2.269   0.469  0.4380  0.0294  0.4042
  564SOL    HW1 1691   2.977   2.185   0.427 -3.0160 -0.3943 -3.3089
  564SOL    HW2 1692   3.090   2.245   0.538 -2.0120  1.8467 -2.3322
  565SOL     OW 1693   0.590   2.918   2.964 -0.2340 -0.7353  0.6899
  565SOL    HW1 1694   0.496   2.938   2.926  1.3975  2.0071 -1.0028
  565SOL    HW2 1695   0.628   2.841   2.914 -2.8041 -1.0119  0.2748
  566SOL     OW 1696   1.445   2.653   2.935  0.1311  0.2298  0.6940
  566SOL    HW1 1697   1.489   2.624   3.023  1.9045 -0.8202  1.4267
  566SOL    HW2 1698   1.427   2.751   2.936  2.1653  1.7613  0.3629
  567SOL     OW 1699   2.489   1.866   1.314 -0.1779 -0.3879 -0.0793
  567SOL    HW1 1700   2.595   1.857   1.316  2.0800 -1.9793  3.0254
  567SOL    HW2 1701   2.450   1.957   1.281 -1.8508 -1.0407 -0.1487
  568SOL     OW 1702   1.839   0.921   2.754 -0.2350 -0.4431 -0.1778
  568SOL    HW1 1703   1.913   0.910   2.820 -1.8608 -2.1943 -3.8272
  568SOL    HW2 1704   1.800   0.831   2.728 -3.1788 -2.8707 -0.1110
  569SOL     OW 1705   2.214   1.971   2.101  0.0438  0.6218 -0.2402
  569SOL    HW1 1706   2.250   1.905   2.034  1.6972 -0.1929  2.9247
  569SOL    HW2 1707   2.283   2.038   2.141  0.5317  1.6548 -0.2896
  570SOL     OW 1708   2.839   2.714   1.795 -0.2383  0.3682 -0.2245
  570SOL    HW1 1709   2.894   2.782   1.839 -0.8287 -0.9414 -0.3743
  570SOL    HW2 1710   2.812   2.743   1.699 -3.6660  0.9979 -1.2593
  571SOL     OW 1711   0.140   0.793   1.265 -1.0173  0.7522 -0.0312
  571SOL    HW1 1712   0.221   0.834   1.302 -1.8304  1.5432 -1.7595
  571SOL    HW2 1713   0.105   0.720   1.328  0.4024  0.3871 -0.7898
  572SOL     OW 1714   0.292   1.397   0.764 -0.9572 -0.2105 -0.2713
  572SOL    HW1 1715   0.218   1.348   0.711  1.6337  0.0506  1.7999
  572SOL    HW2 1716   0.369   1.332   0.786 -0.4638 -0.9249  1.1600
  573SOL     OW 1717   0.941   0.926   0.275 -0.0753  0.0064  0.3754
  573SOL    HW1 1718   0.855   0.873   0.266 -0.4420  2.6817  0.4504
  573SOL    HW2 1719   0.974   0.920   0.376  2.9150 -0.8049  2.7781
  574SOL     OW 1720   0.233   0.262   0.295  0.3999 -0.2891  0.5357
  574SOL    HW1 1721   0.288   0.344   0.323 -0.8939  1.9968  0.5549
  574SOL    HW2 1722   0.239   0.195   0.370  1.3809  1.3335 -2.7508
  575SOL     OW 1723   0.930   2.171   0.987  0.1927  0.3328  0.0237
  575SOL    HW1 1724   0.964   2.244   0.925 -0.2183 -0.1877 -1.1810
  575SOL    HW2 1725   0.994   2.162   1.069  0.9443  2.1577  2.9125
  576SOL     OW 1726   2.909   0.114   1.581 -0.5324  0.1120  0.6869
  576SOL    HW1 1727   2.904   0.213   1.552  0.4318  0.7908  0.2993
  576SOL    HW2 1728   2.831   0.053   1.557  1.2194 -2.0103 -0.8616
  577SOL     OW 1729   2.613   2.211   2.076 -0.1109  0.1647  0.4227
  577SOL    HW1 1730   2.533   2.195   2.137  1.1106  2.0978  0.4284
  577SOL    HW2 1731   2.695   2.170   2.114 -0.6910  2.7128  1.3731
  578SOL     OW 1732   1.028   3.057   2.578 -0.2827  0.4850  0.3853
  578SOL    HW1 1733   1.127   3.045   2.546  1.6563 -0.5828 -2.4770
  578SOL    HW2 1734   1.015   3.042   2.676  0.8162  0.1770 -2.4746
  579SOL     OW 1735   1.953   2.033   2.114 -0.1774  0.1264 -0.4566
  579SOL    HW1 1736   2.056   2.011   2.112  0.8516  0.2386  0.6440
  579SOL    HW2 1737   1.896   1.990   2.039 -0.3953 -2.7404  0.0062
  580SOL     OW 1738   1.756   0.922   2.158 -0.2794 -0.5791 -0.0230
  580SOL    HW1 1739   1.844   0.898   2.196 -1.2069  0.3852  3.3279
  580SOL    HW2 1740   1.742   1.019   2.189  1.9409  2.0465 -0.9360
  581SOL     OW 1741   1.290   1.132   2.423 -0.3452  0.4383 -0.2171
  581SOL    HW1 1742   1.344   1.127   2.512 -0.4658  1.2306 -1.6843
  581SOL    HW2 1743   1.195   1.089   2.426 -0.8039 -2.6499 -0.9527
  582SOL     OW 1744   0.057   2.662   1.857  0.0841  0.5030  0.0180
  582SOL    HW1 1745   0.121   2.653   1.776 -0.0984  3.8929 -1.7095
  582SOL    HW2 1746   3.106   2.742   1.839 -0.9738 -2.5985  0.2282
  583SOL     OW 1747   1.723   1.127   1.269 -0.2600 -0.4150  0.3814
  583SOL    HW1 1748   1.776   1.090   1.189  0.5135 -0.0029 -1.3004
  583SOL    HW2 1749   1.661   1.191   1.224  1.0329 -2.2162  2.2824
  584SOL     OW 1750   1.008   2.031   2.580 -1.0628  0.5701 -0.0229
  584SOL    HW1 1751   1.105   2.059   2.590  2.0819  2.9153 -0.8369
  584SOL    HW2 1752   0.973   2.049   2.490 -1.0965 -0.1187  0.1773
  585SOL     OW 1753   0.122   2.439   0.403 -0.1198  0.2042  0.3312
  585SOL    HW1 1754   0.118   2.449   0.305 -1.5111 -2.1047 -1.2618
  585SOL    HW2 1755   0.045   2.380   0.433  0.0079  0.2813 -1.5066
  586SOL     OW 1756   2.109   1.451   0.364 -0.2533 -0.3983 -0.5445
  586SOL    HW1 1757   2.019   1.496   0.334  0.0461 -1.6153  0.6478
  586SOL    HW2 1758   2.092   1.363   0.416  0.0137 -1.7832 -1.3713
  587SOL     OW 1759   2.927   2.038   0.366 -0.2230  0.1696  0.0076
  587SOL    HW1 1760   3.001   1.966   0.379 -1.4327  1.6229  0.7802
  587SOL    HW2 1761   2.837   2.003   0.390 -0.6631  2.4066  0.8914
  588SOL     OW 1762   2.433   0.314   0.946 -0.1113  0.0722  0.1048
  588SOL    HW1 1763   2.518   0.330   1.000 -0.7884  0.5667  0.0744
  588SOL    HW2 1764   2.380   0.244   0.994  0.4822 -1.5523 -0.9949
  589SOL     OW 1765   0.930   0.787   0.928  0.1501 -0.3816  0.0011
  589SOL    HW1 1766   1.027   0.792   0.944 -1.9723 -3.2730 -0.2542
  589SOL    HW2 1767   0.885   0.711   0.985  1.4389 -1.1125 -1.7710
  590SOL     OW 1768   2.393   2.431   0.134  0.5117  0.1362 -0.2341
  590SOL    HW1 1769   2.306   2.383   0.159  0.4275 -1.2419  2.9891
  590SOL    HW2 1770   2.469   2.387   0.185  2.5883 -2.3843 -1.1011
  591SOL     OW 1771   0.622   2.466   1.789 -0.1500  0.1541 -0.0918
  591SOL    HW1 1772   0.672   2.382   1.820 -1.0226  0.0195  2.1112
  591SOL    HW2 1773   0.536   2.441   1.741  2.0548  1.1627 -1.0223
  592SOL     OW 1774   0.865   1.347   1.574  0.0127 -0.2662 -0.0096
  592SOL    HW1 1775   0.924   1.358   1.656 -1.1766  1.7664  1.8206
  592SOL    HW2 1776   0.922   1.303   1.502  0.7326  2.6230  0.8280
  593SOL     OW 1777   1.193   1.919   1.257 -0.5582 -0.0116  0.1044
  593SOL    HW1 1778   1.270   1.857   1.278  1.6256  1.9051  1.7003
  593SOL    HW2 1779   1.106   1.910   1.305 -0.0444 -0.2545  0.3158
  594SOL     OW 1780   0.892   1.135   2.693 -0.0114 -0.4843  0.4659
  594SOL    HW1 1781   0.849   1.050   2.665  1.1413  0.3880  0.2526
  594SOL    HW2 1782   0.834   1.183   2.760  2.5770 -1.3094  1.2149
  595SOL     OW 1783   1.531   0.277   1.078 -0.1782 -0.0434  0.8758
  595SOL    HW1 1784   1.573   0.329   1.151 -0.8413 -0.2522 -0.1056
  595SOL    HW2 1785   1.489   0.338   1.000 -0.8904 -2.1493 -4.0587
  596SOL     OW 1786   0.303   1.050   1.051  0.2843  0.1312  0.0703
  596SOL    HW1 1787   0.396   1.058   1.009 -2.2248 -1.1511  1.5510
  596SOL    HW2 1788   0.239   1.007   0.985  1.9592  0.4435 -2.0781
  597SOL     OW 1789   0.078   2.187   2.805  0.1153  0.1247  0.2329
  597SOL    HW1 1790   3.090   2.188   2.767 -0.7157  0.7262 -1.4569
  597SOL    HW2 1791   0.076   2.176   2.907 -0.6401 -1.8961  1.0761
  598SOL     OW 1792   2.039   2.076   2.679 -0.4668 -0.4128 -0.0281
  598SOL    HW1 1793   2.016   2.159   2.628 -0.1686 -0.6897 -0.1905
  598SOL    HW2 1794   2.138   2.067   2.685  0.6598 -1.4539 -2.6677
  599SOL     OW 1795   1.833   0.546   0.263  0.5431 -0.3554 -0.7505
  599SOL    HW1 1796   1.776   0.462   0.288  0.7654 -0.3251 -1.5456
  599SOL    HW2 1797   1.845   0.611   0.345 -0.0068  2.0896  1.0381
  600SOL     OW 1798   1.058   0.268   0.409  0.2361 -0.0213 -0.1466
  600SOL    HW1 1799   1.149   0.227   0.428  2.1345 -0.2704  1.8141
  600SOL    HW2 1800   1.054   0.326   0.319  1.1533  2.9135  0.2105
  601SOL     OW 1801   0.386   0.264   1.617 -0.3717  0.0533 -0.1463
  601SOL    HW1 1802   0.388   0.316   1.704  2.3227 -0.1176 -2.1490
  601SOL    HW2 1803   0.480   0.244   1.585 -0.1843  0.1046 -2.2122
  602SOL     OW 1804   3.030   0.020   0.700 -0.1786  0.1383 -0.2584
  602SOL    HW1 1805   3.017   0.119   0.701  0.9071 -2.2732 -0.8372
  602SOL    HW2 1806   2.953   3.080   0.655 -1.0964 -0.6872 -0.0006
  603SOL     OW 1807   0.710   2.687   2.511  0.3127 -0.5014 -0.5940
  603SOL    HW1 1808   0.778   2.668   2.437 -1.8229  2.1193 -0.7219
  603SOL    HW2 1809   0.625   2.636   2.501  0.7853  1.9541  4.2113
  604SOL     OW 1810   1.100   2.585   3.055 -0.4195 -0.2598  0.4849
  604SOL    HW1 1811   1.096   2.541   0.036 -0.3100  0.1978  0.3776
  604SOL    HW2 1812   1.168   2.543   2.993 -0.3801 -3.1330 -1.5870
  605SOL     OW 1813   1.237   0.916   1.635  0.0668 -0.0165  0.3649
  605SOL    HW1 1814   1.290   0.839   1.672 -0.8995  3.2491 -0.5369
  605SOL    HW2 1815   1.239   0.997   1.701  1.9413  0.6869 -0.2516
  606SOL     OW 1816   1.164   0.210   2.742 -0.2523  0.3335 -0.5798
  606SOL    HW1 1817   1.076   0.221   2.795 -1.2795  0.5623  0.7434
  606SOL    HW2 1818   1.197   0.302   2.715 -0.6781 -3.0689  0.1972
  607SOL     OW 1819   0.285   1.172   1.274 -0.4870  0.0570 -0.3847
  607SOL    HW1 1820   0.379   1.185   1.309  0.7070 -0.7558  1.5662
  607SOL    HW2 1821   0.275   1.122   1.186 -0.9757 -0.4637  2.0672
  608SOL     OW 1822   2.785   2.094   2.358 -1.0311 -0.1854 -0.0707
  608SOL    HW1 1823   2.785   2.150   2.270  1.7726 -0.2479 -2.3840
  608SOL    HW2 1824   2.882   2.064   2.377  1.4285 -1.4915  1.6660
  609SOL     OW 1825   2.151   0.287   3.100 -0.2792 -0.4657 -0.5405
  609SOL    HW1 1826   2.221   0.214   0.003  0.9694 -1.1135 -2.0797
  609SOL    HW2 1827   2.132   0.338   0.079 -2.4129 -1.3566 -0.6232
  610SOL     OW 1828   0.793   2.757   1.223  0.4048  0.3664  0.5104
  610SOL    HW1 1829   0.796   2.857   1.191 -2.5932  0.0624  0.8557
  610SOL    HW2 1830   0.887   2.720   1.229 -1.0107 -2.5831  1.0694
  611SOL     OW 1831   0.768   1.327   0.623 -1.0700 -0.0586 -0.3741
  611SOL    HW1 1832   0.676   1.373   0.617 -0.5206  1.0773  1.1364
  611SOL    HW2 1833   0.798   1.286   0.534  0.7893 -0.5997  0.0818
  612SOL     OW 1834   0.921   0.140   2.222 -0.4347  0.1110 -0.2116
  612SOL    HW1 1835   0.930   0.154   2.324 -0.0064 -0.1004 -1.9804
  612SOL    HW2 1836   0.956   0.221   2.172  1.9050  1.2616 -0.1999
  613SOL     OW 1837   2.482   1.348   0.477  0.5913  0.1276  0.2991
  613SOL    HW1 1838   2.461   1.342   0.376 -1.7006 -0.1497  1.3073
  613SOL    HW2 1839   2.410   1.406   0.520 -1.9508 -0.9232  0.1159
  614SOL     OW 1840   1.694   0.500   1.723 -0.0913 -0.0654  0.2338
  614SOL    HW1 1841   1.625   0.533   1.790  0.9018  0.2580  0.0832
  614SOL    HW2 1842   1.780   0.551   1.730 -4.2497 -2.4904 -0.0780
  615SOL     OW 1843   0.782   1.931   0.935  0.1362 -0.0835 -0.4402
  615SOL    HW1 1844   0.830   1.861   0.987 -0.7110  1.2239  0.7320
  615SOL    HW2 1845   0.837   2.017   0.950 -1.4706 -1.6751 -1.9675
  616SOL     OW 1846   1.490   1.146   2.639  0.3392 -0.8551 -0.0034
  616SOL    HW1 1847   1.582   1.129   2.601 -2.4136 -0.2062  0.2725
  616SOL    HW2 1848   1.449   1.064   2.684  0.3036  1.2349  1.9793
  617SOL     OW 1849   1.906   2.552   0.542  0.6400 -0.2395 -0.0626
  617SOL    HW1 1850   1.904   2.634   0.476 -1.3222  0.2165 -1.7242
  617SOL    HW2 1851   2.003   2.521   0.554 -0.5466  2.8514 -0.7901
  618SOL     OW 1852   0.753   1.119   3.039 -0.2617 -0.7313 -0.3811
  618SOL    HW1 1853   0.776   1.195   2.971  0.8380 -2.0691  0.8443
  618SOL    HW2 1854   0.828   1.050   3.023  0.3270  1.2829  0.1938
  619SOL     OW 1855   2.724   1.560   0.539 -0.1412  0.1457  0.1664
  619SOL    HW1 1856   2.738   1.540   0.441 -2.3276  2.4027  3.7582
  619SOL    HW2 1857   2.699   1.475   0.588 -2.2093 -0.9407  0.7972
  620SOL     OW 1858   2.444   2.855   3.008 -0.6789  0.3555 -0.4340
  620SOL    HW1 1859   2.491   2.789   3.074  1.2984  0.4198  2.0236
  620SOL    HW2 1860   2.455   2.848   2.908 -3.0461 -0.3631  1.8428
  621SOL     OW 1861   2.079   1.164   0.166  0.5426  0.1492 -0.1069
  621SOL    HW1 1862   2.126   1.092   0.216  0.3446 -0.1451 -2.5906
  621SOL    HW2 1863   2.002   1.204   0.219 -1.2938 -0.9517  0.6128
  622SOL     OW 1864   1.111   2.301   2.359  0.1533 -0.1550 -0.8429
  622SOL    HW1 1865   1.051   2.315   2.444 -1.3681  1.2706  0.2037
  622SOL    HW2 1866   1.114   2.199   2.346  2.6495 -1.4894  1.8860
  623SOL     OW 1867   0.570   1.769   0.022 -0.3108 -0.6537  0.6174
  623SOL    HW1 1868   0.609   1.798   3.041  1.4131  1.5021 -3.3934
  623SOL    HW2 1869   0.470   1.756   0.002 -2.9348 -0.1531 -1.6738
  624SOL     OW 1870   0.350   2.965   2.860 -0.1216  0.4781 -0.3898
  624SOL    HW1 1871   0.344   3.004   2.770  0.8814 -2.1671  3.6969
  624SOL    HW2 1872   0.287   2.881   2.869 -3.1021 -2.9279 -0.3001
  625SOL     OW 1873   0.630   1.989   0.184 -0.0028 -0.1736 -0.1529
  625SOL    HW1 1874   0.647   2.072   0.126 -1.7587  0.1662 -1.7226
  625SOL    HW2 1875   0.590   1.916   0.125  1.2733  1.1759 -0.9359
  626SOL     OW 1876   2.584   0.428   0.011  0.5180 -0.2173 -0.1698
  626SOL    HW1 1877   2.613   0.332   3.107  1.4241 -1.9874  3.2526
  626SOL    HW2 1878   2.581   0.440   0.115  0.9938 -1.6723 -0.0732
  627SOL     OW 1879   1.351   0.990   2.817  0.2805 -0.3503 -0.2990
  627SOL    HW1 1880   1.275   1.057   2.796  1.7915 -1.6128 -1.3053
  627SOL    HW2 1881   1.386   0.994   2.915  1.3749  1.4866 -1.8734
  628SOL     OW 1882   0.924   0.789   2.397  0.5004  0.2187 -0.6573
  628SOL    HW1 1883   0.873   0.729   2.329  0.3028 -2.3087 -2.9741
  628SOL    HW2 1884   1.021   0.801   2.368  0.5336 -0.0949 -0.5251
  629SOL     OW 1885   0.571   3.002   2.086  0.0887  0.4041  0.0602
  629SOL    HW1 1886   0.559   2.905   2.118  2.4705  0.3719  1.2392
  629SOL    HW2 1887   0.669   3.018   2.067 -1.1570 -1.8141  0.4439
  630SOL     OW 1888   2.484   0.981   1.752 -0.0823 -0.7391 -0.1234
  630SOL    HW1 1889   2.463   1.062   1.812 -0.0960  2.1823  0.3789
  630SOL    HW2 1890   2.395   0.935   1.720  0.3241 -1.5394 -1.2564
  631SOL     OW 1891   2.370   1.126   0.296  1.0681  0.1716 -0.3206
  631SOL    HW1 1892   2.296   1.056   0.299  1.7634 -1.5147  1.1444
  631SOL    HW2 1893   2.414   1.138   0.385  0.5610  0.0881 -1.1992
  632SOL     OW 1894   2.329   0.555   1.822  0.5336  0.1752  0.3750
  632SOL    HW1 1895   2.396   0.489   1.862  0.3606 -1.3081  0.5098
  632SOL    HW2 1896   2.298   0.515   1.734 -1.0436  1.0552  0.9308
  633SOL     OW 1897   0.833   0.015   0.295 -0.2268 -0.1764  0.0392
  633SOL    HW1 1898   0.733   0.016   0.277  1.3208  0.8250 -0.2283
  633SOL    HW2 1899   0.848   3.076   0.383  0.7056 -2.3323  0.5324
  634SOL     OW 1900   1.516   3.027   0.038  0.6210 -0.1599  0.0516
  634SOL    HW1 1901   1.511   0.013   0.011  0.4271  0.3470 -0.6407
  634SOL    HW2 1902   1.605   3.005   0.076 -2.7585  0.4357  0.9964
  635SOL     OW 1903   2.859   0.524   0.284  0.0522  0.2611  0.0397
  635SOL    HW1 1904   2.888   0.620   0.295  0.9416  1.3011  1.5070
  635SOL    HW2 1905   2.759   0.513   0.275  3.0747 -0.6416 -4.3233
  636SOL     OW 1906   0.618   1.678   0.918 -0.0779 -0.4233 -0.1171
  636SOL    HW1 1907   0.682   1.756   0.904  0.5090 -2.1858  1.4486
  636SOL    HW2 1908   0.671   1.595   0.925  0.1396  1.8384 -0.5448
  637SOL     OW 1909   0.273   2.880   0.506  0.8455  0.3114 -0.0256
  637SOL    HW1 1910   0.371   2.895   0.485 -0.4060 -1.2590 -1.0308
  637SOL    HW2 1911   0.258   2.789   0.555  0.5191 -1.2728  1.0508
  638SOL     OW 1912   3.069   2.787   0.425 -0.3275 -0.4024  0.0806
  638SOL    HW1 1913   3.067   2.805   0.320  1.7502 -0.5493 -2.0539
  638SOL    HW2 1914   0.058   2.799   0.456  0.4060  0.6366 -2.0356
  639SOL     OW 1915   1.123   1.525   0.280 -0.2581 -0.1560  0.0299
  639SOL    HW1 1916   1.192   1.453   0.284 -0.8246  0.6993 -1.9107
  639SOL    HW2 1917   1.170   1.611   0.252 -0.7167 -1.0278 -0.1846
  640SOL     OW 1918   1.393   2.226   0.964  0.7884  0.3432 -0.2401
  640SOL    HW1 1919   1.404   2.326   0.985  0.4476 -4.2794  1.0583
  640SOL    HW2 1920   1.361   2.228   0.864 -3.1525 -0.4002 -3.5050
  641SOL     OW 1921   2.832   2.781   0.846 -0.8435  0.2852  0.1165
  641SOL    HW1 1922   2.759   2.713   0.874 -1.6338  2.9402  2.2043
  641SOL    HW2 1923   2.845   2.833   0.931 -0.9374  0.7852 -2.4770
  642SOL     OW 1924   1.093   2.872   1.726 -0.0278 -0.5283  0.0821
  642SOL    HW1 1925   1.017   2.853   1.788  0.4798  0.3791  2.2383
  642SOL    HW2 1926   1.151   2.946   1.772  0.2187  0.2133  4.5082
  643SOL     OW 1927   0.847   2.178   2.156  0.2966 -0.0605  0.5888
  643SOL    HW1 1928   0.786   2.095   2.154 -0.5973  0.5340  1.9821
  643SOL    HW2 1929   0.930   2.170   2.096 -1.7626  0.0594 -2.7752
  644SOL     OW 1930   0.846   2.986   0.552  0.0838 -0.1125  0.0869
  644SOL    HW1 1931   0.912   2.997   0.632  0.6268 -0.9869  0.9269
  644SOL    HW2 1932   0.752   2.988   0.593 -2.7604 -0.5500  2.8275
  645SOL     OW 1933   1.311   1.574   2.192 -0.5248 -0.2225 -0.2276
  645SOL    HW1 1934   1.276   1.613   2.102 -2.0281 -0.1390  0.4010
  645SOL    HW2 1935   1.245   1.593   2.269  2.3279 -2.9049 -0.1109
  646SOL     OW 1936   0.693   1.039   0.517 -0.0499 -0.3185 -0.3144
  646SOL    HW1 1937   0.755   0.975   0.567  1.7892  0.5202 -2.9407
  646SOL    HW2 1938   0.744   1.084   0.441  1.8823 -0.5029 -0.2481
  647SOL     OW 1939   1.375   3.105   0.828 -0.2427 -0.0756  0.2498
  647SOL    HW1 1940   1.330   0.026   0.917 -0.1863  0.2045  0.9005
  647SOL    HW2 1941   1.463   3.053   0.851 -1.5566  0.8104  0.9767
  648SOL     OW 1942   2.641   2.608   1.381  0.0146  0.3618  0.0319
  648SOL    HW1 1943   2.639   2.676   1.455  0.4808  0.7078  0.4343
  648SOL    HW2 1944   2.548   2.570   1.361 -1.3776 -1.9626  1.3071
  649SOL     OW 1945   0.669   2.205   0.040  0.3192 -0.4089 -0.3536
  649SOL    HW1 1946   0.575   2.248   0.032  1.3409  1.1866 -2.1034
  649SOL    HW2 1947   0.726   2.213   3.065  2.2428  0.7729  1.7257
  650SOL     OW 1948   2.991   2.008   1.507  0.6849  0.5037 -0.4031
  650SOL    HW1 1949   3.010   2.095   1.457  0.6597 -0.8019 -0.3412
  650SOL    HW2 1950   2.891   1.989   1.531 -2.5100 -1.4391 -1.2818
  651SOL     OW 1951   0.027   3.036   2.976 -0.0719  0.0197  0.1564
  651SOL    HW1 1952   3.040   2.997   2.963 -0.2053 -1.5767  0.6504
  651SOL    HW2 1953   0.014   0.028   3.003  1.4110  0.7824 -3.3333
  652SOL     OW 1954   2.336   2.020   0.090 -0.2345 -0.1314 -0.1413
  652SOL    HW1 1955   2.284   2.073   0.023  0.2921 -0.5359  1.1400
  652SOL    HW2 1956   2.299   2.033   0.184 -0.5363 -1.4035 -2.6541
  653SOL     OW 1957   0.275   0.247   1.062 -0.0397  0.0825  0.5675
  653SOL    HW1 1958   0.376   0.255   1.047 -0.4236 -0.7927 -1.9297
  653SOL    HW2 1959   0.257   0.169   1.132  2.4554 -1.8020  3.7078
  654SOL     OW 1960   1.279   2.999   0.199  0.3472 -0.0713  0.6647
  654SOL    HW1 1961   1.306   2.941   0.275  0.2849  2.4433  1.5757
  654SOL    HW2 1962   1.355   3.023   0.132  0.4027 -0.6267  1.5876
  655SOL     OW 1963   0.683   2.602   1.018 -0.4991  0.4766 -0.2355
  655SOL    HW1 1964   0.697   2.502   1.007 -0.7379  1.5426 -2.4954
  655SOL    HW2 1965   0.728   2.639   1.097 -1.0837  0.7029 -0.3960
  656SOL     OW 1966   0.536   2.708   2.121 -0.4374 -0.0973  0.2310
  656SOL    HW1 1967   0.512   2.723   2.024  0.7394  1.1185  1.3558
  656SOL    HW2 1968   0.635   2.683   2.120 -0.7220  1.6322  1.3440
  657SOL     OW 1969   1.662   0.803   2.540  0.1203 -0.0639  0.4329
  657SOL    HW1 1970   1.623   0.769   2.452 -3.3225  1.2055 -0.8973
  657SOL    HW2 1971   1.745   0.753   2.563 -2.8582  4.0088 -0.5370
  658SOL     OW 1972   2.436   1.793   1.056  0.0574  0.6241 -0.7793
  658SOL    HW1 1973   2.466   1.824   1.151  0.4531  0.1945  3.0020
  658SOL    HW2 1974   2.434   1.692   1.046 -0.3992  2.9713  2.3642
  659SOL     OW 1975   2.875   2.714   0.067  0.0644 -0.3394 -0.2715
  659SOL    HW1 1976   2.953   2.770   0.100 -1.0085  0.5847 -2.2626
  659SOL    HW2 1977   2.788   2.757   0.101 -1.4183  1.8803 -0.7440
  660SOL     OW 1978   1.217   0.741   0.009 -0.4009 -0.5164 -0.6942
  660SOL    HW1 1979   1.311   0.735   3.077 -0.7816 -0.5227 -0.2032
  660SOL    HW2 1980   1.213   0.818   0.079 -0.6626 -0.3370  2.4452
  661SOL     OW 1981   2.460   2.707   0.927  0.5970 -0.2097 -0.4562
  661SOL    HW1 1982   2.456   2.747   0.830 -0.1435  0.2080 -0.3565
  661SOL    HW2 1983   2.530   2.634   0.939  0.3260  0.8735  0.7277
  662SOL     OW 1984   0.694   0.462   0.415  0.3506  1.1445  0.5750
  662SOL    HW1 1985   0.727   0.374   0.455  1.2219 -0.7846 -1.4780
  662SOL    HW2 1986   0.591   0.469   0.403  0.6097 -0.8519 -0.5142
  663SOL     OW 1987   1.318   2.349   2.549 -0.0204 -0.6024 -0.2460
  663SOL    HW1 1988   1.387   2.418   2.526  1.9421 -1.8851  2.0616
  663SOL    HW2 1989   1.251   2.339   2.477 -0.7876 -1.0762 -0.3257
  664SOL     OW 1990   0.733   2.270   1.271  0.5048  0.3734  0.8022
  664SOL    HW1 1991   0.808   2.333   1.307  3.5158  0.6083  0.8108
  664SOL    HW2 1992   0.729   2.281   1.167  3.1451  0.6720  0.6565
  665SOL     OW 1993   1.555   1.841   1.594 -0.7666  0.1662 -0.1988
  665SOL    HW1 1994   1.538   1.894   1.679  0.1476  0.9462 -0.1988
  665SOL    HW2 1995   1.472   1.782   1.576 -1.5534  0.0643 -0.3100
  666SOL     OW 1996   0.425   2.326   0.057 -0.2017  0.6208  0.1213
  666SOL    HW1 1997   0.368   2.345   3.084 -2.5568 -0.7575 -1.8666
  666SOL    HW2 1998   0.367   2.279   0.128  1.2919 -0.6203 -4.1568
  667SOL     OW 1999   1.907   1.459   1.213 -0.7120  0.0042 -0.3102
  667SOL    HW1 2000   1.975   1.516   1.263 -1.4965  0.1129 -1.2199
  667SOL    HW2 2001   1.816   1.446   1.255  1.3357 -0.6112  1.9743
  668SOL     OW 2002   0.402   0.258   2.163 -0.3839 -0.1344  0.1099
  668SOL    HW1 2003   0.471   0.289   2.230 -0.6477 -1.7214 -1.7791
  668SOL    HW2 2004   0.442   0.247   2.075 -2.9680  3.1073  1.3784
  669SOL     OW 2005   2.066   2.419   2.268  0.2557 -0.0625 -0.0238
  669SOL    HW1 2006   1.992   2.361   2.233  1.2858  2.6496 -0.5755
  669SOL    HW2 2007   2.034   2.495   2.328  2.2763  2.3912 -0.1187
  670SOL     OW 2008   2.236   2.070   0.325 -0.3164 -0.2294 -0.3780
  670SOL    HW1 2009   2.179   1.997   0.359  2.7542  0.4418  1.4619
  670SOL    HW2 2010   2.307   2.079   0.400  0.9410  0.2390 -0.9158
  671SOL     OW 2011   0.992   1.137   1.444  0.2867  0.4298  0.0267
  671SOL    HW1 2012   0.979   1.113   1.344  0.6367  0.8051 -0.7055
  671SOL    HW2 2013   0.988   1.057   1.508 -2.9821  2.6934 -3.0379
  672SOL     OW 2014   2.625   1.568   2.081 -0.1427  0.0530 -0.5342
  672SOL    HW1 2015   2.680   1.602   2.164 -0.1408  1.2811  1.1013
  672SOL    HW2 2016   2.567   1.488   2.113  0.9401  0.4193 -0.3251
  673SOL     OW 2017   2.814   1.629   2.279  0.0673 -0.4339  0.3136
  673SOL    HW1 2018   2.806   1.700   2.357 -0.6067 -0.2917  2.4064
  673SOL    HW2 2019   2.885   1.562   2.306 -0.1288 -1.8867 -1.9316
  674SOL     OW 2020   0.919   2.719   2.291  0.8628  0.7186  0.2330
  674SOL    HW1 2021   0.926   2.822   2.278  0.1794  0.5329  2.0669
  674SOL    HW2 2022   0.983   2.684   2.364 -2.4883 -0.9837 -0.6423
  675SOL     OW 2023   0.743   0.922   1.626 -0.2511 -0.4536  0.4931
  675SOL    HW1 2024   0.837   0.923   1.575  2.2177 -0.9135  0.0437
  675SOL    HW2 2025   0.758   0.907   1.724 -1.7943  1.7326 -0.4375
  676SOL     OW 2026   1.906   0.659   0.510 -0.1883 -0.4918  0.8448
  676SOL    HW1 2027   1.854   0.601   0.567 -0.2345  1.5613 -1.7680
  676SOL    HW2 2028   1.991   0.698   0.548 -0.9054  0.9526 -1.5552
  677SOL     OW 2029   2.858   1.805   2.875 -0.1002  0.3705 -0.4077
  677SOL    HW1 2030   2.803   1.725   2.911  0.3950 -4.2258 -0.1376
  677SOL    HW2 2031   2.959   1.791   2.885  0.5849  0.4100  0.1465
  678SOL     OW 2032   3.084   0.116   1.015  0.6388 -0.2450  0.2029
  678SOL    HW1 2033   3.062   0.156   1.105 -0.6627 -0.9927  2.4354
  678SOL    HW2 2034   0.075   0.098   1.007  0.1025 -1.0904  0.1043
  679SOL     OW 2035   2.116   0.061   0.298 -0.0605  0.1170  0.6501
  679SOL    HW1 2036   2.193   0.053   0.232 -0.1588 -0.3952 -0.9491
  679SOL    HW2 2037   2.077   0.155   0.304 -0.1319  0.4028  0.5547
  680SOL     OW 2038   0.378   2.064   2.230  0.2817  0.3436 -0.4175
  680SOL    HW1 2039   0.370   1.966   2.200  0.7839  0.3186 -0.0343
  680SOL    HW2 2040   0.414   2.116   2.149 -1.8021  0.2272 -0.5503
  681SOL     OW 2041   0.097   1.575   1.223  0.1047 -0.3968  0.5727
  681SOL    HW1 2042   0.143   1.604   1.133  0.7147 -0.4586 -2.8194
  681SOL    HW2 2043   0.171   1.543   1.290  2.6600  1.2408  3.0950
  682SOL     OW 2044   0.388   2.363   1.630  0.1380  0.0679 -0.5619
  682SOL    HW1 2045   0.373   2.269   1.662  0.8459  2.0826  2.6670
  682SOL    HW2 2046   0.386   2.367   1.530  1.0470  1.0461 -2.6063
  683SOL     OW 2047   0.033   1.974   1.735 -0.3981  0.3658  0.2244
  683SOL    HW1 2048   3.074   1.986   1.658 -0.9115  2.2237  1.6424
  683SOL    HW2 2049   0.064   1.873   1.745 -0.6968  0.5788 -1.2871
  684SOL     OW 2050   2.490   1.659   2.789  0.3189  0.1638 -0.2302
  684SOL    HW1 2051   2.482   1.621   2.881 -2.0380 -0.9201 -0.3681
  684SOL    HW2 2052   2.550   1.602   2.730  1.4015 -1.8747 -0.0696
  685SOL     OW 2053   1.532   0.993   0.301  0.0916  0.4260  0.5741
  685SOL    HW1 2054   1.561   0.958   0.389 -1.2870  0.3945  1.9583
  685SOL    HW2 2055   1.557   1.090   0.292  0.0678  0.3092 -2.2986
  686SOL     OW 2056   0.340   0.079   0.718  0.1098 -0.5452 -0.0887
  686SOL    HW1 2057   0.391   0.025   0.788  1.0113  1.6827  0.7791
  686SOL    HW2 2058   0.273   0.139   0.763  1.1273 -1.3120  2.3644
  687SOL     OW 2059   1.017   1.359   2.564 -0.1722 -0.0325 -0.4287
  687SOL    HW1 2060   1.086   1.391   2.634  1.0316  2.1930  0.8468
  687SOL    HW2 2061   0.950   1.300   2.604  2.5989  2.0918 -0.6127
  688SOL     OW 2062   1.307   1.703   1.543  0.2907  0.1526 -0.3138
  688SOL    HW1 2063   1.334   1.697   1.445 -2.2755  0.4843 -0.9166
  688SOL    HW2 2064   1.206   1.712   1.560 -0.1233  0.7522 -2.4413
  689SOL     OW 2065   2.267   0.391   1.266 -0.2909  0.0429  0.2571
  689SOL    HW1 2066   2.288   0.298   1.237 -0.9919 -1.2500  3.6285
  689SOL    HW2 2067   2.165   0.415   1.266 -2.7879  0.5145  2.8599
  690SOL     OW 2068   2.940   1.351   1.032 -0.0952  0.0546  0.1805
  690SOL    HW1 2069   3.014   1.328   1.099 -1.1072  1.6739  0.9321
  690SOL    HW2 2070   2.938   1.298   0.944  1.2350 -1.0922 -1.9710
  691SOL     OW 2071   0.438   2.290   1.050 -0.4062  0.0109 -0.4144
  691SOL    HW1 2072   0.534   2.295   1.012  1.0690  1.4885 -1.8975
  691SOL    HW2 2073   0.423   2.214   1.120 -0.1487  0.9316  0.5215
  692SOL     OW 2074   2.250   0.436   1.552  0.4922  0.4194 -0.0231
  692SOL    HW1 2075   2.267   0.412   1.454  0.8384 -0.1717 -0.3977
  692SOL    HW2 2076   2.164   0.384   1.580 -2.7736 -2.1353 -1.4201
  693SOL     OW 2077   0.159   1.690   2.216  0.3148 -0.5089 -0.1748
  693SOL    HW1 2078   0.123   1.639   2.299  1.4582 -0.8119  0.8617
  693SOL    HW2 2079   0.113   1.780   2.201 -0.4953 -0.9476 -0.5091
  694SOL     OW 2080   1.847   1.451   1.634 -0.5399 -0.0573 -0.3965
  694SOL    HW1 2081   1.839   1.361   1.588 -0.0109  1.3500  1.6209
  694SOL    HW2 2082   1.940   1.465   1.680  1.2793 -2.7769  0.7511
  695SOL     OW 2083   0.562   0.848   1.271 -0.3679 -0.1380 -0.2577
  695SOL    HW1 2084   0.585   0.945   1.265 -2.3606 -2.1364 -1.0882
  695SOL    HW2 2085   0.633   0.801   1.332  2.3499 -0.7258  1.0136
  696SOL     OW 2086   1.643   3.040   0.846  0.0546 -0.1891  0.2895
  696SOL    HW1 2087   1.663   3.109   0.921 -0.2802 -0.4228 -0.3394
  696SOL    HW2 2088   1.731   2.995   0.818  0.4674  1.6306  0.7367
  697SOL     OW 2089   0.985   0.372   1.300  0.1637 -0.1108 -0.0787
  697SOL    HW1 2090   1.023   0.358   1.394  2.1851 -0.1261 -0.7887
  697SOL    HW2 2091   1.020   0.305   1.232  1.0635  1.8410  0.4412
  698SOL     OW 2092   1.468   1.091   2.214  0.4311  0.2476  0.4006
  698SOL    HW1 2093   1.395   1.120   2.280 -0.6645 -1.7249 -2.1173
  698SOL    HW2 2094   1.560   1.098   2.250 -3.1962 -0.4583 -1.1336
  699SOL     OW 2095   1.793   0.683   1.350 -0.3253  0.5078  0.3215
  699SOL    HW1 2096   1.791   0.691   1.248 -0.9767 -1.6224  3.0058
  699SOL    HW2 2097   1.885   0.717   1.383 -0.3751  0.5936  0.5060
  700SOL     OW 2098   1.085   2.545   0.242  0.0256 -0.5394 -0.2163
  700SOL    HW1 2099   1.032   2.603   0.300  0.4923 -2.5795 -1.3644
  700SOL    HW2 2100   1.032   2.462   0.215 -1.1871 -2.3480  0.5157
  701SOL     OW 2101   2.350   2.431   2.872 -0.6795 -0.6863 -0.3681
  701SOL    HW1 2102   2.261   2.478   2.860  1.0128 -0.8390 -2.8014
  701SOL    HW2 2103   2.365   2.397   2.971  0.2422 -0.7689  2.9511
  702SOL     OW 2104   0.578   0.248   1.019  0.0033 -0.0442  0.1011
  702SOL    HW1 2105   0.634   0.311   1.076 -1.3577  0.2529 -0.4776
  702SOL    HW2 2106   0.602   0.253   0.920 -0.5938  0.1554 -0.1773
  703SOL     OW 2107   2.526   0.139   2.450  0.2720 -0.1955 -0.0677
  703SOL    HW1 2108   2.529   0.078   2.367 -2.9065 -2.1840  2.6072
  703SOL    HW2 2109   2.463   0.215   2.437  1.0549  1.3330 -1.9589
  704SOL     OW 2110   2.891   2.540   0.507  0.0382  0.2911 -0.6454
  704SOL    HW1 2111   2.972   2.598   0.533 -0.1215 -0.2904 -2.6688
  704SOL    HW2 2112   2.913   2.442   0.488 -0.3214  0.0307  1.7059
  705SOL     OW 2113   2.887   2.817   2.154  0.5807  0.4694 -0.4296
  705SOL    HW1 2114   2.859   2.724   2.196 -2.8097 -2.0891  3.0223
  705SOL    HW2 2115   2.845   2.881   2.219 -1.7517  0.5685 -1.6106
  706SOL     OW 2116   2.092   2.868   1.354 -0.3097 -0.3181  0.2998
  706SOL    HW1 2117   2.002   2.863   1.315  1.1201  0.3553  1.4406
  706SOL    HW2 2118   2.122   2.782   1.403  1.2191 -1.3683  1.0326
  707SOL     OW 2119   0.798   2.636   2.070 -0.0339 -0.1771  0.1737
  707SOL    HW1 2120   0.863   2.581   2.014  1.7009 -3.6461 -1.5403
  707SOL    HW2 2121   0.833   2.650   2.165 -0.8553 -0.4993 -0.5173
  708SOL     OW 2122   0.051   2.400   1.774  0.5757 -0.0991 -0.3850
  708SOL    HW1 2123   0.028   2.493   1.805 -0.3180  3.3274  0.3521
  708SOL    HW2 2124   0.133   2.371   1.823 -0.3119  3.2760 -0.2980
  709SOL     OW 2125   1.803   0.249   1.728  0.8104  0.0178  0.1832
  709SOL    HW1 2126   1.756   0.336   1.737  0.6058 -0.9491 -1.4866
  709SOL    HW2 2127   1.820   0.207   1.819  0.1326  1.0890  0.8809
  710SOL     OW 2128   1.294   0.458   2.731  0.3616  0.2011 -0.1268
  710SOL    HW1 2129   1.348   0.424   2.811  0.8216  1.2081  0.4857
  710SOL    HW2 2130   1.340   0.531   2.673  0.2513  1.4635 -1.0378
  711SOL     OW 2131   0.942   1.773   2.619  0.4031  0.0869  0.3703
  711SOL    HW1 2132   0.953   1.871   2.605 -0.3289 -2.0293 -0.7064
  711SOL    HW2 2133   1.040   1.733   2.611  1.8686 -3.4948  0.4041
  712SOL     OW 2134   0.953   2.372   2.578  0.1533  0.2927 -0.1811
  712SOL    HW1 2135   0.945   2.388   2.680  1.5549  0.4271  1.5226
  712SOL    HW2 2136   0.872   2.317   2.538 -2.4032  0.3954 -0.4123
  713SOL     OW 2137   1.933   1.288   2.705 -0.5939 -0.9992  0.2563
  713SOL    HW1 2138   2.026   1.325   2.720  0.4291  1.7416  0.9819
  713SOL    HW2 2139   1.870   1.342   2.768  1.1783 -0.0289 -0.0508
  714SOL     OW 2140   1.188   1.680   1.946 -0.3043 -0.3594 -0.0789
  714SOL    HW1 2141   1.103   1.633   1.951  2.6170  2.2263 -0.1118
  714SOL    HW2 2142   1.173   1.780   1.961 -0.4348  0.3348  1.8685
  715SOL     OW 2143   1.945   0.258   2.730 -0.3130  0.3866  0.4338
  715SOL    HW1 2144   1.920   0.216   2.822 -1.0052 -2.8786 -1.3169
  715SOL    HW2 2145   1.863   0.305   2.697 -1.1269 -0.7606 -1.7893
  716SOL     OW 2146   3.047   2.273   1.367  0.3780 -0.2422  0.2206
  716SOL    HW1 2147   2.963   2.323   1.392  1.7032  0.4583  0.3388
  716SOL    HW2 2148   3.083   2.310   1.279  2.7958 -1.8391 -1.9992
  717SOL     OW 2149   2.687   1.309   0.655  0.1847  0.2485 -0.0163
  717SOL    HW1 2150   2.649   1.265   0.745 -0.4463 -2.5707  1.4540
  717SOL    HW2 2151   2.618   1.304   0.579  1.4628  0.4402  0.1196
  718SOL     OW 2152   1.077   1.942   1.992 -0.0840 -0.0188 -0.7378
  718SOL    HW1 2153   1.113   2.035   2.020 -3.6338  0.4092 -0.4799
  718SOL    HW2 2154   1.064   1.893   2.081  0.3778 -1.4845  1.0612
  719SOL     OW 2155   2.197   0.643   2.903 -0.0495 -0.0509 -0.5761
  719SOL    HW1 2156   2.145   0.557   2.891 -1.6364 -0.0838 -0.6067
  719SOL    HW2 2157   2.296   0.636   2.926  2.4223 -0.4997 -1.9748
  720SOL     OW 2158   0.732   0.397   1.204  0.2568  0.1276  0.4583
  720SOL    HW1 2159   0.668   0.419   1.278  2.8389 -1.0629 -1.2359
  720SOL    HW2 2160   0.824   0.381   1.238 -0.8302  0.9684 -3.3036
  721SOL     OW 2161   2.636   0.925   0.382 -0.2252  0.2650  1.1316
  721SOL    HW1 2162   2.699   0.998   0.352  0.4174 -0.3326  0.7515
  721SOL    HW2 2163   2.679   0.862   0.454  0.1055  1.0119  0.2749
  722SOL     OW 2164   0.061   3.107   2.710 -0.2190  0.2569  0.2983
  722SOL    HW1 2165   0.071   3.089   2.809 -1.8407  0.4396  0.7503
  722SOL    HW2 2166   0.132   0.071   2.679  1.7947  1.8713 -0.8840
  723SOL     OW 2167   1.677   0.347   0.372  0.2369 -0.1811 -0.1197
  723SOL    HW1 2168   1.689   0.339   0.469  0.7776  1.1553 -1.8084
  723SOL    HW2 2169   1.580   0.384   0.351  0.4310 -0.8645 -0.3731
  724SOL     OW 2170   0.713   1.611   2.193 -0.0276 -0.2819  0.4230
  724SOL    HW1 2171   0.790   1.542   2.201 -1.2081  2.1770  0.3040
  724SOL    HW2 2172   0.699   1.664   2.279 -0.1281 -0.1645 -0.9081
  725SOL     OW 2173   1.503   2.871   1.020 -0.0690 -0.5993 -0.0115
  725SOL    HW1 2174   1.537   2.887   1.119 -0.3681  0.5576  1.5235
  725SOL    HW2 2175   1.557   2.931   0.960  2.5286 -3.1183 -1.1093
  726SOL     OW 2176   2.225   2.778   0.110  0.1837  0.3459 -0.5900
  726SOL    HW1 2177   2.250   2.723   0.194 -1.2134 -3.6099  1.8569
  726SOL    HW2 2178   2.300   2.778   0.038  2.2772  2.9103  0.6251
  727SOL     OW 2179   1.385   1.867   0.865 -0.3518 -0.4068  0.1617
  727SOL    HW1 2180   1.464   1.935   0.866 -0.6162  1.7408  0.8840
  727SOL    HW2 2181   1.369   1.818   0.776  0.2922 -0.2276 -1.6742
  728SOL     OW 2182   2.272   2.570   1.851 -0.7663  0.0031  0.1067
  728SOL    HW1 2183   2.190   2.600   1.803  3.9524  2.7424 -1.0386
  728SOL    HW2 2184   2.329   2.518   1.784 -1.7275 -0.6690 -3.0239
  729SOL     OW 2185   2.016   1.873   1.438  0.2243 -0.4183  0.9699
  729SOL    HW1 2186   1.973   1.788   1.476  1.4106  3.3110  1.2729
  729SOL    HW2 2187   2.010   1.870   1.338 -1.9495 -0.4894  2.4148
  730SOL     OW 2188   1.610   0.805   0.120 -0.0582 -0.3872  0.2933
  730SOL    HW1 2189   1.592   0.877   0.191  0.1602  0.5945  0.3016
  730SOL    HW2 2190   1.710   0.783   0.117 -0.2557 -0.7639  1.3786
  731SOL     OW 2191   0.622   0.003   1.130  0.3295 -0.4291 -0.3152
  731SOL    HW1 2192   0.566   3.096   1.214  0.9865  1.5689  1.3125
  731SOL    HW2 2193   0.602   0.100   1.099  0.0047 -0.0581  0.8938
  732SOL     OW 2194   1.333   0.286   0.812  0.5021 -0.2285  0.1451
  732SOL    HW1 2195   1.329   0.330   0.721 -3.0449 -3.4928  2.1012
  732SOL    HW2 2196   1.304   0.189   0.807 -1.3299  0.2723 -2.0016
  733SOL     OW 2197   0.849   1.511   1.280 -0.5797 -0.1867 -0.3415
  733SOL    HW1 2198   0.804   1.549   1.366  0.4252 -1.1930  2.1057
  733SOL    HW2 2199   0.790   1.455   1.223  1.8407 -1.6704  2.5718
  734SOL     OW 2200   2.786   2.680   2.922  0.0939  0.6099  0.5934
  734SOL    HW1 2201   2.823   2.679   3.017  0.7725 -0.7012  0.0995
  734SOL    HW2 2202   2.715   2.606   2.918 -2.1517 -1.7239  0.1479
  735SOL     OW 2203   1.100   2.733   1.239  0.2611  0.1661 -0.9101
  735SOL    HW1 2204   1.148   2.756   1.325  2.4641  3.1074 -1.4142
  735SOL    HW2 2205   1.147   2.773   1.158  1.1880 -1.0750 -0.9726
  736SOL     OW 2206   1.845   2.159   0.383  0.0041  0.6306  0.1953
  736SOL    HW1 2207   1.778   2.234   0.404  0.8176 -0.4775  0.6600
  736SOL    HW2 2208   1.833   2.104   0.294  0.8269 -0.8537 -1.8060
  737SOL     OW 2209   3.002   1.743   1.316 -0.2367 -0.0659 -0.1925
  737SOL    HW1 2210   3.074   1.675   1.289  1.3945  0.3723 -0.4732
  737SOL    HW2 2211   3.045   1.832   1.321 -1.4034 -0.4921  0.5561
  738SOL     OW 2212   1.951   2.287   2.551 -0.4884  0.5593  0.2211
  738SOL    HW1 2213   1.925   2.384   2.580 -0.7476  1.5613  0.5810
  738SOL    HW2 2214   1.911   2.267   2.458 -0.8139  0.9361 -1.0476
  739SOL     OW 2215   1.217   1.747   2.560 -0.2662 -0.1395 -0.4955
  739SOL    HW1 2216   1.238   1.835   2.507 -0.0371  1.1915 -1.6612
  739SOL    HW2 2217   1.263   1.741   2.648  2.0811  2.1873 -1.6733
  740SOL     OW 2218   1.231   2.853   1.038 -0.1384 -0.4026  0.3855
  740SOL    HW1 2219   1.330   2.848   1.019 -1.7411 -1.0835 -0.7240
  740SOL    HW2 2220   1.188   2.792   0.966 -0.9073  1.1115  0.0340
  741SOL     OW 2221   0.454   0.938   0.432  0.1034  0.9304 -0.3541
  741SOL    HW1 2222   0.419   1.026   0.400  2.7975 -1.8943 -1.3292
  741SOL    HW2 2223   0.539   0.962   0.488  0.1112  2.0774  0.7904
  742SOL     OW 2224   1.103   1.588   2.384  0.2907 -0.7367  0.0046
  742SOL    HW1 2225   1.055   1.501   2.402 -0.2059 -0.6562 -3.7236
  742SOL    HW2 2226   1.135   1.638   2.467  1.7314 -0.1534 -0.6934
  743SOL     OW 2227   0.872   0.707   2.120  0.1184  0.2363 -0.1104
  743SOL    HW1 2228   0.791   0.739   2.073  1.0868  0.2726  0.0754
  743SOL    HW2 2229   0.949   0.758   2.076  2.2977 -0.2076 -0.6854
  744SOL     OW 2230   2.165   0.045   1.488  0.1342  0.0331  0.1050
  744SOL    HW1 2231   2.101   3.079   1.466  0.8198 -1.2597 -1.1509
  744SOL    HW2 2232   2.222   0.068   1.407  1.3721  0.7400  0.2765
  745SOL     OW 2233   2.124   1.623   1.310  0.3157 -0.6111  0.0718
  745SOL    HW1 2234   2.164   1.685   1.381  1.4521 -1.4566 -3.1183
  745SOL    HW2 2235   2.175   1.532   1.304  2.4971 -3.4531  2.1042
  746SOL     OW 2236   1.811   1.032   0.725  0.5580 -0.0756  0.0164
  746SOL    HW1 2237   1.788   1.059   0.630 -0.3499  1.9386 -1.9052
  746SOL    HW2 2238   1.755   0.957   0.765  0.8885  0.3027  0.8932
  747SOL     OW 2239   2.360   1.579   0.618  0.5423  0.5587 -0.6459
  747SOL    HW1 2240   2.423   1.632   0.561 -2.8865 -2.4951  2.2794
  747SOL    HW2 2241   2.283   1.638   0.650 -0.1878  0.5850  0.2086
  748SOL     OW 2242   0.290   1.816   0.319  0.5296 -0.5499  0.3318
  748SOL    HW1 2243   0.292   1.807   0.220  0.2435 -1.8136  0.2320
  748SOL    HW2 2244   0.356   1.748   0.365  1.7251  3.8514  0.9517
  749SOL     OW 2245   2.974   2.444   2.639  0.2452 -0.1314  0.1023
  749SOL    HW1 2246   2.911   2.518   2.605 -1.9290  1.5311 -1.0351
  749SOL    HW2 2247   3.037   2.496   2.701  2.6992  1.6234  1.4059
  750SOL     OW 2248   2.133   0.793   0.572 -0.1876 -0.5271 -0.5657
  750SOL    HW1 2249   2.226   0.760   0.547 -0.0501  0.9314 -0.3838
  750SOL    HW2 2250   2.141   0.859   0.652 -4.0106  2.4394  1.6967
  751SOL     OW 2251   2.724   0.176   0.041  0.1226 -0.2390 -0.2547
  751SOL    HW1 2252   2.711   0.129   3.057  0.1957 -1.1511  0.8551
  751SOL    HW2 2253   2.662   0.139   0.109  2.5574 -2.7766 -1.6353
  752SOL     OW 2254   2.489   2.794   0.639  0.5276 -0.3949 -0.1596
  752SOL    HW1 2255   2.534   2.885   0.618 -0.4906 -2.6763  1.4710
  752SOL    HW2 2256   2.542   2.726   0.589  0.8428  0.8179  2.7518
  753SOL     OW 2257   1.738   1.143   2.310 -0.2930 -0.0928 -0.4251
  753SOL    HW1 2258   1.752   1.095   2.401  2.6296  0.2257  2.6813
  753SOL    HW2 2259   1.733   1.242   2.329  2.3287 -0.1461 -4.4271
  754SOL     OW 2260   1.994   2.259   1.911 -0.0113  0.6679  0.0724
  754SOL    HW1 2261   2.066   2.246   1.839 -0.9201 -0.0623 -1.4557
  754SOL    HW2 2262   1.983   2.189   1.982 -1.6311  0.9119  2.3225
  755SOL     OW 2263   2.569   0.969   0.813  0.2761 -0.2742  0.1200
  755SOL    HW1 2264   2.657   0.914   0.811  0.6672 -2.0431  1.2701
  755SOL    HW2 2265   2.587   1.063   0.850  2.0558  0.3787 -0.6578
  756SOL     OW 2266   1.074   1.323   0.067 -0.2779  0.5217  0.1296
  756SOL    HW1 2267   0.982   1.293   0.088  0.3323  1.6605 -1.2105
  756SOL    HW2 2268   1.068   1.393   3.106  0.9351  0.4665  1.2369
  757SOL     OW 2269   1.841   2.589   1.205  0.0903  0.1358 -0.1109
  757SOL    HW1 2270   1.933   2.557   1.238  0.1523 -1.1549 -0.5201
  757SOL    HW2 2271   1.822   2.556   1.112 -0.4632 -1.5231  0.7328
  758SOL     OW 2272   1.002   2.147   1.399  0.3984 -0.1111  0.1756
  758SOL    HW1 2273   1.052   2.158   1.313 -1.3205 -1.2236 -2.8083
  758SOL    HW2 2274   0.952   2.236   1.412 -0.5019 -0.1180 -1.3236
  759SOL     OW 2275   2.678   1.338   1.146 -0.3523  0.7167 -0.1566
  759SOL    HW1 2276   2.634   1.399   1.215  1.7116 -1.4526 -0.0323
  759SOL    HW2 2277   2.780   1.357   1.131 -1.5424  0.2290  3.5702
  760SOL     OW 2278   2.071   1.141   1.577  0.3358  0.0695 -0.2798
  760SOL    HW1 2279   2.101   1.134   1.476  2.0747 -3.3099 -0.2575
  760SOL    HW2 2280   1.977   1.173   1.588  3.3726 -1.2780 -3.1637
  761SOL     OW 2281   2.013   2.941   0.167  0.0366  0.3708  0.1251
  761SOL    HW1 2282   2.031   3.025   0.221  0.2511 -0.9343  1.1191
  761SOL    HW2 2283   2.095   2.884   0.145 -0.0150  0.7722  1.7985
  762SOL     OW 2284   1.872   1.858   2.700  0.1113  0.1383 -0.0633
  762SOL    HW1 2285   1.769   1.867   2.697  0.0221  0.3200  3.0384
  762SOL    HW2 2286   1.920   1.945   2.683 -1.3918 -1.0615 -0.8137
  763SOL     OW 2287   0.722   1.567   1.517 -0.2823 -0.4929 -0.4628
  763SOL    HW1 2288   0.784   1.488   1.536  2.1369 -0.9914  0.6247
  763SOL    HW2 2289   0.684   1.615   1.604 -1.7719  1.2148  1.0933
  764SOL     OW 2290   0.040   2.411   0.113  0.0617 -0.3578  0.2867
  764SOL    HW1 2291   3.055   2.418   0.157  0.2403 -1.8140  0.3120
  764SOL    HW2 2292   0.051   2.478   0.035 -2.3682  1.8719 -1.3573
  765SOL     OW 2293   0.588   0.182   1.449  0.5020 -0.0763  0.0655
  765SOL    HW1 2294   0.678   0.134   1.441  0.5677 -2.7094 -0.9165
  765SOL    HW2 2295   0.517   0.130   1.402 -0.0198  1.1117  0.1536
  766SOL     OW 2296   0.043   2.135   1.979  0.0500 -0.0254  0.6580
  766SOL    HW1 2297   0.081   2.228   1.979  1.6592 -2.0948  0.5262
  766SOL    HW2 2298   0.053   2.090   1.886 -0.2468 -2.2698  0.5896
  767SOL     OW 2299   2.682   0.977   1.951  0.1854 -0.1136  0.0707
  767SOL    HW1 2300   2.621   1.001   1.874  1.6019  1.4056  2.4188
  767SOL    HW2 2301   2.776   1.010   1.929  2.0134 -0.0687 -0.1175
  768SOL     OW 2302   0.815   0.328   2.698  0.2860 -0.1004  0.2890
  768SOL    HW1 2303   0.721   0.286   2.712 -1.0301 -0.5039 -1.6500
  768SOL    HW2 2304   0.866   0.340   2.787 -0.0785 -1.4171  0.9641
  769SOL     OW 2305   2.221   2.786   1.045 -0.3803  0.1470 -0.2346
  769SOL    HW1 2306   2.311   2.777   1.001  0.5838 -3.1936  0.4293
  769SOL    HW2 2307   2.163   2.848   0.989  2.7679 -0.2258 -1.5802
  770SOL     OW 2308   3.014   0.036   2.488  0.1270  0.2165  0.1880
  770SOL    HW1 2309   3.050   3.105   2.574  1.5395 -0.4980 -0.4376
  770SOL    HW2 2310   3.086   0.020   2.411  1.9860  0.5377 -2.7341
  771SOL     OW 2311   1.475   2.088   2.119 -0.3327  0.2713  0.3441
  771SOL    HW1 2312   1.481   2.127   2.029 -0.0971 -1.0501  3.4900
  771SOL    HW2 2313   1.501   1.990   2.127 -3.1799 -3.1450 -2.2634
  772SOL     OW 2314   1.310   0.315   0.096  0.0471 -0.0577  0.9269
  772SOL    HW1 2315   1.255   0.234   0.058 -0.5041  0.3280 -0.4624
  772SOL    HW2 2316   1.371   0.349   0.024 -0.4686  0.1614  1.0872
  773SOL     OW 2317   2.629   0.752   1.701 -0.0429  0.4681  0.1235
  773SOL    HW1 2318   2.716   0.774   1.648  0.2612  0.6988 -2.5829
  773SOL    HW2 2319   2.573   0.834   1.710 -0.8527  0.2397  0.4679
  774SOL     OW 2320   1.005   1.107   1.170  0.5628 -0.2374  0.1786
  774SOL    HW1 2321   1.068   1.023   1.169  2.5052 -0.3520  1.7793
  774SOL    HW2 2322   1.037   1.186   1.114 -1.0730 -0.3909 -2.3204
  775SOL     OW 2323   2.341   3.092   2.970 -0.3798  0.2992  0.4069
  775SOL    HW1 2324   2.385   0.016   2.882  2.7659  0.3316  0.0545
  775SOL    HW2 2325   2.376   2.999   3.003 -1.7576  0.2055  1.4720
  776SOL     OW 2326   2.425   1.191   1.908  0.2622 -0.7434  0.6202
  776SOL    HW1 2327   2.407   1.165   2.005  0.6806 -1.6145  0.3290
  776SOL    HW2 2328   2.449   1.290   1.886 -0.6448  2.0576 -1.6608
  777SOL     OW 2329   0.287   1.201   2.392 -0.2151 -0.0373  0.1170
  777SOL    HW1 2330   0.333   1.140   2.325  0.5034 -1.2337 -1.4266
  777SOL    HW2 2331   0.311   1.301   2.370  2.8490  2.0117  0.2866
  778SOL     OW 2332   0.426   0.705   0.081  0.3224 -0.5530  0.2299
  778SOL    HW1 2333   0.371   0.632   0.040  1.5271  0.6078  0.7862
  778SOL    HW2 2334   0.448   0.776   0.014 -0.0418 -2.5072  0.2442
  779SOL     OW 2335   0.643   0.191   2.335  0.0855 -0.1979  0.0625
  779SOL    HW1 2336   0.716   0.169   2.401  2.8476  0.3327  1.8207
  779SOL    HW2 2337   0.587   0.114   2.325 -0.3784  0.5715  1.9274
  780SOL     OW 2338   2.201   1.070   2.776  0.0419  0.8155 -0.1326
  780SOL    HW1 2339   2.279   1.111   2.834  0.4286 -0.6576  2.9339
  780SOL    HW2 2340   2.221   1.058   2.677 -0.2163  0.6568  1.5064
  781SOL     OW 2341   2.949   1.057   1.897 -0.2971  0.3271 -1.0412
  781SOL    HW1 2342   2.991   1.055   1.802  1.3884  1.5520  1.6535
  781SOL    HW2 2343   2.995   0.995   1.962 -0.3713  3.2498 -0.8390
  782SOL     OW 2344   0.760   1.345   2.882 -0.0914  0.3627  0.3963
  782SOL    HW1 2345   0.665   1.360   2.923  1.0821 -1.3435 -0.5735
  782SOL    HW2 2346   0.793   1.438   2.850 -0.5115 -1.1052  1.5147
  783SOL     OW 2347   1.132   2.207   1.169  0.5344 -0.1466 -1.0345
  783SOL    HW1 2348   1.180   2.284   1.215 -1.4416 -0.8900  2.4778
  783SOL    HW2 2349   1.184   2.171   1.088  1.2750 -2.7211  1.7243
  784SOL     OW 2350   1.467   0.399   2.978  0.7752  0.2978 -0.0540
  784SOL    HW1 2351   1.553   0.348   2.986 -2.1214  1.8318 -1.7893
  784SOL    HW2 2352   1.485   0.497   3.004  1.4744 -1.9252 -1.3065
  785SOL     OW 2353   0.834   3.093   1.990  0.5155  0.1243  0.1776
  785SOL    HW1 2354   0.875   0.039   2.068  1.1604  0.4962  2.5675
  785SOL    HW2 2355   0.817   0.035   1.905  1.0816  0.1569  2.6948
  786SOL     OW 2356   0.400   2.101   0.449  0.0918  0.2069  0.0587
  786SOL    HW1 2357   0.388   2.011   0.397  1.6953  1.2672 -0.4574
  786SOL    HW2 2358   0.477   2.100   0.514 -1.0615 -0.4949 -0.5052
  787SOL     OW 2359   1.144   0.645   0.469  0.1058 -0.7032 -0.4616
  787SOL    HW1 2360   1.186   0.738   0.458 -0.5842  3.5150 -0.2427
  787SOL    HW2 2361   1.047   0.651   0.499 -3.4617 -1.3445  0.6183
  788SOL     OW 2362   2.592   1.547   1.293  0.3102 -0.1246 -0.1854
  788SOL    HW1 2363   2.680   1.594   1.325 -1.2414  1.8967 -2.4065
  788SOL    HW2 2364   2.542   1.510   1.377  0.1789 -0.0589 -1.8598
  789SOL     OW 2365   2.710   1.079   2.212 -0.3713 -0.2068  0.0760
  789SOL    HW1 2366   2.700   1.015   2.127  0.5793 -0.3416 -2.8702
  789SOL    HW2 2367   2.717   1.177   2.180 -1.3111 -0.2069 -0.7958
  790SOL     OW 2368   0.912   0.173   0.087  0.0431  0.5463 -0.4692
  790SOL    HW1 2369   0.899   0.121   0.168  3.0352 -2.2629 -1.1496
  790SOL    HW2 2370   0.893   0.271   0.102 -2.1721  2.2045 -0.7786
  791SOL     OW 2371   0.131   0.585   3.000 -0.0970  0.6875  0.1272
  791SOL    HW1 2372   0.124   0.535   3.090  0.1304  0.5685 -1.4556
  791SOL    HW2 2373   0.102   0.680   3.013 -0.4275  2.5173  0.6847
  792SOL     OW 2374   1.449   0.660   2.633 -0.4146  0.7075  0.4504
  792SOL    HW1 2375   1.374   0.687   2.568 -0.1567 -0.3614 -0.9260
  792SOL    HW2 2376   1.530   0.719   2.612  2.5903 -0.4065 -1.3517
  793SOL     OW 2377   2.962   0.327   0.709  0.3989  0.0672 -0.0026
  793SOL    HW1 2378   2.955   0.412   0.646  0.7759  1.8442 -4.6800
  793SOL    HW2 2379   2.963   0.365   0.804  0.1774  0.8814  0.4120
  794SOL     OW 2380   0.297   0.615   2.033  0.5731 -0.5950 -0.1139
  794SOL    HW1 2381   0.334   0.700   1.997 -0.4577 -1.2357  0.5970
  794SOL    HW2 2382   0.191   0.618   2.030 -1.0639  2.1516  0.1232
  795SOL     OW 2383   0.338   1.204   0.237  0.0640  0.4609 -0.4353
  795SOL    HW1 2384   0.424   1.201   0.183 -0.1611 -0.9865  2.3516
  795SOL    HW2 2385   0.355   1.207   0.338 -3.9270 -0.0373  1.5319
  796SOL     OW 2386   0.032   0.868   3.097  0.0318 -0.1031  0.0282
  796SOL    HW1 2387   0.045   0.824   0.080  1.7945 -1.0333  1.0850
  796SOL    HW2 2388   0.109   0.935   3.084  2.0191  1.7941 -1.1588
  797SOL     OW 2389   1.601   2.552   2.749 -0.1955 -0.0447  0.1185
  797SOL    HW1 2390   1.532   2.600   2.814 -2.3924 -0.2274  2.5200
  797SOL    HW2 2391   1.571   2.549   2.653  0.3962  1.1724  2.6475
  798SOL     OW 2392   3.024   0.218   1.264  0.3156 -0.5551  0.1509
  798SOL    HW1 2393   3.070   0.308   1.281 -2.2506 -1.0410  0.1046
  798SOL    HW2 2394   3.070   0.155   1.325  0.2829  2.1196 -0.6970
  799SOL     OW 2395   2.147   0.683   2.126 -0.1915  0.3480 -0.1180
  799SOL    HW1 2396   2.243   0.705   2.155  2.1969  0.3457  0.9244
  799SOL    HW2 2397   2.130   0.705   2.025 -1.2060  1.6235 -1.9193
  800SOL     OW 2398   0.010   1.837   0.415 -0.0518  0.1295  0.3003
  800SOL    HW1 2399   0.109   1.874   0.410  1.6970  2.6148  0.7636
  800SOL    HW2 2400   0.003   1.736   0.392  0.1056 -1.3969  1.3985
  801SOL     OW 2401   1.638   2.084   0.604 -0.4654  0.1906  0.6942
  801SOL    HW1 2402   1.651   1.992   0.561  1.3731 -0.4452 -1.8593
  801SOL    HW2 2403   1.604   2.069   0.699  0.1288  0.5953 -0.0304
  802SOL     OW 2404   1.443   1.566   3.064 -0.1998  0.0800 -0.1986
  802SOL    HW1 2405   1.480   1.546   0.048  0.2199  1.8199  0.3360
  802SOL    HW2 2406   1.388   1.497   3.019 -0.3507  2.0297  2.5772
  803SOL     OW 2407   0.494   1.985   1.617 -0.4763  0.6116 -0.0888
  803SOL    HW1 2408   0.516   2.011   1.519  1.7853 -1.6515 -1.0150
  803SOL    HW2 2409   0.396   1.969   1.627  1.3124  2.0441  0.5204
  804SOL     OW 2410   1.526   2.466   1.008 -0.2575  0.1279  0.0608
  804SOL    HW1 2411   1.626   2.443   1.027  1.0812 -0.2159  0.3862
  804SOL    HW2 2412   1.516   2.532   0.931 -2.2798 -0.3361 -3.6344
  805SOL     OW 2413   2.398   2.385   2.595 -0.1380 -0.4247  0.0869
  805SOL    HW1 2414   2.493   2.355   2.586  0.9351  0.2187  0.3470
  805SOL    HW2 2415   2.369   2.406   2.692 -0.5254 -0.3664  0.6084
  806SOL     OW 2416   2.638   3.022   0.546  0.1947  0.0164 -0.0705
  806SOL    HW1 2417   2.637   0.012   0.570  2.6052  0.7624  1.5958
  806SOL    HW2 2418   2.736   2.991   0.537  1.2996 -0.1182 -0.8695
  807SOL     OW 2419   0.341   1.059   2.615  0.2830 -0.5855 -0.2106
  807SOL    HW1 2420   0.316   1.124   2.545 -0.7578 -0.0578  0.9810
  807SOL    HW2 2421   0.261   0.999   2.642 -0.0735  2.4955 -0.6415
  808SOL     OW 2422   0.720   1.661   0.575 -0.5553  0.1846 -0.2427
  808SOL    HW1 2423   0.657   1.583   0.603  0.3992  0.5575 -1.0010
  808SOL    HW2 2424   0.661   1.742   0.570  0.2678 -0.2478  1.2754
  809SOL     OW 2425   2.673   3.088   1.874  0.0649  0.3203  0.9991
  809SOL    HW1 2426   2.628   0.048   1.813 -0.7808  0.5468  1.7249
  809SOL    HW2 2427   2.606   3.019   1.911  0.6175 -4.6993 -0.8519
  810SOL     OW 2428   1.354   0.606   1.320  0.8687  0.0883  0.5057
  810SOL    HW1 2429   1.293   0.603   1.240  2.5703 -0.5876  0.1168
  810SOL    HW2 2430   1.312   0.666   1.388  0.9560  1.8757  0.6991
  811SOL     OW 2431   1.858   0.113   1.967 -0.9790  0.4016  0.0433
  811SOL    HW1 2432   1.901   0.027   1.969 -1.7629  2.4668  1.4760
  811SOL    HW2 2433   1.769   0.104   2.009 -2.1436  0.8005 -0.8782
  812SOL     OW 2434   1.955   2.050   0.613 -0.6352 -0.3614 -0.3798
  812SOL    HW1 2435   1.930   2.090   0.521 -0.9304  1.0122 -0.6991
  812SOL    HW2 2436   1.887   1.984   0.643 -0.3167  0.1389 -1.8835
  813SOL     OW 2437   1.228   0.454   1.732  0.0028  0.0522 -0.1821
  813SOL    HW1 2438   1.166   0.446   1.810 -0.4487  0.4527 -1.4064
  813SOL    HW2 2439   1.268   0.545   1.723  1.8696  2.0429 -0.0957
  814SOL     OW 2440   0.205   0.042   1.214  0.7540  0.1458  0.6495
  814SOL    HW1 2441   0.178   3.096   1.132 -1.1906  1.2537 -0.7271
  814SOL    HW2 2442   0.144   0.030   1.291  3.1328  0.8239 -0.1691
  815SOL     OW 2443   0.213   0.031   0.478 -0.2853  0.0513 -0.0621
  815SOL    HW1 2444   0.218   3.038   0.456 -4.3227 -2.0577 -0.2940
  815SOL    HW2 2445   0.264   0.049   0.564 -3.8042  0.7124  0.0281
  816SOL     OW 2446   2.270   1.753   2.304  0.0200 -0.4648  0.3381
  816SOL    HW1 2447   2.221   1.781   2.220  0.0296  0.9942  0.8130
  816SOL    HW2 2448   2.215   1.777   2.384 -0.2849 -1.4053 -6.0287
  817SOL     OW 2449   1.046   2.984   0.734 -0.0039 -0.1320  0.3745
  817SOL    HW1 2450   1.122   3.037   0.686  1.0935  0.8520  0.2161
  817SOL    HW2 2451   1.076   2.890   0.755 -1.9916 -0.5790 -0.7424
  818SOL     OW 2452   1.752   0.553   2.828 -0.6513  0.0090 -0.1803
  818SOL    HW1 2453   1.682   0.490   2.788 -0.7413  2.2497 -2.9411
  818SOL    HW2 2454   1.804   0.597   2.751  0.8520  1.2671  0.1270
  819SOL     OW 2455   2.312   0.052   0.121 -0.1074  0.7055 -0.0823
  819SOL    HW1 2456   2.396   0.076   0.177 -1.5843 -0.4287  0.0423
  819SOL    HW2 2457   2.330   0.027   0.023  3.2620 -1.7355 -0.2049
  820SOL     OW 2458   2.063   0.875   2.906 -0.0477 -0.1301 -0.4134
  820SOL    HW1 2459   2.110   0.782   2.916  2.1215 -0.3908 -0.4529
  820SOL    HW2 2460   2.124   0.943   2.855 -1.9221  1.7793  4.0744
  821SOL     OW 2461   2.830   0.489   0.903 -0.6553 -0.2573  0.1745
  821SOL    HW1 2462   2.762   0.447   0.968 -2.0445  1.5656 -0.1696
  821SOL    HW2 2463   2.915   0.521   0.947  0.0318 -1.1443  2.2009
  822SOL     OW 2464   1.059   2.626   2.503  0.1422  0.3864  0.3280
  822SOL    HW1 2465   1.019   2.532   2.526 -1.8398 -1.5140  1.6022
  822SOL    HW2 2466   1.072   2.684   2.585 -0.3606  1.1516 -0.1732
  823SOL     OW 2467   0.382   1.508   1.757  0.4195 -0.2958 -0.0013
  823SOL    HW1 2468   0.397   1.409   1.739 -0.9384  0.9436 -2.1923
  823SOL    HW2 2469   0.344   1.529   1.849  3.1047 -0.5014  0.3844
  824SOL     OW 2470   1.493   2.565   2.519  0.3700 -0.5145 -0.2389
  824SOL    HW1 2471   1.513   2.542   2.420  0.3252 -2.5558 -3.1289
  824SOL    HW2 2472   1.500   2.668   2.528  4.0538 -1.7981  1.2776
  825SOL     OW 2473   1.855   0.882   0.356 -0.0840  0.0843 -1.0885
  825SOL    HW1 2474   1.900   0.816   0.424  0.5448 -0.8542 -0.9806
  825SOL    HW2 2475   1.880   0.859   0.259 -0.1850 -1.4545  1.6347
  826SOL     OW 2476   2.144   0.729   0.158  0.0863 -0.2345 -0.2055
  826SOL    HW1 2477   2.052   0.766   0.133 -0.6069 -1.6925  0.6260
  826SOL    HW2 2478   2.221   0.761   0.097 -2.2241  0.8450 -1.4064
  827SOL     OW 2479   0.823   1.602   2.819 -0.0984  0.5300  0.0400
  827SOL    HW1 2480   0.775   1.670   2.873  0.5485 -0.8742 -3.2163
  827SOL    HW2 2481   0.874   1.653   2.743  1.2233  1.3101 -0.4024
  828SOL     OW 2482   2.480   1.409   1.501  1.0586  0.1846  0.2728
  828SOL    HW1 2483   2.490   1.491   1.566 -1.2732  1.8002  0.0864
  828SOL    HW2 2484   2.525   1.328   1.535 -0.6204 -0.2957 -0.3366
  829SOL     OW 2485   0.378   1.688   0.766 -0.0320  0.7764 -0.4260
  829SOL    HW1 2486   0.350   1.592   0.739  0.9375 -0.8257  1.4778
  829SOL    HW2 2487   0.476   1.692   0.805 -0.0489 -0.1426  4.0106
  830SOL     OW 2488   1.272   0.955   1.139  0.0986 -0.0376 -0.1511
  830SOL    HW1 2489   1.309   1.006   1.060  0.2176  0.7675 -1.3056
  830SOL    HW2 2490   1.315   0.987   1.228 -0.1871  1.8640  1.2228
  831SOL     OW 2491   0.260   1.741   0.055  0.4012  0.4090  0.0277
  831SOL    HW1 2492   0.160   1.760   0.063 -1.1019 -1.1237 -0.6711
  831SOL    HW2 2493   0.273   1.639   0.059  1.1681  1.0180  0.7412
  832SOL     OW 2494   0.842   0.426   0.147  0.0854 -0.3823 -0.1799
  832SOL    HW1 2495   0.784   0.437   0.228  3.0180  1.2334 -2.0259
  832SOL    HW2 2496   0.925   0.483   0.171  0.3810  0.2135 -1.3953
  833SOL     OW 2497   0.676   0.487   2.002  0.3418 -0.1656 -0.1927
  833SOL    HW1 2498   0.662   0.584   1.974  0.9198 -0.7511  3.0904
  833SOL    HW2 2499   0.644   0.422   1.931 -1.2024  0.5940 -1.4013
  834SOL     OW 2500   0.147   0.248   0.812  0.1936  0.1730 -0.2003
  834SOL    HW1 2501   0.053   0.252   0.776  1.3797  1.3392 -1.2529
  834SOL    HW2 2502   0.160   0.242   0.916 -1.0225 -1.7171  1.4097
  835SOL     OW 2503   2.585   0.102   1.145 -0.4778 -0.0854 -0.0857
  835SOL    HW1 2504   2.644   0.139   1.218  1.1593  1.8767  0.4922
  835SOL    HW2 2505   2.641   0.102   1.058  1.7318 -0.4757  1.6254
  836SOL     OW 2506   0.481   2.000   2.851 -0.6253 -0.1166  0.2805
  836SOL    HW1 2507   0.528   2.089   2.820  3.4458  2.4856  0.7574
  836SOL    HW2 2508   0.407   2.025   2.917  0.6511 -0.6167  1.7708
  837SOL     OW 2509   1.727   1.494   2.778 -0.1596 -0.0399 -0.3844
  837SOL    HW1 2510   1.799   1.542   2.725  0.5923 -0.0555 -1.4562
  837SOL    HW2 2511   1.741   1.507   2.877  0.7252 -1.6602 -1.9268
  838SOL     OW 2512   3.097   1.061   1.642 -1.1368  0.1572 -0.7134
  838SOL    HW1 2513   3.069   1.099   1.552  1.0775 -0.4768 -3.2633
  838SOL    HW2 2514   0.064   1.121   1.679 -0.1079  0.7160  1.0535
  839SOL     OW 2515   0.774   1.004   1.006  0.2758 -0.1776 -0.1855
  839SOL    HW1 2516   0.835   1.071   1.058 -0.5574  1.2383  1.8758
  839SOL    HW2 2517   0.829   0.918   0.995  2.4845 -0.3017 -0.1082
  840SOL     OW 2518   1.444   2.781   1.678  0.3549 -0.6800  0.1952
  840SOL    HW1 2519   1.440   2.677   1.675  0.2381 -0.6188 -1.4323
  840SOL    HW2 2520   1.355   2.814   1.637 -0.5682 -2.2167 -1.1220
  841SOL     OW 2521   0.564   2.589   0.345  0.1813 -0.2264  0.0966
  841SOL    HW1 2522   0.549   2.679   0.391  2.2434  1.7467  1.8839
  841SOL    HW2 2523   0.486   2.525   0.362 -0.0663  0.5797 -0.2038
  842SOL     OW 2524   0.497   0.511   0.847  0.2304 -0.2811  0.6828
  842SOL    HW1 2525   0.493   0.556   0.941 -0.8131 -0.2757 -0.2838
  842SOL    HW2 2526   0.568   0.438   0.844 -3.1831 -1.2041 -0.0256
  843SOL     OW 2527   0.909   1.430   2.208 -0.4234  0.6881  0.0213
  843SOL    HW1 2528   0.839   1.393   2.268 -1.2456  3.1136  1.3165
  843SOL    HW2 2529   1.002   1.395   2.237  1.1404 -1.3054  2.0022
  844SOL     OW 2530   1.132   2.282   3.015  0.0395  0.6005 -0.0974
  844SOL    HW1 2531   1.118   2.190   3.065  0.2002  0.1848  1.7064
  844SOL    HW2 2532   1.228   2.282   2.980  3.0180  1.3603 -1.2742
  845SOL     OW 2533   2.320   2.624   2.468  0.3926  0.1530 -0.2604
  845SOL    HW1 2534   2.369   2.649   2.386  0.1249 -0.0052  1.4647
  845SOL    HW2 2535   2.353   2.536   2.506  1.9708 -1.6597  1.1527
  846SOL     OW 2536   1.705   2.025   2.958 -0.1450 -0.4706  0.3211
  846SOL    HW1 2537   1.625   2.079   2.979  0.0026 -1.1954 -0.5984
  846SOL    HW2 2538   1.685   1.924   2.972 -1.8743 -1.3019 -0.3461
  847SOL     OW 2539   1.884   2.830   2.932  0.5058  0.2613  0.0636
  847SOL    HW1 2540   1.930   2.917   2.910  1.0294 -1.7483  0.5518
  847SOL    HW2 2541   1.949   2.752   2.952  0.3149  1.7845 -0.2344
  848SOL     OW 2542   0.292   0.446   0.676 -0.3661 -0.5391 -0.2353
  848SOL    HW1 2543   0.385   0.467   0.721  1.6735  0.0643 -0.0192
  848SOL    HW2 2544   0.231   0.389   0.735 -0.4794  3.6165  0.8898
  849SOL     OW 2545   1.191   2.750   1.530  0.5177 -0.3987  0.1491
  849SOL    HW1 2546   1.129   2.793   1.604  2.4346 -0.5895  0.6045
  849SOL    HW2 2547   1.249   2.827   1.494 -3.5721 -1.9654  0.2579
  850SOL     OW 2548   0.428   1.583   0.338 -0.0698  0.0641 -0.3586
  850SOL    HW1 2549   0.366   1.549   0.268 -2.7257 -1.9775  0.3236
  850SOL    HW2 2550   0.528   1.593   0.310  1.7525  1.1028 -1.1351
  851SOL     OW 2551   0.156   0.885   0.855  0.0288 -0.0207 -0.1189
  851SOL    HW1 2552   0.192   0.886   0.758 -0.2271  1.3571 -0.9743
  851SOL    HW2 2553   0.058   0.906   0.849  2.1325  1.3755 -2.0501
  852SOL     OW 2554   1.855   2.444   1.609 -0.6740 -0.2389 -1.1368
  852SOL    HW1 2555   1.802   2.401   1.685 -0.5620 -2.2187 -0.7114
  852SOL    HW2 2556   1.915   2.374   1.562  2.6143 -4.9270  1.0500
  853SOL     OW 2557   0.238   1.456   0.149 -0.0458  0.3064 -0.2325
  853SOL    HW1 2558   0.171   1.465   0.225 -1.7277  1.2794 -2.6282
  853SOL    HW2 2559   0.282   1.364   0.150  2.3040  1.8082 -0.4643
  854SOL     OW 2560   1.529   1.143   1.657 -0.4658  0.2854 -0.3525
  854SOL    HW1 2561   1.525   1.049   1.693 -0.8441  0.0067 -2.6455
  854SOL    HW2 2562   1.540   1.216   1.726 -1.2295  0.1273 -1.5025
  855SOL     OW 2563   0.534   2.496   2.923 -0.0039 -0.8521  0.3534
  855SOL    HW1 2564   0.440   2.458   2.935  0.8364 -0.3874 -1.3800
  855SOL    HW2 2565   0.579   2.526   3.007  0.2021  3.9407  0.0273
  856SOL     OW 2566   2.928   0.700   1.818  0.5880  0.4524  0.8315
  856SOL    HW1 2567   2.974   0.766   1.883  2.8938 -0.2130  2.2829
  856SOL    HW2 2568   2.951   0.719   1.722  0.1824 -0.5676  1.2570
  857SOL     OW 2569   0.524   1.212   1.980 -0.0339 -0.3876  0.1226
  857SOL    HW1 2570   0.464   1.152   2.034 -0.2365  0.5653 -3.8238
  857SOL    HW2 2571   0.538   1.306   2.014 -0.8799  1.8590 -1.7821
  858SOL     OW 2572   0.392   1.451   2.294 -0.1138  0.5490 -0.0118
  858SOL    HW1 2573   0.440   1.518   2.352 -1.4292 -1.6649 -1.1731
  858SOL    HW2 2574   0.451   1.419   2.215  0.1392  0.7124  0.1804
  859SOL     OW 2575   2.659   0.214   0.563  0.3281 -0.1327 -0.2200
  859SOL    HW1 2576   2.682   0.301   0.616 -1.9699  2.8278 -0.8078
  859SOL    HW2 2577   2.688   0.220   0.466 -0.6242  1.9460  3.8630
  860SOL     OW 2578   2.044   2.614   3.094  0.1879  0.1108  0.3115
  860SOL    HW1 2579   1.963   2.585   0.036  1.4955  0.3432  0.6639
  860SOL    HW2 2580   2.100   2.676   0.037  2.5927 -2.3524 -0.5010
  861SOL     OW 2581   0.368   0.452   0.410 -0.2414 -0.1857  0.9524
  861SOL    HW1 2582   0.328   0.541   0.378  0.4622 -0.4290 -1.7292
  861SOL    HW2 2583   0.358   0.443   0.512  0.1468  2.4016  1.0388
  862SOL     OW 2584   1.492   0.258   1.944  0.2410  0.1932 -0.0957
  862SOL    HW1 2585   1.503   0.294   1.848  0.1933  1.7531  0.0505
  862SOL    HW2 2586   1.397   0.220   1.951 -1.0824  3.4020  0.8401
  863SOL     OW 2587   2.717   2.288   1.165 -0.0004  0.0484 -0.1905
  863SOL    HW1 2588   2.677   2.251   1.250  0.0807  0.7154 -2.0142
  863SOL    HW2 2589   2.784   2.361   1.174 -2.4889  0.1233 -1.2390
  864SOL     OW 2590   2.473   2.880   1.992  0.5058 -0.2125 -0.2930
  864SOL    HW1 2591   2.382   2.906   1.950  1.4540  4.5293  2.1296
  864SOL    HW2 2592   2.510   2.794   1.949 -4.4588  0.1037  0.8304
  865SOL     OW 2593   1.042   0.318   1.569 -0.7552 -0.6164  0.6051
  865SOL    HW1 2594   1.054   0.218   1.577  1.6417  0.9251  0.8583
  865SOL    HW2 2595   1.113   0.371   1.622 -0.7129  1.1421 -2.5993
  866SOL     OW 2596   2.078   2.977   0.913 -0.2015 -0.0403  0.5207
  866SOL    HW1 2597   2.126   3.031   0.840  0.2637  0.1300  2.1701
  866SOL    HW2 2598   2.097   3.008   1.006 -0.7846  0.4648 -1.9833
  867SOL     OW 2599   2.625   2.604   0.517 -0.0510  0.4523 -0.6069
  867SOL    HW1 2600   2.725   2.590   0.530  0.3927 -1.0908 -1.1983
  867SOL    HW2 2601   2.569   2.521   0.551 -2.1808 -3.1687  1.0756
  868SOL     OW 2602   1.001   2.027   1.741 -0.7383  0.1501  0.0482
  868SOL    HW1 2603   1.087   2.060   1.693  3.2095 -1.5390  0.5528
  868SOL    HW2 2604   1.022   2.003   1.837 -1.4365  1.4020  1.0208
  869SOL     OW 2605   2.015   2.503   0.231  0.2327  0.1407 -0.6143
  869SOL    HW1 2606   2.061   2.414   0.214 -1.3390 -2.5598  1.5484
  869SOL    HW2 2607   2.080   2.577   0.268  1.5353  0.1673 -1.1937
  870SOL     OW 2608   2.306   2.135   0.924  0.1947  0.1863 -0.2161
  870SOL    HW1 2609   2.248   2.183   0.859  3.3597 -0.9807  2.0141
  870SOL    HW2 2610   2.401   2.168   0.900 -1.0515 -1.3812  0.9578
  871SOL     OW 2611   0.298   1.747   1.630 -0.1282  0.0450  0.4798
  871SOL    HW1 2612   0.311   1.768   1.529 -1.2106 -0.8067  1.0238
  871SOL    HW2 2613   0.338   1.663   1.666  0.0514  0.7221  0.1970
  872SOL     OW 2614   0.679   1.368   2.408 -0.2353 -0.1632 -0.1603
  872SOL    HW1 2615   0.633   1.428   2.475  0.8242 -0.7717  1.1281
  872SOL    HW2 2616   0.660   1.268   2.425 -0.2894  0.8802  1.0042
  873SOL     OW 2617   0.887   2.446   1.381  0.3125 -0.0044 -0.4743
  873SOL    HW1 2618   0.850   2.505   1.463  0.2772  2.8306  3.3163
  873SOL    HW2 2619   0.977   2.472   1.349  0.1658 -1.7814  1.9765
  874SOL     OW 2620   1.399   0.853   2.074  0.5500  0.4978  0.2130
  874SOL    HW1 2621   1.424   0.928   2.132  2.0751 -3.3052 -3.1746
  874SOL    HW2 2622   1.474   0.860   1.999  1.0638 -1.9341 -2.1823
  875SOL     OW 2623   2.881   2.893   1.104 -0.2845 -0.1014  0.1507
  875SOL    HW1 2624   2.805   2.882   1.170  1.6256 -0.8765  2.0978
  875SOL    HW2 2625   2.876   2.985   1.051  0.7577  2.4973 -0.1625
  876SOL     OW 2626   1.043   1.246   0.661  0.1656  0.5287  0.2189
  876SOL    HW1 2627   1.111   1.296   0.607 -2.0995  1.4756  1.4970
  876SOL    HW2 2628   0.950   1.279   0.646  1.3114  0.0078 -0.4979
  877SOL     OW 2629   2.675   0.375   1.080 -0.3806  0.1390 -0.2744
  877SOL    HW1 2630   2.608   0.435   1.125  2.0980 -0.2199 -1.2181
  877SOL    HW2 2631   2.710   0.309   1.150 -0.5337  0.5802  0.1558
  878SOL     OW 2632   2.290   1.555   0.194 -0.0093  0.0382 -0.1575
  878SOL    HW1 2633   2.386   1.557   0.234  0.8266  1.3792  0.9411
  878SOL    HW2 2634   2.226   1.518   0.261  1.7174  0.2652  1.7123
  879SOL     OW 2635   2.757   1.865   1.280  0.6914 -0.1996 -0.4628
  879SOL    HW1 2636   2.842   1.810   1.290  1.0811  2.0015  0.9077
  879SOL    HW2 2637   2.762   1.939   1.213 -1.5867 -0.0560  0.5608
  880SOL     OW 2638   0.255   2.354   0.814  0.3803  0.2503 -0.5136
  880SOL    HW1 2639   0.305   2.314   0.894  0.5511 -2.4446 -0.0362
  880SOL    HW2 2640   0.309   2.437   0.782 -1.2409 -0.2963  0.6569
  881SOL     OW 2641   1.459   1.130   0.920  0.0493 -0.5561 -0.4084
  881SOL    HW1 2642   1.518   1.205   0.954 -2.7193  1.6513 -0.3878
  881SOL    HW2 2643   1.363   1.155   0.938 -0.6778  2.0556  2.9492
  882SOL     OW 2644   2.562   1.119   2.657 -0.1214  0.3713  0.2072
  882SOL    HW1 2645   2.526   1.118   2.561 -0.6326  0.3112 -0.3078
  882SOL    HW2 2646   2.595   1.023   2.668 -0.2253  1.3328 -3.0316
  883SOL     OW 2647   1.152   3.105   1.297  0.0774  0.1449  0.2744
  883SOL    HW1 2648   1.065   3.062   1.257 -3.1425  2.1508 -0.2860
  883SOL    HW2 2649   1.227   0.032   1.237  1.0153 -4.8096 -0.1778
  884SOL     OW 2650   2.815   0.013   0.951 -0.0078 -0.1370 -0.2552
  884SOL    HW1 2651   2.897   0.076   0.960  1.2047 -0.1706 -0.2277
  884SOL    HW2 2652   2.777   0.003   0.859 -1.0434  0.8646  0.8839
  885SOL     OW 2653   1.602   0.811   1.478 -1.1508 -0.2461  0.3626
  885SOL    HW1 2654   1.531   0.866   1.428 -0.3865  1.1302 -4.4399
  885SOL    HW2 2655   1.652   0.752   1.408  3.0217 -0.2267  1.6827
  886SOL     OW 2656   1.473   0.673   3.027 -0.1457 -0.5962  0.6103
  886SOL    HW1 2657   1.505   0.678   2.929  1.3240 -1.0107  0.6547
  886SOL    HW2 2658   1.536   0.719   3.092 -2.4251 -1.4090 -0.0100
  887SOL     OW 2659   1.533   0.389   1.357 -0.0481 -0.2144 -0.3162
  887SOL    HW1 2660   1.629   0.399   1.395  1.1954  1.0809 -0.5179
  887SOL    HW2 2661   1.487   0.480   1.342  0.6516  2.0846 -1.4744
  888SOL     OW 2662   2.274   1.502   2.052  0.0563  0.0904 -0.1592
  888SOL    HW1 2663   2.329   1.462   2.128  0.3867  2.0131  1.0718
  888SOL    HW2 2664   2.190   1.445   2.036  0.7644 -0.6411 -2.8894
  889SOL     OW 2665   2.200   1.870   0.916 -0.0046 -0.3504  0.5604
  889SOL    HW1 2666   2.280   1.816   0.959  2.7140 -0.2642  0.2447
  889SOL    HW2 2667   2.222   1.967   0.929 -2.1069 -0.4719  1.3781
  890SOL     OW 2668   1.146   1.837   0.984 -0.7157  0.2106 -0.0852
  890SOL    HW1 2669   1.246   1.848   0.960  1.4218  0.1379 -1.2378
  890SOL    HW2 2670   1.136   1.839   1.087  0.8260 -2.1357 -1.5299
  891SOL     OW 2671   2.542   0.500   2.344 -0.4879  0.1261 -0.1536
  891SOL    HW1 2672   2.643   0.503   2.355  2.3737 -2.2827 -0.5796
  891SOL    HW2 2673   2.521   0.414   2.295 -0.0031  2.4266  0.1675
  892SOL     OW 2674   1.012   0.415   2.192  0.2685  0.4605 -0.2868
  892SOL    HW1 2675   1.067   0.414   2.280  0.7469  2.9820 -1.2182
  892SOL    HW2 2676   0.912   0.422   2.216 -1.5824  1.5292 -1.1281
  893SOL     OW 2677   1.522   0.101   1.379  0.7792 -0.0839 -0.0768
  893SOL    HW1 2678   1.548   0.073   1.475 -2.0564 -0.6769  0.2042
  893SOL    HW2 2679   1.507   0.201   1.378  0.9160  0.8059 -0.0221
  894SOL     OW 2680   2.536   0.660   0.737  1.0365  0.1525  0.5568
  894SOL    HW1 2681   2.466   0.600   0.780  1.7599  3.2346 -2.4120
  894SOL    HW2 2682   2.496   0.721   0.662  1.1290  0.6558 -2.3356
  895SOL     OW 2683   1.911   2.535   2.652  0.3495 -0.1254  0.0321
  895SOL    HW1 2684   1.987   2.519   2.717  1.9240 -1.3782 -2.2362
  895SOL    HW2 2685   1.829   2.575   2.702 -0.8483 -0.1141  3.8806
  896SOL     OW 2686   1.717   2.884   1.550 -0.1552  0.3091  0.5580
  896SOL    HW1 2687   1.631   2.869   1.599  1.0247  2.1970  1.0637
  896SOL    HW2 2688   1.744   2.800   1.496 -1.9987 -1.1186 -1.5351
  897SOL     OW 2689   0.616   1.741   1.715 -0.3993 -0.0579  0.1528
  897SOL    HW1 2690   0.571   1.737   1.804  0.0269  0.3005  1.7661
  897SOL    HW2 2691   0.565   1.808   1.664  4.2144 -1.5419  0.1241
  898SOL     OW 2692   2.322   1.757   1.941 -0.4105  0.0234 -0.2079
  898SOL    HW1 2693   2.304   1.681   2.003  0.9695  0.8257  0.0589
  898SOL    HW2 2694   2.422   1.756   1.910  1.3492  0.4980 -0.1020
  899SOL     OW 2695   1.838   2.280   0.775  0.9875  0.3424 -0.0542
  899SOL    HW1 2696   1.780   2.266   0.690  0.5740 -3.0081 -2.9981
  899SOL    HW2 2697   1.923   2.225   0.757  2.4070 -0.2308 -0.3671
  900SOL     OW 2698   1.150   0.131   3.054 -0.5098 -0.3696 -0.1768
  900SOL    HW1 2699   1.131   0.104   2.960  2.2741 -0.6108 -1.0262
  900SOL    HW2 2700   1.069   0.129   0.007  3.5061 -0.3763  0.8090
  901SOL     OW 2701   1.004   1.819   2.211 -0.2373 -0.7063  0.2958
  901SOL    HW1 2702   0.905   1.812   2.206  1.0412  0.6061  0.5473
  901SOL    HW2 2703   1.047   1.750   2.270  0.2216 -0.3028  2.5668
  902SOL     OW 2704   2.482   0.623   2.969  0.3921  0.5399 -0.5453
  902SOL    HW1 2705   2.533   0.607   2.883  1.5855  3.0075  0.0214
  902SOL    HW2 2706   2.507   0.546   3.033  1.4741 -0.5789 -1.3425
  903SOL     OW 2707   1.980   0.863   2.278  0.3183  0.0632 -0.1611
  903SOL    HW1 2708   2.042   0.795   2.229 -0.7481  2.4319 -0.0471
  903SOL    HW2 2709   1.993   0.848   2.377  2.6279  0.8231 -3.1099
  904SOL     OW 2710   1.637   0.866   1.924 -0.2669 -0.2838  0.0145
  904SOL    HW1 2711   1.695   0.872   1.842 -1.1480 -0.2097 -0.5289
  904SOL    HW2 2712   1.694   0.887   2.009  3.3160  1.9915  2.5185
  905SOL     OW 2713   2.066   0.249   1.645  0.1783 -0.0165 -0.3533
  905SOL    HW1 2714   2.098   0.181   1.579 -1.5654 -1.4160  0.1101
  905SOL    HW2 2715   1.965   0.270   1.649  0.0324  1.0357  1.2893
  906SOL     OW 2716   2.080   1.801   0.375  0.5990 -0.5780 -0.8379
  906SOL    HW1 2717   2.004   1.780   0.443  1.9291 -0.4315 -1.1286
  906SOL    HW2 2718   2.141   1.718   0.373 -0.1861 -1.0826 -1.0156
  907SOL     OW 2719   1.120   2.727   0.834  0.4845 -0.5510 -0.2545
  907SOL    HW1 2720   1.195   2.668   0.797 -2.2911 -2.0855  1.3346
  907SOL    HW2 2721   1.024   2.692   0.818  0.9298  0.7652 -0.8680
  908SOL     OW 2722   1.642   2.166   2.580 -0.8676 -0.7064  0.0813
  908SOL    HW1 2723   1.745   2.184   2.574  1.5000  0.5990 -0.5340
  908SOL    HW2 2724   1.596   2.178   2.490  0.1926 -0.4673 -1.1886
  909SOL     OW 2725   2.249   0.441   2.061 -0.2952  0.2227  0.2518
  909SOL    HW1 2726   2.180   0.504   2.103 -0.3169  0.6489 -0.6016
  909SOL    HW2 2727   2.307   0.490   1.989  0.1454  0.4499 -2.8473
  910SOL     OW 2728   1.102   0.799   2.698 -0.4199 -0.1511 -0.7188
  910SOL    HW1 2729   1.022   0.783   2.756  1.4077 -1.9823 -2.0968
  910SOL    HW2 2730   1.188   0.818   2.757  1.4507 -1.3984  1.7430
  911SOL     OW 2731   3.002   0.900   2.826  0.3231  0.0464  0.1781
  911SOL    HW1 2732   3.038   0.883   2.922  1.3807 -0.9180  2.4187
  911SOL    HW2 2733   2.902   0.911   2.837 -2.2480 -3.1038  3.8919
  912SOL     OW 2734   0.186   2.642   0.589 -0.1545  0.4982 -0.6384
  912SOL    HW1 2735   0.161   2.589   0.503 -2.2487 -0.6523 -0.4126
  912SOL    HW2 2736   0.108   2.635   0.659 -1.2189  0.9459  0.3578
  913SOL     OW 2737   2.499   1.905   2.399 -0.4132 -0.2111 -0.1026
  913SOL    HW1 2738   2.421   1.860   2.357  0.9995 -0.0581 -0.4360
  913SOL    HW2 2739   2.536   1.983   2.340  0.2282  0.9884 -1.0214
  914SOL     OW 2740   1.866   1.218   0.949  0.5275 -0.0860  0.3357
  914SOL    HW1 2741   1.846   1.159   0.870 -0.9451  0.3175 -0.8300
  914SOL    HW2 2742   1.784   1.277   0.973  0.0468  3.5674 -1.0278
  915SOL     OW 2743   0.302   2.565   2.222  0.2154  0.0355  0.0330
  915SOL    HW1 2744   0.325   2.558   2.323  0.1947 -0.2905  1.3137
  915SOL    HW2 2745   0.389   2.580   2.171  0.4531  0.2753 -0.5833
  916SOL     OW 2746   0.853   0.019   1.475 -0.2396  0.0231  0.2115
  916SOL    HW1 2747   0.859   3.106   1.375 -0.0161 -1.6444 -0.7900
  916SOL    HW2 2748   0.944   0.029   1.515 -3.4380  0.2096 -1.4909
  917SOL     OW 2749   2.469   0.737   0.279 -0.1263  0.0579 -0.5314
  917SOL    HW1 2750   2.534   0.810   0.313 -0.9004  0.0557  0.4950
  917SOL    HW2 2751   2.415   0.771   0.200  0.6909 -1.9973  1.0267
  918SOL     OW 2752   1.619   2.308   2.824 -0.1361 -0.0164  0.0122
  918SOL    HW1 2753   1.620   2.406   2.798 -0.2925 -1.5308 -0.8343
  918SOL    HW2 2754   1.599   2.255   2.738  1.5720  1.6912 -1.2430
  919SOL     OW 2755   1.850   2.876   1.235 -0.5720  1.0197  0.2519
  919SOL    HW1 2756   1.764   2.931   1.231  0.1069 -0.2155 -1.4176
  919SOL    HW2 2757   1.841   2.780   1.199 -0.1978  0.8751  0.0684
  920SOL     OW 2758   1.123   0.321   2.446 -0.2273 -0.9854  0.4693
  920SOL    HW1 2759   1.112   0.291   2.546  0.5615 -0.0743  0.5533
  920SOL    HW2 2760   1.158   0.246   2.392  1.5351  4.3398 -1.1633
  921SOL     OW 2761   0.115   0.965   2.668  1.1954  0.4206 -0.2916
  921SOL    HW1 2762   0.063   1.005   2.589 -0.5481 -0.2843 -2.3443
  921SOL    HW2 2763   0.058   0.950   2.751 -0.8905 -2.1613  1.0046
  922SOL     OW 2764   3.042   1.985   1.080  0.2491  0.0793  0.3738
  922SOL    HW1 2765   2.955   2.037   1.066  1.2490  2.2263  1.5248
  922SOL    HW2 2766   3.098   2.016   0.996  2.1989  1.7591 -0.0951
  923SOL     OW 2767   0.489   1.777   1.952 -0.5790 -0.5825 -0.5394
  923SOL    HW1 2768   0.485   1.746   2.049  0.0664 -0.6348  0.8604
  923SOL    HW2 2769   0.432   1.860   1.943 -1.1160 -0.1025  0.7851
  924SOL     OW 2770   1.447   2.812   2.611 -0.1905  0.6709  0.1022
  924SOL    HW1 2771   1.359   2.804   2.665  0.3988  1.5928 -0.3067
  924SOL    HW2 2772   1.527   2.837   2.671 -0.1838  0.0221 -0.4082
  925SOL     OW 2773   2.735   1.740   0.744  0.1672 -0.2412 -0.0719
  925SOL    HW1 2774   2.744   1.676   0.664  0.5585 -0.0588  0.8132
  925SOL    HW2 2775   2.783   1.696   0.818 -2.3297 -0.9909 -3.1839
  926SOL     OW 2776   2.429   0.814   1.028 -0.0519 -0.0410  0.6280
  926SOL    HW1 2777   2.394   0.732   0.974 -1.3693 -2.6385  0.9738
  926SOL    HW2 2778   2.506   0.860   0.988 -1.2088  0.9065  1.7719
  927SOL     OW 2779   1.870   0.134   1.248  0.3073  0.4928  0.4108
  927SOL    HW1 2780   1.889   0.233   1.240  1.6789  0.6496  1.1487
  927SOL    HW2 2781   1.841   0.108   1.344  0.4658 -2.9988  3.7538
  928SOL     OW 2782   0.112   0.845   2.264 -0.4874 -0.2437 -0.3778
  928SOL    HW1 2783   0.044   0.769   2.274  1.3815  0.9541  0.0150
  928SOL    HW2 2784   0.208   0.809   2.276  0.2252  1.7859 -0.5167
  929SOL     OW 2785   2.371   0.981   1.234 -0.6317  0.5511 -0.1897
  929SOL    HW1 2786   2.401   0.914   1.163 -0.1151  4.2001  1.6618
  929SOL    HW2 2787   2.446   1.043   1.262  0.2878 -1.3858 -0.1420
  930SOL     OW 2788   2.400   2.383   1.671  0.6425  0.2118  0.2237
  930SOL    HW1 2789   2.477   2.325   1.698  0.2858  2.4901  1.6383
  930SOL    HW2 2790   2.403   2.410   1.573 -0.3810  1.4265  0.8121
  931SOL     OW 2791   2.142   1.077   1.332 -0.0632  0.1408  0.6176
  931SOL    HW1 2792   2.232   1.044   1.303  1.1376  1.0262 -0.7685
  931SOL    HW2 2793   2.104   1.136   1.255 -0.3805  1.1355 -5.6157
  932SOL     OW 2794   0.346   0.846   1.865 -0.1730 -0.4820 -0.1640
  932SOL    HW1 2795   0.390   0.861   1.773 -0.1838 -1.9110 -0.9980
  932SOL    HW2 2796   0.316   0.932   1.912  0.8326  0.1390 -1.4172
  933SOL     OW 2797   2.303   1.947   1.709 -0.1722 -0.8602  0.4333
  933SOL    HW1 2798   2.390   1.998   1.712  0.5691 -0.5929 -1.1001
  933SOL    HW2 2799   2.306   1.878   1.788  0.3283  0.4671  1.8506
  934SOL     OW 2800   0.833   2.276   1.805  0.6759  0.0403  0.1530
  934SOL    HW1 2801   0.877   2.364   1.832  0.1884 -0.7855 -0.9412
  934SOL    HW2 2802   0.904   2.210   1.770  1.9843  2.1409 -0.1362
  935SOL     OW 2803   0.217   1.529   1.964  0.1890 -0.5309 -0.2793
  935SOL    HW1 2804   0.176   1.438   1.972  0.1813  1.8420 -0.0876
  935SOL    HW2 2805   0.225   1.574   2.053 -1.3075 -0.6992 -0.1695
  936SOL     OW 2806   2.820   0.923   1.264  0.0591 -0.0615 -0.0508
  936SOL    HW1 2807   2.746   0.988   1.287 -0.5440  0.6630  1.2615
  936SOL    HW2 2808   2.779   0.840   1.226 -0.7566  0.8989 -1.2140
  937SOL     OW 2809   1.760   0.457   1.469 -0.4973  0.7729 -0.5480
  937SOL    HW1 2810   1.759   0.551   1.423 -1.9077  1.8747 -0.9954
  937SOL    HW2 2811   1.736   0.478   1.567 -0.2847 -1.8984 -0.8252
  938SOL     OW 2812   0.533   2.857   0.431  0.2987  0.2504  0.1997
  938SOL    HW1 2813   0.581   2.880   0.345 -1.6218 -1.3612  2.6864
  938SOL    HW2 2814   0.567   2.891   0.520 -0.3934 -0.1479  0.3622
  939SOL     OW 2815   2.958   1.950   2.637 -0.0624  0.0541 -0.3316
  939SOL    HW1 2816   2.926   1.883   2.706 -1.1874 -0.8450  0.4756
  939SOL    HW2 2817   2.926   2.042   2.660 -0.7110 -0.6126 -1.1553
  940SOL     OW 2818   1.410   1.925   0.411  0.3365  0.4515 -0.3570
  940SOL    HW1 2819   1.512   1.909   0.421 -0.4957  1.5940 -1.6766
  940SOL    HW2 2820   1.383   2.024   0.391 -0.9187 -2.0888  0.1457
  941SOL     OW 2821   2.171   2.658   0.375  0.6577  0.1065  0.3281
  941SOL    HW1 2822   2.170   2.759   0.377  0.4368 -3.5018  1.1725
  941SOL    HW2 2823   2.216   2.624   0.464  3.3065 -3.3957  0.9641
  942SOL     OW 2824   1.803   1.851   0.820 -0.0655  0.6516  0.2436
  942SOL    HW1 2825   1.782   1.770   0.879 -0.0444 -2.2813 -0.0381
  942SOL    HW2 2826   1.804   1.928   0.889  0.1539  1.2707  0.5284
  943SOL     OW 2827   2.228   0.924   1.659 -0.4421  0.4727  0.3182
  943SOL    HW1 2828   2.247   0.871   1.569  0.6398 -1.6447 -0.1280
  943SOL    HW2 2829   2.167   1.005   1.639 -1.9282  4.0091 -0.7838
  944SOL     OW 2830   1.137   0.777   2.024 -0.8683 -0.7061  0.7620
  944SOL    HW1 2831   1.147   0.679   2.011 -1.9931  3.2750 -2.6278
  944SOL    HW2 2832   1.230   0.817   2.049  0.4937  0.4808  1.4605
  945SOL     OW 2833   2.210   2.681   1.504  0.3410  0.0925  1.2189
  945SOL    HW1 2834   2.307   2.695   1.530  1.1165 -2.2627 -2.2790
  945SOL    HW2 2835   2.149   2.672   1.586 -1.7610  0.1391  0.6026
  946SOL     OW 2836   0.507   1.155   0.711  0.1013 -0.1936  0.1689
  946SOL    HW1 2837   0.504   1.101   0.792 -0.7293  1.2079 -3.0742
  946SOL    HW2 2838   0.580   1.128   0.646  1.3082  1.0918 -1.7753
  947SOL     OW 2839   1.582   2.072   0.867  0.0176 -0.2662  0.6713
  947SOL    HW1 2840   1.521   2.144   0.896  1.8022  1.1631  4.2219
  947SOL    HW2 2841   1.678   2.087   0.902  0.2141  2.2997 -2.9022
  948SOL     OW 2842   0.365   1.463   1.089 -0.4470  0.0825  0.1072
  948SOL    HW1 2843   0.327   1.412   1.167  3.3175  0.5321 -1.3220
  948SOL    HW2 2844   0.287   1.489   1.023 -0.9679  0.3705  0.6643
  949SOL     OW 2845   1.198   1.321   1.490 -0.2399 -0.1566 -0.3929
  949SOL    HW1 2846   1.176   1.353   1.581 -0.3672 -1.3553 -1.0881
  949SOL    HW2 2847   1.141   1.238   1.467 -1.2781  0.8036 -2.8509
  950SOL     OW 2848   0.514   0.680   1.055  0.2506 -0.2359  0.6123
  950SOL    HW1 2849   0.555   0.747   1.122 -0.8394  1.6153  0.3611
  950SOL    HW2 2850   0.414   0.694   1.052 -0.3408 -0.6445  0.8477
  951SOL     OW 2851   0.703   1.898   2.114 -0.2335 -0.1949  0.5775
  951SOL    HW1 2852   0.668   1.804   2.132  0.2048  0.4056 -0.9799
  951SOL    HW2 2853   0.671   1.933   2.026  0.5718 -1.5473 -0.1189
  952SOL     OW 2854   1.015   1.714   0.077  0.4757 -0.1727 -0.1236
  952SOL    HW1 2855   0.977   1.807   0.100  1.4574  0.4962 -2.0523
  952SOL    HW2 2856   1.011   1.641   0.148  0.0323 -0.7618  1.0826
  953SOL     OW 2857   1.078   2.853   3.042  0.3716  0.2699  0.3182
  953SOL    HW1 2858   1.062   2.898   0.021 -1.1774 -1.8942 -1.2560
  953SOL    HW2 2859   1.097   2.752   3.057 -1.1408 -0.6744  1.1009
  954SOL     OW 2860   1.558   1.275   0.182  0.3723 -0.6262 -0.4455
  954SOL    HW1 2861   1.545   1.256   0.081  1.3291 -2.9363  0.8523
  954SOL    HW2 2862   1.550   1.375   0.204 -2.4216  0.5544  0.4510
  955SOL     OW 2863   0.112   2.600   3.022 -0.3475  0.6179  0.5499
  955SOL    HW1 2864   0.137   2.683   3.083 -0.1049  1.5818 -2.7356
  955SOL    HW2 2865   0.045   2.629   2.955  0.7690 -0.4224  1.9630
  956SOL     OW 2866   0.986   0.642   1.328  0.2680  0.1523  0.1825
  956SOL    HW1 2867   1.044   0.652   1.246 -0.1122  2.8974  0.6218
  956SOL    HW2 2868   0.963   0.541   1.329 -1.6063 -2.0058 -1.3129
  957SOL     OW 2869   1.471   1.310   1.448 -0.0797  0.0253 -0.1262
  957SOL    HW1 2870   1.379   1.349   1.466 -0.9807  0.0406  2.3580
  957SOL    HW2 2871   1.497   1.257   1.533  0.2842  0.9092  0.8439
  958SOL     OW 2872   0.495   1.666   1.193  0.2210 -0.4820  0.5659
  958SOL    HW1 2873   0.461   1.567   1.176 -1.8063  0.3769 -1.9106
  958SOL    HW2 2874   0.506   1.713   1.098  0.2939  3.9196 -0.9448
  959SOL     OW 2875   1.632   1.431   1.273 -0.1600  0.0645 -0.3572
  959SOL    HW1 2876   1.618   1.529   1.281  2.5917 -1.3617  1.9144
  959SOL    HW2 2877   1.579   1.371   1.336  0.1244  0.2480  2.3738
  960SOL     OW 2878   0.191   1.083   3.055  0.1644 -0.2176 -0.8410
  960SOL    HW1 2879   0.268   1.089   0.013  1.6217  0.2073  0.5176
  960SOL    HW2 2880   0.209   1.141   2.972  0.5702  2.1334  1.1094
  961SOL     OW 2881   1.118   1.440   1.737 -0.7179  0.1723 -0.0619
  961SOL    HW1 2882   1.089   1.471   1.828 -0.6728  1.3688 -2.8053
  961SOL    HW2 2883   1.098   1.513   1.667  0.2241  0.4041 -0.4757
  962SOL     OW 2884   1.205   1.261   0.896 -0.4124 -0.1946 -0.7191
  962SOL    HW1 2885   1.214   1.361   0.918  1.5949  1.9882  1.2711
  962SOL    HW2 2886   1.134   1.244   0.823 -0.6280 -0.3579  0.7780
  963SOL     OW 2887   1.380   1.740   2.787  0.0807  0.2591  0.4798
  963SOL    HW1 2888   1.435   1.815   2.746  0.7565 -0.1012 -1.4220
  963SOL    HW2 2889   1.438   1.684   2.852  0.8446 -1.7627  0.6678
  964SOL     OW 2890   0.552   0.006   0.251  0.5293  0.2949  0.5164
  964SOL    HW1 2891   0.519   0.088   0.212 -0.5466 -2.5491  0.5943
  964SOL    HW2 2892   0.520   3.035   0.200  0.3518 -0.3303  0.7318
  965SOL     OW 2893   0.393   2.416   0.432  0.3107 -0.0240  0.2978
  965SOL    HW1 2894   0.428   2.321   0.436  0.6567  1.1710  1.8139
  965SOL    HW2 2895   0.290   2.412   0.425  2.0009 -0.4907  0.0179
  966SOL     OW 2896   0.104   1.446   2.714 -0.3573 -0.0202  0.1493
  966SOL    HW1 2897   0.018   1.387   2.696 -1.0560 -0.6528 -0.2635
  966SOL    HW2 2898   0.130   1.466   2.810 -0.6647  1.8161 -1.2345
  967SOL     OW 2899   2.836   2.970   2.370  0.0204  0.6705 -0.3482
  967SOL    HW1 2900   2.765   2.939   2.433 -2.2077  0.6341  2.0932
  967SOL    HW2 2901   2.891   3.042   2.417 -0.0388  5.8964 -1.9053
  968SOL     OW 2902   2.105   0.317   0.427  0.2635 -0.3879  0.3555
  968SOL    HW1 2903   2.092   0.367   0.339 -0.5537  0.4981 -0.2157
  968SOL    HW2 2904   2.124   0.389   0.497  2.0610  1.4935 -1.3414
  969SOL     OW 2905   0.260   1.040   2.029 -0.3028  0.4233 -0.1216
  969SOL    HW1 2906   0.211   1.124   2.035  1.5763 -0.5165 -3.0969
  969SOL    HW2 2907   0.307   1.012   2.112  2.0499 -3.2437  0.2145
  970SOL     OW 2908   2.131   1.708   0.731 -0.1218  0.2265 -0.2105
  970SOL    HW1 2909   2.148   1.783   0.801  0.3004  2.0515 -0.1681
  970SOL    HW2 2910   2.114   1.617   0.775  1.7893 -0.0474  2.2247
  971SOL     OW 2911   2.616   2.916   1.243  0.1472  0.0902  0.0239
  971SOL    HW1 2912   2.529   2.863   1.265  0.6961 -1.1246 -2.7235
  971SOL    HW2 2913   2.612   3.011   1.226  2.4338  0.2611 -2.1728
  972SOL     OW 2914   0.781   2.834   1.619 -0.2407  0.0393 -0.0728
  972SOL    HW1 2915   0.806   2.858   1.715 -0.7988 -0.0251  1.0134
  972SOL    HW2 2916   0.849   2.866   1.550  1.3070 -0.9758  0.0086
  973SOL     OW 2917   0.462   0.314   2.987 -0.2318  0.2435 -0.5775
  973SOL    HW1 2918   0.545   0.365   3.004  1.3611 -4.5022 -2.3467
  973SOL    HW2 2919   0.403   0.354   2.922  1.8023  0.9826  3.0123
  974SOL     OW 2920   1.987   1.537   2.302  0.1207 -0.5098 -0.2206
  974SOL    HW1 2921   1.964   1.461   2.236  3.5342 -0.4467  0.8720
  974SOL    HW2 2922   2.087   1.543   2.321 -1.0186  1.8543  0.0304
  975SOL     OW 2923   0.018   0.041   1.428  0.0293 -0.2394 -0.3314
  975SOL    HW1 2924   0.104   0.045   1.482 -0.3422  0.4325  0.2718
  975SOL    HW2 2925   3.049   0.052   1.497 -1.2832 -1.5529 -0.8995
  976SOL     OW 2926   0.719   2.012   2.394  0.2349  0.1574 -0.3709
  976SOL    HW1 2927   0.654   2.031   2.320 -1.5629  0.0730  1.0999
  976SOL    HW2 2928   0.713   1.912   2.417 -1.2963  1.7061 -0.1483
  977SOL     OW 2929   0.764   2.553   0.560 -0.0315  0.1305  0.3303
  977SOL    HW1 2930   0.698   2.585   0.486 -2.6505 -1.1683 -3.4354
  977SOL    HW2 2931   0.854   2.601   0.544 -0.5016  2.8145 -0.8478
  978SOL     OW 2932   3.013   1.471   2.380 -0.2166  0.2507  0.0973
  978SOL    HW1 2933   0.005   1.479   2.390 -3.1962 -0.0546  1.0567
  978SOL    HW2 2934   2.992   1.373   2.368  1.8127  1.6570 -0.0914
  979SOL     OW 2935   1.670   2.476   1.400 -0.2305 -0.5328  0.1648
  979SOL    HW1 2936   1.732   2.522   1.330  0.8613  1.7935 -1.1734
  979SOL    HW2 2937   1.723   2.455   1.481 -0.3342 -0.2295  0.1351
  980SOL     OW 2938   1.139   1.178   2.781  0.7521  0.3260 -0.1712
  980SOL    HW1 2939   1.170   1.280   2.779  1.5228  2.4339 -0.1377
  980SOL    HW2 2940   1.046   1.163   2.738  2.0163  0.3334 -0.3919
  981SOL     OW 2941   2.458   0.167   1.979  0.0177  0.5402 -0.3561
  981SOL    HW1 2942   2.357   0.179   1.963  0.2839  1.4519  2.0185
  981SOL    HW2 2943   2.509   0.250   1.959 -0.9128 -1.7356  1.3963
  982SOL     OW 2944   0.272   0.450   2.805 -0.0086 -0.3427  0.0519
  982SOL    HW1 2945   0.212   0.514   2.860  0.6701  1.5554 -0.6820
  982SOL    HW2 2946   0.234   0.356   2.804  0.3082  0.3200  1.1000
  983SOL     OW 2947   2.056   1.127   2.302 -0.6965  0.5114 -0.2854
  983SOL    HW1 2948   1.997   1.201   2.267 -0.7439 -0.4304 -0.4401
  983SOL    HW2 2949   2.013   1.030   2.301 -1.2919 -4.5230  1.5377
  984SOL     OW 2950   1.436   0.295   1.687  0.3135 -0.0362 -0.8261
  984SOL    HW1 2951   1.347   0.348   1.697 -0.3200  0.7866 -1.3692
  984SOL    HW2 2952   1.495   0.339   1.615  0.7771  1.0764 -0.0338
  985SOL     OW 2953   1.924   1.637   1.886  0.5344  0.5313 -0.4631
  985SOL    HW1 2954   1.864   1.563   1.935 -2.5324 -1.2646  3.0880
  985SOL    HW2 2955   2.021   1.611   1.878 -0.1622  0.1609  2.0967
  986SOL     OW 2956   2.169   0.778   1.872  0.0282  0.0924 -0.2956
  986SOL    HW1 2957   2.230   0.699   1.852 -0.0920  1.9461  2.4498
  986SOL    HW2 2958   2.196   0.858   1.815  0.9006 -0.5740  2.7037
  987SOL     OW 2959   2.507   0.521   1.254  0.5657  0.3278 -0.0320
  987SOL    HW1 2960   2.514   0.540   1.357 -1.0721  0.7043  3.2734
  987SOL    HW2 2961   2.413   0.482   1.237  0.7635  0.3110 -1.4384
  988SOL     OW 2962   3.033   0.848   2.067  0.1420  0.0356 -0.1232
  988SOL    HW1 2963   2.970   0.776   2.102 -0.4518 -0.0045  1.9889
  988SOL    HW2 2964   0.004   0.865   2.124 -3.5643  0.8463  0.8630
  989SOL     OW 2965   2.185   1.730   3.101 -0.2852 -0.0317 -0.3620
  989SOL    HW1 2966   2.195   1.653   0.059 -1.2776  0.3461  1.3538
  989SOL    HW2 2967   2.242   1.808   0.018 -1.7336  2.6603 -1.8494
  990SOL     OW 2968   0.951   0.344   2.944 -0.4753 -0.5188  0.3697
  990SOL    HW1 2969   1.033   0.396   2.982 -1.3610 -0.5152  0.5207
  990SOL    HW2 2970   0.898   0.297   3.020  1.7614 -2.5136  0.8464
  991SOL     OW 2971   1.269   0.893   0.504  0.0033  0.2440  0.4740
  991SOL    HW1 2972   1.319   0.891   0.414 -0.9556  1.2377  1.7530
  991SOL    HW2 2973   1.321   0.953   0.564 -3.3754 -0.5594 -2.3865
  992SOL     OW 2974   1.818   1.283   0.272 -0.1235 -0.3323  0.0603
  992SOL    HW1 2975   1.848   1.382   0.261 -1.6636  2.8445  1.6730
  992SOL    HW2 2976   1.741   1.257   0.212  0.0624 -0.2532  3.1748
  993SOL     OW 2977   2.996   0.673   0.728  0.8702  0.1707 -0.0621
  993SOL    HW1 2978   3.087   0.661   0.678  1.0907 -2.5367  0.3482
  993SOL    HW2 2979   3.012   0.653   0.825 -1.6226  0.7409 -0.7345
  994SOL     OW 2980   3.065   2.053   2.395 -0.1613 -0.2532  0.0106
  994SOL    HW1 2981   3.034   1.998   2.475  0.4458 -0.6876 -0.9810
  994SOL    HW2 2982   3.080   2.153   2.419  2.6296 -0.9624  0.8735
  995SOL     OW 2983   1.826   1.499   3.032  0.2964  0.5280  0.0190
  995SOL    HW1 2984   1.873   1.413   3.022 -0.4442  1.7994  1.0620
  995SOL    HW2 2985   1.888   1.582   3.028 -1.0601  3.4816 -2.1132
  996SOL     OW 2986   2.207   1.364   3.093  0.0763 -0.3339  0.4358
  996SOL    HW1 2987   2.246   1.440   0.039 -1.5098 -3.2156  0.7561
  996SOL    HW2 2988   2.178   1.286   0.047  0.3239 -1.7790 -0.7509
  997SOL     OW 2989   2.135   1.385   1.655  0.1857  0.0907 -0.1943
  997SOL    HW1 2990   2.118   1.283   1.629 -1.3303 -1.5728 -0.6243
  997SOL    HW2 2991   2.220   1.398   1.712  1.2857  0.7960  1.1156
  998SOL     OW 2992   2.540   1.691   0.207  0.5984 -0.1977 -0.3457
  998SOL    HW1 2993   2.542   1.751   0.121  0.6972 -0.5067 -4.1378
  998SOL    HW2 2994   2.566   1.745   0.287  2.0113 -2.8185 -0.5108
  999SOL     OW 2995   2.664   2.296   0.214  0.6776  0.5337  0.4425
  999SOL    HW1 2996   2.677   2.222   0.145 -1.7792 -0.6592  0.7418
  999SOL    HW2 2997   2.737   2.370   0.213  3.0499  1.2470 -0.8911
 1000SOL     OW 2998   1.026   0.357   1.924  0.1438  0.7109  0.2355
 1000SOL    HW1 2999   1.032   0.392   2.016  0.3694 -1.3529 -0.5224
 1000SOL    HW2 3000   0.933   0.367   1.890  2.3618 -2.0618  1.1458
   3.10914   3.10914   3.10914
