1000 SPC/Fw water molecules t= 288.00000 step= 288000
 3000
    1SOL     OW    1   2.624   2.947   0.956  0.1892  0.3567 -0.3980
    1SOL    HW1    2   2.676   2.949   1.043 -5.6718  0.2396 -2.2083
    1SOL    HW2    3   2.679   2.986   0.878 -0.7981 -0.4365 -2.6905
    2SOL     OW    4   2.613   1.938   0.945 -0.0102  0.4708 -0.3446
    2SOL    HW1    5   2.594   1.890   0.858  0.7194 -1.0111  1.5669
    2SOL    HW2    6   2.702   1.908   0.987 -0.9092 -0.7696  3.2550
    3SOL     OW    7   0.829   2.681   2.717 -0.3889 -0.1474 -0.1948
    3SOL    HW1    8   0.765   2.754   2.676  0.6374  0.6850 -1.9256
    3SOL    HW2    9   0.814   2.592   2.676  1.9124  2.3486 -0.4400
    4SOL     OW   10   1.922   2.215   1.317  0.1492 -0.4915 -0.0012
    4SOL    HW1   11   1.915   2.307   1.365 -2.7568 -1.6172 -0.6049
    4SOL    HW2   12   2.018   2.193   1.291 -2.2582 -0.2793  0.2682
    5SOL     OW   13   1.512   1.068   1.317  0.4793 -0.5293 -0.1006
    5SOL    HW1   14   1.501   1.047   1.218  1.4373 -0.1446 -0.4154
    5SOL    HW2   15   1.599   1.115   1.336 -2.5558 -0.7769 -1.9305
    6SOL     OW   16   2.217   2.919   0.172 -0.3167 -0.3090 -0.8736
    6SOL    HW1   17   2.255   2.826   0.187  1.0835 -4.1497 -2.9604
    6SOL    HW2   18   2.117   2.915   0.144 -0.7812  0.3983 -1.1354
    7SOL     OW   19   2.706   1.166   1.323  0.0080 -0.2442  0.1610
    7SOL    HW1   20   2.790   1.183   1.371 -3.0531  0.6862  0.5592
    7SOL    HW2   21   2.720   1.158   1.221 -1.7382  1.2803  2.3084
    8SOL     OW   22   1.467   2.679   1.129 -0.3147 -0.3981 -0.1700
    8SOL    HW1   23   1.490   2.712   1.031  0.5403 -2.2428 -2.5138
    8SOL    HW2   24   1.381   2.625   1.123  1.0461  0.8622  1.1603
    9SOL     OW   25   1.646   2.971   2.200  0.4571  0.0888 -0.2700
    9SOL    HW1   26   1.737   2.986   2.161 -1.6370 -1.3134 -1.4570
    9SOL    HW2   27   1.582   3.048   2.172  0.8355  0.4343  0.7319
   10SOL     OW   28   0.559   2.042   0.910  0.0857  0.1734 -0.1861
   10SOL    HW1   29   0.577   2.070   0.815 -3.7767  4.9050 -1.3764
   10SOL    HW2   30   0.616   1.965   0.945 -1.4433  0.2482  0.6155
   11SOL     OW   31   1.646   1.547   0.986 -0.6429 -0.0520  0.0688
   11SOL    HW1   32   1.732   1.601   1.014  2.8658 -1.0361  0.1702
   11SOL    HW2   33   1.620   1.482   1.062 -0.3349 -1.9603  1.3070
   12SOL     OW   34   2.660   2.414   1.672  0.4172 -0.0653 -0.0675
   12SOL    HW1   35   2.623   2.513   1.665 -0.4238  3.5138  2.8437
   12SOL    HW2   36   2.762   2.403   1.667  0.9143 -0.4460  2.1754
   13SOL     OW   37   2.137   0.177   0.363  0.2773  0.4451  0.6011
   13SOL    HW1   38   2.043   0.210   0.364  0.6203 -0.1292  0.8780
   13SOL    HW2   39   2.170   0.167   0.457 -2.3189 -0.7826 -4.0236
   14SOL     OW   40   1.951   2.358   0.655  0.0023  0.2738 -0.2371
   14SOL    HW1   41   2.028   2.294   0.644  0.1359 -0.7544  1.4112
   14SOL    HW2   42   1.862   2.310   0.638 -1.8125  1.1372  0.3626
   15SOL     OW   43   2.916   2.296   1.955  0.6188 -0.0584 -0.0290
   15SOL    HW1   44   2.899   2.396   1.935 -0.7421 -0.0459 -3.3866
   15SOL    HW2   45   2.903   2.270   2.055  2.6061 -0.0016  2.9856
   16SOL     OW   46   2.273   2.394   0.571 -0.6897 -0.0205 -0.3666
   16SOL    HW1   47   2.319   2.477   0.544  0.1686  0.1932 -0.4799
   16SOL    HW2   48   2.342   2.328   0.611  3.7113 -1.2972  1.1578
   17SOL     OW   49   0.590   3.000   1.249  0.6953  0.0662  0.4019
   17SOL    HW1   50   0.599   2.906   1.286  0.1921  0.5005 -0.2065
   17SOL    HW2   51   0.682   3.041   1.270  1.3083  0.1975  1.5546
   18SOL     OW   52   1.264   0.987   0.073 -0.3120  0.4642  0.7685
   18SOL    HW1   53   1.199   1.066   0.081 -1.4838 -0.2371 -1.4139
   18SOL    HW2   54   1.216   0.897   0.061 -1.5227 -1.3318  1.5786
   19SOL     OW   55   1.744   1.817   0.294 -0.4345 -0.3766 -0.3845
   19SOL    HW1   56   1.793   1.866   0.221 -2.3491 -0.8012  1.5007
   19SOL    HW2   57   1.674   1.754   0.254  0.6551 -0.4510  0.6843
   20SOL     OW   58   2.493   1.797   2.020 -0.1575  0.7541 -0.2967
   20SOL    HW1   59   2.532   1.892   2.021  1.1832 -0.2095  2.2945
   20SOL    HW2   60   2.394   1.807   2.015  1.3166  2.1452 -1.9533
   21SOL     OW   61   0.844   1.320   0.519 -0.2009  0.1508  0.9579
   21SOL    HW1   62   0.807   1.226   0.521  1.5942  3.0749  1.4137
   21SOL    HW2   63   0.777   1.397   0.491  0.1132  0.3214  0.6820
   22SOL     OW   64   2.175   2.932   1.439 -0.0252 -0.2167  0.1548
   22SOL    HW1   65   2.103   2.926   1.506  0.6512  1.5014  0.6870
   22SOL    HW2   66   2.214   3.024   1.446  0.0285 -1.8712 -1.0322
   23SOL     OW   67   3.047   0.838   1.965 -0.0174 -0.3225  0.1138
   23SOL    HW1   68   2.961   0.784   1.979 -1.3135 -0.0654 -0.3175
   23SOL    HW2   69   0.050   0.807   2.014 -3.6102  0.7559 -1.4476
   24SOL     OW   70   2.381   2.702   0.338 -0.3247 -0.3083 -0.4764
   24SOL    HW1   71   2.401   2.802   0.361 -0.3353  1.6845 -0.7950
   24SOL    HW2   72   2.460   2.653   0.307 -3.3577  1.9210  0.4947
   25SOL     OW   73   1.258   3.008   2.316 -0.0827 -0.3531  0.3412
   25SOL    HW1   74   1.319   2.929   2.302 -2.2538  3.5537  0.7001
   25SOL    HW2   75   1.284   3.054   2.402 -0.0920 -0.1778 -1.9292
   26SOL     OW   76   1.317   2.269   0.248 -0.2677 -0.1442 -0.8653
   26SOL    HW1   77   1.404   2.307   0.206  1.5521 -0.7623 -0.4955
   26SOL    HW2   78   1.240   2.332   0.231 -0.3425  0.5836  0.5305
   27SOL     OW   79   2.364   1.694   0.061 -0.4572 -0.1911  0.1789
   27SOL    HW1   80   2.303   1.747   3.078  0.1011  0.2240 -0.0261
   27SOL    HW2   81   2.402   1.613   0.014  1.0918 -0.6779  0.6081
   28SOL     OW   82   0.283   1.300   1.628  0.1874 -0.2460 -0.1751
   28SOL    HW1   83   0.240   1.279   1.718  0.2174 -0.2940 -1.9157
   28SOL    HW2   84   0.221   1.363   1.578  0.4900 -1.3531 -1.1942
   29SOL     OW   85   2.195   2.374   1.313  0.1066  0.0455  0.1437
   29SOL    HW1   86   2.146   2.322   1.385 -0.1025  0.1685  0.0129
   29SOL    HW2   87   2.276   2.427   1.348  1.1626  0.5669  0.1559
   30SOL     OW   88   1.718   0.557   0.630 -0.0250  0.0925  0.1398
   30SOL    HW1   89   1.758   0.595   0.715  1.9841  1.6854  0.7869
   30SOL    HW2   90   1.616   0.572   0.632  2.8048 -1.7895 -0.1707
   31SOL     OW   91   2.114   2.504   1.729  0.0220  0.1094  0.0633
   31SOL    HW1   92   2.042   2.559   1.680 -0.4460 -0.4938  0.7497
   31SOL    HW2   93   2.127   2.417   1.676 -0.1092  0.9472 -0.7647
   32SOL     OW   94   0.857   1.602   1.146  0.1623 -0.1825 -0.7615
   32SOL    HW1   95   0.819   1.608   1.051 -0.0011  0.3950 -0.2909
   32SOL    HW2   96   0.949   1.643   1.150 -1.7067 -1.0910  2.0586
   33SOL     OW   97   0.323   0.068   2.377  0.0816 -0.3399  0.3078
   33SOL    HW1   98   0.406   0.091   2.432 -0.5872 -3.2265 -1.8271
   33SOL    HW2   99   0.276   0.143   2.328 -1.5193  0.4855 -1.5141
   34SOL     OW  100   1.693   2.679   0.567 -0.0127  0.2650  0.1013
   34SOL    HW1  101   1.700   2.769   0.617  3.2132 -0.3038  0.7260
   34SOL    HW2  102   1.647   2.612   0.634 -0.7597 -2.8553 -0.1540
   35SOL     OW  103   2.032   2.829   1.241 -0.5610 -0.5902  0.2209
   35SOL    HW1  104   2.068   2.766   1.169 -2.1631 -1.3116 -0.1937
   35SOL    HW2  105   2.099   2.865   1.306  0.8618 -0.5148  1.0442
   36SOL     OW  106   1.836   2.488   2.167 -0.0868  0.2869 -0.3739
   36SOL    HW1  107   1.834   2.470   2.266  0.8423 -1.3041 -0.4788
   36SOL    HW2  108   1.889   2.575   2.159 -0.6282 -0.0643 -2.1587
   37SOL     OW  109   0.987   2.940   1.955 -0.4145  0.3127  0.1657
   37SOL    HW1  110   1.030   2.897   1.868  0.5164  1.2600 -1.8129
   37SOL    HW2  111   1.051   3.007   1.998 -1.5728 -2.8071 -1.9134
   38SOL     OW  112   3.078   0.059   2.423 -0.2597  0.5006  0.7806
   38SOL    HW1  113   3.010   0.097   2.489 -0.4823  0.0014 -0.9395
   38SOL    HW2  114   0.092   0.063   2.452 -2.1372 -0.3398  0.9972
   39SOL     OW  115   2.332   0.847   1.512 -0.1307  0.0702 -0.5605
   39SOL    HW1  116   2.399   0.914   1.477 -0.7889 -0.9375  1.7522
   39SOL    HW2  117   2.257   0.828   1.447  4.6754 -0.8210 -0.2155
   40SOL     OW  118   1.216   2.629   0.088  0.1945 -0.7978 -0.0522
   40SOL    HW1  119   1.123   2.676   0.087  0.3103 -0.8636  1.3506
   40SOL    HW2  120   1.293   2.697   0.075  1.3459 -1.0296  0.5038
   41SOL     OW  121   2.272   1.255   0.997 -0.3007  0.2179 -0.1530
   41SOL    HW1  122   2.365   1.216   1.002  2.0373  2.4652 -0.9814
   41SOL    HW2  123   2.237   1.231   0.904  0.1923  0.2885  2.3815
   42SOL     OW  124   0.400   0.374   0.856  0.2842 -0.3091 -0.1231
   42SOL    HW1  125   0.495   0.368   0.821 -1.2985  0.5961  3.2819
   42SOL    HW2  126   0.344   0.412   0.779 -0.3015 -1.4339  0.6595
   43SOL     OW  127   2.825   1.315   2.834 -0.0976 -0.3094  0.4400
   43SOL    HW1  128   2.767   1.271   2.903  1.5396  0.6845  1.8159
   43SOL    HW2  129   2.779   1.322   2.745  1.2731 -0.6185  1.6779
   44SOL     OW  130   2.789   0.182   1.532  0.5405 -0.4566  0.4847
   44SOL    HW1  131   2.834   0.096   1.509 -2.7433  1.3690 -1.0767
   44SOL    HW2  132   2.754   0.180   1.627  2.1466  0.1114  1.7278
   45SOL     OW  133   0.667   0.115   1.781  0.0407  0.4050 -0.3346
   45SOL    HW1  134   0.692   0.080   1.873 -2.0603  0.4051  1.4560
   45SOL    HW2  135   0.588   0.177   1.786 -1.0039  0.5876  0.1868
   46SOL     OW  136   1.476   2.689   2.576 -0.6531  0.4561  0.1835
   46SOL    HW1  137   1.380   2.682   2.545  4.2016  0.1693 -1.2627
   46SOL    HW2  138   1.526   2.772   2.544  0.6244  1.8979 -0.1345
   47SOL     OW  139   1.680   1.767   0.761  0.3295  0.5236 -0.6758
   47SOL    HW1  140   1.602   1.752   0.825 -2.3175 -1.4078  1.5888
   47SOL    HW2  141   1.730   1.853   0.777 -0.1924 -3.6683 -0.6008
   48SOL     OW  142   0.957   2.155   0.529 -0.0108 -0.1409  0.9509
   48SOL    HW1  143   0.935   2.227   0.460  0.0522  1.2274  3.2277
   48SOL    HW2  144   0.874   2.129   0.583  1.4482  0.7522  1.3758
   49SOL     OW  145   2.114   3.048   2.327  0.0593 -0.0599 -0.5052
   49SOL    HW1  146   2.205   3.005   2.349  0.3492 -0.2673  0.4084
   49SOL    HW2  147   2.069   0.011   2.407  2.0898 -2.3219 -3.2339
   50SOL     OW  148   1.851   0.198   0.344  0.1257  0.1215  0.2899
   50SOL    HW1  149   1.835   0.223   0.438  2.1629  1.7946 -2.8167
   50SOL    HW2  150   1.831   0.280   0.285 -0.6021  0.5681  0.2154
   51SOL     OW  151   1.995   0.896   0.619  0.2375  0.3030 -0.2230
   51SOL    HW1  152   2.032   0.986   0.595 -0.7326 -4.9271  2.7058
   51SOL    HW2  153   1.947   0.899   0.709 -0.4129  2.5158  2.4019
   52SOL     OW  154   1.184   1.466   1.424 -0.2315  0.2835 -0.3257
   52SOL    HW1  155   1.147   1.429   1.514  2.4530 -1.1397  3.5938
   52SOL    HW2  156   1.180   1.400   1.347 -2.4055 -0.4973  0.9655
   53SOL     OW  157   0.893   1.636   2.257  0.3321 -0.0001 -0.0755
   53SOL    HW1  158   0.795   1.654   2.261  2.9656  1.4127  2.6598
   53SOL    HW2  159   0.941   1.695   2.191  0.2051 -2.1590 -0.9587
   54SOL     OW  160   2.539   0.243   1.409  0.3005 -0.2558  0.5054
   54SOL    HW1  161   2.632   0.223   1.452  1.8431  0.7439  1.9499
   54SOL    HW2  162   2.514   0.340   1.423  1.3912 -3.9126 -1.1950
   55SOL     OW  163   2.634   1.826   0.652 -0.3919  0.7045 -0.2829
   55SOL    HW1  164   2.687   1.754   0.703  0.7032 -4.3727  0.6851
   55SOL    HW2  165   2.642   1.803   0.552  0.9287 -0.7287 -0.3525
   56SOL     OW  166   1.131   0.253   1.919  0.2641  0.0609 -0.6864
   56SOL    HW1  167   1.064   0.179   1.953 -1.4863 -3.2788 -0.5398
   56SOL    HW2  168   1.206   0.270   1.986  1.0113  1.5483  1.7967
   57SOL     OW  169   1.360   1.460   0.030 -0.1842 -0.2129  0.0822
   57SOL    HW1  170   1.379   1.447   0.132 -1.8709 -1.2214 -0.1004
   57SOL    HW2  171   1.443   1.494   3.054 -0.7050  3.7078  0.6706
   58SOL     OW  172   0.174   1.203   1.862 -0.0414  0.0227 -0.5215
   58SOL    HW1  173   0.077   1.176   1.882  0.6529  0.3392 -1.0588
   58SOL    HW2  174   0.208   1.276   1.924 -0.1561 -2.8699 -2.4665
   59SOL     OW  175   1.376   2.832   0.028 -0.1746  0.5142  0.2952
   59SOL    HW1  176   1.420   2.819   3.015 -0.7823 -0.8172  1.2319
   59SOL    HW2  177   1.373   2.931   0.048 -1.1619  0.0116 -1.3931
   60SOL     OW  178   2.955   2.129   0.298 -0.5068  0.0274  0.4653
   60SOL    HW1  179   2.888   2.083   0.232  0.1733  0.6720 -1.4737
   60SOL    HW2  180   2.906   2.190   0.361  0.9407 -2.6975  1.2837
   61SOL     OW  181   1.199   2.773   0.453 -0.6620  1.1250  0.2860
   61SOL    HW1  182   1.202   2.675   0.492 -0.3095 -4.1386 -0.7268
   61SOL    HW2  183   1.277   2.767   0.385  1.5719  1.9338 -0.6644
   62SOL     OW  184   2.212   2.139   2.554 -1.0379  0.1270 -0.6281
   62SOL    HW1  185   2.192   2.051   2.506  0.1159 -1.7315  0.1809
   62SOL    HW2  186   2.238   2.210   2.486 -1.0313 -1.0803  1.7505
   63SOL     OW  187   2.452   2.233   0.737 -0.1977  0.9555  0.4339
   63SOL    HW1  188   2.405   2.211   0.824  0.4643  1.1802 -1.8255
   63SOL    HW2  189   2.479   2.151   0.686  0.7762 -2.2012 -0.9698
   64SOL     OW  190   1.764   1.142   2.783  0.0393  0.3165 -0.4155
   64SOL    HW1  191   1.681   1.195   2.806  1.3362 -1.6121  0.9597
   64SOL    HW2  192   1.765   1.055   2.839 -2.8776 -2.7619 -1.0923
   65SOL     OW  193   1.444   1.832   2.832 -0.2279  0.1754 -0.6372
   65SOL    HW1  194   1.429   1.842   2.933 -1.6408 -1.4529 -0.0336
   65SOL    HW2  195   1.381   1.760   2.790 -0.1554 -3.0479 -0.6752
   66SOL     OW  196   0.285   1.036   2.077  0.2183 -0.4782  0.3603
   66SOL    HW1  197   0.372   1.066   2.122 -0.4202  0.9925  2.0352
   66SOL    HW2  198   0.263   1.098   2.003  0.2323  1.2893 -0.9975
   67SOL     OW  199   2.387   2.941   3.050 -0.2460  0.1946  0.4669
   67SOL    HW1  200   2.317   2.942   0.046  1.8745  1.0271  1.2005
   67SOL    HW2  201   2.461   3.006   3.064 -0.7448 -2.4034 -2.3228
   68SOL     OW  202   1.139   2.590   1.391 -0.0616  0.2714  0.0427
   68SOL    HW1  203   1.175   2.511   1.443 -0.2874  0.3712 -2.7633
   68SOL    HW2  204   1.188   2.591   1.303 -0.9929  0.4098  2.3452
   69SOL     OW  205   0.771   2.586   0.384  0.0713  0.3544  0.2075
   69SOL    HW1  206   0.692   2.615   0.330  0.7298 -1.4045  1.0972
   69SOL    HW2  207   0.765   2.618   0.481 -1.3577 -1.9107  0.3474
   70SOL     OW  208   2.387   0.268   2.500  0.3422 -0.0660 -0.0604
   70SOL    HW1  209   2.284   0.285   2.508 -0.7965  3.7847 -0.6271
   70SOL    HW2  210   2.430   0.341   2.440  2.7838 -1.8508 -1.8492
   71SOL     OW  211   0.694   1.373   2.475  0.0126 -0.5350  0.6375
   71SOL    HW1  212   0.775   1.430   2.508  0.5907  0.3078  1.1877
   71SOL    HW2  213   0.640   1.334   2.553  3.3460  1.0615 -2.8260
   72SOL     OW  214   0.092   2.255   0.210  0.2500  0.3600 -0.1210
   72SOL    HW1  215   0.062   2.305   0.128  0.0577  1.8588  0.9911
   72SOL    HW2  216   0.015   2.205   0.258  1.4690 -0.8435  0.4958
   73SOL     OW  217   1.087   1.328   0.413  0.3493  0.2757  0.1351
   73SOL    HW1  218   1.087   1.360   0.316 -0.1972  0.7030  0.7235
   73SOL    HW2  219   0.993   1.328   0.454 -2.2999 -1.8455  1.7980
   74SOL     OW  220   2.299   2.822   2.815 -0.0280  0.3986 -0.1144
   74SOL    HW1  221   2.330   2.727   2.811  0.6094  2.3753  2.4979
   74SOL    HW2  222   2.331   2.862   2.902 -0.7040  0.2742 -2.7350
   75SOL     OW  223   2.233   1.741   0.916 -0.1189  0.3961 -0.1797
   75SOL    HW1  224   2.229   1.738   1.018  1.2354  0.1526 -1.2667
   75SOL    HW2  225   2.320   1.698   0.882 -1.8257  1.8208 -0.1508
   76SOL     OW  226   1.863   2.446   1.430 -0.1233  0.6274 -1.0774
   76SOL    HW1  227   1.904   2.518   1.488  0.1029 -0.6065 -1.4439
   76SOL    HW2  228   1.772   2.422   1.465 -0.9037  0.9360 -0.3497
   77SOL     OW  229   2.406   0.261   1.851  0.2823  0.2576  0.4432
   77SOL    HW1  230   2.394   0.364   1.851 -0.6533 -0.3645 -0.3453
   77SOL    HW2  231   2.378   0.233   1.937  2.4109  0.5634 -3.5848
   78SOL     OW  232   1.563   0.845   3.005  0.2702 -0.3625  0.1090
   78SOL    HW1  233   1.553   0.778   0.001  0.2698 -0.8607 -0.6812
   78SOL    HW2  234   1.515   0.813   2.920 -2.6461 -0.4911  0.8872
   79SOL     OW  235   2.341   1.400   2.150  0.9476 -0.0527  0.0249
   79SOL    HW1  236   2.366   1.498   2.127  0.5490  2.0969  1.7571
   79SOL    HW2  237   2.423   1.353   2.190  0.7679  0.3757  0.5452
   80SOL     OW  238   2.024   1.610   1.740 -0.3298 -0.7183  0.4395
   80SOL    HW1  239   2.011   1.521   1.691 -0.4860  0.6430 -0.5171
   80SOL    HW2  240   1.951   1.680   1.720 -0.8905  2.3093 -1.1833
   81SOL     OW  241   1.350   0.682   1.394  0.3442  0.3682  0.2068
   81SOL    HW1  242   1.273   0.634   1.442  1.0915  1.7231 -2.4980
   81SOL    HW2  243   1.344   0.782   1.409 -1.2133  1.1872 -0.4480
   82SOL     OW  244   1.617   2.670   1.587 -0.0359  0.0410 -0.1462
   82SOL    HW1  245   1.594   2.578   1.556  1.4936  4.3492 -0.5105
   82SOL    HW2  246   1.602   2.741   1.522  0.3108 -2.9981  2.6149
   83SOL     OW  247   0.215   2.925   0.458 -0.3075 -0.3447 -0.2832
   83SOL    HW1  248   0.273   2.910   0.541  0.6734  1.7929  0.5597
   83SOL    HW2  249   0.135   2.988   0.470 -2.7313  0.5527  0.1265
   84SOL     OW  250   0.508   1.227   3.062 -0.5995 -0.0044  0.0483
   84SOL    HW1  251   0.436   1.257   2.996 -0.8607 -5.2064 -1.4081
   84SOL    HW2  252   0.465   1.214   0.078 -0.6325  2.0375 -0.4012
   85SOL     OW  253   2.605   1.971   1.736 -0.5265 -0.4189  0.5913
   85SOL    HW1  254   2.571   1.880   1.714  1.2579  1.4798  2.3261
   85SOL    HW2  255   2.581   1.997   1.836  0.7536 -1.3117  1.4843
   86SOL     OW  256   0.044   2.680   1.571  0.3784  0.0080 -0.3327
   86SOL    HW1  257   3.025   2.649   1.559 -0.5074 -0.6015 -0.0575
   86SOL    HW2  258   0.098   2.653   1.490 -0.2694  0.6577  1.5866
   87SOL     OW  259   0.742   0.313   2.509 -0.3838  0.2944 -0.3598
   87SOL    HW1  260   0.820   0.244   2.487  2.9973 -2.1630 -2.5349
   87SOL    HW2  261   0.668   0.270   2.566  0.4747  1.0307  0.3397
   88SOL     OW  262   0.453   2.138   1.141  0.6886 -0.2711  0.1601
   88SOL    HW1  263   0.514   2.091   1.073  1.3322  0.1291 -0.2736
   88SOL    HW2  264   0.508   2.153   1.227  0.8688 -0.3674  0.8516
   89SOL     OW  265   0.964   0.765   1.427 -0.1460  0.3272  0.4362
   89SOL    HW1  266   1.016   0.686   1.464 -0.4738  0.5006 -1.1831
   89SOL    HW2  267   0.874   0.765   1.468  3.0338  1.6308 -0.2496
   90SOL     OW  268   2.872   1.504   1.600  0.2920 -0.6442  0.2317
   90SOL    HW1  269   2.810   1.543   1.529  1.0286  0.5628 -2.5263
   90SOL    HW2  270   2.955   1.560   1.611 -3.6435 -2.1169  3.3413
   91SOL     OW  271   1.196   1.091   1.031 -0.3105  0.3637  0.0352
   91SOL    HW1  272   1.152   1.170   0.987 -1.1557  0.0998 -0.0052
   91SOL    HW2  273   1.238   1.029   0.962 -1.2423 -0.3620  0.1325
   92SOL     OW  274   2.580   0.634   0.998  0.8210 -0.4093 -0.5099
   92SOL    HW1  275   2.502   0.670   1.055  0.7332 -0.9654  3.1993
   92SOL    HW2  276   2.556   0.648   0.902 -1.0214  1.1032  1.6345
   93SOL     OW  277   1.845   0.747   2.838 -0.3905  0.1367 -0.1209
   93SOL    HW1  278   1.777   0.685   2.876  0.2190  1.9993 -1.9865
   93SOL    HW2  279   1.847   0.761   2.736  0.8903 -0.2858 -0.9722
   94SOL     OW  280   2.288   1.627   2.366  0.0541 -0.6653 -0.1417
   94SOL    HW1  281   2.254   1.662   2.272  0.4219 -0.0744 -0.7240
   94SOL    HW2  282   2.388   1.633   2.364 -0.8614  1.8926 -2.0784
   95SOL     OW  283   1.935   0.622   1.249  0.2746  0.0815  0.5334
   95SOL    HW1  284   1.841   0.665   1.255 -1.0506 -0.1089  0.5267
   95SOL    HW2  285   1.947   0.559   1.166  0.8965 -1.1676 -1.4043
   96SOL     OW  286   2.500   3.068   2.147 -0.1744  0.1902  0.3595
   96SOL    HW1  287   2.515   3.019   2.057 -0.9614  0.0517 -1.0528
   96SOL    HW2  288   2.590   0.019   2.183  1.1098  0.1116 -1.8458
   97SOL     OW  289   2.271   0.461   1.381  0.3489  0.0199  0.1022
   97SOL    HW1  290   2.348   0.488   1.436 -2.6151 -1.8353 -3.0827
   97SOL    HW2  291   2.175   0.472   1.422 -2.2551 -1.2922 -0.1409
   98SOL     OW  292   1.594   2.403   1.494 -0.0134 -0.0725 -0.1180
   98SOL    HW1  293   1.614   2.332   1.561  1.7197  1.0831 -0.4978
   98SOL    HW2  294   1.531   2.364   1.428 -0.4601  1.1488  0.7451
   99SOL     OW  295   2.341   2.105   1.582 -0.3111 -0.7203 -0.4261
   99SOL    HW1  296   2.435   2.116   1.555 -2.6937  1.0271 -2.7108
   99SOL    HW2  297   2.295   2.068   1.496 -1.5687  0.6367 -2.3195
  100SOL     OW  298   0.604   0.992   2.756  0.4390  0.9993 -0.7534
  100SOL    HW1  299   0.507   1.015   2.732  1.1007  1.3624 -1.2754
  100SOL    HW2  300   0.622   0.979   2.857  2.0398  0.9446 -0.4780
  101SOL     OW  301   2.027   0.399   2.769 -0.4886 -0.4212  0.2946
  101SOL    HW1  302   2.066   0.336   2.837 -2.0722  1.4606  2.2140
  101SOL    HW2  303   2.040   0.492   2.805 -0.4746  0.3686 -0.8126
  102SOL     OW  304   0.287   0.907   1.776  0.0296  0.4340  0.1590
  102SOL    HW1  305   0.227   0.988   1.800  1.1786  2.6564 -2.9810
  102SOL    HW2  306   0.332   0.861   1.859 -0.4979 -0.4408 -0.2860
  103SOL     OW  307   2.888   0.524   2.763 -0.0249 -0.1020  0.5789
  103SOL    HW1  308   2.982   0.515   2.797 -2.8214 -1.0737 -0.4200
  103SOL    HW2  309   2.895   0.539   2.658 -0.0181  0.5958  0.0339
  104SOL     OW  310   0.775   0.528   2.710  0.0758  0.8715  0.1843
  104SOL    HW1  311   0.713   0.600   2.676 -0.3808  0.0378 -1.5314
  104SOL    HW2  312   0.771   0.447   2.648  0.9796  0.0242 -0.1102
  105SOL     OW  313   2.237   1.761   1.637  0.5049  0.1110  0.4081
  105SOL    HW1  314   2.188   1.677   1.676 -1.3961  0.9166  2.3157
  105SOL    HW2  315   2.162   1.832   1.614  2.4080  1.8103  1.5929
  106SOL     OW  316   2.096   0.643   0.676  0.4304 -0.0819  0.4855
  106SOL    HW1  317   2.023   0.569   0.668 -1.1120  0.5846  2.0467
  106SOL    HW2  318   2.066   0.737   0.651 -2.2289 -0.6593 -0.6999
  107SOL     OW  319   3.019   1.773   0.692 -0.2206 -0.4157 -0.3276
  107SOL    HW1  320   3.078   1.812   0.766 -0.2554  1.6768 -2.4205
  107SOL    HW2  321   3.015   1.848   0.621  1.7458  1.3803 -1.1215
  108SOL     OW  322   2.641   2.698   1.655  0.1258 -0.3328  0.0693
  108SOL    HW1  323   2.650   2.794   1.693 -1.5627 -0.8446  1.9879
  108SOL    HW2  324   2.662   2.701   1.558  1.1033  2.2268  0.5689
  109SOL     OW  325   1.859   0.028   0.870  0.1974  0.2559 -0.3918
  109SOL    HW1  326   1.851   3.071   0.774 -1.7226 -2.2656  0.0806
  109SOL    HW2  327   1.949   0.005   0.909 -1.4178 -0.2013 -1.3950
  110SOL     OW  328   0.550   2.049   2.733 -0.0074 -0.5712 -0.0766
  110SOL    HW1  329   0.517   1.950   2.732 -1.7941 -0.9901  3.4735
  110SOL    HW2  330   0.618   2.063   2.660 -1.4121  1.1970  1.2300
  111SOL     OW  331   1.467   2.509   2.072 -0.5777  0.4478 -0.3631
  111SOL    HW1  332   1.515   2.487   1.979  1.5295  1.7814 -1.0763
  111SOL    HW2  333   1.530   2.564   2.133  1.7487  0.6979  2.0943
  112SOL     OW  334   2.030   2.304   3.023  0.0430  0.4790  0.9629
  112SOL    HW1  335   2.025   2.370   0.021 -1.4093 -2.1097  0.8497
  112SOL    HW2  336   1.945   2.309   2.968  0.8370 -1.7267 -0.4530
  113SOL     OW  337   1.386   2.225   1.312  0.5686 -0.3598 -0.4662
  113SOL    HW1  338   1.429   2.262   1.229 -1.8101 -0.6122  3.4243
  113SOL    HW2  339   1.418   2.131   1.341 -0.6944 -0.8461 -2.1603
  114SOL     OW  340   3.042   0.986   0.755  0.0331 -0.0266 -0.0796
  114SOL    HW1  341   2.972   0.999   0.835 -1.9316 -1.5394 -1.2518
  114SOL    HW2  342   3.013   0.908   0.696 -0.4926 -0.7351 -1.2211
  115SOL     OW  343   0.624   0.991   3.021 -0.0387 -0.0193  0.2281
  115SOL    HW1  344   0.569   1.076   3.009 -0.8688 -0.0637 -1.0019
  115SOL    HW2  345   0.566   0.906   3.036 -0.3959  1.0052  1.3154
  116SOL     OW  346   2.533   1.304   2.324  0.1160  0.3003  0.5319
  116SOL    HW1  347   2.464   1.313   2.400 -0.8332  0.9447  3.1050
  116SOL    HW2  348   2.578   1.209   2.330  1.1436 -0.8377 -1.2125
  117SOL     OW  349   0.497   2.631   0.620  0.7159 -0.0170 -1.0024
  117SOL    HW1  350   0.473   2.677   0.713  1.5336  0.0182 -1.4536
  117SOL    HW2  351   0.446   2.541   0.611 -0.1802  2.1507  2.5421
  118SOL     OW  352   0.683   1.902   2.328 -0.3847  0.2440  0.2482
  118SOL    HW1  353   0.672   1.911   2.428  0.8135 -0.6228 -0.5868
  118SOL    HW2  354   0.782   1.907   2.306  0.4856 -1.7169  0.4070
  119SOL     OW  355   0.116   2.414   2.676 -0.5234  0.1738  0.1408
  119SOL    HW1  356   0.050   2.336   2.676  1.0016 -1.8650 -2.9052
  119SOL    HW2  357   0.202   2.394   2.727 -2.9262 -0.4343  0.5207
  120SOL     OW  358   1.159   0.622   3.076 -0.3251  0.5353  0.8504
  120SOL    HW1  359   1.146   0.700   3.010 -4.0074  0.8607  2.4520
  120SOL    HW2  360   1.079   0.559   3.067  0.3587 -1.0322 -0.1045
  121SOL     OW  361   1.204   2.918   1.054  0.4482  0.1281 -0.0864
  121SOL    HW1  362   1.198   2.836   0.997  0.2758  0.6751  1.4184
  121SOL    HW2  363   1.298   2.948   1.045 -0.7710 -0.0312 -0.4983
  122SOL     OW  364   2.391   2.466   1.511  0.1093 -0.7903  0.2441
  122SOL    HW1  365   2.325   2.456   1.587 -1.4195 -0.3305 -3.3124
  122SOL    HW2  366   2.401   2.566   1.483  2.0368  1.8578  0.2786
  123SOL     OW  367   0.700   2.384   0.742 -0.5342  0.5599 -0.2359
  123SOL    HW1  368   0.698   2.471   0.693 -0.7942 -2.5310  2.5994
  123SOL    HW2  369   0.617   2.369   0.800  1.3863  0.2889 -2.0891
  124SOL     OW  370   2.044   0.632   0.286 -0.1582  0.1206  0.3663
  124SOL    HW1  371   1.957   0.657   0.241  0.5589  0.5778  2.7943
  124SOL    HW2  372   2.099   0.572   0.224  3.0462 -0.9121 -0.4892
  125SOL     OW  373   0.454   0.991   0.355  0.5905  0.4568  0.2352
  125SOL    HW1  374   0.400   0.942   0.423  0.7117  0.9951 -0.0385
  125SOL    HW2  375   0.554   0.985   0.381 -0.6590 -2.5897 -1.5775
  126SOL     OW  376   0.044   1.521   0.613  0.0373 -0.1694 -0.1162
  126SOL    HW1  377   3.065   1.464   0.673 -0.5423 -0.1430 -1.4963
  126SOL    HW2  378   0.015   1.616   0.632  0.4344 -1.7157  0.4494
  127SOL     OW  379   0.465   2.020   2.190 -0.1119  0.2803  0.3226
  127SOL    HW1  380   0.456   1.931   2.143 -0.1844  1.6812 -0.7812
  127SOL    HW2  381   0.564   2.045   2.196 -0.9299  0.5286 -0.3679
  128SOL     OW  382   0.912   1.032   2.924 -0.5880 -0.0223 -0.5739
  128SOL    HW1  383   0.896   1.023   2.823  0.2925 -0.5671  2.4012
  128SOL    HW2  384   0.822   1.045   2.970  2.0108  0.5158 -0.8977
  129SOL     OW  385   2.499   1.394   0.599 -0.2988 -0.1702 -0.1174
  129SOL    HW1  386   2.416   1.445   0.633 -1.8177 -0.8973  2.1060
  129SOL    HW2  387   2.566   1.453   0.547 -0.5817  0.5289 -1.7103
  130SOL     OW  388   2.225   1.144   1.408 -0.0662  0.1685  0.6258
  130SOL    HW1  389   2.228   1.073   1.482  0.0799 -3.5245  0.1220
  130SOL    HW2  390   2.243   1.239   1.438 -1.6824  3.1117  0.6113
  131SOL     OW  391   3.074   2.878   2.943  0.3460 -0.2940  0.1311
  131SOL    HW1  392   0.072   2.902   2.877 -0.5316 -1.5062 -0.4128
  131SOL    HW2  393   0.006   2.923   3.035  0.8157  0.1517 -0.5641
  132SOL     OW  394   0.311   1.707   1.120  0.6992 -0.8790  0.3687
  132SOL    HW1  395   0.377   1.694   1.042 -1.0076  0.9996  1.7450
  132SOL    HW2  396   0.263   1.799   1.103 -0.5309  1.2307  0.2356
  133SOL     OW  397   0.802   0.389   1.373 -0.1082 -0.5825 -0.6644
  133SOL    HW1  398   0.828   0.354   1.467 -0.3324 -0.9416  1.3775
  133SOL    HW2  399   0.722   0.449   1.375  0.6878 -0.7089 -2.2338
  134SOL     OW  400   0.052   2.006   0.067  0.0374  0.6589  0.1944
  134SOL    HW1  401   0.010   1.997   3.052  1.6169  0.3218 -1.9991
  134SOL    HW2  402   0.034   2.099   0.107  1.5348  1.2930  0.4688
  135SOL     OW  403   1.662   0.833   1.592 -0.0988  0.2927 -0.0242
  135SOL    HW1  404   1.721   0.876   1.518 -0.0472 -0.9957 -1.1802
  135SOL    HW2  405   1.631   0.740   1.558  0.2939 -5.0031  0.5816
  136SOL     OW  406   0.117   1.284   0.340 -0.2396 -0.0164 -0.4000
  136SOL    HW1  407   0.069   1.376   0.344  0.9361  1.0490 -0.0534
  136SOL    HW2  408   0.086   1.234   0.422 -0.3798  2.8992  1.7492
  137SOL     OW  409   0.023   1.229   1.016  0.1551 -0.0008  0.6061
  137SOL    HW1  410   0.089   1.156   1.049 -1.5560  1.7019 -2.7817
  137SOL    HW2  411   0.063   1.320   1.038  2.0614  0.9422  1.8809
  138SOL     OW  412   1.869   0.864   0.855  0.1546  0.1684  0.7105
  138SOL    HW1  413   1.853   0.766   0.863  0.7495  0.0988  1.2331
  138SOL    HW2  414   1.878   0.904   0.949  0.5159 -0.8121  3.8998
  139SOL     OW  415   1.848   2.671   0.195  0.2592 -0.3513  0.3999
  139SOL    HW1  416   1.774   2.743   0.202  1.0778  1.6226  0.8875
  139SOL    HW2  417   1.867   2.627   0.283  0.1977  1.2696 -2.0776
  140SOL     OW  418   1.437   1.562   1.471 -0.4546  0.2418 -0.3003
  140SOL    HW1  419   1.472   1.474   1.514 -0.8315 -2.5114  0.5795
  140SOL    HW2  420   1.331   1.550   1.470 -3.6086 -1.4076 -1.8294
  141SOL     OW  421   1.606   1.892   0.505  0.0219  0.1318 -0.5486
  141SOL    HW1  422   1.675   1.863   0.436 -1.9866  0.2195  0.4485
  141SOL    HW2  423   1.624   1.835   0.592  1.1519 -2.5444  2.6504
  142SOL     OW  424   0.916   0.483   0.076  0.0962 -1.0318 -0.0605
  142SOL    HW1  425   0.932   0.390   0.120 -0.0894 -0.6858 -0.2643
  142SOL    HW2  426   0.877   0.549   0.146  0.1052  0.4410  1.3638
  143SOL     OW  427   0.352   2.395   2.882  0.2662  0.0973 -0.1784
  143SOL    HW1  428   0.343   2.299   2.852  0.5565 -0.6899 -0.2822
  143SOL    HW2  429   0.331   2.401   2.980 -0.7253 -1.0067 -1.2802
  144SOL     OW  430   1.449   3.040   1.054 -0.2076  0.8174 -0.6549
  144SOL    HW1  431   1.426   0.031   1.125 -0.7816 -0.9618  1.8368
  144SOL    HW2  432   1.551   3.037   1.061  2.4646  2.5560  1.2575
  145SOL     OW  433   2.040   1.282   0.158 -0.0762 -0.3720 -0.2320
  145SOL    HW1  434   2.035   1.216   0.236  1.6081  1.9216  3.9600
  145SOL    HW2  435   1.951   1.298   0.117  0.4470 -2.9375 -2.0619
  146SOL     OW  436   0.125   2.253   0.933  0.4960 -0.4173 -0.6820
  146SOL    HW1  437   0.048   2.193   0.906 -0.2095 -0.5037  1.3102
  146SOL    HW2  438   0.093   2.329   0.998  0.9537  0.7581 -0.2741
  147SOL     OW  439   2.349   0.073   1.461 -0.3415 -0.1405 -0.1599
  147SOL    HW1  440   2.411   3.077   1.498 -1.1023 -0.8729  0.8779
  147SOL    HW2  441   2.402   0.154   1.430  1.4733 -2.7587  1.8495
  148SOL     OW  442   1.285   2.987   1.902 -0.4879 -0.2373  0.3622
  148SOL    HW1  443   1.257   2.990   1.802  1.4436 -0.5770  2.5650
  148SOL    HW2  444   1.282   2.891   1.942 -0.7544 -1.0812  2.2240
  149SOL     OW  445   1.840   0.308   2.194  0.0215 -0.2969 -0.3811
  149SOL    HW1  446   1.924   0.360   2.224 -0.6308  0.0383  3.1197
  149SOL    HW2  447   1.772   0.365   2.146 -0.8196 -0.6023 -0.9605
  150SOL     OW  448   0.226   2.669   0.397 -0.2692 -0.3075  0.3637
  150SOL    HW1  449   0.222   2.771   0.408  0.3889  1.5302  0.8079
  150SOL    HW2  450   0.173   2.649   0.314  1.2884 -0.7738  0.3601
  151SOL     OW  451   0.349   2.324   0.127 -0.2419  0.4638 -0.0324
  151SOL    HW1  452   0.383   2.406   0.169 -3.6947 -0.3828 -0.5978
  151SOL    HW2  453   0.257   2.302   0.166 -2.2306 -0.1834  1.1125
  152SOL     OW  454   2.850   3.037   0.805  0.4224  0.0204  0.0524
  152SOL    HW1  455   2.923   2.963   0.810 -1.3127  1.1950 -0.6785
  152SOL    HW2  456   2.879   0.038   0.859 -0.2932 -0.6098  0.2616
  153SOL     OW  457   2.525   0.140   0.995 -0.0356 -0.3323 -0.3505
  153SOL    HW1  458   2.478   0.081   0.924 -0.1252 -0.9847 -2.6185
  153SOL    HW2  459   2.560   0.226   0.957  0.3365  2.3919  1.4862
  154SOL     OW  460   0.612   0.529   2.082  0.1929 -0.3495 -0.0902
  154SOL    HW1  461   0.697   0.583   2.069 -1.1365 -1.3505 -0.6122
  154SOL    HW2  462   0.617   0.469   2.160 -3.7862  1.0819 -1.5190
  155SOL     OW  463   0.036   1.155   1.352  0.5403  0.1242 -0.0066
  155SOL    HW1  464   0.026   1.087   1.278  0.1297  0.8785  1.6307
  155SOL    HW2  465   0.119   1.212   1.334 -1.5243 -0.9694  1.3236
  156SOL     OW  466   2.595   2.204   2.936  0.2235 -0.1092  0.2872
  156SOL    HW1  467   2.515   2.180   2.991  1.8904 -0.3306  1.0561
  156SOL    HW2  468   2.580   2.196   2.837 -2.4022 -1.8766  0.3477
  157SOL     OW  469   0.746   0.724   0.175  0.0157 -0.2558  0.3991
  157SOL    HW1  470   0.733   0.725   0.274 -0.0818  0.3090 -1.7549
  157SOL    HW2  471   0.798   0.807   0.146  0.2447  1.9314  1.6129
  158SOL     OW  472   2.427   3.071   2.546 -0.9004  0.7089 -0.3159
  158SOL    HW1  473   2.523   3.039   2.543 -2.1765  1.1583 -1.2973
  158SOL    HW2  474   2.418   0.092   2.535  0.6574  2.2913 -0.3664
  159SOL     OW  475   0.632   0.224   0.501 -0.5612 -0.3175  0.2297
  159SOL    HW1  476   0.629   0.126   0.520  0.6113  2.8111 -0.3868
  159SOL    HW2  477   0.726   0.257   0.522  0.9137  2.0001  0.1574
  160SOL     OW  478   1.304   1.662   2.677  0.1735  0.1288 -0.2255
  160SOL    HW1  479   1.310   1.686   2.582 -0.1853  0.3603  1.3832
  160SOL    HW2  480   1.302   1.559   2.691  0.3025 -1.0037 -0.0921
  161SOL     OW  481   3.070   1.132   2.549  0.4835 -0.7230 -0.0090
  161SOL    HW1  482   3.009   1.192   2.492 -1.2663  1.7429 -0.3198
  161SOL    HW2  483   3.021   1.078   2.618 -0.7385 -0.6719  3.1872
  162SOL     OW  484   0.555   2.434   1.378 -0.4246  0.1509  0.0326
  162SOL    HW1  485   0.468   2.480   1.413 -0.1790 -3.7593  0.7718
  162SOL    HW2  486   0.552   2.335   1.387  2.1558  1.7159  1.2523
  163SOL     OW  487   2.304   0.146   2.096 -0.3405 -0.3550  0.1922
  163SOL    HW1  488   2.370   0.069   2.113  0.3092  0.0892  1.7928
  163SOL    HW2  489   2.212   0.125   2.136 -1.5990 -0.5034  1.7982
  164SOL     OW  490   2.323   1.244   0.434  0.3851 -0.4908  0.1897
  164SOL    HW1  491   2.394   1.307   0.471 -2.9982  0.3498 -2.5146
  164SOL    HW2  492   2.272   1.292   0.353 -3.2685  1.9503 -4.1974
  165SOL     OW  493   0.217   0.451   1.586  0.3218 -0.5263  0.4543
  165SOL    HW1  494   0.257   0.504   1.663 -0.6001 -0.5106 -2.4884
  165SOL    HW2  495   0.287   0.392   1.538  2.9370 -0.3226 -0.3007
  166SOL     OW  496   1.952   1.068   0.291  0.4352 -0.1785  0.1598
  166SOL    HW1  497   1.899   0.989   0.325 -1.1543  2.8625  0.7298
  166SOL    HW2  498   1.972   1.054   0.191 -1.2761 -1.4417 -1.1724
  167SOL     OW  499   0.173   0.688   0.563  0.3555 -0.5418  0.0597
  167SOL    HW1  500   0.194   0.675   0.464 -0.4792 -0.4932  2.4350
  167SOL    HW2  501   0.232   0.762   0.604 -0.4890  1.3486 -0.0999
  168SOL     OW  502   1.617   2.694   2.229  0.5297 -0.0167  0.2755
  168SOL    HW1  503   1.675   2.757   2.173  0.9710 -0.5380  0.1980
  168SOL    HW2  504   1.551   2.746   2.288  1.3687 -0.7191  2.0419
  169SOL     OW  505   0.873   1.374   0.777 -0.6309  0.2190 -0.2677
  169SOL    HW1  506   0.886   1.372   0.675 -0.5808 -0.9591 -0.8676
  169SOL    HW2  507   0.785   1.329   0.801 -0.5608  1.2113 -0.5525
  170SOL     OW  508   3.013   0.607   1.212 -0.1330  0.0504  0.3297
  170SOL    HW1  509   3.046   0.618   1.115 -0.1236 -0.0357 -0.3947
  170SOL    HW2  510   2.929   0.554   1.216  1.5073  1.9520  2.0680
  171SOL     OW  511   1.276   2.166   2.662 -0.7151  0.0846  0.1992
  171SOL    HW1  512   1.201   2.137   2.726 -2.1727 -0.7408  1.7461
  171SOL    HW2  513   1.336   2.240   2.699  0.2062 -1.5243  1.1998
  172SOL     OW  514   0.118   2.874   1.259 -0.7208  0.5753  0.1790
  172SOL    HW1  515   0.188   2.822   1.202  1.2327 -6.0140 -1.2741
  172SOL    HW2  516   0.117   2.976   1.242 -0.8723  0.5395  1.2752
  173SOL     OW  517   1.480   0.746   2.768 -0.5820  0.0919 -0.0918
  173SOL    HW1  518   1.507   0.651   2.794 -0.3809  1.4152  0.8233
  173SOL    HW2  519   1.531   0.772   2.679 -1.2641  0.3615 -3.6651
  174SOL     OW  520   1.701   2.778   2.925 -0.0438 -0.1790  0.1212
  174SOL    HW1  521   1.603   2.783   2.893  2.7594 -0.8580 -0.1084
  174SOL    HW2  522   1.736   2.691   2.961 -1.7196  0.6158 -0.0082
  175SOL     OW  523   2.086   2.297   0.409  0.2925  0.8641 -0.1431
  175SOL    HW1  524   2.081   2.202   0.451 -2.1002 -0.8760 -0.7864
  175SOL    HW2  525   2.153   2.353   0.456 -0.7343  1.4006 -2.5897
  176SOL     OW  526   1.792   3.027   2.974  0.4270  0.6634  0.0656
  176SOL    HW1  527   1.740   2.942   2.958 -0.5547  2.5388  0.1223
  176SOL    HW2  528   1.839   3.063   2.887 -0.5985  0.8265  0.1686
  177SOL     OW  529   1.036   1.792   0.706 -0.2157  0.2609 -0.4946
  177SOL    HW1  530   0.938   1.793   0.687  3.5242 -2.3459  0.9326
  177SOL    HW2  531   1.092   1.834   0.633 -1.8760  0.4623  0.7695
  178SOL     OW  532   2.690   2.382   0.080 -0.3678 -0.2158  0.1938
  178SOL    HW1  533   2.689   2.330   3.072  1.0342  2.1588  2.7767
  178SOL    HW2  534   2.633   2.330   0.147  1.2448  1.2029  1.3243
  179SOL     OW  535   0.229   2.951   2.733  0.0251  0.0784  0.0627
  179SOL    HW1  536   0.198   3.021   2.667  0.6888 -2.9946 -3.1597
  179SOL    HW2  537   0.272   2.870   2.688  2.6601  0.2273 -1.1498
  180SOL     OW  538   1.700   1.208   0.783 -0.3408 -0.5781  0.0196
  180SOL    HW1  539   1.616   1.227   0.838  0.7898  1.0669 -1.1193
  180SOL    HW2  540   1.692   1.114   0.751  2.1174 -1.0646 -0.5488
  181SOL     OW  541   1.903   0.950   2.024 -0.2746 -0.4408  0.2882
  181SOL    HW1  542   1.864   0.931   2.118 -0.8642 -1.3398  1.1736
  181SOL    HW2  543   1.838   0.921   1.952  0.8048 -1.2876  0.1427
  182SOL     OW  544   2.688   2.958   2.503  0.0551  0.3662 -0.7344
  182SOL    HW1  545   2.745   2.913   2.434  2.4507  0.1080 -1.1200
  182SOL    HW2  546   2.666   2.899   2.589 -3.9849 -0.3994  1.2067
  183SOL     OW  547   1.387   0.736   2.124  0.2610 -0.5309  0.3303
  183SOL    HW1  548   1.427   0.813   2.075 -1.7342  0.0307  0.1908
  183SOL    HW2  549   1.372   0.659   2.060 -0.0274 -1.9368  1.3156
  184SOL     OW  550   0.321   1.083   1.454 -0.2658  0.0931  0.2329
  184SOL    HW1  551   0.282   1.160   1.507  2.4607  3.4020  1.8700
  184SOL    HW2  552   0.292   0.995   1.494  2.1994  0.8526 -1.0533
  185SOL     OW  553   1.959   0.477   0.514 -0.2632  0.2185 -0.0413
  185SOL    HW1  554   1.863   0.501   0.539 -1.0934  1.4017 -2.6151
  185SOL    HW2  555   1.982   0.528   0.426 -1.3221 -0.0756 -1.9437
  186SOL     OW  556   0.766   2.629   2.971  0.4317 -0.0994 -0.4917
  186SOL    HW1  557   0.677   2.680   2.998 -1.4892  1.6562  0.4739
  186SOL    HW2  558   0.792   2.654   2.877  1.9233  1.0435  1.9358
  187SOL     OW  559   2.337   0.763   3.029 -0.0575  0.2837 -0.7228
  187SOL    HW1  560   2.258   0.819   3.058  1.6794 -1.8121 -0.5309
  187SOL    HW2  561   2.377   0.801   2.941  0.8542  1.4012 -1.6188
  188SOL     OW  562   2.961   1.700   1.248 -0.6803 -0.1898 -0.6925
  188SOL    HW1  563   3.050   1.733   1.291  1.8648 -0.3291 -2.0154
  188SOL    HW2  564   2.882   1.682   1.310 -0.5555 -0.3128  1.6336
  189SOL     OW  565   2.500   0.340   0.093 -0.0148  0.2511 -0.3499
  189SOL    HW1  566   2.582   0.403   0.096  2.2641 -1.2306 -0.4618
  189SOL    HW2  567   2.482   0.300   0.187 -0.8724  0.5286 -0.9469
  190SOL     OW  568   1.183   1.545   1.887 -0.2829  0.5733 -0.2787
  190SOL    HW1  569   1.119   1.510   1.963  2.6253  0.2218  0.1345
  190SOL    HW2  570   1.224   1.461   1.845  0.0905  0.3221  1.2095
  191SOL     OW  571   2.854   0.610   1.708 -0.2603 -0.3038  0.1316
  191SOL    HW1  572   2.861   0.556   1.619  0.2277 -2.8953  0.3850
  191SOL    HW2  573   2.772   0.582   1.763  0.1822  2.1707  1.0679
  192SOL     OW  574   2.029   1.548   1.238 -0.3851 -0.1293 -0.0683
  192SOL    HW1  575   2.112   1.564   1.301  4.0572  0.4394  2.0440
  192SOL    HW2  576   2.052   1.496   1.153 -1.0003  3.0336 -0.2613
  193SOL     OW  577   1.213   0.597   1.140 -0.2183  0.3245  0.5234
  193SOL    HW1  578   1.234   0.646   1.223  0.4634  0.8442  0.5787
  193SOL    HW2  579   1.124   0.548   1.158  0.4610  0.0678  1.7414
  194SOL     OW  580   1.314   2.503   1.766  0.3027  0.6051 -0.5428
  194SOL    HW1  581   1.338   2.585   1.722 -1.3688 -2.8705  0.0376
  194SOL    HW2  582   1.240   2.519   1.837 -2.4739 -0.6496 -1.0938
  195SOL     OW  583   2.351   0.330   2.836 -0.1851 -0.0468 -0.2732
  195SOL    HW1  584   2.390   0.238   2.816 -0.6251 -2.8429  0.3578
  195SOL    HW2  585   2.281   0.317   2.910  0.9304 -0.7796  1.4685
  196SOL     OW  586   1.197   2.270   1.804 -0.2229  0.3354 -0.0265
  196SOL    HW1  587   1.099   2.291   1.799 -1.0486  0.2291  0.4704
  196SOL    HW2  588   1.247   2.359   1.783 -0.7349 -2.7811 -2.8640
  197SOL     OW  589   0.877   2.758   1.007 -0.2570  0.4435 -0.4487
  197SOL    HW1  590   0.791   2.800   0.972  2.8022  2.1710 -0.6693
  197SOL    HW2  591   0.958   2.797   0.964 -0.7072 -0.2784  0.1100
  198SOL     OW  592   1.039   0.788   0.820  0.0269  0.2297  0.1848
  198SOL    HW1  593   1.013   0.696   0.788  0.0038  0.2040  1.2290
  198SOL    HW2  594   0.956   0.843   0.842  2.4049  1.0566  0.5861
  199SOL     OW  595   0.113   2.811   1.807  0.5771  0.3415 -0.2655
  199SOL    HW1  596   0.071   2.771   1.724  0.0771  0.7407 -2.8349
  199SOL    HW2  597   0.143   2.737   1.866 -1.6814 -0.3277 -0.1865
  200SOL     OW  598   2.018   1.965   2.244 -0.5014  0.1592  0.0933
  200SOL    HW1  599   2.074   1.953   2.329  0.5029 -1.0315 -0.0579
  200SOL    HW2  600   2.071   1.933   2.167  0.4335  0.2022  1.5470
  201SOL     OW  601   0.223   1.881   1.624 -0.0805  0.4610 -0.2459
  201SOL    HW1  602   0.221   1.983   1.601  0.4014  4.4580  0.7922
  201SOL    HW2  603   0.224   1.863   1.724  1.1757 -0.3319 -1.0022
  202SOL     OW  604   2.572   0.202   0.548 -0.5469  0.0318  0.5361
  202SOL    HW1  605   2.520   0.240   0.467 -0.3383 -1.0463 -0.6212
  202SOL    HW2  606   2.625   0.114   0.523  1.2321  0.4516  2.0597
  203SOL     OW  607   1.144   2.144   2.222  0.3305 -0.3148  0.5534
  203SOL    HW1  608   1.134   2.068   2.291 -0.1826 -0.0468  2.3289
  203SOL    HW2  609   1.237   2.186   2.229 -0.8080  0.2805 -0.4553
  204SOL     OW  610   1.369   2.065   1.743 -0.0386 -0.3062  0.6785
  204SOL    HW1  611   1.458   2.098   1.706 -1.2439  1.1964  0.6215
  204SOL    HW2  612   1.304   2.140   1.762 -1.9666 -0.2165 -1.5588
  205SOL     OW  613   1.396   1.708   1.924 -0.3128 -0.2506  0.1176
  205SOL    HW1  614   1.481   1.649   1.907  2.9096  0.7990  1.5029
  205SOL    HW2  615   1.316   1.644   1.933  0.4737  0.4776 -1.4980
  206SOL     OW  616   0.138   0.939   2.402 -0.1095 -0.1912  0.2147
  206SOL    HW1  617   0.081   0.929   2.316  1.3215  0.4071 -1.7589
  206SOL    HW2  618   0.098   1.021   2.448  0.4149  0.9192 -0.4593
  207SOL     OW  619   1.163   3.012   1.609 -0.2255 -0.3358 -0.1042
  207SOL    HW1  620   1.227   3.078   1.562  1.6718 -2.4388  1.7096
  207SOL    HW2  621   1.075   2.993   1.564 -0.9307 -3.0417  0.2020
  208SOL     OW  622   0.631   2.667   1.800  0.2273  0.0354  0.1079
  208SOL    HW1  623   0.647   2.739   1.729  0.1841 -1.7823 -2.6770
  208SOL    HW2  624   0.548   2.695   1.853  0.1849 -1.4754 -0.4927
  209SOL     OW  625   1.301   0.646   0.215  0.4382  0.4109 -0.3825
  209SOL    HW1  626   1.393   0.622   0.176  1.3462  0.3210 -2.8287
  209SOL    HW2  627   1.235   0.641   0.142  0.9192  1.8957  1.0243
  210SOL     OW  628   3.033   0.290   0.707  0.0194  0.3241 -0.0186
  210SOL    HW1  629   2.978   0.252   0.788  4.9626 -0.8949 -2.9191
  210SOL    HW2  630   2.977   0.349   0.650  0.0369  1.4596  0.8584
  211SOL     OW  631   0.660   0.611   1.275  0.1372  0.1917  0.2837
  211SOL    HW1  632   0.562   0.602   1.243 -0.9801  0.9352 -0.9801
  211SOL    HW2  633   0.676   0.636   1.374  2.6957 -1.5524  0.2601
  212SOL     OW  634   1.090   1.729   1.142 -0.3813 -0.2529  0.3104
  212SOL    HW1  635   1.127   1.785   1.059 -0.3661  2.0065 -4.2311
  212SOL    HW2  636   1.151   1.750   1.227  2.1537 -0.4504  1.8506
  213SOL     OW  637   1.977   0.183   1.823 -0.3330 -0.0645  0.0550
  213SOL    HW1  638   2.071   0.183   1.782 -1.3583 -0.8153 -0.7216
  213SOL    HW2  639   1.952   0.094   1.866 -0.5267  0.2478 -1.0634
  214SOL     OW  640   0.777   2.305   2.371  0.0767 -0.5089 -0.3069
  214SOL    HW1  641   0.857   2.295   2.304  2.4083  1.0992 -3.5469
  214SOL    HW2  642   0.688   2.302   2.328  1.4172  0.4042 -0.4935
  215SOL     OW  643   2.734   1.646   1.391  0.2190 -0.0916 -0.0657
  215SOL    HW1  644   2.684   1.720   1.433  0.7204  2.1924  2.6124
  215SOL    HW2  645   2.675   1.573   1.358  4.5442  2.0335  0.2309
  216SOL     OW  646   0.499   1.061   1.710  0.1128  0.4257 -0.3940
  216SOL    HW1  647   0.417   0.997   1.729 -2.4653 -0.2679 -1.1002
  216SOL    HW2  648   0.465   1.156   1.709 -0.2096 -1.3253 -0.7130
  217SOL     OW  649   3.075   0.116   0.221 -0.0105 -0.3878  0.4308
  217SOL    HW1  650   0.009   0.199   0.155 -1.6270  2.4013 -2.4859
  217SOL    HW2  651   3.011   0.124   0.303 -1.0748 -1.0048  0.1979
  218SOL     OW  652   1.728   1.850   1.243 -0.1514 -0.0290  0.7324
  218SOL    HW1  653   1.651   1.888   1.192  2.1797 -1.6450  1.5827
  218SOL    HW2  654   1.790   1.806   1.175 -0.3120 -1.0292 -0.6172
  219SOL     OW  655   1.572   0.345   3.048  0.0345 -0.0703  0.3748
  219SOL    HW1  656   1.492   0.297   3.004  1.1584  1.1779 -1.4496
  219SOL    HW2  657   1.649   0.279   3.050 -1.4735 -2.0151  0.1155
  220SOL     OW  658   1.534   2.055   0.896 -0.0142  0.5395  0.2611
  220SOL    HW1  659   1.633   2.068   0.889 -2.6696 -3.7673 -0.9373
  220SOL    HW2  660   1.512   2.021   0.990  1.0520  0.5713 -2.3049
  221SOL     OW  661   3.005   0.754   0.640 -0.6704 -0.2392  0.4430
  221SOL    HW1  662   0.011   0.717   0.604  0.9494  5.3960  2.9452
  221SOL    HW2  663   2.949   0.689   0.694  0.5393  0.2359 -0.8706
  222SOL     OW  664   0.900   2.644   1.570 -0.4165  0.1032  0.2572
  222SOL    HW1  665   0.979   2.604   1.523 -0.8880  0.9617 -1.9045
  222SOL    HW2  666   0.830   2.575   1.595  2.4347  2.7063  0.2385
  223SOL     OW  667   1.347   0.275   2.903  0.1034 -0.2265 -0.4162
  223SOL    HW1  668   1.327   0.334   2.825  2.0685 -1.3752 -0.6645
  223SOL    HW2  669   1.256   0.227   2.921 -5.1082  0.6591  1.6753
  224SOL     OW  670   2.714   0.482   1.220 -0.6245 -0.3246  0.0645
  224SOL    HW1  671   2.686   0.563   1.276 -0.6996  1.9220 -0.3649
  224SOL    HW2  672   2.675   0.495   1.129  1.2467  0.8181  0.5536
  225SOL     OW  673   0.725   1.573   1.636  0.0485  0.0636  0.3474
  225SOL    HW1  674   0.778   1.614   1.562  2.3607 -0.9183 -0.7847
  225SOL    HW2  675   0.657   1.506   1.604  1.8891  2.9822  3.1042
  226SOL     OW  676   1.067   2.928   0.637 -0.1352 -0.0319 -0.0633
  226SOL    HW1  677   0.990   2.968   0.588  2.8205 -4.7655 -1.0120
  226SOL    HW2  678   1.122   2.876   0.571 -0.1509 -1.6149  0.1731
  227SOL     OW  679   1.310   1.811   1.636  0.3770  0.0862  0.6187
  227SOL    HW1  680   1.343   1.730   1.683  0.5139  0.0073  1.1338
  227SOL    HW2  681   1.348   1.899   1.675  1.9093  1.7048  1.7767
  228SOL     OW  682   0.457   0.045   2.109 -0.1799 -0.0653 -0.3453
  228SOL    HW1  683   0.451   0.138   2.157  0.4185  1.5767 -1.4604
  228SOL    HW2  684   0.414   0.060   2.020  0.1735 -0.3705 -0.2385
  229SOL     OW  685   2.668   0.706   0.267  0.2098 -0.4533 -0.1342
  229SOL    HW1  686   2.605   0.766   0.210 -2.8305 -0.5104  2.1281
  229SOL    HW2  687   2.713   0.632   0.207 -0.0148 -0.6378 -1.4538
  230SOL     OW  688   3.070   1.596   1.946  0.1004  0.0808 -0.3791
  230SOL    HW1  689   3.072   1.630   1.849  0.2355  0.1068  0.2364
  230SOL    HW2  690   3.024   1.506   1.960 -0.3877  0.5798 -0.5404
  231SOL     OW  691   0.945   2.775   1.269 -0.0367  0.2065  0.3989
  231SOL    HW1  692   0.987   2.696   1.310  0.7056  0.0985 -0.6653
  231SOL    HW2  693   0.922   2.764   1.165  1.6572 -1.1877  0.5894
  232SOL     OW  694   2.591   2.644   0.145 -0.3602 -0.2115  0.8424
  232SOL    HW1  695   2.611   2.549   0.108 -0.1743 -2.6308 -1.9265
  232SOL    HW2  696   2.538   2.698   0.073 -0.3276  0.4013 -1.1430
  233SOL     OW  697   1.267   2.541   2.904 -0.0320  0.3194  0.5497
  233SOL    HW1  698   1.188   2.511   2.840 -1.9886 -0.1135 -0.8218
  233SOL    HW2  699   1.223   2.584   2.983 -2.3673  0.6525 -2.3920
  234SOL     OW  700   0.905   1.198   2.035  0.5347 -0.1508 -0.0493
  234SOL    HW1  701   0.888   1.290   1.989 -0.1854  1.3359 -1.0936
  234SOL    HW2  702   0.921   1.217   2.134  0.9449 -0.3354 -1.2912
  235SOL     OW  703   0.018   2.383   3.061  0.0892  0.4194 -0.1402
  235SOL    HW1  704   0.057   2.459   3.005 -3.1905 -1.4488  1.5673
  235SOL    HW2  705   3.006   2.359   3.029 -1.2171 -2.0089  1.7499
  236SOL     OW  706   2.032   2.461   2.419  0.0034  0.0007 -0.2132
  236SOL    HW1  707   2.085   2.439   2.504 -0.2554 -3.1759 -0.3132
  236SOL    HW2  708   1.992   2.377   2.373 -1.2794 -2.3230 -1.5292
  237SOL     OW  709   2.153   1.072   1.163  0.0937  0.1204 -0.0165
  237SOL    HW1  710   2.188   1.074   1.261 -1.0314 -2.2517  1.7176
  237SOL    HW2  711   2.176   1.156   1.110  2.7730  0.4353 -0.3832
  238SOL     OW  712   1.342   2.770   2.282 -0.0865  0.5053 -0.8182
  238SOL    HW1  713   1.304   2.720   2.364  1.6510  0.1375 -1.5580
  238SOL    HW2  714   1.292   2.753   2.197  1.8657 -2.9499  3.9057
  239SOL     OW  715   1.019   2.065   1.952  0.0647 -0.1755  0.2761
  239SOL    HW1  716   1.049   2.097   2.043 -1.3766  2.5304 -2.9462
  239SOL    HW2  717   1.069   2.118   1.881 -3.3063  2.1393  0.9664
  240SOL     OW  718   2.994   2.865   0.490  0.2796  0.0954 -0.4084
  240SOL    HW1  719   3.047   2.792   0.536 -2.4785  0.4816 -0.7848
  240SOL    HW2  720   3.002   2.956   0.538 -2.8309  0.8053  0.0594
  241SOL     OW  721   1.215   1.920   3.024  0.1164 -0.1807 -0.4512
  241SOL    HW1  722   1.179   2.001   3.071 -0.9358  1.3752 -0.3775
  241SOL    HW2  723   1.316   1.907   3.046  0.4451 -3.2990  1.7908
  242SOL     OW  724   2.180   0.962   0.068  0.5976 -0.4352  0.3714
  242SOL    HW1  725   2.206   1.057   0.041  0.6551  0.7436  0.7125
  242SOL    HW2  726   2.195   0.936   0.165  2.5005 -0.3942 -0.7589
  243SOL     OW  727   0.775   0.251   2.150  0.5247 -0.6943  0.0736
  243SOL    HW1  728   0.862   0.298   2.147  0.2597 -1.3845 -1.2897
  243SOL    HW2  729   0.768   0.169   2.085  2.0590 -0.3370 -2.8001
  244SOL     OW  730   1.425   2.362   2.780  0.3475 -0.0026  0.0735
  244SOL    HW1  731   1.459   2.414   2.699 -2.7607  1.8854  2.3023
  244SOL    HW2  732   1.376   2.431   2.832 -2.3990  1.8905 -2.1300
  245SOL     OW  733   1.803   2.570   3.044 -0.5872  0.0154 -0.0502
  245SOL    HW1  734   1.800   2.472   3.021  1.6573  1.9145 -0.9619
  245SOL    HW2  735   1.831   2.591   0.060  0.9072 -1.2977 -0.5318
  246SOL     OW  736   1.308   1.033   2.473 -0.0801 -0.1656 -0.4549
  246SOL    HW1  737   1.402   1.039   2.426  0.2601 -1.0113 -1.5747
  246SOL    HW2  738   1.236   1.091   2.425 -0.8237  0.1715 -3.1339
  247SOL     OW  739   2.694   0.832   2.486  0.8226 -0.2932 -0.0377
  247SOL    HW1  740   2.682   0.839   2.589  0.6574  0.5780  3.2195
  247SOL    HW2  741   2.794   0.816   2.468  1.8114  1.6307  0.6396
  248SOL     OW  742   2.945   1.285   2.078 -1.2519 -0.3523  0.0909
  248SOL    HW1  743   2.917   1.215   2.012  1.0023  2.1855  1.2824
  248SOL    HW2  744   3.020   1.243   2.137  1.8814 -3.0108 -0.0766
  249SOL     OW  745   2.837   0.448   0.205 -0.3222 -0.3453 -0.0698
  249SOL    HW1  746   2.794   0.496   0.127  0.2010 -3.3816 -0.7074
  249SOL    HW2  747   2.831   0.353   0.175  1.4149  1.8953 -1.5004
  250SOL     OW  748   2.900   0.182   0.401 -0.2615 -0.4235 -0.0289
  250SOL    HW1  749   2.884   0.278   0.423  1.2446 -0.6782 -1.2703
  250SOL    HW2  750   2.860   0.119   0.473  5.7033  0.1949  0.2027
  251SOL     OW  751   0.807   1.429   1.898 -0.2004 -0.1069  0.4347
  251SOL    HW1  752   0.813   1.504   1.964  0.1140 -1.0366 -3.0063
  251SOL    HW2  753   0.792   1.460   1.804 -1.7057 -1.3511  1.5662
  252SOL     OW  754   1.644   1.740   1.482  0.2529 -0.2368 -0.1059
  252SOL    HW1  755   1.680   1.725   1.390 -1.6144 -0.3035  0.6260
  252SOL    HW2  756   1.568   1.671   1.502 -0.8345 -0.1227  2.5633
  253SOL     OW  757   1.734   2.146   1.884 -0.3752  0.3218  0.2022
  253SOL    HW1  758   1.729   2.043   1.890 -1.8357 -0.8009 -1.5825
  253SOL    HW2  759   1.719   2.192   1.977 -0.9560 -0.1982  1.2478
  254SOL     OW  760   0.464   2.348   2.342 -0.3495  0.0652 -0.0929
  254SOL    HW1  761   0.396   2.274   2.319 -0.0896  0.0358 -0.9484
  254SOL    HW2  762   0.489   2.399   2.262  0.5620 -0.1982  3.8173
  255SOL     OW  763   1.502   0.190   0.610 -0.0455 -0.0175 -0.4598
  255SOL    HW1  764   1.578   0.228   0.670  2.6944  1.4734 -1.2934
  255SOL    HW2  765   1.412   0.222   0.640  0.2642  1.5606 -1.0278
  256SOL     OW  766   1.790   2.117   1.102  0.3550 -0.1953  0.1858
  256SOL    HW1  767   1.858   2.166   1.162 -0.7003 -0.1338 -0.0475
  256SOL    HW2  768   1.828   2.103   1.009  0.1231  0.3125 -2.6420
  257SOL     OW  769   0.182   2.495   2.424 -0.5084 -0.4914  0.4885
  257SOL    HW1  770   0.282   2.478   2.405  1.7430 -3.3894  1.4984
  257SOL    HW2  771   0.163   2.464   2.517 -2.3092  1.9204 -1.6319
  258SOL     OW  772   0.503   1.103   2.181  0.1032 -0.0766  0.0803
  258SOL    HW1  773   0.481   1.132   2.278 -0.0759  1.6678 -0.5789
  258SOL    HW2  774   0.543   1.177   2.124  1.1025 -1.8072 -1.2127
  259SOL     OW  775   1.196   0.759   2.312  0.0981  0.1331 -0.0777
  259SOL    HW1  776   1.233   0.780   2.405  1.2072  0.6819  1.6161
  259SOL    HW2  777   1.273   0.740   2.245  0.9110  1.6336  1.8357
  260SOL     OW  778   2.330   0.682   0.835  0.0764 -0.0374 -0.0902
  260SOL    HW1  779   2.317   0.735   0.924  0.4154 -0.5294  3.4276
  260SOL    HW2  780   2.242   0.674   0.787  1.0146  0.0233 -1.0947
  261SOL     OW  781   0.945   0.225   0.163  0.1873 -0.3400 -0.3543
  261SOL    HW1  782   1.000   0.215   0.250 -0.9689  2.4492 -0.2606
  261SOL    HW2  783   0.850   0.193   0.184  2.0983 -0.0629  0.4151
  262SOL     OW  784   1.927   2.705   2.471  0.2186  0.4157 -0.5200
  262SOL    HW1  785   1.986   2.620   2.473  1.8176  1.1395 -1.7618
  262SOL    HW2  786   1.917   2.733   2.373  0.9709 -2.9399  0.8049
  263SOL     OW  787   0.675   1.674   2.907 -0.1249  0.0022 -0.1566
  263SOL    HW1  788   0.687   1.573   2.890  2.3942  1.1973  0.7525
  263SOL    HW2  789   0.577   1.697   2.891 -0.3956 -0.8095 -0.5948
  264SOL     OW  790   0.283   1.825   1.925  0.8518  0.3622  0.1069
  264SOL    HW1  791   0.349   1.789   1.999 -0.8052 -1.6450  0.1911
  264SOL    HW2  792   0.248   1.736   1.885  0.5424 -2.1821 -1.4260
  265SOL     OW  793   0.710   0.985   0.404 -0.1696  0.5269 -0.0768
  265SOL    HW1  794   0.723   1.027   0.496  0.4899  1.7552  1.7260
  265SOL    HW2  795   0.806   0.966   0.365  1.1350  1.2679  2.4877
  266SOL     OW  796   1.572   1.700   0.137 -0.2019  0.6324 -0.4481
  266SOL    HW1  797   1.635   1.635   0.091  0.2897  0.8277  1.9332
  266SOL    HW2  798   1.518   1.648   0.208  0.4504 -1.7705  2.2482
  267SOL     OW  799   2.812   0.252   0.023  0.1797  0.7740 -0.8269
  267SOL    HW1  800   2.781   0.159   0.062 -0.1034 -6.1876  1.9448
  267SOL    HW2  801   2.761   0.267   3.015 -1.8508 -0.8783 -1.4428
  268SOL     OW  802   0.699   0.476   2.960 -0.5532 -0.0800 -0.0594
  268SOL    HW1  803   0.741   0.481   2.868 -0.6659 -0.4171  0.5976
  268SOL    HW2  804   0.769   0.453   3.032  1.3474 -1.0955  3.2834
  269SOL     OW  805   1.723   0.450   2.439  0.3619 -0.3429 -0.1309
  269SOL    HW1  806   1.624   0.464   2.453  1.9847  0.5959 -1.4192
  269SOL    HW2  807   1.739   0.377   2.369  0.9819  1.5510  0.9031
  270SOL     OW  808   0.828   0.955   2.470  0.5194 -0.0012 -0.0427
  270SOL    HW1  809   0.890   0.965   2.550  1.4231  2.7848  1.4431
  270SOL    HW2  810   0.743   0.902   2.492 -1.7880 -0.9351  2.3662
  271SOL     OW  811   0.040   0.866   0.133 -0.0071 -0.0896 -0.2144
  271SOL    HW1  812   3.065   0.911   0.206 -3.2671  0.1648 -1.2793
  271SOL    HW2  813   3.053   0.832   0.058 -0.0983  1.5153 -1.9962
  272SOL     OW  814   2.273   1.374   2.855  0.4057  0.2413 -0.6203
  272SOL    HW1  815   2.279   1.442   2.784 -1.6046 -1.3481 -0.6012
  272SOL    HW2  816   2.205   1.300   2.821 -1.7582 -2.7807  0.9431
  273SOL     OW  817   2.946   0.167   2.184  0.1674  0.2122  0.1789
  273SOL    HW1  818   2.928   0.271   2.180 -0.8965  4.5009 -1.3608
  273SOL    HW2  819   3.004   0.142   2.268 -0.1905 -3.3445  0.4771
  274SOL     OW  820   3.000   0.035   1.436  0.1210 -0.0460 -0.0620
  274SOL    HW1  821   2.946   3.073   1.362 -0.1335  0.4215  0.5375
  274SOL    HW2  822   0.015   0.066   1.407  2.1337 -0.0148  1.0468
  275SOL     OW  823   2.021   1.153   0.552 -0.2368 -0.8356  0.2592
  275SOL    HW1  824   2.012   1.124   0.457  0.1496  1.6478  0.9721
  275SOL    HW2  825   1.952   1.223   0.568  1.6981 -4.1744 -0.4159
  276SOL     OW  826   0.351   1.353   2.813 -0.5022 -0.4474  0.3167
  276SOL    HW1  827   0.418   1.299   2.758  0.2117 -1.0870 -1.1214
  276SOL    HW2  828   0.276   1.398   2.765 -3.6359  1.0760  3.3369
  277SOL     OW  829   1.878   2.413   1.904  0.0747 -0.5548  0.0609
  277SOL    HW1  830   1.897   2.433   2.004  2.4277  0.5869 -0.6564
  277SOL    HW2  831   1.926   2.476   1.844 -1.1236 -0.1628  2.4439
  278SOL     OW  832   2.006   0.246   1.494  0.6446 -0.0910 -0.1492
  278SOL    HW1  833   2.080   0.224   1.559 -0.7236 -1.9091 -1.7084
  278SOL    HW2  834   1.979   0.162   1.437 -0.7950  0.6882 -3.2460
  279SOL     OW  835   1.378   1.085   2.921  0.1899 -0.0762  0.0433
  279SOL    HW1  836   1.333   1.044   2.838  0.6467 -2.2617 -1.0471
  279SOL    HW2  837   1.360   1.034   3.010  0.3104  1.7222  2.6000
  280SOL     OW  838   0.532   1.716   0.967 -0.1518  0.1489  0.0291
  280SOL    HW1  839   0.551   1.764   1.056  0.4955 -1.8877 -0.3607
  280SOL    HW2  840   0.619   1.687   0.921 -0.3891  2.8535 -2.7841
  281SOL     OW  841   0.273   0.317   2.284 -0.4375  0.1337 -0.1576
  281SOL    HW1  842   0.375   0.310   2.276 -3.5241 -0.0528  0.0759
  281SOL    HW2  843   0.231   0.323   2.190 -0.6028 -3.1046  0.6315
  282SOL     OW  844   0.153   1.478   1.444 -0.0285 -0.3113 -0.5260
  282SOL    HW1  845   0.188   1.564   1.405  1.5820 -1.2885 -0.7545
  282SOL    HW2  846   0.170   1.408   1.374 -1.7563  2.5122  0.0551
  283SOL     OW  847   1.695   2.098   2.535  0.4292 -0.3410  0.4648
  283SOL    HW1  848   1.790   2.065   2.534  0.4633  0.3889 -1.9606
  283SOL    HW2  849   1.623   2.026   2.555 -1.9451  0.0268  2.4672
  284SOL     OW  850   1.772   0.693   0.196  0.4344 -0.2516  0.1113
  284SOL    HW1  851   1.769   0.760   0.278  0.0730 -2.1831  4.6863
  284SOL    HW2  852   1.828   0.737   0.123 -0.0043  0.3007 -1.6093
  285SOL     OW  853   2.979   2.911   2.557 -0.1141  0.2369  0.3736
  285SOL    HW1  854   3.029   2.978   2.501  1.8666 -0.5517  1.5695
  285SOL    HW2  855   2.914   2.955   2.622 -0.8701  1.1424  0.4345
  286SOL     OW  856   1.750   2.491   1.179 -0.2793  0.3610 -0.6079
  286SOL    HW1  857   1.815   2.486   1.257  2.5670 -0.7641 -0.1459
  286SOL    HW2  858   1.683   2.568   1.184 -1.4218  1.1348  0.7830
  287SOL     OW  859   0.905   0.711   1.163 -0.5533  0.1098  0.0609
  287SOL    HW1  860   0.813   0.677   1.180  2.6671 -0.4612 -1.0446
  287SOL    HW2  861   0.958   0.730   1.248 -0.3633  1.1870 -1.9939
  288SOL     OW  862   1.502   2.446   0.152  0.2159  0.1798 -0.0546
  288SOL    HW1  863   1.479   2.526   0.212 -0.2817  0.0970  0.0855
  288SOL    HW2  864   1.494   2.481   0.053 -0.0133  0.5891 -4.4635
  289SOL     OW  865   3.072   1.968   2.892  0.2379  0.2553  0.3720
  289SOL    HW1  866   0.065   2.014   2.835 -0.5763  1.3393 -1.9131
  289SOL    HW2  867   2.977   1.994   2.860  0.8299  0.7289  3.9955
  290SOL     OW  868   1.014   2.503   0.658  1.2302  0.3019 -0.3156
  290SOL    HW1  869   1.014   2.439   0.741 -0.4941  0.0423  3.7709
  290SOL    HW2  870   0.913   2.516   0.638  0.6181 -0.1982 -2.6517
  291SOL     OW  871   1.992   1.658   0.112 -0.2494 -0.1179  0.4132
  291SOL    HW1  872   2.024   1.619   0.021  2.0835 -1.6400  0.1141
  291SOL    HW2  873   1.945   1.746   0.101  1.1524  0.1149  1.5233
  292SOL     OW  874   0.984   1.341   1.611  0.2819  0.4669  0.1261
  292SOL    HW1  875   1.031   1.258   1.644  0.2556  2.5133  2.1142
  292SOL    HW2  876   0.883   1.329   1.591  0.1645  0.4565  0.2206
  293SOL     OW  877   2.136   2.721   1.021 -0.0322 -0.4370 -0.1522
  293SOL    HW1  878   2.230   2.746   1.017 -2.4129 -3.3447  1.3780
  293SOL    HW2  879   2.111   2.644   0.962  0.0134  0.6957  1.1121
  294SOL     OW  880   2.961   0.821   2.461  0.2630 -0.1418 -0.0994
  294SOL    HW1  881   3.030   0.860   2.523 -0.8202  0.0231  0.3759
  294SOL    HW2  882   2.971   0.846   2.364 -1.0713  0.2714  2.3350
  295SOL     OW  883   1.009   1.808   0.154  0.3726 -0.0188  0.8939
  295SOL    HW1  884   1.034   1.908   0.167  1.0358  0.3281 -1.6908
  295SOL    HW2  885   1.090   1.746   0.165 -1.1642 -0.5947 -0.2224
  296SOL     OW  886   2.180   1.875   2.457 -0.4579 -0.0808 -0.1464
  296SOL    HW1  887   2.237   1.792   2.450  0.0792  1.0146  2.5563
  296SOL    HW2  888   2.095   1.859   2.511 -0.0411 -1.3444 -1.1087
  297SOL     OW  889   2.687   0.343   2.853  0.3344 -0.0058 -0.1191
  297SOL    HW1  890   2.761   0.400   2.822  0.8437 -1.3907  1.7087
  297SOL    HW2  891   2.650   0.292   2.777 -0.6382  1.2059  1.3520
  298SOL     OW  892   0.659   2.115   2.975  0.1221 -0.2321 -0.3839
  298SOL    HW1  893   0.738   2.056   2.995 -3.2525  2.3014  0.2614
  298SOL    HW2  894   0.620   2.096   2.881 -1.5296  0.1963 -2.8451
  299SOL     OW  895   1.216   2.657   2.506 -0.4399  0.1889  0.2456
  299SOL    HW1  896   1.173   2.703   2.585 -0.7172  0.1473 -1.9066
  299SOL    HW2  897   1.165   2.576   2.475  1.6229  0.3492  0.6105
  300SOL     OW  898   2.877   0.443   0.563 -0.1363  0.3116 -0.5203
  300SOL    HW1  899   2.780   0.459   0.543  2.9824  0.4891  0.8984
  300SOL    HW2  900   2.929   0.483   0.487 -2.0287  1.6814 -1.8247
  301SOL     OW  901   1.066   1.026   1.417  0.7236  0.0048  0.1028
  301SOL    HW1  902   1.002   0.949   1.409  4.0641 -1.8172  1.2998
  301SOL    HW2  903   1.033   1.110   1.362 -0.1902  0.8731 -0.7367
  302SOL     OW  904   3.005   2.612   2.551 -0.3374  0.1749 -0.3446
  302SOL    HW1  905   0.027   2.596   2.538 -0.3597 -1.6200  0.2523
  302SOL    HW2  906   2.981   2.708   2.549 -0.8857 -1.1977  3.2686
  303SOL     OW  907   3.073   0.019   1.992  0.4864 -0.7247  0.5704
  303SOL    HW1  908   3.001   0.078   2.039 -4.1809 -2.0585  2.3505
  303SOL    HW2  909   0.025   3.018   2.048 -1.4070 -0.9915 -2.5549
  304SOL     OW  910   2.843   0.440   1.488  0.4018  0.0076  1.0554
  304SOL    HW1  911   2.828   0.340   1.512  4.4842  2.9391  1.5216
  304SOL    HW2  912   2.809   0.452   1.397  1.3375 -0.0405  0.7816
  305SOL     OW  913   0.500   2.859   2.131  0.5906  0.8342 -0.5531
  305SOL    HW1  914   0.603   2.847   2.124  1.4763  0.3483  0.6119
  305SOL    HW2  915   0.474   2.953   2.123  0.1963 -1.2530  0.2116
  306SOL     OW  916   2.544   1.024   1.475  0.4326 -0.8516  0.2162
  306SOL    HW1  917   2.545   1.045   1.576 -0.5919  1.0934  1.8078
  306SOL    HW2  918   2.614   1.078   1.416  1.1828  2.6048 -0.7401
  307SOL     OW  919   1.578   0.552   1.025  0.0388  0.1190  0.2539
  307SOL    HW1  920   1.555   0.456   1.045  1.0562  0.3236  0.4968
  307SOL    HW2  921   1.491   0.606   1.010  1.5725 -2.0127 -0.9943
  308SOL     OW  922   0.193   2.105   1.477  0.2981 -0.8017  0.0862
  308SOL    HW1  923   0.193   2.204   1.507 -2.0361  0.7405  0.9967
  308SOL    HW2  924   0.145   2.099   1.385 -0.3957 -1.0908  1.8336
  309SOL     OW  925   2.372   1.775   1.191 -0.3569  0.2284 -0.1301
  309SOL    HW1  926   2.378   1.873   1.167 -1.6558 -0.2211 -1.3480
  309SOL    HW2  927   2.455   1.725   1.152 -1.1984  0.2270 -0.4878
  310SOL     OW  928   2.748   1.602   0.072  0.2627 -0.0262 -1.0088
  310SOL    HW1  929   2.794   1.619   3.061  3.5165  0.1428 -1.4618
  310SOL    HW2  930   2.798   1.532   0.123  1.1530  0.4278 -2.4517
  311SOL     OW  931   2.314   1.925   2.943 -0.1355 -0.0570 -0.1865
  311SOL    HW1  932   2.256   2.004   2.914  1.2604  1.4409 -0.5922
  311SOL    HW2  933   2.316   1.867   2.861  1.6761 -4.3580  1.3289
  312SOL     OW  934   2.449   1.646   0.767 -0.4006  0.1012 -0.0732
  312SOL    HW1  935   2.503   1.714   0.714 -1.4684  1.8460  0.5206
  312SOL    HW2  936   2.374   1.598   0.720 -1.0157 -0.5919  1.0590
  313SOL     OW  937   2.640   2.466   1.338 -0.2411  0.1930  0.3157
  313SOL    HW1  938   2.566   2.450   1.405 -0.3859 -0.8930  0.2521
  313SOL    HW2  939   2.678   2.560   1.355  1.3120  0.4460 -3.0487
  314SOL     OW  940   0.810   1.943   1.099 -0.1925  0.2388  0.1260
  314SOL    HW1  941   0.808   2.044   1.115  1.7038 -1.3494  3.4896
  314SOL    HW2  942   0.894   1.912   1.044  1.9590 -0.9442 -1.7315
  315SOL     OW  943   0.376   2.738   2.574  0.6456 -0.4171  0.0730
  315SOL    HW1  944   0.373   2.800   2.490  0.2246 -0.8434  1.0160
  315SOL    HW2  945   0.430   2.657   2.539  3.0132  0.6989 -1.1219
  316SOL     OW  946   0.349   1.160   0.654  1.0032  0.1287 -0.1139
  316SOL    HW1  947   0.446   1.153   0.681 -2.9008 -1.7055  0.2469
  316SOL    HW2  948   0.328   1.260   0.668 -1.0708 -3.8240 -0.1430
  317SOL     OW  949   1.996   0.234   0.618  0.5645 -0.8435 -0.4751
  317SOL    HW1  950   1.996   0.328   0.573  1.7438  0.8772 -4.4772
  317SOL    HW2  951   2.027   0.248   0.712  0.2856  0.6560  0.7564
  318SOL     OW  952   3.004   2.377   0.693  0.2089  0.0538 -0.4776
  318SOL    HW1  953   2.954   2.354   0.607  2.1396  0.6025  0.8466
  318SOL    HW2  954   3.035   2.301   0.754 -0.0911  0.5592  1.0561
  319SOL     OW  955   0.806   1.529   0.089 -0.5023  0.0513 -0.2213
  319SOL    HW1  956   0.794   1.565   3.075 -1.8845 -2.9615  1.9770
  319SOL    HW2  957   0.724   1.478   0.115  1.0562 -1.3223  0.5281
  320SOL     OW  958   0.842   2.785   2.369  0.1955  0.2292  0.5797
  320SOL    HW1  959   0.923   2.837   2.399 -0.5467 -3.2653  1.4575
  320SOL    HW2  960   0.769   2.775   2.438  0.9321 -2.3925 -2.2144
  321SOL     OW  961   1.451   2.729   2.859 -0.1802 -0.1736 -0.4590
  321SOL    HW1  962   1.392   2.649   2.890 -0.4642 -2.5839 -0.9062
  321SOL    HW2  963   1.464   2.726   2.760  0.3852  0.0076  3.5812
  322SOL     OW  964   2.276   1.312   1.892 -0.2670 -0.1968 -0.5449
  322SOL    HW1  965   2.302   1.394   1.835  0.3834  2.3442 -3.4600
  322SOL    HW2  966   2.299   1.326   1.993  0.4762  2.2485 -1.8041
  323SOL     OW  967   2.625   0.542   0.489  0.2623 -0.3466  0.1424
  323SOL    HW1  968   2.524   0.526   0.491 -1.8279  2.2949  1.5454
  323SOL    HW2  969   2.638   0.610   0.414 -1.4013  0.8457 -0.2087
  324SOL     OW  970   0.071   0.258   2.654 -0.0071  0.1507 -0.3857
  324SOL    HW1  971   0.090   0.221   2.748  1.5608  1.8051  3.2178
  324SOL    HW2  972   3.055   0.241   2.630 -0.8303 -0.6332  1.9353
  325SOL     OW  973   1.511   0.091   2.038 -0.3258 -0.1038  0.2118
  325SOL    HW1  974   1.591   0.110   1.981 -0.0950 -0.0663 -2.1002
  325SOL    HW2  975   1.436   0.047   1.986  2.2940 -0.8338  0.2850
  326SOL     OW  976   2.524   2.821   1.221  0.8870 -0.5653  0.2879
  326SOL    HW1  977   2.523   2.925   1.221  2.2130 -1.6339 -0.1380
  326SOL    HW2  978   2.469   2.792   1.137 -2.4211  1.1478 -3.4913
  327SOL     OW  979   1.630   0.533   2.855 -0.5727 -0.2802  0.4080
  327SOL    HW1  980   1.619   0.480   2.938  2.0625  0.7701  1.9571
  327SOL    HW2  981   1.666   0.473   2.783 -0.7283 -0.4326 -0.4834
  328SOL     OW  982   2.882   1.287   2.412 -0.2450 -0.2747 -0.3914
  328SOL    HW1  983   2.854   1.259   2.320 -1.0448  1.4200 -1.2456
  328SOL    HW2  984   2.802   1.288   2.471  0.9041  0.7347 -2.6694
  329SOL     OW  985   1.897   2.664   1.622  0.1790  0.0931 -0.1835
  329SOL    HW1  986   1.794   2.673   1.621  0.4739 -1.9151  0.7284
  329SOL    HW2  987   1.953   2.753   1.622  1.2556 -0.2253 -1.6860
  330SOL     OW  988   2.514   1.732   1.650  0.6545 -0.6957  0.4617
  330SOL    HW1  989   2.417   1.732   1.633  1.1297  0.1310  0.7528
  330SOL    HW2  990   2.556   1.646   1.684 -1.7119  1.2879 -1.2705
  331SOL     OW  991   0.152   1.759   1.362 -0.7230 -0.0168 -0.0961
  331SOL    HW1  992   0.199   1.784   1.274 -0.8858  1.6050  0.0086
  331SOL    HW2  993   0.188   1.816   1.439 -1.5833 -0.3653 -2.9000
  332SOL     OW  994   0.704   0.238   1.142  0.1286 -0.3283  0.0883
  332SOL    HW1  995   0.606   0.266   1.126 -2.9016  0.7689 -1.5761
  332SOL    HW2  996   0.750   0.306   1.200 -2.2203 -1.3718 -1.6451
  333SOL     OW  997   2.202   2.671   2.280 -0.2211  0.2251  0.0264
  333SOL    HW1  998   2.154   2.606   2.343  0.9140  0.5832 -0.2133
  333SOL    HW2  999   2.268   2.736   2.319 -0.2174 -1.2785 -3.7133
  334SOL     OW 1000   0.961   1.254   1.311  0.0021  0.6156  0.1200
  334SOL    HW1 1001   1.002   1.327   1.252  0.8831  1.8915 -0.1007
  334SOL    HW2 1002   0.892   1.285   1.377  0.5730  0.0215 -0.3062
  335SOL     OW 1003   0.657   2.823   2.592  0.0239  0.7960  0.4818
  335SOL    HW1 1004   0.633   2.920   2.587 -1.7594 -0.7180 -0.9191
  335SOL    HW2 1005   0.575   2.762   2.581 -1.1293 -0.3766  2.6643
  336SOL     OW 1006   2.488   2.398   1.871  0.0062  0.2432 -0.1847
  336SOL    HW1 1007   2.557   2.401   1.795 -1.3268 -0.0654  2.3691
  336SOL    HW2 1008   2.427   2.317   1.874  4.9296  0.7072 -0.7121
  337SOL     OW 1009   2.435   1.474   0.266  0.0482 -0.1917  0.1850
  337SOL    HW1 1010   2.426   1.562   0.216  0.3486  0.0262  2.2007
  337SOL    HW2 1011   2.526   1.474   0.313 -0.0827  2.4926  0.2971
  338SOL     OW 1012   1.158   1.851   1.415  0.6545 -0.3521 -0.7722
  338SOL    HW1 1013   1.071   1.910   1.408 -2.3478  0.2054 -0.1269
  338SOL    HW2 1014   1.185   1.821   1.510 -1.4799  0.6282 -2.8755
  339SOL     OW 1015   0.200   0.789   2.133 -0.1906  0.4090 -0.6730
  339SOL    HW1 1016   0.278   0.724   2.153  1.7080  0.9738  1.5759
  339SOL    HW2 1017   0.233   0.885   2.106  1.0000  2.2129 -0.7921
  340SOL     OW 1018   1.619   2.856   1.387  0.3937 -0.2543 -0.1092
  340SOL    HW1 1019   1.685   2.850   1.311 -0.4206  0.5587  1.2865
  340SOL    HW2 1020   1.527   2.842   1.344  0.4558  2.4468  0.4837
  341SOL     OW 1021   2.056   1.428   0.998  0.3139  0.4345 -0.3245
  341SOL    HW1 1022   2.138   1.363   1.013 -0.7681 -0.6089 -1.0536
  341SOL    HW2 1023   2.055   1.476   0.908  3.2396 -2.4606  0.9902
  342SOL     OW 1024   0.202   1.443   1.037  0.1095  0.5924  0.3194
  342SOL    HW1 1025   0.235   1.447   0.939  0.6606  0.9476 -2.4816
  342SOL    HW2 1026   0.205   1.537   1.078 -1.7397  0.3048 -0.3209
  343SOL     OW 1027   2.025   0.538   1.484  0.1369  0.2728  0.4489
  343SOL    HW1 1028   1.983   0.445   1.464 -1.6653  0.6207 -1.2605
  343SOL    HW2 1029   1.997   0.607   1.413 -3.1046 -1.4953  2.6378
  344SOL     OW 1030   2.097   2.963   0.898  0.1149 -0.2759  0.2521
  344SOL    HW1 1031   2.080   2.885   0.964 -1.6820  0.7934 -0.0636
  344SOL    HW2 1032   2.129   2.914   0.811 -0.9392 -3.3889  0.2744
  345SOL     OW 1033   2.799   0.001   2.807  0.7622  0.6574 -0.1138
  345SOL    HW1 1034   2.700   0.036   2.814 -0.7242 -0.6253  0.8584
  345SOL    HW2 1035   2.820   3.030   2.897  0.6981  0.8527  0.5158
  346SOL     OW 1036   2.795   0.854   0.491  0.1866  0.3704 -0.1070
  346SOL    HW1 1037   2.760   0.815   0.400  1.2160 -1.5311 -2.7345
  346SOL    HW2 1038   2.873   0.795   0.530  0.8690 -1.8407 -0.2545
  347SOL     OW 1039   1.776   2.822   1.171  0.4199  0.1703 -0.4668
  347SOL    HW1 1040   1.872   2.830   1.204 -0.7177 -1.3222  0.3861
  347SOL    HW2 1041   1.771   2.762   1.089 -2.9562  0.1874  1.9117
  348SOL     OW 1042   1.403   1.169   1.948 -0.1176 -0.0371  0.6232
  348SOL    HW1 1043   1.365   1.244   1.883  0.9701  1.4497 -0.8901
  348SOL    HW2 1044   1.331   1.108   1.991 -1.0704  1.7282  2.0450
  349SOL     OW 1045   2.069   1.257   2.253  0.7068 -0.0533 -0.2650
  349SOL    HW1 1046   2.091   1.157   2.241 -2.4536 -1.4382 -2.9894
  349SOL    HW2 1047   2.143   1.315   2.216 -1.2152  0.6518  1.7399
  350SOL     OW 1048   0.167   1.984   1.145  0.9928 -0.1884 -0.3359
  350SOL    HW1 1049   0.250   2.043   1.159 -0.5315 -2.1703  0.1790
  350SOL    HW2 1050   0.081   2.034   1.176 -1.4809 -0.7172 -0.0901
  351SOL     OW 1051   0.752   0.551   2.346 -0.5884 -0.2809 -0.1110
  351SOL    HW1 1052   0.770   0.463   2.397  1.0102 -1.6390 -1.4061
  351SOL    HW2 1053   0.837   0.606   2.334 -0.1245 -1.5847 -2.1213
  352SOL     OW 1054   1.060   2.773   1.726  0.9328  0.6557  0.4723
  352SOL    HW1 1055   1.147   2.770   1.675 -0.0593  2.2480 -0.5759
  352SOL    HW2 1056   0.984   2.744   1.658  0.7465 -2.7556 -2.9855
  353SOL     OW 1057   0.911   1.532   2.498  0.0935 -0.3820 -0.1090
  353SOL    HW1 1058   0.903   1.598   2.570  1.6677 -0.3016  0.2606
  353SOL    HW2 1059   0.908   1.570   2.404 -1.7700 -0.4152  0.6900
  354SOL     OW 1060   1.824   1.347   0.532  0.2238  0.3932 -0.6767
  354SOL    HW1 1061   1.775   1.319   0.446  1.4209  0.3883  2.0953
  354SOL    HW2 1062   1.759   1.342   0.613 -0.5155  0.0402  3.1651
  355SOL     OW 1063   2.318   0.093   0.581 -0.2913  0.6631  0.0006
  355SOL    HW1 1064   2.285   0.080   0.676  1.7640  1.4424 -3.1719
  355SOL    HW2 1065   2.415   0.124   0.585  2.2397 -2.1976  0.2372
  356SOL     OW 1066   0.118   1.051   2.852  0.3411 -0.8606 -0.6300
  356SOL    HW1 1067   0.156   1.022   2.944 -1.6669 -0.1817 -1.5289
  356SOL    HW2 1068   0.087   1.147   2.858 -0.2015 -0.4559 -1.0024
  357SOL     OW 1069   3.020   2.991   1.673 -0.4260  0.3053  0.3988
  357SOL    HW1 1070   3.040   3.018   1.576  0.8180 -1.3407  0.3424
  357SOL    HW2 1071   0.030   2.985   1.725  1.3036  1.7182  0.5589
  358SOL     OW 1072   0.126   1.427   2.682  0.0415  0.5666  0.5919
  358SOL    HW1 1073   0.070   1.505   2.649 -0.4739 -1.4686  0.3308
  358SOL    HW2 1074   0.076   1.372   2.754 -0.7457 -1.8347  1.0451
  359SOL     OW 1075   2.510   2.481   2.353 -0.0524 -0.1607 -0.1227
  359SOL    HW1 1076   2.548   2.552   2.415  0.9609  0.6534  2.6152
  359SOL    HW2 1077   2.533   2.503   2.260 -0.5510  0.7144  2.2164
  360SOL     OW 1078   1.471   1.293   0.894  0.1020 -0.4963  0.3455
  360SOL    HW1 1079   1.486   1.382   0.849 -1.2238  1.1487  2.1870
  360SOL    HW2 1080   1.416   1.306   0.980  2.3613  0.1078 -3.7838
  361SOL     OW 1081   2.171   2.381   1.056  0.7646  0.9553  0.1301
  361SOL    HW1 1082   2.186   2.374   1.152  0.3112  0.9640 -3.4980
  361SOL    HW2 1083   2.073   2.369   1.030 -2.5919  0.4748 -1.9701
  362SOL     OW 1084   1.847   1.251   1.051 -0.3213  0.9209  0.2000
  362SOL    HW1 1085   1.926   1.314   1.026 -1.7372  2.0644  1.0551
  362SOL    HW2 1086   1.807   1.220   0.965  0.9315 -1.0423 -0.0932
  363SOL     OW 1087   2.639   1.797   0.378 -0.1574  0.1643 -0.0009
  363SOL    HW1 1088   2.694   1.802   0.292  1.1974 -1.5546 -0.2536
  363SOL    HW2 1089   2.547   1.832   0.358  0.3739 -0.9430 -1.4569
  364SOL     OW 1090   2.207   0.147   1.696 -0.5639  0.4706  0.0649
  364SOL    HW1 1091   2.245   0.116   1.608  0.2020  0.2073  0.1436
  364SOL    HW2 1092   2.284   0.182   1.750 -2.6130  1.9611  2.2753
  365SOL     OW 1093   0.172   2.655   0.937  0.1656  0.2036 -0.6210
  365SOL    HW1 1094   0.184   2.611   0.850  1.6706 -3.4755  1.1144
  365SOL    HW2 1095   0.073   2.646   0.955  2.0708 -0.2923 -1.1692
  366SOL     OW 1096   2.995   1.025   0.321 -0.2096 -0.1893 -0.0452
  366SOL    HW1 1097   2.945   0.994   0.404  0.5411  0.2352 -1.7116
  366SOL    HW2 1098   0.010   1.064   0.345  0.2133  0.6042 -1.2361
  367SOL     OW 1099   2.351   2.360   2.815  0.2975  0.5729 -0.6173
  367SOL    HW1 1100   2.319   2.266   2.832 -1.7870 -0.8164 -0.5555
  367SOL    HW2 1101   2.386   2.365   2.723 -1.2444  0.9022 -0.2110
  368SOL     OW 1102   2.868   1.888   1.076  0.1384  0.2385  0.5554
  368SOL    HW1 1103   2.939   1.817   1.084 -0.6267  2.3947 -1.8710
  368SOL    HW2 1104   2.846   1.927   1.169 -0.1803  2.4410  0.4012
  369SOL     OW 1105   0.731   0.721   0.496 -0.0580  0.0927  0.4733
  369SOL    HW1 1106   0.659   0.691   0.558 -1.0093  0.7853  0.5180
  369SOL    HW2 1107   0.717   0.819   0.478 -1.2375  3.4799 -0.3239
  370SOL     OW 1108   0.726   2.979   0.888  0.5987  0.6387  0.3504
  370SOL    HW1 1109   0.629   2.980   0.917  0.6482 -0.1093 -1.3937
  370SOL    HW2 1110   0.768   3.071   0.900 -1.5109  1.2128 -1.5129
  371SOL     OW 1111   2.271   1.229   0.028  0.1658 -0.1190 -0.1667
  371SOL    HW1 1112   2.196   1.269   0.079  1.9421  0.4182 -0.6628
  371SOL    HW2 1113   2.269   1.257   3.008 -0.1314  0.3663  0.1546
  372SOL     OW 1114   0.345   1.050   2.698  0.2389  0.1050  0.3498
  372SOL    HW1 1115   0.263   1.060   2.761  0.6494  1.0016 -0.4846
  372SOL    HW2 1116   0.313   1.027   2.603 -0.7308 -1.3848 -0.3871
  373SOL     OW 1117   0.031   0.555   2.948 -0.0437 -0.1513 -0.3228
  373SOL    HW1 1118   0.020   0.626   3.020  0.3370  0.2892 -0.1617
  373SOL    HW2 1119   0.129   0.560   2.922 -0.6173  1.3350  0.0764
  374SOL     OW 1120   0.897   2.279   0.085 -0.1946  0.0165 -0.2697
  374SOL    HW1 1121   0.919   2.348   0.015 -0.1221 -0.9501  0.3090
  374SOL    HW2 1122   0.900   2.315   0.178 -1.6393  1.1453 -1.8407
  375SOL     OW 1123   1.109   0.195   0.369 -0.0083 -0.4148 -0.0802
  375SOL    HW1 1124   1.160   0.283   0.380 -2.9499 -2.1088 -1.2259
  375SOL    HW2 1125   1.160   0.114   0.403  0.2398  0.9966 -0.7892
  376SOL     OW 1126   0.253   2.469   2.025 -0.6063 -0.2201  0.7873
  376SOL    HW1 1127   0.205   2.397   1.961 -0.8667 -4.3720 -3.2659
  376SOL    HW2 1128   0.208   2.474   2.114 -1.0802 -1.1012  1.5273
  377SOL     OW 1129   2.837   2.032   2.811 -0.3664  0.2281 -0.0466
  377SOL    HW1 1130   2.770   2.052   2.884  0.7905 -1.2760 -0.3245
  377SOL    HW2 1131   2.794   1.982   2.735 -1.6022  0.9991 -0.5781
  378SOL     OW 1132   1.551   0.809   0.507  0.1888  0.1433 -0.5102
  378SOL    HW1 1133   1.495   0.863   0.437  0.8773  3.4663 -1.6839
  378SOL    HW2 1134   1.511   0.723   0.544  0.3271  0.9976 -1.0037
  379SOL     OW 1135   1.258   1.367   0.609 -0.5766  1.1326  0.2047
  379SOL    HW1 1136   1.183   1.343   0.545  0.0630 -0.9461 -0.9749
  379SOL    HW2 1137   1.231   1.450   0.659  0.2838 -0.5998 -0.7084
  380SOL     OW 1138   2.132   2.289   1.572 -0.5105 -0.3450  0.8205
  380SOL    HW1 1139   2.213   2.228   1.576  0.8480 -1.2209 -1.0014
  380SOL    HW2 1140   2.048   2.237   1.598  0.9897 -3.4944  0.9651
  381SOL     OW 1141   3.004   0.959   2.234  0.2666  0.1053 -0.4687
  381SOL    HW1 1142   3.069   1.037   2.218 -0.9824  1.5825  2.1206
  381SOL    HW2 1143   2.918   0.978   2.186 -2.3716  1.7731 -0.3145
  382SOL     OW 1144   2.915   2.545   0.244  0.2430  0.1557  0.2962
  382SOL    HW1 1145   3.008   2.569   0.213 -2.8760 -0.5563  0.9140
  382SOL    HW2 1146   2.867   2.485   0.175  0.3335  0.5971  1.9007
  383SOL     OW 1147   1.585   1.180   2.135  0.1821 -0.5129 -0.4917
  383SOL    HW1 1148   1.634   1.265   2.110 -4.8999 -1.8044 -1.5360
  383SOL    HW2 1149   1.507   1.176   2.069 -1.0474  1.9770 -0.3668
  384SOL     OW 1150   0.750   2.097   2.562  0.1714  0.1496  0.0863
  384SOL    HW1 1151   0.751   2.181   2.501 -0.6971 -1.0472  0.3160
  384SOL    HW2 1152   0.837   2.044   2.568 -0.2196 -0.1793  1.6223
  385SOL     OW 1153   2.586   2.366   0.541 -0.0010  0.4938 -0.2217
  385SOL    HW1 1154   2.580   2.458   0.580  0.0769 -1.6557 -1.2914
  385SOL    HW2 1155   2.544   2.311   0.616  0.3546 -1.4885  1.5153
  386SOL     OW 1156   1.652   1.205   0.348 -0.9550 -0.5879  0.0942
  386SOL    HW1 1157   1.571   1.243   0.395  2.3091  0.1349  3.3041
  386SOL    HW2 1158   1.634   1.107   0.327 -1.0762 -3.9389 -0.4358
  387SOL     OW 1159   2.632   0.693   1.377  0.0357  0.4222  0.5091
  387SOL    HW1 1160   2.584   0.749   1.310  2.2111  0.5677 -1.1131
  387SOL    HW2 1161   2.690   0.758   1.433  0.0683  0.4613  1.0056
  388SOL     OW 1162   2.952   0.878   1.247 -0.1912 -0.4536  0.0620
  388SOL    HW1 1163   2.950   0.898   1.345 -1.7705  1.1146  0.1492
  388SOL    HW2 1164   2.965   0.779   1.229  0.2814 -1.1653 -0.2243
  389SOL     OW 1165   1.810   1.091   2.500  0.4711  0.5908  0.1130
  389SOL    HW1 1166   1.806   1.086   2.600  0.1248 -0.0566 -0.0205
  389SOL    HW2 1167   1.845   1.178   2.461 -1.4715 -1.2459 -0.2416
  390SOL     OW 1168   1.362   2.070   0.437  0.0936 -0.1396  0.0323
  390SOL    HW1 1169   1.382   2.141   0.371  0.4333 -1.7956  0.8164
  390SOL    HW2 1170   1.437   2.003   0.446  0.7399 -4.4445 -2.4592
  391SOL     OW 1171   1.132   2.181   1.142 -0.3008 -0.5175  0.0974
  391SOL    HW1 1172   1.214   2.186   1.204  2.0087  1.2640 -0.7864
  391SOL    HW2 1173   1.153   2.176   1.044  1.4185  0.9885  0.3799
  392SOL     OW 1174   2.299   2.593   1.902  0.8312  0.4077  0.6177
  392SOL    HW1 1175   2.224   2.567   1.833  2.8548  1.6580  2.2708
  392SOL    HW2 1176   2.385   2.549   1.870  0.7020 -1.1673  2.7643
  393SOL     OW 1177   1.762   2.316   2.675 -0.4061 -0.1171  0.6481
  393SOL    HW1 1178   1.753   2.407   2.625 -1.9132  2.7115  0.2043
  393SOL    HW2 1179   1.720   2.238   2.621  0.1789  0.7412  1.4980
  394SOL     OW 1180   0.132   0.461   2.479 -0.0320  0.1343  0.3013
  394SOL    HW1 1181   0.098   0.394   2.547 -1.7684  0.2032 -2.2785
  394SOL    HW2 1182   0.179   0.421   2.401  0.4933  2.0510 -0.8694
  395SOL     OW 1183   0.423   1.177   0.973  0.4452 -0.2059 -0.8776
  395SOL    HW1 1184   0.335   1.127   0.996 -0.6435 -1.3350  0.5899
  395SOL    HW2 1185   0.450   1.228   1.055 -0.5912 -0.1800  0.3488
  396SOL     OW 1186   2.237   0.811   2.693 -0.5597  0.6230  0.1455
  396SOL    HW1 1187   2.174   0.763   2.758  2.7321  0.8870  1.0106
  396SOL    HW2 1188   2.205   0.805   2.594 -0.5213  0.6136 -0.7249
  397SOL     OW 1189   2.950   0.545   2.497  0.3612 -0.1753  0.0366
  397SOL    HW1 1190   3.047   0.515   2.471 -0.3507  0.9547 -0.7005
  397SOL    HW2 1191   2.933   0.640   2.462 -0.6609 -2.2400  0.6985
  398SOL     OW 1192   1.638   2.829   0.195 -0.0080 -0.0632  0.0228
  398SOL    HW1 1193   1.643   2.929   0.228 -1.8930  1.2617  1.0932
  398SOL    HW2 1194   1.597   2.830   0.104  0.8914 -3.1798  2.5794
  399SOL     OW 1195   2.097   2.213   1.953  0.0111 -0.4329  0.0051
  399SOL    HW1 1196   2.148   2.252   2.033  1.0767 -0.0642  2.0181
  399SOL    HW2 1197   2.009   2.259   1.938  1.6440  0.4055 -0.0510
  400SOL     OW 1198   2.864   1.868   2.200 -0.5193 -0.2856  0.3957
  400SOL    HW1 1199   2.928   1.894   2.119  3.5625  1.3406 -0.3062
  400SOL    HW2 1200   2.845   1.765   2.194  0.3712 -1.3551 -1.0891
  401SOL     OW 1201   0.402   0.848   0.582 -0.2202 -0.6394  0.0651
  401SOL    HW1 1202   0.464   0.777   0.615  1.7757  0.3895 -2.1107
  401SOL    HW2 1203   0.418   0.928   0.640  0.0272  1.9278 -0.0928
  402SOL     OW 1204   0.776   2.835   2.120 -0.2578 -0.0027 -0.0761
  402SOL    HW1 1205   0.804   2.815   2.221  0.6890  1.0017 -0.4749
  402SOL    HW2 1206   0.854   2.856   2.063 -3.1492 -3.8339 -0.6993
  403SOL     OW 1207   2.815   1.605   2.244  0.2124 -0.5420 -0.1753
  403SOL    HW1 1208   2.790   1.608   2.344  1.3584  1.7614  2.9114
  403SOL    HW2 1209   2.882   1.531   2.231 -1.3621  0.1036  1.0693
  404SOL     OW 1210   2.621   2.204   2.183  0.2152  0.4770 -0.2779
  404SOL    HW1 1211   2.602   2.303   2.176  0.6647  0.7414 -1.9751
  404SOL    HW2 1212   2.716   2.178   2.161  2.2289  0.1570  2.6549
  405SOL     OW 1213   2.005   0.073   2.536  0.0752 -0.1563 -0.5988
  405SOL    HW1 1214   2.068   0.043   2.617  1.1209 -0.4226  2.6560
  405SOL    HW2 1215   1.908   0.036   2.547 -3.0092 -2.7012 -2.2860
  406SOL     OW 1216   1.364   1.742   0.412  0.9400  0.1560 -0.1426
  406SOL    HW1 1217   1.436   1.748   0.478 -0.6220 -0.4082 -0.4766
  406SOL    HW2 1218   1.292   1.807   0.438 -1.8930 -1.5810  0.5765
  407SOL     OW 1219   1.761   1.295   0.103  0.4199  0.1531  0.0496
  407SOL    HW1 1220   1.758   1.207   0.050 -0.5641  0.1891  1.9316
  407SOL    HW2 1221   1.741   1.260   0.196 -3.5776 -0.7505 -0.0206
  408SOL     OW 1222   0.244   0.838   1.523 -0.1898  0.0489  0.5064
  408SOL    HW1 1223   0.242   0.824   1.623  1.0238 -0.4398 -1.8804
  408SOL    HW2 1224   0.214   0.754   1.470 -1.5962  1.3067 -0.2425
  409SOL     OW 1225   0.012   1.298   2.894 -0.8808  0.7273  0.1132
  409SOL    HW1 1226   2.992   1.300   2.861 -1.6406  1.7225  1.2830
  409SOL    HW2 1227   0.019   1.333   2.990 -0.4005  0.3518  2.3960
  410SOL     OW 1228   2.503   2.045   0.571 -0.0036 -0.5361  0.7711
  410SOL    HW1 1229   2.556   1.968   0.611  0.8576  0.2657 -1.3107
  410SOL    HW2 1230   2.487   2.011   0.474 -2.0324 -0.5803  0.6943
  411SOL     OW 1231   3.072   0.511   0.334 -0.4277  0.1510  0.5593
  411SOL    HW1 1232   3.002   0.485   0.260 -2.3957 -1.6257 -1.4894
  411SOL    HW2 1233   0.065   0.441   0.346 -0.3567 -1.6291 -1.9833
  412SOL     OW 1234   1.690   0.019   0.221  0.0956  0.1006  0.5237
  412SOL    HW1 1235   1.760   0.062   0.285  2.2503  0.9605 -0.8920
  412SOL    HW2 1236   1.720   0.044   0.130  0.9797  1.0547 -0.2867
  413SOL     OW 1237   1.107   0.290   1.542 -0.4670 -0.4480  0.0702
  413SOL    HW1 1238   1.190   0.277   1.604 -1.3936 -0.2959  1.4547
  413SOL    HW2 1239   1.127   0.241   1.450  1.6064 -1.4145 -2.2013
  414SOL     OW 1240   0.391   1.218   0.229  0.0967 -0.3022  0.0790
  414SOL    HW1 1241   0.296   1.257   0.251  0.3262  1.1627 -2.4341
  414SOL    HW2 1242   0.405   1.133   0.290  0.4156  1.5891 -1.4685
  415SOL     OW 1243   2.858   1.399   0.210  0.2089 -0.5700  0.0479
  415SOL    HW1 1244   2.949   1.419   0.170  1.0449  1.0824 -2.6653
  415SOL    HW2 1245   2.865   1.356   0.306  0.8915  1.1650  0.2048
  416SOL     OW 1246   2.271   0.503   0.068  0.3355  0.0833  0.3029
  416SOL    HW1 1247   2.341   0.431   0.054 -3.6944  1.0550  1.7832
  416SOL    HW2 1248   2.310   0.592   0.039 -0.0130  0.8458  0.9402
  417SOL     OW 1249   2.683   2.829   0.442  0.3474  0.0359 -0.1693
  417SOL    HW1 1250   2.644   2.817   0.348 -1.8017 -0.2455 -1.2584
  417SOL    HW2 1251   2.783   2.822   0.442 -0.6726 -0.2966  1.8645
  418SOL     OW 1252   0.019   0.312   0.047  0.0332 -0.1816 -0.4768
  418SOL    HW1 1253   2.997   0.334   0.046  0.0921  0.9186 -1.6371
  418SOL    HW2 1254   0.077   0.348   3.050 -0.0463 -2.1496 -2.3362
  419SOL     OW 1255   0.827   0.954   0.894  0.2845  0.5144  0.8441
  419SOL    HW1 1256   0.882   0.989   0.971 -2.5422 -1.1875 -2.2012
  419SOL    HW2 1257   0.736   0.920   0.929  2.6213  1.7793 -0.4883
  420SOL     OW 1258   0.534   0.963   0.857  0.7693 -0.5033 -0.1097
  420SOL    HW1 1259   0.503   1.047   0.908 -0.1771 -0.4467 -0.7028
  420SOL    HW2 1260   0.559   0.889   0.920 -1.6030  0.4977  1.9657
  421SOL     OW 1261   0.596   2.098   0.381 -0.5483 -0.2537 -0.5478
  421SOL    HW1 1262   0.611   2.027   0.312  0.7407  0.6204  1.8460
  421SOL    HW2 1263   0.597   2.194   0.336 -1.1104  0.4741  0.0982
  422SOL     OW 1264   2.668   0.553   1.877  0.4025  0.5348 -0.5913
  422SOL    HW1 1265   2.695   0.469   1.927  2.3717 -1.6069  2.2357
  422SOL    HW2 1266   2.565   0.551   1.869  0.3080 -2.0196 -1.4296
  423SOL     OW 1267   1.903   1.958   0.127  0.1446  0.0684  0.0957
  423SOL    HW1 1268   1.835   1.978   0.052 -4.1254 -1.3908  1.0773
  423SOL    HW2 1269   1.968   2.039   0.137  2.2729 -1.0865 -0.2208
  424SOL     OW 1270   1.735   1.387   2.597  0.5400 -0.5088  0.0445
  424SOL    HW1 1271   1.757   1.347   2.503 -1.5688 -0.6576  3.8447
  424SOL    HW2 1272   1.712   1.310   2.659 -0.4681  0.0908  0.5171
  425SOL     OW 1273   3.039   2.878   2.135 -0.0201 -0.1915 -0.4445
  425SOL    HW1 1274   2.964   2.914   2.191  1.4792  2.3289  0.1516
  425SOL    HW2 1275   0.027   2.823   2.194  4.2458 -1.2908  2.1673
  426SOL     OW 1276   2.103   2.722   0.442  0.1566 -0.3781  0.2360
  426SOL    HW1 1277   2.038   2.644   0.443  2.0862 -0.8454 -1.5156
  426SOL    HW2 1278   2.199   2.689   0.420  1.2605 -2.4986  1.0205
  427SOL     OW 1279   0.228   1.331   2.443 -0.0891  0.4880 -0.1756
  427SOL    HW1 1280   0.279   1.416   2.429 -1.6802 -1.0776 -0.9026
  427SOL    HW2 1281   0.169   1.339   2.523  0.9660  2.4235  0.3982
  428SOL     OW 1282   2.391   1.258   2.553  0.0970 -0.0032  0.7379
  428SOL    HW1 1283   2.417   1.169   2.597  2.2796 -1.1722 -1.2290
  428SOL    HW2 1284   2.289   1.264   2.550 -0.8692 -0.4252 -0.4248
  429SOL     OW 1285   2.433   2.838   0.664 -0.2230  0.5345 -0.2243
  429SOL    HW1 1286   2.498   2.754   0.663 -0.3022 -3.6406  1.4279
  429SOL    HW2 1287   2.437   2.883   0.570 -0.7122 -0.5768  0.6034
  430SOL     OW 1288   1.549   1.920   2.304  0.4294  0.3619 -0.0606
  430SOL    HW1 1289   1.473   1.914   2.232 -0.1554 -2.6014 -0.6882
  430SOL    HW2 1290   1.507   1.908   2.395 -0.3674  1.8989 -0.6991
  431SOL     OW 1291   2.943   2.150   1.683  0.2422 -0.5850  0.2810
  431SOL    HW1 1292   2.913   2.161   1.777 -1.0547  1.0883 -2.6580
  431SOL    HW2 1293   2.922   2.062   1.640  1.2973 -1.3693 -0.0770
  432SOL     OW 1294   1.155   1.970   2.439 -0.6115 -0.1052 -0.6556
  432SOL    HW1 1295   1.059   1.959   2.481 -0.5213 -1.2087 -1.7747
  432SOL    HW2 1296   1.199   2.048   2.485  0.9811  0.2498  1.7756
  433SOL     OW 1297   1.116   2.716   0.826 -0.0865  0.0658  0.1015
  433SOL    HW1 1298   1.090   2.626   0.783  0.4543  0.3116 -0.6495
  433SOL    HW2 1299   1.111   2.791   0.758 -1.3703  0.3614  1.6056
  434SOL     OW 1300   0.114   1.959   2.447 -0.1142  0.0563 -0.0616
  434SOL    HW1 1301   0.035   1.898   2.463  1.4044  0.0423  2.4918
  434SOL    HW2 1302   0.082   2.041   2.395  2.2463  2.0601 -0.8052
  435SOL     OW 1303   0.278   1.449   0.743 -0.3415 -0.2879  0.1680
  435SOL    HW1 1304   0.354   1.512   0.707  2.6744 -2.0311 -0.2807
  435SOL    HW2 1305   0.185   1.470   0.696 -0.3855 -0.6003  1.7275
  436SOL     OW 1306   0.435   2.195   1.748 -0.1213  0.1947 -0.2247
  436SOL    HW1 1307   0.386   2.260   1.689  3.4225 -1.7573  2.5206
  436SOL    HW2 1308   0.527   2.165   1.721 -3.9033  0.6736  0.4838
  437SOL     OW 1309   1.000   0.601   0.521  0.2038 -0.1435 -0.2296
  437SOL    HW1 1310   0.899   0.602   0.508  5.1041 -0.2691 -0.2991
  437SOL    HW2 1311   1.051   0.685   0.480 -1.3411 -0.2530  0.0103
  438SOL     OW 1312   0.285   2.013   0.848  0.3437  0.5875  0.0106
  438SOL    HW1 1313   0.236   2.090   0.888  0.3513  0.1195  0.9376
  438SOL    HW2 1314   0.385   2.013   0.874 -2.3902  0.9806  1.5115
  439SOL     OW 1315   1.070   2.568   1.899 -0.0857 -0.1825 -0.0058
  439SOL    HW1 1316   0.979   2.533   1.934 -0.9688  0.1300 -0.1575
  439SOL    HW2 1317   1.064   2.639   1.827  1.8323 -0.0495 -2.6714
  440SOL     OW 1318   1.604   0.162   1.595 -0.1724  0.2495  0.1808
  440SOL    HW1 1319   1.625   0.187   1.692  2.3005  0.6762 -1.3547
  440SOL    HW2 1320   1.630   0.242   1.541 -1.0996 -0.2069  0.4408
  441SOL     OW 1321   0.401   0.262   1.506  0.1531 -0.0816  0.0065
  441SOL    HW1 1322   0.343   0.208   1.565 -0.0361  0.5555 -1.1577
  441SOL    HW2 1323   0.407   0.203   1.421 -1.8123  0.9008  0.3259
  442SOL     OW 1324   2.129   1.837   0.390 -0.0644  0.2115  0.2890
  442SOL    HW1 1325   2.111   1.739   0.414 -1.3155 -0.5056  0.5375
  442SOL    HW2 1326   2.072   1.869   0.308 -0.3838  1.8748 -1.0805
  443SOL     OW 1327   2.520   0.348   2.177  0.9920  0.5298 -0.1537
  443SOL    HW1 1328   2.599   0.286   2.193 -2.8927  1.0423  0.8425
  443SOL    HW2 1329   2.433   0.292   2.168 -0.1818 -2.5865 -1.7601
  444SOL     OW 1330   2.124   1.087   1.789 -0.0334 -0.0598  0.0682
  444SOL    HW1 1331   2.160   1.004   1.830  1.7326 -1.2066  0.4071
  444SOL    HW2 1332   2.195   1.158   1.784 -2.0991 -1.0498 -0.3750
  445SOL     OW 1333   2.594   2.188   1.575 -0.5604 -0.3212  0.5122
  445SOL    HW1 1334   2.592   2.107   1.641  1.2990 -0.1381  2.0925
  445SOL    HW2 1335   2.637   2.271   1.621  0.7974 -1.8352 -1.8585
  446SOL     OW 1336   2.972   1.341   0.774  0.1197  0.5476  0.1926
  446SOL    HW1 1337   3.041   1.285   0.827  2.7260 -0.8616 -0.6188
  446SOL    HW2 1338   2.878   1.313   0.795  0.2876  0.7253 -1.1537
  447SOL     OW 1339   1.220   1.571   0.775  0.0177  0.1020  0.6540
  447SOL    HW1 1340   1.279   1.576   0.855 -1.9064 -0.5828 -4.0088
  447SOL    HW2 1341   1.161   1.653   0.758 -0.2159 -2.8785  2.1754
  448SOL     OW 1342   1.272   1.317   1.759 -0.0775 -0.0595  0.2626
  448SOL    HW1 1343   1.341   1.321   1.689 -0.0756 -0.9089  0.4767
  448SOL    HW2 1344   1.218   1.233   1.736  2.0950  0.8821  1.7011
  449SOL     OW 1345   0.576   1.425   0.202 -0.6549  0.1561  0.0562
  449SOL    HW1 1346   0.523   1.512   0.199  1.7353  0.6013  0.9448
  449SOL    HW2 1347   0.522   1.338   0.219 -0.2743 -1.2148  1.7656
  450SOL     OW 1348   2.322   2.165   1.839 -0.3127 -0.3079 -0.1552
  450SOL    HW1 1349   2.325   2.129   1.740 -0.4774 -1.5222 -1.9212
  450SOL    HW2 1350   2.227   2.176   1.873 -1.9754 -2.9807 -0.8407
  451SOL     OW 1351   1.895   0.017   2.151  0.3247 -0.5643  0.2957
  451SOL    HW1 1352   1.973   0.002   2.215  0.7779  1.4737  0.6275
  451SOL    HW2 1353   1.869   0.114   2.149  0.9797  0.9373  1.6173
  452SOL     OW 1354   1.027   3.025   1.362 -0.3479  0.0646  0.3422
  452SOL    HW1 1355   1.005   2.926   1.340 -0.8577 -0.8999  0.1310
  452SOL    HW2 1356   0.942   0.001   1.357  0.0370 -0.1353  1.6652
  453SOL     OW 1357   1.118   1.326   0.899 -0.0263  0.1301 -0.7042
  453SOL    HW1 1358   1.193   1.363   0.840 -0.4990 -0.7979  0.8203
  453SOL    HW2 1359   1.027   1.350   0.855 -1.1998 -0.3553 -3.6049
  454SOL     OW 1360   0.592   1.340   0.819 -0.1915 -0.2086  0.1207
  454SOL    HW1 1361   0.506   1.301   0.858 -1.3085 -1.9221 -0.0300
  454SOL    HW2 1362   0.564   1.416   0.754 -1.3936  0.4268 -0.1810
  455SOL     OW 1363   2.805   2.794   2.965 -0.6420  0.0385  0.4344
  455SOL    HW1 1364   2.787   2.819   3.062  0.7760  0.4869  0.1474
  455SOL    HW2 1365   2.903   2.810   2.951 -0.0396  0.4295  0.9799
  456SOL     OW 1366   2.311   2.164   0.962  0.3334  0.1192 -0.0565
  456SOL    HW1 1367   2.258   2.249   0.988  1.0254  0.6910  2.2172
  456SOL    HW2 1368   2.361   2.123   1.041  1.3526  3.0574  2.0329
  457SOL     OW 1369   1.457   0.119   0.261 -0.4407  0.0889  0.0013
  457SOL    HW1 1370   1.548   0.071   0.251 -2.3573 -0.4681 -1.8704
  457SOL    HW2 1371   1.465   0.221   0.275  1.1391 -0.3233  2.7036
  458SOL     OW 1372   2.756   3.071   0.550  0.4597 -0.1747 -0.0094
  458SOL    HW1 1373   2.785   3.032   0.638  2.4551 -2.0019 -0.8560
  458SOL    HW2 1374   2.714   2.994   0.491 -1.2554  0.5199  0.0792
  459SOL     OW 1375   2.124   0.334   2.534  0.7067  0.2705  0.0789
  459SOL    HW1 1376   2.114   0.377   2.626 -0.3291  0.8696  1.7489
  459SOL    HW2 1377   2.070   0.249   2.524  0.0256  1.1058 -0.2376
  460SOL     OW 1378   2.780   0.006   0.183 -0.2539  0.7851  0.0360
  460SOL    HW1 1379   2.806   2.990   0.155  0.7319  0.8909 -2.1812
  460SOL    HW2 1380   2.849   0.037   0.252  3.1763 -0.2704 -2.4481
  461SOL     OW 1381   0.655   1.477   1.289 -0.1574  0.5193 -0.1235
  461SOL    HW1 1382   0.735   1.450   1.347 -1.9806 -1.7458 -1.5692
  461SOL    HW2 1383   0.692   1.529   1.209 -0.3472  1.0245  0.7953
  462SOL     OW 1384   2.473   2.947   1.621 -0.0181 -0.2931  0.0755
  462SOL    HW1 1385   2.571   2.972   1.633  1.7094 -3.5254  0.0445
  462SOL    HW2 1386   2.447   2.869   1.559 -1.7940  3.0644  0.0274
  463SOL     OW 1387   2.738   0.992   3.006 -0.4839 -0.7964 -0.1711
  463SOL    HW1 1388   2.737   1.093   3.030  3.5502 -1.3923 -0.1994
  463SOL    HW2 1389   2.677   0.937   3.066 -0.9849  0.9406 -0.0440
  464SOL     OW 1390   0.172   2.604   1.348  0.5201  0.1531  0.2272
  464SOL    HW1 1391   0.190   2.659   1.263 -0.2092  2.1760 -2.6128
  464SOL    HW2 1392   0.137   2.515   1.317 -0.1956  1.0956  0.1659
  465SOL     OW 1393   0.545   1.559   0.674  0.7675  0.0140  0.0546
  465SOL    HW1 1394   0.594   1.561   0.585  0.3027 -2.0115  0.4058
  465SOL    HW2 1395   0.556   1.649   0.722  0.4047  3.4754  0.2537
  466SOL     OW 1396   1.074   0.303   2.250  0.0787 -0.0184  0.2786
  466SOL    HW1 1397   1.165   0.305   2.302  4.3271  1.4062  0.6274
  466SOL    HW2 1398   1.086   0.341   2.158 -2.0688  0.4867  0.4396
  467SOL     OW 1399   0.947   0.736   2.254 -0.1236  0.1663 -0.2032
  467SOL    HW1 1400   0.912   0.829   2.281 -0.0787  0.9474  0.6662
  467SOL    HW2 1401   1.048   0.732   2.276  3.0728  0.6476 -1.6466
  468SOL     OW 1402   0.441   1.159   2.449  0.3263  1.0901  0.4465
  468SOL    HW1 1403   0.528   1.172   2.497 -0.2418 -2.0742 -0.1722
  468SOL    HW2 1404   0.366   1.221   2.473  3.2588  1.7311  1.1250
  469SOL     OW 1405   0.304   2.153   0.375  0.4982  0.6100 -0.2774
  469SOL    HW1 1406   0.384   2.097   0.341  0.6249 -3.2119 -0.4649
  469SOL    HW2 1407   0.235   2.171   0.298 -0.1060  1.8808  0.8876
  470SOL     OW 1408   2.662   1.669   2.485  0.3045  0.0069 -0.4174
  470SOL    HW1 1409   2.616   1.644   2.576 -1.0020 -1.6545  1.2827
  470SOL    HW2 1410   2.592   1.702   2.414 -1.8761  1.5573 -2.7717
  471SOL     OW 1411   1.691   0.705   2.252 -0.2738  0.3034 -0.6226
  471SOL    HW1 1412   1.629   0.762   2.194  1.2611 -0.1427  0.5617
  471SOL    HW2 1413   1.721   0.626   2.192  0.6305  0.8196 -3.8054
  472SOL     OW 1414   0.574   2.545   1.115 -0.5526  0.2006  0.6788
  472SOL    HW1 1415   0.571   2.515   1.211 -1.7842 -0.7757  1.9271
  472SOL    HW2 1416   0.578   2.466   1.044 -1.3449  1.1497 -1.5026
  473SOL     OW 1417   0.932   0.143   2.428 -0.7703  0.7674  0.4718
  473SOL    HW1 1418   0.958   0.042   2.440  0.0125 -1.1839  1.8844
  473SOL    HW2 1419   0.949   0.174   2.331 -0.8327  1.4464  1.8654
  474SOL     OW 1420   1.760   3.044   1.524 -0.0355  0.6185  0.1396
  474SOL    HW1 1421   1.703   0.044   1.548  0.0228  1.8873 -3.4196
  474SOL    HW2 1422   1.712   2.974   1.471 -3.3285  1.9180 -0.3275
  475SOL     OW 1423   2.004   0.456   1.032  0.7119 -0.2417  0.3093
  475SOL    HW1 1424   2.081   0.459   0.966 -1.2507 -2.1084  5.7571
  475SOL    HW2 1425   2.009   0.372   1.087  0.6026  3.2412  0.6696
  476SOL     OW 1426   0.619   0.791   1.030  0.1242 -0.4030 -0.3845
  476SOL    HW1 1427   0.602   0.690   1.044  0.1032 -1.0916  1.3584
  476SOL    HW2 1428   0.638   0.831   1.122 -1.7253  1.0167 -1.4314
  477SOL     OW 1429   1.281   2.540   0.559 -0.2050  0.2014  0.1348
  477SOL    HW1 1430   1.362   2.526   0.624  1.8605 -0.2137  0.9451
  477SOL    HW2 1431   1.198   2.481   0.587 -2.8875 -0.7830  0.2091
  478SOL     OW 1432   0.069   2.225   2.334 -0.1214  0.0477 -0.3073
  478SOL    HW1 1433   0.138   2.212   2.257  2.1724  0.9871 -1.4846
  478SOL    HW2 1434   0.054   2.326   2.343  4.1077  0.5916  2.1680
  479SOL     OW 1435   2.863   0.231   1.153 -0.0305 -0.5364 -0.1477
  479SOL    HW1 1436   2.798   0.291   1.204  0.6825  0.3581  0.6185
  479SOL    HW2 1437   2.954   0.280   1.155  1.0400  1.2689 -0.4013
  480SOL     OW 1438   0.431   2.533   0.288  0.1671  0.3045 -0.0175
  480SOL    HW1 1439   0.497   2.607   0.264 -0.1585 -0.8078 -0.1459
  480SOL    HW2 1440   0.356   2.579   0.348 -1.1271  1.7931  1.2353
  481SOL     OW 1441   2.221   2.038   1.339 -0.6652 -0.5472  0.3125
  481SOL    HW1 1442   2.279   2.052   1.254 -0.7295 -0.3216 -0.5568
  481SOL    HW2 1443   2.170   1.950   1.341 -0.1587  2.0067  0.9728
  482SOL     OW 1444   1.055   2.467   2.753  0.3816 -0.3011  0.0274
  482SOL    HW1 1445   1.049   2.484   2.653 -0.9643  0.1364  2.4118
  482SOL    HW2 1446   0.961   2.445   2.791 -2.8413 -1.3544 -0.0392
  483SOL     OW 1447   0.531   2.423   2.089  0.4549 -0.0384 -0.2727
  483SOL    HW1 1448   0.435   2.414   2.055 -0.7872 -1.6202  1.0131
  483SOL    HW2 1449   0.580   2.343   2.057  2.9930  3.3968  1.2629
  484SOL     OW 1450   1.113   0.559   1.527  0.4261  0.3184  0.0662
  484SOL    HW1 1451   1.142   0.598   1.616 -1.8073 -1.1972  2.7153
  484SOL    HW2 1452   1.101   0.458   1.534 -1.6830 -2.9736  0.9942
  485SOL     OW 1453   1.885   0.690   2.568 -0.2078 -0.7211  0.4768
  485SOL    HW1 1454   1.976   0.723   2.525  1.6011  0.1532 -3.2735
  485SOL    HW2 1455   1.849   0.616   2.509  0.3910  0.4735  0.5849
  486SOL     OW 1456   2.414   2.774   0.981  0.5590  0.7958  0.1988
  486SOL    HW1 1457   2.404   2.686   0.924  2.5995  0.5616 -0.4511
  486SOL    HW2 1458   2.501   2.826   0.956  1.8573 -0.4457 -0.9848
  487SOL     OW 1459   0.942   2.352   1.742  0.1074  0.2391 -0.4218
  487SOL    HW1 1460   0.904   2.415   1.819 -1.7345  0.7923  3.2927
  487SOL    HW2 1461   0.892   2.367   1.652  1.2087  0.7138  2.0447
  488SOL     OW 1462   2.491   1.509   2.969  0.2896  0.3172 -0.3966
  488SOL    HW1 1463   2.418   1.440   2.942 -1.0455 -3.1502 -0.5925
  488SOL    HW2 1464   2.581   1.467   2.986  1.0430 -0.0498  2.5783
  489SOL     OW 1465   1.949   0.033   1.336 -0.2985 -0.6345  0.1483
  489SOL    HW1 1466   1.988   3.033   1.283  3.0628 -0.9049 -1.5761
  489SOL    HW2 1467   1.871   0.004   1.401  2.4601  0.8011 -0.0347
  490SOL     OW 1468   1.043   1.425   0.147 -0.0323 -0.3130 -0.1538
  490SOL    HW1 1469   1.083   1.523   0.145 -2.1037  0.0157 -0.4668
  490SOL    HW2 1470   0.944   1.430   0.114 -1.4723  0.1236  0.0691
  491SOL     OW 1471   0.504   2.148   1.434  0.0618 -0.8337 -0.2330
  491SOL    HW1 1472   0.415   2.103   1.432 -0.8471  2.4248 -1.4179
  491SOL    HW2 1473   0.581   2.083   1.455 -0.3749 -1.2527 -0.3208
  492SOL     OW 1474   0.839   1.897   1.800 -0.0033 -0.2244 -0.0974
  492SOL    HW1 1475   0.876   1.804   1.780  1.0061 -0.5522 -2.3455
  492SOL    HW2 1476   0.912   1.953   1.842 -3.9051 -0.9947  0.1613
  493SOL     OW 1477   2.770   2.166   0.995  0.2298  0.4772 -0.3295
  493SOL    HW1 1478   2.813   2.094   1.062  2.7714 -5.5113  1.4355
  493SOL    HW2 1479   2.679   2.137   0.960 -1.0173 -0.5277  1.9491
  494SOL     OW 1480   2.796   2.078   0.696  0.2153 -0.1007  0.2748
  494SOL    HW1 1481   2.765   1.981   0.677 -1.9631  0.0443 -0.2144
  494SOL    HW2 1482   2.722   2.149   0.676 -0.7601  0.5697  1.4659
  495SOL     OW 1483   2.829   2.818   0.178 -0.4940  0.4513  0.9781
  495SOL    HW1 1484   2.744   2.766   0.176  2.4402  1.3794 -1.3884
  495SOL    HW2 1485   2.900   2.763   0.227 -0.4900  0.1516  2.2300
  496SOL     OW 1486   2.536   0.014   1.230 -0.5235 -0.4047 -0.4673
  496SOL    HW1 1487   2.522   0.042   1.134 -0.3967  1.5793  0.3102
  496SOL    HW2 1488   2.529   0.087   1.302  2.4768 -1.9314  0.8565
  497SOL     OW 1489   2.846   0.979   2.738  0.0804  0.4727  0.2222
  497SOL    HW1 1490   2.913   0.903   2.738  0.3405 -1.1660 -1.9770
  497SOL    HW2 1491   2.798   0.987   2.828 -1.6067 -0.0400  0.7195
  498SOL     OW 1492   2.836   1.757   1.815  0.5093 -0.0132 -0.5057
  498SOL    HW1 1493   2.813   1.674   1.872 -0.8971 -1.6320  0.7196
  498SOL    HW2 1494   2.869   1.831   1.876 -0.9337  2.3604 -1.2723
  499SOL     OW 1495   0.764   2.449   2.608 -0.0274 -0.2614  0.0160
  499SOL    HW1 1496   0.793   2.378   2.678  3.7721 -1.3636  2.9887
  499SOL    HW2 1497   0.788   2.423   2.514 -0.2646  1.1910  1.4900
  500SOL     OW 1498   1.723   0.425   0.249 -0.4305 -0.5593  0.1090
  500SOL    HW1 1499   1.754   0.521   0.263  0.9147  1.3518 -0.3477
  500SOL    HW2 1500   1.645   0.406   0.312  1.6589  1.6851  0.2467
  501SOL     OW 1501   1.310   0.227   1.714 -0.1025  0.7914  0.2131
  501SOL    HW1 1502   1.260   0.259   1.800 -0.6281  3.7896  1.7191
  501SOL    HW2 1503   1.356   0.136   1.725  0.2854 -4.7630  1.0150
  502SOL     OW 1504   2.249   0.674   1.691  0.0683  0.2477 -0.2243
  502SOL    HW1 1505   2.301   0.732   1.621  0.7635  1.3013  1.1860
  502SOL    HW2 1506   2.149   0.679   1.673 -0.6984 -0.5460 -1.2030
  503SOL     OW 1507   2.191   1.695   2.100 -0.4149  0.4111 -0.2341
  503SOL    HW1 1508   2.170   1.787   2.063  2.0548 -1.3606  2.0825
  503SOL    HW2 1509   2.150   1.620   2.043 -2.4324  0.2559 -1.2712
  504SOL     OW 1510   1.484   1.318   1.588 -0.1524 -0.4908 -0.6967
  504SOL    HW1 1511   1.575   1.317   1.637  1.5415  3.2439 -2.2880
  504SOL    HW2 1512   1.474   1.236   1.530  0.5394 -2.5090  0.3114
  505SOL     OW 1513   0.716   0.669   1.538  0.1607  0.5001 -0.0046
  505SOL    HW1 1514   0.651   0.590   1.558 -1.1894  1.9625 -1.2775
  505SOL    HW2 1515   0.766   0.699   1.624  1.9280 -0.8628  2.1648
  506SOL     OW 1516   0.317   0.327   2.678  1.0639  0.2823 -0.4352
  506SOL    HW1 1517   0.223   0.294   2.662 -1.1829  1.7609  0.2169
  506SOL    HW2 1518   0.307   0.421   2.722  3.0372  0.9982  1.8207
  507SOL     OW 1519   0.329   3.026   0.242  0.4106 -0.0008  0.3435
  507SOL    HW1 1520   0.291   3.003   0.338 -0.7802  2.4438 -1.4292
  507SOL    HW2 1521   0.337   0.049   0.232 -0.1864 -0.6300 -0.9784
  508SOL     OW 1522   0.825   0.808   1.758 -0.4817  0.9391 -0.5712
  508SOL    HW1 1523   0.791   0.892   1.807  0.2333  0.6356  1.4210
  508SOL    HW2 1524   0.895   0.759   1.819  2.8550  0.1975  2.0737
  509SOL     OW 1525   1.418   2.362   0.914  0.0646 -0.3566 -0.5376
  509SOL    HW1 1526   1.475   2.351   0.999 -1.6707  1.6465  0.4257
  509SOL    HW2 1527   1.366   2.278   0.894 -0.8871  1.6522  1.8255
  510SOL     OW 1528   2.653   1.465   1.787  0.0609  0.1769 -0.1127
  510SOL    HW1 1529   2.729   1.480   1.726 -0.6994 -0.4364  3.2648
  510SOL    HW2 1530   2.658   1.521   1.872 -1.7681 -4.2549 -0.2682
  511SOL     OW 1531   0.980   2.258   1.466  0.3033  0.0228  0.1230
  511SOL    HW1 1532   1.067   2.306   1.475 -2.0831  0.8317  0.3056
  511SOL    HW2 1533   0.988   2.162   1.440 -0.8602 -1.7768  0.7335
  512SOL     OW 1534   2.796   1.671   0.818 -0.5130  0.2789 -0.0645
  512SOL    HW1 1535   2.814   1.609   0.898 -0.3895 -0.8722  0.2533
  512SOL    HW2 1536   2.886   1.684   0.768  1.5099  0.8555 -3.7593
  513SOL     OW 1537   0.036   1.670   2.868 -0.1095  0.2107 -0.2490
  513SOL    HW1 1538   0.029   1.773   2.874  2.4845  2.9828 -1.3576
  513SOL    HW2 1539   0.122   1.625   2.912  3.1516 -0.7563  3.4695
  514SOL     OW 1540   2.456   2.119   2.667  0.1149 -0.1995 -0.4730
  514SOL    HW1 1541   2.356   2.104   2.642 -0.2050  0.3868 -1.3649
  514SOL    HW2 1542   2.494   2.206   2.633  0.9749  1.7947  3.2445
  515SOL     OW 1543   2.384   0.979   0.806  0.1327  1.0683 -0.5294
  515SOL    HW1 1544   2.323   0.926   0.872 -0.3215 -0.3097  3.3868
  515SOL    HW2 1545   2.470   0.930   0.772  0.6434 -3.1410  1.2343
  516SOL     OW 1546   2.608   1.817   0.065 -0.3283 -0.1655  0.0533
  516SOL    HW1 1547   2.513   1.794   0.040  2.2181 -1.0022 -0.2688
  516SOL    HW2 1548   2.664   1.736   0.086 -0.6805  4.8616 -0.3747
  517SOL     OW 1549   0.681   1.390   2.916  0.4491 -0.4755  0.4586
  517SOL    HW1 1550   0.780   1.399   2.943 -3.0547  0.4975 -2.0555
  517SOL    HW2 1551   0.615   1.349   2.983 -1.5518 -1.3507  0.6360
  518SOL     OW 1552   2.690   0.145   2.262 -0.8080  0.2596 -0.0338
  518SOL    HW1 1553   2.792   0.157   2.250 -1.1302  0.3726 -0.6670
  518SOL    HW2 1554   2.668   0.107   2.358 -0.3512 -1.2359  2.4878
  519SOL     OW 1555   1.559   1.284   2.815 -0.2990 -0.1574  0.2811
  519SOL    HW1 1556   1.504   1.219   2.870 -1.6480 -1.1731 -2.3094
  519SOL    HW2 1557   1.566   1.374   2.866 -1.4084  1.4370 -0.8990
  520SOL     OW 1558   2.805   2.836   2.290 -0.2133 -0.0602 -0.0874
  520SOL    HW1 1559   2.732   2.848   2.221  1.5987 -2.4448 -0.2099
  520SOL    HW2 1560   2.841   2.741   2.288 -2.6248  1.1523  0.4093
  521SOL     OW 1561   0.341   1.586   2.346  0.4160  0.0932 -0.2632
  521SOL    HW1 1562   0.362   1.666   2.408 -1.0607  1.8524 -0.5841
  521SOL    HW2 1563   0.267   1.603   2.276 -0.3412 -2.4121 -2.0003
  522SOL     OW 1564   1.258   2.738   2.002 -0.5949  0.0905  0.5074
  522SOL    HW1 1565   1.357   2.706   1.995  2.7686  0.7943 -0.2024
  522SOL    HW2 1566   1.193   2.664   1.979 -0.0544 -1.6183  1.6720
  523SOL     OW 1567   2.625   2.203   1.309 -0.1627 -0.2425  0.4703
  523SOL    HW1 1568   2.616   2.300   1.279  0.6976  0.9046  0.0322
  523SOL    HW2 1569   2.620   2.201   1.409  1.8112 -1.8277 -1.6944
  524SOL     OW 1570   1.809   2.130   0.561 -0.8384  0.4540 -0.4877
  524SOL    HW1 1571   1.899   2.088   0.537  3.0816  2.4557  0.3014
  524SOL    HW2 1572   1.738   2.075   0.516  2.8755 -0.4414  0.6662
  525SOL     OW 1573   2.878   0.584   0.832  0.1822  0.4347 -0.0730
  525SOL    HW1 1574   2.784   0.623   0.849 -1.8781  1.6863  1.5348
  525SOL    HW2 1575   2.875   0.491   0.790 -1.7385 -2.7097  1.3429
  526SOL     OW 1576   1.481   2.804   0.889  0.2524 -0.0324 -0.1392
  526SOL    HW1 1577   1.489   2.889   0.937 -1.5900 -4.0843  2.2663
  526SOL    HW2 1578   1.458   2.813   0.788  2.1755  0.0479 -4.2016
  527SOL     OW 1579   2.140   1.986   0.807 -0.8660 -0.1459  0.3751
  527SOL    HW1 1580   2.185   2.046   0.873 -0.5922 -1.2771  4.1089
  527SOL    HW2 1581   2.184   1.894   0.819 -0.1118  0.8118 -0.0302
  528SOL     OW 1582   2.108   3.011   2.746 -0.1275 -0.3833 -0.0811
  528SOL    HW1 1583   2.026   2.959   2.723  1.0033  1.8646 -1.5613
  528SOL    HW2 1584   2.178   2.947   2.776 -3.0684 -1.6766 -1.9104
  529SOL     OW 1585   1.262   1.441   2.408 -0.2467  0.0343 -0.2489
  529SOL    HW1 1586   1.274   1.416   2.508 -1.0504  1.1399  3.4256
  529SOL    HW2 1587   1.252   1.542   2.400 -0.9368 -0.1692  0.2134
  530SOL     OW 1588   2.145   1.009   2.222  0.1425  0.2014  0.2508
  530SOL    HW1 1589   2.247   1.009   2.209 -0.1653 -0.2325 -1.7722
  530SOL    HW2 1590   2.090   0.942   2.168  1.3232 -1.0386 -1.0862
  531SOL     OW 1591   0.233   0.943   3.047  0.3967  0.0979 -0.2242
  531SOL    HW1 1592   0.327   0.905   3.065  1.0685 -0.6924 -2.7811
  531SOL    HW2 1593   0.166   0.912   0.038 -0.3201 -1.0203  0.8222
  532SOL     OW 1594   1.510   1.356   0.519  0.1672  0.0108  0.6868
  532SOL    HW1 1595   1.547   1.416   0.592 -0.3517 -2.2865  1.1279
  532SOL    HW2 1596   1.408   1.345   0.535  0.3773 -3.0548  1.1833
  533SOL     OW 1597   0.386   0.595   2.203  0.0846 -0.1392  0.3545
  533SOL    HW1 1598   0.469   0.606   2.146  1.0523  0.6462  1.4547
  533SOL    HW2 1599   0.401   0.552   2.298 -0.6466 -2.4556  4.6359
  534SOL     OW 1600   1.460   0.510   2.510  0.0694  0.1171  0.6096
  534SOL    HW1 1601   1.428   0.496   2.607  0.8634  0.8507 -0.2847
  534SOL    HW2 1602   1.470   0.607   2.489 -0.6100 -1.0260  1.3275
  535SOL     OW 1603   0.446   0.485   0.203  0.1944  0.2956 -0.2694
  535SOL    HW1 1604   0.352   0.529   0.215 -1.7514 -1.6207 -1.7941
  535SOL    HW2 1605   0.502   0.541   0.139  1.4815  2.9431  0.2038
  536SOL     OW 1606   0.488   0.688   2.935  0.6415 -0.5135  0.3251
  536SOL    HW1 1607   0.458   0.722   3.025  1.9409  2.2097 -1.6626
  536SOL    HW2 1608   0.541   0.600   2.935 -0.0352  2.5209  2.5530
  537SOL     OW 1609   1.389   0.011   1.447  0.0244 -0.4869 -0.7155
  537SOL    HW1 1610   1.421   3.027   1.373 -0.7666  0.5178  0.4723
  537SOL    HW2 1611   1.460   0.080   1.465  0.9536  2.4017 -1.4739
  538SOL     OW 1612   0.524   2.756   3.009 -0.1557  0.9293 -0.0155
  538SOL    HW1 1613   0.482   2.853   3.000 -1.4241  2.3811 -2.5696
  538SOL    HW2 1614   0.467   2.702   2.940 -0.3608  0.0887  1.0429
  539SOL     OW 1615   2.673   1.204   1.913  0.4592  0.0558  0.3614
  539SOL    HW1 1616   2.740   1.165   1.848 -1.6410 -2.1022 -0.3464
  539SOL    HW2 1617   2.665   1.301   1.897  3.7899 -0.9926 -1.7814
  540SOL     OW 1618   2.229   1.653   1.395  0.1496 -0.5335 -0.3631
  540SOL    HW1 1619   2.283   1.704   1.323 -0.9844 -1.0520 -0.5038
  540SOL    HW2 1620   2.246   1.697   1.487  0.3970  0.0746  2.0523
  541SOL     OW 1621   0.700   2.472   1.619 -0.6842  0.0377 -0.0574
  541SOL    HW1 1622   0.650   2.454   1.531  0.3420  2.8126 -1.9707
  541SOL    HW2 1623   0.649   2.519   1.694 -0.6101 -0.7252  1.0831
  542SOL     OW 1624   2.415   0.896   1.876 -0.3884  0.3428  0.5266
  542SOL    HW1 1625   2.462   0.805   1.871  0.0335 -3.7132 -0.3369
  542SOL    HW2 1626   2.314   0.883   1.892 -1.7352  0.9145 -1.5373
  543SOL     OW 1627   1.078   0.454   0.751  0.0878  0.1490 -0.0326
  543SOL    HW1 1628   1.061   0.508   0.666  2.0008  2.6506  0.1181
  543SOL    HW2 1629   1.010   0.465   0.823  1.6359 -1.8565 -0.2531
  544SOL     OW 1630   2.016   1.851   1.307 -0.1845 -0.3440  0.1109
  544SOL    HW1 1631   1.944   1.888   1.248 -0.2613 -1.9304 -0.6121
  544SOL    HW2 1632   2.017   1.748   1.307 -0.5627 -0.6547  1.3487
  545SOL     OW 1633   1.568   1.452   1.217 -0.0721  0.1458  0.6379
  545SOL    HW1 1634   1.484   1.395   1.225 -0.3773 -2.0907  1.2897
  545SOL    HW2 1635   1.630   1.436   1.292  0.2641  2.0982 -3.7382
  546SOL     OW 1636   0.096   0.132   2.912 -0.2193 -0.0309 -0.2213
  546SOL    HW1 1637   0.024   0.181   2.966  0.0861  2.4948  1.6711
  546SOL    HW2 1638   0.187   0.128   2.956  0.7348 -1.2751  0.7460
  547SOL     OW 1639   2.395   0.561   2.709 -0.0814  0.0080 -0.5310
  547SOL    HW1 1640   2.383   0.467   2.749  0.6775  0.0028  3.2562
  547SOL    HW2 1641   2.328   0.624   2.749  1.1914 -0.2446 -0.2086
  548SOL     OW 1642   2.522   2.044   2.380  0.6301 -0.3583  0.4888
  548SOL    HW1 1643   2.438   2.065   2.433 -0.5738 -1.4322 -2.6515
  548SOL    HW2 1644   2.533   2.115   2.309  1.7775  0.9248  1.7897
  549SOL     OW 1645   2.355   3.047   0.845  0.2888 -0.1004 -0.1297
  549SOL    HW1 1646   2.400   2.969   0.797  3.4922 -2.0483  2.4845
  549SOL    HW2 1647   2.267   3.014   0.880 -1.1747 -0.6792 -1.9250
  550SOL     OW 1648   2.543   0.885   0.110 -0.4612 -0.6176 -0.0981
  550SOL    HW1 1649   2.453   0.857   0.079 -1.1818  1.2398  1.2651
  550SOL    HW2 1650   2.540   0.986   0.128 -0.3182  1.8951  1.2535
  551SOL     OW 1651   1.356   2.851   1.298 -0.2092 -0.0416 -0.5843
  551SOL    HW1 1652   1.407   2.785   1.239 -0.9277  0.2856  1.0536
  551SOL    HW2 1653   1.263   2.873   1.257 -0.4478 -0.5592 -3.3789
  552SOL     OW 1654   2.622   2.684   2.794  0.4544 -0.0031 -0.2705
  552SOL    HW1 1655   2.691   2.736   2.852  3.6186  2.1490  3.7937
  552SOL    HW2 1656   2.540   2.656   2.854 -0.2837 -1.4049  0.0790
  553SOL     OW 1657   0.684   3.043   0.619  0.1932 -0.0065 -0.1466
  553SOL    HW1 1658   0.716   3.001   0.705  1.2457 -0.8962  0.3425
  553SOL    HW2 1659   0.750   3.032   0.541  0.2752  0.0299 -1.7479
  554SOL     OW 1660   1.906   2.146   1.672 -0.7152  0.1448 -0.0435
  554SOL    HW1 1661   1.850   2.158   1.759  0.7918  2.8577 -0.6592
  554SOL    HW2 1662   1.852   2.117   1.590  1.2245  0.4491 -1.2372
  555SOL     OW 1663   1.605   2.431   1.860  0.0009  0.2009  0.0791
  555SOL    HW1 1664   1.569   2.369   1.787 -2.4014  0.1212  1.0306
  555SOL    HW2 1665   1.710   2.428   1.863 -0.2683 -0.6587 -2.3426
  556SOL     OW 1666   1.626   1.502   0.720 -0.2269  0.2774  0.1159
  556SOL    HW1 1667   1.638   1.486   0.820  1.8150 -0.1677  0.1561
  556SOL    HW2 1668   1.649   1.601   0.697 -0.9196 -0.6703  0.9085
  557SOL     OW 1669   1.398   2.095   2.035  0.2511  0.2410  0.4372
  557SOL    HW1 1670   1.393   2.082   1.936  0.6972  0.0285 -0.7861
  557SOL    HW2 1671   1.442   2.180   2.064 -0.4298 -0.8784 -1.9702
  558SOL     OW 1672   0.040   0.538   2.188 -0.4456 -0.0225  0.6307
  558SOL    HW1 1673   0.085   0.467   2.123  2.8900 -0.9006 -0.6195
  558SOL    HW2 1674   0.087   0.631   2.172  0.7239  3.7284  0.0038
  559SOL     OW 1675   2.216   2.798   2.050 -0.0236  0.0840 -0.7126
  559SOL    HW1 1676   2.255   2.725   1.989  0.0565 -2.6172  0.1929
  559SOL    HW2 1677   2.216   2.761   2.146  0.7536  0.2463  1.1907
  560SOL     OW 1678   0.408   2.985   2.959  0.1159  0.2557 -0.2237
  560SOL    HW1 1679   0.394   3.077   2.999 -0.0015 -1.2587 -2.0122
  560SOL    HW2 1680   0.343   2.973   2.881 -0.8637  2.2081 -0.6984
  561SOL     OW 1681   1.452   0.982   0.291  0.7907 -0.3957  0.0986
  561SOL    HW1 1682   1.436   0.954   0.194 -1.1502  0.4991  0.5329
  561SOL    HW2 1683   1.364   1.013   0.328  1.0992 -1.9529 -0.8453
  562SOL     OW 1684   0.873   1.188   2.332  0.5265 -0.0179  0.2654
  562SOL    HW1 1685   0.791   1.250   2.357 -2.7574  0.4766 -0.3649
  562SOL    HW2 1686   0.866   1.105   2.388 -2.4358  0.8909  0.1150
  563SOL     OW 1687   1.768   2.321   2.942  0.0368  0.3904 -0.0118
  563SOL    HW1 1688   1.698   2.249   2.962  1.5194  0.4489  2.3213
  563SOL    HW2 1689   1.784   2.316   2.842 -0.5864  2.0622  1.9151
  564SOL     OW 1690   3.033   1.964   0.507  0.0832 -0.3900 -0.3781
  564SOL    HW1 1691   0.050   1.985   0.525  0.2451  0.3483 -0.1713
  564SOL    HW2 1692   2.991   2.043   0.455  3.4754 -2.7611 -0.9952
  565SOL     OW 1693   1.065   2.824   2.708 -0.3430 -1.1175  0.4195
  565SOL    HW1 1694   1.096   2.837   2.802 -0.8138  2.3654 -1.2403
  565SOL    HW2 1695   0.976   2.774   2.716 -0.9143  0.6525  1.3690
  566SOL     OW 1696   2.029   2.663   2.893 -0.0467  0.4112  0.2502
  566SOL    HW1 1697   2.024   2.764   2.870 -1.0292  3.7079 -3.6882
  566SOL    HW2 1698   1.934   2.636   2.914 -1.9006  0.4361 -0.7474
  567SOL     OW 1699   2.506   1.108   1.038  0.4858  0.6371 -0.3969
  567SOL    HW1 1700   2.482   1.066   0.946  2.4340  0.0566 -0.0012
  567SOL    HW2 1701   2.589   1.169   1.030 -0.4226  2.9673  0.4615
  568SOL     OW 1702   2.087   1.194   2.790 -0.1759  0.0985 -0.3066
  568SOL    HW1 1703   2.081   1.216   2.691  0.4238 -0.1433  0.7957
  568SOL    HW2 1704   1.996   1.180   2.835 -2.0997 -0.8908  1.1480
  569SOL     OW 1705   2.112   1.544   2.540  0.3590 -0.1778  0.5300
  569SOL    HW1 1706   2.173   1.567   2.457 -2.2516 -0.8249 -4.5172
  569SOL    HW2 1707   2.011   1.554   2.514 -0.1274  0.1449 -1.3146
  570SOL     OW 1708   2.912   2.848   1.917  0.1200 -0.4268  0.4119
  570SOL    HW1 1709   2.971   2.863   1.995 -1.0251 -1.6167  1.1198
  570SOL    HW2 1710   2.957   2.893   1.836  1.9787  1.0008  0.3211
  571SOL     OW 1711   0.464   0.318   1.859  0.1058 -0.4257  0.1412
  571SOL    HW1 1712   0.551   0.324   1.917  0.7667  0.3168  2.8386
  571SOL    HW2 1713   0.423   0.412   1.840 -0.0476 -0.0688 -2.2295
  572SOL     OW 1714   1.149   1.896   0.948 -0.5171  0.3167 -0.6658
  572SOL    HW1 1715   1.095   1.866   0.869 -0.0461 -0.3027  3.6832
  572SOL    HW2 1716   1.200   1.983   0.925  0.7776 -1.0840  0.7335
  573SOL     OW 1717   1.217   0.457   0.401  0.2100  0.1875 -0.1743
  573SOL    HW1 1718   1.134   0.495   0.446 -1.0592 -0.4551 -1.7515
  573SOL    HW2 1719   1.242   0.519   0.323  0.6833 -2.6219 -1.9812
  574SOL     OW 1720   0.596   2.991   0.316  0.1452  0.0237 -0.5931
  574SOL    HW1 1721   0.498   3.015   0.288 -1.8208  2.3387  0.8936
  574SOL    HW2 1722   0.597   2.985   0.417 -0.0405  0.6423  2.2559
  575SOL     OW 1723   0.257   1.302   1.260 -0.2135  0.0511 -0.4408
  575SOL    HW1 1724   0.256   1.351   1.173  0.7732  1.3678  0.8437
  575SOL    HW2 1725   0.350   1.259   1.276 -1.5091 -0.4185 -0.6496
  576SOL     OW 1726   2.674   0.185   1.790  0.4782 -0.0882  0.3287
  576SOL    HW1 1727   2.749   0.212   1.858  0.2339 -0.2431  0.7075
  576SOL    HW2 1728   2.580   0.213   1.819 -1.0447 -2.9014  2.2044
  577SOL     OW 1729   2.689   1.614   2.006  0.2259 -0.4037  0.3371
  577SOL    HW1 1730   2.596   1.655   2.008  4.5671 -1.0587 -1.7101
  577SOL    HW2 1731   2.728   1.604   2.102 -0.3928  0.0701  0.5936
  578SOL     OW 1732   1.137   0.030   2.093 -0.5449  0.0713  0.4475
  578SOL    HW1 1733   1.176   0.010   2.184 -2.2308  2.1419  1.0726
  578SOL    HW2 1734   1.207   0.016   2.020 -0.0514 -0.6398 -1.8246
  579SOL     OW 1735   2.139   1.913   1.967  0.7699 -0.2770 -0.2304
  579SOL    HW1 1736   2.092   1.887   1.879 -2.4686 -0.3082  1.3884
  579SOL    HW2 1737   2.126   2.015   1.984 -0.7123 -1.7192  1.8577
  580SOL     OW 1738   1.943   1.218   1.982 -0.0577  0.1623 -0.2158
  580SOL    HW1 1739   1.920   1.118   2.001 -0.9953  0.6561  4.3140
  580SOL    HW2 1740   2.035   1.228   1.945  1.5198  0.7447  0.7150
  581SOL     OW 1741   1.559   1.040   2.392  0.1832  0.1243  0.5019
  581SOL    HW1 1742   1.554   1.101   2.310 -1.6585  3.5638 -0.5430
  581SOL    HW2 1743   1.635   1.080   2.445 -1.9200 -1.1729 -0.8175
  582SOL     OW 1744   2.945   2.427   1.670 -0.6653  0.5727  0.1807
  582SOL    HW1 1745   2.967   2.326   1.680  1.1835 -2.6067  0.5814
  582SOL    HW2 1746   2.960   2.469   1.764  2.6854 -1.1085  1.1308
  583SOL     OW 1747   1.627   0.954   0.729 -0.1692 -0.1636  0.1273
  583SOL    HW1 1748   1.714   0.918   0.764 -2.3906  0.4315  1.0289
  583SOL    HW2 1749   1.604   0.902   0.642  0.1651 -0.8966 -0.2081
  584SOL     OW 1750   0.914   2.366   0.365  0.3793 -0.7654 -0.0634
  584SOL    HW1 1751   0.850   2.451   0.368 -4.5291  2.2032  0.9074
  584SOL    HW2 1752   1.011   2.401   0.359  3.2802  1.2673 -1.2248
  585SOL     OW 1753   0.127   2.626   2.951  0.0236 -0.7235 -0.1182
  585SOL    HW1 1754   0.053   2.691   2.930  1.0730  2.3581 -1.9161
  585SOL    HW2 1755   0.211   2.629   2.889  0.1913 -0.6799  1.1632
  586SOL     OW 1756   2.295   0.992   0.540  0.3353  0.0187  0.3157
  586SOL    HW1 1757   2.319   0.973   0.633  0.4946 -0.0596 -0.9738
  586SOL    HW2 1758   2.294   1.093   0.509  1.3423  0.3561 -2.3672
  587SOL     OW 1759   0.008   1.539   0.337 -0.1127 -0.4088  0.2348
  587SOL    HW1 1760   3.073   1.636   0.309 -0.3324 -2.8260  1.0126
  587SOL    HW2 1761   0.010   1.534   0.436  0.5648  3.2799 -1.4692
  588SOL     OW 1762   0.188   0.412   0.647  0.0169  0.2910 -0.3832
  588SOL    HW1 1763   0.181   0.510   0.620 -1.3333  2.5798 -0.6832
  588SOL    HW2 1764   0.101   0.377   0.689 -0.2902  0.6469 -1.9234
  589SOL     OW 1765   1.439   3.042   0.721  0.3185 -0.4436 -0.0528
  589SOL    HW1 1766   1.389   3.070   0.804  2.9672 -0.0251  1.3567
  589SOL    HW2 1767   1.468   0.042   0.665 -0.2347  1.2315 -0.9216
  590SOL     OW 1768   2.574   2.222   0.265  0.2203 -0.1727  0.3542
  590SOL    HW1 1769   2.494   2.175   0.224  3.4873  1.0072 -0.2241
  590SOL    HW2 1770   2.568   2.244   0.366  0.9443  0.0972 -1.6075
  591SOL     OW 1771   0.096   2.289   1.879 -0.1922  0.2868 -0.3165
  591SOL    HW1 1772   0.146   2.204   1.859  0.6313 -1.6557  0.9033
  591SOL    HW2 1773   3.073   2.277   1.906 -1.8825  0.2911  0.4813
  592SOL     OW 1774   0.122   1.573   2.173 -0.0076 -0.3052 -0.4768
  592SOL    HW1 1775   0.053   1.547   2.243 -0.8823 -0.7822 -2.4691
  592SOL    HW2 1776   0.076   1.581   2.082 -0.7208  0.2247 -1.3447
  593SOL     OW 1777   1.435   1.988   1.434  0.0287  0.4805  0.4677
  593SOL    HW1 1778   1.350   1.962   1.484  0.3889 -0.0892 -0.1010
  593SOL    HW2 1779   1.504   1.916   1.454 -1.8708  0.5962  1.7684
  594SOL     OW 1780   0.578   1.263   2.697 -0.2528  0.1205 -0.0172
  594SOL    HW1 1781   0.596   1.164   2.719  2.6909  1.6055 -0.8001
  594SOL    HW2 1782   0.594   1.322   2.777 -0.7577  0.5222  1.2177
  595SOL     OW 1783   1.811   0.590   0.887 -0.1233  0.6452 -0.0519
  595SOL    HW1 1784   1.720   0.583   0.932 -2.3600  2.0497  0.9079
  595SOL    HW2 1785   1.888   0.558   0.951  1.6844  2.0449  0.9922
  596SOL     OW 1786   0.386   0.933   1.237  0.0976 -0.7904  0.5708
  596SOL    HW1 1787   0.481   0.967   1.229  1.3361  0.7714  1.1054
  596SOL    HW2 1788   0.351   0.957   1.328  0.7327 -1.8712  1.9687
  597SOL     OW 1789   0.131   2.730   2.297  0.9801 -0.5150  1.1778
  597SOL    HW1 1790   0.213   2.786   2.309 -3.9040 -2.2709  1.0036
  597SOL    HW2 1791   0.133   2.647   2.354  1.2751  0.3078  0.8596
  598SOL     OW 1792   2.325   2.292   2.337  0.7617  0.0813 -0.2361
  598SOL    HW1 1793   2.311   2.318   2.243 -0.6061 -2.8656  2.2872
  598SOL    HW2 1794   2.379   2.361   2.385 -0.6308  0.3710  0.7716
  599SOL     OW 1795   1.227   1.077   0.389 -0.4873  0.5185  0.2736
  599SOL    HW1 1796   1.165   1.155   0.374  3.4312  1.4367  0.6710
  599SOL    HW2 1797   1.267   1.080   0.483 -1.0350 -3.7214 -1.9417
  600SOL     OW 1798   1.494   0.393   0.410  0.5298 -0.2118 -0.8484
  600SOL    HW1 1799   1.404   0.429   0.379  0.5208 -0.6917 -1.7106
  600SOL    HW2 1800   1.486   0.318   0.483  0.4173 -0.2487 -0.0977
  601SOL     OW 1801   0.526   0.507   1.609 -0.0632  0.2602  0.4285
  601SOL    HW1 1802   0.463   0.579   1.641 -0.7642 -0.8627 -0.5324
  601SOL    HW2 1803   0.484   0.413   1.610 -1.8300 -0.1882  1.5934
  602SOL     OW 1804   0.370   2.364   0.524  0.2965 -0.1726  0.0645
  602SOL    HW1 1805   0.348   2.277   0.476  1.6646 -0.0118 -1.3822
  602SOL    HW2 1806   0.410   2.425   0.450  0.6338 -1.9349 -0.2782
  603SOL     OW 1807   1.033   2.962   2.486 -0.1618 -0.3908  0.2534
  603SOL    HW1 1808   1.065   2.922   2.577 -1.3734  1.4604  1.6812
  603SOL    HW2 1809   1.112   2.991   2.425  0.4167  2.1749  0.1098
  604SOL     OW 1810   1.172   2.488   0.324  0.3620  0.6772  0.5625
  604SOL    HW1 1811   1.220   2.524   0.406  0.4144 -1.8643  1.8578
  604SOL    HW2 1812   1.189   2.552   0.243 -0.7315  3.0712 -3.5895
  605SOL     OW 1813   1.717   1.310   1.715 -0.7936  0.0881 -0.1498
  605SOL    HW1 1814   1.705   1.320   1.813 -0.4226 -0.8257 -0.4198
  605SOL    HW2 1815   1.773   1.231   1.700  1.1795  0.5736  1.2462
  606SOL     OW 1816   1.022   1.038   2.670  0.2661 -0.4011  0.3784
  606SOL    HW1 1817   1.119   1.000   2.680  0.2808 -0.9560  2.6007
  606SOL    HW2 1818   1.021   1.142   2.669 -1.1391  1.6782  0.0530
  607SOL     OW 1819   0.664   0.976   1.271 -0.1983 -0.2507  0.0918
  607SOL    HW1 1820   0.665   0.960   1.374 -3.2314  1.6389  2.3450
  607SOL    HW2 1821   0.758   0.970   1.233 -0.5809  3.2333  0.7360
  608SOL     OW 1822   2.533   2.062   1.977 -0.2715  0.2007 -0.0645
  608SOL    HW1 1823   2.458   2.110   1.928 -0.2946 -3.7874 -0.0971
  608SOL    HW2 1824   2.570   2.108   2.061 -0.0924 -0.6239  1.8857
  609SOL     OW 1825   2.061   0.114   0.117 -0.3592  0.0194  0.2659
  609SOL    HW1 1826   2.100   0.123   0.213 -2.0456 -1.3922  0.1923
  609SOL    HW2 1827   2.044   0.019   0.099  4.4449  2.2567 -1.0884
  610SOL     OW 1828   0.399   2.837   1.669 -0.3363  0.8455 -0.1255
  610SOL    HW1 1829   0.363   2.799   1.759 -0.3292 -0.3505  1.8055
  610SOL    HW2 1830   0.499   2.861   1.674 -1.0771 -0.9938 -1.1557
  611SOL     OW 1831   1.349   1.729   1.254 -0.3159 -0.0852  0.0540
  611SOL    HW1 1832   1.280   1.775   1.310  1.0942 -3.7449  0.8208
  611SOL    HW2 1833   1.430   1.702   1.311 -1.6207  0.8931 -0.7935
  612SOL     OW 1834   0.543   0.300   2.266  0.7998 -0.3096  0.3653
  612SOL    HW1 1835   0.639   0.289   2.225  2.1372  0.2356 -1.2699
  612SOL    HW2 1836   0.544   0.306   2.366  0.5009 -0.6772  2.1444
  613SOL     OW 1837   2.884   1.323   0.473 -0.3913  0.2911 -0.5766
  613SOL    HW1 1838   2.865   1.222   0.461  1.8276 -1.6852  0.4697
  613SOL    HW2 1839   2.900   1.342   0.575 -0.2456 -0.4670  1.0236
  614SOL     OW 1840   1.674   0.229   1.845  0.2390  0.6995 -0.0395
  614SOL    HW1 1841   1.777   0.222   1.851 -0.6684  1.7766 -1.3925
  614SOL    HW2 1842   1.645   0.326   1.837 -2.4953  0.5838 -0.5006
  615SOL     OW 1843   0.901   1.636   1.431  0.1889 -0.0562 -0.4429
  615SOL    HW1 1844   0.987   1.586   1.440 -0.0173  0.6995  0.5927
  615SOL    HW2 1845   0.885   1.679   1.339  0.3911  2.0118 -0.4647
  616SOL     OW 1846   1.472   1.927   0.024  0.0268  0.2399  0.0707
  616SOL    HW1 1847   1.505   1.848   0.081 -1.1583 -0.4986  3.0215
  616SOL    HW2 1848   1.552   1.988   0.010 -0.7448 -0.5867  1.1309
  617SOL     OW 1849   1.958   2.891   0.072  0.2633 -0.9213 -0.3049
  617SOL    HW1 1850   1.922   2.919   3.063  2.3326 -0.2461  2.1446
  617SOL    HW2 1851   1.938   2.792   0.095  0.4442 -0.2838  0.1672
  618SOL     OW 1852   0.610   0.730   2.614 -0.1129 -0.2321  0.6212
  618SOL    HW1 1853   0.583   0.799   2.684  0.2173  1.7573 -0.1128
  618SOL    HW2 1854   0.572   0.753   2.519 -1.0650  0.5733  0.6152
  619SOL     OW 1855   2.694   1.287   0.752 -0.0097  0.4480  0.4820
  619SOL    HW1 1856   2.675   1.187   0.750 -1.8661 -1.0656 -1.4568
  619SOL    HW2 1857   2.624   1.341   0.699 -1.1745  2.4308 -4.6888
  620SOL     OW 1858   2.401   2.593   2.971  0.4201  0.3699  0.4632
  620SOL    HW1 1859   2.325   2.615   3.034  0.3366 -1.7621 -1.7497
  620SOL    HW2 1860   2.405   2.501   2.933  1.1608 -1.9779  0.4631
  621SOL     OW 1861   2.500   1.154   0.147  0.4527  0.3662 -0.8510
  621SOL    HW1 1862   2.479   1.163   0.245  1.9477 -2.5068  2.8983
  621SOL    HW2 1863   2.427   1.194   0.091 -0.4418 -1.0152  0.2166
  622SOL     OW 1864   1.338   2.377   2.286 -0.1922 -0.0459  0.2244
  622SOL    HW1 1865   1.366   2.412   2.192 -3.0301  1.7739 -5.2442
  622SOL    HW2 1866   1.421   2.356   2.345 -0.2126  0.3449  1.2550
  623SOL     OW 1867   0.769   1.789   0.362  0.0545 -0.1888  0.2525
  623SOL    HW1 1868   0.856   1.763   0.325 -2.1447  1.4083 -3.4175
  623SOL    HW2 1869   0.717   1.819   0.282 -0.4299  1.3103 -0.4974
  624SOL     OW 1870   0.340   0.180   3.046 -0.3067 -0.3421 -0.2390
  624SOL    HW1 1871   0.311   0.201   0.064 -0.0966  1.6131  0.5911
  624SOL    HW2 1872   0.435   0.216   3.041  0.0590 -1.4780  0.2413
  625SOL     OW 1873   0.809   1.898   0.614 -0.5445  0.1776  0.2462
  625SOL    HW1 1874   0.816   1.895   0.513 -1.7189  1.1903  0.3150
  625SOL    HW2 1875   0.745   1.971   0.644 -2.9342 -2.3207  0.5693
  626SOL     OW 1876   2.514   0.038   2.824  0.0680  0.6697 -0.0089
  626SOL    HW1 1877   2.459   3.033   2.795  0.2538 -0.5534 -0.9450
  626SOL    HW2 1878   2.531   0.037   2.927  1.6628 -1.1995  2.3635
  627SOL     OW 1879   1.327   1.386   2.690 -0.4221 -0.8432  0.2797
  627SOL    HW1 1880   1.411   1.334   2.722  0.7927 -1.3914  1.1488
  627SOL    HW2 1881   1.246   1.345   2.738 -0.8354  0.4844 -0.7200
  628SOL     OW 1882   0.503   0.521   2.432 -0.2766 -0.5911 -0.2905
  628SOL    HW1 1883   0.499   0.550   2.531 -4.5617 -3.1368  0.7016
  628SOL    HW2 1884   0.597   0.541   2.389  3.3388  0.0167 -1.9515
  629SOL     OW 1885   0.259   3.068   1.879  0.0348  0.0417  0.0712
  629SOL    HW1 1886   0.246   2.983   1.822  1.2666 -2.3855 -0.4251
  629SOL    HW2 1887   0.173   0.018   1.929 -0.0915 -0.7157 -0.1819
  630SOL     OW 1888   1.562   0.890   2.016  0.5111 -0.1373  0.5016
  630SOL    HW1 1889   1.626   0.840   1.954  2.7022 -0.6338  1.2624
  630SOL    HW2 1890   1.557   0.989   1.992 -0.4027 -1.1248 -0.9342
  631SOL     OW 1891   2.251   0.854   0.317 -0.3311  0.3059  0.8215
  631SOL    HW1 1892   2.171   0.796   0.345 -0.2250  1.2389 -1.6122
  631SOL    HW2 1893   2.287   0.908   0.396 -2.7003 -1.1071  0.8188
  632SOL     OW 1894   1.998   0.444   1.921 -0.0123  0.3109 -0.1358
  632SOL    HW1 1895   2.094   0.463   1.962  1.5802 -0.2497 -1.9249
  632SOL    HW2 1896   1.996   0.349   1.878  0.2766 -0.5009 -3.0418
  633SOL     OW 1897   0.972   2.737   0.053 -0.2345 -0.4849  0.5591
  633SOL    HW1 1898   0.939   2.768   0.146 -2.2454 -0.5422  1.9347
  633SOL    HW2 1899   0.897   2.692   3.077 -0.8416  0.6283  0.6172
  634SOL     OW 1900   1.095   2.426   2.443 -0.6947 -0.0862 -0.2819
  634SOL    HW1 1901   1.035   2.445   2.363 -0.3522 -1.1571  0.1490
  634SOL    HW2 1902   1.173   2.379   2.402  0.9558 -1.2546  1.4470
  635SOL     OW 1903   2.140   0.299   3.004  0.0785  0.1881 -0.2238
  635SOL    HW1 1904   2.173   0.363   3.076  1.2730  0.7376  0.6326
  635SOL    HW2 1905   2.113   0.204   3.045 -1.9429 -0.5269  0.8435
  636SOL     OW 1906   0.708   1.093   0.660  0.0719  0.0928  0.2950
  636SOL    HW1 1907   0.676   1.187   0.685 -0.0945  0.6656 -1.1686
  636SOL    HW2 1908   0.751   1.042   0.738  0.4553  1.0724 -0.9891
  637SOL     OW 1909   0.237   1.986   0.581  0.1695 -0.3535  0.0892
  637SOL    HW1 1910   0.268   1.991   0.680  0.0207  1.4470  0.4768
  637SOL    HW2 1911   0.269   2.065   0.529 -1.0310 -0.4055  1.9428
  638SOL     OW 1912   0.636   0.017   2.835  0.0103 -0.4575  0.9055
  638SOL    HW1 1913   0.564   3.035   2.870  0.9775  2.5241 -2.5951
  638SOL    HW2 1914   0.667   0.088   2.906 -0.2359  1.2011  0.7717
  639SOL     OW 1915   1.438   1.514   0.288  0.5503  0.0296  0.5782
  639SOL    HW1 1916   1.483   1.439   0.336  0.8261 -0.3852 -0.5592
  639SOL    HW2 1917   1.417   1.587   0.359  0.0559 -1.2446  2.8860
  640SOL     OW 1918   1.755   2.697   0.920 -0.4683 -0.2066 -0.1129
  640SOL    HW1 1919   1.840   2.653   0.874  2.9341 -1.7893 -0.4406
  640SOL    HW2 1920   1.712   2.769   0.859  3.2688 -1.3052  0.4461
  641SOL     OW 1921   0.014   2.618   0.623  0.7685 -0.0819 -0.5350
  641SOL    HW1 1922   0.083   2.611   0.547  1.8826  0.1086 -0.6290
  641SOL    HW2 1923   3.054   2.533   0.664 -0.2576  1.1497 -2.8380
  642SOL     OW 1924   0.818   0.222   1.591  0.3334  0.0621  0.2252
  642SOL    HW1 1925   0.777   0.198   1.678  1.3485  0.2031 -1.3789
  642SOL    HW2 1926   0.919   0.210   1.605 -1.1292  0.2774  0.4266
  643SOL     OW 1927   0.380   1.859   2.445 -0.2140 -0.1247 -0.3555
  643SOL    HW1 1928   0.286   1.895   2.437  0.9835 -1.1665 -0.3403
  643SOL    HW2 1929   0.447   1.899   2.375  1.5928 -1.6260 -3.3925
  644SOL     OW 1930   0.878   3.026   0.430 -0.0791 -0.2498 -0.0241
  644SOL    HW1 1931   0.888   2.939   0.381 -0.8118 -0.9872  1.2841
  644SOL    HW2 1932   0.919   0.027   0.386 -0.6426 -0.5357 -3.6075
  645SOL     OW 1933   1.062   1.675   2.902  0.1862  0.5919  0.5130
  645SOL    HW1 1934   1.120   1.692   2.817  1.6927 -2.4468 -3.2263
  645SOL    HW2 1935   1.093   1.725   2.986  0.3659  1.2821  2.9557
  646SOL     OW 1936   0.226   1.568   0.179 -0.0664 -0.1517 -0.8034
  646SOL    HW1 1937   0.318   1.600   0.208 -1.9775 -1.5732 -0.6495
  646SOL    HW2 1938   0.160   1.583   0.256  2.0029 -1.1679  0.5326
  647SOL     OW 1939   1.052   0.082   1.073  0.7837  0.0198 -0.2362
  647SOL    HW1 1940   1.080   0.144   1.145 -0.0532 -1.7253 -2.9493
  647SOL    HW2 1941   1.102   3.073   1.084 -0.2217 -0.5973 -0.8942
  648SOL     OW 1942   2.733   2.984   1.661 -0.2151 -0.1452  0.4723
  648SOL    HW1 1943   2.709   3.057   1.726 -0.4353 -2.5974 -0.1635
  648SOL    HW2 1944   2.836   2.984   1.666 -0.1211  0.7246  0.4659
  649SOL     OW 1945   0.810   2.360   2.853  0.3765 -0.4824  0.5091
  649SOL    HW1 1946   0.772   2.281   2.898  1.0857  1.8832 -1.1864
  649SOL    HW2 1947   0.800   2.439   2.914 -0.3935 -0.9796 -1.4191
  650SOL     OW 1948   0.454   1.848   1.489  0.1395 -0.1368  0.1635
  650SOL    HW1 1949   0.439   1.761   1.440 -3.1199  1.8677  1.0503
  650SOL    HW2 1950   0.373   1.863   1.546 -0.6515  1.6197  1.7382
  651SOL     OW 1951   0.616   0.218   3.045  0.3275 -0.0353 -0.4015
  651SOL    HW1 1952   0.649   0.231   0.064  1.9407  1.1147  3.5248
  651SOL    HW2 1953   0.628   0.306   2.993  0.6987  0.9847 -0.7484
  652SOL     OW 1954   2.760   2.030   0.139 -0.4724 -0.1579  0.1944
  652SOL    HW1 1955   2.718   1.955   0.086  1.8679 -0.6952  0.0608
  652SOL    HW2 1956   2.690   2.089   0.182 -1.0711 -1.1521 -1.1775
  653SOL     OW 1957   0.060   0.055   0.592  0.2428 -0.5647 -0.2856
  653SOL    HW1 1958   0.003   0.136   0.626 -1.0457  2.1295  1.5991
  653SOL    HW2 1959   0.112   0.010   0.667 -2.3150  0.4302 -2.6824
  654SOL     OW 1960   1.747   0.011   2.606 -0.1003  0.5503 -0.2385
  654SOL    HW1 1961   1.674   0.070   2.642 -0.4057 -0.1666  0.6200
  654SOL    HW2 1962   1.710   3.006   2.559  0.2019 -0.1313  1.7036
  655SOL     OW 1963   0.845   2.426   1.316  0.0195 -0.0897 -0.1543
  655SOL    HW1 1964   0.901   2.369   1.383 -0.0565 -1.2448  0.4690
  655SOL    HW2 1965   0.748   2.421   1.346 -2.1806 -1.8070  1.8869
  656SOL     OW 1966   0.323   0.563   1.797 -0.0928  0.0417  0.5020
  656SOL    HW1 1967   0.390   0.625   1.839 -1.8361  0.2191 -0.3916
  656SOL    HW2 1968   0.229   0.604   1.800 -0.9987  1.4254 -1.5636
  657SOL     OW 1969   2.164   0.842   1.916 -0.7625  0.0118  0.2252
  657SOL    HW1 1970   2.089   0.893   1.958 -1.8402  0.4138  1.0472
  657SOL    HW2 1971   2.129   0.765   1.863  2.0274  0.5594  0.3454
  658SOL     OW 1972   2.353   1.472   1.181  0.2776 -0.2047  0.1796
  658SOL    HW1 1973   2.291   1.403   1.140 -0.5875  0.7498 -0.5012
  658SOL    HW2 1974   2.409   1.432   1.253 -0.6284  2.7051 -1.8552
  659SOL     OW 1975   2.557   0.077   0.011 -0.2886  0.3676 -0.1301
  659SOL    HW1 1976   2.543   0.175   0.028  1.4699 -1.4646 -1.1836
  659SOL    HW2 1977   2.628   0.042   0.078 -1.4056 -0.3574  0.0284
  660SOL     OW 1978   1.211   1.303   2.955 -0.2439 -0.2572  0.0612
  660SOL    HW1 1979   1.260   1.371   3.016 -1.3267 -0.6621  3.5995
  660SOL    HW2 1980   1.263   1.217   2.942 -1.0788  1.3865  1.9496
  661SOL     OW 1981   2.734   2.448   1.048 -0.0780 -0.5022 -0.1608
  661SOL    HW1 1982   2.751   2.351   1.036 -0.8769  3.4455  0.6568
  661SOL    HW2 1983   2.702   2.464   1.142  2.3053 -1.5085 -0.2550
  662SOL     OW 1984   0.475   0.802   0.109 -0.2065  0.0228 -0.2632
  662SOL    HW1 1985   0.576   0.787   0.117 -1.4358 -0.3259  0.5249
  662SOL    HW2 1986   0.447   0.842   0.200 -0.6259  2.1146  0.3107
  663SOL     OW 1987   1.112   2.084   0.115  0.1877 -0.8329 -0.2696
  663SOL    HW1 1988   1.179   2.139   0.174  2.4809  1.2694  1.0455
  663SOL    HW2 1989   1.019   2.120   0.101 -1.7117  1.4503  0.8406
  664SOL     OW 1990   0.663   2.887   1.639 -0.2547  0.6584 -0.6360
  664SOL    HW1 1991   0.688   2.885   1.539  0.4336  2.4692 -2.1611
  664SOL    HW2 1992   0.683   2.977   1.685  2.6438  1.0732 -1.7737
  665SOL     OW 1993   2.026   1.904   1.580  0.5576 -0.0806  0.1936
  665SOL    HW1 1994   1.990   1.987   1.623  2.0911  1.8776  2.9397
  665SOL    HW2 1995   2.003   1.896   1.478 -1.2680 -1.5909 -0.3178
  666SOL     OW 1996   0.599   2.741   0.215  0.1725 -0.1449  0.2384
  666SOL    HW1 1997   0.601   2.839   0.254  0.9413  4.2165  2.8585
  666SOL    HW2 1998   0.588   2.750   0.115  0.9309  0.7960  2.5756
  667SOL     OW 1999   1.803   1.738   1.710 -0.6907  0.4788 -0.1614
  667SOL    HW1 2000   1.752   1.711   1.624 -2.2320  1.0017 -4.2111
  667SOL    HW2 2001   1.759   1.821   1.758  1.0857  0.2948  2.4464
  668SOL     OW 2002   0.529   0.827   2.366  0.6121 -0.4861  0.2023
  668SOL    HW1 2003   0.451   0.899   2.358 -0.7541 -0.1745 -1.6551
  668SOL    HW2 2004   0.572   0.807   2.274  0.4804 -2.6618  0.6674
  669SOL     OW 2005   1.914   2.223   2.298  0.6389 -0.3300  0.1797
  669SOL    HW1 2006   1.967   2.140   2.276  0.0810 -0.6412  3.9334
  669SOL    HW2 2007   1.825   2.225   2.253  1.0768 -0.9344  1.8678
  670SOL     OW 2008   2.354   2.073   0.098 -0.2160  0.4863  0.0265
  670SOL    HW1 2009   2.350   2.011   0.018  1.0737 -0.4003 -0.5447
  670SOL    HW2 2010   2.257   2.087   0.127 -1.3180 -2.0008 -2.4199
  671SOL     OW 2011   0.542   1.245   1.207  0.4155 -0.0255 -0.4459
  671SOL    HW1 2012   0.587   1.328   1.235 -0.0359 -2.2543  0.6656
  671SOL    HW2 2013   0.595   1.163   1.242 -3.0189 -1.5443 -0.2535
  672SOL     OW 2014   2.628   1.052   2.339  0.2419  0.6271  0.4652
  672SOL    HW1 2015   2.691   1.037   2.259  1.6590 -0.4299 -1.4798
  672SOL    HW2 2016   2.629   0.973   2.408 -1.7887 -3.1505  1.9853
  673SOL     OW 2017   2.704   1.938   2.581  0.0663  0.5863  0.2122
  673SOL    HW1 2018   2.663   1.854   2.536 -3.0118 -0.6800  1.2580
  673SOL    HW2 2019   2.659   2.024   2.550  0.5432 -1.0002 -3.6453
  674SOL     OW 2020   0.966   2.596   2.205  0.2455  1.0286 -0.3986
  674SOL    HW1 2021   0.908   2.651   2.269  0.7305 -1.3059  1.0324
  674SOL    HW2 2022   0.999   2.643   2.120 -4.9861  1.4348 -1.0313
  675SOL     OW 2023   0.686   0.979   1.550 -0.3039 -0.6517  0.6725
  675SOL    HW1 2024   0.750   0.911   1.584 -2.6165 -1.3705  2.6600
  675SOL    HW2 2025   0.606   0.987   1.615  0.1254 -0.6571 -0.2471
  676SOL     OW 2026   1.803   0.870   0.408  0.3722 -0.6751  0.4338
  676SOL    HW1 2027   1.706   0.866   0.441  0.1399  0.4846 -1.4369
  676SOL    HW2 2028   1.874   0.853   0.480  0.2499 -1.1755  1.8249
  677SOL     OW 2029   2.869   1.571   2.903 -0.5018 -0.4176  0.7173
  677SOL    HW1 2030   2.842   1.485   2.854  0.0469  0.5829  0.4018
  677SOL    HW2 2031   2.971   1.593   2.901 -1.7686  0.8605 -1.1519
  678SOL     OW 2032   3.063   2.389   1.165  1.0249  0.0760 -0.7040
  678SOL    HW1 2033   3.002   2.403   1.241 -1.1930 -2.3219 -4.5507
  678SOL    HW2 2034   3.039   2.460   1.101 -1.1294  0.2241  1.4047
  679SOL     OW 2035   2.166   2.804   0.709  0.3519  0.2434  0.1055
  679SOL    HW1 2036   2.120   2.820   0.621 -0.7011 -0.2491  1.3422
  679SOL    HW2 2037   2.272   2.810   0.693  0.3380  0.1544 -1.0022
  680SOL     OW 2038   3.047   2.545   2.148 -0.2000 -0.3141 -0.5670
  680SOL    HW1 2039   3.006   2.487   2.217 -0.4625  2.9236  0.2676
  680SOL    HW2 2040   0.007   2.630   2.187  3.6719  0.2148  0.7948
  681SOL     OW 2041   2.912   1.240   1.519 -0.3148  0.0844  0.2825
  681SOL    HW1 2042   2.984   1.200   1.457  1.6426  0.4443 -0.8986
  681SOL    HW2 2043   2.923   1.341   1.536 -3.2676 -4.3943  0.5410
  682SOL     OW 2044   0.427   1.614   1.350 -0.1625  0.2412 -0.8710
  682SOL    HW1 2045   0.524   1.594   1.334 -1.4074  1.4400  0.6085
  682SOL    HW2 2046   0.372   1.653   1.274 -1.7957 -0.8208  1.2021
  683SOL     OW 2047   2.820   1.896   1.575 -0.7287  0.5423  0.3708
  683SOL    HW1 2048   2.854   1.826   1.639 -2.3677  1.0844  0.1054
  683SOL    HW2 2049   2.747   1.941   1.630  2.7812 -3.2394 -1.2241
  684SOL     OW 2050   0.038   1.386   0.082  0.3326  0.1917 -0.3041
  684SOL    HW1 2051   0.090   1.323   0.145 -0.6088 -2.6524  2.1701
  684SOL    HW2 2052   0.046   1.475   0.125  3.2439  1.5029  0.4358
  685SOL     OW 2053   0.933   0.972   0.275 -0.2205 -0.1364  0.2406
  685SOL    HW1 2054   0.975   1.027   0.193  2.0991 -0.1045 -1.9936
  685SOL    HW2 2055   1.007   0.933   0.333 -0.2137  0.9835 -0.0553
  686SOL     OW 2056   0.281   0.096   0.973  0.2094  0.3605  1.1354
  686SOL    HW1 2057   0.228   0.085   1.057  3.1398 -3.3314 -1.5822
  686SOL    HW2 2058   0.343   0.177   0.969  0.6571  1.5040 -1.8113
  687SOL     OW 2059   1.150   1.223   2.302  0.3960 -0.4929 -0.4894
  687SOL    HW1 2060   1.050   1.222   2.322  0.1240  0.5175  0.8764
  687SOL    HW2 2061   1.204   1.296   2.349  0.7059 -0.4155  2.2947
  688SOL     OW 2062   0.935   1.997   1.401 -0.3526 -0.0402 -0.5321
  688SOL    HW1 2063   0.895   2.002   1.307 -2.3482 -1.8792 -1.9286
  688SOL    HW2 2064   0.858   1.987   1.471 -0.5431 -1.0810  1.5490
  689SOL     OW 2065   1.711   0.764   1.213 -0.0201  0.1881  0.0944
  689SOL    HW1 2066   1.626   0.711   1.195  2.2809 -1.3005  3.0022
  689SOL    HW2 2067   1.727   0.843   1.152  0.0769 -2.1887  1.2437
  690SOL     OW 2068   2.901   1.021   1.003 -1.0448  0.1435  0.3325
  690SOL    HW1 2069   2.942   1.112   0.999 -0.8857 -0.2013 -0.2142
  690SOL    HW2 2070   2.928   0.967   1.088  0.0922 -2.3047  0.0029
  691SOL     OW 2071   0.245   2.351   1.618 -0.3156  0.0433 -0.8697
  691SOL    HW1 2072   0.180   2.360   1.695 -0.4049 -2.3534  1.5568
  691SOL    HW2 2073   0.281   2.440   1.586  1.9119  2.1714  0.3025
  692SOL     OW 2074   1.724   3.071   1.094  0.1154  0.7100  0.4868
  692SOL    HW1 2075   1.775   0.022   1.009 -1.3178 -0.7748  0.8329
  692SOL    HW2 2076   1.751   2.979   1.125 -1.1293  2.6853 -0.1565
  693SOL     OW 2077   3.043   1.654   2.618  0.1038  0.2249 -0.3467
  693SOL    HW1 2078   3.055   1.667   2.717  1.4087  0.2013  1.4234
  693SOL    HW2 2079   2.998   1.728   2.569  1.8163 -2.6762  2.0386
  694SOL     OW 2080   2.250   0.839   1.035 -0.6219 -0.8738 -0.0054
  694SOL    HW1 2081   2.262   0.759   1.093  1.4120  0.4146 -0.6238
  694SOL    HW2 2082   2.238   0.924   1.088 -1.8657  3.3419 -0.8967
  695SOL     OW 2083   0.751   1.257   1.502 -0.1428 -0.8397  0.1321
  695SOL    HW1 2084   0.753   1.155   1.496  0.7824  0.6098 -1.2517
  695SOL    HW2 2085   0.656   1.291   1.522 -3.2557  0.9558 -1.5223
  696SOL     OW 2086   1.699   2.914   0.706  0.1124  0.4221 -0.3944
  696SOL    HW1 2087   1.609   2.957   0.722  2.2886  2.0047  0.2228
  696SOL    HW2 2088   1.753   2.982   0.652 -1.0007  0.9132 -3.1907
  697SOL     OW 2089   0.832   0.147   0.922  0.5069 -0.0304 -0.1573
  697SOL    HW1 2090   0.910   0.098   0.968 -1.8748  0.6455 -1.0782
  697SOL    HW2 2091   0.776   0.190   0.996 -0.9996 -0.4580  0.6090
  698SOL     OW 2092   1.737   1.370   2.049  0.5645  0.4746 -0.3472
  698SOL    HW1 2093   1.819   1.315   2.016  1.4105 -1.2941 -1.6051
  698SOL    HW2 2094   1.777   1.442   2.111 -1.6837  0.8973  1.0133
  699SOL     OW 2095   1.536   1.042   1.032 -0.1693  0.0071 -0.6800
  699SOL    HW1 2096   1.507   0.972   0.975  1.5255  2.4572  1.3688
  699SOL    HW2 2097   1.552   1.129   0.988 -1.6401 -0.4235 -1.3591
  700SOL     OW 2098   1.447   2.670   0.313  0.2353  0.3236  0.0241
  700SOL    HW1 2099   1.517   2.741   0.287  0.8200 -2.0973 -0.3056
  700SOL    HW2 2100   1.469   2.635   0.407  1.2187 -0.8762 -0.3341
  701SOL     OW 2101   2.143   2.496   2.692 -0.5890  0.4962 -0.2638
  701SOL    HW1 2102   2.113   2.582   2.741 -2.0654  3.2239  0.6048
  701SOL    HW2 2103   2.207   2.443   2.752  1.4416 -1.1174  0.9122
  702SOL     OW 2104   0.869   0.246   0.637 -0.3114 -0.0449  0.6575
  702SOL    HW1 2105   0.962   0.272   0.602  2.7966  0.8454  0.8570
  702SOL    HW2 2106   0.874   0.185   0.717 -0.3450  0.2349  1.8267
  703SOL     OW 2107   2.242   0.492   2.064 -0.8820 -0.4030  0.2964
  703SOL    HW1 2108   2.196   0.432   2.130 -3.5690  1.4592 -0.0571
  703SOL    HW2 2109   2.263   0.579   2.107 -1.2419 -0.0393 -0.6048
  704SOL     OW 2110   3.012   2.084   0.871 -0.4883 -0.0405 -0.0978
  704SOL    HW1 2111   2.942   2.071   0.799 -3.5818 -0.2591 -1.5613
  704SOL    HW2 2112   3.019   1.993   0.918 -0.3046 -1.3665 -0.5500
  705SOL     OW 2113   2.677   2.805   2.057 -0.5339 -0.7138  0.3053
  705SOL    HW1 2114   2.746   2.817   1.982 -0.6964 -0.3293  2.1422
  705SOL    HW2 2115   2.580   2.813   2.014  1.4918  0.4907 -3.4712
  706SOL     OW 2116   2.344   2.531   0.888  0.1679  0.9901 -0.0373
  706SOL    HW1 2117   2.279   2.475   0.943  0.7485 -1.8621  0.0385
  706SOL    HW2 2118   2.406   2.478   0.834 -0.8077  1.5905  3.1228
  707SOL     OW 2119   0.703   2.208   2.056  0.3760  0.1474 -0.4205
  707SOL    HW1 2120   0.787   2.245   2.102  0.9688  0.7902 -0.5863
  707SOL    HW2 2121   0.716   2.184   1.961 -4.2047  1.9807  6.0666
  708SOL     OW 2122   2.906   2.446   2.374 -0.4931 -0.0332  0.4504
  708SOL    HW1 2123   2.849   2.371   2.407 -1.1388  3.8884 -1.2997
  708SOL    HW2 2124   2.940   2.507   2.444 -2.2676 -4.3733 -1.6220
  709SOL     OW 2125   2.031   2.949   1.945 -0.2024 -0.5487 -0.3310
  709SOL    HW1 2126   2.103   2.890   1.986 -0.6115 -0.6232  1.2683
  709SOL    HW2 2127   1.987   3.009   2.018 -2.2334 -0.4006  1.4111
  710SOL     OW 2128   1.544   0.775   2.479 -0.0673 -0.1261 -0.1467
  710SOL    HW1 2129   1.617   0.730   2.420 -0.1203 -1.2246 -3.8887
  710SOL    HW2 2130   1.536   0.869   2.446 -2.0787 -0.3686 -0.8672
  711SOL     OW 2131   0.801   1.879   3.051  0.3403 -0.0007 -0.3862
  711SOL    HW1 2132   0.855   1.848   0.054  2.1176  0.4785  0.2981
  711SOL    HW2 2133   0.751   1.806   3.005  0.2330 -1.5236 -1.9153
  712SOL     OW 2134   0.537   2.543   2.515  0.2055  0.4633  0.6932
  712SOL    HW1 2135   0.509   2.467   2.452  1.2999  0.0196 -0.1063
  712SOL    HW2 2136   0.614   2.512   2.575  0.0527  0.7501 -1.4768
  713SOL     OW 2137   1.579   1.538   2.934  0.7364 -0.2223  0.5937
  713SOL    HW1 2138   1.590   1.613   2.863 -1.1790  3.4954  1.6921
  713SOL    HW2 2139   1.647   1.548   3.007 -0.1392  1.8565 -1.6326
  714SOL     OW 2140   0.990   1.672   1.731  0.0713  0.2332  0.3434
  714SOL    HW1 2141   0.965   1.591   1.678  0.4250 -1.3639 -0.0559
  714SOL    HW2 2142   1.083   1.664   1.770 -1.3211  2.7052  0.4743
  715SOL     OW 2143   1.744   0.365   2.687 -0.2778 -0.5371  0.0389
  715SOL    HW1 2144   1.741   0.423   2.602 -0.8634 -0.2844  0.9650
  715SOL    HW2 2145   1.838   0.334   2.718  0.4936 -1.7471  1.5331
  716SOL     OW 2146   2.914   2.556   1.926 -0.1091 -0.1453 -0.0793
  716SOL    HW1 2147   2.895   2.657   1.913 -0.8809  3.5903  0.7418
  716SOL    HW2 2148   2.982   2.544   2.006  1.3444 -1.9589  0.9408
  717SOL     OW 2149   2.685   0.887   0.916 -0.6674  0.1520  0.2945
  717SOL    HW1 2150   2.758   0.949   0.951  0.6747 -0.4582 -0.3221
  717SOL    HW2 2151   2.677   0.800   0.962 -0.0600  0.3424  2.3069
  718SOL     OW 2152   0.596   1.511   2.274 -0.5110 -0.3005  0.4176
  718SOL    HW1 2153   0.504   1.540   2.302  0.5045  0.0249  1.6338
  718SOL    HW2 2154   0.649   1.472   2.349 -1.3577 -2.3340 -0.8872
  719SOL     OW 2155   1.953   0.827   0.002  0.0026 -0.3759 -0.6532
  719SOL    HW1 2156   1.926   0.805   2.986 -0.7757 -3.6881 -1.0608
  719SOL    HW2 2157   2.054   0.859   0.002  3.4443 -1.0926  1.3199
  720SOL     OW 2158   0.680   0.421   0.783  0.2877  0.5855 -0.5339
  720SOL    HW1 2159   0.703   0.455   0.877 -0.9144  1.7797 -0.0553
  720SOL    HW2 2160   0.751   0.360   0.741 -0.9258 -1.3100 -0.9467
  721SOL     OW 2161   2.615   0.326   0.827 -0.8677 -0.4404  0.1890
  721SOL    HW1 2162   2.651   0.417   0.806 -1.9741 -1.9298  1.5472
  721SOL    HW2 2163   2.582   0.284   0.743  2.9037  1.9029 -1.2097
  722SOL     OW 2164   2.460   0.608   2.425 -0.2094 -0.6532 -0.0762
  722SOL    HW1 2165   2.417   0.579   2.514  1.4230 -0.6347  2.3606
  722SOL    HW2 2166   2.532   0.678   2.446 -1.8481 -0.1048 -2.2079
  723SOL     OW 2167   2.400   0.317   0.368 -0.2009 -0.2231 -0.2981
  723SOL    HW1 2168   2.323   0.255   0.346  1.3561  1.2252 -2.3476
  723SOL    HW2 2169   2.366   0.399   0.419  0.6180 -1.0981 -0.6954
  724SOL     OW 2170   0.480   1.756   2.092  0.3188  0.1110 -0.3246
  724SOL    HW1 2171   0.532   1.712   2.164 -0.6265  5.2118 -1.4097
  724SOL    HW2 2172   0.536   1.747   2.005  1.5838 -1.4346  1.4349
  725SOL     OW 2173   1.730   0.240   1.235  0.4190  0.2724 -0.2445
  725SOL    HW1 2174   1.814   0.279   1.194 -1.1314  0.1739 -0.5938
  725SOL    HW2 2175   1.722   0.146   1.194 -2.4049  2.1589  0.4834
  726SOL     OW 2176   2.028   2.446   0.186 -0.6887 -0.2969  0.2890
  726SOL    HW1 2177   1.937   2.480   0.208  2.7002 -1.5727  2.9427
  726SOL    HW2 2178   2.061   2.407   0.270 -1.0826  2.1251 -2.9758
  727SOL     OW 2179   1.787   1.423   1.456 -0.0627  0.3209 -0.1767
  727SOL    HW1 2180   1.761   1.386   1.549 -0.9266 -1.5206  1.1052
  727SOL    HW2 2181   1.892   1.437   1.461  2.4871 -3.7130 -0.9991
  728SOL     OW 2182   2.374   2.754   1.442 -0.4522  0.3544  0.3030
  728SOL    HW1 2183   2.445   2.773   1.373 -0.3737  0.1312  3.9729
  728SOL    HW2 2184   2.286   2.808   1.430  1.0423 -0.1752  0.8868
  729SOL     OW 2185   1.952   1.644   0.831 -0.0894  0.3593 -0.4604
  729SOL    HW1 2186   1.918   1.620   0.739 -1.6014 -3.0939  1.2661
  729SOL    HW2 2187   2.053   1.655   0.835  0.4670  1.2038 -1.0460
  730SOL     OW 2188   1.066   0.613   2.730 -0.2081 -0.1304  0.6256
  730SOL    HW1 2189   0.964   0.591   2.719 -2.0992  1.8992  1.6056
  730SOL    HW2 2190   1.080   0.697   2.787  0.1711  1.6794  0.0595
  731SOL     OW 2191   0.484   2.987   0.999  0.1375  0.0852 -0.2068
  731SOL    HW1 2192   0.529   2.981   1.091  0.3283 -1.1349  1.7761
  731SOL    HW2 2193   0.394   3.038   1.001  0.1272  1.7482 -1.1008
  732SOL     OW 2194   1.457   0.576   0.634  0.0649  0.6744  0.5848
  732SOL    HW1 2195   1.459   0.486   0.590 -1.5077  0.7483 -0.3303
  732SOL    HW2 2196   1.415   0.569   0.727 -0.2741 -2.2763 -0.9622
  733SOL     OW 2197   0.570   1.856   1.202  0.4497  0.8630 -0.0952
  733SOL    HW1 2198   0.663   1.884   1.167  1.1889 -1.1346  1.8627
  733SOL    HW2 2199   0.554   1.887   1.298  0.1223 -0.4000 -2.2957
  734SOL     OW 2200   0.087   2.679   0.168  0.4834 -0.2095 -0.0638
  734SOL    HW1 2201   0.074   2.780   0.169 -1.0592 -0.0866 -1.2390
  734SOL    HW2 2202   0.138   2.643   0.086 -1.9533 -3.0123  2.4453
  735SOL     OW 2203   1.166   0.193   1.292 -0.0619  0.3641 -0.8905
  735SOL    HW1 2204   1.130   0.101   1.332  0.9042 -3.2387  2.0819
  735SOL    HW2 2205   1.267   0.189   1.292 -2.5902 -1.8291 -1.7229
  736SOL     OW 2206   2.096   2.136   0.162  0.1852 -0.0604  0.3009
  736SOL    HW1 2207   2.069   2.183   0.246 -0.7461  0.3572 -1.8183
  736SOL    HW2 2208   2.087   2.199   0.081  0.0980 -1.9330  1.1748
  737SOL     OW 2209   2.726   1.273   1.054  0.6688  0.1433  0.0044
  737SOL    HW1 2210   2.722   1.293   0.953  1.5272  0.0419 -0.4442
  737SOL    HW2 2211   2.770   1.350   1.100  1.3213  1.2774  1.2754
  738SOL     OW 2212   2.255   2.441   2.124  0.0512  0.1536  0.4496
  738SOL    HW1 2213   2.286   2.488   2.039 -1.0836  3.5091 -1.8862
  738SOL    HW2 2214   2.228   2.507   2.193  0.7591 -2.9752 -2.2307
  739SOL     OW 2215   1.076   2.071   2.830 -0.1704  0.4747 -0.1807
  739SOL    HW1 2216   1.097   1.989   2.891  0.0082  0.2108  1.6800
  739SOL    HW2 2217   1.046   2.151   2.885 -2.0210  0.6540 -2.0056
  740SOL     OW 2218   1.463   0.204   1.231 -0.1906  0.0607 -0.3885
  740SOL    HW1 2219   1.558   0.223   1.257 -2.0305 -2.7711 -0.5159
  740SOL    HW2 2220   1.437   0.262   1.152 -1.1822 -0.7240  0.2573
  741SOL     OW 2221   0.195   1.038   1.082 -0.0406 -0.7634 -0.7069
  741SOL    HW1 2222   0.273   0.998   1.135  0.1310 -0.0111 -0.3891
  741SOL    HW2 2223   0.191   0.987   0.999 -0.3270  2.2678  2.3623
  742SOL     OW 2224   1.027   1.310   2.674  0.5776 -0.0771 -0.9198
  742SOL    HW1 2225   0.991   1.350   2.763  1.6793  0.1161 -0.3159
  742SOL    HW2 2226   1.005   1.368   2.593  2.1071 -0.4365 -1.4476
  743SOL     OW 2227   1.046   0.982   1.928 -0.3310  0.2215 -0.2069
  743SOL    HW1 2228   1.112   0.986   2.005  0.4927  0.9118  0.3698
  743SOL    HW2 2229   0.979   1.062   1.934 -0.7843  2.3467 -1.4242
  744SOL     OW 2230   1.752   0.374   1.475  0.8998 -0.0852 -0.0113
  744SOL    HW1 2231   1.748   0.330   1.384  0.1859  2.2121  2.1739
  744SOL    HW2 2232   1.832   0.342   1.527 -3.1095 -0.2561 -2.6461
  745SOL     OW 2233   1.764   1.174   1.323 -0.0833 -0.1873 -0.5046
  745SOL    HW1 2234   1.786   1.187   1.224 -0.4415 -0.2004  0.9235
  745SOL    HW2 2235   1.759   1.262   1.366 -1.4880 -1.5317 -0.2443
  746SOL     OW 2236   2.218   1.231   0.733 -0.4814 -0.4133 -0.3661
  746SOL    HW1 2237   2.145   1.206   0.664 -1.2645  1.7064  0.5051
  746SOL    HW2 2238   2.293   1.163   0.745 -0.0939 -1.1836 -1.6273
  747SOL     OW 2239   2.542   1.607   1.031  0.2674  0.4882  0.0397
  747SOL    HW1 2240   2.527   1.619   0.933  1.8275 -0.8189  1.8414
  747SOL    HW2 2241   2.469   1.562   1.084  1.5100  2.4547 -0.2103
  748SOL     OW 2242   0.654   2.136   0.638  0.0095 -0.0707 -0.4256
  748SOL    HW1 2243   0.668   2.232   0.663 -1.1331 -2.3806 -0.2215
  748SOL    HW2 2244   0.616   2.126   0.540 -0.5653  0.8201 -1.6130
  749SOL     OW 2245   2.570   2.673   2.523  0.0465  0.2442  0.1080
  749SOL    HW1 2246   2.582   2.678   2.622 -1.3217  0.1588  0.5313
  749SOL    HW2 2247   2.507   2.743   2.479 -0.1091 -0.7763 -1.2870
  750SOL     OW 2248   2.587   0.644   0.732 -0.1479 -0.6411 -0.2604
  750SOL    HW1 2249   2.623   0.617   0.636 -1.4773  2.7910 -2.6174
  750SOL    HW2 2250   2.486   0.651   0.736  0.2181 -0.2907  1.9347
  751SOL     OW 2251   2.366   2.961   0.407  0.5086  0.4248  0.0581
  751SOL    HW1 2252   2.353   3.034   0.475 -2.1132  0.9687  1.1530
  751SOL    HW2 2253   2.302   2.987   0.331  0.1971 -0.1974 -0.5555
  752SOL     OW 2254   3.060   2.852   0.783 -0.1525  0.2153 -0.2365
  752SOL    HW1 2255   0.070   2.899   0.810  1.8471  1.8174 -0.8766
  752SOL    HW2 2256   0.007   2.763   0.738  1.0565 -1.0173 -0.7088
  753SOL     OW 2257   1.856   0.928   2.281  0.3752 -0.0520 -0.2331
  753SOL    HW1 2258   1.833   0.974   2.370 -0.2310  0.3168 -1.0328
  753SOL    HW2 2259   1.813   0.834   2.274  1.1836  0.1073 -0.6903
  754SOL     OW 2260   1.746   2.024   1.475  0.0398  0.4151 -0.4227
  754SOL    HW1 2261   1.784   2.086   1.406 -1.3583 -2.8328  1.4531
  754SOL    HW2 2262   1.733   1.927   1.438  0.4288  0.7278 -1.1394
  755SOL     OW 2263   2.647   0.984   0.675 -0.0899 -0.2015 -0.0730
  755SOL    HW1 2264   2.672   0.939   0.765  2.6195 -1.2463  0.0544
  755SOL    HW2 2265   2.705   0.946   0.601 -0.2593 -0.4558 -1.8160
  756SOL     OW 2266   0.960   1.427   2.916  0.2127 -0.1081  0.0597
  756SOL    HW1 2267   1.037   1.367   2.939 -1.3077  1.6244 -2.7937
  756SOL    HW2 2268   0.992   1.526   2.918 -1.3083 -0.5585  0.2049
  757SOL     OW 2269   1.525   2.556   0.746 -0.6677 -0.2047 -0.9157
  757SOL    HW1 2270   1.523   2.630   0.814  1.2055  0.5433  0.7017
  757SOL    HW2 2271   1.490   2.474   0.794  2.8341 -0.2848  2.8430
  758SOL     OW 2272   1.271   2.749   1.583 -0.3241 -0.0327 -0.8379
  758SOL    HW1 2273   1.295   2.844   1.554 -0.9519 -0.5643 -0.8396
  758SOL    HW2 2274   1.233   2.688   1.506  0.0267  0.3661  1.1766
  759SOL     OW 2275   0.223   0.949   0.806 -0.1979 -1.1673 -0.0033
  759SOL    HW1 2276   0.266   1.032   0.764 -1.2804  0.0393  0.2481
  759SOL    HW2 2277   0.127   0.931   0.772 -2.1948 -0.1691 -1.1492
  760SOL     OW 2278   2.508   0.892   1.226  0.6760 -0.3055 -0.4508
  760SOL    HW1 2279   2.517   0.965   1.152  1.1513  1.6100 -2.3825
  760SOL    HW2 2280   2.519   0.930   1.319 -1.2051  0.7526  2.0637
  761SOL     OW 2281   1.860   3.077   0.567 -0.3030 -0.2532 -0.7446
  761SOL    HW1 2282   1.887   3.038   0.477 -0.3263 -0.4056 -0.0397
  761SOL    HW2 2283   1.921   0.083   0.593  0.4998  1.8953  0.7786
  762SOL     OW 2284   2.075   1.627   2.934  0.2014  0.0977  0.1359
  762SOL    HW1 2285   2.000   1.579   2.887  0.6670  0.3589  0.2956
  762SOL    HW2 2286   2.157   1.625   2.873  0.3697 -0.9928  3.5100
  763SOL     OW 2287   0.691   1.976   1.545  0.3610 -0.5992 -0.0118
  763SOL    HW1 2288   0.744   1.930   1.617  0.5456  0.4098  1.3482
  763SOL    HW2 2289   0.604   1.924   1.527  2.8044 -0.7147  0.1226
  764SOL     OW 2290   2.951   2.270   2.704  0.7872 -0.0951 -0.4262
  764SOL    HW1 2291   2.903   2.181   2.730  0.1588  0.7247  0.7702
  764SOL    HW2 2292   2.886   2.355   2.697 -1.3224  0.0810  0.4661
  765SOL     OW 2293   0.343   2.716   1.154 -0.5685  0.0071  0.3260
  765SOL    HW1 2294   0.439   2.698   1.188  1.3164 -1.3091 -0.6225
  765SOL    HW2 2295   0.324   2.672   1.064  1.3376 -2.0531 -0.5278
  766SOL     OW 2296   2.888   2.146   2.204  0.2383 -0.6556 -0.1435
  766SOL    HW1 2297   2.977   2.157   2.254  1.5822 -1.7748  1.1340
  766SOL    HW2 2298   2.855   2.048   2.208  0.4671 -3.4871  0.1104
  767SOL     OW 2299   2.294   0.710   2.246 -0.1726 -0.1575 -0.3356
  767SOL    HW1 2300   2.339   0.794   2.217 -2.6168 -0.7300 -0.5254
  767SOL    HW2 2301   2.362   0.659   2.303  1.9893 -0.0441 -0.7280
  768SOL     OW 2302   1.535   0.187   2.719  0.3288  0.0491 -1.0761
  768SOL    HW1 2303   1.464   0.206   2.790  1.7431  0.8480 -2.3210
  768SOL    HW2 2304   1.608   0.259   2.706 -1.7014  1.1231  0.2049
  769SOL     OW 2305   2.982   2.632   1.023 -0.0896 -0.3900 -0.3458
  769SOL    HW1 2306   2.919   2.637   0.942 -0.8964 -0.3425 -1.2065
  769SOL    HW2 2307   2.942   2.685   1.099 -1.5394 -1.6964 -2.3474
  770SOL     OW 2308   0.515   0.179   2.606  0.3151 -0.3530 -0.3665
  770SOL    HW1 2309   0.552   0.112   2.669  2.0626  3.4868 -3.0753
  770SOL    HW2 2310   0.442   0.235   2.644  2.2031 -1.8998 -0.6643
  771SOL     OW 2311   1.356   1.859   2.139  0.4760  0.5955  0.4457
  771SOL    HW1 2312   1.394   1.795   2.067 -0.4392 -0.1769 -1.5568
  771SOL    HW2 2313   1.339   1.952   2.093 -0.1430  1.9522 -1.4529
  772SOL     OW 2314   1.719   2.523   2.514 -0.2692  0.3494  0.3527
  772SOL    HW1 2315   1.640   2.579   2.539 -1.0518  0.0229 -1.0520
  772SOL    HW2 2316   1.801   2.577   2.500 -1.3571 -2.4818  1.4439
  773SOL     OW 2317   1.839   0.929   1.400 -0.2343 -0.4640  0.0372
  773SOL    HW1 2318   1.784   0.863   1.341 -2.6365 -2.3425  0.4013
  773SOL    HW2 2319   1.843   1.023   1.360 -1.2524  0.6243 -0.5486
  774SOL     OW 2320   0.914   0.530   0.970 -0.4761 -0.2637  0.4182
  774SOL    HW1 2321   0.954   0.457   1.026  0.5383  2.5415 -0.9426
  774SOL    HW2 2322   0.907   0.619   1.019 -3.4041  1.6471  0.5572
  775SOL     OW 2323   1.898   2.841   2.688 -0.5199  0.9196  0.5208
  775SOL    HW1 2324   1.837   2.785   2.747 -0.2459  0.1026  1.5242
  775SOL    HW2 2325   1.918   2.795   2.603  1.2123 -0.9803  2.0225
  776SOL     OW 2326   2.090   0.815   1.365  0.6931  0.1725 -0.0037
  776SOL    HW1 2327   2.020   0.888   1.393 -0.9135  0.4911 -0.0654
  776SOL    HW2 2328   2.047   0.752   1.298 -0.8060 -0.0014  0.7994
  777SOL     OW 2329   0.095   1.178   2.213  0.2933 -0.1821 -0.6441
  777SOL    HW1 2330   0.172   1.121   2.183  0.3587  0.7741  1.7352
  777SOL    HW2 2331   0.121   1.249   2.280  1.1716 -1.3929 -2.2350
  778SOL     OW 2332   0.009   0.833   2.738  0.3756 -0.3720 -0.5743
  778SOL    HW1 2333   0.083   0.776   2.695  1.9443 -0.4505  2.7619
  778SOL    HW2 2334   0.053   0.913   2.778  0.4894 -1.6424  1.2770
  779SOL     OW 2335   0.294   0.587   2.798 -1.0992 -0.9633  0.3966
  779SOL    HW1 2336   0.369   0.640   2.842 -1.0038  1.0974 -2.4952
  779SOL    HW2 2337   0.247   0.631   2.719  0.3839 -0.6974 -0.1396
  780SOL     OW 2338   2.272   1.632   2.730  0.0443  0.3346 -0.0814
  780SOL    HW1 2339   2.208   1.618   2.651 -1.0430  0.8523 -1.7346
  780SOL    HW2 2340   2.332   1.709   2.714 -0.6350 -0.8846  2.7713
  781SOL     OW 2341   2.748   1.026   2.114 -0.0607  0.3149 -0.3083
  781SOL    HW1 2342   2.713   1.098   2.055  1.5804  0.3995 -0.2140
  781SOL    HW2 2343   2.775   0.947   2.052  2.8231 -0.1075 -0.8600
  782SOL     OW 2344   0.942   1.922   2.605  0.1145  0.4909  0.6711
  782SOL    HW1 2345   0.873   1.848   2.636 -1.1562 -1.6657 -1.6551
  782SOL    HW2 2346   0.981   1.976   2.681 -1.6877 -1.5508 -1.3477
  783SOL     OW 2347   1.260   2.521   1.119 -0.1128 -0.1277  0.6888
  783SOL    HW1 2348   1.293   2.455   1.052  0.5528  1.8212 -0.0480
  783SOL    HW2 2349   1.159   2.526   1.110  2.2703  0.5580 -0.5632
  784SOL     OW 2350   2.061   0.433   2.279 -0.4069 -0.5736  0.4250
  784SOL    HW1 2351   2.091   0.387   2.365  1.0844  0.6580 -1.2821
  784SOL    HW2 2352   2.053   0.533   2.290 -0.6910 -3.6954 -0.3150
  785SOL     OW 2353   0.021   0.235   1.823 -0.1228 -0.1845  0.2772
  785SOL    HW1 2354   3.070   0.154   1.877  0.9841  0.7982  1.2164
  785SOL    HW2 2355   0.078   0.208   1.739  2.6622  0.1433 -3.2753
  786SOL     OW 2356   1.147   1.944   0.497  0.2937  0.5371 -0.1350
  786SOL    HW1 2357   1.216   2.002   0.451  1.2398  0.9806 -1.1011
  786SOL    HW2 2358   1.065   2.005   0.515  1.5698  1.2295 -2.1321
  787SOL     OW 2359   1.185   0.069   0.802 -0.0592 -0.1399  0.3458
  787SOL    HW1 2360   1.158   3.067   0.747  1.1351  0.0780 -0.0536
  787SOL    HW2 2361   1.125   0.091   0.882 -1.3571 -1.9344  0.9486
  788SOL     OW 2362   2.815   1.545   1.069 -0.1781 -0.1180 -0.1094
  788SOL    HW1 2363   2.721   1.589   1.081  0.1524 -0.5922  0.9861
  788SOL    HW2 2364   2.887   1.607   1.109  0.6227  0.1285 -0.0457
  789SOL     OW 2365   2.404   0.956   2.172  0.2085 -0.4441  0.0176
  789SOL    HW1 2366   2.444   0.968   2.082 -1.2330  0.2636  2.2530
  789SOL    HW2 2367   2.460   0.995   2.245  0.8555 -0.1797 -2.2188
  790SOL     OW 2368   1.118   0.165   2.999  0.3993  0.5222  0.0106
  790SOL    HW1 2369   1.101   0.191   0.018  1.5714 -0.7305  1.8923
  790SOL    HW2 2370   1.026   0.145   2.956  2.1361 -1.5290 -0.1646
  791SOL     OW 2371   0.104   2.961   0.124  0.2588 -0.4466  0.2999
  791SOL    HW1 2372   0.044   3.040   0.145 -0.1692 -2.4772 -1.0649
  791SOL    HW2 2373   0.197   2.970   0.166  2.8711 -1.8347 -0.8837
  792SOL     OW 2374   1.376   0.526   1.940  0.3071 -0.2518  0.0572
  792SOL    HW1 2375   1.361   0.451   2.010  0.6525  0.8467 -0.1045
  792SOL    HW2 2376   1.294   0.548   1.885 -1.8717 -1.1396  2.4444
  793SOL     OW 2377   0.081   0.332   1.175  0.8077  0.0790 -0.2553
  793SOL    HW1 2378   0.112   0.416   1.129 -0.3718 -1.8909  0.4368
  793SOL    HW2 2379   0.074   0.350   1.271  0.3751 -1.7714 -0.6159
  794SOL     OW 2380   0.171   0.343   2.037 -0.2827  0.3564 -0.0350
  794SOL    HW1 2381   0.254   0.374   1.984 -0.2054  0.6698  0.3494
  794SOL    HW2 2382   0.114   0.293   1.973  0.3015  2.0871 -1.7552
  795SOL     OW 2383   0.702   1.535   0.444 -0.7373  0.2975  0.2596
  795SOL    HW1 2384   0.639   1.496   0.375 -0.6772 -0.0010 -2.8764
  795SOL    HW2 2385   0.728   1.629   0.418 -0.2967 -0.4388 -0.1009
  796SOL     OW 2386   2.972   0.792   3.007  0.6270 -0.8840  0.1625
  796SOL    HW1 2387   2.893   0.860   3.005  0.0215 -0.0492  0.4154
  796SOL    HW2 2388   3.030   0.808   2.920  1.6779 -1.0249 -3.3541
  797SOL     OW 2389   1.648   2.891   2.453 -0.2766  0.5660 -0.4817
  797SOL    HW1 2390   1.730   2.828   2.448  2.8255 -0.9862 -0.5663
  797SOL    HW2 2391   1.624   2.925   2.358 -0.2501 -0.7574  1.1873
  798SOL     OW 2392   0.135   0.066   1.234 -0.5012  0.0081  0.1271
  798SOL    HW1 2393   0.235   0.068   1.266  1.0241  0.5084 -0.4134
  798SOL    HW2 2394   0.090   0.155   1.233  0.7565 -2.8024  0.1356
  799SOL     OW 2395   3.011   1.089   1.871 -0.2132 -0.2715 -0.3712
  799SOL    HW1 2396   2.933   1.087   1.802 -0.5239 -3.0635 -1.3911
  799SOL    HW2 2397   3.027   0.994   1.908  1.6531 -0.8109 -0.1844
  800SOL     OW 2398   0.002   1.808   0.250  0.2774 -0.1115  0.4644
  800SOL    HW1 2399   3.035   1.874   0.319 -1.8095 -0.2440  3.7083
  800SOL    HW2 2400   0.014   1.870   0.166 -0.3246 -0.7444 -5.4659
  801SOL     OW 2401   1.999   1.562   0.531 -0.0699  0.3615  0.4218
  801SOL    HW1 2402   2.068   1.549   0.457  0.5882 -0.6222  0.8570
  801SOL    HW2 2403   1.912   1.501   0.523 -2.2939 -0.6634  1.0633
  802SOL     OW 2404   1.274   0.940   2.725 -0.3284 -0.6001 -0.4367
  802SOL    HW1 2405   1.295   0.967   2.625  1.0035 -0.2776 -0.2088
  802SOL    HW2 2406   1.348   0.872   2.743 -0.6963 -1.6319  0.4848
  803SOL     OW 2407   0.745   2.149   1.802  0.0436 -0.1319 -0.6097
  803SOL    HW1 2408   0.816   2.220   1.771  1.0200  1.2455  0.6607
  803SOL    HW2 2409   0.774   2.056   1.772 -1.1593  1.6838 -0.7966
  804SOL     OW 2410   1.272   2.139   0.870 -0.4154 -0.2372 -0.2774
  804SOL    HW1 2411   1.368   2.101   0.870  1.2231 -1.6744  1.9916
  804SOL    HW2 2412   1.245   2.170   0.782  0.2816 -0.9407  0.9776
  805SOL     OW 2413   2.540   2.367   2.610 -0.2677 -0.0081 -0.6192
  805SOL    HW1 2414   2.613   2.423   2.653  0.6583 -0.7821 -0.2401
  805SOL    HW2 2415   2.521   2.411   2.517 -3.1773 -0.2920 -2.4327
  806SOL     OW 2416   0.180   0.262   0.427 -0.6253 -0.3955 -0.3043
  806SOL    HW1 2417   0.128   0.182   0.458  2.6481  2.3832 -0.3076
  806SOL    HW2 2418   0.197   0.327   0.500 -0.7273 -1.0624  0.4464
  807SOL     OW 2419   2.617   0.655   2.842  0.4472  0.0085 -0.1173
  807SOL    HW1 2420   2.715   0.627   2.811  2.1879  2.0966 -2.9014
  807SOL    HW2 2421   2.541   0.607   2.792 -1.1626  3.0791 -0.6211
  808SOL     OW 2422   0.959   2.322   0.863  0.0856 -0.2579 -0.1924
  808SOL    HW1 2423   0.993   2.375   0.942 -0.6843 -0.2227  2.5614
  808SOL    HW2 2424   0.859   2.329   0.850 -0.1686 -0.2219 -1.5316
  809SOL     OW 2425   2.616   0.217   2.636 -0.4396  0.2076  0.6342
  809SOL    HW1 2426   2.577   0.147   2.700  0.3301  0.1784  1.2314
  809SOL    HW2 2427   2.551   0.254   2.567 -1.5975 -0.9609 -0.4387
  810SOL     OW 2428   1.371   1.071   0.618 -0.7995 -0.1304 -0.5793
  810SOL    HW1 2429   1.375   1.165   0.654 -0.7455  0.0172 -0.7797
  810SOL    HW2 2430   1.454   1.019   0.657 -0.6728 -2.3009  1.4568
  811SOL     OW 2431   1.979   2.938   1.645  0.3306  0.3034  0.1108
  811SOL    HW1 2432   1.890   2.981   1.632  0.5316 -0.4045 -1.1084
  811SOL    HW2 2433   2.013   2.961   1.738  1.9354  0.9071  1.9530
  812SOL     OW 2434   1.872   2.532   0.433 -0.0687 -0.7713 -0.2244
  812SOL    HW1 2435   1.884   2.445   0.491 -1.4532 -4.3292 -0.1898
  812SOL    HW2 2436   1.807   2.596   0.475  1.2501 -0.7443  0.6137
  813SOL     OW 2437   0.998   0.731   1.968  0.1969  0.1241  0.0272
  813SOL    HW1 2438   0.969   0.708   2.065 -0.4192 -0.5863  0.3106
  813SOL    HW2 2439   1.029   0.827   1.958  1.1968  0.6888  1.2587
  814SOL     OW 2440   0.401   0.119   1.266 -0.4608 -0.1008 -0.4290
  814SOL    HW1 2441   0.431   0.201   1.211 -0.2114 -0.3997  0.6975
  814SOL    HW2 2442   0.473   0.046   1.264  0.2195 -1.8539 -1.5653
  815SOL     OW 2443   0.432   2.921   0.615 -0.0438  0.0689 -0.2217
  815SOL    HW1 2444   0.505   2.979   0.656  2.4413  0.9746 -1.5780
  815SOL    HW2 2445   0.473   2.831   0.595 -2.1168 -2.9965 -0.0061
  816SOL     OW 2446   2.696   1.321   2.611 -0.4241  0.1816 -0.3659
  816SOL    HW1 2447   2.652   1.225   2.615  0.2556 -0.5996 -1.8271
  816SOL    HW2 2448   2.632   1.388   2.573  1.1282 -3.1001 -1.2954
  817SOL     OW 2449   1.360   0.016   0.039  0.0672 -0.0297  0.2732
  817SOL    HW1 2450   1.393   0.058   0.128 -2.4230  0.2133  2.0343
  817SOL    HW2 2451   1.318   0.092   3.062 -2.1578  1.3014  0.0994
  818SOL     OW 2452   1.528   0.590   0.110 -0.1211 -0.6227  0.4044
  818SOL    HW1 2453   1.623   0.628   0.123  1.3651 -0.0074  1.3849
  818SOL    HW2 2454   1.536   0.498   0.066 -1.9762 -0.1508 -0.4481
  819SOL     OW 2455   2.185   2.642   0.023 -0.0386  0.1538  0.1541
  819SOL    HW1 2456   2.126   2.671   3.021 -0.9784 -1.7839  0.4819
  819SOL    HW2 2457   2.146   2.560   0.069  1.0942  0.4335 -3.3905
  820SOL     OW 2458   1.754   1.041   0.003  0.0575  0.1455  0.3015
  820SOL    HW1 2459   1.672   0.995   3.041  3.5831 -1.0033  0.4295
  820SOL    HW2 2460   1.829   0.972   0.005 -1.1406  0.9351  0.5584
  821SOL     OW 2461   0.173   0.646   1.361  0.2563  0.5325  0.1630
  821SOL    HW1 2462   0.149   0.550   1.396 -0.2692 -1.2783 -0.5147
  821SOL    HW2 2463   0.106   0.672   1.287 -1.2906 -0.1138  1.1068
  822SOL     OW 2464   0.956   2.330   2.178 -0.3816 -0.0443  0.4456
  822SOL    HW1 2465   1.046   2.281   2.174  2.3355  0.2898  0.3926
  822SOL    HW2 2466   0.965   2.432   2.177  1.9882 -1.9632  2.6597
  823SOL     OW 2467   0.274   1.366   2.048  0.3796 -0.0726  0.5620
  823SOL    HW1 2468   0.237   1.443   2.103 -1.2729  1.2997 -0.5132
  823SOL    HW2 2469   0.374   1.364   2.049  1.1230 -0.7065 -0.4791
  824SOL     OW 2470   1.769   2.810   1.997  0.2237  0.9308 -0.2413
  824SOL    HW1 2471   1.839   2.815   1.923 -1.1411 -3.0321  2.0290
  824SOL    HW2 2472   1.678   2.811   1.952  2.0170  1.3170  1.6297
  825SOL     OW 2473   1.021   1.146   0.080  0.2415  1.0535  0.1639
  825SOL    HW1 2474   1.047   1.242   0.109 -0.0177 -0.3610  2.3230
  825SOL    HW2 2475   0.979   1.143   3.069  0.6163 -1.7282  3.4242
  826SOL     OW 2476   2.086   0.644   2.852  0.2952 -0.6749  0.2433
  826SOL    HW1 2477   1.987   0.674   2.843  0.2195  2.0928 -1.0354
  826SOL    HW2 2478   2.105   0.595   2.939  0.0468 -0.8812 -3.3598
  827SOL     OW 2479   0.296   2.115   2.809 -0.3297  0.2779 -0.0501
  827SOL    HW1 2480   0.393   2.118   2.776  1.5246 -0.5663  1.3346
  827SOL    HW2 2481   0.253   2.028   2.770 -2.6360  1.1154  0.2734
  828SOL     OW 2482   0.041   0.383   1.420 -0.5089 -0.3719  0.2869
  828SOL    HW1 2483   0.094   0.411   1.505  1.5044  1.8911  1.0843
  828SOL    HW2 2484   3.022   0.399   1.441  3.8445  1.9920  0.9055
  829SOL     OW 2485   1.101   1.450   1.147 -0.2273 -0.1525  0.2083
  829SOL    HW1 2486   1.098   1.549   1.158  2.2775 -3.5655  2.4803
  829SOL    HW2 2487   1.097   1.415   1.052 -0.2775 -1.9260  2.7392
  830SOL     OW 2488   0.527   1.418   1.556  0.2512 -0.2631  0.0626
  830SOL    HW1 2489   0.475   1.448   1.475  0.0874  2.3618 -1.0734
  830SOL    HW2 2490   0.460   1.370   1.616  0.9634  0.8182 -1.1091
  831SOL     OW 2491   0.586   1.923   0.134 -0.3075  0.6159 -0.0715
  831SOL    HW1 2492   0.666   1.926   0.066 -0.8549  0.0576 -1.3233
  831SOL    HW2 2493   0.507   1.972   0.094 -2.8927  0.1161  0.1944
  832SOL     OW 2494   1.099   2.937   2.987 -0.1876 -0.0767 -0.0259
  832SOL    HW1 2495   1.146   3.008   3.050  2.4666  0.1776  2.5873
  832SOL    HW2 2496   1.069   2.857   3.050  0.1818 -1.9157  2.2916
  833SOL     OW 2497   0.068   0.687   1.727  0.1370 -0.5114 -0.0749
  833SOL    HW1 2498   3.062   0.633   1.722  0.1939  0.2699  2.0109
  833SOL    HW2 2499   0.042   0.768   1.780 -2.4793  0.9360  0.9474
  834SOL     OW 2500   0.016   0.576   0.976 -0.2480 -0.5276 -0.3262
  834SOL    HW1 2501   3.020   0.562   0.907 -3.2992 -1.7921  3.0358
  834SOL    HW2 2502   0.092   0.630   0.934  0.9875  0.7724  1.7268
  835SOL     OW 2503   2.809   3.062   1.210 -0.2357 -0.1088 -0.2363
  835SOL    HW1 2504   2.816   0.078   1.179  2.0146 -2.1524 -0.9193
  835SOL    HW2 2505   2.711   3.040   1.238 -1.0903  0.8464  0.7236
  836SOL     OW 2506   0.339   1.997   3.068  0.5861 -0.7613  0.6418
  836SOL    HW1 2507   0.252   1.995   0.044 -1.2546  0.4601 -1.4791
  836SOL    HW2 2508   0.344   2.076   3.003 -0.9641  1.7429  0.1824
  837SOL     OW 2509   1.884   1.822   2.845 -0.0187 -0.3579  0.7753
  837SOL    HW1 2510   1.817   1.767   2.798  1.2177 -0.7966 -3.0946
  837SOL    HW2 2511   1.949   1.759   2.897  0.4611 -1.7006  3.4040
  838SOL     OW 2512   2.472   1.105   1.722 -0.0577  0.1229  0.1919
  838SOL    HW1 2513   2.442   1.018   1.767 -0.7329 -0.4038  2.0263
  838SOL    HW2 2514   2.539   1.153   1.784 -0.3700 -0.0484  1.0153
  839SOL     OW 2515   1.279   0.902   0.839  0.9451 -0.2566  0.2500
  839SOL    HW1 2516   1.187   0.853   0.837  1.7434 -1.8061  1.4873
  839SOL    HW2 2517   1.288   0.961   0.759  0.4313 -2.3526  0.0525
  840SOL     OW 2518   1.349   0.353   1.025  0.0549 -0.5152 -0.5439
  840SOL    HW1 2519   1.342   0.327   0.927  1.7428 -0.7001 -2.1406
  840SOL    HW2 2520   1.288   0.432   1.043  0.9410  2.0245 -0.6658
  841SOL     OW 2521   0.761   2.660   0.661  0.1337 -0.0765 -0.5949
  841SOL    HW1 2522   0.784   2.681   0.757 -2.3974 -1.3376 -0.9988
  841SOL    HW2 2523   0.659   2.662   0.648  0.9934  0.2353 -0.4440
  842SOL     OW 2524   0.535   0.637   0.687 -0.5610 -0.0437  0.2652
  842SOL    HW1 2525   0.604   0.577   0.733  2.0603 -1.5077 -0.2478
  842SOL    HW2 2526   0.495   0.584   0.610 -2.3043 -1.5700 -1.1021
  843SOL     OW 2527   0.731   1.052   1.855  0.2091  0.1834  0.6888
  843SOL    HW1 2528   0.768   1.135   1.906 -1.1459  2.3341  1.5545
  843SOL    HW2 2529   0.653   1.069   1.788 -0.8051  0.5655  1.6849
  844SOL     OW 2530   1.520   2.131   2.885 -0.2660  0.1194  0.3076
  844SOL    HW1 2531   1.494   2.219   2.842  0.0354  0.2444  1.2293
  844SOL    HW2 2532   1.465   2.052   2.866  0.3152  3.0452  0.4468
  845SOL     OW 2533   2.631   2.501   2.088 -0.5981  0.4956 -0.5246
  845SOL    HW1 2534   2.703   2.571   2.073 -0.7896 -0.1002  1.1812
  845SOL    HW2 2535   2.579   2.481   2.003  0.2033 -2.8613 -0.3804
  846SOL     OW 2536   1.929   1.867   2.563  0.2858  0.0839  0.0128
  846SOL    HW1 2537   1.891   1.794   2.502  1.2425 -0.9458 -0.1893
  846SOL    HW2 2538   1.936   1.839   2.660  2.5435  0.7189 -1.6410
  847SOL     OW 2539   1.924   2.764   2.209  0.0124  0.2474  0.3963
  847SOL    HW1 2540   2.012   2.812   2.184  0.1057 -0.0016  2.5859
  847SOL    HW2 2541   1.852   2.791   2.146 -3.4599 -1.4046  1.2086
  848SOL     OW 2542   0.476   0.462   0.488  0.4783  0.4758 -0.4615
  848SOL    HW1 2543   0.463   0.491   0.388 -0.5900 -1.7020 -0.9463
  848SOL    HW2 2544   0.496   0.362   0.500 -0.4956 -0.4050  1.3468
  849SOL     OW 2545   0.663   2.774   1.365 -0.0506 -0.2913 -0.1472
  849SOL    HW1 2546   0.627   2.685   1.401  0.4078 -2.8309 -0.5413
  849SOL    HW2 2547   0.760   2.766   1.336 -1.0167 -0.6235  2.7095
  850SOL     OW 2548   0.260   1.769   0.378  0.2023  0.2256  0.3469
  850SOL    HW1 2549   0.264   1.809   0.470  2.0398  0.3736 -1.5293
  850SOL    HW2 2550   0.175   1.795   0.326  0.5320 -1.2120 -1.9427
  851SOL     OW 2551   0.211   0.651   0.254  0.1142 -0.1210  0.0403
  851SOL    HW1 2552   0.189   0.744   0.214 -0.4524  0.8634 -0.2046
  851SOL    HW2 2553   0.131   0.611   0.302 -0.8357  0.2602  0.6250
  852SOL     OW 2554   1.610   2.159   1.651 -0.4340 -0.2173  0.1688
  852SOL    HW1 2555   1.651   2.134   1.739  0.0810  1.6763 -0.5550
  852SOL    HW2 2556   1.653   2.104   1.575  0.8811  1.4757 -0.3315
  853SOL     OW 2557   0.476   1.690   0.237  0.4065  0.5468 -0.4035
  853SOL    HW1 2558   0.516   1.773   0.192 -1.2266  0.0051 -0.3571
  853SOL    HW2 2559   0.394   1.715   0.294 -1.8386 -0.3452  0.2848
  854SOL     OW 2560   2.036   1.375   1.609  0.4975  0.2679 -0.2208
  854SOL    HW1 2561   2.116   1.368   1.547 -1.0754 -1.1860 -0.0331
  854SOL    HW2 2562   2.012   1.283   1.648 -0.5038  1.6460 -2.2142
  855SOL     OW 2563   0.610   2.257   0.167 -0.0988  0.4390  0.1263
  855SOL    HW1 2564   0.513   2.273   0.144  0.4034  2.5364  0.3864
  855SOL    HW2 2565   0.666   2.227   0.083  1.8643  0.3080  0.0313
  856SOL     OW 2566   2.865   0.343   1.932 -0.0729 -0.1666  0.8144
  856SOL    HW1 2567   2.875   0.375   2.031 -0.1376  0.0354 -1.1957
  856SOL    HW2 2568   2.958   0.332   1.898  2.4677  1.8130  2.1558
  857SOL     OW 2569   0.485   0.731   1.927  0.4854  0.1310 -0.9291
  857SOL    HW1 2570   0.534   0.647   1.958 -3.3380  3.0170  0.2700
  857SOL    HW2 2571   0.535   0.816   1.966  1.9859  0.8793  0.0584
  858SOL     OW 2572   3.059   1.485   2.379  0.1742 -0.1569  0.2637
  858SOL    HW1 2573   2.999   1.405   2.386 -1.6675  0.6791  0.5048
  858SOL    HW2 2574   3.067   1.532   2.469  0.9735  0.2283  0.4201
  859SOL     OW 2575   1.955   2.960   0.341 -0.1175 -0.2736 -0.0654
  859SOL    HW1 2576   1.920   2.932   0.249 -0.2379  0.6964  0.7530
  859SOL    HW2 2577   2.003   2.883   0.389  1.3725 -0.8733  1.7195
  860SOL     OW 2578   1.810   0.192   3.072 -0.4116 -0.2107 -0.5370
  860SOL    HW1 2579   1.797   0.098   3.034  0.3146  0.4398 -0.4221
  860SOL    HW2 2580   1.880   0.186   0.060 -1.2050  3.0941 -0.4735
  861SOL     OW 2581   0.297   0.697   0.911 -0.3787  0.1480 -0.5697
  861SOL    HW1 2582   0.387   0.686   0.869 -4.6553 -3.4997  1.5942
  861SOL    HW2 2583   0.261   0.793   0.905  0.2015  0.6179  0.0727
  862SOL     OW 2584   1.615   0.480   1.805 -0.1545  0.1611 -0.3312
  862SOL    HW1 2585   1.525   0.505   1.840  0.3131 -2.3840  0.0180
  862SOL    HW2 2586   1.622   0.512   1.711  2.9608  0.2368  0.9506
  863SOL     OW 2587   0.071   1.849   0.937  0.4652  0.0089 -0.3400
  863SOL    HW1 2588   0.080   1.877   1.034  3.3238 -2.5093 -1.0651
  863SOL    HW2 2589   0.149   1.897   0.888  1.0104  0.9196 -1.0767
  864SOL     OW 2590   2.459   2.897   1.904  0.0501  0.1557 -0.4120
  864SOL    HW1 2591   2.455   2.911   1.803  3.0738  1.4492  0.6138
  864SOL    HW2 2592   2.362   2.895   1.940  2.0293 -0.1449 -4.0872
  865SOL     OW 2593   1.008   0.407   1.200  0.1947 -0.2778  0.1776
  865SOL    HW1 2594   0.932   0.403   1.267  4.1133  0.2971 -0.0627
  865SOL    HW2 2595   1.075   0.339   1.213 -3.3314  2.2526 -0.0716
  866SOL     OW 2596   2.613   2.648   0.648 -0.4739  0.3136  0.1871
  866SOL    HW1 2597   2.650   2.724   0.589  1.2738  2.1068 -1.7559
  866SOL    HW2 2598   2.685   2.609   0.712  1.4027  0.2150 -1.5093
  867SOL     OW 2599   2.801   2.536   0.787 -0.2762 -0.2567  0.0330
  867SOL    HW1 2600   2.791   2.486   0.877 -2.6061 -2.1760 -1.1571
  867SOL    HW2 2601   2.857   2.478   0.725 -0.1747 -0.0127  1.0663
  868SOL     OW 2602   1.256   1.729   2.402 -0.2409  0.0582 -0.5552
  868SOL    HW1 2603   1.302   1.729   2.314 -1.6468  1.0944  0.0817
  868SOL    HW2 2604   1.218   1.821   2.416  2.0116 -2.7309  4.0692
  869SOL     OW 2605   2.154   1.545   0.315  0.4045 -0.0357 -0.3138
  869SOL    HW1 2606   2.103   1.583   0.242  0.8478  0.2301  0.8963
  869SOL    HW2 2607   2.237   1.504   0.277 -1.3875 -1.8319 -0.8234
  870SOL     OW 2608   2.403   1.890   0.335 -0.1993 -0.3932 -0.5813
  870SOL    HW1 2609   2.384   1.914   0.235  0.1338 -0.9917  0.8714
  870SOL    HW2 2610   2.311   1.873   0.366  1.4941  1.2241 -1.1407
  871SOL     OW 2611   2.815   1.097   1.712  0.2512 -0.2614  0.2144
  871SOL    HW1 2612   2.844   1.156   1.634 -2.7629 -1.0191  0.7370
  871SOL    HW2 2613   2.780   1.012   1.665 -0.8000 -0.9855  0.2971
  872SOL     OW 2614   0.513   1.768   2.672  0.0489 -0.2331 -0.0907
  872SOL    HW1 2615   0.446   1.798   2.598 -1.4708 -1.6765 -0.0428
  872SOL    HW2 2616   0.458   1.751   2.757 -1.7566  0.2908 -3.6209
  873SOL     OW 2617   0.391   2.716   1.914 -0.0348  0.2984 -0.8835
  873SOL    HW1 2618   0.346   2.635   1.963  0.9476  0.2650 -2.7520
  873SOL    HW2 2619   0.434   2.766   1.989 -3.7663 -1.4421 -3.0764
  874SOL     OW 2620   1.238   1.007   2.108  0.3308 -0.1475  0.3164
  874SOL    HW1 2621   1.217   1.079   2.179  0.6707 -0.3040  0.1994
  874SOL    HW2 2622   1.270   0.917   2.150  1.0760 -1.1373 -1.1066
  875SOL     OW 2623   2.927   2.830   1.277  0.3798  0.0746  0.3796
  875SOL    HW1 2624   3.029   2.844   1.282  0.3919 -0.4623 -1.9474
  875SOL    HW2 2625   2.887   2.918   1.246  2.7171  4.2182 -0.6952
  876SOL     OW 2626   0.924   1.045   1.134  0.1903  0.2800 -0.1603
  876SOL    HW1 2627   0.931   1.139   1.175 -1.0283 -0.2416 -0.9635
  876SOL    HW2 2628   1.013   1.010   1.099  1.2749 -2.7576 -3.3565
  877SOL     OW 2629   0.445   0.331   1.111 -0.0125  0.7069  0.3776
  877SOL    HW1 2630   0.414   0.403   1.174  2.0751 -0.5502  1.3875
  877SOL    HW2 2631   0.426   0.350   1.013  0.1498 -0.1765  0.0902
  878SOL     OW 2632   2.584   1.640   2.752 -0.0727 -0.3381  0.3428
  878SOL    HW1 2633   2.675   1.629   2.800  2.5375 -2.4607 -0.7883
  878SOL    HW2 2634   2.512   1.585   2.798  2.0853 -1.1709 -1.5337
  879SOL     OW 2635   2.459   2.055   1.145  0.5390  0.2599  0.3482
  879SOL    HW1 2636   2.513   2.010   1.074 -0.9603  0.0562  1.0299
  879SOL    HW2 2637   2.516   2.109   1.210 -1.0980  0.5313 -1.1757
  880SOL     OW 2638   0.864   2.190   1.146  0.3830  0.0441 -0.3450
  880SOL    HW1 2639   0.841   2.282   1.184  1.0279 -0.2233 -0.8252
  880SOL    HW2 2640   0.969   2.183   1.140  0.7506  0.8470  2.4578
  881SOL     OW 2641   1.493   1.969   1.139 -0.7303 -0.2248  0.0314
  881SOL    HW1 2642   1.511   1.996   1.232  0.1304  0.8718 -1.3174
  881SOL    HW2 2643   1.429   1.890   1.138 -0.9072  0.2966 -0.7732
  882SOL     OW 2644   2.096   1.284   2.538 -0.7394  0.0020 -0.2869
  882SOL    HW1 2645   2.114   1.263   2.443  3.3206  0.8470  1.1577
  882SOL    HW2 2646   2.107   1.383   2.554  0.0532  2.1900  0.4570
  883SOL     OW 2647   1.292   0.296   0.752 -0.1653 -0.0621  0.1399
  883SOL    HW1 2648   1.215   0.363   0.751 -1.5798 -1.9363 -1.5065
  883SOL    HW2 2649   1.250   0.199   0.759 -4.6803  0.8416 -0.4444
  884SOL     OW 2650   0.228   3.008   0.777  0.4775  0.0976  0.0711
  884SOL    HW1 2651   0.310   2.988   0.717  0.8532  1.1099 -0.8915
  884SOL    HW2 2652   0.250   0.012   0.832  2.5949 -0.8709 -0.4456
  885SOL     OW 2653   1.114   1.115   1.679  0.1092  0.2616 -0.1401
  885SOL    HW1 2654   1.099   1.067   1.588 -0.2362 -2.5392 -0.2919
  885SOL    HW2 2655   1.117   1.044   1.752  0.9016  2.7055  0.8310
  886SOL     OW 2656   1.089   0.834   2.890 -0.0584  0.0350 -0.2876
  886SOL    HW1 2657   1.022   0.888   2.937  3.8984 -4.5996 -0.8180
  886SOL    HW2 2658   1.125   0.882   2.806 -0.3127  0.3926  2.2091
  887SOL     OW 2659   1.684   0.257   0.790 -0.2620  0.0773  0.4603
  887SOL    HW1 2660   1.743   0.182   0.827 -2.1685  1.3510 -0.8131
  887SOL    HW2 2661   1.723   0.350   0.794 -1.7252 -0.0138  0.1164
  888SOL     OW 2662   2.437   1.343   1.646  0.1726  0.3197 -0.0142
  888SOL    HW1 2663   2.512   1.386   1.697 -1.4625 -1.3499 -1.0948
  888SOL    HW2 2664   2.444   1.243   1.671 -3.0855  0.1462  0.1235
  889SOL     OW 2665   3.062   2.137   1.247  0.4130  0.3482  0.0069
  889SOL    HW1 2666   3.077   2.226   1.192  0.9050  0.8225 -1.4497
  889SOL    HW2 2667   2.968   2.113   1.269  1.0611 -1.3363 -0.9362
  890SOL     OW 2668   1.218   2.234   0.620 -0.2571  0.1848  0.6460
  890SOL    HW1 2669   1.287   2.198   0.551 -0.2858 -0.3666 -3.4666
  890SOL    HW2 2670   1.128   2.208   0.582  0.2129 -3.3302 -1.7291
  891SOL     OW 2671   2.623   0.596   2.219 -0.1193  0.4964 -0.2190
  891SOL    HW1 2672   2.556   0.613   2.297 -0.2965 -3.5457  1.1156
  891SOL    HW2 2673   2.583   0.514   2.175  3.1747  1.2332  0.7095
  892SOL     OW 2674   0.366   2.557   1.509 -0.2949  0.5560 -0.1181
  892SOL    HW1 2675   0.294   2.601   1.452  1.3298 -2.0377 -1.2438
  892SOL    HW2 2676   0.417   2.617   1.574  0.1657 -1.8087  0.0967
  893SOL     OW 2677   0.956   0.458   2.026  0.0630  0.0958  0.3447
  893SOL    HW1 2678   1.009   0.415   1.953  0.2952  0.8365 -0.0208
  893SOL    HW2 2679   0.929   0.547   1.994 -0.4043 -1.0129  1.5269
  894SOL     OW 2680   2.851   0.202   0.896 -0.5550  0.0102 -0.2260
  894SOL    HW1 2681   2.855   0.194   0.999 -0.0274  0.8723  0.7907
  894SOL    HW2 2682   2.767   0.249   0.859 -1.3975 -0.5344 -0.8984
  895SOL     OW 2683   1.850   1.601   2.423 -0.1145  0.2549  0.3062
  895SOL    HW1 2684   1.794   1.532   2.473 -0.5139  1.5504 -2.5226
  895SOL    HW2 2685   1.827   1.604   2.322  0.4066 -1.0223  2.4593
  896SOL     OW 2686   1.560   0.556   1.548 -0.0331  0.1602  0.4191
  896SOL    HW1 2687   1.612   0.477   1.514 -0.4544 -0.3155 -0.5301
  896SOL    HW2 2688   1.493   0.595   1.480 -1.3336  1.2244 -1.7356
  897SOL     OW 2689   0.615   1.746   1.871 -0.2609 -0.2751 -0.2059
  897SOL    HW1 2690   0.692   1.814   1.873 -0.8796  0.1325  0.1683
  897SOL    HW2 2691   0.618   1.702   1.782 -0.5259  1.4024 -0.6163
  898SOL     OW 2692   1.766   1.877   2.149 -0.0087  0.0797  0.0226
  898SOL    HW1 2693   1.685   1.905   2.208  1.4737 -1.4871 -1.4314
  898SOL    HW2 2694   1.851   1.902   2.200  1.1562  1.3759  0.9895
  899SOL     OW 2695   2.077   2.030   0.547 -0.6555 -0.0726 -0.2348
  899SOL    HW1 2696   2.103   2.012   0.643 -3.5579  1.4895 -0.7045
  899SOL    HW2 2697   2.090   1.949   0.485 -1.0291 -0.8485 -2.8410
  900SOL     OW 2698   1.082   0.183   2.662  0.0774  0.0099 -0.0007
  900SOL    HW1 2699   1.046   0.132   2.742 -0.0045 -0.4673  0.7857
  900SOL    HW2 2700   1.026   0.158   2.582  0.5188 -2.2356  0.2101
  901SOL     OW 2701   1.067   1.466   2.118  0.4252 -0.2293  0.1502
  901SOL    HW1 2702   0.996   1.507   2.179 -1.2207 -0.2695  0.3020
  901SOL    HW2 2703   1.109   1.389   2.161 -0.0774  3.1636 -0.2038
  902SOL     OW 2704   1.888   0.480   3.074 -0.1968  0.2889 -0.2818
  902SOL    HW1 2705   1.897   0.395   3.019  0.5899 -0.6927  0.1368
  902SOL    HW2 2706   1.800   0.474   0.053 -1.3765 -1.3033 -0.2395
  903SOL     OW 2707   2.111   0.797   2.437  0.4107 -0.1567  0.0107
  903SOL    HW1 2708   2.079   0.888   2.404  4.5715  1.1717  0.1054
  903SOL    HW2 2709   2.167   0.748   2.362  0.7035 -0.1321 -1.7633
  904SOL     OW 2710   1.909   1.128   1.621 -0.3465 -0.0074  0.4752
  904SOL    HW1 2711   1.914   1.077   1.533 -0.8145 -1.2126 -1.2255
  904SOL    HW2 2712   1.985   1.090   1.673  0.3085  0.0647  1.6387
  905SOL     OW 2713   2.236   0.389   0.887 -0.1123  0.4067 -0.0764
  905SOL    HW1 2714   2.280   0.476   0.871 -1.7195 -2.6643  0.7046
  905SOL    HW2 2715   2.254   0.347   0.976 -1.2704  2.3560 -0.4538
  906SOL     OW 2716   2.665   1.541   0.475 -0.1540  0.6382 -0.2735
  906SOL    HW1 2717   2.745   1.503   0.424  2.4928  0.3406 -0.7690
  906SOL    HW2 2718   2.668   1.643   0.470  0.2610 -1.7233 -0.0734
  907SOL     OW 2719   1.260   0.002   0.450 -0.3107  0.1519 -0.0989
  907SOL    HW1 2720   1.303   3.071   0.542 -1.2616  1.6097  2.3448
  907SOL    HW2 2721   1.331   0.030   0.381 -2.7538  0.4819 -1.8367
  908SOL     OW 2722   1.686   2.253   2.139 -0.5472 -0.4130  0.0102
  908SOL    HW1 2723   1.629   2.262   2.222 -2.0467  1.6429 -0.1875
  908SOL    HW2 2724   1.754   2.332   2.128 -0.1098 -2.3018  0.5473
  909SOL     OW 2725   2.403   0.546   1.855 -0.6404  0.4390  0.6438
  909SOL    HW1 2726   2.348   0.519   1.940 -2.1547 -1.7825  0.8072
  909SOL    HW2 2727   2.353   0.600   1.788  0.1676  1.8376 -0.2801
  910SOL     OW 2728   1.318   0.089   2.533 -0.2786  0.2159  0.6860
  910SOL    HW1 2729   1.233   0.131   2.576 -2.8238 -1.4934  0.4646
  910SOL    HW2 2730   1.393   0.085   2.602  1.3035  0.0233  1.5377
  911SOL     OW 2731   2.597   1.081   2.702  0.4758  0.3820 -0.1760
  911SOL    HW1 2732   2.534   1.010   2.740  0.1547  0.4733  0.2472
  911SOL    HW2 2733   2.688   1.043   2.704 -0.1329  1.8273 -2.4761
  912SOL     OW 2734   2.923   2.403   1.390  0.2397 -0.5746 -0.7345
  912SOL    HW1 2735   2.822   2.383   1.371 -0.2272 -0.4784  2.2413
  912SOL    HW2 2736   2.933   2.416   1.495 -0.9321  0.2220  0.8346
  913SOL     OW 2737   2.508   1.784   2.303 -0.6211  0.4378  0.0972
  913SOL    HW1 2738   2.517   1.879   2.337 -1.2581  1.2078  2.9067
  913SOL    HW2 2739   2.535   1.782   2.205 -0.0107  0.8135  0.4171
  914SOL     OW 2740   2.243   1.487   0.656  0.0715 -0.1117 -0.8279
  914SOL    HW1 2741   2.168   1.506   0.589 -1.3395  2.2102 -2.5027
  914SOL    HW2 2742   2.230   1.394   0.701 -0.8343 -1.8836  1.6819
  915SOL     OW 2743   0.810   2.505   1.929  0.1755 -0.0343 -0.3512
  915SOL    HW1 2744   0.765   2.482   2.016 -2.1039  1.0777  1.9185
  915SOL    HW2 2745   0.756   2.572   1.876  0.3137  0.3914 -0.6867
  916SOL     OW 2746   0.500   2.341   0.926 -0.3383  0.4947  0.3167
  916SOL    HW1 2747   0.468   2.275   0.998  0.3278  3.0708  0.5318
  916SOL    HW2 2748   0.420   2.389   0.889  2.0625 -1.6207  1.2355
  917SOL     OW 2749   2.473   0.879   2.808 -0.1890  0.3950 -0.1551
  917SOL    HW1 2750   2.393   0.837   2.764 -0.3032 -2.3756  2.1554
  917SOL    HW2 2751   2.536   0.799   2.833  0.9051 -1.5423  0.4771
  918SOL     OW 2752   1.586   2.298   2.392 -0.3150  0.6053 -0.3252
  918SOL    HW1 2753   1.628   2.378   2.444  1.3580 -0.3142 -0.2483
  918SOL    HW2 2754   1.619   2.209   2.444  2.5758 -1.8170  1.4813
  919SOL     OW 2755   1.839   2.033   0.846  0.8124  0.3278  0.3247
  919SOL    HW1 2756   1.815   2.071   0.758 -0.0217 -0.8365  2.0044
  919SOL    HW2 2757   1.940   2.037   0.852 -1.5581 -1.1476  1.2738
  920SOL     OW 2758   1.351   0.306   2.375 -0.1539 -0.6517  0.4349
  920SOL    HW1 2759   1.357   0.227   2.440 -2.6886 -1.4345  3.1225
  920SOL    HW2 2760   1.383   0.390   2.422 -0.5201 -2.2178 -0.4796
  921SOL     OW 2761   0.202   0.713   2.578 -0.0275  0.3949 -0.1124
  921SOL    HW1 2762   0.190   0.793   2.515  1.9874  4.7714 -0.4966
  921SOL    HW2 2763   0.190   0.628   2.523  4.3861 -2.5504  0.1371
  922SOL     OW 2764   2.814   2.010   1.310 -0.2990 -0.4775 -0.1881
  922SOL    HW1 2765   2.817   1.951   1.394 -0.1242  1.0690 -0.6718
  922SOL    HW2 2766   2.735   2.077   1.309 -2.3530  3.6278 -0.1866
  923SOL     OW 2767   2.943   1.856   2.471  0.7640 -0.1498  0.2125
  923SOL    HW1 2768   2.916   1.847   2.373 -2.9363 -0.0559  3.6829
  923SOL    HW2 2769   2.859   1.897   2.519 -2.1543 -0.6910  2.5030
  924SOL     OW 2770   1.348   0.316   2.111  0.3527  0.0430 -0.0166
  924SOL    HW1 2771   1.407   0.235   2.085 -0.8369  1.2723  0.0433
  924SOL    HW2 2772   1.351   0.318   2.213 -1.7222  2.0383  1.3474
  925SOL     OW 2773   0.081   1.143   0.552  0.0835 -0.3202 -0.3943
  925SOL    HW1 2774   0.178   1.159   0.580  0.4403  0.8006  2.4617
  925SOL    HW2 2775   0.025   1.093   0.621  0.2485 -0.0088  1.1103
  926SOL     OW 2776   2.288   0.286   1.139  0.2036 -0.3309  0.2375
  926SOL    HW1 2777   2.386   0.273   1.118 -0.4824 -0.0612 -0.3833
  926SOL    HW2 2778   2.278   0.348   1.220 -3.5987 -1.5459  0.0603
  927SOL     OW 2779   1.361   0.682   0.950 -0.1587  0.3817 -0.2834
  927SOL    HW1 2780   1.355   0.776   0.917  0.1386 -0.0873  1.5899
  927SOL    HW2 2781   1.292   0.671   1.025 -0.1370  2.5120  0.8524
  928SOL     OW 2782   2.870   0.428   2.192 -0.5986 -0.6008 -0.3776
  928SOL    HW1 2783   2.807   0.506   2.211  0.1643  0.0575 -1.0444
  928SOL    HW2 2784   2.964   0.461   2.211 -0.6125 -1.6320  0.1412
  929SOL     OW 2785   2.372   0.634   1.183  0.1409 -0.2570  0.3385
  929SOL    HW1 2786   2.322   0.576   1.255  1.5285 -0.7467  1.4175
  929SOL    HW2 2787   2.415   0.715   1.228 -3.8667 -0.2215  0.3456
  930SOL     OW 2788   1.917   2.361   0.997  0.3871 -0.0769  0.5203
  930SOL    HW1 2789   1.880   2.371   0.898 -2.4152  0.9651 -1.3051
  930SOL    HW2 2790   1.850   2.404   1.068 -0.9554  1.7587 -0.1203
  931SOL     OW 2791   1.900   0.968   1.083 -0.3850 -0.5408 -0.5239
  931SOL    HW1 2792   1.869   1.066   1.083  0.4845 -0.8482  1.5876
  931SOL    HW2 2793   2.000   0.968   1.107  1.6191 -0.8462  0.7345
  932SOL     OW 2794   2.806   0.838   1.549 -0.2990  0.8676 -0.3608
  932SOL    HW1 2795   2.822   0.776   1.628 -0.7469  1.1003  0.0964
  932SOL    HW2 2796   2.894   0.889   1.542  0.6739  0.2665  2.0431
  933SOL     OW 2797   1.821   1.605   2.145 -0.1874  0.7986  0.1951
  933SOL    HW1 2798   1.907   1.591   2.094  2.2779  1.2870 -0.5266
  933SOL    HW2 2799   1.801   1.701   2.150  0.4578 -0.3555 -1.0379
  934SOL     OW 2800   1.560   2.802   1.822  0.2830  0.3058  0.4873
  934SOL    HW1 2801   1.588   2.733   1.751  1.4812  0.1595 -4.4014
  934SOL    HW2 2802   1.493   2.868   1.782 -0.4579  0.6484 -0.6056
  935SOL     OW 2803   3.055   0.928   1.504 -0.3326 -0.6988  0.0288
  935SOL    HW1 2804   0.015   1.013   1.469 -0.7517 -0.1490  2.0794
  935SOL    HW2 2805   0.051   0.864   1.524  3.0369 -0.3729 -2.1782
  936SOL     OW 2806   2.535   0.495   1.530  0.1590 -0.6719 -0.3141
  936SOL    HW1 2807   2.561   0.456   1.623 -2.2050 -0.4024  0.9576
  936SOL    HW2 2808   2.586   0.577   1.497 -0.7731 -0.2443 -0.7790
  937SOL     OW 2809   0.788   0.077   1.359  0.1796  0.5228  0.1854
  937SOL    HW1 2810   0.763   0.139   1.282 -2.1939 -3.1775 -0.8584
  937SOL    HW2 2811   0.783   0.132   1.444 -2.3634  1.2001 -1.8086
  938SOL     OW 2812   0.276   2.427   0.785 -0.2266 -0.0822  0.4622
  938SOL    HW1 2813   0.203   2.367   0.829 -0.7379  0.1669 -3.0264
  938SOL    HW2 2814   0.280   2.413   0.683  0.9219 -0.6777 -1.1721
  939SOL     OW 2815   2.776   2.476   2.707 -0.2188  0.3127 -0.0823
  939SOL    HW1 2816   2.839   2.515   2.637  1.5230 -1.3644  0.9833
  939SOL    HW2 2817   2.736   2.546   2.767 -0.5810 -0.3183 -0.0967
  940SOL     OW 2818   1.740   2.006   2.995  0.6842 -0.6652 -0.3645
  940SOL    HW1 2819   1.660   2.049   2.948  3.7196  1.9428  1.7450
  940SOL    HW2 2820   1.793   1.939   2.938  0.7007 -1.7432 -1.4766
  941SOL     OW 2821   1.981   2.612   0.793 -0.1683  0.3851 -0.2755
  941SOL    HW1 2822   1.977   2.526   0.742  1.0957 -0.9539  2.3723
  941SOL    HW2 2823   2.054   2.670   0.752  2.3137 -1.1532 -1.7719
  942SOL     OW 2824   1.862   1.687   1.075  0.1853  0.1262  0.1190
  942SOL    HW1 2825   1.892   1.691   0.979 -0.5215  1.3446 -0.9032
  942SOL    HW2 2826   1.931   1.639   1.133 -0.4990 -1.6697 -2.3914
  943SOL     OW 2827   1.760   0.836   1.837 -0.2271 -0.1042  0.1955
  943SOL    HW1 2828   1.707   0.842   1.748 -1.0185 -0.8580 -2.2226
  943SOL    HW2 2829   1.850   0.799   1.816  2.3284  0.0180  0.8900
  944SOL     OW 2830   1.370   0.856   1.727 -0.2684 -0.1364  0.2934
  944SOL    HW1 2831   1.469   0.837   1.727 -1.2451 -0.7045 -0.9965
  944SOL    HW2 2832   1.341   0.885   1.632  0.9233  0.4398 -3.6038
  945SOL     OW 2833   2.717   2.715   1.367  0.2151  0.0431  0.0647
  945SOL    HW1 2834   2.642   2.766   1.319  2.7844  1.7102  1.0113
  945SOL    HW2 2835   2.808   2.758   1.346 -1.5113  1.9461  1.1297
  946SOL     OW 2836   0.788   1.639   0.845  0.0730  0.2747 -0.2758
  946SOL    HW1 2837   0.795   1.554   0.788 -1.1808  0.2695 -1.9069
  946SOL    HW2 2838   0.873   1.689   0.826 -1.9527 -0.6788 -0.2911
  947SOL     OW 2839   0.973   2.494   1.100  0.1529  0.5362 -0.0385
  947SOL    HW1 2840   0.928   2.577   1.058 -1.4185  0.3370 -0.1846
  947SOL    HW2 2841   0.937   2.473   1.193 -0.8782 -1.3482  0.1116
  948SOL     OW 2842   0.019   1.662   1.630  1.1702 -0.4184  0.1353
  948SOL    HW1 2843   0.074   1.589   1.588  1.3999  1.1618  0.1240
  948SOL    HW2 2844   0.042   1.759   1.603  1.4979 -0.7519  0.8036
  949SOL     OW 2845   0.647   0.884   2.111  0.1441 -0.3484 -0.3478
  949SOL    HW1 2846   0.741   0.925   2.088  3.3404 -0.7777 -1.5485
  949SOL    HW2 2847   0.582   0.949   2.156 -1.9076  0.9117  0.1660
  950SOL     OW 2848   0.377   0.587   1.181 -0.0008  0.1551  0.1855
  950SOL    HW1 2849   0.324   0.626   1.258  0.0733  0.0258  2.9457
  950SOL    HW2 2850   0.353   0.621   1.088 -0.9596  1.1108  1.1710
  951SOL     OW 2851   0.992   1.808   2.084  0.2893 -0.2985  0.1646
  951SOL    HW1 2852   0.986   1.890   2.026 -0.9453  1.4148  1.2846
  951SOL    HW2 2853   1.086   1.800   2.124  1.6285 -1.2523 -0.2956
  952SOL     OW 2854   1.225   1.666   0.161 -0.2765  0.0990 -0.0229
  952SOL    HW1 2855   1.286   1.687   0.243 -1.3485 -1.1659  1.7371
  952SOL    HW2 2856   1.260   1.597   0.097 -1.5914 -0.1893  2.0504
  953SOL     OW 2857   0.941   0.040   2.837  0.3302  0.5948  0.2910
  953SOL    HW1 2858   0.846   0.005   2.805 -3.5101 -0.5541  0.4759
  953SOL    HW2 2859   0.994   3.042   2.883 -1.6790  0.8870 -1.2439
  954SOL     OW 2860   1.765   1.547   0.032  0.0166 -0.3333 -0.2480
  954SOL    HW1 2861   1.767   1.443   0.046 -0.5280 -0.7803 -2.2682
  954SOL    HW2 2862   1.847   1.587   0.084  1.1286 -0.0229  1.1013
  955SOL     OW 2863   0.345   2.652   2.817 -0.3041  0.3813  0.5522
  955SOL    HW1 2864   0.349   2.672   2.715  0.2557 -0.1081 -2.3160
  955SOL    HW2 2865   0.349   2.550   2.835  0.4338 -0.2119  0.2133
  956SOL     OW 2866   1.309   0.950   1.457  0.3344  0.1246 -0.3078
  956SOL    HW1 2867   1.388   1.006   1.419 -1.3130  0.6444 -2.0720
  956SOL    HW2 2868   1.219   0.989   1.433 -1.1977 -2.7228  1.1905
  957SOL     OW 2869   1.691   1.890   1.890 -0.0630  0.2172 -0.1804
  957SOL    HW1 2870   1.712   1.887   1.993  0.9634  1.1072  0.6481
  957SOL    HW2 2871   1.626   1.817   1.867  1.3555 -0.4855  0.0238
  958SOL     OW 2872   1.232   2.363   1.483 -0.3435  0.1641 -0.2611
  958SOL    HW1 2873   1.280   2.374   1.576  1.7606 -0.3018  0.7712
  958SOL    HW2 2874   1.276   2.292   1.429 -3.0692  0.0888  0.2750
  959SOL     OW 2875   1.354   1.306   1.165 -0.3840 -0.6395 -0.4323
  959SOL    HW1 2876   1.331   1.211   1.175  3.2596  0.4889 -0.1089
  959SOL    HW2 2877   1.268   1.357   1.153  0.7656 -0.6065 -3.7387
  960SOL     OW 2878   0.235   1.556   2.986 -0.2787 -0.3765 -0.0079
  960SOL    HW1 2879   0.216   1.549   0.006  1.1476  0.4806 -2.7545
  960SOL    HW2 2880   0.272   1.474   2.946  0.1248  0.9048 -1.8616
  961SOL     OW 2881   0.542   1.362   2.065 -0.4772 -0.1561  0.2010
  961SOL    HW1 2882   0.553   1.424   2.148  0.0763  0.6385  0.4793
  961SOL    HW2 2883   0.620   1.378   2.002 -1.8468  1.2974 -0.3787
  962SOL     OW 2884   1.383   1.610   0.986 -0.1695 -0.1567  0.2640
  962SOL    HW1 2885   1.484   1.584   0.994  0.7026  0.7742 -0.5799
  962SOL    HW2 2886   1.353   1.652   1.076  0.0687  0.7344  2.9646
  963SOL     OW 2887   1.460   1.937   2.596 -0.2625  0.2478 -0.1826
  963SOL    HW1 2888   1.386   2.014   2.609 -2.5874  1.8125  0.7276
  963SOL    HW2 2889   1.450   1.887   2.684 -0.7200  0.8856  1.1709
  964SOL     OW 2890   0.683   0.170   0.236 -0.3571  0.2153 -0.3311
  964SOL    HW1 2891   0.655   0.226   0.315 -0.0255 -1.1765 -0.4326
  964SOL    HW2 2892   0.683   0.069   0.257  0.4365 -1.0051 -2.1907
  965SOL     OW 2893   0.508   2.718   0.876  0.9705 -0.1470  0.6661
  965SOL    HW1 2894   0.511   2.659   0.959 -1.9993  2.4224 -3.3831
  965SOL    HW2 2895   0.497   2.814   0.907 -1.3690  1.3841  1.8967
  966SOL     OW 2896   0.406   1.758   2.912  0.0617 -0.2817 -0.3237
  966SOL    HW1 2897   0.412   1.831   2.982  0.4971  0.0523 -1.5432
  966SOL    HW2 2898   0.326   1.697   2.934 -1.2357  4.4573 -1.2162
  967SOL     OW 2899   0.359   2.875   2.362  0.0018 -0.5610  0.5855
  967SOL    HW1 2900   0.335   2.975   2.380  1.5241  0.7366 -1.8101
  967SOL    HW2 2901   0.428   2.874   2.283 -0.7644 -1.0800 -1.4865
  968SOL     OW 2902   2.356   0.563   0.495 -0.6050  0.0008  0.2160
  968SOL    HW1 2903   2.272   0.553   0.557  0.0211 -2.7460  2.7569
  968SOL    HW2 2904   2.347   0.638   0.426 -1.5964 -2.9912  0.9658
  969SOL     OW 2905   3.050   1.883   1.998  0.2882  0.6686  0.1452
  969SOL    HW1 2906   0.057   1.929   1.976 -1.3317 -0.2246 -0.1275
  969SOL    HW2 2907   3.063   1.782   1.997  2.6271  1.1627  1.7717
  970SOL     OW 2908   2.563   1.394   1.365 -0.5502 -0.3621 -0.3930
  970SOL    HW1 2909   2.608   1.318   1.311 -1.7928 -0.8914 -0.8819
  970SOL    HW2 2910   2.546   1.368   1.464 -1.3503 -3.3183  2.0078
  971SOL     OW 2911   2.014   0.225   1.170 -0.1718 -1.2104 -0.0898
  971SOL    HW1 2912   2.114   0.222   1.166  0.7281  0.4591  2.6882
  971SOL    HW2 2913   1.986   0.159   1.242  0.8968 -0.9433 -2.1946
  972SOL     OW 2914   0.210   0.127   1.649 -0.4565  0.6146 -0.6136
  972SOL    HW1 2915   0.242   0.098   1.738  1.3234  2.9252 -1.4103
  972SOL    HW2 2916   0.196   0.043   1.591 -0.8814  2.5100  0.1600
  973SOL     OW 2917   2.780   0.598   0.000 -0.4607 -0.5320 -0.4007
  973SOL    HW1 2918   2.858   0.667   3.073  0.5140  0.5399  0.6066
  973SOL    HW2 2919   2.734   0.585   2.991 -1.1481 -0.6192  1.8079
  974SOL     OW 2920   1.803   1.290   2.329 -0.6233 -0.2490  0.1613
  974SOL    HW1 2921   1.900   1.297   2.300  1.0344 -0.3899 -0.7679
  974SOL    HW2 2922   1.749   1.269   2.245  0.4259 -1.0526 -0.7127
  975SOL     OW 2923   0.209   2.981   1.498  0.4223  0.4494 -0.2217
  975SOL    HW1 2924   0.157   2.931   1.429  0.3619  0.8925 -0.1223
  975SOL    HW2 2925   0.284   2.917   1.532  0.3970 -0.1029  0.6370
  976SOL     OW 2926   0.234   2.059   1.866  0.6047  0.1376 -0.2121
  976SOL    HW1 2927   0.327   2.098   1.848 -0.4744 -0.6364  1.9763
  976SOL    HW2 2928   0.249   1.961   1.885  1.4636  2.8504 -0.7820
  977SOL     OW 2929   0.946   2.801   0.310 -0.5256  0.1731  0.2032
  977SOL    HW1 2930   1.047   2.820   0.341  4.6500  1.7857 -1.3573
  977SOL    HW2 2931   0.906   2.712   0.344  1.0635 -1.0235  0.6416
  978SOL     OW 2932   0.174   1.901   2.698  0.2339  0.2893  0.3350
  978SOL    HW1 2933   0.165   1.920   2.598 -1.7172  0.1819  2.3025
  978SOL    HW2 2934   0.135   1.813   2.722 -0.5993  3.1232  2.2286
  979SOL     OW 2935   1.580   2.279   1.117 -0.6504  0.2081 -0.1121
  979SOL    HW1 2936   1.624   2.363   1.155 -0.1284  3.0158 -0.0581
  979SOL    HW2 2937   1.644   2.201   1.122 -4.8260 -1.6838  0.3566
  980SOL     OW 2938   0.765   1.740   2.662  0.4811  0.0624  0.0064
  980SOL    HW1 2939   0.658   1.747   2.663 -2.5748  1.0811  0.8073
  980SOL    HW2 2940   0.792   1.706   2.754  0.3679  1.6045 -1.2918
  981SOL     OW 2941   2.373   2.871   2.373 -0.0878 -0.4128 -0.3838
  981SOL    HW1 2942   2.433   2.896   2.300  1.9805 -2.0789  4.5968
  981SOL    HW2 2943   2.380   2.942   2.446  0.5093 -3.3608  1.3336
  982SOL     OW 2944   2.900   0.168   2.586 -0.1651  0.2496  0.5309
  982SOL    HW1 2945   2.884   0.091   2.656 -1.0347 -0.5841  0.0975
  982SOL    HW2 2946   2.820   0.225   2.573  0.2285  1.4639 -0.0903
  983SOL     OW 2947   2.004   1.505   1.986 -0.2662  0.3653  0.0988
  983SOL    HW1 2948   1.971   1.413   1.968  0.3771  1.5193  0.7848
  983SOL    HW2 2949   2.020   1.547   1.895 -3.1996  0.4723  1.3689
  984SOL     OW 2950   1.188   0.650   1.749  0.6761  0.5115 -0.4502
  984SOL    HW1 2951   1.120   0.673   1.825 -2.4653 -2.0652  1.0024
  984SOL    HW2 2952   1.261   0.722   1.731 -0.5083 -0.0557  1.0946
  985SOL     OW 2953   1.631   1.579   1.864 -0.3006  0.2529  0.0039
  985SOL    HW1 2954   1.655   1.513   1.936 -1.0663 -0.8417 -0.4395
  985SOL    HW2 2955   1.710   1.619   1.818 -1.1843 -1.3663  0.0878
  986SOL     OW 2956   1.755   0.531   2.050  0.4393 -0.4108 -1.0936
  986SOL    HW1 2957   1.852   0.518   2.017  1.0050  3.0402  1.5417
  986SOL    HW2 2958   1.679   0.521   1.981 -1.5115  1.8561 -2.9994
  987SOL     OW 2959   1.970   0.673   1.746  0.0864 -0.3366 -0.0275
  987SOL    HW1 2960   1.954   0.595   1.810  0.1546  2.0141 -1.1859
  987SOL    HW2 2961   1.974   0.644   1.646 -0.6843 -0.2215 -1.4230
  988SOL     OW 2962   2.777   0.732   2.056  0.1840  0.2452  0.2199
  988SOL    HW1 2963   2.706   0.698   2.121  2.8082 -0.4390 -0.6901
  988SOL    HW2 2964   2.792   0.667   1.974 -0.2513 -1.2229 -3.8769
  989SOL     OW 2965   2.198   2.136   2.835  0.1070  0.2132 -0.1081
  989SOL    HW1 2966   2.174   2.135   2.735  0.6150  1.2082 -1.2309
  989SOL    HW2 2967   2.151   2.199   2.894  0.9944  0.7183 -2.3527
  990SOL     OW 2968   1.256   0.416   2.693  0.0331  0.4239  0.2001
  990SOL    HW1 2969   1.184   0.348   2.667 -0.3005  2.6478 -0.1545
  990SOL    HW2 2970   1.206   0.502   2.706 -1.4010  0.3173 -2.0657
  991SOL     OW 2971   1.147   0.812   0.391 -0.1637 -0.2147 -0.0232
  991SOL    HW1 2972   1.183   0.907   0.376 -1.1117  0.3371  1.3938
  991SOL    HW2 2973   1.198   0.739   0.336  1.3716 -2.2041  1.6298
  992SOL     OW 2974   2.416   1.849   2.690  0.2496  0.3078 -0.0338
  992SOL    HW1 2975   2.501   1.792   2.697  0.8252 -0.8827  0.2780
  992SOL    HW2 2976   2.435   1.945   2.672  1.7353 -1.7144  1.0532
  993SOL     OW 2977   0.324   0.222   0.215 -0.2516 -0.5488 -0.3236
  993SOL    HW1 2978   0.388   0.300   0.213  0.5420  1.7991  1.0061
  993SOL    HW2 2979   0.250   0.232   0.291  1.4585  1.5791  1.9194
  994SOL     OW 2980   0.265   2.191   2.141 -0.5111 -0.1478  0.0548
  994SOL    HW1 2981   0.221   2.168   2.049  1.3028  0.7710 -0.7381
  994SOL    HW2 2982   0.351   2.136   2.156  3.3293 -0.0211 -0.2021
  995SOL     OW 2983   1.859   1.504   2.842 -0.2801 -0.1505 -0.2365
  995SOL    HW1 2984   1.819   1.484   2.930  1.4169  0.0603 -3.2980
  995SOL    HW2 2985   1.825   1.445   2.766 -1.3147  0.5838 -1.7779
  996SOL     OW 2986   1.692   1.689   2.711  0.4663 -0.1032  0.7268
  996SOL    HW1 2987   1.681   1.607   2.654  0.0716 -0.5084  0.1415
  996SOL    HW2 2988   1.642   1.767   2.667  2.1605  0.8675  0.5758
  997SOL     OW 2989   2.256   1.413   1.472  0.0797 -0.0732  0.0386
  997SOL    HW1 2990   2.331   1.409   1.540  0.7956 -3.1250  1.1971
  997SOL    HW2 2991   2.246   1.504   1.424  4.1961  0.3712  0.5714
  998SOL     OW 2992   2.720   1.260   0.000 -0.3619 -0.1680  0.2804
  998SOL    HW1 2993   2.638   1.237   0.053  0.4610 -2.4114 -2.5438
  998SOL    HW2 2994   2.786   1.309   0.056  0.9242 -3.0267 -2.2755
  999SOL     OW 2995   2.848   2.373   0.447 -0.0396  0.2243  0.0256
  999SOL    HW1 2996   2.757   2.385   0.486  2.2559  2.0340  0.5212
  999SOL    HW2 2997   2.873   2.450   0.383 -0.4432  0.6717 -0.3946
 1000SOL     OW 2998   0.755   0.019   2.012 -0.1808 -0.4262 -0.2417
 1000SOL    HW1 2999   0.693   3.050   2.080  0.8463  0.5934 -1.5910
 1000SOL    HW2 3000   0.831   3.031   1.988  0.2968 -2.1404  0.8822
   3.07826   3.07826   3.07826
