1000 SPC/Fw water molecules t= 475.00000 step= 475000
 3000
    1SOL     OW    1   2.745   0.171   1.571  0.0446  0.3265 -0.4348
    1SOL    HW1    2   2.743   0.247   1.504  0.8307 -2.2039 -0.4925
    1SOL    HW2    3   2.685   0.188   1.652 -0.4134  0.3558  0.0679
    2SOL     OW    4   3.042   2.980   2.849 -0.1726 -0.0911 -0.1258
    2SOL    HW1    5   2.954   2.966   2.898  1.4875 -1.5727 -0.8567
    2SOL    HW2    6   0.019   2.903   2.850  3.7972 -1.8604 -1.7431
    3SOL     OW    7   1.050   2.300   3.091  0.0415 -0.2347 -0.5101
    3SOL    HW1    8   1.093   2.280   3.000  0.3255  1.5465  2.9554
    3SOL    HW2    9   1.115   2.359   0.051 -0.2699 -1.7009 -0.2710
    4SOL     OW   10   1.319   2.738   2.452 -0.5212 -0.3493 -0.2846
    4SOL    HW1   11   1.273   2.780   2.376 -0.1818 -1.0664  1.2859
    4SOL    HW2   12   1.323   2.803   2.535 -1.3581  0.1584  0.6485
    5SOL     OW   13   2.123   0.232   2.850 -0.5908 -0.0915 -0.5338
    5SOL    HW1   14   2.168   0.316   2.881 -1.3805 -1.5553  0.9951
    5SOL    HW2   15   2.064   0.250   2.768  0.0749 -0.7659  0.0620
    6SOL     OW   16   3.089   1.731   1.062  0.3480 -0.0019  0.1241
    6SOL    HW1   17   0.095   1.764   1.064  0.4031  2.6255 -0.4525
    6SOL    HW2   18   3.065   1.692   0.972  0.7002 -1.0890 -0.8234
    7SOL     OW   19   1.072   1.714   0.380 -0.2499  0.5733 -0.2217
    7SOL    HW1   20   1.044   1.651   0.456 -0.0145 -1.6072 -0.0798
    7SOL    HW2   21   1.176   1.707   0.381  0.7803  1.6842 -0.4925
    8SOL     OW   22   0.250   0.570   0.329 -0.3377 -0.1215 -0.1620
    8SOL    HW1   23   0.326   0.619   0.285  0.7457  0.8556  0.9208
    8SOL    HW2   24   0.182   0.564   0.253  0.2906  1.7805  1.5035
    9SOL     OW   25   0.210   2.857   1.626  0.3080 -0.1370 -0.2202
    9SOL    HW1   26   0.305   2.856   1.604 -4.9469  2.5138  1.5525
    9SOL    HW2   27   0.170   2.769   1.605 -1.7055 -0.9681  0.3609
   10SOL     OW   28   1.074   1.959   0.189 -0.1699 -0.1458 -0.6839
   10SOL    HW1   29   1.130   2.036   0.219 -1.7383  0.7218  0.2811
   10SOL    HW2   30   1.089   1.881   0.259 -1.5498 -0.6297 -0.2669
   11SOL     OW   31   1.977   0.693   1.417  0.7211 -0.2172  0.0475
   11SOL    HW1   32   2.032   0.693   1.502  0.5561 -0.7597 -0.3434
   11SOL    HW2   33   1.878   0.706   1.446 -1.5364 -1.5436  0.1756
   12SOL     OW   34   0.416   0.830   2.209  0.2224 -0.3508  0.8717
   12SOL    HW1   35   0.392   0.909   2.148  0.2671 -0.2517 -0.4785
   12SOL    HW2   36   0.397   0.855   2.307 -2.0803  1.8619 -0.7394
   13SOL     OW   37   2.189   2.993   0.469  0.0200  0.0619  0.1305
   13SOL    HW1   38   2.246   2.973   0.385 -1.6571  0.7525  1.0748
   13SOL    HW2   39   2.096   3.009   0.442  4.5522  0.1841 -0.7241
   14SOL     OW   40   2.396   2.090   0.084  0.1853  0.3105 -0.3179
   14SOL    HW1   41   2.427   1.999   0.120 -2.0391  0.6432 -1.9302
   14SOL    HW2   42   2.452   2.167   0.125 -0.5169 -0.7803 -1.2483
   15SOL     OW   43   2.859   2.968   3.058  0.1818  0.1557  0.1509
   15SOL    HW1   44   2.901   2.969   0.062  1.9322  1.4534  3.1591
   15SOL    HW2   45   2.770   3.011   3.058  1.0807 -1.8054  1.3131
   16SOL     OW   46   3.065   0.714   0.999  0.0178  0.4395  0.0782
   16SOL    HW1   47   0.005   0.622   1.008 -1.0133  1.6279 -0.1827
   16SOL    HW2   48   0.033   0.783   1.039 -0.7403  0.7613 -2.2928
   17SOL     OW   49   0.706   0.410   0.846 -0.1928 -0.2139 -0.3323
   17SOL    HW1   50   0.657   0.325   0.880 -2.0808 -0.4695  2.7331
   17SOL    HW2   51   0.742   0.465   0.921  1.5680  0.3927  0.5342
   18SOL     OW   52   2.835   0.040   0.893 -0.0246 -0.7472 -0.0422
   18SOL    HW1   53   2.758   0.091   0.841 -1.1671  1.1506 -0.9550
   18SOL    HW2   54   2.921   0.093   0.898 -0.0076 -1.6404 -0.1165
   19SOL     OW   55   1.695   1.625   1.206  0.4967 -0.1286 -0.4384
   19SOL    HW1   56   1.666   1.651   1.112 -0.3177  0.6707  1.3318
   19SOL    HW2   57   1.765   1.555   1.208 -0.1122  2.8752 -2.3964
   20SOL     OW   58   2.232   1.733   2.484  0.4460 -0.6578  0.3696
   20SOL    HW1   59   2.247   1.826   2.526 -1.2885 -0.0691  0.4428
   20SOL    HW2   60   2.138   1.722   2.444  1.2185  1.4816  0.2421
   21SOL     OW   61   1.300   2.795   0.462  0.5281  0.5974 -0.3015
   21SOL    HW1   62   1.291   2.692   0.468  1.0599 -4.2349  3.0086
   21SOL    HW2   63   1.320   2.827   0.364 -1.7901  1.2224  0.1216
   22SOL     OW   64   2.291   0.926   3.089  0.3279  0.0525  0.0847
   22SOL    HW1   65   2.341   0.884   0.074  0.9923  1.0174 -1.4574
   22SOL    HW2   66   2.351   0.933   3.006 -0.0973  2.5624  0.0218
   23SOL     OW   67   0.769   0.435   2.163  0.6969  0.1762  0.6163
   23SOL    HW1   68   0.734   0.340   2.146 -2.2812  1.6660 -0.4521
   23SOL    HW2   69   0.868   0.441   2.137 -0.9385 -0.6212  0.2680
   24SOL     OW   70   2.090   2.299   0.818  0.2466 -0.0991 -0.6267
   24SOL    HW1   71   2.055   2.385   0.863 -1.0586  2.6103  0.5732
   24SOL    HW2   72   2.035   2.277   0.736 -1.3487  1.2134 -0.8433
   25SOL     OW   73   1.345   0.093   3.072  0.4925 -0.6589  0.0217
   25SOL    HW1   74   1.357   0.117   2.974 -0.0382  0.0645 -4.1905
   25SOL    HW2   75   1.442   0.072   0.020  0.7494 -3.3540  0.4866
   26SOL     OW   76   1.021   2.772   2.681 -0.4987 -0.0235  0.1114
   26SOL    HW1   77   0.992   2.817   2.769  2.8624 -0.9685  3.0048
   26SOL    HW2   78   1.032   2.668   2.693  2.8410  0.8525 -1.0642
   27SOL     OW   79   1.199   0.442   1.198  0.0212  0.4684  0.1268
   27SOL    HW1   80   1.159   0.514   1.138 -0.2730 -0.5362  1.5811
   27SOL    HW2   81   1.129   0.413   1.265  0.8438  1.4565  0.9547
   28SOL     OW   82   0.527   1.880   1.084 -0.4628  0.8076 -0.0975
   28SOL    HW1   83   0.510   1.935   0.998  0.7316 -0.7960  0.2429
   28SOL    HW2   84   0.529   1.941   1.162 -0.1884 -1.7389 -2.8970
   29SOL     OW   85   2.577   1.161   0.929  0.6308 -0.0860 -0.6211
   29SOL    HW1   86   2.565   1.109   1.017 -0.8739 -1.7555  1.3274
   29SOL    HW2   87   2.624   1.248   0.957  0.8774 -3.9570 -1.7467
   30SOL     OW   88   1.268   3.051   1.862 -0.4238  0.1386 -0.5052
   30SOL    HW1   89   1.192   2.982   1.863 -1.5513 -0.1068  0.4345
   30SOL    HW2   90   1.303   3.065   1.955 -1.6470 -2.2189 -0.9473
   31SOL     OW   91   1.302   0.034   1.121 -0.1224 -0.3425 -0.1204
   31SOL    HW1   92   1.366   0.079   1.058  0.7825  1.1977 -2.2960
   31SOL    HW2   93   1.221   0.000   1.069 -0.1021 -0.7811 -1.0846
   32SOL     OW   94   2.521   1.076   2.043 -0.1467 -0.2088  0.3454
   32SOL    HW1   95   2.437   1.033   2.003 -0.5280 -1.9850  0.5090
   32SOL    HW2   96   2.494   1.166   2.084 -0.0747 -0.5783 -1.5259
   33SOL     OW   97   2.250   2.683   2.810 -0.6700 -0.4315  0.1973
   33SOL    HW1   98   2.222   2.717   2.906 -1.3495  0.4238  1.5957
   33SOL    HW2   99   2.282   2.754   2.747 -3.0548  1.6614  0.1435
   34SOL     OW  100   1.877   1.036   2.996 -0.3790  0.4288 -0.7054
   34SOL    HW1  101   1.952   1.073   3.061  1.8528  2.3621 -1.1635
   34SOL    HW2  102   1.868   0.934   3.004  0.2879 -1.7348  0.8094
   35SOL     OW  103   2.673   1.194   1.410  0.7087  0.5896 -0.5249
   35SOL    HW1  104   2.599   1.257   1.441 -1.7924  1.9458 -2.0962
   35SOL    HW2  105   2.755   1.228   1.459 -0.7097  2.2234  1.5706
   36SOL     OW  106   2.513   2.269   2.913 -0.7333  0.4730 -0.6258
   36SOL    HW1  107   2.484   2.289   3.009 -0.7788  1.2242 -0.3080
   36SOL    HW2  108   2.488   2.342   2.850  1.6182 -2.0368  0.7856
   37SOL     OW  109   1.837   3.090   1.964  0.5790  0.3657 -0.4576
   37SOL    HW1  110   1.818   0.061   2.046  1.0198 -0.5908  0.3644
   37SOL    HW2  111   1.797   0.028   1.876  3.1063  0.0883  0.0872
   38SOL     OW  112   0.836   0.922   2.349  0.9857  0.2659 -0.3704
   38SOL    HW1  113   0.893   1.000   2.336 -0.5244 -1.5859 -1.0519
   38SOL    HW2  114   0.876   0.847   2.296 -1.8747  0.9569  0.1297
   39SOL     OW  115   1.655   0.503   1.677  0.0370  0.2181  0.3520
   39SOL    HW1  116   1.555   0.474   1.664 -2.5505  0.7158 -1.4662
   39SOL    HW2  117   1.707   0.442   1.739 -1.0569 -1.4634 -2.9401
   40SOL     OW  118   0.823   2.327   0.548  0.1310  0.7585  0.7701
   40SOL    HW1  119   0.827   2.249   0.478 -1.3346 -1.2515 -1.5029
   40SOL    HW2  120   0.921   2.353   0.565  0.0956  0.8273 -0.8277
   41SOL     OW  121   2.495   2.245   1.369 -0.2730  0.2902 -0.5892
   41SOL    HW1  122   2.488   2.256   1.266  0.1707 -0.1664  1.9037
   41SOL    HW2  123   2.591   2.244   1.394 -0.3833 -1.2847 -0.7992
   42SOL     OW  124   2.558   3.035   0.567 -0.0874 -0.0531  0.8689
   42SOL    HW1  125   2.624   3.048   0.490  2.9498 -0.0859 -0.9343
   42SOL    HW2  126   2.565   0.009   0.645  0.5401  0.1505  1.7536
   43SOL     OW  127   0.838   1.381   2.419 -0.0315 -0.4107  0.2597
   43SOL    HW1  128   0.817   1.441   2.339 -1.2528  3.1320 -0.1754
   43SOL    HW2  129   0.871   1.286   2.389  1.2792  0.0537  1.6614
   44SOL     OW  130   2.232   2.826   1.083 -0.0776 -0.0310  0.3327
   44SOL    HW1  131   2.139   2.820   1.047  0.6802 -0.3437  1.4283
   44SOL    HW2  132   2.291   2.874   1.011  0.7814 -0.7820  0.8869
   45SOL     OW  133   0.271   2.297   2.805 -0.3130  0.2144 -0.0137
   45SOL    HW1  134   0.280   2.270   2.904  1.5878  0.5693  1.7598
   45SOL    HW2  135   0.363   2.327   2.772  0.1140 -5.2723  1.9328
   46SOL     OW  136   0.554   2.712   2.225  0.8263  0.4555  0.0331
   46SOL    HW1  137   0.554   2.674   2.318 -0.7248  2.2337  2.0722
   46SOL    HW2  138   0.593   2.646   2.158 -2.3362 -0.3272  0.5755
   47SOL     OW  139   0.535   1.625   0.594 -0.4369  0.0191 -0.9218
   47SOL    HW1  140   0.496   1.714   0.558 -1.4765  3.2514  0.9286
   47SOL    HW2  141   0.565   1.569   0.515  1.2556 -1.1632  1.1825
   48SOL     OW  142   0.716   2.861   1.311 -0.5066  0.4981 -0.3959
   48SOL    HW1  143   0.659   2.777   1.300  0.1470 -1.8647 -0.4038
   48SOL    HW2  144   0.675   2.923   1.376 -1.8169  0.0860 -0.0290
   49SOL     OW  145   0.154   2.996   0.155  0.1844 -0.2248  0.0299
   49SOL    HW1  146   0.178   2.995   0.259 -0.0545 -1.5786  1.4457
   49SOL    HW2  147   0.132   2.905   0.125  0.1981  1.7249  0.3811
   50SOL     OW  148   1.586   0.606   0.526  0.4516 -0.4891 -0.2611
   50SOL    HW1  149   1.494   0.622   0.573 -0.2640  0.3865  0.4234
   50SOL    HW2  150   1.612   0.676   0.457 -1.4968 -0.0070  0.8345
   51SOL     OW  151   1.974   0.074   0.745 -0.2358 -0.1507  0.2801
   51SOL    HW1  152   1.946   3.071   0.721 -2.0729  0.6898 -0.7422
   51SOL    HW2  153   2.060   0.106   0.700  2.0337  2.2515  1.8207
   52SOL     OW  154   0.570   1.602   1.045 -0.9115 -0.3206  0.1798
   52SOL    HW1  155   0.651   1.573   0.994  0.4293 -0.0735 -0.1364
   52SOL    HW2  156   0.562   1.701   1.055  0.5655  2.1432  1.4478
   53SOL     OW  157   0.272   1.083   2.901 -0.0309 -0.0390 -0.2127
   53SOL    HW1  158   0.261   0.987   2.922 -0.4012  0.6331 -0.9511
   53SOL    HW2  159   0.211   1.141   2.962  0.9739  1.5882  2.2737
   54SOL     OW  160   2.645   2.172   2.670 -0.4976  0.5089  0.0854
   54SOL    HW1  161   2.574   2.233   2.702  0.4993 -1.8973 -1.8282
   54SOL    HW2  162   2.619   2.127   2.580  1.0475 -1.4755 -0.4112
   55SOL     OW  163   2.755   2.258   1.492  0.0865  0.2205 -0.3859
   55SOL    HW1  164   2.789   2.354   1.499  1.3695 -0.2200 -0.7886
   55SOL    HW2  165   2.753   2.207   1.578 -5.3610 -1.8688 -1.2419
   56SOL     OW  166   1.384   0.800   1.362 -0.3486  0.3076 -0.3057
   56SOL    HW1  167   1.490   0.800   1.364 -0.8494 -0.2536  0.6633
   56SOL    HW2  168   1.350   0.755   1.277  0.1568  0.7826 -0.6510
   57SOL     OW  169   1.866   1.821   1.023  0.5816  0.3679 -0.0644
   57SOL    HW1  170   1.922   1.906   1.016  1.5725  1.1176  0.3361
   57SOL    HW2  171   1.893   1.750   0.955 -1.1802 -2.5382  0.6166
   58SOL     OW  172   2.043   0.292   2.220 -0.0318  0.2840  0.1842
   58SOL    HW1  173   2.061   0.352   2.302  0.6491 -0.0271  0.1538
   58SOL    HW2  174   2.063   0.346   2.133 -1.1612 -0.3138  2.3554
   59SOL     OW  175   1.675   0.041   2.415 -0.2864 -0.2123 -0.2681
   59SOL    HW1  176   1.659   3.044   2.359  0.7736 -0.1182  1.3347
   59SOL    HW2  177   1.647   0.119   2.355 -0.5413  0.2723  0.1608
   60SOL     OW  178   1.608   1.793   2.799 -0.2995 -0.5025 -0.4485
   60SOL    HW1  179   1.682   1.817   2.730 -0.9526  1.7138 -1.7283
   60SOL    HW2  180   1.521   1.760   2.753 -0.7699  0.3531  1.6343
   61SOL     OW  181   0.583   2.121   0.116 -0.3827 -0.0389 -0.8571
   61SOL    HW1  182   0.530   2.041   0.090  2.1536  1.8931  0.0360
   61SOL    HW2  183   0.678   2.114   0.079  0.7640  0.0310  0.4405
   62SOL     OW  184   1.440   1.855   1.513  0.5538  0.1385 -0.2232
   62SOL    HW1  185   1.388   1.800   1.581  1.2745  0.9749 -1.9079
   62SOL    HW2  186   1.531   1.811   1.485  1.4404 -1.2694 -0.1907
   63SOL     OW  187   1.096   2.110   0.464 -0.4686 -0.1487  0.5926
   63SOL    HW1  188   1.000   2.093   0.445  3.4509  0.4163  0.4900
   63SOL    HW2  189   1.129   2.027   0.508 -1.6318  1.0502 -0.5168
   64SOL     OW  190   1.850   1.605   2.524 -1.0418 -0.1844 -0.3848
   64SOL    HW1  191   1.814   1.514   2.545  0.6964  1.9083  1.5078
   64SOL    HW2  192   1.926   1.595   2.456  0.0545 -2.3124  1.0691
   65SOL     OW  193   1.684   1.808   1.406  0.7063  0.3844 -0.3285
   65SOL    HW1  194   1.678   1.734   1.332 -0.2166 -0.1483  0.0781
   65SOL    HW2  195   1.713   1.897   1.365 -0.2499 -1.1708  4.0004
   66SOL     OW  196   2.966   0.899   0.773  0.0830 -0.3579  0.0688
   66SOL    HW1  197   2.883   0.853   0.727 -3.9012 -1.8425 -1.9349
   66SOL    HW2  198   2.933   0.964   0.841  1.8841  1.7741 -1.1729
   67SOL     OW  199   2.088   2.425   1.083 -0.2334  0.1644 -0.2337
   67SOL    HW1  200   2.048   2.511   1.124 -0.6693  0.6782 -1.3556
   67SOL    HW2  201   2.188   2.439   1.065  1.1680 -0.3154  0.6349
   68SOL     OW  202   2.419   2.857   1.869  0.1460 -0.8733 -0.0681
   68SOL    HW1  203   2.411   2.771   1.813  1.2796 -1.0724 -1.6851
   68SOL    HW2  204   2.402   2.935   1.814  3.3717  0.1191  0.1936
   69SOL     OW  205   2.787   2.877   2.629  0.3838  0.3659 -0.0910
   69SOL    HW1  206   2.784   2.799   2.562  1.6050 -0.9901 -2.0697
   69SOL    HW2  207   2.703   2.882   2.686 -0.5377 -0.1839 -0.2218
   70SOL     OW  208   1.126   1.405   2.304  0.1421 -0.6978 -0.1434
   70SOL    HW1  209   1.067   1.433   2.223 -2.8498  0.3259  1.8217
   70SOL    HW2  210   1.086   1.318   2.335 -0.6613  1.6595 -1.8565
   71SOL     OW  211   0.743   1.699   2.011 -0.1078 -0.3174 -0.0877
   71SOL    HW1  212   0.820   1.645   1.978 -2.3708 -1.0336  0.4582
   71SOL    HW2  213   0.733   1.782   1.953 -1.1274  1.3099  0.2196
   72SOL     OW  214   2.880   1.298   1.548 -0.6075  0.1841  0.1670
   72SOL    HW1  215   2.835   1.310   1.639  0.6966  0.1986 -2.8990
   72SOL    HW2  216   2.917   1.390   1.524 -0.3748 -0.2578 -2.4936
   73SOL     OW  217   0.724   2.120   2.814  0.1187  0.1524 -0.8996
   73SOL    HW1  218   0.779   2.153   2.732  1.8038 -1.2815  0.2598
   73SOL    HW2  219   0.738   2.187   2.889 -0.7314  0.7444 -3.0910
   74SOL     OW  220   1.171   0.200   2.229 -0.2638  0.5540 -0.2081
   74SOL    HW1  221   1.094   0.138   2.224  2.3771  1.9744 -0.0694
   74SOL    HW2  222   1.145   0.287   2.276  1.3494 -1.6157 -3.0468
   75SOL     OW  223   1.059   3.045   0.594 -0.0510  0.1793 -0.2220
   75SOL    HW1  224   0.982   2.993   0.635  0.0879 -0.1683 -0.8152
   75SOL    HW2  225   1.153   3.025   0.628  2.5609 -1.7569  1.9380
   76SOL     OW  226   0.353   1.581   2.812 -0.5210 -0.2020  0.3747
   76SOL    HW1  227   0.403   1.647   2.747  0.2083  1.7965  1.0041
   76SOL    HW2  228   0.323   1.501   2.758  0.8832  0.6618 -2.1974
   77SOL     OW  229   0.679   2.559   0.633  0.1479 -0.0974  0.2902
   77SOL    HW1  230   0.756   2.498   0.608  1.1666 -1.3294  0.6487
   77SOL    HW2  231   0.621   2.525   0.706  3.1054  0.9289 -2.2870
   78SOL     OW  232   2.555   0.967   2.968  0.1393  0.6667 -0.1626
   78SOL    HW1  233   2.619   0.967   3.046 -3.5840  1.4525 -1.6730
   78SOL    HW2  234   2.557   0.878   2.913  0.9794  0.6463 -2.3101
   79SOL     OW  235   0.772   1.540   2.646  0.2582  0.1488 -0.4192
   79SOL    HW1  236   0.778   1.496   2.556 -0.4730  1.2777 -0.7893
   79SOL    HW2  237   0.706   1.617   2.640 -1.9333 -0.5102 -1.3477
   80SOL     OW  238   2.186   1.096   1.294  0.6482  0.1600 -0.3099
   80SOL    HW1  239   2.152   1.127   1.388 -1.5243  2.1470 -0.1683
   80SOL    HW2  240   2.250   1.163   1.257 -0.3500 -0.4233  1.0810
   81SOL     OW  241   2.063   1.095   2.413 -0.3842  0.3397 -0.2316
   81SOL    HW1  242   2.095   1.181   2.456  2.3837 -3.2496  0.3581
   81SOL    HW2  243   2.013   1.029   2.472  1.7571 -0.3206 -1.6828
   82SOL     OW  244   2.328   2.017   1.418 -0.3201  0.5604  0.5285
   82SOL    HW1  245   2.362   2.114   1.422  1.0606 -1.1758  1.4167
   82SOL    HW2  246   2.298   1.985   1.511 -1.5518 -1.6724  2.4197
   83SOL     OW  247   2.060   2.728   0.199  0.3689  0.3429 -0.4194
   83SOL    HW1  248   2.147   2.747   0.248 -1.0994  1.8233  0.9286
   83SOL    HW2  249   2.006   2.654   0.250  1.6759 -2.3261  1.4406
   84SOL     OW  250   0.734   0.780   0.583 -0.3382  0.2673  0.9570
   84SOL    HW1  251   0.793   0.784   0.670  0.0028  2.7096  1.8268
   84SOL    HW2  252   0.662   0.709   0.604 -2.3688 -2.2057  0.1974
   85SOL     OW  253   2.007   1.690   1.237 -0.4647 -0.3526 -0.1387
   85SOL    HW1  254   1.939   1.752   1.193  1.0470  2.4997  2.5836
   85SOL    HW2  255   2.100   1.729   1.226 -1.7979 -0.3196 -1.3709
   86SOL     OW  256   0.499   0.990   1.038 -0.0199  0.0302  0.3035
   86SOL    HW1  257   0.467   0.898   1.007  2.7054 -0.4146  1.2790
   86SOL    HW2  258   0.557   1.049   0.977 -1.0109 -0.5170  2.9769
   87SOL     OW  259   0.038   2.234   2.456  0.8488 -0.0550 -0.0963
   87SOL    HW1  260   0.085   2.154   2.410 -2.1166 -0.5558 -0.2918
   87SOL    HW2  261   0.109   2.305   2.461 -1.0537 -1.2027  2.3427
   88SOL     OW  262   0.254   2.968   0.388 -0.4463 -0.0541  0.1200
   88SOL    HW1  263   0.248   2.945   0.486  1.4273 -0.0014 -2.3757
   88SOL    HW2  264   0.335   2.923   0.350  0.4352  1.1712  1.3130
   89SOL     OW  265   1.450   0.344   1.230 -0.1060 -0.0131  0.0513
   89SOL    HW1  266   1.361   0.375   1.187 -0.3799 -0.5145  0.0124
   89SOL    HW2  267   1.429   0.315   1.325 -1.4720 -0.7004 -0.4020
   90SOL     OW  268   0.093   1.169   2.064 -0.4494  0.0068 -0.0500
   90SOL    HW1  269   0.108   1.127   2.160  0.1672  0.1595 -0.5066
   90SOL    HW2  270   0.084   1.103   1.987 -0.8119  0.9229  0.3944
   91SOL     OW  271   1.973   2.698   0.747 -0.3851  0.2227 -0.2753
   91SOL    HW1  272   2.049   2.647   0.702  0.8133  0.7587 -0.4948
   91SOL    HW2  273   1.900   2.634   0.766  1.1213 -0.0564  1.0457
   92SOL     OW  274   1.622   1.746   0.913  0.4229  0.4481 -0.0330
   92SOL    HW1  275   1.709   1.784   0.954  0.3549 -0.6083 -1.4834
   92SOL    HW2  276   1.644   1.702   0.823  0.8930 -1.4193 -0.6042
   93SOL     OW  277   0.319   1.336   0.370 -0.4189  0.6210  0.0621
   93SOL    HW1  278   0.326   1.280   0.285  1.5050  0.0553  3.4408
   93SOL    HW2  279   0.412   1.353   0.407 -0.8881 -1.6164 -0.7878
   94SOL     OW  280   0.708   2.470   0.970 -0.0807 -0.2266  0.3801
   94SOL    HW1  281   0.639   2.424   0.914  0.7554 -1.0938 -0.0563
   94SOL    HW2  282   0.709   2.435   1.065  2.1630  1.8785  0.3042
   95SOL     OW  283   0.336   0.914   0.278  0.3616 -0.0459  0.1796
   95SOL    HW1  284   0.341   0.958   0.372 -2.0665  1.6706  1.4039
   95SOL    HW2  285   0.408   0.846   0.265  0.3024  1.3876 -1.1882
   96SOL     OW  286   0.688   2.516   2.065 -0.1511  0.2376 -0.1463
   96SOL    HW1  287   0.738   2.437   2.107 -2.3340  1.4737  1.5960
   96SOL    HW2  288   0.649   2.486   1.979 -0.1901  0.7496 -2.6689
   97SOL     OW  289   2.267   0.954   0.660 -0.1379 -0.1879 -0.3648
   97SOL    HW1  290   2.310   1.028   0.601 -2.0408 -1.1919 -0.4714
   97SOL    HW2  291   2.243   0.986   0.754 -2.0466  0.7617  2.5587
   98SOL     OW  292   0.231   2.073   1.866 -0.3313  0.0657  0.1972
   98SOL    HW1  293   0.315   2.014   1.885 -0.4016 -0.3910  1.0958
   98SOL    HW2  294   0.150   2.060   1.929 -1.2056  0.9862 -2.8637
   99SOL     OW  295   0.023   0.355   1.776 -0.2093  0.1739  0.1765
   99SOL    HW1  296   3.052   0.432   1.793  0.8510 -1.0731  1.2820
   99SOL    HW2  297   3.060   0.276   1.746 -1.2542 -1.1378  1.0723
  100SOL     OW  298   2.089   0.453   2.457 -0.0818 -0.2913 -0.1852
  100SOL    HW1  299   2.169   0.391   2.489  1.7100 -1.4679  0.3827
  100SOL    HW2  300   2.081   0.538   2.512 -3.6247  1.4443 -1.6653
  101SOL     OW  301   1.045   2.843   1.871  0.6176 -0.5447 -0.0271
  101SOL    HW1  302   0.982   2.848   1.791 -0.1218 -1.7623  3.4850
  101SOL    HW2  303   0.999   2.891   1.950  0.3570  3.7308  1.0182
  102SOL     OW  304   0.626   0.651   1.542  0.0520 -0.5023  0.4082
  102SOL    HW1  305   0.535   0.653   1.582  2.2628  1.0539 -1.1641
  102SOL    HW2  306   0.691   0.681   1.616 -0.2785 -1.1705 -0.9939
  103SOL     OW  307   0.551   0.887   2.889 -0.2915 -0.0264  0.0829
  103SOL    HW1  308   0.463   0.911   2.927  0.2324 -0.6989 -3.4112
  103SOL    HW2  309   0.588   0.963   2.829  0.8848 -0.4142 -0.1035
  104SOL     OW  310   0.451   0.007   1.980 -0.7728  0.4655 -0.6046
  104SOL    HW1  311   0.501   0.064   1.913 -0.3083 -0.4367 -0.5428
  104SOL    HW2  312   0.384   3.039   1.926 -0.7204  0.7092 -2.9430
  105SOL     OW  313   2.689   2.677   1.967 -0.1760 -0.1036 -0.3159
  105SOL    HW1  314   2.669   2.720   1.882  0.0323 -1.2941  2.8535
  105SOL    HW2  315   2.659   2.744   2.036 -0.2361 -0.2518 -0.4279
  106SOL     OW  316   0.680   0.034   0.849  0.0929 -0.4546 -0.0974
  106SOL    HW1  317   0.761   0.083   0.816 -1.5559 -2.2364 -0.2544
  106SOL    HW2  318   0.699   3.036   0.894 -0.1901  1.4394 -0.3540
  107SOL     OW  319   3.006   1.999   1.097  0.0755  0.0040  0.3143
  107SOL    HW1  320   3.059   2.004   1.185 -0.4190 -1.2398 -3.0610
  107SOL    HW2  321   2.985   1.901   1.072  0.1218  3.4545  0.2343
  108SOL     OW  322   0.514   2.403   0.788  0.3563  0.1185 -0.0370
  108SOL    HW1  323   0.424   2.419   0.835 -0.2016  0.6534  1.5609
  108SOL    HW2  324   0.504   2.351   0.699 -2.6646 -0.5773 -1.1784
  109SOL     OW  325   1.593   3.045   0.682  0.1680  0.5370  0.2479
  109SOL    HW1  326   1.517   2.994   0.726  2.4160  0.9706  0.5665
  109SOL    HW2  327   1.686   3.000   0.699  3.1594  0.4983  1.2346
  110SOL     OW  328   1.707   2.034   0.687 -0.9768  0.3524 -0.2887
  110SOL    HW1  329   1.787   1.975   0.662  1.3335 -2.4216 -0.7219
  110SOL    HW2  330   1.717   2.064   0.785  0.5605 -1.1777  0.6273
  111SOL     OW  331   1.857   2.809   2.050  0.1050  0.5187 -0.3718
  111SOL    HW1  332   1.945   2.801   2.103  0.2367  1.2527 -0.8585
  111SOL    HW2  333   1.846   2.906   2.029  0.0894 -3.0727  2.1948
  112SOL     OW  334   1.818   2.328   2.763  0.1387  0.6406 -0.1377
  112SOL    HW1  335   1.904   2.386   2.778  0.9440 -1.6776 -0.2795
  112SOL    HW2  336   1.810   2.304   2.668  3.9433  1.3434  2.2502
  113SOL     OW  337   2.278   2.196   2.049 -0.0669  0.2875 -0.4743
  113SOL    HW1  338   2.319   2.238   2.130 -0.4330 -0.1252  0.2779
  113SOL    HW2  339   2.277   2.259   1.967 -2.2332  1.5094 -0.8680
  114SOL     OW  340   0.245   1.268   1.553 -0.1669 -0.0040 -0.3254
  114SOL    HW1  341   0.247   1.255   1.449 -1.0605  0.4151 -2.8849
  114SOL    HW2  342   0.272   1.360   1.590 -0.2026  2.5784 -2.0755
  115SOL     OW  343   2.614   0.735   2.882  0.3265  0.0746  0.3362
  115SOL    HW1  344   2.519   0.712   2.860  2.2078 -1.6239  0.4384
  115SOL    HW2  345   2.638   0.677   2.965  2.6650 -0.0197  0.9303
  116SOL     OW  346   2.848   0.361   3.070  0.2734 -0.2492 -0.6034
  116SOL    HW1  347   2.950   0.357   3.075  0.4382 -2.4405  0.7447
  116SOL    HW2  348   2.814   0.306   2.994  0.2137  3.1841  2.4785
  117SOL     OW  349   2.623   2.761   0.860  0.0321  0.1213 -0.0898
  117SOL    HW1  350   2.544   2.828   0.863 -0.7237 -1.7908 -0.5102
  117SOL    HW2  351   2.631   2.723   0.954 -2.0974  0.9977  0.0745
  118SOL     OW  352   0.949   2.036   2.222  0.0295 -0.3636  1.0933
  118SOL    HW1  353   0.995   1.955   2.183  3.1299 -1.8342 -2.5036
  118SOL    HW2  354   1.009   2.085   2.286  0.0586  1.4217  0.6877
  119SOL     OW  355   0.744   2.683   0.138 -0.3049  0.2658  0.1703
  119SOL    HW1  356   0.662   2.724   0.092  0.0284 -0.2621  0.0819
  119SOL    HW2  357   0.739   2.690   0.238 -2.2422  1.8653 -2.0778
  120SOL     OW  358   1.202   0.771   0.400 -0.2996  0.0415 -0.0336
  120SOL    HW1  359   1.208   0.671   0.382  1.9798  0.8773 -0.0139
  120SOL    HW2  360   1.279   0.818   0.360 -2.9046 -0.4833  4.1594
  121SOL     OW  361   1.792   0.700   1.141 -1.0328  0.2248 -0.3879
  121SOL    HW1  362   1.854   0.636   1.189  1.1903 -0.0515  1.2521
  121SOL    HW2  363   1.762   0.772   1.207  0.5448 -0.7912 -0.2546
  122SOL     OW  364   1.838   1.671   2.084 -0.4313  0.4388 -0.2178
  122SOL    HW1  365   1.758   1.735   2.083 -1.0323 -0.2635 -0.0163
  122SOL    HW2  366   1.814   1.592   2.027  1.6452 -0.9773  1.0119
  123SOL     OW  367   0.271   0.965   0.551 -0.5522  0.2474 -0.4330
  123SOL    HW1  368   0.249   1.058   0.591 -0.1913 -0.9265 -0.1213
  123SOL    HW2  369   0.212   0.897   0.593 -0.2038 -1.2778  0.0264
  124SOL     OW  370   0.701   0.221   2.711  0.0442 -0.3119 -0.3616
  124SOL    HW1  371   0.799   0.217   2.685 -1.2945 -0.7779 -0.8872
  124SOL    HW2  372   0.685   0.165   2.796 -0.6203  1.1885 -1.4648
  125SOL     OW  373   0.651   2.894   2.775 -0.6103 -0.0907 -0.0899
  125SOL    HW1  374   0.734   2.894   2.835  1.5692  1.8443 -2.1266
  125SOL    HW2  375   0.671   2.931   2.685  0.1098  1.0869  1.3119
  126SOL     OW  376   0.724   1.459   3.034  0.1162 -1.0667  0.4474
  126SOL    HW1  377   0.675   1.415   2.953  0.3079  0.7525 -0.6954
  126SOL    HW2  378   0.815   1.499   2.999  3.1813 -0.8485 -1.7447
  127SOL     OW  379   1.024   2.695   0.768 -1.1105 -0.0950  0.1721
  127SOL    HW1  380   0.955   2.757   0.727  1.4605  0.3942 -0.0619
  127SOL    HW2  381   1.091   2.757   0.810  0.5630  0.4983 -2.7677
  128SOL     OW  382   1.638   1.955   0.197  0.0715 -0.8216  0.3358
  128SOL    HW1  383   1.571   1.887   0.162  1.6949  0.4411 -1.4062
  128SOL    HW2  384   1.708   1.979   0.127 -1.1386  0.2332  1.5658
  129SOL     OW  385   1.802   1.771   1.633 -0.0316 -0.3909  0.1313
  129SOL    HW1  386   1.767   1.797   1.541 -1.8169 -1.2359  0.8570
  129SOL    HW2  387   1.728   1.739   1.694  1.1830 -2.7606 -1.8210
  130SOL     OW  388   2.049   1.799   1.738 -0.4100  0.3924  0.4021
  130SOL    HW1  389   1.950   1.775   1.725 -0.7193 -0.0494 -0.3449
  130SOL    HW2  390   2.093   1.737   1.810  0.0986 -1.7701 -1.5005
  131SOL     OW  391   0.962   2.598   2.007  0.4314  0.6024  0.0567
  131SOL    HW1  392   0.943   2.642   1.916 -1.5014 -1.8861  1.6166
  131SOL    HW2  393   0.874   2.562   2.047 -0.0680  0.5799  2.4898
  132SOL     OW  394   2.517   1.550   0.771  0.6296 -0.4026 -0.3882
  132SOL    HW1  395   2.567   1.617   0.826  1.1384  2.9915 -0.7799
  132SOL    HW2  396   2.575   1.507   0.701 -1.1712  0.7320  2.0151
  133SOL     OW  397   0.764   1.891   1.813 -0.5203  0.1680  0.1859
  133SOL    HW1  398   0.754   1.913   1.714  0.0557  0.2209 -0.5539
  133SOL    HW2  399   0.758   1.980   1.869 -0.6317  1.2671  3.1543
  134SOL     OW  400   3.051   1.570   0.821  0.6849 -0.7690 -0.1941
  134SOL    HW1  401   2.966   1.515   0.798  0.1787  1.1460 -1.6662
  134SOL    HW2  402   0.046   1.515   0.802 -1.6814 -0.8314  0.4021
  135SOL     OW  403   2.154   1.679   2.935 -0.5501  0.2825  0.2520
  135SOL    HW1  404   2.232   1.742   2.915  0.7803 -0.9278  0.3986
  135SOL    HW2  405   2.071   1.694   2.882  1.3735 -1.8179  1.0228
  136SOL     OW  406   2.978   1.705   1.318 -0.2734  0.4627  0.7163
  136SOL    HW1  407   3.027   1.712   1.224  0.6722 -1.5388 -1.1379
  136SOL    HW2  408   2.971   1.797   1.356 -0.5547 -1.1166  1.4441
  137SOL     OW  409   2.867   1.265   2.869 -0.9023 -0.9483 -0.6639
  137SOL    HW1  410   2.817   1.189   2.824 -0.2712 -0.2728 -2.2946
  137SOL    HW2  411   2.833   1.358   2.849  0.5494  1.8250  0.5585
  138SOL     OW  412   2.820   0.509   0.936 -0.0618 -0.3418  0.0442
  138SOL    HW1  413   2.758   0.471   1.006  0.0489 -0.9575 -2.8105
  138SOL    HW2  414   2.852   0.605   0.948 -1.0580  0.8535 -2.0228
  139SOL     OW  415   2.169   2.225   2.807  0.3018 -0.5866  0.2564
  139SOL    HW1  416   2.272   2.217   2.801  0.7666 -2.8160  2.7892
  139SOL    HW2  417   2.129   2.215   2.712  0.2929 -0.1731 -1.5981
  140SOL     OW  418   0.998   1.548   0.585  0.0432  0.1142 -0.2612
  140SOL    HW1  419   0.917   1.601   0.624 -2.8747 -1.2141  2.2575
  140SOL    HW2  420   0.972   1.450   0.566  1.2231  0.3633  1.0237
  141SOL     OW  421   1.103   1.185   0.781 -0.0587  0.2399  0.0067
  141SOL    HW1  422   1.180   1.252   0.762 -0.3205 -0.7099  1.5067
  141SOL    HW2  423   1.103   1.108   0.714 -1.1258  0.6330  0.0692
  142SOL     OW  424   1.328   0.727   1.107 -0.2201  0.2162 -0.0867
  142SOL    HW1  425   1.236   0.682   1.085  1.2756 -1.6320  1.4638
  142SOL    HW2  426   1.401   0.665   1.074  1.8525 -2.9019 -0.1632
  143SOL     OW  427   0.340   0.431   2.924  0.4742 -0.5956 -0.1645
  143SOL    HW1  428   0.238   0.423   2.905  0.1480 -2.9283 -0.3619
  143SOL    HW2  429   0.379   0.500   2.862 -3.6999 -1.8443  2.6139
  144SOL     OW  430   2.372   0.189   0.321  0.0464 -0.4616 -0.0884
  144SOL    HW1  431   2.319   0.274   0.289 -0.8819  2.5552 -0.0826
  144SOL    HW2  432   2.451   0.221   0.374 -2.1301  0.6505  1.9833
  145SOL     OW  433   2.343   2.871   2.648 -0.4223 -0.0892 -0.2674
  145SOL    HW1  434   2.379   2.824   2.568 -1.6580 -1.4208  1.7352
  145SOL    HW2  435   2.308   2.957   2.612  0.1876 -1.3137  0.1818
  146SOL     OW  436   0.006   2.681   0.482  0.4004  0.1469  0.1968
  146SOL    HW1  437   0.039   2.585   0.466 -3.7971 -0.6949  2.3111
  146SOL    HW2  438   3.024   2.712   0.416 -0.0507 -0.9952  1.4281
  147SOL     OW  439   1.321   0.754   0.010  0.7026  0.1120  0.4597
  147SOL    HW1  440   1.259   0.838   0.002 -1.4169  0.2074 -4.2647
  147SOL    HW2  441   1.275   0.668   3.058  1.0712 -3.8617  0.8998
  148SOL     OW  442   1.125   0.093   0.132 -0.1378 -0.0828  0.3912
  148SOL    HW1  443   1.150   0.103   0.229 -1.5082 -0.9476  1.6777
  148SOL    HW2  444   1.211   0.099   0.076  0.5704 -1.7006  0.8269
  149SOL     OW  445   1.439   0.917   2.695  0.1218 -0.3124 -0.2661
  149SOL    HW1  446   1.394   0.837   2.648  2.3647 -1.5591 -4.2482
  149SOL    HW2  447   1.536   0.885   2.712  1.0803  1.3113  0.2434
  150SOL     OW  448   1.345   2.777   2.939  0.3481  0.6856 -0.5805
  150SOL    HW1  449   1.430   2.792   2.989 -0.2313 -2.3057  3.3831
  150SOL    HW2  450   1.299   2.692   2.973  2.2855 -0.7564  0.3988
  151SOL     OW  451   2.989   1.211   3.088 -0.2430  0.3253  0.5487
  151SOL    HW1  452   2.939   1.229   3.000 -0.8921  0.1588 -1.9476
  151SOL    HW2  453   2.940   1.134   0.044 -2.4132 -0.7184 -1.3624
  152SOL     OW  454   0.612   0.187   1.560 -0.0026  0.1714 -0.6223
  152SOL    HW1  455   0.578   0.255   1.490  1.5768 -0.8193  0.8707
  152SOL    HW2  456   0.712   0.177   1.548  0.2786  1.6887 -0.7382
  153SOL     OW  457   2.582   0.205   1.792 -0.0144  0.5812  0.2336
  153SOL    HW1  458   2.527   0.274   1.732 -0.8635  1.1173  1.0962
  153SOL    HW2  459   2.568   0.213   1.891 -0.5960  3.5676 -2.6919
  154SOL     OW  460   2.092   0.120   1.872  0.0520 -0.6435 -0.9095
  154SOL    HW1  461   2.092   0.087   1.968  1.4588  0.2325 -1.3060
  154SOL    HW2  462   2.036   0.065   1.810  0.8335 -1.1983 -1.2908
  155SOL     OW  463   0.027   1.175   0.298 -0.3498  0.0663  0.4224
  155SOL    HW1  464   0.004   1.277   0.301 -1.5372  0.4600  0.3249
  155SOL    HW2  465   3.050   1.114   0.343 -2.0692 -0.0406 -2.4012
  156SOL     OW  466   1.594   1.218   0.213  0.2536 -0.3113  0.3391
  156SOL    HW1  467   1.511   1.230   0.267  2.9950  2.1800  0.2825
  156SOL    HW2  468   1.576   1.196   0.115 -0.6291 -1.4495  0.1909
  157SOL     OW  469   0.849   2.396   2.915 -0.3995  0.2941  0.3523
  157SOL    HW1  470   0.925   2.362   2.976  1.4744 -1.1994 -0.5401
  157SOL    HW2  471   0.758   2.374   2.956 -0.1773 -0.8733  0.1048
  158SOL     OW  472   1.629   0.941   1.531 -0.1325  0.2199 -0.3716
  158SOL    HW1  473   1.652   0.968   1.627  1.0294 -2.3630  3.1464
  158SOL    HW2  474   1.555   0.999   1.503  2.0457  0.3071  1.2755
  159SOL     OW  475   0.006   0.322   0.609  0.4222 -0.2041  0.7814
  159SOL    HW1  476   0.018   0.284   0.511  1.4381 -1.4384 -0.4617
  159SOL    HW2  477   3.011   0.369   0.627 -1.0304  0.3808 -0.7589
  160SOL     OW  478   2.532   1.886   1.815  0.2785  0.1041 -0.0347
  160SOL    HW1  479   2.551   1.790   1.778  2.5873  0.8029 -1.1820
  160SOL    HW2  480   2.439   1.917   1.791 -1.0354  1.0860 -2.1133
  161SOL     OW  481   0.116   0.167   0.226  0.7867  0.3296  0.3679
  161SOL    HW1  482   0.125   0.068   0.191 -0.0560 -1.5990 -2.7920
  161SOL    HW2  483   0.205   0.199   0.258 -1.7702  0.5424 -0.1705
  162SOL     OW  484   0.545   0.583   2.105  0.5670  0.1392  0.0999
  162SOL    HW1  485   0.523   0.665   2.158 -0.7722  0.3681  0.7793
  162SOL    HW2  486   0.631   0.536   2.131 -0.0170  0.6991 -1.8773
  163SOL     OW  487   2.984   3.086   2.375  0.3457  0.4166  0.4958
  163SOL    HW1  488   2.912   0.066   2.374  0.7814  0.1779 -0.4865
  163SOL    HW2  489   2.950   3.000   2.335 -2.0509  1.4117  0.7970
  164SOL     OW  490   2.333   1.547   0.265  0.1397  0.0888  0.3492
  164SOL    HW1  491   2.318   1.638   0.307  0.7550  1.9643 -0.3279
  164SOL    HW2  492   2.299   1.535   0.169  1.7661 -1.2622  1.8646
  165SOL     OW  493   0.703   0.212   1.243  0.3181  0.0520  0.7656
  165SOL    HW1  494   0.671   0.285   1.302  3.7126 -3.1071 -3.7608
  165SOL    HW2  495   0.802   0.209   1.227 -2.4164 -2.9786 -1.9869
  166SOL     OW  496   2.971   0.228   0.344  0.6196 -0.2387 -0.0345
  166SOL    HW1  497   3.068   0.214   0.320 -1.3099  1.4142  0.6167
  166SOL    HW2  498   2.916   0.142   0.342  1.4036 -0.3377  0.9846
  167SOL     OW  499   2.138   0.568   0.657 -0.6365  0.5899  0.9159
  167SOL    HW1  500   2.141   0.566   0.761 -0.4672  0.9100 -0.8326
  167SOL    HW2  501   2.101   0.483   0.618  2.5453 -2.6501  3.5044
  168SOL     OW  502   1.131   0.441   2.362  0.4324  0.3980 -0.3398
  168SOL    HW1  503   1.066   0.425   2.441 -1.0085  2.4876  1.6096
  168SOL    HW2  504   1.087   0.507   2.298 -0.7094  0.6348 -2.3647
  169SOL     OW  505   0.870   1.858   1.146  0.0619  0.1107 -0.0204
  169SOL    HW1  506   0.928   1.801   1.086  1.0654 -2.2111 -3.1306
  169SOL    HW2  507   0.850   1.944   1.095  1.3889 -0.8098  1.6838
  170SOL     OW  508   2.952   0.139   1.726 -0.6384  0.2834 -0.0752
  170SOL    HW1  509   2.996   0.057   1.678 -0.3754 -2.5742  0.4533
  170SOL    HW2  510   2.873   0.169   1.668  0.1840 -0.5968  2.6857
  171SOL     OW  511   2.683   0.919   2.167 -0.1281 -0.3755 -0.2721
  171SOL    HW1  512   2.603   0.963   2.122 -2.1116 -1.8995 -3.0318
  171SOL    HW2  513   2.670   0.823   2.167  3.3438  1.0069 -1.8700
  172SOL     OW  514   1.297   2.159   1.135 -0.2392 -0.0274  0.5623
  172SOL    HW1  515   1.215   2.170   1.074  0.8409  2.3386 -0.9053
  172SOL    HW2  516   1.378   2.116   1.086 -2.0861 -0.7033 -0.8594
  173SOL     OW  517   2.446   2.411   0.045 -0.3988  0.1534  0.1799
  173SOL    HW1  518   2.369   2.430   0.108  0.9930 -0.2444  0.9393
  173SOL    HW2  519   2.480   2.497   0.002  0.6554  1.9450  0.0100
  174SOL     OW  520   1.664   0.753   0.308  0.2115 -0.1671 -0.9758
  174SOL    HW1  521   1.660   0.695   0.227 -0.4270  1.9697  3.3329
  174SOL    HW2  522   1.759   0.780   0.332 -2.9502 -2.0948  1.3780
  175SOL     OW  523   0.710   1.771   1.373  0.2657 -0.2874 -0.1627
  175SOL    HW1  524   0.653   1.689   1.351 -2.4557 -0.6626  1.1044
  175SOL    HW2  525   0.753   1.792   1.283  1.6654 -2.1586  0.8799
  176SOL     OW  526   0.433   3.087   0.734 -0.2094 -0.2863  0.4783
  176SOL    HW1  527   0.530   0.013   0.768  1.6878  1.6982 -0.0275
  176SOL    HW2  528   0.422   2.990   0.700 -0.6291  1.7636 -0.6514
  177SOL     OW  529   2.665   1.197   0.270  0.1406 -0.5615  0.5188
  177SOL    HW1  530   2.745   1.193   0.334 -1.4196  0.6307 -1.7953
  177SOL    HW2  531   2.636   1.299   0.268  0.1775  4.4748  2.7862
  178SOL     OW  532   2.633   2.447   2.106 -0.1642 -0.8607  0.7342
  178SOL    HW1  533   2.651   2.525   2.046 -1.9885 -0.5176  0.8192
  178SOL    HW2  534   2.694   2.460   2.182 -3.6147  0.5244 -5.0100
  179SOL     OW  535   2.357   3.021   0.232  1.0131 -0.1669 -0.4427
  179SOL    HW1  536   2.357   0.018   0.284 -0.3085 -1.0321  0.8293
  179SOL    HW2  537   2.295   3.030   0.151 -1.1375 -2.4138  1.2896
  180SOL     OW  538   2.371   0.536   0.483 -0.0128  0.2040  0.3646
  180SOL    HW1  539   2.290   0.556   0.544 -0.9969 -1.5797  3.5584
  180SOL    HW2  540   2.388   0.628   0.436 -1.8579  2.8425 -1.6087
  181SOL     OW  541   3.052   0.060   2.642  0.0249 -0.4006 -0.0928
  181SOL    HW1  542   3.045   0.019   2.547 -0.4080 -1.6894 -1.3802
  181SOL    HW2  543   3.029   3.091   2.725 -2.1851 -0.9923  0.7969
  182SOL     OW  544   2.490   2.020   2.492  0.7154 -0.0164 -0.0220
  182SOL    HW1  545   2.508   2.053   2.397 -0.2107  0.4835 -0.3991
  182SOL    HW2  546   2.499   1.918   2.485  0.3022 -0.0530  0.6323
  183SOL     OW  547   0.060   0.906   1.451  0.3682 -0.4655 -0.6371
  183SOL    HW1  548   0.103   0.932   1.361  0.9825 -1.9720  1.8824
  183SOL    HW2  549   0.015   0.985   1.489  1.5170 -0.0272 -0.5800
  184SOL     OW  550   0.089   1.449   1.081  0.3548  0.2320  0.1621
  184SOL    HW1  551   0.079   1.545   1.108 -2.1931  0.9753 -0.2613
  184SOL    HW2  552   0.089   1.447   0.979  0.0398  0.4251  1.6499
  185SOL     OW  553   2.849   2.970   1.268  0.3576  1.0423  0.0971
  185SOL    HW1  554   2.888   2.898   1.213  0.4827 -1.2656  2.6878
  185SOL    HW2  555   2.845   3.060   1.225 -1.0131 -2.4446 -0.2996
  186SOL     OW  556   2.038   2.689   2.402  0.7002  0.9547  0.4977
  186SOL    HW1  557   1.977   2.765   2.433 -1.6095  1.8120 -2.3508
  186SOL    HW2  558   2.004   2.597   2.432  0.9348 -1.0309 -0.5556
  187SOL     OW  559   0.190   1.221   0.604 -0.3460 -0.3295  0.3037
  187SOL    HW1  560   0.210   1.263   0.511  1.6471 -0.8249  1.6223
  187SOL    HW2  561   0.196   1.289   0.678 -0.9067 -0.7361 -1.5474
  188SOL     OW  562   2.018   1.755   0.085 -0.3238  0.2665 -0.0317
  188SOL    HW1  563   2.057   1.810   0.160 -2.4869  2.7291 -0.2140
  188SOL    HW2  564   2.090   1.722   0.014  0.6200 -1.6955 -0.5192
  189SOL     OW  565   3.080   1.694   3.018 -0.6512 -0.2754  0.1171
  189SOL    HW1  566   0.069   1.631   3.012 -0.8193  1.0818  0.1487
  189SOL    HW2  567   3.076   1.761   2.940 -2.5454  3.5374 -2.3558
  190SOL     OW  568   2.316   0.774   2.427  0.0922  0.1274  0.2021
  190SOL    HW1  569   2.337   0.861   2.376 -3.0249 -0.2497 -0.4825
  190SOL    HW2  570   2.399   0.735   2.467 -1.0886  1.7885 -1.9939
  191SOL     OW  571   0.729   1.302   2.037 -0.1631 -0.5884 -0.6725
  191SOL    HW1  572   0.689   1.306   1.947 -0.3635  0.7276  0.8106
  191SOL    HW2  573   0.720   1.211   2.077  1.7098  2.8115 -1.8695
  192SOL     OW  574   1.782   1.498   1.901  0.1923  0.0498 -0.2747
  192SOL    HW1  575   1.693   1.540   1.866 -0.9035  1.0311  1.2658
  192SOL    HW2  576   1.815   1.413   1.853  0.4762 -1.8091 -1.5912
  193SOL     OW  577   0.893   0.137   0.742  0.1660  0.5121 -0.3216
  193SOL    HW1  578   0.954   0.101   0.670  1.8957 -0.6820 -0.6536
  193SOL    HW2  579   0.949   0.190   0.810  1.2094  0.9563 -0.8481
  194SOL     OW  580   1.328   1.371   1.718  0.0113  0.0105  0.2178
  194SOL    HW1  581   1.369   1.296   1.663  1.8358  1.3910 -0.0620
  194SOL    HW2  582   1.294   1.329   1.805 -0.6634  0.2047  2.4128
  195SOL     OW  583   1.920   0.092   1.005  0.6576 -0.0685  0.2427
  195SOL    HW1  584   1.818   0.105   0.999 -0.0801  0.9097 -0.0507
  195SOL    HW2  585   1.960   0.071   0.910  0.2861  2.4432 -2.1421
  196SOL     OW  586   1.002   1.599   1.908 -0.8479 -0.8409 -0.3031
  196SOL    HW1  587   1.106   1.607   1.912 -0.3041 -2.3922 -1.0085
  196SOL    HW2  588   0.976   1.593   1.810 -0.4597 -2.0236  1.1008
  197SOL     OW  589   0.467   0.220   2.542  0.2005  0.0256 -0.5360
  197SOL    HW1  590   0.546   0.207   2.608 -0.0064  1.0756  2.4082
  197SOL    HW2  591   0.459   0.150   2.473 -0.4979  0.1413  0.2880
  198SOL     OW  592   2.833   1.054   0.948  0.0667  0.0439 -0.4733
  198SOL    HW1  593   2.861   1.033   1.045 -0.7288  0.2403  2.4894
  198SOL    HW2  594   2.745   1.101   0.950 -1.0796 -1.5345 -0.6077
  199SOL     OW  595   0.476   2.284   1.113  0.3795  0.0320 -0.0675
  199SOL    HW1  596   0.512   2.225   1.037 -0.6162 -2.1387 -4.4752
  199SOL    HW2  597   0.388   2.253   1.150  4.5221  1.8615  3.1320
  200SOL     OW  598   2.810   1.912   2.717 -0.3365  0.6382 -0.0876
  200SOL    HW1  599   2.865   1.831   2.751  2.7714 -0.9146 -0.8278
  200SOL    HW2  600   2.714   1.883   2.702 -0.9722  2.6812 -0.8893
  201SOL     OW  601   0.976   2.491   1.234  0.0889  0.5271  1.0142
  201SOL    HW1  602   1.002   2.494   1.132  3.5973 -1.4913 -0.2377
  201SOL    HW2  603   0.878   2.459   1.243 -3.2007 -1.0699  0.7755
  202SOL     OW  604   1.094   2.696   0.204  0.1861  0.3576 -0.2243
  202SOL    HW1  605   1.028   2.664   0.128 -2.2349 -2.2413 -1.3315
  202SOL    HW2  606   1.167   2.752   0.158 -0.2239  1.8464  1.1526
  203SOL     OW  607   1.759   2.968   2.878 -0.6268 -0.2269 -0.2834
  203SOL    HW1  608   1.728   3.028   2.805  2.0659 -0.2823  2.7324
  203SOL    HW2  609   1.841   2.917   2.847 -0.2112  0.1892 -1.2202
  204SOL     OW  610   0.436   1.625   1.534  0.2085 -0.0017 -0.3074
  204SOL    HW1  611   0.464   1.609   1.437  0.3635  1.7781  2.2045
  204SOL    HW2  612   0.510   1.595   1.597 -0.5278  0.2246  2.2654
  205SOL     OW  613   2.093   1.389   2.235 -0.0572  0.1522  0.2078
  205SOL    HW1  614   2.196   1.385   2.249 -0.7908  0.7304 -2.5560
  205SOL    HW2  615   2.075   1.374   2.136  0.2919 -0.1415  0.5713
  206SOL     OW  616   0.152   1.929   0.010  0.4395 -0.2828 -0.6435
  206SOL    HW1  617   0.129   1.919   3.003  1.1101  1.5474  2.5799
  206SOL    HW2  618   0.083   1.885   0.066 -1.2705  1.7736 -1.2721
  207SOL     OW  619   0.435   2.130   2.208 -0.3628 -0.2124  0.4802
  207SOL    HW1  620   0.510   2.065   2.237  2.6896 -1.2513  3.6243
  207SOL    HW2  621   0.458   2.190   2.128 -0.2711 -1.5631  0.4065
  208SOL     OW  622   0.247   2.687   1.350 -0.1924  0.1168 -0.4031
  208SOL    HW1  623   0.207   2.634   1.428 -2.4333  0.3187  1.3172
  208SOL    HW2  624   0.196   2.775   1.341 -0.5913  0.9663 -0.4417
  209SOL     OW  625   1.181   2.715   2.163  0.3709 -0.2616 -0.5888
  209SOL    HW1  626   1.101   2.678   2.111  2.9219  0.9383 -3.3395
  209SOL    HW2  627   1.149   2.791   2.219 -0.7293 -2.0156 -2.2657
  210SOL     OW  628   2.861   1.085   2.005  0.3997 -0.6155 -0.2803
  210SOL    HW1  629   2.946   1.041   1.980 -4.7939 -1.5943 -0.8902
  210SOL    HW2  630   2.808   1.032   2.072 -2.9894  1.0071 -0.7914
  211SOL     OW  631   1.365   3.083   2.113 -0.6155 -0.4619 -0.1066
  211SOL    HW1  632   1.464   3.059   2.136  1.2870  0.9763  2.6066
  211SOL    HW2  633   1.322   0.066   2.167 -0.9335  1.7844 -1.7390
  212SOL     OW  634   1.773   2.622   1.821  0.1174 -0.1991  0.1504
  212SOL    HW1  635   1.818   2.676   1.896  0.3203 -0.3612 -0.6217
  212SOL    HW2  636   1.831   2.621   1.738  1.9722 -0.7502 -0.4399
  213SOL     OW  637   2.549   0.574   1.796 -0.0236  0.1903  1.0077
  213SOL    HW1  638   2.554   0.488   1.739 -0.1984 -0.3388 -2.7609
  213SOL    HW2  639   2.626   0.629   1.774 -3.2011 -0.4563  1.5732
  214SOL     OW  640   0.793   2.147   0.759 -0.2143 -0.2219  0.1893
  214SOL    HW1  641   0.848   2.062   0.753 -1.1632  1.5840 -0.8271
  214SOL    HW2  642   0.808   2.212   0.681 -1.2934  1.3373  0.9237
  215SOL     OW  643   2.441   1.862   0.785 -0.1811 -0.7891 -0.2531
  215SOL    HW1  644   2.532   1.846   0.830  1.3048 -0.6430 -2.5501
  215SOL    HW2  645   2.452   1.865   0.685 -1.5603 -0.3433 -0.2016
  216SOL     OW  646   2.764   0.702   1.690 -0.2762  0.1183  0.0764
  216SOL    HW1  647   2.769   0.801   1.673  0.9788  1.1906 -0.3040
  216SOL    HW2  648   2.820   0.655   1.623 -0.5589 -0.9758 -1.2623
  217SOL     OW  649   2.065   0.394   1.550 -0.9540  0.0590 -0.0609
  217SOL    HW1  650   2.133   0.453   1.507  0.1744 -0.8347  3.0896
  217SOL    HW2  651   1.974   0.402   1.510 -0.4943 -2.9849 -1.9053
  218SOL     OW  652   2.002   2.306   1.322 -0.3618  0.0588  0.0331
  218SOL    HW1  653   2.038   2.354   1.238  0.2981 -2.4206  0.2630
  218SOL    HW2  654   1.919   2.354   1.364 -0.2742  2.2283 -0.3902
  219SOL     OW  655   2.228   2.375   0.219 -0.8001  0.5441  0.1583
  219SOL    HW1  656   2.175   2.287   0.213 -0.8312 -0.6579 -0.1559
  219SOL    HW2  657   2.174   2.454   0.220  3.7842 -0.0157  1.9884
  220SOL     OW  658   1.550   2.786   0.212 -0.4830  0.1526  0.4695
  220SOL    HW1  659   1.570   2.706   0.282  2.0375  0.3388  1.6665
  220SOL    HW2  660   1.640   2.803   0.160 -1.6159 -0.9636 -1.5882
  221SOL     OW  661   0.067   2.092   1.651 -0.7458  0.2054  0.6130
  221SOL    HW1  662   3.075   2.036   1.655 -0.5332  1.2096 -1.8512
  221SOL    HW2  663   0.138   2.062   1.721 -0.7660 -2.0846  2.0462
  222SOL     OW  664   1.755   2.502   0.809  0.3290  0.2109 -0.2485
  222SOL    HW1  665   1.757   2.446   0.894 -0.4755 -0.1383 -2.1836
  222SOL    HW2  666   1.703   2.454   0.734 -1.3691  0.4414  1.6306
  223SOL     OW  667   1.371   2.554   1.293 -0.6421  0.4560 -0.0805
  223SOL    HW1  668   1.394   2.609   1.374 -2.2316 -1.4997  0.0524
  223SOL    HW2  669   1.354   2.456   1.317  3.5645 -1.7383  1.9379
  224SOL     OW  670   2.843   2.518   1.493  0.1111  0.0380  0.2354
  224SOL    HW1  671   2.883   2.552   1.402  2.2748 -1.4760  1.3647
  224SOL    HW2  672   2.870   2.578   1.571  1.3903  0.2775 -0.4986
  225SOL     OW  673   2.343   2.162   0.852  0.0076 -0.2139  0.3459
  225SOL    HW1  674   2.340   2.068   0.818 -2.1988 -0.1141 -2.2233
  225SOL    HW2  675   2.258   2.218   0.839 -0.9298  0.5386  1.6226
  226SOL     OW  676   1.296   2.388   0.141 -0.4372  0.0724  0.1417
  226SOL    HW1  677   1.372   2.323   0.118 -0.2866  0.3388 -1.8022
  226SOL    HW2  678   1.282   2.386   0.244  3.0509 -0.0435  0.5046
  227SOL     OW  679   1.949   1.078   0.680 -0.0307 -0.0148  0.0055
  227SOL    HW1  680   1.861   1.086   0.636 -0.9419  1.2832  1.7293
  227SOL    HW2  681   1.985   0.982   0.661 -3.0726 -0.5794  2.2099
  228SOL     OW  682   1.546   0.648   0.071 -0.6839  0.4077 -0.6604
  228SOL    HW1  683   1.525   0.555   0.100 -0.2308 -0.6669  0.2172
  228SOL    HW2  684   1.461   0.692   0.037  0.6451  0.6019  1.4291
  229SOL     OW  685   2.785   0.991   2.405  0.2718 -0.0926 -0.5364
  229SOL    HW1  686   2.738   0.965   2.318 -0.5232 -0.3676  0.8507
  229SOL    HW2  687   2.848   0.914   2.434  1.8054 -1.2618 -1.3125
  230SOL     OW  688   0.336   1.257   0.952  0.2840  0.5885 -0.0628
  230SOL    HW1  689   0.370   1.233   1.046 -0.5312  0.6678  1.2145
  230SOL    HW2  690   0.411   1.235   0.890 -2.0239 -0.2798  0.7584
  231SOL     OW  691   2.535   0.462   2.690 -0.7703 -0.1833 -0.1095
  231SOL    HW1  692   2.461   0.522   2.724  1.5281  0.0482 -1.8790
  231SOL    HW2  693   2.611   0.450   2.757  0.1085 -0.8443  1.1097
  232SOL     OW  694   2.858   1.987   0.781 -0.1207 -0.2192  0.0163
  232SOL    HW1  695   2.950   2.019   0.759 -1.5203 -1.6464 -2.0359
  232SOL    HW2  696   2.789   2.058   0.812  0.0899 -0.7234  0.1516
  233SOL     OW  697   1.666   2.572   2.509  0.0663  0.2913  0.0606
  233SOL    HW1  698   1.638   2.658   2.553 -0.6160 -1.4038 -1.2925
  233SOL    HW2  699   1.620   2.555   2.417  0.6510 -1.4608 -1.2381
  234SOL     OW  700   1.341   1.898   1.265  0.1321 -0.5916  0.6043
  234SOL    HW1  701   1.382   1.886   1.358  1.7847 -1.9441 -1.9819
  234SOL    HW2  702   1.321   1.995   1.250 -2.4702  1.0236  1.9401
  235SOL     OW  703   1.012   1.868   1.689  0.4044  0.1655 -0.3121
  235SOL    HW1  704   0.933   1.859   1.748  3.2290 -0.0684 -1.5540
  235SOL    HW2  705   0.993   1.832   1.592  0.3312  0.9097 -2.4568
  236SOL     OW  706   0.851   2.474   2.651 -0.2920 -0.7496  0.2565
  236SOL    HW1  707   0.943   2.503   2.612  3.9994 -0.2217 -2.4574
  236SOL    HW2  708   0.865   2.450   2.752 -0.5857  2.0374  1.6209
  237SOL     OW  709   0.604   3.036   1.491  0.1944 -0.1458 -0.0005
  237SOL    HW1  710   0.587   2.964   1.562 -0.2817  2.5926  0.2564
  237SOL    HW2  711   0.621   0.040   1.534  3.7953  0.9083  0.9702
  238SOL     OW  712   0.987   0.736   0.221 -0.1398 -0.3247  0.1748
  238SOL    HW1  713   1.063   0.759   0.286 -0.2538 -1.3946  0.5634
  238SOL    HW2  714   0.901   0.762   0.268  0.0320  0.8776  0.1298
  239SOL     OW  715   2.368   0.673   2.754 -0.4141  0.3239 -0.8085
  239SOL    HW1  716   2.330   0.761   2.722 -0.7805 -2.2453  1.9383
  239SOL    HW2  717   2.293   0.613   2.793 -1.1747  2.0316 -1.5795
  240SOL     OW  718   2.778   2.149   1.134 -0.2044 -0.0169  0.2767
  240SOL    HW1  719   2.698   2.105   1.178  1.1722 -1.9834  2.2373
  240SOL    HW2  720   2.855   2.084   1.126 -1.3143  0.1932  0.2556
  241SOL     OW  721   1.192   1.662   0.749 -0.0603  0.0106  0.0268
  241SOL    HW1  722   1.280   1.645   0.703 -0.7306 -2.9881  0.0811
  241SOL    HW2  723   1.121   1.595   0.719 -2.5552  1.2794 -0.8038
  242SOL     OW  724   1.034   0.506   0.807  0.2296  0.1522 -0.9160
  242SOL    HW1  725   0.966   0.562   0.762 -0.2486  0.8051 -0.9355
  242SOL    HW2  726   1.085   0.455   0.735  0.9896  1.7737 -3.1329
  243SOL     OW  727   0.590   0.555   1.077  0.1577 -0.4423 -0.0115
  243SOL    HW1  728   0.514   0.564   1.142  0.2971  0.5342  4.0524
  243SOL    HW2  729   0.556   0.549   0.980 -1.0158 -1.9335 -3.0481
  244SOL     OW  730   1.148   0.142   0.397  0.1637  0.0715 -0.1516
  244SOL    HW1  731   1.116   0.053   0.435 -0.4953 -0.9004 -1.2234
  244SOL    HW2  732   1.072   0.215   0.403 -2.8405  3.2363 -0.5024
  245SOL     OW  733   1.918   0.794   0.372 -0.1697 -0.0015  0.0922
  245SOL    HW1  734   1.922   0.794   0.476 -1.3342 -1.1083  2.8679
  245SOL    HW2  735   1.987   0.867   0.355 -0.0509 -1.3959  1.6206
  246SOL     OW  736   0.342   0.171   1.662  0.0310  0.6118  0.1654
  246SOL    HW1  737   0.301   0.089   1.703  0.9921 -0.8443  0.6007
  246SOL    HW2  738   0.427   0.149   1.604  2.6784 -2.4795 -1.6075
  247SOL     OW  739   0.913   0.115   1.875 -0.2119 -0.1813  0.2833
  247SOL    HW1  740   0.998   0.138   1.824 -1.4498  1.6319 -1.7825
  247SOL    HW2  741   0.931   0.118   1.976  1.1429 -0.8903  0.8852
  248SOL     OW  742   0.448   1.748   2.150  0.2295 -0.4776  0.5313
  248SOL    HW1  743   0.515   1.820   2.188 -0.6139  0.4680  2.5299
  248SOL    HW2  744   0.441   1.679   2.221  1.0608  0.1769  0.1937
  249SOL     OW  745   0.564   2.475   0.271  0.5253 -0.4511 -0.3370
  249SOL    HW1  746   0.469   2.472   0.234 -0.7242 -1.6642  0.0355
  249SOL    HW2  747   0.628   2.538   0.222 -1.3342 -1.2685 -0.0685
  250SOL     OW  748   0.716   0.180   2.103 -0.9398 -0.3822 -0.3408
  250SOL    HW1  749   0.623   0.176   2.148 -1.3419  0.9502  0.1150
  250SOL    HW2  750   0.696   0.163   2.006  0.7797  0.4187  1.7659
  251SOL     OW  751   2.946   1.916   1.677 -0.3430  0.3948  0.3576
  251SOL    HW1  752   2.937   1.836   1.733  0.6209  2.7329 -2.0226
  251SOL    HW2  753   2.888   1.993   1.717 -1.1777  2.1117 -4.8529
  252SOL     OW  754   1.317   0.245   1.822  0.4714 -0.0694  0.0480
  252SOL    HW1  755   1.330   0.281   1.914 -2.8349 -2.6482 -1.2940
  252SOL    HW2  756   1.313   0.139   1.822 -2.3001 -0.6813  0.1997
  253SOL     OW  757   2.238   1.923   2.095 -0.5220  0.1148 -0.6270
  253SOL    HW1  758   2.246   2.016   2.051 -0.4147  1.2499  0.5939
  253SOL    HW2  759   2.228   1.933   2.196 -0.5188 -1.1738  1.1548
  254SOL     OW  760   0.771   1.472   0.906  0.1557  0.3275  0.5409
  254SOL    HW1  761   0.794   1.556   0.857  0.4842 -0.4455 -1.4193
  254SOL    HW2  762   0.810   1.392   0.857 -1.5287  2.0022 -1.0876
  255SOL     OW  763   0.270   2.716   2.058  0.4280 -0.4193  0.4717
  255SOL    HW1  764   0.205   2.659   1.998 -3.7289 -1.8074 -0.3893
  255SOL    HW2  765   0.369   2.711   2.030 -2.4210 -0.5525 -0.4661
  256SOL     OW  766   0.435   2.648   0.484  0.2388  0.8012  0.1242
  256SOL    HW1  767   0.509   2.581   0.500 -1.7311  0.6142 -1.6005
  256SOL    HW2  768   0.398   2.622   0.389  1.2011 -4.9969 -3.1352
  257SOL     OW  769   1.208   2.380   2.241 -0.4894  0.3855 -0.1695
  257SOL    HW1  770   1.297   2.415   2.266 -2.2531 -0.1236 -0.6163
  257SOL    HW2  771   1.211   2.375   2.141  0.7145 -1.3244  4.6644
  258SOL     OW  772   1.381   2.032   1.928 -0.6488  0.0592  0.4338
  258SOL    HW1  773   1.332   2.073   1.847 -1.0422  1.0322 -0.4103
  258SOL    HW2  774   1.470   2.076   1.942 -0.3382 -0.5687 -1.3866
  259SOL     OW  775   0.902   0.766   2.046  0.4813 -0.8332 -0.2225
  259SOL    HW1  776   0.958   0.819   1.979 -1.8114 -2.3519  0.3871
  259SOL    HW2  777   0.804   0.799   2.032 -1.8644 -1.5408  0.8685
  260SOL     OW  778   2.842   0.783   2.759  0.7129  0.5058  0.1341
  260SOL    HW1  779   2.918   0.813   2.816  0.2026 -1.2790 -1.9705
  260SOL    HW2  780   2.755   0.763   2.807 -0.1799  0.7588 -3.1724
  261SOL     OW  781   0.838   1.263   0.766  0.6083 -0.2144  0.7794
  261SOL    HW1  782   0.937   1.224   0.773  1.0056  0.5045 -0.8810
  261SOL    HW2  783   0.811   1.280   0.669  1.0673 -0.9906 -0.4418
  262SOL     OW  784   2.218   2.081   2.351 -0.3734 -0.6331  0.1989
  262SOL    HW1  785   2.154   2.147   2.390  0.9429 -0.2461 -0.4576
  262SOL    HW2  786   2.293   2.078   2.420 -1.3891  1.7890  3.7680
  263SOL     OW  787   0.730   2.888   0.969 -0.1821 -0.0401  0.6053
  263SOL    HW1  788   0.790   2.906   1.049 -0.0325 -0.0393  1.9824
  263SOL    HW2  789   0.650   2.834   0.992  0.7809  1.7355 -1.4217
  264SOL     OW  790   2.929   2.159   0.450  0.4372  0.1781 -0.1089
  264SOL    HW1  791   2.911   2.223   0.529  1.6697  1.0630 -0.5278
  264SOL    HW2  792   2.848   2.105   0.425 -0.3542 -1.0661 -0.1905
  265SOL     OW  793   2.081   1.332   2.582 -0.1123  0.2648  0.1232
  265SOL    HW1  794   1.983   1.341   2.563  3.3404  0.6822  1.5813
  265SOL    HW2  795   2.112   1.419   2.623  0.0508 -3.1306 -2.0774
  266SOL     OW  796   1.304   1.868   2.140 -0.0059  0.4643 -0.2502
  266SOL    HW1  797   1.310   1.951   2.080 -1.5363  1.1132  1.2375
  266SOL    HW2  798   1.208   1.843   2.156  4.1068  4.8798 -1.8149
  267SOL     OW  799   2.695   0.622   2.511  0.3837 -0.1876 -0.9091
  267SOL    HW1  800   2.646   0.706   2.541 -2.1496 -2.6886  0.4891
  267SOL    HW2  801   2.641   0.542   2.550  1.9103 -1.5336  0.4194
  268SOL     OW  802   1.014   1.228   2.927 -0.3002  0.2915  0.0290
  268SOL    HW1  803   1.016   1.311   2.865 -2.3261  0.2113  0.4057
  268SOL    HW2  804   1.104   1.189   2.956 -0.0095 -0.0400 -0.3267
  269SOL     OW  805   0.029   2.046   2.024 -0.1400  0.2379  0.1938
  269SOL    HW1  806   0.015   1.969   2.088  1.2153  0.8237 -0.6363
  269SOL    HW2  807   3.034   2.103   2.016 -0.0289  3.1239  0.5519
  270SOL     OW  808   3.010   1.837   0.143 -0.0694 -0.2134 -0.0984
  270SOL    HW1  809   2.953   1.791   0.211 -1.2957 -0.6065 -0.1411
  270SOL    HW2  810   3.005   1.787   0.051 -0.2008  1.1525  1.8335
  271SOL     OW  811   0.344   0.317   0.329 -0.0355  0.3546 -0.1164
  271SOL    HW1  812   0.399   0.300   0.412 -3.4994  1.7303  0.2023
  271SOL    HW2  813   0.293   0.405   0.338 -2.1399 -0.6937 -0.1599
  272SOL     OW  814   0.044   2.855   0.678  0.2819  0.2892  0.0757
  272SOL    HW1  815   3.058   2.882   0.741  0.2758  1.0649 -0.1777
  272SOL    HW2  816   0.019   2.774   0.618 -0.9054  2.7181 -1.5966
  273SOL     OW  817   0.202   2.954   2.202 -0.5871 -0.2250 -0.0806
  273SOL    HW1  818   0.191   2.921   2.294 -1.6502  2.9884 -3.2680
  273SOL    HW2  819   0.231   2.877   2.143  1.2943 -0.2287 -0.5315
  274SOL     OW  820   0.368   0.435   1.230 -0.1708 -0.3711 -0.3355
  274SOL    HW1  821   0.321   0.394   1.150  1.6149  3.1109  3.1398
  274SOL    HW2  822   0.310   0.505   1.281 -2.8747 -1.0074  2.9879
  275SOL     OW  823   1.092   1.773   1.013  0.0372 -0.1417  0.2156
  275SOL    HW1  824   1.137   1.735   1.095 -0.9785 -0.5493 -0.9420
  275SOL    HW2  825   1.135   1.730   0.934  1.3787  3.2745  0.3260
  276SOL     OW  826   0.431   1.632   1.901 -0.4629 -0.0364  0.3347
  276SOL    HW1  827   0.434   1.670   1.995  1.4539  0.1439 -2.4412
  276SOL    HW2  828   0.362   1.556   1.886  0.2216 -1.3805 -0.4983
  277SOL     OW  829   1.275   2.202   1.706 -0.1119  0.3392  0.2321
  277SOL    HW1  830   1.304   2.301   1.727 -2.6955  0.3271  1.9150
  277SOL    HW2  831   1.183   2.186   1.746  2.2857 -1.5129  0.2443
  278SOL     OW  832   2.128   0.033   2.182  0.7770  0.5015  0.3246
  278SOL    HW1  833   2.048   3.069   2.200 -0.2855 -0.0682 -0.0285
  278SOL    HW2  834   2.103   0.129   2.208 -2.8392 -0.2089  0.4590
  279SOL     OW  835   1.797   1.625   3.059  0.0780 -0.6387  0.1240
  279SOL    HW1  836   1.754   1.702   3.008  1.8837  3.4446  0.8491
  279SOL    HW2  837   1.870   1.669   0.016 -3.5436  1.6190  0.7472
  280SOL     OW  838   1.717   0.394   0.629 -0.6097  0.2410  0.2021
  280SOL    HW1  839   1.656   0.335   0.682  3.2951  5.3299 -3.7507
  280SOL    HW2  840   1.664   0.472   0.590  0.8362 -0.5004 -0.2436
  281SOL     OW  841   0.378   0.367   2.030  0.1921 -0.1684 -0.1136
  281SOL    HW1  842   0.375   0.367   1.932 -1.9658  0.3061  3.8580
  281SOL    HW2  843   0.412   0.465   2.068  0.8139  4.3609  0.6396
  282SOL     OW  844   0.320   2.831   0.646 -0.1709 -0.0343  0.1797
  282SOL    HW1  845   0.220   2.840   0.663  0.6825  0.7196  0.4017
  282SOL    HW2  846   0.341   2.761   0.572  0.2068 -1.9817  0.7126
  283SOL     OW  847   1.330   2.297   1.346  0.2747  0.1949  0.3384
  283SOL    HW1  848   1.293   2.237   1.273 -0.3924  0.2834  0.1550
  283SOL    HW2  849   1.391   2.238   1.402 -2.1615  2.2540  0.5350
  284SOL     OW  850   2.251   2.565   1.379  0.0924 -0.1238  0.1947
  284SOL    HW1  851   2.262   2.547   1.281 -0.8611  0.5402 -1.1438
  284SOL    HW2  852   2.307   2.505   1.441 -0.3211  1.0685  1.6323
  285SOL     OW  853   0.537   2.093   0.909 -0.2984 -0.7565 -0.6970
  285SOL    HW1  854   0.630   2.104   0.875 -1.9501 -0.6925 -1.6338
  285SOL    HW2  855   0.466   2.107   0.841  2.2679 -3.1993  2.5102
  286SOL     OW  856   0.001   2.653   1.876 -0.1134 -1.0816  0.6021
  286SOL    HW1  857   3.058   2.709   1.956 -3.4286  1.8821  2.0459
  286SOL    HW2  858   3.045   2.565   1.873  0.7940 -2.4434 -0.0123
  287SOL     OW  859   0.575   1.179   0.843  0.4404 -0.5479 -0.2383
  287SOL    HW1  860   0.657   1.233   0.834 -0.6482 -1.8542  0.4006
  287SOL    HW2  861   0.568   1.112   0.764  0.5205 -2.2771 -1.3987
  288SOL     OW  862   1.300   2.056   2.534  0.3588 -0.1598  0.0959
  288SOL    HW1  863   1.368   2.003   2.488 -1.0038  0.0575  0.3295
  288SOL    HW2  864   1.291   2.002   2.617  0.6690 -1.5823 -1.4329
  289SOL     OW  865   2.412   1.339   2.687  0.1557 -0.0432 -0.2718
  289SOL    HW1  866   2.420   1.333   2.786 -0.6472  2.3880 -3.0636
  289SOL    HW2  867   2.347   1.409   2.668  0.9134 -0.7845  2.4474
  290SOL     OW  868   1.373   1.395   1.030 -0.2733 -0.4603  0.3447
  290SOL    HW1  869   1.299   1.358   1.092  0.6676  0.1386  0.4021
  290SOL    HW2  870   1.389   1.494   1.040  3.5081 -1.2629  1.6685
  291SOL     OW  871   1.136   0.934   0.019 -0.2132 -0.4425  0.0836
  291SOL    HW1  872   1.079   0.902   0.092  0.7508 -1.8472 -1.3565
  291SOL    HW2  873   1.093   0.925   3.017  0.3908 -0.2540  1.4637
  292SOL     OW  874   2.029   1.616   0.579 -0.0327  0.0441 -0.1326
  292SOL    HW1  875   2.013   1.587   0.480  2.7766  2.5931  0.9317
  292SOL    HW2  876   2.126   1.587   0.609  3.9327  0.8304 -1.9486
  293SOL     OW  877   1.659   0.017   1.103  0.2087 -0.4319  0.4238
  293SOL    HW1  878   1.676   0.017   1.199 -2.1722  0.9684 -2.9860
  293SOL    HW2  879   1.630   0.112   1.077  0.7954  2.9832  2.2251
  294SOL     OW  880   2.072   1.062   0.098  0.3313 -0.1617 -0.0265
  294SOL    HW1  881   2.154   1.016   0.053 -1.7317  2.3195  0.2913
  294SOL    HW2  882   2.080   1.046   0.196 -2.0050  1.9326  0.7385
  295SOL     OW  883   2.130   1.931   2.651 -0.2459  0.2554  0.4572
  295SOL    HW1  884   2.067   1.878   2.714 -0.3999 -3.7296 -0.0672
  295SOL    HW2  885   2.071   1.980   2.586 -0.9642 -0.7928 -0.3825
  296SOL     OW  886   1.503   1.448   1.326 -0.1383 -0.1795  0.1230
  296SOL    HW1  887   1.555   1.511   1.268 -1.1893  0.1947  2.0860
  296SOL    HW2  888   1.422   1.496   1.366 -1.9463  1.3185 -0.2107
  297SOL     OW  889   0.347   0.859   2.468  0.3044  0.2902 -0.4094
  297SOL    HW1  890   0.315   0.778   2.514  2.2085  0.2293 -1.8871
  297SOL    HW2  891   0.434   0.885   2.505 -1.0974 -0.2423 -0.9990
  298SOL     OW  892   1.794   2.440   1.421  0.2417  0.6115  0.6368
  298SOL    HW1  893   1.756   2.373   1.488 -2.9683 -1.8746 -0.6597
  298SOL    HW2  894   1.845   2.517   1.463 -1.5190  2.6224  0.2874
  299SOL     OW  895   1.005   0.425   2.614 -0.5558  0.1386 -0.1038
  299SOL    HW1  896   0.999   0.516   2.661 -3.2488  3.0592  0.5336
  299SOL    HW2  897   0.987   0.356   2.686 -1.7774  0.5996 -0.9139
  300SOL     OW  898   2.226   1.375   0.428 -0.2689 -0.2754 -0.6827
  300SOL    HW1  899   2.259   1.449   0.365 -0.4174 -1.5169 -2.3304
  300SOL    HW2  900   2.132   1.347   0.394 -0.8142 -0.7367 -4.5459
  301SOL     OW  901   2.331   0.309   2.520  0.1480 -0.3599 -0.3115
  301SOL    HW1  902   2.400   0.298   2.447 -2.3638 -1.9245  0.6075
  301SOL    HW2  903   2.375   0.326   2.610 -1.3004 -1.3020  0.3716
  302SOL     OW  904   2.678   1.534   2.435 -0.6249 -0.1694  0.7082
  302SOL    HW1  905   2.633   1.442   2.444  1.5848 -1.6358 -1.3005
  302SOL    HW2  906   2.612   1.614   2.423 -1.7389  2.9025  0.0740
  303SOL     OW  907   0.204   2.439   2.513  0.4316  0.6707  0.8643
  303SOL    HW1  908   0.211   2.522   2.453  0.9207 -0.5612 -4.3747
  303SOL    HW2  909   0.185   2.468   2.608  1.2245 -0.5115 -1.2536
  304SOL     OW  910   2.926   1.321   1.177 -0.1926  0.5347  0.4245
  304SOL    HW1  911   2.906   1.226   1.202  0.3754  4.7608 -1.8921
  304SOL    HW2  912   3.021   1.332   1.148 -2.5270 -0.3158 -0.7440
  305SOL     OW  913   0.178   0.408   2.211 -0.0233  0.1449  0.4143
  305SOL    HW1  914   0.248   0.381   2.141  1.0471 -0.1837  0.0669
  305SOL    HW2  915   0.125   0.331   2.250 -0.9847  0.6841  1.2030
  306SOL     OW  916   1.322   1.450   0.317 -0.0319  0.4187  0.3992
  306SOL    HW1  917   1.342   1.381   0.390  1.2993  2.2043  0.2499
  306SOL    HW2  918   1.378   1.535   0.330  2.1735  0.6638 -0.3047
  307SOL     OW  919   2.797   0.151   1.169  0.5449  0.5228  0.0447
  307SOL    HW1  920   2.804   0.146   1.070  0.0047 -0.0278 -0.9909
  307SOL    HW2  921   2.885   0.195   1.201  0.2943  0.0826  0.0359
  308SOL     OW  922   2.989   1.630   2.676 -0.1136  0.1092 -0.0655
  308SOL    HW1  923   2.921   1.554   2.698 -0.7674 -0.2742  0.0004
  308SOL    HW2  924   2.981   1.657   2.581  1.1621 -0.0452  2.9389
  309SOL     OW  925   0.116   1.901   2.838  0.0476  0.4360  0.3795
  309SOL    HW1  926   0.090   1.997   2.813  0.7338  3.2949  0.4452
  309SOL    HW2  927   0.191   1.874   2.777 -0.5016 -0.8812  2.0394
  310SOL     OW  928   2.416   0.399   0.012  0.5078  0.2132 -0.0403
  310SOL    HW1  929   2.488   0.470   3.089 -1.6912  2.4287 -1.4071
  310SOL    HW2  930   2.356   0.418   0.094 -1.8160  0.4463  1.1517
  311SOL     OW  931   2.067   1.099   2.788 -0.1068  0.9666 -0.2338
  311SOL    HW1  932   2.047   1.182   2.735  0.1893  0.6373 -1.6274
  311SOL    HW2  933   1.987   1.065   2.843 -1.2750 -3.5960 -1.0260
  312SOL     OW  934   1.204   1.282   2.007  0.3247 -0.1999 -0.5718
  312SOL    HW1  935   1.294   1.318   2.049  2.9832  0.6718 -0.1597
  312SOL    HW2  936   1.119   1.321   2.052 -0.5817 -1.1391  0.6503
  313SOL     OW  937   0.056   0.550   0.110 -0.0936  0.4101 -0.3746
  313SOL    HW1  938   0.058   0.456   0.075 -0.5927 -0.9576  1.3219
  313SOL    HW2  939   3.058   0.564   0.153  2.0987 -1.9817 -1.7180
  314SOL     OW  940   0.337   1.891   1.506 -0.3265  0.0900  0.0150
  314SOL    HW1  941   0.384   1.957   1.570  0.2720 -0.2537  1.3795
  314SOL    HW2  942   0.367   1.794   1.525  2.5704  2.4392 -0.5517
  315SOL     OW  943   1.151   1.679   1.299  0.0211 -0.0335  0.2662
  315SOL    HW1  944   1.159   1.626   1.386 -0.5408 -3.1740  0.3715
  315SOL    HW2  945   1.231   1.742   1.294 -1.2399  1.0472  0.6212
  316SOL     OW  946   0.207   2.228   0.559  0.5704  0.6105 -0.8662
  316SOL    HW1  947   0.189   2.149   0.504  1.9329  2.6565 -0.3172
  316SOL    HW2  948   0.291   2.210   0.616  1.3801 -2.3631 -0.4722
  317SOL     OW  949   2.614   0.424   1.073  0.0769  0.3511 -0.2703
  317SOL    HW1  950   2.567   0.490   1.131  1.2229  1.5076 -2.1297
  317SOL    HW2  951   2.598   0.329   1.107  2.6924 -0.3611 -0.0799
  318SOL     OW  952   1.328   2.903   0.184  0.1555 -0.8935  0.1113
  318SOL    HW1  953   1.419   2.855   0.198  0.7571 -1.8246  0.7270
  318SOL    HW2  954   1.333   2.957   0.100  0.4473  3.3662  1.3761
  319SOL     OW  955   1.653   0.064   2.694 -0.6791 -0.3741  0.4366
  319SOL    HW1  956   1.655   0.162   2.720  0.4037  0.3912 -0.5393
  319SOL    HW2  957   1.676   0.056   2.595 -1.6762 -0.8819  0.6393
  320SOL     OW  958   2.622   1.965   2.045  0.4317 -0.3322  0.2190
  320SOL    HW1  959   2.666   1.895   2.100 -1.9997  0.1292 -1.9626
  320SOL    HW2  960   2.580   1.921   1.966  0.7692  0.6281  0.8239
  321SOL     OW  961   0.160   2.495   0.031  0.8483  0.3288  0.3667
  321SOL    HW1  962   0.094   2.515   3.050  0.5865  0.5855 -0.8798
  321SOL    HW2  963   0.161   2.397   0.044 -1.6307  0.2575 -0.8942
  322SOL     OW  964   2.732   0.985   1.707 -0.2983 -0.0833  0.0307
  322SOL    HW1  965   2.646   1.019   1.662 -0.1229  0.8034  2.0926
  322SOL    HW2  966   2.757   1.037   1.791 -0.2941  0.5983  2.3390
  323SOL     OW  967   1.819   1.272   0.361 -0.0598  0.4097 -0.3566
  323SOL    HW1  968   1.740   1.233   0.312  1.1926 -0.1369 -1.2940
  323SOL    HW2  969   1.797   1.286   0.459  2.0396  2.5883 -1.2019
  324SOL     OW  970   0.099   0.355   1.455  0.4119  0.4662  0.2717
  324SOL    HW1  971   0.157   0.428   1.424 -2.2526  0.3509  2.6474
  324SOL    HW2  972   0.083   0.349   1.552 -0.3115 -1.2359 -2.5467
  325SOL     OW  973   2.690   2.993   1.505  0.0919 -0.5403 -0.8321
  325SOL    HW1  974   2.747   2.978   1.425 -0.0150 -0.7714  1.1561
  325SOL    HW2  975   2.704   3.088   1.544  2.0056 -0.8869  1.6113
  326SOL     OW  976   1.598   2.597   0.386 -0.3076 -0.0341  0.0242
  326SOL    HW1  977   1.516   2.568   0.434  4.8495  2.1162  0.9553
  326SOL    HW2  978   1.666   2.522   0.393 -1.0894 -1.7318  1.3932
  327SOL     OW  979   2.032   2.104   0.482  0.0456  0.6862 -0.1780
  327SOL    HW1  980   1.980   2.020   0.517 -0.6564  3.5933 -1.4251
  327SOL    HW2  981   2.031   2.093   0.383 -0.3679 -0.0218  3.8729
  328SOL     OW  982   2.586   2.222   1.930 -0.4254  0.1889 -0.2618
  328SOL    HW1  983   2.562   2.134   1.978  1.1243 -2.2807 -0.0711
  328SOL    HW2  984   2.617   2.282   2.004  1.7445 -2.4985 -0.2324
  329SOL     OW  985   0.253   2.196   1.259 -0.0514  0.1065 -0.7505
  329SOL    HW1  986   0.211   2.272   1.307 -1.3747  0.2566  1.3928
  329SOL    HW2  987   0.199   2.112   1.265  2.5688  1.2505 -2.2470
  330SOL     OW  988   2.333   1.075   2.427  0.0968 -0.0326 -0.0886
  330SOL    HW1  989   2.232   1.081   2.403 -1.1352 -0.6148 -1.1105
  330SOL    HW2  990   2.390   1.146   2.380  1.3094 -0.4246 -1.6244
  331SOL     OW  991   2.293   1.575   0.636  0.1542 -0.2237 -0.2529
  331SOL    HW1  992   2.310   1.497   0.571  0.7025  0.2818 -1.8140
  331SOL    HW2  993   2.376   1.592   0.697  0.0097 -1.6583  0.8099
  332SOL     OW  994   0.100   2.959   1.289  0.0153 -0.2377 -1.0086
  332SOL    HW1  995   0.005   2.987   1.264 -0.3932 -1.3697 -1.1096
  332SOL    HW2  996   0.149   3.041   1.330  0.6327  2.0031  1.6978
  333SOL     OW  997   0.151   1.758   2.046 -0.0994 -0.1416  0.0171
  333SOL    HW1  998   0.143   1.742   1.948 -0.3314  2.6099  1.5933
  333SOL    HW2  999   0.240   1.792   2.077  0.2730 -0.2784 -0.0097
  334SOL     OW 1000   0.308   0.822   1.247 -0.6034 -0.1056 -0.5982
  334SOL    HW1 1001   0.253   0.897   1.216  0.5117 -1.5669 -0.7807
  334SOL    HW2 1002   0.337   0.772   1.161  1.2161  1.2726  0.3684
  335SOL     OW 1003   2.960   1.693   1.846  0.1339 -0.0217  0.0773
  335SOL    HW1 1004   3.060   1.719   1.853  2.0896 -1.0934  1.9272
  335SOL    HW2 1005   2.924   1.630   1.919 -2.0326  1.3373  0.2899
  336SOL     OW 1006   1.952   2.791   2.818  0.4422 -0.7496  0.7841
  336SOL    HW1 1007   1.905   2.708   2.788  2.0445 -0.1362  1.7849
  336SOL    HW2 1008   1.990   2.772   2.905  1.4380  0.8328  0.1935
  337SOL     OW 1009   0.795   0.628   1.247 -0.1685  0.1730 -0.3168
  337SOL    HW1 1010   0.789   0.722   1.213  0.0656  0.1277 -0.4045
  337SOL    HW2 1011   0.722   0.587   1.187  2.1369 -1.5887 -1.4295
  338SOL     OW 1012   1.445   2.378   1.015  0.3323  0.2280  0.4320
  338SOL    HW1 1013   1.514   2.400   1.083  0.1582  1.4309  0.7045
  338SOL    HW2 1014   1.364   2.322   1.047 -2.2063 -3.9006 -0.1322
  339SOL     OW 1015   0.500   2.043   1.296 -0.2839 -0.3198 -0.4071
  339SOL    HW1 1016   0.547   2.031   1.385 -0.1587  2.0968 -0.4945
  339SOL    HW2 1017   0.421   2.110   1.297 -3.1872  0.4163 -2.5191
  340SOL     OW 1018   0.455   0.177   2.196  0.1386  0.4705 -0.4200
  340SOL    HW1 1019   0.448   0.255   2.132 -1.8386 -3.4055  1.1173
  340SOL    HW2 1020   0.427   0.099   2.137  1.2633  3.9256 -1.3940
  341SOL     OW 1021   1.957   1.658   0.838 -0.2451  0.5559  0.1420
  341SOL    HW1 1022   1.959   1.636   0.740  3.9346 -1.1634  0.3221
  341SOL    HW2 1023   2.039   1.707   0.863 -2.3194  0.6760  1.3248
  342SOL     OW 1024   1.680   1.655   0.655  0.3146 -0.3537 -0.2573
  342SOL    HW1 1025   1.717   1.565   0.684 -0.7404 -0.7572  0.5547
  342SOL    HW2 1026   1.697   1.684   0.564 -2.1847 -0.6568  3.3928
  343SOL     OW 1027   2.206   0.269   0.897  0.6323  0.1112 -0.3387
  343SOL    HW1 1028   2.277   0.332   0.861  1.7844  0.1182  0.6132
  343SOL    HW2 1029   2.150   0.216   0.832  3.1717  1.5285  1.2023
  344SOL     OW 1030   2.730   0.179   2.896  0.4846  0.3613 -0.1173
  344SOL    HW1 1031   2.641   0.156   2.936 -1.6944  0.0782 -0.9340
  344SOL    HW2 1032   2.742   0.134   2.810  0.0110  1.1548  2.8302
  345SOL     OW 1033   1.158   2.739   1.243  0.1394 -0.2005  0.0138
  345SOL    HW1 1034   1.253   2.724   1.272 -0.1476 -2.6856 -0.1961
  345SOL    HW2 1035   1.102   2.656   1.232 -1.5153 -0.2640 -1.9748
  346SOL     OW 1036   2.345   2.377   1.561 -0.1507 -0.7493 -0.0176
  346SOL    HW1 1037   2.272   2.318   1.602  0.2940 -0.6316 -1.0882
  346SOL    HW2 1038   2.402   2.322   1.496 -1.2773 -0.0972  2.4603
  347SOL     OW 1039   2.419   0.096   0.940  0.4734  0.1032  0.1317
  347SOL    HW1 1040   2.329   0.129   0.907  1.9461 -1.7554 -1.4973
  347SOL    HW2 1041   2.428   0.111   1.037  0.0872 -3.7030 -2.2675
  348SOL     OW 1042   0.742   0.920   1.267 -0.2692 -0.3913  0.4373
  348SOL    HW1 1043   0.767   1.007   1.302  0.5082 -1.2727 -0.2220
  348SOL    HW2 1044   0.656   0.898   1.314  2.7434  2.3840  0.1480
  349SOL     OW 1045   2.450   0.147   2.993 -0.2267 -0.1565 -0.0463
  349SOL    HW1 1046   2.424   0.237   3.031 -0.8424 -3.3017 -0.1790
  349SOL    HW2 1047   2.449   0.139   2.892  2.4359 -0.3396  1.7207
  350SOL     OW 1048   2.562   1.850   0.099  0.6367 -1.0049 -0.4258
  350SOL    HW1 1049   2.589   1.756   0.112  1.4029  1.3922 -1.9059
  350SOL    HW2 1050   2.559   1.870   3.091  0.9180 -3.2243  0.9562
  351SOL     OW 1051   1.181   0.362   0.625 -0.3762  0.1530 -0.1628
  351SOL    HW1 1052   1.194   0.266   0.649 -1.1000 -1.0396 -0.7103
  351SOL    HW2 1053   1.104   0.383   0.557 -1.3361  0.0067 -0.7632
  352SOL     OW 1054   2.056   2.222   2.542 -0.3418 -0.4027 -0.4139
  352SOL    HW1 1055   1.961   2.262   2.540  1.0221 -0.4058  0.1941
  352SOL    HW2 1056   2.117   2.295   2.504  4.2508  0.3599 -0.0607
  353SOL     OW 1057   0.473   0.606   3.088 -0.5930 -0.2338 -0.4841
  353SOL    HW1 1058   0.452   0.514   3.052 -1.4129  0.6060  0.0240
  353SOL    HW2 1059   0.402   0.670   3.074 -1.0695  0.1219 -0.2765
  354SOL     OW 1060   1.213   1.849   3.024 -0.2801  0.1517  0.3819
  354SOL    HW1 1061   1.230   1.752   2.998  1.4825  0.3268 -0.2608
  354SOL    HW2 1062   1.137   1.855   0.003  1.4249 -1.6084 -0.0799
  355SOL     OW 1063   2.683   2.854   1.755  0.1775  0.3629 -0.3338
  355SOL    HW1 1064   2.692   2.913   1.679  1.9619 -0.7729  3.0332
  355SOL    HW2 1065   2.595   2.872   1.800  1.9551  1.6319 -0.6795
  356SOL     OW 1066   2.646   0.920   0.505  0.4878  0.1230 -0.0546
  356SOL    HW1 1067   2.686   0.873   0.587  0.8208 -1.5887 -1.3974
  356SOL    HW2 1068   2.571   0.860   0.470 -0.6428 -2.4136 -0.7437
  357SOL     OW 1069   2.428   0.439   0.885 -0.5537  0.0324  0.3294
  357SOL    HW1 1070   2.414   0.543   0.883 -1.4384  0.5417 -2.9166
  357SOL    HW2 1071   2.501   0.416   0.952 -2.6271 -1.8162 -1.1867
  358SOL     OW 1072   0.969   2.475   0.929  0.6809 -0.1868  0.7883
  358SOL    HW1 1073   0.869   2.462   0.942 -1.7291 -3.0398 -0.6258
  358SOL    HW2 1074   0.984   2.558   0.872 -0.2052  0.9364  0.5866
  359SOL     OW 1075   0.135   2.523   2.751 -0.3724 -0.3717 -0.3614
  359SOL    HW1 1076   0.189   2.446   2.789  1.5748 -0.1271 -0.1616
  359SOL    HW2 1077   0.037   2.526   2.776 -0.5827  1.9020 -1.9351
  360SOL     OW 1078   0.517   1.011   1.678 -0.1603 -0.6069 -0.1782
  360SOL    HW1 1079   0.421   1.032   1.709 -1.9504 -0.8258  2.3159
  360SOL    HW2 1080   0.507   0.940   1.610  1.1141 -1.1517  0.5460
  361SOL     OW 1081   2.445   2.770   0.546 -0.7986 -0.0567  0.3107
  361SOL    HW1 1082   2.373   2.753   0.612 -0.2515  2.3041 -0.2541
  361SOL    HW2 1083   2.483   2.867   0.553  0.4623  1.4245 -1.6144
  362SOL     OW 1084   0.201   0.024   0.901  0.7754 -0.4763  0.0962
  362SOL    HW1 1085   0.277   0.011   0.835  2.1074  2.9547  1.7767
  362SOL    HW2 1086   0.205   3.053   0.983  0.3924 -0.8979 -1.8970
  363SOL     OW 1087   0.769   1.266   0.509  0.1704  0.0180  0.2766
  363SOL    HW1 1088   0.804   1.208   0.433  0.9222 -0.7643  1.8281
  363SOL    HW2 1089   0.695   1.330   0.478  0.6163  0.0412  0.0215
  364SOL     OW 1090   0.632   1.525   1.739 -0.1464 -0.4531 -0.4737
  364SOL    HW1 1091   0.633   1.423   1.751  0.9842 -1.0074 -1.6048
  364SOL    HW2 1092   0.570   1.568   1.807  2.4461 -2.3984  0.6958
  365SOL     OW 1093   2.405   0.792   0.433  0.2225 -0.0192 -0.4014
  365SOL    HW1 1094   2.383   0.873   0.486  4.0549 -2.5391  0.2732
  365SOL    HW2 1095   2.409   0.823   0.336 -1.2311 -0.3858  0.0510
  366SOL     OW 1096   2.693   1.777   1.187  0.1908 -0.3948  0.3203
  366SOL    HW1 1097   2.660   1.854   1.246  0.7581 -1.6634 -0.2868
  366SOL    HW2 1098   2.723   1.704   1.247 -2.7698  1.2460 -2.0287
  367SOL     OW 1099   1.999   2.182   2.073  0.0234 -0.4692  0.0502
  367SOL    HW1 1100   1.967   2.115   2.000 -0.5830 -1.3457 -0.4806
  367SOL    HW2 1101   2.096   2.165   2.096 -1.2223 -1.6781  1.0456
  368SOL     OW 1102   2.734   1.356   0.985  0.3373  0.0705 -0.4811
  368SOL    HW1 1103   2.781   1.393   0.900 -1.6647  1.3975 -2.5716
  368SOL    HW2 1104   2.805   1.339   1.056 -1.7462  0.9659  0.9527
  369SOL     OW 1105   2.536   2.650   3.054 -0.3356 -0.1109 -0.0595
  369SOL    HW1 1106   2.594   2.686   0.036 -0.6873 -0.6354 -0.2933
  369SOL    HW2 1107   2.529   2.717   2.971 -0.0045  0.1283 -2.2736
  370SOL     OW 1108   3.082   2.997   1.615  0.0707  0.1768 -0.5851
  370SOL    HW1 1109   0.087   2.956   1.615  0.1689 -1.1928 -1.0462
  370SOL    HW2 1110   3.018   2.947   1.560  3.2938 -1.2062  1.7504
  371SOL     OW 1111   0.550   1.749   2.674  0.4655  0.1623 -0.5527
  371SOL    HW1 1112   0.607   1.759   2.758 -0.4378 -0.8807  0.9741
  371SOL    HW2 1113   0.594   1.805   2.601 -2.0502 -0.4639 -2.5598
  372SOL     OW 1114   0.854   1.079   0.329 -0.4018 -0.2335  0.6556
  372SOL    HW1 1115   0.792   0.997   0.354  0.0949 -0.2759  2.0509
  372SOL    HW2 1116   0.836   1.117   0.237  1.1168  0.8339  0.9958
  373SOL     OW 1117   1.426   2.499   2.814  0.3915  0.0254 -0.3642
  373SOL    HW1 1118   1.340   2.538   2.859 -0.4759  2.7939  0.3364
  373SOL    HW2 1119   1.397   2.472   2.721 -0.2119 -2.4915  2.0766
  374SOL     OW 1120   0.272   1.919   0.303  0.4983 -0.3152  0.9159
  374SOL    HW1 1121   0.284   1.924   0.203 -2.4450  1.6051 -0.8544
  374SOL    HW2 1122   0.184   1.961   0.332  0.7396  1.2835 -1.0459
  375SOL     OW 1123   0.882   1.580   1.677 -0.1698  0.0990 -0.7578
  375SOL    HW1 1124   0.782   1.556   1.688  0.8830  1.3712 -1.5540
  375SOL    HW2 1125   0.894   1.638   1.593 -1.1559  0.8146 -1.6011
  376SOL     OW 1126   0.643   2.390   1.774 -0.0468  0.7499  0.2342
  376SOL    HW1 1127   0.609   2.429   1.687  2.9736 -1.0421  0.2448
  376SOL    HW2 1128   0.742   2.398   1.781  1.7823 -2.3602 -0.3429
  377SOL     OW 1129   2.370   1.462   2.220 -0.0974 -0.1047  0.1139
  377SOL    HW1 1130   2.377   1.562   2.202 -0.5133 -0.5318 -1.1820
  377SOL    HW2 1131   2.448   1.422   2.268 -1.8928  1.0752 -0.3256
  378SOL     OW 1132   0.911   2.837   2.917 -0.4192 -0.5153 -0.3206
  378SOL    HW1 1133   0.899   2.769   2.993  0.3094 -1.5970 -0.6148
  378SOL    HW2 1134   0.952   2.922   2.950 -1.6995 -1.0688  2.8397
  379SOL     OW 1135   1.986   0.343   0.587 -0.4335 -0.8613  0.2107
  379SOL    HW1 1136   1.889   0.375   0.591 -1.6146  0.7204 -0.3446
  379SOL    HW2 1137   1.977   0.248   0.554  1.0252 -2.4876  0.3975
  380SOL     OW 1138   2.954   1.956   1.406  0.3741  0.4141 -0.0166
  380SOL    HW1 1139   2.956   1.925   1.504  0.2716 -0.1655  2.0336
  380SOL    HW2 1140   2.935   2.055   1.401 -1.4406  2.4941 -1.9272
  381SOL     OW 1141   1.880   2.009   1.909  0.4340 -0.1364  0.2794
  381SOL    HW1 1142   1.864   1.991   1.811 -2.2261  0.5684  0.3738
  381SOL    HW2 1143   1.947   1.939   1.943  1.3935 -2.1790 -0.4565
  382SOL     OW 1144   3.032   0.337   2.640  0.6028 -0.1741 -0.5030
  382SOL    HW1 1145   3.042   0.232   2.639  0.6829 -1.3292 -2.4869
  382SOL    HW2 1146   2.980   0.366   2.553 -2.5225  0.7630 -1.4041
  383SOL     OW 1147   1.792   1.348   2.562  0.3995 -0.1375 -0.5743
  383SOL    HW1 1148   1.755   1.263   2.518 -4.0663 -2.1524 -0.1286
  383SOL    HW2 1149   1.748   1.365   2.649  1.5861 -0.6795 -2.8479
  384SOL     OW 1150   1.088   2.230   0.961 -0.3451 -0.0943  0.9630
  384SOL    HW1 1151   1.061   2.329   0.955  1.2518  3.0231 -0.0550
  384SOL    HW2 1152   1.019   2.176   1.017 -3.5428 -1.4406  1.1562
  385SOL     OW 1153   1.951   2.316   0.601 -0.2899 -0.1316 -0.1404
  385SOL    HW1 1154   1.847   2.318   0.607 -3.5293  3.5821 -0.6075
  385SOL    HW2 1155   1.994   2.235   0.555  0.0222 -0.7085 -0.4257
  386SOL     OW 1156   2.038   2.045   0.998  0.5081 -0.2625 -0.1481
  386SOL    HW1 1157   2.086   2.112   0.940 -2.9277 -0.8345  1.0393
  386SOL    HW2 1158   2.051   2.055   1.100  2.3307  1.3233 -0.8543
  387SOL     OW 1159   0.349   2.311   1.603 -0.0851  0.5678  0.4881
  387SOL    HW1 1160   0.259   2.301   1.650  0.1610  0.0925  1.3189
  387SOL    HW2 1161   0.403   2.224   1.606  1.6519  0.2820  0.8911
  388SOL     OW 1162   0.084   0.726   1.862 -0.3918  0.6002  0.0900
  388SOL    HW1 1163   0.024   0.649   1.843  1.5668  1.9101 -0.6116
  388SOL    HW2 1164   0.133   0.706   1.951 -2.6048  0.0707  1.0961
  389SOL     OW 1165   1.691   1.275   0.609 -0.3706  0.2809 -0.0030
  389SOL    HW1 1166   1.727   1.335   0.681  2.6585 -1.6325 -0.8873
  389SOL    HW2 1167   1.613   1.219   0.651  0.9929 -1.7349  0.9237
  390SOL     OW 1168   0.900   2.183   2.581 -0.6435  0.2991 -0.3448
  390SOL    HW1 1169   0.823   2.218   2.528  1.1587  1.5251  0.8008
  390SOL    HW2 1170   0.985   2.194   2.524 -0.2440  1.3429  0.7608
  391SOL     OW 1171   0.976   1.930   2.662 -0.1789 -0.6595  0.7665
  391SOL    HW1 1172   0.902   1.896   2.722  2.1828 -0.8911  2.8626
  391SOL    HW2 1173   0.955   2.021   2.622  2.8668  2.9345  1.1714
  392SOL     OW 1174   2.937   2.768   2.053 -0.1454 -0.5166 -1.2693
  392SOL    HW1 1175   2.859   2.708   2.025 -0.7715  0.1393  1.1528
  392SOL    HW2 1176   2.919   2.860   2.017 -0.9676 -0.4605 -2.2866
  393SOL     OW 1177   1.970   2.523   0.337  0.5491  0.2742  0.4413
  393SOL    HW1 1178   1.928   2.429   0.336  1.4620 -2.8619  1.0427
  393SOL    HW2 1179   2.001   2.547   0.432 -1.3647  0.4453  0.6283
  394SOL     OW 1180   0.654   0.485   2.427 -0.5414 -0.4632  0.4905
  394SOL    HW1 1181   0.553   0.505   2.422 -0.5955 -0.9405 -1.8008
  394SOL    HW2 1182   0.694   0.497   2.333  0.1330  1.6220  0.8085
  395SOL     OW 1183   0.453   1.180   1.209  0.8686  0.4440 -0.4570
  395SOL    HW1 1184   0.465   1.095   1.156  0.2919  2.0180 -0.2830
  395SOL    HW2 1185   0.541   1.214   1.246  1.1435  0.5870  0.6911
  396SOL     OW 1186   1.420   1.425   2.094 -0.3066 -0.3722 -0.0653
  396SOL    HW1 1187   1.486   1.353   2.057 -0.2771  0.9823  0.9509
  396SOL    HW2 1188   1.465   1.475   2.172 -1.5233 -0.7634 -0.8986
  397SOL     OW 1189   0.856   0.556   2.886  0.1917  0.3080 -0.3179
  397SOL    HW1 1190   0.793   0.575   2.964 -0.2978 -0.3390 -1.7337
  397SOL    HW2 1191   0.807   0.549   2.796 -0.9017 -2.1643 -0.0328
  398SOL     OW 1192   0.276   1.894   2.622 -0.1045  0.0361 -0.2437
  398SOL    HW1 1193   0.371   1.909   2.660 -0.3153  0.5288 -1.5663
  398SOL    HW2 1194   0.264   1.968   2.550 -1.0898  0.8572 -0.3176
  399SOL     OW 1195   0.025   1.907   2.260  0.4516  0.0589 -0.3323
  399SOL    HW1 1196   3.049   1.894   2.334 -1.3039 -1.1036 -0.5860
  399SOL    HW2 1197   0.049   1.817   2.217 -1.1756  1.7389 -0.1591
  400SOL     OW 1198   2.353   0.759   1.645  0.0751  0.2748  0.7030
  400SOL    HW1 1199   2.338   0.802   1.551 -3.2246 -0.5971 -2.5864
  400SOL    HW2 1200   2.428   0.694   1.636  0.2645  1.7260  1.7845
  401SOL     OW 1201   1.035   1.349   0.313 -0.8992 -0.1352  0.1136
  401SOL    HW1 1202   1.044   1.277   0.383 -1.7261  1.0737  1.4671
  401SOL    HW2 1203   1.120   1.409   0.313  0.8212  2.2481  1.3745
  402SOL     OW 1204   3.057   2.490   2.193 -0.2834 -0.7372 -0.2029
  402SOL    HW1 1205   0.021   2.534   2.266  0.1715 -0.1533 -2.3150
  402SOL    HW2 1206   0.024   2.473   2.113 -0.4198  0.4177 -2.2410
  403SOL     OW 1207   0.432   1.562   2.341 -0.3349 -0.1378  0.4317
  403SOL    HW1 1208   0.373   1.598   2.420 -1.7862  1.8877  2.4578
  403SOL    HW2 1209   0.445   1.461   2.335 -0.0081  1.0730 -1.0958
  404SOL     OW 1210   1.912   2.103   1.580 -0.2845 -0.1899  0.0834
  404SOL    HW1 1211   1.844   2.182   1.597 -1.4209  1.3863 -1.4317
  404SOL    HW2 1212   1.917   2.080   1.481 -0.0690 -0.9345 -0.1195
  405SOL     OW 1213   2.977   2.545   2.850 -0.1180 -0.5312 -0.2788
  405SOL    HW1 1214   2.939   2.552   2.941  0.5997 -0.3418 -0.3767
  405SOL    HW2 1215   2.921   2.478   2.795  2.0556  1.5914 -0.3028
  406SOL     OW 1216   0.589   1.228   0.063 -0.2648  0.0983 -0.0730
  406SOL    HW1 1217   0.658   1.162   0.031  0.3741 -2.1762  0.6670
  406SOL    HW2 1218   0.630   1.320   0.050  0.4521  0.8125  0.4717
  407SOL     OW 1219   2.054   2.481   2.793 -0.2721  0.3389 -0.5668
  407SOL    HW1 1220   2.112   2.398   2.810  0.6426  1.8115 -1.2833
  407SOL    HW2 1221   2.118   2.559   2.791 -1.3436  1.2009 -0.0329
  408SOL     OW 1222   2.952   2.982   0.223 -0.2036 -0.1930 -0.0225
  408SOL    HW1 1223   2.950   2.886   0.257 -1.9192 -0.6030  1.6105
  408SOL    HW2 1224   3.042   2.998   0.178 -1.4725  0.4446  0.8707
  409SOL     OW 1225   2.195   1.408   0.973 -0.3224 -0.2588 -0.1169
  409SOL    HW1 1226   2.201   1.509   0.955 -2.8608  0.3018 -0.0180
  409SOL    HW2 1227   2.155   1.363   0.891 -0.6766  0.6277 -1.3047
  410SOL     OW 1228   2.872   1.814   0.574  0.5438 -0.4252  0.2887
  410SOL    HW1 1229   2.852   1.873   0.659 -0.3619  5.3093  1.3912
  410SOL    HW2 1230   2.966   1.776   0.585  1.4490  1.6808 -2.2988
  411SOL     OW 1231   0.198   1.415   0.792 -0.2760 -0.5001 -0.3843
  411SOL    HW1 1232   0.251   1.500   0.780  2.0214  3.8069 -0.5042
  411SOL    HW2 1233   0.249   1.347   0.846 -0.6573 -1.1388  2.8769
  412SOL     OW 1234   2.271   2.191   0.574  0.1159  0.2036  0.6527
  412SOL    HW1 1235   2.281   2.278   0.523 -1.7163  1.1391 -0.2936
  412SOL    HW2 1236   2.182   2.146   0.548  1.9318 -1.1265 -0.2991
  413SOL     OW 1237   1.815   0.878   2.539 -0.1334 -0.2655  0.5680
  413SOL    HW1 1238   1.842   0.834   2.452  3.0265 -4.2903  1.8409
  413SOL    HW2 1239   1.755   0.960   2.525  2.7327  1.3930  0.0610
  414SOL     OW 1240   2.783   3.086   0.404 -0.0058  0.8052 -0.2333
  414SOL    HW1 1241   2.824   3.041   0.322  2.0494 -1.6616 -0.7988
  414SOL    HW2 1242   2.843   3.071   0.486  0.3912 -3.3825  1.9050
  415SOL     OW 1243   0.859   2.099   1.022 -0.2183  0.3144  0.0771
  415SOL    HW1 1244   0.808   2.164   1.081  1.1890  0.0160 -3.3997
  415SOL    HW2 1245   0.829   2.106   0.926  2.2776  0.2704 -1.5374
  416SOL     OW 1246   0.151   2.800   2.798  0.3537  0.1568 -0.5386
  416SOL    HW1 1247   0.087   2.814   2.720 -3.7552  0.0766  0.3757
  416SOL    HW2 1248   0.182   2.704   2.797  0.9772 -0.4358 -0.3396
  417SOL     OW 1249   2.903   0.810   1.215 -0.2229  0.0786  0.2723
  417SOL    HW1 1250   2.956   0.767   1.144 -2.1311  0.4176  0.5914
  417SOL    HW2 1251   2.868   0.740   1.277  1.1737  0.0670 -0.2814
  418SOL     OW 1252   0.031   0.307   0.004 -0.0261  0.2980  0.0134
  418SOL    HW1 1253   0.051   0.243   0.082  1.0250 -0.0693 -1.7194
  418SOL    HW2 1254   0.088   0.286   3.011  0.1742 -1.5395 -0.8009
  419SOL     OW 1255   0.192   1.549   1.616  0.3289  0.1754 -0.2055
  419SOL    HW1 1256   0.112   1.527   1.555 -0.3363 -1.0967 -0.1551
  419SOL    HW2 1257   0.275   1.571   1.562  1.4973 -0.7445 -1.4153
  420SOL     OW 1258   0.571   1.456   0.372  0.8920  0.0945  0.1124
  420SOL    HW1 1259   0.509   1.509   0.312 -2.3308  1.6928 -1.4123
  420SOL    HW2 1260   0.658   1.448   0.327 -0.6429  1.7314 -2.9244
  421SOL     OW 1261   2.098   2.375   2.310 -0.1768 -0.2511 -0.0808
  421SOL    HW1 1262   2.051   2.351   2.226 -1.8521  2.2690 -1.9959
  421SOL    HW2 1263   2.199   2.401   2.288 -0.1400 -0.1604  0.5035
  422SOL     OW 1264   0.116   0.503   2.751  0.5128  0.2779 -0.2063
  422SOL    HW1 1265   0.193   0.534   2.692 -1.5198  1.4312 -2.3481
  422SOL    HW2 1266   0.052   0.443   2.693  0.5562  0.6207 -1.2264
  423SOL     OW 1267   1.376   2.198   0.436  0.2130 -0.8893  0.1509
  423SOL    HW1 1268   1.407   2.276   0.495 -0.2981 -0.9009 -1.4337
  423SOL    HW2 1269   1.275   2.194   0.419 -0.3455  0.1241  2.7585
  424SOL     OW 1270   0.715   1.961   1.534 -0.2591  0.5580 -0.2810
  424SOL    HW1 1271   0.780   2.032   1.510  0.8648  1.9163  2.1778
  424SOL    HW2 1272   0.714   1.879   1.467  1.9228  0.2685  0.7626
  425SOL     OW 1273   2.835   2.624   2.515 -0.1875 -0.9058 -0.8268
  425SOL    HW1 1274   2.850   2.576   2.430  0.8179 -0.1389  0.9284
  425SOL    HW2 1275   2.849   2.558   2.589  2.5538  1.9157 -2.1908
  426SOL     OW 1276   1.764   0.446   0.885 -0.5360 -0.5520  0.3970
  426SOL    HW1 1277   1.851   0.472   0.928  2.5484  0.8876 -0.3127
  426SOL    HW2 1278   1.775   0.420   0.787  1.9708 -0.4780  0.0699
  427SOL     OW 1279   0.170   1.258   3.070 -0.3734 -0.1262 -0.3207
  427SOL    HW1 1280   0.225   1.226   0.063 -1.3150  1.5291 -0.0640
  427SOL    HW2 1281   0.070   1.235   3.080  0.1093 -0.3784  0.5371
  428SOL     OW 1282   1.463   1.256   3.067 -0.5258 -1.0990 -0.3019
  428SOL    HW1 1283   1.398   1.212   0.043 -0.5764 -1.9445  1.4403
  428SOL    HW2 1284   1.412   1.277   2.979 -0.6594  2.0636  2.0940
  429SOL     OW 1285   2.807   2.566   0.687  0.8017 -0.1645 -0.2336
  429SOL    HW1 1286   2.713   2.603   0.710  1.0752 -1.3043 -0.4527
  429SOL    HW2 1287   2.819   2.584   0.592 -0.4971  2.7732  1.2001
  430SOL     OW 1288   0.423   2.329   2.385 -0.3309  0.2762  0.3889
  430SOL    HW1 1289   0.344   2.360   2.436 -0.8421 -0.8780  2.6992
  430SOL    HW2 1290   0.403   2.253   2.319 -0.0816  1.6653  1.7300
  431SOL     OW 1291   2.840   1.150   0.490 -0.1977 -0.3693  0.9620
  431SOL    HW1 1292   2.916   1.159   0.557 -1.5833 -0.1564 -0.3171
  431SOL    HW2 1293   2.774   1.080   0.520 -0.6678  0.6218 -0.3719
  432SOL     OW 1294   2.073   2.612   2.145  0.4149 -0.0146 -0.4611
  432SOL    HW1 1295   2.174   2.628   2.130  1.8951 -0.8891  2.0973
  432SOL    HW2 1296   2.060   2.643   2.239 -0.9474  0.7886 -1.4816
  433SOL     OW 1297   1.318   2.546   0.840 -0.9141 -0.4647 -0.1122
  433SOL    HW1 1298   1.364   2.473   0.894  0.9970 -1.8678 -2.8844
  433SOL    HW2 1299   1.286   2.626   0.897 -1.6224  2.1732  0.6882
  434SOL     OW 1300   1.042   1.779   2.166  0.4886 -0.4267  0.1726
  434SOL    HW1 1301   0.997   1.721   2.098  0.7948  1.5584 -0.4461
  434SOL    HW2 1302   1.044   1.730   2.259 -0.8899 -0.3069  0.9382
  435SOL     OW 1303   2.814   0.990   0.044 -0.0278 -0.5618 -0.7264
  435SOL    HW1 1304   2.882   0.949   3.073  0.1321 -1.0832  2.3057
  435SOL    HW2 1305   2.826   0.957   0.137  0.9101  0.0534 -0.2964
  436SOL     OW 1306   0.234   2.667   2.331  0.1091  0.2910 -0.1551
  436SOL    HW1 1307   0.254   2.675   2.231 -1.4641 -1.4537 -1.3173
  436SOL    HW2 1308   0.321   2.672   2.380 -3.6064  1.9952 -1.9358
  437SOL     OW 1309   1.910   2.928   1.600 -0.0590  1.0548  0.0631
  437SOL    HW1 1310   1.968   2.938   1.684  3.2845  1.0784 -1.2626
  437SOL    HW2 1311   1.812   2.948   1.613  1.6582  2.2212  1.8277
  438SOL     OW 1312   0.254   1.843   0.732 -0.6751  1.1799 -1.0261
  438SOL    HW1 1313   0.183   1.895   0.785 -2.7018  2.1434 -2.4142
  438SOL    HW2 1314   0.292   1.764   0.784  1.4268 -1.2339 -1.2474
  439SOL     OW 1315   0.320   0.297   1.004 -0.7133  0.3384 -0.4470
  439SOL    HW1 1316   0.421   0.287   0.996 -0.4044 -1.7868 -2.6875
  439SOL    HW2 1317   0.272   0.206   0.980 -1.4261 -2.6780  1.3659
  440SOL     OW 1318   2.919   2.825   2.326  0.4577 -0.2061 -0.2588
  440SOL    HW1 1319   2.907   2.754   2.397 -0.4742  2.1560  1.7027
  440SOL    HW2 1320   2.944   2.786   2.234 -3.5713 -1.1818 -2.9828
  441SOL     OW 1321   0.042   0.846   0.355  0.0982 -1.1368 -0.2413
  441SOL    HW1 1322   0.142   0.865   0.370  2.7579  3.0544 -2.1869
  441SOL    HW2 1323   3.086   0.790   0.428 -1.0173  1.7115  0.3574
  442SOL     OW 1324   1.529   2.487   2.253 -0.0613  0.6783 -0.1316
  442SOL    HW1 1325   1.620   2.491   2.206  0.8237  0.6578 -2.1805
  442SOL    HW2 1326   1.507   2.400   2.300 -3.7918  0.5688 -1.1211
  443SOL     OW 1327   0.660   0.060   0.343 -0.0125 -0.1340  0.3522
  443SOL    HW1 1328   0.755   0.030   0.323 -0.9214 -2.0862  0.1344
  443SOL    HW2 1329   0.631   0.134   0.276  1.1783 -0.4519 -2.1456
  444SOL     OW 1330   1.410   1.759   2.610  0.2100  0.3876 -0.1494
  444SOL    HW1 1331   1.436   1.799   2.518  0.9272  0.2598 -0.5312
  444SOL    HW2 1332   1.309   1.745   2.613 -0.1468  0.7937  0.4254
  445SOL     OW 1333   0.147   0.545   0.625  1.0167 -0.2297  0.6774
  445SOL    HW1 1334   0.092   0.462   0.601 -2.0354 -0.7610  1.5209
  445SOL    HW2 1335   0.191   0.591   0.546  2.3207 -0.2074  1.8174
  446SOL     OW 1336   1.736   0.781   0.717 -0.0894 -0.2232 -0.3932
  446SOL    HW1 1337   1.704   0.689   0.711  1.6263 -1.0624  1.9470
  446SOL    HW2 1338   1.659   0.849   0.733 -1.4276  2.5276 -0.5142
  447SOL     OW 1339   2.875   0.879   0.281 -0.1135  0.0786 -0.0611
  447SOL    HW1 1340   2.804   0.943   0.316  0.9482 -0.9874 -0.1716
  447SOL    HW2 1341   2.969   0.900   0.314 -0.1031 -0.3601  1.2243
  448SOL     OW 1342   1.789   2.041   1.320  0.4070  0.2794 -0.1641
  448SOL    HW1 1343   1.736   2.064   1.238 -0.6547  0.5653  1.0447
  448SOL    HW2 1344   1.886   2.012   1.309 -2.2681 -3.8142  1.4750
  449SOL     OW 1345   0.966   1.543   2.991 -0.4930  0.7518  0.7431
  449SOL    HW1 1346   0.995   1.512   2.893  0.0332  0.5550 -1.9717
  449SOL    HW2 1347   1.041   1.528   3.057  1.2854  0.9160 -2.2726
  450SOL     OW 1348   2.367   2.761   2.399 -0.2080 -0.3646 -0.3089
  450SOL    HW1 1349   2.272   2.767   2.392  4.1290 -0.4447  2.3530
  450SOL    HW2 1350   2.414   2.826   2.338 -0.4514 -1.2593  0.1358
  451SOL     OW 1351   2.237   0.911   2.665 -0.2889 -0.1120  0.5595
  451SOL    HW1 1352   2.183   0.984   2.711 -0.1483 -0.7112  0.0820
  451SOL    HW2 1353   2.279   0.948   2.580 -0.0380 -2.8159 -1.4479
  452SOL     OW 1354   1.514   1.056   1.040 -0.1117 -0.1360  0.2528
  452SOL    HW1 1355   1.424   1.067   1.090  2.4870 -0.8194 -2.6800
  452SOL    HW2 1356   1.578   1.004   1.100  1.4959 -0.0421 -1.8933
  453SOL     OW 1357   1.716   0.689   1.486 -0.0199 -0.6020 -0.0941
  453SOL    HW1 1358   1.702   0.637   1.567  3.4233  2.9768  1.5734
  453SOL    HW2 1359   1.676   0.783   1.496  2.4668 -0.3150  0.0085
  454SOL     OW 1360   2.765   1.061   2.730  0.4593 -0.8672 -0.5416
  454SOL    HW1 1361   2.785   0.960   2.722 -2.3441 -1.7339  1.0339
  454SOL    HW2 1362   2.663   1.068   2.733  1.2681 -0.6902 -1.1119
  455SOL     OW 1363   2.780   1.515   1.322  0.2870 -0.5530 -0.6503
  455SOL    HW1 1364   2.861   1.571   1.337 -0.8567 -2.0177  2.1322
  455SOL    HW2 1365   2.810   1.437   1.261 -1.8446 -2.3037 -1.4433
  456SOL     OW 1366   1.377   2.761   1.505  0.3407 -0.2133  0.2885
  456SOL    HW1 1367   1.435   2.739   1.587 -2.4201 -0.0889  0.8535
  456SOL    HW2 1368   1.409   2.834   1.444 -0.8371 -2.8005 -1.2971
  457SOL     OW 1369   1.518   2.900   0.940  0.5042  0.5326  0.4103
  457SOL    HW1 1370   1.557   2.810   0.914 -2.3326 -1.2987 -0.4976
  457SOL    HW2 1371   1.584   2.949   1.008 -0.8452  3.7234 -0.4431
  458SOL     OW 1372   2.877   2.870   0.841 -0.2011  0.2058 -0.1443
  458SOL    HW1 1373   2.796   2.813   0.826 -0.9822 -1.4922 -1.5042
  458SOL    HW2 1374   2.869   2.972   0.837  0.9146  0.1399 -0.4863
  459SOL     OW 1375   1.410   0.883   0.262 -0.2291  0.9736 -0.0147
  459SOL    HW1 1376   1.391   0.834   0.170 -1.4146 -0.9060 -2.5589
  459SOL    HW2 1377   1.505   0.859   0.298  0.7336 -2.9557  0.6757
  460SOL     OW 1378   0.471   2.614   2.479 -0.2724 -0.3134 -0.6023
  460SOL    HW1 1379   0.456   2.517   2.474  1.4554  4.0604  0.1860
  460SOL    HW2 1380   0.526   2.637   2.559 -1.8199  1.1270  2.6194
  461SOL     OW 1381   0.187   1.561   0.372 -0.2427  0.7264  0.4483
  461SOL    HW1 1382   0.234   1.470   0.388 -0.6968  0.2148 -0.1389
  461SOL    HW2 1383   0.245   1.629   0.315  0.5544  0.0192  1.0527
  462SOL     OW 1384   1.724   2.100   0.412  0.7825  0.3586 -0.3113
  462SOL    HW1 1385   1.691   2.070   0.504  1.6406 -1.0438 -0.2327
  462SOL    HW2 1386   1.693   2.033   0.343 -0.5092  1.6408 -0.7247
  463SOL     OW 1387   2.694   0.488   0.471  0.3906  0.1877  0.3847
  463SOL    HW1 1388   2.609   0.533   0.488  2.3684  0.8338 -2.4084
  463SOL    HW2 1389   2.677   0.401   0.413 -0.4775 -1.7922  0.5229
  464SOL     OW 1390   0.853   2.135   0.384  0.0147  0.0542  0.6541
  464SOL    HW1 1391   0.847   2.152   0.283  0.7456 -0.1611  0.3041
  464SOL    HW2 1392   0.799   2.056   0.409 -1.3087  0.7473 -0.1910
  465SOL     OW 1393   2.263   0.459   1.311 -0.1215  0.1117  0.6191
  465SOL    HW1 1394   2.236   0.369   1.276  0.6817  0.0541  2.0871
  465SOL    HW2 1395   2.215   0.541   1.265  0.7512  0.6342 -2.0600
  466SOL     OW 1396   2.223   0.119   0.650  0.0807  0.4629 -0.4195
  466SOL    HW1 1397   2.228   0.038   0.590 -1.6731  2.1319  1.6248
  466SOL    HW2 1398   2.287   0.188   0.618 -0.3038 -1.2181  0.2179
  467SOL     OW 1399   1.023   0.560   2.138  0.6433  0.3066 -0.4031
  467SOL    HW1 1400   0.963   0.639   2.118 -2.1944 -0.6914  1.9183
  467SOL    HW2 1401   1.092   0.543   2.066  0.0860 -1.7775  2.5340
  468SOL     OW 1402   2.571   0.288   2.063 -0.3449  0.0326  0.1623
  468SOL    HW1 1403   2.510   0.358   2.023  0.4873 -0.5344 -3.5846
  468SOL    HW2 1404   2.660   0.334   2.079 -2.9260  0.2058 -0.1287
  469SOL     OW 1405   0.848   2.642   1.751 -0.5055 -0.0517  0.3655
  469SOL    HW1 1406   0.890   2.685   1.667  1.7441  0.4630 -0.3344
  469SOL    HW2 1407   0.760   2.690   1.778 -0.6720 -1.3000  1.4026
  470SOL     OW 1408   2.234   1.104   1.772 -0.0502  0.2377 -0.8684
  470SOL    HW1 1409   2.266   1.016   1.809 -0.2440 -1.7105  0.1969
  470SOL    HW2 1410   2.249   1.189   1.828  1.9882 -2.4795 -0.2942
  471SOL     OW 1411   2.955   1.488   0.060  0.3852 -0.0965 -0.0289
  471SOL    HW1 1412   3.001   1.544   3.079  0.6456 -0.2030 -1.4844
  471SOL    HW2 1413   2.966   1.389   0.042  1.2809  2.2481 -1.9413
  472SOL     OW 1414   0.426   2.145   0.669  0.1144 -0.1565  0.1336
  472SOL    HW1 1415   0.433   2.049   0.652 -1.0858  3.6697  0.0696
  472SOL    HW2 1416   0.472   2.199   0.590 -1.4473 -2.0212 -1.8108
  473SOL     OW 1417   1.136   2.378   1.983  0.4004  0.0529  0.1837
  473SOL    HW1 1418   1.094   2.469   2.012  1.0516 -0.6898 -0.8478
  473SOL    HW2 1419   1.070   2.312   1.939 -1.5064  1.2094  0.0535
  474SOL     OW 1420   0.914   2.768   2.411  0.4400 -0.3328  0.0846
  474SOL    HW1 1421   0.926   2.670   2.384  1.2911  0.4187  0.6384
  474SOL    HW2 1422   0.966   2.782   2.493 -1.4890 -0.1719 -1.4265
  475SOL     OW 1423   0.859   2.110   0.077  0.2366  0.1955 -0.2470
  475SOL    HW1 1424   0.911   2.191   0.048  0.2233 -0.7683 -2.7202
  475SOL    HW2 1425   0.914   2.045   0.130 -1.0768  0.0679  0.7963
  476SOL     OW 1426   1.089   0.630   1.050 -0.0519 -0.0896 -0.4486
  476SOL    HW1 1427   1.081   0.600   0.952 -2.3032  0.5274 -2.6127
  476SOL    HW2 1428   1.009   0.692   1.075  0.0758  1.6578  2.6543
  477SOL     OW 1429   2.087   2.044   1.262 -0.0699  0.0719  0.2800
  477SOL    HW1 1430   2.183   2.033   1.290  2.9748  0.0165 -0.7342
  477SOL    HW2 1431   2.060   2.144   1.270  0.4190 -0.4272 -2.9858
  478SOL     OW 1432   0.125   0.658   2.975  0.3663  0.0722 -0.1203
  478SOL    HW1 1433   0.105   0.596   2.898  4.3266  2.0140  1.2021
  478SOL    HW2 1434   0.089   0.624   3.062  1.1867  1.3762 -0.6848
  479SOL     OW 1435   0.858   0.100   1.460  0.1676  0.1121  0.5111
  479SOL    HW1 1436   0.883   0.146   1.369 -1.6973 -0.3563  0.9481
  479SOL    HW2 1437   0.901   0.009   1.452  0.5751 -0.7933  0.6843
  480SOL     OW 1438   2.674   2.381   0.421 -0.3087  0.1252  0.7574
  480SOL    HW1 1439   2.696   2.316   0.343  0.1352  0.8193  0.4420
  480SOL    HW2 1440   2.695   2.338   0.511 -0.6085 -0.3628 -2.5518
  481SOL     OW 1441   0.050   0.666   1.568  0.4840  0.4041  0.3287
  481SOL    HW1 1442   0.038   0.757   1.519 -0.6123  2.4661 -0.4960
  481SOL    HW2 1443   0.084   0.672   1.663 -0.8546 -0.2700  1.1392
  482SOL     OW 1444   1.079   3.046   0.974  0.0771 -0.3413  0.1338
  482SOL    HW1 1445   1.032   0.035   0.929  0.0057  0.6813 -0.0867
  482SOL    HW2 1446   1.014   3.005   1.044 -0.4335 -2.2522 -0.2500
  483SOL     OW 1447   0.095   1.426   2.618  0.8761 -0.1967 -0.3128
  483SOL    HW1 1448   0.045   1.337   2.638  1.3088 -0.6383  1.3693
  483SOL    HW2 1449   0.039   1.505   2.653 -0.6021  1.6261 -0.0190
  484SOL     OW 1450   1.596   1.826   2.097 -0.0719 -0.3243  0.3449
  484SOL    HW1 1451   1.545   1.904   2.061 -0.3070 -0.6470  3.5501
  484SOL    HW2 1452   1.541   1.749   2.127 -1.8734  1.7683 -0.6439
  485SOL     OW 1453   0.186   3.009   2.556 -0.4710  0.3511  0.0493
  485SOL    HW1 1454   0.132   0.004   2.564  2.9663 -3.0540 -0.8330
  485SOL    HW2 1455   0.135   2.922   2.587 -1.0187 -0.8587 -1.4074
  486SOL     OW 1456   1.295   2.959   0.661  0.8676  0.0516 -0.3999
  486SOL    HW1 1457   1.271   2.900   0.738  0.6597  1.7669  2.0434
  486SOL    HW2 1458   1.308   2.910   0.575 -1.2929  1.8572 -0.3254
  487SOL     OW 1459   1.544   0.203   0.777 -0.5629 -0.7382  0.7069
  487SOL    HW1 1460   1.576   0.109   0.744  0.8134  0.3787  1.3174
  487SOL    HW2 1461   1.583   0.224   0.870  1.0856  1.4206 -1.6806
  488SOL     OW 1462   2.163   0.870   0.976 -0.0185 -0.4993  0.4606
  488SOL    HW1 1463   2.224   0.951   0.954  0.2540  0.4604  0.6155
  488SOL    HW2 1464   2.062   0.889   0.960 -0.7840  1.9105  3.6880
  489SOL     OW 1465   1.160   0.068   1.403 -0.1937 -0.6981 -0.0816
  489SOL    HW1 1466   1.253   0.059   1.372  1.6811 -0.2553 -1.9590
  489SOL    HW2 1467   1.100   0.088   1.321  0.7739  0.5252 -1.2096
  490SOL     OW 1468   0.742   0.619   0.025 -0.2333 -0.1038 -0.3634
  490SOL    HW1 1469   0.771   0.542   0.082 -2.7933 -1.3784  1.5667
  490SOL    HW2 1470   0.639   0.631   0.027 -3.4773 -0.5490  1.8999
  491SOL     OW 1471   0.970   2.843   0.379 -0.1284  0.1888 -0.5124
  491SOL    HW1 1472   1.029   2.875   0.458 -0.3023 -3.1174  0.4258
  491SOL    HW2 1473   1.030   2.814   0.302 -1.3556  1.7546  3.1338
  492SOL     OW 1474   1.225   1.560   1.527  0.4212  0.4603 -0.2796
  492SOL    HW1 1475   1.230   1.640   1.588  0.1604  2.0173 -0.8395
  492SOL    HW2 1476   1.229   1.470   1.575  1.1380 -0.7174  0.1230
  493SOL     OW 1477   0.428   1.661   0.240 -0.4391  0.1362  0.4268
  493SOL    HW1 1478   0.414   1.759   0.260 -0.7569  0.5457 -2.2543
  493SOL    HW2 1479   0.454   1.657   0.141  0.6342  2.2007 -0.2965
  494SOL     OW 1480   1.916   1.891   0.565  0.2843 -0.1146 -0.1448
  494SOL    HW1 1481   1.982   1.808   0.582  5.1116  0.2863  0.5717
  494SOL    HW2 1482   1.849   1.868   0.490 -0.4889  0.3855  0.6567
  495SOL     OW 1483   0.275   1.281   2.476  0.3718  0.2189  0.2311
  495SOL    HW1 1484   0.220   1.341   2.534 -1.4560 -0.1363 -0.2934
  495SOL    HW2 1485   0.220   1.215   2.420 -2.4790 -1.6615  1.5612
  496SOL     OW 1486   0.445   3.059   2.415  0.3473 -0.0386 -0.1254
  496SOL    HW1 1487   0.350   3.071   2.447  1.3365  0.4605 -0.1654
  496SOL    HW2 1488   0.455   3.079   2.315 -0.8639 -0.9839  1.6043
  497SOL     OW 1489   1.433   1.132   0.649 -0.2883 -0.7155  0.0886
  497SOL    HW1 1490   1.394   1.122   0.550 -2.7176  0.6343 -0.2772
  497SOL    HW2 1491   1.389   1.214   0.699 -0.0006  0.2621  1.8641
  498SOL     OW 1492   2.889   2.727   0.291 -0.2403 -0.0727  0.0687
  498SOL    HW1 1493   2.892   2.657   0.217  0.3125  1.3502 -3.1819
  498SOL    HW2 1494   2.807   2.715   0.350  0.6012  1.3570  2.5054
  499SOL     OW 1495   2.103   2.527   0.596  0.7295  0.3355 -0.1144
  499SOL    HW1 1496   2.048   2.442   0.602 -1.2337  1.7646  1.9539
  499SOL    HW2 1497   2.201   2.506   0.575  0.1093  0.6363 -0.3756
  500SOL     OW 1498   0.437   0.657   2.787 -0.3891 -0.2164 -0.2408
  500SOL    HW1 1499   0.458   0.744   2.835  1.0249  0.3675  1.8466
  500SOL    HW2 1500   0.520   0.614   2.741 -1.7058 -2.0397  0.6281
  501SOL     OW 1501   1.495   2.731   1.732 -0.3780  0.0110  0.2102
  501SOL    HW1 1502   1.586   2.696   1.769  0.4711  1.3200 -1.0882
  501SOL    HW2 1503   1.433   2.714   1.809  1.3955  0.8684  2.1780
  502SOL     OW 1504   0.078   0.201   2.344 -0.8076  0.1062 -0.2808
  502SOL    HW1 1505   0.013   0.125   2.351  0.2888  2.8051 -0.0118
  502SOL    HW2 1506   0.129   0.211   2.433  0.5485 -1.0157  0.4691
  503SOL     OW 1507   1.799   2.559   2.167 -0.0582  0.1117 -0.0577
  503SOL    HW1 1508   1.891   2.560   2.130  0.4204 -0.6170  1.4664
  503SOL    HW2 1509   1.760   2.653   2.168  0.4105  1.4270 -2.6194
  504SOL     OW 1510   1.739   0.086   1.725  0.1723 -0.4519 -0.2806
  504SOL    HW1 1511   1.652   0.045   1.715  2.4281 -0.1279 -0.8126
  504SOL    HW2 1512   1.775   0.120   1.639  1.6035 -0.4984  1.1048
  505SOL     OW 1513   2.510   1.639   1.684  0.1921 -0.5200 -0.5506
  505SOL    HW1 1514   2.607   1.623   1.657 -0.2809 -0.9853 -0.8703
  505SOL    HW2 1515   2.440   1.591   1.633  1.3790  2.2083  1.0507
  506SOL     OW 1516   0.196   1.496   1.886 -0.2634  0.2844  0.2210
  506SOL    HW1 1517   0.114   1.467   1.942 -0.7734 -1.7865  0.4128
  506SOL    HW2 1518   0.171   1.495   1.787 -0.3505 -0.0379  1.0896
  507SOL     OW 1519   0.464   2.780   1.594  0.4176 -0.0833 -0.7002
  507SOL    HW1 1520   0.526   2.785   1.681  2.7974  1.5120 -0.6799
  507SOL    HW2 1521   0.495   2.709   1.534 -0.9313  0.1566  1.1121
  508SOL     OW 1522   0.952   0.674   1.523 -0.1096  0.2610 -0.5961
  508SOL    HW1 1523   0.920   0.659   1.620  0.0710 -0.5788 -0.3111
  508SOL    HW2 1524   0.880   0.653   1.450  2.0031  0.2489  1.6243
  509SOL     OW 1525   1.612   2.405   1.859  0.3493 -0.5029  0.1431
  509SOL    HW1 1526   1.673   2.487   1.846 -0.3250 -0.3121 -0.6377
  509SOL    HW2 1527   1.514   2.428   1.868 -0.3832  2.2324 -0.1440
  510SOL     OW 1528   2.502   1.058   2.742 -0.3631  0.6941 -0.1517
  510SOL    HW1 1529   2.508   1.023   2.841 -1.1394 -1.4813  1.5195
  510SOL    HW2 1530   2.425   1.120   2.717  0.4761 -1.4455  2.7421
  511SOL     OW 1531   0.667   1.291   1.312  0.5569 -0.4924 -0.9441
  511SOL    HW1 1532   0.749   1.322   1.258  0.2151  0.2074 -1.0828
  511SOL    HW2 1533   0.703   1.241   1.394 -2.3680  2.3396  1.3813
  512SOL     OW 1534   2.593   1.745   0.534 -0.7372  0.2877  0.5403
  512SOL    HW1 1535   2.689   1.785   0.537  0.2192  1.8263  1.7509
  512SOL    HW2 1536   2.527   1.819   0.519  0.8370 -2.3158  0.5027
  513SOL     OW 1537   0.741   1.751   2.414  0.2827  0.2525 -0.3983
  513SOL    HW1 1538   0.837   1.754   2.441  1.1181  2.5363 -0.6913
  513SOL    HW2 1539   0.725   1.674   2.352  3.2542  5.0047 -0.8917
  514SOL     OW 1540   0.030   2.337   1.556  0.2682  0.0242 -0.1211
  514SOL    HW1 1541   3.076   2.336   1.465  1.1737  3.0661 -1.4634
  514SOL    HW2 1542   0.052   2.245   1.585 -0.2775  3.5631  0.7617
  515SOL     OW 1543   2.093   1.143   1.535 -0.1029  0.1850  0.0702
  515SOL    HW1 1544   2.155   1.132   1.616  0.4963 -1.8813  1.1144
  515SOL    HW2 1545   2.043   1.228   1.530  2.3502 -2.1672  1.2672
  516SOL     OW 1546   2.547   3.034   0.021  0.1846  0.4871 -0.1012
  516SOL    HW1 1547   2.524   0.031   3.072  3.7415  2.8976  1.5015
  516SOL    HW2 1548   2.498   3.027   0.110  3.2714 -1.1168  0.8640
  517SOL     OW 1549   1.247   1.611   2.902 -0.1171 -0.2043 -0.0420
  517SOL    HW1 1550   1.316   1.582   2.836 -1.3305  1.5631  3.2438
  517SOL    HW2 1551   1.237   1.551   2.985 -4.2303 -2.3713  3.5726
  518SOL     OW 1552   1.456   2.966   1.335 -0.2948 -0.6363  0.0856
  518SOL    HW1 1553   1.560   2.978   1.333  1.7164 -0.7910 -0.9898
  518SOL    HW2 1554   1.410   3.022   1.264 -1.5907 -1.9370  0.9255
  519SOL     OW 1555   2.355   2.520   1.070  0.5667 -0.2102 -0.6532
  519SOL    HW1 1556   2.458   2.530   1.066  1.5590  0.6933 -0.9555
  519SOL    HW2 1557   2.320   2.613   1.099 -1.2556 -0.2752  1.5675
  520SOL     OW 1558   2.908   2.195   2.013 -0.0338  0.3016  0.2884
  520SOL    HW1 1559   2.827   2.135   1.979 -2.1686 -1.7822  1.7203
  520SOL    HW2 1560   2.908   2.190   2.115 -0.6291 -1.6933  2.1192
  521SOL     OW 1561   3.028   0.841   2.946  0.2908 -0.1997 -0.3789
  521SOL    HW1 1562   3.082   0.756   2.940 -0.9966 -1.0386 -1.8318
  521SOL    HW2 1563   3.081   0.899   3.012  1.0652  1.9170  1.3108
  522SOL     OW 1564   0.907   0.743   2.597  0.2891  0.4460  0.1195
  522SOL    HW1 1565   0.962   0.774   2.519 -1.3800 -3.0411 -1.8488
  522SOL    HW2 1566   0.824   0.695   2.560  0.2396  1.1368  2.1954
  523SOL     OW 1567   0.090   2.333   0.804 -0.3076  0.3195 -0.5906
  523SOL    HW1 1568   0.158   2.375   0.871 -1.8536 -2.7384  2.1783
  523SOL    HW2 1569   0.123   2.303   0.712 -0.4054 -0.9407  1.4412
  524SOL     OW 1570   1.782   2.569   0.074  0.1757  0.2766 -0.3593
  524SOL    HW1 1571   1.843   2.522   0.006 -0.9194  0.9342  1.5569
  524SOL    HW2 1572   1.749   2.506   0.147  1.0338 -3.8399  1.7262
  525SOL     OW 1573   2.517   0.551   1.309  0.2482  0.1889 -0.6368
  525SOL    HW1 1574   2.513   0.653   1.307  0.1057 -2.4496 -1.7500
  525SOL    HW2 1575   2.422   0.513   1.290 -1.5026  0.8487 -1.2004
  526SOL     OW 1576   1.196   2.518   0.387  0.1406 -0.1431 -0.0312
  526SOL    HW1 1577   1.123   2.508   0.461 -1.3077  1.1334  3.2847
  526SOL    HW2 1578   1.164   2.580   0.315 -0.9956 -3.7287  1.7189
  527SOL     OW 1579   2.203   2.849   0.691 -0.2067 -0.2730 -0.0677
  527SOL    HW1 1580   2.115   2.834   0.738 -0.8288 -0.2602 -2.6654
  527SOL    HW2 1581   2.188   2.899   0.603 -0.6795  0.0117  0.9806
  528SOL     OW 1582   1.793   0.767   2.977  0.7004  0.4371 -0.3770
  528SOL    HW1 1583   1.742   0.778   2.888  0.8887 -1.7947  1.3077
  528SOL    HW2 1584   1.742   0.713   3.048 -1.0314 -0.6178  1.3124
  529SOL     OW 1585   1.576   1.561   2.292  0.1158  0.4126 -0.2876
  529SOL    HW1 1586   1.539   1.527   2.378  1.7349  6.3474  0.0585
  529SOL    HW2 1587   1.674   1.567   2.302 -1.0235  2.4965 -0.1259
  530SOL     OW 1588   2.519   2.868   2.873 -0.3777 -0.5707  0.0591
  530SOL    HW1 1589   2.454   2.890   2.798 -1.5901  3.5970 -0.1796
  530SOL    HW2 1590   2.520   2.938   2.950 -0.5888  0.5410 -0.0648
  531SOL     OW 1591   1.756   1.209   2.849  0.7198  0.2953  0.2008
  531SOL    HW1 1592   1.811   1.155   2.914 -2.5318  2.7354  1.3668
  531SOL    HW2 1593   1.680   1.146   2.819 -0.3104 -2.7246 -2.1512
  532SOL     OW 1594   1.615   0.270   1.040  0.0905  0.0923  0.0539
  532SOL    HW1 1595   1.544   0.290   1.110  0.8989  0.4028 -1.5883
  532SOL    HW2 1596   1.669   0.349   1.002  0.1762  0.1911  2.0863
  533SOL     OW 1597   0.667   1.093   2.746  0.4495  0.0603 -0.2065
  533SOL    HW1 1598   0.637   1.179   2.791  2.1598 -1.2951  0.7814
  533SOL    HW2 1599   0.763   1.103   2.718 -0.5749  0.0561  0.5673
  534SOL     OW 1600   1.435   0.385   0.178  0.0414 -0.6191  0.5500
  534SOL    HW1 1601   1.410   0.323   0.251  0.4936  2.0172  2.6014
  534SOL    HW2 1602   1.487   0.329   0.116  0.9341  0.1337 -0.0805
  535SOL     OW 1603   0.604   2.311   3.014  0.5892  0.3523 -0.2816
  535SOL    HW1 1604   0.541   2.393   3.028  1.8294  1.6020  0.2830
  535SOL    HW2 1605   0.589   2.249   0.003  1.1257 -0.3371 -1.9424
  536SOL     OW 1606   0.534   2.906   0.318  0.6591 -0.0669 -0.5173
  536SOL    HW1 1607   0.574   2.997   0.328 -2.7752 -1.1594 -1.0851
  536SOL    HW2 1608   0.600   2.842   0.360 -1.8894  1.5670  1.1467
  537SOL     OW 1609   1.811   0.336   0.302  0.0735 -0.1577  0.0385
  537SOL    HW1 1610   1.857   0.252   0.338 -2.8295 -0.5521  0.0562
  537SOL    HW2 1611   1.757   0.384   0.376 -0.7646 -0.0424 -2.0135
  538SOL     OW 1612   2.538   1.996   2.886 -0.0397 -0.1079  0.4489
  538SOL    HW1 1613   2.593   2.035   2.811 -1.1438  1.1564  1.7158
  538SOL    HW2 1614   2.499   2.071   2.939  3.0331 -1.7649  0.0827
  539SOL     OW 1615   2.443   1.348   2.954  0.0129 -0.1397  0.6250
  539SOL    HW1 1616   2.357   1.382   3.000 -0.9437  1.2288  1.0985
  539SOL    HW2 1617   2.505   1.292   3.015  0.3106 -0.2755  0.7619
  540SOL     OW 1618   0.842   3.001   1.691  0.2306  0.2729  0.2526
  540SOL    HW1 1619   0.875   3.085   1.741 -0.0082 -0.0743 -0.8043
  540SOL    HW2 1620   0.877   2.996   1.596  2.0074  0.1803  1.3235
  541SOL     OW 1621   2.479   3.043   2.380 -0.3472 -0.1942  0.1672
  541SOL    HW1 1622   2.388   3.048   2.431 -1.5336  1.2536  0.0808
  541SOL    HW2 1623   2.465   2.997   2.291 -1.7082  3.8221 -0.9029
  542SOL     OW 1624   0.301   0.837   3.029 -0.0985  0.2642  0.2624
  542SOL    HW1 1625   0.230   0.772   3.002 -0.6474 -0.3372 -0.5574
  542SOL    HW2 1626   0.267   0.889   0.015  2.4939 -3.8066 -1.5262
  543SOL     OW 1627   0.336   0.766   0.982 -0.3810 -0.2558  0.1434
  543SOL    HW1 1628   0.260   0.830   0.953  1.2065  0.0382  0.0838
  543SOL    HW2 1629   0.332   0.681   0.924 -1.3307 -0.4061  1.1639
  544SOL     OW 1630   2.496   0.831   1.245 -0.1332  0.0426  0.0015
  544SOL    HW1 1631   2.550   0.919   1.226 -0.5085  3.1536 -2.2042
  544SOL    HW2 1632   2.433   0.835   1.329 -4.2762 -0.2528  2.1695
  545SOL     OW 1633   1.348   1.742   0.414  0.4354  0.0919 -0.3713
  545SOL    HW1 1634   1.383   1.819   0.473 -0.2803  0.8623  2.2313
  545SOL    HW2 1635   1.386   1.750   0.318  1.8544 -2.3632  0.7228
  546SOL     OW 1636   2.341   2.642   1.689 -0.1047  0.2411 -0.6113
  546SOL    HW1 1637   2.337   2.552   1.640  1.5706 -1.4239  0.7930
  546SOL    HW2 1638   2.379   2.713   1.633 -1.0073  1.8266  4.4076
  547SOL     OW 1639   0.777   2.268   2.196  0.2392  0.5931 -0.3594
  547SOL    HW1 1640   0.845   2.193   2.195 -2.6620  0.2712  0.2883
  547SOL    HW2 1641   0.738   2.286   2.289 -0.8558 -1.9855  1.0407
  548SOL     OW 1642   1.179   0.624   2.778 -0.1796 -0.1460 -0.0683
  548SOL    HW1 1643   1.103   0.674   2.822  2.8397 -3.3335  0.1539
  548SOL    HW2 1644   1.236   0.572   2.843  0.9094  0.2553 -1.0553
  549SOL     OW 1645   2.673   0.683   0.287 -0.6235 -0.3091  0.2535
  549SOL    HW1 1646   2.681   0.607   0.353 -1.0222  1.1907 -0.0600
  549SOL    HW2 1647   2.751   0.744   0.295  2.2477 -3.8753 -1.0800
  550SOL     OW 1648   2.158   0.989   0.362  0.5587 -0.2853  0.3935
  550SOL    HW1 1649   2.223   1.059   0.383 -0.0867 -1.5499 -0.4818
  550SOL    HW2 1650   2.129   0.944   0.445 -1.7531  0.5688  1.1315
  551SOL     OW 1651   1.649   0.248   1.483 -0.7713 -0.2805 -0.0540
  551SOL    HW1 1652   1.587   0.256   1.562 -0.6424  1.0114  0.4829
  551SOL    HW2 1653   1.674   0.340   1.451  1.2400  0.0333 -0.3493
  552SOL     OW 1654   2.063   3.024   2.739 -0.1382 -0.3897  0.7815
  552SOL    HW1 1655   2.060   0.004   2.812 -2.6176  0.7868 -0.3869
  552SOL    HW2 1656   2.044   2.930   2.774  0.8303 -2.5746  1.1490
  553SOL     OW 1657   0.643   2.921   2.077 -0.0786  0.6321  0.1814
  553SOL    HW1 1658   0.613   2.862   2.157 -2.7152  1.8478  1.4880
  553SOL    HW2 1659   0.573   2.992   2.060  0.7546  3.9296  0.8756
  554SOL     OW 1660   0.201   0.104   1.347 -0.0580  0.6013 -0.2808
  554SOL    HW1 1661   0.158   0.171   1.406  0.7362 -2.5653  0.0912
  554SOL    HW2 1662   0.291   0.135   1.314 -1.3819 -0.0189  0.1613
  555SOL     OW 1663   2.459   1.703   2.119  0.3826 -0.6037 -0.3836
  555SOL    HW1 1664   2.395   1.768   2.074 -0.3348 -0.2809  2.5064
  555SOL    HW2 1665   2.554   1.721   2.094 -1.4333  0.2216  1.8042
  556SOL     OW 1666   0.997   0.372   3.005  0.3988 -0.2494  0.1209
  556SOL    HW1 1667   0.976   0.282   2.964 -0.5235  1.1477 -0.2003
  556SOL    HW2 1668   0.956   0.446   2.951  1.2616 -0.9122  3.1362
  557SOL     OW 1669   0.237   2.000   2.374 -0.4113  0.2297  0.4036
  557SOL    HW1 1670   0.307   2.055   2.325 -2.2503  0.1557  3.5622
  557SOL    HW2 1671   0.168   1.966   2.308 -0.9499  1.0365 -1.8557
  558SOL     OW 1672   1.937   0.462   2.789  0.0530 -0.3515  0.6667
  558SOL    HW1 1673   1.966   0.529   2.714 -1.0758  0.6626 -1.4058
  558SOL    HW2 1674   1.933   0.500   2.880  2.5994  0.9838 -2.9826
  559SOL     OW 1675   2.301   1.969   1.706 -0.2183 -0.5612  0.7563
  559SOL    HW1 1676   2.232   1.898   1.726 -2.8276  0.4705 -0.4169
  559SOL    HW2 1677   2.267   2.066   1.722 -2.1130  0.5091 -0.7358
  560SOL     OW 1678   2.089   0.908   1.975 -0.2808  1.0174  0.2522
  560SOL    HW1 1679   2.190   0.890   1.954  1.7796 -0.9127 -1.8162
  560SOL    HW2 1680   2.029   0.890   1.898  2.2202 -0.2126  3.1206
  561SOL     OW 1681   0.175   0.170   2.873  0.3529 -0.0114 -0.2481
  561SOL    HW1 1682   0.117   0.102   2.824 -1.4261  1.0937  2.0851
  561SOL    HW2 1683   0.213   0.134   2.963  0.4192  0.0290  2.7318
  562SOL     OW 1684   0.958   1.737   1.468  0.4053 -0.3293 -0.0415
  562SOL    HW1 1685   1.019   1.728   1.386 -0.3137  0.5074  0.0781
  562SOL    HW2 1686   0.860   1.743   1.437 -0.2966 -0.6805 -2.9637
  563SOL     OW 1687   0.980   0.012   3.013  0.4457  0.1050 -0.4617
  563SOL    HW1 1688   1.029   0.021   0.008  0.0911 -0.2744  1.1415
  563SOL    HW2 1689   0.890   0.056   3.016 -3.8484 -0.4075 -0.1696
  564SOL     OW 1690   2.952   2.426   0.900 -0.2903 -0.0950 -0.2470
  564SOL    HW1 1691   3.047   2.387   0.877 -0.0026 -1.4865  1.6159
  564SOL    HW2 1692   2.905   2.479   0.828  0.8226  0.4790  0.3783
  565SOL     OW 1693   0.718   2.285   1.209  0.1192  0.3719 -0.5024
  565SOL    HW1 1694   0.729   2.268   1.309 -0.7868 -1.7865 -0.0533
  565SOL    HW2 1695   0.623   2.260   1.185  2.2308 -0.6271  0.7626
  566SOL     OW 1696   1.235   0.013   2.550 -0.1035  0.1694 -0.4992
  566SOL    HW1 1697   1.257   3.010   2.583 -1.2706  2.0286 -0.9790
  566SOL    HW2 1698   1.138   0.020   2.537  1.2265 -0.8328  2.0301
  567SOL     OW 1699   2.384   2.914   0.891 -0.6381  0.4961  0.2390
  567SOL    HW1 1700   2.393   3.014   0.873  0.0403 -1.4566  1.4158
  567SOL    HW2 1701   2.342   2.873   0.810  1.5842  1.2674  3.1454
  568SOL     OW 1702   1.323   1.363   0.756  0.0915  0.1910  0.5647
  568SOL    HW1 1703   1.336   1.376   0.856  0.8806  1.6351 -1.4006
  568SOL    HW2 1704   1.382   1.433   0.707 -0.6611  2.8071  1.8112
  569SOL     OW 1705   2.614   1.258   2.521  0.0920  0.0822 -0.0898
  569SOL    HW1 1706   2.535   1.258   2.585  0.7247  0.6139  4.2333
  569SOL    HW2 1707   2.695   1.226   2.573 -0.1501  2.8393 -1.7062
  570SOL     OW 1708   2.955   0.245   2.110  0.0871 -0.0352  0.4633
  570SOL    HW1 1709   3.009   0.267   2.191 -0.3898  1.8771  0.2327
  570SOL    HW2 1710   3.013   0.187   2.051 -1.2003 -0.1767  0.5585
  571SOL     OW 1711   0.237   3.035   1.840  0.4508  0.4190 -0.2006
  571SOL    HW1 1712   0.162   3.085   1.885 -0.3262 -1.1177  0.3369
  571SOL    HW2 1713   0.207   2.952   1.780 -0.2286  0.9792  0.8113
  572SOL     OW 1714   3.014   2.217   1.333  0.5269 -0.5673 -0.2268
  572SOL    HW1 1715   2.927   2.219   1.285  2.1136 -1.2604  2.6093
  572SOL    HW2 1716   3.082   2.289   1.301  0.0443  3.4076 -0.9646
  573SOL     OW 1717   1.004   0.856   2.826 -0.2060 -0.5416 -0.7856
  573SOL    HW1 1718   0.934   0.843   2.901 -0.8914  1.7714 -0.9413
  573SOL    HW2 1719   0.985   0.791   2.745  1.2500 -2.0894  1.0314
  574SOL     OW 1720   2.456   2.433   2.717 -0.2723 -0.6411 -0.3716
  574SOL    HW1 1721   2.496   2.444   2.624  0.5711 -1.9040  2.1729
  574SOL    HW2 1722   2.426   2.522   2.758 -0.6112 -1.7864  1.2036
  575SOL     OW 1723   1.225   2.845   0.890 -0.1171  0.2473 -0.1144
  575SOL    HW1 1724   1.160   2.919   0.918  0.3526 -1.7147 -2.6935
  575SOL    HW2 1725   1.317   2.867   0.922  0.9162 -0.4299 -0.3726
  576SOL     OW 1726   1.075   0.230   0.920 -0.5469 -0.0574 -0.0603
  576SOL    HW1 1727   1.158   0.203   0.867 -0.2655 -0.7123  0.1540
  576SOL    HW2 1728   1.066   0.330   0.915  0.2673  1.9072  0.8387
  577SOL     OW 1729   2.116   1.290   0.721 -0.8013  0.9083 -0.6467
  577SOL    HW1 1730   2.160   1.328   0.632  2.2263 -3.3024 -3.5441
  577SOL    HW2 1731   2.040   1.222   0.703  1.1514  1.7573 -0.3707
  578SOL     OW 1732   2.028   0.490   0.984  0.1655 -0.1923 -0.5578
  578SOL    HW1 1733   2.098   0.415   0.978  1.1428 -1.4473 -0.9316
  578SOL    HW2 1734   2.043   0.553   1.067  0.4064  3.7072  2.7637
  579SOL     OW 1735   1.668   0.790   2.734 -0.2314 -0.4291  0.1999
  579SOL    HW1 1736   1.641   0.693   2.727 -1.8595  1.0254  1.6395
  579SOL    HW2 1737   1.749   0.812   2.671 -1.1713 -0.5867 -2.0699
  580SOL     OW 1738   1.566   0.830   1.942 -0.1630  0.0847 -0.3658
  580SOL    HW1 1739   1.493   0.880   1.893  2.1378 -0.9102  1.4995
  580SOL    HW2 1740   1.564   0.833   2.046  1.4487  0.0954 -0.1864
  581SOL     OW 1741   0.314   0.536   0.857  0.2351 -0.0924  0.1803
  581SOL    HW1 1742   0.310   0.453   0.917 -0.0336 -0.9546 -0.2330
  581SOL    HW2 1743   0.258   0.523   0.771 -0.9564  0.0396 -0.7867
  582SOL     OW 1744   2.948   0.548   1.820  0.1656  0.1617 -0.0365
  582SOL    HW1 1745   2.885   0.623   1.789  0.1581  1.2274 -0.7376
  582SOL    HW2 1746   2.898   0.502   1.898  0.9523  1.1744  0.1261
  583SOL     OW 1747   0.285   0.605   2.560  0.7512  0.4446 -0.4169
  583SOL    HW1 1748   0.352   0.600   2.639 -0.7088  0.0229 -1.7807
  583SOL    HW2 1749   0.328   0.552   2.483 -0.0464 -0.2422 -0.7031
  584SOL     OW 1750   2.023   2.185   0.181  0.2906 -0.4361  0.2012
  584SOL    HW1 1751   2.070   2.161   0.094 -0.1077  0.0737  2.0613
  584SOL    HW2 1752   1.923   2.157   0.175 -1.8496 -2.8106 -0.4097
  585SOL     OW 1753   0.214   2.214   0.005  0.3060  0.3189 -0.1354
  585SOL    HW1 1754   0.169   2.122   0.026 -0.9511 -1.8451  1.2174
  585SOL    HW2 1755   0.289   2.225   0.074 -0.8443 -1.7534 -1.3037
  586SOL     OW 1756   2.020   1.623   2.317 -0.1196  0.4130 -0.4220
  586SOL    HW1 1757   1.964   1.668   2.244 -0.9629  2.1181  2.3742
  586SOL    HW2 1758   2.070   1.536   2.290 -1.3659  0.9081  0.4930
  587SOL     OW 1759   2.601   1.720   2.713  0.3794 -0.5485  0.2097
  587SOL    HW1 1760   2.585   1.704   2.811  2.0501  0.0858 -0.6848
  587SOL    HW2 1761   2.514   1.723   2.661 -0.3971 -0.4800 -0.0882
  588SOL     OW 1762   2.997   0.314   1.257  0.5073  0.3438  0.1262
  588SOL    HW1 1763   3.023   0.361   1.173  0.1931 -1.3273  1.6562
  588SOL    HW2 1764   3.073   0.331   1.326  2.1153 -1.6248  1.4932
  589SOL     OW 1765   0.966   0.351   0.461 -0.0137  0.7128  0.5413
  589SOL    HW1 1766   0.968   0.381   0.365 -0.1501  1.9262  2.0020
  589SOL    HW2 1767   0.874   0.348   0.495  3.3582  1.3317 -1.3688
  590SOL     OW 1768   2.459   1.988   0.512  0.2325  0.5590 -0.0980
  590SOL    HW1 1769   2.433   2.083   0.544 -0.9004 -0.3270  0.3865
  590SOL    HW2 1770   2.522   2.000   0.430  1.6458  1.8484  2.0993
  591SOL     OW 1771   0.561   2.693   1.049 -0.5975 -0.4438  0.3325
  591SOL    HW1 1772   0.608   2.614   1.011 -2.0628  1.6684 -1.6317
  591SOL    HW2 1773   0.482   2.711   0.987  1.2347  2.1417  2.5628
  592SOL     OW 1774   1.275   1.025   1.196  0.2439  0.4285  0.2758
  592SOL    HW1 1775   1.277   1.076   1.283 -0.0917  0.5309  0.9130
  592SOL    HW2 1776   1.325   0.940   1.209 -0.6967  1.0409  4.0658
  593SOL     OW 1777   0.939   2.395   1.671 -0.2065  0.1993  0.5721
  593SOL    HW1 1778   0.994   2.407   1.586 -1.0702 -0.1947 -1.9841
  593SOL    HW2 1779   0.903   2.487   1.695 -0.8969  0.9560 -1.7942
  594SOL     OW 1780   1.172   1.462   0.054 -0.4207 -0.4139 -0.6121
  594SOL    HW1 1781   1.170   1.364   0.041  1.2455 -1.0264 -0.5246
  594SOL    HW2 1782   1.230   1.481   0.136 -0.6289  0.9557 -0.6323
  595SOL     OW 1783   1.426   1.167   1.552 -0.6933  0.1600 -0.6372
  595SOL    HW1 1784   1.502   1.202   1.497  0.0866  3.4172 -1.8140
  595SOL    HW2 1785   1.338   1.196   1.505  2.0431  0.5069 -0.0774
  596SOL     OW 1786   0.007   0.990   1.862  0.3658  0.6525 -0.2506
  596SOL    HW1 1787   0.016   0.890   1.862  3.6907 -2.6511  0.9194
  596SOL    HW2 1788   3.048   1.017   1.776  2.8364 -0.3114  0.5379
  597SOL     OW 1789   1.265   2.676   1.876 -0.0447 -0.3904  0.3351
  597SOL    HW1 1790   1.189   2.737   1.842  3.2898 -1.8042 -0.7921
  597SOL    HW2 1791   1.305   2.722   1.954 -0.0387  1.3347 -2.7229
  598SOL     OW 1792   2.416   1.277   1.438 -0.4341 -1.0260  1.0418
  598SOL    HW1 1793   2.388   1.305   1.343  1.7850 -0.4350 -0.6566
  598SOL    HW2 1794   2.405   1.361   1.496 -1.2422  0.8178  1.4635
  599SOL     OW 1795   0.933   2.589   3.084 -0.5110 -0.1372  0.1864
  599SOL    HW1 1796   0.854   2.618   0.049  1.1321  0.0873  1.4724
  599SOL    HW2 1797   0.911   2.528   3.007  0.7539 -0.3539 -2.5965
  600SOL     OW 1798   2.996   2.304   0.229 -0.2425 -0.5951 -0.2588
  600SOL    HW1 1799   2.981   2.270   0.324  1.0248  0.9636 -0.9425
  600SOL    HW2 1800   3.007   2.224   0.168  0.1801  1.8120 -0.4446
  601SOL     OW 1801   0.524   0.872   1.419 -0.4969 -0.9215  0.1050
  601SOL    HW1 1802   0.437   0.855   1.371 -0.3904 -0.1584 -1.7629
  601SOL    HW2 1803   0.564   0.780   1.445  0.1813  1.5204 -0.3988
  602SOL     OW 1804   0.577   0.226   1.003  0.7153  0.2192  0.2643
  602SOL    HW1 1805   0.618   0.229   1.096 -1.1729  0.2329 -1.4854
  602SOL    HW2 1806   0.610   0.146   0.948  0.1601  1.2424 -2.3010
  603SOL     OW 1807   0.206   0.216   2.615 -0.5934  0.3708 -0.0207
  603SOL    HW1 1808   0.205   0.202   2.714  1.3464  2.5021 -2.7295
  603SOL    HW2 1809   0.307   0.227   2.589  1.6243  0.8313 -2.5859
  604SOL     OW 1810   1.099   2.428   1.464  0.3097 -0.2234  0.0516
  604SOL    HW1 1811   1.182   2.370   1.453 -1.6060  1.8155 -0.3658
  604SOL    HW2 1812   1.060   2.459   1.372 -0.3950  1.2813  1.0097
  605SOL     OW 1813   1.578   1.255   1.983  0.6105 -0.2109  0.1081
  605SOL    HW1 1814   1.655   1.285   1.923 -1.4561  0.3719 -3.0975
  605SOL    HW2 1815   1.529   1.177   1.945 -1.0353  3.4818  1.8172
  606SOL     OW 1816   2.138   2.784   3.034 -0.4143 -0.5074  0.3969
  606SOL    HW1 1817   2.075   2.756   0.017  2.1059  0.9464  0.4520
  606SOL    HW2 1818   2.191   2.872   3.052 -1.1692  2.8462 -0.9220
  607SOL     OW 1819   0.649   0.152   1.839 -0.9412  0.2634 -0.6938
  607SOL    HW1 1820   0.752   0.142   1.831  0.1397 -3.3824 -0.3692
  607SOL    HW2 1821   0.607   0.183   1.752 -0.5975  0.6344 -0.6111
  608SOL     OW 1822   0.182   2.396   2.038  0.2106  0.3842  0.0126
  608SOL    HW1 1823   0.177   2.291   2.047  0.8920  0.7702  1.5626
  608SOL    HW2 1824   0.230   2.423   1.955 -0.3623 -1.4866  0.2866
  609SOL     OW 1825   1.205   1.191   0.067  0.0256  0.4612  0.1940
  609SOL    HW1 1826   1.180   1.194   0.164 -1.1597 -0.9254  0.7190
  609SOL    HW2 1827   1.191   1.094   0.035  2.5935  0.9968  0.7315
  610SOL     OW 1828   0.300   2.912   1.086  0.1080 -0.2211 -0.5863
  610SOL    HW1 1829   0.377   2.970   1.120 -0.5878  0.5300 -1.4818
  610SOL    HW2 1830   0.228   2.904   1.155  0.8537 -0.3397 -1.2041
  611SOL     OW 1831   1.081   1.095   0.485  0.3186  0.2002  0.4249
  611SOL    HW1 1832   0.984   1.085   0.450  0.9032 -0.7904 -0.3134
  611SOL    HW2 1833   1.114   1.006   0.523  1.2515 -2.2900 -2.6015
  612SOL     OW 1834   2.134   1.909   0.280 -0.3672  0.0281  0.2745
  612SOL    HW1 1835   2.183   1.986   0.237  1.7750 -0.7716  0.4762
  612SOL    HW2 1836   2.181   1.852   0.348 -3.2998  0.3516 -0.2994
  613SOL     OW 1837   1.665   1.554   0.356 -0.3852 -0.1086  0.0505
  613SOL    HW1 1838   1.758   1.512   0.371  2.2912 -1.6952  0.7192
  613SOL    HW2 1839   1.621   1.520   0.272  1.3078  1.1423  1.2314
  614SOL     OW 1840   2.808   0.194   2.402 -0.1014  0.9367  0.4371
  614SOL    HW1 1841   2.710   0.228   2.392  3.1482  0.3986  0.1184
  614SOL    HW2 1842   2.869   0.276   2.391  1.5125  2.9479 -1.3820
  615SOL     OW 1843   0.809   1.485   0.215  0.4131 -0.1068 -0.1883
  615SOL    HW1 1844   0.786   1.459   0.117 -0.9880 -1.5475 -1.7884
  615SOL    HW2 1845   0.904   1.459   0.246 -0.9774 -0.1257 -0.1297
  616SOL     OW 1846   1.208   1.024   2.841  0.0550  0.0578  0.4585
  616SOL    HW1 1847   1.114   0.985   2.829 -0.3701 -0.9043 -0.6682
  616SOL    HW2 1848   1.274   0.954   2.809  1.0893  0.5950 -1.7535
  617SOL     OW 1849   1.409   0.209   0.390 -0.3980  0.3339 -0.5237
  617SOL    HW1 1850   1.441   0.279   0.455 -0.7123 -1.0088 -1.9465
  617SOL    HW2 1851   1.315   0.183   0.408  1.2651 -0.6457 -2.8217
  618SOL     OW 1852   2.899   1.925   2.452 -0.0462  0.3557 -1.2593
  618SOL    HW1 1853   2.912   1.827   2.422  0.9186 -0.5467  0.1413
  618SOL    HW2 1854   2.852   1.924   2.544 -0.4811  0.4426  0.4054
  619SOL     OW 1855   2.252   1.716   0.960 -0.1995  0.0454 -0.1500
  619SOL    HW1 1856   2.285   1.745   1.050 -2.0707 -1.2696 -0.5761
  619SOL    HW2 1857   2.301   1.755   0.879  1.0695  2.7643 -4.9982
  620SOL     OW 1858   2.347   0.131   1.392 -0.6896  0.3444 -0.0356
  620SOL    HW1 1859   2.287   0.148   1.308 -0.0218  0.2918  0.3739
  620SOL    HW2 1860   2.302   0.061   1.445  2.7787  3.6288 -2.0739
  621SOL     OW 1861   0.064   2.060   0.856  0.2213 -0.3281 -0.2633
  621SOL    HW1 1862   0.040   2.017   0.948  0.6873 -1.2542  3.6698
  621SOL    HW2 1863   0.046   2.162   0.856  1.2340  2.9601 -1.4057
  622SOL     OW 1864   0.716   1.554   2.228  0.0900  0.1509 -0.6276
  622SOL    HW1 1865   0.631   1.503   2.237  1.7230  0.9014  1.3444
  622SOL    HW2 1866   0.707   1.614   2.144 -1.6938 -0.9796 -1.8973
  623SOL     OW 1867   2.539   2.521   2.458  0.0855  0.3927 -0.2021
  623SOL    HW1 1868   2.460   2.586   2.445 -0.5180 -0.6152  0.3014
  623SOL    HW2 1869   2.627   2.560   2.430  0.0444 -1.3386 -1.4286
  624SOL     OW 1870   0.824   1.748   0.248 -0.0992  0.5105 -0.4937
  624SOL    HW1 1871   0.809   1.647   0.241  0.1335 -2.5003  0.5066
  624SOL    HW2 1872   0.900   1.769   0.305 -1.8644 -0.2796  0.7909
  625SOL     OW 1873   0.625   1.944   2.233 -0.4462 -0.0182  0.6452
  625SOL    HW1 1874   0.680   1.908   2.312  1.8218 -1.5107  0.6459
  625SOL    HW2 1875   0.682   1.973   2.154 -1.0619  0.0542  2.0543
  626SOL     OW 1876   0.104   2.427   0.391  0.0575 -0.7234 -0.6359
  626SOL    HW1 1877   0.124   2.348   0.451 -1.4254 -0.3839  0.0339
  626SOL    HW2 1878   0.056   2.405   0.308 -0.6858  2.0233  1.3458
  627SOL     OW 1879   1.062   1.657   2.390 -0.3125  0.2580 -0.1943
  627SOL    HW1 1880   1.090   1.564   2.350  0.4940 -1.4759 -2.1149
  627SOL    HW2 1881   1.078   1.657   2.491  4.0556  0.2279 -0.6427
  628SOL     OW 1882   1.452   1.940   0.546  0.0396 -0.2599 -0.1516
  628SOL    HW1 1883   1.471   2.006   0.473 -0.3631 -0.3968  1.8421
  628SOL    HW2 1884   1.514   1.946   0.628  0.4713  0.2840  2.1293
  629SOL     OW 1885   0.817   0.609   1.763 -0.1029  0.0616 -0.3200
  629SOL    HW1 1886   0.716   0.615   1.772 -0.6828 -2.2749  0.3940
  629SOL    HW2 1887   0.869   0.629   1.852  2.4557  0.7382  0.9215
  630SOL     OW 1888   2.496   0.364   1.603 -0.1413 -0.7841  0.6003
  630SOL    HW1 1889   2.522   0.350   1.507 -2.1384 -1.9815 -0.4663
  630SOL    HW2 1890   2.394   0.342   1.610 -1.9214  0.3836 -1.3274
  631SOL     OW 1891   1.301   0.624   0.632 -0.1890 -0.1366 -0.7222
  631SOL    HW1 1892   1.276   0.685   0.711 -1.8831  0.3787 -0.5708
  631SOL    HW2 1893   1.239   0.540   0.628  0.7496  0.5822  1.7231
  632SOL     OW 1894   2.146   0.472   2.039 -0.2857  0.3571 -0.3028
  632SOL    HW1 1895   2.156   0.538   2.118  3.5254 -0.8545  0.3973
  632SOL    HW2 1896   2.235   0.425   2.012 -1.6430 -0.9505 -0.1361
  633SOL     OW 1897   1.341   1.267   2.834  0.2771  0.0245  1.1867
  633SOL    HW1 1898   1.298   1.314   2.759  1.0762 -1.1656  0.2129
  633SOL    HW2 1899   1.319   1.169   2.821 -1.0658 -0.3069 -1.8016
  634SOL     OW 1900   0.372   2.247   0.221 -0.0570 -1.0164  0.3183
  634SOL    HW1 1901   0.358   2.247   0.322 -1.3219 -0.1399  0.6333
  634SOL    HW2 1902   0.469   2.224   0.198 -1.9750  1.7224 -1.4336
  635SOL     OW 1903   2.785   1.556   2.026 -0.4482  0.0848  0.1333
  635SOL    HW1 1904   2.833   1.487   2.084  0.6951 -1.1418 -1.3825
  635SOL    HW2 1905   2.706   1.509   1.983  3.2642 -1.5231  1.1301
  636SOL     OW 1906   0.429   1.899   0.033 -0.0573 -0.1813  0.1591
  636SOL    HW1 1907   0.473   1.809   0.019  1.5183  3.5739 -0.7023
  636SOL    HW2 1908   0.334   1.901   0.003 -0.0342  0.4208 -0.7749
  637SOL     OW 1909   0.066   2.010   0.435  0.2133  0.3307  0.1800
  637SOL    HW1 1910   0.051   1.908   0.456  1.3953 -0.4560  1.0663
  637SOL    HW2 1911   3.065   2.061   0.443 -2.6759  0.4492 -0.2578
  638SOL     OW 1912   2.687   2.647   0.447  0.2839 -0.0803  0.2373
  638SOL    HW1 1913   2.598   2.688   0.476 -0.4567  1.8463  1.1871
  638SOL    HW2 1914   2.680   2.552   0.414 -0.8297 -0.7750  0.7579
  639SOL     OW 1915   0.998   0.457   0.174 -0.1306 -0.7994 -0.2930
  639SOL    HW1 1916   1.005   0.417   0.082  0.0556  4.4960  1.0629
  639SOL    HW2 1917   0.985   0.560   0.166 -0.6623  4.0902  1.7819
  640SOL     OW 1918   2.368   2.367   1.854 -0.4178  0.3060 -0.4294
  640SOL    HW1 1919   2.447   2.313   1.874 -4.0377 -1.5651  0.6327
  640SOL    HW2 1920   2.356   2.370   1.750  0.3990  1.8179 -1.9111
  641SOL     OW 1921   2.463   2.812   1.509  0.0003 -0.8402  0.5783
  641SOL    HW1 1922   2.394   2.812   1.437  0.4323 -1.5737  1.8733
  641SOL    HW2 1923   2.539   2.880   1.499  3.1569  3.2012 -2.3869
  642SOL     OW 1924   1.245   0.926   1.559 -0.0188 -0.0993 -0.1218
  642SOL    HW1 1925   1.314   0.997   1.571 -3.5238 -3.8459 -0.8612
  642SOL    HW2 1926   1.271   0.867   1.477 -0.8551 -0.6663 -0.6761
  643SOL     OW 1927   0.972   1.399   2.085 -0.0350  0.3679 -0.1252
  643SOL    HW1 1928   0.883   1.355   2.064  0.4655 -1.7546 -0.8586
  643SOL    HW2 1929   0.980   1.482   2.027 -0.5321 -0.5072  0.5228
  644SOL     OW 1930   1.359   0.338   2.085 -0.0246 -0.3083  0.1653
  644SOL    HW1 1931   1.297   0.271   2.132  0.6871  1.8351  0.5932
  644SOL    HW2 1932   1.403   0.390   2.162  1.5909  0.2887  3.2514
  645SOL     OW 1933   1.933   1.376   1.526 -0.1882 -0.3642 -0.2415
  645SOL    HW1 1934   1.907   1.360   1.431 -0.0874 -1.6181 -0.0282
  645SOL    HW2 1935   1.972   1.471   1.544 -0.1218  1.2895  0.7401
  646SOL     OW 1936   1.510   2.218   0.085  0.5200  0.2828  0.4559
  646SOL    HW1 1937   1.554   2.246   0.001 -1.3256 -2.7092  0.3924
  646SOL    HW2 1938   1.524   2.125   0.111 -0.7349  1.8311 -3.6934
  647SOL     OW 1939   1.725   2.707   0.992 -0.0685 -0.4523 -0.1185
  647SOL    HW1 1940   1.740   2.638   0.920  1.7965  1.3980 -0.9863
  647SOL    HW2 1941   1.694   2.655   1.072  0.6977 -0.9408  0.3192
  648SOL     OW 1942   0.059   2.599   1.554  0.2279 -0.0542 -0.4062
  648SOL    HW1 1943   3.062   2.632   1.600  0.0013  1.9294 -1.0420
  648SOL    HW2 1944   0.053   2.499   1.542  1.7857  1.0116 -0.7789
  649SOL     OW 1945   1.129   2.530   2.729 -0.5653  0.1503  0.1835
  649SOL    HW1 1946   1.140   2.459   2.801 -1.0805 -1.2347  0.1540
  649SOL    HW2 1947   1.189   2.515   2.649  0.2006  1.6154  1.3975
  650SOL     OW 1948   2.723   1.611   0.106 -0.0247 -0.8644 -0.0708
  650SOL    HW1 1949   2.742   1.662   0.193  0.4250 -1.2442  0.0518
  650SOL    HW2 1950   2.807   1.560   0.084 -1.7621 -0.1665  0.3644
  651SOL     OW 1951   2.568   2.135   2.246  0.3948  0.3899 -0.1425
  651SOL    HW1 1952   2.580   2.062   2.181 -2.3407  2.6274  0.7685
  651SOL    HW2 1953   2.644   2.198   2.261 -0.0085 -0.3373  1.1706
  652SOL     OW 1954   2.368   2.438   0.479 -0.0176 -0.1763  0.5187
  652SOL    HW1 1955   2.334   2.437   0.382  0.7316  0.4723 -0.4353
  652SOL    HW2 1956   2.470   2.440   0.477  0.8340 -1.4011 -0.0761
  653SOL     OW 1957   2.776   1.645   1.627 -0.0572 -0.0646  0.1904
  653SOL    HW1 1958   2.846   1.639   1.704  0.7578 -0.4726 -1.1322
  653SOL    HW2 1959   2.803   1.708   1.552  1.0788 -1.4653  0.2475
  654SOL     OW 1960   0.829   1.124   3.083 -0.0964  0.1889  0.8391
  654SOL    HW1 1961   0.891   1.180   3.026  1.7733 -1.2828  1.2489
  654SOL    HW2 1962   0.822   1.026   3.057 -1.0522 -1.1497  0.9631
  655SOL     OW 1963   1.025   1.086   1.042  0.0194 -0.1551  0.1505
  655SOL    HW1 1964   1.116   1.060   1.085 -0.2565  1.4194  2.0031
  655SOL    HW2 1965   1.047   1.142   0.960  0.2466 -1.0242 -2.6121
  656SOL     OW 1966   1.437   2.690   2.109 -0.0299  0.2866 -0.0640
  656SOL    HW1 1967   1.344   2.699   2.149  3.5897  0.7036  3.5438
  656SOL    HW2 1968   1.483   2.618   2.165 -0.8766 -3.1239  0.0976
  657SOL     OW 1969   1.960   1.488   0.340 -0.3051  0.3284  0.2337
  657SOL    HW1 1970   1.903   1.400   0.342 -0.4814 -0.6605 -0.3891
  657SOL    HW2 1971   1.952   1.533   0.252  0.3398  0.2320  2.2710
  658SOL     OW 1972   1.944   2.680   1.492  0.0792 -0.4455  0.2474
  658SOL    HW1 1973   2.028   2.643   1.528 -1.8828  0.6732 -1.5961
  658SOL    HW2 1974   1.935   2.775   1.527  1.8650  1.0290  0.9624
  659SOL     OW 1975   2.892   1.690   0.330  0.0031  0.2297  0.7107
  659SOL    HW1 1976   2.959   1.613   0.331  0.3670 -1.1234 -1.3611
  659SOL    HW2 1977   2.866   1.720   0.423 -3.2129 -1.4565  1.1984
  660SOL     OW 1978   1.300   0.132   0.770 -0.0887  0.4691 -0.4358
  660SOL    HW1 1979   1.317   0.037   0.734  1.7871 -1.6493 -0.3895
  660SOL    HW2 1980   1.389   0.184   0.765 -1.4608 -0.0475  0.3975
  661SOL     OW 1981   1.783   0.235   0.033 -0.0752  0.1803  0.2511
  661SOL    HW1 1982   1.783   0.286   0.124  1.4454  0.5127  2.1325
  661SOL    HW2 1983   1.858   0.163   0.029 -2.4993  0.0897  0.0252
  662SOL     OW 1984   0.499   0.196   0.533 -0.1953  0.3762 -0.4819
  662SOL    HW1 1985   0.453   0.152   0.606 -1.5097  1.3814 -1.1430
  662SOL    HW2 1986   0.545   0.133   0.469 -0.1363  1.1702 -0.4408
  663SOL     OW 1987   1.346   2.483   2.555 -0.8617 -0.2345 -0.4596
  663SOL    HW1 1988   1.330   2.573   2.505  1.2527  1.6221  0.1021
  663SOL    HW2 1989   1.389   2.414   2.488  2.5464 -0.3104 -1.1337
  664SOL     OW 1990   0.567   2.447   1.518 -0.4954  0.4255 -0.1765
  664SOL    HW1 1991   0.482   2.397   1.530  0.6444 -0.3469 -1.9608
  664SOL    HW2 1992   0.561   2.511   1.444  0.2449  1.7864  2.6017
  665SOL     OW 1993   1.652   2.532   1.209  0.0935 -0.0920 -0.1618
  665SOL    HW1 1994   1.552   2.532   1.206  2.6612 -1.9255  1.1927
  665SOL    HW2 1995   1.690   2.493   1.298  1.8404 -0.6434 -1.6975
  666SOL     OW 1996   0.940   2.508   2.342  0.1033  0.0564  0.9158
  666SOL    HW1 1997   1.014   2.454   2.305 -3.0947  0.4495  1.2877
  666SOL    HW2 1998   0.864   2.445   2.348  1.9287 -0.4451  0.2308
  667SOL     OW 1999   2.872   0.598   1.441 -0.0359 -0.5527  0.2906
  667SOL    HW1 2000   2.966   0.568   1.454 -2.0858 -0.4380  0.7513
  667SOL    HW2 2001   2.804   0.522   1.445  1.8233  2.0288  0.1040
  668SOL     OW 2002   1.093   0.141   1.670  0.2152 -0.6828 -0.0673
  668SOL    HW1 2003   1.079   0.116   1.568 -2.6473 -0.6302 -0.8026
  668SOL    HW2 2004   1.191   0.162   1.680  1.8125 -0.9169  0.1977
  669SOL     OW 2005   1.986   2.658   1.190  0.1278  0.3570 -0.1364
  669SOL    HW1 2006   1.960   2.663   1.289 -0.4464 -0.5344 -0.4202
  669SOL    HW2 2007   1.984   2.755   1.156 -0.9785  3.1446  0.0620
  670SOL     OW 2008   1.583   2.292   2.907 -0.1304  0.3951  0.3504
  670SOL    HW1 2009   1.542   2.381   2.882  1.0765  1.4279 -1.0873
  670SOL    HW2 2010   1.664   2.269   2.851 -2.7416  1.1234  2.9541
  671SOL     OW 2011   0.330   1.157   0.156 -0.0950  0.2451 -0.3492
  671SOL    HW1 2012   0.422   1.193   0.119 -0.5926 -0.4380 -0.0185
  671SOL    HW2 2013   0.341   1.068   0.207 -1.5271  3.1863 -0.0582
  672SOL     OW 2014   2.822   0.475   2.779 -0.5978 -0.4117 -1.0584
  672SOL    HW1 2015   2.870   0.562   2.794 -1.6847  2.4881  0.8128
  672SOL    HW2 2016   2.876   0.399   2.744 -1.2127  1.2402  2.0871
  673SOL     OW 2017   0.123   1.958   1.317 -0.7879 -0.6859 -0.9128
  673SOL    HW1 2018   0.036   1.952   1.368  0.2952 -0.3951 -0.1112
  673SOL    HW2 2019   0.199   1.945   1.384 -1.3066 -0.6473  1.0916
  674SOL     OW 2020   1.448   2.136   1.515  0.0215 -0.3522  0.2990
  674SOL    HW1 2021   1.380   2.144   1.590  1.2792 -3.4633 -0.4205
  674SOL    HW2 2022   1.463   2.035   1.498  0.7250  0.8452 -1.4319
  675SOL     OW 2023   1.139   1.422   1.233  0.6848  0.5075  0.2595
  675SOL    HW1 2024   1.144   1.526   1.228  0.5334  1.3135 -1.2867
  675SOL    HW2 2025   1.053   1.391   1.187  1.9713  0.8066  0.3304
  676SOL     OW 2026   2.385   0.695   0.998 -0.3036  0.2678  0.5882
  676SOL    HW1 2027   2.304   0.751   0.976 -0.7568  0.4208 -2.2441
  676SOL    HW2 2028   2.434   0.740   1.073 -0.8949  0.6143 -4.3771
  677SOL     OW 2029   2.654   0.242   0.352  0.0740  0.3006  0.6151
  677SOL    HW1 2030   2.699   0.160   0.385  3.5892  2.8689 -0.9405
  677SOL    HW2 2031   2.634   0.243   0.252  1.9731  3.0140  0.7041
  678SOL     OW 2032   2.487   1.495   1.064 -0.1939  0.2726  0.5101
  678SOL    HW1 2033   2.584   1.484   1.034  3.0220 -2.6037  1.4400
  678SOL    HW2 2034   2.433   1.531   0.986 -2.7675 -2.9818 -0.2931
  679SOL     OW 2035   2.646   0.566   3.091  0.4546 -0.2214 -1.1038
  679SOL    HW1 2036   2.658   0.579   0.099 -2.3595 -1.8127 -1.3843
  679SOL    HW2 2037   2.728   0.519   3.049 -0.9549  0.5680  0.4117
  680SOL     OW 2038   0.511   1.305   2.270 -0.5912 -0.0754  0.0727
  680SOL    HW1 2039   0.566   1.220   2.244  1.1150 -1.5362  0.0333
  680SOL    HW2 2040   0.447   1.287   2.341  2.1135 -1.5491 -2.9816
  681SOL     OW 2041   2.730   2.088   1.747 -0.3053 -0.0160 -0.0165
  681SOL    HW1 2042   2.699   2.155   1.820  0.7488  0.1400  0.8452
  681SOL    HW2 2043   2.662   2.014   1.740  2.0530  1.1544 -0.7703
  682SOL     OW 2044   0.769   1.844   2.844  0.4570 -0.0343 -0.2253
  682SOL    HW1 2045   0.809   1.820   2.935  0.4377  0.5487  1.7713
  682SOL    HW2 2046   0.753   1.949   2.846  1.0612  3.7827 -1.0456
  683SOL     OW 2047   2.625   1.983   1.354 -0.1590 -0.0939 -0.2851
  683SOL    HW1 2048   2.536   2.031   1.368 -0.4820  0.4639 -0.1714
  683SOL    HW2 2049   2.692   2.015   1.419  0.0229 -0.1119 -2.0945
  684SOL     OW 2050   2.758   1.283   1.820 -0.5214  0.0546 -0.0093
  684SOL    HW1 2051   2.677   1.342   1.833 -1.6534  0.9660 -0.7993
  684SOL    HW2 2052   2.780   1.235   1.906 -2.1400 -3.4419  0.6006
  685SOL     OW 2053   0.902   0.841   1.039  0.4157  0.5061  0.6097
  685SOL    HW1 2054   0.945   0.934   1.056  0.8821 -0.1201  0.3681
  685SOL    HW2 2055   0.807   0.845   1.066  3.9458 -0.8610  0.3537
  686SOL     OW 2056   0.690   0.063   2.929 -0.4837  0.1362  0.4493
  686SOL    HW1 2057   0.644   3.062   2.920 -2.4941  0.8409  0.2665
  686SOL    HW2 2058   0.643   0.131   2.990  1.4585 -0.1388  0.5345
  687SOL     OW 2059   0.688   2.096   1.991  0.4178 -0.3496  0.0985
  687SOL    HW1 2060   0.613   2.148   1.949 -0.7398 -1.7767  0.2682
  687SOL    HW2 2061   0.725   2.151   2.068 -0.1734  0.1112  0.3946
  688SOL     OW 2062   1.941   0.142   1.530  0.4526  0.0532 -0.0624
  688SOL    HW1 2063   1.939   0.151   1.426 -0.5018  0.4904  0.6179
  688SOL    HW2 2064   1.988   0.226   1.564 -0.5321  0.0301 -0.5509
  689SOL     OW 2065   1.983   0.810   0.631  0.6276 -0.3380  0.0925
  689SOL    HW1 2066   1.892   0.789   0.673  1.2909  0.5636  0.6331
  689SOL    HW2 2067   2.045   0.739   0.659  0.0438 -0.9856 -1.8754
  690SOL     OW 2068   2.860   1.071   1.233  0.5199 -0.5097  0.0101
  690SOL    HW1 2069   2.785   1.090   1.297  0.5085 -0.2838  0.4652
  690SOL    HW2 2070   2.891   0.975   1.235  0.5623 -1.0578  2.1105
  691SOL     OW 2071   0.264   1.070   1.742  0.4399  0.0855 -0.3351
  691SOL    HW1 2072   0.258   1.138   1.668 -1.8944 -0.7810  1.5649
  691SOL    HW2 2073   0.173   1.041   1.768  1.7253  1.5399 -1.0969
  692SOL     OW 2074   0.644   0.868   1.975  0.2505 -0.1801  0.1021
  692SOL    HW1 2075   0.562   0.900   2.021  0.8869  0.8901 -2.8402
  692SOL    HW2 2076   0.618   0.839   1.883  0.4482  1.3629  0.2948
  693SOL     OW 2077   0.402   1.284   2.006  0.8338  0.1136  0.0721
  693SOL    HW1 2078   0.309   1.326   2.006 -1.0458  1.5574 -1.2304
  693SOL    HW2 2079   0.441   1.325   2.094 -0.5161  1.3545  3.7519
  694SOL     OW 2080   1.423   1.591   0.648  0.2038 -0.3931  0.3684
  694SOL    HW1 2081   1.522   1.616   0.648  0.5641  0.2655  0.5441
  694SOL    HW2 2082   1.381   1.621   0.560 -0.7775  1.3470  0.8182
  695SOL     OW 2083   0.156   0.947   0.908 -0.0238 -0.2474 -0.1608
  695SOL    HW1 2084   0.197   1.018   0.841  3.1051  5.0345 -2.4781
  695SOL    HW2 2085   0.094   0.878   0.866 -2.9625 -0.5652  0.8047
  696SOL     OW 2086   0.548   2.315   0.502 -0.2446 -0.4067 -0.0186
  696SOL    HW1 2087   0.552   2.379   0.421 -2.2135 -0.3285 -0.9105
  696SOL    HW2 2088   0.643   2.299   0.535 -2.2824  3.2205  0.7094
  697SOL     OW 2089   1.226   0.609   1.496  0.1249  0.1918  0.0679
  697SOL    HW1 2090   1.286   0.684   1.461 -0.4146 -0.0498  0.0486
  697SOL    HW2 2091   1.131   0.644   1.503  2.0454  0.8464  1.4810
  698SOL     OW 2092   1.543   1.609   1.784  0.1896  0.1096 -0.0314
  698SOL    HW1 2093   1.515   1.567   1.699  1.6476  1.5441  0.7237
  698SOL    HW2 2094   1.461   1.614   1.845 -1.2594 -1.2101  0.8732
  699SOL     OW 2095   0.064   0.589   2.406 -0.0437 -0.0400 -0.0678
  699SOL    HW1 2096   0.087   0.516   2.343 -2.2127  2.6966 -1.0216
  699SOL    HW2 2097   0.147   0.615   2.460  1.0990  3.3419  1.6039
  700SOL     OW 2098   1.670   2.303   0.634  0.1028  0.8071  0.2522
  700SOL    HW1 2099   1.674   2.201   0.645  0.3572  3.5542  1.2950
  700SOL    HW2 2100   1.570   2.318   0.631  1.5038 -3.2655  2.7247
  701SOL     OW 2101   0.215   1.643   2.495  0.4485 -0.2620 -0.2848
  701SOL    HW1 2102   0.187   1.580   2.569 -1.9860 -0.3220  1.5946
  701SOL    HW2 2103   0.220   1.740   2.532  1.1690 -3.5285 -1.5277
  702SOL     OW 2104   0.487   0.209   3.041 -0.4599 -0.0284 -0.1402
  702SOL    HW1 2105   0.421   0.131   3.046  0.6651 -0.3355  0.2373
  702SOL    HW2 2106   0.450   0.278   2.973 -1.8901  1.1832  2.0344
  703SOL     OW 2107   1.439   0.366   2.865 -0.2686 -0.0232 -0.4648
  703SOL    HW1 2108   1.539   0.349   2.866 -1.6651 -0.6563 -0.9637
  703SOL    HW2 2109   1.389   0.285   2.833 -1.2791  2.1975  0.8169
  704SOL     OW 2110   2.656   1.747   0.925  0.0450  0.5392  0.3533
  704SOL    HW1 2111   2.649   1.749   1.025  0.9992  0.5307 -2.3680
  704SOL    HW2 2112   2.752   1.775   0.906 -2.6260  0.3288  0.1874
  705SOL     OW 2113   2.721   1.758   2.188 -0.0446  0.0831  0.2838
  705SOL    HW1 2114   2.753   1.676   2.135 -0.3995 -1.8551  0.7216
  705SOL    HW2 2115   2.794   1.778   2.256  1.4107 -0.2577 -2.3498
  706SOL     OW 2116   3.011   2.777   1.062  0.5842  0.2140 -0.1925
  706SOL    HW1 2117   2.935   2.790   0.991 -3.6997 -2.3397 -1.6151
  706SOL    HW2 2118   0.007   2.796   1.015  2.2939 -0.1771 -2.1543
  707SOL     OW 2119   0.917   3.078   0.270  0.3347 -0.5244  0.3509
  707SOL    HW1 2120   0.956   2.993   0.309 -1.3338  1.8772 -1.2322
  707SOL    HW2 2121   0.981   0.031   0.207 -1.6766 -0.8598 -0.4002
  708SOL     OW 2122   0.758   2.257   1.492 -0.1519  0.0176  0.2303
  708SOL    HW1 2123   0.846   2.274   1.531  0.3080  0.0181 -0.1840
  708SOL    HW2 2124   0.691   2.335   1.515  1.1153 -0.5394 -0.1779
  709SOL     OW 2125   1.823   0.497   2.364 -0.1936 -0.4230 -0.1813
  709SOL    HW1 2126   1.755   0.454   2.427  0.7207  2.3319 -1.5848
  709SOL    HW2 2127   1.916   0.464   2.391  2.7160 -1.9758  2.1917
  710SOL     OW 2128   1.295   2.878   2.678 -0.0502  0.2210 -0.2624
  710SOL    HW1 2129   1.202   2.845   2.649 -2.0538 -0.4693 -0.4157
  710SOL    HW2 2130   1.321   2.853   2.772 -1.6076 -0.5557  0.2508
  711SOL     OW 2131   1.097   2.213   2.415  0.3805  0.8892  0.0650
  711SOL    HW1 2132   1.158   2.152   2.468 -1.3983  0.2726  1.7976
  711SOL    HW2 2133   1.152   2.279   2.360  2.8112 -0.5022 -1.2236
  712SOL     OW 2134   1.207   1.988   2.805  0.0408  0.3134 -0.0147
  712SOL    HW1 2135   1.130   1.966   2.746 -1.2470 -1.8950  1.7650
  712SOL    HW2 2136   1.199   1.946   2.895  3.0533  1.3804 -0.5578
  713SOL     OW 2137   1.096   0.887   1.868  0.7381  0.2425 -0.4701
  713SOL    HW1 2138   1.124   0.974   1.824 -0.1671 -0.0942 -1.9171
  713SOL    HW2 2139   1.099   0.805   1.806  2.3217 -0.7540  0.8452
  714SOL     OW 2140   1.379   1.675   1.042 -0.1343 -0.2535 -0.5049
  714SOL    HW1 2141   1.440   1.709   0.971 -0.2329 -1.8410  0.9104
  714SOL    HW2 2142   1.369   1.743   1.114  1.6707 -2.6733  0.1066
  715SOL     OW 2143   2.860   0.483   0.676  0.9541 -1.0924  0.0592
  715SOL    HW1 2144   2.839   0.490   0.775  1.6872  1.0570 -2.9363
  715SOL    HW2 2145   2.779   0.463   0.616  2.6294  0.1220  0.3024
  716SOL     OW 2146   0.720   2.743   0.410 -0.0743 -0.4825 -0.3277
  716SOL    HW1 2147   0.819   2.771   0.410 -0.1701  0.6877  2.4075
  716SOL    HW2 2148   0.698   2.689   0.493  0.4886 -0.9478 -0.0677
  717SOL     OW 2149   2.896   0.473   0.242  0.5263  0.4304  0.3953
  717SOL    HW1 2150   2.936   0.395   0.285  0.5495  4.5065  0.1236
  717SOL    HW2 2151   2.841   0.443   0.160 -1.1166  1.0632  0.9133
  718SOL     OW 2152   1.766   2.113   0.945  0.0346 -0.3739 -0.0240
  718SOL    HW1 2153   1.866   2.094   0.958 -1.0356  0.7596  0.6299
  718SOL    HW2 2154   1.748   2.202   0.987 -1.4921  0.6075  2.9260
  719SOL     OW 2155   2.809   2.416   1.108 -0.8266 -0.0324  0.0889
  719SOL    HW1 2156   2.789   2.312   1.119  0.0183 -1.1311  2.1546
  719SOL    HW2 2157   2.862   2.424   1.022  0.0712  0.0950  0.8787
  720SOL     OW 2158   0.886   1.307   1.145  0.2713 -0.5765 -0.6186
  720SOL    HW1 2159   0.936   1.216   1.138  0.2445  0.0886 -0.3788
  720SOL    HW2 2160   0.852   1.340   1.057 -1.3509 -1.8428 -0.8848
  721SOL     OW 2161   1.572   0.624   0.987 -0.2787  0.9432 -0.0367
  721SOL    HW1 2162   1.618   0.546   0.943 -1.1665  1.8546 -1.0756
  721SOL    HW2 2163   1.631   0.680   1.043 -1.9794  1.2093  1.1767
  722SOL     OW 2164   1.152   1.143   1.763 -0.0374  0.6578  0.4381
  722SOL    HW1 2165   1.112   1.205   1.693  2.8304 -1.0387  1.3194
  722SOL    HW2 2166   1.149   1.186   1.857  1.0113  1.1446 -0.4251
  723SOL     OW 2167   0.989   2.952   1.481 -0.3622  0.0926  0.0388
  723SOL    HW1 2168   1.069   3.006   1.445  1.6697  2.1950 -0.7498
  723SOL    HW2 2169   1.018   2.855   1.488 -3.6563 -0.2530 -1.2777
  724SOL     OW 2170   2.148   2.202   1.677  0.2432  0.8109  0.2986
  724SOL    HW1 2171   2.123   2.272   1.743 -0.7274 -1.8135 -1.5229
  724SOL    HW2 2172   2.061   2.159   1.636 -0.0580  0.7745 -0.2888
  725SOL     OW 2173   0.939   2.894   1.158 -0.3275  0.4626  0.1524
  725SOL    HW1 2174   0.874   2.881   1.234 -0.5036 -1.9404  1.5279
  725SOL    HW2 2175   1.020   2.838   1.177  0.1781  1.0249  1.3497
  726SOL     OW 2176   1.587   0.062   0.093 -0.4137  0.7007  0.6892
  726SOL    HW1 2177   1.635   3.064   0.099 -4.0415  0.8319 -1.0176
  726SOL    HW2 2178   1.646   0.143   0.070  0.9724 -0.5172 -0.4114
  727SOL     OW 2179   1.183   1.907   0.620 -0.1558 -0.1656  0.4087
  727SOL    HW1 2180   1.275   1.913   0.587 -0.7733  2.1079 -0.3979
  727SOL    HW2 2181   1.163   1.831   0.681 -0.3352  0.7914 -0.5030
  728SOL     OW 2182   1.793   0.195   2.168  0.6174  0.0741  0.7663
  728SOL    HW1 2183   1.737   0.280   2.158  0.4271 -1.1106  0.3458
  728SOL    HW2 2184   1.888   0.223   2.185 -1.7002 -4.0576 -0.1006
  729SOL     OW 2185   2.319   1.521   1.500  0.1177 -0.2689 -0.1184
  729SOL    HW1 2186   2.226   1.558   1.507 -2.6009  0.4971 -0.0025
  729SOL    HW2 2187   2.372   1.555   1.422  2.9788  0.7159  0.2859
  730SOL     OW 2188   2.030   0.717   2.630  0.1225 -0.2766  0.4441
  730SOL    HW1 2189   2.105   0.786   2.631 -3.0116  2.6387 -0.0759
  730SOL    HW2 2190   1.946   0.761   2.591  0.6510  1.9045 -1.1452
  731SOL     OW 2191   0.577   0.393   1.400 -0.3740 -0.1180  0.3175
  731SOL    HW1 2192   0.600   0.485   1.442 -0.5770  0.5317  0.6717
  731SOL    HW2 2193   0.497   0.404   1.336 -0.5008 -0.9836 -2.3288
  732SOL     OW 2194   1.915   0.223   1.257  0.3355 -0.2132  0.2636
  732SOL    HW1 2195   1.847   0.297   1.267  0.1333  2.5469 -1.0484
  732SOL    HW2 2196   1.889   0.166   1.179 -0.6248  1.7120  0.9899
  733SOL     OW 2197   0.736   1.095   1.502  0.3748  0.0358  0.6219
  733SOL    HW1 2198   0.660   1.046   1.545  2.3840 -0.2741 -0.6679
  733SOL    HW2 2199   0.817   1.036   1.518  0.5520  1.1406  1.0753
  734SOL     OW 2200   2.583   1.443   0.261 -0.4912  0.3447 -0.6671
  734SOL    HW1 2201   2.480   1.458   0.269 -1.5128  0.1411  4.2516
  734SOL    HW2 2202   2.634   1.494   0.188  0.0763 -0.2065  1.6171
  735SOL     OW 2203   0.483   0.717   0.246  0.5316  0.3261 -0.3086
  735SOL    HW1 2204   0.494   0.697   0.150  2.2737  2.3149  2.5958
  735SOL    HW2 2205   0.537   0.649   0.294 -0.2095  0.7153 -2.4974
  736SOL     OW 2206   1.671   2.650   2.920  0.5979  0.2899  0.0529
  736SOL    HW1 2207   1.685   2.641   3.020 -0.3302 -0.6210 -1.4010
  736SOL    HW2 2208   1.593   2.591   2.888  0.1461  0.5442  0.4667
  737SOL     OW 2209   0.954   1.933   0.778 -0.4189 -0.1273 -0.0353
  737SOL    HW1 2210   0.986   1.877   0.858  1.6085 -1.9684  1.4993
  737SOL    HW2 2211   1.024   1.948   0.705  0.8786  1.8577 -1.9550
  738SOL     OW 2212   2.252   0.032   2.543  0.5922 -0.1310 -0.0736
  738SOL    HW1 2213   2.234   0.121   2.496  0.5571 -2.2768 -1.6729
  738SOL    HW2 2214   2.176   0.005   2.607 -3.4050 -0.8212  1.6758
  739SOL     OW 2215   1.782   2.325   2.510  0.2242  0.2769 -0.0098
  739SOL    HW1 2216   1.781   2.291   2.417 -1.6459  3.1975  0.6822
  739SOL    HW2 2217   1.717   2.400   2.529  0.2582 -0.3012  0.1280
  740SOL     OW 2218   1.672   2.147   1.991 -0.6710  0.4598 -0.3861
  740SOL    HW1 2219   1.662   2.239   1.942 -0.6016  1.4761  0.1900
  740SOL    HW2 2220   1.758   2.102   1.964  0.2901  1.1730 -0.9260
  741SOL     OW 2221   2.247   1.551   2.686 -0.0091 -0.0281  0.6557
  741SOL    HW1 2222   2.256   1.624   2.609  0.6959 -0.6483  2.6876
  741SOL    HW2 2223   2.237   1.592   2.778 -0.0974 -1.4542  0.3482
  742SOL     OW 2224   1.018   1.443   2.731  0.1032  0.4739  0.4346
  742SOL    HW1 2225   1.096   1.445   2.666  0.7061 -0.1838 -1.2528
  742SOL    HW2 2226   0.936   1.493   2.690 -1.0903 -1.2332  0.4336
  743SOL     OW 2227   1.665   1.126   2.464  0.1517  0.4362 -0.4525
  743SOL    HW1 2228   1.685   1.144   2.366  1.9687 -0.9677  1.8566
  743SOL    HW2 2229   1.565   1.140   2.477 -0.1140  1.5687 -1.2384
  744SOL     OW 2230   2.221   2.828   1.346  0.9934 -0.0661  0.3919
  744SOL    HW1 2231   2.209   2.734   1.377 -1.7211  1.9245 -0.8137
  744SOL    HW2 2232   2.219   2.832   1.239 -0.8873  1.0655 -2.4147
  745SOL     OW 2233   2.273   1.128   0.882  0.2758 -0.2873  0.1162
  745SOL    HW1 2234   2.375   1.149   0.884  0.0721 -0.3198 -1.4522
  745SOL    HW2 2235   2.219   1.199   0.837 -2.7027 -1.4052  1.7936
  746SOL     OW 2236   2.301   1.744   1.254  0.0088 -0.3214  0.3706
  746SOL    HW1 2237   2.357   1.672   1.302 -1.3899  1.0335 -1.1896
  746SOL    HW2 2238   2.303   1.836   1.301 -0.4213  1.5360  0.8070
  747SOL     OW 2239   1.956   2.962   0.286 -0.2902 -0.3894 -0.6182
  747SOL    HW1 2240   1.874   2.914   0.324 -0.9901 -0.9333  1.3988
  747SOL    HW2 2241   2.009   2.896   0.225 -1.0482 -0.9559  0.7587
  748SOL     OW 2242   0.880   1.792   3.081  0.3297 -0.2309  0.5681
  748SOL    HW1 2243   0.861   1.783   0.088  0.0651  0.5670 -1.9285
  748SOL    HW2 2244   0.921   1.707   3.044  3.9944  2.3481 -0.0854
  749SOL     OW 2245   2.830   0.497   2.052  0.5172 -0.4954 -0.3771
  749SOL    HW1 2246   2.894   0.577   2.078 -0.0264  2.0116 -2.0957
  749SOL    HW2 2247   2.865   0.410   2.081  0.3824  1.5441 -0.4644
  750SOL     OW 2248   1.125   0.616   1.789  0.1347 -0.6571  0.0738
  750SOL    HW1 2249   1.218   0.617   1.828  1.0875 -0.9051  0.3289
  750SOL    HW2 2250   1.133   0.585   1.697  0.5155  2.4769  1.2997
  751SOL     OW 2251   2.349   2.585   2.040 -0.1480  0.4045  0.0216
  751SOL    HW1 2252   2.381   2.513   1.975  1.7062  0.2573  2.2620
  751SOL    HW2 2253   2.408   2.667   2.035 -2.2271  0.6145 -0.8631
  752SOL     OW 2254   1.894   1.400   1.171  0.0470 -0.0720  0.2609
  752SOL    HW1 2255   1.901   1.303   1.147  3.5093 -0.6512  2.4669
  752SOL    HW2 2256   1.973   1.460   1.146 -0.5314 -0.4709 -0.0161
  753SOL     OW 2257   1.257   0.915   2.094 -0.2253 -0.1861  0.4148
  753SOL    HW1 2258   1.189   0.907   2.023 -1.0103 -0.0828 -3.3415
  753SOL    HW2 2259   1.289   0.820   2.135  1.1246  0.9279 -0.6955
  754SOL     OW 2260   0.293   2.458   0.948 -0.2885 -0.3022 -0.4647
  754SOL    HW1 2261   0.302   2.560   0.935  0.3437  0.9814  0.2974
  754SOL    HW2 2262   0.350   2.424   1.024  0.1462  0.3038  4.0742
  755SOL     OW 2263   2.509   0.168   1.186 -0.8585  0.0071 -0.4374
  755SOL    HW1 2264   2.597   0.120   1.192 -0.5285 -0.7333 -1.5355
  755SOL    HW2 2265   2.456   0.162   1.277 -1.8618  2.1802  0.5043
  756SOL     OW 2266   1.781   2.195   2.235  0.6774  0.2949 -0.2125
  756SOL    HW1 2267   1.877   2.188   2.191  1.2573 -0.7544  1.5692
  756SOL    HW2 2268   1.714   2.186   2.157  1.8728  2.4319 -0.8265
  757SOL     OW 2269   2.893   3.013   1.945  0.0552  0.1928 -0.1221
  757SOL    HW1 2270   2.896   3.078   1.864  1.2718 -0.4892 -2.6942
  757SOL    HW2 2271   2.800   3.014   1.986 -2.4825  1.7426 -0.9413
  758SOL     OW 2272   0.512   2.631   1.328 -0.5050  0.1217 -0.2752
  758SOL    HW1 2273   0.565   2.631   1.238 -1.0463  0.5668 -1.3333
  758SOL    HW2 2274   0.410   2.648   1.315 -0.9230 -0.1416  0.8774
  759SOL     OW 2275   1.904   0.912   0.955  0.1490  0.0130  1.0475
  759SOL    HW1 2276   1.871   0.826   0.994  0.9747  1.3715 -1.1726
  759SOL    HW2 2277   1.879   0.922   0.857 -1.2795 -0.5376  2.8214
  760SOL     OW 2278   1.396   0.437   1.620 -0.1418 -0.4824  0.5731
  760SOL    HW1 2279   1.362   0.367   1.685  0.0481  2.2330  0.0267
  760SOL    HW2 2280   1.321   0.478   1.562  0.9872 -0.2072 -1.0943
  761SOL     OW 2281   2.164   0.230   1.184 -0.3289 -0.2775  0.0235
  761SOL    HW1 2282   2.157   0.254   1.089  0.0365 -1.1029  1.4598
  761SOL    HW2 2283   2.074   0.214   1.228  0.7201  0.8621  0.9544
  762SOL     OW 2284   1.749   2.845   0.433  0.4082  0.6150  0.0078
  762SOL    HW1 2285   1.699   2.930   0.410 -0.3496  1.2297 -0.0139
  762SOL    HW2 2286   1.683   2.766   0.440 -0.6211  0.8671 -0.9996
  763SOL     OW 2287   0.945   0.408   1.356 -0.0761 -0.3943 -0.1082
  763SOL    HW1 2288   0.942   0.388   1.455  0.7846  0.0567 -2.3394
  763SOL    HW2 2289   0.899   0.497   1.332 -0.8132  0.1852  2.3650
  764SOL     OW 2290   2.357   2.398   2.268 -0.2122 -0.1302 -0.1872
  764SOL    HW1 2291   2.429   2.413   2.340 -0.5022 -3.7039  0.1230
  764SOL    HW2 2292   2.368   2.462   2.193 -2.1884  0.6763  2.7812
  765SOL     OW 2293   2.974   1.182   2.410 -0.3916 -0.3241  0.6112
  765SOL    HW1 2294   2.895   1.116   2.409  1.4183  1.6574 -1.3742
  765SOL    HW2 2295   3.021   1.187   2.498 -0.6158 -2.0076 -2.8661
  766SOL     OW 2296   2.831   1.318   2.185  0.5205  0.2022 -0.5521
  766SOL    HW1 2297   2.891   1.288   2.264  2.9072 -0.3087 -0.7396
  766SOL    HW2 2298   2.852   1.260   2.110  0.6709  0.3002  2.2712
  767SOL     OW 2299   0.479   2.060   1.654 -0.3692 -0.2289 -0.0401
  767SOL    HW1 2300   0.565   2.045   1.604 -1.8566  0.1645  0.4684
  767SOL    HW2 2301   0.481   2.021   1.748  0.2010 -0.2451  1.8606
  768SOL     OW 2302   0.807   0.850   3.007  0.6545 -0.4029 -0.2982
  768SOL    HW1 2303   0.716   0.862   2.962  1.1529 -1.3607  0.8799
  768SOL    HW2 2304   0.809   0.762   3.061 -1.5232  1.4186 -2.6352
  769SOL     OW 2305   1.211   2.569   3.030  0.6734 -0.4869 -0.6996
  769SOL    HW1 2306   1.114   2.572   3.065  1.5231 -2.0177  0.8444
  769SOL    HW2 2307   1.269   2.511   0.000 -0.4373  1.7112  0.6220
  770SOL     OW 2308   0.963   0.043   2.511 -0.0349 -0.7949  0.0422
  770SOL    HW1 2309   0.959   0.101   2.428  1.0088 -2.9682  0.3655
  770SOL    HW2 2310   0.886   3.067   2.509  1.3118 -0.3935 -0.9004
  771SOL     OW 2311   0.826   2.875   0.683 -0.1988  0.0236  0.3990
  771SOL    HW1 2312   0.760   2.866   0.601 -3.0796  1.3243 -1.2494
  771SOL    HW2 2313   0.775   2.855   0.771 -1.3910  3.9615  2.4432
  772SOL     OW 2314   2.513   0.897   0.211 -0.2718  0.4650 -0.6693
  772SOL    HW1 2315   2.555   0.991   0.222  1.9345 -1.3391  1.7929
  772SOL    HW2 2316   2.582   0.824   0.219 -0.3516  1.5374 -0.3603
  773SOL     OW 2317   1.975   0.889   1.741  0.2151 -0.2356 -0.2185
  773SOL    HW1 2318   2.005   0.800   1.707 -0.2828 -1.4805  0.2697
  773SOL    HW2 2319   1.999   0.968   1.680  0.2336  1.0313  2.0299
  774SOL     OW 2320   0.731   0.348   0.578  0.0708  0.1536 -0.1518
  774SOL    HW1 2321   0.739   0.370   0.676 -0.8549 -2.9974  0.3957
  774SOL    HW2 2322   0.648   0.284   0.563 -1.7158 -1.9263  0.9498
  775SOL     OW 2323   1.639   3.089   0.405  0.2527  0.7959  0.4639
  775SOL    HW1 2324   1.607   0.009   0.502 -3.1878 -1.9091  0.7028
  775SOL    HW2 2325   1.563   0.038   0.347  1.2036  0.3502 -0.1482
  776SOL     OW 2326   2.528   0.229   2.342  0.0268  0.0273  0.7084
  776SOL    HW1 2327   2.510   0.243   2.245  0.9457 -3.7674  1.4752
  776SOL    HW2 2328   2.517   0.134   2.372  1.2701  1.8548  1.8795
  777SOL     OW 2329   1.545   1.505   0.074 -0.3655  0.1766 -0.0541
  777SOL    HW1 2330   1.645   1.513   0.049 -1.1752 -0.7708 -0.0097
  777SOL    HW2 2331   1.496   1.419   0.046 -0.9230 -0.7986 -0.6309
  778SOL     OW 2332   0.286   2.574   0.268 -0.5401  0.3286  0.0248
  778SOL    HW1 2333   0.218   2.537   0.336  0.9037 -1.4382  3.7667
  778SOL    HW2 2334   0.250   2.549   0.175 -3.3003 -2.0028 -3.8013
  779SOL     OW 2335   3.040   1.459   0.313 -0.1689  0.0719 -0.0829
  779SOL    HW1 2336   3.011   1.478   0.217  0.5271  0.4934  0.8819
  779SOL    HW2 2337   0.045   1.496   0.319  1.9161  1.6712 -0.8180
  780SOL     OW 2338   1.745   0.340   1.864  0.0163  0.0869 -0.0450
  780SOL    HW1 2339   1.694   0.377   1.947 -0.0302  1.6587 -1.5634
  780SOL    HW2 2340   1.703   0.252   1.839 -0.1656 -0.9234 -0.0840
  781SOL     OW 2341   1.620   1.221   1.361  0.0326  0.3175  0.4913
  781SOL    HW1 2342   1.572   1.311   1.345 -3.1677  0.6995  2.5145
  781SOL    HW2 2343   1.687   1.197   1.287  0.5492  0.6985 -1.1387
  782SOL     OW 2344   2.063   2.425   1.930  0.2945  0.1403  0.6556
  782SOL    HW1 2345   2.097   2.488   2.006 -0.6214  0.1206  3.2557
  782SOL    HW2 2346   2.038   2.333   1.966  0.9982  1.7153  1.8571
  783SOL     OW 2347   1.345   0.594   1.954  0.4513  0.1957 -0.1500
  783SOL    HW1 2348   1.400   0.671   1.994  0.4969  0.4029 -3.4463
  783SOL    HW2 2349   1.361   0.497   1.982  1.3855  0.3013 -0.3701
  784SOL     OW 2350   1.709   1.137   2.201 -0.6663  0.0026  0.2080
  784SOL    HW1 2351   1.657   1.195   2.132 -0.8330  2.7184 -0.6409
  784SOL    HW2 2352   1.804   1.131   2.161 -0.1072 -0.5114 -0.9565
  785SOL     OW 2353   2.004   0.529   0.252  0.0569 -0.3265 -0.4598
  785SOL    HW1 2354   1.970   0.616   0.291  1.0428 -1.1277 -0.9080
  785SOL    HW2 2355   1.931   0.457   0.255 -0.0234  0.6920 -2.5616
  786SOL     OW 2356   2.866   1.377   0.743  0.5010 -0.2447  0.0606
  786SOL    HW1 2357   2.824   1.417   0.660  3.5348 -2.1423  1.5762
  786SOL    HW2 2358   2.917   1.292   0.716 -0.0046 -2.5259  3.3747
  787SOL     OW 2359   1.717   1.804   0.413  0.6418 -0.1118  0.5199
  787SOL    HW1 2360   1.710   1.852   0.322  0.3346  2.4547 -0.5898
  787SOL    HW2 2361   1.681   1.707   0.402 -1.8934 -0.3313 -0.2614
  788SOL     OW 2362   2.340   1.291   1.162  0.5396  0.4433  0.1991
  788SOL    HW1 2363   2.413   1.353   1.119 -3.6495 -1.1474 -1.0456
  788SOL    HW2 2364   2.254   1.319   1.115 -2.9812  0.0611 -0.7752
  789SOL     OW 2365   2.918   1.664   2.426  0.1897 -0.1195 -0.3760
  789SOL    HW1 2366   2.822   1.616   2.424 -3.3366 -1.4843 -1.1920
  789SOL    HW2 2367   2.984   1.609   2.378 -0.7196  0.1201  0.1955
  790SOL     OW 2368   0.745   2.977   2.524 -0.0628 -0.5569  1.0668
  790SOL    HW1 2369   0.778   2.900   2.467  0.4952  4.1476  1.1652
  790SOL    HW2 2370   0.666   3.020   2.482  2.1054  0.6446  2.5682
  791SOL     OW 2371   0.634   2.636   2.726  0.4251 -0.2670  0.2142
  791SOL    HW1 2372   0.724   2.597   2.688 -1.5869  0.1057 -1.4488
  791SOL    HW2 2373   0.632   2.739   2.742 -0.4855  1.1835  0.1893
  792SOL     OW 2374   1.719   0.467   2.113 -0.3461  0.6206  0.8712
  792SOL    HW1 2375   1.765   0.470   2.203  1.2738  1.2769  1.0516
  792SOL    HW2 2376   1.754   0.546   2.064 -2.4827 -1.5769  1.7208
  793SOL     OW 2377   2.672   0.030   2.126 -0.5170  0.0302 -0.4344
  793SOL    HW1 2378   2.592   0.084   2.104 -0.1836 -0.3727 -3.3625
  793SOL    HW2 2379   2.754   0.090   2.124  1.1998 -1.1302 -1.0541
  794SOL     OW 2380   0.570   0.645   1.843  0.0756 -0.4668  0.4630
  794SOL    HW1 2381   0.558   0.649   1.945  0.6468 -1.6686  0.1773
  794SOL    HW2 2382   0.482   0.674   1.796 -2.0072  0.3220 -0.5517
  795SOL     OW 2383   2.652   1.487   0.530 -0.2239  0.6142 -0.1415
  795SOL    HW1 2384   2.623   1.584   0.527 -1.9013  0.4049 -1.8941
  795SOL    HW2 2385   2.630   1.446   0.438  0.7194  1.8554 -2.4795
  796SOL     OW 2386   2.849   2.379   2.646 -0.1559 -0.4332  0.1833
  796SOL    HW1 2387   2.771   2.306   2.653 -0.7174 -1.4807  2.3092
  796SOL    HW2 2388   2.933   2.341   2.608 -4.3391 -1.0236  1.6661
  797SOL     OW 2389   2.692   2.227   0.168  0.1276  0.3796  0.1667
  797SOL    HW1 2390   2.755   2.180   0.104  0.8438 -0.0000 -2.0748
  797SOL    HW2 2391   2.654   2.311   0.123 -1.0095  1.4374 -1.4912
  798SOL     OW 2392   0.361   0.666   1.669 -0.5282  0.4556 -0.2109
  798SOL    HW1 2393   0.328   0.582   1.716 -2.1923  0.5372 -0.3309
  798SOL    HW2 2394   0.285   0.734   1.652  0.1029 -1.9738 -2.6165
  799SOL     OW 2395   2.651   0.649   2.233 -0.0260  0.0262 -0.2896
  799SOL    HW1 2396   2.731   0.600   2.184  1.6312 -1.5658 -1.2275
  799SOL    HW2 2397   2.684   0.681   2.324  3.0199  2.0096 -1.1897
  800SOL     OW 2398   2.764   2.298   0.662 -0.1892 -0.0670  0.4623
  800SOL    HW1 2399   2.713   2.257   0.737  1.6372  1.0855 -1.3462
  800SOL    HW2 2400   2.799   2.389   0.694 -0.9540  1.7676 -0.9853
  801SOL     OW 2401   1.284   0.805   0.842  0.0604  0.1319 -0.2712
  801SOL    HW1 2402   1.286   0.778   0.944 -2.5090  0.8366  0.4116
  801SOL    HW2 2403   1.374   0.855   0.822  3.9443 -0.7023  0.6005
  802SOL     OW 2404   1.519   2.042   1.057 -0.5741  0.6532  0.5941
  802SOL    HW1 2405   1.605   2.067   1.006  2.1372  1.3627  1.4320
  802SOL    HW2 2406   1.530   1.940   1.082 -1.3023 -1.8931 -1.4359
  803SOL     OW 2407   0.069   1.762   0.533  0.7186  0.2556  0.4702
  803SOL    HW1 2408   0.108   1.693   0.468  0.1709  1.9219 -1.0808
  803SOL    HW2 2409   0.137   1.787   0.605  0.1334 -0.3728 -0.9625
  804SOL     OW 2410   1.379   2.430   0.598  0.3822 -0.0590  0.4152
  804SOL    HW1 2411   1.302   2.440   0.533  0.1819  1.3118  0.2924
  804SOL    HW2 2412   1.357   2.465   0.694  1.2171  1.3788 -1.0348
  805SOL     OW 2413   1.443   1.879   2.380  0.1593 -0.3484 -0.9408
  805SOL    HW1 2414   1.379   1.867   2.303  0.4815  3.6253 -1.1116
  805SOL    HW2 2415   1.545   1.877   2.346  3.7628 -0.0429 -0.6093
  806SOL     OW 2416   1.693   3.081   1.366 -0.2327  0.1062  0.5529
  806SOL    HW1 2417   1.774   3.030   1.395 -0.8030 -0.5720  0.2354
  806SOL    HW2 2418   1.695   0.080   1.409 -1.0370 -0.4083  1.2382
  807SOL     OW 2419   2.208   3.066   0.005 -0.0596  0.3706 -0.4712
  807SOL    HW1 2420   2.115   0.011   3.090 -0.3300 -0.3667  0.9495
  807SOL    HW2 2421   2.272   0.030   3.046 -1.8185 -1.0857 -2.0697
  808SOL     OW 2422   0.497   1.650   3.058  0.1704  0.1831 -0.2046
  808SOL    HW1 2423   0.434   1.640   2.982  1.2970  0.7864  0.1864
  808SOL    HW2 2424   0.555   1.569   3.058 -1.6573 -0.9025 -0.7127
  809SOL     OW 2425   2.942   0.787   2.463  0.6799  0.3976 -0.2388
  809SOL    HW1 2426   3.024   0.732   2.436 -0.3658 -0.3001  0.5814
  809SOL    HW2 2427   2.888   0.759   2.546  1.3513 -1.4501  2.2875
  810SOL     OW 2428   2.921   0.448   2.393  0.0516  0.4034 -0.0602
  810SOL    HW1 2429   2.832   0.492   2.419  1.2401 -1.2846  1.0933
  810SOL    HW2 2430   3.001   0.515   2.403 -3.0239 -1.1319 -3.1355
  811SOL     OW 2431   2.083   2.560   1.706  0.1913  0.3906 -0.4465
  811SOL    HW1 2432   2.059   2.517   1.799  2.8463  0.7371  0.7468
  811SOL    HW2 2433   2.176   2.609   1.716  0.1174  1.5654  0.4646
  812SOL     OW 2434   1.226   0.503   0.320 -0.4253  0.1859  0.1925
  812SOL    HW1 2435   1.144   0.486   0.263 -1.4024 -0.6016  1.3746
  812SOL    HW2 2436   1.307   0.464   0.271 -1.0647  0.3934  2.8845
  813SOL     OW 2437   1.800   0.686   1.993  0.1398  0.1995 -0.5137
  813SOL    HW1 2438   1.725   0.714   1.935  0.2215 -0.7688 -0.2182
  813SOL    HW2 2439   1.868   0.637   1.936 -1.4325  2.2739 -1.4179
  814SOL     OW 2440   1.942   1.107   1.166  0.3962 -0.3091  0.2123
  814SOL    HW1 2441   2.036   1.127   1.204  0.0859 -1.8543 -1.8256
  814SOL    HW2 2442   1.954   1.049   1.080  2.0430  0.5336 -3.0223
  815SOL     OW 2443   0.523   0.973   0.665 -0.0617  0.1451  0.3200
  815SOL    HW1 2444   0.582   0.897   0.630  3.0522 -3.1806 -1.6117
  815SOL    HW2 2445   0.431   0.972   0.618  1.5156  0.2538  3.0419
  816SOL     OW 2446   2.146   2.104   3.055  0.0934 -0.2643 -0.3786
  816SOL    HW1 2447   2.149   2.141   2.961 -1.5522  1.1325  1.5530
  816SOL    HW2 2448   2.234   2.108   0.015 -0.4716 -0.6803 -0.5976
  817SOL     OW 2449   2.960   2.576   1.254 -0.1684  0.6514 -0.1211
  817SOL    HW1 2450   2.898   2.504   1.216  1.1154  0.4030 -0.1441
  817SOL    HW2 2451   2.964   2.661   1.194 -2.8788  2.3700 -1.7923
  818SOL     OW 2452   1.246   0.480   3.002  0.2052  0.0742 -0.3226
  818SOL    HW1 2453   1.160   0.429   3.025  2.3464  0.7525  0.0928
  818SOL    HW2 2454   1.318   0.417   2.968  0.8655  0.6246 -0.0730
  819SOL     OW 2455   0.547   0.608   0.693  0.0192 -0.0225 -0.2892
  819SOL    HW1 2456   0.460   0.592   0.739  0.4939  1.9585  0.3749
  819SOL    HW2 2457   0.616   0.546   0.735 -1.5659 -0.5119 -0.3728
  820SOL     OW 2458   2.098   0.663   1.191  0.0661 -0.2770 -0.3011
  820SOL    HW1 2459   2.138   0.749   1.157  0.2929 -1.4612 -0.1524
  820SOL    HW2 2460   2.069   0.666   1.288  1.6368  0.2269 -0.8741
  821SOL     OW 2461   2.999   0.012   0.596  0.3352 -0.2841  0.2635
  821SOL    HW1 2462   3.013   0.094   0.649 -1.4390 -0.6864 -0.3943
  821SOL    HW2 2463   3.061   3.028   0.621 -2.0075  3.0932 -3.1982
  822SOL     OW 2464   0.699   2.331   2.463 -0.3414  0.0742  0.4143
  822SOL    HW1 2465   0.749   2.384   2.537  0.7295  2.0313 -0.2247
  822SOL    HW2 2466   0.602   2.345   2.481  0.3132 -0.3273  0.1237
  823SOL     OW 2467   3.057   1.427   2.047 -0.1463 -0.1489  0.0880
  823SOL    HW1 2468   3.060   1.453   2.146 -0.0391  0.3659  1.3343
  823SOL    HW2 2469   3.086   1.329   2.042 -0.2921  2.0747  1.8596
  824SOL     OW 2470   0.903   2.902   2.163  0.2607  0.9203  0.4345
  824SOL    HW1 2471   0.903   2.836   2.244 -0.9469 -3.1175  1.5140
  824SOL    HW2 2472   0.812   2.907   2.118 -0.0877  0.1059 -0.5793
  825SOL     OW 2473   1.495   1.937   3.013  0.4291  0.0974 -0.2521
  825SOL    HW1 2474   1.397   1.947   2.986 -1.9755 -2.1860  2.1890
  825SOL    HW2 2475   1.555   1.899   2.937 -1.6321 -0.9469 -0.6960
  826SOL     OW 2476   1.234   2.252   2.873 -0.1151  0.2800 -0.2209
  826SOL    HW1 2477   1.331   2.252   2.886 -0.6908  0.8368  1.5983
  826SOL    HW2 2478   1.207   2.162   2.834  2.3262 -1.2103 -0.4900
  827SOL     OW 2479   0.451   1.914   1.874  0.1320 -0.4769  0.2273
  827SOL    HW1 2480   0.440   1.812   1.864  2.0792 -1.2817 -1.6963
  827SOL    HW2 2481   0.524   1.941   1.943  1.3814  0.1081  1.0774
  828SOL     OW 2482   0.260   1.800   1.141  0.1215  0.3593  0.1434
  828SOL    HW1 2483   0.357   1.815   1.139 -2.5379 -0.4040  1.6894
  828SOL    HW2 2484   0.211   1.855   1.214 -1.2916 -1.4521  1.4130
  829SOL     OW 2485   2.911   2.523   0.081  0.6984  0.1960  0.1519
  829SOL    HW1 2486   2.961   2.462   0.147  0.4245  3.1889 -1.4969
  829SOL    HW2 2487   2.836   2.475   0.026 -0.3594 -0.1523  1.4307
  830SOL     OW 2488   1.146   0.883   0.624  0.2926 -0.1031  0.1831
  830SOL    HW1 2489   1.162   0.827   0.537  0.1855 -0.2356 -2.2637
  830SOL    HW2 2490   1.208   0.855   0.698 -1.0144  0.9992  1.5784
  831SOL     OW 2491   2.766   2.356   3.025 -0.1255 -0.2051 -0.0874
  831SOL    HW1 2492   2.854   2.319   2.995 -0.8207  1.5821  0.4594
  831SOL    HW2 2493   2.683   2.306   2.987  0.7479 -1.4074  2.6361
  832SOL     OW 2494   1.709   2.359   0.254  0.4180 -0.0138 -0.3465
  832SOL    HW1 2495   1.627   2.334   0.202  0.1484 -0.5818  1.0611
  832SOL    HW2 2496   1.735   2.276   0.312  2.1194 -1.9148  0.0753
  833SOL     OW 2497   0.605   0.970   2.508  0.3151 -0.0892 -0.0885
  833SOL    HW1 2498   0.615   1.018   2.599  0.1490  1.3415  0.5664
  833SOL    HW2 2499   0.698   0.949   2.471  2.2588  2.0347  1.9090
  834SOL     OW 2500   2.745   0.747   0.719  0.3526  0.0602  0.0294
  834SOL    HW1 2501   2.799   0.661   0.714  0.4928  0.5042 -3.8970
  834SOL    HW2 2502   2.645   0.736   0.734  0.1865  1.3721 -1.2351
  835SOL     OW 2503   2.162   0.669   2.232 -0.3159  0.4048 -0.4139
  835SOL    HW1 2504   2.215   0.677   2.317  1.1443  0.7355  3.9541
  835SOL    HW2 2505   2.160   0.763   2.188 -0.5170 -0.5140  3.4245
  836SOL     OW 2506   0.697   1.917   0.453  0.3951 -0.1647 -0.2844
  836SOL    HW1 2507   0.602   1.911   0.485  2.9437 -1.5517  0.8605
  836SOL    HW2 2508   0.703   1.857   0.373 -1.9843 -1.5403 -0.0081
  837SOL     OW 2509   2.321   1.351   1.965 -0.3672 -0.3198  0.7173
  837SOL    HW1 2510   2.346   1.391   2.056 -0.3677 -1.8154  0.5812
  837SOL    HW2 2511   2.219   1.363   1.955 -1.0812  0.4595 -0.1398
  838SOL     OW 2512   0.162   1.057   2.338 -0.1994  0.3257 -0.1242
  838SOL    HW1 2513   0.218   0.975   2.364  1.8966 -1.8951  0.5699
  838SOL    HW2 2514   0.068   1.056   2.374  0.1332 -0.3162 -1.9801
  839SOL     OW 2515   0.396   2.864   2.903  0.0850 -1.1615  0.1506
  839SOL    HW1 2516   0.305   2.838   2.863 -0.6671  0.6428  0.0151
  839SOL    HW2 2517   0.465   2.884   2.828  1.4967  2.6912  1.0968
  840SOL     OW 2518   3.082   1.168   2.679  0.0635  0.3232 -0.2053
  840SOL    HW1 2519   0.072   1.138   2.730 -1.5545 -0.3013 -0.5506
  840SOL    HW2 2520   2.999   1.158   2.736 -1.2305  1.5085 -0.2438
  841SOL     OW 2521   0.526   2.047   2.636  0.6048  0.1913 -0.0262
  841SOL    HW1 2522   0.537   2.104   2.555  0.2300  0.1952  1.1759
  841SOL    HW2 2523   0.584   2.082   2.713  2.0781  2.0973  0.6526
  842SOL     OW 2524   0.983   0.190   1.216 -0.4104  0.2613 -0.1488
  842SOL    HW1 2525   1.031   0.197   1.125  3.1396 -1.4659  3.2196
  842SOL    HW2 2526   0.990   0.280   1.267  0.3003 -0.9542  0.5154
  843SOL     OW 2527   0.040   1.597   2.285 -0.0225 -0.4955 -0.3924
  843SOL    HW1 2528   0.080   1.623   2.196 -1.4772  0.9308  0.8317
  843SOL    HW2 2529   0.108   1.609   2.360  0.5387 -2.2441 -0.7264
  844SOL     OW 2530   1.721   1.941   2.288 -0.0171 -0.6268 -0.0305
  844SOL    HW1 2531   1.683   1.894   2.212  0.9760  0.5713  3.7354
  844SOL    HW2 2532   1.737   2.044   2.276  2.2528  3.3275 -2.8421
  845SOL     OW 2533   1.869   2.890   2.533 -0.2979  0.1410 -0.1406
  845SOL    HW1 2534   1.787   2.848   2.569  1.6869 -0.2167  0.6219
  845SOL    HW2 2535   1.917   2.956   2.599  0.9689  0.3142  0.9881
  846SOL     OW 2536   2.567   1.579   2.949 -0.6027  0.2850 -0.2989
  846SOL    HW1 2537   2.635   1.571   3.021 -0.3447  1.6043 -0.5452
  846SOL    HW2 2538   2.525   1.491   2.914 -1.2937 -0.7627 -1.5015
  847SOL     OW 2539   2.491   0.089   2.728  0.1299  0.0350  0.3196
  847SOL    HW1 2540   2.410   0.058   2.672 -0.6318  0.0342  0.0511
  847SOL    HW2 2541   2.580   0.076   2.684 -0.3401  3.0676  3.3561
  848SOL     OW 2542   2.258   0.425   0.258  0.2409 -0.1347  0.2742
  848SOL    HW1 2543   2.160   0.449   0.250  1.7454  1.3382 -0.0893
  848SOL    HW2 2544   2.291   0.453   0.349  0.1243 -1.8197  1.3009
  849SOL     OW 2545   1.375   0.093   2.801 -0.6392 -0.2384  0.1613
  849SOL    HW1 2546   1.299   0.071   2.737  0.5334 -1.1907  0.1037
  849SOL    HW2 2547   1.468   0.072   2.761  2.1720 -1.9884 -0.1911
  850SOL     OW 2548   2.980   0.642   0.469 -0.2594 -0.4941  0.3680
  850SOL    HW1 2549   2.942   0.584   0.395  1.8157 -1.4445 -1.7622
  850SOL    HW2 2550   2.951   0.601   0.557  0.3358 -2.6732 -0.5083
  851SOL     OW 2551   0.202   1.268   1.261  0.2493  0.2960  0.4624
  851SOL    HW1 2552   0.294   1.227   1.238 -0.3892 -0.5495 -0.2444
  851SOL    HW2 2553   0.171   1.335   1.185 -2.4783  1.3974  0.7810
  852SOL     OW 2554   1.348   0.709   2.261 -0.8836 -0.3946 -0.2958
  852SOL    HW1 2555   1.437   0.762   2.248 -2.6545  0.7638  0.7388
  852SOL    HW2 2556   1.366   0.649   2.342 -0.8118 -2.0592  1.1702
  853SOL     OW 2557   2.212   1.497   0.016  0.3941  0.1063 -0.3380
  853SOL    HW1 2558   2.167   1.408   3.088  2.8098 -0.2985 -1.1017
  853SOL    HW2 2559   2.193   1.560   3.032  0.0625 -1.0244  1.0700
  854SOL     OW 2560   1.396   1.053   1.888  0.0514  0.7358  0.0144
  854SOL    HW1 2561   1.323   1.097   1.836 -2.0294 -0.8090  0.8339
  854SOL    HW2 2562   1.351   1.026   1.979 -3.4945  0.5059  3.2571
  855SOL     OW 2563   0.249   2.514   1.799  0.0559 -0.4111  0.2731
  855SOL    HW1 2564   0.302   2.518   1.713 -1.1249  0.0998  0.8256
  855SOL    HW2 2565   0.161   2.563   1.801 -0.8011  0.6154 -1.0846
  856SOL     OW 2566   0.987   1.150   2.419 -0.0561 -0.1604  0.1261
  856SOL    HW1 2567   1.073   1.105   2.396  0.5958 -0.4065  2.4906
  856SOL    HW2 2568   0.951   1.127   2.510  0.4637  1.8989 -0.7946
  857SOL     OW 2569   0.927   1.076   2.666  0.4674  0.5982 -0.0879
  857SOL    HW1 2570   0.951   1.157   2.717 -0.0991 -2.1539 -1.6958
  857SOL    HW2 2571   0.962   0.987   2.705  0.9758  1.7277  1.9087
  858SOL     OW 2572   0.273   0.416   1.758 -0.0298 -0.1843 -0.1060
  858SOL    HW1 2573   0.308   0.323   1.731 -1.4826  1.1941  3.0882
  858SOL    HW2 2574   0.174   0.398   1.779  1.0156  0.1121  0.2511
  859SOL     OW 2575   2.417   0.329   0.643 -0.0248 -0.6653 -0.1612
  859SOL    HW1 2576   2.385   0.399   0.574 -0.0770 -0.6761 -0.0822
  859SOL    HW2 2577   2.429   0.376   0.735  1.8860 -0.4606  4.1967
  860SOL     OW 2578   0.960   0.962   1.552  0.1712 -0.3178  0.5646
  860SOL    HW1 2579   0.926   0.865   1.576 -0.0228 -3.7601  1.0482
  860SOL    HW2 2580   1.059   0.963   1.543  1.0407 -1.2591  1.6597
  861SOL     OW 2581   1.717   0.950   1.239 -0.0194 -0.8834  0.1190
  861SOL    HW1 2582   1.808   0.999   1.223  3.0714 -0.1688 -1.0682
  861SOL    HW2 2583   1.677   0.975   1.329  0.9488 -0.3151  1.0739
  862SOL     OW 2584   0.940   0.070   2.234 -0.1079  0.0461 -0.3706
  862SOL    HW1 2585   0.934   3.065   2.222  2.1315  4.5452 -1.5206
  862SOL    HW2 2586   0.853   0.113   2.206 -1.1368  0.1764  1.2872
  863SOL     OW 2587   2.706   0.361   1.384 -0.6203 -0.1061  0.6745
  863SOL    HW1 2588   2.644   0.437   1.365  1.1065  1.0707 -0.9122
  863SOL    HW2 2589   2.737   0.316   1.296  0.4056  0.1259  1.1208
  864SOL     OW 2590   2.665   2.842   2.199  0.1488  0.0545  0.6514
  864SOL    HW1 2591   2.749   2.839   2.256 -0.0461  0.3465  0.4524
  864SOL    HW2 2592   2.626   2.937   2.214 -2.2741  1.2896  2.2371
  865SOL     OW 2593   1.229   1.045   2.325 -0.1825  0.4736 -0.0211
  865SOL    HW1 2594   1.307   1.072   2.387  0.2001 -1.9600  0.7296
  865SOL    HW2 2595   1.265   1.002   2.240 -0.6529 -0.9997 -0.0877
  866SOL     OW 2596   2.626   2.616   1.085  0.5553 -0.3221 -0.3133
  866SOL    HW1 2597   2.597   2.630   1.184 -1.3806 -0.2411 -1.5123
  866SOL    HW2 2598   2.708   2.560   1.081 -0.8080  3.7557  4.0248
  867SOL     OW 2599   2.619   2.636   1.362  0.1382 -0.2034  0.2089
  867SOL    HW1 2600   2.556   2.696   1.418 -3.6521 -0.1830  0.0164
  867SOL    HW2 2601   2.687   2.597   1.428 -0.2987  1.8765  0.8941
  868SOL     OW 2602   3.087   1.495   1.435 -0.4366 -0.3230  0.2594
  868SOL    HW1 2603   0.044   1.420   1.389  1.3301 -0.1040  0.2443
  868SOL    HW2 2604   3.054   1.573   1.372 -4.5132  0.1560 -3.5243
  869SOL     OW 2605   2.140   1.656   1.951  0.2283  0.0629  0.1867
  869SOL    HW1 2606   2.170   1.723   2.026  1.3019 -0.2717  2.1794
  869SOL    HW2 2607   2.080   1.583   1.988  0.1384 -2.1600  0.2506
  870SOL     OW 2608   1.539   0.936   0.796 -0.2132  0.0046  0.3121
  870SOL    HW1 2609   1.531   0.959   0.897 -1.4508 -1.7525 -1.6036
  870SOL    HW2 2610   1.497   1.014   0.742 -0.7760  1.7481  0.0136
  871SOL     OW 2611   2.554   1.448   1.893  0.2923  0.0989  0.1508
  871SOL    HW1 2612   2.461   1.406   1.920 -3.0973 -1.3914  0.1853
  871SOL    HW2 2613   2.538   1.524   1.824 -2.5002 -0.4247  1.6959
  872SOL     OW 2614   1.496   1.513   2.597  0.4874 -0.3591 -0.2135
  872SOL    HW1 2615   1.557   1.485   2.674 -1.3984 -3.5967 -1.5782
  872SOL    HW2 2616   1.471   1.609   2.607 -2.2882  0.0703  0.8079
  873SOL     OW 2617   0.986   1.317   1.596  0.2019  0.3851  0.6257
  873SOL    HW1 2618   0.953   1.411   1.606 -0.2358 -0.7147 -0.0385
  873SOL    HW2 2619   0.906   1.250   1.592 -1.7638 -1.3248  0.6097
  874SOL     OW 2620   1.185   1.242   1.441  0.3470 -0.0838 -0.0018
  874SOL    HW1 2621   1.108   1.246   1.508  0.4221 -1.0774 -0.0507
  874SOL    HW2 2622   1.170   1.309   1.367  0.1397  0.2184  2.4850
  875SOL     OW 2623   2.740   0.047   2.655 -0.2319 -0.6253  0.1984
  875SOL    HW1 2624   2.788   0.099   2.585  0.2440 -0.0011  0.0083
  875SOL    HW2 2625   2.753   3.040   2.637  0.5933 -0.2321 -0.4953
  876SOL     OW 2626   0.710   0.854   0.339  0.1032 -0.2477 -0.2111
  876SOL    HW1 2627   0.730   0.812   0.434  0.8769 -2.8426  1.1680
  876SOL    HW2 2628   0.626   0.807   0.309 -0.3710 -2.4713  0.4187
  877SOL     OW 2629   1.845   2.915   0.674  0.2944  0.7376  0.5320
  877SOL    HW1 2630   1.824   2.904   0.574  0.1788  2.4930 -0.6099
  877SOL    HW2 2631   1.885   2.834   0.717  0.1310  5.2120 -3.9548
  878SOL     OW 2632   2.602   2.016   0.297  0.0570  0.0772  0.0208
  878SOL    HW1 2633   2.583   1.945   0.226 -1.6197 -2.2226  0.4777
  878SOL    HW2 2634   2.644   2.095   0.250 -0.4951  0.1539  0.8447
  879SOL     OW 2635   2.962   2.415   1.848  0.6108 -0.0817 -0.5173
  879SOL    HW1 2636   2.941   2.332   1.911  0.4674 -4.3066  1.8016
  879SOL    HW2 2637   2.954   2.388   1.748 -2.4811 -3.1477 -2.1551
  880SOL     OW 2638   0.397   1.629   0.830  0.3704 -0.0933 -0.2829
  880SOL    HW1 2639   0.455   1.605   0.909 -1.5894  0.4100  1.0357
  880SOL    HW2 2640   0.452   1.632   0.744 -0.2994 -0.6318 -0.4097
  881SOL     OW 2641   1.350   0.301   2.489 -0.4772 -0.1610 -0.3227
  881SOL    HW1 2642   1.318   0.205   2.513  0.3070 -0.5632  1.6018
  881SOL    HW2 2643   1.277   0.354   2.453  3.1456 -1.6240 -1.1126
  882SOL     OW 2644   2.572   1.235   0.620 -0.0187  0.4187 -0.2577
  882SOL    HW1 2645   2.597   1.332   0.604  0.4559  1.7031  1.2800
  882SOL    HW2 2646   2.584   1.198   0.714  3.6796 -2.4777  1.8826
  883SOL     OW 2647   1.537   0.540   2.688  0.3115  0.2369  0.8858
  883SOL    HW1 2648   1.503   0.474   2.759 -0.0823  2.1032 -1.6656
  883SOL    HW2 2649   1.458   0.580   2.642  0.0372 -0.8195  0.3977
  884SOL     OW 2650   0.061   0.021   2.040 -0.4333 -0.1519 -0.1237
  884SOL    HW1 2651   3.075   3.064   1.987 -0.4673 -0.4970 -1.5696
  884SOL    HW2 2652   0.100   3.060   2.119  1.9658 -1.1862 -0.0698
  885SOL     OW 2653   1.974   1.083   2.155 -0.9481 -0.2523 -0.0696
  885SOL    HW1 2654   2.018   1.005   2.107  1.8673 -0.4784 -0.1703
  885SOL    HW2 2655   2.016   1.102   2.247 -0.8710 -2.3599 -1.5473
  886SOL     OW 2656   1.702   0.322   2.850 -0.0249 -0.5124  0.1301
  886SOL    HW1 2657   1.739   0.302   2.942 -0.0130 -1.3909 -2.1507
  886SOL    HW2 2658   1.779   0.360   2.799 -1.4436 -1.6757  0.2137
  887SOL     OW 2659   1.076   2.713   1.600  0.0288 -0.2664 -0.0319
  887SOL    HW1 2660   1.172   2.745   1.600 -0.6343 -2.1707  0.7673
  887SOL    HW2 2661   1.083   2.615   1.570  1.2498 -1.4828  1.1124
  888SOL     OW 2662   2.347   0.943   1.445 -0.6333  0.1143 -0.0100
  888SOL    HW1 2663   2.299   1.003   1.373  0.0313  1.6990 -1.9790
  888SOL    HW2 2664   2.398   1.002   1.508  1.2068 -1.1810  0.4190
  889SOL     OW 2665   1.959   2.893   1.026 -0.4210 -0.0493 -0.5293
  889SOL    HW1 2666   1.871   2.842   1.022  0.3184 -0.1243 -0.9207
  889SOL    HW2 2667   1.946   2.994   1.024 -0.6413 -0.8962  0.3208
  890SOL     OW 2668   1.056   2.466   0.608  0.1744  0.4741 -0.3206
  890SOL    HW1 2669   1.089   2.378   0.648 -1.8191  2.0960 -2.2363
  890SOL    HW2 2670   1.059   2.535   0.682  1.1087 -0.3121 -0.1688
  891SOL     OW 2671   2.657   1.222   0.009  0.2766  0.0927 -0.1559
  891SOL    HW1 2672   2.656   1.226   0.113  2.0158 -1.2170 -1.8983
  891SOL    HW2 2673   2.726   1.154   3.074  1.1346  1.1923  0.7890
  892SOL     OW 2674   2.506   1.774   2.398  0.4147 -0.0847 -0.4326
  892SOL    HW1 2675   2.558   1.761   2.312 -1.4350 -0.4644 -2.6634
  892SOL    HW2 2676   2.406   1.754   2.377 -1.2375 -1.6789 -3.4545
  893SOL     OW 2677   2.439   2.257   1.102 -0.0793 -0.2470 -0.4365
  893SOL    HW1 2678   2.430   2.196   1.025  0.7464  0.1164 -2.0252
  893SOL    HW2 2679   2.412   2.349   1.077  1.9507  0.1720 -3.2145
  894SOL     OW 2680   0.105   0.804   0.688  0.1477  0.7309  0.1773
  894SOL    HW1 2681   0.094   0.704   0.680  1.2306  1.6251 -1.2117
  894SOL    HW2 2682   0.013   0.851   0.715 -1.0925  1.9952  3.2899
  895SOL     OW 2683   2.872   2.160   2.333  0.7005 -0.7413 -0.6373
  895SOL    HW1 2684   2.853   2.068   2.380 -2.3080 -0.7625 -0.7843
  895SOL    HW2 2685   2.963   2.197   2.355  0.7109  0.9095  0.6300
  896SOL     OW 2686   1.654   2.804   2.651 -0.0695  0.1558 -0.0606
  896SOL    HW1 2687   1.686   2.770   2.743  1.0981 -1.1716  1.4286
  896SOL    HW2 2688   1.593   2.889   2.669 -3.5864  1.4694  0.0403
  897SOL     OW 2689   0.131   1.767   1.762  0.1837  0.3732 -0.1909
  897SOL    HW1 2690   0.135   1.683   1.703 -0.4710  1.2808  1.7821
  897SOL    HW2 2691   0.218   1.818   1.757 -0.0757 -0.2345  3.6783
  898SOL     OW 2692   0.480   2.243   1.909 -0.2403  0.0211 -0.1149
  898SOL    HW1 2693   0.379   2.227   1.896 -1.4509 -1.0758  0.0397
  898SOL    HW2 2694   0.521   2.311   1.847  0.7018 -0.5595  2.3579
  899SOL     OW 2695   1.463   3.081   1.641 -0.0772 -0.1823  0.5211
  899SOL    HW1 2696   1.464   3.041   1.550  2.2124  1.2536 -1.1267
  899SOL    HW2 2697   1.397   3.050   1.712 -0.5455 -0.7426  0.2243
  900SOL     OW 2698   1.337   1.143   0.398 -0.3771  0.1164 -0.1302
  900SOL    HW1 2699   1.379   1.060   0.359 -1.6086  1.6743  1.5064
  900SOL    HW2 2700   1.241   1.127   0.427 -0.2421  0.4960  0.7993
  901SOL     OW 2701   1.389   1.147   2.543 -0.1548 -0.1657  0.7166
  901SOL    HW1 2702   1.358   1.232   2.587 -5.7478  2.3508  1.9408
  901SOL    HW2 2703   1.412   1.073   2.604  0.6185 -0.7441 -0.2235
  902SOL     OW 2704   0.104   2.447   1.280  0.2120 -0.2894 -0.2711
  902SOL    HW1 2705   0.025   2.511   1.276  1.2835 -1.0595 -3.0155
  902SOL    HW2 2706   0.189   2.498   1.270  0.2287  0.3717  4.5789
  903SOL     OW 2707   2.564   1.275   2.261 -0.3962 -0.1276 -0.0542
  903SOL    HW1 2708   2.575   1.258   2.362  0.2527 -1.5731  2.2632
  903SOL    HW2 2709   2.656   1.267   2.216 -0.6881 -0.3716 -2.6099
  904SOL     OW 2710   1.465   1.747   0.136 -0.6753  0.4624  0.3189
  904SOL    HW1 2711   1.502   1.654   0.116 -1.1920  0.6386  1.1708
  904SOL    HW2 2712   1.464   1.796   0.047  2.3923 -2.6939 -0.0556
  905SOL     OW 2713   2.054   2.920   1.815  0.0352  0.0069 -0.7169
  905SOL    HW1 2714   2.006   2.900   1.903 -0.0687 -0.7165  1.5348
  905SOL    HW2 2715   2.157   2.939   1.829  0.1074  2.5357  2.0115
  906SOL     OW 2716   1.768   2.846   0.070  0.3330 -0.7095  0.0595
  906SOL    HW1 2717   1.822   2.766   0.083  0.8213  1.3623  0.4977
  906SOL    HW2 2718   1.753   2.874   3.060 -2.2738 -0.4407 -4.3045
  907SOL     OW 2719   0.353   2.725   0.896 -0.2574 -0.0873 -0.5732
  907SOL    HW1 2720   0.316   2.791   0.971 -2.2624 -0.0296  1.9675
  907SOL    HW2 2721   0.336   2.752   0.799  0.8978 -0.3008 -1.9485
  908SOL     OW 2722   0.635   2.841   1.789  0.4049 -0.0554  0.1810
  908SOL    HW1 2723   0.705   2.907   1.756 -1.9682 -0.2083  1.2574
  908SOL    HW2 2724   0.632   2.829   1.892 -0.6153  1.5717  3.3353
  909SOL     OW 2725   1.748   0.456   1.341 -0.2315 -0.1962 -0.2392
  909SOL    HW1 2726   1.725   0.535   1.403 -2.3264 -2.4059  0.5183
  909SOL    HW2 2727   1.701   0.468   1.255  0.6411 -2.4897  2.8904
  910SOL     OW 2728   0.639   0.502   0.338  0.2039  0.2237 -0.0323
  910SOL    HW1 2729   0.630   0.404   0.305  1.8774 -2.5140 -0.1267
  910SOL    HW2 2730   0.677   0.502   0.429 -0.7400 -1.3199 -0.1238
  911SOL     OW 2731   0.331   3.089   3.051  0.0017 -0.0606  0.5568
  911SOL    HW1 2732   0.265   3.065   0.039 -1.2161 -1.2866  2.7207
  911SOL    HW2 2733   0.337   3.005   2.997  0.1820 -3.3138 -2.1738
  912SOL     OW 2734   0.045   2.174   2.742 -0.0621 -0.3257  0.2999
  912SOL    HW1 2735   0.139   2.201   2.770 -1.6832 -1.7984 -3.3090
  912SOL    HW2 2736   0.030   2.197   2.646  0.3732 -2.1472  0.5889
  913SOL     OW 2737   2.335   2.743   0.300  0.2133 -0.6724  0.2925
  913SOL    HW1 2738   2.364   2.829   0.261  1.8706 -0.4710  0.0340
  913SOL    HW2 2739   2.360   2.732   0.396  0.6174 -1.2980 -1.5429
  914SOL     OW 2740   1.290   1.636   1.954  0.1699  0.7099  0.3233
  914SOL    HW1 2741   1.316   1.548   1.996  0.7494 -0.1633 -0.1946
  914SOL    HW2 2742   1.277   1.703   2.025  1.4738 -0.6403 -1.5605
  915SOL     OW 2743   2.821   2.459   2.301  0.0713 -0.7673 -0.1494
  915SOL    HW1 2744   2.915   2.463   2.259 -0.3426  0.5016 -0.6245
  915SOL    HW2 2745   2.810   2.374   2.352 -0.3740  1.8374  1.4213
  916SOL     OW 2746   2.954   0.715   2.093  0.3732 -0.8537  0.1380
  916SOL    HW1 2747   2.885   0.787   2.116 -2.0594  0.5530  0.1198
  916SOL    HW2 2748   3.050   0.728   2.136  3.1188  2.2321 -2.0729
  917SOL     OW 2749   1.923   0.016   0.037  0.5931  0.3415  0.2239
  917SOL    HW1 2750   1.915   3.082   0.136  0.0321 -1.8481  0.4943
  917SOL    HW2 2751   1.865   3.045   3.071  1.7345 -3.0635  1.5528
  918SOL     OW 2752   1.900   3.000   2.263 -1.0822  0.5777 -0.0513
  918SOL    HW1 2753   1.901   2.953   2.353  2.9193  1.1905 -0.6498
  918SOL    HW2 2754   1.840   3.081   2.265 -2.3020  0.8241  2.5424
  919SOL     OW 2755   1.706   2.293   1.626 -0.1993  0.2308  0.1642
  919SOL    HW1 2756   1.680   2.342   1.710 -1.0036 -1.1985 -0.2356
  919SOL    HW2 2757   1.622   2.240   1.594  1.0896  0.7761  2.3401
  920SOL     OW 2758   0.051   0.973   0.077 -0.4152 -0.4514 -0.1639
  920SOL    HW1 2759   0.031   0.915   0.162 -0.4644 -1.6097  3.3205
  920SOL    HW2 2760   0.069   1.065   0.105 -0.9489 -1.3776 -2.0431
  921SOL     OW 2761   2.566   0.852   2.533  0.1041 -0.2173  0.5728
  921SOL    HW1 2762   2.611   0.911   2.467 -1.6345 -1.9684  1.5054
  921SOL    HW2 2763   2.546   0.899   2.618  2.0396 -2.8651 -1.4473
  922SOL     OW 2764   1.148   1.714   2.651 -0.1547  0.0244 -0.7296
  922SOL    HW1 2765   1.079   1.792   2.658 -1.1427  2.7238  4.3626
  922SOL    HW2 2766   1.132   1.654   2.731  0.0759 -1.6174  0.8998
  923SOL     OW 2767   0.671   1.068   2.161 -0.0716  0.1320  0.3978
  923SOL    HW1 2768   0.723   1.026   2.235 -0.7891  1.1586 -1.7053
  923SOL    HW2 2769   0.661   1.011   2.075  1.7829 -1.8121  1.0115
  924SOL     OW 2770   0.529   2.382   2.756  0.3307 -0.2043 -0.6388
  924SOL    HW1 2771   0.555   2.344   2.844  2.0316  0.7826 -1.8237
  924SOL    HW2 2772   0.579   2.466   2.735  2.8874 -0.2359 -2.9268
  925SOL     OW 2773   1.629   1.296   0.934  0.5329  0.5132  0.4537
  925SOL    HW1 2774   1.601   1.200   0.950  0.2281  0.7336  2.5304
  925SOL    HW2 2775   1.566   1.362   0.975  4.1029 -0.2861  0.2742
  926SOL     OW 2776   1.661   0.362   2.516 -0.0187  0.1058  0.3759
  926SOL    HW1 2777   1.578   0.312   2.480  0.4946 -0.0922 -1.4179
  926SOL    HW2 2778   1.629   0.418   2.597 -0.7496  0.1507  3.0666
  927SOL     OW 2779   2.359   2.948   2.142  0.7339 -0.4886  0.0802
  927SOL    HW1 2780   2.381   2.946   2.046 -0.5819  3.1485 -0.3161
  927SOL    HW2 2781   2.290   3.019   2.154  1.1718  0.3449 -0.9846
  928SOL     OW 2782   0.615   1.384   2.806  0.2643  0.2889  0.3455
  928SOL    HW1 2783   0.524   1.366   2.764  1.0434 -1.5842 -1.8199
  928SOL    HW2 2784   0.669   1.464   2.772  1.4696  1.4647 -0.7666
  929SOL     OW 2785   3.087   0.180   0.864 -0.3633 -0.1967  0.4734
  929SOL    HW1 2786   0.010   0.242   0.782  0.1224  0.9152 -0.2534
  929SOL    HW2 2787   0.070   0.110   0.880 -0.3173 -1.4604 -2.1565
  930SOL     OW 2788   2.375   0.411   1.935 -0.1535 -0.2142 -0.3982
  930SOL    HW1 2789   2.329   0.397   1.847 -0.5857 -0.7043  4.2014
  930SOL    HW2 2790   2.447   0.486   1.919  2.8957  1.3709 -1.4844
  931SOL     OW 2791   2.143   1.256   3.012  0.0030  0.0301  0.1689
  931SOL    HW1 2792   2.141   1.210   2.922  0.1778 -0.0151 -2.0918
  931SOL    HW2 2793   2.118   1.185   3.082  0.2682  0.6162 -1.2558
  932SOL     OW 2794   2.511   1.563   1.325 -0.8564 -0.1060 -0.2858
  932SOL    HW1 2795   2.613   1.558   1.333  0.5425  1.2025 -2.4893
  932SOL    HW2 2796   2.483   1.535   1.229 -1.8090 -3.8533 -0.2954
  933SOL     OW 2797   2.891   2.694   1.688 -0.0701 -0.1214  0.0242
  933SOL    HW1 2798   2.955   2.694   1.764 -2.8457 -0.0772 -1.0083
  933SOL    HW2 2799   2.804   2.741   1.720 -2.8656  0.4363  0.5320
  934SOL     OW 2800   0.470   0.002   1.250  0.4154  0.4653 -0.2230
  934SOL    HW1 2801   0.503   3.052   1.336  1.2084 -1.3420 -0.6470
  934SOL    HW2 2802   0.541   0.051   1.202  0.7842 -0.3144  2.9254
  935SOL     OW 2803   2.412   0.722   2.107 -0.5485  0.0915 -0.2094
  935SOL    HW1 2804   2.346   0.687   2.177 -2.1562 -2.6923  1.2026
  935SOL    HW2 2805   2.505   0.696   2.138  0.5617  0.8703  1.8199
  936SOL     OW 2806   2.332   0.873   1.898  0.3278 -0.3594  0.1002
  936SOL    HW1 2807   2.365   0.844   1.808 -1.2073  1.0142  0.6711
  936SOL    HW2 2808   2.359   0.807   1.971 -0.4789  2.1269 -0.1866
  937SOL     OW 2809   1.816   1.256   1.772 -0.2226 -0.5914  0.6244
  937SOL    HW1 2810   1.790   1.158   1.781  0.0552 -0.3943  2.7999
  937SOL    HW2 2811   1.826   1.292   1.677  0.0352 -0.4550 -0.6357
  938SOL     OW 2812   0.435   2.523   3.055 -0.5735  0.2831 -0.3403
  938SOL    HW1 2813   0.455   2.621   3.072  0.6195  1.6959 -0.3054
  938SOL    HW2 2814   0.337   2.511   3.037  0.3754  0.7176 -2.6110
  939SOL     OW 2815   2.212   0.486   2.925  0.5266  0.1102  0.5575
  939SOL    HW1 2816   2.130   0.505   2.985  1.7362  2.0611 -0.4261
  939SOL    HW2 2817   2.290   0.458   2.983 -0.5887  0.3053  1.5014
  940SOL     OW 2818   1.127   2.221   0.709  0.0878 -0.0582 -0.2141
  940SOL    HW1 2819   1.109   2.182   0.802  0.5399 -1.3578  0.5017
  940SOL    HW2 2820   1.109   2.156   0.627  0.9520 -1.1037 -2.9750
  941SOL     OW 2821   1.027   2.178   1.800  0.2223  0.2643 -0.2429
  941SOL    HW1 2822   0.988   2.261   1.751 -0.6507  1.3770  0.3784
  941SOL    HW2 2823   0.998   2.094   1.753  1.1658  0.9713  0.3065
  942SOL     OW 2824   2.922   2.073   0.058  0.1520 -0.2347 -0.6738
  942SOL    HW1 2825   2.949   1.984   0.095  0.0898  0.1915 -1.7407
  942SOL    HW2 2826   2.947   2.076   3.053 -1.4109  0.5045 -0.8435
  943SOL     OW 2827   2.171   3.038   1.505 -0.1282  0.0278  0.1441
  943SOL    HW1 2828   2.184   2.959   1.442  0.4583  0.0655  0.0802
  943SOL    HW2 2829   2.073   3.054   1.524 -0.9846  0.5658 -0.3953
  944SOL     OW 2830   1.840   2.018   2.792 -0.3495 -0.7522 -0.2343
  944SOL    HW1 2831   1.795   1.983   2.712  1.2791 -2.2608  2.4300
  944SOL    HW2 2832   1.845   2.120   2.776 -0.3244 -0.7671 -0.8147
  945SOL     OW 2833   2.609   2.150   0.833  0.1241  0.2240 -0.0972
  945SOL    HW1 2834   2.623   2.191   0.926  1.3782 -0.8658  0.4315
  945SOL    HW2 2835   2.508   2.149   0.799  0.9966 -3.1456  0.9959
  946SOL     OW 2836   1.259   1.396   2.562  0.1252  0.1819 -0.8349
  946SOL    HW1 2837   1.221   1.415   2.471  2.7999  2.6278  0.0903
  946SOL    HW2 2838   1.353   1.432   2.577  0.7651 -0.3052  0.2719
  947SOL     OW 2839   0.153   0.696   2.146  0.1791  0.1872 -0.1771
  947SOL    HW1 2840   0.235   0.744   2.178 -0.9067  2.2473  2.2384
  947SOL    HW2 2841   0.153   0.595   2.157 -1.3209  3.4301  1.4551
  948SOL     OW 2842   3.018   1.163   0.676 -0.1397  0.0653 -0.4162
  948SOL    HW1 2843   0.025   1.174   0.644 -0.8195 -0.3987  0.6935
  948SOL    HW2 2844   3.008   1.067   0.708  0.1002  2.0066  4.0907
  949SOL     OW 2845   0.664   0.507   2.694 -0.4448  0.3489 -0.1098
  949SOL    HW1 2846   0.672   0.488   2.591  1.0628 -2.5161  1.6392
  949SOL    HW2 2847   0.680   0.420   2.743 -2.8356  0.7505  0.3605
  950SOL     OW 2848   0.204   0.591   1.364  0.2794 -0.4789 -0.0450
  950SOL    HW1 2849   0.144   0.617   1.445 -1.7441  1.9628 -0.9351
  950SOL    HW2 2850   0.243   0.679   1.327 -0.9164 -0.1779  1.6097
  951SOL     OW 2851   0.378   1.299   2.734  0.3053  0.1080 -0.4226
  951SOL    HW1 2852   0.348   1.288   2.638 -0.1362 -0.6636  0.8839
  951SOL    HW2 2853   0.356   1.216   2.792  0.9849 -2.4184  0.3275
  952SOL     OW 2854   1.809   2.386   1.040  0.2477 -0.3474  0.3280
  952SOL    HW1 2855   1.755   2.433   1.112 -0.8545  0.5967 -1.2454
  952SOL    HW2 2856   1.912   2.389   1.059  1.5455  0.1362 -0.3568
  953SOL     OW 2857   0.524   2.790   0.045  0.3216 -0.4612  0.5908
  953SOL    HW1 2858   0.505   2.844   0.132  0.8776 -1.5768  2.2468
  953SOL    HW2 2859   0.493   2.838   3.050  0.2674  0.3660 -1.4585
  954SOL     OW 2860   2.559   1.092   1.195 -0.1244  0.1629  0.6197
  954SOL    HW1 2861   2.593   1.135   1.279  1.1750  0.7459 -1.4037
  954SOL    HW2 2862   2.483   1.146   1.154  0.7711  0.4198 -0.4589
  955SOL     OW 2863   1.704   1.476   2.797 -0.6240  0.3915 -0.0194
  955SOL    HW1 2864   1.720   1.534   2.882  1.5197  4.3200  0.2416
  955SOL    HW2 2865   1.718   1.379   2.825 -1.7813 -0.7550  1.7673
  956SOL     OW 2866   1.317   0.724   2.561 -0.1458  0.1940  0.0819
  956SOL    HW1 2867   1.269   0.686   2.644  0.8664  0.9147  1.1751
  956SOL    HW2 2868   1.243   0.747   2.493  0.8093  0.3702  0.3572
  957SOL     OW 2869   0.956   0.366   1.621  0.4914 -0.2354 -0.1950
  957SOL    HW1 2870   0.891   0.394   1.693  0.9460 -2.0467 -0.4909
  957SOL    HW2 2871   1.007   0.287   1.648  1.1415  1.5502  1.2574
  958SOL     OW 2872   0.417   1.858   0.511  0.6572 -0.0249 -0.1309
  958SOL    HW1 2873   0.360   1.856   0.592  3.7058 -0.2823 -2.6203
  958SOL    HW2 2874   0.355   1.878   0.432 -1.1788  0.3097  2.9240
  959SOL     OW 2875   2.095   0.666   1.650 -0.2539 -0.0436  0.7294
  959SOL    HW1 2876   2.188   0.697   1.672  4.2088  0.9826 -4.1929
  959SOL    HW2 2877   2.059   0.595   1.708  0.9059  0.6684 -4.8841
  960SOL     OW 2878   0.185   1.520   3.009  0.4787  0.8668 -0.0305
  960SOL    HW1 2879   0.240   1.537   2.926 -0.5730  0.0661  0.1513
  960SOL    HW2 2880   0.194   1.424   3.042 -0.7427 -2.0556  3.6955
  961SOL     OW 2881   0.792   1.667   0.704 -0.5238  0.2224 -0.1398
  961SOL    HW1 2882   0.700   1.650   0.668 -0.9505 -0.1684  0.0525
  961SOL    HW2 2883   0.817   1.762   0.703  1.7072 -0.4599  0.6485
  962SOL     OW 2884   0.549   1.550   1.307  0.1866 -0.4922 -0.2236
  962SOL    HW1 2885   0.556   1.573   1.205  1.7359 -1.1770 -3.9855
  962SOL    HW2 2886   0.571   1.451   1.317  0.1092 -1.6979  2.7803
  963SOL     OW 2887   1.469   2.255   2.424  0.4574 -0.0935 -0.1759
  963SOL    HW1 2888   1.398   2.186   2.453 -1.1187  2.5520  1.1116
  963SOL    HW2 2889   1.566   2.222   2.433  1.7681 -2.3132  2.1224
  964SOL     OW 2890   3.067   2.821   2.583 -0.6126  0.5618 -0.1934
  964SOL    HW1 2891   2.979   2.791   2.615  1.2789  0.3578 -1.3353
  964SOL    HW2 2892   3.067   2.847   2.484 -0.3896 -1.9524  1.2538
  965SOL     OW 2893   2.935   2.107   2.890 -0.9267  0.1950  0.3112
  965SOL    HW1 2894   3.007   2.146   2.826  1.8090  1.1194 -0.9766
  965SOL    HW2 2895   2.863   2.065   2.834  0.9444 -2.0284  1.7243
  966SOL     OW 2896   2.782   1.472   2.698  0.2260 -0.3773  0.2343
  966SOL    HW1 2897   2.750   1.433   2.606  2.7870 -1.3316  0.5157
  966SOL    HW2 2898   2.723   1.553   2.729  0.0246  0.5021 -0.0107
  967SOL     OW 2899   1.910   0.124   0.431 -0.2469 -0.2542 -0.5009
  967SOL    HW1 2900   1.929   0.042   0.373 -2.7267 -0.3769 -2.9418
  967SOL    HW2 2901   1.818   0.119   0.471  1.2992 -1.4141  0.9028
  968SOL     OW 2902   2.633   0.183   0.780 -0.2928 -0.0521 -0.3610
  968SOL    HW1 2903   2.557   0.163   0.843  1.0948 -0.4868 -2.1454
  968SOL    HW2 2904   2.599   0.235   0.703 -0.5709 -2.4780  2.3489
  969SOL     OW 2905   0.377   1.012   1.983 -0.1359  0.6981 -0.7841
  969SOL    HW1 2906   0.361   0.981   1.889 -2.0569 -0.2359 -0.4996
  969SOL    HW2 2907   0.363   1.114   1.985 -0.3109 -1.3858  3.6247
  970SOL     OW 2908   1.951   1.760   2.772 -0.4422  0.1251  0.0862
  970SOL    HW1 2909   1.901   1.700   2.709  1.2970  2.0185 -0.7891
  970SOL    HW2 2910   1.889   1.834   2.798  1.5881  0.0271  2.2061
  971SOL     OW 2911   2.254   0.305   1.721  0.2251 -0.1865  0.0884
  971SOL    HW1 2912   2.210   0.229   1.772 -0.5355 -0.6544 -1.5294
  971SOL    HW2 2913   2.180   0.344   1.666  1.4306 -0.5260 -0.1730
  972SOL     OW 2914   3.050   0.421   1.018  0.2317 -0.4950 -0.0031
  972SOL    HW1 2915   2.971   0.447   0.961  0.3600 -1.5304  1.3675
  972SOL    HW2 2916   0.002   0.338   0.980 -2.6121 -0.9462  1.2449
  973SOL     OW 2917   0.382   0.433   2.385 -0.1346  0.1104 -0.2813
  973SOL    HW1 2918   0.314   0.390   2.321 -3.0848  0.0047 -1.7715
  973SOL    HW2 2919   0.425   0.361   2.438 -1.3898 -1.8616  0.1410
  974SOL     OW 2920   3.017   1.065   1.602  0.5184  0.0446  0.1411
  974SOL    HW1 2921   2.987   1.159   1.580  0.7085 -0.4932  1.2434
  974SOL    HW2 2922   2.940   1.005   1.578 -0.8055 -1.2356 -0.7886
  975SOL     OW 2923   1.599   2.925   2.157 -0.0872  0.0559 -0.2071
  975SOL    HW1 2924   1.695   2.908   2.136 -2.0819  0.6188  1.4801
  975SOL    HW2 2925   1.551   2.836   2.145  1.0239  1.7643  0.9805
  976SOL     OW 2926   2.055   1.622   1.507 -0.0973  0.2120  0.3839
  976SOL    HW1 2927   2.012   1.644   1.413 -0.0678  1.3605  0.5285
  976SOL    HW2 2928   2.069   1.710   1.556 -1.6512  0.1418 -0.4335
  977SOL     OW 2929   0.027   2.750   0.055  0.3984 -0.0580  0.4653
  977SOL    HW1 2930   0.076   2.659   0.056 -1.6682 -0.5164  0.0065
  977SOL    HW2 2931   3.019   2.737   0.019 -0.8335  0.8732 -1.9656
  978SOL     OW 2932   2.035   1.286   1.971  0.0179 -0.1324 -0.6784
  978SOL    HW1 2933   2.001   1.280   1.875  2.5732  1.2089 -1.5377
  978SOL    HW2 2934   1.991   1.225   2.038 -1.7944 -0.9097 -4.2702
  979SOL     OW 2935   1.122   0.806   2.405 -0.7529 -0.1064  0.4384
  979SOL    HW1 2936   1.148   0.902   2.393 -1.0142 -2.7447  1.6985
  979SOL    HW2 2937   1.165   0.747   2.334 -0.2066  0.9511  0.7643
  980SOL     OW 2938   1.813   1.876   2.535  0.1485  0.3176  0.2303
  980SOL    HW1 2939   1.796   1.908   2.439 -1.4714  0.8629  0.6818
  980SOL    HW2 2940   1.839   1.778   2.543  1.0241  1.0768  1.3280
  981SOL     OW 2941   1.731   0.993   1.775  0.5770 -0.2038  0.5634
  981SOL    HW1 2942   1.809   0.941   1.741 -0.6983 -2.1269 -1.1552
  981SOL    HW2 2943   1.688   0.942   1.851 -0.8492 -1.0757 -1.9828
  982SOL     OW 2944   0.559   0.257   0.196  0.2841 -0.5192 -0.2111
  982SOL    HW1 2945   0.464   0.257   0.240  1.5593 -1.4070 -1.8536
  982SOL    HW2 2946   0.558   0.239   0.093 -1.0259 -0.2278  0.1167
  983SOL     OW 2947   1.977   0.581   3.033 -0.1476 -0.1507 -0.2288
  983SOL    HW1 2948   1.989   0.598   0.045 -0.9145  1.2806  1.1652
  983SOL    HW2 2949   1.947   0.665   2.986 -1.8406 -1.3977 -0.7026
  984SOL     OW 2950   0.994   0.176   2.737  0.4534  0.2249  0.3434
  984SOL    HW1 2951   0.975   0.126   2.646 -0.7786  0.2337  0.9291
  984SOL    HW2 2952   1.019   0.118   2.814 -1.1519  1.5948  0.4358
  985SOL     OW 2953   1.329   2.444   1.794 -0.5326  0.4585  0.0217
  985SOL    HW1 2954   1.267   2.390   1.850 -0.5935  3.1368 -4.0856
  985SOL    HW2 2955   1.306   2.544   1.809 -0.7773 -1.3610 -0.3619
  986SOL     OW 2956   2.312   3.058   1.714  0.0788  0.2056 -0.0686
  986SOL    HW1 2957   2.262   3.051   1.627  1.2863 -0.3508 -0.0302
  986SOL    HW2 2958   2.365   0.057   1.707  2.1328  2.2157  0.7525
  987SOL     OW 2959   1.790   1.452   0.802  0.0987  0.3399  0.1967
  987SOL    HW1 2960   1.738   1.399   0.873 -0.2567 -1.3378  0.3825
  987SOL    HW2 2961   1.869   1.509   0.839  0.7544  2.6577  1.6484
  988SOL     OW 2962   2.463   1.089   1.620 -0.1683  0.0142 -0.0008
  988SOL    HW1 2963   2.393   1.093   1.691  0.6711 -0.6096 -0.2144
  988SOL    HW2 2964   2.464   1.176   1.568  3.6865 -0.8517  2.9797
  989SOL     OW 2965   1.862   2.007   0.002  0.0765 -0.2639 -0.5962
  989SOL    HW1 2966   1.851   2.016   2.992 -1.0241 -2.3505  0.3554
  989SOL    HW2 2967   1.962   1.992   0.029  1.2403 -0.4295  4.4546
  990SOL     OW 2968   1.602   0.869   2.221 -0.0332  0.5446  0.4245
  990SOL    HW1 2969   1.657   0.797   2.255 -2.1612 -0.8449  0.1361
  990SOL    HW2 2970   1.659   0.950   2.200 -2.5652 -1.6653  0.3643
  991SOL     OW 2971   0.913   0.780   0.773 -0.2281  0.1572 -0.5046
  991SOL    HW1 2972   0.996   0.810   0.727 -0.2731 -1.4026 -0.2001
  991SOL    HW2 2973   0.915   0.809   0.870 -0.9267  0.6634  2.3476
  992SOL     OW 2974   0.130   1.015   1.190  0.2383 -0.3995  0.6625
  992SOL    HW1 2975   0.128   1.111   1.226 -0.6202 -0.9168  1.1148
  992SOL    HW2 2976   0.120   1.019   1.089 -0.1392 -0.4870 -1.1918
  993SOL     OW 2977   1.959   0.531   1.851  0.4201  0.2888  0.2601
  993SOL    HW1 2978   2.031   0.495   1.912 -2.7051  0.0162 -0.3965
  993SOL    HW2 2979   1.886   0.460   1.859 -1.5305 -1.0541  0.8013
  994SOL     OW 2980   1.261   1.772   1.706  0.0763 -0.2252  0.4758
  994SOL    HW1 2981   1.287   1.756   1.803  0.0536  1.9478 -0.3760
  994SOL    HW2 2982   1.173   1.822   1.705  0.1084  1.7234  0.3722
  995SOL     OW 2983   2.341   1.833   2.814 -0.0602  0.1832 -0.1822
  995SOL    HW1 2984   2.425   1.877   2.855 -0.0189 -0.7819  2.2609
  995SOL    HW2 2985   2.284   1.899   2.763  3.7417  2.0139 -1.5901
  996SOL     OW 2986   2.292   1.775   0.458 -0.3124 -0.4725  0.3410
  996SOL    HW1 2987   2.360   1.846   0.483 -2.3670 -1.3435 -0.7973
  996SOL    HW2 2988   2.287   1.705   0.528  0.7353  1.8064 -1.2592
  997SOL     OW 2989   1.840   0.755   2.285  0.3015  0.3719  0.0138
  997SOL    HW1 2990   1.864   0.764   2.188 -0.8724  1.6804 -0.2684
  997SOL    HW2 2991   1.839   0.662   2.321  1.3437 -1.3259  1.5491
  998SOL     OW 2992   2.460   0.781   0.747  0.3486 -0.1439  0.2357
  998SOL    HW1 2993   2.442   0.761   0.843 -0.4256 -0.3704  0.4014
  998SOL    HW2 2994   2.398   0.853   0.704 -2.6991  2.8029 -2.9786
  999SOL     OW 2995   2.358   1.143   0.483 -0.0825 -0.5404  1.0821
  999SOL    HW1 2996   2.458   1.143   0.516 -0.4919  0.3465  1.1427
  999SOL    HW2 2997   2.331   1.240   0.448 -2.7149  4.0086  0.9921
 1000SOL     OW 2998   0.598   1.253   1.821 -0.3919  0.5378  0.0808
 1000SOL    HW1 2999   0.521   1.258   1.889  1.3333 -2.1173  2.1230
 1000SOL    HW2 3000   0.600   1.172   1.757 -1.9999  2.6406 -2.7451
   3.09089   3.09089   3.09089
