1000 SPC/Fw water molecules t= 108.00000 step= 108000
 3000
    1SOL     OW    1   1.906   2.453   0.800 -0.3442  0.1030 -0.0498
    1SOL    HW1    2   1.883   2.360   0.827 -1.0318  1.3629  0.2974
    1SOL    HW2    3   1.961   2.503   0.870  0.2265 -0.4694 -1.2903
    2SOL     OW    4   1.306   1.404   2.195  0.5193 -0.2992 -0.1115
    2SOL    HW1    5   1.251   1.401   2.280  2.6505 -2.2304  0.1733
    2SOL    HW2    6   1.256   1.426   2.107  0.0090  1.0348 -2.8263
    3SOL     OW    7   1.587   2.378   2.395 -0.2911  0.0158  0.0803
    3SOL    HW1    8   1.667   2.335   2.343  0.8120 -1.0918  0.1902
    3SOL    HW2    9   1.526   2.424   2.332  4.7027 -0.9079  2.5325
    4SOL     OW   10   1.167   2.030   1.922 -0.2835 -0.5550  0.1684
    4SOL    HW1   11   1.214   2.099   1.979  1.3369  1.3919  0.3214
    4SOL    HW2   12   1.156   2.069   1.827 -1.4643 -1.5664  1.3492
    5SOL     OW   13   0.545   0.884   1.678 -0.1460 -0.1236  0.6047
    5SOL    HW1   14   0.611   0.919   1.748  0.1425 -0.5004 -3.4250
    5SOL    HW2   15   0.538   0.787   1.685 -1.3934 -2.0452  1.1588
    6SOL     OW   16   2.321   0.628   2.952  0.0806  0.5932 -0.2758
    6SOL    HW1   17   2.245   0.649   2.889  3.2290 -0.6105  0.8814
    6SOL    HW2   18   2.401   0.597   2.903  0.5867 -0.8156  5.1881
    7SOL     OW   19   0.629   0.195   1.606 -0.2090 -0.4616  0.3592
    7SOL    HW1   20   0.706   0.149   1.656  0.3495  1.3595 -0.0766
    7SOL    HW2   21   0.611   0.290   1.637  2.7641 -1.3996  1.4765
    8SOL     OW   22   1.659   0.132   1.742  0.6392 -0.2930 -0.2541
    8SOL    HW1   23   1.706   0.166   1.654  2.7299  3.3798 -1.5038
    8SOL    HW2   24   1.576   0.079   1.713  0.5896 -1.1570 -1.5124
    9SOL     OW   25   0.179   0.508   0.562 -0.0862  0.4671  0.1467
    9SOL    HW1   26   0.199   0.436   0.632 -0.4231 -2.7212 -0.6467
    9SOL    HW2   27   0.207   0.603   0.595 -0.0690  2.5197  0.6071
   10SOL     OW   28   0.822   2.426   2.572 -0.2394  0.6077 -0.4079
   10SOL    HW1   29   0.868   2.471   2.651  0.1898 -1.5205  1.2380
   10SOL    HW2   30   0.743   2.485   2.537 -1.5600  1.2194 -2.8654
   11SOL     OW   31   0.813   1.679   0.032 -0.2585  0.5771  0.2499
   11SOL    HW1   32   0.717   1.637   0.043  1.4806 -1.1855  1.8432
   11SOL    HW2   33   0.881   1.627   0.087  1.5357 -0.3831  1.8872
   12SOL     OW   34   0.176   2.906   1.339 -0.0704 -0.5710 -0.3912
   12SOL    HW1   35   0.115   2.964   1.396 -3.4547  0.2910  1.2427
   12SOL    HW2   36   0.120   2.847   1.277  0.2798  1.2710 -0.3136
   13SOL     OW   37   0.843   2.859   0.057  0.2297 -0.0797 -0.0531
   13SOL    HW1   38   0.944   2.849   0.054 -2.6742  0.7719  1.9626
   13SOL    HW2   39   0.819   2.941   0.110  1.7390 -0.7773  0.4284
   14SOL     OW   40   1.766   1.963   0.702  0.4678  0.3828  0.1104
   14SOL    HW1   41   1.726   1.895   0.763  0.8112  2.9142  0.5051
   14SOL    HW2   42   1.847   1.928   0.656 -1.0230  1.0992  0.4491
   15SOL     OW   43   2.943   1.532   2.283 -0.0699 -0.1273  0.2256
   15SOL    HW1   44   3.006   1.493   2.349 -0.6267 -0.1050 -3.7361
   15SOL    HW2   45   2.870   1.467   2.255  1.9756 -0.5361  0.1510
   16SOL     OW   46   1.485   0.100   2.809  0.1204  0.0733  0.0913
   16SOL    HW1   47   1.504   0.196   2.801 -0.9241 -0.6514  0.6016
   16SOL    HW2   48   1.456   0.063   2.718  1.6984  1.6392  3.4127
   17SOL     OW   49   0.515   2.354   2.167 -0.0345 -0.0852  0.1715
   17SOL    HW1   50   0.614   2.328   2.182 -0.5520 -0.0085  2.2103
   17SOL    HW2   51   0.471   2.378   2.257  0.6645 -1.1642 -0.2969
   18SOL     OW   52   1.574   1.063   0.547 -0.4606 -0.1484  0.1023
   18SOL    HW1   53   1.659   1.087   0.498  2.2126 -1.9067 -2.8164
   18SOL    HW2   54   1.516   0.997   0.492  1.4789 -1.0050 -1.0807
   19SOL     OW   55   2.481   1.763   2.358 -0.3248  0.1254 -0.4161
   19SOL    HW1   56   2.400   1.716   2.399  2.3524  0.8691  0.2020
   19SOL    HW2   57   2.534   1.819   2.427  1.0430 -0.5891  0.1728
   20SOL     OW   58   2.527   2.142   2.195  0.1760 -0.2958 -0.5314
   20SOL    HW1   59   2.484   2.127   2.106 -0.0040 -0.2502  1.9950
   20SOL    HW2   60   2.524   2.244   2.210 -2.4367  0.4047  0.3990
   21SOL     OW   61   0.704   2.198   0.135 -0.3327 -0.1758  0.7541
   21SOL    HW1   62   0.784   2.260   0.137 -0.2783  1.5900 -1.3324
   21SOL    HW2   63   0.729   2.103   0.114 -1.8214 -1.4657 -2.6088
   22SOL     OW   64   2.079   2.314   1.472 -0.1943  0.1628 -0.2988
   22SOL    HW1   65   2.126   2.358   1.391  0.2640 -2.1995 -2.7553
   22SOL    HW2   66   2.102   2.371   1.554  0.4403 -0.6388 -0.5598
   23SOL     OW   67   0.314   1.014   1.626  0.0204 -0.1785  0.1891
   23SOL    HW1   68   0.311   1.103   1.673  1.3205  0.1602 -1.1082
   23SOL    HW2   69   0.406   0.973   1.641 -3.5958 -0.0550 -1.0833
   24SOL     OW   70   2.197   1.820   1.868 -0.4368  0.0989 -0.4875
   24SOL    HW1   71   2.144   1.791   1.956  0.1769 -0.8262 -1.8081
   24SOL    HW2   72   2.296   1.799   1.884 -0.5001  0.4705  1.0344
   25SOL     OW   73   1.753   0.260   2.529 -0.0955 -0.2835  0.0170
   25SOL    HW1   74   1.798   0.247   2.434  0.3637 -0.3524 -0.0834
   25SOL    HW2   75   1.651   0.239   2.522 -1.0674 -0.3880 -2.8942
   26SOL     OW   76   1.317   0.075   0.682  0.3241  0.0163 -0.6441
   26SOL    HW1   77   1.336   0.020   0.602 -2.2270 -1.5337  1.2424
   26SOL    HW2   78   1.336   0.174   0.660  0.7741  2.8876  1.1198
   27SOL     OW   79   0.941   1.563   0.253 -0.4747  0.1457  0.0150
   27SOL    HW1   80   0.948   1.648   0.307  0.1383  1.1423 -1.4631
   27SOL    HW2   81   0.890   1.485   0.303 -0.8669 -2.0002 -0.0243
   28SOL     OW   82   2.564   1.748   1.211  0.3512 -0.4609  0.0763
   28SOL    HW1   83   2.519   1.795   1.287  1.5999 -0.2832 -1.9834
   28SOL    HW2   84   2.517   1.787   1.128  0.9022  2.1508 -0.7814
   29SOL     OW   85   2.274   2.631   1.807 -0.0824  0.0448  0.2740
   29SOL    HW1   86   2.231   2.704   1.872 -0.6151  2.3313  2.4378
   29SOL    HW2   87   2.378   2.638   1.798 -2.0941  1.3311 -1.3279
   30SOL     OW   88   0.890   2.879   1.060  0.2556 -0.3282 -0.5543
   30SOL    HW1   89   0.872   2.947   0.986 -1.0909  4.0477 -1.5823
   30SOL    HW2   90   0.952   2.913   1.131  0.4260 -1.6751  0.4540
   31SOL     OW   91   2.962   2.384   1.798 -0.0814  0.3202  0.0255
   31SOL    HW1   92   3.048   2.435   1.808 -0.9618  3.0936  0.1163
   31SOL    HW2   93   2.927   2.353   1.887 -0.6817 -0.3478 -0.0037
   32SOL     OW   94   1.551   1.351   2.045  0.2004 -0.4163 -0.1537
   32SOL    HW1   95   1.460   1.363   2.082 -0.6689  1.0344  3.0281
   32SOL    HW2   96   1.569   1.259   2.003  2.3511 -0.4221 -1.0568
   33SOL     OW   97   0.260   0.123   2.833 -0.4289  0.2493  0.0450
   33SOL    HW1   98   0.243   0.187   2.755  2.1304 -2.0240  1.1462
   33SOL    HW2   99   0.199   0.042   2.836 -0.8905  1.5556 -0.1567
   34SOL     OW  100   2.218   0.152   1.152  0.2934 -0.4845  0.3984
   34SOL    HW1  101   2.213   0.247   1.187 -2.0932 -1.9785  0.5206
   34SOL    HW2  102   2.258   0.085   1.216  3.4831  3.6445  1.1930
   35SOL     OW  103   2.276   0.275   1.464  0.0497  0.6128 -0.4021
   35SOL    HW1  104   2.341   0.197   1.482  2.1428 -0.9317 -1.0995
   35SOL    HW2  105   2.193   0.266   1.516  1.5316  1.2402 -0.2851
   36SOL     OW  106   2.492   2.912   2.450 -0.2201  0.4855  0.8839
   36SOL    HW1  107   2.396   2.900   2.427  1.1905  3.8330 -0.0138
   36SOL    HW2  108   2.532   2.832   2.496 -0.5343 -0.9595 -0.5044
   37SOL     OW  109   1.022   2.609   2.985 -0.2552  0.4054 -0.3613
   37SOL    HW1  110   1.044   2.654   3.076 -1.4796  0.8545 -1.5971
   37SOL    HW2  111   1.100   2.596   2.919 -2.0334 -2.1455 -0.6425
   38SOL     OW  112   2.818   1.203   2.794 -0.1457 -0.3502 -0.2615
   38SOL    HW1  113   2.918   1.194   2.801 -1.9781  1.1732  0.0259
   38SOL    HW2  114   2.771   1.221   2.882 -0.6610 -0.0902 -1.1379
   39SOL     OW  115   2.151   2.143   2.251  0.1165  0.5083  0.0461
   39SOL    HW1  116   2.197   2.061   2.210  2.4060 -2.2848 -2.1907
   39SOL    HW2  117   2.129   2.125   2.354 -1.6610 -0.1710 -0.4959
   40SOL     OW  118   0.686   0.233   2.806  0.4510  0.5733 -0.0747
   40SOL    HW1  119   0.742   0.172   2.869  0.2335 -1.3460  0.8113
   40SOL    HW2  120   0.717   0.231   2.710 -2.0079 -0.1523 -0.2796
   41SOL     OW  121   1.462   1.134   1.462  0.3254 -0.6214  0.5145
   41SOL    HW1  122   1.559   1.120   1.476 -0.2063  1.4968  1.5791
   41SOL    HW2  123   1.404   1.116   1.549 -1.3308 -0.0380 -0.0030
   42SOL     OW  124   0.118   0.381   2.129 -0.0091 -0.3730  0.2315
   42SOL    HW1  125   0.071   0.417   2.041 -1.5796  1.6648 -2.0001
   42SOL    HW2  126   0.201   0.432   2.149 -1.8601 -0.2986  2.6732
   43SOL     OW  127   1.822   1.271   2.170 -0.1901 -0.3730 -0.0116
   43SOL    HW1  128   1.809   1.267   2.273  2.3191  1.4376  1.4759
   43SOL    HW2  129   1.738   1.306   2.126 -0.2793  0.2795  2.3176
   44SOL     OW  130   0.104   3.024   2.968  0.1991  0.3318 -0.1888
   44SOL    HW1  131   0.085   3.084   3.047 -0.4265 -3.1577 -1.8479
   44SOL    HW2  132   0.107   2.926   2.996 -0.1830 -0.6161 -1.2154
   45SOL     OW  133   0.744   1.992   1.134  0.4066 -0.1222  0.0183
   45SOL    HW1  134   0.758   2.095   1.130  2.6519  0.9227  0.1687
   45SOL    HW2  135   0.697   1.968   1.222 -2.3856 -1.2009 -1.0722
   46SOL     OW  136   2.552   2.606   1.790 -0.4005  0.2280  0.0743
   46SOL    HW1  137   2.631   2.653   1.745 -0.6082 -1.6985 -0.1080
   46SOL    HW2  138   2.560   2.508   1.780 -0.7948  2.3616 -0.6668
   47SOL     OW  139   1.052   1.670   1.347 -0.2890  0.0481  0.2868
   47SOL    HW1  140   1.040   1.763   1.309  0.7206  0.7930  1.6586
   47SOL    HW2  141   1.001   1.652   1.437  0.3543 -2.9143  2.9856
   48SOL     OW  142   0.137   2.635   0.205 -0.2553 -0.2066  0.1692
   48SOL    HW1  143   0.064   2.579   0.256 -1.9985  0.4279  2.4308
   48SOL    HW2  144   0.170   2.711   0.269  1.9810  1.3357 -0.4955
   49SOL     OW  145   2.899   1.373   1.935 -0.6238 -0.5394 -0.3606
   49SOL    HW1  146   2.941   1.465   1.924  2.1208 -1.8785  1.8638
   49SOL    HW2  147   2.797   1.379   1.928 -1.2282 -0.7748 -0.2561
   50SOL     OW  148   2.119   0.953   0.697  0.0880 -0.2730  0.3840
   50SOL    HW1  149   2.164   0.969   0.608  2.0275 -0.6921  4.4566
   50SOL    HW2  150   2.019   0.962   0.684 -0.1359 -2.7650  1.2608
   51SOL     OW  151   1.011   0.997   0.894  0.0985 -0.2120 -0.1483
   51SOL    HW1  152   0.938   0.996   0.822 -2.2175 -2.0060  0.2167
   51SOL    HW2  153   0.968   0.963   0.984 -2.0682 -0.1439  2.3311
   52SOL     OW  154   1.489   1.215   0.232 -0.3352  0.0017  0.1954
   52SOL    HW1  155   1.530   1.132   0.272  0.2426  1.4628  2.0076
   52SOL    HW2  156   1.455   1.281   0.301  0.0867  0.6644 -2.4544
   53SOL     OW  157   1.181   2.332   2.696 -0.4355 -0.9902  0.4134
   53SOL    HW1  158   1.117   2.344   2.771 -0.2690  0.9653  0.7196
   53SOL    HW2  159   1.254   2.265   2.719 -1.4946 -1.0265  1.6273
   54SOL     OW  160   1.597   0.723   1.705 -0.0537  0.1012  0.2728
   54SOL    HW1  161   1.527   0.752   1.772 -0.6981 -1.0995 -1.1719
   54SOL    HW2  162   1.564   0.680   1.618 -0.2617 -3.7132 -0.8786
   55SOL     OW  163   2.645   2.771   0.464  0.1974  0.0341  0.0137
   55SOL    HW1  164   2.659   2.743   0.560  2.0083  1.8603  0.1394
   55SOL    HW2  165   2.564   2.835   0.463  2.9450  2.7550  0.6760
   56SOL     OW  166   0.794   2.615   1.838  0.1509 -0.4049 -0.2244
   56SOL    HW1  167   0.730   2.675   1.894 -2.4176  1.7411  0.4786
   56SOL    HW2  168   0.749   2.584   1.749 -0.1433 -2.5694 -2.3294
   57SOL     OW  169   1.999   0.658   2.702  0.0132  0.1585  0.2022
   57SOL    HW1  170   2.000   0.562   2.669  0.0064 -1.3741 -0.1160
   57SOL    HW2  171   1.919   0.665   2.768 -0.4296 -1.5992 -0.7347
   58SOL     OW  172   2.975   1.239   1.674 -0.0955 -0.0131 -1.0654
   58SOL    HW1  173   2.955   1.282   1.766  0.2857  2.0709  1.5394
   58SOL    HW2  174   2.905   1.255   1.608  1.6483  1.7786  2.8303
   59SOL     OW  175   0.555   2.949   2.387  0.2300  0.4968  0.0400
   59SOL    HW1  176   0.630   2.881   2.371  0.8300 -1.9353 -1.6080
   59SOL    HW2  177   0.468   2.914   2.335  1.2494  0.5856 -0.6853
   60SOL     OW  178   2.622   2.276   0.671  0.5939 -0.2340  0.7392
   60SOL    HW1  179   2.643   2.179   0.660  0.8025  3.4670  1.3760
   60SOL    HW2  180   2.689   2.324   0.727 -3.9494 -2.6385 -0.6701
   61SOL     OW  181   0.719   2.192   0.443  0.1451 -0.3308 -0.1864
   61SOL    HW1  182   0.712   2.196   0.341 -2.2195  4.5843  1.3270
   61SOL    HW2  183   0.812   2.218   0.472 -2.0892 -1.8382 -1.4428
   62SOL     OW  184   2.116   2.675   2.863  0.0788 -0.2341 -0.7231
   62SOL    HW1  185   2.220   2.658   2.872  1.7223 -0.6470  0.6819
   62SOL    HW2  186   2.098   2.717   2.776  1.8257 -1.6283  2.9459
   63SOL     OW  187   2.003   0.480   0.139  0.4257  0.1650 -0.6466
   63SOL    HW1  188   1.971   0.512   0.048  0.5198 -4.4861  2.7885
   63SOL    HW2  189   1.941   0.512   0.218  1.4957 -1.3425  0.6608
   64SOL     OW  190   0.678   0.999   2.510  0.0119 -0.7808  0.6409
   64SOL    HW1  191   0.778   1.001   2.532 -0.3232 -1.0206 -0.1655
   64SOL    HW2  192   0.630   0.979   2.596  2.2414 -0.8595 -1.4187
   65SOL     OW  193   1.348   3.056   0.437 -0.9267 -0.9134  0.4304
   65SOL    HW1  194   1.387   2.965   0.432  0.1091 -0.4267  2.1515
   65SOL    HW2  195   1.258   3.063   0.388  1.5122 -0.1808  0.4353
   66SOL     OW  196   0.313   1.263   1.734 -0.0168  0.1970 -0.4012
   66SOL    HW1  197   0.255   1.295   1.816 -2.5408  0.8630 -1.2340
   66SOL    HW2  198   0.409   1.276   1.754 -2.7637 -0.3006 -0.1827
   67SOL     OW  199   2.035   2.945   2.232  0.1855 -0.1075 -0.5473
   67SOL    HW1  200   2.000   2.902   2.146 -0.0159 -0.3699  1.1820
   67SOL    HW2  201   2.125   2.901   2.261 -0.0857  0.6360 -1.4251
   68SOL     OW  202   0.798   0.686   1.816 -0.1417  0.1434  0.4075
   68SOL    HW1  203   0.809   0.637   1.727 -4.7089 -0.5380 -0.3596
   68SOL    HW2  204   0.795   0.787   1.803  1.0097 -1.0420  0.0071
   69SOL     OW  205   2.156   2.637   0.389  0.0303 -0.3375  0.1900
   69SOL    HW1  206   2.099   2.640   0.477 -2.8661  1.2209  0.6506
   69SOL    HW2  207   2.166   2.730   0.352  2.2954  0.3546 -1.2972
   70SOL     OW  208   2.511   0.519   2.804 -0.0778 -0.6025 -0.1236
   70SOL    HW1  209   2.606   0.550   2.795  0.8494  1.3811  0.6741
   70SOL    HW2  210   2.515   0.419   2.831 -2.6370 -0.1429 -1.7437
   71SOL     OW  211   2.860   2.005   0.112 -0.5946 -0.3194 -0.4158
   71SOL    HW1  212   2.834   1.908   0.080  0.9366 -2.9910  0.4963
   71SOL    HW2  213   2.937   2.038   0.054  3.1119 -1.8651 -0.4343
   72SOL     OW  214   3.000   1.850   0.430  0.1581  0.5646 -0.1233
   72SOL    HW1  215   2.957   1.942   0.425 -1.0906  1.3036 -0.5508
   72SOL    HW2  216   2.992   1.817   0.530 -1.2276 -0.1500  0.6549
   73SOL     OW  217   0.808   1.009   0.723 -0.7112 -0.3390  0.2191
   73SOL    HW1  218   0.766   1.084   0.780 -0.6148  2.2757 -0.9452
   73SOL    HW2  219   0.744   0.981   0.654  2.5961 -1.0025  0.8929
   74SOL     OW  220   0.162   1.948   2.056 -0.1174 -0.2412  0.0139
   74SOL    HW1  221   0.207   1.864   2.092 -0.3599  0.8578 -1.0635
   74SOL    HW2  222   0.228   2.007   2.001  1.1477  1.3828 -1.8309
   75SOL     OW  223   1.821   1.387   1.164  0.2411  0.2767  0.7261
   75SOL    HW1  224   1.801   1.398   1.063 -0.4297 -1.2270  1.0849
   75SOL    HW2  225   1.743   1.345   1.213  1.0034 -0.7126 -2.7330
   76SOL     OW  226   1.977   2.250   1.078 -0.0007 -0.0351  0.2974
   76SOL    HW1  227   2.045   2.324   1.092  1.9270  0.3460 -0.4612
   76SOL    HW2  228   1.900   2.254   1.149 -2.2889  0.5447  0.3345
   77SOL     OW  229   2.481   1.661   1.688 -0.5899  0.4051 -0.1145
   77SOL    HW1  230   2.475   1.720   1.772  2.1663  3.3811  0.2888
   77SOL    HW2  231   2.564   1.696   1.636  1.9440  0.2228 -0.9638
   78SOL     OW  232   1.423   0.916   0.397  0.1321 -0.7216  0.0142
   78SOL    HW1  233   1.326   0.912   0.420  0.8351 -0.0584 -0.9956
   78SOL    HW2  234   1.470   0.832   0.434  1.3977  0.6255  1.0471
   79SOL     OW  235   2.053   1.677   1.399 -0.4084 -0.2438  0.1896
   79SOL    HW1  236   2.043   1.698   1.500 -0.3436 -0.9068  2.8791
   79SOL    HW2  237   2.137   1.630   1.365 -0.0355  1.1495 -1.2601
   80SOL     OW  238   0.882   0.574   1.587  0.0891  0.4560  0.0332
   80SOL    HW1  239   0.931   0.494   1.625 -0.6203  0.8684 -1.5382
   80SOL    HW2  240   0.904   0.563   1.484  0.2405 -2.7444 -4.6852
   81SOL     OW  241   0.478   2.256   0.582 -0.3310 -0.3774 -0.4517
   81SOL    HW1  242   0.459   2.162   0.622 -0.4613  0.9864  2.6662
   81SOL    HW2  243   0.557   2.251   0.523  1.1187 -1.6312 -0.1108
   82SOL     OW  244   1.089   0.114   1.702 -0.4753  0.5993 -0.2500
   82SOL    HW1  245   1.044   0.067   1.784 -0.4494  0.5785  0.2979
   82SOL    HW2  246   1.180   0.161   1.714  0.8175 -0.5392 -0.4726
   83SOL     OW  247   0.724   1.660   0.608  0.3509 -0.6888  1.4141
   83SOL    HW1  248   0.694   1.746   0.655  0.2134  1.3455 -1.5940
   83SOL    HW2  249   0.648   1.643   0.534 -4.3257  0.1789 -4.2127
   84SOL     OW  250   2.809   1.352   3.091  0.8261 -0.2195 -0.0487
   84SOL    HW1  251   2.727   1.304   3.047 -0.6666  1.3109 -0.0082
   84SOL    HW2  252   2.882   1.389   3.025  0.5525  1.2071 -0.7172
   85SOL     OW  253   0.092   2.370   0.920  0.3924 -0.1835  0.2928
   85SOL    HW1  254   0.036   2.349   0.835  0.1434  1.0802 -1.5428
   85SOL    HW2  255   0.194   2.366   0.906  1.9763 -0.0684  1.7550
   86SOL     OW  256   2.051   2.851   1.177  0.5243  0.1058 -0.2243
   86SOL    HW1  257   2.005   2.930   1.225  0.9414 -0.9215  1.8422
   86SOL    HW2  258   2.006   2.762   1.197  1.7167 -1.5744  0.4342
   87SOL     OW  259   3.012   1.758   0.683  0.3861 -0.1664 -0.0592
   87SOL    HW1  260   2.995   1.795   0.776  0.6343  0.6663  0.5532
   87SOL    HW2  261   0.004   1.709   0.670  2.2060  0.5878 -0.3807
   88SOL     OW  262   0.611   0.490   1.550  0.0117 -0.2760 -0.0445
   88SOL    HW1  263   0.578   0.439   1.468 -0.0761  1.6346 -0.2989
   88SOL    HW2  264   0.702   0.543   1.546  2.6707  3.3573 -0.3615
   89SOL     OW  265   0.971   2.758   1.694  0.3399 -0.7347 -0.3529
   89SOL    HW1  266   0.922   2.805   1.618 -0.1498 -1.7934 -0.9061
   89SOL    HW2  267   0.903   2.700   1.747  1.8825 -1.4147  0.1449
   90SOL     OW  268   0.031   1.924   1.116 -0.3811  0.4008 -0.4542
   90SOL    HW1  269   0.073   1.874   1.195  1.4170 -0.4574  4.5033
   90SOL    HW2  270   0.016   2.024   1.149 -1.9532  0.9088 -1.0894
   91SOL     OW  271   1.215   2.022   1.185 -0.9537 -0.7252  0.0214
   91SOL    HW1  272   1.172   2.101   1.141  1.5550  0.0068 -0.4604
   91SOL    HW2  273   1.301   2.053   1.230 -2.7014 -0.5283  0.1347
   92SOL     OW  274   2.839   2.924   1.478  0.2074  0.0531 -0.3179
   92SOL    HW1  275   2.783   2.988   1.421 -3.4993  1.0831  0.1471
   92SOL    HW2  276   2.935   2.962   1.490  1.3173 -0.4611 -1.5455
   93SOL     OW  277   3.017   1.411   2.899 -0.3904 -0.5273 -0.4984
   93SOL    HW1  278   3.024   1.356   2.815  1.8743 -0.5308  1.4198
   93SOL    HW2  279   0.007   1.403   2.951 -0.6058  4.2263 -0.7711
   94SOL     OW  280   2.859   2.700   2.143 -0.2881  0.1163  0.0035
   94SOL    HW1  281   2.886   2.778   2.083 -1.8148  0.1376  1.1499
   94SOL    HW2  282   2.833   2.741   2.233 -2.3336  2.5047 -0.6581
   95SOL     OW  283   1.447   0.745   1.939  0.1816 -0.1282  0.5452
   95SOL    HW1  284   1.517   0.724   2.010 -0.5185  1.1211  0.0947
   95SOL    HW2  285   1.371   0.803   1.970 -2.3222 -0.2421 -0.0547
   96SOL     OW  286   2.628   0.347   1.946 -0.1521 -0.0449 -0.0737
   96SOL    HW1  287   2.576   0.329   1.855 -1.1432 -0.0645 -4.2076
   96SOL    HW2  288   2.655   0.445   1.944  1.2837 -0.0588  1.9209
   97SOL     OW  289   2.174   2.962   1.517  0.0062  0.0200  0.0248
   97SOL    HW1  290   2.102   2.980   1.587 -0.4671 -0.9438  1.5451
   97SOL    HW2  291   2.266   2.977   1.564  3.0246 -0.8337  1.5985
   98SOL     OW  292   2.281   2.961   1.255  0.2025  0.3381 -0.2645
   98SOL    HW1  293   2.244   2.990   1.343  0.0977 -0.4171 -0.9854
   98SOL    HW2  294   2.216   2.888   1.221 -2.9468 -1.5921  0.9561
   99SOL     OW  295   2.777   0.181   2.061  0.0456 -0.7501  0.3754
   99SOL    HW1  296   2.861   0.156   2.010  0.5361 -2.1554  2.3228
   99SOL    HW2  297   2.722   0.249   2.010  0.9064 -0.8689 -0.1708
  100SOL     OW  298   2.072   1.435   1.803  0.1908  0.0820  0.5002
  100SOL    HW1  299   2.012   1.511   1.767  0.1479  1.5734 -0.7025
  100SOL    HW2  300   2.053   1.406   1.896  0.2554 -0.3481 -2.9124
  101SOL     OW  301   1.708   0.062   0.715 -0.0457  0.4483  0.3243
  101SOL    HW1  302   1.706   0.143   0.776 -1.5576  2.6867  0.5422
  101SOL    HW2  303   1.636   0.070   0.641 -0.8430  0.8341  1.8796
  102SOL     OW  304   0.543   0.767   1.429 -0.1973  0.4507 -0.2949
  102SOL    HW1  305   0.521   0.671   1.453  0.7553 -1.0593 -1.3725
  102SOL    HW2  306   0.531   0.830   1.504  0.8644 -0.3930 -1.8324
  103SOL     OW  307   2.563   0.270   2.887  0.3537 -0.7087  0.5808
  103SOL    HW1  308   2.633   0.277   2.817 -0.5750  0.2420  0.0542
  103SOL    HW2  309   2.595   0.230   2.975 -0.1224 -1.3202 -0.2731
  104SOL     OW  310   2.713   2.993   1.823 -0.5803  0.0737  0.0092
  104SOL    HW1  311   2.787   3.057   1.792 -2.3374 -2.8769  2.1101
  104SOL    HW2  312   2.640   3.045   1.881  0.0850  0.5055 -1.5935
  105SOL     OW  313   1.680   0.925   2.180  0.4748 -0.0017  0.1003
  105SOL    HW1  314   1.668   0.835   2.134  1.7714 -0.6566  4.2713
  105SOL    HW2  315   1.781   0.946   2.177  3.6447 -1.0494 -1.9085
  106SOL     OW  316   1.699   0.302   0.842 -0.2830  0.4593  0.1935
  106SOL    HW1  317   1.801   0.280   0.855  1.6933 -0.1016  0.7966
  106SOL    HW2  318   1.651   0.293   0.931 -1.7015  0.8877  0.1708
  107SOL     OW  319   0.737   1.215   0.868  0.2663 -0.1303  0.0911
  107SOL    HW1  320   0.657   1.255   0.916 -1.5008 -1.9378 -0.1807
  107SOL    HW2  321   0.825   1.265   0.891  1.0430  0.8354 -1.2218
  108SOL     OW  322   0.023   0.707   2.487 -0.0741 -0.3892 -0.0126
  108SOL    HW1  323   0.042   0.617   2.448  0.5919  2.3718  0.8807
  108SOL    HW2  324   3.043   0.757   2.442  1.5622  1.8510 -0.9774
  109SOL     OW  325   1.961   0.109   0.110  0.0809 -0.1369 -0.1937
  109SOL    HW1  326   1.952   0.010   0.082  1.4207 -2.1116 -0.1711
  109SOL    HW2  327   1.962   0.184   0.037  0.8438  1.1624 -0.8976
  110SOL     OW  328   3.017   1.945   2.795  0.0286  0.0572  0.0960
  110SOL    HW1  329   3.030   2.027   2.852  0.1120 -2.2300 -0.6527
  110SOL    HW2  330   3.011   1.860   2.848  2.9857 -0.1016 -2.1268
  111SOL     OW  331   2.079   0.094   2.361  0.3877  0.0645  0.4966
  111SOL    HW1  332   2.061   0.001   2.317  0.1400  1.7659 -0.2360
  111SOL    HW2  333   2.155   0.102   2.423 -4.1978  0.2329 -1.8742
  112SOL     OW  334   2.502   3.051   1.102  0.0422 -0.1418  0.0989
  112SOL    HW1  335   2.514   3.010   1.011 -1.0668  3.0146  0.9562
  112SOL    HW2  336   2.427   3.012   1.152 -1.5756  0.2622  0.6588
  113SOL     OW  337   2.424   2.393   1.628  0.1258 -0.2919 -0.2551
  113SOL    HW1  338   2.458   2.469   1.567 -0.6883  1.3730  1.6858
  113SOL    HW2  339   2.322   2.392   1.639  0.2729  0.4265  2.5641
  114SOL     OW  340   2.947   0.131   0.787 -0.2640  0.0398 -0.1496
  114SOL    HW1  341   2.966   0.193   0.708 -0.3159  0.6540 -2.1184
  114SOL    HW2  342   2.889   0.052   0.763  0.0847  0.8039 -0.9738
  115SOL     OW  343   2.803   1.759   0.007  0.2963  0.2723  0.6151
  115SOL    HW1  344   2.905   1.737   0.022  3.3542 -0.5341 -2.5925
  115SOL    HW2  345   2.748   1.678   0.041 -0.0415 -1.7295  1.4674
  116SOL     OW  346   3.040   1.606   1.863  0.2338 -0.2556 -0.2642
  116SOL    HW1  347   3.058   1.644   1.960 -0.2283 -2.8816 -0.4050
  116SOL    HW2  348   0.016   1.624   1.794  2.3864  2.1192 -1.2726
  117SOL     OW  349   2.508   2.883   0.891 -0.2214 -0.1307 -0.6464
  117SOL    HW1  350   2.604   2.854   0.925  1.2981 -0.2484  2.3846
  117SOL    HW2  351   2.457   2.799   0.859  0.0379 -2.1812  1.0172
  118SOL     OW  352   0.408   2.314   1.761 -0.2530  0.3731  0.1785
  118SOL    HW1  353   0.354   2.255   1.695  1.1887  0.2810  0.7175
  118SOL    HW2  354   0.500   2.333   1.727  0.4464 -0.8363  1.6805
  119SOL     OW  355   1.603   2.228   1.038  0.1053 -0.1551 -0.7831
  119SOL    HW1  356   1.504   2.195   1.028  0.6292  0.1687  0.6050
  119SOL    HW2  357   1.661   2.157   1.090  0.6304 -1.5178  3.7469
  120SOL     OW  358   0.462   1.939   2.011  0.3645  0.2853  0.1429
  120SOL    HW1  359   0.522   1.911   2.092 -0.6439  1.1645 -1.6734
  120SOL    HW2  360   0.448   2.038   2.021 -0.0619  1.0184  1.5248
  121SOL     OW  361   2.447   1.478   0.959 -0.5128  0.1831  0.0589
  121SOL    HW1  362   2.454   1.500   1.058  0.3042 -2.2308  1.4290
  121SOL    HW2  363   2.359   1.523   0.926 -3.6142  0.1594  0.4879
  122SOL     OW  364   1.829   1.802   2.290 -0.2324 -0.3402  0.0883
  122SOL    HW1  365   1.829   1.768   2.196  0.2262  1.1274 -0.4589
  122SOL    HW2  366   1.918   1.795   2.331 -2.4203  0.0330 -0.4677
  123SOL     OW  367   2.773   3.011   0.739 -0.2942  0.1900  0.1296
  123SOL    HW1  368   2.840   2.935   0.727 -2.7790 -2.0579 -0.0161
  123SOL    HW2  369   2.689   2.967   0.776 -2.8088  1.7443  0.7171
  124SOL     OW  370   1.376   1.336   2.853  0.3365  0.2617  0.4152
  124SOL    HW1  371   1.321   1.297   2.934 -0.4520 -2.0024 -2.0643
  124SOL    HW2  372   1.478   1.327   2.868 -0.3000  1.1895 -0.6365
  125SOL     OW  373   0.280   1.650   2.674 -0.5176 -0.6769  0.0330
  125SOL    HW1  374   0.203   1.652   2.603  0.2347  1.8241  1.8081
  125SOL    HW2  375   0.342   1.572   2.666 -0.8509 -0.3287  1.1372
  126SOL     OW  376   2.843   2.079   0.376  0.2598 -0.3082  0.2755
  126SOL    HW1  377   2.915   2.148   0.386  0.0232 -2.1595  1.4968
  126SOL    HW2  378   2.833   2.051   0.279  1.2648 -0.2798 -4.1021
  127SOL     OW  379   0.324   1.740   0.968  0.5822  0.0664  0.0279
  127SOL    HW1  380   0.239   1.685   0.945 -2.0232 -2.5778 -0.7707
  127SOL    HW2  381   0.317   1.838   0.946  1.2590  0.4422  0.7392
  128SOL     OW  382   1.649   0.881   0.079 -0.5406 -0.2131 -0.2373
  128SOL    HW1  383   1.699   0.955   0.133  1.1630 -3.5873 -0.6753
  128SOL    HW2  384   1.671   0.795   0.120 -0.5012  3.6626 -2.4649
  129SOL     OW  385   2.242   1.708   1.150  0.0789  0.2476  0.5154
  129SOL    HW1  386   2.180   1.786   1.158  2.2835 -1.5015 -0.5610
  129SOL    HW2  387   2.277   1.673   1.240  1.1425  1.4425  0.3286
  130SOL     OW  388   2.179   1.384   0.460  0.5889  0.5779 -0.0093
  130SOL    HW1  389   2.145   1.294   0.430 -0.3064  1.6479  3.3676
  130SOL    HW2  390   2.192   1.395   0.562  3.1000 -0.5937 -1.7019
  131SOL     OW  391   2.710   1.368   2.587  0.1118  0.0295 -0.4470
  131SOL    HW1  392   2.712   1.312   2.669  0.0454  0.1626 -1.9908
  131SOL    HW2  393   2.725   1.467   2.605 -1.3348  0.5453  0.2280
  132SOL     OW  394   1.821   1.610   1.745 -0.3287 -0.0969  0.2032
  132SOL    HW1  395   1.887   1.681   1.701  1.4904  0.0998 -1.6016
  132SOL    HW2  396   1.720   1.640   1.742  0.5375  1.1379  2.0553
  133SOL     OW  397   0.354   1.071   0.022  0.5674 -0.4428  0.4383
  133SOL    HW1  398   0.329   0.975   0.015  2.9127  1.3666  3.8015
  133SOL    HW2  399   0.454   1.085   0.025 -1.2256  0.2871 -0.2856
  134SOL     OW  400   2.782   1.226   0.452 -0.4462 -0.4914 -0.3577
  134SOL    HW1  401   2.688   1.245   0.490  0.0631  2.1846  1.7593
  134SOL    HW2  402   2.820   1.305   0.403 -2.0919 -1.2359 -0.8305
  135SOL     OW  403   2.773   0.969   0.342 -0.0790  0.0695 -0.1090
  135SOL    HW1  404   2.791   1.062   0.373  1.6123 -0.6307 -1.0389
  135SOL    HW2  405   2.682   0.936   0.376 -1.0852 -0.3214  1.7886
  136SOL     OW  406   1.828   1.660   1.228 -0.3469  0.2755 -0.1802
  136SOL    HW1  407   1.914   1.660   1.284 -1.5669 -0.2114  1.6133
  136SOL    HW2  408   1.806   1.565   1.199  0.8151  3.4110 -0.9305
  137SOL     OW  409   2.357   2.336   0.677  0.2740  0.0800 -0.1125
  137SOL    HW1  410   2.461   2.313   0.675  2.4415  1.1973 -0.6895
  137SOL    HW2  411   2.345   2.424   0.621  0.1712  2.1945 -3.0592
  138SOL     OW  412   1.964   0.106   1.858  0.0177 -0.7245 -0.2867
  138SOL    HW1  413   1.869   0.128   1.892 -1.2186  2.9013 -1.0438
  138SOL    HW2  414   2.031   0.176   1.887  3.3796  2.1800  0.5844
  139SOL     OW  415   2.589   0.184   0.044  0.1715 -0.2394 -0.0642
  139SOL    HW1  416   2.527   0.110   0.063 -1.8501  2.1395  1.4656
  139SOL    HW2  417   2.685   0.152   0.041 -1.0021  3.5827  2.6088
  140SOL     OW  418   1.207   1.678   2.506  0.0237 -0.6291 -0.3330
  140SOL    HW1  419   1.297   1.637   2.478 -0.4309  0.4098 -1.8006
  140SOL    HW2  420   1.126   1.630   2.468  1.3240 -0.4136  0.6037
  141SOL     OW  421   0.745   1.031   2.145 -0.1154  0.5974 -0.5494
  141SOL    HW1  422   0.697   0.974   2.215 -4.8557 -1.9299  1.0765
  141SOL    HW2  423   0.827   1.059   2.199  0.3969 -1.6360  0.9625
  142SOL     OW  424   1.963   2.647   3.073 -0.4688 -0.4403 -0.3835
  142SOL    HW1  425   2.025   2.677   2.995  1.7073 -0.3087  0.1828
  142SOL    HW2  426   2.019   2.602   0.048 -0.4593 -1.5314 -2.2473
  143SOL     OW  427   1.007   2.086   0.170  0.1351  0.6255 -0.0653
  143SOL    HW1  428   1.099   2.072   0.118  3.0259 -2.9406 -1.5462
  143SOL    HW2  429   0.944   2.007   0.145  1.3600  0.2125 -1.0012
  144SOL     OW  430   1.116   2.503   0.234  0.5786 -0.9020 -0.6239
  144SOL    HW1  431   1.084   2.419   0.284 -1.9540  1.0172  1.6069
  144SOL    HW2  432   1.216   2.499   0.218 -0.9927  0.0106 -1.2290
  145SOL     OW  433   2.087   1.806   2.457 -0.2406 -0.1440 -0.5694
  145SOL    HW1  434   2.140   1.867   2.399 -1.7960 -0.9834  0.7676
  145SOL    HW2  435   2.037   1.850   2.535  1.8089 -1.5410  1.3506
  146SOL     OW  436   2.466   2.674   2.885  0.3276 -0.1946  0.1385
  146SOL    HW1  437   2.527   2.734   2.831  0.4204 -1.8566 -0.6697
  146SOL    HW2  438   2.514   2.604   2.931 -2.0890  5.6512 -1.9493
  147SOL     OW  439   2.958   1.581   1.228  0.3083  0.5538 -0.3013
  147SOL    HW1  440   2.992   1.582   1.134 -1.0897  0.0838 -0.0674
  147SOL    HW2  441   2.902   1.504   1.250  0.5908  3.0468 -2.2833
  148SOL     OW  442   1.906   2.945   0.046 -0.0953  0.5232  0.0650
  148SOL    HW1  443   1.942   2.854   0.073  2.8749  2.4686  1.6514
  148SOL    HW2  444   1.903   2.950   3.040 -1.1726  1.2154 -0.7335
  149SOL     OW  445   0.652   1.698   2.715  0.4398 -0.0289 -0.6791
  149SOL    HW1  446   0.739   1.656   2.751  0.3933  0.6507  3.1342
  149SOL    HW2  447   0.593   1.712   2.794 -1.2307 -1.5816 -0.8932
  150SOL     OW  448   0.220   2.399   0.496  0.2204 -0.3362 -0.2286
  150SOL    HW1  449   0.212   2.325   0.428  0.7786  0.3168  1.6074
  150SOL    HW2  450   0.301   2.382   0.554 -1.7900 -1.5063  0.9095
  151SOL     OW  451   0.455   1.420   0.303 -0.2482  0.1662  0.8263
  151SOL    HW1  452   0.371   1.370   0.266  2.0662  2.8083  0.0189
  151SOL    HW2  453   0.484   1.487   0.234 -0.5157  1.8223  1.6155
  152SOL     OW  454   2.763   1.704   0.615 -0.0895  0.1991  0.1381
  152SOL    HW1  455   2.691   1.760   0.657  0.7435 -1.4248  1.9833
  152SOL    HW2  456   2.856   1.713   0.660  1.0100  0.0618  0.8361
  153SOL     OW  457   2.141   2.364   0.411 -0.2843  0.3559  0.2236
  153SOL    HW1  458   2.149   2.464   0.430  1.3602  1.1725 -0.5272
  153SOL    HW2  459   2.049   2.335   0.439  2.2044  1.0800  1.5942
  154SOL     OW  460   0.905   2.895   0.754 -0.1819 -0.7646 -0.2821
  154SOL    HW1  461   0.898   2.983   0.802  2.1966 -2.2597 -0.8532
  154SOL    HW2  462   0.820   2.876   0.703  1.5287  1.8293 -0.5974
  155SOL     OW  463   0.207   2.040   0.910  0.0136  0.2948  0.1444
  155SOL    HW1  464   0.136   2.029   0.978  1.9894  0.0647 -1.4377
  155SOL    HW2  465   0.164   2.042   0.818  1.4719  0.1356 -1.0271
  156SOL     OW  466   2.412   2.454   0.088 -0.1155  0.5007  0.1968
  156SOL    HW1  467   2.482   2.438   0.017  0.4643 -2.0460  1.1154
  156SOL    HW2  468   2.407   2.373   0.156 -3.5008 -2.1329  5.0610
  157SOL     OW  469   0.796   1.577   1.534 -0.4123 -0.2626 -0.2402
  157SOL    HW1  470   0.769   1.658   1.594  2.7101  0.0873  0.7241
  157SOL    HW2  471   0.752   1.593   1.444  0.3597 -0.0031 -2.3888
  158SOL     OW  472   1.613   0.615   0.183  0.1092 -0.2076  0.3046
  158SOL    HW1  473   1.622   0.547   0.104 -0.6572  1.2785 -3.0772
  158SOL    HW2  474   1.515   0.634   0.206 -1.0647  0.2383  1.2010
  159SOL     OW  475   1.197   0.975   2.981 -0.3565  0.1614 -0.5225
  159SOL    HW1  476   1.291   0.952   2.948  1.4495  0.2340  0.2554
  159SOL    HW2  477   1.206   1.060   3.034  0.5668  0.2883 -1.2872
  160SOL     OW  478   1.067   1.333   0.646  0.1074 -0.0156  0.1838
  160SOL    HW1  479   1.122   1.405   0.599  0.3492 -0.0033  0.9066
  160SOL    HW2  480   1.100   1.320   0.741  0.3124  1.6494 -2.2216
  161SOL     OW  481   0.017   2.370   2.843  0.0146 -0.4662 -0.3129
  161SOL    HW1  482   3.068   2.372   2.751 -0.8902  1.5014 -1.9480
  161SOL    HW2  483   0.093   2.298   2.839 -0.0177  1.8215  0.3183
  162SOL     OW  484   0.404   2.260   0.958  0.3995 -0.2907 -0.4087
  162SOL    HW1  485   0.349   2.186   0.915  1.1505  2.7063 -0.2065
  162SOL    HW2  486   0.403   2.241   1.055  0.3870 -1.1216 -1.0902
  163SOL     OW  487   0.018   0.859   2.911  0.2666  0.1065  0.3737
  163SOL    HW1  488   0.100   0.800   2.892 -0.2751  1.9654  1.7947
  163SOL    HW2  489   3.073   0.837   3.001 -2.2634  0.1759  1.7765
  164SOL     OW  490   0.562   3.005   2.784  0.1873 -0.3036 -0.1238
  164SOL    HW1  491   0.542   3.049   2.876  0.3620  1.7195  1.8454
  164SOL    HW2  492   0.611   3.070   2.723  0.1096  1.0945  0.6751
  165SOL     OW  493   2.211   0.260   1.943  0.2222 -0.0419 -0.1778
  165SOL    HW1  494   2.281   0.293   2.003 -0.8971 -2.5282 -2.5897
  165SOL    HW2  495   2.149   0.333   1.920  4.2035 -2.7531 -0.2610
  166SOL     OW  496   1.985   2.687   1.643  0.2388 -0.3835 -0.2791
  166SOL    HW1  497   2.026   2.597   1.649 -1.6643  0.9136  1.0150
  166SOL    HW2  498   2.039   2.762   1.683 -0.0714  0.1312  2.0007
  167SOL     OW  499   1.018   0.524   2.228 -0.2126  0.0026  0.5502
  167SOL    HW1  500   0.994   0.431   2.259 -0.2580 -0.0554  0.1614
  167SOL    HW2  501   1.107   0.553   2.261  0.5067  0.3401  1.1659
  168SOL     OW  502   2.548   0.001   2.032 -0.3200  0.2096  0.1923
  168SOL    HW1  503   2.592   0.085   2.068  2.0195  0.2200 -0.6157
  168SOL    HW2  504   2.568   3.020   2.094 -1.0951  0.6541 -1.5978
  169SOL     OW  505   0.014   1.195   0.289  0.0068 -0.0572  0.3276
  169SOL    HW1  506   3.052   1.280   0.300 -2.7246  4.2051 -1.4074
  169SOL    HW2  507   3.095   1.152   0.196 -0.9536 -1.3976 -1.7166
  170SOL     OW  508   0.169   1.680   1.693  0.1222  0.0541 -0.4168
  170SOL    HW1  509   0.145   1.655   1.598 -1.3966  4.4999  1.5276
  170SOL    HW2  510   0.243   1.628   1.736  2.2377  2.8439  2.6893
  171SOL     OW  511   0.959   2.341   2.342 -0.1688 -0.0046 -0.2668
  171SOL    HW1  512   0.908   2.353   2.428 -1.4621 -1.2693 -1.6552
  171SOL    HW2  513   1.048   2.296   2.346  0.5949  1.6703  2.0843
  172SOL     OW  514   0.648   2.743   2.039 -0.5071  0.5705  0.4871
  172SOL    HW1  515   0.684   2.732   2.135  0.7712 -0.8233 -3.1394
  172SOL    HW2  516   0.546   2.760   2.040 -0.7107 -0.6494 -2.3761
  173SOL     OW  517   1.280   2.522   0.889  0.5844  1.1589  0.5981
  173SOL    HW1  518   1.214   2.587   0.845  0.7839 -2.1378 -1.0784
  173SOL    HW2  519   1.312   2.566   0.974 -0.4249 -0.7850 -0.4904
  174SOL     OW  520   1.648   0.380   0.573  0.2374 -0.1873  0.1455
  174SOL    HW1  521   1.692   0.368   0.661 -1.2192  2.1681 -0.9240
  174SOL    HW2  522   1.635   0.288   0.528  1.4947  1.1245  0.8172
  175SOL     OW  523   1.401   1.390   0.412 -0.7841  0.8474 -0.3989
  175SOL    HW1  524   1.458   1.473   0.419 -0.2548  0.3857 -3.6870
  175SOL    HW2  525   1.302   1.409   0.428  0.1745 -0.1743 -0.6038
  176SOL     OW  526   1.492   1.292   0.650  0.2144  0.3732 -0.4302
  176SOL    HW1  527   1.451   1.348   0.576  1.0766 -2.7462  2.5726
  176SOL    HW2  528   1.521   1.199   0.614 -0.0617  1.0507 -2.4067
  177SOL     OW  529   1.261   0.714   1.418 -0.2550 -0.1107 -0.0891
  177SOL    HW1  530   1.201   0.725   1.499 -0.4421  1.7716  1.0108
  177SOL    HW2  531   1.331   0.794   1.404  0.4852  1.6751  0.4463
  178SOL     OW  532   2.636   1.563   0.060  0.2084 -0.0167  0.2345
  178SOL    HW1  533   2.610   1.550   0.157 -0.8148  2.8463  3.2493
  178SOL    HW2  534   2.695   1.485   0.028  0.7377 -1.1628 -2.2409
  179SOL     OW  535   0.562   2.429   0.198 -0.2470  0.3410  0.6441
  179SOL    HW1  536   0.591   2.339   0.157  0.7434 -1.3593  1.6485
  179SOL    HW2  537   0.646   2.488   0.209 -1.8852  0.5367  0.0297
  180SOL     OW  538   1.695   1.353   1.775 -0.1407 -0.4361  0.1436
  180SOL    HW1  539   1.746   1.443   1.765  2.7296  1.3037  0.3210
  180SOL    HW2  540   1.600   1.381   1.791  0.6233 -1.1727  1.2112
  181SOL     OW  541   0.990   1.105   2.261 -0.1513 -0.3454 -0.7310
  181SOL    HW1  542   1.033   1.140   2.175  1.5698  0.7586  0.6219
  181SOL    HW2  543   1.062   1.077   2.329 -0.2008  0.0359 -2.3385
  182SOL     OW  544   2.969   1.143   2.425 -0.2444  0.7144  0.5459
  182SOL    HW1  545   2.989   1.204   2.503 -1.9079 -0.2607 -1.2307
  182SOL    HW2  546   2.890   1.168   2.368  0.5010  0.8593  0.0684
  183SOL     OW  547   1.651   0.677   2.071  0.4990  0.3615 -0.2713
  183SOL    HW1  548   1.729   0.653   2.010 -2.0384  2.7831 -0.0181
  183SOL    HW2  549   1.631   0.607   2.147 -0.0149  0.2781 -0.2658
  184SOL     OW  550   0.223   0.635   1.745  0.1216 -0.3133 -0.2647
  184SOL    HW1  551   0.325   0.627   1.767  1.1795 -0.9878  2.3335
  184SOL    HW2  552   0.198   0.607   1.650  1.6812 -2.1771 -0.4831
  185SOL     OW  553   2.338   1.765   0.586  0.8198 -0.7366  0.5696
  185SOL    HW1  554   2.376   1.843   0.531 -0.2492  2.1011  0.0859
  185SOL    HW2  555   2.325   1.684   0.527 -1.6098 -0.1779  0.4313
  186SOL     OW  556   0.515   1.891   3.056  0.0439 -0.0283  0.4206
  186SOL    HW1  557   0.503   1.844   2.964  0.4147 -0.4245 -4.6042
  186SOL    HW2  558   0.590   1.955   3.043 -0.8696 -1.3509  0.8997
  187SOL     OW  559   2.400   1.869   2.820  0.0045  0.6880  0.0725
  187SOL    HW1  560   2.406   1.771   2.792  2.5378 -0.6726 -2.6009
  187SOL    HW2  561   2.480   1.893   2.875 -0.9708 -1.7856 -0.1305
  188SOL     OW  562   0.863   2.530   0.614  0.1082  0.5231  0.5803
  188SOL    HW1  563   0.845   2.544   0.713 -1.1562 -2.4811 -0.1762
  188SOL    HW2  564   0.785   2.568   0.559  0.4104  0.5463  1.0343
  189SOL     OW  565   2.218   0.804   2.586 -0.0228  1.0391 -0.6279
  189SOL    HW1  566   2.131   0.767   2.626  0.2576 -0.1857 -0.6093
  189SOL    HW2  567   2.199   0.867   2.514 -2.0686 -1.3916 -0.4351
  190SOL     OW  568   0.916   1.861   2.446  0.3238  0.2152 -0.6008
  190SOL    HW1  569   0.847   1.937   2.454  3.2091  0.2948  0.8660
  190SOL    HW2  570   1.007   1.897   2.475 -0.0474 -2.3715  0.0294
  191SOL     OW  571   2.323   0.790   1.559  0.6152  0.2435 -0.3406
  191SOL    HW1  572   2.406   0.820   1.617 -2.7401 -0.5127  1.7775
  191SOL    HW2  573   2.327   0.841   1.470 -0.0075 -0.8504 -0.9489
  192SOL     OW  574   2.180   0.391   2.322 -0.2300  0.7985 -0.5166
  192SOL    HW1  575   2.281   0.400   2.322 -0.1514  0.2295 -0.7621
  192SOL    HW2  576   2.151   0.292   2.308  0.7929 -0.1013 -0.1735
  193SOL     OW  577   0.486   0.274   0.761 -0.1794 -0.3808 -0.1729
  193SOL    HW1  578   0.396   0.265   0.716  3.4843  0.3979  0.7715
  193SOL    HW2  579   0.479   0.338   0.840  2.2884  3.2223  3.9035
  194SOL     OW  580   1.196   2.271   1.470 -0.0961 -0.0049  0.5409
  194SOL    HW1  581   1.217   2.362   1.428 -0.6892 -0.5215 -1.9095
  194SOL    HW2  582   1.280   2.211   1.466 -0.5297 -1.4973  1.1343
  195SOL     OW  583   2.650   0.605   0.772 -0.3078 -0.3047 -0.0650
  195SOL    HW1  584   2.580   0.534   0.738 -0.3618 -2.1388  0.7587
  195SOL    HW2  585   2.596   0.690   0.783  0.5895 -0.5018  0.2955
  196SOL     OW  586   1.070   1.783   1.674  0.4202  0.0049  0.2072
  196SOL    HW1  587   1.006   1.847   1.629 -0.2089 -0.5159  0.3927
  196SOL    HW2  588   1.055   1.785   1.776  0.5599  0.3640  0.3004
  197SOL     OW  589   0.383   0.615   2.513 -0.0938 -0.2262 -0.2083
  197SOL    HW1  590   0.339   0.694   2.565 -0.6372  4.1083  2.5977
  197SOL    HW2  591   0.336   0.599   2.422 -2.8124  2.1105 -1.7107
  198SOL     OW  592   1.433   1.185   0.899  0.4392 -0.1581 -0.5887
  198SOL    HW1  593   1.464   1.205   0.803  0.5582 -1.2818  1.7082
  198SOL    HW2  594   1.463   1.251   0.971 -0.8818  2.1714  1.5111
  199SOL     OW  595   2.408   0.360   2.102  0.0460 -0.4818  0.1828
  199SOL    HW1  596   2.413   0.446   2.155  0.5291 -0.8543  0.6182
  199SOL    HW2  597   2.495   0.343   2.050 -0.8605  3.8006 -1.0871
  200SOL     OW  598   2.261   2.406   2.309 -0.9203  0.6750 -0.1012
  200SOL    HW1  599   2.360   2.412   2.277 -0.1431  2.0482  0.7300
  200SOL    HW2  600   2.237   2.311   2.338 -4.7081 -3.9145 -0.9772
  201SOL     OW  601   2.049   0.248   1.610  0.2380  0.4148  0.3965
  201SOL    HW1  602   2.069   0.316   1.682  0.0236  0.2838 -3.4514
  201SOL    HW2  603   2.000   0.166   1.649  0.4627 -2.1787 -1.6103
  202SOL     OW  604   2.224   2.859   0.267  0.2293 -0.2286  0.4297
  202SOL    HW1  605   2.193   2.959   0.280 -0.5162  3.7876  2.4611
  202SOL    HW2  606   2.240   2.839   0.167 -0.8505  0.7598 -0.7995
  203SOL     OW  607   0.749   2.067   2.431  0.0266  0.0762  0.1156
  203SOL    HW1  608   0.790   2.150   2.390 -0.9145  1.9851  1.0926
  203SOL    HW2  609   0.686   2.097   2.499  0.4919  1.1731  0.1172
  204SOL     OW  610   1.044   1.347   2.710 -1.1362  0.0139 -0.0994
  204SOL    HW1  611   0.978   1.411   2.673  1.6582  0.2783  3.5375
  204SOL    HW2  612   1.004   1.274   2.764 -1.4785  3.0779 -0.3713
  205SOL     OW  613   0.985   0.988   1.509 -0.0594  0.7450 -0.4218
  205SOL    HW1  614   1.000   0.899   1.558 -2.1192  0.5792 -0.7091
  205SOL    HW2  615   1.058   0.997   1.439 -1.7781 -1.9429  0.2584
  206SOL     OW  616   0.576   0.483   2.813  0.3001  0.2618 -1.0894
  206SOL    HW1  617   0.570   0.499   2.711 -0.2301  0.5327  2.1237
  206SOL    HW2  618   0.624   0.393   2.828 -1.0820  0.6426  1.1975
  207SOL     OW  619   1.683   2.461   1.948 -0.2908  0.0015  0.0587
  207SOL    HW1  620   1.700   2.517   2.034 -0.8445  1.2876  0.9810
  207SOL    HW2  621   1.682   2.522   1.862  1.7472  1.6138 -3.5376
  208SOL     OW  622   0.924   2.577   1.063  0.2933  0.5805 -0.0964
  208SOL    HW1  623   0.893   2.670   1.044  4.1472  0.7318  0.1310
  208SOL    HW2  624   0.885   2.505   0.994  0.6049 -2.9528 -2.9328
  209SOL     OW  625   1.437   1.580   2.745 -0.0999 -0.1870 -0.2526
  209SOL    HW1  626   1.474   1.645   2.817  2.0351 -2.1457  1.8614
  209SOL    HW2  627   1.410   1.490   2.781  2.0721 -1.4703 -0.5017
  210SOL     OW  628   2.195   0.787   0.912 -0.4020  0.3511  0.5516
  210SOL    HW1  629   2.292   0.781   0.883  1.0414 -1.6241 -2.8136
  210SOL    HW2  630   2.156   0.852   0.841 -0.3703  1.6346 -3.5935
  211SOL     OW  631   1.078   2.634   0.472  0.5877  0.3033 -0.8319
  211SOL    HW1  632   1.107   2.598   0.381 -1.1610  1.7328  0.6582
  211SOL    HW2  633   1.004   2.572   0.513  1.1057 -3.6016 -1.4680
  212SOL     OW  634   2.218   1.990   0.094 -0.1248 -0.4204  0.4411
  212SOL    HW1  635   2.253   2.024   0.003 -1.2892 -0.3274  2.0189
  212SOL    HW2  636   2.293   1.992   0.165 -0.2818 -0.3957  0.8218
  213SOL     OW  637   1.781   0.431   2.979  0.8251 -0.4572  0.7288
  213SOL    HW1  638   1.863   0.365   2.978 -0.1043 -1.6959 -0.9823
  213SOL    HW2  639   1.711   0.408   2.907 -2.2456 -0.3865 -3.6540
  214SOL     OW  640   1.137   1.774   1.998  0.3027 -0.1716  0.5850
  214SOL    HW1  641   1.053   1.792   2.054  4.2230  0.1321 -0.0179
  214SOL    HW2  642   1.168   1.862   1.957  0.0556 -2.9220 -2.4049
  215SOL     OW  643   0.502   1.669   0.455 -0.1696  0.2354  0.3039
  215SOL    HW1  644   0.483   1.588   0.402 -0.5925  2.0632 -2.8193
  215SOL    HW2  645   0.417   1.724   0.469 -0.3173 -0.7209 -2.2454
  216SOL     OW  646   0.141   0.029   2.499  0.7791 -0.3247  0.3745
  216SOL    HW1  647   0.227   3.092   2.545  2.8971 -0.8459  3.2151
  216SOL    HW2  648   0.152   0.032   2.397 -0.7091 -1.0383 -0.7328
  217SOL     OW  649   2.439   0.707   1.056 -0.5216  0.7162 -0.5115
  217SOL    HW1  650   2.358   0.645   1.050  0.7222  0.5746  1.1379
  217SOL    HW2  651   2.525   0.653   1.073  0.1117 -0.8191  3.6369
  218SOL     OW  652   1.458   1.997   2.184  0.0033 -0.5272  0.0053
  218SOL    HW1  653   1.556   2.024   2.187  0.0588  0.6671 -1.5562
  218SOL    HW2  654   1.453   1.898   2.208 -0.3200  2.7639 -0.9130
  219SOL     OW  655   2.207   1.660   0.070  0.7358 -0.0148 -0.4405
  219SOL    HW1  656   2.276   1.612   0.012  0.9923 -1.3224 -1.3101
  219SOL    HW2  657   2.111   1.612   0.071 -4.1163 -2.6503 -2.1472
  220SOL     OW  658   2.206   0.960   0.442 -0.1485 -0.9859 -0.1769
  220SOL    HW1  659   2.200   0.864   0.411  0.1286  2.8722 -1.3499
  220SOL    HW2  660   2.213   1.017   0.361 -1.2580 -2.4950  0.3361
  221SOL     OW  661   0.291   0.767   3.040  0.1076 -0.0668 -0.5776
  221SOL    HW1  662   0.274   0.753   0.038 -1.5883  2.6354 -1.4599
  221SOL    HW2  663   0.333   0.681   2.991  1.6864 -3.7091  0.3322
  222SOL     OW  664   1.508   1.626   0.519  0.3251  0.1407 -0.1519
  222SOL    HW1  665   1.605   1.598   0.507 -1.5785  1.5987 -2.3956
  222SOL    HW2  666   1.502   1.719   0.552  3.7683  1.8195 -0.7040
  223SOL     OW  667   1.306   0.239   0.100  0.5348  0.0027 -0.9469
  223SOL    HW1  668   1.333   0.304   0.028 -0.3640 -0.0725 -0.7839
  223SOL    HW2  669   1.322   0.284   0.190  1.3182 -0.3043  1.8390
  224SOL     OW  670   1.934   3.055   1.285 -0.3673  0.5770 -0.1466
  224SOL    HW1  671   1.843   3.008   1.290  1.0444  2.4292 -1.1506
  224SOL    HW2  672   1.920   0.059   1.268 -2.0031  2.6423 -1.7213
  225SOL     OW  673   0.737   2.269   1.195  0.5659  0.2175  0.5970
  225SOL    HW1  674   0.804   2.262   1.271  0.2024 -0.9599 -0.8270
  225SOL    HW2  675   0.781   2.311   1.115 -0.8209 -1.1651  0.7773
  226SOL     OW  676   1.107   1.438   0.055  0.4486 -0.1271 -0.3594
  226SOL    HW1  677   1.152   1.511   0.004 -0.3463 -4.2796  0.0526
  226SOL    HW2  678   1.055   1.485   0.133 -0.1463  0.0398 -0.4432
  227SOL     OW  679   1.192   1.462   1.185 -0.4204 -0.1193 -0.2847
  227SOL    HW1  680   1.131   1.394   1.151  1.1599  0.7020 -1.0320
  227SOL    HW2  681   1.139   1.537   1.235 -3.7640  4.9032 -1.3218
  228SOL     OW  682   0.288   1.833   0.499 -0.0188  0.0867 -0.1526
  228SOL    HW1  683   0.243   1.764   0.563  1.1388 -1.9879  1.2498
  228SOL    HW2  684   0.230   1.911   0.465 -1.5573 -0.2873 -0.2017
  229SOL     OW  685   1.774   0.099   2.752 -0.4027 -0.4422 -0.1835
  229SOL    HW1  686   1.756   0.174   2.681 -1.5508  0.5891 -0.9479
  229SOL    HW2  687   1.688   0.077   2.801  0.4030 -0.1020  1.4076
  230SOL     OW  688   1.631   1.011   2.755  0.0024  0.7338 -0.4620
  230SOL    HW1  689   1.686   1.004   2.673 -1.2190  1.0954  3.4180
  230SOL    HW2  690   1.643   1.107   2.794  2.1352  2.1141 -0.8062
  231SOL     OW  691   0.947   1.601   2.393 -0.2942  0.8414 -0.2469
  231SOL    HW1  692   0.898   1.568   2.475  1.8091  1.4064  0.2875
  231SOL    HW2  693   0.914   1.693   2.374  3.0431  1.7056  2.7157
  232SOL     OW  694   2.407   2.326   0.318  0.1539  0.6034 -0.2013
  232SOL    HW1  695   2.312   2.335   0.354  1.7919 -0.7210 -0.2945
  232SOL    HW2  696   2.423   2.231   0.283 -1.0798 -0.5335  2.0828
  233SOL     OW  697   2.657   2.412   0.459 -0.6011  0.1176  0.7681
  233SOL    HW1  698   2.607   2.379   0.377 -1.1358  0.4845  0.8133
  233SOL    HW2  699   2.636   2.350   0.536  0.0806  1.4714 -0.9184
  234SOL     OW  700   0.661   0.729   2.917 -0.1580  0.3627  0.0567
  234SOL    HW1  701   0.599   0.648   2.912  0.4453  1.6567 -0.9873
  234SOL    HW2  702   0.758   0.697   2.898 -0.5146 -0.1071  1.1837
  235SOL     OW  703   2.783   0.252   2.722  0.6397 -0.4177  0.1406
  235SOL    HW1  704   2.797   0.170   2.782 -0.9891 -0.0054 -1.7046
  235SOL    HW2  705   2.770   0.233   2.625  0.0069  2.3732  3.1909
  236SOL     OW  706   1.856   2.361   1.339  0.2092  0.6997 -0.3036
  236SOL    HW1  707   1.773   2.339   1.393 -1.3798 -1.9640 -1.2324
  236SOL    HW2  708   1.942   2.357   1.390 -0.1967 -0.9052 -3.3011
  237SOL     OW  709   0.938   1.889   2.136 -0.0958 -0.0086 -0.0844
  237SOL    HW1  710   0.881   1.957   2.083  0.2112  0.0346 -1.9488
  237SOL    HW2  711   0.917   1.897   2.235  1.7202  1.3626  0.7399
  238SOL     OW  712   1.495   0.261   2.519  0.3698  0.4323 -0.4864
  238SOL    HW1  713   1.404   0.230   2.486  0.6088  1.3258 -0.7266
  238SOL    HW2  714   1.507   0.360   2.497  3.8029  1.7383  0.6449
  239SOL     OW  715   0.374   2.188   2.011 -0.3365  0.0270 -0.2313
  239SOL    HW1  716   0.420   2.248   2.077  1.0965  4.7899 -0.0334
  239SOL    HW2  717   0.380   2.224   1.916 -1.0008  0.1610 -0.0920
  240SOL     OW  718   2.398   2.561   0.520  0.0058  0.5115 -0.1486
  240SOL    HW1  719   2.361   2.610   0.438 -3.2865  0.9704 -0.8371
  240SOL    HW2  720   2.500   2.548   0.521  0.7023  1.7658 -1.5504
  241SOL     OW  721   2.461   0.804   0.811 -0.1853 -0.2851 -0.0221
  241SOL    HW1  722   2.462   0.773   0.910 -0.0989  1.1201 -0.3048
  241SOL    HW2  723   2.502   0.896   0.800  0.5897 -0.5476 -0.8283
  242SOL     OW  724   2.056   2.451   2.105  0.1161 -0.6733 -0.0448
  242SOL    HW1  725   2.022   2.362   2.138  3.9176  0.5229 -0.0327
  242SOL    HW2  726   2.137   2.480   2.155 -1.6068 -2.8205 -3.1259
  243SOL     OW  727   0.944   2.284   1.373 -0.0520  0.2347  0.4347
  243SOL    HW1  728   1.044   2.282   1.395  0.9736  0.3445 -0.9767
  243SOL    HW2  729   0.918   2.382   1.349  0.6172  1.5657 -0.3994
  244SOL     OW  730   1.956   0.227   2.944  0.5465  0.0789 -0.5508
  244SOL    HW1  731   1.886   0.181   2.883  1.6232 -0.1865 -0.2979
  244SOL    HW2  732   2.046   0.201   2.901  0.8770  2.2167 -0.4064
  245SOL     OW  733   1.340   0.049   1.345  0.1487 -0.0934  0.2225
  245SOL    HW1  734   1.341   0.106   1.260 -1.7238  1.1360 -0.5705
  245SOL    HW2  735   1.247   0.001   1.348 -1.0984 -1.7616  0.5481
  246SOL     OW  736   1.716   2.661   0.138  0.3345 -0.3156 -0.1382
  246SOL    HW1  737   1.795   2.661   0.074  0.8346 -0.4513 -2.0082
  246SOL    HW2  738   1.632   2.632   0.079 -1.9124 -1.2934 -1.0203
  247SOL     OW  739   1.288   0.575   2.333 -0.2209 -0.1108  0.1569
  247SOL    HW1  740   1.309   0.589   2.432  1.3107 -1.2175  0.0028
  247SOL    HW2  741   1.366   0.536   2.285 -1.3059  0.6807  0.7403
  248SOL     OW  742   0.739   1.824   1.684 -0.5308  0.2681 -0.2538
  248SOL    HW1  743   0.785   1.901   1.633  0.6898  0.2675  0.4818
  248SOL    HW2  744   0.645   1.845   1.714  0.9315 -1.8801  1.1150
  249SOL     OW  745   2.142   0.187   0.488 -0.4649 -0.5209  0.1075
  249SOL    HW1  746   2.138   0.289   0.479 -0.5348  2.4352 -2.2867
  249SOL    HW2  747   2.045   0.149   0.497 -1.2462 -1.0672  0.6118
  250SOL     OW  748   2.996   0.557   3.006  0.5472 -0.0724 -0.4316
  250SOL    HW1  749   2.944   0.489   3.061 -1.5062 -1.3125  1.4695
  250SOL    HW2  750   3.036   0.628   3.071 -2.2003  0.9369  0.1981
  251SOL     OW  751   1.435   0.641   3.070  0.6128 -0.0698  0.1206
  251SOL    HW1  752   1.379   0.674   0.050 -1.9649  1.1473  1.8045
  251SOL    HW2  753   1.471   0.716   3.007  1.3976  2.3739 -2.9591
  252SOL     OW  754   1.557   1.664   1.740 -0.5267  0.1954 -0.2668
  252SOL    HW1  755   1.499   1.741   1.718 -0.4097  0.5322  0.5783
  252SOL    HW2  756   1.507   1.574   1.740  1.6077 -1.8580 -1.3292
  253SOL     OW  757   2.517   2.179   1.056  0.4107  0.4916 -0.0595
  253SOL    HW1  758   2.612   2.213   1.044 -1.0236 -0.7889  1.1722
  253SOL    HW2  759   2.450   2.231   0.996 -1.5176  3.8816 -2.8858
  254SOL     OW  760   2.816   1.226   1.048 -0.3131 -0.1324  0.2802
  254SOL    HW1  761   2.883   1.203   1.125 -0.2768  1.3899 -0.5952
  254SOL    HW2  762   2.867   1.260   0.967 -0.6685 -1.8944  1.7791
  255SOL     OW  763   1.143   0.415   0.994 -0.1558 -0.0958 -0.3566
  255SOL    HW1  764   1.050   0.372   1.010 -1.7968  0.0975  0.0618
  255SOL    HW2  765   1.155   0.500   1.052 -2.0747  0.1107 -0.7131
  256SOL     OW  766   1.547   2.467   1.213  0.1069 -0.5552 -0.1377
  256SOL    HW1  767   1.571   2.421   1.296  1.7863  0.8862 -0.2254
  256SOL    HW2  768   1.544   2.404   1.133  1.8841 -0.7011  0.1142
  257SOL     OW  769   0.713   0.009   2.574 -0.1329  0.4703 -0.1010
  257SOL    HW1  770   0.816   3.086   2.601  2.6507 -1.0305  0.8158
  257SOL    HW2  771   0.684   3.044   2.500  0.4111 -0.2268  2.2098
  258SOL     OW  772   0.934   2.267   0.601  0.5222  0.8165  0.1498
  258SOL    HW1  773   0.888   2.356   0.597  0.5241 -2.0567  1.0342
  258SOL    HW2  774   0.905   2.215   0.684 -3.1177  2.1692  0.3878
  259SOL     OW  775   1.343   3.026   2.634 -0.4753  0.2449 -0.0228
  259SOL    HW1  776   1.291   3.026   2.720 -1.2114 -1.5497 -1.5301
  259SOL    HW2  777   1.349   2.932   2.596  0.3625  1.8799  0.2106
  260SOL     OW  778   2.238   0.538   1.398 -0.2458  0.0680  0.1812
  260SOL    HW1  779   2.141   0.558   1.430 -1.4331 -0.2851  0.3831
  260SOL    HW2  780   2.270   0.454   1.446  0.0454  1.7852 -0.4466
  261SOL     OW  781   0.651   0.523   2.527 -0.4250  0.0711 -0.2983
  261SOL    HW1  782   0.554   0.535   2.498  0.1744 -0.5032  1.8584
  261SOL    HW2  783   0.713   0.586   2.473  0.4054  1.0566  0.3374
  262SOL     OW  784   0.427   2.366   2.420 -0.0487  0.0970  0.0092
  262SOL    HW1  785   0.462   2.340   2.515 -0.6315  2.9178  2.7430
  262SOL    HW2  786   0.326   2.384   2.421 -0.0143  0.7983 -0.3758
  263SOL     OW  787   0.119   1.656   2.442  0.7061  0.5251 -0.1172
  263SOL    HW1  788   0.070   1.731   2.488 -0.0230 -4.7573 -3.6535
  263SOL    HW2  789   0.191   1.691   2.379 -0.4578  1.5660  0.9139
  264SOL     OW  790   1.169   1.232   0.873 -0.0352  0.4418 -0.9086
  264SOL    HW1  791   1.115   1.149   0.896 -0.4748  0.0978  1.2959
  264SOL    HW2  792   1.269   1.212   0.885  0.9045 -3.2552  1.4371
  265SOL     OW  793   1.364   2.671   0.464  0.5548  0.1569 -0.4927
  265SOL    HW1  794   1.268   2.645   0.473 -1.1803 -0.9655  1.8415
  265SOL    HW2  795   1.401   2.655   0.556 -2.2160 -1.5779 -3.9283
  266SOL     OW  796   1.706   0.989   1.411  0.0244  0.1733  0.4956
  266SOL    HW1  797   1.751   0.901   1.383 -2.7504 -0.2801  0.6697
  266SOL    HW2  798   1.770   1.059   1.441 -0.4077  0.7342  0.3103
  267SOL     OW  799   2.477   1.164   2.575  0.5174  0.1424 -0.0593
  267SOL    HW1  800   2.515   1.148   2.480 -0.4413 -0.5377 -0.0393
  267SOL    HW2  801   2.376   1.181   2.577 -0.0784 -3.8085  1.4055
  268SOL     OW  802   1.449   0.337   0.324  0.4497 -0.3110 -0.1647
  268SOL    HW1  803   1.463   0.275   0.405 -3.3193 -0.0853  0.4980
  268SOL    HW2  804   1.540   0.348   0.273  1.4980 -1.3159  1.0757
  269SOL     OW  805   2.963   0.734   2.720  0.2931 -0.0759  0.1497
  269SOL    HW1  806   3.032   0.712   2.648  0.4633  3.0161 -0.3952
  269SOL    HW2  807   3.017   0.770   2.800 -0.9515  0.2721 -0.5838
  270SOL     OW  808   0.169   1.437   3.056  0.4447 -0.1520 -0.5360
  270SOL    HW1  809   0.195   1.401   0.050 -0.7777  1.7945 -1.1805
  270SOL    HW2  810   0.219   1.382   2.987  1.2438  1.5772 -1.1175
  271SOL     OW  811   2.568   0.964   2.953 -0.2976 -0.2456  0.0079
  271SOL    HW1  812   2.510   0.962   2.872  0.5935 -0.3685  3.3229
  271SOL    HW2  813   2.622   0.878   2.959  0.4103 -3.9683  1.9450
  272SOL     OW  814   2.853   2.465   2.288  0.3441 -0.3175  0.5318
  272SOL    HW1  815   2.862   2.546   2.228  0.1881 -0.3024  2.5986
  272SOL    HW2  816   2.895   2.478   2.380  0.1900 -1.1020  1.5531
  273SOL     OW  817   0.018   0.076   0.057  0.0925 -0.0431 -0.0908
  273SOL    HW1  818   3.097   0.174   0.083  0.0981  0.6361  0.9301
  273SOL    HW2  819   0.058   0.019   0.135  0.9547 -1.4830  2.4216
  274SOL     OW  820   0.867   2.147   0.839 -0.4954 -0.1097 -0.6739
  274SOL    HW1  821   0.813   2.069   0.796 -0.2681 -1.9943 -0.9737
  274SOL    HW2  822   0.949   2.107   0.890 -1.8003 -0.5181  1.6064
  275SOL     OW  823   2.227   0.694   0.540  0.1656 -0.3735  0.3730
  275SOL    HW1  824   2.318   0.706   0.486  3.7467  0.6182  0.3446
  275SOL    HW2  825   2.232   0.739   0.630 -1.1766  0.0606  0.9567
  276SOL     OW  826   2.499   1.491   1.222 -0.1402  0.0767 -0.5812
  276SOL    HW1  827   2.406   1.481   1.257  2.3734  1.3104 -1.0172
  276SOL    HW2  828   2.530   1.590   1.243 -0.4807  0.8750  0.9378
  277SOL     OW  829   2.412   0.053   0.818 -0.2679 -0.4036  0.2372
  277SOL    HW1  830   2.443   3.054   0.836 -2.4068 -2.4573  1.6590
  277SOL    HW2  831   2.429   0.116   0.898  0.5399  1.3913 -0.7470
  278SOL     OW  832   1.505   2.795   2.303 -0.6400  0.4372 -0.2406
  278SOL    HW1  833   1.442   2.714   2.309 -0.8691 -0.6377 -1.1473
  278SOL    HW2  834   1.553   2.810   2.392 -0.1035  2.3194  2.1212
  279SOL     OW  835   1.353   2.194   0.955  0.0752 -0.2552 -0.3445
  279SOL    HW1  836   1.283   2.242   1.019 -2.8182  0.7273  0.1384
  279SOL    HW2  837   1.384   2.258   0.881 -1.5077 -2.5516  2.1398
  280SOL     OW  838   0.401   0.994   1.053  0.0409 -0.3163  0.1768
  280SOL    HW1  839   0.370   1.069   0.990 -1.0245 -0.6422 -0.8059
  280SOL    HW2  840   0.434   1.029   1.142  1.2698  0.4204 -0.8471
  281SOL     OW  841   2.467   1.340   2.767  0.0300  0.1642 -0.1005
  281SOL    HW1  842   2.481   1.290   2.681  1.1502  1.1113  3.2406
  281SOL    HW2  843   2.480   1.439   2.758  1.7229 -0.0914 -1.7288
  282SOL     OW  844   0.261   1.269   0.202  0.1967 -0.2167  0.4933
  282SOL    HW1  845   0.176   1.250   0.253  1.8262  2.3980 -0.1052
  282SOL    HW2  846   0.287   1.203   0.126  0.1705 -0.3674 -0.4736
  283SOL     OW  847   1.802   2.591   2.857  0.4855 -0.2494 -0.6542
  283SOL    HW1  848   1.863   2.617   2.934  2.4164  1.4471  0.7919
  283SOL    HW2  849   1.845   2.535   2.782  0.9723 -0.2868 -3.0487
  284SOL     OW  850   1.050   0.135   0.762  0.3329  0.2919 -0.3967
  284SOL    HW1  851   1.006   0.178   0.681  2.2402 -1.6539 -1.0011
  284SOL    HW2  852   1.140   0.099   0.739 -3.1682 -1.0468 -0.6030
  285SOL     OW  853   2.179   1.174   2.531 -0.1915 -0.0449  0.0798
  285SOL    HW1  854   2.169   1.272   2.509  2.9748 -0.0202  1.4733
  285SOL    HW2  855   2.106   1.147   2.593 -0.1432 -0.2158  1.3786
  286SOL     OW  856   1.715   2.737   1.026 -0.0620 -0.6879  0.4013
  286SOL    HW1  857   1.746   2.803   0.953 -2.4313  0.0772  1.8734
  286SOL    HW2  858   1.671   2.651   0.985 -0.9001 -1.1044  2.0289
  287SOL     OW  859   1.260   0.559   0.803  0.5168 -0.2523  0.0462
  287SOL    HW1  860   1.228   0.492   0.870  1.7823  1.6158 -3.8246
  287SOL    HW2  861   1.248   0.651   0.831  0.5522 -3.0495 -0.3154
  288SOL     OW  862   0.769   2.806   2.692 -0.4763 -0.7018  0.5509
  288SOL    HW1  863   0.816   2.882   2.744  0.6494 -1.0318 -0.1305
  288SOL    HW2  864   0.672   2.831   2.666 -1.4418  3.4238 -1.6529
  289SOL     OW  865   0.116   1.560   0.906 -0.1260 -0.3336  0.2503
  289SOL    HW1  866   0.147   1.482   0.958  2.8009  0.6104  1.3660
  289SOL    HW2  867   0.017   1.571   0.912  2.2366 -1.2395 -1.3431
  290SOL     OW  868   1.301   2.044   0.659  0.4441  0.3220  0.3185
  290SOL    HW1  869   1.267   2.036   0.756  0.6768 -1.1126  0.8518
  290SOL    HW2  870   1.320   2.142   0.635  0.3613  0.6587  1.1587
  291SOL     OW  871   1.627   2.951   0.051  0.4243 -0.5799 -0.0838
  291SOL    HW1  872   1.599   3.036   0.003 -1.9015 -1.8933 -0.6284
  291SOL    HW2  873   1.730   2.943   0.048 -1.3820  1.4424  0.9696
  292SOL     OW  874   0.371   0.483   2.168 -0.1723  0.1692  0.0808
  292SOL    HW1  875   0.365   0.412   2.239  2.3058  1.5687  1.2167
  292SOL    HW2  876   0.337   0.569   2.202 -1.3249 -3.4032 -2.1182
  293SOL     OW  877   2.706   1.734   0.978 -0.0719  0.2407  0.0966
  293SOL    HW1  878   2.645   1.732   0.893 -0.3488  0.2913 -1.2747
  293SOL    HW2  879   2.659   1.719   1.065  1.7053  1.0410  0.4242
  294SOL     OW  880   0.781   0.100   2.261  0.1595 -0.0541  0.1417
  294SOL    HW1  881   0.680   0.097   2.283  1.5478 -1.5219  1.4982
  294SOL    HW2  882   0.834   0.025   2.301  0.8177  0.7388  3.1013
  295SOL     OW  883   1.303   1.756   1.181  0.1328  0.5683  0.7640
  295SOL    HW1  884   1.257   1.664   1.174 -1.8601  2.3969  0.2301
  295SOL    HW2  885   1.241   1.836   1.192  1.5444 -1.2287 -2.5846
  296SOL     OW  886   2.435   2.055   0.229  0.0866 -0.4977  0.6024
  296SOL    HW1  887   2.453   1.953   0.226  1.7583 -0.3867  1.4552
  296SOL    HW2  888   2.502   2.105   0.177 -1.4989 -1.6480  1.1055
  297SOL     OW  889   2.425   3.062   0.097 -0.0131 -0.0728 -0.4993
  297SOL    HW1  890   2.361   3.069   0.173  0.9800 -0.6115  1.5728
  297SOL    HW2  891   2.476   2.973   0.102 -2.8053 -0.2607  1.6552
  298SOL     OW  892   1.042   0.415   2.890 -0.1579 -0.3038  0.1669
  298SOL    HW1  893   1.057   0.386   2.794 -2.9537  2.8114 -1.0385
  298SOL    HW2  894   0.982   0.494   2.893  4.1413 -4.7943  0.0591
  299SOL     OW  895   0.598   2.564   2.522  0.3090  0.0531 -0.3455
  299SOL    HW1  896   0.520   2.506   2.483 -1.2481  0.3921  1.7550
  299SOL    HW2  897   0.561   2.615   2.601  2.4882 -1.8504 -2.9240
  300SOL     OW  898   2.808   3.070   2.259 -0.2813 -0.5110 -0.0546
  300SOL    HW1  899   2.729   3.012   2.228  0.3385  0.4191  2.6548
  300SOL    HW2  900   2.795   0.063   2.217  0.2977 -1.6782 -0.2521
  301SOL     OW  901   1.332   0.288   1.733 -0.3627 -0.1999  0.4542
  301SOL    HW1  902   1.378   0.341   1.811  0.8382 -0.7235 -0.6445
  301SOL    HW2  903   1.375   0.305   1.644 -0.3951  1.7634  0.7459
  302SOL     OW  904   0.034   2.342   0.021  0.0388  0.2841 -0.6038
  302SOL    HW1  905   0.129   2.349   0.065  1.9691  0.9766  2.3579
  302SOL    HW2  906   0.037   2.378   3.022 -1.3147  2.8118 -2.1457
  303SOL     OW  907   2.033   2.040   1.534 -0.0330  0.2419  0.2755
  303SOL    HW1  908   1.929   2.034   1.535 -3.0699  1.7963 -1.0312
  303SOL    HW2  909   2.063   2.131   1.500  2.0112 -1.7470 -2.5245
  304SOL     OW  910   2.777   0.949   1.465 -0.1895  0.4891 -0.2046
  304SOL    HW1  911   2.807   0.917   1.375  1.4895  1.0853  2.0867
  304SOL    HW2  912   2.861   0.955   1.528 -0.2461 -1.7020 -0.0035
  305SOL     OW  913   0.515   1.592   0.852 -0.7150 -0.0877  0.0247
  305SOL    HW1  914   0.600   1.636   0.881 -1.2850  3.0240  1.0312
  305SOL    HW2  915   0.439   1.633   0.901  3.3327 -0.9140  2.4685
  306SOL     OW  916   0.568   1.561   2.485 -0.2773  0.0234  0.6913
  306SOL    HW1  917   0.595   1.624   2.561 -1.3489  2.1446  1.1517
  306SOL    HW2  918   0.490   1.507   2.506  2.7792  1.7515 -1.2773
  307SOL     OW  919   1.010   0.119   1.430  0.3286  0.5149  0.1195
  307SOL    HW1  920   1.064   0.129   1.514  2.6958 -2.3726  0.4025
  307SOL    HW2  921   1.061   0.054   1.368  0.2116  1.3243  1.4325
  308SOL     OW  922   0.152   0.871   1.109 -0.1402 -0.4099  0.9575
  308SOL    HW1  923   0.090   0.887   1.029 -0.6625  0.2929 -1.6692
  308SOL    HW2  924   0.244   0.920   1.096  2.1325 -0.9243 -0.3524
  309SOL     OW  925   2.554   1.204   0.943 -0.6020 -0.3865  0.1494
  309SOL    HW1  926   2.529   1.304   0.926 -0.6588  2.6516 -0.1633
  309SOL    HW2  927   2.641   1.190   0.996 -1.3869  0.5325 -1.4050
  310SOL     OW  928   0.388   2.054   2.681  0.5096  0.5958  0.3405
  310SOL    HW1  929   0.457   2.123   2.655 -3.1758 -1.4149  1.5283
  310SOL    HW2  930   0.346   2.011   2.599 -0.2227  0.6099  1.1108
  311SOL     OW  931   2.523   2.433   2.267  0.0197 -0.3606  0.0368
  311SOL    HW1  932   2.590   2.474   2.207 -2.6802 -1.6946 -1.2518
  311SOL    HW2  933   2.557   2.441   2.364  0.3220 -0.9643 -0.6837
  312SOL     OW  934   2.178   1.994   2.891 -0.2244  0.4385  0.5862
  312SOL    HW1  935   2.184   2.093   2.875 -2.4808 -3.1449  3.3717
  312SOL    HW2  936   2.266   1.949   2.862 -1.6179  1.1367 -1.6694
  313SOL     OW  937   0.271   3.046   0.660 -0.3699 -0.0205  0.0470
  313SOL    HW1  938   0.211   3.097   0.594  1.4579 -0.0104  2.6949
  313SOL    HW2  939   0.344   2.988   0.618  2.6138  0.8427  1.8181
  314SOL     OW  940   1.984   1.125   2.718  0.0768 -0.0117  0.1342
  314SOL    HW1  941   1.977   1.043   2.779 -0.9518 -5.1136  1.6556
  314SOL    HW2  942   1.982   1.209   2.779 -2.6205  0.4692  2.2080
  315SOL     OW  943   1.321   0.088   2.230  0.3870  0.0085 -0.0246
  315SOL    HW1  944   1.416   0.116   2.250 -4.2870 -0.0657  0.3519
  315SOL    HW2  945   1.304   3.081   2.219  0.8540 -0.2294  3.7191
  316SOL     OW  946   2.948   1.076   0.605 -0.0679 -0.1714  0.1667
  316SOL    HW1  947   2.911   0.982   0.622 -0.9605 -1.2022  0.7517
  316SOL    HW2  948   2.889   1.138   0.551 -1.4736  2.3182 -2.1102
  317SOL     OW  949   0.571   2.763   2.955 -0.1577 -0.0721  0.1286
  317SOL    HW1  950   0.667   2.782   2.940 -3.7428 -3.4030  1.8646
  317SOL    HW2  951   0.516   2.850   2.969 -0.7471  1.0687  0.1697
  318SOL     OW  952   2.483   2.555   1.029 -0.1562  0.0452 -0.0235
  318SOL    HW1  953   2.442   2.565   0.938  2.1713 -1.8751  1.4698
  318SOL    HW2  954   2.432   2.613   1.091 -0.3737 -2.6737 -2.7279
  319SOL     OW  955   1.189   1.935   2.912 -0.0015  0.3483 -0.0018
  319SOL    HW1  956   1.123   1.983   2.850  0.6228 -4.3605  0.8909
  319SOL    HW2  957   1.196   1.836   2.885 -0.4849 -2.8388  3.6964
  320SOL     OW  958   0.540   1.934   1.297  0.0310 -0.2196  0.1987
  320SOL    HW1  959   0.458   1.872   1.298  1.1156  1.9212  0.5879
  320SOL    HW2  960   0.556   1.963   1.399  2.0048 -0.1408  2.0364
  321SOL     OW  961   1.138   2.658   2.110 -0.4499 -0.2273 -0.3510
  321SOL    HW1  962   1.115   2.737   2.050  0.5657 -0.7448  1.5295
  321SOL    HW2  963   1.151   2.570   2.061  0.3392  5.3600  0.3808
  322SOL     OW  964   2.465   1.832   1.918  0.3359 -0.4592  0.0817
  322SOL    HW1  965   2.521   1.787   1.990 -1.7059 -0.3420  0.0747
  322SOL    HW2  966   2.455   1.933   1.933  0.6941 -0.1487 -2.9526
  323SOL     OW  967   2.881   0.501   0.964  0.0735  0.2323  0.1434
  323SOL    HW1  968   2.851   0.574   0.902 -1.9414  1.6962  1.1516
  323SOL    HW2  969   2.983   0.508   0.987  2.7012  1.8735  0.8360
  324SOL     OW  970   2.658   2.715   2.531 -0.9414  0.3939  0.2149
  324SOL    HW1  971   2.685   2.742   2.625  0.5916 -0.0828  2.0462
  324SOL    HW2  972   2.729   2.749   2.465 -2.3605 -1.6740  0.3059
  325SOL     OW  973   1.073   0.319   2.625 -0.4422  0.1752 -0.0889
  325SOL    HW1  974   1.132   0.258   2.570 -4.3414  0.2546  0.3229
  325SOL    HW2  975   0.976   0.295   2.606 -0.2258 -0.4095  0.4041
  326SOL     OW  976   2.145   2.408   1.712  0.2167  0.1180  0.1641
  326SOL    HW1  977   2.187   2.488   1.754 -1.4868 -0.8839 -0.3148
  326SOL    HW2  978   2.064   2.376   1.768 -0.1358 -1.5682  0.5771
  327SOL     OW  979   2.355   2.983   2.911  0.3843 -0.0535 -0.2020
  327SOL    HW1  980   2.354   3.081   2.930 -0.1893  0.8640  2.2693
  327SOL    HW2  981   2.324   2.927   2.994 -0.0348 -0.3745  0.7226
  328SOL     OW  982   0.125   1.368   1.899  0.9473  0.7687 -0.2623
  328SOL    HW1  983   0.160   1.443   1.957  1.9220 -1.8063  0.2199
  328SOL    HW2  984   0.019   1.371   1.887 -2.5918  2.5351 -0.1832
  329SOL     OW  985   2.059   0.461   1.788  0.1448  0.0094 -0.1269
  329SOL    HW1  986   1.975   0.508   1.821  1.3173  1.3483 -0.5384
  329SOL    HW2  987   2.121   0.526   1.747 -2.3831 -2.7077  2.0351
  330SOL     OW  988   0.072   1.185   0.866  0.1526  0.2152  0.0383
  330SOL    HW1  989   0.038   1.087   0.880 -2.1540  0.6051 -0.2859
  330SOL    HW2  990   0.083   1.236   0.956  0.6612  0.1404 -0.1659
  331SOL     OW  991   0.234   1.563   2.073 -0.0895  0.3227 -0.4457
  331SOL    HW1  992   0.169   1.636   2.106  2.2944  0.3598 -3.0717
  331SOL    HW2  993   0.288   1.523   2.148  0.2027  0.3525  1.6323
  332SOL     OW  994   0.179   2.535   1.591 -0.0366  0.0503 -0.3838
  332SOL    HW1  995   0.271   2.515   1.552  1.9385  0.6250  0.0719
  332SOL    HW2  996   0.104   2.524   1.526  1.6766 -3.1873  2.4781
  333SOL     OW  997   2.514   0.206   1.031  0.0043 -0.0073  0.4518
  333SOL    HW1  998   2.608   0.240   1.030 -0.8245 -0.9886  2.3881
  333SOL    HW2  999   2.512   0.117   1.077  2.0028  0.0957  1.8607
  334SOL     OW 1000   0.167   1.653   0.654 -0.7793  0.1102 -0.4710
  334SOL    HW1 1001   0.169   1.572   0.590  0.3181  0.6104 -2.7662
  334SOL    HW2 1002   0.159   1.622   0.753  0.7404 -0.8712  0.6214
  335SOL     OW 1003   0.061   2.640   2.802  0.0644 -0.4038  0.0520
  335SOL    HW1 1004   0.057   2.541   2.812 -1.5741  2.0475  0.2314
  335SOL    HW2 1005   0.143   2.675   2.752 -0.2857  0.6632  1.2858
  336SOL     OW 1006   2.860   2.818   2.380  0.1087 -0.5912  0.2336
  336SOL    HW1 1007   2.943   2.812   2.444  0.4701 -1.3825 -2.5626
  336SOL    HW2 1008   2.847   2.917   2.358  2.3224  3.3769  3.7181
  337SOL     OW 1009   1.942   2.312   1.839 -0.0054  0.1251  0.1332
  337SOL    HW1 1010   1.923   2.232   1.780 -0.3229 -2.7337  0.1645
  337SOL    HW2 1011   1.857   2.347   1.877  0.4897 -2.7698 -0.9118
  338SOL     OW 1012   0.819   0.076   2.976  0.6346 -0.6354  0.3816
  338SOL    HW1 1013   0.794   0.074   3.077 -0.2162  0.7701  2.4006
  338SOL    HW2 1014   0.916   0.114   2.964  1.2757 -1.8132  2.4320
  339SOL     OW 1015   0.427   1.329   2.197 -0.7951 -0.0111  0.0040
  339SOL    HW1 1016   0.495   1.349   2.273  2.0215  3.5952  1.9456
  339SOL    HW2 1017   0.467   1.255   2.135  0.7014  2.8555 -0.7071
  340SOL     OW 1018   1.794   2.931   0.851  0.6861  0.5842  0.4903
  340SOL    HW1 1019   1.887   2.966   0.870  1.3186 -0.5338 -1.5905
  340SOL    HW2 1020   1.736   3.005   0.815  2.1814  0.4363 -0.9512
  341SOL     OW 1021   1.941   1.151   0.955  0.0637 -0.0665 -0.0473
  341SOL    HW1 1022   1.962   1.056   0.987 -0.5871 -0.0159 -3.3834
  341SOL    HW2 1023   1.995   1.215   1.005 -2.5468  1.6921 -0.9378
  342SOL     OW 1024   2.592   2.818   0.100 -0.1179 -0.0414 -0.4214
  342SOL    HW1 1025   2.588   2.725   0.145 -1.4255  0.8108  0.7768
  342SOL    HW2 1026   2.690   2.848   0.085 -2.2480 -0.2353 -0.4936
  343SOL     OW 1027   1.046   2.194   1.689  0.6631  0.1917  0.3103
  343SOL    HW1 1028   1.021   2.278   1.745  1.2770 -0.3520 -0.2118
  343SOL    HW2 1029   1.103   2.214   1.603 -0.1273  0.3394  2.9696
  344SOL     OW 1030   2.523   2.613   1.443  0.3432 -0.0001  0.3771
  344SOL    HW1 1031   2.565   2.698   1.483  0.7469  1.2836 -0.8135
  344SOL    HW2 1032   2.592   2.537   1.437  3.1862 -1.2143 -0.8940
  345SOL     OW 1033   2.621   1.951   2.928 -0.3265  0.1255  0.3646
  345SOL    HW1 1034   2.682   1.936   2.845  0.0013 -0.1315  0.2177
  345SOL    HW2 1035   2.646   1.904   3.018 -1.1816 -2.2428  3.2986
  346SOL     OW 1036   2.191   2.149   0.613  0.1819 -0.2121  0.9357
  346SOL    HW1 1037   2.237   2.238   0.637  2.4947  0.0664  0.6097
  346SOL    HW2 1038   2.145   2.124   0.706 -1.5530 -0.4639  2.4846
  347SOL     OW 1039   1.488   1.943   0.981  0.0731 -0.4711 -0.4622
  347SOL    HW1 1040   1.432   2.023   0.958 -2.1327 -2.7381 -1.0321
  347SOL    HW2 1041   1.438   1.874   1.033 -0.9677  1.1540 -0.7568
  348SOL     OW 1042   0.649   1.917   2.209 -0.6345  0.5454 -0.1995
  348SOL    HW1 1043   0.685   1.822   2.203  0.8168 -1.3073  0.6179
  348SOL    HW2 1044   0.684   1.967   2.287 -1.3781  1.7914  0.6926
  349SOL     OW 1045   2.013   1.631   0.465  0.5723 -0.5970 -0.2925
  349SOL    HW1 1046   2.080   1.559   0.488 -0.5017  0.3583  1.7473
  349SOL    HW2 1047   2.031   1.690   0.385 -0.9463 -1.2616  0.7707
  350SOL     OW 1048   2.842   2.484   0.641  0.1182  0.2422 -0.1076
  350SOL    HW1 1049   2.802   2.493   0.735 -0.8138 -1.5211 -1.7838
  350SOL    HW2 1050   2.774   2.449   0.568 -1.6546  1.0160  1.1897
  351SOL     OW 1051   0.360   2.936   1.538 -0.1172  0.2634 -0.2671
  351SOL    HW1 1052   0.456   2.899   1.513  3.6020 -2.1569 -2.0647
  351SOL    HW2 1053   0.292   2.919   1.465  1.8173 -2.5623  2.3446
  352SOL     OW 1054   0.491   1.458   1.213 -0.2804  0.1926 -0.6493
  352SOL    HW1 1055   0.401   1.422   1.244 -0.1584 -0.5667  0.6033
  352SOL    HW2 1056   0.524   1.406   1.132 -1.4248 -0.2477 -0.0463
  353SOL     OW 1057   1.262   1.206   2.631 -0.8931  0.5991  0.1494
  353SOL    HW1 1058   1.185   1.267   2.659  1.0586 -2.4593 -0.6491
  353SOL    HW2 1059   1.338   1.213   2.701 -0.1665  2.2822 -2.2090
  354SOL     OW 1060   1.445   3.081   1.620  0.0582 -0.1268  0.0327
  354SOL    HW1 1061   1.387   0.028   1.545 -2.8494  1.6800  0.8053
  354SOL    HW2 1062   1.400   3.087   1.713  1.5631  0.2361  0.5786
  355SOL     OW 1063   2.499   1.219   0.485  0.1680  0.0469 -0.0516
  355SOL    HW1 1064   2.424   1.267   0.535  1.3408  0.7955  0.5522
  355SOL    HW2 1065   2.495   1.242   0.390  2.0457 -1.9007  1.1227
  356SOL     OW 1066   2.869   1.553   1.639  0.1408 -0.2479  0.3663
  356SOL    HW1 1067   2.795   1.622   1.623 -0.0247 -1.4841 -2.2726
  356SOL    HW2 1068   2.924   1.571   1.721  1.8103  0.2123  1.3982
  357SOL     OW 1069   0.606   2.571   1.355 -0.3893 -0.2292 -0.0412
  357SOL    HW1 1070   0.511   2.536   1.334 -1.1060 -1.2735  2.0354
  357SOL    HW2 1071   0.610   2.670   1.316 -2.4446  3.0983 -1.1718
  358SOL     OW 1072   2.660   1.187   1.700  0.3153  0.0160 -0.1031
  358SOL    HW1 1073   2.701   1.185   1.607  0.4997 -3.1445 -0.4928
  358SOL    HW2 1074   2.557   1.172   1.692 -1.1134 -0.1356 -2.2594
  359SOL     OW 1075   2.242   2.840   2.409  0.0639  0.0978  0.3435
  359SOL    HW1 1076   2.213   2.746   2.441  2.6336 -2.6937  1.0768
  359SOL    HW2 1077   2.228   2.908   2.486 -0.8192  3.5207  2.6679
  360SOL     OW 1078   0.748   0.431   0.985 -0.1456  0.6250 -0.0290
  360SOL    HW1 1079   0.772   0.500   0.908 -0.6301  0.2713 -3.7079
  360SOL    HW2 1080   0.646   0.432   0.987 -1.3592 -2.9822 -2.2364
  361SOL     OW 1081   1.936   0.190   0.916  0.2800 -0.3813  0.4222
  361SOL    HW1 1082   1.964   0.096   0.925 -0.3318  2.3306  0.4537
  361SOL    HW2 1083   2.011   0.244   0.872 -0.2880 -2.8939  1.5135
  362SOL     OW 1084   1.711   1.060   1.067 -0.7626 -0.1490  0.1413
  362SOL    HW1 1085   1.756   0.999   1.137  0.5033  0.1856 -0.7404
  362SOL    HW2 1086   1.780   1.099   1.009 -2.0886 -1.3992  0.6364
  363SOL     OW 1087   2.247   1.459   2.147  0.3773  0.0921  0.3198
  363SOL    HW1 1088   2.350   1.450   2.128 -0.7160 -1.1176 -1.0433
  363SOL    HW2 1089   2.191   1.386   2.103 -0.4697 -0.2257  1.3051
  364SOL     OW 1090   0.357   3.041   1.177 -0.3560  0.0659  0.0050
  364SOL    HW1 1091   0.292   2.998   1.238  3.1778 -0.7648 -1.4402
  364SOL    HW2 1092   0.323   3.031   1.083  0.2961 -0.9729  0.4232
  365SOL     OW 1093   0.485   0.136   2.955 -0.0334  1.1167 -0.5756
  365SOL    HW1 1094   0.396   0.166   2.925  3.5696  0.2495  0.6509
  365SOL    HW2 1095   0.558   0.184   2.902  1.9577  1.8650  2.5523
  366SOL     OW 1096   2.035   2.260   0.133 -0.3114 -0.0013 -0.4028
  366SOL    HW1 1097   2.068   2.164   0.154  3.2711 -3.6601  0.1958
  366SOL    HW2 1098   2.084   2.333   0.181  0.0785  2.0705 -0.4969
  367SOL     OW 1099   2.581   2.443   2.986  0.0732  0.4851 -0.6071
  367SOL    HW1 1100   2.551   2.354   2.941  2.1461 -2.0291 -0.4888
  367SOL    HW2 1101   2.683   2.448   2.990 -1.3427 -2.2643  1.0149
  368SOL     OW 1102   0.068   1.333   1.099 -0.1612  0.0216 -0.4818
  368SOL    HW1 1103   3.085   1.273   1.133 -0.3459 -4.0532  0.8361
  368SOL    HW2 1104   0.120   1.368   1.184 -2.2974 -0.7242  2.6328
  369SOL     OW 1105   0.900   2.941   2.897 -0.3556  0.4118 -0.2547
  369SOL    HW1 1106   0.881   2.864   2.967 -2.8031 -1.6569  0.1238
  369SOL    HW2 1107   0.860   3.031   2.931 -1.5135 -2.3935  0.3434
  370SOL     OW 1108   2.863   0.687   0.306 -0.0338 -0.0129 -0.1032
  370SOL    HW1 1109   2.959   0.681   0.340 -1.3337  0.8313  0.6983
  370SOL    HW2 1110   2.829   0.779   0.336 -1.3587 -0.4391  1.9901
  371SOL     OW 1111   1.621   2.515   0.866  0.1326  0.0961  0.2685
  371SOL    HW1 1112   1.713   2.469   0.850  4.2421  2.5175  0.4064
  371SOL    HW2 1113   1.552   2.453   0.818  1.1593 -0.6051 -2.8746
  372SOL     OW 1114   3.088   1.141   2.810  0.3099 -0.4209 -0.3025
  372SOL    HW1 1115   3.090   1.042   2.811  0.5854  0.5734  1.6601
  372SOL    HW2 1116   0.071   1.183   2.766 -1.6983 -3.0438  1.5719
  373SOL     OW 1117   2.811   1.793   1.317  0.1968  0.0855 -0.1660
  373SOL    HW1 1118   2.881   1.725   1.283  2.0588 -0.7078 -1.4124
  373SOL    HW2 1119   2.724   1.782   1.268 -0.9658  1.0697  3.3106
  374SOL     OW 1120   0.484   2.826   0.204  0.5720  0.1847 -0.1050
  374SOL    HW1 1121   0.449   2.871   0.118  1.4265 -1.7138  1.9395
  374SOL    HW2 1122   0.556   2.758   0.186 -1.6454  2.8116 -0.7063
  375SOL     OW 1123   0.542   0.177   0.132  0.2481  0.1797 -0.2613
  375SOL    HW1 1124   0.475   0.152   0.209  2.9545 -0.6120  0.5997
  375SOL    HW2 1125   0.511   0.177   0.041  4.0678  0.7869  2.4381
  376SOL     OW 1126   0.289   2.189   1.536 -0.3742  0.2507  0.0630
  376SOL    HW1 1127   0.213   2.122   1.542  0.4952 -1.0727 -2.2241
  376SOL    HW2 1128   0.261   2.259   1.466  0.8594  1.9603  0.3431
  377SOL     OW 1129   1.921   2.399   2.690  0.2610 -0.4653 -0.3978
  377SOL    HW1 1130   1.892   2.338   2.615  1.6962  0.2982  2.6542
  377SOL    HW2 1131   1.959   2.342   2.768  0.7138  0.3314  2.5362
  378SOL     OW 1132   0.644   0.609   0.299  0.8728  0.7088  0.3324
  378SOL    HW1 1133   0.716   0.640   0.364 -1.6002  0.4699 -2.2412
  378SOL    HW2 1134   0.665   0.516   0.262 -1.5641 -0.1288 -1.5348
  379SOL     OW 1135   0.393   1.190   0.547  0.1911 -0.4865  0.1231
  379SOL    HW1 1136   0.447   1.177   0.460 -0.3258 -0.9106 -0.2685
  379SOL    HW2 1137   0.426   1.271   0.596  0.2215  0.3122 -3.2266
  380SOL     OW 1138   0.051   1.909   1.811  0.2905 -0.0136  0.0308
  380SOL    HW1 1139   0.063   1.813   1.774  0.7457 -1.2039 -0.8301
  380SOL    HW2 1140   0.099   1.920   1.901 -4.5939  1.0250 -0.3432
  381SOL     OW 1141   0.515   1.127   2.038 -0.6220  0.2163 -0.2056
  381SOL    HW1 1142   0.604   1.081   2.071  1.2528 -2.2140 -1.6437
  381SOL    HW2 1143   0.532   1.159   1.942 -0.9967  0.8623  2.1764
  382SOL     OW 1144   2.409   2.017   0.482 -0.5066 -0.6769  0.0023
  382SOL    HW1 1145   2.331   2.071   0.522  0.6717  0.4167 -0.1156
  382SOL    HW2 1146   2.424   2.049   0.387  0.1704 -1.4139 -0.8075
  383SOL     OW 1147   2.787   1.996   2.677  0.5170 -0.0512  0.1777
  383SOL    HW1 1148   2.889   1.979   2.704 -1.0224 -1.2768  2.8170
  383SOL    HW2 1149   2.775   2.091   2.641 -0.5795 -0.4699  0.4709
  384SOL     OW 1150   0.623   2.210   2.634  0.9703 -0.3522  0.1257
  384SOL    HW1 1151   0.679   2.295   2.642 -1.0171 -0.8949  1.0985
  384SOL    HW2 1152   0.661   2.127   2.678 -0.3113  1.0317 -0.0109
  385SOL     OW 1153   2.940   1.561   0.929 -0.0566 -0.0769  0.5129
  385SOL    HW1 1154   2.850   1.583   0.957  0.6094  0.8719 -0.7065
  385SOL    HW2 1155   2.937   1.477   0.873  0.9515  2.1241  2.6353
  386SOL     OW 1156   2.071   1.334   1.115 -0.3776 -0.0807 -0.1825
  386SOL    HW1 1157   1.979   1.353   1.148  2.2336 -1.3541 -3.3307
  386SOL    HW2 1158   2.094   1.397   1.037 -0.1486 -1.3549  2.4637
  387SOL     OW 1159   2.897   1.108   2.073  0.0322  0.1993 -0.2332
  387SOL    HW1 1160   2.820   1.054   2.023 -3.8613 -5.0254  0.7741
  387SOL    HW2 1161   2.893   1.207   2.056 -1.9332 -1.6113  2.6882
  388SOL     OW 1162   2.508   1.348   2.126 -0.4308 -0.2322  0.4195
  388SOL    HW1 1163   2.587   1.339   2.195 -2.3268 -0.8660 -1.3377
  388SOL    HW2 1164   2.537   1.400   2.042 -4.1238  0.4158 -0.5693
  389SOL     OW 1165   2.061   1.300   2.044 -0.2539 -0.1386 -0.2445
  389SOL    HW1 1166   1.964   1.315   2.078  0.5721 -0.5585 -0.8128
  389SOL    HW2 1167   2.064   1.214   1.989 -0.4926  0.1365 -0.1188
  390SOL     OW 1168   2.005   2.659   0.623  0.5482 -0.4510  0.2858
  390SOL    HW1 1169   1.916   2.711   0.595 -0.6926  1.1855  0.9984
  390SOL    HW2 1170   1.980   2.573   0.670  0.8486 -3.3829  2.0347
  391SOL     OW 1171   2.457   1.906   1.013 -0.3159 -0.2108  0.0520
  391SOL    HW1 1172   2.365   1.867   0.998 -0.9670 -0.7355 -2.9421
  391SOL    HW2 1173   2.453   2.007   1.025  1.2136  1.4049 -0.6114
  392SOL     OW 1174   0.055   2.702   1.192 -0.2764 -0.4778  0.2090
  392SOL    HW1 1175   0.025   2.604   1.199 -0.9041  0.8201 -1.5007
  392SOL    HW2 1176   3.074   2.765   1.160  2.5519  1.1515 -1.5069
  393SOL     OW 1177   1.985   1.927   2.673 -0.5288 -0.2034  0.2121
  393SOL    HW1 1178   2.010   1.969   2.756 -1.3103  1.5869 -4.1488
  393SOL    HW2 1179   1.920   1.853   2.688  3.7232  2.1271 -0.2418
  394SOL     OW 1180   0.186   0.347   2.687 -0.2166  0.1700  0.0003
  394SOL    HW1 1181   0.088   0.358   2.725 -1.0588 -0.5336  1.5566
  394SOL    HW2 1182   0.229   0.435   2.674 -2.6366  1.5358  2.6707
  395SOL     OW 1183   0.666   0.803   0.835 -0.1632 -0.0605  0.2584
  395SOL    HW1 1184   0.696   0.709   0.808 -2.5274 -0.3056 -0.9623
  395SOL    HW2 1185   0.742   0.872   0.816 -0.0098 -0.4721  1.3746
  396SOL     OW 1186   1.158   0.881   0.479 -0.4432 -0.3468  0.3887
  396SOL    HW1 1187   1.078   0.946   0.489 -3.2306  0.9208  1.1754
  396SOL    HW2 1188   1.127   0.802   0.424 -0.9609  2.0697 -2.0376
  397SOL     OW 1189   0.336   0.974   2.160  0.5853  0.2326  0.0979
  397SOL    HW1 1190   0.404   1.026   2.100 -1.8321 -0.5496 -2.5194
  397SOL    HW2 1191   0.241   0.994   2.128  1.8668 -1.4981 -2.8492
  398SOL     OW 1192   0.943   0.030   0.337 -0.8805  0.0063  0.0066
  398SOL    HW1 1193   0.976   3.049   0.390 -0.8378 -0.9640 -2.0054
  398SOL    HW2 1194   1.009   0.047   0.258  2.6346 -1.5126  0.2635
  399SOL     OW 1195   1.971   2.979   1.691 -0.8468 -0.1970  0.0408
  399SOL    HW1 1196   1.952   3.049   1.766  3.7867 -0.1753  0.6559
  399SOL    HW2 1197   1.889   2.963   1.633  0.8574 -1.5946  2.3547
  400SOL     OW 1198   0.839   1.673   1.905  0.2520 -0.6755 -0.0380
  400SOL    HW1 1199   0.864   1.733   1.986 -1.7946  1.0656  1.8749
  400SOL    HW2 1200   0.792   1.725   1.828 -0.3846 -0.0818  0.2496
  401SOL     OW 1201   0.590   0.967   2.755 -0.3849 -0.1742 -0.0109
  401SOL    HW1 1202   0.632   0.883   2.781 -1.8267  1.2934  1.0703
  401SOL    HW2 1203   0.492   0.970   2.794 -0.0472  2.1177 -3.0433
  402SOL     OW 1204   2.899   2.058   1.359  0.1414 -0.5782  0.2353
  402SOL    HW1 1205   2.826   2.104   1.415  3.3995  1.8082  1.8153
  402SOL    HW2 1206   2.875   1.961   1.349 -0.3995  2.1112 -0.9285
  403SOL     OW 1207   0.042   0.999   2.047 -0.4351  0.2728 -0.5451
  403SOL    HW1 1208   3.048   1.044   2.063 -1.5512 -1.7349  2.6548
  403SOL    HW2 1209   0.069   0.996   1.950  1.6710 -2.5653  1.3071
  404SOL     OW 1210   0.012   2.822   1.786 -0.4432  0.3563 -0.0730
  404SOL    HW1 1211   0.088   2.771   1.836  1.9455 -2.2405  1.8616
  404SOL    HW2 1212   3.063   2.761   1.715 -0.5105  0.4656 -0.3235
  405SOL     OW 1213   0.475   0.391   1.947  0.1125 -0.4145  0.2297
  405SOL    HW1 1214   0.418   0.314   1.913  1.1505 -2.0323 -0.5173
  405SOL    HW2 1215   0.424   0.440   2.022 -2.7274 -1.3871 -0.2558
  406SOL     OW 1216   1.629   2.071   2.614 -0.0567 -0.6166 -0.4553
  406SOL    HW1 1217   1.696   2.144   2.592  1.7915  0.5122 -0.0653
  406SOL    HW2 1218   1.650   1.982   2.565  0.1649  1.2380 -1.4939
  407SOL     OW 1219   1.463   1.292   2.415  0.0262 -0.2216 -0.0138
  407SOL    HW1 1220   1.404   1.307   2.329 -0.7082 -2.1144  0.1961
  407SOL    HW2 1221   1.405   1.248   2.487  2.3573 -3.6767  0.7555
  408SOL     OW 1222   1.021   0.262   2.287 -0.3030 -0.4989 -0.3895
  408SOL    HW1 1223   0.933   0.212   2.263 -2.6894 -2.4829 -0.9104
  408SOL    HW2 1224   1.067   0.228   2.373  4.0263  0.5750  3.5591
  409SOL     OW 1225   0.384   1.971   0.163  0.5136 -0.6160 -0.3770
  409SOL    HW1 1226   0.429   1.928   0.080 -1.2072  0.5180 -2.8450
  409SOL    HW2 1227   0.426   1.931   0.249  1.9742 -0.6262 -2.6129
  410SOL     OW 1228   2.918   1.391   0.260  0.0430  0.5289 -0.1194
  410SOL    HW1 1229   2.984   1.466   0.256 -0.6384  1.5244  0.4849
  410SOL    HW2 1230   2.878   1.363   0.168 -3.5376 -1.8701 -1.4023
  411SOL     OW 1231   2.786   0.240   0.988 -0.3682  0.4278 -0.2476
  411SOL    HW1 1232   2.816   0.338   0.978 -1.3802  0.7391  0.3914
  411SOL    HW2 1233   2.844   0.180   0.929  0.3099 -0.3036 -0.8199
  412SOL     OW 1234   1.417   0.902   1.306  0.0726 -0.2302  0.3860
  412SOL    HW1 1235   1.431   0.890   1.205  0.0318 -0.7165 -2.7800
  412SOL    HW2 1236   1.478   0.974   1.342 -1.3138 -0.3474  1.2570
  413SOL     OW 1237   0.885   2.543   1.324  0.0287 -0.0739 -0.1619
  413SOL    HW1 1238   0.902   2.573   1.227  0.9326  0.8027 -1.1695
  413SOL    HW2 1239   0.784   2.538   1.344  0.5013  2.8817  0.1655
  414SOL     OW 1240   2.738   1.633   2.636  0.4117  0.2814  0.2114
  414SOL    HW1 1241   2.771   1.696   2.563  1.8325  2.2981  0.3449
  414SOL    HW2 1242   2.795   1.638   2.715  0.3385  0.5986 -1.8680
  415SOL     OW 1243   0.387   2.366   2.935  0.3315 -0.2940  0.0849
  415SOL    HW1 1244   0.338   2.279   2.913  1.1252  1.0541 -2.9940
  415SOL    HW2 1245   0.367   2.402   3.031 -3.9225  2.4621  0.6604
  416SOL     OW 1246   1.768   0.044   0.293  0.5340 -0.0586 -0.6455
  416SOL    HW1 1247   1.818   3.064   0.329 -0.1814  3.9967  2.3780
  416SOL    HW2 1248   1.815   0.080   0.210 -3.1452  0.6584 -0.2332
  417SOL     OW 1249   0.484   0.711   1.034  0.3250  0.1646  0.2574
  417SOL    HW1 1250   0.440   0.803   1.039  0.4538  2.0672 -0.7523
  417SOL    HW2 1251   0.574   0.721   0.987  0.8163  1.1604  0.0269
  418SOL     OW 1252   2.534   0.569   1.573  0.5850 -0.3791 -0.3201
  418SOL    HW1 1253   2.585   0.657   1.590 -0.9247 -2.2075 -2.0688
  418SOL    HW2 1254   2.439   0.604   1.540 -1.2232 -0.7125 -2.6875
  419SOL     OW 1255   0.064   0.096   0.531 -0.0303  0.5671 -0.3958
  419SOL    HW1 1256   3.081   0.157   0.549 -0.0436 -3.2387  4.3155
  419SOL    HW2 1257   0.022   0.004   0.510 -2.0102 -0.8138 -0.1179
  420SOL     OW 1258   0.248   1.366   1.297  0.5641  0.0951 -0.2926
  420SOL    HW1 1259   0.231   1.418   1.389  2.0290  0.8198  3.2453
  420SOL    HW2 1260   0.239   1.267   1.324 -3.0489 -0.4001 -0.5290
  421SOL     OW 1261   1.145   2.762   0.711 -0.0503 -0.7419  0.1489
  421SOL    HW1 1262   1.054   2.794   0.746 -1.1777  0.8500  2.3285
  421SOL    HW2 1263   1.140   2.707   0.628  1.0199  1.6263  2.2974
  422SOL     OW 1264   0.151   0.567   1.469  0.5644  0.5058  0.0787
  422SOL    HW1 1265   0.061   0.600   1.431  3.4808  0.5974 -0.3469
  422SOL    HW2 1266   0.229   0.589   1.412 -3.7153  0.0730 -1.6104
  423SOL     OW 1267   1.142   1.038   1.308 -0.1459 -0.1771 -0.1379
  423SOL    HW1 1268   1.225   0.999   1.269 -0.0606 -2.1357  2.0746
  423SOL    HW2 1269   1.062   1.041   1.243 -1.0524 -2.1146 -0.4325
  424SOL     OW 1270   1.986   1.326   2.909  0.3438  0.1880  0.7941
  424SOL    HW1 1271   2.066   1.360   2.965  1.6284 -0.5654 -5.0559
  424SOL    HW2 1272   1.935   1.399   2.857 -0.3487  1.3633 -1.3223
  425SOL     OW 1273   2.981   0.583   2.045  0.4269 -0.2928  0.1103
  425SOL    HW1 1274   3.041   0.662   2.087  3.5901  4.8263 -0.4575
  425SOL    HW2 1275   2.948   0.521   2.118 -1.6622 -0.9266 -3.2463
  426SOL     OW 1276   0.095   2.773   3.058 -0.2869  0.3460 -0.2615
  426SOL    HW1 1277   0.044   2.718   2.984 -2.0312 -3.3395 -2.5211
  426SOL    HW2 1278   0.105   2.709   0.042  1.9404  0.1179 -1.7010
  427SOL     OW 1279   0.927   0.987   2.594 -0.4122 -0.1869 -0.1897
  427SOL    HW1 1280   0.981   0.979   2.508  0.4969 -0.9922  1.7431
  427SOL    HW2 1281   0.983   1.030   2.667 -0.0983 -0.8476 -1.1898
  428SOL     OW 1282   2.392   1.186   1.661 -0.2318 -0.1360  0.3456
  428SOL    HW1 1283   2.431   1.139   1.575  1.0071  0.1641 -2.3195
  428SOL    HW2 1284   2.347   1.277   1.647  0.9468  0.4505  1.6390
  429SOL     OW 1285   2.386   2.656   0.775  0.2494  0.2068 -0.7092
  429SOL    HW1 1286   2.404   2.653   0.673 -2.7372 -1.7892  0.9362
  429SOL    HW2 1287   2.296   2.692   0.802 -1.5162 -0.2690 -1.5835
  430SOL     OW 1288   1.143   1.400   2.411  0.5402 -0.4076  0.3036
  430SOL    HW1 1289   1.093   1.349   2.487  1.8556 -2.1203 -0.0345
  430SOL    HW2 1290   1.083   1.476   2.378  0.2115  2.3872 -1.2057
  431SOL     OW 1291   2.821   1.322   1.481 -0.0128 -0.5317 -0.0604
  431SOL    HW1 1292   2.786   1.341   1.389  1.5006 -0.1499  1.7708
  431SOL    HW2 1293   2.841   1.411   1.525  0.1131 -2.8735  0.3580
  432SOL     OW 1294   1.204   2.919   2.273 -0.0515 -0.5987 -0.1897
  432SOL    HW1 1295   1.213   2.847   2.199 -0.1092  0.4138 -0.3872
  432SOL    HW2 1296   1.241   2.895   2.366  1.2873 -1.6102  0.7699
  433SOL     OW 1297   1.858   0.209   2.300 -0.1019  0.2009  0.0578
  433SOL    HW1 1298   1.945   0.160   2.319  0.7046  2.1559  0.3174
  433SOL    HW2 1299   1.868   0.250   2.205 -0.9694  3.5606 -2.4054
  434SOL     OW 1300   0.320   2.774   2.273 -0.0805 -0.1107  0.0175
  434SOL    HW1 1301   0.232   2.734   2.295 -2.4678  2.3038  0.2389
  434SOL    HW2 1302   0.350   2.752   2.176 -0.2762  0.1981  0.0222
  435SOL     OW 1303   3.035   2.537   0.353  0.4855 -0.9633  0.6225
  435SOL    HW1 1304   3.066   2.591   0.432 -1.1935  0.1162 -2.8083
  435SOL    HW2 1305   2.935   2.558   0.319 -2.4677 -1.3050  0.9928
  436SOL     OW 1306   0.755   0.417   1.926 -0.3674  0.6771  0.3318
  436SOL    HW1 1307   0.653   0.408   1.941 -2.2305  0.7831 -0.9526
  436SOL    HW2 1308   0.781   0.514   1.923  1.1587 -0.4676  1.0166
  437SOL     OW 1309   0.388   3.010   2.583 -0.0689  0.5533  0.1629
  437SOL    HW1 1310   0.436   2.985   2.498 -0.1563 -0.5730  2.9614
  437SOL    HW2 1311   0.449   3.006   2.666  1.6684  0.8679  2.2360
  438SOL     OW 1312   0.592   1.239   1.789  0.3416 -0.0059 -0.0078
  438SOL    HW1 1313   0.678   1.218   1.738  1.0949  1.7528  1.3288
  438SOL    HW2 1314   0.599   1.335   1.834 -3.6351  2.4389  0.2443
  439SOL     OW 1315   2.241   1.006   2.342  0.1274  0.2005  0.0400
  439SOL    HW1 1316   2.268   1.059   2.259  2.6302  0.4424 -1.2314
  439SOL    HW2 1317   2.226   1.067   2.425  0.4749  0.3008  1.3521
  440SOL     OW 1318   0.192   0.864   0.207  0.0838 -0.2463 -0.2974
  440SOL    HW1 1319   0.292   0.835   0.198  2.6454 -1.0960 -0.5209
  440SOL    HW2 1320   0.184   0.930   0.289  1.9990  2.3004  0.6859
  441SOL     OW 1321   1.140   2.307   1.088 -0.3352 -0.2310 -0.0548
  441SOL    HW1 1322   1.157   2.350   1.178 -0.6632 -2.0619 -1.0231
  441SOL    HW2 1323   1.095   2.374   1.021  0.7770  0.3030 -1.4998
  442SOL     OW 1324   2.625   1.410   0.728 -0.9072  0.2698 -0.2922
  442SOL    HW1 1325   2.544   1.434   0.781  2.3978  0.9395 -1.7160
  442SOL    HW2 1326   2.645   1.461   0.646  0.3921 -1.8902 -0.9423
  443SOL     OW 1327   2.757   1.997   2.262  0.4539 -0.0357 -0.1268
  443SOL    HW1 1328   2.670   2.049   2.245  3.1730  0.6798  1.6550
  443SOL    HW2 1329   2.807   1.981   2.176  0.4064  1.2329 -1.4233
  444SOL     OW 1330   1.638   1.309   0.026  0.1404  0.1726  0.6624
  444SOL    HW1 1331   1.738   1.295   0.036  0.9635  0.1617  1.4257
  444SOL    HW2 1332   1.589   1.253   0.096  1.1486 -0.2259 -3.0374
  445SOL     OW 1333   2.611   2.624   2.062  0.1370  0.4585  0.3619
  445SOL    HW1 1334   2.582   2.628   1.965  0.6722 -0.7531  0.5088
  445SOL    HW2 1335   2.709   2.606   2.071 -1.2913 -0.1141  0.7423
  446SOL     OW 1336   0.233   1.104   1.380  0.6185  0.4871  0.1018
  446SOL    HW1 1337   0.245   1.065   1.475 -2.4657  1.5205  1.0607
  446SOL    HW2 1338   0.156   1.062   1.330  0.0947 -1.9617  0.3477
  447SOL     OW 1339   1.011   1.716   0.817  0.1081  0.2639  0.5326
  447SOL    HW1 1340   1.006   1.642   0.889  0.7311  0.5756 -0.9533
  447SOL    HW2 1341   0.922   1.728   0.774 -0.2744 -0.0216  1.5984
  448SOL     OW 1342   1.277   1.100   1.670  0.1736  0.0644  0.4075
  448SOL    HW1 1343   1.296   1.119   1.767  1.3861 -0.6026  1.2787
  448SOL    HW2 1344   1.202   1.032   1.668 -0.7436  0.8001  1.4284
  449SOL     OW 1345   0.069   2.156   2.253 -0.2331  0.4326 -0.0260
  449SOL    HW1 1346   0.077   2.252   2.217  2.1178  0.1600 -0.6930
  449SOL    HW2 1347   0.077   2.083   2.181 -0.5990  2.0458 -0.6108
  450SOL     OW 1348   2.888   1.968   1.684  0.2999 -0.5535  0.1578
  450SOL    HW1 1349   2.914   2.036   1.608  1.0788  4.0360 -1.6483
  450SOL    HW2 1350   2.968   1.927   1.725  0.9663 -2.2227 -2.0690
  451SOL     OW 1351   2.316   0.864   1.294 -0.2751  0.9161  0.1528
  451SOL    HW1 1352   2.219   0.841   1.307  0.7414 -0.8012  1.0020
  451SOL    HW2 1353   2.366   0.790   1.242  1.3600 -0.3295 -2.9710
  452SOL     OW 1354   0.498   1.339   0.958 -0.1885  0.3796  0.4323
  452SOL    HW1 1355   0.468   1.268   0.895  0.1286 -1.0870 -0.4921
  452SOL    HW2 1356   0.485   1.429   0.916 -0.4796 -1.5348  2.5064
  453SOL     OW 1357   0.695   1.773   0.987  0.5555 -0.3664  0.3876
  453SOL    HW1 1358   0.704   1.865   1.032 -0.2383  0.0584  0.3158
  453SOL    HW2 1359   0.776   1.710   1.006  2.1789  0.7195 -1.1565
  454SOL     OW 1360   0.549   1.605   0.079 -0.0450 -0.5247 -0.2991
  454SOL    HW1 1361   0.510   1.701   0.056 -1.3914  1.1606 -1.5956
  454SOL    HW2 1362   0.537   1.537   0.002  0.4185  3.9204 -0.7818
  455SOL     OW 1363   1.830   0.990   0.687 -0.0763  0.3153  0.2819
  455SOL    HW1 1364   1.820   0.923   0.760  1.4161 -2.5633 -0.9135
  455SOL    HW2 1365   1.738   1.011   0.653  1.4955 -2.2517  0.3213
  456SOL     OW 1366   2.048   2.588   0.975 -0.1995 -0.1121 -0.0617
  456SOL    HW1 1367   2.086   2.670   0.925  2.4656  1.6234 -3.5198
  456SOL    HW2 1368   2.083   2.581   1.069 -0.5729  0.8621 -2.2674
  457SOL     OW 1369   1.993   2.814   2.668 -0.0822  0.3250  0.2668
  457SOL    HW1 1370   1.937   2.854   2.742 -1.6120  3.3469  1.1115
  457SOL    HW2 1371   1.937   2.786   2.587 -0.4400  1.3503 -0.9841
  458SOL     OW 1372   2.082   0.461   0.518  0.2659  0.1575  0.2092
  458SOL    HW1 1373   2.138   0.542   0.530  1.4345 -0.9793  0.7203
  458SOL    HW2 1374   1.998   0.478   0.466 -1.9144 -1.6348  1.1017
  459SOL     OW 1375   0.075   1.011   2.319 -0.2993 -0.3984 -0.2339
  459SOL    HW1 1376   0.002   1.057   2.373 -0.1469  0.1132 -2.5978
  459SOL    HW2 1377   0.059   1.020   2.218  1.5876 -1.1160 -0.5404
  460SOL     OW 1378   0.519   0.826   0.198  0.1312  0.0204  0.0194
  460SOL    HW1 1379   0.548   0.848   0.102  0.4440  1.5641 -0.7244
  460SOL    HW2 1380   0.574   0.745   0.237  1.1567 -1.3370  1.1793
  461SOL     OW 1381   2.728   2.462   0.891 -0.0364  0.3772  0.6729
  461SOL    HW1 1382   2.632   2.491   0.900  2.1947  0.0679 -0.9316
  461SOL    HW2 1383   2.762   2.404   0.969  1.2728  1.7988 -0.6334
  462SOL     OW 1384   0.285   0.222   1.833  0.0926 -0.4297 -0.7336
  462SOL    HW1 1385   0.208   0.287   1.850  0.7344  2.1768 -1.1427
  462SOL    HW2 1386   0.280   0.192   1.739 -1.3596 -1.1216  1.7610
  463SOL     OW 1387   1.941   2.167   2.065 -0.2141 -0.3236  0.1520
  463SOL    HW1 1388   2.025   2.152   2.120 -1.4727  0.3700 -1.5643
  463SOL    HW2 1389   1.965   2.204   1.975  0.4173 -3.2827  3.2103
  464SOL     OW 1390   0.377   0.115   1.556 -0.4616  0.3558 -0.1198
  464SOL    HW1 1391   0.479   0.138   1.557  0.5333 -1.4540 -1.6577
  464SOL    HW2 1392   0.360   0.016   1.555  1.2572 -0.8085  0.9349
  465SOL     OW 1393   0.735   0.035   1.393 -1.1655  0.0979 -0.2819
  465SOL    HW1 1394   0.840   0.040   1.388  1.7526  0.0704  2.3057
  465SOL    HW2 1395   0.698   0.105   1.462 -0.1867 -1.2776  1.9725
  466SOL     OW 1396   1.359   1.866   1.649 -0.2327 -0.0816  0.0207
  466SOL    HW1 1397   1.366   1.815   1.561 -0.3467  1.6083  3.9175
  466SOL    HW2 1398   1.264   1.854   1.684 -2.2865 -0.4842  0.0228
  467SOL     OW 1399   0.175   1.815   1.351  0.4256  0.0787 -0.1415
  467SOL    HW1 1400   0.110   1.747   1.390  2.0702  1.4767  1.4803
  467SOL    HW2 1401   0.262   1.773   1.317  0.9995 -1.2254 -0.3771
  468SOL     OW 1402   2.543   1.929   2.548 -0.4005 -0.0657  0.2412
  468SOL    HW1 1403   2.642   1.946   2.572  1.6530 -1.7413  2.1489
  468SOL    HW2 1404   2.489   1.936   2.630  2.3966  0.7167 -0.9155
  469SOL     OW 1405   1.323   2.304   0.509 -0.7741 -0.5756  0.0824
  469SOL    HW1 1406   1.395   2.292   0.435 -0.2571  2.0961 -0.6513
  469SOL    HW2 1407   1.231   2.286   0.473  1.2581  0.3394  0.6581
  470SOL     OW 1408   2.147   1.523   0.936 -0.3387 -0.8242 -0.0575
  470SOL    HW1 1409   2.179   1.588   1.007 -0.5265  0.4672 -2.0614
  470SOL    HW2 1410   2.064   1.566   0.890 -2.5470  1.6598 -0.5957
  471SOL     OW 1411   0.299   2.433   0.119 -0.3894  0.0243 -0.1543
  471SOL    HW1 1412   0.250   2.522   0.130  0.6276  1.2583 -0.5260
  471SOL    HW2 1413   0.399   2.442   0.150  3.2178  1.0243  1.2946
  472SOL     OW 1414   2.764   2.065   1.968  0.1302 -0.1958 -0.2452
  472SOL    HW1 1415   2.785   2.046   1.868  1.5318 -1.6692 -3.5745
  472SOL    HW2 1416   2.669   2.102   1.978 -1.4305 -0.7910 -1.1667
  473SOL     OW 1417   1.367   2.916   0.797 -0.4294  0.1887  0.6874
  473SOL    HW1 1418   1.356   3.018   0.786 -0.6550  2.8957 -1.5209
  473SOL    HW2 1419   1.290   2.867   0.751  1.0187  0.9337 -2.6804
  474SOL     OW 1420   2.914   0.086   1.185  0.0550 -0.0243  0.5274
  474SOL    HW1 1421   2.887   0.159   1.119 -1.4982  0.2979 -2.0520
  474SOL    HW2 1422   2.964   0.125   1.268  0.4124  0.7811 -0.0196
  475SOL     OW 1423   1.724   2.613   1.738 -0.8786  0.6250 -0.2391
  475SOL    HW1 1424   1.812   2.661   1.731 -1.7564 -0.0439 -2.5122
  475SOL    HW2 1425   1.687   2.605   1.641  0.8904  2.2533 -0.7575
  476SOL     OW 1426   0.450   0.448   0.972  0.1209  0.2069  0.1052
  476SOL    HW1 1427   0.453   0.549   0.988  0.9151 -1.0561 -1.2740
  476SOL    HW2 1428   0.371   0.405   1.010  3.9403  2.4490 -1.5711
  477SOL     OW 1429   0.799   2.402   0.917  0.0571  0.1329  0.2323
  477SOL    HW1 1430   0.708   2.441   0.915  1.9370 -0.1186  0.9882
  477SOL    HW2 1431   0.801   2.302   0.912 -0.4840 -0.5802  4.9332
  478SOL     OW 1432   0.482   2.610   2.765  0.1445  0.4050  0.1517
  478SOL    HW1 1433   0.435   2.530   2.810  1.3891 -1.2301  0.4286
  478SOL    HW2 1434   0.527   2.660   2.839  0.0587 -0.5606  0.5108
  479SOL     OW 1435   0.278   0.705   2.234  0.0479 -0.0566  0.2787
  479SOL    HW1 1436   0.174   0.715   2.221  1.4827  0.0480  2.5385
  479SOL    HW2 1437   0.320   0.790   2.195 -1.2002  0.8913  0.1894
  480SOL     OW 1438   3.060   2.073   3.034  0.2963  0.3775  0.7285
  480SOL    HW1 1439   3.072   2.168   3.073  0.8867  1.1453 -1.1039
  480SOL    HW2 1440   0.045   2.018   3.051 -2.2484 -1.7179 -1.7165
  481SOL     OW 1441   1.331   2.211   2.066  0.1804  0.1990 -0.7810
  481SOL    HW1 1442   1.341   2.121   2.116 -0.1660 -1.9242 -1.6236
  481SOL    HW2 1443   1.410   2.221   2.000 -0.4175  0.6369 -0.8341
  482SOL     OW 1444   1.392   2.113   2.802  0.4501  0.4270  0.2292
  482SOL    HW1 1445   1.325   2.037   2.821  0.6135  2.4198  1.1965
  482SOL    HW2 1446   1.456   2.077   2.730  5.1238 -1.5571 -2.1925
  483SOL     OW 1447   0.807   2.570   2.847 -0.4467  0.3866  0.1899
  483SOL    HW1 1448   0.809   2.662   2.805  1.2261 -1.9294  0.4353
  483SOL    HW2 1449   0.880   2.576   2.923  0.8647 -0.6551  1.2388
  484SOL     OW 1450   0.088   0.179   0.929  0.4036  0.2918 -0.2293
  484SOL    HW1 1451   0.004   0.160   0.877  2.0243  0.6349  0.1722
  484SOL    HW2 1452   0.120   0.089   0.968 -2.0390 -1.1651 -0.7094
  485SOL     OW 1453   1.809   0.768   0.553  0.2764 -0.0925 -0.0155
  485SOL    HW1 1454   1.834   0.862   0.576 -0.6212 -0.4274  0.7434
  485SOL    HW2 1455   1.710   0.755   0.561  0.5885  0.7968 -2.3143
  486SOL     OW 1456   1.724   2.611   2.219  0.2520 -0.2863  0.4621
  486SOL    HW1 1457   1.787   2.654   2.156 -3.1929 -0.3468  2.6414
  486SOL    HW2 1458   1.647   2.669   2.246  0.1568  0.5408  0.3105
  487SOL     OW 1459   1.762   2.220   0.827 -0.4918 -0.2552 -0.2081
  487SOL    HW1 1460   1.762   2.132   0.775  1.4333 -1.0214 -0.1544
  487SOL    HW2 1461   1.693   2.215   0.905 -1.7442 -1.3579 -0.6695
  488SOL     OW 1462   2.116   0.933   0.036  0.0855 -0.1337 -0.6442
  488SOL    HW1 1463   2.056   0.897   0.104  2.8168 -1.1691 -2.6643
  488SOL    HW2 1464   2.205   0.883   0.030  1.2030 -1.8929 -0.7863
  489SOL     OW 1465   2.459   0.171   0.588 -0.1310 -0.5316  0.4296
  489SOL    HW1 1466   2.428   0.137   0.680  1.3049  0.5039 -2.1435
  489SOL    HW2 1467   2.385   0.167   0.523 -0.1378  0.4996  0.3307
  490SOL     OW 1468   1.634   2.798   2.815 -0.6269  0.0541  0.2676
  490SOL    HW1 1469   1.559   2.804   2.884 -1.2617  0.9135 -0.1776
  490SOL    HW2 1470   1.682   2.707   2.827 -1.0500 -1.0292  1.2316
  491SOL     OW 1471   0.945   0.546   1.323  0.3776 -0.0315  0.4217
  491SOL    HW1 1472   0.997   0.585   1.245 -1.3764 -0.4127  0.0466
  491SOL    HW2 1473   0.921   0.445   1.304  1.2766 -1.6124  1.5957
  492SOL     OW 1474   1.630   0.330   0.105 -0.4773  0.0801 -0.3056
  492SOL    HW1 1475   1.602   0.238   0.087 -0.1444  2.7388  2.8769
  492SOL    HW2 1476   1.676   0.367   0.021  1.6494 -0.3404 -1.2162
  493SOL     OW 1477   2.029   2.347   2.969  0.1738  0.8272 -0.0465
  493SOL    HW1 1478   2.059   2.301   3.057  0.2089 -1.1272 -1.1351
  493SOL    HW2 1479   1.955   2.415   2.982  1.0515 -1.9123 -0.2207
  494SOL     OW 1480   0.332   1.146   0.834  0.2718 -0.2815 -0.3748
  494SOL    HW1 1481   0.362   1.131   0.736 -1.3455  0.3548  0.4500
  494SOL    HW2 1482   0.230   1.146   0.833 -0.7818 -1.7946 -2.2004
  495SOL     OW 1483   3.095   3.062   1.504  0.1266  0.4126  0.0069
  495SOL    HW1 1484   3.078   0.063   1.477  1.0383 -0.5592  0.4931
  495SOL    HW2 1485   0.034   3.063   1.601 -0.8967  1.4205  4.2375
  496SOL     OW 1486   2.642   2.828   1.631  0.4690 -0.1685 -0.0068
  496SOL    HW1 1487   2.691   2.864   1.544  0.0411 -2.3485 -3.5833
  496SOL    HW2 1488   2.659   2.881   1.714 -0.3122 -1.6342 -3.6126
  497SOL     OW 1489   1.454   1.563   2.461 -0.6462  0.4095 -0.6956
  497SOL    HW1 1490   1.456   1.574   2.564  0.8492  1.1000 -1.1255
  497SOL    HW2 1491   1.461   1.463   2.438 -1.4953 -1.0315 -3.2173
  498SOL     OW 1492   0.443   1.984   0.669  0.5796  0.1298 -0.2933
  498SOL    HW1 1493   0.398   1.914   0.609 -5.1588 -2.6039 -0.3227
  498SOL    HW2 1494   0.370   2.007   0.736 -2.3620 -0.1389  0.4904
  499SOL     OW 1495   0.026   1.619   1.440  0.1189 -0.4009 -0.3756
  499SOL    HW1 1496   0.029   1.546   1.512  0.7047  1.1492 -1.2249
  499SOL    HW2 1497   3.054   1.595   1.367 -2.6346  1.8227 -1.7345
  500SOL     OW 1498   1.398   2.525   0.241  0.0948  0.3542  0.0066
  500SOL    HW1 1499   1.446   2.439   0.249 -1.8044  1.5658 -0.8056
  500SOL    HW2 1500   1.404   2.588   0.319 -2.4081 -0.3949 -1.3503
  501SOL     OW 1501   2.212   2.431   1.189 -1.0561 -0.2842 -0.3188
  501SOL    HW1 1502   2.266   2.517   1.212  3.0644  2.7729  1.1651
  501SOL    HW2 1503   2.244   2.389   1.104  0.8078 -1.5599 -0.2714
  502SOL     OW 1504   0.127   0.908   1.815  0.1207 -0.5719 -0.4970
  502SOL    HW1 1505   0.197   0.953   1.749  0.2990  1.3195 -1.5785
  502SOL    HW2 1506   0.133   0.809   1.811 -0.4854  2.8908  0.9031
  503SOL     OW 1507   2.313   0.014   1.887  0.1051  0.0651  0.1181
  503SOL    HW1 1508   2.398   0.007   1.944 -1.4827 -0.3618  0.7635
  503SOL    HW2 1509   2.274   0.110   1.903  0.9103 -0.3554  1.4836
  504SOL     OW 1510   1.937   0.622   2.029  0.3798  0.0063 -0.8715
  504SOL    HW1 1511   1.933   0.715   1.990 -0.3608  0.5714 -0.8974
  504SOL    HW2 1512   1.993   0.615   2.112  2.2272 -1.8575 -1.5518
  505SOL     OW 1513   1.219   0.144   2.468 -0.2514 -0.3855 -0.2547
  505SOL    HW1 1514   1.274   0.073   2.516  0.5771 -2.9921 -3.1324
  505SOL    HW2 1515   1.231   0.130   2.370 -3.1581  1.0493  1.7621
  506SOL     OW 1516   0.493   0.575   1.754  0.1687  0.2270  0.1390
  506SOL    HW1 1517   0.539   0.526   1.677 -0.2894 -0.7111  1.0351
  506SOL    HW2 1518   0.497   0.516   1.835 -0.2803  2.1665 -0.7454
  507SOL     OW 1519   1.838   2.955   2.863 -0.0500 -0.7955  0.3934
  507SOL    HW1 1520   1.831   3.028   2.793 -1.0420  0.1759  0.1080
  507SOL    HW2 1521   1.753   2.897   2.855 -1.7939  0.6696  2.6764
  508SOL     OW 1522   2.194   0.258   2.795 -0.0505  0.1596 -0.3215
  508SOL    HW1 1523   2.240   0.215   2.877 -0.7001 -1.4132  1.7939
  508SOL    HW2 1524   2.203   0.362   2.805 -0.0922 -0.2272  1.7400
  509SOL     OW 1525   0.968   1.410   1.868 -0.3366 -0.4762  0.2083
  509SOL    HW1 1526   0.901   1.484   1.890 -4.0451 -0.3223 -1.4250
  509SOL    HW2 1527   0.969   1.388   1.767  1.4864 -1.1748 -2.4522
  510SOL     OW 1528   3.089   0.928   0.906  0.1496 -0.1922  0.2324
  510SOL    HW1 1529   0.004   0.862   0.825  2.5801 -3.3772 -1.6622
  510SOL    HW2 1530   2.988   0.933   0.935 -0.1874  4.1859  0.8089
  511SOL     OW 1531   1.654   1.752   0.875 -0.3488  0.1370 -0.9418
  511SOL    HW1 1532   1.583   1.818   0.909  1.3631 -1.0372  0.5784
  511SOL    HW2 1533   1.602   1.669   0.844  0.0703  1.5593 -2.2334
  512SOL     OW 1534   0.721   1.338   0.383 -0.0502 -0.1532  0.2377
  512SOL    HW1 1535   0.624   1.342   0.362  0.1548  0.3360  1.5061
  512SOL    HW2 1536   0.745   1.370   0.476  0.0963  0.8159 -1.4148
  513SOL     OW 1537   0.083   2.623   0.564 -0.2973 -0.2750  1.1093
  513SOL    HW1 1538   0.103   2.708   0.615 -0.0493 -1.9772 -0.7659
  513SOL    HW2 1539   0.168   2.567   0.544  0.1297 -2.6009 -2.4317
  514SOL     OW 1540   0.196   1.946   3.063  0.5337  0.0157 -0.1309
  514SOL    HW1 1541   0.264   1.979   0.037  2.5757  1.9564 -0.4232
  514SOL    HW2 1542   0.213   1.847   3.035 -1.6955 -0.4952 -0.3943
  515SOL     OW 1543   2.322   0.734   0.265  0.1626  0.1078  0.7163
  515SOL    HW1 1544   2.321   0.633   0.244 -1.5674  3.6874 -1.1970
  515SOL    HW2 1545   2.325   0.789   0.178 -1.2214 -0.5087  0.7841
  516SOL     OW 1546   2.360   2.656   1.228 -0.4718 -0.2323  0.4338
  516SOL    HW1 1547   2.434   2.637   1.296  2.0722  3.5714  1.6550
  516SOL    HW2 1548   2.304   2.742   1.252 -1.6980  3.1362  1.0976
  517SOL     OW 1549   1.262   1.642   3.079  0.3119  0.2080  0.1404
  517SOL    HW1 1550   1.363   1.638   3.094 -3.1854  1.3168 -0.6490
  517SOL    HW2 1551   1.222   1.713   0.041  1.0863 -1.2897  0.3479
  518SOL     OW 1552   1.168   0.592   1.849  0.1913  0.0824 -0.2342
  518SOL    HW1 1553   1.131   0.636   1.931 -0.0338  0.3521 -1.5236
  518SOL    HW2 1554   1.121   0.504   1.814 -0.8353 -0.1277 -1.2192
  519SOL     OW 1555   2.806   2.072   0.835  0.4500 -0.7107 -0.6708
  519SOL    HW1 1556   2.861   1.997   0.868  0.7763  0.0166  3.2653
  519SOL    HW2 1557   2.771   2.055   0.742  1.2449 -0.4215 -0.4657
  520SOL     OW 1558   2.278   1.984   1.655 -0.2130 -0.4549  0.3227
  520SOL    HW1 1559   2.265   1.921   1.734  1.2547  2.4343  0.9812
  520SOL    HW2 1560   2.190   1.998   1.606 -1.3809 -0.6548  1.0293
  521SOL     OW 1561   0.976   3.065   2.598 -0.1369 -0.1271 -0.7583
  521SOL    HW1 1562   1.057   3.029   2.655  0.0535  2.9795 -0.3598
  521SOL    HW2 1563   0.964   3.010   2.513  1.0031  0.1673  0.3515
  522SOL     OW 1564   2.732   0.212   2.460  0.0671 -0.0639  0.0545
  522SOL    HW1 1565   2.702   0.302   2.421  1.5312  0.4214 -1.3816
  522SOL    HW2 1566   2.653   0.151   2.483  0.1239  0.2357  1.4578
  523SOL     OW 1567   1.560   2.355   1.592 -0.4623  0.2828 -0.2250
  523SOL    HW1 1568   1.567   2.448   1.555  1.9072 -0.9745 -1.1169
  523SOL    HW2 1569   1.600   2.288   1.528 -1.3575 -1.0143 -3.7413
  524SOL     OW 1570   1.746   1.998   3.034  0.0430  1.0810 -0.1806
  524SOL    HW1 1571   1.741   2.069   2.968  1.0000 -6.0355 -0.7817
  524SOL    HW2 1572   1.838   1.961   3.027  0.0212  0.8639 -2.6655
  525SOL     OW 1573   0.022   0.659   0.382  0.5109  0.6286  0.2687
  525SOL    HW1 1574   0.091   0.738   0.382  1.6271  2.4474 -0.0499
  525SOL    HW2 1575   0.062   0.574   0.412 -2.1532  1.6748 -0.6340
  526SOL     OW 1576   0.838   0.014   0.896  0.2743  0.3036  0.4837
  526SOL    HW1 1577   0.888   0.063   0.822 -0.4541 -2.2829 -1.1423
  526SOL    HW2 1578   0.739   0.046   0.901 -2.5578 -0.7855 -0.4098
  527SOL     OW 1579   2.761   1.520   0.427 -0.0797  0.2052 -0.4344
  527SOL    HW1 1580   2.774   1.594   0.495  0.4154  0.2949  0.1137
  527SOL    HW2 1581   2.853   1.493   0.386  1.2562 -0.4385 -2.1244
  528SOL     OW 1582   0.602   0.853   2.299  0.1654  0.1792  0.4609
  528SOL    HW1 1583   0.643   0.908   2.378  1.4699  1.4516  0.4094
  528SOL    HW2 1584   0.508   0.887   2.284 -0.1968  2.6972 -1.8522
  529SOL     OW 1585   1.148   1.691   2.772  0.0255  0.1309  0.1088
  529SOL    HW1 1586   1.188   1.601   2.799 -0.9569 -0.9563 -0.6636
  529SOL    HW2 1587   1.170   1.714   2.676 -0.0050  2.6308  0.0711
  530SOL     OW 1588   1.737   1.229   2.427 -0.7642 -0.2651  0.1628
  530SOL    HW1 1589   1.642   1.255   2.446 -1.0782 -0.1684 -1.2989
  530SOL    HW2 1590   1.756   1.132   2.452  1.1880  2.1734  0.1644
  531SOL     OW 1591   0.655   2.367   2.925 -0.6907 -0.1094  0.4788
  531SOL    HW1 1592   0.551   2.371   2.926 -2.5260 -2.6938 -2.4373
  531SOL    HW2 1593   0.693   2.456   2.893  1.6049 -1.1973 -0.0302
  532SOL     OW 1594   2.514   0.891   0.414 -0.3448 -0.0836 -0.6212
  532SOL    HW1 1595   2.458   0.975   0.418 -0.8370 -1.1455  2.1398
  532SOL    HW2 1596   2.462   0.822   0.358  0.6864  0.6293 -0.8651
  533SOL     OW 1597   0.059   0.455   1.867  0.7063  0.5657 -0.0119
  533SOL    HW1 1598   0.125   0.528   1.839  2.2594 -2.1367 -1.8231
  533SOL    HW2 1599   3.065   0.494   1.898 -2.1551 -2.0395  0.5912
  534SOL     OW 1600   1.517   0.106   3.073  0.4402  0.0171 -0.3580
  534SOL    HW1 1601   1.435   0.132   0.032 -0.3650  0.1564 -1.7591
  534SOL    HW2 1602   1.502   0.105   2.975  0.5091 -0.1824  1.8383
  535SOL     OW 1603   0.705   0.382   0.156 -0.3855  0.0936 -0.4176
  535SOL    HW1 1604   0.628   0.310   0.144 -1.6807 -3.1188 -0.1732
  535SOL    HW2 1605   0.752   0.401   0.068  0.3591 -0.7037  1.3863
  536SOL     OW 1606   0.397   1.606   1.843 -0.3414  0.6361 -0.1124
  536SOL    HW1 1607   0.333   1.605   1.917 -1.5913 -1.4060 -3.5110
  536SOL    HW2 1608   0.488   1.572   1.886  0.9046 -1.1803  3.1484
  537SOL     OW 1609   0.382   2.488   1.983 -0.3764 -0.1011  0.5065
  537SOL    HW1 1610   0.389   2.438   1.896 -2.4306  1.2540 -3.3049
  537SOL    HW2 1611   0.436   2.443   2.057 -0.1924 -0.3852 -0.1839
  538SOL     OW 1612   3.070   1.721   0.047 -0.0533  0.2027 -0.5050
  538SOL    HW1 1613   0.058   1.720   3.086 -2.0235 -0.2515  2.1361
  538SOL    HW2 1614   3.073   1.678   0.145 -0.2711 -2.5010  3.6146
  539SOL     OW 1615   2.789   0.547   2.784 -0.0175  0.3065 -0.2599
  539SOL    HW1 1616   2.794   0.452   2.748 -2.1260  1.0932 -1.6112
  539SOL    HW2 1617   2.872   0.606   2.761  1.3583 -2.3595  2.2937
  540SOL     OW 1618   1.742   0.541   2.329  0.1995  0.0912  0.2845
  540SOL    HW1 1619   1.765   0.611   2.400 -0.1075 -0.9373 -0.0516
  540SOL    HW2 1620   1.822   0.493   2.285 -1.1887 -1.2446  0.3925
  541SOL     OW 1621   0.794   0.068   1.767 -0.5619 -0.0141 -0.2584
  541SOL    HW1 1622   0.770   3.068   1.779 -0.5434 -1.3999 -0.9911
  541SOL    HW2 1623   0.815   0.111   1.858  3.2924 -0.2111  1.2346
  542SOL     OW 1624   1.920   2.607   2.459 -0.0258 -0.2665  0.3356
  542SOL    HW1 1625   1.905   2.519   2.509  0.1859 -1.6542 -2.1841
  542SOL    HW2 1626   1.845   2.623   2.394  0.4357  1.8198  0.5382
  543SOL     OW 1627   0.527   2.900   0.786 -0.2369 -0.3083 -0.0563
  543SOL    HW1 1628   0.531   2.833   0.864  0.2099 -0.8651  0.3984
  543SOL    HW2 1629   0.535   2.994   0.830 -0.5916  2.2043 -3.4311
  544SOL     OW 1630   2.598   1.420   1.871  0.4048  0.1412  0.3542
  544SOL    HW1 1631   2.579   1.338   1.814  0.5920  0.1896  2.4700
  544SOL    HW2 1632   2.582   1.503   1.813 -2.5828  0.8509  2.4831
  545SOL     OW 1633   1.872   1.862   1.048  0.4017  0.2654 -0.1476
  545SOL    HW1 1634   1.858   1.776   1.103  0.6284  0.4279  0.3482
  545SOL    HW2 1635   1.887   1.834   0.951 -3.1397 -0.4147  2.4496
  546SOL     OW 1636   0.311   0.304   2.363 -0.7956  0.0132  0.3092
  546SOL    HW1 1637   0.254   0.237   2.310 -2.9314  2.5428  0.1802
  546SOL    HW2 1638   0.257   0.344   2.441 -1.7975 -0.3323 -0.9112
  547SOL     OW 1639   1.170   0.643   1.180  0.1182  0.1873  0.2699
  547SOL    HW1 1640   1.192   0.668   1.277 -0.7758  1.3367  0.9942
  547SOL    HW2 1641   1.199   0.718   1.113  4.1380  1.0956 -0.2540
  548SOL     OW 1642   1.300   2.543   2.875  0.4174 -0.1959  0.0208
  548SOL    HW1 1643   1.305   2.451   2.927  0.3589  1.0460 -1.2043
  548SOL    HW2 1644   1.293   2.523   2.775  0.4050  1.4478 -2.6361
  549SOL     OW 1645   2.339   0.145   2.983 -0.3788 -0.0485 -0.3322
  549SOL    HW1 1646   2.349   0.126   3.081 -1.4456 -3.9855 -0.9142
  549SOL    HW2 1647   2.430   0.186   2.951 -1.6324  1.0564 -1.3414
  550SOL     OW 1648   2.684   2.022   0.591  0.1203  0.0602  0.0162
  550SOL    HW1 1649   2.589   1.999   0.568 -0.7712 -2.9251 -2.6966
  550SOL    HW2 1650   2.747   2.039   0.512  0.2615  0.2980 -1.7975
  551SOL     OW 1651   1.120   2.861   1.915 -0.0189  0.7889  0.3407
  551SOL    HW1 1652   1.048   2.819   1.851 -0.9595  0.6601 -0.4738
  551SOL    HW2 1653   1.100   2.956   1.952 -0.0661 -0.6624 -0.7041
  552SOL     OW 1654   2.922   2.280   2.656 -0.3646 -0.3887 -0.1555
  552SOL    HW1 1655   2.934   2.220   2.573  0.5173 -2.5320  0.6473
  552SOL    HW2 1656   2.824   2.285   2.677  1.6805 -1.2849 -0.9450
  553SOL     OW 1657   0.243   2.783   1.005  0.5793  0.3864 -0.3167
  553SOL    HW1 1658   0.344   2.762   1.000 -2.1084 -0.2434  2.0818
  553SOL    HW2 1659   0.198   2.743   1.090  0.6438 -2.4168  0.8378
  554SOL     OW 1660   2.030   1.783   1.654 -0.5138 -0.3557  0.9867
  554SOL    HW1 1661   2.079   1.806   1.738  0.1538 -1.4534 -2.1115
  554SOL    HW2 1662   2.020   1.867   1.596  1.7446  1.6550 -0.8431
  555SOL     OW 1663   1.588   1.989   1.790  0.2933 -0.1691  0.0668
  555SOL    HW1 1664   1.503   1.935   1.791  0.7065  1.0812 -0.1835
  555SOL    HW2 1665   1.569   2.083   1.823  1.8409 -0.9055 -1.1268
  556SOL     OW 1666   1.514   1.512   0.832  0.4490  0.0376  0.2015
  556SOL    HW1 1667   1.481   1.474   0.919  3.0342  1.1998 -3.1206
  556SOL    HW2 1668   1.479   1.456   0.756  0.7166 -3.4326 -1.7620
  557SOL     OW 1669   1.401   2.805   1.523  0.2143 -0.2498  0.3230
  557SOL    HW1 1670   1.393   2.793   1.626  1.8270 -2.5895 -1.2530
  557SOL    HW2 1671   1.400   2.905   1.503  1.7287 -0.1707 -0.3410
  558SOL     OW 1672   0.322   0.014   1.990 -0.0477  0.1004  0.1303
  558SOL    HW1 1673   0.312   0.036   2.089  0.8043 -2.8215 -0.6920
  558SOL    HW2 1674   0.290   0.097   1.935  1.4583  1.8920  0.8841
  559SOL     OW 1675   2.214   3.025   0.657  0.0762 -0.2045 -0.4531
  559SOL    HW1 1676   2.211   0.016   0.708 -1.4501  1.5322  4.0124
  559SOL    HW2 1677   2.169   3.032   0.566  0.4867 -1.4530  0.1536
  560SOL     OW 1678   1.416   2.351   0.757  0.4775  0.2450 -0.3335
  560SOL    HW1 1679   1.387   2.345   0.663  0.1122 -1.6916  4.6539
  560SOL    HW2 1680   1.354   2.422   0.803 -2.1167 -2.5534  0.6796
  561SOL     OW 1681   1.123   0.375   0.455 -0.5169  0.2985  0.0749
  561SOL    HW1 1682   1.213   0.370   0.505 -1.3178 -1.0187 -2.1716
  561SOL    HW2 1683   1.052   0.323   0.506 -2.8803 -0.9293  1.5967
  562SOL     OW 1684   0.417   1.376   2.598 -0.0172 -0.3795  0.1953
  562SOL    HW1 1685   0.332   1.321   2.609  0.6410 -2.5759  2.2009
  562SOL    HW2 1686   0.495   1.314   2.631 -0.3348 -1.0081 -1.1575
  563SOL     OW 1687   1.362   2.123   2.408 -0.0325 -0.1379 -0.1677
  563SOL    HW1 1688   1.392   2.092   2.316 -2.8252 -1.4596 -1.6688
  563SOL    HW2 1689   1.435   2.138   2.480 -0.7806 -0.1179  1.6553
  564SOL     OW 1690   2.779   0.935   0.989 -0.2201  0.0439  0.1386
  564SOL    HW1 1691   2.783   1.032   1.012  3.6870 -0.9523  0.5963
  564SOL    HW2 1692   2.789   0.922   0.891  1.3530 -0.5728  3.8611
  565SOL     OW 1693   0.715   0.926   3.085 -0.7628 -0.2134 -0.3485
  565SOL    HW1 1694   0.691   0.847   3.027 -0.0728  3.0399  0.4921
  565SOL    HW2 1695   0.786   0.894   0.056  3.4854 -1.5896  3.0510
  566SOL     OW 1696   2.597   3.055   2.790 -0.0498  0.0338 -0.4071
  566SOL    HW1 1697   2.515   3.014   2.835  1.7314  0.2696  1.0456
  566SOL    HW2 1698   2.584   3.095   2.697  0.1016  1.0007  0.1491
  567SOL     OW 1699   1.457   0.968   1.029 -0.1612  0.1337 -0.2252
  567SOL    HW1 1700   1.558   0.970   1.044  2.9969 -1.7875 -1.0771
  567SOL    HW2 1701   1.433   1.049   0.973 -2.3060  1.2815  2.5378
  568SOL     OW 1702   1.761   1.758   2.726  0.3208 -0.4085 -0.3354
  568SOL    HW1 1703   1.713   1.783   2.639 -1.2187 -0.9458  2.4498
  568SOL    HW2 1704   1.696   1.754   2.806 -1.8309  1.7256 -0.9942
  569SOL     OW 1705   2.229   1.408   3.004 -0.5746 -0.3913 -0.0980
  569SOL    HW1 1706   2.282   1.319   3.034  1.6237 -3.2629 -0.9072
  569SOL    HW2 1707   2.275   1.448   2.923  0.3692 -0.4936  1.1033
  570SOL     OW 1708   0.129   2.506   1.851  0.1475 -0.0962  0.1164
  570SOL    HW1 1709   0.227   2.500   1.885  3.4117  0.4439 -0.0812
  570SOL    HW2 1710   0.145   2.521   1.750 -0.3643  0.2651  0.3559
  571SOL     OW 1711   2.716   1.760   1.595  0.0255 -0.3936  0.1899
  571SOL    HW1 1712   2.738   1.762   1.496 -0.6486  1.8279 -0.6172
  571SOL    HW2 1713   2.756   1.843   1.635 -1.0317 -0.9627 -2.5124
  572SOL     OW 1714   1.739   1.867   0.399  0.2717  0.3839 -0.6081
  572SOL    HW1 1715   1.674   1.873   0.479  1.0333  0.5970 -1.3867
  572SOL    HW2 1716   1.773   1.957   0.371 -1.8919  0.5433  1.7576
  573SOL     OW 1717   1.841   2.115   0.318  0.1834  0.7326  0.0278
  573SOL    HW1 1718   1.805   2.129   0.225 -0.2590 -1.1840  2.6029
  573SOL    HW2 1719   1.856   2.201   0.366 -1.4415 -0.5938  0.2390
  574SOL     OW 1720   0.844   0.309   1.317  0.3990 -0.5897  0.1544
  574SOL    HW1 1721   0.878   0.245   1.388  1.2621  0.2969  0.8028
  574SOL    HW2 1722   0.841   0.262   1.227 -0.3520 -0.0404  0.6084
  575SOL     OW 1723   0.798   0.956   1.866  0.3697 -0.3947 -0.1842
  575SOL    HW1 1724   0.800   1.044   1.817  0.1060  0.7638  1.7864
  575SOL    HW2 1725   0.801   0.968   1.967 -0.4163 -0.2743  3.6187
  576SOL     OW 1726   2.541   0.316   1.699 -0.6892 -0.2105 -0.4723
  576SOL    HW1 1727   2.502   0.242   1.642  1.0413  1.1788  0.2024
  576SOL    HW2 1728   2.547   0.407   1.647 -1.9726  0.0393 -0.0720
  577SOL     OW 1729   1.176   1.014   2.446 -0.0841 -0.7417  0.3453
  577SOL    HW1 1730   1.224   1.084   2.505  2.0196  2.2012  1.0981
  577SOL    HW2 1731   1.241   0.944   2.409 -1.1455  1.0693 -0.0548
  578SOL     OW 1732   2.104   1.404   2.399 -0.5271  0.0938  0.1861
  578SOL    HW1 1733   2.013   1.442   2.422  2.0145 -0.7523 -0.6080
  578SOL    HW2 1734   2.135   1.449   2.313  0.6811  1.8863  2.2947
  579SOL     OW 1735   1.404   2.092   1.456 -1.1797 -0.0448  0.0763
  579SOL    HW1 1736   1.387   2.024   1.532  0.5716  0.2167 -0.8326
  579SOL    HW2 1737   1.497   2.130   1.454 -0.6736 -0.6081 -0.1999
  580SOL     OW 1738   1.521   2.300   0.323  0.0637 -0.2509 -0.4162
  580SOL    HW1 1739   1.598   2.351   0.363 -0.0500 -0.7530  2.1830
  580SOL    HW2 1740   1.554   2.236   0.257 -2.1356  2.1301  1.0491
  581SOL     OW 1741   1.201   0.885   2.052 -0.0238  0.2475  0.2570
  581SOL    HW1 1742   1.120   0.822   2.051 -0.4630 -0.8136 -0.4688
  581SOL    HW2 1743   1.242   0.888   2.146 -0.8371  0.6326  0.2736
  582SOL     OW 1744   0.806   1.171   1.638 -0.1831  0.3162 -0.1836
  582SOL    HW1 1745   0.841   1.264   1.620  1.7221 -0.9041  3.3621
  582SOL    HW2 1746   0.884   1.105   1.618 -0.0614 -3.0455 -2.2493
  583SOL     OW 1747   1.074   1.209   2.031 -0.1404  0.1566 -0.1743
  583SOL    HW1 1748   1.157   1.179   1.985 -0.6012 -0.0314  0.3104
  583SOL    HW2 1749   1.023   1.280   1.980 -1.1288  3.2940  2.2690
  584SOL     OW 1750   2.280   2.304   0.942 -0.3822  0.0402 -0.2413
  584SOL    HW1 1751   2.285   2.358   0.855 -0.2652  0.2964  2.8424
  584SOL    HW2 1752   2.217   2.224   0.933 -0.7096  1.0947  0.5848
  585SOL     OW 1753   2.198   2.968   2.660  0.0519 -0.3459  0.0066
  585SOL    HW1 1754   2.114   2.904   2.661  1.1305  0.4151  1.0113
  585SOL    HW2 1755   2.244   2.975   2.751  2.6413  0.4962  0.2119
  586SOL     OW 1756   3.087   2.347   0.637  0.2356  0.5407 -0.1516
  586SOL    HW1 1757   3.003   2.400   0.637  1.6357  0.7319  0.4096
  586SOL    HW2 1758   0.059   2.389   0.577  0.2238  1.3840 -1.8946
  587SOL     OW 1759   1.579   1.765   2.911  0.0563  0.3004 -0.5797
  587SOL    HW1 1760   1.605   1.854   2.947 -3.0832 -2.0040 -2.1957
  587SOL    HW2 1761   1.554   1.699   2.985  0.0703 -1.1265 -1.4049
  588SOL     OW 1762   0.214   0.375   1.091 -0.0260  0.3929 -0.3288
  588SOL    HW1 1763   0.227   0.339   1.179 -1.9909  0.7452 -0.6507
  588SOL    HW2 1764   0.170   0.311   1.024  3.4794  0.1726  2.3677
  589SOL     OW 1765   1.221   0.813   0.943  0.2458 -0.1548  0.0452
  589SOL    HW1 1766   1.312   0.862   0.951  1.3930  1.8130  3.3240
  589SOL    HW2 1767   1.146   0.880   0.927 -3.2296  1.5569  1.4039
  590SOL     OW 1768   1.294   1.230   0.012  0.1341  0.3175  0.4889
  590SOL    HW1 1769   1.349   1.212   0.094  0.7151 -0.0749 -1.3961
  590SOL    HW2 1770   1.223   1.301   0.022 -0.2092 -0.9235 -1.5684
  591SOL     OW 1771   2.560   2.447   2.516 -0.1335  0.0885  0.7015
  591SOL    HW1 1772   2.481   2.443   2.587  1.3143  1.6525  0.5416
  591SOL    HW2 1773   2.605   2.541   2.510  2.3628  0.0527  0.2184
  592SOL     OW 1774   1.654   2.168   1.407 -0.0084  0.1685 -0.3898
  592SOL    HW1 1775   1.674   2.118   1.320  0.4960 -2.0094 -0.4394
  592SOL    HW2 1776   1.703   2.111   1.476  0.2212 -1.2362 -0.0969
  593SOL     OW 1777   0.562   0.057   0.906 -0.5026 -0.5043 -0.0704
  593SOL    HW1 1778   0.530   0.092   0.996 -0.2076 -1.0190 -0.8931
  593SOL    HW2 1779   0.551   0.135   0.838  1.3525 -2.0717 -1.7234
  594SOL     OW 1780   2.606   0.836   2.454 -0.1224  0.1365 -0.3366
  594SOL    HW1 1781   2.662   0.898   2.516 -3.2538 -0.3105 -1.4960
  594SOL    HW2 1782   2.542   0.770   2.506 -0.3123 -1.9667 -0.7549
  595SOL     OW 1783   0.526   2.739   0.998 -0.0185  0.0165  0.4000
  595SOL    HW1 1784   0.529   2.637   0.980 -1.3603  0.6479  0.6890
  595SOL    HW2 1785   0.566   2.768   1.086  2.7571  0.7942 -1.0007
  596SOL     OW 1786   0.007   0.978   1.334 -0.1324  0.4096 -0.1380
  596SOL    HW1 1787   0.008   0.970   1.436  0.8628 -0.6532 -1.4695
  596SOL    HW2 1788   0.036   0.894   1.285 -0.6145  0.0503  0.0791
  597SOL     OW 1789   1.476   1.760   0.242  0.1245  0.2454  0.6529
  597SOL    HW1 1790   1.574   1.750   0.263  0.2578  1.8858  1.3431
  597SOL    HW2 1791   1.415   1.750   0.325  1.9151 -2.5231 -0.4075
  598SOL     OW 1792   0.428   2.925   1.821 -0.5400  0.1197 -0.5851
  598SOL    HW1 1793   0.391   2.935   1.727 -0.0704 -2.0793 -1.2294
  598SOL    HW2 1794   0.398   2.996   1.889 -0.1239 -3.5958  0.2279
  599SOL     OW 1795   2.483   1.601   2.698 -0.2026 -0.3055  0.3103
  599SOL    HW1 1796   2.422   1.604   2.611 -0.7634  1.2685 -4.2681
  599SOL    HW2 1797   2.583   1.628   2.682  2.7410  3.0696  0.5434
  600SOL     OW 1798   0.888   1.131   0.284  0.4594  0.1137  0.2959
  600SOL    HW1 1799   0.803   1.189   0.307 -1.7661 -1.7375 -0.9643
  600SOL    HW2 1800   0.935   1.112   0.369 -0.5443  0.4543 -3.5802
  601SOL     OW 1801   0.412   0.865   0.727  0.0279 -0.1884  0.0627
  601SOL    HW1 1802   0.375   0.955   0.752  0.6576  2.8404  1.8082
  601SOL    HW2 1803   0.488   0.834   0.790  1.5264  0.7783  0.6821
  602SOL     OW 1804   1.764   2.769   0.535 -0.9720 -0.8361  0.1521
  602SOL    HW1 1805   1.680   2.756   0.595  0.8491 -0.4881  0.9306
  602SOL    HW2 1806   1.743   2.796   0.441 -0.5785 -3.0445 -0.5691
  603SOL     OW 1807   0.737   2.742   2.323  0.0210  0.0930  0.0863
  603SOL    HW1 1808   0.815   2.688   2.281 -1.1832  0.3525 -2.8365
  603SOL    HW2 1809   0.693   2.684   2.396 -1.0233 -0.6985  3.1714
  604SOL     OW 1810   2.989   0.182   2.370 -0.0746  0.3845 -0.4696
  604SOL    HW1 1811   3.060   0.120   2.404  2.2719  0.8301 -1.6953
  604SOL    HW2 1812   2.905   0.170   2.421 -1.4531 -0.7371 -0.3411
  605SOL     OW 1813   2.760   1.416   1.238 -0.7160  0.3999 -0.0224
  605SOL    HW1 1814   2.772   1.345   1.160  0.9724 -1.0380 -2.4093
  605SOL    HW2 1815   2.667   1.465   1.223  1.4523  2.7015 -1.8719
  606SOL     OW 1816   0.810   1.428   2.552  0.4619 -0.1072 -0.1188
  606SOL    HW1 1817   0.718   1.475   2.565  1.4128 -1.8961 -0.1366
  606SOL    HW2 1818   0.803   1.340   2.500 -0.1341 -1.3839 -0.2262
  607SOL     OW 1819   0.528   3.059   0.359 -0.2884 -0.0548  0.1553
  607SOL    HW1 1820   0.516   2.971   0.311  1.9156 -1.5030 -0.5025
  607SOL    HW2 1821   0.449   0.020   0.343  0.9563 -0.9462 -0.3760
  608SOL     OW 1822   1.871   1.643   2.016 -0.0301  0.2235  0.1307
  608SOL    HW1 1823   1.784   1.605   2.062 -0.6266 -1.7688 -0.3033
  608SOL    HW2 1824   1.852   1.650   1.912 -0.6704  1.1893 -1.2352
  609SOL     OW 1825   2.609   0.412   1.358 -0.1981  0.3255 -0.4867
  609SOL    HW1 1826   2.538   0.343   1.326 -2.6504 -0.1629 -1.0317
  609SOL    HW2 1827   2.572   0.475   1.427  2.3252  1.9915 -0.3582
  610SOL     OW 1828   0.351   2.750   0.649 -0.2476 -0.3532 -0.7999
  610SOL    HW1 1829   0.384   2.656   0.644 -0.1301  1.2661  3.7411
  610SOL    HW2 1830   0.410   2.807   0.717 -2.1603 -0.1119  0.2306
  611SOL     OW 1831   1.549   0.838   2.942  0.5015  0.0122  0.6530
  611SOL    HW1 1832   1.572   0.908   2.872  1.3683 -1.3794 -2.2714
  611SOL    HW2 1833   1.584   0.870   3.037  2.2562  0.9651  2.9122
  612SOL     OW 1834   0.811   2.284   2.075  0.0337 -0.2641  0.0655
  612SOL    HW1 1835   0.853   2.304   2.165 -0.0661  3.2985 -0.3508
  612SOL    HW2 1836   0.870   2.305   1.997 -0.0137  0.1215  1.6705
  613SOL     OW 1837   0.519   2.522   0.650  0.2181 -0.4822  0.4723
  613SOL    HW1 1838   0.512   2.425   0.623  0.4516 -2.6577  0.9589
  613SOL    HW2 1839   0.574   2.581   0.588 -0.7137  0.0118  1.6702
  614SOL     OW 1840   2.408   3.002   1.663 -0.0795 -0.5096  0.6321
  614SOL    HW1 1841   2.462   2.917   1.681 -0.2922 -1.4958 -0.3358
  614SOL    HW2 1842   2.375   3.051   1.746  1.1160  0.3816 -1.2774
  615SOL     OW 1843   1.807   1.055   0.246  0.6221  0.3476 -0.5582
  615SOL    HW1 1844   1.846   1.110   0.323  1.9522 -0.2394 -3.0386
  615SOL    HW2 1845   1.829   1.100   0.152  1.2559 -3.1130  0.4843
  616SOL     OW 1846   1.945   0.825   0.207 -0.0222 -0.8233 -0.3291
  616SOL    HW1 1847   1.921   0.747   0.266  1.2032  2.3819  0.0431
  616SOL    HW2 1848   1.883   0.904   0.235 -2.8201  1.9788  1.5850
  617SOL     OW 1849   0.988   1.108   2.845  0.0154  0.7605 -0.5349
  617SOL    HW1 1850   0.916   1.152   2.903  2.0323 -3.3623 -1.4590
  617SOL    HW2 1851   1.063   1.063   2.890 -1.8496  1.2620 -0.0464
  618SOL     OW 1852   0.681   2.890   1.798 -0.1808  0.2974 -0.1497
  618SOL    HW1 1853   0.714   2.828   1.870 -1.3514  0.9931  0.6055
  618SOL    HW2 1854   0.582   2.919   1.808  0.2581  1.2515  0.9639
  619SOL     OW 1855   2.978   1.192   1.241  0.4021  0.2395  0.4130
  619SOL    HW1 1856   3.027   1.103   1.247 -1.2478  0.1840  0.9606
  619SOL    HW2 1857   2.953   1.221   1.335  2.9475 -0.3837  2.4543
  620SOL     OW 1858   2.370   0.985   2.765  0.2810  0.3310  0.9163
  620SOL    HW1 1859   2.425   1.038   2.694  1.5416  0.5995 -0.5121
  620SOL    HW2 1860   2.280   0.956   2.725  1.4049 -0.9459  2.3764
  621SOL     OW 1861   2.738   2.411   1.401 -0.2812 -0.2805  0.0972
  621SOL    HW1 1862   2.695   2.322   1.403 -0.0501 -0.0615  3.7923
  621SOL    HW2 1863   2.754   2.433   1.501  0.0922  0.8835  0.0329
  622SOL     OW 1864   0.973   0.709   2.625  0.4478  0.3589 -0.1579
  622SOL    HW1 1865   0.933   0.647   2.554  0.0362 -0.5014 -0.3917
  622SOL    HW2 1866   0.948   0.808   2.612 -3.9269  0.5918 -0.6675
  623SOL     OW 1867   1.211   0.555   2.643  0.0876  0.0283 -0.8102
  623SOL    HW1 1868   1.149   0.475   2.653  1.0830  2.0343  0.5854
  623SOL    HW2 1869   1.165   0.648   2.661  0.0527  1.0559  1.0556
  624SOL     OW 1870   2.361   0.836   0.023  0.2465 -0.4576 -0.2261
  624SOL    HW1 1871   2.336   0.757   3.055  0.8694 -1.5071 -2.5862
  624SOL    HW2 1872   2.438   0.894   3.083  1.4593  0.0104 -0.3296
  625SOL     OW 1873   0.952   1.344   0.968 -0.3740  0.4184 -0.0626
  625SOL    HW1 1874   1.036   1.308   0.916  2.6422 -0.4588 -0.1938
  625SOL    HW2 1875   0.953   1.298   1.061 -0.6538 -2.5607 -1.9180
  626SOL     OW 1876   1.816   0.989   2.552 -0.6358 -0.2453  0.1647
  626SOL    HW1 1877   1.844   0.891   2.525  0.9703 -3.6315 -0.7333
  626SOL    HW2 1878   1.892   1.032   2.613 -0.7141 -1.6164 -2.1815
  627SOL     OW 1879   1.168   2.990   2.837 -0.1435 -0.0404  0.2374
  627SOL    HW1 1880   1.087   2.935   2.865  0.2994  0.4503 -0.0663
  627SOL    HW2 1881   1.155   3.090   2.853  1.2325 -2.1320 -1.8546
  628SOL     OW 1882   2.256   0.114   2.579 -0.1141 -0.0656  0.5228
  628SOL    HW1 1883   2.243   0.018   2.600  2.1036 -0.4035  2.3107
  628SOL    HW2 1884   2.218   0.174   2.660 -0.6850  4.4819  1.5350
  629SOL     OW 1885   0.923   0.656   2.894 -0.2149  0.3393  0.5790
  629SOL    HW1 1886   0.946   0.700   2.803  2.6972 -0.9211 -1.5589
  629SOL    HW2 1887   0.965   0.697   2.977 -1.3274  1.2859 -0.9175
  630SOL     OW 1888   1.225   0.261   2.069  0.3018 -0.0712 -0.2068
  630SOL    HW1 1889   1.158   0.307   2.124  1.7433 -1.7595 -3.6148
  630SOL    HW2 1890   1.274   0.189   2.124  1.1009 -0.1154  1.6245
  631SOL     OW 1891   2.784   0.858   0.702  0.2464  0.4813 -0.4967
  631SOL    HW1 1892   2.699   0.914   0.702 -1.5350  0.6905  0.8673
  631SOL    HW2 1893   2.762   0.758   0.718 -0.5823  1.9719 -2.6886
  632SOL     OW 1894   2.052   0.840   1.371 -0.2398  0.3739  0.0406
  632SOL    HW1 1895   2.012   0.895   1.451 -1.2479 -0.5392  2.9745
  632SOL    HW2 1896   2.032   0.744   1.390  0.9720  2.1411  0.6458
  633SOL     OW 1897   0.800   1.396   0.637  0.1447 -0.7478  0.0670
  633SOL    HW1 1898   0.800   1.495   0.623 -1.7609 -1.8335 -0.1079
  633SOL    HW2 1899   0.898   1.366   0.634 -0.9502  3.4939 -1.3831
  634SOL     OW 1900   2.067   3.067   0.971  0.0508  0.4638 -0.2556
  634SOL    HW1 1901   2.122   0.040   1.022  2.3366 -0.1269 -0.8809
  634SOL    HW2 1902   2.087   2.980   1.015 -1.2928  0.1081  0.1264
  635SOL     OW 1903   1.617   0.578   1.184  0.4022  0.3180  0.5702
  635SOL    HW1 1904   1.555   0.595   1.263  1.3940  0.6136 -0.9135
  635SOL    HW2 1905   1.683   0.655   1.177  1.1343  1.9908 -0.2928
  636SOL     OW 1906   0.987   1.079   0.529 -0.6619  0.4831 -0.1544
  636SOL    HW1 1907   1.030   1.170   0.560  1.0475  2.6627  0.3555
  636SOL    HW2 1908   0.918   1.056   0.599 -2.2221  0.5943  0.3930
  637SOL     OW 1909   2.496   2.207   2.882 -0.1182  0.2867  0.1636
  637SOL    HW1 1910   2.527   2.109   2.894 -2.1504 -0.8526  0.8713
  637SOL    HW2 1911   2.394   2.214   2.876 -1.7030  0.2118 -0.4842
  638SOL     OW 1912   1.476   2.583   2.562  0.0774  0.4999  0.1812
  638SOL    HW1 1913   1.556   2.652   2.559  2.3431  2.2681 -2.3737
  638SOL    HW2 1914   1.502   2.490   2.524  1.6902 -0.9748  1.6721
  639SOL     OW 1915   0.968   1.920   1.257  0.6224 -0.2163 -0.5815
  639SOL    HW1 1916   0.891   1.951   1.195  0.4028  1.0469 -0.7966
  639SOL    HW2 1917   1.046   1.980   1.235 -1.1069  1.3619  2.2252
  640SOL     OW 1918   2.407   2.881   0.494 -0.1281 -0.5602  0.0505
  640SOL    HW1 1919   2.344   2.879   0.417  1.3955  1.5761  1.2146
  640SOL    HW2 1920   2.362   2.931   0.571  1.0787  0.5355 -1.0010
  641SOL     OW 1921   0.318   0.120   0.318  0.7781 -0.5539  0.4648
  641SOL    HW1 1922   0.243   0.052   0.305  2.2516  1.6350  1.8099
  641SOL    HW2 1923   0.279   0.213   0.339 -1.3961 -2.3166  1.2227
  642SOL     OW 1924   2.796   0.786   1.201 -0.3595 -0.5123  0.1965
  642SOL    HW1 1925   2.743   0.702   1.192  1.3097  1.2474  0.1232
  642SOL    HW2 1926   2.791   0.845   1.113 -0.6968  0.5277 -1.6978
  643SOL     OW 1927   0.844   2.066   1.933 -0.3881 -0.0271 -0.3381
  643SOL    HW1 1928   0.813   2.145   1.987 -2.2069 -2.4007  0.7399
  643SOL    HW2 1929   0.931   2.083   1.883  1.8818 -1.1060 -0.4344
  644SOL     OW 1930   1.693   2.502   0.388  0.1937 -0.5692 -0.2667
  644SOL    HW1 1931   1.707   2.542   0.289 -0.9934  1.7199 -2.9188
  644SOL    HW2 1932   1.687   2.571   0.465 -0.4071 -0.1809 -0.3189
  645SOL     OW 1933   2.100   2.100   0.868  0.8117 -0.7476  0.1366
  645SOL    HW1 1934   2.091   2.001   0.848  0.3727 -0.0519 -0.0735
  645SOL    HW2 1935   2.021   2.135   0.930 -3.3900  0.4410  2.2525
  646SOL     OW 1936   1.103   2.746   0.108 -0.0965 -1.0695 -0.2088
  646SOL    HW1 1937   1.104   2.661   0.165 -1.1235 -2.4165 -1.3446
  646SOL    HW2 1938   1.194   2.797   0.109  0.2771 -0.4025 -1.0079
  647SOL     OW 1939   0.372   2.742   2.025 -0.0713 -0.0725  0.4708
  647SOL    HW1 1940   0.391   2.801   1.947  0.0406  2.6736  2.1303
  647SOL    HW2 1941   0.386   2.646   1.998  0.6539  2.2071  0.6144
  648SOL     OW 1942   1.785   0.812   1.146  0.2076  0.1903 -0.4661
  648SOL    HW1 1943   1.750   0.792   1.054 -1.2091 -0.6207 -0.6160
  648SOL    HW2 1944   1.889   0.822   1.142  3.3917 -0.6340  0.2637
  649SOL     OW 1945   1.383   2.292   3.004  0.4722  0.2660 -0.1793
  649SOL    HW1 1946   1.453   2.304   3.076  2.4786 -1.1822  1.2419
  649SOL    HW2 1947   1.411   2.223   2.935  1.0538  0.7528  0.4438
  650SOL     OW 1948   2.302   1.464   1.646  0.1753 -0.2981  0.0523
  650SOL    HW1 1949   2.366   1.548   1.657  0.3734  3.0073 -0.2199
  650SOL    HW2 1950   2.233   1.464   1.720 -0.1527  1.6745 -2.9886
  651SOL     OW 1951   1.668   2.388   2.985 -0.0345  0.1555 -0.1984
  651SOL    HW1 1952   1.590   2.441   3.020  2.0868 -0.2618 -0.4869
  651SOL    HW2 1953   1.715   2.445   2.915 -0.7831 -2.6456  0.1135
  652SOL     OW 1954   0.847   2.415   0.017 -0.3623 -0.4627 -0.0303
  652SOL    HW1 1955   0.787   2.395   3.033  1.1751 -2.7410 -1.6059
  652SOL    HW2 1956   0.936   2.455   3.086  2.2867 -1.9506 -0.4319
  653SOL     OW 1957   2.334   2.093   1.250  0.1455 -0.0804  0.4436
  653SOL    HW1 1958   2.375   2.151   1.175  1.1178 -0.5862 -0.3154
  653SOL    HW2 1959   2.233   2.088   1.237 -0.6758  0.1204 -0.0773
  654SOL     OW 1960   2.979   2.689   1.603  0.0023 -0.2209 -0.0729
  654SOL    HW1 1961   2.939   2.777   1.567 -0.2813 -2.8782  1.7881
  654SOL    HW2 1962   2.992   2.621   1.525  1.4875 -1.3520 -2.5756
  655SOL     OW 1963   3.091   2.183   1.210 -0.2156 -0.1380 -0.3129
  655SOL    HW1 1964   3.037   2.130   1.282 -1.6665 -0.0565  3.6831
  655SOL    HW2 1965   3.072   2.280   1.207  1.6088  0.5328  1.8590
  656SOL     OW 1966   2.999   2.799   2.629 -0.2580 -0.2064  0.0896
  656SOL    HW1 1967   3.054   2.740   2.691 -0.3492 -0.9444 -0.2954
  656SOL    HW2 1968   3.012   2.894   2.651  2.6687 -4.4312  0.8212
  657SOL     OW 1969   3.070   0.763   0.085 -0.3272  0.3857  0.0597
  657SOL    HW1 1970   2.982   0.812   0.107  2.2459 -1.7883  1.4986
  657SOL    HW2 1971   0.055   0.795   0.138  0.9902 -0.7656 -0.8108
  658SOL     OW 1972   2.222   1.800   0.849  0.1088  0.1598  0.4818
  658SOL    HW1 1973   2.248   1.800   0.752  0.6879 -2.7416  3.5078
  658SOL    HW2 1974   2.128   1.764   0.859  0.9870  2.1382 -1.2375
  659SOL     OW 1975   1.465   0.560   1.402  0.1700  0.0184  0.3165
  659SOL    HW1 1976   1.373   0.607   1.396 -1.2618  0.6911  0.0553
  659SOL    HW2 1977   1.460   0.461   1.418 -0.9178  0.6978  1.8364
  660SOL     OW 1978   1.539   1.588   0.005 -0.1604  0.4318  0.6938
  660SOL    HW1 1979   1.537   1.623   0.102 -0.9595 -0.0097 -1.2787
  660SOL    HW2 1980   1.567   1.491   0.007  2.8735  2.6656 -3.7772
  661SOL     OW 1981   0.114   2.030   0.404 -0.3144 -0.5425 -0.2093
  661SOL    HW1 1982   0.128   2.111   0.344  0.1128  0.8924  2.5050
  661SOL    HW2 1983   0.044   1.965   0.368  1.8403 -0.3861 -1.7492
  662SOL     OW 1984   0.020   0.758   2.180 -0.1973 -0.1169  0.5968
  662SOL    HW1 1985   0.031   0.793   2.276  1.9063  0.1906  0.2133
  662SOL    HW2 1986   0.029   0.842   2.121 -0.2983  2.2819 -0.2310
  663SOL     OW 1987   2.222   1.401   0.716 -0.2347  0.0882 -0.7066
  663SOL    HW1 1988   2.245   1.303   0.743  0.2518 -0.9992  0.9184
  663SOL    HW2 1989   2.213   1.452   0.806  2.0093 -0.9168  0.8635
  664SOL     OW 1990   0.566   0.414   1.303  0.3018  0.5167  0.2010
  664SOL    HW1 1991   0.666   0.413   1.293  0.5020 -0.1753  1.6941
  664SOL    HW2 1992   0.519   0.369   1.223 -2.1976 -1.6415 -1.5478
  665SOL     OW 1993   1.165   0.007   0.156 -0.3842  0.1983  0.1459
  665SOL    HW1 1994   1.202   3.021   0.114  1.2816 -0.5355  1.7988
  665SOL    HW2 1995   1.234   0.084   0.151 -0.0714 -0.5581 -3.2198
  666SOL     OW 1996   0.045   0.446   2.403  0.1434 -0.3385  0.3623
  666SOL    HW1 1997   3.083   0.385   2.459  1.5839 -2.2754 -1.1729
  666SOL    HW2 1998   0.043   0.419   2.304  2.6664 -0.9028 -0.7115
  667SOL     OW 1999   2.130   1.684   2.093  0.4281  0.6760 -0.5540
  667SOL    HW1 2000   2.173   1.591   2.110 -1.7879 -0.3460  2.2838
  667SOL    HW2 2001   2.028   1.669   2.084 -0.7745  2.2174  0.3727
  668SOL     OW 2002   0.422   1.830   2.816 -0.0915  0.7397  0.1018
  668SOL    HW1 2003   0.413   1.919   2.777  0.8458 -0.3056  1.3664
  668SOL    HW2 2004   0.372   1.760   2.761 -0.0987  2.5198 -0.4409
  669SOL     OW 2005   2.190   2.583   2.501 -0.4770 -0.1932 -0.2692
  669SOL    HW1 2006   2.201   2.503   2.433  1.5410 -1.9561 -0.9827
  669SOL    HW2 2007   2.093   2.607   2.513  0.6066  0.1004 -0.9638
  670SOL     OW 2008   2.568   1.081   2.313  0.3656 -0.2160  0.1268
  670SOL    HW1 2009   2.496   1.102   2.243 -0.6421  2.0944  1.0156
  670SOL    HW2 2010   2.571   0.984   2.344  2.1233 -0.8243  0.1814
  671SOL     OW 2011   2.430   1.253   0.181  0.4059  0.3856  0.0393
  671SOL    HW1 2012   2.502   1.213   0.115  1.3339  3.7607  0.4742
  671SOL    HW2 2013   2.443   1.351   0.194  1.0004 -0.4498  1.1290
  672SOL     OW 2014   2.713   1.317   2.309  0.3915  0.0408  0.7366
  672SOL    HW1 2015   2.699   1.327   2.410 -0.9747 -0.3191 -2.0077
  672SOL    HW2 2016   2.668   1.230   2.275  3.1432  0.5735 -1.5228
  673SOL     OW 2017   2.531   1.087   1.441 -0.4355  0.1322 -0.4273
  673SOL    HW1 2018   2.498   1.100   1.345 -1.0112  2.1730 -0.7068
  673SOL    HW2 2019   2.612   1.024   1.436 -0.1547 -2.6466 -0.5352
  674SOL     OW 2020   1.715   1.739   1.462 -0.3495  0.0741 -0.3028
  674SOL    HW1 2021   1.754   1.707   1.375 -0.9841 -0.4184  0.2608
  674SOL    HW2 2022   1.611   1.736   1.468 -0.8191  1.0940  1.1474
  675SOL     OW 2023   0.043   0.603   1.076 -0.2286 -0.0097 -0.4441
  675SOL    HW1 2024   0.084   0.698   1.087  0.1032 -0.1780 -0.8682
  675SOL    HW2 2025   0.106   0.519   1.083  0.5794  0.0369  0.6580
  676SOL     OW 2026   2.033   0.938   1.080  0.5046  0.1900  0.1362
  676SOL    HW1 2027   2.049   0.977   1.171  0.3487  1.1323  0.2868
  676SOL    HW2 2028   2.100   0.869   1.051 -2.8547  0.3872  0.4368
  677SOL     OW 2029   1.646   1.575   2.138  0.0773  0.2017  0.3698
  677SOL    HW1 2030   1.604   1.494   2.086 -0.4234  0.4085  0.0527
  677SOL    HW2 2031   1.570   1.635   2.167 -1.6809 -0.9849 -0.9494
  678SOL     OW 2032   2.944   1.858   0.930  0.1635  0.1856 -0.3195
  678SOL    HW1 2033   3.012   1.871   1.006  1.6045 -2.7476  0.5140
  678SOL    HW2 2034   2.866   1.794   0.954 -1.6239  3.0175 -0.0110
  679SOL     OW 2035   3.018   2.985   0.457  0.3945  0.6754  0.5831
  679SOL    HW1 2036   2.942   2.992   0.387  1.1367  1.4007 -0.0666
  679SOL    HW2 2037   2.991   2.923   0.531  0.7067 -1.3987 -0.3795
  680SOL     OW 2038   0.226   2.299   1.289 -0.3905  0.9416  0.4897
  680SOL    HW1 2039   0.314   2.255   1.261  2.6209 -2.7101 -0.9219
  680SOL    HW2 2040   0.141   2.250   1.270  1.2407  0.2205  0.1198
  681SOL     OW 2041   0.793   0.768   1.296 -0.4788 -0.0646  0.7100
  681SOL    HW1 2042   0.708   0.744   1.348  0.9988 -0.3034  2.0683
  681SOL    HW2 2043   0.857   0.690   1.293  1.7533  3.8134  1.8084
  682SOL     OW 2044   1.520   2.719   0.699 -0.2378 -0.0922  0.8960
  682SOL    HW1 2045   1.475   2.801   0.739 -1.6538 -0.2152 -0.1773
  682SOL    HW2 2046   1.581   2.669   0.765  0.3022 -0.2893 -4.2700
  683SOL     OW 2047   2.255   1.303   1.320  0.1420  0.5525  0.1541
  683SOL    HW1 2048   2.181   1.308   1.250 -0.6242  2.0361  2.6339
  683SOL    HW2 2049   2.323   1.231   1.297  0.2063  1.1156 -0.5018
  684SOL     OW 2050   0.488   1.857   1.762  0.2985 -0.0564  0.4178
  684SOL    HW1 2051   0.487   1.884   1.858  0.4246  0.1155 -2.6867
  684SOL    HW2 2052   0.451   1.761   1.747 -0.2202 -0.4151 -1.2837
  685SOL     OW 2053   2.424   1.768   0.201 -0.1263 -0.3667  0.4124
  685SOL    HW1 2054   2.418   1.715   0.286 -1.1202  0.2261  0.1164
  685SOL    HW2 2055   2.368   1.733   0.124  1.0004  1.7399  2.0105
  686SOL     OW 2056   2.954   0.295   0.550  0.0369 -0.3747 -0.6498
  686SOL    HW1 2057   2.903   0.261   0.469  0.7681  0.5118  2.7690
  686SOL    HW2 2058   2.948   0.393   0.558  0.9259 -0.2284 -0.1593
  687SOL     OW 2059   1.373   2.875   0.090  0.0188  0.3890  0.5603
  687SOL    HW1 2060   1.470   2.902   0.110  1.6974 -3.4462  1.0997
  687SOL    HW2 2061   1.360   2.862   3.088  1.0146 -2.9564  1.8394
  688SOL     OW 2062   1.726   2.045   2.194 -0.1678  0.7086 -0.1775
  688SOL    HW1 2063   1.748   1.953   2.236  2.7089  1.2802  1.5168
  688SOL    HW2 2064   1.797   2.081   2.130  0.1134 -0.3530  1.2930
  689SOL     OW 2065   2.636   1.016   1.904 -0.1350 -0.5702 -0.0175
  689SOL    HW1 2066   2.667   1.095   1.843  0.7954  0.8987 -2.3863
  689SOL    HW2 2067   2.534   1.006   1.913 -1.6709  0.4324 -1.0823
  690SOL     OW 2068   2.280   1.160   0.775 -0.0515  0.5221  0.8031
  690SOL    HW1 2069   2.340   1.148   0.852 -2.4290  0.1051 -4.3235
  690SOL    HW2 2070   2.215   1.079   0.760 -1.5677  0.1445  1.4222
  691SOL     OW 2071   0.958   1.279   1.241  0.0960  0.2405 -0.0457
  691SOL    HW1 2072   1.024   1.300   1.317 -0.9795  0.0909 -0.2461
  691SOL    HW2 2073   0.876   1.222   1.266 -1.1362  0.1574  0.8350
  692SOL     OW 2074   1.587   0.131   2.226 -0.1538  0.0270  0.1212
  692SOL    HW1 2075   1.571   0.045   2.174 -0.6399  1.4200  4.2072
  692SOL    HW2 2076   1.683   0.145   2.248 -0.5100  1.3254 -1.1894
  693SOL     OW 2077   0.308   1.253   2.926 -0.0302 -0.3330  0.2101
  693SOL    HW1 2078   0.329   1.184   3.003  0.8480 -1.1969 -1.6327
  693SOL    HW2 2079   0.300   1.202   2.840 -1.8985  0.6422  0.1257
  694SOL     OW 2080   2.158   2.790   0.811 -0.3170  0.2049 -0.3391
  694SOL    HW1 2081   2.191   2.883   0.784  1.2045 -0.4558  1.8149
  694SOL    HW2 2082   2.103   2.750   0.737  2.4285 -0.4158  1.5150
  695SOL     OW 2083   1.646   1.278   2.843 -0.5611 -0.8128 -0.6390
  695SOL    HW1 2084   1.634   1.289   2.947 -0.1351 -0.6775  0.0908
  695SOL    HW2 2085   1.723   1.334   2.809 -1.3965  1.2443  0.1775
  696SOL     OW 2086   1.760   0.241   1.528 -0.1870  0.1444 -0.9627
  696SOL    HW1 2087   1.756   0.341   1.525 -3.4961 -1.7997 -0.2828
  696SOL    HW2 2088   1.852   0.212   1.501  0.0621 -0.5952 -1.2684
  697SOL     OW 2089   1.681   0.359   1.874  0.4613 -0.4816  0.3789
  697SOL    HW1 2090   1.663   0.271   1.825 -1.6632  0.0020  2.6912
  697SOL    HW2 2091   1.600   0.408   1.912  0.6542  0.1855  1.5489
  698SOL     OW 2092   1.853   1.483   2.432  0.0592  0.2977  0.0228
  698SOL    HW1 2093   1.801   1.546   2.365 -2.0549  1.4236 -1.2134
  698SOL    HW2 2094   1.808   1.393   2.437  2.9062  0.1393 -2.3604
  699SOL     OW 2095   1.965   1.264   0.712  0.2503  0.5626  0.2044
  699SOL    HW1 2096   2.042   1.331   0.730 -1.5411 -0.9468  0.7903
  699SOL    HW2 2097   1.947   1.207   0.795 -2.4098 -0.3200 -1.4676
  700SOL     OW 2098   1.686   2.871   0.304  0.2275  0.8001 -0.5031
  700SOL    HW1 2099   1.686   2.781   0.259 -1.1323  1.5246 -0.5623
  700SOL    HW2 2100   1.649   2.939   0.238  1.0399  0.8661 -1.4542
  701SOL     OW 2101   0.234   0.310   1.369 -0.0198 -0.0656 -0.3318
  701SOL    HW1 2102   0.200   0.391   1.416  2.7831 -0.7250 -4.2893
  701SOL    HW2 2103   0.303   0.263   1.423  0.2261  2.6863  0.1589
  702SOL     OW 2104   1.680   2.948   1.620  0.0892 -0.0038  1.1039
  702SOL    HW1 2105   1.698   2.873   1.546  0.2953 -1.1926  2.7319
  702SOL    HW2 2106   1.592   3.002   1.614 -3.3874  2.5201  1.9233
  703SOL     OW 2107   2.601   2.888   2.193  0.7725  0.4894 -0.3434
  703SOL    HW1 2108   2.558   2.887   2.287 -2.9211 -0.3618  1.9101
  703SOL    HW2 2109   2.574   2.797   2.155  0.3040 -0.9236  2.0668
  704SOL     OW 2110   1.144   1.823   0.591 -0.3971 -0.0125  0.0444
  704SOL    HW1 2111   1.107   1.801   0.684 -0.5537 -2.0539  2.7909
  704SOL    HW2 2112   1.203   1.906   0.590 -0.8543  0.0533 -0.8684
  705SOL     OW 2113   3.077   1.710   2.094 -0.0197  0.4830  0.1100
  705SOL    HW1 2114   3.071   1.812   2.102  0.0759  2.4786  1.1198
  705SOL    HW2 2115   3.025   1.666   2.170  1.9248  1.6192 -0.0609
  706SOL     OW 2116   1.576   0.126   0.452  0.2643  0.1400 -0.1519
  706SOL    HW1 2117   1.498   0.066   0.438  3.8775 -0.5924 -1.8951
  706SOL    HW2 2118   1.647   0.108   0.381  0.3718  0.8737  0.4338
  707SOL     OW 2119   1.399   2.539   2.268  0.7721  0.0181  0.4134
  707SOL    HW1 2120   1.330   2.483   2.316 -0.2165 -0.4892  0.7389
  707SOL    HW2 2121   1.362   2.562   2.177 -0.3356 -1.7926 -1.0289
  708SOL     OW 2122   0.698   2.248   1.681  0.0743  0.4807 -0.5008
  708SOL    HW1 2123   0.651   2.163   1.648 -1.3544 -0.2956 -0.5298
  708SOL    HW2 2124   0.727   2.239   1.777  4.1410  4.6071  2.0393
  709SOL     OW 2125   2.457   0.637   1.897 -0.3554 -0.3712  0.2283
  709SOL    HW1 2126   2.553   0.633   1.935 -0.6568  1.0062  1.2964
  709SOL    HW2 2127   2.442   0.587   1.808  0.6752 -1.8824  0.2910
  710SOL     OW 2128   2.930   0.303   1.710  0.1851  0.7552  0.2509
  710SOL    HW1 2129   2.906   0.358   1.628  1.1400 -0.6992  0.7778
  710SOL    HW2 2130   3.019   0.319   1.750 -1.1590  1.2407 -2.2368
  711SOL     OW 2131   3.024   2.268   0.318  0.5066  0.1103 -0.0983
  711SOL    HW1 2132   0.001   2.251   0.249 -1.3525 -0.7914 -0.1459
  711SOL    HW2 2133   3.025   2.362   0.365 -0.0872 -0.3558  0.8574
  712SOL     OW 2134   0.275   2.765   2.699 -0.1857  0.1494 -0.1322
  712SOL    HW1 2135   0.319   2.843   2.649  0.0719  2.5047 -2.0271
  712SOL    HW2 2136   0.349   2.698   2.731  3.5426  0.4985  1.8001
  713SOL     OW 2137   1.844   0.597   0.347  0.0366 -0.3388 -0.2765
  713SOL    HW1 2138   1.752   0.585   0.304 -2.3410  2.7550 -2.9162
  713SOL    HW2 2139   1.832   0.651   0.432  1.5092  0.3496 -1.5513
  714SOL     OW 2140   1.523   1.896   0.572  0.4670  0.3693  0.0611
  714SOL    HW1 2141   1.437   1.950   0.581  0.6833  0.9284 -1.6905
  714SOL    HW2 2142   1.591   1.928   0.638 -2.5907  0.1578 -0.5033
  715SOL     OW 2143   0.019   0.334   0.151  0.8911  0.6843  0.4782
  715SOL    HW1 2144   3.031   0.395   0.166 -0.4174  1.9256 -1.0305
  715SOL    HW2 2145   0.093   0.360   0.220 -0.3659  2.4408 -0.0780
  716SOL     OW 2146   0.938   2.951   2.355  0.4706 -0.3770 -0.2925
  716SOL    HW1 2147   1.029   2.956   2.316 -1.5235  1.5199  0.5154
  716SOL    HW2 2148   0.892   2.862   2.348 -0.3273  0.7421  1.4070
  717SOL     OW 2149   0.376   0.514   2.982 -0.3552 -0.0793  0.1914
  717SOL    HW1 2150   0.450   0.486   2.912  0.3516  2.0102 -0.7733
  717SOL    HW2 2151   0.303   0.444   2.981 -0.9217 -1.1646  1.9863
  718SOL     OW 2152   1.036   0.669   0.646 -0.7437 -0.2499 -0.1079
  718SOL    HW1 2153   1.108   0.737   0.669 -0.4093  3.3483 -0.4650
  718SOL    HW2 2154   1.083   0.591   0.601 -2.9485  2.1929  2.8199
  719SOL     OW 2155   2.248   2.264   2.821 -0.5515  0.4856 -0.1462
  719SOL    HW1 2156   2.298   2.329   2.761  1.7661 -0.1040  1.6262
  719SOL    HW2 2157   2.170   2.307   2.868 -0.7718 -1.2844 -1.9494
  720SOL     OW 2158   1.579   1.085   1.983  0.1869  0.1570  0.1544
  720SOL    HW1 2159   1.630   1.067   1.894  0.6340  0.6647 -2.7945
  720SOL    HW2 2160   1.613   1.023   2.060  1.0154 -0.3514  2.6505
  721SOL     OW 2161   2.974   2.917   1.178  0.3276  0.0745 -0.4947
  721SOL    HW1 2162   2.898   2.903   1.246  0.8157 -0.1626  0.0921
  721SOL    HW2 2163   2.986   3.016   1.154 -1.3720  1.4451  1.3563
  722SOL     OW 2164   1.184   1.951   2.504  0.0428 -0.6208 -0.4473
  722SOL    HW1 2165   1.250   2.021   2.466 -0.4326  1.2232  1.8612
  722SOL    HW2 2166   1.222   1.855   2.503  2.2332 -0.2818 -2.7670
  723SOL     OW 2167   1.346   0.371   0.606 -0.1225  0.5085  0.3673
  723SOL    HW1 2168   1.307   0.438   0.672 -0.4964  2.5786 -0.3794
  723SOL    HW2 2169   1.443   0.399   0.587  3.8257 -0.6014  1.9420
  724SOL     OW 2170   0.738   1.970   2.729  0.0500 -0.2056  0.1539
  724SOL    HW1 2171   0.684   1.883   2.717 -0.2203 -0.3704 -2.4825
  724SOL    HW2 2172   0.733   2.003   2.830  1.5820 -1.5037  2.0074
  725SOL     OW 2173   3.000   0.630   1.304 -0.5706  0.0469  0.0562
  725SOL    HW1 2174   2.931   0.703   1.293 -0.5483  1.6060  0.2809
  725SOL    HW2 2175   3.036   0.599   1.212  0.7557  0.6951 -1.8030
  726SOL     OW 2176   1.914   0.052   0.531  0.3363  0.2435 -0.1106
  726SOL    HW1 2177   1.843   0.080   0.462 -2.8682  0.5918  1.0116
  726SOL    HW2 2178   1.865   0.033   0.617  0.5371  1.1973 -0.1488
  727SOL     OW 2179   1.937   1.027   2.153  0.0379  0.0459 -0.2921
  727SOL    HW1 2180   1.889   1.117   2.163 -0.1393  0.8805 -1.6356
  727SOL    HW2 2181   2.025   1.029   2.204 -2.5787  1.0219  2.2827
  728SOL     OW 2182   1.606   2.608   1.500  0.0982  0.2615 -0.3392
  728SOL    HW1 2183   1.524   2.659   1.468 -0.1434 -0.4535 -0.3669
  728SOL    HW2 2184   1.686   2.651   1.463 -0.7302  3.2164  1.7214
  729SOL     OW 2185   1.874   0.364   2.084 -0.0687 -0.1920 -0.1664
  729SOL    HW1 2186   1.916   0.458   2.082  0.4676 -0.4749  0.1789
  729SOL    HW2 2187   1.825   0.345   2.002  2.0063 -2.0805  0.3868
  730SOL     OW 2188   0.496   1.036   1.298 -0.3012  0.1685  0.2670
  730SOL    HW1 2189   0.513   0.941   1.328 -2.0027 -0.3049  0.0999
  730SOL    HW2 2190   0.414   1.080   1.349 -0.8645  0.0774  0.2529
  731SOL     OW 2191   0.740   3.089   0.158 -0.4139 -0.3860 -0.3770
  731SOL    HW1 2192   0.801   0.019   0.240 -0.6327  1.0428  2.6429
  731SOL    HW2 2193   0.668   0.064   0.149  2.2791 -3.1259  2.4225
  732SOL     OW 2194   0.612   0.927   0.560  0.0289 -0.1141  0.0408
  732SOL    HW1 2195   0.546   0.896   0.627 -0.4663  2.2907 -1.7214
  732SOL    HW2 2196   0.562   0.991   0.500 -0.8636 -0.5470  1.5031
  733SOL     OW 2197   1.417   1.411   1.736  0.3776  0.9189 -0.7522
  733SOL    HW1 2198   1.357   1.419   1.816  2.6736  0.9866  0.1507
  733SOL    HW2 2199   1.356   1.401   1.652  3.3490  0.0659 -1.1382
  734SOL     OW 2200   0.082   2.427   2.144  0.2908 -0.0679  0.3515
  734SOL    HW1 2201   0.121   2.464   2.061 -0.0549 -0.6736 -1.4417
  734SOL    HW2 2202   3.080   2.436   2.140  1.8137  1.7815  2.4144
  735SOL     OW 2203   1.309   0.189   1.081 -0.3957 -0.4504 -0.4290
  735SOL    HW1 2204   1.295   0.102   1.033  1.0621 -0.3497  0.1605
  735SOL    HW2 2205   1.262   0.265   1.042 -1.3603 -2.0088  1.5211
  736SOL     OW 2206   0.928   1.210   0.024  0.1175  0.4757 -0.8292
  736SOL    HW1 2207   0.920   1.149   0.109 -1.3542  0.4751 -0.1158
  736SOL    HW2 2208   1.000   1.281   0.029 -1.9369 -0.3313  0.5594
  737SOL     OW 2209   3.064   0.746   0.683 -0.5294 -0.6265  0.4653
  737SOL    HW1 2210   0.057   0.764   0.635 -1.0628  2.8814 -1.3637
  737SOL    HW2 2211   3.000   0.683   0.633  2.2509 -0.6494  2.7631
  738SOL     OW 2212   0.657   2.503   1.641 -0.1112  0.1862  0.2229
  738SOL    HW1 2213   0.632   2.518   1.540 -0.3920 -0.2680  0.3263
  738SOL    HW2 2214   0.694   2.410   1.654 -0.8937  2.5052 -0.1367
  739SOL     OW 2215   1.499   2.578   0.007  0.4143  0.2246 -0.5325
  739SOL    HW1 2216   1.462   2.556   0.101 -1.0891 -1.6584 -0.3147
  739SOL    HW2 2217   1.446   2.651   3.060 -1.6234  2.1222  0.4799
  740SOL     OW 2218   1.815   2.785   1.419  0.3811 -0.6266  0.0588
  740SOL    HW1 2219   1.895   2.782   1.478 -2.6910  3.9683  0.2360
  740SOL    HW2 2220   1.829   2.726   1.337  0.5974  2.1172  0.0910
  741SOL     OW 2221   2.075   0.366   0.762 -0.6881 -0.4394 -0.1504
  741SOL    HW1 2222   2.083   0.387   0.660 -0.2929  1.7121 -1.8682
  741SOL    HW2 2223   2.166   0.380   0.806 -0.8930 -1.4365  0.4717
  742SOL     OW 2224   1.225   2.381   2.409 -0.1914  0.2466  0.3690
  742SOL    HW1 2225   1.288   2.302   2.390 -0.8854 -0.1177 -1.3936
  742SOL    HW2 2226   1.192   2.379   2.502  3.7148 -2.5129  0.7304
  743SOL     OW 2227   2.242   0.793   1.935  0.3694  0.8529 -0.1629
  743SOL    HW1 2228   2.174   0.771   1.863 -1.6871 -0.2014  1.3485
  743SOL    HW2 2229   2.315   0.727   1.933 -1.2730  1.7587  0.8596
  744SOL     OW 2230   1.978   0.628   0.836  0.3504 -0.5303  0.0590
  744SOL    HW1 2231   2.054   0.693   0.852  0.2027  0.1936 -3.8520
  744SOL    HW2 2232   1.996   0.536   0.797  1.1981  2.9763 -1.9686
  745SOL     OW 2233   2.364   1.031   1.889  0.3957 -0.0644 -0.4008
  745SOL    HW1 2234   2.356   1.070   1.795 -0.0701  0.2566  0.5569
  745SOL    HW2 2235   2.300   0.955   1.906  0.6709 -0.7636  0.7479
  746SOL     OW 2236   1.199   1.530   0.534 -0.1401 -0.5531 -0.0910
  746SOL    HW1 2237   1.296   1.560   0.559  1.7539  3.1133  0.5710
  746SOL    HW2 2238   1.128   1.603   0.552 -2.7936 -0.3463  0.9452
  747SOL     OW 2239   1.949   1.677   0.810  0.4749 -0.6080  0.3659
  747SOL    HW1 2240   1.854   1.656   0.842  3.9284  1.1368  0.5015
  747SOL    HW2 2241   1.947   1.741   0.726  1.1218  0.5223 -1.0236
  748SOL     OW 2242   0.260   2.829   0.391  0.2216 -0.4819  0.0537
  748SOL    HW1 2243   0.268   2.803   0.489  1.3800  0.1829  0.3144
  748SOL    HW2 2244   0.349   2.819   0.343 -2.8066 -2.9052  1.1629
  749SOL     OW 2245   0.288   1.097   2.440 -0.0685  0.3244 -0.3006
  749SOL    HW1 2246   0.370   1.108   2.384 -3.6045  1.3367 -0.4340
  749SOL    HW2 2247   0.212   1.071   2.381 -0.1234  1.2812  2.4537
  750SOL     OW 2248   1.366   2.789   1.794  0.1948 -0.4379 -0.7279
  750SOL    HW1 2249   1.278   2.821   1.835  1.7335  1.7159 -0.3596
  750SOL    HW2 2250   1.443   2.820   1.854  2.5528  0.8627 -1.0745
  751SOL     OW 2251   2.637   0.646   0.149  0.6764 -0.7113 -0.0008
  751SOL    HW1 2252   2.706   0.677   0.219 -1.4288 -2.2156  3.1135
  751SOL    HW2 2253   2.607   0.550   0.170  1.1277  0.7487 -1.7144
  752SOL     OW 2254   0.111   2.098   0.660 -0.0756 -0.1492 -0.4233
  752SOL    HW1 2255   0.092   2.065   0.566  1.1677 -1.6279  1.2536
  752SOL    HW2 2256   0.055   2.183   0.666 -0.1221 -0.3908  2.0413
  753SOL     OW 2257   0.914   0.231   1.048 -0.5064  0.0016  0.5441
  753SOL    HW1 2258   0.914   0.144   0.997 -1.6192 -1.0366  1.8422
  753SOL    HW2 2259   0.838   0.292   1.020  0.1332  2.1831 -1.2471
  754SOL     OW 2260   0.512   0.111   2.282  0.3983  0.0970 -0.4205
  754SOL    HW1 2261   0.460   0.190   2.325 -3.6869  0.5080  0.3519
  754SOL    HW2 2262   0.486   0.023   2.327  2.2335  0.3853 -1.1391
  755SOL     OW 2263   1.972   0.931   2.900 -0.4864 -0.4185  0.3670
  755SOL    HW1 2264   2.025   0.943   2.990  2.6116  0.1138  1.4881
  755SOL    HW2 2265   1.887   0.871   2.913  0.4051  2.0509 -0.4421
  756SOL     OW 2266   2.387   2.132   2.464 -0.1508  0.4221 -0.1431
  756SOL    HW1 2267   2.410   2.157   2.367 -0.1438 -2.6872  0.0948
  756SOL    HW2 2268   2.451   2.060   2.500  0.6322 -2.9197 -0.8092
  757SOL     OW 2269   1.555   0.569   0.804 -0.1804  0.3747 -0.2107
  757SOL    HW1 2270   1.457   0.569   0.828 -1.6895 -0.3851 -2.3331
  757SOL    HW2 2271   1.602   0.478   0.812 -1.1634 -0.4416 -0.6792
  758SOL     OW 2272   1.573   0.289   1.091 -0.1650 -0.8168  0.0268
  758SOL    HW1 2273   1.476   0.255   1.068  0.0772 -1.9965 -0.4870
  758SOL    HW2 2274   1.576   0.392   1.102 -1.4093  2.0729 -1.7082
  759SOL     OW 2275   2.668   0.563   1.122 -1.0990 -0.1942 -0.4437
  759SOL    HW1 2276   2.666   0.487   1.193  2.3197  0.2629  0.9019
  759SOL    HW2 2277   2.750   0.536   1.059  3.1387 -1.8996 -1.1799
  760SOL     OW 2278   2.402   1.106   1.187  0.0921 -0.3632  0.3815
  760SOL    HW1 2279   2.446   1.124   1.096  1.5645  0.0165 -0.9986
  760SOL    HW2 2280   2.350   1.020   1.196 -0.1271  1.5396  1.7148
  761SOL     OW 2281   0.226   0.383   0.328  0.0088 -0.5458  0.0252
  761SOL    HW1 2282   0.274   0.452   0.277 -4.0928 -2.3127  0.3822
  761SOL    HW2 2283   0.193   0.422   0.417 -0.1844  1.7829  0.2888
  762SOL     OW 2284   1.700   2.000   1.205  0.8524 -0.0172 -0.8568
  762SOL    HW1 2285   1.765   1.959   1.136 -0.4562  3.2662  0.5877
  762SOL    HW2 2286   1.659   1.919   1.253 -0.5572  0.4507 -4.1527
  763SOL     OW 2287   1.224   1.496   1.952  0.5772  0.2511 -0.6499
  763SOL    HW1 2288   1.207   1.599   1.951 -0.2190 -0.5318 -1.3950
  763SOL    HW2 2289   1.141   1.441   1.933  0.7223  0.4067 -0.0363
  764SOL     OW 2290   3.083   1.868   2.550  0.6648 -0.2888 -0.3402
  764SOL    HW1 2291   2.991   1.840   2.508 -2.5895  2.3508 -2.1084
  764SOL    HW2 2292   3.065   1.906   2.643 -1.7517 -1.0062  0.4412
  765SOL     OW 2293   1.364   2.636   1.115  0.8206  0.1744  0.3688
  765SOL    HW1 2294   1.451   2.588   1.138  1.8723 -2.3130 -0.9781
  765SOL    HW2 2295   1.366   2.732   1.144 -0.7432 -1.5398 -1.9085
  766SOL     OW 2296   2.985   2.523   2.523  0.0012 -0.1915  0.1429
  766SOL    HW1 2297   2.977   2.617   2.564 -1.6881  0.8075 -0.9244
  766SOL    HW2 2298   2.939   2.450   2.579 -0.1890  0.6176  0.3629
  767SOL     OW 2299   1.322   0.853   2.303  0.3483  0.3749 -0.2444
  767SOL    HW1 2300   1.410   0.852   2.356 -3.0564  0.2529  0.5444
  767SOL    HW2 2301   1.275   0.761   2.297 -0.9374 -1.0338 -1.5262
  768SOL     OW 2302   1.236   2.054   0.032  0.4254 -0.3553 -0.1781
  768SOL    HW1 2303   1.286   2.140   0.019  0.8988 -0.1159 -3.0387
  768SOL    HW2 2304   1.230   2.005   3.039 -2.4071 -1.0445  0.6825
  769SOL     OW 2305   0.476   2.196   1.236  0.4860 -0.1188  0.3113
  769SOL    HW1 2306   0.490   2.099   1.258  2.2356 -1.6585  2.4723
  769SOL    HW2 2307   0.565   2.247   1.235 -0.7371 -1.1857 -0.6832
  770SOL     OW 2308   1.805   0.699   2.881  0.0663  0.4491  0.1001
  770SOL    HW1 2309   1.811   0.605   2.921  0.7356  3.3607  0.2084
  770SOL    HW2 2310   1.708   0.726   2.894  1.3298 -1.5027 -0.7409
  771SOL     OW 2311   0.168   0.111   2.232  0.3522 -0.0405  0.2235
  771SOL    HW1 2312   0.112   0.034   2.194 -1.9243 -1.5484  1.2133
  771SOL    HW2 2313   0.128   0.199   2.200  0.2108  1.6996  2.3292
  772SOL     OW 2314   1.945   2.719   2.043  0.8250  0.2171 -0.2098
  772SOL    HW1 2315   1.982   2.626   2.065 -2.1985 -1.8936  0.0100
  772SOL    HW2 2316   2.011   2.759   1.976  3.5535  2.0579 -0.8354
  773SOL     OW 2317   0.916   1.994   1.570  0.1505 -0.0042  0.1190
  773SOL    HW1 2318   0.923   2.007   1.470 -0.8275 -1.4776  2.6761
  773SOL    HW2 2319   0.968   2.070   1.618  1.9608  2.4840  2.1091
  774SOL     OW 2320   1.074   0.055   1.978 -0.0684  0.4669 -0.3016
  774SOL    HW1 2321   1.135   0.135   1.997 -2.0401 -0.2946  1.7681
  774SOL    HW2 2322   0.977   0.089   1.983  0.3398  0.3320  0.3803
  775SOL     OW 2323   2.301   2.766   0.024 -0.3808  0.1993 -0.0169
  775SOL    HW1 2324   2.257   2.683   3.079 -3.8794 -1.0346  0.0107
  775SOL    HW2 2325   2.403   2.753   0.013 -1.2024 -0.7879  0.9342
  776SOL     OW 2326   2.913   0.824   2.384 -0.6165  0.4002 -0.2749
  776SOL    HW1 2327   2.868   0.807   2.291 -1.6503 -0.5753 -0.4500
  776SOL    HW2 2328   2.857   0.878   2.451 -2.6234  1.2030 -0.8015
  777SOL     OW 2329   2.247   2.257   2.017 -0.3730  0.1088  0.6665
  777SOL    HW1 2330   2.231   2.285   2.113 -1.2067  0.5774 -1.3992
  777SOL    HW2 2331   2.173   2.292   1.959  1.2358 -0.5606 -0.3315
  778SOL     OW 2332   1.893   0.741   2.459  0.3600 -0.3299  0.1040
  778SOL    HW1 2333   1.924   0.686   2.539 -0.6163 -1.1667  3.9528
  778SOL    HW2 2334   1.951   0.715   2.379  1.1997 -0.7748 -0.8885
  779SOL     OW 2335   2.723   0.305   0.352 -0.6204  0.2404  0.1857
  779SOL    HW1 2336   2.692   0.228   0.412 -0.0996 -0.5267 -0.0221
  779SOL    HW2 2337   2.644   0.351   0.311  1.9615 -0.4023 -0.0734
  780SOL     OW 2338   2.512   0.415   0.184  0.4863 -0.1073  0.2992
  780SOL    HW1 2339   2.556   0.364   0.107 -2.0217 -1.2682  0.4961
  780SOL    HW2 2340   2.415   0.433   0.157 -0.1875  0.4607  0.4239
  781SOL     OW 2341   0.334   2.534   1.317 -0.0947 -0.0539  0.0867
  781SOL    HW1 2342   0.295   2.441   1.323  0.2033  2.0150 -0.2250
  781SOL    HW2 2343   0.263   2.602   1.283 -0.6178  2.2931 -0.5990
  782SOL     OW 2344   2.164   2.537   0.146  0.3187 -0.6949 -0.2038
  782SOL    HW1 2345   2.155   2.584   0.237 -1.0715 -2.2074 -1.3996
  782SOL    HW2 2346   2.259   2.516   0.130 -1.4186  0.5417  0.1811
  783SOL     OW 2347   0.745   1.119   1.335  0.1542  0.3787 -0.0049
  783SOL    HW1 2348   0.653   1.094   1.298 -2.1252  0.8710 -0.4750
  783SOL    HW2 2349   0.751   1.089   1.429  0.7750  1.2506 -2.4322
  784SOL     OW 2350   1.475   0.613   2.694  0.1532  0.3477  0.7669
  784SOL    HW1 2351   1.383   0.582   2.668 -0.1732  0.0794  0.2647
  784SOL    HW2 2352   1.464   0.706   2.734 -0.5572 -0.9405  1.6945
  785SOL     OW 2353   2.346   0.407   0.929 -0.3793  0.0258  0.0469
  785SOL    HW1 2354   2.399   0.336   0.979 -0.6416  0.4016  2.6867
  785SOL    HW2 2355   2.277   0.450   0.992 -3.4862 -0.1395  1.0821
  786SOL     OW 2356   1.182   2.426   1.990 -0.0043 -0.8012 -0.3522
  786SOL    HW1 2357   1.247   2.453   1.911  0.0482  1.3666 -3.1898
  786SOL    HW2 2358   1.227   2.342   2.035  0.0506 -2.8490 -0.0193
  787SOL     OW 2359   1.890   0.486   1.220  0.1729 -0.2609 -0.2086
  787SOL    HW1 2360   1.804   0.528   1.193  1.7813 -0.7684 -0.7021
  787SOL    HW2 2361   1.882   0.383   1.208 -1.0283 -3.7087  1.5560
  788SOL     OW 2362   0.198   0.811   0.551 -0.4259  0.4239 -0.2331
  788SOL    HW1 2363   0.287   0.817   0.598 -0.7082  0.0242  1.0222
  788SOL    HW2 2364   0.168   0.908   0.516 -1.5101  2.3196  1.1684
  789SOL     OW 2365   0.524   2.042   1.559 -0.1345  0.4126  0.2932
  789SOL    HW1 2366   0.447   2.103   1.562  1.3506 -2.4892  0.1135
  789SOL    HW2 2367   0.526   1.984   1.642 -0.2596 -0.9180  0.0877
  790SOL     OW 2368   0.815   0.674   2.365 -0.4199  0.3176  0.3928
  790SOL    HW1 2369   0.754   0.736   2.319  0.1237 -0.1669 -0.3125
  790SOL    HW2 2370   0.886   0.640   2.302 -2.4738 -0.8741 -1.6551
  791SOL     OW 2371   1.745   0.760   0.871  0.1748  0.4495 -0.4879
  791SOL    HW1 2372   1.662   0.703   0.849  0.6262 -2.7891 -0.1554
  791SOL    HW2 2373   1.824   0.713   0.845 -2.9541  1.8115 -0.7528
  792SOL     OW 2374   0.988   2.607   2.336 -0.2035 -0.3876  0.0539
  792SOL    HW1 2375   1.053   2.635   2.257  1.2377 -1.0697 -1.9555
  792SOL    HW2 2376   0.982   2.504   2.334 -1.1133 -0.3904 -1.2826
  793SOL     OW 2377   0.920   0.212   0.547  0.4700 -0.0273  0.3763
  793SOL    HW1 2378   0.826   0.247   0.564  0.0255  0.6707 -0.1704
  793SOL    HW2 2379   0.915   0.133   0.481 -1.7013 -1.3850 -0.1353
  794SOL     OW 2380   0.640   1.482   1.941 -0.2184  0.6553  0.6433
  794SOL    HW1 2381   0.673   1.439   2.024 -0.4514  0.9946  0.0154
  794SOL    HW2 2382   0.695   1.564   1.921  1.2112 -1.2025  3.9342
  795SOL     OW 2383   0.204   2.003   2.454  0.0721  0.0701  0.9775
  795SOL    HW1 2384   0.139   1.962   2.519  1.9093 -1.1556 -0.4579
  795SOL    HW2 2385   0.164   2.075   2.396  4.0937  0.2031  0.6961
  796SOL     OW 2386   2.417   0.581   2.312 -0.5340  0.2785  0.6236
  796SOL    HW1 2387   2.426   0.593   2.412 -0.6131  1.8231  0.0649
  796SOL    HW2 2388   2.365   0.662   2.275  0.2912 -0.1636 -0.9484
  797SOL     OW 2389   2.664   2.253   2.669  0.2798 -0.4714  0.3962
  797SOL    HW1 2390   2.623   2.310   2.595 -1.4959 -0.6057  2.6556
  797SOL    HW2 2391   2.597   2.219   2.740 -1.1750 -0.5505  0.2781
  798SOL     OW 2392   3.057   3.055   2.160 -0.0216  0.1901  0.2780
  798SOL    HW1 2393   2.970   3.060   2.215  0.9977 -0.3231 -1.0496
  798SOL    HW2 2394   3.042   2.993   2.082  2.4338 -0.5070  0.2251
  799SOL     OW 2395   0.153   2.453   2.400 -0.3952 -0.0866 -0.1489
  799SOL    HW1 2396   0.066   2.485   2.435  2.9767 -4.6585 -2.2383
  799SOL    HW2 2397   0.140   2.442   2.300 -1.7156 -0.0253  1.3137
  800SOL     OW 2398   0.206   2.199   0.243  0.0518  0.2591 -0.1900
  800SOL    HW1 2399   0.251   2.288   0.216  0.5480 -1.3766  0.8876
  800SOL    HW2 2400   0.269   2.123   0.214  1.8523 -0.0483 -0.3060
  801SOL     OW 2401   1.806   1.438   0.887 -0.0749 -0.0886  0.6537
  801SOL    HW1 2402   1.859   1.411   0.802 -1.8487  1.3385 -2.6430
  801SOL    HW2 2403   1.708   1.450   0.858  1.7221 -1.8772  1.0327
  802SOL     OW 2404   0.044   1.290   0.600 -0.5553  1.0396  0.1930
  802SOL    HW1 2405   3.094   1.199   0.575 -0.0843 -2.6522  1.6931
  802SOL    HW2 2406   0.104   1.278   0.681 -3.0110  0.5472 -1.3412
  803SOL     OW 2407   1.436   1.723   2.223  0.3205 -0.4791 -0.2377
  803SOL    HW1 2408   1.357   1.725   2.164  0.5329  1.2410  0.7517
  803SOL    HW2 2409   1.430   1.653   2.295 -2.1503  0.9699 -3.8416
  804SOL     OW 2410   1.753   1.519   0.473  0.0209 -0.1568  0.3329
  804SOL    HW1 2411   1.726   1.550   0.376 -0.9292  1.9721  0.4464
  804SOL    HW2 2412   1.842   1.566   0.498  0.7027 -1.1930 -0.3236
  805SOL     OW 2413   2.596   1.229   2.995  0.1864 -0.6138 -0.2228
  805SOL    HW1 2414   2.544   1.292   2.936 -1.9953  2.9911 -1.2202
  805SOL    HW2 2415   2.574   1.128   2.975 -0.0999 -0.9769 -1.6745
  806SOL     OW 2416   0.672   2.647   0.456 -0.0188 -0.5730  0.3382
  806SOL    HW1 2417   0.703   2.647   0.359  0.8001 -1.3286  0.8487
  806SOL    HW2 2418   0.663   2.742   0.482 -0.4829  0.0804  0.6855
  807SOL     OW 2419   2.292   1.607   2.507 -0.1786  0.5498 -0.4244
  807SOL    HW1 2420   2.222   1.681   2.516 -0.7007 -1.7125  0.4016
  807SOL    HW2 2421   2.246   1.516   2.484 -1.3975 -0.1771 -0.3446
  808SOL     OW 2422   0.909   1.594   1.034 -0.3088 -0.6240  0.7961
  808SOL    HW1 2423   0.899   1.499   1.003 -1.1479  0.6001  1.4650
  808SOL    HW2 2424   0.897   1.598   1.134 -2.3655 -1.4703 -3.3471
  809SOL     OW 2425   2.862   0.563   0.600  0.2463 -0.3591  0.0331
  809SOL    HW1 2426   2.804   0.559   0.684 -0.7720  2.0558  4.2622
  809SOL    HW2 2427   2.804   0.550   0.516 -1.0255  1.1492  1.0303
  810SOL     OW 2428   0.499   1.414   0.656 -0.0782 -0.4965 -0.3280
  810SOL    HW1 2429   0.484   1.510   0.700 -1.1984  2.3345  0.1357
  810SOL    HW2 2430   0.603   1.407   0.646  0.3789  0.0974 -2.1435
  811SOL     OW 2431   1.881   2.612   1.209  0.7440 -0.4574 -0.0573
  811SOL    HW1 2432   1.871   2.510   1.220  2.2362  2.4271 -0.2100
  811SOL    HW2 2433   1.824   2.651   1.129  0.5009 -0.5515 -2.6047
  812SOL     OW 2434   1.203   2.619   1.518 -0.1706  0.5609  0.3099
  812SOL    HW1 2435   1.265   2.692   1.546 -3.0224 -0.9243 -1.0370
  812SOL    HW2 2436   1.111   2.637   1.562  1.2916 -0.5524  1.7164
  813SOL     OW 2437   0.749   2.888   1.533  0.3486 -0.2073  0.7318
  813SOL    HW1 2438   0.721   2.876   1.630  1.2030 -1.5213 -1.5632
  813SOL    HW2 2439   0.727   2.980   1.489 -0.1192  0.6122  1.2879
  814SOL     OW 2440   1.028   2.719   2.588 -0.4748  0.3355  0.3120
  814SOL    HW1 2441   1.022   2.653   2.508  0.3489  1.0291  0.0253
  814SOL    HW2 2442   0.935   2.746   2.612  3.4767 -0.0925  0.5698
  815SOL     OW 2443   0.833   0.269   2.548  0.0372 -0.0286  1.0685
  815SOL    HW1 2444   0.796   0.192   2.484 -1.7078  0.1511 -2.7777
  815SOL    HW2 2445   0.775   0.354   2.539  0.5617  0.7249  0.7877
  816SOL     OW 2446   2.262   0.442   0.087 -0.0389 -0.8021 -0.3033
  816SOL    HW1 2447   2.165   0.450   0.125 -0.2675 -1.4137  0.9982
  816SOL    HW2 2448   2.269   0.495   0.001  0.4761 -1.1826  0.4877
  817SOL     OW 2449   2.151   2.886   1.893  0.2402  0.5308  0.5193
  817SOL    HW1 2450   2.207   2.959   1.925  0.3389 -2.2756 -3.4688
  817SOL    HW2 2451   2.081   2.918   1.822 -0.3201  2.5491  2.3942
  818SOL     OW 2452   1.091   0.607   0.344 -0.1930 -0.2833  0.0245
  818SOL    HW1 2453   1.018   0.598   0.274  1.4333 -2.2450  2.6943
  818SOL    HW2 2454   1.113   0.523   0.395 -0.0470  3.7592  0.3503
  819SOL     OW 2455   1.634   1.804   2.487  0.8803 -0.1250 -0.5264
  819SOL    HW1 2456   1.581   1.719   2.470  0.6126  1.5511 -0.2679
  819SOL    HW2 2457   1.715   1.811   2.421  1.3382  0.1205 -1.3578
  820SOL     OW 2458   0.226   1.690   3.003  0.4036 -0.2504 -0.0711
  820SOL    HW1 2459   0.286   1.657   2.933  0.0132 -1.5974  0.4955
  820SOL    HW2 2460   0.198   1.603   3.058 -1.6660 -2.7371 -0.8279
  821SOL     OW 2461   0.078   2.840   0.740 -0.3758 -0.2922  0.0035
  821SOL    HW1 2462   0.157   2.904   0.714  1.3812  0.3455 -0.9315
  821SOL    HW2 2463   0.104   2.789   0.825 -0.0369  3.0270 -2.8752
  822SOL     OW 2464   2.360   2.488   2.695 -0.6392 -0.3464 -0.0302
  822SOL    HW1 2465   2.296   2.529   2.627  1.1881 -0.0224  1.6467
  822SOL    HW2 2466   2.388   2.540   2.774 -3.3754 -1.6596 -1.5543
  823SOL     OW 2467   1.357   0.005   1.869  0.2295 -0.6813 -0.1374
  823SOL    HW1 2468   1.349   3.061   1.964  0.6217 -0.5194 -0.1800
  823SOL    HW2 2469   1.373   0.101   1.876 -2.4817 -0.3717 -1.5195
  824SOL     OW 2470   2.851   2.312   2.060  0.3954  0.6119 -0.3758
  824SOL    HW1 2471   2.835   2.345   2.156  1.9360 -2.4022  0.8321
  824SOL    HW2 2472   2.830   2.209   2.047 -1.2672 -3.4207 -0.0332
  825SOL     OW 2473   2.942   2.153   2.430 -0.5815  0.0839 -0.2015
  825SOL    HW1 2474   2.869   2.098   2.386  0.2777  0.5342  0.1046
  825SOL    HW2 2475   3.012   2.181   2.359  0.7419  0.0345  0.4508
  826SOL     OW 2476   2.435   0.656   2.568 -0.1775  0.0227 -0.3852
  826SOL    HW1 2477   2.461   0.604   2.659  2.4764 -3.0126  2.1106
  826SOL    HW2 2478   2.345   0.702   2.573 -1.9232 -1.0054  0.6713
  827SOL     OW 2479   2.656   2.137   1.426  0.5252 -0.0603 -0.2486
  827SOL    HW1 2480   2.618   2.138   1.523  1.6472 -0.2080  0.5903
  827SOL    HW2 2481   2.589   2.092   1.362  1.0193  0.9671 -2.7501
  828SOL     OW 2482   2.927   0.064   1.814 -0.3248 -0.9866  0.2011
  828SOL    HW1 2483   3.027   0.043   1.819  0.5844  1.1417  1.5592
  828SOL    HW2 2484   2.910   0.159   1.775 -1.8172  0.5060  2.5847
  829SOL     OW 2485   1.008   2.059   2.716 -0.6484 -0.6210  0.2342
  829SOL    HW1 2486   1.043   2.052   2.619 -0.7709  0.6264 -2.3258
  829SOL    HW2 2487   0.904   2.048   2.716  0.5023 -1.5304 -1.6428
  830SOL     OW 2488   0.894   0.964   1.136 -0.1462  0.7974 -0.7932
  830SOL    HW1 2489   0.871   0.870   1.170 -1.4209  3.5855 -1.0090
  830SOL    HW2 2490   0.826   1.027   1.174  0.2566  3.6905  0.5261
  831SOL     OW 2491   2.903   1.671   2.858  0.4751  0.1655  0.0167
  831SOL    HW1 2492   2.868   1.720   2.940 -0.1269  2.0262 -0.8975
  831SOL    HW2 2493   2.956   1.584   2.873  0.1276 -2.6895 -3.3709
  832SOL     OW 2494   1.809   2.338   2.237 -0.2423 -0.1431 -0.0331
  832SOL    HW1 2495   1.854   2.296   2.156  0.0729  2.5320  0.3418
  832SOL    HW2 2496   1.802   2.438   2.232  1.7669  1.6196 -1.3434
  833SOL     OW 2497   0.832   0.185   2.011 -0.4477 -0.1405  0.1151
  833SOL    HW1 2498   0.793   0.278   1.982 -0.0186  0.0650  1.3314
  833SOL    HW2 2499   0.798   0.160   2.100 -0.4456  0.5376 -3.0005
  834SOL     OW 2500   3.055   0.211   1.392 -0.1877  0.3822  0.5134
  834SOL    HW1 2501   2.986   0.287   1.399  1.9012 -0.2875 -0.2038
  834SOL    HW2 2502   0.039   0.252   1.350 -0.9643  1.2747  0.2668
  835SOL     OW 2503   2.686   0.737   2.954 -0.0510  0.0753 -0.4699
  835SOL    HW1 2504   2.666   0.696   3.046  2.1491 -1.5402 -3.7320
  835SOL    HW2 2505   2.752   0.668   2.907  1.1975 -2.5699  0.6068
  836SOL     OW 2506   1.553   2.101   0.130  0.3775 -0.3088  0.0150
  836SOL    HW1 2507   1.618   2.088   0.054 -1.0969 -0.3340  0.5038
  836SOL    HW2 2508   1.483   2.030   0.141 -0.1274  1.9681  1.1775
  837SOL     OW 2509   1.995   1.858   0.615  0.4173  0.4745 -0.4409
  837SOL    HW1 2510   2.000   1.780   0.545  3.8259 -1.2439  0.8685
  837SOL    HW2 2511   2.063   1.929   0.593  0.6683  0.9136  2.9391
  838SOL     OW 2512   1.568   0.836   2.440 -0.0571 -0.5722 -0.1692
  838SOL    HW1 2513   1.618   0.859   2.351  0.4068  1.1822 -1.9771
  838SOL    HW2 2514   1.626   0.812   2.519  1.5363  2.0270 -0.9306
  839SOL     OW 2515   0.793   1.389   2.155 -0.0218 -0.1872  0.0134
  839SOL    HW1 2516   0.774   1.328   2.230 -2.0780 -0.1065 -0.4653
  839SOL    HW2 2517   0.893   1.388   2.138 -2.1865 -0.5312 -0.1295
  840SOL     OW 2518   0.953   1.816   0.386  0.4587  0.2964 -0.1085
  840SOL    HW1 2519   0.872   1.882   0.399  0.0995  1.1624 -0.2131
  840SOL    HW2 2520   1.008   1.807   0.469  2.0741  0.7452 -0.3784
  841SOL     OW 2521   1.868   2.328   0.485 -0.0974  0.2459 -0.4350
  841SOL    HW1 2522   1.825   2.301   0.574  2.2837  0.6635 -1.6107
  841SOL    HW2 2523   1.804   2.393   0.432  1.7296  0.3218 -0.5562
  842SOL     OW 2524   0.373   0.546   0.170 -0.2511  0.3633 -0.4530
  842SOL    HW1 2525   0.464   0.568   0.210 -2.7169  0.6995 -1.7205
  842SOL    HW2 2526   0.387   0.509   0.079  0.6101  0.5688  2.8392
  843SOL     OW 2527   0.806   0.581   0.754 -0.4476 -0.5869  0.3540
  843SOL    HW1 2528   0.755   0.523   0.685 -1.3697 -0.7210  0.0430
  843SOL    HW2 2529   0.899   0.620   0.725  2.2397 -2.6880 -0.1733
  844SOL     OW 2530   2.847   0.033   2.847  0.2934 -0.3915  0.3898
  844SOL    HW1 2531   2.754   3.085   2.828  0.6317 -2.9210  0.2977
  844SOL    HW2 2532   2.910   3.097   2.772  3.6816 -1.4217 -3.0481
  845SOL     OW 2533   3.015   2.204   1.589 -0.2672  0.3145 -0.0675
  845SOL    HW1 2534   3.003   2.234   1.683 -0.1047  0.7591 -2.6112
  845SOL    HW2 2535   3.082   2.127   1.586 -0.0432 -1.5595  0.5866
  846SOL     OW 2536   2.568   1.649   2.128  0.6192 -0.0070  0.1350
  846SOL    HW1 2537   2.540   1.702   2.212 -0.1426  0.7320  3.3922
  846SOL    HW2 2538   2.620   1.564   2.155  1.3144 -0.4907 -1.4067
  847SOL     OW 2539   0.984   0.709   2.026  0.0243  0.4532 -0.6435
  847SOL    HW1 2540   0.967   0.640   2.099 -0.6368 -1.4912 -1.0074
  847SOL    HW2 2541   0.910   0.699   1.954 -1.7326  0.5027 -0.2047
  848SOL     OW 2542   2.728   2.791   2.787  0.0236 -0.2103  0.3110
  848SOL    HW1 2543   2.786   2.779   2.868 -3.4044  0.0715 -0.5927
  848SOL    HW2 2544   2.677   2.882   2.795 -0.6866  1.3821 -1.2954
  849SOL     OW 2545   0.414   2.984   3.080  0.0575 -0.2355 -0.3987
  849SOL    HW1 2546   0.434   3.084   3.075 -1.0868 -0.5131  0.2252
  849SOL    HW2 2547   0.331   2.964   3.026 -0.1857  1.5979 -1.4378
  850SOL     OW 2548   1.332   2.934   1.060 -0.2631 -0.0788 -0.0965
  850SOL    HW1 2549   1.421   2.938   1.112 -1.0657  0.0957 -0.6455
  850SOL    HW2 2550   1.346   2.904   0.961 -0.3108 -0.9087 -0.2211
  851SOL     OW 2551   2.649   0.457   2.376 -0.1036 -0.1692  0.1890
  851SOL    HW1 2552   2.566   0.500   2.331 -2.7211  0.9880 -0.0313
  851SOL    HW2 2553   2.735   0.475   2.323 -0.3426  3.3683  0.4893
  852SOL     OW 2554   1.511   0.400   2.282  0.0892  0.3104 -0.0272
  852SOL    HW1 2555   1.594   0.453   2.311 -0.2381  2.6456  1.3599
  852SOL    HW2 2556   1.533   0.326   2.213  0.8179 -2.5303  0.5319
  853SOL     OW 2557   0.119   3.046   0.254 -0.2538 -0.3129  0.3970
  853SOL    HW1 2558   0.029   3.037   0.309  0.0678  2.3439  2.0840
  853SOL    HW2 2559   0.191   2.984   0.295  0.4761  0.4032 -2.0136
  854SOL     OW 2560   2.328   1.153   2.140 -0.0539 -0.5638  0.1488
  854SOL    HW1 2561   2.390   1.239   2.151  0.7406 -0.1084  0.0831
  854SOL    HW2 2562   2.329   1.119   2.042  1.1869  1.9154 -0.3468
  855SOL     OW 2563   0.740   2.622   0.174  0.6082  0.5645 -0.7384
  855SOL    HW1 2564   0.782   2.537   0.135  1.4462  0.5996 -0.6454
  855SOL    HW2 2565   0.775   2.702   0.131 -2.1316 -3.7708 -0.3756
  856SOL     OW 2566   3.064   3.038   2.719 -0.2188 -0.3476  0.4532
  856SOL    HW1 2567   0.040   3.063   2.648  1.9054 -2.4989 -0.7859
  856SOL    HW2 2568   0.009   3.044   2.812  1.5178 -0.4031  0.8142
  857SOL     OW 2569   0.964   2.808   1.381 -0.2065 -0.5006  0.6427
  857SOL    HW1 2570   0.879   2.841   1.430  1.1847  1.1329 -0.3323
  857SOL    HW2 2571   0.962   2.707   1.381 -1.4715  0.7665  1.9117
  858SOL     OW 2572   2.506   2.134   1.652  0.0713  0.5295 -0.2472
  858SOL    HW1 2573   2.492   2.233   1.654 -1.6740 -3.5897  2.1793
  858SOL    HW2 2574   2.417   2.083   1.648  4.8410  0.6407  0.8469
  859SOL     OW 2575   1.773   1.983   1.583  0.0369  0.2206  0.2621
  859SOL    HW1 2576   1.775   1.892   1.535  0.2711  0.1859 -2.3509
  859SOL    HW2 2577   1.705   1.974   1.660  0.9121 -0.3092  1.1746
  860SOL     OW 2578   2.186   0.037   0.267  0.2269  0.2713 -0.1466
  860SOL    HW1 2579   2.122   0.083   0.202  2.1863  3.5775  1.4253
  860SOL    HW2 2580   2.199   0.104   0.345 -1.3543  1.1765  0.8909
  861SOL     OW 2581   2.686   0.065   0.521 -0.0168 -0.0238  0.0825
  861SOL    HW1 2582   2.738   0.011   0.590  1.0963  1.5442 -1.2080
  861SOL    HW2 2583   2.583   0.075   0.532 -0.9462  0.9698 -0.2389
  862SOL     OW 2584   1.290   2.783   2.543  0.2840 -0.1715  0.0970
  862SOL    HW1 2585   1.354   2.702   2.541  2.6609  0.1165  1.0087
  862SOL    HW2 2586   1.196   2.750   2.568 -0.5544 -0.4470  1.2973
  863SOL     OW 2587   0.347   0.587   1.303  0.1881 -0.3250  0.2477
  863SOL    HW1 2588   0.367   0.644   1.218  1.7472  0.5293 -0.2989
  863SOL    HW2 2589   0.395   0.498   1.303 -0.5643 -2.9267 -0.4151
  864SOL     OW 2590   0.085   3.075   1.806 -0.3730 -0.3248 -0.5967
  864SOL    HW1 2591   0.149   3.070   1.883  2.1127 -0.3758 -0.9670
  864SOL    HW2 2592   0.060   2.981   1.783  1.7399 -0.1523 -1.5880
  865SOL     OW 2593   0.623   1.173   0.092 -0.2924 -0.3752  0.4899
  865SOL    HW1 2594   0.652   1.268   0.102  1.2426  0.6054 -2.8788
  865SOL    HW2 2595   0.685   1.119   0.035  0.2233  5.3311  0.5780
  866SOL     OW 2596   2.876   0.451   0.175  0.1007  0.1463 -0.3717
  866SOL    HW1 2597   2.882   0.553   0.197  0.7461  1.2966  0.7198
  866SOL    HW2 2598   2.809   0.407   0.237 -1.3478 -0.7538  0.1404
  867SOL     OW 2599   2.831   2.751   3.026 -0.3874  0.7045 -0.5043
  867SOL    HW1 2600   2.892   2.773   0.007  3.4536 -0.2957  3.7549
  867SOL    HW2 2601   2.846   2.650   3.013  1.4183 -0.8429  0.3727
  868SOL     OW 2602   1.348   0.586   0.271  0.4900  0.2326  0.4754
  868SOL    HW1 2603   1.375   0.495   0.310  2.2984  0.6601 -0.1570
  868SOL    HW2 2604   1.258   0.625   0.299 -0.5342 -1.8289 -0.1117
  869SOL     OW 2605   2.513   1.471   0.289 -0.5659  0.6126  0.1648
  869SOL    HW1 2606   2.437   1.520   0.336  0.3167 -0.3732 -6.2764
  869SOL    HW2 2607   2.601   1.497   0.331  0.6794  2.8806 -1.5081
  870SOL     OW 2608   2.309   1.603   0.393  0.3756 -0.0919  0.1202
  870SOL    HW1 2609   2.254   1.516   0.401 -2.8838 -3.2791 -1.0645
  870SOL    HW2 2610   2.242   1.679   0.380  0.6724  3.2972  0.6243
  871SOL     OW 2611   1.429   1.397   1.060  0.2725 -0.2376 -0.1492
  871SOL    HW1 2612   1.347   1.430   1.111  0.9269  0.7571  1.0454
  871SOL    HW2 2613   1.495   1.357   1.131 -0.7631  0.4206  0.4961
  872SOL     OW 2614   1.239   1.515   1.559  0.1481 -0.6656 -0.3124
  872SOL    HW1 2615   1.203   1.444   1.495  0.5928 -0.8011 -0.6015
  872SOL    HW2 2616   1.170   1.583   1.589  0.2157  1.4929  0.7390
  873SOL     OW 2617   0.666   1.630   2.210 -0.3623  0.0700  0.0161
  873SOL    HW1 2618   0.627   1.634   2.305  1.0312  1.1264 -0.1505
  873SOL    HW2 2619   0.709   1.537   2.193  1.7883 -2.9084  0.3578
  874SOL     OW 2620   0.673   1.645   1.293 -0.1474  0.1891 -0.1414
  874SOL    HW1 2621   0.612   1.715   1.259  1.8219 -0.7501  3.6637
  874SOL    HW2 2622   0.642   1.555   1.264  0.3022 -1.3170 -0.3275
  875SOL     OW 2623   2.200   0.539   1.114 -0.5241 -0.7708  0.0378
  875SOL    HW1 2624   2.102   0.568   1.099  1.2246  0.5188 -0.0680
  875SOL    HW2 2625   2.223   0.559   1.213 -2.1363  0.9222  0.9103
  876SOL     OW 2626   1.045   0.772   0.009 -0.6037 -0.1918 -0.4834
  876SOL    HW1 2627   0.995   0.801   0.090  1.7841 -0.0314 -3.9638
  876SOL    HW2 2628   1.102   0.849   3.068  2.1011 -0.5551  0.4699
  877SOL     OW 2629   2.877   0.399   1.440 -0.4508 -0.0355 -0.4547
  877SOL    HW1 2630   2.783   0.385   1.400 -0.3229 -0.2321 -2.5828
  877SOL    HW2 2631   2.920   0.483   1.403  2.5124 -1.5657 -0.1165
  878SOL     OW 2632   1.764   2.329   0.121  0.7444  0.0422  0.0954
  878SOL    HW1 2633   1.857   2.297   0.133 -1.3798 -2.5158  0.8971
  878SOL    HW2 2634   1.739   2.338   0.025  1.8975 -0.9601  0.9820
  879SOL     OW 2635   2.418   1.878   1.406  0.0457 -0.8508  0.1011
  879SOL    HW1 2636   2.402   1.961   1.348  3.5631 -0.9334 -0.2332
  879SOL    HW2 2637   2.388   1.897   1.499  2.8624  1.9426 -1.8366
  880SOL     OW 2638   1.124   2.998   1.265 -0.1085 -0.3322  0.2304
  880SOL    HW1 2639   1.076   2.921   1.313  0.6225  2.5104  0.2380
  880SOL    HW2 2640   1.170   2.965   1.182  0.7885  0.7071 -1.4612
  881SOL     OW 2641   1.159   1.816   0.182  0.2450 -0.0755 -0.0457
  881SOL    HW1 2642   1.104   1.836   0.268 -1.6202 -1.0240 -1.3105
  881SOL    HW2 2643   1.196   1.906   0.148 -1.7686  2.3676 -1.1367
  882SOL     OW 2644   2.258   0.787   2.202  0.2396 -0.1094  0.4302
  882SOL    HW1 2645   2.269   0.874   2.253 -0.4116  0.6194  1.3270
  882SOL    HW2 2646   2.261   0.795   2.097 -0.2908  1.1051 -1.4010
  883SOL     OW 2647   1.423   0.440   1.943 -0.5399 -0.4236  0.4508
  883SOL    HW1 2648   1.409   0.537   1.918  1.0839 -2.7820 -1.1725
  883SOL    HW2 2649   1.342   0.404   1.989  1.6350  3.2088 -2.9510
  884SOL     OW 2650   2.844   0.089   0.018  0.3491 -0.6529 -0.0763
  884SOL    HW1 2651   2.945   0.107   0.019  1.4494  0.5065  0.7784
  884SOL    HW2 2652   2.831   0.056   3.020  2.6106 -1.1334 -1.4256
  885SOL     OW 2653   0.690   1.914   0.367  0.3860  0.1820  0.7010
  885SOL    HW1 2654   0.636   1.834   0.398 -1.5072 -1.2673 -2.0795
  885SOL    HW2 2655   0.668   1.990   0.433  0.0448 -0.2563  1.1931
  886SOL     OW 2656   1.853   1.506   2.745  0.1311  0.1293  0.9959
  886SOL    HW1 2657   1.895   1.487   2.652  1.1448  1.1243  0.0893
  886SOL    HW2 2658   1.838   1.605   2.758  2.6069 -1.2782  1.2871
  887SOL     OW 2659   1.802   0.528   1.672 -0.3223  0.2662  0.1702
  887SOL    HW1 2660   1.738   0.600   1.702 -0.0982 -0.3259  2.0946
  887SOL    HW2 2661   1.777   0.438   1.712  0.5542 -0.7286  1.7195
  888SOL     OW 2662   2.563   0.856   1.666 -0.5867 -0.0473 -0.2768
  888SOL    HW1 2663   2.607   0.835   1.755  0.8756  1.4938  0.8614
  888SOL    HW2 2664   2.625   0.913   1.613 -1.3222 -2.0515 -2.3662
  889SOL     OW 2665   2.902   2.799   0.661  0.0298 -0.3487  0.1900
  889SOL    HW1 2666   2.874   2.705   0.659  1.7805  3.9883  1.3335
  889SOL    HW2 2667   2.979   2.814   0.726 -1.8844  2.7671  1.4876
  890SOL     OW 2668   2.871   2.487   2.986 -0.0108  0.5202  0.0078
  890SOL    HW1 2669   2.844   2.443   3.076 -1.7623 -0.1902  4.5739
  890SOL    HW2 2670   2.942   2.428   2.938 -1.1289 -2.1079 -1.6801
  891SOL     OW 2671   0.895   1.612   2.871 -0.2033 -0.4597  0.7311
  891SOL    HW1 2672   0.892   1.663   2.959 -0.0990 -2.5064 -0.4487
  891SOL    HW2 2673   0.982   1.633   2.823 -0.3151 -0.6719  1.4990
  892SOL     OW 2674   0.227   3.054   0.922  0.5688  0.0367 -0.5551
  892SOL    HW1 2675   0.224   3.070   0.821  0.2241 -0.4681 -1.6224
  892SOL    HW2 2676   0.222   2.950   0.933  1.7816 -1.6781  0.5995
  893SOL     OW 2677   0.634   2.828   1.248  0.5016  0.1483 -0.2631
  893SOL    HW1 2678   0.620   2.930   1.241  2.2274 -0.2052 -1.6173
  893SOL    HW2 2679   0.731   2.812   1.224  1.4596  1.9043 -1.2148
  894SOL     OW 2680   2.905   1.326   0.807  0.6521  0.4130  0.7067
  894SOL    HW1 2681   2.822   1.325   0.750  2.8583  1.8951 -0.0012
  894SOL    HW2 2682   2.970   1.254   0.778 -0.7161 -0.0179  2.0352
  895SOL     OW 2683   2.775   2.503   1.654  0.5853  0.2106 -0.3984
  895SOL    HW1 2684   2.841   2.457   1.710 -1.5014  2.5720  0.1825
  895SOL    HW2 2685   2.821   2.595   1.634  0.9996  1.4539  0.9728
  896SOL     OW 2686   0.978   0.382   1.732  0.4917  0.0176 -0.3291
  896SOL    HW1 2687   0.899   0.374   1.794 -1.9966 -2.2467  2.1759
  896SOL    HW2 2688   1.020   0.291   1.725 -1.2451  1.5246 -0.1840
  897SOL     OW 2689   0.975   1.385   1.594 -0.0487 -0.4495  0.0140
  897SOL    HW1 2690   1.048   1.344   1.537 -3.1169 -1.9605  1.5469
  897SOL    HW2 2691   0.923   1.462   1.548 -1.2918 -1.3905  1.1495
  898SOL     OW 2692   1.336   2.521   1.789 -0.7553 -0.6006  0.4176
  898SOL    HW1 2693   1.374   2.616   1.794  3.4282  0.0649  1.6377
  898SOL    HW2 2694   1.378   2.469   1.708 -2.0352 -2.5455 -2.8951
  899SOL     OW 2695   0.808   0.766   0.454  0.2510  0.1557  0.1586
  899SOL    HW1 2696   0.734   0.823   0.497  1.3676  0.4516  0.6441
  899SOL    HW2 2697   0.879   0.735   0.522 -0.1644  1.6612  1.7364
  900SOL     OW 2698   1.501   2.233   1.847 -0.3971  0.5469  0.0377
  900SOL    HW1 2699   1.486   2.264   1.750  2.3537  1.4231  3.4655
  900SOL    HW2 2700   1.569   2.293   1.895  0.4493  1.7348  1.6324
  901SOL     OW 2701   1.068   2.262   0.352  0.4209 -0.5192  0.3519
  901SOL    HW1 2702   1.010   2.237   0.434 -2.9040  0.0486 -0.8852
  901SOL    HW2 2703   1.055   2.195   0.275 -0.9344  1.2302  0.6733
  902SOL     OW 2704   1.915   1.215   0.057 -0.0436  0.2845  0.7572
  902SOL    HW1 2705   1.998   1.247   0.103 -1.5792  1.0941 -0.8221
  902SOL    HW2 2706   1.925   1.213   3.056  2.7517 -1.1290  0.5552
  903SOL     OW 2707   2.166   1.166   0.216 -0.3320 -0.5543 -0.3113
  903SOL    HW1 2708   2.260   1.205   0.201  2.1015  0.0274 -1.0690
  903SOL    HW2 2709   2.146   1.104   0.145  3.1421  1.0017  1.6817
  904SOL     OW 2710   0.807   1.350   2.906  0.4537 -0.3918  0.2900
  904SOL    HW1 2711   0.864   1.435   2.904 -2.0474 -2.2451  0.2646
  904SOL    HW2 2712   0.829   1.290   2.985 -1.6905  0.5899 -2.4548
  905SOL     OW 2713   1.827   0.217   1.181  0.2283 -0.1822 -0.4640
  905SOL    HW1 2714   1.866   0.208   1.089 -1.2817  0.1332  1.3684
  905SOL    HW2 2715   1.721   0.220   1.167 -3.9551  0.0729 -0.0121
  906SOL     OW 2716   3.047   2.452   1.159  0.2786  0.0610  0.0321
  906SOL    HW1 2717   2.949   2.429   1.139 -2.1302 -0.4050  0.1587
  906SOL    HW2 2718   0.019   2.423   1.085  1.4379  2.5754 -2.4816
  907SOL     OW 2719   0.869   0.870   0.202 -0.1487 -0.2464  0.3554
  907SOL    HW1 2720   0.868   0.972   0.208 -1.0505 -0.6303 -0.6690
  907SOL    HW2 2721   0.839   0.828   0.291 -0.0849 -1.0649 -1.1939
  908SOL     OW 2722   1.564   2.869   1.201  0.2076  0.0288  0.2001
  908SOL    HW1 2723   1.628   2.825   1.133  0.8810  0.1094  4.7834
  908SOL    HW2 2724   1.575   2.824   1.289  1.0366  0.5917  1.4115
  909SOL     OW 2725   2.092   1.263   1.581  0.0273  0.3559  0.2654
  909SOL    HW1 2726   2.102   1.334   1.652  0.5680 -1.1066  3.4445
  909SOL    HW2 2727   2.148   1.275   1.501 -4.5331  0.7438  0.7163
  910SOL     OW 2728   1.512   2.988   2.122 -0.2991  0.5068  0.1218
  910SOL    HW1 2729   1.524   2.921   2.202  2.0549 -0.6885  0.7572
  910SOL    HW2 2730   1.556   2.941   2.041 -0.7055  0.2421 -0.8668
  911SOL     OW 2731   2.790   0.956   2.609  0.3892 -0.3305 -0.3340
  911SOL    HW1 2732   2.778   1.049   2.652  0.1465  2.8595 -2.2630
  911SOL    HW2 2733   2.837   0.893   2.671 -0.1556  1.5982  1.6146
  912SOL     OW 2734   0.109   1.378   1.569  0.1889 -0.1175 -0.0338
  912SOL    HW1 2735   0.027   1.333   1.592  2.5536  2.2250 -2.6589
  912SOL    HW2 2736   0.183   1.364   1.636  0.7997  1.0776 -0.5321
  913SOL     OW 2737   3.045   2.489   1.444  0.1662 -0.3309 -0.5791
  913SOL    HW1 2738   3.016   2.405   1.497  0.3982  0.2925 -0.5012
  913SOL    HW2 2739   3.032   2.476   1.340 -0.7783 -0.3313 -3.0375
  914SOL     OW 2740   1.707   0.995   1.759 -0.5208  0.3682 -0.7026
  914SOL    HW1 2741   1.685   0.904   1.718  0.1287  1.9206 -0.2862
  914SOL    HW2 2742   1.683   1.071   1.695  0.3199  0.3727  2.8622
  915SOL     OW 2743   1.978   0.581   1.456 -0.2704  0.3868  0.2789
  915SOL    HW1 2744   1.912   0.574   1.535  1.2534 -0.1783 -0.3894
  915SOL    HW2 2745   1.931   0.560   1.369 -1.7753  1.1430  0.5339
  916SOL     OW 2746   2.712   2.604   1.187  0.5832 -0.2869 -0.1140
  916SOL    HW1 2747   2.733   2.554   1.273 -0.0378  0.5614  1.4694
  916SOL    HW2 2748   2.625   2.575   1.149 -0.0520 -0.9739  1.0682
  917SOL     OW 2749   2.005   1.892   3.057  0.2732 -0.4800  0.1793
  917SOL    HW1 2750   2.052   1.923   0.047  0.7565  1.0711  1.9685
  917SOL    HW2 2751   2.072   1.901   2.983 -1.3998  0.0282  3.0414
  918SOL     OW 2752   1.676   2.778   2.533  0.0115 -0.4117 -0.4468
  918SOL    HW1 2753   1.751   2.823   2.473  2.5911 -1.8170 -1.8975
  918SOL    HW2 2754   1.646   2.837   2.610 -3.5928  0.9330 -0.1846
  919SOL     OW 2755   1.237   2.476   1.303 -0.7868  0.0199 -0.4332
  919SOL    HW1 2756   1.259   2.528   1.217 -0.2766  0.9506 -0.7002
  919SOL    HW2 2757   1.221   2.548   1.379  2.1497  2.4218 -0.1255
  920SOL     OW 2758   2.880   0.384   2.214  0.0509 -0.2280 -0.2471
  920SOL    HW1 2759   2.815   0.341   2.151  2.1775  2.1361 -1.0676
  920SOL    HW2 2760   2.928   0.311   2.268  0.2961 -0.0288  0.9160
  921SOL     OW 2761   3.043   0.980   1.595  0.0296  0.0978  0.4061
  921SOL    HW1 2762   3.034   1.076   1.628  1.8360 -0.5351 -0.7461
  921SOL    HW2 2763   3.074   0.905   1.660  0.1190  0.3968 -0.3058
  922SOL     OW 2764   2.094   2.061   0.375 -0.0179 -0.3531  0.5611
  922SOL    HW1 2765   2.129   2.112   0.457 -1.9597 -0.6837  2.7805
  922SOL    HW2 2766   1.999   2.091   0.356  0.1775 -1.3447  0.9058
  923SOL     OW 2767   0.798   1.939   0.128  0.0300  0.1868 -0.4082
  923SOL    HW1 2768   0.815   1.847   0.092 -0.2573 -0.3399  1.4800
  923SOL    HW2 2769   0.771   1.942   0.231 -0.5403 -1.4289  4.5812
  924SOL     OW 2770   1.324   0.422   2.999  0.2309  0.3367 -0.4652
  924SOL    HW1 2771   1.243   0.442   2.941 -3.2469 -2.6860  0.8682
  924SOL    HW2 2772   1.377   0.503   3.024 -1.0909 -2.3518  1.5555
  925SOL     OW 2773   2.461   0.432   0.695 -0.0315 -0.2342 -0.5661
  925SOL    HW1 2774   2.486   0.354   0.634 -0.8438  1.1778  2.1888
  925SOL    HW2 2775   2.410   0.405   0.781 -2.6856 -1.8702 -0.2231
  926SOL     OW 2776   0.524   0.153   1.161  0.2222  0.5581 -0.0653
  926SOL    HW1 2777   0.445   0.085   1.159 -1.3103  1.1148 -0.4440
  926SOL    HW2 2778   0.594   0.119   1.228  0.1591  1.1405  1.6450
  927SOL     OW 2779   0.018   1.412   2.456 -0.6430 -0.4030 -0.3234
  927SOL    HW1 2780   0.061   1.507   2.475  0.5275 -0.5367 -0.4580
  927SOL    HW2 2781   0.061   1.377   2.369  4.3504  1.3734  1.6719
  928SOL     OW 2782   3.037   0.397   2.776 -0.0941 -0.4786  0.0646
  928SOL    HW1 2783   3.041   0.456   2.856  1.4695 -1.8367 -1.5449
  928SOL    HW2 2784   2.952   0.342   2.778 -1.9340 -2.7064 -0.8013
  929SOL     OW 2785   2.497   0.106   1.499  0.5223 -0.3015 -0.3264
  929SOL    HW1 2786   2.569   0.093   1.435 -3.4551 -0.7895  1.0411
  929SOL    HW2 2787   2.488   0.022   1.559 -0.6051 -1.2039  3.2064
  930SOL     OW 2788   1.899   0.872   1.919 -0.0502  0.1485 -0.2316
  930SOL    HW1 2789   1.826   0.902   1.854  1.5591  1.5080 -2.8993
  930SOL    HW2 2790   1.922   0.947   1.987  0.5783 -0.9468 -1.2794
  931SOL     OW 2791   2.273   1.139   2.997 -0.0758 -0.0767 -0.5965
  931SOL    HW1 2792   2.342   1.079   2.951  0.1330 -1.2181 -0.4552
  931SOL    HW2 2793   2.194   1.086   3.032  0.0774  0.8785  3.2391
  932SOL     OW 2794   2.600   1.046   0.751 -0.3324  0.1143 -0.2525
  932SOL    HW1 2795   2.577   1.121   0.815  0.7913  0.0770 -0.9644
  932SOL    HW2 2796   2.595   1.072   0.653 -0.7704 -0.4408  1.3477
  933SOL     OW 2797   2.519   1.773   0.790 -0.3534 -0.0489 -0.7648
  933SOL    HW1 2798   2.447   1.777   0.721 -3.3371 -1.6697  2.1328
  933SOL    HW2 2799   2.497   1.840   0.867 -0.0854  0.4615  1.9052
  934SOL     OW 2800   1.989   0.443   2.558  0.0538 -0.0545  0.1978
  934SOL    HW1 2801   2.019   0.431   2.462  0.4103 -0.6588 -0.3843
  934SOL    HW2 2802   1.914   0.384   2.585  1.9288  3.8823  0.0268
  935SOL     OW 2803   0.185   1.472   0.446 -0.0676  0.1726 -0.7369
  935SOL    HW1 2804   0.121   1.407   0.496  1.8088 -1.2404 -0.1686
  935SOL    HW2 2805   0.275   1.430   0.430 -1.6603  3.1383  0.4987
  936SOL     OW 2806   0.217   0.270   0.700  0.0649  0.3177  0.4128
  936SOL    HW1 2807   0.157   0.230   0.772  0.6439  0.6530  0.9058
  936SOL    HW2 2808   0.212   0.219   0.616  2.3503  1.6981  1.8979
  937SOL     OW 2809   2.677   3.087   1.310 -0.3924  0.2819  0.4813
  937SOL    HW1 2810   2.607   3.060   1.243 -0.1945  0.8466  0.0692
  937SOL    HW2 2811   2.756   0.027   1.259 -2.5117 -0.6332  2.4471
  938SOL     OW 2812   2.793   2.411   0.151 -0.9601  0.0129  0.2360
  938SOL    HW1 2813   2.768   2.499   0.200  1.9194  3.1926 -2.1080
  938SOL    HW2 2814   2.858   2.351   0.199 -0.9186  0.9522  1.2333
  939SOL     OW 2815   0.688   1.918   0.748  0.0983 -0.2587 -0.1580
  939SOL    HW1 2816   0.677   1.885   0.842 -0.7741  3.4987 -3.2382
  939SOL    HW2 2817   0.606   1.956   0.701  0.4777 -2.3268  1.8532
  940SOL     OW 2818   0.228   0.305   3.038 -0.1471 -0.1301 -0.3295
  940SOL    HW1 2819   0.146   0.308   0.002  1.7805  0.5914  0.2991
  940SOL    HW2 2820   0.214   0.230   2.968 -2.0520  0.4965  0.7049
  941SOL     OW 2821   1.591   0.371   2.769 -0.1429 -0.1523 -0.1653
  941SOL    HW1 2822   1.565   0.324   2.687  2.5451  1.3503  1.7490
  941SOL    HW2 2823   1.565   0.468   2.760  1.4776 -0.6357  0.6584
  942SOL     OW 2824   1.073   0.772   1.664 -0.3301  0.3828 -0.3545
  942SOL    HW1 2825   1.002   0.699   1.648 -1.5231  0.7263  0.2226
  942SOL    HW2 2826   1.143   0.742   1.735  1.3472  2.0413  5.3988
  943SOL     OW 2827   1.306   1.103   1.941 -0.1281  0.0913  0.1240
  943SOL    HW1 2828   1.407   1.101   1.967 -0.0218  0.8137  1.6251
  943SOL    HW2 2829   1.259   1.033   1.993  0.2985  1.4091 -2.1662
  944SOL     OW 2830   1.968   0.962   1.611  0.1868 -0.5332 -0.3186
  944SOL    HW1 2831   1.888   1.025   1.633 -0.9904 -0.6701 -1.4921
  944SOL    HW2 2832   2.056   1.006   1.645  3.2654  1.1785  2.1409
  945SOL     OW 2833   2.802   3.086   0.265 -0.0916  0.2977 -0.7164
  945SOL    HW1 2834   2.771   0.043   0.344 -0.3424 -3.0947 -1.0877
  945SOL    HW2 2835   2.806   0.046   0.185 -2.6207 -0.4823  5.1862
  946SOL     OW 2836   2.722   0.832   2.189  0.2164  0.4209  0.3573
  946SOL    HW1 2837   2.690   0.909   2.138 -0.9020 -3.5856  2.2119
  946SOL    HW2 2838   2.681   0.826   2.281  1.1554 -1.3523  0.5941
  947SOL     OW 2839   1.024   2.927   0.497 -0.2870  0.3742 -0.6349
  947SOL    HW1 2840   0.998   2.910   0.597 -0.7609 -1.5091  0.2362
  947SOL    HW2 2841   1.049   2.841   0.451  0.7171  0.9321  1.0137
  948SOL     OW 2842   2.328   1.631   1.399 -0.2237  0.1909 -0.4748
  948SOL    HW1 2843   2.360   1.722   1.425 -0.6272 -0.6015 -0.0283
  948SOL    HW2 2844   2.326   1.566   1.476  2.7884 -1.8722 -2.6705
  949SOL     OW 2845   0.533   1.460   2.954  0.0344  0.1668  0.9107
  949SOL    HW1 2846   0.464   1.398   2.919  0.4852  0.5601  0.1905
  949SOL    HW2 2847   0.629   1.426   2.928  1.9428  2.1496  0.3463
  950SOL     OW 2848   0.552   2.484   0.900 -0.3681 -0.1531  0.0751
  950SOL    HW1 2849   0.519   2.508   0.803 -1.9229  1.2907  1.8228
  950SOL    HW2 2850   0.502   2.400   0.929 -1.2141 -0.1710 -1.1243
  951SOL     OW 2851   0.777   1.209   2.403  0.1022  0.0743 -0.2638
  951SOL    HW1 2852   0.860   1.160   2.367  2.6718 -2.2687 -2.5609
  951SOL    HW2 2853   0.723   1.147   2.464 -1.1964 -1.2583 -2.4954
  952SOL     OW 2854   0.178   1.058   0.447 -0.1314  0.0388  0.5446
  952SOL    HW1 2855   0.244   1.126   0.473 -0.5024 -1.7099 -0.5507
  952SOL    HW2 2856   0.099   1.104   0.408  0.3567 -2.3230  1.8029
  953SOL     OW 2857   2.519   0.055   2.538 -0.7361 -0.0292 -0.1801
  953SOL    HW1 2858   2.426   0.101   2.538 -1.8949 -0.4258  0.0618
  953SOL    HW2 2859   2.515   3.050   2.518 -1.4495  0.0815  2.1684
  954SOL     OW 2860   1.806   1.241   0.489 -0.8235 -0.1519 -0.5503
  954SOL    HW1 2861   1.761   1.326   0.489  1.5491 -2.4387  1.6422
  954SOL    HW2 2862   1.859   1.232   0.580  2.0727  1.3409  0.6345
  955SOL     OW 2863   0.698   2.079   2.968 -0.4324 -0.4951 -0.4912
  955SOL    HW1 2864   0.769   2.059   3.037 -2.8041 -1.0217  0.8131
  955SOL    HW2 2865   0.686   2.178   2.956  2.6847  0.2618 -0.1906
  956SOL     OW 2866   2.063   0.626   2.271 -0.1061  0.3238 -0.0198
  956SOL    HW1 2867   2.101   0.530   2.291  0.2971 -1.7961 -2.3674
  956SOL    HW2 2868   2.137   0.687   2.244 -1.1991 -2.3847  1.0038
  957SOL     OW 2869   2.128   2.116   2.512 -0.4640  0.3785  0.4515
  957SOL    HW1 2870   2.103   2.046   2.578  2.2641  1.4264 -1.6159
  957SOL    HW2 2871   2.231   2.126   2.510 -0.0871 -0.5840  0.5643
  958SOL     OW 2872   1.565   1.250   1.237 -0.6003  0.4858 -0.3832
  958SOL    HW1 2873   1.601   1.172   1.182 -1.9914  0.2303 -0.6831
  958SOL    HW2 2874   1.535   1.226   1.330  2.1469 -1.0622 -1.6436
  959SOL     OW 2875   1.881   2.238   2.476  0.2562  0.2270 -0.2626
  959SOL    HW1 2876   1.850   2.267   2.388  0.0753  1.5415 -1.3440
  959SOL    HW2 2877   1.973   2.193   2.477  0.3173  1.4287  1.8444
  960SOL     OW 2878   0.251   0.848   2.594 -0.5818  0.3280  0.1102
  960SOL    HW1 2879   0.270   0.934   2.541  2.6043 -1.2410  1.9009
  960SOL    HW2 2880   0.180   0.797   2.551  1.8498  2.8553  1.2377
  961SOL     OW 2881   0.337   0.977   2.827 -0.2130  0.0255  0.0726
  961SOL    HW1 2882   0.301   0.916   2.755  0.3241  0.5916  0.7863
  961SOL    HW2 2883   0.309   0.950   2.919  1.5779  0.4397  1.3581
  962SOL     OW 2884   0.622   1.237   2.690 -0.0895 -0.6104 -0.4109
  962SOL    HW1 2885   0.716   1.278   2.701 -1.5679 -1.1384 -0.0034
  962SOL    HW2 2886   0.613   1.148   2.743 -1.5768 -1.4142  0.3501
  963SOL     OW 2887   2.639   2.183   0.130 -0.1196 -0.5550  0.0273
  963SOL    HW1 2888   2.685   2.275   0.125  0.0238  2.2001 -1.2515
  963SOL    HW2 2889   2.715   2.116   0.112  0.8733  0.6372  1.4198
  964SOL     OW 2890   0.950   2.387   1.873  0.0855 -0.0113  0.0921
  964SOL    HW1 2891   1.033   2.424   1.910 -0.5620 -1.4824  1.6436
  964SOL    HW2 2892   0.878   2.458   1.863 -2.5086  0.8662 -0.7038
  965SOL     OW 2893   1.757   1.652   0.245  0.4455 -0.0991  0.1903
  965SOL    HW1 2894   1.814   1.638   0.165  0.7495  0.2357 -1.2662
  965SOL    HW2 2895   1.779   1.744   0.296  0.9065  0.8181  0.2693
  966SOL     OW 2896   3.081   1.604   0.318 -0.1821  0.1309  0.1114
  966SOL    HW1 2897   0.075   1.606   0.359 -0.2079  0.4464 -2.3415
  966SOL    HW2 2898   3.018   1.682   0.357 -2.3654  2.1005  0.6795
  967SOL     OW 2899   1.649   2.885   1.905 -0.1744  0.3740  0.2221
  967SOL    HW1 2900   1.735   2.850   1.950  1.0148  0.8334 -0.1923
  967SOL    HW2 2901   1.641   2.898   1.805  0.5276 -0.8891  1.5075
  968SOL     OW 2902   1.534   0.698   0.560 -0.3089  0.2147 -0.0838
  968SOL    HW1 2903   1.510   0.641   0.478 -1.3459  1.5323 -2.6693
  968SOL    HW2 2904   1.525   0.653   0.648  1.4336  4.1438 -3.3577
  969SOL     OW 2905   0.160   1.336   2.233 -0.0259  0.5039  0.2261
  969SOL    HW1 2906   0.262   1.322   2.224  0.8129 -1.0026  1.3631
  969SOL    HW2 2907   0.109   1.331   2.146  0.2694 -1.7218  1.8465
  970SOL     OW 2908   2.071   1.961   1.252 -0.3548 -0.2239 -0.4303
  970SOL    HW1 2909   1.992   1.941   1.191 -0.0734  1.0696 -4.5678
  970SOL    HW2 2910   2.054   1.976   1.351 -0.0964  2.8295 -2.4799
  971SOL     OW 2911   2.731   2.819   1.011  0.5019  0.1678 -0.2833
  971SOL    HW1 2912   2.720   2.733   1.060 -0.4635 -1.3256  0.0239
  971SOL    HW2 2913   2.824   2.853   1.020 -0.6451 -0.0146 -1.1933
  972SOL     OW 2914   0.168   1.238   2.624 -0.2774  1.0852 -0.4466
  972SOL    HW1 2915   0.212   1.174   2.557  0.5775 -1.3205 -1.1096
  972SOL    HW2 2916   0.108   1.303   2.581  3.1506 -1.7369  1.6874
  973SOL     OW 2917   0.627   0.427   0.592 -0.8406 -0.6831  0.4229
  973SOL    HW1 2918   0.571   0.376   0.658  1.5523  2.7824  1.1008
  973SOL    HW2 2919   0.599   0.406   0.497 -0.8510 -2.7431 -1.4325
  974SOL     OW 2920   2.108   0.728   1.697 -0.3036  0.6969 -0.1842
  974SOL    HW1 2921   2.023   0.781   1.674  0.3311  0.1219  3.1304
  974SOL    HW2 2922   2.185   0.740   1.629 -2.7567 -2.5701  3.0841
  975SOL     OW 2923   2.932   2.881   0.141 -0.6626 -0.2410 -0.3643
  975SOL    HW1 2924   2.870   2.947   0.184  3.2963 -0.9826 -4.7855
  975SOL    HW2 2925   3.010   2.936   0.100  1.7693 -0.6191  0.8342
  976SOL     OW 2926   0.390   1.706   1.234 -0.3424  0.3012 -0.0648
  976SOL    HW1 2927   0.433   1.614   1.236 -1.9417  0.4089  0.0278
  976SOL    HW2 2928   0.358   1.720   1.139  1.6500 -0.1195  0.6507
  977SOL     OW 2929   1.091   1.961   0.929  0.5310  0.2337 -0.4881
  977SOL    HW1 2930   1.171   1.954   0.990 -0.3015 -1.0191 -1.8672
  977SOL    HW2 2931   1.048   1.870   0.906  0.0035  0.6061  0.6022
  978SOL     OW 2932   0.555   1.090   0.349  0.0539  0.1205  0.6194
  978SOL    HW1 2933   0.608   1.145   0.292 -1.1084 -0.3517  2.2560
  978SOL    HW2 2934   0.539   1.000   0.299 -0.0641 -0.2162 -2.6091
  979SOL     OW 2935   2.134   1.813   0.307  0.4172  0.4299  0.7128
  979SOL    HW1 2936   2.110   1.910   0.321 -0.5787 -0.2248  0.2385
  979SOL    HW2 2937   2.192   1.805   0.226  0.2742 -2.3102  1.9368
  980SOL     OW 2938   0.292   1.812   2.263  0.6426  0.4019 -0.1648
  980SOL    HW1 2939   0.378   1.838   2.215  1.8197 -0.9509  0.6639
  980SOL    HW2 2940   0.259   1.885   2.327  1.7754 -0.6159  0.5003
  981SOL     OW 2941   2.842   0.934   0.085 -0.1031  0.1019 -0.2354
  981SOL    HW1 2942   2.812   0.942   0.182 -1.3511  0.2547 -1.3399
  981SOL    HW2 2943   2.768   0.890   0.029 -1.5154  0.4638 -0.3351
  982SOL     OW 2944   2.907   2.893   1.958 -0.3960  0.4345 -0.1597
  982SOL    HW1 2945   2.820   2.928   1.925  0.5430  1.2695  1.6779
  982SOL    HW2 2946   2.967   2.868   1.883  0.5759 -0.8726  3.4021
  983SOL     OW 2947   1.447   0.263   1.482  0.0917 -0.6117  0.4636
  983SOL    HW1 2948   1.394   0.217   1.413 -0.0731  2.5089  0.3593
  983SOL    HW2 2949   1.540   0.225   1.486 -2.1327 -2.7740  1.1724
  984SOL     OW 2950   1.353   2.802   2.921 -0.0438 -0.0375 -0.4998
  984SOL    HW1 2951   1.317   2.707   2.908 -0.0618  2.4329  0.2107
  984SOL    HW2 2952   1.301   2.853   2.848  0.3609  0.3893  0.9329
  985SOL     OW 2953   1.433   1.698   1.462  0.2111 -0.5158  0.3798
  985SOL    HW1 2954   1.395   1.703   1.370  1.7806  0.4264 -1.9987
  985SOL    HW2 2955   1.380   1.627   1.509 -0.2476  0.9023  1.4100
  986SOL     OW 2956   1.843   2.987   2.435 -0.4839  0.6610 -0.1240
  986SOL    HW1 2957   1.908   2.962   2.355  1.1184  1.5188  1.3665
  986SOL    HW2 2958   1.857   3.087   2.464  0.3066 -0.8702  2.0368
  987SOL     OW 2959   2.866   1.787   2.403  0.1400  0.1495 -0.0273
  987SOL    HW1 2960   2.896   1.721   2.335 -1.9528  0.3862 -2.2904
  987SOL    HW2 2961   2.809   1.859   2.363  1.9825 -2.8056 -0.6872
  988SOL     OW 2962   2.711   0.635   1.998  0.9340  0.3472 -0.0973
  988SOL    HW1 2963   2.809   0.604   1.993  0.7976 -1.6090 -1.0871
  988SOL    HW2 2964   2.697   0.692   2.084  2.4307 -0.2479  1.5826
  989SOL     OW 2965   1.816   1.188   1.564  0.3367 -0.5095 -0.1015
  989SOL    HW1 2966   1.768   1.256   1.628 -0.1544  1.4406 -0.3081
  989SOL    HW2 2967   1.915   1.210   1.576  0.5143 -0.6439 -0.5004
  990SOL     OW 2968   3.043   1.114   0.043  0.0410 -0.7582  0.2631
  990SOL    HW1 2969   2.964   1.053   0.055 -1.7826  0.2656  1.1110
  990SOL    HW2 2970   3.091   1.098   3.055 -1.4250  0.8578  3.0848
  991SOL     OW 2971   0.222   2.164   2.884  0.1247  0.3160  0.3120
  991SOL    HW1 2972   0.192   2.085   2.946 -1.5506 -0.7553  1.4385
  991SOL    HW2 2973   0.271   2.121   2.804  1.0172  1.6206 -0.3611
  992SOL     OW 2974   2.476   2.142   1.919 -0.4993 -0.5805 -0.4104
  992SOL    HW1 2975   2.397   2.209   1.941 -2.7550  1.4550 -0.2670
  992SOL    HW2 2976   2.493   2.141   1.818  0.0438 -1.8240 -1.0998
  993SOL     OW 2977   0.685   2.919   0.553 -0.3587  0.0230 -0.6903
  993SOL    HW1 2978   0.653   2.982   0.481 -0.6904  0.3536  1.1961
  993SOL    HW2 2979   0.622   2.916   0.632  0.7613 -0.0026  1.1722
  994SOL     OW 2980   0.105   1.999   1.570 -0.2411  0.2075  0.0146
  994SOL    HW1 2981   0.091   1.966   1.667 -0.5306  0.4504  0.5419
  994SOL    HW2 2982   0.155   1.925   1.518  0.0759 -2.1086 -0.6278
  995SOL     OW 2983   2.249   1.884   2.231 -0.3752  0.0082  0.1723
  995SOL    HW1 2984   2.327   1.840   2.275 -0.8764  0.3700 -1.1346
  995SOL    HW2 2985   2.193   1.818   2.179 -0.7759 -1.1484 -0.5684
  996SOL     OW 2986   1.893   1.642   0.017 -0.2149  0.0923  0.0058
  996SOL    HW1 2987   1.823   1.625   3.049 -0.5658 -0.0031  2.5545
  996SOL    HW2 2988   1.930   1.735   0.001 -0.2626 -0.9200  1.0389
  997SOL     OW 2989   1.160   1.254   1.457 -0.1112  0.4580 -0.5506
  997SOL    HW1 2990   1.201   1.221   1.543 -0.5629 -0.3051  1.5955
  997SOL    HW2 2991   1.176   1.183   1.385  1.0585 -0.2225 -0.9164
  998SOL     OW 2992   2.785   2.245   1.053 -0.2039  0.4196  0.1702
  998SOL    HW1 2993   2.820   2.201   0.964  1.6077 -1.1937  0.1305
  998SOL    HW2 2994   2.814   2.190   1.136 -1.1819 -0.3385  1.5684
  999SOL     OW 2995   2.803   2.668   0.269  0.0009  0.1545 -0.1043
  999SOL    HW1 2996   2.743   2.708   0.342 -1.5604 -0.1220 -0.5358
  999SOL    HW2 2997   2.856   2.742   0.232 -0.4561 -0.8503  1.5168
 1000SOL     OW 2998   1.083   0.180   3.019  0.3814  0.0740 -0.0859
 1000SOL    HW1 2999   1.170   0.167   3.069 -3.8222 -0.4916 -1.1338
 1000SOL    HW2 3000   1.061   0.279   2.996  1.5912  0.3802  3.1349
   3.09757   3.09757   3.09757
