1000 SPC/Fw water molecules t=  93.00000 step= 93000
 3000
    1SOL     OW    1   1.940   2.706   0.720  0.5902  0.4013  0.1392
    1SOL    HW1    2   1.999   2.645   0.663  1.0939 -0.7342 -3.7694
    1SOL    HW2    3   1.989   2.749   0.799  0.9400 -1.2584  2.3065
    2SOL     OW    4   1.091   1.211   2.033  0.8656 -0.4277 -0.3439
    2SOL    HW1    5   1.131   1.146   1.963 -1.3615 -1.0737 -0.5148
    2SOL    HW2    6   1.121   1.198   2.125  0.0559 -1.8432 -1.9837
    3SOL     OW    7   1.440   2.578   2.361 -0.0427  0.2625 -0.5943
    3SOL    HW1    8   1.488   2.505   2.413 -0.2563  3.0354 -1.8323
    3SOL    HW2    9   1.386   2.537   2.281  0.7508  0.4269  0.0388
    4SOL     OW   10   1.258   1.839   2.621  0.2309  0.0181  0.2222
    4SOL    HW1   11   1.342   1.787   2.596 -0.7048 -0.5067 -1.2740
    4SOL    HW2   12   1.267   1.928   2.571  2.1685 -1.2276 -0.0896
    5SOL     OW   13   0.558   0.857   1.772  0.5205 -0.0932 -0.2294
    5SOL    HW1   14   0.556   0.944   1.824  0.1480  3.4220  0.4057
    5SOL    HW2   15   0.648   0.858   1.729 -2.0075  0.9117  0.6387
    6SOL     OW   16   1.868   0.709   2.731 -0.3122  0.2721 -0.3399
    6SOL    HW1   17   1.859   0.799   2.685  0.8729 -0.2605  1.2874
    6SOL    HW2   18   1.962   0.707   2.773 -1.4655 -1.9828  0.8540
    7SOL     OW   19   0.534   0.436   1.675 -0.1491 -0.2554 -0.2644
    7SOL    HW1   20   0.547   0.536   1.677  1.0128  0.1818  2.5082
    7SOL    HW2   21   0.436   0.409   1.692 -0.2730  0.2752  2.2436
    8SOL     OW   22   1.657   3.114   1.859 -0.7609 -0.0707  0.5148
    8SOL    HW1   23   1.752   0.026   1.847 -0.0045 -0.9772 -1.3764
    8SOL    HW2   24   1.666   3.014   1.860 -2.0446 -1.7638  1.6307
    9SOL     OW   25   0.276   0.369   0.501  0.0175  0.2135  0.0230
    9SOL    HW1   26   0.293   0.293   0.563  0.2456  0.7277  0.4222
    9SOL    HW2   27   0.246   0.449   0.555 -0.4113  3.1761  1.6101
   10SOL     OW   28   0.549   1.997   2.343  0.6526 -0.0585 -0.0038
   10SOL    HW1   29   0.511   2.072   2.283  0.1102  1.4641 -2.0914
   10SOL    HW2   30   0.633   2.027   2.390  0.0975 -1.0612  2.9019
   11SOL     OW   31   0.692   1.592   0.259  0.5872  0.0048  0.3462
   11SOL    HW1   32   0.725   1.619   0.163 -0.7185 -0.1997 -2.6002
   11SOL    HW2   33   0.711   1.492   0.273 -0.7858 -0.9749 -2.1128
   12SOL     OW   34   0.082   2.980   1.423  0.0146  0.2285  0.3353
   12SOL    HW1   35   0.029   3.047   1.369 -0.6052  0.8431  0.7702
   12SOL    HW2   36   0.158   2.938   1.365 -0.1588 -0.8608  0.0802
   13SOL     OW   37   0.864   3.104   0.524  0.6076 -0.4418 -0.8377
   13SOL    HW1   38   0.955   0.011   0.531 -1.1520  1.0019 -1.1250
   13SOL    HW2   39   0.791   0.044   0.506  1.4011  2.4047  0.4247
   14SOL     OW   40   1.473   1.553   0.905  0.1422  0.0445  0.0344
   14SOL    HW1   41   1.389   1.603   0.940  0.1558 -1.6029 -2.2690
   14SOL    HW2   42   1.534   1.537   0.984  0.7919  2.6974 -1.5835
   15SOL     OW   43   2.846   1.688   2.531 -0.1679 -0.3101 -0.5004
   15SOL    HW1   44   2.799   1.618   2.588 -0.1190  1.2171  0.0557
   15SOL    HW2   45   2.920   1.734   2.581  0.4442 -0.0219  4.3929
   16SOL     OW   46   1.506   0.507   2.581  0.8296  0.3960  0.0949
   16SOL    HW1   47   1.482   0.571   2.656  2.3491 -2.6008 -2.2382
   16SOL    HW2   48   1.607   0.501   2.582 -0.8514  1.8443 -2.6745
   17SOL     OW   49   0.132   2.269   2.356  0.1840  0.2517 -0.5332
   17SOL    HW1   50   0.189   2.198   2.402 -0.3877  0.0713 -0.3186
   17SOL    HW2   51   0.077   2.227   2.282 -0.2118  0.6939 -0.1048
   18SOL     OW   52   1.101   1.448   0.510 -0.0263  0.2263 -0.4185
   18SOL    HW1   53   1.171   1.502   0.560 -0.9504  3.2132  1.1304
   18SOL    HW2   54   1.141   1.357   0.483  1.9444  1.1590 -0.6945
   19SOL     OW   55   2.602   1.435   2.636 -0.2173  0.1530 -0.4865
   19SOL    HW1   56   2.634   1.486   2.720  1.7631  0.6493  0.3799
   19SOL    HW2   57   2.503   1.414   2.647  1.2332  0.7664 -2.0811
   20SOL     OW   58   2.457   2.240   2.463 -0.0322 -0.1205 -0.0387
   20SOL    HW1   59   2.468   2.212   2.367 -2.3006  3.0128 -0.5650
   20SOL    HW2   60   2.524   2.312   2.488  0.0540 -1.1350 -2.7593
   21SOL     OW   61   1.003   2.214   0.325 -0.0261 -0.5305  0.1947
   21SOL    HW1   62   1.083   2.192   0.265 -0.3211  1.5199 -0.9586
   21SOL    HW2   63   1.007   2.164   0.409 -2.0498  3.5992  1.3141
   22SOL     OW   64   2.308   2.269   1.454 -0.3276 -1.0644  0.1508
   22SOL    HW1   65   2.326   2.357   1.408  0.4812  1.5220 -3.3641
   22SOL    HW2   66   2.227   2.213   1.423 -0.7379  0.3042  0.8747
   23SOL     OW   67   0.293   1.255   1.414 -0.2573  0.2564  0.6266
   23SOL    HW1   68   0.199   1.226   1.392 -0.7826  1.9589 -1.3458
   23SOL    HW2   69   0.353   1.172   1.412 -0.2863 -2.4653  1.1874
   24SOL     OW   70   2.177   1.741   2.236  0.2390 -0.3213  0.6444
   24SOL    HW1   71   2.139   1.661   2.288 -2.7621  2.3607  0.1809
   24SOL    HW2   72   2.278   1.741   2.226 -0.6773  0.4464 -0.4275
   25SOL     OW   73   2.013   0.471   2.349 -0.4347  0.1494 -0.0171
   25SOL    HW1   74   2.081   0.468   2.270 -1.1419  1.5405 -0.1959
   25SOL    HW2   75   1.938   0.407   2.348 -0.0898  2.6355  2.0586
   26SOL     OW   76   1.523   0.342   0.463  0.0531  0.6440 -0.6662
   26SOL    HW1   77   1.527   0.439   0.449 -0.7633 -0.9307 -0.4702
   26SOL    HW2   78   1.574   0.318   0.546 -2.7182  2.1708  1.8859
   27SOL     OW   79   0.880   1.737   0.557 -0.2768 -0.4709  0.0538
   27SOL    HW1   80   0.816   1.790   0.496 -1.6471  2.2860  2.7152
   27SOL    HW2   81   0.837   1.653   0.591 -2.1484  0.8138  2.5276
   28SOL     OW   82   2.529   1.811   1.041  0.0235 -0.1056  0.4269
   28SOL    HW1   83   2.555   1.780   1.139 -1.8774  1.0900 -0.9762
   28SOL    HW2   84   2.452   1.882   1.030 -0.2743 -0.3381 -3.0209
   29SOL     OW   85   2.266   3.047   1.513 -0.0278  0.5636  0.5682
   29SOL    HW1   86   2.186   3.053   1.576  0.7268 -0.1917  0.2765
   29SOL    HW2   87   2.342   2.990   1.551 -0.0964  0.2163 -2.8812
   30SOL     OW   88   0.856   0.160   1.196  0.4281 -0.0512 -0.3386
   30SOL    HW1   89   0.923   0.080   1.203  1.0569  0.5147 -1.4918
   30SOL    HW2   90   0.896   0.236   1.250  0.9421 -1.2018 -4.5473
   31SOL     OW   91   3.021   2.363   1.795  0.3606 -0.7333  0.5249
   31SOL    HW1   92   3.100   2.364   1.858 -0.1154 -2.2775 -0.5505
   31SOL    HW2   93   2.986   2.458   1.780  0.3678  1.1540  0.2183
   32SOL     OW   94   1.443   1.571   1.964  0.4853  0.0975 -0.1895
   32SOL    HW1   95   1.427   1.570   1.866 -0.8517 -2.2470  1.9239
   32SOL    HW2   96   1.464   1.660   2.000 -0.8076 -0.6939  0.2880
   33SOL     OW   97   0.326   0.222   3.073  0.0262 -0.3978  0.2966
   33SOL    HW1   98   0.404   0.283   3.062 -1.8733 -0.5660 -3.3866
   33SOL    HW2   99   0.362   0.126   3.081  0.9673 -0.9656 -0.3439
   34SOL     OW  100   2.316   0.126   0.839  0.3617 -0.1295  0.0417
   34SOL    HW1  101   2.355   0.039   0.885  1.3010 -0.5516  0.8506
   34SOL    HW2  102   2.372   0.203   0.864  0.3895 -1.7343  0.3784
   35SOL     OW  103   2.791   0.157   1.444 -0.3278  0.0907 -0.0810
   35SOL    HW1  104   2.709   0.124   1.491 -1.3685 -2.3402  0.3164
   35SOL    HW2  105   2.872   0.145   1.506  1.3340 -0.2135 -0.8338
   36SOL     OW  106   2.867   2.729   2.720 -0.4162  0.3368 -0.3278
   36SOL    HW1  107   2.791   2.793   2.695 -0.3016  0.1510 -1.1803
   36SOL    HW2  108   2.935   2.709   2.646 -1.4370  1.5528 -0.0868
   37SOL     OW  109   1.286   2.806   2.967  0.1095  0.6491 -0.2726
   37SOL    HW1  110   1.352   2.888   2.958  1.4981  0.8242 -2.1886
   37SOL    HW2  111   1.279   2.783   3.067 -0.2586 -0.6090  0.0980
   38SOL     OW  112   2.778   1.062   2.878 -0.8707 -0.0998  0.4082
   38SOL    HW1  113   2.827   1.021   2.958 -3.8020  1.3430 -0.0690
   38SOL    HW2  114   2.703   0.997   2.846  1.6062 -1.6987 -2.1883
   39SOL     OW  115   2.216   2.187   2.092  0.6233 -0.0854 -0.0377
   39SOL    HW1  116   2.126   2.137   2.098 -1.8971 -0.7345 -1.7336
   39SOL    HW2  117   2.209   2.285   2.101  1.4591 -0.9698  1.0361
   40SOL     OW  118   0.409   0.295   2.670  0.0570  0.6779 -0.0471
   40SOL    HW1  119   0.393   0.205   2.718 -1.1143  0.8731 -0.7253
   40SOL    HW2  120   0.490   0.290   2.612 -0.0281 -0.4019  1.7541
   41SOL     OW  121   1.542   1.207   1.438 -0.0748  0.0327 -0.3140
   41SOL    HW1  122   1.563   1.106   1.447 -1.6423 -1.2468 -1.5589
   41SOL    HW2  123   1.614   1.266   1.486  2.0485  1.8633  2.1840
   42SOL     OW  124   0.167   0.385   1.823 -0.1885 -0.1544 -0.5240
   42SOL    HW1  125   0.103   0.448   1.773  2.6759 -1.4471 -1.0829
   42SOL    HW2  126   0.137   0.351   1.917 -0.8053 -1.4612  1.6289
   43SOL     OW  127   1.482   1.363   2.117 -0.2082 -0.4076  0.2879
   43SOL    HW1  128   1.582   1.348   2.123 -1.2386  0.4233  1.1789
   43SOL    HW2  129   1.465   1.441   2.056  0.1011 -1.9359  1.3060
   44SOL     OW  130   3.056   0.110   0.034  0.0160 -0.1221 -0.5393
   44SOL    HW1  131   3.058   0.062   3.075 -1.9753 -1.3758  1.1265
   44SOL    HW2  132   3.116   0.191   0.029 -1.7237 -1.2184 -1.0597
   45SOL     OW  133   0.464   2.149   1.094  0.2465  0.0420 -0.0681
   45SOL    HW1  134   0.537   2.157   1.167  3.7859  1.7500 -1.4755
   45SOL    HW2  135   0.468   2.057   1.058 -2.2850  1.1290  0.5989
   46SOL     OW  136   2.421   2.915   1.692 -0.4173 -0.2156  0.1749
   46SOL    HW1  137   2.481   2.971   1.754  1.3584  0.6852 -2.5077
   46SOL    HW2  138   2.448   2.817   1.691  0.2478 -0.3859 -1.0801
   47SOL     OW  139   0.922   1.842   1.273 -0.2079 -0.6128 -0.0135
   47SOL    HW1  140   0.950   1.791   1.356 -0.7598  1.0022 -4.1759
   47SOL    HW2  141   0.822   1.850   1.271  2.4419 -0.8331 -0.2665
   48SOL     OW  142   0.434   2.481   0.151 -0.4016  0.4870  0.1954
   48SOL    HW1  143   0.405   2.398   0.208  1.1653 -1.8677  1.6033
   48SOL    HW2  144   0.388   2.570   0.174 -0.6561  1.8172 -3.2500
   49SOL     OW  145   2.930   1.629   1.965  0.3772  0.1231  0.6813
   49SOL    HW1  146   2.928   1.621   2.068  1.8076  1.4914  2.4181
   49SOL    HW2  147   2.840   1.604   1.924 -0.4488 -0.0302 -0.2861
   50SOL     OW  148   2.076   0.951   0.638 -0.0444  0.0597 -0.2788
   50SOL    HW1  149   2.013   0.913   0.568 -1.1749  0.6020  2.1136
   50SOL    HW2  150   2.064   0.904   0.728 -0.6543 -0.3446 -0.9184
   51SOL     OW  151   1.104   0.804   0.994 -0.5039  0.5508  0.3588
   51SOL    HW1  152   1.061   0.797   1.085 -1.2206  0.3454  1.2974
   51SOL    HW2  153   1.052   0.747   0.924  0.7688  1.5261  2.1685
   52SOL     OW  154   0.991   1.503   0.277 -0.3742  0.1251  0.1534
   52SOL    HW1  155   1.029   1.482   0.367 -1.2636  0.4857 -2.0754
   52SOL    HW2  156   0.909   1.559   0.283  1.3275 -3.0526  0.2606
   53SOL     OW  157   0.974   2.522   2.700  0.0658  0.1859  0.3546
   53SOL    HW1  158   1.000   2.423   2.687  1.0114 -2.8606  0.2385
   53SOL    HW2  159   1.017   2.584   2.631 -1.2217 -2.2613  0.2105
   54SOL     OW  160   1.636   0.696   1.640  0.0439 -0.3088  0.6389
   54SOL    HW1  161   1.600   0.662   1.731 -0.0715 -0.7551  0.6191
   54SOL    HW2  162   1.571   0.654   1.567 -2.9806  1.5830  3.2957
   55SOL     OW  163   2.707   2.572   0.117 -0.2666 -0.1111  0.2233
   55SOL    HW1  164   2.706   2.612   0.024 -2.0281  1.1431 -0.3330
   55SOL    HW2  165   2.661   2.640   0.179 -1.0701  1.5522  0.0039
   56SOL     OW  166   0.830   2.411   1.712 -0.7187  0.5871 -0.3194
   56SOL    HW1  167   0.742   2.375   1.676 -0.3798 -1.6126 -0.5540
   56SOL    HW2  168   0.836   2.511   1.711 -0.1383  0.4431  1.9867
   57SOL     OW  169   1.705   0.830   2.440  0.1277  0.0542  0.2185
   57SOL    HW1  170   1.730   0.742   2.397  0.1826 -0.0721  3.5733
   57SOL    HW2  171   1.604   0.839   2.455  0.4389 -2.5340  1.0245
   58SOL     OW  172   0.055   1.116   1.915 -0.2567 -0.3186 -0.3214
   58SOL    HW1  173   0.141   1.127   1.866 -2.7642 -1.6348 -0.8040
   58SOL    HW2  174   3.117   1.186   1.885  3.4608 -0.7302  1.7170
   59SOL     OW  175   0.499   2.921   2.284  0.4141 -0.0642  0.4355
   59SOL    HW1  176   0.601   2.923   2.286 -0.7533  0.5858 -3.8874
   59SOL    HW2  177   0.464   2.839   2.334  0.8757 -1.1381  0.4812
   60SOL     OW  178   2.693   2.385   0.354 -0.5313 -0.6396  0.0094
   60SOL    HW1  179   2.727   2.292   0.367 -0.9294  1.1420 -0.9193
   60SOL    HW2  180   2.713   2.418   0.258 -1.2413 -2.3868 -2.6238
   61SOL     OW  181   0.759   2.850   0.617  0.6580  0.7945  0.3480
   61SOL    HW1  182   0.736   2.826   0.519  3.2352  0.5454 -0.2993
   61SOL    HW2  183   0.779   2.947   0.622  1.4408  0.1193  0.1921
   62SOL     OW  184   1.969   2.650   2.715  0.0529  0.2368 -0.3634
   62SOL    HW1  185   1.932   2.614   2.630  1.2045  2.9470  2.6042
   62SOL    HW2  186   2.023   2.733   2.694 -0.3263 -1.3852 -0.8657
   63SOL     OW  187   2.162   0.496   0.066 -0.0462  0.2826 -0.0014
   63SOL    HW1  188   2.162   0.393   0.057 -3.9603  0.6841  3.3753
   63SOL    HW2  189   2.201   0.524   0.155  0.1779 -0.3506 -0.1374
   64SOL     OW  190   0.865   1.171   2.766 -0.9638 -0.0468 -0.7941
   64SOL    HW1  191   0.964   1.146   2.763  0.3191 -0.9279  0.5208
   64SOL    HW2  192   0.813   1.107   2.823  1.0457  1.7866  0.3432
   65SOL     OW  193   1.370   3.030   1.028 -0.9492 -0.3265  0.0218
   65SOL    HW1  194   1.447   2.975   1.065  1.5020  0.2417  1.3122
   65SOL    HW2  195   1.397   3.128   1.032 -0.2042  0.5918 -1.6873
   66SOL     OW  196   0.653   1.664   1.687  0.1304 -0.0907 -0.2599
   66SOL    HW1  197   0.734   1.692   1.636 -1.6096 -0.0204  0.9840
   66SOL    HW2  198   0.638   1.722   1.768  0.3218  3.1170 -1.0366
   67SOL     OW  199   2.374   2.908   2.136  0.1892 -0.2673  0.1333
   67SOL    HW1  200   2.474   2.892   2.138  2.1234  2.0442  0.0808
   67SOL    HW2  201   2.362   3.009   2.125 -1.5416 -0.1567 -0.7028
   68SOL     OW  202   0.796   0.813   1.554  0.3555  0.0736  0.2167
   68SOL    HW1  203   0.826   0.908   1.540 -2.0098 -0.3968  0.8931
   68SOL    HW2  204   0.711   0.799   1.495  0.0032  0.8698  1.3973
   69SOL     OW  205   2.283   2.539   0.173 -0.0569  0.1283  0.3797
   69SOL    HW1  206   2.321   2.606   0.238  2.5312  1.9624 -0.2826
   69SOL    HW2  207   2.356   2.480   0.124 -2.2268 -2.8414  1.1014
   70SOL     OW  208   2.400   0.704   2.932 -0.2656  0.2066 -0.1203
   70SOL    HW1  209   2.468   0.648   2.881 -0.7460  0.1735  1.1244
   70SOL    HW2  210   2.388   0.660   3.027 -2.3486  0.0670  0.8844
   71SOL     OW  211   3.058   2.158   0.368  0.2680 -0.2258 -0.3250
   71SOL    HW1  212   3.016   2.137   0.460  0.1552 -2.6934  0.3341
   71SOL    HW2  213   2.985   2.146   0.300  2.1234 -2.6065  1.5243
   72SOL     OW  214   3.008   1.875   0.541  0.1066 -0.1807 -0.3484
   72SOL    HW1  215   2.978   1.966   0.576 -1.0377  0.9366 -1.3015
   72SOL    HW2  216   3.096   1.884   0.498 -4.2841  0.7553 -0.1572
   73SOL     OW  217   1.034   0.721   0.554  0.0166  0.6255 -0.3219
   73SOL    HW1  218   0.955   0.694   0.501  3.2908  0.8083 -0.4675
   73SOL    HW2  219   1.017   0.817   0.592  1.2113  2.8579  2.7847
   74SOL     OW  220   0.205   1.835   2.078  0.2332 -0.1220 -0.0539
   74SOL    HW1  221   0.175   1.868   2.171 -1.0285 -1.6290 -0.5039
   74SOL    HW2  222   0.284   1.890   2.042  2.0119  1.0032 -0.3678
   75SOL     OW  223   1.659   1.654   1.428 -0.9394 -0.4929 -0.2373
   75SOL    HW1  224   1.749   1.636   1.483  2.8630 -3.3178  2.5797
   75SOL    HW2  225   1.608   1.565   1.414 -1.9269 -1.9111  0.3503
   76SOL     OW  226   1.732   2.111   1.139 -1.0940 -0.2240 -0.3363
   76SOL    HW1  227   1.652   2.161   1.116  3.0682 -2.0239  0.1868
   76SOL    HW2  228   1.715   2.034   1.206  0.4712  0.1913  0.2991
   77SOL     OW  229   2.399   1.720   1.942 -0.3107 -0.1310  0.6011
   77SOL    HW1  230   2.436   1.711   2.034 -2.3652  0.3739 -0.6500
   77SOL    HW2  231   2.348   1.805   1.929  1.0945 -0.9452  0.7074
   78SOL     OW  232   1.401   0.809   0.693 -0.1869 -0.1615  0.2611
   78SOL    HW1  233   1.364   0.789   0.600  1.6193 -1.5377 -0.2344
   78SOL    HW2  234   1.432   0.719   0.732 -1.3773 -2.8778 -1.3118
   79SOL     OW  235   2.217   1.961   1.672 -0.1198 -0.2086  0.5030
   79SOL    HW1  236   2.290   1.904   1.630  1.6973  1.7585 -1.0047
   79SOL    HW2  237   2.241   2.064   1.665 -0.6596  2.8978 -0.5493
   80SOL     OW  238   0.986   0.395   1.286  0.3760  0.9507 -0.2930
   80SOL    HW1  239   0.980   0.407   1.389 -0.7485 -1.1131  1.2970
   80SOL    HW2  240   1.067   0.449   1.255 -1.0866  1.6649  1.9648
   81SOL     OW  241   0.408   2.458   0.539 -0.3889  0.5747 -0.1170
   81SOL    HW1  242   0.444   2.389   0.613  1.1416 -0.4982  3.7138
   81SOL    HW2  243   0.476   2.533   0.526  0.0422 -0.1436 -0.4964
   82SOL     OW  244   1.281   0.190   1.597  0.3973  0.1852 -0.4851
   82SOL    HW1  245   1.212   0.218   1.667  1.4227 -1.7589  0.6587
   82SOL    HW2  246   1.241   0.164   1.507 -1.1038  0.3526 -0.2874
   83SOL     OW  247   0.596   1.886   0.633 -0.0492  0.4661  0.2779
   83SOL    HW1  248   0.640   1.974   0.661  0.6068 -0.1696  0.1393
   83SOL    HW2  249   0.628   1.868   0.533 -0.1548  0.0003 -2.7714
   84SOL     OW  250   2.721   1.254   0.264  0.5272  0.2491 -0.6017
   84SOL    HW1  251   2.685   1.320   0.200  1.3193  0.4246  0.9558
   84SOL    HW2  252   2.703   1.163   0.221 -1.4144 -0.2058  2.7273
   85SOL     OW  253   0.042   2.682   1.356 -0.3864 -0.3500  0.3822
   85SOL    HW1  254   0.053   2.780   1.361 -1.5794 -0.9460  1.2621
   85SOL    HW2  255   3.089   2.651   1.411 -2.1939 -2.0901  0.6660
   86SOL     OW  256   1.849   2.617   1.024  0.2595  0.5221 -0.6893
   86SOL    HW1  257   1.816   2.548   1.091  1.7717  3.2649  3.8943
   86SOL    HW2  258   1.873   2.576   0.935  1.7507  0.4491 -0.7766
   87SOL     OW  259   3.002   1.674   0.726  0.1198  0.3995 -0.4273
   87SOL    HW1  260   3.003   1.580   0.688  1.4376 -2.3019 -2.7748
   87SOL    HW2  261   3.020   1.748   0.658  0.8005  0.9566  1.2867
   88SOL     OW  262   1.016   0.755   1.268  0.3687  0.2251 -0.4182
   88SOL    HW1  263   1.000   0.747   1.371 -1.1138 -1.6118  0.0804
   88SOL    HW2  264   0.966   0.679   1.221 -1.6266 -0.5005 -2.1687
   89SOL     OW  265   0.747   2.737   2.056 -0.2271 -0.2291 -0.2515
   89SOL    HW1  266   0.757   2.814   1.988  1.2686 -1.6628 -1.3425
   89SOL    HW2  267   0.688   2.663   2.019  0.7314 -1.5834 -1.2476
   90SOL     OW  268   3.104   1.840   1.337 -0.2388  0.7338 -0.4883
   90SOL    HW1  269   0.072   1.863   1.320 -1.4377 -0.8324  1.2710
   90SOL    HW2  270   3.039   1.895   1.282 -0.8366  1.6486 -1.1114
   91SOL     OW  271   1.141   2.035   0.963 -0.1487 -0.3287 -0.0590
   91SOL    HW1  272   1.224   2.074   0.917 -0.3950  3.8420 -1.3717
   91SOL    HW2  273   1.130   1.935   0.954  0.1624  0.9647 -1.4270
   92SOL     OW  274   2.934   2.892   1.807  0.0838  0.1515  0.3229
   92SOL    HW1  275   3.008   2.958   1.783 -2.9161  2.5099 -1.8617
   92SOL    HW2  276   2.914   2.901   1.905 -1.6226  0.1798 -5.5075
   93SOL     OW  277   3.010   1.209   3.061  0.7239  0.5374  0.0057
   93SOL    HW1  278   3.065   1.188   2.981  2.1310 -3.3623  0.1387
   93SOL    HW2  279   2.958   1.127   3.094  1.1887  0.7428 -0.9200
   94SOL     OW  280   2.562   3.082   1.880  0.0426 -0.1395 -0.5613
   94SOL    HW1  281   2.597   3.036   1.962 -1.6340 -2.6967  3.4023
   94SOL    HW2  282   2.566   0.056   1.891 -2.8328  1.6672  0.4246
   95SOL     OW  283   1.534   0.573   1.875  0.0910 -0.4269  0.0620
   95SOL    HW1  284   1.442   0.541   1.899 -0.2427 -0.2483 -0.9683
   95SOL    HW2  285   1.601   0.498   1.851  1.6113 -0.0999  1.4671
   96SOL     OW  286   2.386   0.588   1.779 -0.1600 -0.2778 -0.0606
   96SOL    HW1  287   2.435   0.624   1.861  0.9146  0.8671 -0.3593
   96SOL    HW2  288   2.451   0.543   1.713 -2.6169 -1.9199 -1.3264
   97SOL     OW  289   2.603   0.049   1.593  0.3625 -0.2426  0.4202
   97SOL    HW1  290   2.658   3.098   1.625  1.6344  0.3226 -1.6464
   97SOL    HW2  291   2.512   0.052   1.643 -2.2787 -1.4881 -0.4801
   98SOL     OW  292   2.012   2.727   1.395 -0.2790 -0.0756  0.1632
   98SOL    HW1  293   2.061   2.710   1.488 -0.5346 -0.7985 -0.5164
   98SOL    HW2  294   1.911   2.728   1.416  1.7316 -3.1722 -0.5559
   99SOL     OW  295   2.825   0.357   1.897  0.4470 -0.1933  0.3589
   99SOL    HW1  296   2.828   0.459   1.908  0.2115  1.0153 -3.2251
   99SOL    HW2  297   2.850   0.336   1.800  1.2910  0.1028 -1.7015
  100SOL     OW  298   1.990   1.469   1.919 -0.2208  0.0526  0.8485
  100SOL    HW1  299   1.977   1.540   1.992  1.7872 -0.0089 -3.1417
  100SOL    HW2  300   1.938   1.381   1.941  0.0226 -0.6465 -1.9806
  101SOL     OW  301   2.087   0.188   0.415  0.0999  0.0270 -0.4967
  101SOL    HW1  302   2.098   0.108   0.472  0.2961 -0.1602 -1.3127
  101SOL    HW2  303   2.142   0.266   0.449 -1.7412  1.4255 -1.9158
  102SOL     OW  304   0.443   0.595   1.222  0.5115  0.4135 -0.4404
  102SOL    HW1  305   0.396   0.603   1.131  1.1639 -0.0947  1.7329
  102SOL    HW2  306   0.496   0.509   1.222 -1.7117 -0.6591  1.1664
  103SOL     OW  307   2.479   0.117   2.554  0.1626  0.0483  0.4951
  103SOL    HW1  308   2.538   0.161   2.630  2.0413  1.7464  1.3772
  103SOL    HW2  309   2.397   0.083   2.608 -2.7493  1.6372  3.0276
  104SOL     OW  310   0.080   2.961   1.725  0.3583  0.6332  0.0731
  104SOL    HW1  311   0.140   2.878   1.753  2.1012 -0.2640  1.4360
  104SOL    HW2  312   0.073   2.969   1.626 -1.6110  0.0927  1.7098
  105SOL     OW  313   1.624   0.738   2.059  0.3058 -0.6263  0.1645
  105SOL    HW1  314   1.594   0.837   2.052  1.0273  1.4402  2.8981
  105SOL    HW2  315   1.600   0.689   1.972 -0.2634 -1.3815  1.3143
  106SOL     OW  316   1.664   0.347   0.848  0.2675  0.1613 -0.1234
  106SOL    HW1  317   1.717   0.328   0.932 -1.2938  1.4816 -1.5252
  106SOL    HW2  318   1.709   0.310   0.764  0.3341 -0.2781 -2.0473
  107SOL     OW  319   0.564   1.187   1.178  0.3472 -0.2563  0.1467
  107SOL    HW1  320   0.543   1.220   1.272 -0.8158  0.3051 -0.4579
  107SOL    HW2  321   0.600   1.093   1.181 -2.1512  1.4850 -1.9828
  108SOL     OW  322   2.916   0.446   2.495 -0.2509 -0.1298 -0.3309
  108SOL    HW1  323   2.993   0.463   2.426  0.9007 -2.4318 -0.5655
  108SOL    HW2  324   2.946   0.381   2.565  0.7672  0.6530 -1.2379
  109SOL     OW  325   2.121   0.171   0.087  0.0517 -0.0997  0.3109
  109SOL    HW1  326   2.191   0.109   0.046  0.5748  2.0495  2.3052
  109SOL    HW2  327   2.123   0.174   0.189  1.5901  2.2557 -1.5518
  110SOL     OW  328   3.081   1.859   2.898  0.0888  0.1345 -0.0672
  110SOL    HW1  329   0.018   1.922   2.945  1.1247  1.7347  0.2685
  110SOL    HW2  330   3.086   1.764   2.926 -0.9942 -1.4313 -1.3480
  111SOL     OW  331   2.340   0.204   2.338 -0.6346  0.3059 -0.0662
  111SOL    HW1  332   2.338   0.157   2.246 -1.2724  1.6748  1.9412
  111SOL    HW2  333   2.422   0.177   2.394  3.0789 -1.1450 -2.3215
  112SOL     OW  334   2.623   2.929   1.287 -0.3015  0.1709 -0.4270
  112SOL    HW1  335   2.523   2.925   1.272  3.6822  0.4513  3.4127
  112SOL    HW2  336   2.645   2.954   1.381 -1.8157 -2.7069 -1.2330
  113SOL     OW  337   2.577   2.377   2.040  0.1229  0.3069 -0.0398
  113SOL    HW1  338   2.545   2.411   1.949 -0.8574 -0.8330  0.1501
  113SOL    HW2  339   2.517   2.418   2.111 -0.2267  0.5800 -0.0812
  114SOL     OW  340   2.625   0.038   0.557  0.2519 -0.2914  0.1050
  114SOL    HW1  341   2.584   3.096   0.621 -1.2395 -0.0747  1.9537
  114SOL    HW2  342   2.709   0.078   0.601  3.6320  0.3604  0.8641
  115SOL     OW  343   2.804   1.803   0.275 -0.1925  0.1389  0.4841
  115SOL    HW1  344   2.891   1.799   0.329  1.5175  2.6789 -0.4188
  115SOL    HW2  345   2.772   1.709   0.274 -0.2811 -1.9519 -2.0933
  116SOL     OW  346   0.142   1.563   2.051 -0.4929 -0.2426 -0.4596
  116SOL    HW1  347   0.181   1.659   2.065  0.7045  1.8804  0.0614
  116SOL    HW2  348   0.082   1.558   1.974 -0.2808 -0.4792  2.6683
  117SOL     OW  349   2.376   2.832   1.189 -0.2313 -0.2926 -0.3786
  117SOL    HW1  350   2.378   2.763   1.114  0.1285  0.7642  1.1475
  117SOL    HW2  351   2.287   2.847   1.228 -0.5479  1.8401 -1.3212
  118SOL     OW  352   0.242   2.073   1.751 -0.0203 -0.0921 -0.3283
  118SOL    HW1  353   0.198   1.985   1.734  2.4061  2.3409 -0.0806
  118SOL    HW2  354   0.306   2.090   1.672  3.2011 -1.7240 -1.4815
  119SOL     OW  355   1.228   2.221   1.406  0.1159 -0.3332  0.7093
  119SOL    HW1  356   1.159   2.260   1.472  1.6204 -0.7298 -1.6345
  119SOL    HW2  357   1.180   2.162   1.334  0.4652 -0.0791 -0.2245
  120SOL     OW  358   0.227   1.945   1.442  0.0949  0.2594 -0.3881
  120SOL    HW1  359   0.190   1.889   1.522 -0.5490  0.3638  0.1083
  120SOL    HW2  360   0.327   1.951   1.450 -1.0307 -0.0080  0.1438
  121SOL     OW  361   2.507   1.500   1.098 -0.3209 -0.1574  0.2812
  121SOL    HW1  362   2.490   1.491   1.202 -1.1896 -0.9541  3.9187
  121SOL    HW2  363   2.426   1.542   1.060 -0.9806 -0.9585  2.8166
  122SOL     OW  364   2.205   1.749   2.722  0.0381 -0.2938 -0.1685
  122SOL    HW1  365   2.116   1.711   2.756 -0.0833 -0.9500 -3.1913
  122SOL    HW2  366   2.191   1.853   2.698  0.6528  0.8178 -1.6083
  123SOL     OW  367   2.674   2.750   0.559 -0.0713 -0.4176 -0.0327
  123SOL    HW1  368   2.664   2.662   0.607  0.9313  0.3632 -1.4689
  123SOL    HW2  369   2.611   2.818   0.597 -0.2345  1.9475  3.2391
  124SOL     OW  370   1.321   1.288   0.004 -0.6517 -0.6159  0.4039
  124SOL    HW1  371   1.280   1.302   0.091 -0.5044  0.0345 -2.4337
  124SOL    HW2  372   1.311   1.194   3.102  0.9149  2.2207 -0.1079
  125SOL     OW  373   0.194   1.397   2.775  0.1593 -0.0946 -0.1870
  125SOL    HW1  374   0.224   1.465   2.707  2.6394  0.4013  1.1682
  125SOL    HW2  375   0.278   1.354   2.814 -1.2624  0.4330  1.0302
  126SOL     OW  376   0.089   2.318   0.192 -0.2237  0.0034 -0.5611
  126SOL    HW1  377   0.185   2.312   0.231  1.0335  0.0304 -0.9967
  126SOL    HW2  378   0.025   2.252   0.241 -0.9029 -0.6876 -1.1920
  127SOL     OW  379   0.244   1.620   0.753 -0.2248 -0.0214  0.1650
  127SOL    HW1  380   0.177   1.545   0.756  1.5459  2.0594 -0.1645
  127SOL    HW2  381   0.247   1.651   0.653 -0.0441  1.2453  0.4593
  128SOL     OW  382   1.112   1.211   0.223 -0.5007  0.0919 -0.5087
  128SOL    HW1  383   1.145   1.300   0.264 -0.1763  0.1961 -0.8213
  128SOL    HW2  384   1.073   1.146   0.292 -0.9997  0.4071  1.7415
  129SOL     OW  385   2.222   1.904   1.305 -0.0416  0.7052 -0.3656
  129SOL    HW1  386   2.171   1.984   1.333  0.9150 -1.4216  0.9152
  129SOL    HW2  387   2.301   1.888   1.365 -1.6165  1.0349 -1.9040
  130SOL     OW  388   1.772   1.078   0.451 -0.5826  0.2822  0.2439
  130SOL    HW1  389   1.727   1.086   0.541 -1.5211  0.2246 -1.2483
  130SOL    HW2  390   1.824   0.988   0.448  1.2720 -2.1337  1.4402
  131SOL     OW  391   2.793   1.230   2.650  0.2708 -0.1747 -0.7782
  131SOL    HW1  392   2.784   1.179   2.741  1.0262  0.8774 -2.8546
  131SOL    HW2  393   2.724   1.311   2.654 -0.5763  2.8185 -1.4082
  132SOL     OW  394   1.783   1.771   2.224  0.0434  0.2617 -0.5189
  132SOL    HW1  395   1.732   1.854   2.200 -0.5849  0.6795  0.9795
  132SOL    HW2  396   1.881   1.792   2.233 -1.3653 -0.6045 -1.6981
  133SOL     OW  397   0.105   1.260   0.086  0.1225 -0.2178  0.0294
  133SOL    HW1  398   0.017   1.231   0.041 -1.8643 -0.4177 -0.4032
  133SOL    HW2  399   0.084   1.271   0.189 -1.1593 -2.5182 -2.7926
  134SOL     OW  400   2.757   0.986   0.625  0.3174  0.1117 -0.0678
  134SOL    HW1  401   2.682   1.004   0.559 -1.4616 -0.4582  0.1572
  134SOL    HW2  402   2.802   1.069   0.656  0.1982 -3.2300 -1.7677
  135SOL     OW  403   2.451   0.915   0.103 -0.6854 -0.2774 -0.5009
  135SOL    HW1  404   2.437   1.015   0.122 -2.4494 -1.6967  0.7531
  135SOL    HW2  405   2.454   0.898   0.006 -1.9144  0.6453  1.4561
  136SOL     OW  406   1.947   1.946   1.711  0.0182 -0.3562  0.3608
  136SOL    HW1  407   1.948   1.974   1.808 -0.1936 -0.4664  1.0253
  136SOL    HW2  408   2.045   1.948   1.673  0.0026 -0.6561 -1.9280
  137SOL     OW  409   2.346   2.560   0.566  0.4017 -0.0490  0.0092
  137SOL    HW1  410   2.344   2.489   0.491  1.8256  1.5943  0.8538
  137SOL    HW2  411   2.352   2.515   0.657  0.4006 -1.1426 -1.5524
  138SOL     OW  412   2.180   0.320   1.564 -0.5027 -0.1594  0.1055
  138SOL    HW1  413   2.101   0.373   1.530  0.3180 -1.2412  1.2030
  138SOL    HW2  414   2.187   0.323   1.663  1.0154  0.7150  1.7998
  139SOL     OW  415   2.599   0.186   2.774  0.2719  0.0527  0.7487
  139SOL    HW1  416   2.602   0.127   2.856 -0.2014  1.7956 -0.7257
  139SOL    HW2  417   2.671   0.261   2.780  1.3829 -0.7447  0.5374
  140SOL     OW  418   1.344   1.368   2.655  0.5347 -0.2465 -0.2579
  140SOL    HW1  419   1.416   1.370   2.584  1.5637 -3.2011  2.9061
  140SOL    HW2  420   1.277   1.440   2.636  3.2376 -1.6648 -2.9473
  141SOL     OW  421   0.657   0.697   2.285  0.0591  0.3610  0.5662
  141SOL    HW1  422   0.597   0.632   2.337  0.1751 -1.1508  0.3307
  141SOL    HW2  423   0.596   0.763   2.235 -1.8692  1.3940 -1.1985
  142SOL     OW  424   2.439   2.843   2.997 -0.8045  0.1063  0.0168
  142SOL    HW1  425   2.405   2.908   3.065  1.8957 -1.5594  0.1758
  142SOL    HW2  426   2.461   2.888   2.908 -0.2313 -0.9813  0.0682
  143SOL     OW  427   0.906   2.209   0.657 -0.1323 -0.0403 -0.0046
  143SOL    HW1  428   0.822   2.262   0.622 -0.6421 -0.8808 -0.2190
  143SOL    HW2  429   0.874   2.136   0.725 -0.2546 -2.1651 -1.1839
  144SOL     OW  430   1.046   2.699   0.372 -0.1667 -0.0356 -0.2993
  144SOL    HW1  431   0.991   2.612   0.371  0.7620 -1.4429 -0.1251
  144SOL    HW2  432   0.986   2.781   0.371  0.7471  1.4602  0.8355
  145SOL     OW  433   1.660   2.175   2.677  0.0094  0.9735 -0.0292
  145SOL    HW1  434   1.750   2.138   2.698  1.8493  1.9212  1.2031
  145SOL    HW2  435   1.617   2.126   2.596  2.4118  0.7086 -0.2023
  146SOL     OW  436   2.771   2.719   3.012 -0.0139  0.4883  1.1637
  146SOL    HW1  437   2.757   2.792   3.077 -1.2035  0.5453 -0.3770
  146SOL    HW2  438   2.808   2.755   2.922  0.3875  2.3408 -0.7085
  147SOL     OW  439   3.105   1.508   1.249  0.0083  0.0221  0.0541
  147SOL    HW1  440   0.066   1.550   1.271 -2.0129 -0.5535 -0.1873
  147SOL    HW2  441   3.026   1.569   1.223 -1.5889  0.3051  1.3518
  148SOL     OW  442   1.853   2.915   0.216 -0.4619 -0.5461 -0.3039
  148SOL    HW1  443   1.757   2.919   0.258 -1.3286 -1.4796 -1.9708
  148SOL    HW2  444   1.869   3.000   0.158 -1.2858  1.3890 -1.9700
  149SOL     OW  445   0.652   1.826   2.668  0.3112  0.7325 -0.5696
  149SOL    HW1  446   0.569   1.765   2.677 -1.5033 -0.0261 -0.7386
  149SOL    HW2  447   0.647   1.901   2.737  3.3486  1.3684  3.5824
  150SOL     OW  448   0.317   2.288   0.334 -0.4226  0.0095  0.5192
  150SOL    HW1  449   0.357   2.194   0.345  2.3514 -1.9084  5.5593
  150SOL    HW2  450   0.338   2.348   0.412 -0.4194  1.6868 -1.6711
  151SOL     OW  451   0.439   1.279   0.265 -0.3324  0.8212  0.0669
  151SOL    HW1  452   0.429   1.174   0.280 -1.1118 -3.3136  1.4604
  151SOL    HW2  453   0.396   1.302   0.174  0.0970  1.3347 -0.7498
  152SOL     OW  454   2.598   1.951   0.661 -0.4474  0.2577  0.2223
  152SOL    HW1  455   2.498   1.951   0.659  3.2522  0.4350  1.8828
  152SOL    HW2  456   2.636   1.978   0.569  2.6393 -2.0957 -0.8354
  153SOL     OW  457   1.969   2.301   0.495  0.3001  0.7972 -0.0204
  153SOL    HW1  458   1.961   2.322   0.398 -2.2511 -1.9473 -0.5893
  153SOL    HW2  459   1.926   2.364   0.563  2.1214 -0.2384 -1.8970
  154SOL     OW  460   0.839   2.906   0.877 -0.2285  0.4207 -0.4876
  154SOL    HW1  461   0.821   2.856   0.791 -0.3217  0.7268  0.3760
  154SOL    HW2  462   0.754   2.918   0.929  3.1542 -1.0272 -1.7357
  155SOL     OW  463   2.999   1.809   0.953 -0.0562  0.7514 -0.5148
  155SOL    HW1  464   2.985   1.753   0.868 -1.1165  1.3545 -4.1739
  155SOL    HW2  465   3.099   1.818   0.979 -1.4384  0.0266 -0.3632
  156SOL     OW  466   2.474   2.418   0.044 -0.0668  0.4053 -0.2842
  156SOL    HW1  467   2.485   2.315   0.047  0.6466  0.7734 -2.5180
  156SOL    HW2  468   2.561   2.453   0.074 -4.4834 -1.0887 -1.8142
  157SOL     OW  469   0.500   1.914   1.448  1.0079 -0.1946 -0.1534
  157SOL    HW1  470   0.526   1.998   1.500  0.5254  1.4285  0.1691
  157SOL    HW2  471   0.573   1.875   1.393 -4.6277  0.9943 -1.1350
  158SOL     OW  472   1.686   0.904   0.181 -0.2894 -0.0100 -0.1698
  158SOL    HW1  473   1.649   0.810   0.166 -0.6116 -0.9587  3.0395
  158SOL    HW2  474   1.790   0.909   0.188  4.3661 -0.8276  1.9567
  159SOL     OW  475   1.020   0.896   0.019  0.3846 -0.0016 -0.0274
  159SOL    HW1  476   0.950   0.934   0.088 -1.9230  1.1342  0.5257
  159SOL    HW2  477   1.030   0.794   0.011  4.1014 -0.2961 -4.4877
  160SOL     OW  478   0.832   1.332   0.527 -0.2511  0.3981  0.0739
  160SOL    HW1  479   0.789   1.360   0.616  0.3939 -0.7231  0.2684
  160SOL    HW2  480   0.923   1.379   0.516 -1.5470  2.5351  1.0752
  161SOL     OW  481   0.213   2.070   2.753  0.0346  0.0739  0.2647
  161SOL    HW1  482   0.113   2.098   2.757  0.2532 -1.5478 -1.4811
  161SOL    HW2  483   0.232   1.977   2.794  1.2400  2.1491 -1.3275
  162SOL     OW  484   3.101   2.394   0.932  0.0258 -0.0353  0.0445
  162SOL    HW1  485   3.115   2.309   0.986 -0.4058  1.4042  2.3931
  162SOL    HW2  486   0.004   2.482   0.977  0.3106  0.6134  0.9145
  163SOL     OW  487   2.802   0.693   2.896 -0.1053  0.2690 -0.0780
  163SOL    HW1  488   2.867   0.735   2.834 -2.0631 -0.2978  2.0460
  163SOL    HW2  489   2.847   0.690   2.992 -2.2598 -0.8709  1.8566
  164SOL     OW  490   0.479   0.054   2.819  0.1564  0.3270  0.1190
  164SOL    HW1  491   0.400   0.003   2.865 -3.1924 -2.2162  0.0550
  164SOL    HW2  492   0.515   3.124   2.745  0.2942  1.2142  1.0425
  165SOL     OW  493   2.214   0.407   1.835  0.3708  0.3885  0.3749
  165SOL    HW1  494   2.201   0.409   1.936  0.4983  2.0903  0.0944
  165SOL    HW2  495   2.259   0.493   1.805  0.4706 -3.5263  2.2643
  166SOL     OW  496   2.016   2.520   1.737  0.3178 -0.6709 -0.4774
  166SOL    HW1  497   2.041   2.425   1.764 -0.8613  0.9807  1.9893
  166SOL    HW2  498   2.003   2.580   1.822  1.7297 -0.4493 -1.4074
  167SOL     OW  499   1.193   0.884   2.111  0.2304 -0.6774  0.1251
  167SOL    HW1  500   1.171   0.937   2.191  0.4959 -2.7961 -2.7740
  167SOL    HW2  501   1.257   0.808   2.133 -3.0324  0.9554 -0.7900
  168SOL     OW  502   2.371   0.098   2.111  0.2039  0.4159  0.0579
  168SOL    HW1  503   2.298   0.072   2.039  0.0103  1.1226 -0.7704
  168SOL    HW2  504   2.435   0.158   2.061  2.1965  0.4962 -1.6623
  169SOL     OW  505   0.365   1.013   0.281  0.3065 -0.2280 -0.4136
  169SOL    HW1  506   0.307   0.983   0.363 -0.3905 -0.0677  1.1878
  169SOL    HW2  507   0.317   0.989   0.193  1.2604 -1.7976  1.3473
  170SOL     OW  508   3.115   1.543   1.811  0.2235  0.3858  0.9059
  170SOL    HW1  509   3.100   1.573   1.716  1.2259  0.2337  0.6561
  170SOL    HW2  510   3.037   1.565   1.875 -1.6519 -0.7167 -1.0810
  171SOL     OW  511   1.124   2.296   2.141  0.2517 -0.3553 -0.3618
  171SOL    HW1  512   1.052   2.332   2.075 -0.1587 -1.8530 -3.3245
  171SOL    HW2  513   1.081   2.280   2.232 -0.0443  0.7217 -1.2715
  172SOL     OW  514   0.903   2.348   1.983  0.3472  0.2602 -0.2263
  172SOL    HW1  515   0.872   2.325   1.883 -1.5853 -3.1538 -2.4641
  172SOL    HW2  516   0.905   2.446   2.001  1.7262  0.4954  0.1868
  173SOL     OW  517   1.265   2.651   0.909 -0.2485 -0.2940 -0.3726
  173SOL    HW1  518   1.366   2.662   0.934 -1.3242  0.1751  0.9478
  173SOL    HW2  519   1.247   2.700   0.825  0.5591 -3.7257  1.4832
  174SOL     OW  520   2.231   0.381   0.569 -0.1330  0.0849  0.8575
  174SOL    HW1  521   2.320   0.337   0.569 -0.6898 -1.2244  1.6357
  174SOL    HW2  522   2.204   0.414   0.660 -3.6304 -1.8775  1.0083
  175SOL     OW  523   1.066   1.815   0.348  0.2390  0.5208 -0.0007
  175SOL    HW1  524   1.162   1.781   0.354 -0.8792  0.3423  0.2468
  175SOL    HW2  525   1.025   1.834   0.436  4.1449 -0.0163 -4.4625
  176SOL     OW  526   0.791   1.460   0.759 -0.0500 -0.0767  0.2415
  176SOL    HW1  527   0.847   1.387   0.804  1.7231 -2.4010  0.7733
  176SOL    HW2  528   0.770   1.545   0.815  1.1912  2.8252  1.0509
  177SOL     OW  529   1.301   0.917   1.374 -0.4291  0.0533 -0.9446
  177SOL    HW1  530   1.299   0.921   1.272  1.7550  0.3940  1.7249
  177SOL    HW2  531   1.394   0.948   1.408 -0.7710  0.1307 -0.7845
  178SOL     OW  532   2.548   1.543   0.351  0.0899 -0.3729  0.4639
  178SOL    HW1  533   2.609   1.556   0.430 -1.4872 -0.5149 -1.5802
  178SOL    HW2  534   2.492   1.459   0.356 -3.0298  1.0434 -1.7027
  179SOL     OW  535   0.832   2.347   3.075  0.0263 -0.0935  0.2327
  179SOL    HW1  536   0.811   2.448   3.091  2.8153 -0.5000 -4.4313
  179SOL    HW2  537   0.770   2.281   3.127  1.2146  0.2410 -1.3648
  180SOL     OW  538   1.859   1.585   1.708  0.1426  0.0701  0.3617
  180SOL    HW1  539   1.934   1.569   1.777  1.5745  0.7087 -0.2513
  180SOL    HW2  540   1.901   1.590   1.615 -0.6853  1.9819 -0.4124
  181SOL     OW  541   0.820   1.086   2.256  0.7902  0.2913 -0.4120
  181SOL    HW1  542   0.800   1.058   2.160  1.4399  1.4300 -0.1700
  181SOL    HW2  543   0.913   1.056   2.284  0.3076  0.2125  0.8762
  182SOL     OW  544   2.871   1.091   2.272  0.4455 -0.0081 -0.3623
  182SOL    HW1  545   2.781   1.085   2.324 -1.3008 -0.4427 -0.4912
  182SOL    HW2  546   2.945   1.027   2.304  0.5337  0.7657 -1.7259
  183SOL     OW  547   1.591   0.459   2.201 -0.2046 -0.0823 -0.0697
  183SOL    HW1  548   1.575   0.386   2.134  0.7065 -1.2666  1.3392
  183SOL    HW2  549   1.507   0.465   2.268 -1.9066  0.2593 -0.2774
  184SOL     OW  550   0.340   0.695   1.704 -0.1516  0.2650  0.0358
  184SOL    HW1  551   0.311   0.630   1.781 -1.1132 -0.8140  0.9030
  184SOL    HW2  552   0.424   0.744   1.740  2.1587 -0.0866 -1.0468
  185SOL     OW  553   2.325   1.921   0.653 -0.0317  0.6313 -0.6557
  185SOL    HW1  554   2.333   1.863   0.570 -0.7038 -0.7994  1.6177
  185SOL    HW2  555   2.270   1.884   0.731 -3.7500  0.8564  2.7685
  186SOL     OW  556   0.510   1.810   3.099  0.5284 -0.0071 -0.4208
  186SOL    HW1  557   0.609   1.841   3.107 -0.1762  1.0215 -0.2800
  186SOL    HW2  558   0.495   1.718   0.017 -0.8949  0.4611  0.3643
  187SOL     OW  559   2.479   1.865   0.001  0.2779 -0.0425  0.3418
  187SOL    HW1  560   2.463   1.807   3.051  2.7084 -1.6694  0.5086
  187SOL    HW2  561   2.572   1.911   0.004  1.3479  0.2770  0.6418
  188SOL     OW  562   1.007   2.616   0.894  0.3807  0.3828 -0.0817
  188SOL    HW1  563   1.109   2.637   0.882 -0.0596 -2.5091 -0.1445
  188SOL    HW2  564   0.952   2.698   0.917  1.8748  1.5273  3.4987
  189SOL     OW  565   1.855   0.955   2.625  0.1952 -0.2808 -0.3522
  189SOL    HW1  566   1.808   0.925   2.537 -1.3799 -0.7406  0.4779
  189SOL    HW2  567   1.935   1.015   2.608  0.2053 -0.1456  1.8381
  190SOL     OW  568   0.920   1.896   2.334 -0.1058  0.6922  0.2497
  190SOL    HW1  569   0.876   1.807   2.318 -1.7659  1.0714  2.4663
  190SOL    HW2  570   0.870   1.942   2.413 -1.2437  1.8710  0.1301
  191SOL     OW  571   2.425   0.737   1.495  0.4092  0.1062 -0.0033
  191SOL    HW1  572   2.353   0.776   1.559 -0.4941  0.7680  2.4878
  191SOL    HW2  573   2.469   0.652   1.536 -1.6545 -1.3496 -3.1236
  192SOL     OW  574   2.365   0.499   2.289  0.1769  0.0369 -0.3175
  192SOL    HW1  575   2.408   0.536   2.377  0.5272  3.0655  2.8660
  192SOL    HW2  576   2.370   0.400   2.292 -0.5341 -1.3833 -0.5976
  193SOL     OW  577   0.788   0.392   0.732 -0.2828  0.2670 -0.0180
  193SOL    HW1  578   0.818   0.375   0.638 -1.3149 -0.0255  1.1152
  193SOL    HW2  579   0.827   0.324   0.798 -0.8067  0.2305 -0.9421
  194SOL     OW  580   1.419   2.455   1.760 -0.2925 -0.4036  0.4391
  194SOL    HW1  581   1.344   2.389   1.788 -2.1317  0.3573  0.9284
  194SOL    HW2  582   1.453   2.509   1.840  1.4765 -1.5201 -0.6144
  195SOL     OW  583   2.835   0.918   0.879  0.0238 -0.1735  0.3715
  195SOL    HW1  584   2.759   0.936   0.940  1.2813 -0.2639  1.4683
  195SOL    HW2  585   2.816   0.924   0.780  0.7412 -0.6844 -1.5900
  196SOL     OW  586   1.347   1.888   1.801 -0.5931 -0.0208  0.2065
  196SOL    HW1  587   1.320   1.947   1.719  0.7758 -0.0783 -2.3483
  196SOL    HW2  588   1.262   1.856   1.853 -1.0414 -0.6558  1.1716
  197SOL     OW  589   0.355   0.842   2.383 -0.1730  0.3886 -0.1994
  197SOL    HW1  590   0.360   0.868   2.287 -1.2447 -3.0252  3.5188
  197SOL    HW2  591   0.286   0.770   2.405 -1.9212  2.3697  0.6207
  198SOL     OW  592   1.461   1.076   0.168  0.1122  0.7122 -0.0795
  198SOL    HW1  593   1.541   1.011   0.182 -1.0429  1.3687  2.0233
  198SOL    HW2  594   1.442   1.076   0.068  0.3119  1.5367  0.1810
  199SOL     OW  595   2.737   0.630   2.172 -0.2386 -0.1805  0.2854
  199SOL    HW1  596   2.700   0.556   2.233  1.1376  0.4717  0.2048
  199SOL    HW2  597   2.685   0.713   2.188  3.1293 -1.1371  0.9926
  200SOL     OW  598   2.385   2.704   2.554 -0.2598  0.3375  0.0924
  200SOL    HW1  599   2.471   2.697   2.502 -0.7121 -0.8215 -2.1281
  200SOL    HW2  600   2.342   2.616   2.576 -0.7677 -0.0828  2.9116
  201SOL     OW  601   2.344   0.151   1.426 -0.1548 -0.2077 -0.0470
  201SOL    HW1  602   2.280   0.215   1.465  0.7220 -3.3172 -1.2101
  201SOL    HW2  603   2.310   0.057   1.441 -0.1327  1.2271  0.0447
  202SOL     OW  604   2.310   3.018   0.055  0.5653  0.0204  0.3230
  202SOL    HW1  605   2.310   3.015   0.152  1.1212  0.2026 -1.0270
  202SOL    HW2  606   2.215   3.008   0.019  0.2646  0.9310  1.5180
  203SOL     OW  607   0.758   2.028   2.518  0.7524 -0.1644 -0.2452
  203SOL    HW1  608   0.744   1.953   2.586 -0.9217 -2.8620  1.6840
  203SOL    HW2  609   0.780   2.116   2.568  0.8597  1.4250 -0.3912
  204SOL     OW  610   0.750   1.406   2.713  0.2977 -0.2391 -0.4279
  204SOL    HW1  611   0.711   1.443   2.801 -1.5875 -1.4027  2.3248
  204SOL    HW2  612   0.800   1.315   2.726  0.9517 -0.5142  2.0985
  205SOL     OW  613   0.938   1.013   1.150  0.0785  0.1642  0.6876
  205SOL    HW1  614   0.992   0.964   1.223 -0.4796 -4.2725  1.4941
  205SOL    HW2  615   0.988   1.072   1.086 -0.4844 -2.6416 -0.9073
  206SOL     OW  616   0.086   0.759   2.658 -0.5152  0.0464 -0.3192
  206SOL    HW1  617   0.158   0.831   2.678  0.1177  1.4400  0.8359
  206SOL    HW2  618   0.103   0.708   2.573  0.7587 -0.0835  0.7755
  207SOL     OW  619   1.784   2.466   2.031 -0.3913 -0.1838  0.1386
  207SOL    HW1  620   1.846   2.529   1.980  0.8999 -1.8103  0.0870
  207SOL    HW2  621   1.773   2.378   1.981 -0.6462  1.8212  2.0381
  208SOL     OW  622   0.951   2.862   1.250 -0.1043 -0.3583 -0.2341
  208SOL    HW1  623   0.892   2.787   1.218  3.2549 -0.5528  0.3410
  208SOL    HW2  624   1.052   2.852   1.241 -2.0600 -1.6870  1.8430
  209SOL     OW  625   1.242   1.443   2.940  0.3536  0.3238  0.2371
  209SOL    HW1  626   1.270   1.386   3.017  1.6409  2.6239 -2.5770
  209SOL    HW2  627   1.261   1.398   2.851  1.0743  0.1554  0.6754
  210SOL     OW  628   2.390   0.868   0.933 -0.0662  0.4007  0.0878
  210SOL    HW1  629   2.466   0.904   0.993  0.8017  1.2826  0.1906
  210SOL    HW2  630   2.393   0.913   0.842 -0.2736 -0.3256  0.8189
  211SOL     OW  631   1.194   2.918   0.459  0.4474  0.2256  0.0514
  211SOL    HW1  632   1.286   2.902   0.497 -1.2090  1.2190 -4.2975
  211SOL    HW2  633   1.145   2.825   0.456  0.7191  0.4561  0.0677
  212SOL     OW  634   2.175   2.140   0.669  0.6633  0.3480  0.4378
  212SOL    HW1  635   2.238   2.061   0.651 -1.4932 -1.0002  0.0130
  212SOL    HW2  636   2.122   2.160   0.588  3.3651 -0.9207  3.1026
  213SOL     OW  637   1.663   0.657   2.903 -0.0073  0.4273 -0.0564
  213SOL    HW1  638   1.698   0.600   2.978  1.2296  0.9665 -1.4896
  213SOL    HW2  639   1.739   0.673   2.835  2.6195 -0.8599 -0.1725
  214SOL     OW  640   1.154   1.818   1.959 -0.2325 -0.0014  0.8965
  214SOL    HW1  641   1.054   1.831   1.943 -1.4185 -1.5762 -2.0161
  214SOL    HW2  642   1.181   1.734   2.011  0.2947 -0.3650 -0.8119
  215SOL     OW  643   0.403   1.431   0.498 -0.7562 -0.0882  0.4401
  215SOL    HW1  644   0.416   1.408   0.400  1.6069  0.4558 -0.4686
  215SOL    HW2  645   0.368   1.527   0.502 -1.0847 -1.7861  0.4437
  216SOL     OW  646   0.079   3.103   2.302 -0.0321 -0.0442 -0.2092
  216SOL    HW1  647   0.169   3.108   2.347  2.9627  0.2474  2.3024
  216SOL    HW2  648   0.089   3.040   2.226 -1.4804  0.7582  1.4962
  217SOL     OW  649   2.542   0.965   1.378  0.3963 -0.0534  0.3810
  217SOL    HW1  650   2.503   0.883   1.421  2.1530  1.1042  0.0703
  217SOL    HW2  651   2.632   0.936   1.344 -1.0853 -1.5369  0.4721
  218SOL     OW  652   1.355   1.764   2.224 -0.1540  0.0170  0.5137
  218SOL    HW1  653   1.408   1.810   2.149  0.8815  1.2346  0.2043
  218SOL    HW2  654   1.294   1.835   2.267 -1.0725  1.7679 -1.1309
  219SOL     OW  655   1.850   1.636   3.106 -0.6679  0.0193 -0.3940
  219SOL    HW1  656   1.916   1.637   0.057  1.2811  0.7116  2.4669
  219SOL    HW2  657   1.759   1.671   3.122  0.7383  3.1054 -1.9364
  220SOL     OW  658   2.016   0.912   0.201 -0.2244 -0.1791 -0.1964
  220SOL    HW1  659   2.077   0.992   0.208  0.5077 -0.1380 -0.3638
  220SOL    HW2  660   2.036   0.863   0.118  0.6154 -1.3130  0.6343
  221SOL     OW  661   0.105   0.354   0.064 -0.3787  0.1197  0.3919
  221SOL    HW1  662   0.188   0.309   0.039 -2.8862 -0.3877  1.0527
  221SOL    HW2  663   0.101   0.448   0.028 -0.3915 -0.6449  2.3235
  222SOL     OW  664   1.465   1.896   0.531  0.0661 -0.3071 -0.1644
  222SOL    HW1  665   1.518   1.827   0.583  1.3247 -0.8004  0.6316
  222SOL    HW2  666   1.432   1.971   0.593  1.1965 -1.0186  1.3326
  223SOL     OW  667   0.854   3.109   3.111 -0.5766  0.5772 -0.3506
  223SOL    HW1  668   0.887   0.068   0.013  2.4271 -1.9497  1.5857
  223SOL    HW2  669   0.920   3.054   3.058 -4.5571 -0.5831  0.5830
  224SOL     OW  670   1.802   0.010   1.217 -0.0078 -0.3422 -0.3054
  224SOL    HW1  671   1.768   0.021   1.311 -0.5984 -1.8354 -1.1699
  224SOL    HW2  672   1.822   3.045   1.194 -2.8966 -0.1382 -0.5243
  225SOL     OW  673   0.509   2.460   1.301 -0.6791 -0.2487 -0.4464
  225SOL    HW1  674   0.467   2.470   1.210 -0.5543 -2.7641 -0.3570
  225SOL    HW2  675   0.517   2.547   1.353 -1.7795 -1.1421 -1.4481
  226SOL     OW  676   1.013   1.816   0.072  0.4507 -0.4511  0.0894
  226SOL    HW1  677   1.054   1.895   0.022 -0.3519  0.1607  1.8569
  226SOL    HW2  678   1.060   1.804   0.162 -0.4613 -0.6442  0.6074
  227SOL     OW  679   0.891   1.811   1.003  0.0234  0.1099  0.2671
  227SOL    HW1  680   0.811   1.747   1.005 -1.7254  0.8788  0.6118
  227SOL    HW2  681   0.907   1.830   1.101  0.5096 -0.1865 -0.0588
  228SOL     OW  682   0.254   1.664   0.481  0.2048  0.1847  0.5737
  228SOL    HW1  683   0.171   1.617   0.441  0.6045  0.1283  3.2107
  228SOL    HW2  684   0.268   1.743   0.421 -1.5201 -0.8464  0.1942
  229SOL     OW  685   1.903   0.236   2.614 -0.2593 -0.5579  0.3669
  229SOL    HW1  686   1.971   0.217   2.536  0.6559  0.2814  1.5622
  229SOL    HW2  687   1.871   0.148   2.657  0.5658  0.1711  0.1132
  230SOL     OW  688   2.018   1.087   2.994 -0.2646  0.2233 -0.6081
  230SOL    HW1  689   1.997   1.051   2.901  2.1517  2.5329  2.7665
  230SOL    HW2  690   1.928   1.094   3.047 -2.3988 -0.7664  0.8149
  231SOL     OW  691   1.110   1.570   2.598  1.0361  0.0439 -0.0271
  231SOL    HW1  692   1.011   1.595   2.607  1.2142  3.4143 -0.8139
  231SOL    HW2  693   1.171   1.641   2.628  3.2336 -1.4929 -2.2632
  232SOL     OW  694   2.418   2.371   0.386 -0.6633  0.0980  0.2199
  232SOL    HW1  695   2.515   2.393   0.373  0.0852 -0.3091 -1.1216
  232SOL    HW2  696   2.411   2.271   0.394 -1.1088  3.8263 -2.4985
  233SOL     OW  697   0.024   2.523   0.454 -0.5205  0.3472 -0.5062
  233SOL    HW1  698   0.066   2.431   0.442  0.2037 -0.8886 -0.4060
  233SOL    HW2  699   3.087   2.549   0.383  2.0389 -1.1691 -0.0846
  234SOL     OW  700   0.643   0.694   2.748 -0.2689 -0.0788  0.0004
  234SOL    HW1  701   0.611   0.774   2.693 -0.3945  3.4737  0.5953
  234SOL    HW2  702   0.706   0.720   2.826 -0.4413 -0.2137 -0.8351
  235SOL     OW  703   2.681   0.443   2.371  0.1504  0.3181  0.5419
  235SOL    HW1  704   2.603   0.411   2.434  1.0021  1.0068  1.7377
  235SOL    HW2  705   2.765   0.455   2.418 -1.4777 -1.6067 -0.5903
  236SOL     OW  706   1.805   2.450   1.234  0.0451 -0.1636  0.3854
  236SOL    HW1  707   1.842   2.473   1.325 -2.2306  2.0923  1.2700
  236SOL    HW2  708   1.859   2.387   1.182 -0.5060  0.1817  1.0069
  237SOL     OW  709   0.818   1.653   2.349 -0.2838  0.0101  0.5107
  237SOL    HW1  710   0.873   1.592   2.288 -0.7542  0.4781 -1.1423
  237SOL    HW2  711   0.854   1.649   2.441 -2.0783 -0.8479  0.4332
  238SOL     OW  712   1.173   0.291   2.375  0.6676 -0.0303 -0.1210
  238SOL    HW1  713   1.162   0.235   2.462 -1.9564  1.1703  0.5501
  238SOL    HW2  714   1.222   0.239   2.299  0.7420 -1.8592  0.4797
  239SOL     OW  715   0.427   1.973   1.980  0.2807 -0.0235  0.7852
  239SOL    HW1  716   0.495   2.044   2.014  2.0282 -0.8643 -0.4412
  239SOL    HW2  717   0.366   2.012   1.907 -1.6754 -0.0327  2.6168
  240SOL     OW  718   2.608   2.746   0.297  0.4611 -0.0255 -0.1645
  240SOL    HW1  719   2.508   2.745   0.302 -0.4066 -1.1344  2.4588
  240SOL    HW2  720   2.644   2.750   0.393 -0.1983  0.0561  2.0165
  241SOL     OW  721   2.633   1.016   1.055  0.1342  0.2687  0.2362
  241SOL    HW1  722   2.660   1.002   1.150 -0.4359  0.7719 -2.1786
  241SOL    HW2  723   2.568   1.095   1.041 -1.0809 -0.2676  1.9001
  242SOL     OW  724   2.361   2.525   2.142 -0.2888  0.0026 -0.0881
  242SOL    HW1  725   2.272   2.495   2.115  4.0599  3.9572  0.2362
  242SOL    HW2  726   2.354   2.604   2.207 -2.3892 -1.7461 -0.2700
  243SOL     OW  727   0.852   2.674   1.745 -0.0127 -0.1914  0.6268
  243SOL    HW1  728   0.792   2.728   1.683 -0.8576 -1.2724  0.0325
  243SOL    HW2  729   0.863   2.730   1.826 -0.7202  0.4783  1.4065
  244SOL     OW  730   2.272   0.324   2.681  0.4250 -0.0343 -0.6505
  244SOL    HW1  731   2.257   0.223   2.662  2.6758 -1.1870  0.9456
  244SOL    HW2  732   2.198   0.380   2.649  3.3200 -0.1754 -0.8301
  245SOL     OW  733   1.595   0.371   1.384 -0.7176  0.2717 -0.3300
  245SOL    HW1  734   1.568   0.466   1.415 -0.9174  2.1801  1.0853
  245SOL    HW2  735   1.523   0.314   1.340 -1.1687  0.8939 -0.7715
  246SOL     OW  736   1.770   2.582   3.028  0.6545 -0.2156  0.1867
  246SOL    HW1  737   1.858   2.534   3.002 -2.5212  0.4060 -0.7941
  246SOL    HW2  738   1.734   2.646   2.958 -1.6575  0.2872  0.0964
  247SOL     OW  739   1.355   0.682   2.165  0.1598 -0.2823  0.1366
  247SOL    HW1  740   1.353   0.615   2.236  0.1551  4.1204 -3.6514
  247SOL    HW2  741   1.451   0.702   2.141 -0.0853  1.1656  1.0956
  248SOL     OW  742   0.602   1.741   1.928 -0.0267 -0.0870 -0.7027
  248SOL    HW1  743   0.568   1.661   1.980  0.0593 -1.4703  0.6803
  248SOL    HW2  744   0.543   1.822   1.945 -1.8371  0.8273  0.5029
  249SOL     OW  745   2.483   0.263   0.528 -0.0693 -0.7870 -0.3929
  249SOL    HW1  746   2.458   0.263   0.430 -0.2032  0.7545  2.4000
  249SOL    HW2  747   2.530   0.173   0.548  0.6882  0.1784 -0.2876
  250SOL     OW  748   2.751   0.387   2.833 -0.1585  0.3511 -0.9782
  250SOL    HW1  749   2.814   0.368   2.914  0.1917 -0.6562 -0.6296
  250SOL    HW2  750   2.774   0.476   2.787 -1.6178  1.2740 -3.8856
  251SOL     OW  751   1.352   0.748   3.058 -0.1184 -0.2903  0.0254
  251SOL    HW1  752   1.353   0.850   3.058 -2.6971 -2.4710  2.2856
  251SOL    HW2  753   1.262   0.717   3.099  0.6884 -0.1012 -2.4115
  252SOL     OW  754   1.919   2.036   1.974  0.1149  0.1587  0.7173
  252SOL    HW1  755   1.836   2.089   1.991  1.3648 -0.2587 -0.5536
  252SOL    HW2  756   1.947   2.001   2.059 -0.6670  1.3738 -2.7200
  253SOL     OW  757   2.259   2.347   1.163 -0.3878  0.1151 -0.0135
  253SOL    HW1  758   2.283   2.446   1.150 -1.3883 -0.7139 -0.5333
  253SOL    HW2  759   2.161   2.328   1.151  2.8606  0.0942  1.7249
  254SOL     OW  760   2.521   1.316   0.675  0.2677 -0.2298  0.0046
  254SOL    HW1  761   2.573   1.402   0.656  1.8686  0.8951 -4.0905
  254SOL    HW2  762   2.526   1.291   0.774  1.1995  2.0032  1.4073
  255SOL     OW  763   1.364   0.253   1.233 -0.4763 -0.1608 -0.0032
  255SOL    HW1  764   1.310   0.180   1.277 -0.8339  0.4612  1.5507
  255SOL    HW2  765   1.424   0.226   1.155 -0.3902  0.9843  1.3235
  256SOL     OW  766   1.456   2.311   1.511  0.0591  0.4777  0.5063
  256SOL    HW1  767   1.421   2.368   1.588 -1.6858  0.0223  1.1395
  256SOL    HW2  768   1.375   2.269   1.466  0.2227 -1.8237  1.0404
  257SOL     OW  769   0.589   3.082   2.594 -0.1196 -0.4942  0.2019
  257SOL    HW1  770   0.670   0.013   2.565  0.3855  2.6011 -0.1275
  257SOL    HW2  771   0.597   2.979   2.576 -0.9689 -4.6123 -1.3789
  258SOL     OW  772   0.825   2.536   0.635  0.5823  0.4046 -0.3256
  258SOL    HW1  773   0.892   2.566   0.706 -1.2021  1.7165 -2.4131
  258SOL    HW2  774   0.871   2.518   0.552  0.7996 -2.4632  1.7669
  259SOL     OW  775   1.594   0.221   2.777 -0.6106 -0.6392 -0.3485
  259SOL    HW1  776   1.505   0.192   2.808  3.8213 -2.0528  1.9525
  259SOL    HW2  777   1.597   0.305   2.719  1.7993 -4.0364 -1.3656
  260SOL     OW  778   2.552   0.328   1.376 -0.6630 -0.2976  0.3862
  260SOL    HW1  779   2.486   0.263   1.411  0.5262  2.4768 -0.5893
  260SOL    HW2  780   2.646   0.286   1.386 -0.5204  1.7375  1.2582
  261SOL     OW  781   0.778   0.498   2.612  0.0227  0.5705  0.1585
  261SOL    HW1  782   0.714   0.563   2.661  0.2255  2.4915  1.5262
  261SOL    HW2  783   0.868   0.542   2.591 -2.1332  0.0921  2.4415
  262SOL     OW  784   0.529   2.436   2.132 -0.2822  0.0612  0.4587
  262SOL    HW1  785   0.440   2.469   2.158  1.7987 -0.0087  1.0061
  262SOL    HW2  786   0.566   2.491   2.055  0.2122  1.1616  0.9901
  263SOL     OW  787   0.270   1.540   2.567  0.6640 -0.4315 -0.0579
  263SOL    HW1  788   0.184   1.568   2.516 -1.8229 -1.8657 -2.2415
  263SOL    HW2  789   0.330   1.472   2.516  0.1689 -0.9214 -0.6538
  264SOL     OW  790   1.271   1.581   0.683 -0.9974  0.0256 -0.3885
  264SOL    HW1  791   1.352   1.551   0.738  2.5661 -3.0037  1.6977
  264SOL    HW2  792   1.209   1.625   0.754 -1.5261  1.8326  3.9924
  265SOL     OW  793   1.412   2.818   0.609  0.9405  0.6205  0.8205
  265SOL    HW1  794   1.470   2.733   0.607 -1.1729  1.2488  1.3326
  265SOL    HW2  795   1.476   2.899   0.596  0.2102  1.4788  0.9727
  266SOL     OW  796   1.960   0.670   1.298  0.1521 -0.0549  0.3083
  266SOL    HW1  797   1.919   0.580   1.290  2.0436  3.8186  0.7599
  266SOL    HW2  798   2.058   0.665   1.276 -0.8628 -2.3355  1.0609
  267SOL     OW  799   2.618   1.257   2.977  0.0852 -0.4411 -0.0828
  267SOL    HW1  800   2.551   1.211   2.920  1.7840  1.2164  1.0364
  267SOL    HW2  801   2.689   1.189   2.973 -2.5309  0.7033  0.4493
  268SOL     OW  802   1.478   0.218   0.058 -0.0337  0.0382 -0.1531
  268SOL    HW1  803   1.516   0.191   0.146 -0.7120 -1.3201  0.1812
  268SOL    HW2  804   1.397   0.278   0.072 -0.8257 -0.3284 -2.2484
  269SOL     OW  805   2.638   0.820   2.515  0.2474 -0.3683  0.4613
  269SOL    HW1  806   2.744   0.801   2.520  1.1036 -1.9152  1.2844
  269SOL    HW2  807   2.616   0.809   2.418  0.2022 -0.7725  1.5824
  270SOL     OW  808   0.035   1.598   0.324 -0.4254 -0.3546 -0.7627
  270SOL    HW1  809   0.034   1.500   0.341 -1.5650  0.7062  2.4040
  270SOL    HW2  810   0.082   1.626   0.234  0.6702  1.8996  0.5235
  271SOL     OW  811   2.525   0.933   2.963 -0.3417  0.4149 -0.1702
  271SOL    HW1  812   2.474   0.990   2.900 -2.0727 -0.0925  1.8961
  271SOL    HW2  813   2.504   0.833   2.946  3.7312 -0.7256 -0.4860
  272SOL     OW  814   3.102   2.489   2.324  0.3363 -0.8196  0.1262
  272SOL    HW1  815   0.036   2.421   2.361 -2.4076  2.6309 -2.8335
  272SOL    HW2  816   3.012   2.448   2.297 -0.9611  1.8224  0.3609
  273SOL     OW  817   0.179   3.025   0.507 -0.1452 -0.2618 -0.4024
  273SOL    HW1  818   0.187   2.930   0.470 -0.6439  0.0396 -0.5441
  273SOL    HW2  819   0.097   3.071   0.471  0.1557  0.7769  0.1067
  274SOL     OW  820   0.714   2.256   0.962 -0.6674 -0.0662  0.9856
  274SOL    HW1  821   0.686   2.329   1.026  1.2819 -0.6439 -0.3981
  274SOL    HW2  822   0.811   2.269   0.927  0.1564 -1.8796  1.9954
  275SOL     OW  823   2.357   0.963   0.661  0.2408  1.0181 -0.6148
  275SOL    HW1  824   2.253   0.968   0.644 -3.1606  2.5740 -0.4484
  275SOL    HW2  825   2.408   1.024   0.594  2.1594  1.0033 -1.6121
  276SOL     OW  826   2.495   1.552   1.530  0.3338  0.0841 -0.1958
  276SOL    HW1  827   2.450   1.497   1.456  0.5041 -1.9146 -1.2391
  276SOL    HW2  828   2.540   1.489   1.598 -1.5790  0.4690 -0.9109
  277SOL     OW  829   2.570   2.962   0.761  0.1562 -0.2840  0.7607
  277SOL    HW1  830   2.536   3.012   0.839  0.0575 -1.9778 -0.7996
  277SOL    HW2  831   2.670   2.953   0.768  2.1796  0.5223  0.8212
  278SOL     OW  832   1.684   0.053   2.376 -0.5280  0.7575 -0.1050
  278SOL    HW1  833   1.651   0.017   2.466  0.1688  0.7937  0.1584
  278SOL    HW2  834   1.725   0.147   2.378 -3.0474  0.2501 -2.6862
  279SOL     OW  835   1.533   2.655   0.933 -0.2237  0.4977 -0.0575
  279SOL    HW1  836   1.577   2.728   0.877  1.5149  0.6115  0.7151
  279SOL    HW2  837   1.601   2.579   0.953 -0.9262  2.3015  3.7392
  280SOL     OW  838   0.765   1.079   0.836  0.7342  0.4759  0.4454
  280SOL    HW1  839   0.812   1.144   0.896  0.4287 -0.7561 -1.3409
  280SOL    HW2  840   0.671   1.101   0.816  1.5696 -2.7722 -0.1200
  281SOL     OW  841   2.458   1.511   3.050 -0.4863  1.0213 -0.2555
  281SOL    HW1  842   2.504   1.434   2.996  0.1735 -0.8463 -4.4943
  281SOL    HW2  843   2.458   1.598   3.001 -1.8498  0.5813 -0.4311
  282SOL     OW  844   0.045   1.334   0.358  0.3255  0.5886  0.1861
  282SOL    HW1  845   3.095   1.274   0.373  2.1914  0.1087  1.8524
  282SOL    HW2  846   0.119   1.311   0.422  1.0392  0.8494  0.8610
  283SOL     OW  847   1.621   2.631   2.692 -0.2707  0.2481 -0.1056
  283SOL    HW1  848   1.624   2.699   2.615  0.5882 -0.4719  2.1264
  283SOL    HW2  849   1.653   2.677   2.778 -0.8756  0.1399 -0.0319
  284SOL     OW  850   1.106   0.153   0.122  0.3848  0.5509  0.6869
  284SOL    HW1  851   1.170   0.092   0.172 -0.5761 -2.0919 -2.8339
  284SOL    HW2  852   1.151   0.233   0.079  1.0129 -1.0359 -1.6733
  285SOL     OW  853   2.274   1.503   2.568  0.2510 -0.1313  0.0466
  285SOL    HW1  854   2.263   1.586   2.631 -1.3329 -0.5474  0.1165
  285SOL    HW2  855   2.212   1.497   2.484 -0.7553  0.6201 -3.1312
  286SOL     OW  856   1.667   2.408   0.946 -0.9259 -0.1013 -0.0333
  286SOL    HW1  857   1.768   2.411   0.937 -0.4166 -0.2461  1.4304
  286SOL    HW2  858   1.619   2.355   0.872  0.5141 -2.1303  1.8033
  287SOL     OW  859   1.616   0.939   0.810  0.1928  0.0750 -0.4546
  287SOL    HW1  860   1.648   1.034   0.781  0.6169  0.0741  0.7560
  287SOL    HW2  861   1.548   0.903   0.750  2.6325 -2.9888 -2.5219
  288SOL     OW  862   0.941   2.891   2.519 -0.0024 -0.3420 -0.6787
  288SOL    HW1  863   0.892   2.895   2.608 -0.7776  0.9123  1.0694
  288SOL    HW2  864   0.871   2.876   2.448 -0.2414 -1.5841 -1.8846
  289SOL     OW  865   0.076   1.388   0.772 -0.0594 -0.1343  0.4454
  289SOL    HW1  866   0.126   1.316   0.826  1.0203  1.7551  1.6602
  289SOL    HW2  867   3.119   1.412   0.822  0.7135 -1.5535 -0.3747
  290SOL     OW  868   1.300   2.356   0.919 -0.2073 -0.7436  0.2852
  290SOL    HW1  869   1.310   2.453   0.934 -0.3326 -2.3305  0.1869
  290SOL    HW2  870   1.254   2.335   0.832 -1.9339  1.6330 -1.4587
  291SOL     OW  871   1.624   2.977   0.579 -0.2523 -0.4344 -0.1943
  291SOL    HW1  872   1.639   3.066   0.627  1.8892 -1.9639 -1.5311
  291SOL    HW2  873   1.662   2.896   0.624 -2.1302 -0.1529 -3.0180
  292SOL     OW  874   0.495   0.472   2.366  0.3429  0.0451 -0.1871
  292SOL    HW1  875   0.406   0.485   2.411  0.6676  0.5343 -0.3841
  292SOL    HW2  876   0.546   0.397   2.411 -1.8680  2.5717 -1.7337
  293SOL     OW  877   2.661   1.728   0.805  0.1494  0.2273  0.0055
  293SOL    HW1  878   2.648   1.812   0.746 -2.9977  1.6507  0.7874
  293SOL    HW2  879   2.616   1.752   0.892  0.8283  0.7867 -2.2968
  294SOL     OW  880   0.792   0.130   2.202 -0.0069 -0.1896  0.7390
  294SOL    HW1  881   0.706   0.141   2.147  0.7011  0.6100 -1.4655
  294SOL    HW2  882   0.844   0.054   2.170 -1.7079  2.8046  1.6803
  295SOL     OW  883   1.113   1.670   0.881  0.4865  0.3088 -0.2100
  295SOL    HW1  884   1.190   1.683   0.948 -0.1412 -0.3842  1.5994
  295SOL    HW2  885   1.027   1.714   0.923  0.3815  2.1038 -1.0121
  296SOL     OW  886   2.377   1.749   0.431 -0.2392 -0.0938 -0.3295
  296SOL    HW1  887   2.332   1.773   0.343  0.4683 -2.2027  0.5813
  296SOL    HW2  888   2.436   1.665   0.416 -2.4457  0.7714 -0.4401
  297SOL     OW  889   2.598   0.007   2.975 -0.2615  0.5106 -0.3889
  297SOL    HW1  890   2.514   3.078   2.991 -0.2563  1.0212  2.5837
  297SOL    HW2  891   2.682   3.080   2.968 -0.6967  0.8455 -0.3113
  298SOL     OW  892   1.103   0.085   2.862  0.1592  0.3616 -0.4534
  298SOL    HW1  893   1.039   0.161   2.854 -0.2035  0.3690  0.4837
  298SOL    HW2  894   1.076   0.007   2.922  0.7104  0.6940  0.1527
  299SOL     OW  895   0.983   2.611   2.090  0.2300 -0.4498  0.4658
  299SOL    HW1  896   0.893   2.654   2.072 -0.5942 -0.8771  1.8985
  299SOL    HW2  897   1.003   2.608   2.191 -0.0949  0.4700  1.4257
  300SOL     OW  898   2.830   3.040   2.046 -0.4280  0.2581  0.1830
  300SOL    HW1  899   2.863   3.040   2.145 -0.3994  0.7962 -0.3716
  300SOL    HW2  900   2.853   3.127   2.000 -0.8855 -2.2024 -0.6621
  301SOL     OW  901   1.503   0.314   1.740  0.4953  0.0609  0.4065
  301SOL    HW1  902   1.425   0.280   1.680 -1.8315 -1.2617 -1.5164
  301SOL    HW2  903   1.588   0.304   1.684  0.2985  0.8611 -1.8494
  302SOL     OW  904   0.386   2.424   3.010  0.5877  0.4167 -0.1412
  302SOL    HW1  905   0.414   2.423   3.110 -1.4086  0.4810 -0.6522
  302SOL    HW2  906   0.433   2.498   2.959 -2.7870 -0.6206  2.9788
  303SOL     OW  907   1.841   2.464   1.518  0.1200 -0.2654  0.5734
  303SOL    HW1  908   1.793   2.385   1.564 -0.5919  0.9212 -2.0573
  303SOL    HW2  909   1.911   2.499   1.582 -1.3812 -0.4060  2.4653
  304SOL     OW  910   2.785   0.932   1.274  0.0116 -0.0309 -0.0394
  304SOL    HW1  911   2.827   0.857   1.216  0.2683  0.4490 -2.9807
  304SOL    HW2  912   2.859   0.975   1.333  0.9898  0.9727  1.2577
  305SOL     OW  913   0.497   1.275   0.734  0.0369 -0.6158 -0.0162
  305SOL    HW1  914   0.507   1.348   0.803 -1.4894  2.2162 -0.8305
  305SOL    HW2  915   0.465   1.320   0.647 -0.5343 -0.2386  4.1451
  306SOL     OW  916   0.426   1.263   2.872 -0.1431  0.2216 -0.2754
  306SOL    HW1  917   0.441   1.172   2.913 -0.3703 -2.0168 -1.0995
  306SOL    HW2  918   0.453   1.252   2.772 -1.7057 -1.8486 -2.1285
  307SOL     OW  919   0.993   2.995   1.661 -0.2554 -0.5753 -0.7117
  307SOL    HW1  920   1.080   2.957   1.626  1.2562 -1.2239  0.7209
  307SOL    HW2  921   1.016   3.089   1.699  0.3403  1.7599  0.8366
  308SOL     OW  922   0.336   0.971   1.009  0.4421  0.0985 -0.3120
  308SOL    HW1  923   0.407   0.999   1.076  1.8367 -2.6970 -0.5154
  308SOL    HW2  924   0.379   0.972   0.913  1.8440  0.2208 -1.2752
  309SOL     OW  925   2.441   1.245   0.959 -0.1890 -0.3920 -0.4981
  309SOL    HW1  926   2.348   1.215   0.987  1.6946 -3.1611 -0.4459
  309SOL    HW2  927   2.462   1.333   1.010 -0.3056 -0.0911  2.2241
  310SOL     OW  928   0.438   1.667   2.729 -0.1253 -0.2641 -0.0119
  310SOL    HW1  929   0.375   1.624   2.664  1.8483  0.8372 -1.1524
  310SOL    HW2  930   0.381   1.724   2.798  0.8526  3.0282  0.4327
  311SOL     OW  931   2.613   2.713   2.385 -0.8774  0.5993 -0.2731
  311SOL    HW1  932   2.605   2.747   2.291  2.7577 -2.4999 -0.0291
  311SOL    HW2  933   2.676   2.768   2.434 -1.3584 -2.1094 -2.5826
  312SOL     OW  934   2.249   2.109   3.080 -0.4230  0.0386 -0.1630
  312SOL    HW1  935   2.183   2.030   3.094  0.9676  2.8732 -2.0919
  312SOL    HW2  936   2.344   2.077   3.073 -0.0223  0.1939 -0.0973
  313SOL     OW  937   0.642   0.115   0.477 -0.4656  0.3729  0.4505
  313SOL    HW1  938   0.602   0.198   0.432 -0.7368 -0.1157  1.6982
  313SOL    HW2  939   0.580   0.037   0.461  0.7411  2.3206 -1.2521
  314SOL     OW  940   2.254   1.334   2.781  0.3449 -0.6560 -0.2997
  314SOL    HW1  941   2.193   1.368   2.855  0.7463  2.5037 -0.9484
  314SOL    HW2  942   2.248   1.388   2.697  0.2695  0.7041  0.7308
  315SOL     OW  943   1.736   0.335   2.375 -0.6447 -0.1159  0.1589
  315SOL    HW1  944   1.721   0.376   2.467  1.2951 -1.5937 -3.3484
  315SOL    HW2  945   1.703   0.396   2.299  2.9441  0.1338  1.6625
  316SOL     OW  946   0.002   0.948   0.693  0.3367  0.2424  0.4588
  316SOL    HW1  947   3.079   0.859   0.686 -1.4660 -2.0488  0.8335
  316SOL    HW2  948   0.037   0.954   0.789  1.9655 -2.0146 -0.3984
  317SOL     OW  949   0.575   2.876   2.947  0.2757 -0.3387  0.7336
  317SOL    HW1  950   0.495   2.932   2.923  0.0804  1.6026 -0.9204
  317SOL    HW2  951   0.614   2.904   3.035 -1.2810 -0.4567  1.5332
  318SOL     OW  952   2.431   2.607   1.033  0.3249 -0.1020  0.1521
  318SOL    HW1  953   2.390   2.527   0.981 -1.5148 -0.4923 -1.6733
  318SOL    HW2  954   2.530   2.613   1.025 -1.1347 -0.6246 -2.5593
  319SOL     OW  955   0.987   1.570   3.047 -0.0512 -1.0980  0.0698
  319SOL    HW1  956   1.020   1.655   3.096  2.0046  2.0230  1.0804
  319SOL    HW2  957   1.062   1.518   3.000  0.8413  1.6349 -2.8108
  320SOL     OW  958   0.660   1.809   1.256 -0.5875 -0.1715 -0.4202
  320SOL    HW1  959   0.648   1.720   1.305 -2.1007 -0.2706  0.5365
  320SOL    HW2  960   0.584   1.824   1.194  0.4481 -0.4935  1.5043
  321SOL     OW  961   1.249   2.652   1.952  0.0054  0.0788 -0.0542
  321SOL    HW1  962   1.156   2.639   1.999 -1.0123  3.1385  2.3870
  321SOL    HW2  963   1.297   2.736   1.979  0.0889  0.1004  0.7723
  322SOL     OW  964   2.450   1.756   2.239 -0.1809  0.3286 -0.2955
  322SOL    HW1  965   2.484   1.668   2.285  0.1580 -4.3517 -0.5954
  322SOL    HW2  966   2.512   1.833   2.265  0.1830  3.8288 -0.0944
  323SOL     OW  967   2.805   0.156   0.729  0.3313  0.3607 -0.3075
  323SOL    HW1  968   2.808   0.254   0.732  2.0713 -0.9050 -1.4993
  323SOL    HW2  969   2.829   0.119   0.822  1.9883 -1.9269  0.5547
  324SOL     OW  970   3.069   2.657   2.554 -0.1678  0.3772 -0.7561
  324SOL    HW1  971   3.087   2.613   2.647  0.7610 -0.4469  0.8330
  324SOL    HW2  972   3.076   2.591   2.476 -1.6262 -1.5737  1.1084
  325SOL     OW  973   1.375   0.480   2.358  0.0588 -0.2569  0.2882
  325SOL    HW1  974   1.293   0.418   2.363 -1.1322 -0.8496 -1.0875
  325SOL    HW2  975   1.421   0.500   2.448 -0.4983 -0.5860  0.2829
  326SOL     OW  976   2.197   2.669   1.626  0.4082 -0.4810  0.5842
  326SOL    HW1  977   2.216   2.755   1.684 -0.6467  0.5618 -1.1032
  326SOL    HW2  978   2.135   2.604   1.669  0.5544  1.0362 -1.1832
  327SOL     OW  979   2.381   0.004   0.357 -0.4058 -0.5894 -0.3319
  327SOL    HW1  980   2.389   0.101   0.335 -1.0562  1.4842  0.7650
  327SOL    HW2  981   2.313   3.126   0.435  0.3078  0.4466 -0.4397
  328SOL     OW  982   0.109   1.308   1.663 -0.3479  0.1249 -0.1084
  328SOL    HW1  983   0.186   1.248   1.700 -0.1132 -2.1925 -1.0781
  328SOL    HW2  984   0.088   1.389   1.726  0.2139 -0.7656  1.8557
  329SOL     OW  985   2.229   0.759   1.675  0.6102  0.1429  0.2548
  329SOL    HW1  986   2.139   0.732   1.641  1.5597  1.8922  2.6024
  329SOL    HW2  987   2.280   0.685   1.724 -1.8246 -1.0454 -1.1089
  330SOL     OW  988   0.114   0.888   1.131 -0.1773  0.1528 -0.0146
  330SOL    HW1  989   0.043   0.940   1.081  2.4481  0.3329  0.6793
  330SOL    HW2  990   0.204   0.918   1.098 -0.0914  1.4393  1.5034
  331SOL     OW  991   0.748   1.393   1.982 -0.1831  0.0003  1.1405
  331SOL    HW1  992   0.837   1.407   1.936 -1.2387 -0.6475 -1.9599
  331SOL    HW2  993   0.768   1.385   2.082 -2.5959 -1.0772 -0.1911
  332SOL     OW  994   0.247   2.599   1.519  0.0971 -0.6324 -0.2518
  332SOL    HW1  995   0.168   2.636   1.469 -0.3250 -1.1932 -2.0745
  332SOL    HW2  996   0.249   2.499   1.496  0.9733 -0.2131  2.2048
  333SOL     OW  997   2.831   2.944   0.768  0.0015 -0.2833 -0.2250
  333SOL    HW1  998   2.889   2.995   0.835  2.0360 -0.5920  0.2673
  333SOL    HW2  999   2.870   2.851   0.768 -2.0238  0.7629 -0.9482
  334SOL     OW 1000   0.213   1.281   0.562 -0.5972  0.2390  0.2137
  334SOL    HW1 1001   0.297   1.330   0.534  1.5821  0.6034 -0.0014
  334SOL    HW2 1002   0.170   1.323   0.647  1.0331 -0.4275  2.0585
  335SOL     OW 1003   0.255   2.608   2.733  0.0389 -0.1094 -0.6303
  335SOL    HW1 1004   0.227   2.708   2.727  1.4131  2.4042 -2.7002
  335SOL    HW2 1005   0.347   2.610   2.777 -0.0895 -0.0041 -2.1999
  336SOL     OW 1006   3.071   2.701   2.142  0.0280 -0.0231 -0.3779
  336SOL    HW1 1007   3.081   2.643   2.222  0.3409  3.7207 -1.0846
  336SOL    HW2 1008   2.981   2.698   2.099  0.0532 -0.6287  2.4116
  337SOL     OW 1009   2.038   2.274   1.858  0.1535  0.4535  0.1489
  337SOL    HW1 1010   1.974   2.198   1.865 -1.2227 -0.4952 -2.0401
  337SOL    HW2 1011   2.118   2.237   1.807 -1.1656  0.5794 -0.5105
  338SOL     OW 1012   0.908   0.260   2.813 -0.5985  0.2238  0.1956
  338SOL    HW1 1013   0.820   0.252   2.862 -0.8902  2.8084  2.7487
  338SOL    HW2 1014   0.893   0.291   2.716 -0.8811  2.5478  0.2140
  339SOL     OW 1015   0.410   1.309   2.048 -0.1531 -0.5468 -0.1390
  339SOL    HW1 1016   0.317   1.304   2.091  2.2912  1.7591  1.7762
  339SOL    HW2 1017   0.417   1.381   1.973 -0.2057  2.3946 -1.4415
  340SOL     OW 1018   2.073   2.922   0.620  0.0927 -0.0169  0.4687
  340SOL    HW1 1019   2.156   2.882   0.658 -3.6820  1.6825 -0.1355
  340SOL    HW2 1020   1.992   2.859   0.640  0.2794 -2.2832  0.3618
  341SOL     OW 1021   2.002   1.268   0.995  0.7281 -0.2650  0.6478
  341SOL    HW1 1022   2.009   1.247   0.896 -1.4614 -1.3861  1.1783
  341SOL    HW2 1023   2.090   1.251   1.040  1.5127  2.7692  1.3295
  342SOL     OW 1024   2.099   2.662   0.031 -0.1922 -0.4066 -0.0446
  342SOL    HW1 1025   2.189   2.647   0.077  2.0855 -0.1814  1.7402
  342SOL    HW2 1026   2.028   2.663   0.106 -1.2970  1.3897  1.2361
  343SOL     OW 1027   0.902   2.113   1.531 -0.4007  0.1305  0.1980
  343SOL    HW1 1028   0.942   2.195   1.577  0.1136 -2.4428  1.3139
  343SOL    HW2 1029   0.879   2.147   1.437 -0.8498 -0.4577 -1.8367
  344SOL     OW 1030   2.316   2.538   1.397 -0.0888 -0.0583 -0.0507
  344SOL    HW1 1031   2.252   2.583   1.464 -2.3041  1.6125 -1.1622
  344SOL    HW2 1032   2.405   2.584   1.406  1.4862  1.7013  1.2468
  345SOL     OW 1033   2.738   1.949   0.073 -0.1899  0.5054 -0.1193
  345SOL    HW1 1034   2.786   1.927   3.114 -2.4470  0.8514 -1.4780
  345SOL    HW2 1035   2.772   1.900   0.159 -1.1211  0.3325  1.4639
  346SOL     OW 1036   1.971   2.239   1.146  0.1357  0.1068 -0.0667
  346SOL    HW1 1037   2.004   2.223   1.049 -0.4429  2.8753 -1.4182
  346SOL    HW2 1038   1.887   2.191   1.166  3.3540 -1.0156  0.7873
  347SOL     OW 1039   1.406   1.967   1.155 -0.7561 -0.2679 -0.3736
  347SOL    HW1 1040   1.451   2.057   1.131  2.4846  1.2794  1.3135
  347SOL    HW2 1041   1.311   1.988   1.195 -0.2267  2.1176  0.4825
  348SOL     OW 1042   0.564   1.733   2.389 -0.0607  0.2178 -0.2522
  348SOL    HW1 1043   0.552   1.832   2.369 -0.0813  1.4562 -0.6623
  348SOL    HW2 1044   0.655   1.690   2.366 -0.1436 -3.4875  1.4250
  349SOL     OW 1045   1.885   1.722   0.776  0.1354  0.2744 -0.1876
  349SOL    HW1 1046   1.882   1.810   0.822 -0.6819 -3.4698  1.5769
  349SOL    HW2 1047   1.868   1.646   0.844 -0.2546 -1.7505 -3.2209
  350SOL     OW 1048   2.710   2.477   0.615 -0.0847 -0.0177  0.3217
  350SOL    HW1 1049   2.691   2.457   0.517 -2.1492  2.8994 -3.2064
  350SOL    HW2 1050   2.795   2.427   0.644 -0.6096 -1.3727 -1.8959
  351SOL     OW 1051   0.685   2.820   1.564 -0.1239  0.7961 -0.1678
  351SOL    HW1 1052   0.738   2.897   1.527  2.4991  1.3804 -0.4187
  351SOL    HW2 1053   0.613   2.787   1.503  1.5595 -2.4217  0.3619
  352SOL     OW 1054   0.321   1.607   1.133 -0.0196  0.2346 -0.3474
  352SOL    HW1 1055   0.365   1.535   1.077 -0.3677  1.0308  2.2288
  352SOL    HW2 1056   0.302   1.570   1.227 -0.6260  0.0421  3.9217
  353SOL     OW 1057   1.085   1.432   2.352 -0.2633  0.2073  0.2405
  353SOL    HW1 1058   0.986   1.430   2.322 -0.9971  0.0188  2.6145
  353SOL    HW2 1059   1.102   1.466   2.447 -0.0774  0.5291 -3.2501
  354SOL     OW 1060   1.407   3.097   1.748  0.3239 -0.3202  0.5288
  354SOL    HW1 1061   1.391   0.050   1.688  1.6433 -1.7998 -1.3679
  354SOL    HW2 1062   1.504   3.086   1.776 -0.2530  0.5406 -3.0309
  355SOL     OW 1063   2.531   1.113   0.486 -0.3255 -0.2129 -0.1724
  355SOL    HW1 1064   2.516   1.199   0.542  1.6161 -1.1147 -0.2621
  355SOL    HW2 1065   2.601   1.118   0.419 -3.4853 -1.8064  0.1564
  356SOL     OW 1066   3.021   1.678   1.544 -0.5602  0.3692 -0.7345
  356SOL    HW1 1067   2.934   1.625   1.526  1.0298 -0.5383  1.5056
  356SOL    HW2 1068   3.052   1.727   1.463 -0.1177 -2.4268  3.0293
  357SOL     OW 1069   0.478   2.713   1.377  0.1575 -0.2936  0.3255
  357SOL    HW1 1070   0.395   2.695   1.429  0.5448  2.0837 -1.3007
  357SOL    HW2 1071   0.473   2.813   1.349 -0.3283  2.6097  1.0485
  358SOL     OW 1072   2.659   1.559   1.861  0.3425 -0.2170  0.4935
  358SOL    HW1 1073   2.686   1.497   1.785 -1.7877  1.2356  1.1207
  358SOL    HW2 1074   2.574   1.607   1.843  2.0062  0.1460 -0.9868
  359SOL     OW 1075   2.447   2.927   2.727  0.1617  0.7148  0.0354
  359SOL    HW1 1076   2.405   2.857   2.667 -2.3846 -0.6883  2.3445
  359SOL    HW2 1077   2.378   3.001   2.752 -0.4678  2.9949 -0.7773
  360SOL     OW 1078   1.065   0.457   0.949 -0.0413  0.4714  0.3035
  360SOL    HW1 1079   1.122   0.474   1.028  1.3635 -2.1176 -1.0657
  360SOL    HW2 1080   1.043   0.357   0.944 -1.4231 -1.8059  0.8331
  361SOL     OW 1081   2.071   0.212   0.872 -0.4172 -0.2204 -0.3701
  361SOL    HW1 1082   2.082   0.311   0.900  1.9319 -1.8918  0.8737
  361SOL    HW2 1083   2.160   0.181   0.832 -1.2069 -0.1514 -2.8074
  362SOL     OW 1084   1.905   1.104   1.180  0.3762  0.1181  1.0153
  362SOL    HW1 1085   1.928   1.177   1.114 -0.4892 -1.2349  1.0282
  362SOL    HW2 1086   1.982   1.077   1.238 -0.2735  1.1997  1.3162
  363SOL     OW 1087   2.125   1.260   2.344  0.1966 -0.1752  0.2175
  363SOL    HW1 1088   2.089   1.352   2.341 -0.2512  0.4173 -0.8242
  363SOL    HW2 1089   2.213   1.263   2.285  0.2976 -0.0802 -2.2717
  364SOL     OW 1090   0.340   0.155   1.207 -0.0573 -0.3376  0.2951
  364SOL    HW1 1091   0.308   0.211   1.286 -1.5213 -0.1956  2.7750
  364SOL    HW2 1092   0.257   0.119   1.151 -1.6150 -0.9123 -1.8401
  365SOL     OW 1093   0.686   0.186   2.924  0.0983 -0.2255  0.2562
  365SOL    HW1 1094   0.607   0.151   2.867 -1.8655 -2.3691 -0.0466
  365SOL    HW2 1095   0.722   0.099   2.967 -0.0587 -5.8606  0.4998
  366SOL     OW 1096   2.012   2.512   2.947 -0.1970 -0.2376  0.3887
  366SOL    HW1 1097   2.004   2.556   2.851 -0.9974 -1.1743 -1.4537
  366SOL    HW2 1098   2.078   2.553   3.006 -4.3197 -0.2122 -1.7310
  367SOL     OW 1099   2.986   2.356   0.012 -0.2724 -0.1804  0.4039
  367SOL    HW1 1100   3.006   2.439   0.068 -0.1011 -3.2644 -0.0482
  367SOL    HW2 1101   3.071   2.310   3.114  1.5262 -2.4425 -3.3941
  368SOL     OW 1102   3.082   1.295   1.425 -0.4367 -0.1549 -0.9362
  368SOL    HW1 1103   3.103   1.383   1.376  1.6272 -0.3803  1.1855
  368SOL    HW2 1104   3.125   1.283   1.520  4.5736  0.1475  1.8070
  369SOL     OW 1105   0.993   2.910   2.964 -0.0373 -0.2951 -0.2633
  369SOL    HW1 1106   1.063   2.850   3.010  0.9502 -0.7337 -2.0206
  369SOL    HW2 1107   0.920   2.848   2.927  2.1375 -0.5953  0.8279
  370SOL     OW 1108   2.859   0.505   0.538 -0.4328  0.2373  0.1777
  370SOL    HW1 1109   2.787   0.506   0.608 -0.8974 -0.6928  0.9917
  370SOL    HW2 1110   2.901   0.412   0.521  2.6886  2.6084 -2.5540
  371SOL     OW 1111   1.566   2.245   0.734  0.0928  0.6908  0.6136
  371SOL    HW1 1112   1.483   2.204   0.693  2.8720  3.1726  1.0741
  371SOL    HW2 1113   1.653   2.196   0.715  0.0303 -2.4406  2.1412
  372SOL     OW 1114   2.977   0.839   2.746  0.7540  0.0793  0.4403
  372SOL    HW1 1115   3.069   0.795   2.728  0.7710  0.2574  0.4517
  372SOL    HW2 1116   2.984   0.937   2.764 -0.6352 -2.1606 -1.8435
  373SOL     OW 1117   2.891   1.633   1.138  0.1313  0.5360  0.2734
  373SOL    HW1 1118   2.939   1.704   1.085  0.0852  0.1645 -1.5508
  373SOL    HW2 1119   2.844   1.566   1.078 -2.5436  1.1740 -1.3929
  374SOL     OW 1120   0.670   2.940   0.068 -0.3388 -0.0366  0.1978
  374SOL    HW1 1121   0.586   2.997   0.075  0.7316  0.4291 -3.0586
  374SOL    HW2 1122   0.747   3.007   0.049  0.7229  1.6822 -0.1055
  375SOL     OW 1123   0.189   2.970   0.035  0.3746  0.4939 -0.5423
  375SOL    HW1 1124   0.213   3.026   0.115  0.6157 -3.8287  0.3775
  375SOL    HW2 1125   0.103   2.919   0.051  2.6036  2.8313  0.1534
  376SOL     OW 1126   3.029   2.305   1.528  0.0437  0.3930 -0.0211
  376SOL    HW1 1127   3.051   2.295   1.628 -1.5920  0.4508 -0.8605
  376SOL    HW2 1128   2.954   2.239   1.516 -2.4369  1.1866  2.6427
  377SOL     OW 1129   1.582   2.409   2.526  0.3373  0.1953 -0.0703
  377SOL    HW1 1130   1.606   2.482   2.594  1.2526  1.3245  4.3708
  377SOL    HW2 1131   1.598   2.315   2.558  1.4432 -0.9944  2.9633
  378SOL     OW 1132   0.548   0.396   3.052 -0.4160 -0.6769  0.4454
  378SOL    HW1 1133   0.523   0.493   3.020  1.0509  2.6541 -1.4097
  378SOL    HW2 1134   0.589   0.340   2.976  2.9712 -1.1237 -3.0870
  379SOL     OW 1135   0.598   0.928   0.396 -0.0158  0.5009  0.2027
  379SOL    HW1 1136   0.671   0.988   0.434 -0.9676 -1.4737  1.1489
  379SOL    HW2 1137   0.527   0.989   0.355  1.5369  0.8418  0.0784
  380SOL     OW 1138   3.051   1.884   2.007 -0.1743 -0.2386 -0.1801
  380SOL    HW1 1139   3.031   1.785   1.992  4.3841 -1.6437  1.2957
  380SOL    HW2 1140   0.025   1.900   1.997  4.6825 -0.9847 -1.0598
  381SOL     OW 1141   0.305   1.162   1.779  0.1577  0.1518  0.0475
  381SOL    HW1 1142   0.358   1.182   1.862 -1.3142  1.6922  0.0281
  381SOL    HW2 1143   0.366   1.151   1.693  2.3171  0.6979 -0.9375
  382SOL     OW 1144   2.452   2.106   0.297  0.7035  0.0205  0.1929
  382SOL    HW1 1145   2.387   2.026   0.296  0.3080 -4.5111 -1.5896
  382SOL    HW2 1146   2.463   2.143   0.203 -1.7773  2.1691  2.2670
  383SOL     OW 1147   2.857   2.012   2.941 -0.2550 -0.4900  0.2385
  383SOL    HW1 1148   2.946   1.977   2.910 -1.7845 -1.0521  2.4169
  383SOL    HW2 1149   2.849   2.112   2.927 -1.8846 -3.6491  0.7285
  384SOL     OW 1150   0.563   2.341   2.624 -0.2691 -0.6788  0.1307
  384SOL    HW1 1151   0.529   2.292   2.709 -2.4640  0.4805 -0.1323
  384SOL    HW2 1152   0.484   2.390   2.583  0.7595 -0.0341  1.5268
  385SOL     OW 1153   3.113   1.291   1.087 -1.3514 -0.0570  0.2613
  385SOL    HW1 1154   3.105   1.376   1.149 -0.8559  3.9372  0.7042
  385SOL    HW2 1155   3.044   1.280   1.013  0.0036 -0.6679  1.2936
  386SOL     OW 1156   1.947   1.576   1.462  0.3239  0.1408 -0.2651
  386SOL    HW1 1157   2.015   1.502   1.467  0.8201  1.0833 -1.7952
  386SOL    HW2 1158   1.944   1.611   1.368 -2.0681  0.5138  0.0892
  387SOL     OW 1159   2.755   1.300   1.994 -0.3268  0.1024  0.3725
  387SOL    HW1 1160   2.835   1.287   1.929  2.4841 -1.3754  2.6344
  387SOL    HW2 1161   2.707   1.387   1.970 -0.4129  0.9876  0.8622
  388SOL     OW 1162   2.678   1.347   2.247 -0.5759  0.1792 -0.1611
  388SOL    HW1 1163   2.663   1.268   2.309  0.7195  1.1250 -1.4009
  388SOL    HW2 1164   2.721   1.316   2.158  0.3478  0.6314  1.3797
  389SOL     OW 1165   2.059   1.203   1.868 -0.2663  0.7001  0.1999
  389SOL    HW1 1166   2.022   1.177   1.959 -2.0654  2.0583 -0.1949
  389SOL    HW2 1167   2.154   1.236   1.872  1.2318  1.1366 -0.5223
  390SOL     OW 1168   1.662   2.637   0.345 -0.0468 -0.1854 -0.2308
  390SOL    HW1 1169   1.741   2.631   0.276  2.2895 -0.1739 -2.5905
  390SOL    HW2 1170   1.633   2.548   0.388 -2.5445  0.0209  1.2606
  391SOL     OW 1171   2.162   1.833   0.866 -0.3271 -0.3301 -0.1907
  391SOL    HW1 1172   2.203   1.882   0.950  1.3729  1.3688  4.2567
  391SOL    HW2 1173   2.061   1.833   0.875 -0.8371  1.2410  0.1265
  392SOL     OW 1174   2.899   2.507   1.080  0.3347  1.1977 -0.9096
  392SOL    HW1 1175   2.942   2.430   1.029 -0.0329 -0.3630 -0.3261
  392SOL    HW2 1176   2.959   2.590   1.091 -0.0108 -0.1965 -2.9536
  393SOL     OW 1177   1.719   1.841   2.873 -0.4281  0.4088 -0.1165
  393SOL    HW1 1178   1.674   1.772   2.808 -1.7001 -0.3831 -0.4182
  393SOL    HW2 1179   1.653   1.894   2.930 -0.6886 -0.5311 -1.8409
  394SOL     OW 1180   0.102   0.163   2.927  0.3309 -0.0463  0.2469
  394SOL    HW1 1181   0.077   0.064   2.915  2.0926 -1.3034  1.8870
  394SOL    HW2 1182   0.178   0.173   2.991 -0.5303 -1.7842 -3.4562
  395SOL     OW 1183   0.729   0.817   0.899  0.3114  0.0789 -0.4528
  395SOL    HW1 1184   0.816   0.768   0.883 -0.1913  2.7335 -0.8700
  395SOL    HW2 1185   0.742   0.922   0.898 -0.4139 -0.6707  0.1694
  396SOL     OW 1186   1.215   1.212   0.528 -0.2890  0.5076  0.1358
  396SOL    HW1 1187   1.221   1.165   0.615 -0.9277 -0.9103 -0.8289
  396SOL    HW2 1188   1.294   1.196   0.471 -2.1883  2.6293  2.1239
  397SOL     OW 1189   0.437   0.890   2.114  0.1386  0.5650  0.1742
  397SOL    HW1 1190   0.384   0.853   2.033  0.8708 -1.6476 -2.8942
  397SOL    HW2 1191   0.496   0.964   2.086 -1.4661  1.0125 -1.1137
  398SOL     OW 1192   1.242   0.323   0.515 -0.0558 -0.6361 -0.4525
  398SOL    HW1 1193   1.345   0.320   0.498 -0.5532 -0.3004 -1.3569
  398SOL    HW2 1194   1.203   0.228   0.525  0.1890 -1.6547  1.8256
  399SOL     OW 1195   2.088   3.023   1.731 -0.0609  0.0594 -0.1448
  399SOL    HW1 1196   2.018   2.955   1.698 -2.2883  2.9025 -1.0683
  399SOL    HW2 1197   2.038   3.111   1.745 -3.1489 -2.2732  2.1573
  400SOL     OW 1198   1.148   1.589   2.150  0.0405  0.2981 -0.2851
  400SOL    HW1 1199   1.219   1.658   2.186 -1.3827  1.3634  0.5884
  400SOL    HW2 1200   1.149   1.504   2.200 -0.4091  1.0455  1.4684
  401SOL     OW 1201   0.710   0.984   2.888 -0.4309  0.1250  0.0342
  401SOL    HW1 1202   0.759   0.909   2.933  1.8690 -0.2217 -0.0605
  401SOL    HW2 1203   0.621   1.003   2.926 -2.6007 -0.1914 -1.0510
  402SOL     OW 1204   2.787   1.960   1.037  0.4046 -0.0604  0.1898
  402SOL    HW1 1205   2.857   1.888   1.001  3.0754 -2.3862  1.7336
  402SOL    HW2 1206   2.696   1.918   1.059  3.5098 -0.4509 -1.0363
  403SOL     OW 1207   0.112   0.998   2.155  0.3511  0.3336  0.2679
  403SOL    HW1 1208   0.087   1.063   2.226  0.3281  0.0845 -2.1075
  403SOL    HW2 1209   0.103   1.044   2.063 -1.0007  0.8889  0.9763
  404SOL     OW 1210   0.254   2.724   1.765  0.1961 -0.0356 -0.2661
  404SOL    HW1 1211   0.338   2.777   1.755 -1.6433 -2.3302 -0.3768
  404SOL    HW2 1212   0.233   2.674   1.675  1.3126  1.1092 -0.2505
  405SOL     OW 1213   0.491   0.435   2.098 -0.1142  0.1341  0.2165
  405SOL    HW1 1214   0.427   0.500   2.060  0.8260 -0.5614  1.6696
  405SOL    HW2 1215   0.524   0.464   2.191  0.1934 -3.3364  2.7526
  406SOL     OW 1216   1.563   2.032   2.459 -0.0816 -0.4155  0.5964
  406SOL    HW1 1217   1.579   2.031   2.358 -1.1230  0.4098 -0.2872
  406SOL    HW2 1218   1.562   1.938   2.506  0.1908 -1.5913 -1.5602
  407SOL     OW 1219   1.198   1.163   2.277 -0.3614 -0.2281  0.2044
  407SOL    HW1 1220   1.166   1.250   2.306  2.1985 -3.4770 -0.6224
  407SOL    HW2 1221   1.296   1.145   2.295  0.3913 -4.1388 -0.7026
  408SOL     OW 1222   0.808   0.074   2.471  0.1785 -0.1570  0.2737
  408SOL    HW1 1223   0.811   0.084   2.369 -1.0873 -0.0822 -0.6973
  408SOL    HW2 1224   0.895   0.066   2.518 -1.4688  0.0539  1.4608
  409SOL     OW 1225   0.353   2.006   0.521  0.1976  0.3016  0.0311
  409SOL    HW1 1226   0.419   1.932   0.553 -0.3931  0.0655  1.0251
  409SOL    HW2 1227   0.411   2.087   0.505  1.9446  2.1107  2.6567
  410SOL     OW 1228   2.934   1.141   0.396 -0.4609  0.1232 -0.1924
  410SOL    HW1 1229   2.952   1.049   0.352  1.3501  0.1368  0.9519
  410SOL    HW2 1230   2.848   1.177   0.360  2.3838 -2.8192 -1.2017
  411SOL     OW 1231   0.118   0.031   1.084  0.3745 -0.2511  0.5045
  411SOL    HW1 1232   0.112   3.129   0.987  1.1124 -0.2706 -0.5885
  411SOL    HW2 1233   0.030   0.035   1.130  0.0421  0.4051 -3.5153
  412SOL     OW 1234   1.566   0.932   1.465 -0.3153 -0.2354 -0.1606
  412SOL    HW1 1235   1.627   0.911   1.384 -0.0984 -1.2777 -0.1704
  412SOL    HW2 1236   1.592   0.873   1.545  0.4389  0.3589  0.6146
  413SOL     OW 1237   0.655   0.036   1.580  0.2579  1.2539  0.3424
  413SOL    HW1 1238   0.671   0.130   1.536  2.6814 -0.0061 -2.1682
  413SOL    HW2 1239   0.709   3.099   1.521  0.6863 -1.6615  1.4149
  414SOL     OW 1240   2.719   1.605   2.804 -0.3771 -0.3255  0.1866
  414SOL    HW1 1241   2.687   1.704   2.805 -1.1856  0.0213  3.0266
  414SOL    HW2 1242   2.780   1.581   2.877 -2.5977  0.3908 -3.5723
  415SOL     OW 1243   0.499   2.643   2.849 -0.3269 -0.2670 -1.0348
  415SOL    HW1 1244   0.586   2.602   2.814 -2.5104 -0.3416 -0.8597
  415SOL    HW2 1245   0.521   2.734   2.884  0.8438 -0.6345  1.4723
  416SOL     OW 1246   2.121   2.876   0.326 -0.1630  0.1051 -0.0887
  416SOL    HW1 1247   2.040   2.876   0.263 -0.6393 -1.0768  1.1969
  416SOL    HW2 1248   2.090   2.900   0.422 -0.9794  0.6095 -0.3399
  417SOL     OW 1249   0.290   0.607   0.761  1.0016  0.4060 -0.1581
  417SOL    HW1 1250   0.375   0.666   0.756 -0.5979  3.0386  0.0002
  417SOL    HW2 1251   0.265   0.580   0.856  2.5068 -2.0066 -0.6706
  418SOL     OW 1252   2.493   0.451   1.140 -0.7240  0.1828  0.5534
  418SOL    HW1 1253   2.421   0.516   1.116 -0.1920 -0.5683 -1.0178
  418SOL    HW2 1254   2.497   0.421   1.236  1.4697 -0.2295 -2.1443
  419SOL     OW 1255   0.046   0.030   0.311  0.2116 -0.0591  0.1301
  419SOL    HW1 1256   0.044   0.133   0.314  0.1446 -1.0650 -1.1275
  419SOL    HW2 1257   3.089   3.118   0.279 -1.7971  0.9590 -0.0418
  420SOL     OW 1258   0.425   1.644   1.539  0.2302 -0.2314 -0.4577
  420SOL    HW1 1259   0.451   1.726   1.487  0.9683  1.8362 -0.2942
  420SOL    HW2 1260   0.498   1.628   1.614  0.7915 -0.5080 -1.2492
  421SOL     OW 1261   1.128   0.062   0.604  0.1160  0.1258  0.3609
  421SOL    HW1 1262   1.086   0.037   0.698 -1.4924 -0.2920  4.0394
  421SOL    HW2 1263   1.175   3.110   0.562  2.5144 -1.2638 -3.1475
  422SOL     OW 1264   0.278   0.590   1.447  0.0496  0.3354  0.0435
  422SOL    HW1 1265   0.302   0.641   1.528  0.9171 -1.0362 -0.7792
  422SOL    HW2 1266   0.327   0.630   1.366 -0.5961  0.8810 -0.5426
  423SOL     OW 1267   1.160   1.121   1.441  0.0620 -0.2781 -0.0120
  423SOL    HW1 1268   1.192   1.172   1.518 -2.7022  0.4269 -0.7697
  423SOL    HW2 1269   1.217   1.038   1.423  1.5219  0.7974  0.4278
  424SOL     OW 1270   2.041   1.414   2.963  0.1722 -0.2720 -0.0663
  424SOL    HW1 1271   1.996   1.385   3.051 -1.2396 -0.4439  0.8205
  424SOL    HW2 1272   2.018   1.343   2.894  0.2984 -0.8898 -1.3182
  425SOL     OW 1273   0.074   0.330   2.055 -0.8118  0.2468 -0.4286
  425SOL    HW1 1274   0.031   0.411   2.100 -0.6499 -1.2622 -0.5281
  425SOL    HW2 1275   0.062   0.245   2.110  1.9087  0.1107  0.2243
  426SOL     OW 1276   0.308   3.009   2.911 -0.3278 -0.3180  0.0810
  426SOL    HW1 1277   0.270   2.993   3.008  0.5976  0.5379 -0.5936
  426SOL    HW2 1278   0.251   2.970   2.837  0.1974  4.0452 -2.4571
  427SOL     OW 1279   1.163   0.905   2.782 -0.5028  0.0890  0.2057
  427SOL    HW1 1280   1.241   0.958   2.737  2.5372  0.1268 -0.9407
  427SOL    HW2 1281   1.115   0.961   2.853  0.2872  0.2961 -1.0136
  428SOL     OW 1282   2.599   1.143   1.587 -0.0370  0.4952  0.0816
  428SOL    HW1 1283   2.553   1.108   1.672 -0.9292 -0.6230  2.9559
  428SOL    HW2 1284   2.589   1.082   1.506 -1.8449 -1.1798 -0.1906
  429SOL     OW 1285   2.140   2.627   0.909  0.3734  0.4362 -0.3197
  429SOL    HW1 1286   2.237   2.659   0.890  0.7011  2.4036  1.8320
  429SOL    HW2 1287   2.130   2.610   1.012  2.0532  0.1716  5.1914
  430SOL     OW 1288   0.816   1.378   2.273 -0.5058  0.0950  0.3653
  430SOL    HW1 1289   0.826   1.277   2.248 -0.3994 -0.4723 -0.3231
  430SOL    HW2 1290   0.739   1.399   2.335 -0.7160  1.1420 -5.4831
  431SOL     OW 1291   2.714   1.386   1.655  0.2338 -0.1523  0.1943
  431SOL    HW1 1292   2.770   1.433   1.583  0.8128  1.3517  0.7062
  431SOL    HW2 1293   2.677   1.295   1.623  2.3975  2.4602 -0.3975
  432SOL     OW 1294   0.997   2.593   2.365 -0.0125 -0.2554  0.0648
  432SOL    HW1 1295   1.068   2.610   2.438 -3.1641  2.1535  2.2492
  432SOL    HW2 1296   0.949   2.501   2.370 -2.6063  2.2094  0.1087
  433SOL     OW 1297   2.096   0.141   2.454  0.2645 -0.1483 -0.0776
  433SOL    HW1 1298   2.174   0.183   2.409  0.0909  1.3636  2.4348
  433SOL    HW2 1299   2.061   0.064   2.395 -0.2319 -1.5634  0.0703
  434SOL     OW 1300   0.485   2.651   2.388 -0.3500 -0.0133  0.3621
  434SOL    HW1 1301   0.403   2.600   2.424  3.1220  0.3558 -0.8997
  434SOL    HW2 1302   0.566   2.596   2.409  1.4734  0.1471 -3.3812
  435SOL     OW 1303   0.195   2.757   0.411 -0.2636  0.4585  0.6183
  435SOL    HW1 1304   0.258   2.732   0.333 -1.2963  2.2592  0.7296
  435SOL    HW2 1305   0.140   2.673   0.435 -3.9739 -1.0866  1.3102
  436SOL     OW 1306   0.882   0.644   2.170 -0.4622 -0.0251 -0.8001
  436SOL    HW1 1307   0.799   0.677   2.220  0.1181 -0.8533  1.4976
  436SOL    HW2 1308   0.901   0.546   2.189  2.5505  0.3109  0.3439
  437SOL     OW 1309   0.293   2.463   2.501  0.0368  0.0605  0.4649
  437SOL    HW1 1310   0.229   2.396   2.461  1.3414  0.2574 -1.5899
  437SOL    HW2 1311   0.253   2.499   2.590 -2.2953  0.4292  2.8656
  438SOL     OW 1312   0.574   1.364   1.784 -0.3935  0.0324 -0.3696
  438SOL    HW1 1313   0.573   1.450   1.730 -1.4365  1.3797  1.8338
  438SOL    HW2 1314   0.642   1.370   1.856 -2.1613 -0.4133  1.7803
  439SOL     OW 1315   2.339   0.963   2.260 -0.5145 -0.1844  0.2859
  439SOL    HW1 1316   2.294   0.955   2.348  1.2068 -1.5869 -1.8643
  439SOL    HW2 1317   2.334   1.055   2.219 -0.8587  0.6988 -2.9749
  440SOL     OW 1318   0.406   0.704   0.389  0.3903  0.1618 -0.0874
  440SOL    HW1 1319   0.478   0.627   0.388 -0.4281 -0.9727 -0.8307
  440SOL    HW2 1320   0.445   0.798   0.381 -1.7070 -0.4374 -2.6528
  441SOL     OW 1321   0.838   2.480   1.125 -0.2529 -0.8149 -0.0592
  441SOL    HW1 1322   0.793   2.568   1.138  0.5082 -0.0984 -0.3276
  441SOL    HW2 1323   0.886   2.468   1.033 -0.7246  1.2048  3.6326
  442SOL     OW 1324   2.246   1.415   0.704  0.3210  0.1917 -0.3146
  442SOL    HW1 1325   2.204   1.471   0.628 -0.4679  1.0991 -0.1954
  442SOL    HW2 1326   2.331   1.374   0.666 -1.0994  0.6065 -2.6634
  443SOL     OW 1327   2.670   1.941   2.539  0.0013 -0.1930  0.0693
  443SOL    HW1 1328   2.631   1.975   2.452 -2.7137  1.5614  2.4652
  443SOL    HW2 1329   2.700   1.848   2.522 -0.7346 -1.3293 -2.1391
  444SOL     OW 1330   1.760   1.452   2.919  0.0195 -0.5095 -0.3284
  444SOL    HW1 1331   1.798   1.538   2.957  0.4654 -1.2038 -2.6942
  444SOL    HW2 1332   1.707   1.398   2.987 -0.3051  0.8341 -0.6385
  445SOL     OW 1333   2.650   2.822   2.137  0.2381 -0.3596  0.3194
  445SOL    HW1 1334   2.696   2.735   2.117 -1.2109  1.5559 -0.3246
  445SOL    HW2 1335   2.715   2.897   2.101  2.4388  0.9311 -3.7305
  446SOL     OW 1336   0.467   1.026   1.424  0.1370 -0.3200  0.1596
  446SOL    HW1 1337   0.474   0.926   1.399  1.7424  0.1562 -2.1020
  446SOL    HW2 1338   0.516   1.047   1.511 -0.6576  0.6244  0.9208
  447SOL     OW 1339   0.916   1.269   0.939 -0.8932 -0.1095  0.0839
  447SOL    HW1 1340   1.016   1.256   0.966  0.7219 -2.3733  0.1421
  447SOL    HW2 1341   0.862   1.305   1.020 -0.7759 -1.9610 -1.5033
  448SOL     OW 1342   1.215   1.237   1.699  0.2460 -0.0601  0.1066
  448SOL    HW1 1343   1.297   1.218   1.760  0.7586 -1.9831 -0.9045
  448SOL    HW2 1344   1.142   1.169   1.720 -1.1215  0.4135  0.6057
  449SOL     OW 1345   3.015   1.914   2.288 -0.2611 -0.1661 -0.0176
  449SOL    HW1 1346   3.014   1.910   2.186 -0.6218  0.6220 -3.2347
  449SOL    HW2 1347   3.111   1.912   2.315 -1.3618 -1.0472 -0.6099
  450SOL     OW 1348   2.800   1.979   2.030  0.6377 -0.3549  0.3141
  450SOL    HW1 1349   2.815   2.081   2.027  2.6128  3.1961 -2.0515
  450SOL    HW2 1350   2.893   1.939   2.028 -1.1645 -1.6454  0.5501
  451SOL     OW 1351   2.353   1.116   1.276 -0.0592  0.4883 -0.1776
  451SOL    HW1 1352   2.261   1.104   1.323 -1.1229  2.4364 -0.9890
  451SOL    HW2 1353   2.420   1.053   1.326 -0.1392 -0.3432  1.2807
  452SOL     OW 1354   0.545   1.362   1.420 -0.0837  0.2222  0.7256
  452SOL    HW1 1355   0.577   1.320   1.502 -1.6162  0.3855 -1.0193
  452SOL    HW2 1356   0.447   1.362   1.428  4.7366 -3.9300  1.8368
  453SOL     OW 1357   0.445   1.358   1.012 -0.0668  0.3552 -0.2515
  453SOL    HW1 1358   0.365   1.303   0.976  1.7957  2.4395 -0.1166
  453SOL    HW2 1359   0.485   1.304   1.089 -0.5079 -2.0967  1.3455
  454SOL     OW 1360   0.419   1.575   0.101  0.2361 -0.3397  0.0045
  454SOL    HW1 1361   0.483   1.553   0.179  2.3682 -2.4669  2.8890
  454SOL    HW2 1362   0.389   1.489   0.061 -1.6763 -0.0773 -0.0011
  455SOL     OW 1363   1.980   0.914   0.915  0.3102 -0.1824  0.3705
  455SOL    HW1 1364   1.965   0.988   0.970 -1.1067 -1.3148 -0.6086
  455SOL    HW2 1365   1.929   0.836   0.945  1.2638  2.4793 -1.4828
  456SOL     OW 1366   1.959   2.384   0.868  0.4530  0.0081  0.1684
  456SOL    HW1 1367   2.027   2.462   0.853 -0.5933 -1.5812 -0.2177
  456SOL    HW2 1368   2.010   2.299   0.886  1.1691  0.0362  1.1145
  457SOL     OW 1369   2.056   2.999   2.807 -0.0368 -0.6245  0.3178
  457SOL    HW1 1370   1.976   3.061   2.805  0.2343  1.3370  0.0029
  457SOL    HW2 1371   2.065   2.926   2.738 -2.0634  1.9158  1.8642
  458SOL     OW 1372   2.372   0.282   0.266 -0.2399 -0.5594  0.4937
  458SOL    HW1 1373   2.411   0.256   0.176  1.0513  0.9372  3.2751
  458SOL    HW2 1374   2.318   0.370   0.265  3.5285 -1.0413  0.7026
  459SOL     OW 1375   3.117   1.192   2.303 -0.0955 -0.1365 -0.2327
  459SOL    HW1 1376   3.030   1.203   2.252  0.0346 -4.9328 -0.4484
  459SOL    HW2 1377   0.057   1.265   2.280  2.6333  1.6869 -0.1285
  460SOL     OW 1378   0.115   0.610   3.087 -0.4828 -0.2901 -0.2033
  460SOL    HW1 1379   0.182   0.597   3.009  1.6048  1.1857 -0.9025
  460SOL    HW2 1380   0.133   0.703   3.120 -1.7174  2.7382 -0.4415
  461SOL     OW 1381   2.592   2.358   0.850 -0.5023  0.3305  0.7797
  461SOL    HW1 1382   2.660   2.432   0.836 -0.8284 -0.5207  1.0934
  461SOL    HW2 1383   2.638   2.271   0.821  0.6165  0.3609  1.3463
  462SOL     OW 1384   0.385   0.006   1.580  0.2045 -0.1283  0.1085
  462SOL    HW1 1385   0.480   0.022   1.607 -2.5156 -1.6871  0.6333
  462SOL    HW2 1386   0.395   3.106   1.479  2.1127 -0.3690 -0.9485
  463SOL     OW 1387   2.125   2.446   2.051 -0.4073 -0.0277  0.0471
  463SOL    HW1 1388   2.077   2.533   2.042  1.8918  2.3269  0.0286
  463SOL    HW2 1389   2.091   2.377   1.982  0.1218 -3.1880  0.2134
  464SOL     OW 1390   0.456   2.987   1.356  0.0761 -0.3356  0.2636
  464SOL    HW1 1391   0.541   3.035   1.330 -0.3369 -2.0601  0.6037
  464SOL    HW2 1392   0.382   2.989   1.282 -0.0105 -0.7912 -0.6926
  465SOL     OW 1393   0.702   0.294   1.502  0.6125  0.3103  0.5636
  465SOL    HW1 1394   0.795   0.301   1.544 -1.0185 -1.2478 -3.0281
  465SOL    HW2 1395   0.634   0.360   1.548 -1.2397  0.5246 -1.2478
  466SOL     OW 1396   1.540   1.856   2.002  0.1176 -0.0749 -0.6387
  466SOL    HW1 1397   1.624   1.839   1.941  0.1875  0.6917  0.5690
  466SOL    HW2 1398   1.459   1.878   1.939 -1.0406 -0.1238  0.0555
  467SOL     OW 1399   0.139   1.748   0.978  0.3641 -0.2839 -0.3569
  467SOL    HW1 1400   0.198   1.702   1.048 -0.0125 -0.6219  0.3669
  467SOL    HW2 1401   0.162   1.710   0.889  0.3576  0.8802 -1.6480
  468SOL     OW 1402   2.363   2.161   2.724 -0.0320  0.1775  0.9961
  468SOL    HW1 1403   2.398   2.161   2.626 -2.2106  0.4370  0.0660
  468SOL    HW2 1404   2.287   2.097   2.739  2.3602  2.6381  0.9297
  469SOL     OW 1405   1.158   2.334   0.678  0.2493 -0.0870  0.3754
  469SOL    HW1 1406   1.063   2.300   0.689 -0.1774  1.1334  0.1579
  469SOL    HW2 1407   1.171   2.384   0.590 -2.3666  0.6981 -1.7141
  470SOL     OW 1408   2.013   1.745   1.255 -0.1408 -0.1245  0.2614
  470SOL    HW1 1409   2.097   1.788   1.292  1.5066  0.3131  0.5311
  470SOL    HW2 1410   1.937   1.811   1.250 -2.6757  1.1004  0.1893
  471SOL     OW 1411   0.683   2.528   0.235  0.5704  0.0365 -0.1331
  471SOL    HW1 1412   0.598   2.498   0.190 -1.0408  2.5982 -0.1433
  471SOL    HW2 1413   0.726   2.601   0.175  0.5222 -0.3003 -0.0851
  472SOL     OW 1414   2.636   1.950   2.268 -0.0397  0.0809  0.3354
  472SOL    HW1 1415   2.704   1.928   2.192  0.9179 -1.0995 -0.0163
  472SOL    HW2 1416   2.569   2.025   2.236  0.4245  0.6069  0.1963
  473SOL     OW 1417   1.258   2.956   0.785  0.4111  0.0288  0.4537
  473SOL    HW1 1418   1.314   2.895   0.720  1.9422 -0.2581 -0.0172
  473SOL    HW2 1419   1.313   2.988   0.862 -1.1284  0.2490 -0.4534
  474SOL     OW 1420   3.070   0.069   1.303  0.4807 -0.1984 -0.1380
  474SOL    HW1 1421   2.977   0.030   1.271  0.0007 -0.4786  0.1344
  474SOL    HW2 1422   3.060   0.127   1.391  0.6680 -0.2189  0.8380
  475SOL     OW 1423   1.679   2.853   1.867 -1.0031  0.5198 -0.2286
  475SOL    HW1 1424   1.669   2.816   1.959 -3.1364  0.6484 -2.7966
  475SOL    HW2 1425   1.627   2.799   1.799 -0.1319 -0.0102  0.0992
  476SOL     OW 1426   0.476   0.212   0.963 -0.7151 -0.6191  0.6655
  476SOL    HW1 1427   0.525   0.303   0.962  2.1947 -2.8591  2.1970
  476SOL    HW2 1428   0.407   0.213   1.038  2.2430  3.0877 -0.6747
  477SOL     OW 1429   1.018   2.285   0.975 -0.2267  0.3516  0.1555
  477SOL    HW1 1430   1.044   2.187   0.960  1.4422  0.9352  0.2504
  477SOL    HW2 1431   1.095   2.348   0.976 -2.1481  0.5033 -0.5124
  478SOL     OW 1432   0.801   2.768   2.835  0.9555 -0.1624  0.3095
  478SOL    HW1 1433   0.803   2.665   2.846 -0.4528 -3.6645 -0.9606
  478SOL    HW2 1434   0.717   2.810   2.870  0.5911  0.9634 -1.3638
  479SOL     OW 1435   0.287   0.612   1.969  0.4111 -0.0667  0.1890
  479SOL    HW1 1436   0.242   0.635   2.056 -2.6596  1.3836  0.0733
  479SOL    HW2 1437   0.266   0.515   1.936  1.3698 -1.4848 -0.2218
  480SOL     OW 1438   0.141   2.010   3.040 -0.5084  0.2978 -0.3829
  480SOL    HW1 1439   0.145   1.977   0.009 -0.0483 -1.2273  1.3296
  480SOL    HW2 1440   0.139   2.108   3.045 -1.2302 -1.1388 -0.7499
  481SOL     OW 1441   1.596   2.696   2.084  0.1305  0.4654  0.0698
  481SOL    HW1 1442   1.657   2.614   2.067  1.3793  1.3985  0.7753
  481SOL    HW2 1443   1.529   2.678   2.160  3.5433  0.4539 -0.0799
  482SOL     OW 1444   1.496   2.223   2.919 -0.2418  0.0579  0.5830
  482SOL    HW1 1445   1.417   2.288   2.923  0.2546  1.6117 -2.8700
  482SOL    HW2 1446   1.530   2.211   2.821  1.8260  0.8041  0.3234
  483SOL     OW 1447   0.725   2.513   2.780  0.4296 -0.0802  0.2150
  483SOL    HW1 1448   0.682   2.441   2.726  0.5602 -0.6074 -0.3164
  483SOL    HW2 1449   0.824   2.515   2.757  0.2438 -2.7537  0.0934
  484SOL     OW 1450   0.449   2.970   0.817  0.1430 -0.1703 -0.5368
  484SOL    HW1 1451   0.499   3.061   0.801  2.9021 -1.7907  1.9373
  484SOL    HW2 1452   0.348   2.991   0.829 -0.0408  1.2206 -2.7478
  485SOL     OW 1453   2.142   0.505   0.879  0.3855 -0.1479 -0.5927
  485SOL    HW1 1454   2.053   0.532   0.921 -1.3463  0.7705 -2.2739
  485SOL    HW2 1455   2.146   0.557   0.792  0.2254  0.0631  3.0253
  486SOL     OW 1456   1.981   2.672   2.014 -0.4163  0.0313 -0.3801
  486SOL    HW1 1457   2.028   2.755   1.980 -0.4913  0.2110  1.2761
  486SOL    HW2 1458   1.967   2.685   2.114 -0.6246 -1.5570  2.7324
  487SOL     OW 1459   1.267   2.077   0.684  0.3684  0.6148 -0.0787
  487SOL    HW1 1460   1.233   2.175   0.678 -0.3585 -2.1773 -1.3260
  487SOL    HW2 1461   1.185   2.015   0.682 -3.7915  1.1524 -4.2576
  488SOL     OW 1462   1.879   0.502   0.222  0.1109 -0.3175  0.3545
  488SOL    HW1 1463   1.827   0.568   0.274  0.2886 -3.1141 -3.2128
  488SOL    HW2 1464   1.977   0.524   0.227  1.5432 -0.9710 -1.2507
  489SOL     OW 1465   2.225   0.016   0.579  0.1169 -0.0368 -0.5234
  489SOL    HW1 1466   2.287   0.056   0.646 -1.7598 -4.6750 -1.0777
  489SOL    HW2 1467   2.176   3.063   0.615 -1.6935 -1.4052 -1.1166
  490SOL     OW 1468   1.699   2.812   2.900 -0.6460  0.1510 -0.3291
  490SOL    HW1 1469   1.714   2.870   2.816  1.1819  0.6620 -1.1786
  490SOL    HW2 1470   1.666   2.867   2.979  1.1044 -0.3242  2.6559
  491SOL     OW 1471   0.850   0.554   1.105  0.2412  0.3179 -0.2102
  491SOL    HW1 1472   0.920   0.500   1.054 -0.0887 -1.0551 -1.7170
  491SOL    HW2 1473   0.809   0.494   1.176 -0.3842 -1.6732 -2.5089
  492SOL     OW 1474   1.843   0.226   0.329  0.0685  0.6603  0.3515
  492SOL    HW1 1475   1.934   0.194   0.349  0.5101 -0.8250 -1.4016
  492SOL    HW2 1476   1.858   0.320   0.295  1.1432 -0.7585 -1.5397
  493SOL     OW 1477   2.068   2.225   2.920 -0.1941 -0.1723  0.0341
  493SOL    HW1 1478   2.078   2.326   2.906  1.6088  1.6271 -1.1723
  493SOL    HW2 1479   2.132   2.188   2.989  3.0278  2.7921 -1.0570
  494SOL     OW 1480   0.206   1.221   0.948 -0.1839  0.5734  0.7273
  494SOL    HW1 1481   0.240   1.130   0.933  1.3175 -0.2629 -1.1386
  494SOL    HW2 1482   0.134   1.226   1.021  1.3899 -0.0930 -0.1349
  495SOL     OW 1483   3.035   0.144   1.585  0.5179 -0.2077  0.0619
  495SOL    HW1 1484   3.004   0.230   1.627 -0.0421  1.2491 -0.7919
  495SOL    HW2 1485   0.006   0.137   1.586 -2.0986  1.8344 -1.4695
  496SOL     OW 1486   2.821   2.594   2.059  0.5403  0.4513 -0.6020
  496SOL    HW1 1487   2.836   2.570   1.965 -0.8010 -1.4901  0.3306
  496SOL    HW2 1488   2.773   2.520   2.110 -0.4393 -0.9629 -1.2599
  497SOL     OW 1489   1.510   1.764   2.551 -0.2216  0.7349  0.1707
  497SOL    HW1 1490   1.540   1.715   2.467  0.2293  0.7490  2.6362
  497SOL    HW2 1491   1.557   1.722   2.629  0.3666 -0.5044 -0.0673
  498SOL     OW 1492   0.514   1.700   0.801  0.8223  0.5209 -0.4409
  498SOL    HW1 1493   0.419   1.669   0.769 -0.5203 -3.7565 -3.5306
  498SOL    HW2 1494   0.562   1.762   0.737 -1.7485 -3.7037  0.9932
  499SOL     OW 1495   0.239   1.519   1.367 -0.3080 -0.2477  0.2616
  499SOL    HW1 1496   0.221   1.421   1.389  0.3370  0.7523  0.7764
  499SOL    HW2 1497   0.278   1.567   1.449  2.5943 -1.5307  2.0402
  500SOL     OW 1498   1.229   2.488   0.426 -0.2652 -0.6351 -0.6307
  500SOL    HW1 1499   1.248   2.479   0.327  2.1834 -1.9603  0.8061
  500SOL    HW2 1500   1.175   2.574   0.433 -0.4348  0.3994  0.8232
  501SOL     OW 1501   2.092   2.158   0.923  0.1543 -0.0460  0.2933
  501SOL    HW1 1502   2.134   2.088   0.979 -0.8533  3.3886 -3.3751
  501SOL    HW2 1503   2.099   2.132   0.823  1.0033 -2.1219 -1.9923
  502SOL     OW 1504   0.090   0.796   1.655 -0.0077 -0.0786 -0.3104
  502SOL    HW1 1505   0.078   0.825   1.558 -3.3730  0.1449 -1.2499
  502SOL    HW2 1506   0.185   0.769   1.683  0.1659 -0.0765 -0.9146
  503SOL     OW 1507   2.217   0.097   1.892 -0.5204 -0.2325 -0.3669
  503SOL    HW1 1508   2.210   0.021   1.824 -0.5581  1.4833 -0.6383
  503SOL    HW2 1509   2.231   0.185   1.841  0.5759  1.0909 -1.0092
  504SOL     OW 1510   1.938   0.756   1.952 -1.0249  0.0380  0.7057
  504SOL    HW1 1511   1.886   0.801   2.025  0.4283  2.1689  0.6768
  504SOL    HW2 1512   2.032   0.762   1.975 -1.7634  0.0580 -2.3461
  505SOL     OW 1513   1.174   3.010   2.439  0.7530  0.3031  0.0607
  505SOL    HW1 1514   1.232   2.984   2.521 -0.6085 -0.0316  1.1043
  505SOL    HW2 1515   1.078   2.975   2.450 -1.3182 -0.8317 -1.6448
  506SOL     OW 1516   0.678   0.356   1.886  0.5515  0.5806 -0.1251
  506SOL    HW1 1517   0.624   0.370   1.973  0.1984 -1.0852  1.3686
  506SOL    HW2 1518   0.635   0.381   1.801  1.4737 -1.2971  2.2589
  507SOL     OW 1519   1.707   0.264   3.008  0.0578 -0.3128  0.6865
  507SOL    HW1 1520   1.672   0.261   2.913 -2.6306 -2.2575 -2.0844
  507SOL    HW2 1521   1.642   0.226   3.079  0.1906  2.4738 -1.4397
  508SOL     OW 1522   2.435   0.491   2.551  0.1968 -1.0052 -0.3523
  508SOL    HW1 1523   2.391   0.418   2.609  0.4793 -1.5911  1.9984
  508SOL    HW2 1524   2.500   0.544   2.606  0.3720 -2.9037 -0.6101
  509SOL     OW 1525   1.027   1.460   1.950 -0.2546 -0.2381 -0.1617
  509SOL    HW1 1526   1.029   1.370   1.991 -2.3832  0.7931 -0.9697
  509SOL    HW2 1527   1.081   1.524   2.017  0.5286  0.2557  3.8386
  510SOL     OW 1528   2.975   0.530   0.851  0.5091 -0.8301 -0.2431
  510SOL    HW1 1529   3.022   0.606   0.800  2.5062 -3.3771 -1.8062
  510SOL    HW2 1530   2.869   0.541   0.837 -1.9808  0.8747  1.0681
  511SOL     OW 1531   1.480   1.318   0.723 -0.0484  0.4465 -0.5862
  511SOL    HW1 1532   1.429   1.345   0.641  3.2923 -0.3534  0.0074
  511SOL    HW2 1533   1.492   1.388   0.791  1.8372  0.5293 -4.6916
  512SOL     OW 1534   0.708   1.309   0.289  0.0028 -0.3331 -0.2077
  512SOL    HW1 1535   0.608   1.300   0.299  1.1006 -1.7968 -1.7057
  512SOL    HW2 1536   0.758   1.321   0.382 -1.8875 -0.2079  1.6421
  513SOL     OW 1537   0.296   2.663   0.679 -0.7746  0.2075  0.0166
  513SOL    HW1 1538   0.392   2.671   0.714  1.8017  0.7780 -1.8716
  513SOL    HW2 1539   0.284   2.578   0.624  0.6511  1.5809 -1.3876
  514SOL     OW 1540   0.420   2.027   0.128  0.5019 -0.1424  0.1169
  514SOL    HW1 1541   0.330   1.991   0.167 -2.4647  1.5945  2.0268
  514SOL    HW2 1542   0.454   1.967   0.052  1.3562 -2.2989 -0.5563
  515SOL     OW 1543   2.729   0.302   0.292 -0.9947  0.0472 -0.2120
  515SOL    HW1 1544   2.706   0.202   0.284  0.6329  1.8698  1.5826
  515SOL    HW2 1545   2.798   0.314   0.366 -0.7413 -1.4439 -2.5716
  516SOL     OW 1546   2.140   2.606   1.174 -0.2004 -0.0575  0.0933
  516SOL    HW1 1547   2.219   2.602   1.240 -2.0249 -0.0952 -0.0618
  516SOL    HW2 1548   2.056   2.639   1.220 -0.3951  0.8096 -0.3928
  517SOL     OW 1549   1.372   1.617   3.116  0.1212 -0.6212 -0.3384
  517SOL    HW1 1550   1.340   1.561   0.067 -2.1535 -0.8018  1.7769
  517SOL    HW2 1551   1.340   1.560   3.031 -1.1031 -3.4680 -3.5566
  518SOL     OW 1552   1.475   0.600   1.453  0.2494 -0.3224  0.0588
  518SOL    HW1 1553   1.445   0.631   1.357  0.2419  2.7919 -0.4027
  518SOL    HW2 1554   1.391   0.580   1.508  2.1925  2.1973 -1.5579
  519SOL     OW 1555   2.946   2.131   0.629  0.3715 -0.1360  0.2242
  519SOL    HW1 1556   3.020   2.167   0.687  0.7152  3.8302 -0.5588
  519SOL    HW2 1557   2.855   2.141   0.679  1.8661  0.2677  1.9180
  520SOL     OW 1558   2.393   2.483   1.851  0.0931  0.3537 -0.3970
  520SOL    HW1 1559   2.415   2.548   1.775 -0.4037  0.5145 -0.1679
  520SOL    HW2 1560   2.389   2.538   1.938 -2.8195  0.8467  0.4013
  521SOL     OW 1561   1.261   2.898   2.663 -0.1750 -0.2154  0.3461
  521SOL    HW1 1562   1.208   2.829   2.614  1.8571  1.2114 -1.7504
  521SOL    HW2 1563   1.254   2.893   2.764 -1.5883  1.5109  1.6768
  522SOL     OW 1564   2.935   0.190   2.057  0.1059  0.8453  0.1455
  522SOL    HW1 1565   3.019   0.149   2.021  1.3039  0.4756 -0.5059
  522SOL    HW2 1566   2.903   0.260   1.997  1.3896 -2.0489  0.2767
  523SOL     OW 1567   1.234   2.218   1.806  0.0409  0.0941  0.7637
  523SOL    HW1 1568   1.244   2.165   1.893 -1.0536  1.1583 -0.9049
  523SOL    HW2 1569   1.212   2.151   1.732 -0.0403 -2.3409 -1.1578
  524SOL     OW 1570   2.163   2.251   0.172 -0.7689  0.2904  0.3252
  524SOL    HW1 1571   2.212   2.330   0.211 -0.8848 -0.0540 -0.2262
  524SOL    HW2 1572   2.190   2.237   0.075  0.6653  1.0824 -1.8370
  525SOL     OW 1573   2.921   0.850   0.248  0.7201  0.1954 -0.1286
  525SOL    HW1 1574   3.022   0.844   0.259  0.0963  0.3410 -1.2906
  525SOL    HW2 1575   2.880   0.762   0.276  1.3959  2.2694  0.6965
  526SOL     OW 1576   1.041   3.113   1.136  0.7974 -0.3346  0.7679
  526SOL    HW1 1577   1.086   3.108   1.043 -1.2651 -2.7887 -0.8105
  526SOL    HW2 1578   1.008   3.020   1.165  2.4348 -2.3015  1.0864
  527SOL     OW 1579   2.699   1.556   0.589  0.0815 -0.2937  0.6283
  527SOL    HW1 1580   2.704   1.623   0.663  1.8133 -1.4164 -1.4413
  527SOL    HW2 1581   2.784   1.567   0.531 -0.2760  1.5128 -0.6371
  528SOL     OW 1582   0.533   0.878   2.576 -0.1098  0.5763  0.3952
  528SOL    HW1 1583   0.614   0.927   2.547 -1.6792 -2.8360  2.2414
  528SOL    HW2 1584   0.483   0.848   2.493  0.5576  1.3511  1.5728
  529SOL     OW 1585   0.733   1.621   3.108  0.0367 -0.1088  0.6501
  529SOL    HW1 1586   0.826   1.609   3.069 -1.2425 -0.6328  3.1084
  529SOL    HW2 1587   0.669   1.570   3.048 -0.9991  0.3929 -1.2582
  530SOL     OW 1588   1.738   1.305   2.099  0.5138  0.5657  0.3130
  530SOL    HW1 1589   1.742   1.276   2.003  3.3480 -1.1484  1.3215
  530SOL    HW2 1590   1.817   1.265   2.138 -0.3083 -0.1528 -4.1432
  531SOL     OW 1591   0.833   2.246   2.820  0.2170  0.4525 -0.1976
  531SOL    HW1 1592   0.787   2.156   2.846 -0.3782  0.8288 -1.2298
  531SOL    HW2 1593   0.832   2.310   2.899 -0.1370  1.3799 -1.2794
  532SOL     OW 1594   2.438   0.722   0.280  0.2047  0.1202 -0.0273
  532SOL    HW1 1595   2.434   0.800   0.213 -0.7606 -2.4689 -0.3884
  532SOL    HW2 1596   2.505   0.654   0.246  0.6135  4.2887  0.3130
  533SOL     OW 1597   0.047   0.529   1.605 -0.4708 -0.0100 -0.4132
  533SOL    HW1 1598   0.103   0.536   1.519  3.0760 -0.6953  1.5173
  533SOL    HW2 1599   0.014   0.625   1.628 -1.0296  0.0296 -1.3299
  534SOL     OW 1600   1.701   0.498   3.123 -0.2519  0.1725 -0.4912
  534SOL    HW1 1601   1.697   0.400   3.079  1.7493 -2.5999  0.0291
  534SOL    HW2 1602   1.779   0.505   0.065 -2.0344  0.1466  1.7539
  535SOL     OW 1603   0.906   0.300   0.235 -0.4336 -0.4656 -0.3039
  535SOL    HW1 1604   0.974   0.232   0.200 -3.0719  3.2276  0.8761
  535SOL    HW2 1605   0.814   0.263   0.206  1.7303  0.1370  0.2537
  536SOL     OW 1606   0.511   1.562   2.121  0.3540 -0.2610  0.0043
  536SOL    HW1 1607   0.514   1.610   2.215 -0.9016  1.1141  3.8783
  536SOL    HW2 1608   0.494   1.467   2.136  1.2717 -0.1653 -0.2230
  537SOL     OW 1609   0.566   2.310   1.756 -0.3271  0.4331  0.4579
  537SOL    HW1 1610   0.512   2.252   1.690 -1.8715  0.4469 -1.1506
  537SOL    HW2 1611   0.566   2.270   1.847 -1.1441  1.4369  1.1415
  538SOL     OW 1612   0.156   1.899   0.151  0.4934 -0.4506 -0.3481
  538SOL    HW1 1613   0.149   1.804   0.123 -0.9402 -1.2042  0.5625
  538SOL    HW2 1614   0.108   1.918   0.240 -3.0713  0.4236  0.4696
  539SOL     OW 1615   2.530   0.474   3.032  0.3452  0.1529  0.0072
  539SOL    HW1 1616   2.525   0.378   3.068  3.4951  0.9922 -0.0891
  539SOL    HW2 1617   2.593   0.476   2.948  0.0943  2.3955  0.5652
  540SOL     OW 1618   1.381   1.043   3.029  0.3502 -0.1009  1.0727
  540SOL    HW1 1619   1.306   1.044   2.955 -2.9151 -1.4242 -0.2333
  540SOL    HW2 1620   1.471   1.007   2.991  0.9754 -0.4145  1.3613
  541SOL     OW 1621   0.944   0.628   1.706  0.0892  0.0445 -0.8237
  541SOL    HW1 1622   0.955   0.676   1.795  0.7487 -1.4980 -1.4313
  541SOL    HW2 1623   0.916   0.698   1.639  0.0317  3.0193  0.2186
  542SOL     OW 1624   1.953   2.514   2.458 -0.6467 -0.4806  0.2068
  542SOL    HW1 1625   1.867   2.473   2.421 -0.3221  0.1810 -0.6036
  542SOL    HW2 1626   2.037   2.452   2.462  0.5041 -1.3925  1.1841
  543SOL     OW 1627   0.617   2.952   1.042 -0.3418  0.2797  0.4852
  543SOL    HW1 1628   0.552   2.963   0.963 -0.3082  0.3567 -0.9963
  543SOL    HW2 1629   0.620   3.029   1.109  1.3816 -2.7978 -0.5113
  544SOL     OW 1630   2.875   1.601   2.261 -0.6447  0.4657 -0.4596
  544SOL    HW1 1631   2.800   1.540   2.296  0.2510  0.7522  0.4797
  544SOL    HW2 1632   2.878   1.674   2.331  1.9415 -0.8656 -2.0739
  545SOL     OW 1633   1.835   2.011   1.476  0.1317  0.3861  0.2833
  545SOL    HW1 1634   1.870   1.989   1.567 -0.0310 -1.0428 -0.0036
  545SOL    HW2 1635   1.780   1.943   1.432 -1.2306  0.7573  0.1804
  546SOL     OW 1636   0.216   0.389   2.504 -0.0075 -1.0719 -0.4318
  546SOL    HW1 1637   0.142   0.333   2.460 -1.7003 -0.0786 -1.1029
  546SOL    HW2 1638   0.276   0.344   2.564 -3.1030  0.3871 -1.9080
  547SOL     OW 1639   1.557   0.594   0.840 -0.5732 -0.0330 -0.1874
  547SOL    HW1 1640   1.596   0.497   0.836 -1.2929 -0.7635 -0.9793
  547SOL    HW2 1641   1.608   0.653   0.902  0.8580  1.2158 -2.2549
  548SOL     OW 1642   1.246   2.328   2.816  0.1092  0.2936  0.3259
  548SOL    HW1 1643   1.218   2.319   2.914 -0.5725 -0.5604  2.4132
  548SOL    HW2 1644   1.266   2.431   2.800 -0.6870  3.7721 -0.2426
  549SOL     OW 1645   2.145   0.719   2.810 -0.4771 -0.4597  0.1041
  549SOL    HW1 1646   2.243   0.719   2.845 -2.0013 -0.6654 -0.3987
  549SOL    HW2 1647   2.143   0.687   2.713  0.1950  0.9901 -5.4795
  550SOL     OW 1648   2.669   2.009   0.416 -0.2165 -0.3214 -0.7277
  550SOL    HW1 1649   2.582   2.017   0.362 -0.8520 -0.0210  1.1138
  550SOL    HW2 1650   2.723   1.930   0.380 -0.3374  0.9958  0.7895
  551SOL     OW 1651   1.206   3.019   2.172  0.6466 -0.0878 -0.2241
  551SOL    HW1 1652   1.277   2.972   2.124 -1.9099 -0.0505 -1.0509
  551SOL    HW2 1653   1.205   3.001   2.269  1.5670  1.8764 -2.3725
  552SOL     OW 1654   3.073   2.125   2.719  0.1444  0.1078 -0.4964
  552SOL    HW1 1655   3.009   2.097   2.643  1.3272  2.2900  2.1014
  552SOL    HW2 1656   3.035   2.196   2.778 -0.2292 -0.6102  4.1740
  553SOL     OW 1657   0.048   2.611   1.068  1.0734 -0.5062  0.2090
  553SOL    HW1 1658   0.137   2.657   1.055 -0.7685 -1.1468  2.0954
  553SOL    HW2 1659   0.040   2.601   1.173 -0.0682 -0.7262  1.2843
  554SOL     OW 1660   2.329   1.993   1.930 -0.5611 -0.0123 -0.4144
  554SOL    HW1 1661   2.300   2.060   2.008  1.2254  0.8303 -0.6558
  554SOL    HW2 1662   2.269   1.985   1.846  1.0738  2.9212 -1.1486
  555SOL     OW 1663   1.617   2.048   2.184 -0.2484 -0.3136 -0.5457
  555SOL    HW1 1664   1.598   1.979   2.110 -0.1939 -0.5828 -1.9717
  555SOL    HW2 1665   1.574   2.137   2.155  0.1912 -0.6156  0.4732
  556SOL     OW 1666   1.314   1.756   1.036  0.1999 -0.1127  0.4700
  556SOL    HW1 1667   1.296   1.697   1.117  0.5854 -1.0583 -2.5872
  556SOL    HW2 1668   1.357   1.843   1.074  1.4996 -1.7467  0.7299
  557SOL     OW 1669   1.238   2.963   1.542 -0.5980 -0.6483  0.0125
  557SOL    HW1 1670   1.304   2.988   1.615  0.7715 -1.3698 -0.4980
  557SOL    HW2 1671   1.275   2.879   1.496  2.7204 -0.0876 -2.9464
  558SOL     OW 1672   0.605   3.066   1.923 -0.4376  0.9461  0.6080
  558SOL    HW1 1673   0.571   0.013   1.980  0.4674  2.0132  0.9481
  558SOL    HW2 1674   0.535   3.020   1.870 -1.3162  0.6964 -0.2016
  559SOL     OW 1675   2.340   2.739   0.350 -0.1108 -0.3396 -0.2492
  559SOL    HW1 1676   2.263   2.807   0.342 -1.2587  0.3579 -0.1314
  559SOL    HW2 1677   2.339   2.693   0.439 -2.5131  0.6448 -1.7521
  560SOL     OW 1678   1.505   2.483   0.571 -0.3283  0.1830 -0.4235
  560SOL    HW1 1679   1.420   2.462   0.517  1.1130 -2.1461  1.4298
  560SOL    HW2 1680   1.526   2.413   0.642 -0.4326 -4.1398 -0.9665
  561SOL     OW 1681   1.223   0.348   3.102 -0.2853  0.5461  0.0600
  561SOL    HW1 1682   1.151   0.383   3.039 -0.7801 -0.8455  2.6177
  561SOL    HW2 1683   1.230   0.399   0.062  0.0192  3.9715  1.8427
  562SOL     OW 1684   0.398   1.354   2.383  0.0904 -0.6038 -0.1806
  562SOL    HW1 1685   0.352   1.277   2.430 -0.6732  2.9865 -1.3291
  562SOL    HW2 1686   0.494   1.377   2.418  3.1063  0.3641  1.1333
  563SOL     OW 1687   1.312   2.120   2.493 -0.1177  0.1842 -0.6622
  563SOL    HW1 1688   1.327   2.204   2.544  1.5436  0.4600  0.5623
  563SOL    HW2 1689   1.396   2.074   2.467 -1.5560 -0.0121 -0.6025
  564SOL     OW 1690   3.062   1.019   0.984 -0.2963  0.4079  0.0985
  564SOL    HW1 1691   2.984   0.992   0.924 -0.4741 -2.7267 -0.2981
  564SOL    HW2 1692   3.050   1.109   1.032 -0.4264 -0.8200  2.1242
  565SOL     OW 1693   0.518   0.825   3.098  0.1612 -0.2138  0.0961
  565SOL    HW1 1694   0.520   0.748   3.030  2.3808  1.2041  2.6238
  565SOL    HW2 1695   0.587   0.801   0.036 -1.0682 -1.3072 -1.9024
  566SOL     OW 1696   2.698   2.902   2.652 -0.0956 -0.0407  0.1041
  566SOL    HW1 1697   2.730   2.978   2.591  0.1925 -2.5255  1.0433
  566SOL    HW2 1698   2.606   2.916   2.691 -0.5287 -1.5102  1.4297
  567SOL     OW 1699   1.442   1.149   0.976 -0.6732  0.0213  0.0975
  567SOL    HW1 1700   1.479   1.182   0.888 -0.6128 -2.8585  1.3320
  567SOL    HW2 1701   1.518   1.148   1.049  3.6013 -0.8565  0.6043
  568SOL     OW 1702   1.577   1.575   2.743  0.4110 -0.3346  0.3285
  568SOL    HW1 1703   1.523   1.509   2.689  3.3110  2.1582  1.7988
  568SOL    HW2 1704   1.618   1.530   2.822 -3.1702  0.7148 -2.4819
  569SOL     OW 1705   2.241   1.417   0.080 -0.0629 -1.0755 -0.1466
  569SOL    HW1 1706   2.316   1.468   0.031  2.2926  2.7169  0.8072
  569SOL    HW2 1707   2.207   1.335   0.034  1.3476  0.5379  2.5729
  570SOL     OW 1708   0.129   2.277   1.882  0.1617 -0.6219 -0.2263
  570SOL    HW1 1709   0.185   2.365   1.876  0.6239 -1.1174 -1.8044
  570SOL    HW2 1710   0.159   2.211   1.808  1.9134  0.7346  0.3053
  571SOL     OW 1711   2.665   1.890   1.547  0.0709 -0.2168 -0.6214
  571SOL    HW1 1712   2.702   1.976   1.516 -2.2308 -0.9480  0.6212
  571SOL    HW2 1713   2.660   1.900   1.653  1.9205  3.2697  1.7094
  572SOL     OW 1714   1.921   2.344   0.241  0.2091  0.0511  0.1869
  572SOL    HW1 1715   1.916   2.439   0.203 -1.3269  0.4673 -1.2249
  572SOL    HW2 1716   2.011   2.303   0.210  1.5861  0.3006 -1.6783
  573SOL     OW 1717   1.573   1.976   0.298  0.0420  0.1411  0.0198
  573SOL    HW1 1718   1.672   1.971   0.304  3.0380  0.6067 -1.7056
  573SOL    HW2 1719   1.528   1.945   0.384 -0.7008  0.1261 -1.0190
  574SOL     OW 1720   1.196   0.054   1.343  0.4336  0.4575  0.0213
  574SOL    HW1 1721   1.219   3.109   1.410  0.4511  1.3579  0.5504
  574SOL    HW2 1722   1.137   0.023   1.267  1.0472 -2.0925 -3.0205
  575SOL     OW 1723   0.627   1.163   1.630 -1.0445  0.5773  0.4918
  575SOL    HW1 1724   0.619   1.223   1.714 -1.2480 -0.8172  0.3555
  575SOL    HW2 1725   0.723   1.154   1.604  1.3911 -0.2927 -0.7665
  576SOL     OW 1726   2.577   0.512   1.582 -0.2757 -0.2393 -0.2577
  576SOL    HW1 1727   2.586   0.437   1.514 -0.3408 -0.4385 -0.0378
  576SOL    HW2 1728   2.650   0.582   1.557  0.6911 -0.3430  0.6053
  577SOL     OW 1729   1.456   1.088   2.301 -0.4723  0.1882 -0.3059
  577SOL    HW1 1730   1.473   1.018   2.370  0.2243  0.4271  0.0312
  577SOL    HW2 1731   1.470   1.047   2.209 -0.4925  0.8236 -1.2289
  578SOL     OW 1732   2.072   1.121   2.573 -0.0073  0.1895  0.8061
  578SOL    HW1 1733   2.050   1.166   2.662 -1.5178 -2.7547 -1.8387
  578SOL    HW2 1734   2.115   1.186   2.507  1.6154  0.2077  3.1211
  579SOL     OW 1735   1.219   2.039   1.614 -0.6652  0.4879  0.4934
  579SOL    HW1 1736   1.135   1.991   1.575 -0.4372  0.0078 -0.4329
  579SOL    HW2 1737   1.271   2.089   1.541 -0.3835  0.7411 -0.3923
  580SOL     OW 1738   1.484   2.234   0.198 -0.0701 -0.1739 -0.1860
  580SOL    HW1 1739   1.544   2.273   0.126 -0.6509 -0.4064  1.9281
  580SOL    HW2 1740   1.511   2.138   0.230  1.9917 -1.3564 -0.1535
  581SOL     OW 1741   0.972   0.810   1.977  0.4664  0.1005 -0.3294
  581SOL    HW1 1742   0.932   0.737   2.038 -0.4865 -3.1464  2.1850
  581SOL    HW2 1743   1.054   0.846   2.035 -0.0029 -1.1656  1.9475
  582SOL     OW 1744   0.914   1.050   1.544 -0.1403 -0.2780  0.0430
  582SOL    HW1 1745   0.954   1.004   1.631 -2.0180  0.0804  2.6878
  582SOL    HW2 1746   0.991   1.098   1.499 -1.6168  0.0964 -2.2815
  583SOL     OW 1747   0.831   1.049   1.963 -0.2130 -0.3897  0.1952
  583SOL    HW1 1748   0.852   0.951   1.963  0.8779  0.3878  0.0221
  583SOL    HW2 1749   0.919   1.102   1.952  3.5387 -1.0064  1.4785
  584SOL     OW 1750   2.329   2.408   0.801  0.6509 -0.0539  0.2335
  584SOL    HW1 1751   2.427   2.381   0.799 -0.4889 -0.3078 -0.2804
  584SOL    HW2 1752   2.266   2.336   0.766 -0.0617  0.4520 -0.8153
  585SOL     OW 1753   1.971   0.275   2.867  0.0165  0.0934 -0.3577
  585SOL    HW1 1754   1.897   0.258   2.935 -0.2409  1.6346 -0.0030
  585SOL    HW2 1755   1.939   0.275   2.770  1.8586  1.9793  0.4589
  586SOL     OW 1756   0.070   2.042   0.891  0.1151 -0.4184 -0.0154
  586SOL    HW1 1757   0.108   1.948   0.914 -0.4758 -1.3128  0.7197
  586SOL    HW2 1758   0.015   2.080   0.969  0.1938 -2.2317  1.3035
  587SOL     OW 1759   1.810   2.056   0.096 -0.2123  0.4805 -0.0970
  587SOL    HW1 1760   1.837   2.155   0.087 -0.4998 -0.1133  1.5945
  587SOL    HW2 1761   1.719   2.039   0.054  0.9068 -2.0928  3.0103
  588SOL     OW 1762   0.032   0.108   0.714 -0.2927 -0.5370 -0.2105
  588SOL    HW1 1763   0.002   0.167   0.788 -1.3547 -0.9011 -2.4268
  588SOL    HW2 1764   0.101   0.156   0.659  0.3474  1.6659  1.0137
  589SOL     OW 1765   1.318   0.912   1.074 -0.1397  0.0035 -0.2253
  589SOL    HW1 1766   1.234   0.860   1.047  0.5224 -2.3795 -1.6221
  589SOL    HW2 1767   1.369   0.954   0.996 -0.1667 -2.1780  1.8525
  590SOL     OW 1768   1.612   1.350   3.110 -0.1758 -0.5614 -0.7497
  590SOL    HW1 1769   1.629   1.402   0.071  1.0114  1.8129  0.5448
  590SOL    HW2 1770   1.509   1.345   3.094 -0.9704 -1.6632 -1.0186
  591SOL     OW 1771   2.637   2.458   2.517 -0.1802 -0.0572 -0.2482
  591SOL    HW1 1772   2.631   2.497   2.610  0.1085  0.7297  0.4012
  591SOL    HW2 1773   2.618   2.530   2.451 -2.2493  0.5845  1.2074
  592SOL     OW 1774   1.688   2.230   1.612 -0.0991 -0.2455 -0.3600
  592SOL    HW1 1775   1.596   2.257   1.585 -0.2738  0.3429  2.8655
  592SOL    HW2 1776   1.719   2.157   1.548 -0.4862 -0.7607  2.8331
  593SOL     OW 1777   0.922   0.223   0.946 -0.1454 -0.5448  0.1372
  593SOL    HW1 1778   0.880   0.196   1.028  0.0460 -0.8475 -1.4208
  593SOL    HW2 1779   0.969   0.142   0.906 -1.8690  0.1184  3.8646
  594SOL     OW 1780   2.892   0.735   2.523  0.3955 -0.0511  0.3459
  594SOL    HW1 1781   2.926   0.788   2.607  0.5345  1.7029  2.2743
  594SOL    HW2 1782   2.908   0.635   2.531  1.9369  0.7516 -0.7040
  595SOL     OW 1783   0.700   2.722   1.160 -0.1460 -0.0774  0.4576
  595SOL    HW1 1784   0.685   2.809   1.105 -0.4926  2.1521 -3.2826
  595SOL    HW2 1785   0.615   2.698   1.212  1.1184 -0.3076 -1.0628
  596SOL     OW 1786   0.063   0.859   1.388 -0.5047 -0.2040 -0.2849
  596SOL    HW1 1787   0.083   0.864   1.284 -0.4793 -1.7245 -1.3114
  596SOL    HW2 1788   3.125   0.932   1.409  0.2786  0.0246  0.2143
  597SOL     OW 1789   1.547   1.981   3.036  0.4231 -0.3197  0.1802
  597SOL    HW1 1790   1.529   2.063   2.981 -2.5002 -3.3328 -1.0044
  597SOL    HW2 1791   1.456   1.957   3.091 -1.2179 -2.4863  1.4256
  598SOL     OW 1792   0.460   2.901   1.740  0.1152 -0.3544  0.0082
  598SOL    HW1 1793   0.543   2.895   1.682  0.1371  1.7706  0.2075
  598SOL    HW2 1794   0.399   2.979   1.709 -0.3511 -1.1008 -0.4210
  599SOL     OW 1795   2.417   1.741   2.893  0.4335 -0.0231 -0.3099
  599SOL    HW1 1796   2.327   1.747   2.841 -2.7959 -1.2524  0.9070
  599SOL    HW2 1797   2.494   1.779   2.844 -1.0050 -1.8600 -0.1473
  600SOL     OW 1798   0.850   1.011   0.233 -0.2105  0.4184 -0.0262
  600SOL    HW1 1799   0.836   1.040   0.331  1.1563  0.2925  2.5290
  600SOL    HW2 1800   0.789   1.063   0.172  0.8547 -3.5556  0.8205
  601SOL     OW 1801   0.494   0.758   0.735 -0.0087  0.1998  0.3487
  601SOL    HW1 1802   0.460   0.855   0.724 -0.8765  0.1681  0.5145
  601SOL    HW2 1803   0.578   0.765   0.791 -1.6369 -1.8643 -2.4525
  602SOL     OW 1804   1.456   0.176   0.953  0.5395 -0.3156 -0.6545
  602SOL    HW1 1805   1.393   0.224   0.889 -0.8092  0.3606  0.3937
  602SOL    HW2 1806   1.549   0.216   0.938  1.3040  2.4937 -0.7208
  603SOL     OW 1807   0.773   2.876   2.301  0.3411 -0.5009 -0.8552
  603SOL    HW1 1808   0.831   2.937   2.245 -1.6529 -1.2220  1.2129
  603SOL    HW2 1809   0.762   2.783   2.269  1.2986  1.8745  4.0803
  604SOL     OW 1810   3.086   2.921   2.538 -0.6881  0.0397 -0.1787
  604SOL    HW1 1811   0.002   2.963   2.458  0.3660  0.6384  0.8809
  604SOL    HW2 1812   3.085   2.818   2.533 -1.9824  1.2618  0.7311
  605SOL     OW 1813   2.657   1.785   1.269 -0.3302 -0.0711  0.1508
  605SOL    HW1 1814   2.670   1.848   1.342 -2.2220 -2.3072 -5.1283
  605SOL    HW2 1815   2.712   1.703   1.275  1.9517  1.9416 -0.3098
  606SOL     OW 1816   0.578   1.503   2.909  0.0461 -0.1411 -0.1304
  606SOL    HW1 1817   0.534   1.564   2.840  2.5374  1.4014 -0.1472
  606SOL    HW2 1818   0.528   1.414   2.915  0.3576 -0.7897  0.1038
  607SOL     OW 1819   0.958   0.380   0.501 -0.2698  0.4418  0.8121
  607SOL    HW1 1820   0.953   0.367   0.399  1.9988  1.5990 -1.0259
  607SOL    HW2 1821   1.057   0.391   0.537 -0.6697 -1.3144  2.6353
  608SOL     OW 1822   1.877   1.534   2.165 -0.0432 -0.1372 -0.2961
  608SOL    HW1 1823   1.807   1.466   2.122 -1.9722 -0.7173  1.5141
  608SOL    HW2 1824   1.833   1.619   2.199 -0.8609  0.7016  1.4818
  609SOL     OW 1825   2.916   0.016   0.954  0.0026 -0.7175  0.3881
  609SOL    HW1 1826   2.859   3.125   1.035  3.3290 -1.3700  1.0625
  609SOL    HW2 1827   2.983   0.092   0.974 -1.7879  0.0657 -1.0575
  610SOL     OW 1828   0.543   2.721   0.784 -0.2447  0.2240 -0.5283
  610SOL    HW1 1829   0.625   2.699   0.722  3.1842  0.1304 -1.5285
  610SOL    HW2 1830   0.525   2.819   0.809  0.4932 -3.0762 -1.6015
  611SOL     OW 1831   1.620   0.924   2.957  0.0460  0.1839 -0.0957
  611SOL    HW1 1832   1.698   0.966   3.013 -1.7489  0.3686 -2.2693
  611SOL    HW2 1833   1.629   0.824   2.951 -0.8469  1.0415  2.9212
  612SOL     OW 1834   0.857   2.099   2.080  0.8168  0.4429 -0.1893
  612SOL    HW1 1835   0.888   2.064   2.166 -1.8818  1.9544 -2.9561
  612SOL    HW2 1836   0.896   2.191   2.063  0.1729 -0.4801  0.5653
  613SOL     OW 1837   0.602   2.629   0.465  0.4789 -0.2782  0.1066
  613SOL    HW1 1838   0.685   2.616   0.523  0.4669 -0.4059 -0.1693
  613SOL    HW2 1839   0.627   2.604   0.371 -2.2606 -0.9050  0.6815
  614SOL     OW 1840   2.709   2.917   1.634  0.3155 -0.0274  0.2112
  614SOL    HW1 1841   2.649   2.837   1.655  0.7852  0.4202  2.1253
  614SOL    HW2 1842   2.801   2.921   1.682 -0.0552 -0.0636  0.8549
  615SOL     OW 1843   1.906   1.277   0.336  0.0973  0.4811  0.0424
  615SOL    HW1 1844   1.854   1.200   0.383  1.6232  0.6892  1.3189
  615SOL    HW2 1845   1.988   1.243   0.292 -1.4660 -1.9115  3.6745
  616SOL     OW 1846   1.730   0.615   0.445 -0.2770 -0.4274 -0.0794
  616SOL    HW1 1847   1.632   0.604   0.426 -0.0960  0.8934 -0.7220
  616SOL    HW2 1848   1.763   0.545   0.508  1.3592  0.6055  1.2126
  617SOL     OW 1849   1.099   1.102   2.979 -0.2305  0.1554  0.0884
  617SOL    HW1 1850   1.073   1.028   3.046 -0.7866 -1.6639 -1.3898
  617SOL    HW2 1851   1.064   1.191   3.022  0.5939  1.4356  1.0247
  618SOL     OW 1852   0.812   0.139   1.779 -0.0952 -0.6391 -0.4740
  618SOL    HW1 1853   0.737   0.101   1.718  0.5454  3.2093  1.6184
  618SOL    HW2 1854   0.782   0.219   1.834 -0.8506  1.2264 -0.0781
  619SOL     OW 1855   2.988   1.036   1.428  0.2034  0.3664  0.1126
  619SOL    HW1 1856   2.989   1.139   1.415 -1.9453  0.1721  1.5503
  619SOL    HW2 1857   2.956   1.007   1.520 -1.4827 -0.1275  1.0377
  620SOL     OW 1858   2.437   1.156   2.798 -0.1629 -0.6987 -0.8271
  620SOL    HW1 1859   2.434   1.090   2.719  1.1335 -0.5095 -1.4527
  620SOL    HW2 1860   2.363   1.225   2.789 -0.7229  0.0902  0.9393
  621SOL     OW 1861   2.557   2.670   1.391 -0.2588 -0.2486 -0.3035
  621SOL    HW1 1862   2.565   2.750   1.328 -3.7106 -0.3988 -1.0967
  621SOL    HW2 1863   2.630   2.602   1.359  1.7509 -1.5146 -3.2552
  622SOL     OW 1864   1.043   0.667   2.737  0.5000 -0.4783 -0.0632
  622SOL    HW1 1865   1.040   0.629   2.645  0.8129 -1.1222  1.4413
  622SOL    HW2 1866   1.077   0.762   2.740  1.5133  1.7341 -0.5057
  623SOL     OW 1867   1.027   0.472   2.930 -0.1951 -0.1368 -0.3182
  623SOL    HW1 1868   0.971   0.399   2.895  0.0329  1.0052  1.6287
  623SOL    HW2 1869   1.046   0.543   2.854  0.2436  0.0286 -3.3058
  624SOL     OW 1870   2.051   0.744   3.118 -0.4290 -0.1306 -0.6664
  624SOL    HW1 1871   2.055   0.749   3.016  3.4285 -1.6852 -0.8248
  624SOL    HW2 1872   2.079   0.652   0.014  0.0274  0.7443 -0.5305
  625SOL     OW 1873   1.173   1.231   1.012 -0.6826  0.4057  0.0734
  625SOL    HW1 1874   1.270   1.196   1.012  0.2135 -0.6663 -1.1586
  625SOL    HW2 1875   1.149   1.288   1.091  0.6113 -1.1013 -1.7220
  626SOL     OW 1876   1.628   1.088   2.736  0.3507  0.2290 -0.3422
  626SOL    HW1 1877   1.703   1.047   2.680  0.7593  0.6514  0.8965
  626SOL    HW2 1878   1.615   1.030   2.823 -0.5556 -1.2577  2.2420
  627SOL     OW 1879   1.084   0.103   2.553  0.2831  0.3339 -0.0205
  627SOL    HW1 1880   1.125   0.030   2.497  0.3425  1.3895 -0.9278
  627SOL    HW2 1881   1.099   0.091   2.653 -0.3844 -1.0010 -0.5472
  628SOL     OW 1882   2.704   3.116   2.481  0.1033  0.5944  0.6996
  628SOL    HW1 1883   2.624   0.020   2.536  1.8998 -1.8824 -1.6024
  628SOL    HW2 1884   2.727   0.051   2.402  1.4062 -1.0705 -0.8712
  629SOL     OW 1885   0.800   0.724   2.958  0.0878 -0.1105  0.3449
  629SOL    HW1 1886   0.889   0.685   2.929 -3.5863 -2.6559 -0.1084
  629SOL    HW2 1887   0.795   0.741   3.063  0.9536 -0.1065  2.1927
  630SOL     OW 1888   1.102   0.329   2.040  0.0742 -0.1291 -0.5739
  630SOL    HW1 1889   1.023   0.357   2.100 -0.5422 -1.6722 -2.7394
  630SOL    HW2 1890   1.167   0.258   2.073 -0.7439  2.5373 -0.9956
  631SOL     OW 1891   3.033   0.708   0.627  0.3836 -0.2512 -0.3533
  631SOL    HW1 1892   2.964   0.651   0.578  0.9219 -0.0128 -0.4691
  631SOL    HW2 1893   3.127   0.689   0.592  0.5682  0.9174  0.7906
  632SOL     OW 1894   2.133   0.946   1.351 -0.7530 -0.8626 -0.1260
  632SOL    HW1 1895   2.053   0.948   1.409 -1.2264  2.6601 -1.3623
  632SOL    HW2 1896   2.156   0.849   1.340  2.0305  1.6928  1.2913
  633SOL     OW 1897   1.241   1.042   0.752 -0.1177  0.6305 -0.3991
  633SOL    HW1 1898   1.259   1.088   0.841  0.3437  1.5070 -0.7336
  633SOL    HW2 1899   1.294   0.954   0.744  0.1953 -0.8085  0.8308
  634SOL     OW 1900   1.872   2.874   1.103 -0.0804 -0.7830 -0.2150
  634SOL    HW1 1901   1.946   2.937   1.074  0.5536 -0.1222 -1.2030
  634SOL    HW2 1902   1.875   2.785   1.052 -1.3620  3.5555  2.4665
  635SOL     OW 1903   1.697   0.775   0.999  0.5324  0.3865 -0.8877
  635SOL    HW1 1904   1.672   0.846   0.933  0.2464 -4.1898  0.7389
  635SOL    HW2 1905   1.704   0.814   1.093 -0.9909  0.4017 -1.4273
  636SOL     OW 1906   0.979   0.958   0.680  0.1449 -0.0885  0.0923
  636SOL    HW1 1907   0.920   1.001   0.752 -1.7613  0.2828 -0.9319
  636SOL    HW2 1908   1.076   0.989   0.694 -1.9018  0.7921  1.3193
  637SOL     OW 1909   2.541   2.168   0.042 -0.4483  0.8066 -0.0616
  637SOL    HW1 1910   2.625   2.117   0.071  1.3100  0.0975  2.2550
  637SOL    HW2 1911   2.540   2.160   3.070 -0.9786  1.7100 -1.4236
  638SOL     OW 1912   1.228   2.613   2.555 -0.2078  0.0195 -0.8059
  638SOL    HW1 1913   1.291   2.575   2.486  0.8581  1.9529 -2.1687
  638SOL    HW2 1914   1.267   2.622   2.649  0.8547  3.1195  1.7787
  639SOL     OW 1915   0.893   2.243   1.285  0.1955 -0.1857 -0.8977
  639SOL    HW1 1916   0.888   2.328   1.226 -0.4761  0.7989 -0.7233
  639SOL    HW2 1917   0.965   2.184   1.251  0.4643  0.2635  0.7340
  640SOL     OW 1918   2.931   2.790   0.449  0.4722  0.2948 -0.0011
  640SOL    HW1 1919   2.925   2.888   0.466 -1.4389 -3.1170  1.2111
  640SOL    HW2 1920   2.837   2.752   0.477 -1.5354  2.5942  0.4358
  641SOL     OW 1921   0.640   0.280   0.147  0.0882  0.5617 -0.8157
  641SOL    HW1 1922   0.575   0.291   0.225  0.5474 -0.4553 -0.2166
  641SOL    HW2 1923   0.609   0.334   0.068 -0.2103 -1.1436  0.6963
  642SOL     OW 1924   2.929   0.765   1.112 -0.7552 -0.0448 -0.3033
  642SOL    HW1 1925   2.996   0.693   1.086 -3.3308  1.8822 -0.3989
  642SOL    HW2 1926   2.918   0.832   1.038  1.1581  2.1338  0.6796
  643SOL     OW 1927   0.875   1.872   1.928  0.1148 -0.3376 -0.1890
  643SOL    HW1 1928   0.789   1.810   1.927 -1.8046  0.3356 -1.2056
  643SOL    HW2 1929   0.871   1.965   1.983  1.0187  2.7341  2.3911
  644SOL     OW 1930   1.378   2.484   0.201 -0.1459 -0.3196  0.5982
  644SOL    HW1 1931   1.401   2.387   0.188 -0.3686  1.1638  1.5293
  644SOL    HW2 1932   1.458   2.540   0.235 -1.5240 -0.3290 -2.3509
  645SOL     OW 1933   1.861   2.090   0.626 -0.3343 -0.4371  0.4715
  645SOL    HW1 1934   1.826   2.040   0.545  2.6121 -1.4551  0.1174
  645SOL    HW2 1935   1.915   2.173   0.593  1.5733  2.7957  1.5124
  646SOL     OW 1936   1.254   2.710   0.112 -0.3305 -0.2482 -0.2080
  646SOL    HW1 1937   1.269   2.776   0.190 -1.6015  0.7923 -1.5934
  646SOL    HW2 1938   1.289   2.616   0.127 -0.9101 -0.5171 -0.2842
  647SOL     OW 1939   0.574   2.561   1.887 -0.2278 -0.4450  0.3728
  647SOL    HW1 1940   0.485   2.606   1.869 -1.6434  1.2746  1.5881
  647SOL    HW2 1941   0.591   2.481   1.823 -0.6149 -4.5741  1.6581
  648SOL     OW 1942   1.744   0.877   1.261 -0.0725 -0.0526 -0.0544
  648SOL    HW1 1943   1.775   0.958   1.205  0.6943  2.0555 -1.9529
  648SOL    HW2 1944   1.829   0.826   1.287  3.9378 -1.5562 -0.3322
  649SOL     OW 1945   1.339   2.580   2.804 -0.0488  0.1680 -0.1429
  649SOL    HW1 1946   1.438   2.572   2.794  0.2203 -2.1192  2.4394
  649SOL    HW2 1947   1.322   2.657   2.870 -1.3111 -0.5259  0.6239
  650SOL     OW 1948   2.228   1.526   1.792  0.2902  0.1378 -0.2305
  650SOL    HW1 1949   2.281   1.600   1.841 -1.4557 -1.1189 -0.9250
  650SOL    HW2 1950   2.140   1.520   1.841  3.1608 -1.7443 -2.2095
  651SOL     OW 1951   1.232   2.153   0.150  0.5039  0.8852 -0.2077
  651SOL    HW1 1952   1.270   2.056   0.160  1.2475 -1.0703  2.4167
  651SOL    HW2 1953   1.312   2.216   0.170 -2.8687  2.4595  0.6425
  652SOL     OW 1954   0.778   2.691   0.066  0.0873 -0.2150  0.2293
  652SOL    HW1 1955   0.860   2.670   0.009  1.7382  2.4298 -2.0928
  652SOL    HW2 1956   0.759   2.790   0.062 -1.4009 -0.4514  1.6094
  653SOL     OW 1957   2.271   1.964   1.062  0.0474  0.2135  0.4267
  653SOL    HW1 1958   2.337   2.040   1.072 -0.5979  1.8358  0.3281
  653SOL    HW2 1959   2.252   1.934   1.163 -1.2568  0.5838  0.1969
  654SOL     OW 1960   2.883   2.610   1.739  0.3651  0.1698 -0.1137
  654SOL    HW1 1961   2.921   2.696   1.776 -0.6578  2.2905 -0.0104
  654SOL    HW2 1962   2.903   2.601   1.639  0.0149  2.7034 -0.2485
  655SOL     OW 1963   2.936   2.023   1.244  0.0935 -0.0128 -0.0702
  655SOL    HW1 1964   2.860   2.006   1.176 -2.1318 -0.3328 -0.4814
  655SOL    HW2 1965   2.897   2.052   1.334  2.0767 -0.2333 -1.9307
  656SOL     OW 1966   0.144   2.878   2.747 -0.5149 -0.4338 -0.1032
  656SOL    HW1 1967   0.084   2.926   2.675 -1.5588 -1.6473 -0.4057
  656SOL    HW2 1968   0.088   2.830   2.817  1.2002  2.3980 -2.0571
  657SOL     OW 1969   0.067   0.831   0.270  0.4640 -0.4244 -0.1384
  657SOL    HW1 1970   0.109   0.811   0.363 -0.2573 -1.0702  1.0671
  657SOL    HW2 1971   0.139   0.839   0.200  1.1320  1.0153 -0.5670
  658SOL     OW 1972   1.882   1.963   0.902  0.5982  0.0314 -0.6277
  658SOL    HW1 1973   1.849   2.003   0.991 -0.1688 -0.2518  0.8781
  658SOL    HW2 1974   1.870   2.031   0.826 -0.0596  3.9044  0.4718
  659SOL     OW 1975   1.853   0.436   1.246  0.2015  0.5402 -0.0817
  659SOL    HW1 1976   1.850   0.385   1.163 -0.7036  0.7550  6.0716
  659SOL    HW2 1977   1.772   0.416   1.305 -2.0101  1.7479  1.1151
  660SOL     OW 1978   1.259   1.502   0.224  0.1167 -0.4347  0.1867
  660SOL    HW1 1979   1.159   1.509   0.229 -1.5857  0.5952 -3.0811
  660SOL    HW2 1980   1.302   1.575   0.279  0.3871 -0.7571 -1.0693
  661SOL     OW 1981   0.103   1.955   0.410 -0.7183  0.6453 -0.7409
  661SOL    HW1 1982   0.193   1.975   0.463 -0.0810  1.5171  0.3002
  661SOL    HW2 1983   0.049   2.039   0.391  1.2906 -2.8853 -0.9837
  662SOL     OW 1984   0.120   0.711   2.175  0.0223 -0.0561  0.1394
  662SOL    HW1 1985   0.022   0.695   2.184  0.4703  4.6446 -0.0154
  662SOL    HW2 1986   0.133   0.813   2.160 -0.1756  1.1453  0.2897
  663SOL     OW 1987   2.140   1.488   1.191 -0.1848  0.5888 -0.3169
  663SOL    HW1 1988   2.200   1.496   1.105  4.4736  0.8580 -2.8220
  663SOL    HW2 1989   2.086   1.572   1.200  2.0528 -0.9924  0.5872
  664SOL     OW 1990   0.576   0.476   0.961 -0.3582 -0.0759 -0.2788
  664SOL    HW1 1991   0.612   0.498   0.864  1.8550 -0.5309  0.0587
  664SOL    HW2 1992   0.646   0.508   1.033  2.0830  1.8616  1.7139
  665SOL     OW 1993   1.485   3.025   2.907  0.1821 -0.1860 -0.3110
  665SOL    HW1 1994   1.540   3.030   2.990 -0.0203  0.4539 -1.5833
  665SOL    HW2 1995   1.423   3.109   2.903 -0.4135  0.5742  0.6921
  666SOL     OW 1996   0.150   0.632   2.429 -0.2450  0.0095 -0.1343
  666SOL    HW1 1997   0.175   0.537   2.450  1.3129 -2.6114 -1.7193
  666SOL    HW2 1998   0.151   0.639   2.327  0.4761  1.4088  0.2004
  667SOL     OW 1999   2.053   1.528   2.381 -0.6054 -0.4375  0.0279
  667SOL    HW1 2000   1.996   1.521   2.465  1.5591 -3.0505 -0.3154
  667SOL    HW2 2001   1.993   1.523   2.299  2.1960 -2.0037 -0.0957
  668SOL     OW 2002   3.127   1.574   3.000  0.0548  0.1078 -0.4934
  668SOL    HW1 2003   0.040   1.519   2.920  2.0330 -0.9697 -2.4160
  668SOL    HW2 2004   3.038   1.541   3.025  1.2974  2.2237  1.1274
  669SOL     OW 2005   2.134   2.848   2.596  0.0393  0.3865 -0.4337
  669SOL    HW1 2006   2.117   2.899   2.510 -1.7753 -1.7990 -0.1884
  669SOL    HW2 2007   2.210   2.780   2.596  0.2113  1.2655 -0.0109
  670SOL     OW 2008   2.447   0.975   2.603 -0.6593  0.8982 -0.0709
  670SOL    HW1 2009   2.516   0.907   2.563  0.6481 -1.1260 -1.2447
  670SOL    HW2 2010   2.351   0.941   2.577 -2.1431  0.0357  0.6525
  671SOL     OW 2011   2.295   1.371   0.349  0.2450 -0.1568 -0.2178
  671SOL    HW1 2012   2.307   1.414   0.260 -0.9602  0.5022 -1.4166
  671SOL    HW2 2013   2.232   1.423   0.406 -3.3078 -0.7536  0.2790
  672SOL     OW 2014   2.657   1.153   2.440 -0.2990 -0.3255 -0.0807
  672SOL    HW1 2015   2.718   1.183   2.522  0.7417 -0.3942  2.4178
  672SOL    HW2 2016   2.603   1.074   2.478  0.0654  1.2566 -0.0178
  673SOL     OW 2017   2.874   1.466   1.448  0.3051  0.8631  0.2204
  673SOL    HW1 2018   2.879   1.536   1.371 -0.9958  2.2400 -2.2697
  673SOL    HW2 2019   2.935   1.384   1.425  1.2274 -3.4924 -1.2169
  674SOL     OW 2020   1.746   1.791   1.858 -0.0847 -0.5273  0.4391
  674SOL    HW1 2021   1.807   1.868   1.862 -2.4359  0.3862  0.2111
  674SOL    HW2 2022   1.778   1.718   1.794  0.8242 -1.2227 -1.4542
  675SOL     OW 2023   3.096   0.285   0.921 -0.4017  0.2356  0.3081
  675SOL    HW1 2024   3.047   0.367   0.896 -0.1624 -1.3596  1.2960
  675SOL    HW2 2025   0.032   0.298   0.999 -0.3287  1.8478  2.1052
  676SOL     OW 2026   2.231   1.111   1.053 -0.5268 -0.2652  0.1552
  676SOL    HW1 2027   2.271   1.107   1.147 -2.0631  0.0840 -1.3500
  676SOL    HW2 2028   2.242   1.026   1.004  0.1905  0.4284 -2.2165
  677SOL     OW 2029   1.559   1.641   2.324  0.4471 -0.4855 -0.1085
  677SOL    HW1 2030   1.471   1.685   2.290 -3.0174 -0.1452 -2.5365
  677SOL    HW2 2031   1.635   1.683   2.266  0.2113  0.2894 -0.6726
  678SOL     OW 2032   2.744   1.503   0.946 -0.1112  0.4610  0.1296
  678SOL    HW1 2033   2.751   1.591   0.894  1.6407  0.8372  1.8608
  678SOL    HW2 2034   2.648   1.480   0.974  1.2352 -0.7176  1.4173
  679SOL     OW 2035   0.056   2.785   0.758 -0.7007 -0.1102 -0.0856
  679SOL    HW1 2036   0.034   2.809   0.661 -0.5369  2.2783  3.6671
  679SOL    HW2 2037   0.144   2.733   0.760 -0.3677  0.1285  0.6995
  680SOL     OW 2038   3.113   2.200   1.116 -0.2625 -0.1525  0.1758
  680SOL    HW1 2039   0.068   2.208   1.173 -1.0005  0.4610  1.1984
  680SOL    HW2 2040   3.053   2.139   1.168  1.4312  1.9770 -1.0117
  681SOL     OW 2041   0.683   0.932   1.137 -0.0489 -0.5137  1.5299
  681SOL    HW1 2042   0.773   0.979   1.149  1.4316  0.4871  2.6327
  681SOL    HW2 2043   0.682   0.871   1.057 -1.8638  3.8534 -2.2800
  682SOL     OW 2044   1.700   2.833   0.807 -0.0983 -0.4708 -0.6615
  682SOL    HW1 2045   1.718   2.931   0.833  1.2989  0.8484 -0.6575
  682SOL    HW2 2046   1.785   2.786   0.784 -0.8865  0.8800  0.6376
  683SOL     OW 2047   2.159   1.415   1.531  0.2608  0.0145 -0.3161
  683SOL    HW1 2048   2.177   1.494   1.597  1.6975  2.9784  0.8211
  683SOL    HW2 2049   2.238   1.382   1.483 -3.0935 -0.3768  1.1002
  684SOL     OW 2050   0.122   1.829   1.701 -0.6513 -0.7634  0.5921
  684SOL    HW1 2051   0.040   1.826   1.642 -0.5437  1.9817  2.1961
  684SOL    HW2 2052   0.128   1.759   1.772 -2.3339  3.7686  1.5207
  685SOL     OW 2053   2.292   1.868   0.198  0.7557 -0.1987 -0.1149
  685SOL    HW1 2054   2.199   1.834   0.166 -1.9412  2.1121 -0.8741
  685SOL    HW2 2055   2.362   1.880   0.124 -1.3759  0.4225 -0.5638
  686SOL     OW 2056   2.994   3.063   0.548  0.4194 -0.3169  0.5619
  686SOL    HW1 2057   2.906   3.040   0.600 -3.4128 -2.3697  1.3369
  686SOL    HW2 2058   3.071   3.075   0.616  0.3559  0.7079 -2.5406
  687SOL     OW 2059   1.636   2.992   0.017 -0.3470  0.2810  0.8332
  687SOL    HW1 2060   1.607   2.945   0.104  1.3320  1.5650 -1.3017
  687SOL    HW2 2061   1.724   3.045   0.033  0.8147  3.8772  3.4296
  688SOL     OW 2062   2.006   1.952   2.230  0.2017  0.3591 -0.0917
  688SOL    HW1 2063   2.076   1.879   2.235  1.2902  1.8451  1.0543
  688SOL    HW2 2064   2.021   2.013   2.314  0.9749  2.7989 -0.9479
  689SOL     OW 2065   2.735   0.992   2.050 -0.3527  0.2743  0.1855
  689SOL    HW1 2066   2.703   1.064   1.983  1.9572 -1.4403 -0.1150
  689SOL    HW2 2067   2.799   1.039   2.116 -0.1128  0.8560 -0.9139
  690SOL     OW 2068   1.873   1.523   0.960 -0.0963  0.5565 -0.6164
  690SOL    HW1 2069   1.930   1.437   0.953  1.8414 -2.5238  1.2018
  690SOL    HW2 2070   1.794   1.509   1.025 -2.1534  1.4208  4.0631
  691SOL     OW 2071   1.112   1.331   1.268  0.0179 -0.5221 -0.2806
  691SOL    HW1 2072   1.152   1.255   1.325  0.1181  2.4856 -1.0913
  691SOL    HW2 2073   1.016   1.342   1.298 -2.0559 -1.5465  1.2293
  692SOL     OW 2074   1.956   3.112   2.249 -0.4370 -0.1545  0.2868
  692SOL    HW1 2075   1.981   0.030   2.160 -1.1780  0.7318  0.1815
  692SOL    HW2 2076   1.861   0.005   2.272  5.2538 -0.1494  1.1715
  693SOL     OW 2077   0.009   1.172   2.832  0.2803 -0.2111 -0.2035
  693SOL    HW1 2078   0.061   1.261   2.832  0.4030 -1.8411  0.3384
  693SOL    HW2 2079   3.112   1.141   2.738 -1.6989 -1.7304 -2.8654
  694SOL     OW 2080   2.093   3.019   1.028  0.0967 -0.0991 -0.1976
  694SOL    HW1 2081   2.132   3.101   0.985 -1.3642 -0.2285  0.6731
  694SOL    HW2 2082   2.113   3.012   1.126  0.0709  2.6623  1.3287
  695SOL     OW 2083   1.336   1.090   2.674  0.2175 -0.0509  0.3203
  695SOL    HW1 2084   1.435   1.073   2.687  4.8094  0.4680 -0.3150
  695SOL    HW2 2085   1.319   1.189   2.666 -2.5386 -2.4112  1.4065
  696SOL     OW 2086   1.921   0.108   1.787 -0.1456  0.2634  0.3663
  696SOL    HW1 2087   1.872   0.182   1.740 -2.6032 -1.1894  1.5317
  696SOL    HW2 2088   1.961   0.136   1.876 -1.8471 -0.2773 -1.4223
  697SOL     OW 2089   1.625   0.291   1.997  0.1582 -0.2039 -0.5114
  697SOL    HW1 2090   1.565   0.237   2.061 -1.7922  1.1335  4.6819
  697SOL    HW2 2091   1.603   0.273   1.899 -1.8216  0.0080 -0.2419
  698SOL     OW 2092   1.676   1.333   2.600  0.5180 -0.2805 -0.5772
  698SOL    HW1 2093   1.634   1.257   2.657 -2.0887 -1.2368 -0.1020
  698SOL    HW2 2094   1.626   1.336   2.513  2.8548  0.7641  0.3638
  699SOL     OW 2095   1.724   1.175   0.749  0.5035 -0.0383  0.2067
  699SOL    HW1 2096   1.666   1.256   0.721 -1.1924 -0.5948  0.9403
  699SOL    HW2 2097   1.827   1.193   0.750 -0.8849 -1.3119  0.5350
  700SOL     OW 2098   1.587   2.890   0.291  0.1698 -0.1750 -0.3337
  700SOL    HW1 2099   1.606   2.788   0.308  2.6019  0.3422  1.0241
  700SOL    HW2 2100   1.584   2.942   0.378  1.6287  1.3166  1.3525
  701SOL     OW 2101   0.228   0.330   1.378  0.5279 -0.0914  0.3887
  701SOL    HW1 2102   0.263   0.423   1.399  1.8045  0.1767 -0.5225
  701SOL    HW2 2103   0.189   0.284   1.457  2.5245 -0.0584 -1.2849
  702SOL     OW 2104   1.720   3.050   1.488  0.1289  0.4506 -0.3079
  702SOL    HW1 2105   1.795   3.024   1.555  1.6394  0.6487  3.8625
  702SOL    HW2 2106   1.635   2.991   1.483  0.0787  2.0370  1.0651
  703SOL     OW 2107   2.597   0.219   1.987 -0.3016 -0.3712 -0.1271
  703SOL    HW1 2108   2.640   0.303   1.949  0.1201  3.3193  0.5286
  703SOL    HW2 2109   2.655   0.181   2.062 -1.0636 -3.4251 -0.8170
  704SOL     OW 2110   1.475   2.238   1.103  0.8255  0.2871  0.3733
  704SOL    HW1 2111   1.505   2.304   1.165 -1.3988 -1.3592 -1.7705
  704SOL    HW2 2112   1.409   2.282   1.040 -2.4031 -0.3557  0.2013
  705SOL     OW 2113   0.159   1.892   2.336 -0.1294 -0.3760 -0.0059
  705SOL    HW1 2114   0.227   1.958   2.372  1.3364 -2.2029 -0.8456
  705SOL    HW2 2115   0.164   1.798   2.382 -0.9440  0.0092  1.0132
  706SOL     OW 2116   2.254   0.228   2.935  0.4157 -0.6980 -0.1588
  706SOL    HW1 2117   2.269   0.286   2.852  1.0841  0.0484  1.3840
  706SOL    HW2 2118   2.154   0.224   2.952  1.3501  1.3211 -0.7773
  707SOL     OW 2119   1.591   2.791   2.437 -0.1946  0.5697 -0.6402
  707SOL    HW1 2120   1.660   2.813   2.366  0.4692 -1.9185 -0.2323
  707SOL    HW2 2121   1.546   2.703   2.410  1.5671 -2.0220  2.0409
  708SOL     OW 2122   0.611   2.213   1.358 -0.4639 -0.0320  0.3352
  708SOL    HW1 2123   0.562   2.299   1.324  1.5565 -1.3620 -1.9808
  708SOL    HW2 2124   0.714   2.219   1.347  0.4706 -2.3436  0.6636
  709SOL     OW 2125   2.609   0.776   1.873 -0.4917 -0.5181  0.7505
  709SOL    HW1 2126   2.650   0.839   1.940  0.0249 -0.6641 -1.8150
  709SOL    HW2 2127   2.678   0.726   1.820  0.0210 -1.0695  1.3276
  710SOL     OW 2128   2.941   0.402   1.629 -0.1556 -0.1460  0.3580
  710SOL    HW1 2129   2.865   0.472   1.612 -2.2628  0.6204  0.4153
  710SOL    HW2 2130   3.028   0.447   1.610  1.4064  0.6334 -0.1107
  711SOL     OW 2131   2.976   2.433   0.675  0.5596 -0.4545 -0.5455
  711SOL    HW1 2132   3.022   2.406   0.765  0.0295 -1.6406  3.2149
  711SOL    HW2 2133   3.030   2.479   0.608  0.7822  0.6927 -0.8032
  712SOL     OW 2134   0.376   0.014   2.359 -0.6058  0.0845 -0.1381
  712SOL    HW1 2135   0.427   0.042   2.445  0.9823  1.9222 -0.3779
  712SOL    HW2 2136   0.413   3.055   2.315 -4.0346  0.9190 -0.4926
  713SOL     OW 2137   2.259   0.512   0.315  0.3394 -0.1239  0.2643
  713SOL    HW1 2138   2.233   0.480   0.408 -0.7491 -1.7573  0.6115
  713SOL    HW2 2139   2.322   0.592   0.307 -1.1334 -2.1950  0.1278
  714SOL     OW 2140   1.610   1.739   0.011 -0.0193  0.2472  0.3818
  714SOL    HW1 2141   1.616   1.831   3.099  0.2781 -0.5206  1.8402
  714SOL    HW2 2142   1.523   1.686   3.117  2.9113 -3.3182 -1.1453
  715SOL     OW 2143   0.061   0.300   0.336 -0.1709 -0.5903 -0.1955
  715SOL    HW1 2144   0.086   0.325   0.243 -3.1985  1.5914  4.1310
  715SOL    HW2 2145   0.140   0.322   0.395 -0.8169 -0.2790 -0.4018
  716SOL     OW 2146   0.938   3.034   2.111 -0.1405 -0.2311 -0.1154
  716SOL    HW1 2147   1.041   3.029   2.131  2.7279 -2.6279  1.0284
  716SOL    HW2 2148   0.912   2.999   2.019  1.3675 -0.2912  0.3239
  717SOL     OW 2149   0.219   0.584   2.827 -0.5848 -0.0285  0.2283
  717SOL    HW1 2150   0.167   0.646   2.769 -0.0006  1.5194  0.6948
  717SOL    HW2 2151   0.185   0.488   2.801 -2.2525 -2.6532 -0.5048
  718SOL     OW 2152   1.483   0.594   0.348  0.2867  0.3826 -0.0563
  718SOL    HW1 2153   1.508   0.631   0.256 -0.5838 -3.1217  1.2078
  718SOL    HW2 2154   1.411   0.654   0.387  0.4774  0.0924  1.1292
  719SOL     OW 2155   2.589   2.166   2.896  0.0928  0.1687 -0.6013
  719SOL    HW1 2156   2.512   2.169   2.827 -0.9057 -2.1579  0.5459
  719SOL    HW2 2157   2.674   2.193   2.855 -2.2949 -0.9022 -0.3132
  720SOL     OW 2158   1.232   0.850   1.640  0.8352  0.5210 -0.6473
  720SOL    HW1 2159   1.265   0.878   1.549 -0.6690 -0.6549  0.8752
  720SOL    HW2 2160   1.239   0.750   1.653 -0.1363 -0.0914  1.2360
  721SOL     OW 2161   0.262   2.921   1.179 -0.0148  0.2561 -0.8665
  721SOL    HW1 2162   0.207   2.992   1.134  0.0313 -0.4797  0.7736
  721SOL    HW2 2163   0.295   2.851   1.111  1.5298  2.6711 -1.3766
  722SOL     OW 2164   1.016   1.854   2.765 -0.6530  0.3291  0.4871
  722SOL    HW1 2165   1.109   1.874   2.723  0.6656  1.3850  1.7679
  722SOL    HW2 2166   0.957   1.793   2.711  0.0332 -0.6369 -2.3512
  723SOL     OW 2167   1.761   0.235   0.591  0.1199  0.2830  0.6185
  723SOL    HW1 2168   1.777   0.278   0.501  2.3428  1.9166 -2.2692
  723SOL    HW2 2169   1.837   0.172   0.610 -3.6722  2.0964 -0.9316
  724SOL     OW 2170   0.665   2.027   2.866 -0.1407  0.3938  0.2565
  724SOL    HW1 2171   0.687   1.986   2.955 -1.7076  0.9823 -0.2988
  724SOL    HW2 2172   0.586   2.091   2.874  0.4442 -0.2857  0.4400
  725SOL     OW 2173   2.977   0.691   1.399  0.1418  0.0897  0.7646
  725SOL    HW1 2174   2.951   0.686   1.303  2.9185  1.8743 -2.9064
  725SOL    HW2 2175   3.067   0.737   1.395  0.5560 -0.9431 -1.4252
  726SOL     OW 2176   1.940   0.039   0.727 -0.2823 -0.4167  0.2517
  726SOL    HW1 2177   1.974   3.086   0.677 -1.7817  2.1302  0.3881
  726SOL    HW2 2178   2.020   0.091   0.768  1.5449 -1.0515 -0.5800
  727SOL     OW 2179   1.956   1.168   2.127  0.1475  0.3448 -0.1239
  727SOL    HW1 2180   1.918   1.078   2.147  1.3923  0.7167  0.2414
  727SOL    HW2 2181   2.002   1.202   2.206 -1.0569 -1.3414 -1.1158
  728SOL     OW 2182   1.510   2.845   1.377 -0.0464 -0.4124  0.3759
  728SOL    HW1 2183   1.416   2.818   1.384  1.6900 -0.2435  0.1305
  728SOL    HW2 2184   1.542   2.874   1.287 -0.9999 -0.5217 -0.2271
  729SOL     OW 2185   1.854   0.427   1.956 -0.0154 -0.3690 -0.0632
  729SOL    HW1 2186   1.837   0.530   1.961  0.6279 -0.3538  2.5038
  729SOL    HW2 2187   1.775   0.376   1.985  2.4398  3.1392 -0.7340
  730SOL     OW 2188   0.599   0.782   1.349 -0.6943  0.2033  0.2411
  730SOL    HW1 2189   0.548   0.710   1.303 -1.1573  1.9528 -1.6007
  730SOL    HW2 2190   0.644   0.847   1.284  1.0838  1.6252 -0.7085
  731SOL     OW 2191   0.306   3.122   0.255  0.3739  0.3247  0.0925
  731SOL    HW1 2192   0.214   0.013   0.286  2.6562 -0.1218  0.2478
  731SOL    HW2 2193   0.358   3.069   0.321  0.8611  0.8678 -2.6914
  732SOL     OW 2194   0.784   0.697   0.441  0.2883  0.6011  0.1468
  732SOL    HW1 2195   0.733   0.623   0.490 -1.0443 -2.7131  1.6916
  732SOL    HW2 2196   0.727   0.782   0.443 -0.5300 -1.1614  0.0798
  733SOL     OW 2197   1.493   1.403   2.411 -0.1138  0.0790  0.0693
  733SOL    HW1 2198   1.515   1.496   2.372  0.2540 -1.4623  0.8090
  733SOL    HW2 2199   1.455   1.345   2.336 -0.3677  1.8470  2.5497
  734SOL     OW 2200   3.083   2.236   2.143  0.4252 -0.0731 -0.0193
  734SOL    HW1 2201   3.122   2.231   2.047 -0.7182 -2.2691 -0.3852
  734SOL    HW2 2202   2.983   2.229   2.140  0.0000 -0.1887  0.0063
  735SOL     OW 2203   1.839   0.210   1.051 -0.5273  0.0546 -0.5610
  735SOL    HW1 2204   1.910   0.181   0.989 -1.6856  1.2528  0.7088
  735SOL    HW2 2205   1.825   0.145   1.134  2.5695 -2.5761 -0.1652
  736SOL     OW 2206   0.962   1.296   3.108  0.0537  0.5211  0.5842
  736SOL    HW1 2207   0.936   1.393   3.105 -1.2325 -1.8245  0.1161
  736SOL    HW2 2208   1.017   1.274   0.060 -1.0255  1.0724  1.6304
  737SOL     OW 2209   2.957   0.256   0.463 -0.6686 -1.0342  0.6267
  737SOL    HW1 2210   3.036   0.272   0.403 -2.5379 -0.2502  0.3134
  737SOL    HW2 2211   2.955   0.169   0.512  0.8191  0.3434  1.4347
  738SOL     OW 2212   0.411   2.179   1.551  0.4042  0.4839  0.1964
  738SOL    HW1 2213   0.328   2.237   1.537  1.5473  0.8746  2.0360
  738SOL    HW2 2214   0.486   2.197   1.482 -2.5424 -1.0180  0.7570
  739SOL     OW 2215   1.004   2.617   3.078 -0.0946 -0.4109 -0.2301
  739SOL    HW1 2216   1.090   2.632   3.125 -1.9859 -0.3354 -1.7384
  739SOL    HW2 2217   1.024   2.563   2.994  1.9548  0.8892  0.1283
  740SOL     OW 2218   1.732   2.739   1.469  0.5191 -0.0453 -0.4834
  740SOL    HW1 2219   1.651   2.777   1.421 -1.4331 -0.7452  1.5366
  740SOL    HW2 2220   1.731   2.636   1.470  0.3618  1.3720  1.9914
  741SOL     OW 2221   2.154   0.659   0.639  0.4857  0.7287 -0.0389
  741SOL    HW1 2222   2.253   0.691   0.622  0.1868  0.3456 -0.9073
  741SOL    HW2 2223   2.097   0.680   0.558  2.6430 -1.9933  0.0727
  742SOL     OW 2224   1.000   2.297   2.385 -0.1181 -0.3686 -0.2710
  742SOL    HW1 2225   1.026   2.265   2.474 -1.5446  1.6989  1.3844
  742SOL    HW2 2226   0.895   2.286   2.375 -2.6652 -3.4372  1.0054
  743SOL     OW 2227   2.491   1.031   1.820 -0.1784 -0.0963 -0.1090
  743SOL    HW1 2228   2.393   1.021   1.841  1.6499 -1.3651 -0.7820
  743SOL    HW2 2229   2.535   0.937   1.831 -0.7828 -2.9042 -0.5439
  744SOL     OW 2230   2.451   0.336   0.881 -0.0077  0.1740  0.1627
  744SOL    HW1 2231   2.457   0.394   0.793 -1.0706  2.8151 -0.9675
  744SOL    HW2 2232   2.471   0.406   0.954 -0.4050 -0.0122  1.9308
  745SOL     OW 2233   2.300   1.297   1.933  0.6692 -0.0976 -0.3605
  745SOL    HW1 2234   2.289   1.377   1.872 -1.4009 -0.9171 -0.3324
  745SOL    HW2 2235   2.374   1.238   1.903 -0.4587  2.4264 -0.2516
  746SOL     OW 2236   1.333   1.685   0.420  0.3745 -0.2501  0.4475
  746SOL    HW1 2237   1.383   1.771   0.449 -1.0930  1.0867  0.1746
  746SOL    HW2 2238   1.300   1.629   0.501 -0.0363 -2.4555 -0.8847
  747SOL     OW 2239   1.695   1.855   1.253  0.2011  0.0799 -0.8271
  747SOL    HW1 2240   1.638   1.828   1.174 -1.0738 -1.8150 -1.0334
  747SOL    HW2 2241   1.679   1.781   1.323 -1.0639  0.7681 -0.9856
  748SOL     OW 2242   0.377   2.753   0.136  0.1138 -0.2873  0.2462
  748SOL    HW1 2243   0.468   2.792   0.150 -1.8576 -3.1591 -0.1840
  748SOL    HW2 2244   0.327   2.808   0.065 -1.3927  0.2078 -0.1032
  749SOL     OW 2245   0.278   1.114   2.459 -0.9402 -0.1518  0.0159
  749SOL    HW1 2246   0.307   1.020   2.425  0.1719  1.3168  0.5242
  749SOL    HW2 2247   0.179   1.113   2.467  2.3517  0.5324  0.5675
  750SOL     OW 2248   1.393   2.900   2.005  0.2656 -0.3665  0.4552
  750SOL    HW1 2249   1.480   2.849   2.019 -2.7862  2.0858  1.2992
  750SOL    HW2 2250   1.402   2.967   1.927 -0.5022 -1.0368 -2.6528
  751SOL     OW 2251   2.824   0.618   0.292 -0.3638 -0.0678  0.3159
  751SOL    HW1 2252   2.726   0.590   0.266 -1.7565 -1.1632  1.3960
  751SOL    HW2 2253   2.848   0.568   0.375 -0.4035 -1.3031 -2.0665
  752SOL     OW 2254   0.188   2.186   0.682  0.2980 -0.0879 -0.0854
  752SOL    HW1 2255   0.226   2.130   0.603  1.9133  0.6924 -1.0708
  752SOL    HW2 2256   0.142   2.126   0.750  2.0863  1.0098 -0.4955
  753SOL     OW 2257   1.026   3.104   0.846 -0.1397 -1.0800 -0.8548
  753SOL    HW1 2258   1.106   3.044   0.828 -0.0961  1.2229  1.6683
  753SOL    HW2 2259   0.941   3.052   0.857 -3.1594 -0.2358 -0.0317
  754SOL     OW 2260   0.536   0.125   2.123  0.6496  0.0158  0.0538
  754SOL    HW1 2261   0.483   0.210   2.105  2.3025 -0.9689  1.3210
  754SOL    HW2 2262   0.489   0.058   2.182  2.4478  1.1964  0.4382
  755SOL     OW 2263   1.768   1.110   0.005  0.4019 -0.5508  0.5543
  755SOL    HW1 2264   1.709   1.193   0.001 -0.3790 -1.8211  0.0703
  755SOL    HW2 2265   1.738   1.049   0.078 -0.4637 -0.7798 -3.2917
  756SOL     OW 2266   2.298   2.456   2.752  0.8759  0.5825  0.0632
  756SOL    HW1 2267   2.335   2.360   2.750  0.4985 -1.1559 -1.3751
  756SOL    HW2 2268   2.359   2.508   2.816  2.0315  2.7478  1.0243
  757SOL     OW 2269   1.913   0.832   0.466  0.4393 -0.2293 -0.1239
  757SOL    HW1 2270   1.939   0.844   0.369 -0.4750  0.5703 -3.5797
  757SOL    HW2 2271   1.829   0.771   0.465 -1.3128  0.6443 -0.4498
  758SOL     OW 2272   2.301   0.635   1.055  0.0717  0.7840 -0.1132
  758SOL    HW1 2273   2.255   0.570   0.984 -2.5239 -1.8025 -2.2991
  758SOL    HW2 2274   2.322   0.727   1.006 -0.1545 -1.0675 -0.7961
  759SOL     OW 2275   2.765   0.509   1.111  0.2886  0.3147  0.4749
  759SOL    HW1 2276   2.667   0.493   1.127  1.7230  1.1869 -0.5670
  759SOL    HW2 2277   2.786   0.541   1.017  0.0035 -1.3647 -1.3030
  760SOL     OW 2278   2.361   1.400   1.352 -0.1596 -0.3164  1.0500
  760SOL    HW1 2279   2.271   1.434   1.303 -5.0885  0.5007 -0.5381
  760SOL    HW2 2280   2.387   1.307   1.315 -0.7671  1.7397  0.2306
  761SOL     OW 2281   0.531   0.352   0.409 -0.3611  0.1167  0.1308
  761SOL    HW1 2282   0.573   0.421   0.468 -0.1643  0.9911  0.6405
  761SOL    HW2 2283   0.431   0.330   0.431 -3.8915 -0.2364 -3.8340
  762SOL     OW 2284   1.135   2.029   1.235  0.0368 -0.0345 -0.0991
  762SOL    HW1 2285   1.120   2.039   1.134 -0.6522 -1.1360  1.6375
  762SOL    HW2 2286   1.070   1.958   1.273 -0.7141  0.8949  0.7742
  763SOL     OW 2287   1.429   1.175   1.893  0.3710 -0.0563  0.3105
  763SOL    HW1 2288   1.404   1.236   1.972  1.0584  2.3487  2.6619
  763SOL    HW2 2289   1.529   1.186   1.879  1.7238  2.1157 -0.4170
  764SOL     OW 2290   3.077   1.795   2.631 -0.1872  0.2444  0.4571
  764SOL    HW1 2291   3.071   1.882   2.583 -2.0879 -1.6910  1.6308
  764SOL    HW2 2292   3.083   1.798   2.733 -0.2516 -1.4487 -1.4279
  765SOL     OW 2293   1.319   2.599   1.222 -0.0058 -0.6302  0.0805
  765SOL    HW1 2294   1.398   2.541   1.245  2.2435 -0.1539 -1.1114
  765SOL    HW2 2295   1.261   2.555   1.154  1.1704 -0.2703 -0.2182
  766SOL     OW 2296   2.820   2.276   2.363  0.1961  0.1606 -0.4218
  766SOL    HW1 2297   2.783   2.361   2.410  1.3114  2.9427 -0.8014
  766SOL    HW2 2298   2.857   2.200   2.426  0.6266  1.3757  1.2688
  767SOL     OW 2299   1.024   0.981   2.391 -0.2817 -0.3148  0.1557
  767SOL    HW1 2300   1.027   0.939   2.480  0.1290  3.2124 -2.6377
  767SOL    HW2 2301   1.094   1.051   2.377 -0.7839 -1.5919  1.4855
  768SOL     OW 2302   1.111   2.272   3.060  0.8542  0.5637  0.4466
  768SOL    HW1 2303   1.153   2.254   0.026 -0.0205  1.5168  1.7122
  768SOL    HW2 2304   1.008   2.292   3.064 -3.0518 -1.1408  1.0769
  769SOL     OW 2305   0.385   2.308   0.864  0.0803  0.2757  0.6045
  769SOL    HW1 2306   0.403   2.234   0.926 -0.7969 -1.0397 -1.5497
  769SOL    HW2 2307   0.301   2.284   0.810  0.5027  0.7773  0.3652
  770SOL     OW 2308   1.448   0.892   2.520  0.4398  0.5519 -0.6807
  770SOL    HW1 2309   1.462   0.829   2.599 -3.4024 -0.0170 -0.0307
  770SOL    HW2 2310   1.370   0.956   2.546 -2.8544 -0.3228 -2.8892
  771SOL     OW 2311   0.082   2.923   2.063 -0.3085 -0.3297 -0.4290
  771SOL    HW1 2312   0.174   2.881   2.073 -1.6543  0.2071  2.2476
  771SOL    HW2 2313   0.010   2.857   2.087 -1.1994  0.6653  0.3970
  772SOL     OW 2314   2.192   2.825   1.898  0.4255 -0.4394  0.4260
  772SOL    HW1 2315   2.274   2.832   1.958  1.1225  1.6609 -3.2987
  772SOL    HW2 2316   2.174   2.908   1.840  1.8741 -1.3067 -0.8002
  773SOL     OW 2317   0.913   1.870   1.647  0.0491  0.8164  0.0965
  773SOL    HW1 2318   0.908   1.963   1.605  0.5548 -1.0287 -2.4343
  773SOL    HW2 2319   0.907   1.870   1.748 -2.5078  1.0402 -2.4763
  774SOL     OW 2320   1.053   0.236   1.766 -0.4950  0.3550  0.2761
  774SOL    HW1 2321   1.094   0.271   1.853 -0.4160  0.1249 -1.1606
  774SOL    HW2 2322   0.961   0.194   1.777  0.8286 -1.6968 -0.7866
  775SOL     OW 2323   1.909   3.117   0.030  0.4872 -0.4251  0.3319
  775SOL    HW1 2324   1.948   0.082   0.047 -2.7261  0.9135  2.5159
  775SOL    HW2 2325   1.974   3.052   3.125 -0.7739  0.7915  1.4026
  776SOL     OW 2326   2.990   0.667   2.275  0.3647 -0.2358 -0.2426
  776SOL    HW1 2327   2.977   0.726   2.356 -0.1752  0.5168 -0.1966
  776SOL    HW2 2328   2.907   0.645   2.213 -2.0038 -2.6282 -0.1322
  777SOL     OW 2329   2.459   2.179   2.185  0.2687 -0.6705  0.6811
  777SOL    HW1 2330   2.362   2.181   2.150 -0.9418  1.4780 -0.1255
  777SOL    HW2 2331   2.519   2.242   2.127 -1.1059  0.3949 -1.2567
  778SOL     OW 2332   1.839   0.960   2.234  0.4350 -0.7827 -0.4917
  778SOL    HW1 2333   1.838   0.857   2.244 -1.6530 -2.1405  1.5591
  778SOL    HW2 2334   1.749   1.004   2.266 -0.1996  1.9856  1.0060
  779SOL     OW 2335   2.497   0.495   0.653 -0.1787 -0.2933  0.1107
  779SOL    HW1 2336   2.505   0.410   0.591  2.0525 -1.7242  1.0844
  779SOL    HW2 2337   2.454   0.576   0.604  1.0146  0.2017  0.1592
  780SOL     OW 2338   2.435   0.212   3.127  0.1988  0.2524 -0.0393
  780SOL    HW1 2339   2.498   0.150   3.085 -1.9964  1.9123  1.5620
  780SOL    HW2 2340   2.354   0.220   3.070  4.8562 -1.6286  2.3586
  781SOL     OW 2341   0.176   2.347   1.451 -0.0495 -0.0261  0.3369
  781SOL    HW1 2342   0.212   2.280   1.382 -1.4419 -1.3280 -0.7672
  781SOL    HW2 2343   0.077   2.334   1.447  2.2963  0.2963 -2.5401
  782SOL     OW 2344   2.459   2.563   2.940 -0.4830 -0.2917 -0.1282
  782SOL    HW1 2345   2.454   2.659   2.969  0.2339  1.6152 -1.6049
  782SOL    HW2 2346   2.444   2.513   3.029 -0.6397  0.5491 -0.5879
  783SOL     OW 2347   0.709   1.557   1.350  0.0123 -0.5398 -0.1894
  783SOL    HW1 2348   0.644   1.490   1.390  1.6939  4.0895  1.8350
  783SOL    HW2 2349   0.785   1.580   1.409 -0.2089 -1.5825 -0.6776
  784SOL     OW 2350   1.434   0.719   2.782  0.2660 -0.1392 -0.5081
  784SOL    HW1 2351   1.521   0.692   2.826  2.0461  0.8893 -0.2197
  784SOL    HW2 2352   1.368   0.713   2.859  0.8752 -0.9630 -0.2377
  785SOL     OW 2353   2.450   3.063   0.983 -0.4315  0.3330 -0.3495
  785SOL    HW1 2354   2.430   2.974   1.026  0.9073  1.9284  0.0228
  785SOL    HW2 2355   2.448   0.007   1.053 -1.2016  2.0000 -0.0099
  786SOL     OW 2356   1.266   2.046   2.049 -0.1309  0.2375  0.2941
  786SOL    HW1 2357   1.239   1.951   2.037 -1.6410  0.9530 -2.0122
  786SOL    HW2 2358   1.205   2.099   2.110 -0.0866 -0.2834 -2.6029
  787SOL     OW 2359   1.435   0.679   1.176  0.3912  0.2840 -0.1926
  787SOL    HW1 2360   1.391   0.767   1.146 -0.3254  1.3452 -1.1354
  787SOL    HW2 2361   1.476   0.627   1.100 -0.0270 -1.1773  0.5786
  788SOL     OW 2362   0.168   0.687   0.517  0.5619  0.3028  0.0897
  788SOL    HW1 2363   0.203   0.671   0.612 -0.6962 -0.6285  0.0726
  788SOL    HW2 2364   0.244   0.674   0.453 -2.1219  2.8323 -0.6720
  789SOL     OW 2365   0.235   2.156   1.276 -0.5116 -0.5306 -0.2773
  789SOL    HW1 2366   0.308   2.143   1.211 -1.3296 -3.1927  4.3592
  789SOL    HW2 2367   0.229   2.069   1.333 -2.6191 -1.5889 -0.3254
  790SOL     OW 2368   1.042   0.552   2.475 -0.2763 -0.0761 -0.3130
  790SOL    HW1 2369   1.090   0.464   2.466 -1.8622  2.3650 -1.1586
  790SOL    HW2 2370   1.008   0.582   2.385  0.7072 -1.8227 -0.7511
  791SOL     OW 2371   1.901   0.575   0.992  0.5344  0.2229  0.2182
  791SOL    HW1 2372   1.823   0.633   0.968 -0.3732 -0.7864  0.4600
  791SOL    HW2 2373   1.906   0.546   1.093  0.7457  0.8412 -1.5071
  792SOL     OW 2374   1.330   2.466   2.146 -0.0049 -0.1713  0.2168
  792SOL    HW1 2375   1.308   2.538   2.079  1.2376  0.0101 -2.1490
  792SOL    HW2 2376   1.247   2.407   2.156 -0.3768  0.3225 -0.5174
  793SOL     OW 2377   1.281   0.751   0.447  0.0801 -0.2722  0.5073
  793SOL    HW1 2378   1.269   0.805   0.357  1.5277 -2.6031 -2.9644
  793SOL    HW2 2379   1.195   0.717   0.481  2.5015  1.0154 -0.5231
  794SOL     OW 2380   0.557   1.089   1.944 -0.4150 -0.3766 -0.2140
  794SOL    HW1 2381   0.515   1.175   1.983 -3.5338  1.5703  0.5628
  794SOL    HW2 2382   0.658   1.095   1.967 -0.7624  1.3142  1.3968
  795SOL     OW 2383   0.299   2.083   2.491 -0.3082  0.6379  0.0636
  795SOL    HW1 2384   0.402   2.078   2.489  0.6468  0.3150  0.0237
  795SOL    HW2 2385   0.264   2.068   2.586  1.1637  0.7815 -3.3005
  796SOL     OW 2386   2.596   0.847   2.249  0.4166  0.0993  0.5702
  796SOL    HW1 2387   2.499   0.870   2.265 -0.3376  3.2490 -0.5224
  796SOL    HW2 2388   2.641   0.895   2.166 -0.5362  0.8165 -2.4482
  797SOL     OW 2389   2.870   2.272   2.869  0.1678  0.3938  0.2093
  797SOL    HW1 2390   2.811   2.348   2.840 -0.1448 -3.9729 -1.6743
  797SOL    HW2 2391   2.913   2.302   2.954 -1.6625 -3.4852 -1.8508
  798SOL     OW 2392   0.259   2.510   2.154  0.1744 -0.3759 -0.1299
  798SOL    HW1 2393   0.212   2.540   2.066  0.3451  1.4936 -1.8111
  798SOL    HW2 2394   0.195   2.460   2.217 -0.6730  0.6141  1.3739
  799SOL     OW 2395   0.448   2.206   2.867  0.5553 -0.8967 -0.6010
  799SOL    HW1 2396   0.383   2.133   2.843  1.0426 -0.6320  3.1435
  799SOL    HW2 2397   0.409   2.269   2.934  0.1875 -0.3397 -0.9594
  800SOL     OW 2398   0.674   2.195   0.103  0.2505 -0.8891 -0.3319
  800SOL    HW1 2399   0.576   2.166   0.106  1.3811  1.6420  2.4408
  800SOL    HW2 2400   0.725   2.114   0.068 -3.4386  0.3834  0.9406
  801SOL     OW 2401   1.659   1.467   1.101  0.0615 -0.2250  0.4131
  801SOL    HW1 2402   1.634   1.368   1.119 -2.2543 -1.6967 -0.4085
  801SOL    HW2 2403   1.636   1.513   1.187 -1.1103  0.8400 -0.3452
  802SOL     OW 2404   2.954   1.174   0.667 -0.7506 -0.1265  0.1794
  802SOL    HW1 2405   2.949   1.198   0.567  0.2540 -1.0251  1.3235
  802SOL    HW2 2406   3.021   1.097   0.675 -1.9933 -0.3464 -1.6490
  803SOL     OW 2407   1.178   1.966   2.317  0.2374  0.0063 -0.3076
  803SOL    HW1 2408   1.221   2.023   2.393  0.8156 -0.7220  2.1602
  803SOL    HW2 2409   1.077   1.964   2.331  0.8199 -0.1167  3.1946
  804SOL     OW 2410   1.647   1.503   0.207  0.3715 -0.2559  0.1523
  804SOL    HW1 2411   1.591   1.585   0.197  4.4563  0.3118 -1.6793
  804SOL    HW2 2412   1.728   1.527   0.259 -1.8939  0.6626 -2.6103
  805SOL     OW 2413   2.683   1.537   0.127  0.1451 -0.1115 -0.0582
  805SOL    HW1 2414   2.633   1.551   0.217 -4.7051  3.5497  0.1645
  805SOL    HW2 2415   2.604   1.535   0.062 -3.0987  2.1416 -1.2834
  806SOL     OW 2416   0.428   3.023   0.480 -0.3058 -0.1258 -0.7582
  806SOL    HW1 2417   0.469   2.934   0.501 -1.4561 -0.1563  0.2590
  806SOL    HW2 2418   0.335   3.024   0.523 -0.5777 -3.6075  0.4844
  807SOL     OW 2419   1.979   1.662   2.848 -0.0165  0.2810 -0.1474
  807SOL    HW1 2420   1.916   1.715   2.906 -2.0077  1.2506 -1.0910
  807SOL    HW2 2421   1.993   1.568   2.890 -0.9764  0.1684 -1.9770
  808SOL     OW 2422   0.684   1.613   0.979 -0.0135 -0.1809 -0.1428
  808SOL    HW1 2423   0.667   1.531   1.033  1.2458 -0.1269 -0.5764
  808SOL    HW2 2424   0.601   1.631   0.917  0.7824 -0.2204 -2.0050
  809SOL     OW 2425   2.415   0.729   0.541  0.5760 -0.1376  0.0251
  809SOL    HW1 2426   2.407   0.817   0.592  0.4382 -0.6227  0.0889
  809SOL    HW2 2427   2.442   0.748   0.444 -0.2627  1.0725 -1.9287
  810SOL     OW 2428   0.789   1.062   0.512  0.1095 -0.5527  0.1418
  810SOL    HW1 2429   0.846   1.003   0.569 -1.7442 -2.6045 -3.8170
  810SOL    HW2 2430   0.817   1.160   0.533  1.2687  1.4794 -1.1816
  811SOL     OW 2431   1.529   2.427   1.280  0.2984 -0.3147 -0.0507
  811SOL    HW1 2432   1.631   2.438   1.263  0.6651 -2.2634 -2.5040
  811SOL    HW2 2433   1.507   2.397   1.375  0.8406  0.0993  4.0599
  812SOL     OW 2434   1.129   2.690   1.689 -0.2259 -0.2487  0.1933
  812SOL    HW1 2435   1.182   2.650   1.768 -2.5661  0.5261 -0.1839
  812SOL    HW2 2436   1.028   2.684   1.712 -0.2317  0.6806 -0.0988
  813SOL     OW 2437   0.829   2.912   1.867 -0.1063 -0.4895  0.0842
  813SOL    HW1 2438   0.745   2.971   1.873  2.5789 -0.1481 -1.7067
  813SOL    HW2 2439   0.878   2.933   1.778 -1.0561 -0.3963 -0.1331
  814SOL     OW 2440   0.728   2.331   2.380  0.0948  0.1676 -0.0696
  814SOL    HW1 2441   0.670   2.360   2.299  0.6494 -1.0215  0.4998
  814SOL    HW2 2442   0.685   2.341   2.470 -1.3696  0.4380  1.0537
  815SOL     OW 2443   0.626   0.299   2.492 -0.3089 -0.2070  0.2528
  815SOL    HW1 2444   0.696   0.226   2.468 -1.1808  2.8732  0.7893
  815SOL    HW2 2445   0.677   0.374   2.537  5.1713 -0.9279 -2.8712
  816SOL     OW 2446   2.285   3.128   2.747  0.9401  0.0602  0.5301
  816SOL    HW1 2447   2.205   3.064   2.740  0.0699  0.4280  1.2004
  816SOL    HW2 2448   2.273   0.066   2.824  1.1354 -1.7174 -1.3685
  817SOL     OW 2449   2.016   0.185   2.040  0.0071  0.3302 -0.3756
  817SOL    HW1 2450   2.106   0.166   1.993 -0.0153  0.9257  0.7825
  817SOL    HW2 2451   2.005   0.284   2.059 -2.0062 -0.6771  1.3469
  818SOL     OW 2452   1.528   0.661   0.105  0.0678 -0.2603  1.0263
  818SOL    HW1 2453   1.461   0.686   0.030  0.4060  0.4194  0.4710
  818SOL    HW2 2454   1.598   0.598   0.065  0.4589 -0.9275  0.3727
  819SOL     OW 2455   1.882   1.545   2.602 -0.4859 -0.0476  0.0586
  819SOL    HW1 2456   1.806   1.479   2.621 -0.6009 -1.0852 -2.2644
  819SOL    HW2 2457   1.911   1.590   2.689 -0.5044  0.5688  2.0054
  820SOL     OW 2458   0.156   1.647   0.091  0.0525  0.2115 -0.5377
  820SOL    HW1 2459   0.109   1.597   0.012 -1.0794  0.0639 -0.2540
  820SOL    HW2 2460   0.251   1.608   0.091  0.9126 -0.3901  2.2599
  821SOL     OW 2461   0.155   3.025   0.842  0.8135 -0.1703 -0.1733
  821SOL    HW1 2462   0.110   3.100   0.791 -1.0602  1.0552  0.2620
  821SOL    HW2 2463   0.133   2.931   0.797  0.6788 -3.7544 -0.8104
  822SOL     OW 2464   2.705   2.495   2.810  0.2479 -0.0899  0.2602
  822SOL    HW1 2465   2.631   2.530   2.871 -0.9851 -1.9160 -1.1482
  822SOL    HW2 2466   2.781   2.562   2.793  1.2382  0.1028 -0.9095
  823SOL     OW 2467   1.277   0.142   2.163  0.3450 -0.3205  0.5711
  823SOL    HW1 2468   1.247   0.045   2.178  0.2465 -0.1139 -0.3707
  823SOL    HW2 2469   1.375   0.144   2.129  1.7688  0.1191 -0.3093
  824SOL     OW 2470   2.809   2.258   2.086  0.2859 -0.2936 -0.0501
  824SOL    HW1 2471   2.799   2.246   2.188  1.0180 -1.6408 -1.6752
  824SOL    HW2 2472   2.718   2.297   2.054 -2.8021 -1.3942  1.7044
  825SOL     OW 2473   2.917   2.039   2.505  0.3304  0.3437  0.0836
  825SOL    HW1 2474   2.823   2.004   2.524  2.4489  3.1335 -0.2694
  825SOL    HW2 2475   2.948   1.977   2.426  1.6814 -1.5516 -1.5839
  826SOL     OW 2476   2.205   0.890   2.482  0.1205 -0.4458 -0.0330
  826SOL    HW1 2477   2.159   0.813   2.430  0.7656  0.0086  0.6371
  826SOL    HW2 2478   2.140   0.965   2.493 -0.8106 -1.1563 -0.6459
  827SOL     OW 2479   2.591   2.250   1.348 -0.1518 -0.2408  0.0315
  827SOL    HW1 2480   2.557   2.222   1.258 -0.2652  3.9910  4.3632
  827SOL    HW2 2481   2.514   2.274   1.413 -0.6927 -0.8437  0.6558
  828SOL     OW 2482   0.185   0.179   1.614 -0.4226  0.3077 -0.8290
  828SOL    HW1 2483   0.258   0.108   1.609 -1.3112  0.5468 -0.2891
  828SOL    HW2 2484   0.191   0.237   1.700 -0.6733  0.0248  0.7374
  829SOL     OW 2485   1.030   2.264   2.656  0.3232 -0.0574 -0.1241
  829SOL    HW1 2486   1.123   2.282   2.700  2.8700  0.2601 -0.9259
  829SOL    HW2 2487   0.952   2.243   2.717  1.1023 -0.5406 -0.0668
  830SOL     OW 2488   0.940   0.664   0.835 -0.2379 -0.1519  0.3665
  830SOL    HW1 2489   0.971   0.573   0.876 -1.2041  0.7936 -0.4052
  830SOL    HW2 2490   0.973   0.675   0.741 -2.4821  0.0271  0.6047
  831SOL     OW 2491   2.887   1.478   3.071  0.3202  0.1933 -0.5896
  831SOL    HW1 2492   2.810   1.491   0.008 -2.2785  0.6636  0.1370
  831SOL    HW2 2493   2.916   1.379   3.074  0.7891 -1.2681  0.8788
  832SOL     OW 2494   1.859   2.313   2.276  0.1272 -0.1311 -0.1182
  832SOL    HW1 2495   1.782   2.251   2.289  1.1399 -0.7919  0.3960
  832SOL    HW2 2496   1.847   2.364   2.190  0.0919 -0.4827  1.7609
  833SOL     OW 2497   0.945   0.356   2.254 -0.0395  0.8282  0.2055
  833SOL    HW1 2498   1.027   0.330   2.312  1.1567 -0.8193  0.2651
  833SOL    HW2 2499   0.900   0.270   2.223  0.0463 -1.5324 -3.0068
  834SOL     OW 2500   0.100   0.403   1.150 -0.5626  0.3916  0.2464
  834SOL    HW1 2501   0.006   0.410   1.187  3.5923 -0.1768  0.8599
  834SOL    HW2 2502   0.161   0.358   1.218  1.2451 -0.0429  0.3673
  835SOL     OW 2503   2.574   0.523   0.180  0.1620  0.0271 -0.3118
  835SOL    HW1 2504   2.577   0.501   0.079 -2.0777 -2.0464 -1.2436
  835SOL    HW2 2505   2.582   0.439   0.234 -0.1606  2.0501  0.3274
  836SOL     OW 2506   1.339   1.868   0.096  0.0688  0.3600  0.2897
  836SOL    HW1 2507   1.411   1.859   0.168  1.3279  0.7062  3.4056
  836SOL    HW2 2508   1.344   1.784   0.038 -0.6507 -0.7568 -1.6778
  837SOL     OW 2509   1.612   1.715   0.693 -0.2088 -0.0414  0.3560
  837SOL    HW1 2510   1.568   1.655   0.764  0.8033  1.1147 -2.4401
  837SOL    HW2 2511   1.715   1.713   0.696 -0.4495 -0.0039 -0.8641
  838SOL     OW 2512   1.452   0.953   2.058  0.1523  0.2998 -0.5910
  838SOL    HW1 2513   1.461   1.032   1.999 -1.8692 -1.9467 -0.2516
  838SOL    HW2 2514   1.352   0.928   2.057 -2.6797 -0.8576 -0.2421
  839SOL     OW 2515   0.844   1.645   2.626 -0.2829  0.0729  0.0028
  839SOL    HW1 2516   0.763   1.710   2.623 -0.3570  1.6920  0.2078
  839SOL    HW2 2517   0.814   1.553   2.665  0.3780  1.7315 -0.7927
  840SOL     OW 2518   0.619   2.354   0.700  0.1112  0.0202  0.6282
  840SOL    HW1 2519   0.693   2.424   0.708  0.6110 -0.4353  0.2643
  840SOL    HW2 2520   0.588   2.319   0.792 -0.4229 -1.0857  1.6763
  841SOL     OW 2521   1.844   2.636   0.163  0.0510  0.5369  0.6241
  841SOL    HW1 2522   1.843   2.741   0.157 -0.8613 -2.6483 -0.6145
  841SOL    HW2 2523   1.820   2.611   0.069 -3.8116  1.5253  0.6870
  842SOL     OW 2524   0.476   0.624   2.926 -0.1428 -0.0509 -0.0635
  842SOL    HW1 2525   0.551   0.639   2.853  0.0871 -0.8854 -1.1508
  842SOL    HW2 2526   0.384   0.616   2.893  0.5327 -2.6315 -1.1614
  843SOL     OW 2527   1.336   0.370   0.772 -0.0899 -0.6373 -0.1091
  843SOL    HW1 2528   1.275   0.369   0.689  1.4833 -0.7865  0.9954
  843SOL    HW2 2529   1.361   0.463   0.802 -0.9592  2.0930  1.5156
  844SOL     OW 2530   2.937   0.001   2.663  0.0829 -0.2924 -0.6666
  844SOL    HW1 2531   2.848   0.007   2.615 -0.4817 -0.1104 -0.4781
  844SOL    HW2 2532   2.997   3.057   2.633 -2.2962  0.2317 -0.0595
  845SOL     OW 2533   2.803   2.125   1.466  0.0237 -0.1038 -0.3999
  845SOL    HW1 2534   2.722   2.169   1.417 -0.7119 -2.8995 -1.4055
  845SOL    HW2 2535   2.805   2.138   1.569 -1.6807 -1.0140  2.0464
  846SOL     OW 2536   2.566   1.551   2.375 -0.1050  1.2273 -0.2793
  846SOL    HW1 2537   2.565   1.525   2.474  1.0217 -2.3710 -0.8603
  846SOL    HW2 2538   2.605   1.474   2.320 -1.8012  1.2706 -1.9291
  847SOL     OW 2539   1.268   0.583   1.644  0.0756  0.4964  0.1535
  847SOL    HW1 2540   1.285   0.572   1.747 -1.0944  1.2359  0.7573
  847SOL    HW2 2541   1.184   0.527   1.613 -0.4974  0.5706 -0.5016
  848SOL     OW 2542   2.731   2.891   0.096  0.3056  0.0584  0.1320
  848SOL    HW1 2543   2.689   2.842   0.179 -0.5625  1.2074  1.4903
  848SOL    HW2 2544   2.800   2.958   0.127  0.6506  2.3576  2.6986
  849SOL     OW 2545   0.516   0.019   0.076 -0.3288 -0.0685 -0.0190
  849SOL    HW1 2546   0.432   0.009   0.135 -0.5736  0.3457  1.7855
  849SOL    HW2 2547   0.557   0.111   0.090  0.0211  0.6623  0.6470
  850SOL     OW 2548   1.589   2.850   1.111  0.5769  0.0122 -0.2957
  850SOL    HW1 2549   1.688   2.845   1.126  0.5939  0.1258 -0.4326
  850SOL    HW2 2550   1.542   2.765   1.081  0.1679  2.4741 -0.3234
  851SOL     OW 2551   2.772   0.179   2.280  0.3260 -0.4220 -0.4614
  851SOL    HW1 2552   2.840   0.174   2.206  1.2485  0.2258  1.7020
  851SOL    HW2 2553   2.736   0.276   2.298 -2.1775  3.3418 -1.6265
  852SOL     OW 2554   1.839   0.680   2.239  0.3186  0.6412 -0.1126
  852SOL    HW1 2555   1.912   0.617   2.261  0.4172  1.9742 -0.0787
  852SOL    HW2 2556   1.770   0.639   2.177  1.0765 -4.0533 -0.3350
  853SOL     OW 2557   2.928   3.058   0.201  0.3902 -0.5336  0.6299
  853SOL    HW1 2558   2.839   3.087   0.245 -0.7626  0.7886 -0.6522
  853SOL    HW2 2559   2.962   0.001   0.138 -1.9834 -0.0360  1.8246
  854SOL     OW 2560   2.363   1.244   2.200 -0.2729  0.2086  0.5971
  854SOL    HW1 2561   2.447   1.281   2.243 -2.7387  0.8391 -2.4800
  854SOL    HW2 2562   2.346   1.283   2.110 -0.3813 -0.7962  1.6633
  855SOL     OW 2563   0.867   2.893   0.351  0.9361  1.2148 -0.2836
  855SOL    HW1 2564   0.901   2.963   0.416 -1.8716 -0.9091 -0.2189
  855SOL    HW2 2565   0.802   2.932   0.283  1.2016 -2.7374 -1.5499
  856SOL     OW 2566   3.051   3.081   2.914 -0.0059  0.4876 -0.1342
  856SOL    HW1 2567   3.013   3.114   2.827 -2.2568 -1.4887 -0.0337
  856SOL    HW2 2568   3.066   2.981   2.924 -0.8711  2.4575  0.1758
  857SOL     OW 2569   1.309   2.681   1.487 -0.2796 -0.2858  0.1486
  857SOL    HW1 2570   1.296   2.613   1.415 -0.9817 -0.4282  2.0616
  857SOL    HW2 2571   1.232   2.683   1.548  1.8638 -1.3897 -1.8663
  858SOL     OW 2572   2.684   2.432   1.718  0.9887 -0.0706 -0.1011
  858SOL    HW1 2573   2.754   2.500   1.744  0.1530  1.7178 -0.4970
  858SOL    HW2 2574   2.725   2.344   1.700  0.0115  1.9475 -0.3311
  859SOL     OW 2575   1.715   2.219   1.908 -0.3213  0.0634  0.0832
  859SOL    HW1 2576   1.701   2.218   1.806 -0.1613  0.1335 -3.9573
  859SOL    HW2 2577   1.629   2.201   1.959 -0.0484 -0.9787  1.8815
  860SOL     OW 2578   2.070   2.934   3.069 -0.4039 -0.0942 -0.2929
  860SOL    HW1 2579   2.072   2.951   2.962 -1.0325 -1.4391 -3.7260
  860SOL    HW2 2580   2.083   2.836   3.090  1.4759  0.6270  0.1076
  861SOL     OW 2581   2.316   2.819   0.690  0.1678 -0.2529  0.1555
  861SOL    HW1 2582   2.322   2.721   0.659  0.2016  2.4665  0.7634
  861SOL    HW2 2583   2.407   2.850   0.722  2.0559  0.6224 -0.0544
  862SOL     OW 2584   1.795   0.030   2.765  0.3446  0.2107 -0.0316
  862SOL    HW1 2585   1.763   3.075   2.717  1.0314  0.4334  0.9397
  862SOL    HW2 2586   1.720   0.089   2.799 -0.8364  0.0582  0.0447
  863SOL     OW 2587   0.244   0.627   1.039  0.7749 -0.0272  0.0153
  863SOL    HW1 2588   0.201   0.553   1.092  2.0925  1.7062 -0.9516
  863SOL    HW2 2589   0.183   0.710   1.035 -1.9178  0.0988  1.8811
  864SOL     OW 2590   0.310   2.797   2.135  0.4336  0.0356 -0.1119
  864SOL    HW1 2591   0.399   2.844   2.165  0.8979 -0.0792  0.0565
  864SOL    HW2 2592   0.287   2.711   2.187  1.4230  1.2208 -1.2084
  865SOL     OW 2593   0.508   1.075   3.053  0.1537 -0.0176  0.5776
  865SOL    HW1 2594   0.591   1.109   3.100 -4.1342 -1.3029 -1.6285
  865SOL    HW2 2595   0.486   0.977   3.071 -0.6367 -2.1978 -1.9619
  866SOL     OW 2596   2.967   0.657   3.106 -0.2282 -0.2562 -0.1365
  866SOL    HW1 2597   3.069   0.648   3.089 -0.1345  0.5152 -1.1317
  866SOL    HW2 2598   2.946   0.684   0.073 -1.7041 -2.2291  0.0216
  867SOL     OW 2599   3.090   2.786   2.933 -0.0831 -0.0974  0.2286
  867SOL    HW1 2600   3.085   2.789   3.034 -1.1094 -2.4424  0.4405
  867SOL    HW2 2601   3.022   2.719   2.899  2.1394  1.5201 -0.0201
  868SOL     OW 2602   1.580   0.125   0.305  0.0006 -0.0179 -0.0066
  868SOL    HW1 2603   1.543   0.192   0.371 -0.9001  0.4171 -0.8567
  868SOL    HW2 2604   1.680   0.150   0.291  2.2242 -0.5432 -1.1583
  869SOL     OW 2605   2.170   1.568   0.505  0.3015 -0.2012  0.4773
  869SOL    HW1 2606   2.223   1.655   0.500  1.4089 -2.9290  2.0665
  869SOL    HW2 2607   2.078   1.589   0.542  2.4681  0.3530 -1.1435
  870SOL     OW 2608   1.943   1.733   0.517 -0.0726  0.0223  0.0477
  870SOL    HW1 2609   1.924   1.721   0.617 -1.3997  0.3017  3.0601
  870SOL    HW2 2610   1.883   1.802   0.477  1.2132 -1.4401 -1.1001
  871SOL     OW 2611   1.272   1.559   1.217 -0.0933  0.2616 -0.5391
  871SOL    HW1 2612   1.217   1.479   1.204  0.5377 -1.9562 -1.1808
  871SOL    HW2 2613   1.341   1.544   1.288  0.2100  1.5139  1.0281
  872SOL     OW 2614   1.345   1.599   1.701  0.0225 -0.4861  0.4589
  872SOL    HW1 2615   1.253   1.567   1.684  2.7371  1.3685  1.8140
  872SOL    HW2 2616   1.341   1.695   1.734 -1.4057  0.0766  1.2798
  873SOL     OW 2617   0.641   1.434   2.469 -0.1111 -0.0348 -0.1074
  873SOL    HW1 2618   0.694   1.413   2.558 -2.6136  0.0465  1.9685
  873SOL    HW2 2619   0.628   1.535   2.456 -0.8868 -0.9594 -0.0588
  874SOL     OW 2620   0.786   1.343   1.175  0.5199 -0.2916 -0.0431
  874SOL    HW1 2621   0.770   1.434   1.218  0.3146 -1.1122  0.8527
  874SOL    HW2 2622   0.705   1.285   1.172  1.9699  2.0971  0.9525
  875SOL     OW 2623   2.443   0.143   1.170 -0.2432 -0.0961  0.0298
  875SOL    HW1 2624   2.457   0.236   1.132 -0.4831  0.1858  1.7206
  875SOL    HW2 2625   2.412   0.136   1.264 -1.4345 -0.7971  1.1447
  876SOL     OW 2626   0.735   0.772   0.132 -0.3511 -0.0804 -0.1020
  876SOL    HW1 2627   0.782   0.689   0.168  3.5185  1.6367 -1.5972
  876SOL    HW2 2628   0.764   0.849   0.189  0.6175  1.8042 -2.6021
  877SOL     OW 2629   2.975   0.392   1.239  0.0018  0.1974 -0.0946
  877SOL    HW1 2630   2.894   0.419   1.176  0.0475  0.4032 -1.4897
  877SOL    HW2 2631   2.943   0.398   1.333  0.7793  1.9271 -1.0680
  878SOL     OW 2632   1.623   2.360   0.003 -0.3185 -0.5777 -0.2813
  878SOL    HW1 2633   1.681   2.437   3.098  0.2543  0.8998  0.4482
  878SOL    HW2 2634   1.594   2.300   3.053 -1.4364 -0.3011  1.3113
  879SOL     OW 2635   2.265   2.247   1.721 -0.2024  0.1364  0.1064
  879SOL    HW1 2636   2.283   2.264   1.628 -1.5827 -0.5831  3.8856
  879SOL    HW2 2637   2.312   2.319   1.784 -0.1385 -0.7819  1.0621
  880SOL     OW 2638   0.829   3.012   1.464  0.1209  0.3976  0.2789
  880SOL    HW1 2639   0.905   3.019   1.531  1.9544 -0.1713  0.9488
  880SOL    HW2 2640   0.866   2.973   1.371  1.0682 -1.8168  2.0849
  881SOL     OW 2641   0.991   2.019   2.990  0.0978 -0.1083 -0.4334
  881SOL    HW1 2642   0.980   1.974   2.904 -1.2684  2.1086  0.9840
  881SOL    HW2 2643   1.063   2.090   2.985 -1.7014 -2.0070 -0.6846
  882SOL     OW 2644   2.223   0.799   2.047 -0.4521  0.4979  0.8103
  882SOL    HW1 2645   2.282   0.833   2.121  1.2112  0.6302 -0.5746
  882SOL    HW2 2646   2.223   0.863   1.972 -1.3685  0.1414  2.4855
  883SOL     OW 2647   1.257   0.529   1.925 -0.1545 -0.4916 -0.1554
  883SOL    HW1 2648   1.284   0.595   1.999 -0.6619 -0.4331  0.6383
  883SOL    HW2 2649   1.176   0.470   1.949  1.2469 -3.1650  1.6486
  884SOL     OW 2650   2.927   0.356   3.057 -0.2517 -0.0755  0.3064
  884SOL    HW1 2651   2.934   0.263   3.102 -0.1884 -0.2136 -1.2575
  884SOL    HW2 2652   2.888   0.427   3.120 -2.7403  1.3739  1.2276
  885SOL     OW 2653   0.565   2.177   0.498  0.2908  0.2592 -0.3320
  885SOL    HW1 2654   0.581   2.243   0.577  0.1495  0.3927  0.8010
  885SOL    HW2 2655   0.648   2.153   0.447  1.2001  0.7969  1.3869
  886SOL     OW 2656   1.901   1.286   2.755  0.1379  0.7806 -0.1611
  886SOL    HW1 2657   1.846   1.290   2.665  0.9991 -1.0141 -1.2340
  886SOL    HW2 2658   1.858   1.341   2.828  0.8302 -0.8161  1.2831
  887SOL     OW 2659   1.957   0.699   1.585  0.1862 -0.2759  0.1838
  887SOL    HW1 2660   1.864   0.700   1.621  3.0157 -1.0564  0.5220
  887SOL    HW2 2661   1.952   0.691   1.482  0.3916 -2.2489 -1.3672
  888SOL     OW 2662   2.877   0.974   1.677 -0.1791 -0.5177  0.0081
  888SOL    HW1 2663   2.835   1.050   1.732  1.4777 -0.3334 -1.1378
  888SOL    HW2 2664   2.928   0.913   1.738 -0.6630  0.1198 -1.4649
  889SOL     OW 2665   2.923   2.691   0.808  0.0477  0.3766 -0.3310
  889SOL    HW1 2666   2.896   2.602   0.768 -2.1237 -0.1250 -0.6103
  889SOL    HW2 2667   3.022   2.713   0.807  0.7422  0.8419 -0.6021
  890SOL     OW 2668   0.023   2.444   2.752  0.7597 -0.1097 -0.1320
  890SOL    HW1 2669   0.029   2.358   2.799 -1.8079  0.0683  0.6146
  890SOL    HW2 2670   0.104   2.503   2.760 -0.5596 -1.2753 -2.6895
  891SOL     OW 2671   0.783   1.938   0.001  0.4993  0.3330  0.2536
  891SOL    HW1 2672   0.862   1.982   3.084 -0.9202 -0.0013  0.3059
  891SOL    HW2 2673   0.823   1.857   0.052 -1.8665 -1.5022 -1.7220
  892SOL     OW 2674   0.291   2.728   1.002  0.0533  0.0686 -0.1078
  892SOL    HW1 2675   0.361   2.650   1.001 -2.1338 -1.8784 -0.2703
  892SOL    HW2 2676   0.298   2.782   0.914  1.2123  1.0291  4.0353
  893SOL     OW 2677   0.621   0.034   1.212  0.8313  0.4034 -0.3072
  893SOL    HW1 2678   0.693   0.105   1.240 -2.1988 -0.6642  2.2683
  893SOL    HW2 2679   0.539   0.084   1.176  2.0082  0.5040  2.4293
  894SOL     OW 2680   2.919   1.318   0.904 -0.0997  0.0432 -0.3946
  894SOL    HW1 2681   2.930   1.280   0.809 -1.3967  0.4789  1.9271
  894SOL    HW2 2682   2.841   1.378   0.909  2.4665 -2.4443 -2.6459
  895SOL     OW 2683   2.539   2.660   1.672  0.0819  0.0141  0.3152
  895SOL    HW1 2684   2.598   2.579   1.702  1.5690  0.5906 -1.7975
  895SOL    HW2 2685   2.540   2.663   1.569  0.4356  0.3759  0.6971
  896SOL     OW 2686   0.965   0.401   1.578  0.2482  0.0693  0.8877
  896SOL    HW1 2687   0.989   0.323   1.638 -0.2897 -1.7305 -2.6042
  896SOL    HW2 2688   0.960   0.486   1.633  1.9116 -2.1135 -1.3412
  897SOL     OW 2689   0.907   1.652   1.519  0.0430  0.0883 -0.3922
  897SOL    HW1 2690   0.974   1.585   1.558 -2.0605  1.2004  0.3862
  897SOL    HW2 2691   0.904   1.735   1.576 -0.5161 -0.4730 -2.3383
  898SOL     OW 2692   1.503   2.720   1.697  0.1197 -0.1151  0.3953
  898SOL    HW1 2693   1.417   2.677   1.724 -3.4188 -2.2481 -0.5702
  898SOL    HW2 2694   1.502   2.727   1.592  2.0860  2.6483 -2.2301
  899SOL     OW 2695   0.907   0.569   0.207 -0.0766 -0.2458  0.3960
  899SOL    HW1 2696   0.875   0.599   0.299 -0.9784 -2.9982 -1.0182
  899SOL    HW2 2697   0.890   0.471   0.191  0.6977  2.1529  2.6086
  900SOL     OW 2698   1.472   2.221   2.079 -0.4294  0.1232  0.5811
  900SOL    HW1 2699   1.441   2.316   2.092 -1.8585 -0.6884  0.7043
  900SOL    HW2 2700   1.393   2.156   2.065  1.1622 -0.4281  0.6536
  901SOL     OW 2701   0.911   2.464   0.397  0.0239 -0.6520 -0.0281
  901SOL    HW1 2702   0.827   2.472   0.344 -0.4034 -1.7587 -0.8519
  901SOL    HW2 2703   0.974   2.390   0.360  2.1673 -0.5314  0.5916
  902SOL     OW 2704   1.876   1.532   0.333 -0.5346 -0.5203 -0.5869
  902SOL    HW1 2705   1.899   1.567   0.426  1.1865 -0.1629  1.3555
  902SOL    HW2 2706   1.888   1.433   0.319  1.4252  0.5466  0.6912
  903SOL     OW 2707   2.148   1.161   0.235 -0.2783  1.0378 -0.3385
  903SOL    HW1 2708   2.191   1.216   0.311  1.3446 -1.2438  1.5407
  903SOL    HW2 2709   2.200   1.160   0.148  0.0566 -1.0640  2.0314
  904SOL     OW 2710   0.737   1.184   0.055  0.3560 -0.3633 -0.4678
  904SOL    HW1 2711   0.821   1.222   0.011 -0.6598  0.1035 -0.3571
  904SOL    HW2 2712   0.709   1.226   0.144 -2.2666 -0.1675 -1.1153
  905SOL     OW 2713   2.145   2.943   1.284  0.2773 -0.2935  0.0056
  905SOL    HW1 2714   2.204   2.966   1.367  1.0424  1.3508  2.1323
  905SOL    HW2 2715   2.083   2.862   1.304 -0.9899 -1.7792 -0.1738
  906SOL     OW 2716   2.733   2.498   1.282 -0.2921 -0.1113 -0.1900
  906SOL    HW1 2717   2.802   2.491   1.207 -0.8032 -0.5298  0.7941
  906SOL    HW2 2718   2.683   2.408   1.295 -0.7039 -0.5676 -2.0850
  907SOL     OW 2719   1.261   0.901   0.224  0.2848 -0.4329 -0.0702
  907SOL    HW1 2720   1.204   0.897   0.141  2.1295  0.2313 -0.1700
  907SOL    HW2 2721   1.327   0.979   0.228  1.4355  0.6083  0.0805
  908SOL     OW 2722   1.740   3.081   0.889 -0.1169  0.1305 -0.2342
  908SOL    HW1 2723   1.732   3.102   0.992 -0.7925  0.6835  2.9830
  908SOL    HW2 2724   1.820   3.123   0.846 -4.5236 -1.6865  2.3449
  909SOL     OW 2725   1.961   1.273   1.622  0.0612  0.6020 -0.0984
  909SOL    HW1 2726   1.972   1.235   1.716 -2.2035  0.3276 -2.8132
  909SOL    HW2 2727   2.042   1.329   1.602 -0.1144 -0.2480 -0.6966
  910SOL     OW 2728   1.542   0.074   2.161 -0.0545  0.6429  0.0071
  910SOL    HW1 2729   1.604   0.066   2.243  0.2251 -2.0767  0.9427
  910SOL    HW2 2730   1.588   0.018   2.086  1.0783 -2.2341 -0.1289
  911SOL     OW 2731   2.602   0.641   2.700  1.0090  0.1623  0.3545
  911SOL    HW1 2732   2.605   0.723   2.635  3.1461 -1.1913 -3.2971
  911SOL    HW2 2733   2.660   0.650   2.781  0.3046  0.5570 -1.1978
  912SOL     OW 2734   2.982   1.295   1.829  0.5173 -0.0740 -0.1506
  912SOL    HW1 2735   3.029   1.382   1.856  0.7839  0.9731  1.2988
  912SOL    HW2 2736   2.920   1.308   1.750 -1.7497  1.4431  1.3377
  913SOL     OW 2737   2.934   2.558   1.481 -0.3414  0.2250 -0.3797
  913SOL    HW1 2738   2.972   2.463   1.490  1.2962 -0.9198  0.0210
  913SOL    HW2 2739   2.862   2.560   1.412 -0.3637  2.2354  0.1871
  914SOL     OW 2740   1.706   1.175   1.834 -0.0165  0.5520 -0.0182
  914SOL    HW1 2741   1.772   1.096   1.823  0.0995 -0.8844 -2.0090
  914SOL    HW2 2742   1.708   1.241   1.754 -0.0627  0.3981 -1.9134
  915SOL     OW 2743   2.236   0.703   1.292 -0.5321 -0.2602  0.2976
  915SOL    HW1 2744   2.318   0.693   1.352  3.5134 -0.9157  1.5741
  915SOL    HW2 2745   2.267   0.684   1.197 -1.8522  1.4833  2.6345
  916SOL     OW 2746   2.453   2.181   1.098  0.5017  0.0604 -0.4038
  916SOL    HW1 2747   2.372   2.247   1.113 -3.2720  2.1116 -0.3281
  916SOL    HW2 2748   2.509   2.205   1.019 -0.7038 -0.6262  1.3795
  917SOL     OW 2749   1.913   2.050   2.768 -0.0148 -0.0442 -0.5065
  917SOL    HW1 2750   1.969   2.121   2.816  2.1772  0.4059 -1.2630
  917SOL    HW2 2751   1.878   1.981   2.836 -2.1280 -1.3226 -1.7968
  918SOL     OW 2752   1.920   2.717   2.283 -0.0424  0.0602 -0.1384
  918SOL    HW1 2753   1.953   2.808   2.307 -2.9097 -4.0096 -1.0344
  918SOL    HW2 2754   1.935   2.656   2.368  1.4120 -2.8134 -0.9371
  919SOL     OW 2755   1.212   2.844   1.189  0.4089 -0.0652 -0.4548
  919SOL    HW1 2756   1.259   2.898   1.115 -2.7082  1.2282  0.0970
  919SOL    HW2 2757   1.252   2.753   1.208  1.6546  3.8032  0.8242
  920SOL     OW 2758   0.019   0.237   2.355 -0.0834  0.0602  0.1108
  920SOL    HW1 2759   0.050   0.144   2.327  0.4427 -0.9103  0.6386
  920SOL    HW2 2760   3.094   0.236   2.441  0.5653 -2.1250  0.4028
  921SOL     OW 2761   3.045   0.853   1.847 -0.4468 -0.2703 -0.2734
  921SOL    HW1 2762   3.093   0.926   1.903  1.5125  3.5800 -1.1951
  921SOL    HW2 2763   3.099   0.828   1.767 -0.3895  0.3198  1.9745
  922SOL     OW 2764   2.131   2.051   0.365 -0.8968  0.2723  0.0057
  922SOL    HW1 2765   2.140   2.145   0.319 -0.7253  0.4942 -0.0025
  922SOL    HW2 2766   2.205   1.990   0.330  0.8125  1.9330 -0.0074
  923SOL     OW 2767   0.695   1.848   0.380 -0.0734  0.3505 -0.2505
  923SOL    HW1 2768   0.685   1.775   0.311 -1.4085  4.1604  1.7940
  923SOL    HW2 2769   0.733   1.939   0.345  2.1667 -2.1724 -0.6335
  924SOL     OW 2770   1.064   0.646   0.003 -0.3225 -0.1555 -0.5793
  924SOL    HW1 2771   1.012   0.622   0.088 -0.5281  1.4380  0.4472
  924SOL    HW2 2772   1.045   0.572   3.066  2.1806  0.2528 -1.4356
  925SOL     OW 2773   2.707   0.558   0.824 -0.4220 -0.1804  0.3955
  925SOL    HW1 2774   2.667   0.639   0.871  1.7402  0.2535 -1.2030
  925SOL    HW2 2775   2.641   0.524   0.757  0.3421  1.5879  0.2096
  926SOL     OW 2776   0.668   0.380   1.250 -0.2059 -0.0318  0.4507
  926SOL    HW1 2777   0.710   0.304   1.191  1.7298 -2.3074 -2.0531
  926SOL    HW2 2778   0.685   0.364   1.346 -0.0539 -1.5733 -1.7755
  927SOL     OW 2779   0.055   1.629   2.433 -0.3373  0.3718 -0.2927
  927SOL    HW1 2780   0.016   1.695   2.500  0.1526 -1.6488  0.1658
  927SOL    HW2 2781   3.114   1.605   2.364  1.4408 -0.9799  0.0806
  928SOL     OW 2782   3.038   0.241   2.625  0.2834  0.4331 -0.1655
  928SOL    HW1 2783   2.985   0.157   2.642  1.4554 -0.7052 -0.7327
  928SOL    HW2 2784   3.080   0.282   2.714  0.2962  0.1205  0.6631
  929SOL     OW 2785   2.822   3.121   1.216 -0.1731 -0.3001 -0.3914
  929SOL    HW1 2786   2.744   3.055   1.211  1.9463 -1.5149  1.2112
  929SOL    HW2 2787   2.797   0.066   1.288 -0.7673  1.7980  1.0065
  930SOL     OW 2788   1.820   0.920   1.750 -0.3157  0.2807 -0.4225
  930SOL    HW1 2789   1.761   0.853   1.707  2.2025 -0.5927  2.4606
  930SOL    HW2 2790   1.890   0.868   1.802  0.4904 -1.6013  1.0177
  931SOL     OW 2791   2.251   1.170   3.103 -0.0960  0.0127  0.0751
  931SOL    HW1 2792   2.323   1.190   3.036  3.2547 -1.0826  1.3591
  931SOL    HW2 2793   2.166   1.127   3.060 -0.9809  1.2633  0.9055
  932SOL     OW 2794   2.007   1.254   0.729  0.2657 -0.1313  0.0382
  932SOL    HW1 2795   2.090   1.314   0.729  0.1204  0.8052  1.0650
  932SOL    HW2 2796   2.026   1.178   0.665  2.3915 -1.9926 -0.5735
  933SOL     OW 2797   2.269   1.569   0.927 -0.5113 -0.3356 -0.0639
  933SOL    HW1 2798   2.269   1.501   0.850 -0.2297 -0.3078 -1.4373
  933SOL    HW2 2799   2.246   1.663   0.898  1.0479  1.2810  0.1984
  934SOL     OW 2800   2.159   0.593   2.520  0.0817 -0.1028  0.0085
  934SOL    HW1 2801   2.260   0.586   2.512  0.2441  0.5306 -0.6868
  934SOL    HW2 2802   2.112   0.521   2.463 -1.4409 -0.2415  0.0123
  935SOL     OW 2803   0.205   1.020   0.527  0.7517 -0.0645 -0.2101
  935SOL    HW1 2804   0.200   1.119   0.525  2.0608 -1.7697 -0.1819
  935SOL    HW2 2805   0.134   0.972   0.591 -3.0573 -2.2981 -0.7024
  936SOL     OW 2806   0.349   0.205   0.679 -0.2171  0.0881  0.5568
  936SOL    HW1 2807   0.391   0.121   0.638  2.7711 -0.9191 -0.8855
  936SOL    HW2 2808   0.352   0.196   0.779  1.0302  2.8707 -2.9282
  937SOL     OW 2809   0.024   0.038   1.948  0.4147 -0.6980  0.3045
  937SOL    HW1 2810   0.034   3.066   1.970 -1.6485 -0.0417 -0.8899
  937SOL    HW2 2811   0.070   0.061   1.860  0.7127  1.8113  2.2746
  938SOL     OW 2812   0.146   2.275   3.066 -0.1252 -0.1896  0.3124
  938SOL    HW1 2813   0.138   2.306   0.033  1.1949 -1.4434 -0.7033
  938SOL    HW2 2814   0.212   2.340   3.023  1.0820  2.0344 -0.4991
  939SOL     OW 2815   0.806   2.030   0.850 -0.1628 -0.0115  0.4104
  939SOL    HW1 2816   0.751   2.102   0.903  0.0011  0.1102  1.1733
  939SOL    HW2 2817   0.841   1.951   0.902 -0.0513 -1.7979 -3.2179
  940SOL     OW 2818   3.114   0.383   2.856  0.2337  0.2984  0.1140
  940SOL    HW1 2819   3.035   0.388   2.917  3.4014  0.7297 -2.4952
  940SOL    HW2 2820   0.041   0.301   2.891 -0.6927 -0.9165  3.6384
  941SOL     OW 2821   1.762   0.464   2.620 -0.1008  0.0553 -0.0731
  941SOL    HW1 2822   1.829   0.383   2.631  2.5328 -0.8669  3.0995
  941SOL    HW2 2823   1.812   0.542   2.663  0.3799 -1.2586 -1.8616
  942SOL     OW 2824   1.222   0.467   1.159 -0.0726 -0.9035 -0.6744
  942SOL    HW1 2825   1.267   0.383   1.192  1.1701  1.7499  1.5128
  942SOL    HW2 2826   1.282   0.547   1.173  0.0705 -0.3782  0.3357
  943SOL     OW 2827   1.090   1.004   1.801  0.4219 -0.4073 -0.2677
  943SOL    HW1 2828   1.160   0.945   1.749  1.7675 -0.0724 -0.7557
  943SOL    HW2 2829   1.042   0.942   1.860  2.3426  0.0537 -1.8090
  944SOL     OW 2830   1.899   1.025   1.519 -0.1158  0.5296 -0.2230
  944SOL    HW1 2831   1.870   0.979   1.609 -0.2282  0.7050  0.9166
  944SOL    HW2 2832   1.928   1.123   1.532  1.3349  3.2452  0.8997
  945SOL     OW 2833   2.693   0.001   0.306 -0.1409 -0.0328 -0.0257
  945SOL    HW1 2834   2.676   0.013   0.405 -1.0593  1.3546 -0.9286
  945SOL    HW2 2835   2.633   3.061   0.265  0.7379  1.6454 -1.6869
  946SOL     OW 2836   2.871   0.625   1.936 -0.4532 -0.6220  0.4287
  946SOL    HW1 2837   2.826   0.636   2.026  0.6385  1.6010  1.5990
  946SOL    HW2 2838   2.950   0.693   1.920  2.3075 -1.4673 -1.0812
  947SOL     OW 2839   1.290   0.010   0.267 -0.5646  0.0139 -0.1096
  947SOL    HW1 2840   1.389   3.116   0.268  2.9110 -1.5173  0.6347
  947SOL    HW2 2841   1.242   3.079   0.330 -0.5085  1.8232 -0.5489
  948SOL     OW 2842   2.403   1.817   1.502  0.0843  0.2967  0.0099
  948SOL    HW1 2843   2.487   1.866   1.518 -0.9852  0.9756  0.3301
  948SOL    HW2 2844   2.431   1.720   1.523  2.4046  1.1948 -1.3309
  949SOL     OW 2845   0.349   1.342   0.010  0.0463 -0.4022 -0.1624
  949SOL    HW1 2846   0.256   1.308   0.024  2.3197 -1.2304  0.9917
  949SOL    HW2 2847   0.374   1.319   3.045  1.5799 -0.2192  1.0863
  950SOL     OW 2848   0.482   2.513   1.011 -0.0109 -0.2254 -0.0574
  950SOL    HW1 2849   0.543   2.574   0.956  4.7627 -0.8963 -1.9750
  950SOL    HW2 2850   0.435   2.446   0.945 -0.1316 -1.1501  0.2842
  951SOL     OW 2851   0.725   1.069   2.523  0.6739 -0.2340  0.0757
  951SOL    HW1 2852   0.791   1.089   2.595 -0.7785 -2.1767 -1.6206
  951SOL    HW2 2853   0.767   1.074   2.429 -2.3768 -1.5053  0.3433
  952SOL     OW 2854   0.419   1.013   0.748  0.0081  0.6806 -0.3652
  952SOL    HW1 2855   0.448   1.112   0.756 -0.3582 -1.7348 -0.2724
  952SOL    HW2 2856   0.394   0.994   0.650 -0.6791 -2.6476  1.7638
  953SOL     OW 2857   2.933   3.044   2.291 -0.1416  0.3684 -0.2206
  953SOL    HW1 2858   2.873   3.104   2.346  0.3048 -0.2375 -0.0300
  953SOL    HW2 2859   3.033   3.067   2.290  0.7343 -1.6706  2.6643
  954SOL     OW 2860   1.416   1.271   0.333  0.0501  0.0232 -0.3237
  954SOL    HW1 2861   1.487   1.343   0.327 -0.5222  0.2298  0.9300
  954SOL    HW2 2862   1.437   1.191   0.274 -2.3999  1.3706  2.4485
  955SOL     OW 2863   0.770   2.108   0.338  0.2221  0.7335  0.2848
  955SOL    HW1 2864   0.860   2.147   0.346 -3.3675 -1.5295  0.0393
  955SOL    HW2 2865   0.722   2.145   0.257 -1.2904  0.1701  0.4108
  956SOL     OW 2866   2.156   0.488   2.096 -0.5870 -0.2583 -0.1627
  956SOL    HW1 2867   2.237   0.511   2.156 -0.3869  1.4188 -0.8529
  956SOL    HW2 2868   2.124   0.575   2.051  1.0324  1.0567 -0.9222
  957SOL     OW 2869   2.197   2.382   2.489 -0.0459 -0.3243 -0.6049
  957SOL    HW1 2870   2.204   2.424   2.584 -0.3131  0.1563  0.1924
  957SOL    HW2 2871   2.273   2.332   2.452  0.7433  1.5611  0.1322
  958SOL     OW 2872   1.628   1.182   1.165 -0.2387 -0.1014  0.5054
  958SOL    HW1 2873   1.728   1.194   1.182  0.9319  2.5470  0.8598
  958SOL    HW2 2874   1.575   1.184   1.251  3.9281  0.7126 -3.3635
  959SOL     OW 2875   2.041   2.140   2.408  0.3444  0.1819  0.0463
  959SOL    HW1 2876   2.093   2.195   2.472  0.4448  1.2498  2.3218
  959SOL    HW2 2877   1.969   2.197   2.359  1.4794  0.6022  1.2576
  960SOL     OW 2878   0.289   0.939   2.689 -0.4605 -0.0257 -0.4892
  960SOL    HW1 2879   0.273   1.025   2.637 -0.8505  1.1561  2.7054
  960SOL    HW2 2880   0.380   0.898   2.676 -0.9960 -1.9836  2.5504
  961SOL     OW 2881   0.216   1.000   2.937  0.1976  0.0399  0.3578
  961SOL    HW1 2882   0.259   0.985   2.844 -0.6450 -1.1667  0.7548
  961SOL    HW2 2883   0.141   1.070   2.928  0.2975 -1.8654 -1.1473
  962SOL     OW 2884   0.483   1.168   2.629 -0.2676 -0.2655 -0.4334
  962SOL    HW1 2885   0.406   1.130   2.575  1.1087 -1.4278  1.4007
  962SOL    HW2 2886   0.571   1.134   2.594  0.9614 -0.5890  1.2378
  963SOL     OW 2887   2.857   2.160   0.172  0.2928  0.1174  0.4282
  963SOL    HW1 2888   2.893   2.212   0.095  0.3328 -0.9422 -0.9420
  963SOL    HW2 2889   2.821   2.070   0.139 -0.5865  0.2457 -0.6513
  964SOL     OW 2890   1.058   2.311   1.600 -0.2462 -0.1470  0.1774
  964SOL    HW1 2891   1.105   2.303   1.690 -0.9264 -0.0425 -1.7114
  964SOL    HW2 2892   0.982   2.379   1.610  0.1920 -1.4078 -0.4930
  965SOL     OW 2893   1.866   1.935   0.337  0.1452 -0.1101  0.5479
  965SOL    HW1 2894   1.841   1.986   0.245 -1.0713  1.5481 -5.0278
  965SOL    HW2 2895   1.967   1.937   0.348 -2.0569 -0.9591 -1.4438
  966SOL     OW 2896   2.882   1.535   0.362  0.5841 -0.0769 -0.1075
  966SOL    HW1 2897   2.832   1.494   0.288  0.1683  1.2054  1.8371
  966SOL    HW2 2898   2.981   1.531   0.346 -1.8833 -1.2551  1.8343
  967SOL     OW 2899   1.855   2.883   1.660 -0.2488 -0.0975  0.0880
  967SOL    HW1 2900   1.815   2.834   1.580 -0.6091 -0.6574 -1.3982
  967SOL    HW2 2901   1.789   2.894   1.740  0.1627 -0.2849 -0.4526
  968SOL     OW 2902   1.287   0.405   0.234  0.6810  0.1703 -0.1912
  968SOL    HW1 2903   1.370   0.471   0.254  2.5942 -0.3138  1.6950
  968SOL    HW2 2904   1.240   0.388   0.326  0.1369  0.8212  2.9120
  969SOL     OW 2905   0.188   1.337   2.202 -0.1797 -0.0803  0.6633
  969SOL    HW1 2906   0.270   1.336   2.257 -2.2316 -1.4491 -3.6236
  969SOL    HW2 2907   0.160   1.432   2.165  0.4203  1.1577 -0.5508
  970SOL     OW 2908   2.094   2.127   1.367 -0.2292 -0.0934 -0.1440
  970SOL    HW1 2909   2.001   2.106   1.407  1.3307  0.2890  1.5960
  970SOL    HW2 2910   2.080   2.191   1.290 -1.3208  0.8644 -1.2848
  971SOL     OW 2911   2.692   2.599   0.929  0.0305  0.7191  0.2616
  971SOL    HW1 2912   2.759   2.527   0.961  1.2477 -2.0087 -0.6609
  971SOL    HW2 2913   2.750   2.673   0.892 -1.1173 -2.5617  1.7293
  972SOL     OW 2914   3.029   1.112   2.558 -0.3247 -0.1163  0.0379
  972SOL    HW1 2915   3.064   1.160   2.475  2.6780 -2.6771  0.3910
  972SOL    HW2 2916   2.940   1.145   2.589 -0.2238 -0.6370 -1.0275
  973SOL     OW 2917   0.609   0.534   0.585  0.4764  0.4394 -0.1009
  973SOL    HW1 2918   0.556   0.608   0.623  1.7416 -2.6446 -2.2363
  973SOL    HW2 2919   0.670   0.492   0.657 -1.9441 -1.0635  0.2584
  974SOL     OW 2920   2.223   0.968   1.843  0.3199  0.2957  0.1129
  974SOL    HW1 2921   2.145   1.024   1.813 -1.0766  0.9626  1.4664
  974SOL    HW2 2922   2.235   0.897   1.767  1.2262  1.8918 -0.1915
  975SOL     OW 2923   3.071   2.846   0.091  0.2536 -0.1469 -0.0126
  975SOL    HW1 2924   3.019   2.916   0.142 -1.8073 -0.7291  2.5111
  975SOL    HW2 2925   3.061   2.752   0.132 -1.8583 -0.6980 -1.6878
  976SOL     OW 2926   0.458   1.856   1.055  0.1674 -0.0882  0.3718
  976SOL    HW1 2927   0.393   1.783   1.083  3.1571 -2.1887 -0.1917
  976SOL    HW2 2928   0.487   1.852   0.960 -2.4739  1.9618  1.9452
  977SOL     OW 2929   1.075   1.878   0.674  0.0284  0.0504  0.6991
  977SOL    HW1 2930   0.988   1.832   0.639 -2.0512 -1.0263 -0.0435
  977SOL    HW2 2931   1.121   1.817   0.738 -2.3497 -0.9426 -0.8873
  978SOL     OW 2932   0.246   0.857   0.052  0.6534 -0.0585  0.2182
  978SOL    HW1 2933   0.338   0.815   0.059 -2.5050 -1.8033  0.4782
  978SOL    HW2 2934   0.231   0.912   3.096 -2.1242  1.8900  1.9942
  979SOL     OW 2935   2.045   1.610   0.146 -0.4136 -0.3179  0.2628
  979SOL    HW1 2936   2.118   1.545   0.110 -0.3042 -1.3447 -0.6702
  979SOL    HW2 2937   1.984   1.574   0.216 -2.4653 -0.7956  1.6174
  980SOL     OW 2938   0.597   2.169   2.041  0.0341 -0.1259  0.7568
  980SOL    HW1 2939   0.694   2.146   2.051 -2.5442  0.1928 -0.2831
  980SOL    HW2 2940   0.571   2.263   2.082  1.8446  1.5514  2.4698
  981SOL     OW 2941   2.710   1.010   0.186 -0.0812  0.2741 -0.2015
  981SOL    HW1 2942   2.779   0.939   0.225  0.5423  0.7293  2.7721
  981SOL    HW2 2943   2.633   0.964   0.141  4.0084  0.7656 -0.0386
  982SOL     OW 2944   0.113   2.573   1.947  0.0358 -0.1125  0.3376
  982SOL    HW1 2945   0.053   2.645   1.978 -0.5646  0.4076 -1.7928
  982SOL    HW2 2946   0.165   2.619   1.869 -0.7112  2.2874 -0.1495
  983SOL     OW 2947   1.759   0.226   1.593  0.1157  0.4607  0.2135
  983SOL    HW1 2948   1.735   0.130   1.579 -0.0056  0.0629  0.9434
  983SOL    HW2 2949   1.721   0.283   1.520 -1.3454  2.0792  1.1453
  984SOL     OW 2950   1.638   2.947   2.681 -0.1459 -0.4966  0.5288
  984SOL    HW1 2951   1.606   2.903   2.596 -0.4765  0.6075 -2.6435
  984SOL    HW2 2952   1.565   2.951   2.753 -1.9415  3.1180  1.9568
  985SOL     OW 2953   1.418   1.468   1.437  0.4592 -0.0184  0.2475
  985SOL    HW1 2954   1.432   1.368   1.446  2.8702 -0.6319  0.3871
  985SOL    HW2 2955   1.400   1.513   1.527 -1.2474  0.1811 -2.1264
  986SOL     OW 2956   2.118   2.908   2.325 -0.4103  0.2357 -0.1689
  986SOL    HW1 2957   2.188   2.880   2.262 -1.5167  1.5448  0.8086
  986SOL    HW2 2958   2.067   2.989   2.301  2.6746 -1.9689  1.8171
  987SOL     OW 2959   2.661   1.866   2.814  0.7569  0.1505 -0.3078
  987SOL    HW1 2960   2.729   1.926   2.867  0.3188 -3.3927 -1.3203
  987SOL    HW2 2961   2.628   1.920   2.740  2.5327  0.5286  0.1783
  988SOL     OW 2962   2.794   0.719   1.599 -0.0830 -0.1327 -0.2473
  988SOL    HW1 2963   2.800   0.818   1.619 -4.0361 -2.2680  1.0951
  988SOL    HW2 2964   2.860   0.701   1.525  0.4587 -0.8926  0.0912
  989SOL     OW 2965   1.717   1.378   1.597 -0.0693  0.2854  0.1592
  989SOL    HW1 2966   1.726   1.473   1.636 -1.0900  0.1132  2.1679
  989SOL    HW2 2967   1.813   1.347   1.583  1.0196  0.8220 -0.1197
  990SOL     OW 2968   2.904   0.961   3.088 -0.3558 -0.1966 -0.1757
  990SOL    HW1 2969   2.879   0.962   0.058 -0.7015 -0.7941  2.7225
  990SOL    HW2 2970   2.914   0.865   3.059 -0.9286  1.1015  1.7263
  991SOL     OW 2971   0.304   1.834   2.908 -0.1173 -0.1953 -0.5075
  991SOL    HW1 2972   0.237   1.886   2.960  0.5935 -2.0061 -0.3131
  991SOL    HW2 2973   0.389   1.821   2.966  4.2455  0.4535 -0.2555
  992SOL     OW 2974   2.613   1.974   1.834 -0.1408 -0.1471  0.4695
  992SOL    HW1 2975   2.517   1.988   1.866 -4.0776 -0.5160 -1.4953
  992SOL    HW2 2976   2.684   1.958   1.910  0.1734  0.6372 -1.6215
  993SOL     OW 2977   0.592   0.076   0.769  0.3858 -0.0399  0.1728
  993SOL    HW1 2978   0.589   0.141   0.847  1.1069  0.7678  0.2346
  993SOL    HW2 2979   0.628   0.116   0.680  0.5967 -0.3523 -2.3798
  994SOL     OW 2980   2.778   2.177   1.723  0.2812  0.0283 -0.6591
  994SOL    HW1 2981   2.856   2.207   1.785  2.1889  2.2887  0.7586
  994SOL    HW2 2982   2.702   2.137   1.776 -0.1266  1.7680 -0.6706
  995SOL     OW 2983   2.138   1.988   2.643 -0.0855  0.1892 -0.1568
  995SOL    HW1 2984   2.051   1.985   2.696 -0.9700 -1.4434 -1.8956
  995SOL    HW2 2985   2.123   2.004   2.546  2.1080  0.2651  1.5578
  996SOL     OW 2986   2.060   1.891   0.012  0.2643  0.1807 -0.1648
  996SOL    HW1 2987   1.969   1.923   0.037  0.8667 -0.2184 -1.2296
  996SOL    HW2 2988   2.059   1.789   0.013  1.0403  1.3906  1.1621
  997SOL     OW 2989   1.095   1.495   1.687 -0.1302 -0.0333 -0.6288
  997SOL    HW1 2990   1.065   1.479   1.781 -0.3084 -0.4230 -2.1489
  997SOL    HW2 2991   1.123   1.401   1.653  0.4615 -0.5091  0.3603
  998SOL     OW 2992   2.728   2.138   0.821  0.5170  0.2212 -0.5849
  998SOL    HW1 2993   2.687   2.070   0.753 -0.7587 -3.8602  0.5437
  998SOL    HW2 2994   2.751   2.090   0.904  0.9803 -0.0102  1.1588
  999SOL     OW 2995   2.969   2.612   0.252  0.3108 -0.3854 -0.0584
  999SOL    HW1 2996   2.893   2.551   0.229  0.1095 -0.6402  1.9531
  999SOL    HW2 2997   2.946   2.693   0.310  1.6479 -0.4145  1.1511
 1000SOL     OW 2998   1.369   0.167   2.913 -0.2969  0.1625  0.1040
 1000SOL    HW1 2999   1.377   0.200   3.011 -1.6588 -1.5708  1.2389
 1000SOL    HW2 3000   1.270   0.169   2.886 -0.5032  1.6382 -1.2225
   3.12869   3.12869   3.12869
