1000 SPC/Fw water molecules t= 378.00000 step= 378000
 3000
    1SOL     OW    1   2.561   2.720   1.595  0.6387  0.0805  0.2555
    1SOL    HW1    2   2.580   2.797   1.661  0.2550  2.6593 -2.4302
    1SOL    HW2    3   2.463   2.702   1.578 -0.3233  2.4855 -2.3965
    2SOL     OW    4   2.322   2.411   0.441  0.2915 -0.1404  0.3233
    2SOL    HW1    5   2.351   2.318   0.412 -1.4824 -0.5863 -0.3931
    2SOL    HW2    6   2.336   2.479   0.368  0.0190 -1.2669  1.7772
    3SOL     OW    7   1.177   0.164   0.257 -0.1575 -0.3978 -0.3414
    3SOL    HW1    8   1.225   0.255   0.237  2.3084  0.3390 -1.9373
    3SOL    HW2    9   1.187   0.103   0.182  0.6441  1.2384  1.9653
    4SOL     OW   10   1.265   0.124   2.132  1.1639  0.0820 -0.1054
    4SOL    HW1   11   1.182   0.117   2.192 -1.2593 -0.7815 -1.0743
    4SOL    HW2   12   1.243   0.063   2.052 -1.7377 -0.6450 -4.1942
    5SOL     OW   13   2.273   0.440   1.469  0.2036  0.6181  0.7224
    5SOL    HW1   14   2.282   0.386   1.383 -2.9677 -0.2698  0.4748
    5SOL    HW2   15   2.210   0.384   1.527  0.9168  1.0933  0.9991
    6SOL     OW   16   2.046   2.394   0.475  0.2891  0.3427 -0.1965
    6SOL    HW1   17   2.139   2.422   0.461 -1.4360 -0.4340 -0.3985
    6SOL    HW2   18   2.046   2.292   0.475 -0.5689 -2.2946  1.0132
    7SOL     OW   19   2.021   1.024   0.957  0.3458  0.2283  0.4356
    7SOL    HW1   20   2.006   1.114   1.003 -0.8330 -0.0752 -2.3177
    7SOL    HW2   21   1.993   0.952   1.022 -1.7876 -0.3402 -1.7579
    8SOL     OW   22   0.946   1.271   1.176 -0.1761  0.5242  0.8684
    8SOL    HW1   23   0.925   1.366   1.202 -0.8471 -2.1174 -0.1229
    8SOL    HW2   24   0.864   1.211   1.180  0.8139 -0.2329 -2.1920
    9SOL     OW   25   0.692   2.542   1.560  0.2948  0.0619  0.2952
    9SOL    HW1   26   0.679   2.634   1.605  0.3319  0.0864  1.5649
    9SOL    HW2   27   0.613   2.484   1.583  2.8060 -0.6498 -1.8032
   10SOL     OW   28   1.029   2.321   0.557  0.1768 -0.4276 -0.1813
   10SOL    HW1   29   0.947   2.286   0.511  1.3522  0.1582  1.6909
   10SOL    HW2   30   1.100   2.249   0.551  0.3533 -0.2819  2.9564
   11SOL     OW   31   1.522   1.611   1.294  0.1309 -0.1483 -0.5695
   11SOL    HW1   32   1.530   1.696   1.347  0.8247  1.5632 -0.7243
   11SOL    HW2   33   1.589   1.614   1.220  0.0353 -3.0300  2.2913
   12SOL     OW   34   2.595   0.586   1.907 -0.2963 -0.2010  0.1915
   12SOL    HW1   35   2.671   0.546   1.855 -2.7292  1.2009 -0.7364
   12SOL    HW2   36   2.626   0.672   1.955 -0.9944 -3.1353  0.1886
   13SOL     OW   37   2.430   0.289   0.551 -0.2309  0.3363 -0.0491
   13SOL    HW1   38   2.340   0.302   0.501 -1.3696 -2.2789 -1.5613
   13SOL    HW2   39   2.419   0.238   0.633  0.2839 -0.1581 -3.4063
   14SOL     OW   40   1.579   1.444   0.048  0.3976 -0.1178  0.0354
   14SOL    HW1   41   1.522   1.360   0.057  1.5039 -2.6238 -1.4118
   14SOL    HW2   42   1.558   1.481   3.034  0.4680 -0.4789 -1.3049
   15SOL     OW   43   2.411   2.383   1.659 -0.1487  0.0638  0.9709
   15SOL    HW1   44   2.396   2.469   1.612  1.8650 -2.8161  0.7012
   15SOL    HW2   45   2.384   2.401   1.757 -0.9434 -2.1701  0.9256
   16SOL     OW   46   2.333   2.794   1.020  0.2071 -0.1290  0.4354
   16SOL    HW1   47   2.392   2.845   0.953  0.6612 -3.4337  0.7888
   16SOL    HW2   48   2.241   2.764   0.976 -2.8511 -0.4901  0.4114
   17SOL     OW   49   1.052   0.257   1.366 -0.0825  0.0249 -0.4833
   17SOL    HW1   50   1.087   0.214   1.280 -0.3781  0.0022 -0.9475
   17SOL    HW2   51   0.996   0.189   1.422 -1.3686  0.5103  3.1552
   18SOL     OW   52   1.828   0.255   0.748 -0.0340  0.0825  0.4211
   18SOL    HW1   53   1.755   0.281   0.813  1.5602  1.8648 -0.9229
   18SOL    HW2   54   1.832   0.156   0.742 -1.3144  0.3885  0.3375
   19SOL     OW   55   2.030   1.499   0.242  0.7041  0.9650  0.0920
   19SOL    HW1   56   1.991   1.491   0.148 -0.0975 -1.7673  0.4340
   19SOL    HW2   57   2.088   1.582   0.240 -2.6401 -1.3043 -0.8884
   20SOL     OW   58   2.137   1.618   2.490 -0.0388  0.0540 -0.6017
   20SOL    HW1   59   2.196   1.601   2.404  0.7678  1.2081 -0.9100
   20SOL    HW2   60   2.034   1.605   2.478 -0.0138  1.3335  0.6969
   21SOL     OW   61   1.437   0.257   0.565 -0.2613  0.2204 -0.6354
   21SOL    HW1   62   1.440   0.256   0.668 -0.0413 -0.6968  3.4873
   21SOL    HW2   63   1.513   0.311   0.525  2.1109 -0.2320  1.6335
   22SOL     OW   64   2.588   0.708   1.260  0.4096 -0.3248  0.5474
   22SOL    HW1   65   2.599   0.673   1.355 -0.4403  1.1971 -0.9498
   22SOL    HW2   66   2.655   0.784   1.237 -0.8991 -0.9010  0.0846
   23SOL     OW   67   0.218   0.214   1.945 -0.0463  0.0161 -0.1830
   23SOL    HW1   68   0.300   0.270   1.965  2.3536  1.1268 -3.1298
   23SOL    HW2   69   0.236   0.114   1.957  0.5469  2.0056  0.8927
   24SOL     OW   70   2.636   2.606   0.315  0.1714 -0.5199  0.0333
   24SOL    HW1   71   2.670   2.523   0.366 -1.4866  1.8154  0.2060
   24SOL    HW2   72   2.533   2.594   0.303 -1.2975  1.3652 -0.6707
   25SOL     OW   73   1.451   0.122   2.755  0.3742 -0.1692 -0.0542
   25SOL    HW1   74   1.446   0.029   2.716  0.6235  0.8759 -2.4193
   25SOL    HW2   75   1.541   0.161   2.775 -2.6072  2.2311  0.7838
   26SOL     OW   76   1.438   2.564   0.064  0.3379  0.3084  0.5186
   26SOL    HW1   77   1.430   2.656   0.029  1.6220  0.4936  3.3353
   26SOL    HW2   78   1.411   2.562   0.161 -1.3398  1.0682  1.1586
   27SOL     OW   79   1.258   0.517   1.215  0.3244 -0.1607  0.0346
   27SOL    HW1   80   1.161   0.528   1.186  1.7860  1.7792 -0.6689
   27SOL    HW2   81   1.294   0.421   1.191  1.4728 -1.3414  0.6156
   28SOL     OW   82   1.398   1.352   0.909 -0.3463  0.4169  0.0304
   28SOL    HW1   83   1.340   1.304   0.841  0.1669  2.6531  0.1774
   28SOL    HW2   84   1.497   1.327   0.902  0.9230 -1.4205 -1.1642
   29SOL     OW   85   2.905   0.095   1.835  0.1165  1.1388  0.1696
   29SOL    HW1   86   2.939   0.002   1.801  2.1478 -0.3214 -3.4529
   29SOL    HW2   87   2.882   0.146   1.748 -0.3823  0.5632 -1.2979
   30SOL     OW   88   1.188   2.972   1.308  0.5767  0.1483  0.7765
   30SOL    HW1   89   1.147   2.898   1.370  1.0585  0.8970  0.3062
   30SOL    HW2   90   1.282   2.951   1.283 -0.5604 -2.8848  0.0894
   31SOL     OW   91   1.817   2.930   1.819 -0.0700  0.2217 -0.2277
   31SOL    HW1   92   1.817   3.023   1.783  0.5680 -3.2201  0.7670
   31SOL    HW2   93   1.875   2.873   1.757 -1.3207  1.4712  3.4574
   32SOL     OW   94   0.895   1.767   3.044 -0.2785  0.6476  0.0800
   32SOL    HW1   95   0.803   1.804   3.032  1.7344 -1.1699  0.0994
   32SOL    HW2   96   0.923   1.770   0.065 -0.4459  0.3829  0.3206
   33SOL     OW   97   2.830   0.982   1.967  0.2949  0.6450 -0.2241
   33SOL    HW1   98   2.738   0.993   2.004 -1.8595  0.8230  0.8937
   33SOL    HW2   99   2.865   0.891   1.994 -0.7268  2.5947 -0.2250
   34SOL     OW  100   2.205   0.358   0.414  0.5095  0.0108 -1.1456
   34SOL    HW1  101   2.122   0.383   0.471 -0.8951 -0.5101  1.5999
   34SOL    HW2  102   2.181   0.278   0.360 -1.1146  2.5748  3.3479
   35SOL     OW  103   2.335   2.459   1.891  0.6594  0.4112  0.7613
   35SOL    HW1  104   2.413   2.478   1.953  0.6207  0.8447 -0.7215
   35SOL    HW2  105   2.252   2.442   1.938  2.2949 -1.6572 -1.6855
   36SOL     OW  106   2.199   1.834   2.984  0.1144 -0.3918  0.3920
   36SOL    HW1  107   2.221   1.840   2.884 -1.1570 -0.3050 -0.5199
   36SOL    HW2  108   2.102   1.801   2.995 -0.0307 -2.6800  0.4783
   37SOL     OW  109   2.098   0.304   1.645  0.3501 -0.0705  0.0427
   37SOL    HW1  110   2.080   0.322   1.741 -1.5232 -2.2242 -3.5465
   37SOL    HW2  111   2.042   0.230   1.613  0.9641 -1.9862 -1.2851
   38SOL     OW  112   0.138   0.380   2.831  0.1093 -0.1372  1.0224
   38SOL    HW1  113   0.214   0.413   2.887  1.1897  0.3130 -0.6441
   38SOL    HW2  114   0.123   0.279   2.847  0.2035  0.5994  3.3793
   39SOL     OW  115   1.963   1.371   1.734  0.2847 -0.3365  0.0546
   39SOL    HW1  116   2.047   1.388   1.792  2.8883 -1.3237  2.1492
   39SOL    HW2  117   1.964   1.418   1.645 -0.1713 -0.4242 -0.3474
   40SOL     OW  118   1.210   2.046   0.807 -0.2869  0.3079 -0.5880
   40SOL    HW1  119   1.306   2.007   0.806  1.1888  1.9259  0.1345
   40SOL    HW2  120   1.164   2.053   0.719  1.1737 -1.6457  0.6614
   41SOL     OW  121   1.871   1.950   0.903  0.6881 -0.3333  0.1840
   41SOL    HW1  122   1.941   2.021   0.899 -0.1211 -1.5823 -1.3780
   41SOL    HW2  123   1.900   1.869   0.849  1.8932  2.6760 -1.7668
   42SOL     OW  124   0.199   0.692   1.373 -0.3232  0.4044  0.2383
   42SOL    HW1  125   0.162   0.672   1.471  1.5699 -1.1215  4.1073
   42SOL    HW2  126   0.291   0.736   1.383 -0.4398 -1.1513  0.5501
   43SOL     OW  127   0.188   1.474   2.695 -0.4008  0.5018  0.0719
   43SOL    HW1  128   0.127   1.499   2.773 -1.0451  0.1113  3.1731
   43SOL    HW2  129   0.278   1.519   2.704 -1.0959 -0.0106  0.6323
   44SOL     OW  130   1.792   2.717   1.322  0.5050  0.2061  0.0754
   44SOL    HW1  131   1.793   2.624   1.356 -0.8816  3.1952  1.2137
   44SOL    HW2  132   1.724   2.774   1.381 -2.5474  0.2606  1.3191
   45SOL     OW  133   1.084   0.122   2.362  0.1273 -0.4266  0.2188
   45SOL    HW1  134   1.013   0.048   2.378 -1.6912 -3.3667  0.7029
   45SOL    HW2  135   1.146   0.140   2.436 -2.0216 -2.8529 -2.8796
   46SOL     OW  136   0.732   2.546   2.460 -0.2817  0.0040  0.8200
   46SOL    HW1  137   0.817   2.586   2.413  1.4511 -1.3382  0.4101
   46SOL    HW2  138   0.688   2.616   2.518  0.1746 -1.2564  0.3858
   47SOL     OW  139   0.873   2.132   0.817 -0.0259  0.4477  0.0897
   47SOL    HW1  140   0.853   2.228   0.802  1.2783 -0.1419  2.0875
   47SOL    HW2  141   0.849   2.100   0.911  1.6188 -1.1389 -1.6976
   48SOL     OW  142   0.821   2.052   1.071  0.6429 -0.1014 -0.1858
   48SOL    HW1  143   0.811   2.120   1.148 -2.0984  2.1332 -1.8755
   48SOL    HW2  144   0.783   1.960   1.101 -0.5767 -2.2099 -0.0781
   49SOL     OW  145   2.402   0.516   2.856 -0.2701  0.1546  0.2593
   49SOL    HW1  146   2.372   0.604   2.893 -0.8737 -0.2925 -0.4050
   49SOL    HW2  147   2.435   0.531   2.758 -0.2318 -1.3774 -3.5153
   50SOL     OW  148   1.920   0.292   0.467  0.0325 -0.5032  0.5263
   50SOL    HW1  149   1.998   0.242   0.423 -0.8087  0.4581  1.2895
   50SOL    HW2  150   1.881   0.363   0.406  0.2770  0.1266  3.9377
   51SOL     OW  151   2.179   0.817   1.249  0.1578  0.9335 -0.0973
   51SOL    HW1  152   2.249   0.882   1.218  0.3324  2.8478  0.6177
   51SOL    HW2  153   2.168   0.825   1.346 -0.4747 -1.7923 -1.6107
   52SOL     OW  154   0.523   1.656   0.014 -0.3512 -0.6309 -0.0578
   52SOL    HW1  155   0.605   1.607   0.052 -1.6880  0.4796  0.7155
   52SOL    HW2  156   0.562   1.741   3.048  0.5283  2.2938 -1.6459
   53SOL     OW  157   0.259   1.118   2.830  0.3676 -0.0932 -0.2186
   53SOL    HW1  158   0.257   1.065   2.918  1.3148  0.6916  0.8443
   53SOL    HW2  159   0.318   1.202   2.850  0.5495  2.0584  0.6523
   54SOL     OW  160   2.620   1.474   1.915 -0.6373 -0.3265  0.0634
   54SOL    HW1  161   2.541   1.515   1.963 -1.4877  0.1922 -0.4205
   54SOL    HW2  162   2.665   1.409   1.980  0.0239  0.3601  2.5013
   55SOL     OW  163   2.190   1.785   0.412  0.1409 -0.6064 -0.3729
   55SOL    HW1  164   2.224   1.772   0.318 -0.7520  1.6857 -0.1661
   55SOL    HW2  165   2.179   1.691   0.456 -1.9640  1.6609  2.9047
   56SOL     OW  166   1.835   3.018   1.428  0.1202 -0.2925 -0.0041
   56SOL    HW1  167   1.923   2.969   1.430  0.2639  1.7095 -0.2052
   56SOL    HW2  168   1.842   0.026   1.487 -0.5772  1.9608  0.6830
   57SOL     OW  169   1.494   1.308   2.798 -0.1295 -0.4180 -0.1610
   57SOL    HW1  170   1.396   1.300   2.765 -2.2430 -1.5507 -1.8219
   57SOL    HW2  171   1.558   1.263   2.736 -2.2598 -0.3457 -1.8531
   58SOL     OW  172   2.518   0.270   1.396 -0.0978 -0.1346  0.4918
   58SOL    HW1  173   2.564   0.355   1.421  0.8344 -3.4944  1.9891
   58SOL    HW2  174   2.586   0.201   1.366 -0.6988  2.0363  1.9913
   59SOL     OW  175   1.317   2.814   0.006  0.2470 -0.2404 -0.4449
   59SOL    HW1  176   1.272   2.891   3.033  1.5864  1.2665  1.5420
   59SOL    HW2  177   1.348   2.841   0.098  1.3028  1.4229  1.7167
   60SOL     OW  178   3.055   2.186   2.820 -0.0846  0.0274  0.1487
   60SOL    HW1  179   2.964   2.188   2.780  3.0813 -0.8520  2.3355
   60SOL    HW2  180   0.004   2.103   2.872  1.2931 -1.1687 -1.9866
   61SOL     OW  181   0.631   2.326   0.721  0.5366 -0.4685  0.1403
   61SOL    HW1  182   0.720   2.354   0.761 -1.2031  2.0564 -0.2515
   61SOL    HW2  183   0.548   2.387   0.739 -1.0945 -1.0072 -0.6216
   62SOL     OW  184   1.947   1.885   2.666  0.1475  0.0894  0.1720
   62SOL    HW1  185   1.873   1.876   2.595  0.6821 -1.8300 -0.6623
   62SOL    HW2  186   1.956   1.794   2.714  1.1725  0.1466 -0.0350
   63SOL     OW  187   1.837   1.890   0.125 -0.5268  0.0738  0.0244
   63SOL    HW1  188   1.775   1.961   0.091 -0.4706 -1.6698  0.4399
   63SOL    HW2  189   1.864   1.818   0.058  0.2932 -3.7535 -0.6625
   64SOL     OW  190   2.034   1.100   0.045  0.2599 -0.2542 -0.2231
   64SOL    HW1  191   2.119   1.129   0.090 -0.5036 -1.5009 -0.6287
   64SOL    HW2  192   2.025   1.150   3.035 -1.2345  1.0945  1.5387
   65SOL     OW  193   2.146   2.114   1.986  0.1668  0.1639  0.2536
   65SOL    HW1  194   2.142   2.055   2.073  1.9395 -0.8269  1.4137
   65SOL    HW2  195   2.169   2.209   1.999  0.0049 -3.8112 -2.8940
   66SOL     OW  196   0.431   0.834   1.363 -0.1346 -0.1867 -0.4433
   66SOL    HW1  197   0.439   0.863   1.266  0.4281  0.1007 -2.0489
   66SOL    HW2  198   0.414   0.921   1.420  0.6846 -0.0945 -0.6167
   67SOL     OW  199   2.270   0.142   3.005  0.0821 -0.6274  0.2065
   67SOL    HW1  200   2.187   0.083   2.997 -1.1437 -0.0756  4.3525
   67SOL    HW2  201   2.249   0.233   2.969  1.6320 -2.4939 -2.6282
   68SOL     OW  202   1.597   1.878   1.381 -0.4663  0.2625 -0.3764
   68SOL    HW1  203   1.679   1.930   1.411 -1.5866  1.4801 -1.3997
   68SOL    HW2  204   1.540   1.930   1.311 -2.7437  0.9164 -1.0824
   69SOL     OW  205   0.024   2.827   0.115 -0.2653  0.1773  0.7759
   69SOL    HW1  206   0.027   2.753   0.044 -1.4533 -1.1335  0.8066
   69SOL    HW2  207   3.022   2.822   0.178 -0.4887 -1.0416  0.5896
   70SOL     OW  208   0.450   0.703   1.882 -0.8698  0.1225  0.2005
   70SOL    HW1  209   0.354   0.721   1.908 -0.0029  1.9794 -1.7855
   70SOL    HW2  210   0.457   0.677   1.783  1.4902 -0.5878 -0.1056
   71SOL     OW  211   0.915   1.065   2.816 -0.1486  0.0226 -0.4927
   71SOL    HW1  212   1.005   1.074   2.864  0.6102  2.4542  1.0336
   71SOL    HW2  213   0.917   0.964   2.790 -0.4927 -2.9510 -4.0200
   72SOL     OW  214   2.822   1.656   1.874 -0.7270  0.1610 -0.4468
   72SOL    HW1  215   2.749   1.593   1.909 -0.2107 -0.3752  0.3162
   72SOL    HW2  216   2.885   1.604   1.809  0.6977 -0.9399  2.1112
   73SOL     OW  217   1.537   1.795   0.164  0.6056 -0.4790  0.2970
   73SOL    HW1  218   1.489   1.770   0.076  0.5562 -2.0145  0.5323
   73SOL    HW2  219   1.559   1.718   0.224  0.5623  1.0879  0.3757
   74SOL     OW  220   2.305   2.996   2.827 -0.2906  0.6132  0.5887
   74SOL    HW1  221   2.281   3.019   2.732 -2.1282 -2.4597  1.0874
   74SOL    HW2  222   2.327   3.075   2.882 -0.8281 -0.9157 -1.6601
   75SOL     OW  223   1.457   2.306   0.994  0.1915  0.1694  0.1406
   75SOL    HW1  224   1.378   2.347   0.945  1.5797  1.8422 -0.8247
   75SOL    HW2  225   1.508   2.234   0.942 -0.1571  1.5269  0.4328
   76SOL     OW  226   2.654   2.045   2.161 -0.2041  0.0447  0.0725
   76SOL    HW1  227   2.685   1.970   2.096 -1.6151 -3.9059 -0.0362
   76SOL    HW2  228   2.732   2.095   2.201  0.6169  1.8925 -2.2281
   77SOL     OW  229   0.482   2.885   1.939 -0.0766  0.1877 -0.3416
   77SOL    HW1  230   0.552   2.927   1.882  0.2036 -2.1620 -0.5803
   77SOL    HW2  231   0.517   2.872   2.031  0.2473  1.4463 -1.0728
   78SOL     OW  232   2.172   0.785   0.312 -0.7102  0.3833 -0.2644
   78SOL    HW1  233   2.125   0.801   0.223 -1.8668  1.0472  1.1876
   78SOL    HW2  234   2.119   0.713   0.361 -1.9661 -0.7244 -0.0068
   79SOL     OW  235   0.129   1.464   2.425  0.0411 -0.1505 -0.6286
   79SOL    HW1  236   0.143   1.453   2.527 -0.1268 -0.7871 -1.3640
   79SOL    HW2  237   0.152   1.379   2.373 -2.9467 -0.1010  0.0757
   80SOL     OW  238   1.916   1.708   1.863  0.2696 -0.2227 -0.4526
   80SOL    HW1  239   1.841   1.645   1.831 -0.3509 -0.0538 -0.1997
   80SOL    HW2  240   1.891   1.800   1.827  0.0782 -1.2434 -3.6093
   81SOL     OW  241   1.892   1.542   2.407 -0.7491 -0.7262  0.2974
   81SOL    HW1  242   1.890   1.454   2.357  0.2837 -0.0399 -2.0139
   81SOL    HW2  243   1.871   1.615   2.336  2.0341 -1.1015 -1.5614
   82SOL     OW  244   1.495   1.497   1.954  0.6820  0.0452  0.0933
   82SOL    HW1  245   1.448   1.589   1.936  0.0732  2.6652 -0.8690
   82SOL    HW2  246   1.565   1.477   1.882  0.9029  0.3675 -0.4481
   83SOL     OW  247   0.356   0.398   0.378 -0.1335 -0.2402  0.6121
   83SOL    HW1  248   0.424   0.383   0.456  3.0346 -0.9699  1.9957
   83SOL    HW2  249   0.265   0.412   0.417 -0.3625  0.5892  0.6044
   84SOL     OW  250   0.090   0.450   0.456  0.2541  0.3036 -0.1676
   84SOL    HW1  251   0.002   0.411   0.423  0.8263  0.2169  3.6264
   84SOL    HW2  252   0.076   0.541   0.496  2.5044 -1.1246  0.6173
   85SOL     OW  253   2.275   2.385   1.335  0.8133  0.0708 -0.6268
   85SOL    HW1  254   2.206   2.380   1.410  2.3790  1.7057 -0.9387
   85SOL    HW2  255   2.237   2.391   1.243  1.8498  0.1259  2.1643
   86SOL     OW  256   0.272   0.445   1.597  0.0014  0.2694  0.4596
   86SOL    HW1  257   0.321   0.366   1.634 -1.9821  1.5172 -1.2753
   86SOL    HW2  258   0.265   0.427   1.492 -1.7074  0.2937 -1.9041
   87SOL     OW  259   0.273   2.591   1.868 -0.3958 -0.2981 -0.0718
   87SOL    HW1  260   0.360   2.564   1.906  0.5414 -1.4263 -1.1520
   87SOL    HW2  261   0.213   2.512   1.836  1.0511 -0.7233 -0.5321
   88SOL     OW  262   0.058   1.953   2.939  0.4056  0.0508  0.3406
   88SOL    HW1  263   0.042   1.855   2.938  1.6741  2.6877  2.0054
   88SOL    HW2  264   0.154   1.977   2.965  1.6323 -2.0597  0.5571
   89SOL     OW  265   1.028   0.820   0.607 -0.0252 -0.1232 -0.0003
   89SOL    HW1  266   1.112   0.763   0.578  2.8291 -2.2468 -0.0033
   89SOL    HW2  267   0.946   0.769   0.578  0.3161  0.6180 -0.5961
   90SOL     OW  268   0.156   1.588   2.028  0.0270 -0.1788 -0.3955
   90SOL    HW1  269   0.168   1.634   1.940 -0.2802 -1.6265  3.4899
   90SOL    HW2  270   0.181   1.641   2.110  0.7346 -0.0823 -0.3725
   91SOL     OW  271   1.607   0.751   0.801  0.5347 -0.5111  0.4424
   91SOL    HW1  272   1.509   0.747   0.772 -0.8270 -0.3379 -3.3769
   91SOL    HW2  273   1.637   0.653   0.812 -0.3290 -0.6114 -0.7201
   92SOL     OW  274   2.245   1.295   0.797  0.2935  0.3977 -0.0950
   92SOL    HW1  275   2.273   1.201   0.772 -1.6681  3.2019 -2.6542
   92SOL    HW2  276   2.310   1.346   0.854 -2.7305 -1.1063  0.3607
   93SOL     OW  277   0.131   1.100   2.557  0.0626 -0.0049  0.6038
   93SOL    HW1  278   0.193   1.122   2.635  1.3079  0.4858 -0.1266
   93SOL    HW2  279   0.163   1.148   2.475 -0.6861 -3.3669  1.8399
   94SOL     OW  280   1.926   2.214   2.663 -0.0826  0.1173 -0.4735
   94SOL    HW1  281   1.966   2.150   2.733  1.1285 -0.1169 -0.6316
   94SOL    HW2  282   1.953   2.186   2.571 -0.3038  1.8371 -0.8425
   95SOL     OW  283   0.200   0.134   1.322 -0.4471  0.2065  0.1102
   95SOL    HW1  284   0.294   0.103   1.355  0.9248  2.5776  0.0020
   95SOL    HW2  285   0.122   0.106   1.385  0.7191  2.6711  1.0006
   96SOL     OW  286   2.973   2.725   1.132 -0.1073 -0.0900  0.2726
   96SOL    HW1  287   2.901   2.735   1.064  1.1332  1.8758  0.0871
   96SOL    HW2  288   2.962   2.791   1.207  0.0950  0.2525 -1.3547
   97SOL     OW  289   2.650   0.667   1.513  0.3871 -0.5299  0.1568
   97SOL    HW1  290   2.620   0.762   1.525  0.5510 -1.1507 -0.4393
   97SOL    HW2  291   2.609   0.594   1.574  1.4854  1.4809 -1.4670
   98SOL     OW  292   1.705   2.512   1.836 -0.2587  0.6182  0.1526
   98SOL    HW1  293   1.714   2.414   1.814 -1.6340  1.0511  0.5271
   98SOL    HW2  294   1.613   2.548   1.824 -0.6853 -1.1123 -2.4557
   99SOL     OW  295   0.417   3.070   1.628 -0.5104 -0.2043  0.5005
   99SOL    HW1  296   0.346   0.033   1.687  0.4991 -1.0224  2.1420
   99SOL    HW2  297   0.401   2.970   1.618  1.1385 -1.4915  0.0514
  100SOL     OW  298   1.824   0.234   2.562 -0.4296 -0.1591 -0.1682
  100SOL    HW1  299   1.764   0.241   2.645  0.1544 -1.9017 -1.1798
  100SOL    HW2  300   1.917   0.268   2.578  0.7662  0.5513  2.0410
  101SOL     OW  301   2.950   0.452   2.366  0.6110  0.2538  0.4332
  101SOL    HW1  302   2.967   0.375   2.302 -0.1310 -4.1473  0.6233
  101SOL    HW2  303   2.910   0.533   2.320  1.9233 -0.7195  0.9221
  102SOL     OW  304   0.475   0.651   1.621  0.2447 -0.1241 -0.3592
  102SOL    HW1  305   0.454   0.723   1.548  0.1964  2.2290 -1.4705
  102SOL    HW2  306   0.421   0.567   1.607  2.1050  0.3700  1.0198
  103SOL     OW  307   0.829   0.457   2.787 -0.1908 -0.2371  0.1635
  103SOL    HW1  308   0.878   0.407   2.713  1.7097  1.3258 -3.6810
  103SOL    HW2  309   0.894   0.491   2.856 -0.8605 -0.2042 -1.8022
  104SOL     OW  310   0.602   0.881   2.322 -0.4789 -0.2436  0.1336
  104SOL    HW1  311   0.599   0.983   2.335 -1.2423 -1.2529 -1.4889
  104SOL    HW2  312   0.613   0.852   2.222  0.0325  0.6674 -2.7004
  105SOL     OW  313   2.443   2.006   1.351  0.0068 -0.0053 -0.1992
  105SOL    HW1  314   2.400   2.075   1.416 -0.5799  0.6637  3.1762
  105SOL    HW2  315   2.393   2.005   1.258 -0.5304  1.1669 -0.7572
  106SOL     OW  316   1.599   2.936   0.592  0.1021 -0.3393  0.4730
  106SOL    HW1  317   1.587   3.016   0.533  3.9014 -1.5201 -0.1053
  106SOL    HW2  318   1.517   2.879   0.582  2.2494  1.6652 -1.0162
  107SOL     OW  319   1.871   2.354   1.202  0.0955 -0.4632 -0.3660
  107SOL    HW1  320   1.860   2.256   1.199  0.4536  1.1630 -1.2988
  107SOL    HW2  321   1.779   2.399   1.198  0.3150 -1.3175 -1.0563
  108SOL     OW  322   0.053   2.332   1.229  0.2025  0.1663  0.1800
  108SOL    HW1  323   0.005   2.242   1.215 -1.6202 -0.2218 -0.9096
  108SOL    HW2  324   0.048   2.385   1.144 -1.3211 -3.2105  1.9546
  109SOL     OW  325   2.324   2.441   0.714 -0.0521 -0.0356 -0.3076
  109SOL    HW1  326   2.305   2.437   0.615 -1.2247  0.7767  2.8850
  109SOL    HW2  327   2.241   2.472   0.767  1.5855 -0.6159 -1.4928
  110SOL     OW  328   1.153   1.772   1.774 -0.5456 -0.1961 -0.1857
  110SOL    HW1  329   1.085   1.699   1.760  1.7638 -1.0123  1.4721
  110SOL    HW2  330   1.104   1.863   1.780 -1.4369  3.3245 -1.7950
  111SOL     OW  331   1.840   2.379   2.224 -0.3855 -0.1139  0.2723
  111SOL    HW1  332   1.900   2.319   2.164  1.4643 -3.1021 -2.1049
  111SOL    HW2  333   1.901   2.418   2.298  4.7965 -1.4783  3.4682
  112SOL     OW  334   1.276   1.972   3.021 -0.3608 -0.1530 -0.4446
  112SOL    HW1  335   1.291   1.873   3.039 -0.3370  0.5653  2.0829
  112SOL    HW2  336   1.358   2.012   2.974  0.2877  0.4305 -1.5663
  113SOL     OW  337   1.705   1.910   1.800  0.0282  0.1478 -0.0395
  113SOL    HW1  338   1.680   1.824   1.750 -1.2220  1.0621  0.5841
  113SOL    HW2  339   1.644   1.934   1.878  0.8639 -0.1753  2.0351
  114SOL     OW  340   0.235   1.247   1.286  0.1317 -0.2226  0.2858
  114SOL    HW1  341   0.262   1.239   1.187 -0.5570 -0.4198  1.2014
  114SOL    HW2  342   0.136   1.250   1.306  0.4807 -0.3961 -0.1234
  115SOL     OW  343   0.663   0.772   0.241 -0.1429  0.5044 -0.0372
  115SOL    HW1  344   0.592   0.697   0.242 -2.1219 -2.2355  0.0826
  115SOL    HW2  345   0.696   0.789   0.148  1.0745  0.8467  0.2899
  116SOL     OW  346   2.511   1.487   2.194  0.1650 -0.3325  0.3193
  116SOL    HW1  347   2.411   1.508   2.208 -0.3956  0.5059  1.2718
  116SOL    HW2  348   2.539   1.433   2.275 -0.1200  0.0036 -0.1075
  117SOL     OW  349   3.044   2.512   0.339 -0.1380 -0.3609 -0.2071
  117SOL    HW1  350   0.032   2.570   0.395 -0.4076 -0.5019 -1.4458
  117SOL    HW2  351   3.009   2.431   0.391 -1.2913  1.9256 -1.7277
  118SOL     OW  352   0.773   1.831   2.545  0.0275  0.6466  0.2636
  118SOL    HW1  353   0.742   1.748   2.596 -0.1330  1.4525 -1.3925
  118SOL    HW2  354   0.721   1.841   2.460  1.9309  0.9839  0.2179
  119SOL     OW  355   0.820   2.232   0.440  0.3454 -0.2795  0.4741
  119SOL    HW1  356   0.728   2.208   0.481  1.6888  1.6776  0.3824
  119SOL    HW2  357   0.838   2.162   0.366 -1.0515  2.1499 -0.7441
  120SOL     OW  358   1.526   0.591   0.152 -0.3532 -0.0953 -0.6669
  120SOL    HW1  359   1.585   0.507   0.148  0.3995  0.0420  0.6642
  120SOL    HW2  360   1.468   0.606   0.072  1.6949 -0.0427  1.6061
  121SOL     OW  361   1.168   2.306   0.912 -0.3360  0.0825 -0.2669
  121SOL    HW1  362   1.112   2.289   0.997 -1.0006 -3.0376  4.6072
  121SOL    HW2  363   1.169   2.224   0.852  2.3711  0.9557 -0.3769
  122SOL     OW  364   2.632   2.148   1.911  0.3601 -0.0289  0.3934
  122SOL    HW1  365   2.614   2.119   2.009  0.0315 -2.0634  3.2201
  122SOL    HW2  366   2.587   2.081   1.840  2.1028 -3.1413  0.7360
  123SOL     OW  367   1.232   1.704   0.828  0.2165 -0.5226 -0.1676
  123SOL    HW1  368   1.246   1.802   0.819 -1.1771 -0.3437  0.1178
  123SOL    HW2  369   1.241   1.671   0.921  1.1745 -1.8639 -1.2362
  124SOL     OW  370   2.996   0.764   0.460 -0.7723 -0.3035 -0.7937
  124SOL    HW1  371   2.925   0.822   0.503  1.5156 -0.8626 -0.6144
  124SOL    HW2  372   3.003   0.769   0.362 -0.5468 -0.2818 -1.0200
  125SOL     OW  373   0.255   0.287   0.123 -0.2427 -0.5557  0.2987
  125SOL    HW1  374   0.270   0.334   0.209 -0.9107  1.4375 -0.9628
  125SOL    HW2  375   0.299   0.338   0.048  1.2146  0.3182  1.5322
  126SOL     OW  376   0.144   1.780   0.729  0.0145  0.1912  0.6066
  126SOL    HW1  377   0.199   1.854   0.690 -3.9764 -2.4490  0.8811
  126SOL    HW2  378   0.048   1.812   0.742 -3.1140  1.2670 -0.1786
  127SOL     OW  379   1.213   2.513   1.530 -0.5518 -0.6601  0.3391
  127SOL    HW1  380   1.143   2.456   1.575  0.1855  0.1156  1.2730
  127SOL    HW2  381   1.167   2.563   1.454 -2.0217  1.1145 -1.6282
  128SOL     OW  382   1.260   1.395   0.112  0.0774  0.1245 -0.3455
  128SOL    HW1  383   1.297   1.473   0.062 -0.7921 -0.7314  0.8778
  128SOL    HW2  384   1.320   1.315   0.110 -1.0181 -1.4015  1.1408
  129SOL     OW  385   1.863   1.989   1.410  0.1843  0.2890 -0.2524
  129SOL    HW1  386   1.871   2.023   1.311  0.7691 -2.3110 -1.3874
  129SOL    HW2  387   1.827   2.064   1.466  1.7104 -1.3154 -1.2290
  130SOL     OW  388   1.946   1.960   1.690  0.1391  0.4272  0.0371
  130SOL    HW1  389   1.850   1.948   1.723 -0.8907  0.8312 -0.3735
  130SOL    HW2  390   1.955   1.941   1.589 -0.2134  0.8127  0.6468
  131SOL     OW  391   2.813   2.620   2.450 -0.1382  0.7105  0.1835
  131SOL    HW1  392   2.812   2.721   2.451 -1.4879  0.2230  0.3264
  131SOL    HW2  393   2.759   2.591   2.535 -0.8919 -1.2544  3.9900
  132SOL     OW  394   3.060   2.052   0.526  1.1520  0.7353  0.9642
  132SOL    HW1  395   0.077   2.037   0.553 -2.2844 -1.8929 -2.5046
  132SOL    HW2  396   2.995   1.991   0.575 -1.4088 -1.7188 -1.2209
  133SOL     OW  397   0.384   0.399   2.015  0.0176 -0.9641  0.5686
  133SOL    HW1  398   0.479   0.438   1.997  1.8105 -0.4562  0.5142
  133SOL    HW2  399   0.352   0.422   2.113 -1.0024 -0.5172  3.4855
  134SOL     OW  400   2.849   1.851   0.215  0.2956  0.3761 -0.9542
  134SOL    HW1  401   2.943   1.875   0.242  0.9670  0.7097 -0.2151
  134SOL    HW2  402   2.789   1.877   0.296 -0.6432  3.4736  0.1807
  135SOL     OW  403   1.712   0.958   2.640  0.7512 -0.3736 -0.4522
  135SOL    HW1  404   1.617   0.937   2.672 -1.5642  0.4165  1.9879
  135SOL    HW2  405   1.712   1.052   2.604  0.6916 -0.8270 -1.7465
  136SOL     OW  406   2.435   1.729   0.985  0.1072  0.2023 -0.0913
  136SOL    HW1  407   2.397   1.725   0.889 -0.1630  1.4874 -0.2267
  136SOL    HW2  408   2.514   1.796   0.996  5.0785 -0.4088 -0.6361
  137SOL     OW  409   2.769   1.629   0.710 -0.2702 -0.4545 -0.1447
  137SOL    HW1  410   2.831   1.584   0.642  0.0131 -1.3736 -2.9717
  137SOL    HW2  411   2.673   1.612   0.683  1.9705  1.6099  0.9355
  138SOL     OW  412   2.777   0.394   0.963 -0.3911  0.1350  0.2876
  138SOL    HW1  413   2.687   0.433   0.935  0.3743 -2.9735 -0.5331
  138SOL    HW2  414   2.840   0.363   0.887  0.0649 -0.6694 -0.0035
  139SOL     OW  415   0.003   2.654   2.970  0.1368  0.1859  0.1683
  139SOL    HW1  416   0.006   2.554   2.984  0.7408  0.1652 -1.6021
  139SOL    HW2  417   3.041   2.681   2.882 -1.0911  0.0333 -0.8163
  140SOL     OW  418   0.713   1.875   1.869  0.6193  0.2013  0.0874
  140SOL    HW1  419   0.775   1.827   1.934 -4.5333 -0.3472  1.0831
  140SOL    HW2  420   0.652   1.812   1.823  3.3785  1.1622 -1.3217
  141SOL     OW  421   1.479   1.921   0.797  0.0627  0.0923 -0.0572
  141SOL    HW1  422   1.511   1.869   0.716 -0.2260 -0.1171  0.4710
  141SOL    HW2  423   1.482   1.864   0.881  1.7293 -1.2123  2.6171
  142SOL     OW  424   1.054   0.790   1.131 -0.5676  0.1035  0.1579
  142SOL    HW1  425   1.005   0.811   1.044  0.7793  1.2806  0.9750
  142SOL    HW2  426   1.155   0.804   1.114  1.4513  0.7616  0.7207
  143SOL     OW  427   0.625   1.306   3.075  0.3085 -0.3527 -0.5866
  143SOL    HW1  428   0.587   1.240   0.071 -0.1452  0.9147 -0.3973
  143SOL    HW2  429   0.576   1.295   2.990 -0.2915 -0.0933  1.2995
  144SOL     OW  430   2.090   2.755   0.909  0.4284 -0.3908 -0.0924
  144SOL    HW1  431   2.088   2.817   0.827  0.7331 -1.2474 -3.4678
  144SOL    HW2  432   2.024   2.785   0.981  0.6098 -1.2870 -2.7278
  145SOL     OW  433   2.272   0.764   2.542 -0.0586 -0.2976  0.2485
  145SOL    HW1  434   2.322   0.799   2.625  0.9122  1.5670  0.1391
  145SOL    HW2  435   2.342   0.759   2.470 -0.1432  1.1887  1.7134
  146SOL     OW  436   2.965   2.466   0.727  0.0042 -0.0221 -0.2387
  146SOL    HW1  437   2.905   2.466   0.807 -0.0306 -0.1681 -0.4408
  146SOL    HW2  438   2.987   2.565   0.701  2.2756 -0.2690  3.1969
  147SOL     OW  439   1.271   0.906   2.426 -0.0517  0.2097  0.6090
  147SOL    HW1  440   1.221   0.992   2.410  2.8074 -1.7481  0.3886
  147SOL    HW2  441   1.308   0.870   2.339  1.2091 -2.5139  2.3541
  148SOL     OW  442   1.145   0.465   2.474  0.1747  0.4618 -0.1046
  148SOL    HW1  443   1.139   0.477   2.375  0.1062 -0.7511 -0.9451
  148SOL    HW2  444   1.193   0.383   2.511 -1.0569 -1.3199 -0.6199
  149SOL     OW  445   1.975   3.002   2.084 -0.5091 -0.4883 -0.1709
  149SOL    HW1  446   1.917   2.988   2.003 -0.8114  0.5834  2.1396
  149SOL    HW2  447   1.978   2.920   2.149  0.4694 -2.3835 -2.5993
  150SOL     OW  448   2.434   2.566   3.052  0.5319 -0.2260 -0.0019
  150SOL    HW1  449   2.431   2.630   2.974  2.0925  2.3965  2.2100
  150SOL    HW2  450   2.533   2.546   0.004 -1.2287  1.4308  2.8824
  151SOL     OW  451   0.395   1.335   2.919  0.8376  0.0564  0.3100
  151SOL    HW1  452   0.395   1.325   3.021 -0.7080 -0.9079  0.5774
  151SOL    HW2  453   0.400   1.431   2.896  1.9508 -1.0962  0.5994
  152SOL     OW  454   3.060   0.172   1.147 -0.0841 -1.0032  0.7545
  152SOL    HW1  455   0.073   0.173   1.199  3.2769  1.6619  0.5881
  152SOL    HW2  456   3.064   0.263   1.101  2.9833  0.1275 -0.0167
  153SOL     OW  457   2.331   0.045   1.648 -0.1541 -0.0426 -0.1382
  153SOL    HW1  458   2.290   3.044   1.702  0.0044 -2.4487  0.4196
  153SOL    HW2  459   2.281   0.068   1.565  1.1525 -0.8561 -0.4556
  154SOL     OW  460   1.951   0.419   2.130 -0.3938  0.3453 -0.3477
  154SOL    HW1  461   2.004   0.492   2.177 -3.2935 -0.0795  1.4559
  154SOL    HW2  462   1.851   0.434   2.116  2.0985 -0.1143  0.9147
  155SOL     OW  463   0.065   1.726   0.319 -0.4227  0.2375  0.2880
  155SOL    HW1  464   0.124   1.792   0.265  0.1403 -1.9546  0.9412
  155SOL    HW2  465   0.108   1.714   0.412  1.7478  0.8241 -0.0565
  156SOL     OW  466   2.828   1.485   3.070  0.4459  0.1453  0.5391
  156SOL    HW1  467   2.863   1.565   3.014  2.7123  0.2074 -0.9531
  156SOL    HW2  468   2.848   1.500   0.091  0.8463  0.7548 -1.3105
  157SOL     OW  469   0.516   0.235   0.753 -0.6583  0.3080  0.7539
  157SOL    HW1  470   0.437   0.175   0.731  0.0625 -1.4929 -0.1344
  157SOL    HW2  471   0.556   0.226   0.842 -0.8720  1.3112 -5.5124
  158SOL     OW  472   2.172   0.855   1.525 -0.5909 -0.0861  0.2103
  158SOL    HW1  473   2.203   0.947   1.557  1.2404  0.1306 -0.0036
  158SOL    HW2  474   2.229   0.781   1.558  1.2814 -0.4999 -2.9403
  159SOL     OW  475   0.104   0.241   0.627  0.3195 -0.0894 -0.4084
  159SOL    HW1  476   0.000   0.217   0.625 -2.8474 -2.0961 -1.5618
  159SOL    HW2  477   0.123   0.320   0.564  1.0648  1.0286 -1.0095
  160SOL     OW  478   2.107   2.168   1.709 -0.0041  0.2048 -0.3670
  160SOL    HW1  479   2.118   2.164   1.811  0.0036  0.2622 -1.3822
  160SOL    HW2  480   2.054   2.084   1.671  0.8603 -3.7126  0.1875
  161SOL     OW  481   0.117   0.839   2.475 -0.5344 -0.2098 -0.0354
  161SOL    HW1  482   0.154   0.774   2.548 -0.4976 -1.6822  2.5081
  161SOL    HW2  483   0.110   0.937   2.501  1.6722  1.7996 -0.7304
  162SOL     OW  484   0.680   2.809   1.654  0.2461 -0.4740 -0.5540
  162SOL    HW1  485   0.704   2.894   1.704 -0.2061 -0.3900  0.3564
  162SOL    HW2  486   0.752   2.781   1.591  0.4258 -1.4477 -0.6548
  163SOL     OW  487   2.755   0.152   2.426 -0.2477  0.7744  0.4661
  163SOL    HW1  488   2.692   0.077   2.392 -0.7312  1.5653  1.2162
  163SOL    HW2  489   2.821   0.176   2.348 -0.8327 -0.8851 -0.2501
  164SOL     OW  490   2.219   1.717   0.165 -0.5833 -0.0883 -0.2140
  164SOL    HW1  491   2.215   1.783   0.087  0.4748  0.3691 -2.3557
  164SOL    HW2  492   2.264   1.631   0.134  1.2785 -2.2594 -0.5893
  165SOL     OW  493   3.055   0.112   1.491 -0.3510 -0.1952  0.1238
  165SOL    HW1  494   0.030   0.077   1.569  1.0665  0.5669 -1.6872
  165SOL    HW2  495   2.956   0.129   1.512  0.4003  0.2082 -1.2565
  166SOL     OW  496   2.026   0.804   0.669 -0.4053  0.2313  0.2825
  166SOL    HW1  497   2.061   0.882   0.723  0.1065 -0.3240  0.8065
  166SOL    HW2  498   1.960   0.836   0.600 -0.6586 -0.3368  0.2480
  167SOL     OW  499   2.684   1.021   2.969  0.5533 -0.0686  0.2802
  167SOL    HW1  500   2.626   0.942   3.000  1.5962 -1.2860  0.0370
  167SOL    HW2  501   2.757   1.051   3.035  1.1449  3.1562  0.8227
  168SOL     OW  502   1.699   0.248   2.817 -0.5570  0.0900 -0.4406
  168SOL    HW1  503   1.663   0.333   2.856 -2.4694 -2.4523  1.2830
  168SOL    HW2  504   1.730   0.184   2.894 -0.2410 -2.5773 -0.8282
  169SOL     OW  505   0.304   1.609   0.887 -0.1234 -0.7312 -0.6109
  169SOL    HW1  506   0.249   1.553   0.953  2.1270 -3.1628 -0.8477
  169SOL    HW2  507   0.256   1.692   0.854 -1.0937 -1.4932  0.8216
  170SOL     OW  508   3.048   0.769   0.889 -0.1617 -0.8292 -0.5321
  170SOL    HW1  509   0.011   0.783   0.982  1.0603  2.3963  0.2727
  170SOL    HW2  510   0.033   0.815   0.822 -0.9862  0.5226 -0.2532
  171SOL     OW  511   2.399   1.975   2.112  0.1915  0.3341 -0.3067
  171SOL    HW1  512   2.424   1.897   2.050  4.3093  2.2323 -1.0904
  171SOL    HW2  513   2.484   2.015   2.154  1.7047  1.1977  3.5541
  172SOL     OW  514   0.408   1.950   1.305 -0.0234  0.0937  0.6248
  172SOL    HW1  515   0.421   2.025   1.235  0.7227  1.6037  0.1272
  172SOL    HW2  516   0.501   1.936   1.351  0.3436  1.3974  1.9597
  173SOL     OW  517   1.511   1.549   2.890 -0.3181  0.6629  0.4964
  173SOL    HW1  518   1.494   1.452   2.865 -1.1211  2.2913 -0.4978
  173SOL    HW2  519   1.523   1.606   2.805  0.4648  1.7104 -2.4293
  174SOL     OW  520   1.248   0.488   2.809 -0.0019 -0.2985  0.2493
  174SOL    HW1  521   1.256   0.396   2.765  0.6980 -1.1089 -0.9035
  174SOL    HW2  522   1.310   0.557   2.758  0.1318  2.3776 -0.1115
  175SOL     OW  523   1.314   1.408   1.293  0.2607  0.2345  0.2003
  175SOL    HW1  524   1.318   1.455   1.382  0.8284 -3.8189  1.5269
  175SOL    HW2  525   1.249   1.332   1.290 -1.6700  1.0831  1.1702
  176SOL     OW  526   1.252   0.058   0.510  0.1672  0.9894  0.2280
  176SOL    HW1  527   1.194   0.108   0.446 -0.8131  0.6001 -1.2573
  176SOL    HW2  528   1.318   0.125   0.553  2.7161  2.3931 -0.8656
  177SOL     OW  529   0.326   0.744   0.187  0.2479  0.4237 -0.5186
  177SOL    HW1  530   0.238   0.688   0.182 -4.2910  0.8125 -0.3775
  177SOL    HW2  531   0.402   0.680   0.160 -1.4881 -0.1372 -1.0830
  178SOL     OW  532   2.498   2.463   2.334  0.1078 -0.1695 -0.1793
  178SOL    HW1  533   2.569   2.417   2.382 -1.7475  1.4594 -1.2500
  178SOL    HW2  534   2.490   2.439   2.234  2.0255  2.0150 -3.6272
  179SOL     OW  535   2.839   0.120   2.687  0.0327 -0.0392  0.3107
  179SOL    HW1  536   2.875   0.213   2.706  0.3546  1.4493  0.8135
  179SOL    HW2  537   2.806   0.110   2.591 -1.3119 -3.0004  0.3166
  180SOL     OW  538   2.083   0.399   1.026  0.0043  0.0332 -0.2405
  180SOL    HW1  539   2.169   0.396   1.084  1.3267 -2.4339  0.5243
  180SOL    HW2  540   2.044   0.494   1.027 -0.1657  0.0350  1.7652
  181SOL     OW  541   2.124   0.947   2.437  0.1868  0.0840 -0.8123
  181SOL    HW1  542   2.180   0.863   2.458  1.1070  0.3190  0.5112
  181SOL    HW2  543   2.025   0.932   2.434  2.6801  1.1944  0.1808
  182SOL     OW  544   2.542   2.411   2.062  0.2187 -0.4768  0.1834
  182SOL    HW1  545   2.629   2.466   2.060  2.3102  3.6723  2.5461
  182SOL    HW2  546   2.556   2.313   2.034  1.7436  0.9570 -1.8419
  183SOL     OW  547   2.038   0.642   1.796 -0.5811  0.7381 -0.0963
  183SOL    HW1  548   2.049   0.545   1.826  2.5612 -1.1384  0.8126
  183SOL    HW2  549   2.122   0.669   1.746 -1.3397  1.0286  1.1131
  184SOL     OW  550   0.129   1.461   1.065 -0.0784  0.1282  0.4586
  184SOL    HW1  551   0.121   1.367   1.033  2.5272  2.0453  1.9935
  184SOL    HW2  552   0.118   1.470   1.165  1.7472 -0.7266 -0.0921
  185SOL     OW  553   2.301   0.045   0.774  0.1371 -0.4344 -0.6748
  185SOL    HW1  554   2.345   0.128   0.807  0.4999 -2.0839 -2.7737
  185SOL    HW2  555   2.363   3.041   0.781 -3.2904  1.0768 -0.4359
  186SOL     OW  556   2.379   2.529   2.696  0.0266 -0.3208  0.4535
  186SOL    HW1  557   2.402   2.608   2.755  1.7751  0.2227 -0.8050
  186SOL    HW2  558   2.468   2.482   2.676 -2.2427  0.9173  6.5546
  187SOL     OW  559   0.358   1.471   0.407  0.0313  0.4127  0.1228
  187SOL    HW1  560   0.315   1.377   0.402 -0.2915 -1.1758  0.2303
  187SOL    HW2  561   0.392   1.481   0.501 -0.9246 -0.7327 -2.7227
  188SOL     OW  562   2.031   1.280   1.168  0.1120 -0.0751  0.0727
  188SOL    HW1  563   2.098   1.342   1.125  2.2361 -1.0323 -0.4631
  188SOL    HW2  564   1.940   1.316   1.186 -0.6407  0.1407 -1.4222
  189SOL     OW  565   0.306   0.846   2.273  0.3496 -0.1192  0.1741
  189SOL    HW1  566   0.401   0.874   2.313  1.0436 -0.0006  0.0767
  189SOL    HW2  567   0.237   0.835   2.346  0.2633  0.9281  1.2132
  190SOL     OW  568   1.929   0.860   1.918  0.3462  0.3107  0.1128
  190SOL    HW1  569   1.898   0.929   1.847 -0.6672  0.1203 -2.3482
  190SOL    HW2  570   1.969   0.773   1.884 -1.1439  0.2530  0.0002
  191SOL     OW  571   0.904   0.230   2.180  0.0572  0.1242 -0.1877
  191SOL    HW1  572   0.877   0.148   2.123 -2.9685 -0.9839  0.6007
  191SOL    HW2  573   0.964   0.198   2.258  0.6222 -1.0596 -0.4241
  192SOL     OW  574   0.986   1.988   1.774  0.2516  0.7552  0.7704
  192SOL    HW1  575   0.975   2.063   1.706  0.6553  3.2789 -1.6518
  192SOL    HW2  576   0.949   2.018   1.867  0.3312  0.0077  2.7235
  193SOL     OW  577   1.329   0.278   0.844 -0.2260  0.0111  0.4182
  193SOL    HW1  578   1.265   0.354   0.867  1.3140 -1.5316 -0.1177
  193SOL    HW2  579   1.272   0.193   0.855 -1.7351  2.4687  0.3915
  194SOL     OW  580   0.995   2.171   1.579  0.1111 -0.1511  0.2582
  194SOL    HW1  581   0.918   2.181   1.515  1.6979 -1.3362 -0.8926
  194SOL    HW2  582   1.076   2.129   1.539 -1.5247 -1.3076 -2.0693
  195SOL     OW  583   1.655   0.396   0.455  0.5908  0.2819 -0.2331
  195SOL    HW1  584   1.678   0.492   0.469 -0.5571  0.8945 -0.0224
  195SOL    HW2  585   1.733   0.330   0.475 -0.2592  0.9844  4.0770
  196SOL     OW  586   0.826   1.476   2.115  0.0762 -0.2982  0.2537
  196SOL    HW1  587   0.904   1.423   2.080 -0.3825  2.1447  0.4396
  196SOL    HW2  588   0.850   1.513   2.208  0.0121  0.9780 -0.8249
  197SOL     OW  589   0.786   0.683   1.644  0.2509 -0.4527  0.0216
  197SOL    HW1  590   0.802   0.762   1.589  2.9191  0.4535  2.6548
  197SOL    HW2  591   0.694   0.641   1.620 -2.9139  1.7786  3.5420
  198SOL     OW  592   0.699   0.656   0.884  0.1239 -0.3500 -0.0989
  198SOL    HW1  593   0.786   0.649   0.834 -1.5858  0.8846  0.2426
  198SOL    HW2  594   0.621   0.634   0.821 -0.2253 -0.3858  0.2402
  199SOL     OW  595   0.500   2.345   1.585  0.3118 -0.0161  0.3817
  199SOL    HW1  596   0.478   2.331   1.683 -0.2530  0.6671 -0.9786
  199SOL    HW2  597   0.441   2.287   1.520 -2.1455 -0.6547  0.2898
  200SOL     OW  598   1.688   1.212   2.090 -0.3457 -0.1152 -0.2876
  200SOL    HW1  599   1.672   1.253   2.002 -1.0112 -1.2855  0.5837
  200SOL    HW2  600   1.687   1.110   2.085  0.7368 -3.9391  0.3760
  201SOL     OW  601   0.656   2.122   1.786  0.8080  0.0368 -0.5650
  201SOL    HW1  602   0.685   2.028   1.806 -0.6418  1.6373 -1.0351
  201SOL    HW2  603   0.566   2.113   1.733 -2.1723 -2.5396 -1.7796
  202SOL     OW  604   1.306   2.934   0.243 -0.7401  0.4503 -0.0411
  202SOL    HW1  605   1.342   3.024   0.286  0.5873  4.5030  2.2584
  202SOL    HW2  606   1.248   2.884   0.313  0.9298 -3.5646 -0.9636
  203SOL     OW  607   1.532   0.089   2.226 -0.3733 -0.3167 -0.4140
  203SOL    HW1  608   1.431   0.099   2.211  1.5031  0.0451  2.8277
  203SOL    HW2  609   1.564   3.069   2.245  2.0497 -0.1839  2.6123
  204SOL     OW  610   0.608   1.534   1.931 -0.3583  0.6268  0.5021
  204SOL    HW1  611   0.604   1.438   1.891 -0.1294 -1.2694  1.6566
  204SOL    HW2  612   0.680   1.524   2.005 -0.7764  0.2569 -1.7243
  205SOL     OW  613   2.154   1.201   2.516 -0.1385 -0.4097  0.2606
  205SOL    HW1  614   2.149   1.106   2.474  1.1022 -0.8169 -0.1920
  205SOL    HW2  615   2.222   1.265   2.473  0.1779  0.7044 -2.0837
  206SOL     OW  616   0.164   1.690   2.287  0.2439  0.4005 -0.0977
  206SOL    HW1  617   0.201   1.764   2.348 -0.3022  2.4070  0.5376
  206SOL    HW2  618   0.132   1.612   2.341  1.9650 -0.8006 -1.8663
  207SOL     OW  619   1.036   2.784   1.470  0.1356  0.1207 -0.1607
  207SOL    HW1  620   1.032   2.733   1.558 -1.5404 -0.0582  1.2836
  207SOL    HW2  621   0.944   2.783   1.429  0.1609  0.2394  0.4912
  208SOL     OW  622   0.322   2.412   1.290 -0.0456  0.0906  0.2689
  208SOL    HW1  623   0.328   2.499   1.334  1.2649 -1.3689  0.5738
  208SOL    HW2  624   0.228   2.374   1.288  0.8956 -0.3565 -0.5849
  209SOL     OW  625   1.160   2.757   0.388  0.1980 -0.1584 -0.6357
  209SOL    HW1  626   1.128   2.676   0.448 -0.8552  0.0748 -0.4155
  209SOL    HW2  627   1.090   2.782   0.314 -0.4497 -0.6648 -2.9879
  210SOL     OW  628   2.785   1.332   0.917  0.1527  0.5373 -0.5144
  210SOL    HW1  629   2.789   1.404   0.847  1.4058  0.2412  1.8706
  210SOL    HW2  630   2.719   1.256   0.894 -1.0111 -1.2969 -0.1579
  211SOL     OW  631   0.746   0.885   1.811  0.1081 -0.4346  0.1306
  211SOL    HW1  632   0.745   0.790   1.773 -1.8048  0.4382 -1.9798
  211SOL    HW2  633   0.772   0.891   1.911  0.5905 -0.5513 -0.1652
  212SOL     OW  634   1.504   2.142   1.641 -0.5475  0.3010 -0.0357
  212SOL    HW1  635   1.466   2.183   1.558  1.7107  2.1652  2.1410
  212SOL    HW2  636   1.480   2.040   1.644  0.1122  0.4813  0.9240
  213SOL     OW  637   2.807   0.199   1.597 -0.3279 -0.2852 -0.3497
  213SOL    HW1  638   2.815   0.279   1.540 -0.6024  0.4930 -0.1191
  213SOL    HW2  639   2.722   0.149   1.590  0.8938 -0.1577  0.1777
  214SOL     OW  640   0.991   2.688   1.728 -0.3942  0.3776  0.5709
  214SOL    HW1  641   0.996   2.586   1.730  1.3984 -1.4372 -3.1793
  214SOL    HW2  642   1.029   2.727   1.814 -0.1964  0.3700 -0.3776
  215SOL     OW  643   2.633   1.824   1.390  0.2452 -0.4547  0.0622
  215SOL    HW1  644   2.578   1.909   1.376 -1.2642  0.9192 -0.5369
  215SOL    HW2  645   2.580   1.757   1.339  1.2853  3.4049  2.4278
  216SOL     OW  646   0.234   0.957   1.783  0.3123  0.9258  0.1354
  216SOL    HW1  647   0.201   0.928   1.876 -0.4565 -2.8227  2.6186
  216SOL    HW2  648   0.180   0.912   1.708  1.3515 -2.6266  0.0310
  217SOL     OW  649   2.710   0.272   1.183  0.1470  0.1885 -0.6615
  217SOL    HW1  650   2.739   0.323   1.096 -1.9395  2.3707 -0.7405
  217SOL    HW2  651   2.748   0.313   1.267  2.2315 -0.8289  1.1259
  218SOL     OW  652   1.321   2.182   1.203 -0.2347  0.0855 -0.0252
  218SOL    HW1  653   1.349   2.240   1.122  0.6855  2.2209 -2.9861
  218SOL    HW2  654   1.224   2.155   1.191  2.9004  2.2162 -1.0719
  219SOL     OW  655   1.387   2.595   0.383 -0.2819  0.4378  0.4985
  219SOL    HW1  656   1.303   2.651   0.388 -0.9359 -2.3203 -0.6689
  219SOL    HW2  657   1.364   2.498   0.366 -0.6447 -1.4458 -2.1812
  220SOL     OW  658   1.670   2.421   0.141 -0.3294  0.4089  0.1978
  220SOL    HW1  659   1.737   2.482   0.185 -0.6862 -1.0669  1.2383
  220SOL    HW2  660   1.601   2.472   0.088  1.0208  2.0313  1.4825
  221SOL     OW  661   2.714   2.082   0.883 -0.6234 -0.2254  0.5475
  221SOL    HW1  662   2.689   2.053   0.786 -2.6651 -0.5957  0.4817
  221SOL    HW2  663   2.813   2.084   0.900 -2.2863 -1.8111  0.3206
  222SOL     OW  664   0.869   1.934   0.630  0.6229  0.2666  0.1983
  222SOL    HW1  665   0.910   2.009   0.686  0.5204  0.4432  1.0098
  222SOL    HW2  666   0.770   1.926   0.656  0.2598  0.7329 -0.3295
  223SOL     OW  667   1.044   2.855   2.476 -0.3851  0.4966  0.3467
  223SOL    HW1  668   1.020   2.783   2.404 -0.3289 -1.3651 -0.0389
  223SOL    HW2  669   0.993   2.843   2.562 -1.5912  1.4301  2.4016
  224SOL     OW  670   2.368   1.199   1.141 -0.3074  0.2426 -0.3564
  224SOL    HW1  671   2.280   1.253   1.155 -1.3815 -0.1038 -0.0953
  224SOL    HW2  672   2.352   1.112   1.088  1.5725 -0.9653 -0.0779
  225SOL     OW  673   2.847   1.684   0.966 -0.0822  0.3067  0.1232
  225SOL    HW1  674   2.805   1.638   0.883 -0.9458 -0.8136 -2.0253
  225SOL    HW2  675   2.781   1.733   1.023 -0.2582  3.0920 -0.6551
  226SOL     OW  676   1.142   2.579   0.854 -0.1273 -0.4569  0.1128
  226SOL    HW1  677   1.085   2.589   0.771 -2.5141  0.3819 -1.3679
  226SOL    HW2  678   1.164   2.483   0.875  2.9199  1.7227  0.8550
  227SOL     OW  679   1.174   1.142   1.229 -0.2553  0.2680 -0.2216
  227SOL    HW1  680   1.141   1.090   1.312  4.1179 -1.6422 -0.2384
  227SOL    HW2  681   1.102   1.195   1.190  2.4798 -2.8739 -0.0999
  228SOL     OW  682   1.525   0.260   2.004  0.0958  0.2490 -0.4284
  228SOL    HW1  683   1.556   0.219   2.092 -0.7962  0.5613 -0.2091
  228SOL    HW2  684   1.423   0.250   1.986 -3.0590 -0.1684 -1.9422
  229SOL     OW  685   2.935   0.855   2.429  0.4899 -0.1955 -0.0341
  229SOL    HW1  686   2.918   0.949   2.463  2.0749  2.7981  1.1817
  229SOL    HW2  687   3.030   0.850   2.416 -1.1395  2.4685  0.4109
  230SOL     OW  688   0.366   1.250   0.787  0.2936  0.6411  0.1952
  230SOL    HW1  689   0.273   1.224   0.756  0.6308  1.1489  0.4303
  230SOL    HW2  690   0.394   1.345   0.750  1.0065  1.5434 -0.1987
  231SOL     OW  691   2.228   3.060   2.579  0.0142  0.5780  0.7389
  231SOL    HW1  692   2.177   3.002   2.509 -2.2849 -1.2916 -1.9394
  231SOL    HW2  693   2.214   0.083   2.565  1.6959 -0.1359 -0.5115
  232SOL     OW  694   0.376   1.602   2.883  0.1942 -0.1069  0.3519
  232SOL    HW1  695   0.426   1.615   2.972 -1.0320  2.3741  0.2309
  232SOL    HW2  696   0.272   1.599   2.892 -0.1415  1.6821 -2.8019
  233SOL     OW  697   1.315   2.713   2.771  0.3026  0.1268 -0.7247
  233SOL    HW1  698   1.391   2.744   2.834 -2.6194  1.1556 -0.0510
  233SOL    HW2  699   1.277   2.788   2.720  2.6223  3.1067 -1.4399
  234SOL     OW  700   1.039   1.363   1.977  0.6273  0.1973 -0.0689
  234SOL    HW1  701   1.138   1.347   2.002 -1.6132 -0.7372 -1.1897
  234SOL    HW2  702   1.003   1.284   1.924  0.8142 -0.2473 -3.3238
  235SOL     OW  703   0.399   1.989   1.692 -0.2543 -0.2994 -0.5179
  235SOL    HW1  704   0.356   2.054   1.624  0.2355 -0.1083  0.2610
  235SOL    HW2  705   0.462   1.921   1.649 -2.9949  0.0560 -1.6837
  236SOL     OW  706   1.493   2.074   2.862 -0.1994  0.1655 -0.6314
  236SOL    HW1  707   1.579   2.033   2.905 -0.1403  0.3841  0.1284
  236SOL    HW2  708   1.484   2.171   2.892  1.3398  2.0761  0.4799
  237SOL     OW  709   1.594   0.317   0.896  0.2360 -0.2967 -0.2016
  237SOL    HW1  710   1.589   0.412   0.940  0.1917  1.3892  1.3700
  237SOL    HW2  711   1.502   0.292   0.856  3.1523 -1.2006  1.3174
  238SOL     OW  712   0.958   0.309   2.590 -0.2483  0.8946  0.5122
  238SOL    HW1  713   0.898   0.250   2.530  0.0835  1.8539 -0.3024
  238SOL    HW2  714   1.022   0.363   2.537 -1.2045  0.5466  2.2344
  239SOL     OW  715   0.739   3.035   1.796 -0.0705 -0.2367  0.7072
  239SOL    HW1  716   0.666   0.020   1.834  3.1208  0.7359 -1.8113
  239SOL    HW2  717   0.832   0.005   1.796  0.8243 -0.2039 -2.7557
  240SOL     OW  718   2.498   2.613   0.724 -0.0022 -0.1089 -0.3875
  240SOL    HW1  719   2.471   2.657   0.632  0.2509  2.5558 -1.3712
  240SOL    HW2  720   2.437   2.538   0.748  1.2573  1.2981 -2.6987
  241SOL     OW  721   1.007   1.549   1.758  0.2030  0.4082  0.2974
  241SOL    HW1  722   0.954   1.503   1.686 -0.2762 -0.1812 -0.0677
  241SOL    HW2  723   1.007   1.497   1.847 -0.9576  1.3727  2.4665
  242SOL     OW  724   2.846   0.516   0.535 -0.5452 -0.1810  0.4951
  242SOL    HW1  725   2.905   0.600   0.531 -0.6057  0.9724  1.0677
  242SOL    HW2  726   2.858   0.457   0.452 -0.0641  1.3596  0.7711
  243SOL     OW  727   0.614   0.623   1.363  0.6141  0.5005 -0.4447
  243SOL    HW1  728   0.545   0.695   1.354 -0.7162  3.4433  3.1858
  243SOL    HW2  729   0.701   0.666   1.330  1.5167  4.0972  0.9841
  244SOL     OW  730   1.287   0.537   0.021 -0.1961 -0.2774 -0.2085
  244SOL    HW1  731   1.300   0.448   3.047 -0.7056 -2.3188  0.8114
  244SOL    HW2  732   1.262   0.513   0.120 -0.2604 -1.8338 -1.3738
  245SOL     OW  733   1.994   0.443   3.063  0.2597 -0.2163  0.0082
  245SOL    HW1  734   2.020   0.387   2.985 -2.1922  1.3910  0.6789
  245SOL    HW2  735   2.056   0.429   0.067  1.2588  1.9379  2.3897
  246SOL     OW  736   0.796   0.886   1.439  0.4634 -0.7700 -0.1270
  246SOL    HW1  737   0.812   0.967   1.500  2.1533 -0.6596  0.5931
  246SOL    HW2  738   0.879   0.833   1.409 -0.4230  0.5498  0.2613
  247SOL     OW  739   0.675   2.978   2.163  0.3276 -0.1266 -0.1094
  247SOL    HW1  740   0.619   3.049   2.113  0.1674 -0.8422 -1.5352
  247SOL    HW2  741   0.773   3.002   2.159 -0.8702  3.0209  0.4344
  248SOL     OW  742   0.256   1.643   1.775 -0.8406  0.4212 -0.7022
  248SOL    HW1  743   0.212   1.618   1.688  0.5521 -2.3156 -1.1563
  248SOL    HW2  744   0.344   1.687   1.758 -0.7317  3.2996  0.4998
  249SOL     OW  745   0.020   3.052   3.035 -0.3606 -0.1887 -0.0148
  249SOL    HW1  746   0.093   0.024   2.982  3.3670  0.1530  0.3421
  249SOL    HW2  747   0.039   2.953   3.052 -2.7006 -1.0098 -0.1462
  250SOL     OW  748   2.835   0.086   0.294  0.7348  0.2353  0.3752
  250SOL    HW1  749   2.797   3.070   0.274 -0.4275 -2.1389 -1.2151
  250SOL    HW2  750   2.905   0.107   0.224 -1.1129  0.6464  1.2157
  251SOL     OW  751   0.478   1.215   1.065 -0.3033  0.1585  0.4355
  251SOL    HW1  752   0.532   1.138   1.026 -1.1899 -0.5440 -1.5944
  251SOL    HW2  753   0.411   1.258   1.003  2.2326 -2.8316  0.3218
  252SOL     OW  754   1.465   2.948   1.656  0.8121  0.5463  0.5389
  252SOL    HW1  755   1.550   2.930   1.708 -0.0795 -0.3742 -0.7734
  252SOL    HW2  756   1.403   2.866   1.657 -0.2098 -1.8950 -0.2882
  253SOL     OW  757   2.045   2.053   2.858 -0.0220  0.0804  0.4685
  253SOL    HW1  758   2.130   2.018   2.903  0.1837 -0.7957 -1.0470
  253SOL    HW2  759   2.008   1.988   2.795  1.0303  0.9016  2.7468
  254SOL     OW  760   0.512   1.702   1.727 -0.4870 -0.0857 -0.2193
  254SOL    HW1  761   0.508   1.673   1.631 -0.6602  1.8958  2.4905
  254SOL    HW2  762   0.562   1.637   1.787 -0.0106  3.0696  0.0789
  255SOL     OW  763   0.951   0.007   1.473  0.0317 -0.2041  0.0870
  255SOL    HW1  764   1.010   3.060   1.397 -0.0287 -1.4548  1.3767
  255SOL    HW2  765   0.995   3.070   1.565 -1.4453 -0.8393 -1.8825
  256SOL     OW  766   2.386   2.163   0.918 -0.0671 -0.3780 -0.6363
  256SOL    HW1  767   2.443   2.241   0.953 -1.8379  1.5476  1.6682
  256SOL    HW2  768   2.340   2.186   0.830  0.6630  0.0919  0.7749
  257SOL     OW  769   0.306   2.038   3.034 -0.1025  0.5181 -0.4738
  257SOL    HW1  770   0.355   2.085   0.034  0.9091 -1.1894  5.9738
  257SOL    HW2  771   0.367   2.027   2.950  1.4404  2.5155 -0.9317
  258SOL     OW  772   0.897   2.186   2.417  0.2936 -0.6363  0.5605
  258SOL    HW1  773   0.864   2.197   2.513 -1.8865 -0.9207  1.6274
  258SOL    HW2  774   0.992   2.219   2.406  0.6278  2.0823 -0.1297
  259SOL     OW  775   0.935   1.887   2.781 -0.4402 -0.6437  0.4449
  259SOL    HW1  776   0.851   1.897   2.727 -1.5078  1.7868 -2.3933
  259SOL    HW2  777   0.918   1.846   2.875  0.6817 -0.8523 -0.8048
  260SOL     OW  778   2.165   1.395   1.914  0.2142  0.0329 -0.1152
  260SOL    HW1  779   2.165   1.497   1.921 -0.6245 -1.1831  0.3248
  260SOL    HW2  780   2.174   1.349   2.005 -1.0108  1.3115  1.3862
  261SOL     OW  781   1.330   0.641   0.840  0.2201 -0.1714  0.0782
  261SOL    HW1  782   1.266   0.573   0.883  1.2524  1.7843 -0.9785
  261SOL    HW2  783   1.333   0.729   0.894  0.8923  4.1153  0.5345
  262SOL     OW  784   1.654   2.146   2.535  0.1732 -0.3448 -0.0276
  262SOL    HW1  785   1.742   2.137   2.582  1.6029 -2.4471 -0.7781
  262SOL    HW2  786   1.582   2.177   2.598  1.3458  1.0716  0.5604
  263SOL     OW  787   0.132   1.558   0.104  0.2129  0.3577  0.2117
  263SOL    HW1  788   0.092   1.596   0.191  2.2300  0.5649 -0.5595
  263SOL    HW2  789   0.217   1.505   0.124  1.2566  1.2113  1.5571
  264SOL     OW  790   0.588   1.897   0.688 -0.0441  0.2000 -0.1679
  264SOL    HW1  791   0.570   1.990   0.651  0.8283 -1.7478  0.1443
  264SOL    HW2  792   0.570   1.895   0.792 -1.1466  0.5758  2.0726
  265SOL     OW  793   0.503   1.191   0.234  0.3350 -0.1650  0.0300
  265SOL    HW1  794   0.486   1.114   0.291  1.2712  3.5210 -4.0504
  265SOL    HW2  795   0.561   1.263   0.269 -0.0101 -1.3218  1.1514
  266SOL     OW  796   1.135   1.627   2.962 -0.2997 -0.3890 -0.9522
  266SOL    HW1  797   1.146   1.660   2.870  0.6809  0.7291 -0.4532
  266SOL    HW2  798   1.039   1.633   2.995  0.7969 -0.1419 -1.5674
  267SOL     OW  799   0.920   0.839   2.332 -0.3533 -0.3264 -0.4205
  267SOL    HW1  800   0.979   0.800   2.410 -2.4972  1.2518  1.0597
  267SOL    HW2  801   0.878   0.930   2.358 -1.3401 -1.2157  0.9038
  268SOL     OW  802   0.507   0.738   2.721  0.0042 -0.1941  0.0094
  268SOL    HW1  803   0.584   0.795   2.684 -0.9080  0.8583  0.8270
  268SOL    HW2  804   0.463   0.787   2.798  0.0220  0.3935  0.4704
  269SOL     OW  805   1.885   2.877   2.672  0.1143  0.7673  0.5348
  269SOL    HW1  806   1.844   2.952   2.618  0.5660 -0.2517 -1.0217
  269SOL    HW2  807   1.883   2.795   2.608 -0.1299  2.1861 -3.0548
  270SOL     OW  808   0.894   1.550   2.382 -0.4785 -0.0903  0.1710
  270SOL    HW1  809   0.927   1.626   2.436 -3.3065 -2.1956 -1.2761
  270SOL    HW2  810   0.809   1.522   2.424 -0.0522 -1.1436 -2.3446
  271SOL     OW  811   0.210   0.119   2.894  0.1897  0.1098 -0.1952
  271SOL    HW1  812   0.225   0.077   2.806  0.1018  0.0497  2.3499
  271SOL    HW2  813   0.290   0.117   2.952 -0.4416  0.5994 -0.3849
  272SOL     OW  814   2.396   0.662   0.423  0.1857  0.5409 -0.8259
  272SOL    HW1  815   2.351   0.635   0.517 -1.8200  1.0307  3.3592
  272SOL    HW2  816   2.323   0.691   0.358  0.3984  2.8706 -1.8799
  273SOL     OW  817   0.249   3.019   1.959 -0.3692 -0.8358 -0.1323
  273SOL    HW1  818   0.192   2.938   1.968 -0.0297  2.4550 -0.0659
  273SOL    HW2  819   0.349   2.996   1.953 -0.2992  0.7151 -1.9649
  274SOL     OW  820   2.891   0.491   1.829 -0.6856  0.0717  0.3053
  274SOL    HW1  821   2.938   0.545   1.758  0.8374  0.9428 -1.4225
  274SOL    HW2  822   2.955   0.450   1.895 -1.1476  0.4931 -1.1823
  275SOL     OW  823   1.646   1.757   0.627 -0.2662 -0.4574  0.0446
  275SOL    HW1  824   1.667   1.658   0.635  0.7505  2.0525 -1.7143
  275SOL    HW2  825   1.654   1.790   0.532 -2.2571 -0.5087  0.2711
  276SOL     OW  826   0.909   1.053   2.075 -0.5366 -0.0098 -0.7625
  276SOL    HW1  827   0.927   0.954   2.081  0.9523  1.6050  0.0448
  276SOL    HW2  828   0.865   1.082   2.165 -0.4552 -0.2806  1.3229
  277SOL     OW  829   1.716   2.568   2.091 -0.1652 -0.2453  0.2945
  277SOL    HW1  830   1.712   2.537   1.996  1.0492 -1.0526  1.8373
  277SOL    HW2  831   1.762   2.492   2.142 -0.8432  1.2476 -1.3948
  278SOL     OW  832   1.958   2.748   2.248 -0.0990  0.3184  0.2907
  278SOL    HW1  833   1.884   2.756   2.318  3.5190  0.1986  1.6759
  278SOL    HW2  834   2.051   2.755   2.290 -1.8046 -1.2171 -0.4565
  279SOL     OW  835   1.745   1.214   0.183  0.1462  0.2806  0.3416
  279SOL    HW1  836   1.778   1.175   0.092  0.7976 -0.8126 -3.2252
  279SOL    HW2  837   1.722   1.310   0.181 -1.3077 -1.2914  0.1836
  280SOL     OW  838   0.744   1.501   0.108  0.0361 -0.0955 -0.3437
  280SOL    HW1  839   0.844   1.487   0.138  0.8287 -0.7309 -0.1879
  280SOL    HW2  840   0.705   1.426   0.051  0.1205 -0.3576  2.0967
  281SOL     OW  841   0.158   0.064   1.711 -0.0809 -0.4067  0.0848
  281SOL    HW1  842   0.106   3.057   1.744 -0.6249 -0.9665  0.5719
  281SOL    HW2  843   0.167   0.128   1.791  0.8608 -1.1709 -0.3535
  282SOL     OW  844   0.097   2.273   0.811 -0.0988 -0.0620 -0.1717
  282SOL    HW1  845   0.032   2.351   0.810 -0.7384 -2.4011  1.1996
  282SOL    HW2  846   0.165   2.295   0.744 -0.1979 -0.1347  1.4434
  283SOL     OW  847   1.440   1.978   2.315  0.2689  0.4844  0.0340
  283SOL    HW1  848   1.423   2.007   2.414  0.4900  0.8565  0.5671
  283SOL    HW2  849   1.407   1.878   2.297  2.2814 -2.1207  0.2741
  284SOL     OW  850   1.573   0.079   0.435 -0.0120 -0.0509  0.0125
  284SOL    HW1  851   1.618   0.115   0.347 -1.1502  0.7605 -2.5380
  284SOL    HW2  852   1.514   0.153   0.478 -0.8306  1.7509  0.2673
  285SOL     OW  853   0.004   2.611   2.394  0.2457  0.0592  0.5394
  285SOL    HW1  854   2.990   2.626   2.435 -0.1871  0.1134 -4.9345
  285SOL    HW2  855   0.023   2.514   2.375  0.5810 -3.4405 -0.2884
  286SOL     OW  856   2.648   2.541   1.407  0.1505  0.6015 -0.0474
  286SOL    HW1  857   2.613   2.584   1.494 -2.0686  1.3869  1.4647
  286SOL    HW2  858   2.743   2.515   1.414 -0.1872 -0.0094 -2.6168
  287SOL     OW  859   0.428   1.495   0.669  0.2450 -0.6228 -0.2624
  287SOL    HW1  860   0.394   1.537   0.756  1.4338 -0.0984 -0.1916
  287SOL    HW2  861   0.504   1.554   0.633 -1.8286 -2.1477 -2.0741
  288SOL     OW  862   2.354   1.913   2.742 -0.0217  0.2287 -0.3527
  288SOL    HW1  863   2.410   1.873   2.669  0.2002 -0.6696 -0.4934
  288SOL    HW2  864   2.379   2.007   2.771  1.5858 -1.2757 -2.9625
  289SOL     OW  865   0.087   1.582   2.918  0.7527  0.5365 -0.2748
  289SOL    HW1  866   3.068   1.615   2.892 -3.6911  0.4307 -0.9259
  289SOL    HW2  867   0.102   1.581   3.016 -0.8031 -1.5902  1.7152
  290SOL     OW  868   1.078   1.706   1.198 -0.8426 -0.2236  0.3865
  290SOL    HW1  869   1.143   1.662   1.135  0.3700  0.6835 -0.3428
  290SOL    HW2  870   1.044   1.793   1.155  1.4448  0.4786 -2.1232
  291SOL     OW  871   1.519   1.007   3.009 -0.2382 -0.1404  0.0445
  291SOL    HW1  872   1.443   0.983   2.949  2.7144  1.0191  0.2293
  291SOL    HW2  873   1.547   0.915   3.039 -1.2571  1.4003 -1.1040
  292SOL     OW  874   1.301   1.493   0.377  0.6824 -0.1095 -0.1684
  292SOL    HW1  875   1.235   1.535   0.441 -0.2988  0.5227 -0.4962
  292SOL    HW2  876   1.247   1.464   0.294 -0.6967  1.4865 -1.3224
  293SOL     OW  877   1.149   2.738   1.070 -0.0073 -0.3580 -0.1926
  293SOL    HW1  878   1.202   2.817   1.043 -2.4415 -1.5172  0.2734
  293SOL    HW2  879   1.145   2.675   0.986  0.3873  3.0828 -1.5769
  294SOL     OW  880   2.290   1.184   2.970 -0.0495  0.3210 -0.1567
  294SOL    HW1  881   2.223   1.162   2.896 -0.8060 -1.0769  0.8732
  294SOL    HW2  882   2.385   1.158   2.943 -0.1379 -0.6997  1.3044
  295SOL     OW  883   1.387   1.939   2.636  0.5540  0.3774  0.1100
  295SOL    HW1  884   1.438   1.995   2.707 -1.0527  2.1594  0.4576
  295SOL    HW2  885   1.290   1.915   2.669 -0.7643 -0.2434  1.2695
  296SOL     OW  886   1.758   0.620   1.790 -0.3477 -0.2385 -0.2226
  296SOL    HW1  887   1.858   0.629   1.780 -1.6867 -0.2993  1.4848
  296SOL    HW2  888   1.705   0.684   1.733 -0.0598  1.1521  0.7777
  297SOL     OW  889   0.093   0.663   2.066 -0.0728  0.0314 -0.4885
  297SOL    HW1  890   0.118   0.761   2.055  0.5217 -2.3304  0.8389
  297SOL    HW2  891   0.145   0.617   1.992 -0.0525  0.5444  1.1283
  298SOL     OW  892   1.001   2.421   1.708 -0.2001  0.4441  0.5440
  298SOL    HW1  893   0.998   2.331   1.662  1.4961  1.3958 -1.2283
  298SOL    HW2  894   0.990   2.412   1.811 -2.0744  4.4116 -0.7023
  299SOL     OW  895   1.250   2.946   2.625 -0.3340  0.1859  0.0722
  299SOL    HW1  896   1.349   2.959   2.612 -0.5640 -0.4286  0.2986
  299SOL    HW2  897   1.196   2.934   2.537 -1.1693  0.0829 -3.4670
  300SOL     OW  898   0.018   0.870   3.023  0.0033  0.2203 -0.2964
  300SOL    HW1  899   3.032   0.867   0.030  0.2317 -0.8584 -1.2286
  300SOL    HW2  900   0.083   0.945   3.014 -0.0171  0.0016 -0.4567
  301SOL     OW  901   1.955   1.129   1.619 -0.6004 -0.4662 -0.0298
  301SOL    HW1  902   1.869   1.101   1.663  0.6606 -1.6370  1.4531
  301SOL    HW2  903   1.976   1.220   1.665  0.7517 -1.4706  4.4196
  302SOL     OW  904   2.586   1.778   2.556 -0.1125 -0.2347 -0.1072
  302SOL    HW1  905   2.622   1.739   2.470  1.7218  0.0685  3.8701
  302SOL    HW2  906   2.571   1.877   2.537  3.5307  2.2708 -0.6521
  303SOL     OW  907   0.320   2.669   2.222  0.2067 -0.0100  0.6003
  303SOL    HW1  908   0.378   2.668   2.140  0.2898  0.0107  1.3789
  303SOL    HW2  909   0.224   2.709   2.205  1.5642  1.6722  2.2183
  304SOL     OW  910   0.111   0.836   1.125  0.3950  0.0189  0.3499
  304SOL    HW1  911   0.169   0.905   1.078  0.0589 -0.2898 -0.0460
  304SOL    HW2  912   0.159   0.781   1.194 -3.2565  1.3045  0.4362
  305SOL     OW  913   2.869   0.927   1.504 -0.3911 -0.0712  0.1217
  305SOL    HW1  914   2.966   0.920   1.464  3.2016 -2.1624 -1.3199
  305SOL    HW2  915   2.862   1.006   1.568  0.9353  0.9192 -1.1658
  306SOL     OW  916   2.478   1.183   1.513 -0.0894 -0.1985  0.4108
  306SOL    HW1  917   2.386   1.157   1.545 -0.5810  0.8394 -0.6961
  306SOL    HW2  918   2.513   1.252   1.585 -0.0463  0.9221  0.6933
  307SOL     OW  919   2.510   2.937   0.817  0.4186  0.0719 -0.4195
  307SOL    HW1  920   2.500   2.849   0.769 -1.8602  0.7473  1.2699
  307SOL    HW2  921   2.605   2.969   0.826 -0.7511 -0.0191  1.1298
  308SOL     OW  922   2.984   1.853   1.723  0.4680  0.5708 -0.0858
  308SOL    HW1  923   3.073   1.891   1.754  0.0220 -0.4691  1.0103
  308SOL    HW2  924   2.922   1.833   1.802 -3.1623 -0.6947  0.7977
  309SOL     OW  925   2.329   2.164   1.549  0.1983 -0.2244 -0.4427
  309SOL    HW1  926   2.365   2.253   1.586  2.2336 -1.2044 -0.5844
  309SOL    HW2  927   2.257   2.132   1.617 -0.6526 -4.0071  2.5477
  310SOL     OW  928   2.249   1.450   3.018 -0.0059 -0.4586 -0.0918
  310SOL    HW1  929   2.187   1.475   2.941 -0.1162  3.7610 -0.0709
  310SOL    HW2  930   2.281   1.354   3.021  0.0042  0.6386  1.8282
  311SOL     OW  931   1.730   1.159   2.935  0.1061 -0.4286  0.3766
  311SOL    HW1  932   1.628   1.140   2.931 -1.1738 -2.3870  0.0136
  311SOL    HW2  933   1.783   1.075   2.908 -0.8277 -1.3377 -0.5995
  312SOL     OW  934   0.960   2.052   2.058 -0.3852  0.1828 -0.5006
  312SOL    HW1  935   1.056   2.052   2.099 -0.7010  1.4358 -1.0330
  312SOL    HW2  936   0.887   2.020   2.124 -0.0215 -0.2172  2.1848
  313SOL     OW  937   0.200   0.323   0.858 -0.1033  0.6314 -0.3007
  313SOL    HW1  938   0.158   0.287   0.772  0.5768 -0.6683  1.0335
  313SOL    HW2  939   0.236   0.247   0.920  4.1302 -0.3525 -1.3932
  314SOL     OW  940   0.507   1.864   0.957 -0.0273  0.1537 -0.1273
  314SOL    HW1  941   0.575   1.871   1.031  0.2598 -1.6609 -2.0579
  314SOL    HW2  942   0.412   1.881   0.988  0.6445  1.0874 -0.8785
  315SOL     OW  943   0.531   2.244   2.092 -0.1116 -0.3145 -0.1366
  315SOL    HW1  944   0.516   2.260   1.994 -0.2390  0.2927 -1.4840
  315SOL    HW2  945   0.540   2.331   2.141 -2.0005 -0.2903  0.8379
  316SOL     OW  946   0.305   2.110   0.862  0.0580 -0.0388  0.0851
  316SOL    HW1  947   0.296   2.045   0.939  1.3225 -1.8650 -1.7818
  316SOL    HW2  948   0.235   2.182   0.868  0.2048  0.2353 -0.9102
  317SOL     OW  949   1.781   0.523   0.736  0.0353  0.3560 -0.1247
  317SOL    HW1  950   1.860   0.547   0.796  1.0664 -0.3415  0.9365
  317SOL    HW2  951   1.782   0.422   0.717 -1.6348  0.6410 -1.7316
  318SOL     OW  952   2.335   2.173   0.288  0.5248 -0.2492 -0.1557
  318SOL    HW1  953   2.248   2.180   0.234 -3.1873 -1.4853  0.3464
  318SOL    HW2  954   2.395   2.106   0.248 -1.6827  3.0012 -0.1663
  319SOL     OW  955   1.373   1.714   3.046 -0.1795  0.2089 -0.4459
  319SOL    HW1  956   1.285   1.678   3.007 -0.7897 -0.9517 -2.5021
  319SOL    HW2  957   1.452   1.680   2.993 -0.9684  1.2774  0.2307
  320SOL     OW  958   0.341   2.610   2.668  0.0381 -0.5084 -0.4664
  320SOL    HW1  959   0.386   2.568   2.590 -1.9926  0.9600  0.9691
  320SOL    HW2  960   0.332   2.552   2.748  0.5645  3.0012 -1.8706
  321SOL     OW  961   0.921   2.740   2.687  0.0994  0.1593 -0.3218
  321SOL    HW1  962   0.989   2.668   2.668 -0.1594  1.8893  0.1004
  321SOL    HW2  963   0.823   2.708   2.679  1.7190  0.9134  1.7816
  322SOL     OW  964   2.280   0.733   2.134  0.2586  0.0034 -0.7537
  322SOL    HW1  965   2.200   0.696   2.186 -0.6173 -2.0439 -0.4608
  322SOL    HW2  966   2.353   0.756   2.200 -0.8039  0.1840 -0.8480
  323SOL     OW  967   3.032   1.121   0.565 -0.6227 -0.1122  0.0955
  323SOL    HW1  968   0.034   1.061   0.533 -1.0001 -3.7622  0.3730
  323SOL    HW2  969   2.944   1.072   0.563  0.3704 -2.1092 -0.8380
  324SOL     OW  970   0.622   0.804   2.077 -0.2009 -0.0538 -0.0655
  324SOL    HW1  971   0.564   0.774   2.001  2.1002 -0.2208  0.9010
  324SOL    HW2  972   0.719   0.769   2.055 -1.3016  0.5416 -0.5470
  325SOL     OW  973   0.466   0.095   2.191 -0.5831 -0.0575  0.3057
  325SOL    HW1  974   0.491   0.151   2.274  0.2592 -0.6853 -0.2434
  325SOL    HW2  975   0.365   0.071   2.188 -1.5050 -3.3086 -0.4895
  326SOL     OW  976   2.712   2.391   0.440  0.1844  0.2612 -0.4018
  326SOL    HW1  977   2.805   2.364   0.461 -2.5500 -1.4031  0.0113
  326SOL    HW2  978   2.656   2.335   0.504  1.5763 -2.3228 -1.8986
  327SOL     OW  979   2.486   1.324   0.508  0.3790  0.7758  0.2952
  327SOL    HW1  980   2.385   1.323   0.525  1.1492 -0.0347 -1.7673
  327SOL    HW2  981   2.531   1.417   0.529  1.0609 -0.2433  0.7214
  328SOL     OW  982   2.907   1.737   2.167  0.1152  0.5362 -0.6018
  328SOL    HW1  983   2.968   1.654   2.137 -1.9450  0.7406  0.0238
  328SOL    HW2  984   2.882   1.803   2.095 -2.2723  1.8468 -1.3045
  329SOL     OW  985   0.322   2.173   1.484 -0.4785 -0.5506 -0.1205
  329SOL    HW1  986   0.227   2.207   1.498 -1.8626  0.6701  1.2783
  329SOL    HW2  987   0.331   2.128   1.394 -1.0741  2.0519  0.5942
  330SOL     OW  988   2.503   1.385   2.455 -0.4267 -0.5078 -0.3460
  330SOL    HW1  989   2.506   1.457   2.529  1.8808  1.2561  1.3531
  330SOL    HW2  990   2.489   1.293   2.498  1.1758  0.7002  0.9275
  331SOL     OW  991   2.705   2.483   0.865  0.1208 -0.1472  0.5460
  331SOL    HW1  992   2.672   2.418   0.933 -1.5244 -0.7062 -1.5661
  331SOL    HW2  993   2.634   2.531   0.817  0.4932  0.2897  1.0753
  332SOL     OW  994   0.361   2.818   0.680  0.5108  0.1331  0.3797
  332SOL    HW1  995   0.263   2.808   0.699  3.6199  1.7482  0.8387
  332SOL    HW2  996   0.381   2.779   0.587  0.3540  0.5282  1.5661
  333SOL     OW  997   2.185   2.752   2.481 -0.3742 -0.4735 -0.2416
  333SOL    HW1  998   2.144   2.708   2.562  0.2588  1.5011 -0.1580
  333SOL    HW2  999   2.286   2.753   2.484 -0.7921 -0.1577  0.8280
  334SOL     OW 1000   0.949   1.215   0.328  0.0216 -0.3425 -0.1011
  334SOL    HW1 1001   0.995   1.150   0.392  0.2647  1.4717  1.1974
  334SOL    HW2 1002   0.856   1.240   0.356  1.9140  1.3809 -0.3797
  335SOL     OW 1003   2.780   1.891   1.955  0.3483  0.1256 -0.1631
  335SOL    HW1 1004   2.784   1.790   1.922 -1.4389 -1.0957 -1.4106
  335SOL    HW2 1005   2.746   1.944   1.880  1.0319 -2.1372  1.2764
  336SOL     OW 1006   2.797   2.884   2.464  0.1386  0.0992 -0.6023
  336SOL    HW1 1007   2.701   2.912   2.475  4.8555  0.1655  1.2680
  336SOL    HW2 1008   2.855   2.916   2.543  1.1224  2.0009 -0.4856
  337SOL     OW 1009   1.009   1.135   0.874 -0.3460 -0.2420  0.2312
  337SOL    HW1 1010   0.980   1.216   0.814 -0.1209  0.3871 -0.3832
  337SOL    HW2 1011   1.020   1.181   0.965  1.2234  3.2038  1.1040
  338SOL     OW 1012   1.088   1.956   1.043  0.0055  0.7768 -0.0005
  338SOL    HW1 1013   1.136   1.995   0.964 -1.2323 -1.4122 -1.1437
  338SOL    HW2 1014   0.998   2.001   1.053 -0.3036 -1.0010  2.3149
  339SOL     OW 1015   0.289   1.416   1.485  0.8839  0.1022 -0.3270
  339SOL    HW1 1016   0.274   1.357   1.404 -1.1215  0.9801 -0.1480
  339SOL    HW2 1017   0.203   1.462   1.513  0.5173  0.9719 -0.5075
  340SOL     OW 1018   1.699   2.830   2.041 -0.0074  0.3060 -0.2088
  340SOL    HW1 1019   1.738   2.864   1.953  2.7428  0.9605  2.3285
  340SOL    HW2 1020   1.712   2.731   2.060  2.6437 -0.2300  1.6557
  341SOL     OW 1021   1.696   1.630   1.083 -0.1677 -0.2951  0.2245
  341SOL    HW1 1022   1.687   1.562   1.003  0.5427 -1.3981 -2.1291
  341SOL    HW2 1023   1.795   1.648   1.084 -0.1021 -0.4355 -0.1792
  342SOL     OW 1024   0.077   1.263   0.754 -0.3062  0.4046  0.4494
  342SOL    HW1 1025   0.023   1.212   0.683 -0.4829  1.3423 -2.0857
  342SOL    HW2 1026   0.053   1.361   0.759 -1.6691  1.7937  1.3936
  343SOL     OW 1027   2.774   0.443   1.419  0.4947  0.0203 -0.2567
  343SOL    HW1 1028   2.722   0.515   1.465  1.1113  0.6806 -1.3947
  343SOL    HW2 1029   2.866   0.479   1.406  0.9467  0.6973  1.5050
  344SOL     OW 1030   1.654   0.164   1.128  0.6683 -0.0206  0.5836
  344SOL    HW1 1031   1.733   0.216   1.166 -2.0615  2.5222  0.3212
  344SOL    HW2 1032   1.633   0.210   1.039 -1.6863  0.6274 -1.5430
  345SOL     OW 1033   0.597   2.951   2.460  0.3015 -0.0407 -1.0290
  345SOL    HW1 1034   0.630   3.009   2.538  0.0676  1.0370 -2.1773
  345SOL    HW2 1035   0.617   2.995   2.373 -0.8384  1.3060  1.0017
  346SOL     OW 1036   2.543   1.584   0.564  0.0161  0.2839  0.1916
  346SOL    HW1 1037   2.551   1.599   0.463  3.6556 -0.6621 -2.7899
  346SOL    HW2 1038   2.470   1.641   0.596  1.0903  0.8065 -0.4582
  347SOL     OW 1039   2.419   0.243   1.828 -0.0632  0.5128 -0.1259
  347SOL    HW1 1040   2.391   0.170   1.761  0.3467 -1.9080 -0.4204
  347SOL    HW2 1041   2.373   0.226   1.918  0.9881  0.0404 -0.1982
  348SOL     OW 1042   1.146   1.282   1.600 -0.3506 -0.1607 -0.0598
  348SOL    HW1 1043   1.137   1.183   1.571  0.2733 -4.5012  3.4777
  348SOL    HW2 1044   1.052   1.330   1.582 -2.6211 -0.7536 -0.0524
  349SOL     OW 1045   2.592   0.926   1.545  1.4103 -0.2276 -0.3851
  349SOL    HW1 1046   2.687   0.920   1.514 -2.3016 -1.0627  0.7555
  349SOL    HW2 1047   2.534   1.005   1.515  0.6030 -0.5989  1.9327
  350SOL     OW 1048   2.104   2.193   0.091 -0.4691 -0.1693  0.2380
  350SOL    HW1 1049   2.025   2.216   0.035  0.7212 -0.7394 -0.1879
  350SOL    HW2 1050   2.094   2.103   0.134 -1.7068 -1.8824  1.3321
  351SOL     OW 1051   0.720   0.421   2.215  0.1406 -0.7580  0.3872
  351SOL    HW1 1052   0.789   0.346   2.201 -0.1847 -1.0355  1.7539
  351SOL    HW2 1053   0.699   0.468   2.128 -0.2433 -0.4243 -0.3936
  352SOL     OW 1054   1.985   2.575   1.785 -0.6126 -0.0445  0.6233
  352SOL    HW1 1055   2.019   2.590   1.882  2.0372  1.3045 -1.6411
  352SOL    HW2 1056   1.889   2.547   1.781  0.7987 -1.7454 -1.8698
  353SOL     OW 1057   0.691   0.891   2.601  0.2031 -0.2317 -0.2604
  353SOL    HW1 1058   0.777   0.847   2.637  0.7132 -0.5681 -0.4079
  353SOL    HW2 1059   0.680   0.870   2.505 -0.1132  1.7283 -0.0879
  354SOL     OW 1060   0.478   1.995   2.829 -0.1622  0.6701  0.3009
  354SOL    HW1 1061   0.562   2.035   2.785 -0.0665 -1.9245 -1.7031
  354SOL    HW2 1062   0.441   1.919   2.766 -1.0940 -4.7887 -1.4618
  355SOL     OW 1063   1.615   2.732   1.103 -0.0561  0.1421  0.2159
  355SOL    HW1 1064   1.552   2.805   1.081 -0.6865  0.2345 -0.5672
  355SOL    HW2 1065   1.686   2.760   1.169  1.7016  3.0562  0.5896
  356SOL     OW 1066   2.423   0.997   0.285 -0.1814  0.3563 -0.2091
  356SOL    HW1 1067   2.366   1.067   0.235 -1.9389  2.5192 -1.7855
  356SOL    HW2 1068   2.361   0.954   0.357  1.2424 -0.9530  0.7359
  357SOL     OW 1069   3.022   0.291   1.998  0.7925  0.0904  0.4260
  357SOL    HW1 1070   0.045   0.310   1.973 -1.1585  1.9554 -2.3365
  357SOL    HW2 1071   2.981   0.221   1.941 -1.8735 -0.6183  2.6465
  358SOL     OW 1072   0.109   1.534   0.626  0.2461  0.0861  0.5685
  358SOL    HW1 1073   0.184   1.469   0.591 -2.4657  0.0216 -1.2228
  358SOL    HW2 1074   0.146   1.630   0.644  0.5808 -0.6464  3.8730
  359SOL     OW 1075   2.931   0.401   2.644  0.1088  0.2905 -0.0546
  359SOL    HW1 1076   2.869   0.478   2.672  0.6080 -1.8128  1.1542
  359SOL    HW2 1077   2.957   0.421   2.547  1.1617 -0.1516  1.6294
  360SOL     OW 1078   1.290   0.931   1.097 -0.2943  0.3566 -0.2530
  360SOL    HW1 1079   1.368   0.907   1.159  2.7212  1.0796  0.6157
  360SOL    HW2 1080   1.235   1.012   1.136 -2.4906  3.6220  1.4980
  361SOL     OW 1081   2.616   2.714   1.217 -0.3270  0.4534 -0.1430
  361SOL    HW1 1082   2.634   2.656   1.301  0.2788 -0.5177  0.2789
  361SOL    HW2 1083   2.536   2.682   1.164  2.0923  0.8182  1.0879
  362SOL     OW 1084   1.138   0.465   0.932 -0.0713 -0.1632  0.2801
  362SOL    HW1 1085   1.090   0.431   1.017 -1.9947 -0.9052 -0.5173
  362SOL    HW2 1086   1.071   0.484   0.860 -1.2071 -1.7754 -0.5981
  363SOL     OW 1087   1.959   1.780   0.724  0.2652 -0.0339 -0.2645
  363SOL    HW1 1088   1.956   1.690   0.768 -0.7076 -0.9412 -0.7167
  363SOL    HW2 1089   1.939   1.779   0.624 -0.5317  0.0108 -2.3022
  364SOL     OW 1090   0.613   0.388   1.501  0.1551  0.6415  0.4448
  364SOL    HW1 1091   0.656   0.325   1.431 -2.0221 -1.4437 -1.0059
  364SOL    HW2 1092   0.607   0.477   1.452 -2.3370 -1.2124  0.5131
  365SOL     OW 1093   0.271   0.129   1.042 -0.5675 -0.8320  0.1268
  365SOL    HW1 1094   0.235   0.077   1.122 -3.0225 -2.1725  1.6477
  365SOL    HW2 1095   0.290   0.061   0.966  0.6253 -0.4718  1.3321
  366SOL     OW 1096   2.853   1.050   0.211 -0.0469 -0.5176 -0.5078
  366SOL    HW1 1097   2.776   1.081   0.277 -0.6037 -2.0281  3.3234
  366SOL    HW2 1098   2.865   1.120   0.137 -3.4262 -0.0537 -2.1202
  367SOL     OW 1099   2.101   2.512   2.667  0.0887 -0.3190  0.0613
  367SOL    HW1 1100   2.047   2.540   2.745  0.9089 -2.5710  0.7241
  367SOL    HW2 1101   2.199   2.508   2.690 -1.2884 -0.3265 -0.5518
  368SOL     OW 1102   2.351   1.719   0.722  0.4078  0.3310 -0.0680
  368SOL    HW1 1103   2.352   1.815   0.688  1.8495  0.9394  0.7033
  368SOL    HW2 1104   2.275   1.667   0.677  2.3646 -0.7573  0.6956
  369SOL     OW 1105   2.057   0.604   2.546 -0.1703  0.1468 -0.0058
  369SOL    HW1 1106   2.143   0.656   2.571 -1.5237 -1.5952  0.6118
  369SOL    HW2 1107   1.990   0.629   2.618  1.0954 -0.8221 -0.1403
  370SOL     OW 1108   0.470   0.315   1.129 -0.9676  0.7567 -0.5754
  370SOL    HW1 1109   0.405   0.239   1.101 -0.4890 -2.3889 -2.7813
  370SOL    HW2 1110   0.549   0.281   1.187 -1.1216 -0.2639  1.4922
  371SOL     OW 1111   2.879   1.225   3.056 -0.4925 -0.6325 -0.4635
  371SOL    HW1 1112   2.937   1.229   2.974 -0.1387 -2.0040 -1.4123
  371SOL    HW2 1113   2.849   1.323   0.001 -1.1655  1.3680  0.5459
  372SOL     OW 1114   0.569   0.593   2.377  0.3339  0.0748  0.3687
  372SOL    HW1 1115   0.635   0.537   2.322 -2.8066  3.5670  1.8196
  372SOL    HW2 1116   0.586   0.687   2.347  1.1456  0.2522  1.5970
  373SOL     OW 1117   0.764   2.980   2.983  0.4079  0.1455  0.1691
  373SOL    HW1 1118   0.717   2.894   3.012 -1.3446 -0.6097  0.4065
  373SOL    HW2 1119   0.695   3.054   2.967  0.4796 -1.8794 -2.6821
  374SOL     OW 1120   0.843   1.421   2.871 -0.3270 -0.0158 -0.1810
  374SOL    HW1 1121   0.945   1.425   2.844  2.9222 -0.2226 -0.7626
  374SOL    HW2 1122   0.825   1.339   2.931 -1.7082 -1.6101  0.5063
  375SOL     OW 1123   1.097   0.406   2.011 -0.0702 -0.2953 -0.1149
  375SOL    HW1 1124   1.060   0.501   1.993  1.3156  0.4134 -1.2751
  375SOL    HW2 1125   1.041   0.362   2.086  0.4206 -1.8351  0.6948
  376SOL     OW 1126   0.094   2.803   1.938 -0.4955 -0.3045 -0.0627
  376SOL    HW1 1127   0.090   2.776   2.038  0.0910  1.1579 -1.9556
  376SOL    HW2 1128   0.143   2.736   1.883  1.5630  2.6270 -2.2901
  377SOL     OW 1129   2.827   2.054   2.738 -0.9596  0.6143 -0.0899
  377SOL    HW1 1130   2.738   2.055   2.693 -0.3826 -1.0583  0.8959
  377SOL    HW2 1131   2.821   1.986   2.815 -1.0669  1.3628  1.4782
  378SOL     OW 1132   2.095   0.146   0.297  0.0110 -0.0534 -0.7262
  378SOL    HW1 1133   2.150   0.059   0.294  2.7241 -1.9753  1.7187
  378SOL    HW2 1134   2.036   0.146   0.219  2.3475 -5.1543  2.4016
  379SOL     OW 1135   1.716   0.691   0.518  0.2356 -0.0310 -0.7324
  379SOL    HW1 1136   1.739   0.654   0.610  1.4079  0.9246 -0.6054
  379SOL    HW2 1137   1.764   0.779   0.504  1.5666  0.5492 -0.9733
  380SOL     OW 1138   2.557   1.985   1.709  0.3866  0.1275 -0.1762
  380SOL    HW1 1139   2.469   2.011   1.660 -0.6697 -1.6197  1.3184
  380SOL    HW2 1140   2.589   1.889   1.687 -3.4011 -1.0181 -1.1792
  381SOL     OW 1141   2.225   1.546   2.219 -0.0253 -0.3063 -0.0993
  381SOL    HW1 1142   2.196   1.600   2.137  1.1046  1.4822  2.2888
  381SOL    HW2 1143   2.245   1.451   2.198 -1.1039 -1.1500 -0.7976
  382SOL     OW 1144   2.807   2.610   2.738  0.3693  0.1189 -0.3624
  382SOL    HW1 1145   2.898   2.653   2.714  3.5541  0.0382 -3.1253
  382SOL    HW2 1146   2.814   2.525   2.799  2.5890 -1.2759  0.8456
  383SOL     OW 1147   1.150   1.154   2.930 -0.2529  0.0792  0.1452
  383SOL    HW1 1148   1.123   1.117   3.022  1.7257 -1.0501  0.2780
  383SOL    HW2 1149   1.135   1.254   2.912 -0.2385 -0.7229  1.8394
  384SOL     OW 1150   1.728   1.856   2.463 -0.0613  0.1063 -0.5975
  384SOL    HW1 1151   1.703   1.945   2.504 -2.1190  0.3877 -1.4123
  384SOL    HW2 1152   1.721   1.865   2.362  0.0454 -1.0292 -2.1167
  385SOL     OW 1153   1.835   2.795   0.487  0.0852 -0.2641 -0.4378
  385SOL    HW1 1154   1.757   2.844   0.521  0.7835  0.0606 -0.2543
  385SOL    HW2 1155   1.835   2.702   0.524 -0.2722  0.3446  0.2757
  386SOL     OW 1156   1.914   1.294   0.590 -0.1292 -0.1243  0.5218
  386SOL    HW1 1157   1.941   1.236   0.511 -1.5057 -3.5699  0.9128
  386SOL    HW2 1158   1.835   1.353   0.558 -1.6238 -0.1411  0.1819
  387SOL     OW 1159   2.881   1.899   1.469  0.2995  0.4060 -0.0005
  387SOL    HW1 1160   2.792   1.878   1.418 -3.1724 -0.6311 -0.6316
  387SOL    HW2 1161   2.894   1.840   1.551  1.7673  1.5107  1.2659
  388SOL     OW 1162   0.376   1.082   1.477  0.7062 -0.2004  0.3079
  388SOL    HW1 1163   0.331   1.131   1.402  0.0139  1.1514  0.1209
  388SOL    HW2 1164   0.324   1.090   1.565  1.0971 -2.4158 -1.7443
  389SOL     OW 1165   2.359   0.921   2.766  0.4725 -0.5899  0.2787
  389SOL    HW1 1166   2.358   0.877   2.859  1.4270 -0.5682  0.4549
  389SOL    HW2 1167   2.298   1.005   2.766 -0.8909  0.6997  0.6874
  390SOL     OW 1168   0.695   1.606   2.707 -0.2333 -0.4663 -0.5924
  390SOL    HW1 1169   0.750   1.554   2.771 -2.8616  1.3288  0.2244
  390SOL    HW2 1170   0.610   1.636   2.750 -0.3303  1.9325 -2.7512
  391SOL     OW 1171   0.834   2.247   0.108 -0.1859 -0.1238  0.1790
  391SOL    HW1 1172   0.758   2.302   0.148  0.4689  0.8183 -1.5662
  391SOL    HW2 1173   0.921   2.247   0.164  3.5026 -0.3440  0.2437
  392SOL     OW 1174   2.916   2.509   2.165  0.2181 -0.1723 -0.1851
  392SOL    HW1 1175   2.863   2.553   2.091  1.7582 -2.2809  0.5860
  392SOL    HW2 1176   2.941   2.573   2.241  1.4845 -1.6957 -2.2907
  393SOL     OW 1177   1.424   2.114   0.463 -0.1190  0.3194 -0.6704
  393SOL    HW1 1178   1.487   2.183   0.514  2.7915  2.6832  0.1237
  393SOL    HW2 1179   1.489   2.057   0.409 -0.7786 -0.2507  0.2095
  394SOL     OW 1180   0.535   0.273   2.380  0.1957  0.4322 -0.3514
  394SOL    HW1 1181   0.561   0.318   2.466 -0.3405 -1.3830 -0.0805
  394SOL    HW2 1182   0.537   0.339   2.305 -0.5105 -2.2292 -1.3736
  395SOL     OW 1183   0.537   1.377   1.281  0.0513 -0.1106  0.6354
  395SOL    HW1 1184   0.492   1.313   1.216 -0.5817 -0.4622  0.3391
  395SOL    HW2 1185   0.603   1.439   1.238  3.9748  0.8614 -0.5950
  396SOL     OW 1186   1.918   1.336   2.874  0.8809 -0.1460 -0.2120
  396SOL    HW1 1187   1.940   1.344   2.775 -3.8360  0.2383  0.0476
  396SOL    HW2 1188   1.843   1.266   2.884  0.2764 -0.8143  1.2941
  397SOL     OW 1189   0.349   0.471   3.024  0.0887 -0.6345 -0.3774
  397SOL    HW1 1190   0.437   0.482   2.974  0.5758 -0.7573 -0.3071
  397SOL    HW2 1191   0.289   0.553   3.008 -1.7813 -0.7545 -1.1150
  398SOL     OW 1192   1.079   2.637   0.066  0.2982  0.0722  0.3354
  398SOL    HW1 1193   1.011   2.664   3.070 -0.4156  0.9713 -0.2962
  398SOL    HW2 1194   1.174   2.676   0.050  0.9188  1.3711  1.5281
  399SOL     OW 1195   1.987   2.178   2.417 -0.9394 -0.4680 -0.0650
  399SOL    HW1 1196   2.073   2.163   2.372 -2.3879 -0.7110  1.7478
  399SOL    HW2 1197   1.963   2.277   2.404  0.4824  1.1553 -1.8555
  400SOL     OW 1198   2.431   1.407   1.298 -0.4101 -0.8057  0.0225
  400SOL    HW1 1199   2.429   1.365   1.391 -3.0498  1.0052 -1.0525
  400SOL    HW2 1200   2.417   1.331   1.232  1.5360 -0.7237  1.3993
  401SOL     OW 1201   1.648   0.929   1.020 -0.1211 -0.2533  0.1164
  401SOL    HW1 1202   1.669   0.856   0.955  0.2869  1.0244  1.5450
  401SOL    HW2 1203   1.599   0.885   1.099  0.7435 -0.9816  3.5447
  402SOL     OW 1204   0.154   0.008   2.437  0.2911  0.2952 -0.5924
  402SOL    HW1 1205   0.135   0.087   2.376  2.5463 -0.2387 -1.5741
  402SOL    HW2 1206   0.227   3.017   2.400 -0.1240 -1.0593 -1.4246
  403SOL     OW 1207   2.767   1.625   1.487 -0.6797  0.0895  0.6463
  403SOL    HW1 1208   2.830   1.605   1.404  2.2847 -1.9033 -3.8051
  403SOL    HW2 1209   2.703   1.706   1.467  1.7558  1.9314 -1.6435
  404SOL     OW 1210   2.339   1.710   1.571  0.0563  0.2552  0.2774
  404SOL    HW1 1211   2.296   1.793   1.619 -0.4240  1.3537  0.4460
  404SOL    HW2 1212   2.343   1.719   1.469  0.9354 -1.0904 -1.5615
  405SOL     OW 1213   2.216   0.224   2.429 -0.3452  0.1205 -0.1268
  405SOL    HW1 1214   2.211   0.250   2.331  0.9683  0.9412 -1.2420
  405SOL    HW2 1215   2.311   0.241   2.463  1.5517 -1.7972 -2.0606
  406SOL     OW 1216   0.929   1.203   2.578  0.0144 -0.1119 -0.9565
  406SOL    HW1 1217   0.908   1.157   2.668 -0.6401 -0.8742  2.4822
  406SOL    HW2 1218   0.966   1.297   2.591 -1.6764  0.6198 -3.6705
  407SOL     OW 1219   1.919   2.342   0.720  1.0039  0.0149  0.3005
  407SOL    HW1 1220   1.854   2.268   0.699  1.0311  0.7931 -0.0731
  407SOL    HW2 1221   1.953   2.377   0.629 -0.3845 -1.6811  0.7282
  408SOL     OW 1222   0.168   2.892   0.902 -0.2443  0.2064 -0.8043
  408SOL    HW1 1223   0.180   2.911   1.002  1.6367 -2.4403 -2.0811
  408SOL    HW2 1224   0.098   2.952   0.860 -0.2647 -1.9583  2.3418
  409SOL     OW 1225   1.973   1.519   0.781 -0.0399 -0.8904 -0.4152
  409SOL    HW1 1226   1.919   1.516   0.870 -1.1174 -1.9578  3.8505
  409SOL    HW2 1227   1.935   1.450   0.712 -0.1740 -0.3308 -1.4832
  410SOL     OW 1228   2.262   2.349   2.959 -0.3318  0.2919 -0.4753
  410SOL    HW1 1229   2.339   2.398   2.989 -3.4886 -1.6810  1.1747
  410SOL    HW2 1230   2.219   2.300   3.039 -3.4375 -0.8157  3.2731
  411SOL     OW 1231   2.975   2.721   0.665  0.1867  0.2116  0.1319
  411SOL    HW1 1232   3.001   2.816   0.689 -1.0205 -1.8908  0.8300
  411SOL    HW2 1233   2.880   2.720   0.630 -0.1323  1.0345  1.7320
  412SOL     OW 1234   1.402   2.653   0.754  0.5001  0.5151 -0.3836
  412SOL    HW1 1235   1.375   2.750   0.737  0.3622 -1.8417  3.1619
  412SOL    HW2 1236   1.356   2.620   0.837  1.2927  0.9208 -3.8079
  413SOL     OW 1237   1.772   3.044   2.517 -0.6023 -0.1138  0.1805
  413SOL    HW1 1238   1.733   3.016   2.427  0.0008  0.5011 -0.6038
  413SOL    HW2 1239   1.802   0.069   2.525  1.2195  3.1824  0.7194
  414SOL     OW 1240   0.519   0.575   0.685  0.0896  0.0861 -0.6015
  414SOL    HW1 1241   0.564   0.498   0.636  0.8426  3.8672  2.0098
  414SOL    HW2 1242   0.436   0.549   0.742 -0.4061 -0.9907 -0.3360
  415SOL     OW 1243   0.291   0.974   0.983 -0.5919 -0.1066 -0.5812
  415SOL    HW1 1244   0.252   0.940   0.897 -0.5313 -3.0316  0.8478
  415SOL    HW2 1245   0.375   0.924   1.019  0.1739  1.0997  3.0794
  416SOL     OW 1246   0.406   0.085   0.037 -0.0533 -0.3222 -0.1939
  416SOL    HW1 1247   0.347   0.163   0.069 -1.0742  0.8163  1.3635
  416SOL    HW2 1248   0.403   0.015   0.109  0.2514  1.4105  2.0696
  417SOL     OW 1249   2.079   0.397   0.732  0.2747  0.4646 -1.0623
  417SOL    HW1 1250   2.095   0.370   0.827  2.9673  1.4132 -1.5404
  417SOL    HW2 1251   1.987   0.364   0.703 -1.3985 -0.5704 -0.1617
  418SOL     OW 1252   0.555   0.448   2.596 -0.4431 -0.5210 -0.3597
  418SOL    HW1 1253   0.648   0.471   2.633  0.6233 -0.6944  0.9817
  418SOL    HW2 1254   0.525   0.525   2.533  0.0747  0.2867 -0.6247
  419SOL     OW 1255   0.585   0.818   0.579 -0.9905 -0.0946  0.0717
  419SOL    HW1 1256   0.567   0.727   0.619  1.4744  2.5439 -1.4046
  419SOL    HW2 1257   0.553   0.889   0.644 -3.2557  2.9631 -1.9042
  420SOL     OW 1258   2.174   1.775   1.234 -0.4154  0.1137  0.1270
  420SOL    HW1 1259   2.207   1.858   1.179  0.8388 -1.4985 -0.9142
  420SOL    HW2 1260   2.251   1.709   1.235 -0.5754 -0.2590 -1.8495
  421SOL     OW 1261   1.130   1.704   2.707 -0.2496  0.3898  0.2661
  421SOL    HW1 1262   1.036   1.748   2.723  0.2712  3.8017 -3.5425
  421SOL    HW2 1263   1.156   1.711   2.608  0.5343 -0.2156  0.4380
  422SOL     OW 1264   2.752   0.639   0.107 -0.1819  0.5782  0.2093
  422SOL    HW1 1265   2.697   0.610   0.188 -1.8064  1.7452  1.1612
  422SOL    HW2 1266   2.794   0.556   0.069 -0.1062 -0.4330  0.9143
  423SOL     OW 1267   2.032   2.139   0.511  0.7221  0.1898 -0.4822
  423SOL    HW1 1268   2.047   2.091   0.422  0.8067 -0.0270 -1.6921
  423SOL    HW2 1269   1.958   2.096   0.561  1.1680  4.3968  2.0058
  424SOL     OW 1270   0.454   1.635   1.479 -0.7882  0.2955 -0.4229
  424SOL    HW1 1271   0.554   1.614   1.454  2.4396 -1.0317  0.4705
  424SOL    HW2 1272   0.397   1.553   1.469 -1.7768  2.3852 -0.1487
  425SOL     OW 1273   2.589   2.778   2.199 -0.2678 -0.0946 -0.3707
  425SOL    HW1 1274   2.633   2.869   2.201 -1.5016  1.9534  0.7620
  425SOL    HW2 1275   2.659   2.705   2.192 -2.1944  0.1132 -0.3375
  426SOL     OW 1276   1.658   2.525   0.485 -0.0245 -0.6186 -0.2032
  426SOL    HW1 1277   1.580   2.585   0.465 -0.3140 -0.8974  1.4514
  426SOL    HW2 1278   1.667   2.523   0.584  4.3223 -1.1355  0.3036
  427SOL     OW 1279   0.253   0.683   2.643 -0.9027 -0.1422 -0.4577
  427SOL    HW1 1280   0.354   0.663   2.655  0.8506 -0.8038 -0.2099
  427SOL    HW2 1281   0.198   0.600   2.626  2.4604  3.6398  2.5525
  428SOL     OW 1282   2.129   1.122   2.765  0.6295 -0.2605 -0.5246
  428SOL    HW1 1283   2.147   1.167   2.671 -0.8549 -0.8246 -0.5137
  428SOL    HW2 1284   2.035   1.077   2.774 -0.3393  0.5677 -1.1564
  429SOL     OW 1285   2.941   0.106   0.553  0.2818  0.4865  0.1133
  429SOL    HW1 1286   2.933   0.106   0.453 -0.4805 -0.9639 -0.4793
  429SOL    HW2 1287   2.854   0.122   0.598  1.9847  1.2975 -0.5713
  430SOL     OW 1288   1.076   2.773   1.986  0.1539 -0.2051  0.0123
  430SOL    HW1 1289   0.978   2.759   2.012  3.0291 -0.4632  1.2855
  430SOL    HW2 1290   1.132   2.702   2.036  1.9561 -0.3827  1.5039
  431SOL     OW 1291   2.987   2.098   1.178  0.0787  0.4534 -0.3295
  431SOL    HW1 1292   2.902   2.108   1.226  1.2980 -1.0547 -1.5995
  431SOL    HW2 1293   3.050   2.050   1.244  0.1005  1.9504  1.1839
  432SOL     OW 1294   2.287   2.831   2.032 -0.2419 -0.2196 -0.4207
  432SOL    HW1 1295   2.378   2.796   2.005 -2.1853  0.3930  0.6707
  432SOL    HW2 1296   2.294   2.896   2.108  2.2634 -2.7664 -2.7625
  433SOL     OW 1297   1.216   2.023   0.208  0.5667 -0.6726  0.6236
  433SOL    HW1 1298   1.252   1.937   0.244  2.2673  1.1163  0.5157
  433SOL    HW2 1299   1.219   2.025   0.104 -0.5814 -1.7871 -0.4917
  434SOL     OW 1300   0.035   2.329   2.394 -0.5880 -0.0947 -0.9492
  434SOL    HW1 1301   3.048   2.280   2.332 -1.6280  2.1729 -0.2157
  434SOL    HW2 1302   0.060   2.269   2.473 -0.3283  0.2726  2.4952
  435SOL     OW 1303   0.128   0.936   0.493  0.7525  0.4080 -0.0085
  435SOL    HW1 1304   0.218   0.910   0.457 -4.1328  0.6400  2.5391
  435SOL    HW2 1305   0.061   0.857   0.482 -0.2941  0.2827 -3.3304
  436SOL     OW 1306   0.751   2.535   1.836 -0.2928 -0.5954 -0.2842
  436SOL    HW1 1307   0.773   2.544   1.734  0.2148  0.2628 -1.2174
  436SOL    HW2 1308   0.760   2.435   1.864 -0.7983 -1.8797  0.3308
  437SOL     OW 1309   1.223   2.035   1.501 -0.0867  0.2503  0.2270
  437SOL    HW1 1310   1.265   2.114   1.456 -0.3856 -0.6623  2.9604
  437SOL    HW2 1311   1.295   1.980   1.542 -3.2154 -1.5693  0.2286
  438SOL     OW 1312   0.351   2.199   0.398 -0.0315  0.4563  0.0406
  438SOL    HW1 1313   0.387   2.206   0.301 -0.2446 -0.2892 -3.2277
  438SOL    HW2 1314   0.268   2.141   0.403 -1.8385  0.3088 -1.1871
  439SOL     OW 1315   0.472   0.073   1.382 -0.2528  0.5160 -0.7361
  439SOL    HW1 1316   0.476   3.068   1.323 -0.5327  1.4380 -1.6301
  439SOL    HW2 1317   0.449   0.043   1.480 -1.0783 -0.1360  0.9705
  440SOL     OW 1318   2.445   2.727   2.419 -1.0767 -0.1076 -0.0445
  440SOL    HW1 1319   2.481   2.632   2.435 -1.9548  0.6602  0.9275
  440SOL    HW2 1320   2.493   2.765   2.339  0.4971 -1.0871  2.7308
  441SOL     OW 1321   3.065   0.575   1.603 -0.1275  0.6737 -0.2073
  441SOL    HW1 1322   3.031   0.567   1.509  0.4646 -1.7617 -2.6791
  441SOL    HW2 1323   0.050   0.497   1.626  1.2756 -1.5794 -1.9669
  442SOL     OW 1324   1.867   2.306   3.011 -0.4459  0.5620 -0.4309
  442SOL    HW1 1325   1.796   2.345   3.075  1.7044  2.8402  0.6149
  442SOL    HW2 1326   1.894   2.370   2.934  1.6046  0.0977  1.9523
  443SOL     OW 1327   0.230   0.718   2.910  0.1026 -0.3570  0.1605
  443SOL    HW1 1328   0.162   0.788   2.943  1.4528  0.0980  4.1792
  443SOL    HW2 1329   0.209   0.716   2.807 -3.6248  0.7201 -1.5249
  444SOL     OW 1330   1.561   1.342   2.324  0.6882  0.3966 -0.5556
  444SOL    HW1 1331   1.571   1.275   2.247  0.7158 -1.2021 -2.9566
  444SOL    HW2 1332   1.598   1.429   2.290  1.0955 -2.0960 -0.0190
  445SOL     OW 1333   0.021   2.495   1.026  0.1247 -0.4609 -0.3169
  445SOL    HW1 1334   3.048   2.575   1.070  1.1950 -0.9687  2.3417
  445SOL    HW2 1335   0.115   2.526   0.995  2.1257 -0.2389 -0.8589
  446SOL     OW 1336   2.890   1.537   1.231 -0.1669 -0.4272  0.0933
  446SOL    HW1 1337   2.869   1.434   1.229 -1.1921 -0.0974  1.1375
  446SOL    HW2 1338   2.869   1.578   1.143  0.3228 -1.3921  1.4134
  447SOL     OW 1339   0.306   0.667   0.531  0.0249 -0.1576 -0.1494
  447SOL    HW1 1340   0.339   0.670   0.435 -0.7964  0.4759 -0.7931
  447SOL    HW2 1341   0.385   0.656   0.595  0.8931  0.6499 -0.0155
  448SOL     OW 1342   1.507   1.977   1.967 -0.0805  0.3232  0.2925
  448SOL    HW1 1343   1.477   2.062   1.922  0.3286 -1.1997  0.3954
  448SOL    HW2 1344   1.545   1.992   2.057  0.0670 -0.3534 -1.4118
  449SOL     OW 1345   0.998   1.471   0.206 -0.0357 -0.5320  0.0409
  449SOL    HW1 1346   0.982   1.406   0.285 -0.0666  0.6819 -2.8353
  449SOL    HW2 1347   1.081   1.444   0.147  1.9372  1.4420  0.9883
  450SOL     OW 1348   3.026   2.167   1.857 -0.0427  0.3799 -0.0184
  450SOL    HW1 1349   0.025   2.099   1.840  0.1545 -0.7257  2.1675
  450SOL    HW2 1350   2.965   2.167   1.774 -0.3747 -1.2282 -1.9806
  451SOL     OW 1351   2.560   0.870   2.604 -0.0894  0.1449 -0.0735
  451SOL    HW1 1352   2.483   0.882   2.670  0.2653  0.3330 -1.3774
  451SOL    HW2 1353   2.606   0.777   2.612 -0.0497 -0.2131 -3.0282
  452SOL     OW 1354   1.565   0.514   1.074  0.0198 -0.2288  0.5991
  452SOL    HW1 1355   1.483   0.533   1.133  2.2591  0.6097  1.7272
  452SOL    HW2 1356   1.645   0.548   1.121 -3.8514  0.2342  2.5055
  453SOL     OW 1357   1.523   0.865   1.245  0.3292 -0.1176  0.0407
  453SOL    HW1 1358   1.489   0.779   1.290  1.5341  0.6213  0.9529
  453SOL    HW2 1359   1.550   0.934   1.315 -0.9469 -2.1730 -0.5389
  454SOL     OW 1360   3.040   1.321   0.368  0.1564 -0.2129  0.7572
  454SOL    HW1 1361   3.024   1.231   0.407 -2.2655 -0.0123  0.2741
  454SOL    HW2 1362   3.000   1.393   0.426  0.3728 -1.2462  0.1337
  455SOL     OW 1363   2.330   2.590   1.502  0.1294  0.5011  0.4258
  455SOL    HW1 1364   2.276   2.652   1.448  0.0462 -1.5655  1.2945
  455SOL    HW2 1365   2.326   2.497   1.457 -1.0589 -1.4415  0.3131
  456SOL     OW 1366   0.266   2.676   1.445  0.5453 -0.2660  0.5721
  456SOL    HW1 1367   0.319   2.730   1.514 -1.8034 -0.8367 -3.7391
  456SOL    HW2 1368   0.273   2.718   1.351 -1.0651  1.1665 -2.9027
  457SOL     OW 1369   1.313   2.883   0.598  0.1493  0.9182  0.1268
  457SOL    HW1 1370   1.254   2.809   0.553  0.5957 -2.9795 -0.4486
  457SOL    HW2 1371   1.276   2.975   0.572  0.8741  1.7146  1.0756
  458SOL     OW 1372   2.611   2.976   1.167 -0.0075 -0.1820 -0.3745
  458SOL    HW1 1373   2.675   3.011   1.238  0.6878 -2.5446  0.7037
  458SOL    HW2 1374   2.605   2.874   1.178  0.2732 -2.1886  0.5016
  459SOL     OW 1375   2.559   0.571   2.627 -0.1413 -0.0795 -0.4779
  459SOL    HW1 1376   2.646   0.582   2.678  1.1304 -0.7200  0.6983
  459SOL    HW2 1377   2.581   0.532   2.533 -1.0287  1.5657 -1.3288
  460SOL     OW 1378   2.790   2.418   2.937 -0.5852  0.4164 -0.3736
  460SOL    HW1 1379   2.782   2.492   3.006 -0.2435 -2.3644 -0.1793
  460SOL    HW2 1380   2.780   2.324   2.976 -1.5000  2.9811 -1.3959
  461SOL     OW 1381   0.665   1.669   0.328 -0.1922 -0.5920  0.7992
  461SOL    HW1 1382   0.610   1.741   0.279 -1.8747  2.2478 -0.1494
  461SOL    HW2 1383   0.724   1.620   0.257 -2.0298 -1.3156  1.5213
  462SOL     OW 1384   2.057   2.160   0.893 -0.0509 -0.0841 -0.4244
  462SOL    HW1 1385   2.025   2.241   0.843  1.4956 -1.7920 -0.9828
  462SOL    HW2 1386   2.150   2.171   0.927 -0.4501  1.3082 -2.9751
  463SOL     OW 1387   2.637   1.092   0.833 -0.6588  0.4481 -0.0038
  463SOL    HW1 1388   2.709   1.020   0.835 -1.5128  0.9358 -2.7634
  463SOL    HW2 1389   2.554   1.067   0.778 -1.2905  1.0013  0.8560
  464SOL     OW 1390   0.995   2.929   0.725  0.1657 -0.1604  0.6348
  464SOL    HW1 1391   0.946   2.892   0.644 -2.2702 -1.0056  0.5848
  464SOL    HW2 1392   1.052   2.862   0.778 -0.5530  1.6710  2.3611
  465SOL     OW 1393   2.233   1.374   0.417  0.4277 -0.1514  0.1391
  465SOL    HW1 1394   2.149   1.338   0.372  0.2471 -1.0929  0.7065
  465SOL    HW2 1395   2.285   1.436   0.351 -0.8819  1.5074  0.8369
  466SOL     OW 1396   2.165   0.363   2.871  0.5331 -0.9381  0.3182
  466SOL    HW1 1397   2.123   0.358   2.777  0.6423  1.7455  0.6105
  466SOL    HW2 1398   2.252   0.420   2.862 -1.8131 -1.8709  1.1339
  467SOL     OW 1399   1.085   1.039   1.485 -0.2642 -0.3110  0.2383
  467SOL    HW1 1400   1.079   0.946   1.451  0.7784  2.8055  0.6590
  467SOL    HW2 1401   0.989   1.075   1.500 -0.3732  2.9999 -0.4643
  468SOL     OW 1402   0.584   1.149   2.340  0.1254 -0.4291  0.1236
  468SOL    HW1 1403   0.525   1.146   2.254 -2.8137 -2.0136 -0.8381
  468SOL    HW2 1404   0.532   1.165   2.429 -1.4494 -1.0576  0.2607
  469SOL     OW 1405   0.475   2.188   0.131  0.1811  0.1751 -0.0077
  469SOL    HW1 1406   0.526   2.275   0.110  0.3532 -0.1984 -0.4911
  469SOL    HW2 1407   0.539   2.111   0.155  1.5264 -3.8750  1.3670
  470SOL     OW 1408   2.536   1.193   2.845 -0.5548 -0.5539  0.3608
  470SOL    HW1 1409   2.603   1.132   2.892  0.4289  2.0651 -0.9055
  470SOL    HW2 1410   2.578   1.293   2.846  0.1275  3.0087 -3.2197
  471SOL     OW 1411   2.527   1.181   2.158  0.0780 -0.1565  0.0763
  471SOL    HW1 1412   2.537   1.108   2.227 -0.0074 -0.4989 -0.9824
  471SOL    HW2 1413   2.615   1.221   2.126  2.5367  0.2253 -0.3274
  472SOL     OW 1414   0.429   2.487   0.754 -0.1663 -0.5054 -0.2083
  472SOL    HW1 1415   0.359   2.436   0.702  2.2258  0.2786 -1.3222
  472SOL    HW2 1416   0.481   2.553   0.695  1.4133  2.9542 -1.2776
  473SOL     OW 1417   0.619   0.130   2.952  0.5035  0.2501  0.0439
  473SOL    HW1 1418   0.528   0.117   3.000  0.0558  1.2799  1.6474
  473SOL    HW2 1419   0.607   0.201   2.885  0.2886 -0.5977 -0.9812
  474SOL     OW 1420   1.688   0.499   2.041  0.4600  0.2288  0.2652
  474SOL    HW1 1421   1.720   0.535   1.948 -1.4924  2.1263  0.5285
  474SOL    HW2 1422   1.613   0.431   2.023  0.1345  0.0334 -2.4841
  475SOL     OW 1423   1.044   2.526   0.323 -0.3919  0.6960  0.6153
  475SOL    HW1 1424   1.037   2.424   0.323 -0.5894 -1.2638  2.7497
  475SOL    HW2 1425   1.045   2.557   0.224  1.0543 -1.1650  0.3015
  476SOL     OW 1426   0.529   1.041   0.721 -0.1200  0.1804  0.1677
  476SOL    HW1 1427   0.601   1.044   0.792  1.9117  0.1723  0.4694
  476SOL    HW2 1428   0.448   1.104   0.738  0.2246  1.5893 -1.8249
  477SOL     OW 1429   1.654   2.402   1.406 -0.4795 -0.2359 -0.8237
  477SOL    HW1 1430   1.577   2.377   1.471 -2.3425 -1.4034  2.5853
  477SOL    HW2 1431   1.618   2.422   1.313 -0.5631 -3.0391  1.6465
  478SOL     OW 1432   0.533   1.459   2.209 -0.1075 -0.0356  0.5092
  478SOL    HW1 1433   0.619   1.445   2.158 -0.2159  0.5776 -0.0993
  478SOL    HW2 1434   0.556   1.454   2.306  3.9502 -0.2559 -2.8548
  479SOL     OW 1435   0.119   2.969   1.161  0.8257  0.1891  0.5902
  479SOL    HW1 1436   0.088   2.933   1.250 -0.1295 -2.9454  1.3563
  479SOL    HW2 1437   0.061   3.044   1.132  1.8081  0.4465  0.4954
  480SOL     OW 1438   2.741   2.925   0.184  0.7570  0.1069  0.2455
  480SOL    HW1 1439   2.649   2.960   0.218 -3.6190  3.7380  0.8148
  480SOL    HW2 1440   2.796   2.864   0.247 -0.7957 -1.3057  0.8140
  481SOL     OW 1441   2.751   2.749   0.978  0.1028  0.2298  0.1872
  481SOL    HW1 1442   2.733   2.664   0.928 -1.3548  2.9255 -0.2982
  481SOL    HW2 1443   2.716   2.748   1.076  0.3916  1.5788 -0.0668
  482SOL     OW 1444   1.582   2.309   2.331  0.2977  0.5257  0.8974
  482SOL    HW1 1445   1.608   2.228   2.383 -0.1778  2.6222 -0.4685
  482SOL    HW2 1446   1.655   2.329   2.263  0.5272  2.5860  0.5343
  483SOL     OW 1447   0.396   1.597   2.495  0.0077 -0.3203  0.4685
  483SOL    HW1 1448   0.487   1.559   2.497 -1.4385  0.4031 -1.9831
  483SOL    HW2 1449   0.338   1.542   2.431 -1.3806 -0.2642  0.4127
  484SOL     OW 1450   1.153   1.130   2.343 -0.5082  0.0738  0.1669
  484SOL    HW1 1451   1.060   1.098   2.311 -0.5790  0.0391 -1.1787
  484SOL    HW2 1452   1.160   1.228   2.329  0.5937 -4.2068 -0.4974
  485SOL     OW 1453   2.649   0.300   0.372  0.3033 -0.3480 -0.2329
  485SOL    HW1 1454   2.561   0.284   0.422 -2.2055 -0.8366  1.5286
  485SOL    HW2 1455   2.692   0.209   0.356  0.5511 -2.0428  1.4767
  486SOL     OW 1456   1.534   2.931   0.868  0.0223 -0.1503  0.4397
  486SOL    HW1 1457   1.618   2.936   0.928  2.3271 -0.2248 -0.2540
  486SOL    HW2 1458   1.561   2.939   0.766  1.6790  1.2124  0.1832
  487SOL     OW 1459   0.564   2.417   1.062 -0.0858  0.2174 -0.2932
  487SOL    HW1 1460   0.464   2.426   1.071  0.1430 -0.5195 -0.9968
  487SOL    HW2 1461   0.599   2.486   0.998 -1.6632  0.2037 -1.9454
  488SOL     OW 1462   2.259   1.205   0.159  0.2798  0.0838 -0.2234
  488SOL    HW1 1463   2.305   1.287   0.199  1.8420  1.3048  0.5811
  488SOL    HW2 1464   2.275   1.191   0.060  1.1214 -0.3244  1.3818
  489SOL     OW 1465   1.302   2.967   0.988  0.0656 -0.3566 -0.1854
  489SOL    HW1 1466   1.339   2.959   1.083 -3.1975 -1.5888  1.4848
  489SOL    HW2 1467   1.374   2.947   0.920  0.4171  2.2207  0.6604
  490SOL     OW 1468   1.102   1.080   0.104 -0.1456  0.0078 -0.0155
  490SOL    HW1 1469   1.187   1.138   0.114  0.8149  0.3847 -1.0657
  490SOL    HW2 1470   1.045   1.083   0.190  0.0081 -1.3960  0.6022
  491SOL     OW 1471   0.764   2.981   0.885 -0.3440  0.2312  0.0453
  491SOL    HW1 1472   0.812   2.998   0.795  1.0598 -0.6941 -0.9966
  491SOL    HW2 1473   0.803   2.899   0.928  0.0438  2.8876 -0.2037
  492SOL     OW 1474   1.320   1.320   2.050 -0.3861  0.4857  0.0502
  492SOL    HW1 1475   1.306   1.333   2.149  0.5825  0.8720  0.9400
  492SOL    HW2 1476   1.405   1.366   2.016 -1.6806 -1.1639 -1.0438
  493SOL     OW 1477   0.231   2.392   0.586 -0.9517 -0.4703  0.3264
  493SOL    HW1 1478   0.266   2.317   0.527 -2.9879  0.1291  0.3650
  493SOL    HW2 1479   0.171   2.459   0.539 -0.8215 -0.0871 -1.6714
  494SOL     OW 1480   2.553   1.826   3.057 -0.2099 -0.6304 -0.7083
  494SOL    HW1 1481   2.460   1.854   3.019 -3.6860  1.3185 -0.2706
  494SOL    HW2 1482   2.551   1.723   3.068 -2.1706  1.4437  0.5549
  495SOL     OW 1483   2.674   1.427   2.859 -0.0660  0.0615  0.1253
  495SOL    HW1 1484   2.736   1.389   2.786  2.1240  0.3049 -2.3356
  495SOL    HW2 1485   2.733   1.437   2.944  0.8785  1.4437 -2.2676
  496SOL     OW 1486   2.598   0.001   1.562  0.1546 -0.0894  0.1792
  496SOL    HW1 1487   2.499   0.029   1.577  1.3637  0.2101 -1.3307
  496SOL    HW2 1488   2.623   3.008   1.629  0.6089  1.1921  0.4035
  497SOL     OW 1489   2.424   1.101   0.656 -0.7194  0.0829  0.0447
  497SOL    HW1 1490   2.356   1.039   0.611 -0.0531  2.8710  0.7954
  497SOL    HW2 1491   2.453   1.178   0.591  1.2635  2.7321 -0.2095
  498SOL     OW 1492   2.850   2.115   2.380  0.0262  0.2242 -0.3245
  498SOL    HW1 1493   2.891   2.025   2.413 -4.3683  0.5630  0.6570
  498SOL    HW2 1494   2.879   2.136   2.288 -1.5933 -2.5854  4.4622
  499SOL     OW 1495   0.837   1.975   0.351 -0.2542 -0.1443 -0.4417
  499SOL    HW1 1496   0.861   1.962   0.451  1.6940 -1.3297  0.3043
  499SOL    HW2 1497   0.880   1.902   0.298 -1.0539  0.4881  0.7509
  500SOL     OW 1498   0.680   0.032   2.669  0.0441 -0.1150 -0.3612
  500SOL    HW1 1499   0.758   0.035   2.735 -1.3437 -2.3772  0.6061
  500SOL    HW2 1500   0.619   0.109   2.694  1.6650  0.1414 -1.6908
  501SOL     OW 1501   1.449   2.994   1.213  0.8577 -0.1161 -0.1830
  501SOL    HW1 1502   1.511   2.956   1.287 -0.3619  0.2877 -2.5257
  501SOL    HW2 1503   1.479   0.012   1.186 -1.0212  2.4237 -1.7103
  502SOL     OW 1504   3.041   0.211   2.236 -0.2192 -0.0352  0.4481
  502SOL    HW1 1505   0.054   0.239   2.268  0.4513  0.0818  3.3216
  502SOL    HW2 1506   3.018   0.251   2.142  1.9758 -0.6685 -2.5030
  503SOL     OW 1507   2.341   2.123   2.505  0.3528  0.1206  0.4094
  503SOL    HW1 1508   2.279   2.042   2.494  1.7315  2.2628  1.3019
  503SOL    HW2 1509   2.332   2.153   2.605 -0.0786 -1.7999  1.3145
  504SOL     OW 1510   1.427   0.519   1.730 -0.0959 -0.0615 -0.1263
  504SOL    HW1 1511   1.377   0.440   1.769  0.5643  2.4887  0.5326
  504SOL    HW2 1512   1.502   0.496   1.658  2.1773  0.4742 -4.5297
  505SOL     OW 1513   0.032   0.951   1.354 -0.6678 -0.5848 -0.1272
  505SOL    HW1 1514   0.027   1.046   1.323  0.6734 -2.9530  1.4601
  505SOL    HW2 1515   0.011   0.895   1.273  1.3099  2.9043 -1.0378
  506SOL     OW 1516   0.419   1.133   2.127 -0.2888  0.5669 -0.1920
  506SOL    HW1 1517   0.354   1.195   2.084  1.2796 -0.7070  2.7730
  506SOL    HW2 1518   0.447   1.065   2.056 -0.4759 -0.5405  0.5321
  507SOL     OW 1519   0.348   2.921   2.357 -0.5493  0.8163 -0.2072
  507SOL    HW1 1520   0.434   2.943   2.408  0.1272 -3.6654 -0.8207
  507SOL    HW2 1521   0.345   2.823   2.314  0.6969 -2.0829 -1.5443
  508SOL     OW 1522   1.469   0.634   1.361  0.5402 -0.4213  0.7264
  508SOL    HW1 1523   1.508   0.571   1.433 -0.2753  0.2721 -0.5638
  508SOL    HW2 1524   1.377   0.602   1.331 -3.2852  1.0409 -0.3043
  509SOL     OW 1525   0.846   1.812   1.586 -0.1745  0.3393  0.0250
  509SOL    HW1 1526   0.870   1.837   1.684  0.0684  1.3513  2.0903
  509SOL    HW2 1527   0.937   1.796   1.536  2.8160  0.3837  0.8151
  510SOL     OW 1528   2.474   0.782   2.349  0.6261 -0.3668  0.8342
  510SOL    HW1 1529   2.507   0.684   2.337  1.2788 -0.4078  2.0017
  510SOL    HW2 1530   2.519   0.825   2.435 -0.3706  1.5656  0.3562
  511SOL     OW 1531   0.679   1.606   1.003 -0.1993 -0.0136  0.3669
  511SOL    HW1 1532   0.745   1.645   0.940 -0.6400  0.4804  1.4170
  511SOL    HW2 1533   0.585   1.640   0.982 -1.4513  2.2410  1.1303
  512SOL     OW 1534   2.550   2.026   0.625  0.4639 -0.0951 -0.3909
  512SOL    HW1 1535   2.457   1.996   0.596  0.8459 -0.4042 -0.7645
  512SOL    HW2 1536   2.552   2.127   0.647 -0.8541 -0.0057  0.2153
  513SOL     OW 1537   2.863   1.312   2.660 -0.6140 -0.4789  0.2568
  513SOL    HW1 1538   2.868   1.214   2.622  0.3048 -0.9906  1.0690
  513SOL    HW2 1539   2.890   1.373   2.587  1.6557  0.5462 -0.4347
  514SOL     OW 1540   0.132   2.163   2.591  0.3601  0.6489 -0.5315
  514SOL    HW1 1541   0.085   2.186   2.680 -2.3143  1.7327  2.4638
  514SOL    HW2 1542   0.227   2.196   2.582 -0.6835  1.5728 -0.2826
  515SOL     OW 1543   1.829   1.731   2.206 -0.0298 -0.0059  0.6985
  515SOL    HW1 1544   1.884   1.710   2.119  0.0902  0.5858 -0.4745
  515SOL    HW2 1545   1.852   1.825   2.237  0.4628 -0.8399  0.8041
  516SOL     OW 1546   2.354   2.184   2.765 -0.7164 -0.0802 -0.3727
  516SOL    HW1 1547   2.306   2.259   2.820 -2.0995  0.6825 -0.6553
  516SOL    HW2 1548   2.448   2.215   2.748 -1.4115 -1.2069  0.4365
  517SOL     OW 1549   1.430   1.185   0.119  0.7054 -0.4372 -0.5650
  517SOL    HW1 1550   1.474   1.128   0.047  0.8254 -1.4594  2.2198
  517SOL    HW2 1551   1.447   1.136   0.210 -1.5104 -3.1347  1.5361
  518SOL     OW 1552   2.618   3.057   2.167 -0.0217  0.3798 -0.0869
  518SOL    HW1 1553   2.633   0.065   2.117 -1.9805  0.5865  0.7290
  518SOL    HW2 1554   2.517   3.032   2.174 -1.2825 -0.0236  0.9595
  519SOL     OW 1555   1.850   2.177   2.016  0.3248 -0.0554 -0.4285
  519SOL    HW1 1556   1.815   2.219   1.931 -1.5317 -0.4569  1.5999
  519SOL    HW2 1557   1.947   2.143   2.006 -1.5096 -1.4992 -0.5414
  520SOL     OW 1558   2.597   0.020   2.749  0.3949 -0.0021  0.0617
  520SOL    HW1 1559   2.629   3.009   2.789 -0.3074  0.3634  1.8721
  520SOL    HW2 1560   2.677   0.079   2.728  0.1396  0.0198  0.1703
  521SOL     OW 1561   0.305   1.377   2.106 -0.2928 -0.1342  0.2271
  521SOL    HW1 1562   0.256   1.456   2.068 -0.4931 -2.8422  0.4626
  521SOL    HW2 1563   0.398   1.403   2.126 -2.3700 -2.1276 -0.9080
  522SOL     OW 1564   0.920   0.221   1.882 -0.0686  0.1217  0.9958
  522SOL    HW1 1565   1.005   0.269   1.893 -2.6976 -2.9337 -0.6666
  522SOL    HW2 1566   0.864   0.267   1.808  0.3201  0.3624 -2.2768
  523SOL     OW 1567   0.279   2.651   0.958  0.3002 -0.2203  0.5777
  523SOL    HW1 1568   0.234   2.739   0.930 -0.0538  2.6158  0.3348
  523SOL    HW2 1569   0.313   2.594   0.881  1.2640 -2.5112  1.0565
  524SOL     OW 1570   1.628   2.464   0.761  0.2540 -0.6000  0.0138
  524SOL    HW1 1571   1.651   2.434   0.854 -1.4272  1.2278  1.9008
  524SOL    HW2 1572   1.557   2.539   0.761  1.8508 -2.0999 -0.7641
  525SOL     OW 1573   2.357   0.589   1.175  0.5846  0.3980 -0.6514
  525SOL    HW1 1574   2.446   0.633   1.189 -0.1877  0.4811 -1.9619
  525SOL    HW2 1575   2.282   0.651   1.206 -0.0857 -1.3650 -1.5096
  526SOL     OW 1576   0.889   2.411   0.779 -0.1159 -0.1203  0.7787
  526SOL    HW1 1577   0.953   2.384   0.698  1.8715 -1.1392 -0.1812
  526SOL    HW2 1578   0.860   2.505   0.767  1.7441  1.7874 -1.4568
  527SOL     OW 1579   2.285   1.951   0.596 -0.1937  0.4607  0.4903
  527SOL    HW1 1580   2.229   1.874   0.551 -0.1966 -0.6849  1.4845
  527SOL    HW2 1581   2.232   2.031   0.612  0.1957 -1.2738  2.2923
  528SOL     OW 1582   2.222   0.625   0.644 -0.7512  0.3782  0.2153
  528SOL    HW1 1583   2.177   0.538   0.685  1.8259 -2.3997 -0.2388
  528SOL    HW2 1584   2.155   0.700   0.644 -0.2160 -5.0715 -0.5601
  529SOL     OW 1585   1.127   1.390   2.320 -0.0934  0.2173  0.3562
  529SOL    HW1 1586   1.040   1.441   2.322  2.1389 -1.9632 -0.3719
  529SOL    HW2 1587   1.202   1.443   2.370  2.5679  0.2161  0.7542
  530SOL     OW 1588   2.562   0.857   0.089 -0.4639 -0.3349 -0.2234
  530SOL    HW1 1589   2.618   0.771   0.118  1.0081 -2.2174  3.3707
  530SOL    HW2 1590   2.517   0.900   0.171 -0.1454  0.9608  0.0492
  531SOL     OW 1591   1.227   0.950   0.345 -0.2197 -0.1917  0.4542
  531SOL    HW1 1592   1.192   0.856   0.328 -0.3097 -1.6655 -1.0878
  531SOL    HW2 1593   1.180   0.995   0.422  0.5379  2.2014  1.4731
  532SOL     OW 1594   2.058   2.959   0.692  0.5992 -0.1082  0.0449
  532SOL    HW1 1595   1.960   2.998   0.695 -4.1258  0.5841 -0.0066
  532SOL    HW2 1596   2.128   3.026   0.725 -1.2047  0.4232 -1.3510
  533SOL     OW 1597   1.306   0.840   2.170 -0.1636  0.1922 -0.0456
  533SOL    HW1 1598   1.242   0.908   2.123 -2.6311  0.4807 -1.2998
  533SOL    HW2 1599   1.401   0.856   2.141  0.2093  0.6497 -0.0439
  534SOL     OW 1600   1.794   2.888   2.914 -0.0427 -0.6609 -0.4254
  534SOL    HW1 1601   1.813   2.896   2.818 -0.5624 -0.1784 -0.1274
  534SOL    HW2 1602   1.827   2.797   2.944 -1.2289  0.3611 -0.5463
  535SOL     OW 1603   0.463   2.951   0.257 -0.4242 -0.4096 -0.4022
  535SOL    HW1 1604   0.492   2.975   0.353  3.3224 -0.0835  1.0622
  535SOL    HW2 1605   0.368   2.979   0.244  2.0816  0.0432  1.2879
  536SOL     OW 1606   0.650   2.720   0.974  0.0262  0.6380  0.2376
  536SOL    HW1 1607   0.569   2.754   1.024  0.0541  3.6092  0.0662
  536SOL    HW2 1608   0.735   2.729   1.032 -2.9380  0.9673 -0.1901
  537SOL     OW 1609   1.752   0.647   1.221 -0.2582  0.2574  0.8395
  537SOL    HW1 1610   1.804   0.592   1.289  1.0798  0.5127 -0.9358
  537SOL    HW2 1611   1.667   0.690   1.256  0.0509 -2.4710  0.9158
  538SOL     OW 1612   2.921   2.750   0.329 -0.1041  0.2893  0.1368
  538SOL    HW1 1613   2.950   2.652   0.316  0.2916 -1.3309 -0.9626
  538SOL    HW2 1614   2.862   2.751   0.413 -2.4990 -0.3211 -0.9530
  539SOL     OW 1615   2.858   1.715   2.622 -0.5351 -0.3296 -0.2144
  539SOL    HW1 1616   2.765   1.753   2.617  0.3499  1.1722 -1.0789
  539SOL    HW2 1617   2.922   1.760   2.554  1.1859 -3.6391  1.6688
  540SOL     OW 1618   2.937   2.763   1.606 -0.3539  0.2079 -0.2178
  540SOL    HW1 1619   3.016   2.699   1.600 -0.2481  1.0408  0.1916
  540SOL    HW2 1620   2.854   2.707   1.614  1.1765  1.7795  0.9295
  541SOL     OW 1621   2.673   2.897   1.767  0.3605 -0.4087 -0.0183
  541SOL    HW1 1622   2.767   2.933   1.749  2.8580  2.1918  1.1837
  541SOL    HW2 1623   2.662   2.872   1.867 -2.1568 -1.2276  1.5411
  542SOL     OW 1624   2.899   0.704   2.001  0.6588 -0.0241 -0.2425
  542SOL    HW1 1625   2.987   0.673   2.041 -1.0026 -0.2330 -1.1275
  542SOL    HW2 1626   2.853   0.636   1.935  1.4839 -3.6764 -2.3169
  543SOL     OW 1627   0.940   0.520   0.725  0.0170 -0.2974 -0.3272
  543SOL    HW1 1628   0.872   0.549   0.656  1.3848 -2.3186  0.0759
  543SOL    HW2 1629   0.939   0.416   0.730  0.0954 -0.8812  1.1415
  544SOL     OW 1630   2.593   2.291   1.029  0.2715 -0.6430 -0.6273
  544SOL    HW1 1631   2.631   2.202   0.990  2.0122 -1.5421  0.0965
  544SOL    HW2 1632   2.578   2.287   1.130  0.4876  0.5771 -1.4474
  545SOL     OW 1633   0.975   1.737   0.230 -0.9362  0.0522 -0.1061
  545SOL    HW1 1634   1.008   1.746   0.326  1.6709 -0.0181  0.6785
  545SOL    HW2 1635   0.986   1.638   0.204 -2.1786 -0.2642 -0.1567
  546SOL     OW 1636   2.274   0.516   1.932 -0.2352  0.0067  0.5387
  546SOL    HW1 1637   2.279   0.588   2.005 -1.2025 -1.3285 -0.7010
  546SOL    HW2 1638   2.366   0.487   1.905 -0.9573 -0.8673 -0.0132
  547SOL     OW 1639   0.212   0.281   2.329 -0.3118  0.2375  0.2964
  547SOL    HW1 1640   0.249   0.280   2.420 -0.7058 -0.9889 -0.1966
  547SOL    HW2 1641   0.237   0.364   2.275 -1.2058 -1.6914  0.5142
  548SOL     OW 1642   2.169   1.898   2.496  0.1202 -0.0274  0.6490
  548SOL    HW1 1643   2.180   1.799   2.520  1.3744  0.6949 -2.4170
  548SOL    HW2 1644   2.093   1.947   2.545  0.0042  1.4625  0.9848
  549SOL     OW 1645   2.639   0.787   0.677  0.6120 -0.0904 -0.0064
  549SOL    HW1 1646   2.634   0.687   0.662 -1.1946  2.4563 -0.5990
  549SOL    HW2 1647   2.692   0.815   0.764  0.2331 -0.1321 -0.5213
  550SOL     OW 1648   1.629   1.448   0.648  0.6218 -0.3236 -1.2281
  550SOL    HW1 1649   1.543   1.397   0.609 -0.6358 -1.7837  0.9533
  550SOL    HW2 1650   1.701   1.468   0.576 -0.6009  0.9569  1.5576
  551SOL     OW 1651   1.109   0.097   1.149 -0.1242  0.1805 -0.4158
  551SOL    HW1 1652   1.008   0.079   1.140  0.6352 -1.0872  0.1642
  551SOL    HW2 1653   1.146   0.009   1.177 -2.7267  0.5141  2.2152
  552SOL     OW 1654   2.124   2.383   2.096 -0.4706 -0.3249  0.0503
  552SOL    HW1 1655   2.099   2.483   2.094  1.5839  2.3196 -1.4589
  552SOL    HW2 1656   2.190   2.367   2.175  3.0182  0.1429  2.4019
  553SOL     OW 1657   3.066   0.160   0.168  0.2790 -0.1078 -0.2298
  553SOL    HW1 1658   0.054   0.236   0.157  0.5155  2.0665  1.2102
  553SOL    HW2 1659   3.056   0.103   0.085 -0.8086  2.2637  0.1961
  554SOL     OW 1660   1.290   2.746   1.643  0.1523 -0.2307  0.2942
  554SOL    HW1 1661   1.270   2.652   1.609 -2.4483  0.6398 -2.6975
  554SOL    HW2 1662   1.205   2.804   1.629  0.4339 -0.2424  0.2981
  555SOL     OW 1663   2.230   2.932   1.779 -0.0750  0.1734 -0.5729
  555SOL    HW1 1664   2.160   2.881   1.729  1.1263 -2.4712  1.0298
  555SOL    HW2 1665   2.239   2.900   1.875  2.0778  1.8681 -1.7061
  556SOL     OW 1666   0.981   2.816   2.926 -0.0464 -0.3969 -0.4063
  556SOL    HW1 1667   0.975   2.779   2.829  1.1374  0.5703  0.1859
  556SOL    HW2 1668   0.908   2.886   2.952 -2.5332 -0.8097 -0.7458
  557SOL     OW 1669   0.316   2.082   2.242  0.5644 -0.0232  0.4172
  557SOL    HW1 1670   0.298   2.017   2.166 -1.8536  0.7099  1.9840
  557SOL    HW2 1671   0.363   2.161   2.191  0.7470  0.8056 -1.2185
  558SOL     OW 1672   2.438   1.147   2.594 -0.2664  0.2099 -0.3303
  558SOL    HW1 1673   2.470   1.144   2.689 -0.9485  0.0051 -0.0761
  558SOL    HW2 1674   2.449   1.054   2.556 -1.1629  0.2002  2.4878
  559SOL     OW 1675   2.263   2.333   2.332  0.2252 -0.0615  0.0669
  559SOL    HW1 1676   2.334   2.402   2.358  0.7488 -1.1858  3.1380
  559SOL    HW2 1677   2.285   2.242   2.371 -0.8725  0.4951 -1.0020
  560SOL     OW 1678   0.283   0.540   2.243  0.6542 -0.4448 -0.3064
  560SOL    HW1 1679   0.209   0.601   2.200  0.1222  0.9404  1.6516
  560SOL    HW2 1680   0.354   0.600   2.286 -0.4914  1.2959  2.1445
  561SOL     OW 1681   0.861   0.488   0.336 -0.1519 -0.5057 -0.2356
  561SOL    HW1 1682   0.810   0.408   0.365 -0.8913  2.5632 -0.6449
  561SOL    HW2 1683   0.903   0.469   0.243  1.0535  2.1449 -0.7853
  562SOL     OW 1684   0.877   1.414   1.557  0.7169 -0.0927 -0.3737
  562SOL    HW1 1685   0.857   1.316   1.544 -0.1027 -3.2049 -0.4192
  562SOL    HW2 1686   0.824   1.475   1.494  1.3579  0.8454  0.4999
  563SOL     OW 1687   1.529   2.824   2.923 -0.4167 -0.4632  0.1156
  563SOL    HW1 1688   1.459   2.825   2.994 -2.6003  1.2182 -3.4430
  563SOL    HW2 1689   1.623   2.861   2.949 -1.2909 -2.4153  0.2426
  564SOL     OW 1690   0.240   2.016   0.601  0.2692  0.0545  0.7260
  564SOL    HW1 1691   0.319   2.004   0.546 -2.8974 -1.0190 -2.7876
  564SOL    HW2 1692   0.271   2.055   0.688  1.0764 -1.1524 -2.3830
  565SOL     OW 1693   0.300   2.444   2.344  0.2223 -0.5701  0.0960
  565SOL    HW1 1694   0.309   2.537   2.302  0.9734  1.5786 -0.1259
  565SOL    HW2 1695   0.199   2.436   2.358 -0.0819 -0.1101 -0.8363
  566SOL     OW 1696   1.355   2.463   2.314 -0.0146  0.1184  0.0344
  566SOL    HW1 1697   1.355   2.503   2.406  1.3753  0.6746  0.6319
  566SOL    HW2 1698   1.432   2.404   2.298 -3.3528  0.1898  1.0124
  567SOL     OW 1699   1.802   2.025   1.151  0.0236  0.0820  0.1464
  567SOL    HW1 1700   1.704   2.006   1.160  1.8450  0.8277 -0.1271
  567SOL    HW2 1701   1.843   1.972   1.073  1.6567 -0.7986 -1.4616
  568SOL     OW 1702   2.146   0.731   0.043  0.3531 -0.1097 -0.2562
  568SOL    HW1 1703   2.143   0.639   0.079 -0.0465  3.6962  1.6172
  568SOL    HW2 1704   2.051   0.774   0.044 -1.8024  1.3843  1.2909
  569SOL     OW 1705   2.760   1.326   2.379 -0.4406 -0.3958  0.3006
  569SOL    HW1 1706   2.836   1.390   2.407 -0.3517  3.6148 -3.5140
  569SOL    HW2 1707   2.678   1.347   2.436 -1.9891 -1.5075 -1.5481
  570SOL     OW 1708   2.750   2.562   1.730 -0.6013  0.3964  0.4340
  570SOL    HW1 1709   2.666   2.598   1.689  1.4978  0.6880  2.9207
  570SOL    HW2 1710   2.779   2.475   1.684  1.3461 -0.2088 -0.8057
  571SOL     OW 1711   0.202   0.536   1.860  0.3269 -0.1074 -0.2189
  571SOL    HW1 1712   0.217   0.514   1.762  2.3033  1.8976  2.1317
  571SOL    HW2 1713   0.261   0.476   1.921  0.1467  1.0107  1.6994
  572SOL     OW 1714   2.986   2.099   0.910  0.7533  0.2228 -0.0747
  572SOL    HW1 1715   3.061   2.151   0.870 -2.4818 -0.0825 -1.2146
  572SOL    HW2 1716   2.990   2.104   1.010  2.5106  1.1641 -2.0014
  573SOL     OW 1717   1.003   0.819   0.008  0.7486  0.5967 -0.3700
  573SOL    HW1 1718   1.035   0.913   0.034 -0.3653 -1.0288 -1.1824
  573SOL    HW2 1719   0.904   0.822   3.066  3.8715 -0.4843 -1.4125
  574SOL     OW 1720   2.714   2.607   0.047 -0.0468 -0.0358  0.4143
  574SOL    HW1 1721   2.738   2.705   0.022  0.6113  0.6699 -3.5472
  574SOL    HW2 1722   2.707   2.594   0.149  1.0018 -0.6843  0.9997
  575SOL     OW 1723   1.080   1.771   1.457  0.0958 -0.0882 -0.2529
  575SOL    HW1 1724   1.087   1.746   1.358 -0.8582  0.6044 -0.9549
  575SOL    HW2 1725   1.145   1.842   1.487  0.0855 -0.5854  1.2328
  576SOL     OW 1726   2.987   2.881   1.369 -0.7049  0.0723  0.2278
  576SOL    HW1 1727   2.909   2.947   1.368 -0.4098  0.5907 -1.3722
  576SOL    HW2 1728   2.972   2.824   1.457  0.4224  0.2577  0.1438
  577SOL     OW 1729   2.326   1.432   1.594  0.1817  0.0019 -0.1906
  577SOL    HW1 1730   2.241   1.385   1.556 -1.3669 -2.2133 -1.0693
  577SOL    HW2 1731   2.310   1.531   1.597 -1.4218 -1.5383 -1.2983
  578SOL     OW 1732   1.303   0.061   0.021  0.0069 -0.0537  0.4221
  578SOL    HW1 1733   1.257   3.065   3.043 -3.6682  0.0496  3.3596
  578SOL    HW2 1734   1.327   0.152   3.048  2.7167  0.6608  1.2803
  579SOL     OW 1735   2.672   1.689   2.326 -0.0607  0.0572  0.0987
  579SOL    HW1 1736   2.618   1.631   2.265  0.0234  2.6195  0.9403
  579SOL    HW2 1737   2.752   1.735   2.277 -1.9785  1.0228  0.5103
  580SOL     OW 1738   1.657   0.773   1.581 -0.1282  0.4925  0.6084
  580SOL    HW1 1739   1.576   0.823   1.546 -0.3712  0.7624  3.2437
  580SOL    HW2 1740   1.732   0.768   1.516 -2.3139 -0.6871  1.0259
  581SOL     OW 1741   0.740   1.613   1.421 -0.9151  0.0678 -0.2520
  581SOL    HW1 1742   0.779   1.607   1.327  0.3983  0.4427 -0.3602
  581SOL    HW2 1743   0.804   1.664   1.486 -2.9401 -1.4511 -2.0502
  582SOL     OW 1744   2.832   2.926   2.021  0.1106 -0.2609  0.0858
  582SOL    HW1 1745   2.927   2.964   2.021  0.5780  1.0722  0.3473
  582SOL    HW2 1746   2.777   2.991   2.075  2.4674  0.5470  2.5219
  583SOL     OW 1747   2.127   1.308   1.443 -0.1101  0.0376 -0.2916
  583SOL    HW1 1748   2.045   1.369   1.462 -1.3597 -0.5961 -2.3989
  583SOL    HW2 1749   2.129   1.255   1.354 -1.1113 -0.6489  1.7542
  584SOL     OW 1750   1.103   2.078   2.857 -0.2647  0.3410  0.2147
  584SOL    HW1 1751   1.167   2.028   2.923  4.1987  1.2384 -1.9647
  584SOL    HW2 1752   1.039   2.010   2.812 -0.5070  1.6698  0.7502
  585SOL     OW 1753   0.366   2.684   0.370  0.0302  0.4316 -0.3552
  585SOL    HW1 1754   0.410   2.763   0.314  3.6016  1.6976 -1.7346
  585SOL    HW2 1755   0.318   2.622   0.305  3.0762 -2.8135  0.8247
  586SOL     OW 1756   1.757   2.429   2.733  0.1410 -0.0573 -0.0180
  586SOL    HW1 1757   1.663   2.394   2.722 -3.8814 -0.9378 -0.0452
  586SOL    HW2 1758   1.827   2.362   2.698  0.8437 -1.1582 -0.8136
  587SOL     OW 1759   2.586   1.669   0.301 -0.3081 -0.5704 -0.6070
  587SOL    HW1 1760   2.585   1.765   0.339 -1.9685  2.0612 -1.3218
  587SOL    HW2 1761   2.682   1.646   0.278 -0.7769  0.4901 -2.3708
  588SOL     OW 1762   2.091   0.105   0.933  0.0602 -0.4447 -0.2978
  588SOL    HW1 1763   2.161   0.109   0.860  0.3683 -0.5353  0.5560
  588SOL    HW2 1764   2.064   0.199   0.968  1.4414 -0.2867  1.5673
  589SOL     OW 1765   0.797   0.660   0.546  0.3965  0.1454 -0.5489
  589SOL    HW1 1766   0.713   0.716   0.539  1.0582  1.6547 -0.4655
  589SOL    HW2 1767   0.812   0.606   0.460 -0.5999 -0.0885 -1.2247
  590SOL     OW 1768   2.575   2.047   0.161 -0.3083 -0.3366  0.0598
  590SOL    HW1 1769   2.627   2.119   0.103  2.1891  3.7782  0.2539
  590SOL    HW2 1770   2.559   1.963   0.108  0.8228  1.6683 -0.5731
  591SOL     OW 1771   0.044   2.577   1.560 -0.1127 -0.1655  0.0805
  591SOL    HW1 1772   0.129   2.609   1.517 -0.1341 -1.9058 -0.3621
  591SOL    HW2 1773   0.051   2.530   1.652 -1.1409  2.2431 -0.3665
  592SOL     OW 1774   0.756   1.079   1.233 -0.6511  0.2675 -0.3032
  592SOL    HW1 1775   0.679   1.134   1.268 -0.1041 -2.0354  0.7010
  592SOL    HW2 1776   0.774   1.006   1.298 -0.8719  1.3359 -2.9462
  593SOL     OW 1777   0.865   1.525   1.189  0.1753 -0.3893  0.0722
  593SOL    HW1 1778   0.942   1.587   1.170 -1.0651  1.5574 -0.0389
  593SOL    HW2 1779   0.790   1.537   1.119 -0.2690 -1.0057 -0.9409
  594SOL     OW 1780   0.423   1.786   2.694 -0.4118  0.1303  0.1659
  594SOL    HW1 1781   0.410   1.735   2.607  0.7253 -1.2572 -1.0381
  594SOL    HW2 1782   0.365   1.740   2.766 -0.6081 -2.1176  0.6237
  595SOL     OW 1783   1.339   0.266   1.142  0.2475  0.2343  0.1799
  595SOL    HW1 1784   1.396   0.274   1.060 -3.3173 -0.0352 -0.3926
  595SOL    HW2 1785   1.253   0.217   1.112  0.2017 -1.1798  0.6612
  596SOL     OW 1786   0.218   1.240   0.446 -0.6971  0.4768 -0.0018
  596SOL    HW1 1787   0.264   1.151   0.413 -0.7115 -1.3218 -2.0500
  596SOL    HW2 1788   0.116   1.242   0.431  1.2522 -0.4011 -1.0143
  597SOL     OW 1789   0.037   2.386   2.986  0.7570  0.2158  0.5700
  597SOL    HW1 1790   3.068   2.321   2.923  1.8928  0.5911  1.8401
  597SOL    HW2 1791   0.002   2.362   0.005  1.4527  0.5340 -1.1113
  598SOL     OW 1792   2.175   2.022   2.260  0.1403 -0.1471  0.3268
  598SOL    HW1 1793   2.160   1.959   2.339  1.2256 -1.4524 -0.5700
  598SOL    HW2 1794   2.267   2.008   2.211 -0.4992 -0.7129 -0.2189
  599SOL     OW 1795   1.161   0.357   0.550  1.0099  0.1173  0.4749
  599SOL    HW1 1796   1.160   0.461   0.562  0.3418 -2.3277 -1.3973
  599SOL    HW2 1797   1.249   0.317   0.534  1.3390  1.1479  1.8049
  600SOL     OW 1798   0.566   2.589   0.537 -0.4097 -0.3577  0.1272
  600SOL    HW1 1799   0.491   2.613   0.474  1.2884  1.2556 -1.1775
  600SOL    HW2 1800   0.650   2.550   0.493  0.9897  1.0342 -0.9268
  601SOL     OW 1801   0.504   0.809   1.086 -0.4155 -0.0589  0.2658
  601SOL    HW1 1802   0.595   0.794   1.038  2.4086  0.6669  1.0093
  601SOL    HW2 1803   0.456   0.725   1.127 -1.9692 -2.8120  0.9400
  602SOL     OW 1804   0.444   2.699   1.167 -0.7309  0.0129 -0.0799
  602SOL    HW1 1805   0.505   2.620   1.187 -1.1346  1.2223  1.3125
  602SOL    HW2 1806   0.396   2.689   1.079 -2.2664 -1.0683  0.9927
  603SOL     OW 1807   0.934   2.635   2.276  0.6731  0.0453  0.8100
  603SOL    HW1 1808   0.883   2.644   2.188 -1.1946  1.3894 -1.1714
  603SOL    HW2 1809   1.034   2.623   2.256 -0.1292 -1.0199 -1.0253
  604SOL     OW 1810   0.625   2.744   2.634 -0.6596 -0.3659  0.1711
  604SOL    HW1 1811   0.580   2.778   2.721  0.4748  0.4819  1.2216
  604SOL    HW2 1812   0.607   2.809   2.557 -1.7978  1.5998  1.6822
  605SOL     OW 1813   1.451   0.730   1.888 -0.4445 -0.7013 -0.9606
  605SOL    HW1 1814   1.455   0.641   1.838  0.5950 -1.1478 -1.9430
  605SOL    HW2 1815   1.459   0.713   1.989  1.8743  0.1815 -2.5656
  606SOL     OW 1816   2.059   0.344   2.620  0.4553 -0.1990 -0.2409
  606SOL    HW1 1817   2.060   0.435   2.577  0.5739 -2.9871 -2.0149
  606SOL    HW2 1818   2.116   0.287   2.561 -0.4140  2.8701  1.5728
  607SOL     OW 1819   0.745   0.527   1.112  0.4293  0.2082 -0.0200
  607SOL    HW1 1820   0.729   0.599   1.038 -0.3610 -3.0624  2.6826
  607SOL    HW2 1821   0.658   0.514   1.170 -1.6181 -2.2059  0.1977
  608SOL     OW 1822   2.968   2.228   2.126 -0.2551 -0.2728  0.0938
  608SOL    HW1 1823   2.956   2.326   2.139  0.4104 -0.4672 -2.9662
  608SOL    HW2 1824   3.006   2.206   2.037 -0.2685 -0.2153  2.7303
  609SOL     OW 1825   1.814   0.620   2.968 -0.2771  0.4928  0.1101
  609SOL    HW1 1826   1.887   0.555   3.000  2.3821 -0.1919  3.4299
  609SOL    HW2 1827   1.825   0.706   3.025 -2.0152 -1.8388  1.4406
  610SOL     OW 1828   0.770   2.866   1.399  0.2123 -0.2040  0.2039
  610SOL    HW1 1829   0.678   2.880   1.363 -1.8757 -1.9878 -1.4831
  610SOL    HW2 1830   0.807   2.951   1.441  0.1643 -0.0376 -0.3491
  611SOL     OW 1831   1.461   0.674   0.411  0.1237  0.5334  0.5788
  611SOL    HW1 1832   1.548   0.693   0.460  3.8874  0.2699  3.0446
  611SOL    HW2 1833   1.482   0.630   0.323  0.0307 -0.9460 -1.8901
  612SOL     OW 1834   1.865   0.702   2.703 -0.9275  0.2432 -0.1474
  612SOL    HW1 1835   1.805   0.763   2.653  2.0892  0.3864 -0.6338
  612SOL    HW2 1836   1.822   0.667   2.791  1.4306 -3.0559  3.3692
  613SOL     OW 1837   2.391   0.784   0.805 -0.4516  0.3574 -0.2572
  613SOL    HW1 1838   2.318   0.740   0.746  1.9101 -1.9855 -0.5533
  613SOL    HW2 1839   2.476   0.790   0.757 -0.8944 -0.8662 -1.1273
  614SOL     OW 1840   2.561   0.387   2.097 -0.2330 -0.8125 -0.6083
  614SOL    HW1 1841   2.574   0.466   2.032 -0.5188  0.0166  0.1572
  614SOL    HW2 1842   2.626   0.320   2.063  1.1866  2.1469  0.8476
  615SOL     OW 1843   0.688   1.846   1.186 -0.0791  0.9019 -0.2209
  615SOL    HW1 1844   0.628   1.761   1.188 -1.9356 -1.2228  0.5691
  615SOL    HW2 1845   0.677   1.895   1.277  0.9072  0.2501 -0.1124
  616SOL     OW 1846   1.692   1.231   2.602  0.0228 -0.1601  0.6120
  616SOL    HW1 1847   1.663   1.269   2.507 -0.7165  0.8221  0.9957
  616SOL    HW2 1848   1.790   1.250   2.622  2.1871 -0.6725  3.0875
  617SOL     OW 1849   1.533   0.064   0.145 -0.1441 -0.2942  0.0835
  617SOL    HW1 1850   1.444   0.083   0.093 -0.9432  0.9287  0.9012
  617SOL    HW2 1851   1.524   3.062   0.212  2.4610 -3.4775  1.3776
  618SOL     OW 1852   1.344   1.732   2.255  0.3861  0.0661 -0.1266
  618SOL    HW1 1853   1.427   1.678   2.239  0.7642 -1.5208 -1.1480
  618SOL    HW2 1854   1.275   1.697   2.188 -0.7082 -1.6196 -0.2710
  619SOL     OW 1855   2.438   1.463   0.952 -0.7051 -0.6221  0.0681
  619SOL    HW1 1856   2.447   1.565   0.946 -0.8906  1.1473 -0.5537
  619SOL    HW2 1857   2.528   1.427   0.987  1.4179  0.6113 -3.1431
  620SOL     OW 1858   2.111   2.785   2.794 -0.1526 -0.2144 -0.6034
  620SOL    HW1 1859   2.155   2.872   2.827  0.7849 -2.0238  0.5540
  620SOL    HW2 1860   2.025   2.811   2.739  1.3660 -0.3103  0.6778
  621SOL     OW 1861   2.920   1.479   0.551  0.2637  0.2398  0.0521
  621SOL    HW1 1862   2.862   1.396   0.570  1.7302 -0.3529 -1.0023
  621SOL    HW2 1863   3.000   1.479   0.611 -0.2144  0.2969 -0.1361
  622SOL     OW 1864   1.172   2.252   2.377  0.0429  0.0036 -0.0855
  622SOL    HW1 1865   1.182   2.186   2.301  2.9392  0.8525  0.1098
  622SOL    HW2 1866   1.215   2.340   2.344  0.7495 -1.2520 -2.5539
  623SOL     OW 1867   0.298   2.458   2.929 -0.3647 -0.0441 -0.5059
  623SOL    HW1 1868   0.349   2.382   2.885 -0.0927 -0.8825 -0.7688
  623SOL    HW2 1869   0.202   2.427   2.941 -0.8634 -0.2047  0.7293
  624SOL     OW 1870   0.383   2.867   2.780 -0.0785 -0.3282  0.6108
  624SOL    HW1 1871   0.379   2.777   2.731  1.2178 -1.5658 -1.0759
  624SOL    HW2 1872   0.367   2.850   2.878  0.7621 -0.2108 -0.9559
  625SOL     OW 1873   0.706   2.097   2.727  0.0518  0.1519 -0.1258
  625SOL    HW1 1874   0.718   2.170   2.657 -0.7606  1.5915  1.1864
  625SOL    HW2 1875   0.757   2.131   2.810 -1.3078 -0.8876 -1.5131
  626SOL     OW 1876   2.933   0.378   0.319  0.0834  0.1480  0.1429
  626SOL    HW1 1877   2.897   0.286   0.310  0.7833  0.1807 -0.5834
  626SOL    HW2 1878   2.926   0.421   0.225 -0.3535  2.7474  1.2248
  627SOL     OW 1879   1.941   1.711   3.022 -0.2315 -0.0460 -0.0681
  627SOL    HW1 1880   1.962   1.667   2.928  6.1652  1.4291 -1.0131
  627SOL    HW2 1881   1.892   1.640   0.002 -0.4754  0.7734 -0.0066
  628SOL     OW 1882   1.253   1.298   2.623  0.5824 -0.0865  0.0491
  628SOL    HW1 1883   1.248   1.219   2.559  0.9273  0.3647  1.3640
  628SOL    HW2 1884   1.304   1.374   2.583 -0.8874 -0.8622  2.8392
  629SOL     OW 1885   0.541   0.115   1.913 -0.0438 -0.7430  0.7038
  629SOL    HW1 1886   0.524   0.202   1.867 -0.7887 -2.2374  1.8025
  629SOL    HW2 1887   0.535   0.133   2.014  0.5271 -1.4743  0.5791
  630SOL     OW 1888   2.356   1.148   1.851  0.0790 -0.0321 -0.7762
  630SOL    HW1 1889   2.384   1.232   1.896 -1.4981  0.2523  0.7000
  630SOL    HW2 1890   2.278   1.099   1.905  0.5450  0.7723 -0.2620
  631SOL     OW 1891   1.814   3.039   0.744  0.8185 -0.8399 -0.1240
  631SOL    HW1 1892   1.792   3.032   0.843  2.1486 -2.5035 -2.7319
  631SOL    HW2 1893   1.743   2.996   0.687 -0.0037 -0.7273  2.2510
  632SOL     OW 1894   0.110   0.844   1.598  0.0615 -0.4424 -0.3717
  632SOL    HW1 1895   0.076   0.855   1.502  2.1516  0.9694  0.4788
  632SOL    HW2 1896   0.058   0.771   1.648  0.3579 -0.5405 -0.6056
  633SOL     OW 1897   0.996   0.413   0.122 -0.6581 -0.1575 -0.4124
  633SOL    HW1 1898   1.024   0.471   0.041 -0.4395 -0.6529 -0.5813
  633SOL    HW2 1899   0.924   0.347   0.085 -0.9255 -2.5358 -0.8428
  634SOL     OW 1900   0.748   2.620   0.033 -0.2355  0.1416  0.4473
  634SOL    HW1 1901   0.684   2.687   3.068  0.5804  0.5468  0.8655
  634SOL    HW2 1902   0.786   2.564   3.033  0.7027 -0.2282  3.0762
  635SOL     OW 1903   0.043   0.574   0.697  0.0513  0.3789  0.7729
  635SOL    HW1 1904   0.013   0.630   0.780  1.7380  3.4096 -1.1535
  635SOL    HW2 1905   0.141   0.556   0.699 -2.8285 -1.0719 -1.2882
  636SOL     OW 1906   0.332   1.359   0.099 -0.4356  0.0890  0.0964
  636SOL    HW1 1907   0.395   1.309   0.156 -1.6365  1.5336 -0.6150
  636SOL    HW2 1908   0.236   1.332   0.114  1.8651  0.2764  0.3262
  637SOL     OW 1909   0.119   2.622   0.515  0.4148  0.3899 -0.0013
  637SOL    HW1 1910   0.174   2.675   0.444  2.2018  0.5188 -0.1372
  637SOL    HW2 1911   0.046   2.674   0.563  0.8314  1.7614  0.1703
  638SOL     OW 1912   2.961   2.300   0.505  0.9896 -0.3144  0.0223
  638SOL    HW1 1913   2.994   2.205   0.503 -0.9922  0.0620 -0.2709
  638SOL    HW2 1914   2.961   2.344   0.597  0.3022  0.8605  1.0139
  639SOL     OW 1915   1.667   0.830   0.165 -0.0343 -0.1394  0.4292
  639SOL    HW1 1916   1.603   0.751   0.168  2.6418  0.3296 -1.2554
  639SOL    HW2 1917   1.621   0.901   0.221  1.1249 -1.8302 -0.0045
  640SOL     OW 1918   1.779   2.248   1.762  0.1214  0.2156 -0.8159
  640SOL    HW1 1919   1.838   2.253   1.676 -0.7009  0.9495  0.7792
  640SOL    HW2 1920   1.714   2.173   1.747 -0.1579  0.9290 -1.9320
  641SOL     OW 1921   3.012   2.979   0.748  0.1463  0.0819  0.0183
  641SOL    HW1 1922   3.024   3.028   0.655 -0.5688  1.2998 -1.3187
  641SOL    HW2 1923   2.935   3.016   0.806 -0.0310  1.7879 -0.0837
  642SOL     OW 1924   1.164   0.595   1.727  0.4916  0.3539 -0.4458
  642SOL    HW1 1925   1.134   0.563   1.639 -0.3514  1.8567  2.1052
  642SOL    HW2 1926   1.266   0.584   1.730  0.7154  0.7375 -1.4895
  643SOL     OW 1927   0.767   2.329   2.609  0.4526  0.8334 -0.5821
  643SOL    HW1 1928   0.770   2.361   2.707  0.1833  1.9625 -1.5125
  643SOL    HW2 1929   0.760   2.403   2.539 -0.6805 -0.6094 -3.5628
  644SOL     OW 1930   1.348   2.311   0.297 -0.0805  0.4631 -0.0555
  644SOL    HW1 1931   1.408   2.312   0.219  0.2441 -1.8014 -0.7646
  644SOL    HW2 1932   1.353   2.219   0.338  0.6853  0.0747 -1.2396
  645SOL     OW 1933   1.693   1.352   1.823  0.1635 -0.1662  0.1885
  645SOL    HW1 1934   1.789   1.344   1.800  0.7118 -0.5808 -2.1239
  645SOL    HW2 1935   1.637   1.295   1.765  0.3627  0.2066 -2.0472
  646SOL     OW 1936   0.515   0.549   0.253 -0.5942 -0.5368  0.1695
  646SOL    HW1 1937   0.446   0.493   0.306 -1.5391 -1.8621 -1.5288
  646SOL    HW2 1938   0.597   0.500   0.213  1.2384  0.4871  0.2206
  647SOL     OW 1939   0.985   0.258   0.719  0.4036 -0.4275  0.6367
  647SOL    HW1 1940   1.055   0.286   0.646  1.3670 -1.8118 -1.1092
  647SOL    HW2 1941   1.024   0.190   0.782 -0.7023  0.9782  0.2242
  648SOL     OW 1942   2.210   2.709   1.270 -0.1177 -0.3489 -0.5245
  648SOL    HW1 1943   2.281   2.754   1.211  0.7064  0.7195  1.1606
  648SOL    HW2 1944   2.172   2.626   1.226 -0.3858  1.1728  2.1363
  649SOL     OW 1945   0.625   1.890   3.040  0.2369 -0.5946  0.8049
  649SOL    HW1 1946   0.576   1.938   2.958 -1.5411 -0.5774 -2.2014
  649SOL    HW2 1947   0.631   1.947   0.045  1.7639 -1.1883  0.9962
  650SOL     OW 1948   2.208   1.891   1.766  0.0129  0.7768  0.1916
  650SOL    HW1 1949   2.204   1.964   1.836 -1.2969  0.8025 -1.8288
  650SOL    HW2 1950   2.112   1.873   1.730 -0.4427  1.9507 -1.3762
  651SOL     OW 1951   3.013   2.990   2.598 -0.0096  0.1696  0.5712
  651SOL    HW1 1952   0.010   3.032   2.537  1.2691  0.2456 -2.8619
  651SOL    HW2 1953   2.971   3.053   2.663  1.0562 -2.2933 -1.4790
  652SOL     OW 1954   2.942   1.886   0.729 -0.6596  0.3882  0.1688
  652SOL    HW1 1955   2.895   1.798   0.751  0.9226 -2.3696  0.4098
  652SOL    HW2 1956   2.960   1.942   0.813  0.2274 -1.0871  1.0858
  653SOL     OW 1957   2.995   0.574   1.340  0.1919 -0.0611 -0.6578
  653SOL    HW1 1958   2.944   0.577   1.254  0.6093 -0.0159 -0.0159
  653SOL    HW2 1959   0.009   0.622   1.318  0.6949 -0.8348 -0.5839
  654SOL     OW 1960   0.815   0.215   0.075  0.0050  0.4540  0.0068
  654SOL    HW1 1961   0.816   0.131   0.132 -1.2116 -0.9890  1.6611
  654SOL    HW2 1962   0.748   0.201   0.001 -0.7403  0.2242  0.9200
  655SOL     OW 1963   0.568   2.938   1.232  0.7957 -0.2843  0.2969
  655SOL    HW1 1964   0.599   2.987   1.147  2.0150  1.6464 -0.5489
  655SOL    HW2 1965   0.509   2.863   1.204 -1.1449  0.3898 -0.2615
  656SOL     OW 1966   0.081   2.797   2.218 -0.1868  0.0905  0.3562
  656SOL    HW1 1967   0.013   2.870   2.198 -0.0712  0.6514  0.4471
  656SOL    HW2 1968   0.061   2.735   2.296 -0.8393  0.9934 -0.2773
  657SOL     OW 1969   2.365   0.789   2.994  0.2999 -0.0803 -0.5091
  657SOL    HW1 1970   2.282   0.767   3.048  0.5330 -0.0625 -2.4936
  657SOL    HW2 1971   2.443   0.821   3.053  0.9043 -0.8382 -0.8205
  658SOL     OW 1972   1.972   1.633   1.121  0.3204 -0.3310 -0.8595
  658SOL    HW1 1973   2.022   1.554   1.087 -0.6542  0.6912  0.8747
  658SOL    HW2 1974   2.023   1.720   1.122 -1.5706  1.6672 -2.8287
  659SOL     OW 1975   2.600   2.381   2.688  0.3628 -0.3129 -0.1543
  659SOL    HW1 1976   2.662   2.359   2.764 -0.0643 -2.0862  0.7881
  659SOL    HW2 1977   2.645   2.356   2.601  1.2175 -0.5137  0.4816
  660SOL     OW 1978   1.214   0.469   0.272 -0.5440 -0.4130  0.3911
  660SOL    HW1 1979   1.187   0.566   0.290 -4.1735  2.5251  0.7990
  660SOL    HW2 1980   1.134   0.425   0.224  0.7238  2.4305 -2.2046
  661SOL     OW 1981   2.500   0.045   0.265  0.0066  0.0970  0.5645
  661SOL    HW1 1982   2.509   0.126   0.207  1.9467 -1.8490  1.6397
  661SOL    HW2 1983   2.410   3.074   0.253 -0.1004  0.0144 -2.3300
  662SOL     OW 1984   0.686   0.227   1.305  0.4891 -0.1134 -0.1195
  662SOL    HW1 1985   0.749   0.177   1.246  2.3658  0.9366  1.1567
  662SOL    HW2 1986   0.625   0.160   1.350  1.1653 -1.8254  0.0477
  663SOL     OW 1987   1.601   2.649   2.399  0.0150 -0.0718 -0.2930
  663SOL    HW1 1988   1.580   2.594   2.313 -1.2526 -1.7158 -0.4311
  663SOL    HW2 1989   1.527   2.631   2.467  1.6070  0.7503  1.5537
  664SOL     OW 1990   0.735   2.214   1.481  0.0623 -0.5928 -0.6628
  664SOL    HW1 1991   0.692   2.246   1.567  0.9783  0.6452  2.2085
  664SOL    HW2 1992   0.720   2.269   1.394  1.6351  0.6235 -0.8199
  665SOL     OW 1993   0.840   2.269   1.927 -0.2310 -0.0963  0.3386
  665SOL    HW1 1994   0.767   2.214   1.878 -0.5889  1.3058 -0.6180
  665SOL    HW2 1995   0.875   2.210   2.001 -3.5621  1.1924 -1.5055
  666SOL     OW 1996   3.030   2.733   2.702 -0.0226 -0.0296  0.5506
  666SOL    HW1 1997   3.019   2.829   2.676 -0.5684 -2.4934  2.6853
  666SOL    HW2 1998   0.052   2.704   2.691 -1.4887  1.0061 -0.1430
  667SOL     OW 1999   1.513   1.490   1.543  0.5021 -0.0282 -0.1985
  667SOL    HW1 2000   1.417   1.514   1.553  1.5517  0.1704  1.3830
  667SOL    HW2 2001   1.544   1.521   1.452 -2.0196  1.3382 -0.8004
  668SOL     OW 2002   1.277   0.302   1.815 -0.9894  0.5743 -0.2157
  668SOL    HW1 2003   1.221   0.266   1.739 -0.1382 -0.3120  0.1813
  668SOL    HW2 2004   1.230   0.293   1.907 -0.1049 -0.8173  3.3055
  669SOL     OW 2005   2.526   2.323   1.290  0.3163 -0.3923 -0.2004
  669SOL    HW1 2006   2.423   2.336   1.303 -0.5356 -1.4305  3.4199
  669SOL    HW2 2007   2.571   2.402   1.337 -0.8094  3.6495  1.0048
  670SOL     OW 2008   1.526   2.190   0.126  0.7089 -0.4146  0.5593
  670SOL    HW1 2009   1.544   2.110   0.187 -0.6585  0.1907 -2.0027
  670SOL    HW2 2010   1.590   2.265   0.150 -1.3830  0.8078  1.7948
  671SOL     OW 2011   1.431   1.007   0.888 -0.6309 -0.1658 -0.0180
  671SOL    HW1 2012   1.526   0.985   0.918  0.4085  0.3254 -1.3872
  671SOL    HW2 2013   1.370   0.991   0.969  0.4012 -0.9701  0.2807
  672SOL     OW 2014   2.939   1.080   2.585  0.4466  0.2075 -0.1290
  672SOL    HW1 2015   2.917   1.022   2.666  0.5588 -0.4197 -2.7840
  672SOL    HW2 2016   3.035   1.106   2.575 -2.3856 -2.3801 -1.0918
  673SOL     OW 2017   0.041   1.917   1.339  0.6229 -0.5379 -0.7443
  673SOL    HW1 2018   3.021   1.916   1.381 -2.3703  1.3510 -0.2251
  673SOL    HW2 2019   0.116   1.905   1.406  0.8125  1.2184 -0.5028
  674SOL     OW 2020   0.547   2.473   2.252 -0.6737 -0.1695  0.3538
  674SOL    HW1 2021   0.460   2.451   2.305 -2.7552  0.0214  0.7791
  674SOL    HW2 2022   0.625   2.485   2.321  3.2211 -1.5529 -0.0839
  675SOL     OW 2023   0.850   1.130   1.570  0.8522 -0.0491  0.3485
  675SOL    HW1 2024   0.765   1.159   1.523  2.0184  0.1815  0.7177
  675SOL    HW2 2025   0.851   1.155   1.668 -0.3582 -2.4874 -1.3201
  676SOL     OW 2026   2.531   0.512   0.931 -0.5437 -0.2212 -0.2487
  676SOL    HW1 2027   2.541   0.535   0.832  0.8402 -2.1474  1.4944
  676SOL    HW2 2028   2.455   0.564   0.977  3.6647  0.7585 -1.6835
  677SOL     OW 2029   2.498   1.562   3.033  0.1686 -0.2093  0.0178
  677SOL    HW1 2030   2.407   1.528   3.001 -1.3641 -0.3784 -0.1014
  677SOL    HW2 2031   2.571   1.524   2.971 -0.6187 -5.4822 -0.1096
  678SOL     OW 2032   0.214   0.399   1.296 -0.1528  0.1951 -0.4843
  678SOL    HW1 2033   0.148   0.414   1.220 -1.5123 -0.0918  0.2468
  678SOL    HW2 2034   0.229   0.298   1.306 -1.0880  0.2202  3.0261
  679SOL     OW 2035   2.187   0.488   0.172 -0.8186  0.8839  0.7436
  679SOL    HW1 2036   2.193   0.452   0.268  0.8328 -1.5276  0.2882
  679SOL    HW2 2037   2.282   0.473   0.135  0.6787  1.8434  1.2763
  680SOL     OW 2038   0.150   1.980   1.828 -0.3151  0.0870  0.4570
  680SOL    HW1 2039   0.210   1.920   1.772 -0.8361 -0.0754  0.4437
  680SOL    HW2 2040   0.156   1.953   1.926 -0.9288  0.9930  0.6329
  681SOL     OW 2041   2.281   2.049   1.143  0.7785  0.2834 -0.0612
  681SOL    HW1 2042   2.224   2.122   1.193  0.3471  0.1255  0.9824
  681SOL    HW2 2043   2.327   2.087   1.062  0.6056  0.9996  1.2493
  682SOL     OW 2044   2.987   1.839   2.442 -0.1738 -0.6042 -0.1474
  682SOL    HW1 2045   2.973   1.818   2.344  0.6974 -1.5958 -1.9268
  682SOL    HW2 2046   0.012   1.861   2.454 -3.7519  1.2515  0.6809
  683SOL     OW 2047   0.069   2.253   1.493  0.2912  0.2030  0.1928
  683SOL    HW1 2048   0.052   2.301   1.402  1.2589 -1.4922 -0.1641
  683SOL    HW2 2049   3.059   2.211   1.536  1.3965  1.8832  1.3162
  684SOL     OW 2050   2.644   1.039   2.404 -0.2059  0.1877 -0.1059
  684SOL    HW1 2051   2.697   1.129   2.409 -0.7065 -0.3662 -1.6476
  684SOL    HW2 2052   2.636   0.996   2.494  0.3379 -0.7261 -2.8398
  685SOL     OW 2053   1.432   1.310   0.578  0.4243  0.3582 -0.0637
  685SOL    HW1 2054   1.351   1.350   0.622  0.1139 -1.1691 -0.9905
  685SOL    HW2 2055   1.424   1.315   0.479  0.8759 -2.6199 -0.8919
  686SOL     OW 2056   0.290   0.052   0.720  0.0635  0.0734 -0.1077
  686SOL    HW1 2057   0.295   3.034   0.687  3.1079  1.4117  0.6208
  686SOL    HW2 2058   0.214   0.108   0.681  0.1378 -1.2222 -0.8211
  687SOL     OW 2059   1.358   1.481   2.458  0.4356  0.0591  0.3754
  687SOL    HW1 2060   1.408   1.569   2.485  1.9542  1.9927  1.1567
  687SOL    HW2 2061   1.420   1.429   2.397 -1.4837 -1.0127  0.1482
  688SOL     OW 2062   1.523   1.232   1.631  0.2619 -0.5851  0.0600
  688SOL    HW1 2063   1.516   1.333   1.604 -1.9587 -0.0734 -0.9223
  688SOL    HW2 2064   1.439   1.203   1.682  1.2420  1.4822  0.9260
  689SOL     OW 2065   2.166   3.022   1.130 -0.5144  0.2811 -0.1724
  689SOL    HW1 2066   2.134   3.074   1.049  0.7425 -2.4298  1.6653
  689SOL    HW2 2067   2.237   2.957   1.098  0.1939 -0.0636  1.2731
  690SOL     OW 2068   0.162   1.200   1.020  0.0970  0.2839  0.2999
  690SOL    HW1 2069   0.112   1.204   0.934  0.9531  3.3087 -2.1983
  690SOL    HW2 2070   0.233   1.122   1.011 -0.3980 -0.4459 -1.0746
  691SOL     OW 2071   0.465   2.184   1.194 -0.2054 -0.2165 -0.3374
  691SOL    HW1 2072   0.510   2.208   1.106  1.1016 -1.1455  1.5848
  691SOL    HW2 2073   0.424   2.266   1.241  0.2728  4.8396  0.6461
  692SOL     OW 2074   2.291   0.648   1.638 -0.1303  0.2268 -0.0154
  692SOL    HW1 2075   2.270   0.581   1.568 -1.4652  1.8722  0.1453
  692SOL    HW2 2076   2.366   0.611   1.699  1.9686 -0.1303 -2.5653
  693SOL     OW 2077   0.452   1.710   2.088  0.0346  0.1081 -0.1344
  693SOL    HW1 2078   0.486   1.725   1.996 -2.4301 -0.5549  0.8942
  693SOL    HW2 2079   0.491   1.618   2.121  2.4042  0.0004  3.1760
  694SOL     OW 2080   1.559   1.274   1.240  0.1209  0.0100 -0.1984
  694SOL    HW1 2081   1.562   1.189   1.300  1.7220 -1.6629 -0.1549
  694SOL    HW2 2082   1.469   1.324   1.250  0.2899  0.0375 -0.1211
  695SOL     OW 2083   0.918   1.349   0.754  0.3448 -0.4743 -0.2531
  695SOL    HW1 2084   0.896   1.450   0.767 -2.1800  1.7808 -3.3006
  695SOL    HW2 2085   0.848   1.299   0.698 -0.5784  2.5342 -0.5162
  696SOL     OW 2086   0.969   2.876   0.217  0.4947 -0.1772  0.4616
  696SOL    HW1 2087   0.892   2.807   0.200  0.7683 -0.7595  0.4759
  696SOL    HW2 2088   1.036   2.874   0.138  1.2981  1.0022 -0.7534
  697SOL     OW 2089   1.590   0.452   1.515 -0.0551  0.9249 -0.0424
  697SOL    HW1 2090   1.687   0.477   1.502 -2.2100 -3.1265 -0.2560
  697SOL    HW2 2091   1.571   0.354   1.484 -0.5170  2.4424 -1.0132
  698SOL     OW 2092   1.576   1.599   2.179 -0.5844 -0.0826 -0.0383
  698SOL    HW1 2093   1.647   1.665   2.178  0.1052  0.0965  0.9471
  698SOL    HW2 2094   1.558   1.550   2.088  0.5840 -0.9575  0.0595
  699SOL     OW 2095   2.517   0.441   1.618  0.3171  0.0090  0.2940
  699SOL    HW1 2096   2.521   0.371   1.696  0.5876 -2.1393  2.3043
  699SOL    HW2 2097   2.444   0.408   1.558  1.2975  1.1354  1.6709
  700SOL     OW 2098   1.167   2.057   0.545 -0.9444  0.0083  0.3942
  700SOL    HW1 2099   1.264   2.063   0.516 -1.5666 -0.5558 -1.6696
  700SOL    HW2 2100   1.115   1.997   0.482 -0.2483 -2.2341  2.2578
  701SOL     OW 2101   2.357   3.023   2.238 -0.0779  0.3505 -0.1827
  701SOL    HW1 2102   2.396   3.034   2.329  0.8948  1.7013  0.4196
  701SOL    HW2 2103   2.323   0.032   2.199  0.4748 -1.8422  4.2033
  702SOL     OW 2104   0.796   2.870   0.528  0.0674 -0.4539 -0.4733
  702SOL    HW1 2105   0.729   2.941   0.498 -0.5903  3.2961  0.1605
  702SOL    HW2 2106   0.826   2.814   0.451 -0.9885 -0.7346  2.0915
  703SOL     OW 2107   2.342   0.205   2.081 -0.4596 -0.3782 -0.7460
  703SOL    HW1 2108   2.250   0.198   2.121 -1.0493 -0.9814 -1.9569
  703SOL    HW2 2109   2.405   0.287   2.097 -0.6451 -1.1250  0.7393
  704SOL     OW 2110   2.659   1.927   0.396  0.0710 -0.1774  0.3895
  704SOL    HW1 2111   2.625   1.989   0.318 -0.0117  1.3613  0.2930
  704SOL    HW2 2112   2.621   1.957   0.488  0.2593  2.4927 -2.1936
  705SOL     OW 2113   2.507   2.988   2.473 -0.4995 -0.0316  0.2579
  705SOL    HW1 2114   2.492   3.032   2.565 -1.2729  1.3351  2.6492
  705SOL    HW2 2115   2.470   2.898   2.463  0.7185  0.1353 -1.4306
  706SOL     OW 2116   2.481   0.144   1.117 -0.3962 -0.0680 -0.2304
  706SOL    HW1 2117   2.554   0.208   1.152 -1.5897 -1.1912 -1.9386
  706SOL    HW2 2118   2.501   0.046   1.126 -3.5411  0.0913 -0.8158
  707SOL     OW 2119   0.800   0.141   2.448 -0.2398 -0.0398  0.8288
  707SOL    HW1 2120   0.766   0.094   2.529  0.9643 -0.0306  0.0118
  707SOL    HW2 2121   0.726   0.170   2.390  1.2341 -1.1653 -1.4938
  708SOL     OW 2122   0.126   2.390   1.761  0.7789  0.4772 -0.3563
  708SOL    HW1 2123   0.133   2.347   1.667 -0.1223  2.3719 -1.6231
  708SOL    HW2 2124   0.056   2.339   1.813  1.1207  0.2188  0.4279
  709SOL     OW 2125   1.328   0.107   1.580 -0.5148  0.1007 -0.0660
  709SOL    HW1 2126   1.355   0.140   1.490  0.1180 -2.4260  1.2270
  709SOL    HW2 2127   1.382   0.025   1.604 -1.1606  3.5732 -0.5345
  710SOL     OW 2128   1.197   2.978   2.886  0.2905  0.6583 -0.7865
  710SOL    HW1 2129   1.111   2.928   2.903  0.6572 -0.2448  2.0414
  710SOL    HW2 2130   1.222   2.967   2.787 -1.1972  2.6879  2.6168
  711SOL     OW 2131   1.198   2.269   2.659 -0.1554 -0.0724 -0.2160
  711SOL    HW1 2132   1.167   2.218   2.743  1.7865  0.6944  1.2796
  711SOL    HW2 2133   1.170   2.229   2.572  0.7704  2.1518  2.0849
  712SOL     OW 2134   0.874   2.225   2.917 -0.6261 -0.6773 -0.1849
  712SOL    HW1 2135   0.969   2.179   2.916  1.1559 -0.6959  0.8853
  712SOL    HW2 2136   0.845   2.237   3.014 -1.5919 -1.4524  0.9035
  713SOL     OW 2137   1.863   1.281   2.291  0.4166  0.1454  0.3751
  713SOL    HW1 2138   1.799   1.273   2.214  2.2558  1.0906 -1.0544
  713SOL    HW2 2139   1.943   1.217   2.265 -0.6134 -1.5533  1.5945
  714SOL     OW 2140   0.846   1.185   1.833 -0.1717 -0.4970  0.3559
  714SOL    HW1 2141   0.746   1.209   1.830  0.6045  0.4100  2.0152
  714SOL    HW2 2142   0.861   1.129   1.921  0.5780  0.3409  2.9182
  715SOL     OW 2143   2.587   0.549   0.284 -0.0462  0.2694 -0.4290
  715SOL    HW1 2144   2.625   0.463   0.321  0.4817  0.9743  2.7139
  715SOL    HW2 2145   2.528   0.591   0.352  1.1869 -1.2259 -2.0894
  716SOL     OW 2146   2.677   2.306   1.684  0.4691 -0.1018  0.1791
  716SOL    HW1 2147   2.582   2.347   1.674  0.9894  0.1753 -1.2268
  716SOL    HW2 2148   2.678   2.257   1.774 -0.8189 -0.0649  0.4994
  717SOL     OW 2149   2.305   0.943   1.016  0.2223  0.2973  0.6524
  717SOL    HW1 2150   2.205   0.935   0.993  0.5602  0.9414 -2.1053
  717SOL    HW2 2151   2.359   0.893   0.946  1.9139 -0.0253  0.9473
  718SOL     OW 2152   1.227   1.528   1.547  0.0500 -0.3088 -0.3343
  718SOL    HW1 2153   1.197   1.437   1.581  1.2171 -1.3237  0.5642
  718SOL    HW2 2154   1.157   1.603   1.551  1.5775 -0.4109 -1.6647
  719SOL     OW 2155   2.891   0.410   0.046 -0.6582 -0.1051  0.5415
  719SOL    HW1 2156   2.954   0.459   3.063  3.9136 -0.9800 -1.7927
  719SOL    HW2 2157   2.856   0.328   3.071 -1.3251 -0.1739  1.4323
  720SOL     OW 2158   0.750   0.275   0.944 -1.4701  0.2672  0.4729
  720SOL    HW1 2159   0.803   0.286   0.856 -0.4504  0.9563  0.0526
  720SOL    HW2 2160   0.730   0.364   0.986  1.1768 -1.7209 -0.8473
  721SOL     OW 2161   2.787   0.975   0.559 -0.3754  0.4474  0.2634
  721SOL    HW1 2162   2.742   1.033   0.486  0.0239  2.3039 -0.0156
  721SOL    HW2 2163   2.731   0.908   0.609  0.3403  0.6567 -2.9640
  722SOL     OW 2164   0.376   2.218   2.474  0.1708 -0.1563  0.3665
  722SOL    HW1 2165   0.390   2.142   2.402 -1.7419  0.4557  0.5882
  722SOL    HW2 2166   0.358   2.308   2.429  2.8182  0.4102 -0.2515
  723SOL     OW 2167   1.757   2.984   1.011  0.2061 -0.1640 -0.0892
  723SOL    HW1 2168   1.728   3.075   1.053 -1.0499  3.9670  2.3392
  723SOL    HW2 2169   1.836   2.955   1.064 -2.7140  0.7259  0.9193
  724SOL     OW 2170   1.400   1.731   1.858 -0.3001 -0.4128  0.1605
  724SOL    HW1 2171   1.452   1.815   1.869 -1.7841 -1.8234 -1.8406
  724SOL    HW2 2172   1.302   1.743   1.832 -1.2303  0.7008  1.3958
  725SOL     OW 2173   1.098   2.547   1.260  0.0236 -0.0973  0.1044
  725SOL    HW1 2174   1.009   2.590   1.290 -1.0425  3.1963  1.4208
  725SOL    HW2 2175   1.146   2.599   1.189 -2.7311 -1.2602 -1.6863
  726SOL     OW 2176   2.091   2.587   0.173  0.3418 -0.0077 -0.1185
  726SOL    HW1 2177   2.056   2.566   0.073 -0.2950  1.5049 -1.9359
  726SOL    HW2 2178   2.015   2.580   0.234 -0.8934 -0.9096 -2.6512
  727SOL     OW 2179   1.474   1.782   1.052  0.1292 -0.3129  0.2948
  727SOL    HW1 2180   1.564   1.732   1.064 -0.4693  1.0930 -2.0117
  727SOL    HW2 2181   1.398   1.716   1.066 -0.7880  0.7127  2.1813
  728SOL     OW 2182   2.070   2.644   2.027  0.2532  0.4419 -0.5640
  728SOL    HW1 2183   2.018   2.679   2.108 -1.1220  1.3770 -1.1782
  728SOL    HW2 2184   2.153   2.699   2.023 -0.5908  2.0910  3.1745
  729SOL     OW 2185   1.866   2.246   1.501  0.3147 -0.5722  0.1106
  729SOL    HW1 2186   1.799   2.302   1.447  1.7613  0.1438  1.8538
  729SOL    HW2 2187   1.955   2.291   1.500 -1.3011 -1.4853  0.4538
  730SOL     OW 2188   1.822   0.950   2.355 -0.6834  0.0855  0.3283
  730SOL    HW1 2189   1.771   0.965   2.268 -0.7534 -3.3366 -0.4415
  730SOL    HW2 2190   1.762   0.913   2.425  0.3558  2.4804 -2.9331
  731SOL     OW 2191   0.877   2.835   1.111 -0.0926  0.1576 -0.5430
  731SOL    HW1 2192   0.860   2.886   1.195 -0.2170 -0.5034 -1.2321
  731SOL    HW2 2193   0.976   2.801   1.102  0.5134  0.9004 -1.6603
  732SOL     OW 2194   1.134   0.046   0.839  0.0292 -0.2553  0.7567
  732SOL    HW1 2195   1.065   3.067   0.782  0.3030 -1.7129 -2.1729
  732SOL    HW2 2196   1.180   3.057   0.901 -1.3224  2.1169 -0.0177
  733SOL     OW 2197   1.262   1.162   0.762  0.4647  0.5919 -0.3185
  733SOL    HW1 2198   1.182   1.144   0.820  4.8790  0.5444 -1.2538
  733SOL    HW2 2199   1.332   1.096   0.795 -2.2075  0.7475 -0.0231
  734SOL     OW 2200   2.610   2.043   2.514  0.0603  0.1708 -0.3638
  734SOL    HW1 2201   2.685   2.082   2.453  0.5614 -1.6259 -2.7873
  734SOL    HW2 2202   2.513   2.074   2.489 -2.1423 -0.8271  0.0561
  735SOL     OW 2203   0.825   0.067   1.094 -0.4295 -0.0261 -0.3284
  735SOL    HW1 2204   0.788   3.061   1.046  0.5305  0.3546  1.5397
  735SOL    HW2 2205   0.805   0.150   1.039  2.6236  0.3261 -1.6459
  736SOL     OW 2206   1.452   2.303   2.699 -0.2578 -0.0979 -0.1183
  736SOL    HW1 2207   1.354   2.296   2.660 -1.7853 -1.7469 -2.0022
  736SOL    HW2 2208   1.437   2.294   2.799 -0.7043  0.1275  0.0541
  737SOL     OW 2209   0.771   2.348   1.206 -0.0327 -0.1549  0.0551
  737SOL    HW1 2210   0.684   2.366   1.151  0.5693 -0.5001 -0.5005
  737SOL    HW2 2211   0.807   2.435   1.234 -1.2649  0.9110 -1.1673
  738SOL     OW 2212   1.523   2.925   2.647 -0.2144  0.0022 -0.4069
  738SOL    HW1 2213   1.618   2.944   2.622 -0.4732 -0.6914 -0.7937
  738SOL    HW2 2214   1.509   2.876   2.738 -1.2364 -1.0748  1.8056
  739SOL     OW 2215   1.133   2.286   1.988 -0.2444 -0.7261 -0.1842
  739SOL    HW1 2216   1.061   2.214   1.978 -1.6885 -0.8967  1.9648
  739SOL    HW2 2217   1.226   2.258   1.951 -0.0546  0.4890 -0.9605
  740SOL     OW 2218   1.366   2.283   1.445 -0.5928 -0.3430  0.2894
  740SOL    HW1 2219   1.364   2.277   1.341 -0.3186  0.1860  0.3667
  740SOL    HW2 2220   1.313   2.362   1.480  1.1783 -1.7520 -0.5740
  741SOL     OW 2221   2.643   1.130   0.377  0.1398  0.3546 -0.1825
  741SOL    HW1 2222   2.596   1.220   0.403 -1.0037  2.7802  1.5903
  741SOL    HW2 2223   2.576   1.057   0.349 -1.8325 -2.9503  0.8475
  742SOL     OW 2224   0.631   1.804   2.284 -0.3396  0.1497 -0.2479
  742SOL    HW1 2225   0.657   1.899   2.252 -1.2372  1.4480 -1.1285
  742SOL    HW2 2226   0.541   1.776   2.242 -1.1137  0.8073  0.6187
  743SOL     OW 2227   0.497   1.193   2.582  0.1477  0.6106 -0.4537
  743SOL    HW1 2228   0.544   1.166   2.672 -1.4465 -0.6696  4.0124
  743SOL    HW2 2229   0.402   1.219   2.590  4.4335 -1.1718 -0.6384
  744SOL     OW 2230   2.126   2.412   1.131 -0.0045  0.4231 -0.5799
  744SOL    HW1 2231   2.127   2.423   1.030 -0.7849  2.0930 -1.5781
  744SOL    HW2 2232   2.028   2.398   1.156 -1.0669  0.7278 -0.2218
  745SOL     OW 2233   2.027   1.747   1.472 -0.0663  0.4994 -0.1130
  745SOL    HW1 2234   2.081   1.737   1.387  0.7811 -1.6499 -1.5969
  745SOL    HW2 2235   1.944   1.797   1.447  0.9433 -3.4295 -1.2115
  746SOL     OW 2236   2.050   1.076   0.682  0.0235  0.1266  0.1920
  746SOL    HW1 2237   2.034   1.177   0.663 -1.1024  0.1966  1.3058
  746SOL    HW2 2238   2.043   1.059   0.784  0.9795 -0.6089  0.6582
  747SOL     OW 2239   1.648   2.139   0.861 -0.2496  0.3498  0.2461
  747SOL    HW1 2240   1.611   2.050   0.833  1.3565  2.2916  1.1188
  747SOL    HW2 2241   1.730   2.123   0.924 -0.4939 -0.6573 -0.4952
  748SOL     OW 2242   0.627   1.659   0.609 -0.1676 -0.4317  0.6961
  748SOL    HW1 2243   0.628   1.661   0.504  0.5627 -0.3697 -4.6277
  748SOL    HW2 2244   0.598   1.754   0.640 -0.4811  0.9089 -2.8210
  749SOL     OW 2245   2.994   3.024   2.233 -0.4717 -0.0479  0.3819
  749SOL    HW1 2246   2.990   0.048   2.244  0.1387 -1.1877  0.8033
  749SOL    HW2 2247   2.937   2.978   2.307 -0.9412 -0.5636  3.5535
  750SOL     OW 2248   1.883   0.304   1.191  0.4285 -0.4501 -0.1956
  750SOL    HW1 2249   1.974   0.325   1.155 -1.3509 -0.1058 -1.0686
  750SOL    HW2 2250   1.884   0.336   1.287 -0.6603 -1.2656  0.2086
  751SOL     OW 2251   2.221   2.830   0.051 -1.2647  0.3061 -0.2086
  751SOL    HW1 2252   2.148   2.769   0.087 -1.2016  0.9803  0.4393
  751SOL    HW2 2253   2.304   2.778   0.030 -0.4329 -0.2790  3.5407
  752SOL     OW 2254   2.018   1.961   0.284 -0.3297  0.2215  0.2181
  752SOL    HW1 2255   1.942   1.920   0.228 -2.5981 -1.5338  0.3379
  752SOL    HW2 2256   2.065   1.895   0.340 -1.9189 -0.5324 -2.0080
  753SOL     OW 2257   1.939   1.354   2.613 -0.3474 -0.7764  0.5898
  753SOL    HW1 2258   2.002   1.282   2.573 -3.2708 -3.5343  1.2796
  753SOL    HW2 2259   1.934   1.431   2.544  0.3969  0.5035 -1.1248
  754SOL     OW 2260   2.912   2.526   1.399 -0.2913  0.0825 -0.4635
  754SOL    HW1 2261   2.904   2.581   1.316 -1.6752 -0.4644  1.5035
  754SOL    HW2 2262   3.005   2.525   1.447  1.9118 -0.3671  0.7059
  755SOL     OW 2263   1.966   0.633   0.902 -0.2245  0.0118 -0.1559
  755SOL    HW1 2264   2.000   0.681   0.821 -3.9083 -2.3075  2.4189
  755SOL    HW2 2265   1.941   0.702   0.972 -0.0752  0.1889  0.5630
  756SOL     OW 2266   1.108   1.399   2.825  0.6341  0.3977 -0.1319
  756SOL    HW1 2267   1.128   1.487   2.876 -0.7930 -0.4274 -0.0198
  756SOL    HW2 2268   1.175   1.363   2.752 -1.8035 -0.4849  0.6844
  757SOL     OW 2269   2.100   2.871   1.440  0.2511 -0.1699  0.6226
  757SOL    HW1 2270   2.128   2.810   1.366  0.4283 -2.5143  0.6830
  757SOL    HW2 2271   2.148   2.961   1.442  3.6496 -0.5136  3.2117
  758SOL     OW 2272   0.823   2.592   1.329  0.1815  0.2649 -0.2923
  758SOL    HW1 2273   0.762   2.568   1.407  3.0866  0.4584 -0.0035
  758SOL    HW2 2274   0.809   2.689   1.306 -1.5804 -0.6095 -2.4162
  759SOL     OW 2275   2.154   1.467   1.020  0.8069 -0.1068  0.1102
  759SOL    HW1 2276   2.154   1.449   0.918  2.1288  0.8097 -0.7785
  759SOL    HW2 2277   2.249   1.473   1.053 -0.6477  2.0219  0.1094
  760SOL     OW 2278   1.886   1.079   1.354 -0.9693 -0.3859 -0.6505
  760SOL    HW1 2279   1.915   1.102   1.451 -0.0880  2.4440  2.3500
  760SOL    HW2 2280   1.928   1.149   1.287  3.5765  2.2388 -1.0767
  761SOL     OW 2281   2.246   2.981   0.266  0.4481  0.2451  0.3780
  761SOL    HW1 2282   2.212   2.925   0.343  0.0098  1.2944 -0.8971
  761SOL    HW2 2283   2.232   2.934   0.177 -0.8370 -1.1510  2.1372
  762SOL     OW 2284   1.740   2.049   2.964 -0.0314 -0.2601 -0.0358
  762SOL    HW1 2285   1.817   1.989   2.930 -0.3994 -1.7706  0.8995
  762SOL    HW2 2286   1.774   2.147   2.973  0.1912  1.4705  2.0632
  763SOL     OW 2287   0.695   1.023   0.934  0.3516 -0.7165 -0.2668
  763SOL    HW1 2288   0.784   0.981   0.919 -2.8883  0.2260 -0.4335
  763SOL    HW2 2289   0.693   1.044   1.035  2.0930  0.1873  1.0909
  764SOL     OW 2290   2.775   2.190   0.011  0.1025 -0.3799 -0.3593
  764SOL    HW1 2291   2.846   2.233   0.070 -2.6018 -2.3083 -1.8834
  764SOL    HW2 2292   2.800   2.094   3.066  1.7079 -2.3207  0.8649
  765SOL     OW 2293   0.927   3.053   2.041  0.1194 -0.3539 -0.1753
  765SOL    HW1 2294   0.986   2.977   2.005  0.6333 -0.1167  0.6589
  765SOL    HW2 2295   0.935   0.059   1.978 -0.4168 -0.0011  2.1764
  766SOL     OW 2296   2.933   1.499   2.467  0.8918  0.0949 -0.1108
  766SOL    HW1 2297   2.892   1.582   2.509  0.4063 -3.4432  1.2690
  766SOL    HW2 2298   3.033   1.494   2.444 -4.5045  0.9005  1.1610
  767SOL     OW 2299   0.084   1.580   1.580 -0.6433  0.4180 -0.5036
  767SOL    HW1 2300   3.070   1.571   1.632 -3.3530 -2.0590  1.0295
  767SOL    HW2 2301   0.073   1.632   1.495  0.8200  2.3672  1.0972
  768SOL     OW 2302   1.021   0.596   2.938 -0.1051 -0.2349  0.4911
  768SOL    HW1 2303   1.018   0.688   2.981  0.3369 -2.2020 -1.7478
  768SOL    HW2 2304   1.117   0.577   2.904  1.7824  1.2219 -1.9979
  769SOL     OW 2305   1.855   2.532   0.308  0.0577 -0.1849 -0.0596
  769SOL    HW1 2306   1.780   2.542   0.375  5.1831  0.1347 -1.6669
  769SOL    HW2 2307   1.939   2.495   0.353 -0.3135 -0.1580 -2.4484
  770SOL     OW 2308   2.807   0.193   2.990  0.8206 -0.1754  0.1443
  770SOL    HW1 2309   2.835   0.137   2.905  1.0063  0.1531 -3.5553
  770SOL    HW2 2310   2.726   0.160   3.038  4.6894  0.2231 -1.9448
  771SOL     OW 2311   1.400   2.271   1.870 -0.9150 -0.1173  0.0976
  771SOL    HW1 2312   1.433   2.368   1.878 -1.0457  0.3712  0.4471
  771SOL    HW2 2313   1.454   2.221   1.800  0.1268 -0.5935  0.7083
  772SOL     OW 2314   0.583   0.539   2.911 -0.0434  0.3835  0.1160
  772SOL    HW1 2315   0.558   0.605   2.836 -1.0465  0.2732  0.6535
  772SOL    HW2 2316   0.675   0.496   2.891 -1.2519  1.9966 -2.8016
  773SOL     OW 2317   3.047   1.249   1.323  0.2729 -0.3103  0.7905
  773SOL    HW1 2318   2.959   1.251   1.271  0.7133  0.2450  3.3816
  773SOL    HW2 2319   3.025   1.271   1.424 -0.9755 -0.6319  1.4815
  774SOL     OW 2320   1.492   1.002   0.301 -0.3117 -0.1257 -0.7499
  774SOL    HW1 2321   1.400   0.969   0.332 -0.6365 -1.9290 -0.9982
  774SOL    HW2 2322   1.545   1.050   0.370  3.0245 -0.4306  1.8829
  775SOL     OW 2323   2.356   2.607   0.232 -0.0555 -0.2412 -0.2426
  775SOL    HW1 2324   2.379   2.585   0.134 -2.2148  0.5647  0.7391
  775SOL    HW2 2325   2.254   2.611   0.240  0.7724 -2.6009  0.4972
  776SOL     OW 2326   2.598   0.830   2.052 -0.3248 -0.1378  0.1987
  776SOL    HW1 2327   2.563   0.877   1.968  0.8877  0.3169 -1.3939
  776SOL    HW2 2328   2.557   0.872   2.138 -0.4444 -0.4022  1.7240
  777SOL     OW 2329   0.162   1.219   2.297 -0.1553  0.4182 -0.0528
  777SOL    HW1 2330   0.219   1.258   2.223 -1.3147 -0.9275 -1.8348
  777SOL    HW2 2331   0.079   1.168   2.266 -1.0475 -0.7230  0.0749
  778SOL     OW 2332   0.789   0.193   0.501  0.0362 -0.0342  0.2193
  778SOL    HW1 2333   0.848   0.206   0.582 -1.6257  1.1345 -1.3034
  778SOL    HW2 2334   0.837   0.134   0.434 -1.2831 -1.2074 -1.1510
  779SOL     OW 2335   0.627   1.100   2.779  0.0898 -0.7579  0.1983
  779SOL    HW1 2336   0.719   1.107   2.825  0.9829 -1.8722 -0.4091
  779SOL    HW2 2337   0.631   1.029   2.708 -0.3914 -0.6047  0.2060
  780SOL     OW 2338   2.077   1.113   2.211 -0.3398  0.0514 -0.4049
  780SOL    HW1 2339   2.079   1.051   2.292 -3.0760 -0.1450  1.9045
  780SOL    HW2 2340   2.089   1.058   2.130 -1.0809  2.6169  2.3468
  781SOL     OW 2341   3.005   1.230   1.614  0.3155  0.1498  0.5011
  781SOL    HW1 2342   0.015   1.211   1.661  0.4046  0.7075 -0.6120
  781SOL    HW2 2343   2.928   1.183   1.658  2.5529 -0.9764 -1.2929
  782SOL     OW 2344   0.982   1.942   2.386 -0.2801 -0.1502  0.2647
  782SOL    HW1 2345   0.948   2.040   2.381 -0.7048  0.7819 -2.4412
  782SOL    HW2 2346   0.912   1.887   2.432  2.3472 -1.6560 -1.6160
  783SOL     OW 2347   0.408   2.799   1.654 -0.2922 -0.0270  0.0560
  783SOL    HW1 2348   0.348   2.784   1.736  1.6385  0.8457  1.3534
  783SOL    HW2 2349   0.503   2.799   1.691 -1.8072 -0.2385  0.4526
  784SOL     OW 2350   1.568   0.487   2.882  0.6529  0.0208  0.1134
  784SOL    HW1 2351   1.487   0.535   2.836  0.9226  2.4441 -1.5719
  784SOL    HW2 2352   1.648   0.550   2.890  1.8496 -0.2704 -3.0231
  785SOL     OW 2353   1.396   0.279   2.981  0.0039 -0.1637 -0.0402
  785SOL    HW1 2354   1.468   0.351   2.970 -0.1896  4.0602 -1.3088
  785SOL    HW2 2355   1.399   0.217   2.897  0.4304 -1.5641 -0.9621
  786SOL     OW 2356   0.368   1.684   0.246 -0.5713  0.0699 -0.0637
  786SOL    HW1 2357   0.356   1.590   0.287  0.4765  2.0413 -1.4039
  786SOL    HW2 2358   0.396   1.667   0.152 -4.4490  2.2923  1.8870
  787SOL     OW 2359   1.815   1.497   0.423  0.4443  0.0814 -0.5045
  787SOL    HW1 2360   1.896   1.497   0.359 -1.0676 -0.3954  2.1774
  787SOL    HW2 2361   1.724   1.534   0.385 -1.0738  2.1665 -0.4458
  788SOL     OW 2362   1.958   1.501   1.505 -0.1294  0.2421 -0.4834
  788SOL    HW1 2363   1.904   1.486   1.418 -0.3254  1.5346  1.3138
  788SOL    HW2 2364   1.987   1.598   1.506  0.2398  0.1938 -2.2803
  789SOL     OW 2365   0.375   1.391   1.736 -0.6307 -0.2050 -0.1201
  789SOL    HW1 2366   0.350   1.484   1.777 -0.0733 -0.5955 -1.8115
  789SOL    HW2 2367   0.362   1.391   1.635  1.4127  2.4767 -0.1244
  790SOL     OW 2368   0.554   2.840   0.004 -0.0108 -0.0916  0.5221
  790SOL    HW1 2369   0.466   2.793   3.051 -1.4004 -0.9316  1.2984
  790SOL    HW2 2370   0.545   2.873   0.103 -1.1056  2.7461 -2.0748
  791SOL     OW 2371   0.473   0.246   2.743  0.1253  1.0013 -0.5174
  791SOL    HW1 2372   0.484   0.340   2.700 -1.5435 -0.5737  1.0004
  791SOL    HW2 2373   0.395   0.188   2.701  0.3466  0.0283 -1.2274
  792SOL     OW 2374   2.068   0.664   2.283 -0.1242  0.6306  0.4783
  792SOL    HW1 2375   1.996   0.735   2.276  2.6697  1.0706  2.0250
  792SOL    HW2 2376   2.071   0.633   2.378 -1.9856 -0.8676  1.2891
  793SOL     OW 2377   0.359   0.567   1.132  0.0290 -0.2420  0.0096
  793SOL    HW1 2378   0.412   0.482   1.127  1.4875  0.6567  2.6268
  793SOL    HW2 2379   0.285   0.557   1.206 -0.2144  0.8201  3.8971
  794SOL     OW 2380   0.651   0.509   1.976 -0.2784 -0.2887  0.0722
  794SOL    HW1 2381   0.704   0.472   1.896 -0.5045  0.6817  1.0815
  794SOL    HW2 2382   0.615   0.596   1.953  2.2957  0.7424  2.5506
  795SOL     OW 2383   0.079   1.265   0.125 -0.1669 -0.6739  0.2822
  795SOL    HW1 2384   0.044   1.315   0.208 -2.9865  1.9363 -0.1299
  795SOL    HW2 2385   0.001   1.236   0.068  2.7700 -3.4723  0.3403
  796SOL     OW 2386   0.202   3.005   0.218  0.7761  0.6186 -0.0657
  796SOL    HW1 2387   0.141   0.010   0.213 -0.3406  1.0437  1.7954
  796SOL    HW2 2388   0.144   2.923   0.199 -2.4100 -2.1386  1.2863
  797SOL     OW 2389   1.409   2.542   2.564 -0.5912 -0.0954  0.3532
  797SOL    HW1 2390   1.380   2.605   2.638 -0.7030 -0.0118 -0.2724
  797SOL    HW2 2391   1.445   2.454   2.601 -1.0237 -0.8242  0.0985
  798SOL     OW 2392   2.920   0.347   0.726  0.4205 -0.3236 -0.4449
  798SOL    HW1 2393   2.858   0.418   0.684  0.0229  1.9458  2.0578
  798SOL    HW2 2394   3.016   0.383   0.735 -2.5584 -2.6454 -0.0423
  799SOL     OW 2395   2.606   0.521   2.362  0.1853 -0.2835  0.0335
  799SOL    HW1 2396   2.578   0.431   2.327  3.7850  2.5006  0.1229
  799SOL    HW2 2397   2.689   0.556   2.319 -1.6043  2.3479  1.9524
  800SOL     OW 2398   0.019   2.066   0.264  0.2644  0.1270  0.0067
  800SOL    HW1 2399   0.001   2.047   0.367  2.2725 -3.0770  5.0089
  800SOL    HW2 2400   0.105   2.015   0.232 -0.5149  0.8974 -2.0116
  801SOL     OW 2401   1.277   1.582   1.074  0.0374  0.4856  0.1190
  801SOL    HW1 2402   1.322   1.551   1.159 -0.5899 -0.0175 -0.3441
  801SOL    HW2 2403   1.303   1.509   1.008 -3.3800 -2.8732  1.9927
  802SOL     OW 2404   1.147   1.680   2.080 -0.3945  0.2000  0.3872
  802SOL    HW1 2405   1.046   1.688   2.092  0.1634  0.9830 -0.4134
  802SOL    HW2 2406   1.174   1.705   1.989 -2.0998 -1.3073  2.8758
  803SOL     OW 2407   0.257   1.916   1.055 -0.0735 -0.3915  0.3168
  803SOL    HW1 2408   0.191   1.845   1.029 -0.6983  0.4079  1.3665
  803SOL    HW2 2409   0.265   1.927   1.156  0.0493  0.5819  1.1281
  804SOL     OW 2410   1.049   2.286   1.188  0.2892  0.0104 -0.4873
  804SOL    HW1 2411   1.082   2.380   1.207  0.0523 -0.1129 -3.7389
  804SOL    HW2 2412   0.948   2.276   1.197  1.4307 -0.1813 -0.0649
  805SOL     OW 2413   1.845   1.471   0.021 -0.1969 -0.1827  0.4352
  805SOL    HW1 2414   1.884   1.417   3.022  0.8957  0.7385  4.1168
  805SOL    HW2 2415   1.742   1.455   0.031  1.4146  0.5209  2.1959
  806SOL     OW 2416   2.097   2.495   0.864 -0.0772  0.0660 -0.0148
  806SOL    HW1 2417   2.089   2.594   0.883 -2.1144  0.8241  0.3516
  806SOL    HW2 2418   2.019   2.462   0.806  1.0128  1.0461  0.6615
  807SOL     OW 2419   2.800   0.699   2.638  0.0175  0.3982 -0.2007
  807SOL    HW1 2420   2.809   0.768   2.715  2.2989  0.1072  0.2732
  807SOL    HW2 2421   2.852   0.727   2.557  0.6681 -1.3845 -0.6035
  808SOL     OW 2422   0.380   0.934   0.371  0.1482  0.7245  0.6400
  808SOL    HW1 2423   0.453   0.881   0.422 -1.2622 -3.0550  0.2956
  808SOL    HW2 2424   0.359   0.890   0.279  2.4671  0.3450 -0.3607
  809SOL     OW 2425   2.549   0.964   1.811  0.4050 -0.4234 -0.2299
  809SOL    HW1 2426   2.490   1.044   1.817  1.1272 -1.8262  2.5251
  809SOL    HW2 2427   2.553   0.925   1.722 -0.8318  0.4237  0.7000
  810SOL     OW 2428   1.114   0.514   1.448  0.5372  0.3882 -0.1292
  810SOL    HW1 2429   1.086   0.416   1.430  0.3738 -0.7953  0.4201
  810SOL    HW2 2430   1.156   0.551   1.363 -0.9660  0.1976 -0.5491
  811SOL     OW 2431   2.004   2.812   1.677 -0.2523  0.0379 -0.2395
  811SOL    HW1 2432   2.036   2.828   1.579  0.0346  0.4033 -0.2927
  811SOL    HW2 2433   2.006   2.717   1.711  2.0770  0.6741  0.2069
  812SOL     OW 2434   1.438   2.317   2.990 -0.1296 -0.0394  0.5740
  812SOL    HW1 2435   1.455   2.256   3.076 -2.1526 -1.9258  2.5352
  812SOL    HW2 2436   1.429   2.413   3.015 -1.7637  2.0107 -0.9101
  813SOL     OW 2437   1.755   0.996   1.718  0.5299 -0.0164 -0.2932
  813SOL    HW1 2438   1.652   1.008   1.720  0.1451  1.0381 -0.5435
  813SOL    HW2 2439   1.758   0.900   1.683 -2.1653  0.1779  1.3020
  814SOL     OW 2440   0.780   0.404   1.713  0.3932  0.0572  0.2120
  814SOL    HW1 2441   0.711   0.397   1.635 -1.3706  1.0502  1.4112
  814SOL    HW2 2442   0.848   0.477   1.688  1.0030 -1.3525  0.7767
  815SOL     OW 2443   0.721   1.004   0.430 -0.2035  0.0755 -0.0550
  815SOL    HW1 2444   0.713   0.954   0.339 -1.8532 -1.5293 -3.4871
  815SOL    HW2 2445   0.671   0.948   0.501 -0.4158  1.0040 -1.7197
  816SOL     OW 2446   2.229   1.499   2.707 -0.7410  0.1102 -0.4281
  816SOL    HW1 2447   2.207   1.541   2.619 -0.2944 -2.0183 -3.3895
  816SOL    HW2 2448   2.333   1.494   2.720  5.0995 -0.7635 -0.8988
  817SOL     OW 2449   0.767   2.496   0.382  0.6554  0.2500 -0.3468
  817SOL    HW1 2450   0.863   2.537   0.380  3.8953  0.5427  0.6162
  817SOL    HW2 2451   0.771   2.396   0.411  2.5385 -1.0741  1.2409
  818SOL     OW 2452   1.916   0.158   0.061  0.4169  0.3714  0.0564
  818SOL    HW1 2453   1.832   0.123   0.015  0.5518 -0.9397 -0.7071
  818SOL    HW2 2454   1.992   0.096   0.037  0.8376 -0.3054 -2.2614
  819SOL     OW 2455   1.683   0.386   0.154  0.3408  0.4731 -0.1591
  819SOL    HW1 2456   1.760   0.331   0.115 -1.0074 -3.4842  0.7075
  819SOL    HW2 2457   1.681   0.390   0.261  2.6954  0.2852  4.1400
  820SOL     OW 2458   1.886   0.557   0.333 -0.2213 -0.0055  0.0471
  820SOL    HW1 2459   1.868   0.653   0.364  0.6494  1.5395  0.7118
  820SOL    HW2 2460   1.887   0.540   0.236 -2.3566  1.7032  1.4611
  821SOL     OW 2461   2.454   0.477   0.059 -0.8416  0.2373  0.2180
  821SOL    HW1 2462   2.526   0.510   0.129  1.3371  0.5233  3.6541
  821SOL    HW2 2463   2.485   0.497   3.038  0.4169  1.5033 -3.0665
  822SOL     OW 2464   0.526   2.562   1.980  0.2855 -0.0898  0.1415
  822SOL    HW1 2465   0.597   2.542   1.911  0.5386  1.5592  0.0586
  822SOL    HW2 2466   0.567   2.567   2.076  0.3779  2.0129  2.4178
  823SOL     OW 2467   0.044   1.629   1.313  0.0308 -0.2770  0.0845
  823SOL    HW1 2468   0.037   1.731   1.326  1.6111  0.9639  1.8028
  823SOL    HW2 2469   3.030   1.585   1.278 -0.4616 -0.6306  0.1613
  824SOL     OW 2470   1.603   2.899   2.291  0.2890 -0.0884 -0.4055
  824SOL    HW1 2471   1.590   2.824   2.362 -0.8367  2.0390 -1.9838
  824SOL    HW2 2472   1.648   2.859   2.208 -0.5657  1.1288 -0.6950
  825SOL     OW 2473   1.677   1.019   0.679  0.0347  0.1291  0.4082
  825SOL    HW1 2474   1.637   0.933   0.714  0.6055 -2.1607 -1.4509
  825SOL    HW2 2475   1.681   1.087   0.753  3.8884  1.0100 -0.5946
  826SOL     OW 2476   1.916   0.842   0.064  0.0474  0.0173 -0.1563
  826SOL    HW1 2477   1.932   0.941   0.040 -0.0129  3.3487  1.8332
  826SOL    HW2 2478   1.829   0.829   0.118 -0.9567 -0.4751 -0.7284
  827SOL     OW 2479   0.621   1.190   1.452 -0.1408 -0.6749  0.5862
  827SOL    HW1 2480   0.531   1.137   1.473 -1.7942 -0.7348 -1.4558
  827SOL    HW2 2481   0.600   1.276   1.404  0.6349  0.1124 -0.0663
  828SOL     OW 2482   2.158   1.660   1.995 -0.0903  0.1062 -0.4783
  828SOL    HW1 2483   2.086   1.686   1.932  1.5760  0.3166  0.7523
  828SOL    HW2 2484   2.238   1.725   1.997  0.9930 -0.4278 -0.3054
  829SOL     OW 2485   0.243   1.920   0.189 -0.0827 -0.5194  0.5510
  829SOL    HW1 2486   0.312   1.845   0.209  0.2936  1.6919  1.4514
  829SOL    HW2 2487   0.261   1.950   0.092 -0.7148 -1.1100  0.5215
  830SOL     OW 2488   1.863   0.911   0.507  0.8392 -0.0275  0.8413
  830SOL    HW1 2489   1.804   0.953   0.574  0.0984 -0.1170 -2.7648
  830SOL    HW2 2490   1.873   0.976   0.431  0.2210 -0.2865 -0.1500
  831SOL     OW 2491   2.822   1.911   3.025 -0.4990  0.4548  0.4224
  831SOL    HW1 2492   2.725   1.883   3.011 -0.1835  0.5579  0.3454
  831SOL    HW2 2493   2.848   1.911   0.048 -2.0717 -0.3769 -2.8656
  832SOL     OW 2494   0.924   0.049   0.327 -0.9891  0.3807 -0.0298
  832SOL    HW1 2495   0.940   3.040   0.276 -1.8474  0.6118  0.2406
  832SOL    HW2 2496   1.003   0.110   0.308  0.8295 -3.5288  2.3356
  833SOL     OW 2497   1.194   0.586   2.211  0.0447 -0.2908 -0.2736
  833SOL    HW1 2498   1.216   0.686   2.200  1.6057 -1.0216  1.2294
  833SOL    HW2 2499   1.161   0.553   2.121  1.8381 -0.0796  1.9943
  834SOL     OW 2500   0.036   0.419   1.075 -0.3003  0.0515 -0.4592
  834SOL    HW1 2501   0.082   0.409   0.985 -1.0977 -1.8317 -2.0037
  834SOL    HW2 2502   3.041   0.489   1.073  1.4112 -3.5448  0.3813
  835SOL     OW 2503   2.782   3.009   0.914 -0.6318 -0.4841  0.2878
  835SOL    HW1 2504   2.778   2.906   0.931 -0.4932 -1.0160  0.8214
  835SOL    HW2 2505   2.811   3.061   0.996 -0.4193  0.2525  1.3842
  836SOL     OW 2506   0.608   1.977   0.219 -0.0637  0.7164  0.0323
  836SOL    HW1 2507   0.529   1.956   0.277 -0.3033  1.8190 -2.0500
  836SOL    HW2 2508   0.687   1.997   0.283  0.3669 -0.2930  2.1226
  837SOL     OW 2509   1.514   1.685   2.577  0.3909  0.1061 -0.0861
  837SOL    HW1 2510   1.465   1.776   2.589 -1.8797  2.3108  0.2479
  837SOL    HW2 2511   1.603   1.685   2.530 -0.6173  1.9096 -1.6267
  838SOL     OW 2512   0.197   0.914   2.040 -0.5322  0.5266 -0.0813
  838SOL    HW1 2513   0.136   0.991   2.058 -0.1412 -1.7280 -3.4849
  838SOL    HW2 2514   0.262   0.899   2.117 -1.8889  1.7355 -3.3865
  839SOL     OW 2515   0.296   0.562   0.867 -0.1106 -0.6440 -0.0649
  839SOL    HW1 2516   0.283   0.461   0.863  0.2891  3.7232 -0.4332
  839SOL    HW2 2517   0.337   0.580   0.960 -2.1989  0.9275 -0.2867
  840SOL     OW 2518   2.493   0.278   2.468  0.4689 -0.8012  0.1804
  840SOL    HW1 2519   2.465   0.295   2.568 -0.2951  0.7389  0.6166
  840SOL    HW2 2520   2.595   0.257   2.460  2.6937 -0.2227 -0.1873
  841SOL     OW 2521   0.878   2.489   2.881  0.1061 -0.3772  0.5602
  841SOL    HW1 2522   0.949   2.538   2.829  1.8452 -3.3286 -0.1203
  841SOL    HW2 2523   0.901   2.393   2.896  1.9879 -1.2454 -2.3267
  842SOL     OW 2524   0.501   2.953   0.891  0.0557  0.2319 -0.2970
  842SOL    HW1 2525   0.604   2.948   0.880  3.6075  0.5897 -2.1317
  842SOL    HW2 2526   0.445   2.899   0.815 -1.1119 -0.9686 -1.8145
  843SOL     OW 2527   0.126   0.576   0.195  0.3942 -0.8058  0.2237
  843SOL    HW1 2528   0.071   0.542   0.272 -1.9046 -0.5511 -0.8974
  843SOL    HW2 2529   0.125   0.501   0.124 -2.8703  0.6546 -0.4742
  844SOL     OW 2530   1.103   2.536   2.708 -0.1327 -0.3062  0.1503
  844SOL    HW1 2531   1.122   2.434   2.701 -1.5623  0.9221 -0.1062
  844SOL    HW2 2532   1.176   2.591   2.751  1.3653  0.0669  1.2711
  845SOL     OW 2533   2.437   0.259   2.747 -0.1955  0.0796  0.4041
  845SOL    HW1 2534   2.478   0.167   2.760 -0.6754 -0.3045  0.6623
  845SOL    HW2 2535   2.453   0.322   2.828  0.3055  1.3130 -1.6899
  846SOL     OW 2536   1.986   1.629   2.767 -0.3620  0.2135 -0.1421
  846SOL    HW1 2537   2.078   1.595   2.739 -1.3632 -0.8481 -1.8029
  846SOL    HW2 2538   1.913   1.562   2.739  1.4862  0.1956  0.7661
  847SOL     OW 2539   2.521   0.212   0.035  0.2237 -0.0262  0.0964
  847SOL    HW1 2540   2.434   0.176   3.076  0.6483  0.4921 -1.9487
  847SOL    HW2 2541   2.512   0.312   0.053 -0.3477  2.6361  1.2548
  848SOL     OW 2542   0.576   0.347   0.533  0.0501  0.1782 -0.0387
  848SOL    HW1 2543   0.544   0.310   0.623  1.6507 -0.8582 -2.4371
  848SOL    HW2 2544   0.666   0.306   0.512  0.6856  0.3807  1.2304
  849SOL     OW 2545   1.498   3.013   1.964 -0.0699  0.3153  0.3930
  849SOL    HW1 2546   1.575   2.974   2.008 -1.5492  0.9482  0.2981
  849SOL    HW2 2547   1.534   3.065   1.886  0.6053 -0.7660 -1.4807
  850SOL     OW 2548   0.717   1.227   0.597 -0.0142  0.6179  0.0351
  850SOL    HW1 2549   0.731   1.144   0.535 -0.0498  0.5035 -2.1656
  850SOL    HW2 2550   0.646   1.211   0.668  0.6999  2.3540  0.7073
  851SOL     OW 2551   0.255   0.998   0.042  0.2392 -0.5167  0.1729
  851SOL    HW1 2552   0.284   0.910   0.079 -2.3064  0.4817  0.9762
  851SOL    HW2 2553   0.207   1.056   0.114 -0.0067 -0.7749 -1.2832
  852SOL     OW 2554   1.106   3.065   1.684 -0.0358 -0.3946 -0.0586
  852SOL    HW1 2555   1.139   3.054   1.780  0.2194  0.0951 -2.5120
  852SOL    HW2 2556   1.169   0.054   1.636 -1.7638  0.1097 -0.5741
  853SOL     OW 2557   2.374   1.475   0.207 -0.5549  0.0944  0.8217
  853SOL    HW1 2558   2.383   1.469   0.105  2.2971 -1.2509 -0.5517
  853SOL    HW2 2559   2.454   1.530   0.233  0.8266  1.8959 -1.4136
  854SOL     OW 2560   1.184   1.018   2.000 -0.7659 -0.3052  0.1805
  854SOL    HW1 2561   1.091   1.061   2.014 -0.2914 -0.4657 -0.5648
  854SOL    HW2 2562   1.237   1.067   1.927 -1.1404 -0.4321 -0.2914
  855SOL     OW 2563   0.337   2.710   3.021  0.4502 -0.2765 -0.4619
  855SOL    HW1 2564   0.256   2.717   0.004 -0.7693  1.3936 -3.5909
  855SOL    HW2 2565   0.337   2.617   2.971  0.3317 -1.7237 -1.5250
  856SOL     OW 2566   0.870   0.750   2.089 -0.3272  0.2087 -0.0914
  856SOL    HW1 2567   0.953   0.727   2.033 -1.0852  0.0597  1.3943
  856SOL    HW2 2568   0.905   0.754   2.187 -1.0499  0.8032  3.1095
  857SOL     OW 2569   1.096   0.724   2.513  0.0515  0.2935  0.0782
  857SOL    HW1 2570   1.175   0.780   2.495  0.1878 -0.9633  0.1420
  857SOL    HW2 2571   1.111   0.625   2.507  0.7750  1.5949  3.0800
  858SOL     OW 2572   3.013   1.390   1.960  0.2964 -0.5282 -0.3003
  858SOL    HW1 2573   0.026   1.432   1.972  0.3974  1.9614  1.1663
  858SOL    HW2 2574   2.977   1.399   1.865  0.7483  0.2773 -1.9456
  859SOL     OW 2575   2.468   0.235   0.838 -0.0947 -0.4172 -0.4814
  859SOL    HW1 2576   2.498   0.190   0.923  0.5253 -0.4452 -2.6971
  859SOL    HW2 2577   2.453   0.332   0.861 -2.6388 -0.2910  0.4752
  860SOL     OW 2578   1.912   2.987   0.312 -0.3093  0.1453 -0.0093
  860SOL    HW1 2579   1.923   0.005   0.344 -1.8373 -1.6501 -1.0947
  860SOL    HW2 2580   1.880   2.924   0.386  1.7485  1.0124 -0.4544
  861SOL     OW 2581   1.002   0.465   1.181 -0.1121 -0.0996  0.3103
  861SOL    HW1 2582   0.999   0.377   1.232 -0.0936  0.2395 -0.0216
  861SOL    HW2 2583   0.913   0.512   1.182 -0.5381 -0.2250  2.4701
  862SOL     OW 2584   1.312   0.226   2.525 -0.4792 -0.3334  0.0965
  862SOL    HW1 2585   1.332   0.173   2.609  0.7417  0.7834  1.3771
  862SOL    HW2 2586   1.395   0.274   2.498 -0.8058  1.3345  2.9947
  863SOL     OW 2587   2.562   2.312   0.656 -0.6245 -0.2809  0.0473
  863SOL    HW1 2588   2.627   2.319   0.740  1.4071  0.5253  3.4247
  863SOL    HW2 2589   2.490   2.384   0.666  1.2814  2.4375  0.0331
  864SOL     OW 2590   2.680   0.171   1.970 -0.1879  0.3627 -0.2765
  864SOL    HW1 2591   2.598   0.164   1.910  0.3850  2.7929 -0.9949
  864SOL    HW2 2592   2.761   0.153   1.913  0.6668 -0.9874  1.1933
  865SOL     OW 2593   1.496   0.966   1.774  0.7038 -0.3962 -0.0987
  865SOL    HW1 2594   1.475   0.864   1.784 -1.0289 -0.3809 -1.8751
  865SOL    HW2 2595   1.408   1.023   1.784 -2.8177 -0.3934 -0.9148
  866SOL     OW 2596   1.606   2.461   1.162 -0.2280  0.2773 -0.2854
  866SOL    HW1 2597   1.535   2.414   1.107  0.8061 -1.5267 -1.8488
  866SOL    HW2 2598   1.614   2.562   1.142  0.6466 -1.1812  0.5241
  867SOL     OW 2599   2.392   2.736   0.521 -0.5204 -0.2626 -0.3473
  867SOL    HW1 2600   2.292   2.744   0.500 -2.6749  0.2048 -2.5772
  867SOL    HW2 2601   2.445   2.814   0.481  1.0735  1.0759  3.8488
  868SOL     OW 2602   0.367   2.247   1.861  0.1902 -0.4965  0.1294
  868SOL    HW1 2603   0.356   2.154   1.817  0.4381 -1.5217  0.3634
  868SOL    HW2 2604   0.289   2.313   1.840 -0.7342  0.7660 -1.2130
  869SOL     OW 2605   2.027   2.456   2.422 -0.1973  0.4774 -0.0543
  869SOL    HW1 2606   2.045   2.472   2.523 -0.3880 -1.2482 -0.8843
  869SOL    HW2 2607   2.116   2.427   2.380  0.9083  0.8091 -1.7853
  870SOL     OW 2608   1.721   1.452   0.883  0.0064 -0.0581  0.3272
  870SOL    HW1 2609   1.675   1.459   0.792 -1.6439 -0.6690 -2.9387
  870SOL    HW2 2610   1.709   1.359   0.924  1.0286 -1.3553  0.0178
  871SOL     OW 2611   0.451   1.684   1.193  0.3814  0.4330 -0.5688
  871SOL    HW1 2612   0.397   1.632   1.125  1.9048  1.0004  1.2444
  871SOL    HW2 2613   0.389   1.726   1.262 -2.2534  0.4985 -1.1366
  872SOL     OW 2614   0.642   1.434   2.481  0.3072  0.2235  1.0452
  872SOL    HW1 2615   0.645   1.331   2.472  3.7054 -0.5407  0.3830
  872SOL    HW2 2616   0.653   1.472   2.577  0.1734 -2.2138  1.1813
  873SOL     OW 2617   0.844   1.742   2.064 -0.1474  0.7975  0.0988
  873SOL    HW1 2618   0.780   1.765   2.136  2.9318 -0.4571 -1.3103
  873SOL    HW2 2619   0.848   1.638   2.067 -1.8230 -0.1298  2.0310
  874SOL     OW 2620   1.113   0.709   1.972  0.9609 -0.7288  0.2155
  874SOL    HW1 2621   1.109   0.658   1.881  1.1626  1.6525 -0.5176
  874SOL    HW2 2622   1.155   0.798   1.964 -1.1207 -0.3019  0.2236
  875SOL     OW 2623   2.743   2.805   0.529  0.6229  0.8004  0.1934
  875SOL    HW1 2624   2.678   2.743   0.490  1.4497  2.9093  0.3836
  875SOL    HW2 2625   2.700   2.895   0.545 -1.1717  0.9320 -0.6587
  876SOL     OW 2626   0.647   1.367   0.374  0.3893  0.0458 -0.0660
  876SOL    HW1 2627   0.667   1.347   0.475  0.9681 -2.1281  0.5024
  876SOL    HW2 2628   0.623   1.461   0.360  2.2693 -4.4194  0.7332
  877SOL     OW 2629   2.704   0.107   0.719 -0.2735 -0.1378  0.3526
  877SOL    HW1 2630   2.654   0.181   0.773 -2.7063  1.8301  0.2404
  877SOL    HW2 2631   2.742   0.038   0.782 -1.1400  0.0102 -1.6054
  878SOL     OW 2632   2.157   1.579   0.574  0.0420  0.4616 -0.3981
  878SOL    HW1 2633   2.172   1.498   0.512  0.7156 -2.4361 -2.2099
  878SOL    HW2 2634   2.097   1.555   0.654 -0.4464 -0.1944 -1.2267
  879SOL     OW 2635   2.438   1.666   1.267 -0.7311  0.8498 -0.1035
  879SOL    HW1 2636   2.444   1.562   1.277 -1.2338  1.0124 -1.5787
  879SOL    HW2 2637   2.431   1.690   1.168  0.8826  1.2855 -1.6605
  880SOL     OW 2638   0.574   2.145   0.547 -0.0572  0.0277 -0.0670
  880SOL    HW1 2639   0.496   2.181   0.492  0.7292  1.1953 -0.2264
  880SOL    HW2 2640   0.599   2.210   0.619 -0.7450 -1.9557 -3.3274
  881SOL     OW 2641   0.965   0.876   0.868 -0.2334 -0.3850 -0.4691
  881SOL    HW1 2642   0.990   0.839   0.777 -1.2193 -0.2787 -0.2219
  881SOL    HW2 2643   0.991   0.977   0.869  2.1039  2.8579  2.7482
  882SOL     OW 2644   2.249   0.955   0.523 -0.6427 -0.1017 -0.2789
  882SOL    HW1 2645   2.166   0.991   0.566  4.4248 -1.5709 -1.8739
  882SOL    HW2 2646   2.230   0.874   0.465 -1.2959 -1.9035 -0.0994
  883SOL     OW 2647   1.613   0.125   1.766  0.0464  0.3771 -0.3598
  883SOL    HW1 2648   1.576   0.173   1.847  1.5294 -0.5078 -0.9993
  883SOL    HW2 2649   1.547   0.126   1.693  0.8495 -1.1659  0.4120
  884SOL     OW 2650   2.797   3.072   1.344  0.0843  0.0507 -0.1336
  884SOL    HW1 2651   2.836   0.074   1.295 -1.4981 -1.1625 -0.4699
  884SOL    HW2 2652   2.745   0.017   1.427  2.0677 -2.1286  0.2768
  885SOL     OW 2653   1.439   0.906   2.674 -0.2120  0.0878 -0.4804
  885SOL    HW1 2654   1.386   0.924   2.589  2.3060  0.1385  1.1171
  885SOL    HW2 2655   1.370   0.910   2.753  1.2588  0.1458  0.6977
  886SOL     OW 2656   1.557   0.697   2.158 -0.1697  0.0790 -0.0517
  886SOL    HW1 2657   1.614   0.634   2.104 -2.4606 -0.7683 -1.5720
  886SOL    HW2 2658   1.507   0.651   2.234 -0.2754 -0.6545  2.3701
  887SOL     OW 2659   1.509   0.211   1.357 -0.0940 -0.0961  0.0056
  887SOL    HW1 2660   1.438   0.220   1.283 -1.0638 -0.5816 -1.3765
  887SOL    HW2 2661   1.600   0.206   1.314 -0.1330  0.5226  0.9829
  888SOL     OW 2662   2.412   1.790   1.925  0.5069 -0.4822 -0.6950
  888SOL    HW1 2663   2.507   1.756   1.908  0.7062  0.5182  0.4116
  888SOL    HW2 2664   2.367   1.834   1.841  0.3072  1.3830 -0.6465
  889SOL     OW 2665   1.603   2.269   0.575 -0.2091  0.0136  0.3625
  889SOL    HW1 2666   1.602   2.317   0.662  1.2895 -0.3755 -1.5254
  889SOL    HW2 2667   1.644   2.330   0.503 -1.0122  0.7892 -2.0618
  890SOL     OW 2668   1.027   1.789   0.491  0.7048  0.3010  0.4131
  890SOL    HW1 2669   1.069   1.707   0.530 -1.9346 -1.3619  0.3473
  890SOL    HW2 2670   0.963   1.834   0.554  0.6938 -2.7448 -1.6231
  891SOL     OW 2671   2.857   0.912   2.799 -0.0801  0.4559 -0.7265
  891SOL    HW1 2672   2.911   0.898   2.885 -2.7803 -1.8447  1.0212
  891SOL    HW2 2673   2.772   0.962   2.826 -0.9744  1.2474 -0.8512
  892SOL     OW 2674   1.404   0.596   2.387 -0.5160 -0.4603  0.2145
  892SOL    HW1 2675   1.458   0.507   2.378  1.0835 -2.6118 -1.8501
  892SOL    HW2 2676   1.317   0.580   2.338  0.0514 -1.2630 -0.3836
  893SOL     OW 2677   1.598   2.914   1.419  0.3193  0.3364 -0.0986
  893SOL    HW1 2678   1.685   2.972   1.420  0.1800  1.2603 -1.7403
  893SOL    HW2 2679   1.540   2.934   1.505 -1.4188 -0.4547  2.9028
  894SOL     OW 2680   2.588   3.056   0.499  0.2905  0.2325 -0.0265
  894SOL    HW1 2681   2.551   0.018   0.414  0.4065 -2.6761  0.0346
  894SOL    HW2 2682   2.616   0.048   0.571 -0.7945  0.5098 -0.5969
  895SOL     OW 2683   1.799   2.618   2.935  0.0176 -0.3214 -0.1857
  895SOL    HW1 2684   1.758   2.564   2.863 -0.0444 -0.1147 -0.4623
  895SOL    HW2 2685   1.895   2.596   2.951 -0.5965 -0.1533  1.0030
  896SOL     OW 2686   2.078   0.174   2.157 -0.0174 -0.3757  0.2467
  896SOL    HW1 2687   2.035   0.078   2.157  0.8712  0.1249  0.6571
  896SOL    HW2 2688   2.007   0.244   2.146  1.8277 -0.1665 -1.3541
  897SOL     OW 2689   0.241   1.819   1.491 -0.2863  0.6220  0.2700
  897SOL    HW1 2690   0.274   1.728   1.535 -0.1946 -2.7514  0.1808
  897SOL    HW2 2691   0.316   1.864   1.436  1.3745  0.3044  2.1473
  898SOL     OW 2692   2.581   1.714   1.706 -0.0334  0.5308 -0.5510
  898SOL    HW1 2693   2.499   1.700   1.653  0.3302 -0.1458 -0.7210
  898SOL    HW2 2694   2.641   1.637   1.687 -2.1202 -0.6900  1.0714
  899SOL     OW 2695   1.533   2.009   1.140 -0.9184  0.2390 -0.1803
  899SOL    HW1 2696   1.452   2.069   1.142  3.2057 -0.8089 -1.2692
  899SOL    HW2 2697   1.511   1.921   1.088 -2.6812  0.3314 -0.4825
  900SOL     OW 2698   0.914   0.090   2.768 -0.1592 -0.4477  0.3926
  900SOL    HW1 2699   0.945   0.068   2.862 -1.4671 -0.9944 -0.4356
  900SOL    HW2 2700   0.926   0.188   2.734 -0.3620  3.2265 -2.7211
  901SOL     OW 2701   1.152   1.717   2.437  0.0882 -0.1134  0.3496
  901SOL    HW1 2702   1.230   1.716   2.372 -1.8801 -0.3408 -2.0283
  901SOL    HW2 2703   1.092   1.796   2.411 -0.3669  2.5586  0.6844
  902SOL     OW 2704   2.840   2.971   3.022 -0.2700  0.4881  0.3826
  902SOL    HW1 2705   2.804   2.945   0.037 -0.7772 -0.4592 -1.6823
  902SOL    HW2 2706   2.913   3.038   3.031 -2.2435  1.1638  2.4239
  903SOL     OW 2707   2.169   0.965   2.001  0.7660  0.4233  0.1830
  903SOL    HW1 2708   2.082   0.916   1.999  0.5603  2.3533  0.1842
  903SOL    HW2 2709   2.245   0.904   2.024 -2.0467  1.3848  1.8546
  904SOL     OW 2710   1.564   0.328   2.407 -0.0207  0.1281 -0.0496
  904SOL    HW1 2711   1.652   0.344   2.456  1.2595  1.1796 -1.1068
  904SOL    HW2 2712   1.576   0.243   2.356 -1.9241  0.3880  1.9978
  905SOL     OW 2713   2.103   2.385   1.555 -0.1298 -0.4149 -0.0645
  905SOL    HW1 2714   2.124   2.299   1.605  1.6461  1.8266  1.5491
  905SOL    HW2 2715   2.100   2.459   1.626  2.4490 -0.8835  0.4547
  906SOL     OW 2716   1.627   2.002   0.308  0.1201  0.1160  0.0401
  906SOL    HW1 2717   1.596   1.914   0.270  0.1313  0.9436 -0.0127
  906SOL    HW2 2718   1.725   2.005   0.330 -0.9584 -0.3029  0.3604
  907SOL     OW 2719   0.794   2.668   0.749  0.1127 -0.6405  0.1863
  907SOL    HW1 2720   0.726   2.689   0.826  1.2332  0.8361  0.3902
  907SOL    HW2 2721   0.777   2.727   0.667  1.3253  1.5958  0.5084
  908SOL     OW 2722   1.204   2.554   2.099  0.4868  0.3307 -0.0553
  908SOL    HW1 2723   1.252   2.531   2.186  1.1570  1.4641  0.4159
  908SOL    HW2 2724   1.186   2.471   2.045  1.7026 -1.6383  0.5687
  909SOL     OW 2725   2.069   0.372   1.902 -0.3472  0.1351  0.1835
  909SOL    HW1 2726   2.159   0.423   1.907  4.0149  0.3533  0.0101
  909SOL    HW2 2727   2.016   0.399   1.985 -0.5301 -1.2252  0.2867
  910SOL     OW 2728   1.295   0.832   0.066 -0.7107 -0.0097 -0.3240
  910SOL    HW1 2729   1.264   0.736   0.073  0.1957  0.0378 -1.2519
  910SOL    HW2 2730   1.294   0.881   0.155 -1.3101  1.2455  0.1438
  911SOL     OW 2731   2.938   0.819   0.190  0.3606  0.3013 -0.4585
  911SOL    HW1 2732   2.868   0.753   0.158  1.8159  0.5796 -1.5548
  911SOL    HW2 2733   2.891   0.906   0.200  2.6005 -2.1871 -0.2406
  912SOL     OW 2734   0.246   2.539   0.189 -0.1019 -0.5702  0.4844
  912SOL    HW1 2735   0.147   2.520   0.192  0.2325  0.3877 -1.4678
  912SOL    HW2 2736   0.299   2.481   0.124  1.5363 -1.0200 -1.1963
  913SOL     OW 2737   2.739   2.351   2.443  0.0382 -0.0705 -0.3917
  913SOL    HW1 2738   2.797   2.270   2.438 -1.9767  1.5864  1.6626
  913SOL    HW2 2739   2.774   2.436   2.395  4.1518  2.0134 -2.5456
  914SOL     OW 2740   1.425   1.871   1.596 -0.3418  0.5206 -0.3364
  914SOL    HW1 2741   1.473   1.839   1.514  0.0832 -1.0718 -0.4559
  914SOL    HW2 2742   1.372   1.793   1.636 -0.3448  2.2962 -0.2398
  915SOL     OW 2743   0.805   2.708   2.037  0.6662 -0.2363 -0.2135
  915SOL    HW1 2744   0.775   2.659   1.956  2.3708  0.9195  1.3245
  915SOL    HW2 2745   0.734   2.786   2.057  0.7061  5.8793 -0.9627
  916SOL     OW 2746   0.495   1.014   1.888  0.1162  0.3617 -0.4890
  916SOL    HW1 2747   0.405   1.011   1.842 -0.3624 -2.5148  0.5211
  916SOL    HW2 2748   0.544   0.926   1.865  1.2430 -0.4067  0.2749
  917SOL     OW 2749   2.602   0.511   0.662  0.7225 -0.2075 -0.0547
  917SOL    HW1 2750   2.541   0.443   0.620  0.0178 -0.9734 -1.0567
  917SOL    HW2 2751   2.686   0.524   0.608 -0.7998 -0.3382 -0.9226
  918SOL     OW 2752   1.854   2.660   2.493  0.0747 -0.0336  0.5373
  918SOL    HW1 2753   1.912   2.581   2.465  0.8997  1.0531 -0.2857
  918SOL    HW2 2754   1.756   2.643   2.466 -0.7338  2.7747 -0.7135
  919SOL     OW 2755   1.427   2.547   1.838 -0.2850  0.1276 -0.0126
  919SOL    HW1 2756   1.382   2.588   1.758  0.1456  0.8399  3.7112
  919SOL    HW2 2757   1.396   2.599   1.920  1.5083  0.4607 -1.0903
  920SOL     OW 2758   0.724   0.783   3.044  0.2594  0.9101  0.4537
  920SOL    HW1 2759   0.663   0.863   3.042  0.8400 -0.9428 -0.5068
  920SOL    HW2 2760   0.680   0.700   2.996 -0.1672 -1.7413 -2.3517
  921SOL     OW 2761   3.047   0.570   2.979  0.3195 -0.2713  0.0114
  921SOL    HW1 2762   0.003   0.547   2.883  1.4314  1.1613 -1.9171
  921SOL    HW2 2763   3.050   0.669   2.989 -0.7148 -1.7303  1.0275
  922SOL     OW 2764   0.857   1.625   0.767  0.1473 -0.2473 -0.0537
  922SOL    HW1 2765   0.927   1.701   0.772  1.8971 -0.1402 -0.8216
  922SOL    HW2 2766   0.787   1.645   0.693 -1.1583 -0.1072 -0.3456
  923SOL     OW 2767   0.579   1.273   1.838 -0.0069  0.6009 -0.3277
  923SOL    HW1 2768   0.498   1.322   1.797 -1.7606  1.3209  1.6716
  923SOL    HW2 2769   0.552   1.180   1.880 -1.8204 -1.2575  0.5602
  924SOL     OW 2770   1.700   0.058   3.009  0.0798  0.3098 -0.9461
  924SOL    HW1 2771   1.636   0.073   0.010 -2.7420 -0.2990  0.1068
  924SOL    HW2 2772   1.712   3.035   2.989  0.4138  0.6040  1.1043
  925SOL     OW 2773   2.832   1.275   1.166  0.4021 -0.4362  0.3016
  925SOL    HW1 2774   2.824   1.296   1.065 -0.6017  0.2604  1.1996
  925SOL    HW2 2775   2.745   1.221   1.195 -0.4772 -0.8779 -0.2087
  926SOL     OW 2776   1.863   0.453   1.429  0.1886  0.5688 -0.0910
  926SOL    HW1 2777   1.881   0.417   1.519  0.1246  1.3766 -1.0935
  926SOL    HW2 2778   1.923   0.529   1.405 -1.9440 -0.9725 -1.6440
  927SOL     OW 2779   1.952   2.865   1.136  0.5178 -0.2111 -0.2862
  927SOL    HW1 2780   1.916   2.808   1.213 -0.4306 -1.5063 -0.3716
  927SOL    HW2 2781   2.030   2.921   1.163 -0.3591  0.2643  1.2334
  928SOL     OW 2782   3.074   1.104   2.049 -0.0058  0.6543  0.1135
  928SOL    HW1 2783   0.014   1.204   2.013 -0.6257  3.2572  0.0359
  928SOL    HW2 2784   2.984   1.070   2.013 -0.6947  1.7444 -2.4070
  929SOL     OW 2785   2.803   0.882   0.888 -0.0169 -0.0256  0.1218
  929SOL    HW1 2786   2.888   0.835   0.864  0.9796 -0.2883 -0.1232
  929SOL    HW2 2787   2.811   0.913   0.984 -2.0531  0.2781  3.8480
  930SOL     OW 2788   2.762   2.654   1.978 -0.5673 -0.5246  0.0349
  930SOL    HW1 2789   2.790   2.752   1.985 -1.3317 -2.8622  0.1911
  930SOL    HW2 2790   2.773   2.617   1.883  1.8842 -2.0073 -0.8468
  931SOL     OW 2791   1.943   0.820   1.118 -0.0104  0.1260  0.1539
  931SOL    HW1 2792   1.863   0.769   1.159 -0.5224  0.0152 -1.1722
  931SOL    HW2 2793   2.027   0.820   1.172 -0.2879  1.5698 -1.6520
  932SOL     OW 2794   0.160   1.212   1.747 -0.1786  0.3264  1.0810
  932SOL    HW1 2795   0.194   1.121   1.773 -1.2551  1.4485 -1.0137
  932SOL    HW2 2796   0.234   1.283   1.744  0.8597  0.1164 -1.4857
  933SOL     OW 2797   2.913   2.163   1.593  0.0711 -0.6243  0.0684
  933SOL    HW1 2798   2.841   2.240   1.593 -2.5502  1.5437 -0.5375
  933SOL    HW2 2799   2.879   2.084   1.542 -0.0060 -0.7491 -0.2872
  934SOL     OW 2800   0.650   1.946   1.462 -0.0913  0.4163 -0.5959
  934SOL    HW1 2801   0.719   1.893   1.508 -0.5786  0.5866  0.4645
  934SOL    HW2 2802   0.659   2.046   1.488  0.6287 -0.3574  1.0602
  935SOL     OW 2803   2.920   1.483   1.679  0.0181  0.4189 -0.2700
  935SOL    HW1 2804   2.947   1.394   1.640  0.5195 -0.1958 -1.1653
  935SOL    HW2 2805   2.847   1.520   1.619  1.6396  1.0925  0.0172
  936SOL     OW 2806   2.590   1.392   1.651 -0.5239 -0.0787 -0.3220
  936SOL    HW1 2807   2.603   1.402   1.750  1.1747 -1.3301  1.7245
  936SOL    HW2 2808   2.496   1.421   1.627  1.3517  0.7148  0.1627
  937SOL     OW 2809   1.896   0.819   1.444  0.1860  0.1920 -0.5698
  937SOL    HW1 2810   1.979   0.813   1.506  3.6282  1.0758  0.0139
  937SOL    HW2 2811   1.876   0.914   1.411 -0.9917 -0.6320 -0.3661
  938SOL     OW 2812   0.397   2.261   2.781 -0.5350  0.1487  0.1721
  938SOL    HW1 2813   0.414   2.285   2.686  0.6661 -1.4392  1.8985
  938SOL    HW2 2814   0.398   2.162   2.802 -0.6474  1.3292  0.8074
  939SOL     OW 2815   2.520   1.552   2.686  0.0136  0.0612  0.7060
  939SOL    HW1 2816   2.591   1.511   2.745 -2.7291 -0.2729  1.4886
  939SOL    HW2 2817   2.538   1.645   2.653  1.2107 -1.0084 -3.6345
  940SOL     OW 2818   1.801   2.051   0.626 -0.1753  0.1701  0.0253
  940SOL    HW1 2819   1.807   2.008   0.721  0.3321 -1.4277  3.2909
  940SOL    HW2 2820   1.715   2.103   0.619 -2.1875 -0.0530 -0.0717
  941SOL     OW 2821   2.060   2.573   2.964  0.7852  0.1130  0.5701
  941SOL    HW1 2822   2.122   2.496   2.942 -1.8351  3.1797  0.8892
  941SOL    HW2 2823   2.096   2.645   2.906  0.4040 -1.9605  1.8995
  942SOL     OW 2824   1.162   2.569   0.579  0.3908  0.0570 -0.3984
  942SOL    HW1 2825   1.248   2.564   0.635 -1.3393  0.7147 -1.4913
  942SOL    HW2 2826   1.121   2.477   0.562 -3.6406 -0.1294  1.9364
  943SOL     OW 2827   2.240   1.103   1.606 -0.3497 -0.6446 -0.3125
  943SOL    HW1 2828   2.276   1.129   1.699  0.3346  0.5841  1.9490
  943SOL    HW2 2829   2.142   1.131   1.603  0.6144 -3.3750  0.2100
  944SOL     OW 2830   1.279   0.933   2.876  0.0693 -0.3095 -0.0086
  944SOL    HW1 2831   1.250   0.887   2.964 -0.1574  2.0185 -2.8149
  944SOL    HW2 2832   1.224   1.017   2.868  0.5399 -0.9466 -0.7839
  945SOL     OW 2833   2.730   2.120   1.301 -0.0664 -0.2640 -0.0349
  945SOL    HW1 2834   2.675   2.067   1.368 -0.4373  0.4397 -0.8806
  945SOL    HW2 2835   2.680   2.206   1.288  0.4598 -2.3834  2.3482
  946SOL     OW 2836   0.533   0.953   2.998  0.0178  0.1456 -0.1542
  946SOL    HW1 2837   0.452   0.975   3.051  0.1597  0.7276 -2.1606
  946SOL    HW2 2838   0.535   1.011   2.914  1.3343 -1.4113  0.6001
  947SOL     OW 2839   1.995   0.124   1.859  0.1847 -0.2228 -0.1968
  947SOL    HW1 2840   2.056   0.059   1.906  0.4796  0.6080 -2.8917
  947SOL    HW2 2841   2.017   0.223   1.880 -0.2422  4.1635  2.1538
  948SOL     OW 2842   0.061   1.736   1.002  0.1862 -0.2712 -0.2034
  948SOL    HW1 2843   3.043   1.766   0.987  2.1276  0.0962  3.6307
  948SOL    HW2 2844   0.068   1.636   1.016  0.8188 -3.7562  1.2448
  949SOL     OW 2845   1.305   1.177   1.812  0.3253  0.4100  0.7410
  949SOL    HW1 2846   1.230   1.215   1.756 -0.7303 -1.3177 -0.7657
  949SOL    HW2 2847   1.323   1.231   1.901  2.5623  1.5052  4.9428
  950SOL     OW 2848   0.186   0.877   0.757  0.3094  0.2356  0.3324
  950SOL    HW1 2849   0.184   0.947   0.682 -0.3690 -0.5138  0.5474
  950SOL    HW2 2850   0.225   0.792   0.719  0.6962 -1.0309 -1.1299
  951SOL     OW 2851   0.229   1.884   2.086  0.3473  0.4076  0.3325
  951SOL    HW1 2852   0.158   1.842   2.149 -1.2151  0.3595  2.1537
  951SOL    HW2 2853   0.307   1.819   2.069  4.5030 -2.4936  0.1942
  952SOL     OW 2854   1.577   1.554   0.327 -0.1597 -0.5583  0.2429
  952SOL    HW1 2855   1.485   1.561   0.362  1.2826  1.5960 -3.0716
  952SOL    HW2 2856   1.576   1.502   0.238  0.8888  1.9327 -1.4009
  953SOL     OW 2857   1.078   0.726   0.251  0.5574  0.1006  0.1148
  953SOL    HW1 2858   1.001   0.685   0.307 -0.2749 -0.9491 -2.4119
  953SOL    HW2 2859   1.035   0.758   0.169  0.6360  1.7717  5.0174
  954SOL     OW 2860   1.972   1.185   0.337 -0.2720 -0.3299 -0.5506
  954SOL    HW1 2861   2.053   1.132   0.302 -2.0689 -1.3147 -0.3541
  954SOL    HW2 2862   1.906   1.202   0.265  1.5114 -1.1352  0.4787
  955SOL     OW 2863   2.435   2.749   2.850  0.2536  0.1731 -0.2120
  955SOL    HW1 2864   2.372   2.820   2.818  2.0558  1.2775  1.6027
  955SOL    HW2 2865   2.534   2.783   2.847  1.7491  1.4784 -0.7514
  956SOL     OW 2866   1.040   0.785   1.384  0.1123 -0.0198 -0.2220
  956SOL    HW1 2867   1.052   0.766   1.281  1.2731 -1.5703  0.6449
  956SOL    HW2 2868   1.045   0.698   1.435 -0.1615 -3.3302  0.8017
  957SOL     OW 2869   1.584   1.071   1.416  0.3950  0.2045  0.0593
  957SOL    HW1 2870   1.687   1.081   1.400 -0.0974  2.4038 -1.2704
  957SOL    HW2 2871   1.551   1.121   1.494  2.3727  1.0123 -3.2246
  958SOL     OW 2872   0.449   1.860   0.432  0.0792  0.2446 -0.3666
  958SOL    HW1 2873   0.398   1.779   0.395 -1.3833  0.0647 -0.8248
  958SOL    HW2 2874   0.509   1.829   0.508 -1.6569 -0.8304  2.7247
  959SOL     OW 2875   1.802   1.431   1.288 -0.4332 -0.1083 -0.6083
  959SOL    HW1 2876   1.713   1.385   1.272  2.7360 -0.5084 -0.4651
  959SOL    HW2 2877   1.809   1.504   1.217  1.4589 -3.3280  0.3239
  960SOL     OW 2878   3.043   1.214   2.860  0.1025 -0.0523  0.0463
  960SOL    HW1 2879   0.071   1.210   2.855 -1.0230  1.1628 -1.1156
  960SOL    HW2 2880   3.001   1.265   2.787  0.4040 -1.9849  1.1813
  961SOL     OW 2881   1.152   1.565   0.601 -0.3530 -0.2913 -0.5728
  961SOL    HW1 2882   1.154   1.465   0.597  0.2925  1.0634 -0.2855
  961SOL    HW2 2883   1.169   1.605   0.697  0.0600  0.3064 -1.3327
  962SOL     OW 2884   1.114   1.084   0.546 -0.0729 -0.3465 -0.5812
  962SOL    HW1 2885   1.079   1.004   0.602 -1.7161 -0.8259  1.1335
  962SOL    HW2 2886   1.182   1.131   0.607 -0.6410 -0.2602  0.2984
  963SOL     OW 2887   1.197   2.037   2.184 -0.4898 -0.3561 -0.0880
  963SOL    HW1 2888   1.300   2.043   2.192  0.7425 -1.4638  2.1631
  963SOL    HW2 2889   1.164   1.961   2.242  3.5017 -2.3941 -0.2848
  964SOL     OW 2890   2.694   2.850   2.832  0.5453  0.4893  1.0973
  964SOL    HW1 2891   2.755   2.899   2.893 -1.9947 -2.8034 -1.5869
  964SOL    HW2 2892   2.727   2.755   2.814  3.2270  0.3105  0.4905
  965SOL     OW 2893   0.622   2.420   0.162  0.8388 -0.2781  0.2639
  965SOL    HW1 2894   0.650   2.474   0.077  0.3715  3.7004 -2.5908
  965SOL    HW2 2895   0.666   2.461   0.246 -1.5619  0.8995 -2.2636
  966SOL     OW 2896   2.912   1.699   2.905  0.3200 -0.4249 -0.5668
  966SOL    HW1 2897   2.895   1.794   2.942 -0.4688  2.9213  1.5604
  966SOL    HW2 2898   2.899   1.695   2.803 -1.4284  1.3077 -3.3290
  967SOL     OW 2899   2.066   3.035   3.034 -1.3416  0.0111 -0.3884
  967SOL    HW1 2900   1.978   2.998   2.999  1.7479  2.9220 -2.8685
  967SOL    HW2 2901   2.133   2.959   3.049  0.3040 -1.1050  1.4400
  968SOL     OW 2902   2.121   2.811   0.459  0.4275  0.8434  0.1364
  968SOL    HW1 2903   2.046   2.795   0.389  1.6680 -1.3865  2.0675
  968SOL    HW2 2904   2.078   2.866   0.532 -0.2336 -1.5162 -0.7142
  969SOL     OW 2905   0.849   1.105   2.326 -0.0001  0.1057 -0.0665
  969SOL    HW1 2906   0.750   1.126   2.325 -0.2013  1.8792  0.5480
  969SOL    HW2 2907   0.888   1.131   2.416 -1.9895 -2.9555 -0.6964
  970SOL     OW 2908   1.676   1.208   1.010  0.4013  0.2824  0.6257
  970SOL    HW1 2909   1.686   1.108   1.007 -2.0797  1.0056  0.9530
  970SOL    HW2 2910   1.628   1.227   1.100  1.1330  0.7206  0.3191
  971SOL     OW 2911   2.264   0.047   1.372 -0.0240 -0.2145  0.5717
  971SOL    HW1 2912   2.212   0.025   1.286 -1.5254  1.3745 -1.6806
  971SOL    HW2 2913   2.337   0.120   1.351 -0.0899  4.4386  1.4831
  972SOL     OW 2914   3.038   2.941   1.770  0.0094  0.3067 -0.2723
  972SOL    HW1 2915   0.011   2.880   1.838 -0.5760 -0.5763 -1.4211
  972SOL    HW2 2916   2.992   2.882   1.700  0.0198  0.0661  1.5540
  973SOL     OW 2917   0.101   0.488   2.561  0.1381 -0.6196  0.3020
  973SOL    HW1 2918   0.072   0.420   2.629 -1.5253  1.4798  0.7661
  973SOL    HW2 2919   0.034   0.492   2.482 -0.7554  0.0672 -1.9869
  974SOL     OW 2920   2.259   1.297   2.160  0.1112 -0.3888  0.2605
  974SOL    HW1 2921   2.357   1.264   2.164  0.8226  1.0342 -0.6593
  974SOL    HW2 2922   2.196   1.217   2.171 -1.0782 -0.7059 -0.1938
  975SOL     OW 2923   0.468   0.272   1.708 -0.0644  0.0864  0.5683
  975SOL    HW1 2924   0.461   0.171   1.688  1.0044 -2.6831  1.0028
  975SOL    HW2 2925   0.523   0.312   1.630 -1.3070  0.3288  1.7595
  976SOL     OW 2926   0.700   2.063   2.222 -0.5644 -0.0678  0.4275
  976SOL    HW1 2927   0.627   2.119   2.176  0.7909 -4.3817 -2.2118
  976SOL    HW2 2928   0.757   2.115   2.291  3.0955 -2.6243  0.9343
  977SOL     OW 2929   0.595   3.060   0.492 -0.0486  0.1017  0.3846
  977SOL    HW1 2930   0.645   0.073   0.473 -1.4070 -0.8163  0.3626
  977SOL    HW2 2931   0.550   3.055   0.583 -1.5057 -0.1953 -1.2535
  978SOL     OW 2932   2.773   1.309   2.098 -0.0617  0.4358  0.4474
  978SOL    HW1 2933   2.863   1.325   2.056 -0.7702 -0.6757  0.0787
  978SOL    HW2 2934   2.779   1.320   2.201  1.7530  1.4642  1.0230
  979SOL     OW 2935   1.870   0.134   1.632 -0.1228  0.1792  0.8902
  979SOL    HW1 2936   1.774   0.141   1.666 -0.3760  1.3096  0.7755
  979SOL    HW2 2937   1.933   0.120   1.709  0.4876 -1.4498 -2.3145
  980SOL     OW 2938   1.728   1.640   1.654  0.0811  0.0002 -0.1312
  980SOL    HW1 2939   1.800   1.578   1.617 -2.3532 -1.7601  3.1000
  980SOL    HW2 2940   1.641   1.588   1.637  1.1512 -2.5047 -1.1380
  981SOL     OW 2941   2.766   0.912   1.249  0.0470 -0.8735  0.2296
  981SOL    HW1 2942   2.735   1.009   1.233  0.6597  0.2702  2.3731
  981SOL    HW2 2943   2.799   0.900   1.346  3.7448 -0.8945  2.5067
  982SOL     OW 2944   0.294   0.034   2.675 -0.1754  0.2719  0.2809
  982SOL    HW1 2945   0.347   3.028   2.712 -0.2535 -1.9727 -0.4583
  982SOL    HW2 2946   0.240   0.019   2.593 -0.5901  2.9459  2.7306
  983SOL     OW 2947   2.814   0.652   2.265 -0.2907 -0.1207 -0.0598
  983SOL    HW1 2948   2.836   0.734   2.317  0.0814 -1.5423  3.0057
  983SOL    HW2 2949   2.807   0.672   2.169  1.1704 -1.3171 -0.3215
  984SOL     OW 2950   1.219   3.016   1.936 -0.5203 -0.4547 -0.6802
  984SOL    HW1 2951   1.320   3.019   1.936  0.7849 -1.6364  0.1468
  984SOL    HW2 2952   1.183   2.923   1.960  0.1088  0.1853 -0.0521
  985SOL     OW 2953   1.823   2.035   2.245  0.2790 -0.4592 -0.2515
  985SOL    HW1 2954   1.869   2.098   2.312  0.0070 -2.3319 -1.6441
  985SOL    HW2 2955   1.817   2.084   2.160 -0.4101 -2.7845  1.1470
  986SOL     OW 2956   2.306   0.328   1.200 -0.3908  0.0110 -0.6939
  986SOL    HW1 2957   2.361   0.253   1.157 -0.5214  0.4460 -0.7392
  986SOL    HW2 2958   2.347   0.421   1.184  1.1277 -1.4036 -0.6776
  987SOL     OW 2959   2.605   1.139   1.254  0.0095  0.2991 -0.3405
  987SOL    HW1 2960   2.576   1.171   1.348 -1.5953  0.8153  2.3807
  987SOL    HW2 2961   2.517   1.156   1.193 -1.5373 -2.1279 -3.2490
  988SOL     OW 2962   2.809   1.110   1.721 -0.1300  0.0708 -0.0529
  988SOL    HW1 2963   2.825   1.078   1.818  0.6767  0.7178 -0.5326
  988SOL    HW2 2964   2.716   1.082   1.695 -2.4491  1.3465 -1.4402
  989SOL     OW 2965   1.075   2.265   0.250 -0.6547  0.3853  0.2719
  989SOL    HW1 2966   1.168   2.302   0.271  0.5316  2.0400  2.0816
  989SOL    HW2 2967   1.078   2.164   0.260 -1.8864  0.3174 -0.4997
  990SOL     OW 2968   1.422   0.621   2.669 -0.6728  0.3089  0.4421
  990SOL    HW1 2969   1.437   0.590   2.569 -0.8643 -4.2443 -1.7838
  990SOL    HW2 2970   1.432   0.723   2.676 -0.5118  0.4813  1.5772
  991SOL     OW 2971   1.246   0.649   0.562 -0.1408  0.4693  0.3284
  991SOL    HW1 2972   1.269   0.639   0.659 -1.0013 -0.4355  2.6831
  991SOL    HW2 2973   1.325   0.639   0.498 -1.0125 -0.1515 -2.7631
  992SOL     OW 2974   2.669   1.901   1.091 -0.0069  0.4449  0.0299
  992SOL    HW1 2975   2.671   1.962   1.007  0.8950  1.8742 -2.1412
  992SOL    HW2 2976   2.674   1.955   1.176  1.1536 -2.8082  1.8636
  993SOL     OW 2977   2.892   0.632   1.093 -0.0848  0.0409 -0.2093
  993SOL    HW1 2978   2.840   0.718   1.108 -5.1915 -1.3554  0.1283
  993SOL    HW2 2979   2.842   0.570   1.031  2.3413  0.2617  1.3640
  994SOL     OW 2980   0.188   1.943   2.439  0.4103  0.3645 -0.3021
  994SOL    HW1 2981   0.169   2.003   2.520  0.6282  2.3280  2.3217
  994SOL    HW2 2982   0.223   2.009   2.372 -3.3096 -0.6240 -0.0625
  995SOL     OW 2983   1.885   0.967   2.842 -0.0558  0.4237 -0.5919
  995SOL    HW1 2984   1.914   0.885   2.897  1.5505 -3.7902 -0.6906
  995SOL    HW2 2985   1.825   0.933   2.763  0.9751 -0.5045  0.5534
  996SOL     OW 2986   2.750   1.294   0.632  0.7855 -0.3387 -0.5544
  996SOL    HW1 2987   2.786   1.201   0.647 -1.4301 -1.4141 -2.1259
  996SOL    HW2 2988   2.653   1.293   0.649 -2.0455  1.9861 -0.6342
  997SOL     OW 2989   1.690   0.941   2.100 -0.7732  0.3529 -0.2885
  997SOL    HW1 2990   1.618   0.873   2.108  0.9799 -0.6385 -1.3867
  997SOL    HW2 2991   1.769   0.903   2.042  0.1229 -1.9876 -0.7103
  998SOL     OW 2992   2.862   1.576   0.241  0.1575 -0.0393 -0.1054
  998SOL    HW1 2993   2.868   1.676   0.228 -2.7558 -0.0592 -1.8366
  998SOL    HW2 2994   2.895   1.550   0.332  1.1402 -1.7829 -2.8793
  999SOL     OW 2995   2.999   2.303   0.148  0.3443  0.1434  0.3897
  999SOL    HW1 2996   3.045   2.216   0.171 -1.8712 -0.1109  0.6876
  999SOL    HW2 2997   2.993   2.363   0.228  0.3118 -1.6298  1.3341
 1000SOL     OW 2998   0.901   0.789   2.689  0.3210  0.2739 -0.2692
 1000SOL    HW1 2999   0.891   0.709   2.755 -0.7556 -2.7290  2.2184
 1000SOL    HW2 3000   0.981   0.776   2.636 -1.8142 -0.7118  2.2415
   3.07620   3.07620   3.07620
