1000 SPC/Fw water molecules t= 461.00000 step= 461000
 3000
    1SOL     OW    1   2.863   2.931   1.522 -0.3485 -0.1931 -0.0764
    1SOL    HW1    2   2.881   2.843   1.467  1.1901  0.0291 -1.6825
    1SOL    HW2    3   2.794   2.984   1.474  2.6636 -2.3124 -1.7827
    2SOL     OW    4   2.735   0.031   3.057 -0.1318  0.6172  0.0564
    2SOL    HW1    5   2.649   0.048   0.029  2.3052  0.8346  0.4768
    2SOL    HW2    6   2.795   3.048   0.049 -1.9674 -1.7427 -0.8458
    3SOL     OW    7   1.281   2.548   0.289  0.5375 -0.3503  0.3472
    3SOL    HW1    8   1.242   2.465   0.333  1.4166 -0.7901 -1.5546
    3SOL    HW2    9   1.348   2.595   0.355  1.3798 -0.2493 -0.4491
    4SOL     OW   10   1.319   2.700   2.376 -0.0105  0.0152  0.7003
    4SOL    HW1   11   1.401   2.728   2.435  0.7525  0.4594  0.3584
    4SOL    HW2   12   1.253   2.635   2.425 -1.2832 -3.2268  2.6304
    5SOL     OW   13   2.151   0.267   2.151  0.2577 -0.0803 -0.4589
    5SOL    HW1   14   2.242   0.259   2.107  0.2377 -1.6635  3.2868
    5SOL    HW2   15   2.113   0.361   2.133  0.2709  2.4601  0.2205
    6SOL     OW   16   2.656   1.731   1.181 -0.0210  0.2640  0.3862
    6SOL    HW1   17   2.657   1.650   1.122  0.6498 -0.8293 -0.0870
    6SOL    HW2   18   2.563   1.748   1.213 -0.4768  2.1907  0.2107
    7SOL     OW   19   1.133   2.109   0.514 -0.2471  0.3656  0.3235
    7SOL    HW1   20   1.065   2.082   0.584 -1.4244  1.8379  0.6598
    7SOL    HW2   21   1.103   2.068   0.426 -2.2257  1.5627  1.5604
    8SOL     OW   22   0.180   0.682   0.404 -0.2334 -0.6680  0.0616
    8SOL    HW1   23   0.268   0.704   0.350  1.6580  1.3754 -1.5800
    8SOL    HW2   24   0.108   0.653   0.336  0.4878 -2.9788  1.1269
    9SOL     OW   25   0.166   2.881   1.594  0.6615 -0.3681  0.5204
    9SOL    HW1   26   0.239   2.812   1.596 -0.6268 -1.9145  1.0499
    9SOL    HW2   27   0.087   2.853   1.654 -1.6229  1.6920 -1.6886
   10SOL     OW   28   1.190   2.367   0.447 -0.2162  0.3888  0.0126
   10SOL    HW1   29   1.197   2.276   0.495 -2.3585  1.0342 -0.0305
   10SOL    HW2   30   1.122   2.425   0.499  1.4601  1.6422  1.8082
   11SOL     OW   31   2.133   0.984   1.359 -0.0554  0.4766 -0.1842
   11SOL    HW1   32   2.149   0.905   1.296 -0.6896 -0.5709 -1.0731
   11SOL    HW2   33   2.047   0.962   1.406  0.3233 -0.6237  1.0321
   12SOL     OW   34   0.422   0.717   2.100 -0.2515 -0.4804 -0.5013
   12SOL    HW1   35   0.497   0.782   2.077  2.5474  1.2582 -3.6093
   12SOL    HW2   36   0.422   0.690   2.200 -1.1662 -2.1671 -0.3767
   13SOL     OW   37   2.103   0.205   0.218  1.0872 -0.1352 -0.0619
   13SOL    HW1   38   2.012   0.196   0.271 -0.0337  0.2259  3.6462
   13SOL    HW2   39   2.101   0.283   0.148 -0.4243 -0.3461  1.3677
   14SOL     OW   40   1.928   2.099   0.101 -0.2100 -0.2861 -0.1639
   14SOL    HW1   41   1.881   2.134   0.019 -0.6902  0.2152  0.0024
   14SOL    HW2   42   1.890   2.011   0.134  2.0639  0.8397 -0.9175
   15SOL     OW   43   0.154   2.924   2.527  0.3721  0.2478  0.1696
   15SOL    HW1   44   0.098   2.883   2.450  0.3774 -1.7584 -1.9174
   15SOL    HW2   45   0.110   3.010   2.555 -1.0967 -5.4462 -1.1502
   16SOL     OW   46   2.983   0.691   1.149  0.3247 -0.1249  0.6125
   16SOL    HW1   47   3.003   0.657   1.050  0.6781 -3.6270 -0.3681
   16SOL    HW2   48   2.918   0.624   1.195  0.4700 -1.5427 -0.2933
   17SOL     OW   49   0.620   0.238   0.928 -0.1645 -0.0685 -0.1771
   17SOL    HW1   50   0.678   0.198   1.001 -2.4006  1.7409 -1.0976
   17SOL    HW2   51   0.616   0.188   0.841 -2.0454 -2.4000 -0.6805
   18SOL     OW   52   3.072   0.142   0.530 -0.7273  0.1547  0.6025
   18SOL    HW1   53   2.998   0.066   0.524 -3.9914 -4.1669 -1.1614
   18SOL    HW2   54   0.054   0.133   0.613 -1.4637  2.3383 -0.6352
   19SOL     OW   55   1.572   1.300   1.155  0.5138 -0.6031 -0.2918
   19SOL    HW1   56   1.475   1.274   1.142  3.0469 -1.1341 -1.5980
   19SOL    HW2   57   1.583   1.381   1.219 -0.5737  1.2176  1.2146
   20SOL     OW   58   2.357   1.870   2.386  0.3319 -0.0828  0.4682
   20SOL    HW1   59   2.450   1.904   2.403  1.5363  1.6859 -1.7453
   20SOL    HW2   60   2.354   1.794   2.319 -3.3880 -2.0622  1.0677
   21SOL     OW   61   1.482   2.977   0.245 -0.2452  0.4714  0.1807
   21SOL    HW1   62   1.529   2.887   0.218 -1.3990  0.3808  1.6293
   21SOL    HW2   63   1.399   3.005   0.195  1.1225 -1.1299 -0.1499
   22SOL     OW   64   2.338   0.929   0.259 -0.3566  0.5328  0.1059
   22SOL    HW1   65   2.398   1.012   0.276  3.4318  1.8031  2.2737
   22SOL    HW2   66   2.349   0.856   0.333  2.1697  0.4494 -0.1955
   23SOL     OW   67   0.941   0.403   2.065 -0.6972 -0.1777 -0.0694
   23SOL    HW1   68   0.947   0.309   2.027 -2.2377  1.7072  1.1571
   23SOL    HW2   69   1.028   0.423   2.119  0.1410 -1.0678 -1.6404
   24SOL     OW   70   2.008   2.390   0.988  0.3471  0.0883 -0.1284
   24SOL    HW1   71   2.094   2.364   0.933  1.8395 -1.2044  0.8235
   24SOL    HW2   72   1.942   2.434   0.924  1.8547 -0.6898  1.5355
   25SOL     OW   73   1.585   0.065   2.832  0.0429 -0.8170 -0.0460
   25SOL    HW1   74   1.629   0.002   2.897  0.0107  1.2233  3.9514
   25SOL    HW2   75   1.623   0.158   2.833 -0.3530 -2.8438  2.2841
   26SOL     OW   76   1.259   2.877   2.643 -0.3103 -0.0490 -0.8690
   26SOL    HW1   77   1.361   2.870   2.642  1.2706 -1.2842 -0.6187
   26SOL    HW2   78   1.220   2.786   2.619 -0.6182 -0.0432  0.4116
   27SOL     OW   79   0.990   0.520   0.991 -0.6565 -0.4368 -0.7900
   27SOL    HW1   80   1.000   0.416   0.986 -1.8040 -2.4797  1.4429
   27SOL    HW2   81   0.950   0.541   1.080 -0.7062  0.4765 -1.8790
   28SOL     OW   82   0.177   1.883   1.043 -0.2498  0.2717  0.3354
   28SOL    HW1   83   0.273   1.854   1.031  0.0183 -3.5921  0.7962
   28SOL    HW2   84   0.150   1.875   1.142 -1.8853 -4.2916 -1.1571
   29SOL     OW   85   2.533   1.051   1.286  0.1147 -0.5870  0.4943
   29SOL    HW1   86   2.507   0.968   1.231  1.8668  0.7591 -2.0529
   29SOL    HW2   87   2.517   1.040   1.385 -2.2351  1.4497  0.6452
   30SOL     OW   88   1.656   2.747   1.353  0.0576 -0.1181 -0.0415
   30SOL    HW1   89   1.682   2.704   1.267  0.8104 -2.0227  0.7110
   30SOL    HW2   90   1.570   2.797   1.333  0.1712 -0.0858  0.9772
   31SOL     OW   91   1.260   2.856   1.154 -0.0583  0.3769  0.3166
   31SOL    HW1   92   1.240   2.867   1.049  0.0910  0.2368 -0.6670
   31SOL    HW2   93   1.290   2.769   1.191 -0.5561  3.2943 -1.1953
   32SOL     OW   94   2.228   1.479   2.035  0.9122  0.3503  0.2201
   32SOL    HW1   95   2.306   1.460   1.972 -0.9898 -1.9957  2.0170
   32SOL    HW2   96   2.151   1.419   2.006  1.0611 -2.9356  1.9240
   33SOL     OW   97   2.154   2.819   2.627  0.6684 -0.0104 -0.3425
   33SOL    HW1   98   2.216   2.817   2.706  0.0123 -0.0119  0.2503
   33SOL    HW2   99   2.195   2.885   2.560  0.4691  1.3784 -0.7700
   34SOL     OW  100   1.981   0.803   0.628  0.0558  0.1665 -0.7518
   34SOL    HW1  101   1.909   0.747   0.587 -1.2474 -1.1278 -1.1716
   34SOL    HW2  102   1.949   0.836   0.720 -0.3658  1.5466  0.0336
   35SOL     OW  103   0.218   1.449   1.767  0.2766  0.0057 -0.3751
   35SOL    HW1  104   0.217   1.490   1.863 -0.6709 -1.1941 -0.3456
   35SOL    HW2  105   0.149   1.493   1.705  0.6362 -1.5542  1.4424
   36SOL     OW  106   2.615   2.503   3.002 -0.1933 -0.0445 -0.3667
   36SOL    HW1  107   2.571   2.464   0.012 -3.0108  0.5095  0.4161
   36SOL    HW2  108   2.542   2.528   2.928 -1.0004  0.9775 -1.1527
   37SOL     OW  109   1.579   2.663   1.784  0.2440 -0.3654 -0.4318
   37SOL    HW1  110   1.648   2.669   1.860  0.2514 -2.3240  0.6700
   37SOL    HW2  111   1.486   2.704   1.817 -2.1917  4.0484  0.8976
   38SOL     OW  112   0.868   1.242   2.384  0.0325 -0.4382 -0.2268
   38SOL    HW1  113   0.920   1.191   2.456  1.1472  0.8498  0.6703
   38SOL    HW2  114   0.791   1.183   2.357  2.2210  0.1914 -1.4372
   39SOL     OW  115   1.854   0.582   1.754  0.7718 -0.3825  0.0330
   39SOL    HW1  116   1.780   0.562   1.822 -2.6324  0.3377  2.2542
   39SOL    HW2  117   1.940   0.534   1.787  2.0582  1.2823  2.7259
   40SOL     OW  118   0.806   2.419   0.719  0.3817 -0.2592 -0.1179
   40SOL    HW1  119   0.773   2.360   0.642 -4.4922  2.2400  0.4510
   40SOL    HW2  120   0.864   2.369   0.784 -1.0058  1.2651  1.3565
   41SOL     OW  121   2.269   2.100   0.931  0.1529  0.3738  0.0591
   41SOL    HW1  122   2.257   2.204   0.920 -2.1626  2.5706  2.4960
   41SOL    HW2  123   2.366   2.079   0.938 -0.0802 -0.4690 -1.6569
   42SOL     OW  124   2.356   0.460   0.449 -0.7469  0.3075  0.1455
   42SOL    HW1  125   2.349   0.483   0.349 -0.2780 -1.5986 -0.2623
   42SOL    HW2  126   2.432   0.394   0.462  1.1968 -2.5326 -2.7504
   43SOL     OW  127   0.655   1.399   2.499 -0.5352 -0.1097  0.3201
   43SOL    HW1  128   0.565   1.345   2.495  0.5591 -0.3092  1.0605
   43SOL    HW2  129   0.729   1.341   2.457 -2.1183 -1.4642  0.6889
   44SOL     OW  130   1.681   2.627   1.104  0.2196  0.4845  0.0249
   44SOL    HW1  131   1.594   2.579   1.079 -3.9010  1.0336 -0.6965
   44SOL    HW2  132   1.751   2.558   1.121 -0.6850  1.9907  1.1781
   45SOL     OW  133   0.496   2.277   2.669  0.2304  0.2365 -0.2559
   45SOL    HW1  134   0.478   2.261   2.770 -0.4899  0.4843  0.2875
   45SOL    HW2  135   0.535   2.367   2.654  0.2265 -0.0539 -0.4677
   46SOL     OW  136   0.609   2.684   2.120  0.1726 -0.0976 -0.0706
   46SOL    HW1  137   0.589   2.636   2.032 -1.2223 -1.4968 -2.0962
   46SOL    HW2  138   0.657   2.621   2.187 -0.7691 -1.4476  0.3116
   47SOL     OW  139   0.404   1.722   0.765  0.3233  0.5989  0.0669
   47SOL    HW1  140   0.444   1.629   0.755  1.1800 -0.1944 -1.6646
   47SOL    HW2  141   0.426   1.765   0.855  0.7125 -0.0341  1.5442
   48SOL     OW  142   0.724   2.802   1.472 -0.3231 -0.0034  0.0838
   48SOL    HW1  143   0.739   2.710   1.519 -2.8210  1.4986  3.3757
   48SOL    HW2  144   0.790   2.874   1.506  0.1835  0.0374 -0.9118
   49SOL     OW  145   0.054   2.963   2.972  0.2559 -0.7041 -0.1340
   49SOL    HW1  146   3.054   2.936   2.903 -1.2246 -1.0058 -1.0487
   49SOL    HW2  147   0.143   2.910   2.968  0.0365 -2.0659  0.0399
   50SOL     OW  148   1.312   0.837   0.375  0.7307 -0.6672 -0.1217
   50SOL    HW1  149   1.230   0.881   0.335  0.2183  1.9716  0.7068
   50SOL    HW2  150   1.381   0.907   0.388 -1.6431 -4.2981 -0.9921
   51SOL     OW  151   1.855   0.157   0.370  0.1496 -0.1840 -0.1051
   51SOL    HW1  152   1.757   0.137   0.363  1.0276  2.8610  2.5882
   51SOL    HW2  153   1.871   0.193   0.464  2.3564  3.4175  1.7279
   52SOL     OW  154   0.226   1.473   1.142  0.3599  0.1551 -0.3513
   52SOL    HW1  155   0.297   1.409   1.110  1.4617 -1.0600 -0.4195
   52SOL    HW2  156   0.188   1.537   1.068 -0.0593 -2.0069  0.4996
   53SOL     OW  157   0.046   1.136   3.072 -0.1438  0.8659 -0.6516
   53SOL    HW1  158   3.022   1.110   0.005 -1.7797  0.3025  1.1006
   53SOL    HW2  159   0.053   1.238   3.063 -1.4924  0.7980  0.6655
   54SOL     OW  160   2.825   2.280   2.958 -0.5576  0.5565  0.1380
   54SOL    HW1  161   2.768   2.196   2.965  1.1414  0.4293  0.2838
   54SOL    HW2  162   2.763   2.363   2.951 -2.5722 -0.9163 -2.5469
   55SOL     OW  163   2.456   2.076   1.210  0.0207  0.2615 -0.7867
   55SOL    HW1  164   2.485   2.174   1.203 -3.0866 -1.9750 -1.0779
   55SOL    HW2  165   2.361   2.081   1.245  1.2743 -1.5606 -1.2028
   56SOL     OW  166   1.861   0.290   1.156  0.1549  0.2884 -0.1418
   56SOL    HW1  167   1.846   0.192   1.136 -1.4461 -0.3828  0.5244
   56SOL    HW2  168   1.816   0.343   1.085 -1.1647 -1.1397 -0.5568
   57SOL     OW  169   2.060   1.927   1.071  0.0100 -0.3113  0.2477
   57SOL    HW1  170   1.979   1.892   1.015  0.6995 -0.4179 -0.9727
   57SOL    HW2  171   2.119   1.988   1.011  0.7901  2.1260 -5.5155
   58SOL     OW  172   2.591   0.344   2.015  0.5407  0.3706  0.2165
   58SOL    HW1  173   2.676   0.347   2.073  1.7002 -0.1541  0.9647
   58SOL    HW2  174   2.548   0.436   2.007  0.7937  0.7424 -0.9008
   59SOL     OW  175   1.469   2.380   1.821 -0.7003 -0.1799 -0.4658
   59SOL    HW1  176   1.380   2.399   1.861  0.4415 -0.3989 -2.7077
   59SOL    HW2  177   1.519   2.466   1.804  2.8304 -0.4079  1.0719
   60SOL     OW  178   0.978   2.350   2.994 -0.0568 -0.5257  0.1129
   60SOL    HW1  179   0.967   2.255   3.030 -2.3191  0.2107  0.2224
   60SOL    HW2  180   0.921   2.419   3.035  1.2771 -0.0241 -2.8496
   61SOL     OW  181   0.648   1.987   0.174 -0.1970 -0.3032 -0.1602
   61SOL    HW1  182   0.743   2.015   0.139 -2.0173  0.1414  0.3834
   61SOL    HW2  183   0.603   1.915   0.123  1.1586  0.1051  1.8347
   62SOL     OW  184   1.345   1.636   1.584 -0.0011 -0.1919 -0.7684
   62SOL    HW1  185   1.352   1.599   1.680  1.2428  0.8377  0.0836
   62SOL    HW2  186   1.444   1.650   1.557  4.3604 -0.9158  0.1103
   63SOL     OW  187   0.971   1.950   0.664  0.1109 -0.4514 -0.1947
   63SOL    HW1  188   0.871   1.973   0.650 -1.8886  2.2014 -0.2909
   63SOL    HW2  189   0.979   1.847   0.667  2.9294 -1.2061 -0.2409
   64SOL     OW  190   1.454   1.539   2.627  0.6374  0.1128 -0.1136
   64SOL    HW1  191   1.532   1.498   2.575 -0.3681 -0.1022  0.2657
   64SOL    HW2  192   1.490   1.587   2.711 -0.5917  2.6254  5.0275
   65SOL     OW  193   1.762   1.840   1.639  0.1871  0.0520 -0.2387
   65SOL    HW1  194   1.767   1.936   1.602  1.6537  0.8775 -0.1065
   65SOL    HW2  195   1.719   1.843   1.732  0.1487 -1.2924 -0.1161
   66SOL     OW  196   2.918   0.941   1.001  0.3722  0.0553 -0.2419
   66SOL    HW1  197   2.972   0.873   1.052  0.9790  0.8271  2.7818
   66SOL    HW2  198   2.947   0.927   0.904  0.4829 -3.1718 -0.0311
   67SOL     OW  199   2.244   2.352   0.883 -0.0207 -0.1400  0.6800
   67SOL    HW1  200   2.340   2.363   0.922 -0.3868  0.9493  0.1779
   67SOL    HW2  201   2.240   2.421   0.810 -0.3373 -0.1315  2.4868
   68SOL     OW  202   2.443   2.640   1.603  0.1385 -0.6916 -0.4285
   68SOL    HW1  203   2.409   2.718   1.546 -0.7121  1.1972 -0.9167
   68SOL    HW2  204   2.390   2.629   1.688  1.6917  2.5676 -0.5364
   69SOL     OW  205   2.414   2.808   0.148 -0.1161 -0.2078  0.3895
   69SOL    HW1  206   2.484   2.786   0.077 -0.4195 -0.3995  1.3167
   69SOL    HW2  207   2.375   2.903   0.134  0.8570 -0.9146 -1.4876
   70SOL     OW  208   0.750   1.514   2.751  0.1827 -0.4365  0.2014
   70SOL    HW1  209   0.797   1.606   2.731 -1.1587  0.8124  0.2319
   70SOL    HW2  210   0.725   1.470   2.662  0.8702 -1.0326 -1.9328
   71SOL     OW  211   0.831   1.436   1.958  0.0274 -0.4451 -0.1205
   71SOL    HW1  212   0.802   1.395   1.871  1.3856  0.6881  1.3958
   71SOL    HW2  213   0.765   1.514   1.973 -0.0524  2.8381 -0.8817
   72SOL     OW  214   2.952   1.126   1.619  0.0361  0.2735  0.6067
   72SOL    HW1  215   2.893   1.193   1.569  0.1712 -0.4148 -0.2043
   72SOL    HW2  216   2.995   1.169   1.701  1.8231 -1.0346  2.3370
   73SOL     OW  217   1.006   2.256   2.326  0.3197  0.3655  0.6480
   73SOL    HW1  218   1.083   2.223   2.266 -1.5587  0.5932  0.6977
   73SOL    HW2  219   1.024   2.344   2.361  0.4781 -1.7481 -0.9000
   74SOL     OW  220   1.474   0.100   1.890  0.8406 -0.3149  0.0548
   74SOL    HW1  221   1.423   0.030   1.945 -2.6743 -0.0877  3.1972
   74SOL    HW2  222   1.571   0.104   1.919 -1.1110  1.3232  0.0273
   75SOL     OW  223   1.155   2.844   0.602  0.2117 -0.5639  0.5001
   75SOL    HW1  224   1.171   2.764   0.666  2.6593  1.2606 -0.2343
   75SOL    HW2  225   1.203   2.927   0.638 -0.6591  0.1633 -0.8674
   76SOL     OW  226   0.480   1.851   2.684 -0.0748 -0.4106 -1.0104
   76SOL    HW1  227   0.570   1.899   2.665  0.6777 -2.4497  3.8704
   76SOL    HW2  228   0.434   1.824   2.596  1.0410  1.2616 -3.6007
   77SOL     OW  229   0.500   2.445   1.321 -0.0619  0.0405 -0.0129
   77SOL    HW1  230   0.462   2.394   1.240 -1.0363  2.4472 -0.1435
   77SOL    HW2  231   0.449   2.529   1.345 -1.4476  2.0667  1.3112
   78SOL     OW  232   2.508   1.125   0.333 -0.2531  0.4792 -0.4693
   78SOL    HW1  233   2.528   1.186   0.253  2.1813  1.3172 -0.0650
   78SOL    HW2  234   2.482   1.182   0.415 -2.0258  0.8958 -0.7182
   79SOL     OW  235   0.514   1.457   2.876  0.1230  0.0061  0.3366
   79SOL    HW1  236   0.525   1.399   2.961  0.1223  0.1071  1.9750
   79SOL    HW2  237   0.600   1.458   2.825  0.3036 -2.2012  0.2688
   80SOL     OW  238   1.992   1.429   1.472 -0.0616 -0.2066 -0.5426
   80SOL    HW1  239   1.958   1.403   1.565 -0.1757 -0.6752 -0.2655
   80SOL    HW2  240   1.929   1.389   1.400  0.5612 -0.8241 -1.7964
   81SOL     OW  241   2.032   0.901   2.491 -0.1659 -0.0065 -0.0408
   81SOL    HW1  242   1.944   0.862   2.531  2.0093 -0.4397  1.9109
   81SOL    HW2  243   2.042   0.886   2.391  2.9089 -0.7290 -1.1177
   82SOL     OW  244   1.862   1.755   1.347  0.7226  0.6687 -0.3012
   82SOL    HW1  245   1.862   1.844   1.391  2.1901 -0.1966 -0.3424
   82SOL    HW2  246   1.929   1.688   1.392  0.6766 -1.2619 -0.2356
   83SOL     OW  247   2.578   2.978   2.872 -0.2436 -0.5248  0.1371
   83SOL    HW1  248   2.655   3.025   2.924  1.1627 -0.2898  0.1701
   83SOL    HW2  249   2.610   2.898   2.819 -0.8855 -1.8707 -0.6659
   84SOL     OW  250   0.682   0.726   0.505  0.5269 -0.5444 -0.1093
   84SOL    HW1  251   0.646   0.777   0.420  0.6251 -0.9452 -2.3365
   84SOL    HW2  252   0.652   0.761   0.596 -0.0798  0.3710 -0.7821
   85SOL     OW  253   2.174   1.717   1.177 -0.5206  0.6047 -0.2583
   85SOL    HW1  254   2.130   1.799   1.134  0.8093 -1.8935  0.3097
   85SOL    HW2  255   2.176   1.639   1.109 -0.7469  1.2204 -0.4883
   86SOL     OW  256   0.699   0.830   1.239  0.0363 -0.1028  0.3023
   86SOL    HW1  257   0.604   0.845   1.205  1.6909  4.6805 -0.2168
   86SOL    HW2  258   0.717   0.903   1.307 -2.5883  0.6582  2.4758
   87SOL     OW  259   2.920   2.299   2.326 -0.0045 -0.3841  0.0374
   87SOL    HW1  260   2.887   2.234   2.254  0.8795  2.3309  1.4930
   87SOL    HW2  261   2.919   2.397   2.292 -1.0187  1.0242  1.0566
   88SOL     OW  262   0.185   2.796   0.367  0.3742  0.1271  0.1988
   88SOL    HW1  263   0.146   2.889   0.350 -0.8435 -2.4515  2.0711
   88SOL    HW2  264   0.277   2.808   0.410  2.1019 -0.5725 -0.5064
   89SOL     OW  265   1.291   3.068   0.698  0.0006  0.6407  0.3451
   89SOL    HW1  266   1.374   0.010   0.637 -0.5798  1.1582 -1.8977
   89SOL    HW2  267   1.238   0.082   0.703  1.2699  1.6001  3.5405
   90SOL     OW  268   2.979   0.964   1.941  0.4852  0.2238  0.0943
   90SOL    HW1  269   2.900   0.968   2.007 -0.5295  1.5702 -0.1688
   90SOL    HW2  270   3.018   0.874   1.925  1.1569  0.6168 -0.8594
   91SOL     OW  271   2.018   2.807   0.804 -0.3279 -0.1234  0.2010
   91SOL    HW1  272   1.927   2.770   0.837 -0.8713 -1.3431 -0.8899
   91SOL    HW2  273   2.075   2.736   0.761 -0.2547 -0.9727  0.5018
   92SOL     OW  274   1.653   1.779   0.628 -0.0435 -0.0495 -0.3929
   92SOL    HW1  275   1.680   1.718   0.553  0.6226  2.6695  3.8687
   92SOL    HW2  276   1.638   1.875   0.598 -1.8684  0.4271  2.3337
   93SOL     OW  277   0.384   1.451   0.564  0.1438 -0.0633 -0.1754
   93SOL    HW1  278   0.375   1.533   0.503 -1.9823  0.9866  0.7849
   93SOL    HW2  279   0.441   1.473   0.647  0.2036  1.5699 -1.9330
   94SOL     OW  280   0.713   2.363   1.498 -0.5107 -0.4106  0.2734
   94SOL    HW1  281   0.813   2.358   1.469  0.8803 -0.3502 -0.2581
   94SOL    HW2  282   0.652   2.412   1.428 -1.3526  4.0067 -0.8746
   95SOL     OW  283   0.204   0.881   0.573 -0.3303 -0.1319  0.0836
   95SOL    HW1  284   0.253   0.873   0.661 -0.7387 -0.3562 -0.9753
   95SOL    HW2  285   0.207   0.789   0.522  1.3523 -2.8155  0.7648
   96SOL     OW  286   0.648   2.694   1.816  0.2097  0.3598 -0.2094
   96SOL    HW1  287   0.587   2.777   1.820  1.7312 -2.1206  1.1327
   96SOL    HW2  288   0.610   2.619   1.757 -1.1007  0.5934 -0.7227
   97SOL     OW  289   2.478   0.929   0.869 -0.0218 -0.0891 -1.0927
   97SOL    HW1  290   2.528   0.892   0.949  2.4084 -0.9078  3.1083
   97SOL    HW2  291   2.382   0.884   0.876 -3.2897 -0.9151  2.0518
   98SOL     OW  292   0.385   1.991   2.123 -0.2424 -0.0634 -0.4726
   98SOL    HW1  293   0.395   1.897   2.081  1.5162  1.6884  1.9636
   98SOL    HW2  294   0.321   2.053   2.072 -1.0104 -0.1119 -2.9924
   99SOL     OW  295   2.951   0.380   1.445  0.3564  0.1741  0.6087
   99SOL    HW1  296   3.032   0.332   1.402  0.7167  1.1087  0.1418
   99SOL    HW2  297   2.971   0.397   1.542  0.0125  0.5430 -0.2698
  100SOL     OW  298   1.880   0.448   2.564  0.2135  0.0917  0.0833
  100SOL    HW1  299   1.972   0.441   2.612 -1.5134 -4.0101 -1.3702
  100SOL    HW2  300   1.862   0.368   2.502  1.4220 -1.1609 -1.1198
  101SOL     OW  301   1.300   3.009   2.017 -0.4046 -0.0447 -0.4002
  101SOL    HW1  302   1.287   3.053   2.108 -0.9800  1.8029  0.7572
  101SOL    HW2  303   1.215   3.010   1.960  1.8689  2.5124 -0.7423
  102SOL     OW  304   0.939   0.664   1.708 -0.0045 -0.8197 -0.1310
  102SOL    HW1  305   0.850   0.634   1.665 -3.8897 -2.7825  0.3218
  102SOL    HW2  306   1.016   0.661   1.640 -0.0040  0.4772 -1.0055
  103SOL     OW  307   0.603   0.916   2.888 -0.1264 -0.1095  0.2491
  103SOL    HW1  308   0.576   1.006   2.847 -0.0542 -0.2106 -0.5805
  103SOL    HW2  309   0.550   0.844   2.838 -0.7460 -1.3673 -2.3293
  104SOL     OW  310   0.527   0.417   2.046  0.3673  0.3790  0.6403
  104SOL    HW1  311   0.559   0.345   1.984  0.6487  0.5969 -1.4898
  104SOL    HW2  312   0.593   0.444   2.118 -0.8860 -0.2178 -0.1091
  105SOL     OW  313   2.721   2.343   1.676  0.2073  0.1361  0.2660
  105SOL    HW1  314   2.709   2.249   1.631  1.0527 -1.2900 -1.8260
  105SOL    HW2  315   2.810   2.387   1.648 -1.2870  0.0652 -1.3341
  106SOL     OW  316   0.900   2.950   0.583 -0.4676 -0.1281 -0.2898
  106SOL    HW1  317   0.995   2.915   0.575 -1.0595 -0.3407 -0.8700
  106SOL    HW2  318   0.839   2.909   0.513 -1.6734  0.7473  0.9819
  107SOL     OW  319   2.840   1.915   1.065 -0.2420 -0.0185 -0.2073
  107SOL    HW1  320   2.851   1.934   0.966 -0.2483 -2.5873  0.2263
  107SOL    HW2  321   2.763   1.854   1.074  2.7133 -0.7041  0.8221
  108SOL     OW  322   0.210   2.273   0.703  0.1182  0.1744  0.4261
  108SOL    HW1  323   0.136   2.286   0.628 -0.0076  1.5172  0.7783
  108SOL    HW2  324   0.172   2.219   0.779 -1.1653  2.2895  1.5509
  109SOL     OW  325   1.730   2.934   0.647 -0.8249  0.0855  0.2566
  109SOL    HW1  326   1.789   2.899   0.572  0.5487 -1.5072 -1.3618
  109SOL    HW2  327   1.778   2.986   0.721 -1.4505 -1.4175 -2.9088
  110SOL     OW  328   1.830   2.049   0.540  0.1176  0.0137 -0.6108
  110SOL    HW1  329   1.781   2.106   0.473  1.7047 -0.8086  2.0434
  110SOL    HW2  330   1.822   2.081   0.635 -2.0157 -1.7289  2.7783
  111SOL     OW  331   2.023   2.792   1.960 -0.3631  0.5260 -0.0835
  111SOL    HW1  332   2.089   2.719   1.982  3.7011 -2.7087  0.7660
  111SOL    HW2  333   1.931   2.761   1.992 -0.2059 -0.0184  0.8652
  112SOL     OW  334   1.757   2.337   2.464 -0.0794  0.2164 -0.1341
  112SOL    HW1  335   1.708   2.382   2.389 -1.1407 -1.0726 -0.1599
  112SOL    HW2  336   1.809   2.407   2.516 -1.8769 -1.0124  1.2444
  113SOL     OW  337   2.433   2.075   1.993  0.0688 -0.1087 -0.0564
  113SOL    HW1  338   2.347   2.027   2.012  1.5138  0.9355  0.3856
  113SOL    HW2  339   2.442   2.105   1.892  1.3067  3.3972  0.1260
  114SOL     OW  340   0.103   1.025   1.197  0.4594  0.0080  0.8012
  114SOL    HW1  341   0.056   0.961   1.261 -0.2477 -0.8170  0.2482
  114SOL    HW2  342   0.066   1.118   1.201 -0.1484  0.9520  1.2671
  115SOL     OW  343   2.583   0.611   2.736  0.3531  0.2474  0.6212
  115SOL    HW1  344   2.636   0.696   2.738 -1.6907 -2.0453  1.6849
  115SOL    HW2  345   2.642   0.538   2.698 -1.1702  1.7844 -0.6312
  116SOL     OW  346   2.794   0.416   2.692 -0.1584  0.6918 -0.1551
  116SOL    HW1  347   2.768   0.325   2.730  1.0503 -2.0003  0.0840
  116SOL    HW2  348   2.784   0.409   2.590  0.2444 -1.0530 -1.1275
  117SOL     OW  349   2.635   2.727   0.725  0.5473  0.3781 -0.4182
  117SOL    HW1  350   2.721   2.759   0.676  1.7113 -1.3388  2.0372
  117SOL    HW2  351   2.637   2.766   0.817  0.1405  1.0649 -0.9991
  118SOL     OW  352   0.787   2.144   2.482 -0.5962  0.3057  0.4122
  118SOL    HW1  353   0.751   2.074   2.411  1.4100 -1.7824  1.1495
  118SOL    HW2  354   0.832   2.224   2.430 -1.0107  1.5940 -1.0930
  119SOL     OW  355   0.590   2.686   0.520 -0.4158 -0.1751  0.3706
  119SOL    HW1  356   0.661   2.739   0.470 -3.7610 -1.9445  1.3423
  119SOL    HW2  357   0.595   2.588   0.487 -2.2566 -2.0361 -1.9463
  120SOL     OW  358   1.386   0.627   0.764  0.7227  0.1119 -0.1233
  120SOL    HW1  359   1.448   0.547   0.762  1.6633 -0.6457 -3.1465
  120SOL    HW2  360   1.431   0.716   0.751  1.6066 -1.2982 -1.8099
  121SOL     OW  361   1.803   0.491   0.884 -0.0735  0.0398 -0.0327
  121SOL    HW1  362   1.810   0.588   0.918  2.8082  3.9355  3.0985
  121SOL    HW2  363   1.867   0.470   0.807 -1.2548 -1.5740  2.3048
  122SOL     OW  364   1.928   1.538   2.387 -0.4036  0.2640 -0.3673
  122SOL    HW1  365   1.933   1.637   2.391  2.0886 -1.4842  0.6141
  122SOL    HW2  366   1.942   1.497   2.297  1.3025 -1.5244  4.1792
  123SOL     OW  367   0.721   1.090   1.047 -0.3333  0.2057  0.3709
  123SOL    HW1  368   0.792   1.033   0.997  0.8534 -1.4757 -2.2965
  123SOL    HW2  369   0.633   1.081   0.992  0.1490 -1.0527 -0.7078
  124SOL     OW  370   0.595   0.294   2.896 -0.3101  0.2470 -0.1195
  124SOL    HW1  371   0.582   0.243   2.985  0.4510  0.3839  1.2787
  124SOL    HW2  372   0.655   0.254   2.827 -0.7143  0.0018  1.4753
  125SOL     OW  373   0.745   3.013   3.052 -0.4270 -0.6379  0.0066
  125SOL    HW1  374   0.835   2.994   0.026  2.3759  0.3641  1.1078
  125SOL    HW2  375   0.757   3.013   2.947  2.3045 -0.2035 -0.8244
  126SOL     OW  376   0.798   1.186   0.192  0.5175  0.5834  0.1830
  126SOL    HW1  377   0.784   1.099   0.142  0.0737 -0.1475 -1.2587
  126SOL    HW2  378   0.721   1.202   0.253  1.1371  1.0547 -0.3177
  127SOL     OW  379   1.093   2.501   0.987 -0.1022 -0.2489  0.3993
  127SOL    HW1  380   1.064   2.544   1.077 -0.3841  2.3639 -2.0783
  127SOL    HW2  381   1.149   2.575   0.938  0.3052  1.9558 -2.0610
  128SOL     OW  382   1.232   1.735   0.138  0.3027  0.0744  0.4089
  128SOL    HW1  383   1.270   1.734   0.231 -2.7198 -1.0096 -1.7678
  128SOL    HW2  384   1.134   1.756   0.126 -0.1697 -1.4838  0.6398
  129SOL     OW  385   1.937   1.649   1.761  0.8217  0.0394  0.7448
  129SOL    HW1  386   1.933   1.546   1.761  1.9709 -3.7725  1.9510
  129SOL    HW2  387   1.855   1.685   1.712 -0.4926 -0.6200 -2.2199
  130SOL     OW  388   2.171   1.763   1.652 -0.7271  0.1923 -0.1067
  130SOL    HW1  389   2.084   1.745   1.705 -1.5503 -0.6445  2.4197
  130SOL    HW2  390   2.175   1.705   1.569  0.3767  0.4761  0.7295
  131SOL     OW  391   0.878   2.390   2.023  0.0816 -0.3664  0.0327
  131SOL    HW1  392   0.938   2.311   2.025 -0.6172  1.2857 -1.0336
  131SOL    HW2  393   0.796   2.359   1.970  0.8770  0.6016  0.1521
  132SOL     OW  394   2.505   1.532   0.645  0.7439 -0.3683  0.0620
  132SOL    HW1  395   2.591   1.525   0.697 -0.5097 -0.0520 -1.1336
  132SOL    HW2  396   2.504   1.613   0.575 -0.5364  0.8472 -1.6353
  133SOL     OW  397   0.823   1.730   1.897  0.5419  0.4113 -0.0973
  133SOL    HW1  398   0.766   1.707   1.814  1.5549 -0.1105 -1.8552
  133SOL    HW2  399   0.844   1.832   1.894  2.5143 -0.2152  0.9093
  134SOL     OW  400   2.991   1.587   0.757  0.2475  0.0410  0.2003
  134SOL    HW1  401   3.020   1.519   0.683 -1.0464 -1.5078 -0.0375
  134SOL    HW2  402   3.069   1.601   0.822  4.5385 -0.1559  0.9187
  135SOL     OW  403   1.886   1.234   2.880 -0.0598  0.0157  0.5002
  135SOL    HW1  404   1.964   1.276   2.930  0.9755  0.3621  0.9493
  135SOL    HW2  405   1.916   1.220   2.782  0.3313 -0.7379 -1.9903
  136SOL     OW  406   0.034   1.285   1.225  0.5865  0.4400 -0.0636
  136SOL    HW1  407   3.036   1.353   1.227  1.7103  0.3886  1.1001
  136SOL    HW2  408   0.106   1.335   1.173 -0.8191 -1.3482  2.2296
  137SOL     OW  409   2.262   1.383   0.324 -0.4596  0.1561 -0.0215
  137SOL    HW1  410   2.205   1.302   0.298  1.1534  0.3321 -0.4280
  137SOL    HW2  411   2.321   1.355   0.404 -1.7210 -2.0986  2.3355
  138SOL     OW  412   2.691   0.586   0.697  0.7795 -0.1221 -0.1016
  138SOL    HW1  413   2.598   0.589   0.737  1.7108  0.5696  2.5075
  138SOL    HW2  414   2.715   0.494   0.654  0.7213 -0.8070  0.0399
  139SOL     OW  415   2.358   2.807   2.832  0.3440 -0.5878 -0.6905
  139SOL    HW1  416   2.429   2.880   2.850  1.9052 -1.1222  2.4499
  139SOL    HW2  417   2.403   2.719   2.844 -0.7301  2.9099  1.8812
  140SOL     OW  418   0.593   1.495   1.200 -0.3241 -0.0107 -0.6396
  140SOL    HW1  419   0.533   1.416   1.171 -0.6483 -0.0394 -2.4412
  140SOL    HW2  420   0.538   1.578   1.212  0.6306  0.0131 -1.6603
  141SOL     OW  421   0.966   1.277   0.764 -0.3526 -0.6461  0.7233
  141SOL    HW1  422   1.037   1.337   0.810 -0.7397  1.2062  0.8042
  141SOL    HW2  423   1.009   1.185   0.747  2.3322  0.3064 -2.7923
  142SOL     OW  424   1.572   0.830   1.036  0.4855 -0.5108  0.0114
  142SOL    HW1  425   1.544   0.765   1.108 -0.4502 -0.2207 -0.0128
  142SOL    HW2  426   1.598   0.916   1.075 -0.1720 -1.8265 -2.3394
  143SOL     OW  427   0.230   0.717   2.924 -0.5161  0.6997  0.1383
  143SOL    HW1  428   0.176   0.670   2.853  1.5341  3.3804  2.4183
  143SOL    HW2  429   0.296   0.650   2.969  1.0399 -1.8251 -0.8571
  144SOL     OW  430   2.490   0.088   0.139  0.1574 -0.1945  0.1499
  144SOL    HW1  431   2.404   0.043   0.119 -0.4425  1.0958  0.8278
  144SOL    HW2  432   2.515   0.070   0.234 -3.0436 -1.3269  1.4057
  145SOL     OW  433   2.192   0.194   2.535 -0.3480 -0.4931  0.4335
  145SOL    HW1  434   2.219   0.251   2.614 -0.3601  3.4569 -0.7088
  145SOL    HW2  435   2.095   0.215   2.502 -1.9608 -1.2588 -2.8078
  146SOL     OW  436   2.891   2.815   0.621 -0.2313 -0.1961 -0.0162
  146SOL    HW1  437   2.895   2.915   0.591 -1.3079 -0.3547 -3.5662
  146SOL    HW2  438   2.965   2.762   0.581 -1.6943 -1.4678 -0.3025
  147SOL     OW  439   1.397   0.955   2.909 -0.3108  0.0443  0.4319
  147SOL    HW1  440   1.335   0.873   2.918 -1.1669 -1.0057 -1.8274
  147SOL    HW2  441   1.342   1.039   2.881  2.2863  0.4166  0.8959
  148SOL     OW  442   1.076   0.147   0.153  0.1226 -0.1916  0.1719
  148SOL    HW1  443   1.108   0.059   0.110 -0.8788 -1.1328 -0.2736
  148SOL    HW2  444   1.083   0.222   0.087  0.0898 -0.3072  0.3249
  149SOL     OW  445   1.295   0.830   2.541 -0.1090  0.1873  0.3280
  149SOL    HW1  446   1.384   0.829   2.593 -1.0499  2.8074  0.6695
  149SOL    HW2  447   1.301   0.917   2.479 -0.0101  2.4177 -1.9248
  150SOL     OW  448   1.342   0.069   2.950 -0.3975  0.1417  0.2144
  150SOL    HW1  449   1.421   0.068   2.887  2.0972  2.0275  0.5377
  150SOL    HW2  450   1.354   0.143   3.021 -0.9090  2.6646  0.7051
  151SOL     OW  451   0.543   1.289   0.024 -0.4251 -0.5306  0.1165
  151SOL    HW1  452   0.554   1.189   0.051 -0.9717 -3.2475 -2.5714
  151SOL    HW2  453   0.589   1.359   0.083 -1.7829  1.4533  2.5326
  152SOL     OW  454   0.768   0.377   1.388 -0.2193  0.3093  0.2306
  152SOL    HW1  455   0.675   0.417   1.386  0.4325 -3.2246 -1.6477
  152SOL    HW2  456   0.777   0.327   1.479  0.7837 -0.5908  0.0938
  153SOL     OW  457   2.731   2.928   1.883 -0.0459 -0.1515 -0.2933
  153SOL    HW1  458   2.635   2.954   1.894  1.8359 -1.9927 -1.3615
  153SOL    HW2  459   2.794   3.007   1.868 -1.6159  1.2723 -0.1227
  154SOL     OW  460   2.452   2.944   1.916  0.4124  0.1232  0.1047
  154SOL    HW1  461   2.405   2.912   2.000  1.3277 -0.6640  1.4730
  154SOL    HW2  462   2.386   2.997   1.856  0.4668  2.0697 -1.0490
  155SOL     OW  463   0.116   1.023   0.364 -0.2584  0.2953 -0.4027
  155SOL    HW1  464   0.021   0.992   0.347  0.5903 -0.4101  0.9657
  155SOL    HW2  465   0.151   0.975   0.452 -1.5853 -1.0375  0.8094
  156SOL     OW  466   2.065   1.034   0.349  0.2802 -0.2007  0.6527
  156SOL    HW1  467   2.118   0.971   0.411 -1.7165 -2.2283  0.5880
  156SOL    HW2  468   2.115   1.110   0.293  2.6948  2.4479 -0.9498
  157SOL     OW  469   0.663   2.639   2.855 -0.0324  0.5062 -0.0772
  157SOL    HW1  470   0.716   2.630   2.942 -0.5887 -0.9177  3.6074
  157SOL    HW2  471   0.565   2.631   2.876  1.4867  1.4829 -1.7782
  158SOL     OW  472   1.871   0.910   1.468  0.7787 -0.2404 -0.1858
  158SOL    HW1  473   1.878   0.909   1.569 -0.5756  0.7963 -1.3336
  158SOL    HW2  474   1.812   0.992   1.438  0.0407  1.3058  2.2956
  159SOL     OW  475   3.061   0.093   0.111  0.1912  0.5235  0.2665
  159SOL    HW1  476   0.027   0.040   0.033  2.6861  0.2694  1.6640
  159SOL    HW2  477   0.017   0.190   0.102 -0.9207  2.3672 -2.0844
  160SOL     OW  478   2.511   2.086   1.732 -0.0607  0.0801 -0.1075
  160SOL    HW1  479   2.588   2.107   1.671 -1.5805  2.2214  1.4839
  160SOL    HW2  480   2.482   1.987   1.721 -0.2609  3.7906 -0.3163
  161SOL     OW  481   0.083   0.340   0.109  0.1312  0.7216  0.1842
  161SOL    HW1  482   0.134   0.397   0.048 -0.8968 -1.3896  0.2761
  161SOL    HW2  483   3.060   0.371   0.121  1.2287 -1.3999 -3.0133
  162SOL     OW  484   0.684   0.514   1.660  0.0231  0.3224 -0.3186
  162SOL    HW1  485   0.606   0.536   1.721 -1.3971 -0.0138 -1.0337
  162SOL    HW2  486   0.715   0.415   1.663  0.6558  0.7791  1.8438
  163SOL     OW  487   2.561   0.041   2.390 -0.0335 -0.0322  0.4417
  163SOL    HW1  488   2.510   0.121   2.424 -0.9634 -3.6393 -0.9189
  163SOL    HW2  489   2.569   0.028   2.286  2.2275  2.3780 -1.8525
  164SOL     OW  490   2.246   1.636   0.200 -0.1239 -0.0191  0.0391
  164SOL    HW1  491   2.158   1.625   0.153  3.6300  0.0071  1.3379
  164SOL    HW2  492   2.265   1.550   0.257  0.2869 -4.9275  2.5590
  165SOL     OW  493   0.178   2.843   0.807 -0.1032 -0.3720 -0.3584
  165SOL    HW1  494   0.201   2.894   0.719  1.7623  1.8826  0.2553
  165SOL    HW2  495   0.226   2.754   0.814 -0.6741 -0.4308 -0.6268
  166SOL     OW  496   2.735   0.458   3.046 -0.5437  0.1747 -0.3501
  166SOL    HW1  497   2.669   0.435   0.048  2.1403  1.2595 -2.2560
  166SOL    HW2  498   2.736   0.390   2.971 -2.3592  1.7142  0.2677
  167SOL     OW  499   2.082   0.414   0.430 -0.7053  0.0801  0.0189
  167SOL    HW1  500   2.178   0.436   0.472  1.7015  2.1167  0.9056
  167SOL    HW2  501   2.092   0.366   0.342  0.2363  0.7788  1.7089
  168SOL     OW  502   1.359   0.366   2.424 -0.3517  0.1012 -0.7154
  168SOL    HW1  503   1.289   0.348   2.349  1.7253  1.5494 -0.7047
  168SOL    HW2  504   1.431   0.429   2.391  1.0700 -0.3247 -0.6987
  169SOL     OW  505   0.438   1.821   1.045  0.1078  0.1427  0.1771
  169SOL    HW1  506   0.461   1.802   1.143 -2.1331 -1.8689  0.4600
  169SOL    HW2  507   0.492   1.895   1.005  1.0558 -2.1341  1.2393
  170SOL     OW  508   0.222   0.048   1.496 -0.9524 -0.3295 -0.4458
  170SOL    HW1  509   0.286   0.085   1.571  1.1689 -0.6450  1.1504
  170SOL    HW2  510   0.201   3.024   1.515 -0.0456  2.9464  0.0989
  171SOL     OW  511   2.401   1.308   2.216 -0.3997  0.0082  0.1733
  171SOL    HW1  512   2.320   1.359   2.185 -1.4141 -0.9070  0.5311
  171SOL    HW2  513   2.476   1.351   2.166 -1.5406  1.4262  0.3576
  172SOL     OW  514   1.177   1.941   1.072 -0.2410  0.4084  0.5855
  172SOL    HW1  515   1.149   1.957   1.169  0.2917 -0.6539 -0.7870
  172SOL    HW2  516   1.273   1.902   1.064 -0.1321  2.6464 -2.2081
  173SOL     OW  517   2.082   2.310   2.977  0.1764  0.3847 -0.1143
  173SOL    HW1  518   2.029   2.389   3.006  2.8078  0.2843 -2.2206
  173SOL    HW2  519   2.027   2.221   2.976 -1.9387 -5.3548  0.5860
  174SOL     OW  520   1.888   0.899   0.187  0.4953 -0.4420 -0.7906
  174SOL    HW1  521   1.873   0.955   0.103 -0.4351  1.1268 -0.4024
  174SOL    HW2  522   1.952   0.947   0.251  3.4679  0.8716 -0.6993
  175SOL     OW  523   0.700   1.687   1.660  0.0219  0.3127 -0.6585
  175SOL    HW1  524   0.710   1.611   1.593  0.3870 -0.8377  1.2985
  175SOL    HW2  525   0.610   1.735   1.648 -1.9201 -0.9643  0.6196
  176SOL     OW  526   0.563   0.082   0.457 -0.1307 -0.3874  0.3384
  176SOL    HW1  527   0.601   0.163   0.405 -0.9001  1.6447  1.6064
  176SOL    HW2  528   0.515   0.115   0.540 -0.2346 -1.2279  0.1056
  177SOL     OW  529   3.030   1.449   0.181 -0.2709 -0.4446  0.3794
  177SOL    HW1  530   3.045   1.444   0.073  0.3527  0.5269 -1.9665
  177SOL    HW2  531   0.020   1.396   0.237 -0.5893  0.0513 -0.6077
  178SOL     OW  532   2.895   2.353   1.943  0.3148  0.3888 -0.1898
  178SOL    HW1  533   2.824   2.395   1.883  0.8798  0.8026 -0.8836
  178SOL    HW2  534   2.913   2.402   2.032  0.2629 -0.2479 -0.1195
  179SOL     OW  535   2.089   0.143   2.837  0.2318 -0.4803 -0.5968
  179SOL    HW1  536   2.157   0.214   2.862  0.3052 -0.5352  0.2312
  179SOL    HW2  537   2.000   0.181   2.855  1.6810  0.2826  1.7734
  180SOL     OW  538   2.419   0.552   0.779  0.3418 -0.0478 -0.2821
  180SOL    HW1  539   2.418   0.492   0.700  2.6926  1.6135  1.5103
  180SOL    HW2  540   2.328   0.546   0.827  2.0205 -3.2863 -0.1762
  181SOL     OW  541   2.893   0.130   2.448 -0.3023  0.3623 -0.0934
  181SOL    HW1  542   2.971   0.176   2.398  1.0831 -0.2970 -1.2617
  181SOL    HW2  543   2.857   0.056   2.396 -1.5542 -0.8775  3.0124
  182SOL     OW  544   2.522   2.326   2.351  0.3850 -0.5305  0.3102
  182SOL    HW1  545   2.577   2.396   2.394 -1.2287 -4.2506  1.0264
  182SOL    HW2  546   2.544   2.329   2.250 -0.6092  0.3270 -1.1163
  183SOL     OW  547   2.523   1.044   1.553 -0.2106 -0.0714  0.2058
  183SOL    HW1  548   2.572   1.101   1.627 -0.3541 -0.0556  2.1374
  183SOL    HW2  549   2.428   1.066   1.556  0.8857  1.8234  0.8855
  184SOL     OW  550   2.898   1.448   1.130 -0.5310  0.1962 -0.1433
  184SOL    HW1  551   2.932   1.543   1.123 -1.7952  1.3128  0.4398
  184SOL    HW2  552   2.925   1.388   1.053  1.4319 -0.9103  0.4708
  185SOL     OW  553   0.220   3.019   1.047  0.3276  0.0498  0.3738
  185SOL    HW1  554   0.219   2.952   0.968 -1.8973 -0.7700 -0.3658
  185SOL    HW2  555   0.315   3.006   1.088 -0.7977 -2.9561 -2.2858
  186SOL     OW  556   2.235   2.353   2.420  0.0627 -0.3126 -0.0805
  186SOL    HW1  557   2.203   2.447   2.453  1.6390  2.1030  0.5640
  186SOL    HW2  558   2.337   2.333   2.436  1.9933  0.9076  0.4709
  187SOL     OW  559   0.285   1.206   0.659 -0.0275  0.4115 -0.3917
  187SOL    HW1  560   0.293   1.288   0.599 -1.7322 -0.3415 -0.6796
  187SOL    HW2  561   0.208   1.227   0.722 -0.2230  3.0024 -0.6374
  188SOL     OW  562   1.620   1.916   2.971  0.7923  0.1772  0.2201
  188SOL    HW1  563   1.697   1.980   2.955  1.2222  2.3870  1.3721
  188SOL    HW2  564   1.592   1.930   3.070 -0.2376 -1.7655 -0.3542
  189SOL     OW  565   0.087   1.585   2.839  0.4220 -0.0042 -0.1062
  189SOL    HW1  566   0.027   1.588   2.759  0.4056 -0.9150 -0.8818
  189SOL    HW2  567   0.108   1.677   2.873 -1.1669 -2.0385 -1.0092
  190SOL     OW  568   2.313   0.635   2.625  0.4673 -0.3386 -0.1562
  190SOL    HW1  569   2.290   0.729   2.644  2.0748 -2.6903 -0.5881
  190SOL    HW2  570   2.415   0.619   2.637  0.6588 -0.7295  0.1504
  191SOL     OW  571   0.898   1.048   2.125 -0.0915  0.4450  0.5785
  191SOL    HW1  572   0.885   0.987   2.043 -1.0012  0.5180 -0.8389
  191SOL    HW2  573   0.817   1.039   2.188 -0.3163  0.7606  1.1907
  192SOL     OW  574   1.691   1.071   2.008  0.0883  0.4713  0.1538
  192SOL    HW1  575   1.657   1.088   2.107 -0.0580  1.7513 -0.1114
  192SOL    HW2  576   1.640   0.996   1.960 -1.2028  0.7006 -0.8086
  193SOL     OW  577   1.248   2.876   0.882 -0.1422  0.8765  1.0305
  193SOL    HW1  578   1.253   2.785   0.828  1.4005 -3.7903  0.0600
  193SOL    HW2  579   1.273   2.954   0.826 -1.0580  2.6348  1.2334
  194SOL     OW  580   1.417   1.449   1.793 -0.0245  0.1471 -0.9173
  194SOL    HW1  581   1.397   1.361   1.841  2.7743  0.1896 -0.9927
  194SOL    HW2  582   1.506   1.481   1.828 -1.0614  1.2342 -0.7963
  195SOL     OW  583   1.849   0.217   0.635 -0.0447  0.6490  0.1831
  195SOL    HW1  584   1.910   0.294   0.663  1.9530  0.4186  2.5039
  195SOL    HW2  585   1.878   0.136   0.690  1.1905 -0.8644 -1.0257
  196SOL     OW  586   0.989   1.357   2.168  0.3884  0.6854 -0.4560
  196SOL    HW1  587   0.928   1.399   2.099 -0.1388  0.2961  4.7964
  196SOL    HW2  588   0.927   1.310   2.238 -1.2907 -3.0428  0.6152
  197SOL     OW  589   0.638   0.338   2.393 -0.2732  0.0892 -0.1302
  197SOL    HW1  590   0.578   0.394   2.453  1.2718 -0.1164 -1.3048
  197SOL    HW2  591   0.595   0.250   2.373  1.4276  0.5227 -1.3408
  198SOL     OW  592   2.789   1.057   1.238  0.6584 -0.4277  0.1546
  198SOL    HW1  593   2.690   1.049   1.248  2.6151  0.2455 -1.1655
  198SOL    HW2  594   2.813   1.006   1.151 -0.1186 -0.7723 -2.1609
  199SOL     OW  595   0.581   2.093   1.272  0.7948 -0.0196  0.4157
  199SOL    HW1  596   0.653   2.130   1.210  0.3771 -0.1734  2.9255
  199SOL    HW2  597   0.491   2.139   1.257 -1.8723  0.4517 -0.3056
  200SOL     OW  598   2.652   2.044   2.672 -0.0604 -0.8372  0.0195
  200SOL    HW1  599   2.753   2.060   2.683  1.1335 -0.3144 -0.5355
  200SOL    HW2  600   2.620   1.994   2.752  0.5671 -1.2374 -1.4485
  201SOL     OW  601   0.910   2.347   1.273 -0.3533 -0.4995 -0.2342
  201SOL    HW1  602   0.996   2.291   1.254 -0.4582  0.5999 -0.1799
  201SOL    HW2  603   0.829   2.292   1.251 -2.5207  1.3609  0.8487
  202SOL     OW  604   0.747   2.287   0.143 -0.2826 -0.2864  0.3682
  202SOL    HW1  605   0.812   2.314   0.215 -1.4578  1.0523 -2.7591
  202SOL    HW2  606   0.786   2.212   0.088 -3.0219 -0.2339  0.2919
  203SOL     OW  607   1.921   0.194   2.409  0.0271 -0.1475 -0.3051
  203SOL    HW1  608   1.941   0.168   2.309  1.2169  0.2582 -1.4560
  203SOL    HW2  609   1.904   0.106   2.465 -1.5323 -1.9810 -0.1262
  204SOL     OW  610   0.534   1.376   1.850 -0.2011  0.8112 -0.0297
  204SOL    HW1  611   0.432   1.372   1.833  0.7600 -0.6787 -0.7557
  204SOL    HW2  612   0.587   1.385   1.765 -1.8659  0.9383  1.8299
  205SOL     OW  613   2.338   1.366   2.509  0.0708 -0.5184  0.5175
  205SOL    HW1  614   2.347   1.358   2.407  1.4644  0.9463  0.5738
  205SOL    HW2  615   2.242   1.389   2.533 -0.2914  0.3664  2.1157
  206SOL     OW  616   2.939   2.095   2.555 -0.5639  0.4401 -0.3722
  206SOL    HW1  617   2.926   2.141   2.466 -0.5044  3.7658 -2.0781
  206SOL    HW2  618   3.036   2.064   2.565 -0.6865  0.1319 -1.0434
  207SOL     OW  619   0.479   2.913   1.796  0.2340 -0.0808  0.2517
  207SOL    HW1  620   0.391   2.912   1.852  0.5510  2.1394  0.5355
  207SOL    HW2  621   0.469   2.868   1.704 -2.1622  0.4674 -2.2857
  208SOL     OW  622   0.042   2.499   1.303  0.5191 -0.3702  0.9230
  208SOL    HW1  623   0.101   2.429   1.352 -0.7364 -0.7503 -0.9161
  208SOL    HW2  624   0.076   2.524   1.210  0.4007 -2.0852 -0.4047
  209SOL     OW  625   1.066   2.762   2.267 -0.4791 -0.6137 -0.0843
  209SOL    HW1  626   1.160   2.789   2.300 -0.1506  0.1592  0.8554
  209SOL    HW2  627   1.015   2.717   2.342 -0.7449  0.3000 -0.2746
  210SOL     OW  628   2.995   1.191   2.098  0.0771 -0.1847  0.2931
  210SOL    HW1  629   3.010   1.209   2.200  0.8365  1.8071  0.1806
  210SOL    HW2  630   3.045   1.111   2.061 -1.6204  0.6250 -0.2898
  211SOL     OW  631   1.363   2.770   1.897 -0.0084 -0.3242  0.0549
  211SOL    HW1  632   1.280   2.754   1.835 -2.7196 -0.2545  0.2960
  211SOL    HW2  633   1.368   2.866   1.938 -0.2157  3.1295 -0.6609
  212SOL     OW  634   1.718   2.499   1.614  0.1651 -0.1482  0.3257
  212SOL    HW1  635   1.662   2.557   1.679 -3.3402 -3.2378 -0.3655
  212SOL    HW2  636   1.769   2.557   1.548  0.3563 -0.1666  0.6274
  213SOL     OW  637   2.403   0.676   1.582 -0.5421  0.3709 -0.2126
  213SOL    HW1  638   2.351   0.643   1.503  0.4739  0.1252  0.0962
  213SOL    HW2  639   2.492   0.716   1.553 -0.9863 -0.0231  1.2768
  214SOL     OW  640   0.717   2.208   1.039 -0.5709 -0.3205  0.3334
  214SOL    HW1  641   0.805   2.241   0.997  2.5131  0.4797  0.9864
  214SOL    HW2  642   0.636   2.246   0.991  1.2373 -3.6101  3.4067
  215SOL     OW  643   2.397   1.872   0.632  0.0910 -0.5207 -0.5520
  215SOL    HW1  644   2.480   1.819   0.607  0.3660  2.1094 -0.6148
  215SOL    HW2  645   2.389   1.966   0.585  0.5002  1.2772 -1.8581
  216SOL     OW  646   0.184   0.807   1.795 -0.0215 -0.3610 -0.8849
  216SOL    HW1  647   0.177   0.871   1.872 -1.5955 -1.1183 -2.5273
  216SOL    HW2  648   0.184   0.718   1.833  0.9724 -0.0302 -3.2162
  217SOL     OW  649   2.306   0.248   1.301 -0.0146 -0.1209 -0.0135
  217SOL    HW1  650   2.404   0.222   1.291 -1.5775 -2.5122  0.8970
  217SOL    HW2  651   2.255   0.238   1.212  1.1001 -3.8817 -0.4987
  218SOL     OW  652   1.644   2.212   1.159 -0.1474 -0.0551  0.3464
  218SOL    HW1  653   1.691   2.293   1.195  0.8475 -1.8539 -3.4227
  218SOL    HW2  654   1.600   2.167   1.237 -1.1372 -3.3542 -0.7470
  219SOL     OW  655   1.619   2.385   3.070 -0.1061  0.2225 -0.0940
  219SOL    HW1  656   1.518   2.370   0.017  0.7089  2.1230  2.3919
  219SOL    HW2  657   1.675   2.434   0.067 -3.0476 -1.0560 -0.3937
  220SOL     OW  658   1.515   2.781   3.061  0.0361  0.1969  0.4837
  220SOL    HW1  659   1.418   2.747   3.036 -2.4102 -1.2195  2.3521
  220SOL    HW2  660   1.533   2.754   0.084 -2.7011 -1.9251 -1.3466
  221SOL     OW  661   0.082   2.587   1.802  0.1140  0.1311  0.1046
  221SOL    HW1  662   0.038   2.675   1.779 -1.6946  2.0708  1.4515
  221SOL    HW2  663   0.147   2.592   1.881  1.4212  3.9655  1.6423
  222SOL     OW  664   1.846   2.409   1.229  0.4179  0.1148  0.6565
  222SOL    HW1  665   1.883   2.365   1.319  0.1924  0.2033  1.4934
  222SOL    HW2  666   1.925   2.419   1.164  2.0595 -2.3497 -3.5369
  223SOL     OW  667   1.099   2.428   1.692 -0.3561  0.2636 -0.6748
  223SOL    HW1  668   1.098   2.410   1.788  1.8029  3.0989 -1.0458
  223SOL    HW2  669   1.116   2.335   1.645 -2.1389 -1.1770  0.3592
  224SOL     OW  670   2.640   2.317   1.219 -0.1015 -0.2015  0.1795
  224SOL    HW1  671   2.736   2.304   1.193 -2.4618  1.0507 -0.6123
  224SOL    HW2  672   2.633   2.321   1.321  0.8870  1.3912  0.2873
  225SOL     OW  673   2.387   2.116   0.519 -0.2005 -0.3161 -0.3069
  225SOL    HW1  674   2.297   2.139   0.479  0.6677 -1.6344  3.7572
  225SOL    HW2  675   2.459   2.172   0.469  2.6776 -0.4037 -2.5832
  226SOL     OW  676   1.462   2.615   0.492 -0.1882  0.1237 -0.1044
  226SOL    HW1  677   1.509   2.523   0.508  0.3742  0.6108  0.0715
  226SOL    HW2  678   1.471   2.671   0.578 -2.0946  1.6630  2.4344
  227SOL     OW  679   2.073   1.037   0.887 -0.4071  0.2523  0.0078
  227SOL    HW1  680   1.976   1.047   0.860  1.0325  0.4985  2.2522
  227SOL    HW2  681   2.136   1.044   0.808  1.2668  0.7419 -0.3976
  228SOL     OW  682   1.483   0.344   2.847  0.1779 -0.1254  0.3324
  228SOL    HW1  683   1.462   0.324   2.942  0.1180 -2.9059 -2.6350
  228SOL    HW2  684   1.538   0.427   2.844  0.4780 -0.5186  2.8405
  229SOL     OW  685   0.032   1.248   2.700 -0.0280 -0.0216 -0.1428
  229SOL    HW1  686   0.056   1.207   2.792  0.7226 -3.1477  1.7342
  229SOL    HW2  687   3.067   1.179   2.635  0.9289 -0.9331  0.4475
  230SOL     OW  688   0.426   1.294   1.104 -0.5919  0.2547 -0.3518
  230SOL    HW1  689   0.419   1.225   1.177 -1.0122 -0.0712 -1.6574
  230SOL    HW2  690   0.465   1.249   1.020 -0.2891 -2.2362 -2.1477
  231SOL     OW  691   2.512   0.299   2.511  0.2106 -0.4903  0.1967
  231SOL    HW1  692   2.444   0.340   2.441 -2.7168 -0.1265 -3.1921
  231SOL    HW2  693   2.608   0.317   2.482  1.5699 -2.4057 -0.1903
  232SOL     OW  694   2.914   2.093   0.377  0.4891 -0.1985 -0.0966
  232SOL    HW1  695   2.970   2.008   0.358 -0.0812 -1.0854  0.4941
  232SOL    HW2  696   2.832   2.083   0.439 -0.5084 -0.2544  1.7359
  233SOL     OW  697   1.551   2.392   2.247  0.0493 -0.3946  0.3995
  233SOL    HW1  698   1.509   2.463   2.184 -0.7498  2.0844 -1.8394
  233SOL    HW2  699   1.618   2.341   2.186 -1.1338  0.6929  0.6092
  234SOL     OW  700   1.185   1.558   1.370 -0.3249  0.2163  0.0916
  234SOL    HW1  701   1.224   1.572   1.467 -1.6870 -1.9202  1.3445
  234SOL    HW2  702   1.261   1.566   1.301  1.1998  0.6540 -0.4175
  235SOL     OW  703   1.012   1.861   1.651 -1.1757 -0.1926 -0.3198
  235SOL    HW1  704   0.973   1.845   1.558 -1.3193  0.0845 -3.8167
  235SOL    HW2  705   1.053   1.775   1.694 -0.1361 -0.8260 -0.7646
  236SOL     OW  706   1.147   2.994   2.856 -0.4909  0.6380  0.2429
  236SOL    HW1  707   1.216   3.059   2.898  0.1679  1.0613  0.5157
  236SOL    HW2  708   1.191   2.959   2.771 -0.0460  2.1793  2.8372
  237SOL     OW  709   1.117   0.138   1.446  0.4818 -0.5186 -0.3765
  237SOL    HW1  710   1.085   0.095   1.361 -2.1317  0.3093 -0.3112
  237SOL    HW2  711   1.180   0.216   1.424  1.2495  2.1247  1.0417
  238SOL     OW  712   1.097   0.986   0.226 -0.4856 -0.3963  0.1778
  238SOL    HW1  713   1.122   1.010   0.129 -1.0284  0.5163 -1.2520
  238SOL    HW2  714   1.021   0.919   0.224  0.0880  0.8360  1.1946
  239SOL     OW  715   2.693   0.866   2.800  0.6136  0.3700  0.1609
  239SOL    HW1  716   2.707   0.963   2.787  0.1945  0.3749 -1.6577
  239SOL    HW2  717   2.683   0.842   2.901 -3.0971 -0.0984 -0.6225
  240SOL     OW  718   2.567   2.143   0.745  0.5173  0.0707  0.4691
  240SOL    HW1  719   2.548   2.085   0.827 -0.0422  0.1836  3.6080
  240SOL    HW2  720   2.483   2.156   0.689  0.0374 -2.8582 -0.8222
  241SOL     OW  721   1.013   1.227   1.129  0.2670  0.2678  0.0512
  241SOL    HW1  722   0.999   1.181   1.219  1.6818 -0.8693 -0.5721
  241SOL    HW2  723   0.922   1.230   1.084 -0.4799 -1.5422  0.3440
  242SOL     OW  724   0.671   0.512   1.006  1.0502  0.1224  0.3530
  242SOL    HW1  725   0.717   0.573   0.944  2.9326  2.1225 -2.5370
  242SOL    HW2  726   0.695   0.418   0.980  0.8884 -0.5688 -1.1969
  243SOL     OW  727   0.198   0.412   1.181  0.1770 -0.2827 -0.3956
  243SOL    HW1  728   0.149   0.499   1.169  0.9492  1.5802  1.6130
  243SOL    HW2  729   0.299   0.429   1.180  0.2718  0.0526  0.5136
  244SOL     OW  730   1.138   0.219   0.403  0.0135  0.5950 -0.2352
  244SOL    HW1  731   1.112   0.194   0.307  0.6474  3.0438  1.2780
  244SOL    HW2  732   1.070   0.283   0.447  0.6821  2.9056  0.8771
  245SOL     OW  733   1.917   0.618   0.409  0.0530  0.3980 -0.3307
  245SOL    HW1  734   1.972   0.536   0.432 -1.6546  1.3048 -0.5360
  245SOL    HW2  735   1.924   0.643   0.311 -1.3250 -0.3687 -0.7932
  246SOL     OW  736   0.346   0.334   1.489 -0.0235 -0.2239 -0.1069
  246SOL    HW1  737   0.274   0.351   1.561  1.6617 -1.2465 -1.8053
  246SOL    HW2  738   0.393   0.418   1.463 -0.8298 -1.8679 -0.4593
  247SOL     OW  739   1.075   3.009   1.886  0.2951  0.3497 -0.2288
  247SOL    HW1  740   1.116   3.012   1.794 -0.3702  1.4182 -2.2348
  247SOL    HW2  741   1.011   2.928   1.894  1.5108 -0.7631  0.6654
  248SOL     OW  742   0.615   1.622   2.062 -0.5301 -0.5298 -0.0397
  248SOL    HW1  743   0.681   1.673   2.010 -3.6574  0.5116  2.8700
  248SOL    HW2  744   0.619   1.636   2.161  0.2453 -1.2341 -0.4071
  249SOL     OW  745   0.349   2.700   0.042  0.4556  0.4416  0.2755
  249SOL    HW1  746   0.360   2.625   3.047  0.1669 -3.3243 -0.9616
  249SOL    HW2  747   0.309   2.654   0.123  1.0474 -0.8861 -0.6872
  250SOL     OW  748   0.991   0.143   2.021 -0.8019  0.8029  0.3053
  250SOL    HW1  749   0.895   0.111   2.049 -2.9793 -3.2659 -0.2376
  250SOL    HW2  750   1.015   0.076   1.949 -3.2571 -1.1398 -1.2864
  251SOL     OW  751   2.664   1.973   1.319 -0.5196 -0.2917  0.0237
  251SOL    HW1  752   2.666   1.881   1.272  0.4276 -1.7211  1.3820
  251SOL    HW2  753   2.594   2.042   1.292  2.0422  1.7630 -2.0776
  252SOL     OW  754   1.806   0.086   1.711 -0.5477  0.3812  0.1905
  252SOL    HW1  755   1.781   0.104   1.807  0.0738  0.6346 -1.2522
  252SOL    HW2  756   1.853   3.067   1.706  0.8405 -1.7974  0.3343
  253SOL     OW  757   2.114   1.849   2.517 -0.7796 -0.4278  0.4021
  253SOL    HW1  758   2.049   1.843   2.444  3.2246 -0.5642  3.0769
  253SOL    HW2  759   2.215   1.844   2.496 -3.7340  0.8601  2.6506
  254SOL     OW  760   0.729   1.476   1.440 -0.0160 -0.2589 -0.2154
  254SOL    HW1  761   0.827   1.452   1.422 -0.4800 -2.4628  0.1451
  254SOL    HW2  762   0.681   1.487   1.349 -2.0479  0.9412  1.2954
  255SOL     OW  763   0.667   0.007   1.681 -0.1505 -0.4118  0.3793
  255SOL    HW1  764   0.754   3.034   1.665 -0.4990  2.8173  1.4008
  255SOL    HW2  765   0.588   3.017   1.703 -0.7395  0.4069  1.7453
  256SOL     OW  766   0.225   2.540   0.748 -0.2852  0.0579  0.6422
  256SOL    HW1  767   0.228   2.442   0.722  0.0852  2.0624  0.4665
  256SOL    HW2  768   0.287   2.553   0.828 -0.3075 -3.2614  0.3241
  257SOL     OW  769   0.735   2.494   2.252 -0.6902 -0.5418  0.5214
  257SOL    HW1  770   0.770   2.444   2.170  0.4822 -0.0355  0.3995
  257SOL    HW2  771   0.682   2.426   2.309 -1.4559  1.7834 -2.7186
  258SOL     OW  772   1.540   1.830   1.817 -0.6876 -0.3939  0.3109
  258SOL    HW1  773   1.494   1.788   1.898  1.3049  1.4492 -0.8234
  258SOL    HW2  774   1.486   1.905   1.777  1.2306  1.2609  1.1525
  259SOL     OW  775   1.163   1.038   2.156 -0.0959  0.8509  0.1575
  259SOL    HW1  776   1.063   1.021   2.155  0.2038  2.3712 -1.3463
  259SOL    HW2  777   1.189   1.108   2.086 -0.2235  0.9211 -1.9270
  260SOL     OW  778   2.443   0.669   2.253 -0.4816 -0.1189 -0.0448
  260SOL    HW1  779   2.366   0.606   2.271  2.3332  1.1127  1.3996
  260SOL    HW2  780   2.434   0.753   2.305 -1.9018 -1.3038  0.3066
  261SOL     OW  781   0.741   1.326   0.882  0.1342  0.0477 -0.1282
  261SOL    HW1  782   0.711   1.255   0.945  0.3382  1.3708  1.4586
  261SOL    HW2  783   0.834   1.308   0.841  0.5399  1.9187 -3.4107
  262SOL     OW  784   2.532   2.305   2.728  0.3708  0.2042 -0.1175
  262SOL    HW1  785   2.590   2.232   2.691  1.4697  0.2990  0.4916
  262SOL    HW2  786   2.433   2.269   2.745 -2.5742 -2.1804 -0.0257
  263SOL     OW  787   0.795   2.749   1.066  0.3151 -0.4739 -0.2435
  263SOL    HW1  788   0.819   2.818   0.994 -2.0177  1.1576 -0.7103
  263SOL    HW2  789   0.878   2.710   1.105  0.6675  1.5805 -1.6278
  264SOL     OW  790   0.240   1.951   0.377  0.3013 -0.3637 -0.0379
  264SOL    HW1  791   0.163   1.907   0.425  0.7349  1.1087 -1.7417
  264SOL    HW2  792   0.200   1.992   0.293  1.0900 -1.5491  0.1714
  265SOL     OW  793   1.540   1.188   2.532  0.0837  0.5122  0.3508
  265SOL    HW1  794   1.545   1.151   2.434 -0.2392 -0.3115 -0.9046
  265SOL    HW2  795   1.445   1.219   2.553  1.5571  0.9119  0.3304
  266SOL     OW  796   1.162   1.913   1.940  0.2634  0.3427  0.1494
  266SOL    HW1  797   1.171   1.812   1.938  1.1462  0.6899 -0.4758
  266SOL    HW2  798   1.215   1.948   1.860 -0.8130  3.5172 -0.3832
  267SOL     OW  799   2.365   1.109   2.645  0.7923 -0.1553 -0.0719
  267SOL    HW1  800   2.404   1.129   2.738 -0.4613  1.2519  1.2135
  267SOL    HW2  801   2.350   1.193   2.594 -1.1359 -2.8362 -0.8535
  268SOL     OW  802   0.915   1.108   2.809 -0.2544  0.1753 -0.3955
  268SOL    HW1  803   0.818   1.145   2.816  1.4085 -1.1664 -1.4383
  268SOL    HW2  804   0.931   1.052   2.895 -0.5712 -1.6443  1.0321
  269SOL     OW  805   3.068   1.695   2.053  0.2556  0.2176  0.5422
  269SOL    HW1  806   3.059   1.693   1.952  1.5767  2.7396 -0.1656
  269SOL    HW2  807   2.980   1.692   2.104 -0.2766  0.1246 -0.3195
  270SOL     OW  808   0.049   2.098   3.003  0.5290 -0.1448  0.1177
  270SOL    HW1  809   0.015   2.195   3.009 -1.6758  0.5643  2.8704
  270SOL    HW2  810   0.068   2.070   2.909 -3.9268  1.9596 -2.8544
  271SOL     OW  811   0.189   0.222   0.344 -0.4442  0.1016  0.1342
  271SOL    HW1  812   0.117   0.227   0.417  0.0132  4.4571 -1.3132
  271SOL    HW2  813   0.150   0.236   0.254 -3.3551  3.5815 -0.8811
  272SOL     OW  814   0.056   3.022   0.331  0.1127  0.9734  0.0748
  272SOL    HW1  815   0.047   3.050   0.235 -0.1895 -0.0960  0.9948
  272SOL    HW2  816   0.077   0.029   0.384 -1.6902  0.1420 -2.8299
  273SOL     OW  817   0.224   2.887   1.947  0.6717 -0.2919 -0.4326
  273SOL    HW1  818   0.184   2.895   2.040  0.3804 -3.2405  1.0196
  273SOL    HW2  819   0.181   2.948   1.879 -0.2540  0.5321  2.2308
  274SOL     OW  820   0.161   0.697   1.277 -0.5497 -0.0271  0.3414
  274SOL    HW1  821   0.071   0.716   1.229 -2.1602 -0.2331 -3.7565
  274SOL    HW2  822   0.159   0.695   1.381  0.6582  0.4584  1.4015
  275SOL     OW  823   0.856   1.474   1.088  0.4953 -0.1868  0.4490
  275SOL    HW1  824   0.827   1.440   0.999  1.1571  3.8107  2.6688
  275SOL    HW2  825   0.773   1.497   1.143  0.2150  0.3300  2.0944
  276SOL     OW  826   0.675   1.111   1.950  0.1821  0.2569  0.2821
  276SOL    HW1  827   0.675   1.165   1.867  1.9518 -1.0136  2.4193
  276SOL    HW2  828   0.700   1.174   2.023 -1.0797  0.8609 -0.6888
  277SOL     OW  829   1.330   2.002   1.730 -0.3226 -0.2090  0.0209
  277SOL    HW1  830   1.280   2.086   1.701 -1.2504  2.2529 -0.5510
  277SOL    HW2  831   1.347   1.949   1.641 -0.7270 -2.5776 -3.5368
  278SOL     OW  832   2.218   2.576   2.054 -0.4895 -0.3331 -0.0614
  278SOL    HW1  833   2.194   2.629   2.140 -0.1317  1.3767  0.0910
  278SOL    HW2  834   2.196   2.478   2.073  2.2864 -1.2874  1.0441
  279SOL     OW  835   1.176   1.797   2.843  0.6906  0.2498  0.2497
  279SOL    HW1  836   1.166   1.696   2.832 -0.9671 -0.2202 -0.6877
  279SOL    HW2  837   1.276   1.829   2.843  3.1563  1.2248  1.8276
  280SOL     OW  838   1.385   0.575   0.396 -0.1341 -0.1706 -0.0196
  280SOL    HW1  839   1.451   0.562   0.469  1.9690  1.6759  0.1674
  280SOL    HW2  840   1.334   0.667   0.400 -2.6707 -0.0024  0.5225
  281SOL     OW  841   0.532   0.514   1.441  0.1054 -0.0626  0.3584
  281SOL    HW1  842   0.505   0.609   1.428  1.0718 -1.3813  0.9455
  281SOL    HW2  843   0.598   0.515   1.518 -0.2253 -0.3067 -0.0138
  282SOL     OW  844   0.060   2.710   0.589 -0.1737  0.0681  0.0725
  282SOL    HW1  845   0.104   2.752   0.506 -0.7974 -0.8619  0.6930
  282SOL    HW2  846   0.128   2.656   0.645  0.5050 -2.6645  0.3154
  283SOL     OW  847   1.352   1.903   1.489 -0.3808  0.3126  0.7766
  283SOL    HW1  848   1.267   1.920   1.432  0.4242 -1.6131  0.2988
  283SOL    HW2  849   1.351   1.804   1.516  1.3460  1.5189  0.0968
  284SOL     OW  850   2.484   2.800   1.249 -0.5139 -0.1947 -0.2672
  284SOL    HW1  851   2.578   2.756   1.261  2.4745 -0.8430 -1.7233
  284SOL    HW2  852   2.430   2.730   1.203 -1.5375  1.4738  1.8644
  285SOL     OW  853   0.511   2.324   0.911  0.2129  0.1236  0.9665
  285SOL    HW1  854   0.558   2.416   0.918 -1.1270  0.5996 -1.6816
  285SOL    HW2  855   0.511   2.288   0.815 -1.7389 -0.0663 -1.2257
  286SOL     OW  856   0.346   2.667   1.282 -0.5699  0.1715 -0.2535
  286SOL    HW1  857   0.412   2.743   1.259 -2.3163  1.5014 -1.6485
  286SOL    HW2  858   0.253   2.706   1.272  2.5417 -1.1184 -0.5960
  287SOL     OW  859   0.485   1.141   0.890 -0.2077  0.6861 -0.2019
  287SOL    HW1  860   0.541   1.153   0.809 -1.3894 -0.0810  3.5967
  287SOL    HW2  861   0.394   1.106   0.870  0.4402  0.0626  0.8346
  288SOL     OW  862   1.182   1.912   2.570 -0.1858  0.0834 -0.1176
  288SOL    HW1  863   1.185   1.891   2.671  1.5328  0.4929 -1.4647
  288SOL    HW2  864   1.273   1.952   2.544  0.3873  1.6111  1.3497
  289SOL     OW  865   2.439   1.533   0.020 -0.0012 -0.2140 -0.4663
  289SOL    HW1  866   2.397   1.576   0.108  0.2420  0.9124  2.0563
  289SOL    HW2  867   2.430   1.591   3.010 -0.8730  1.2243 -0.2472
  290SOL     OW  868   1.108   1.452   0.930  0.5109  0.6061 -0.0431
  290SOL    HW1  869   1.194   1.485   0.968 -0.1867  0.8335  2.9293
  290SOL    HW2  870   1.056   1.421   1.010  1.2692 -1.1438  1.2804
  291SOL     OW  871   1.097   1.019   3.028  0.0279 -0.3321  0.2714
  291SOL    HW1  872   1.144   1.079   2.959  2.2389 -2.0366 -1.4185
  291SOL    HW2  873   1.072   0.925   2.987  1.3127 -0.8222  0.0128
  292SOL     OW  874   1.568   1.938   0.192 -0.3347  0.7630 -0.4718
  292SOL    HW1  875   1.586   1.960   0.296 -0.7024  2.6920  1.7895
  292SOL    HW2  876   1.490   1.877   0.177 -0.3816  2.4096 -2.1432
  293SOL     OW  877   1.545   2.895   0.979  0.2039 -0.4232  0.0365
  293SOL    HW1  878   1.529   2.995   0.983  1.6091 -0.8151  2.5091
  293SOL    HW2  879   1.496   2.860   1.060  1.7524  0.0693  0.3328
  294SOL     OW  880   2.212   0.896   0.556  0.1991  0.1502 -0.3083
  294SOL    HW1  881   2.124   0.861   0.594 -0.1026 -0.5048  3.6720
  294SOL    HW2  882   2.261   0.819   0.514  0.3657 -2.2216 -2.6620
  295SOL     OW  883   2.008   1.717   2.716 -0.1701  0.0553  0.1740
  295SOL    HW1  884   2.055   1.780   2.649 -2.0400  0.0606  2.9366
  295SOL    HW2  885   1.914   1.692   2.688  0.7337  0.0467 -0.6594
  296SOL     OW  886   1.464   1.000   1.230 -0.1972 -0.2087 -0.0602
  296SOL    HW1  887   1.413   1.076   1.179 -3.2946  2.5452  0.0389
  296SOL    HW2  888   1.397   0.956   1.287  2.0514  0.5345 -1.6273
  297SOL     OW  889   0.127   0.802   2.307  0.4431  0.2305 -0.2816
  297SOL    HW1  890   0.215   0.758   2.334  0.4497  0.4922 -1.5851
  297SOL    HW2  891   0.064   0.791   2.391 -0.9292  0.3724  4.5500
  298SOL     OW  892   1.546   2.085   1.394 -0.0285 -0.4231  0.3162
  298SOL    HW1  893   1.466   2.023   1.406 -2.7389 -1.4718 -0.7058
  298SOL    HW2  894   1.573   2.138   1.475  0.8985 -3.2118 -3.1859
  299SOL     OW  895   1.033   0.489   2.609  0.1327  0.5449 -0.0085
  299SOL    HW1  896   1.113   0.434   2.638  1.2220 -0.0620  0.2843
  299SOL    HW2  897   0.979   0.418   2.556  2.7999 -2.4629  1.0223
  300SOL     OW  898   2.197   1.727   0.498  0.0681  0.1780  0.1317
  300SOL    HW1  899   2.231   1.701   0.406 -0.2142 -2.3828 -0.0856
  300SOL    HW2  900   2.251   1.791   0.552  0.2097 -3.1742 -2.1352
  301SOL     OW  901   2.126   0.454   2.685  0.3643 -0.3056  0.3395
  301SOL    HW1  902   2.186   0.533   2.657  0.5992 -0.3058 -0.8744
  301SOL    HW2  903   2.171   0.402   2.760  2.5018 -3.2475 -1.9571
  302SOL     OW  904   2.569   2.046   2.412  0.0216  0.7609 -0.4423
  302SOL    HW1  905   2.596   2.044   2.511 -2.4045  2.1355  2.2192
  302SOL    HW2  906   2.546   2.139   2.386  1.0705  1.7672 -2.6302
  303SOL     OW  907   0.320   2.556   2.254  0.3589  0.0731  0.6084
  303SOL    HW1  908   0.391   2.598   2.312  1.4768  0.1938 -2.0065
  303SOL    HW2  909   0.294   2.467   2.294  0.9257  2.2581 -2.0962
  304SOL     OW  910   2.995   1.532   1.409  0.1408 -0.1360  0.1451
  304SOL    HW1  911   2.957   1.436   1.404 -0.3290 -3.1835  2.1009
  304SOL    HW2  912   2.999   1.574   1.316  2.0361 -1.4704 -0.1913
  305SOL     OW  913   0.247   0.365   2.121 -0.0421  0.0630 -0.1405
  305SOL    HW1  914   0.349   0.359   2.110  0.2835  1.7955  1.7459
  305SOL    HW2  915   0.214   0.272   2.110  1.2461  1.1573 -1.3908
  306SOL     OW  916   1.234   1.595   0.632 -0.7121 -0.1587 -0.0093
  306SOL    HW1  917   1.230   1.494   0.632  1.7327  3.5466 -1.2322
  306SOL    HW2  918   1.243   1.627   0.536  0.4973  0.7179 -0.3352
  307SOL     OW  919   2.971   2.842   0.876 -0.1122 -0.1004  0.1731
  307SOL    HW1  920   0.001   2.837   0.861 -1.8071 -1.8036  0.8687
  307SOL    HW2  921   2.917   2.842   0.792  0.8287  0.2383  1.6617
  308SOL     OW  922   2.988   1.243   2.357  0.1899 -0.1117  0.0838
  308SOL    HW1  923   3.026   1.340   2.365  3.9911  2.0696  1.4150
  308SOL    HW2  924   3.049   1.180   2.413  0.2812  1.1897  0.8591
  309SOL     OW  925   2.915   1.799   2.493  0.6418 -0.0701  0.8316
  309SOL    HW1  926   2.878   1.746   2.573  0.8888 -0.8040 -0.3326
  309SOL    HW2  927   2.914   1.899   2.503  1.5048  0.3499 -1.8714
  310SOL     OW  928   2.340   0.534   0.188  0.0607 -0.4164 -0.1075
  310SOL    HW1  929   2.355   0.634   0.175 -2.2099  0.4776 -2.4954
  310SOL    HW2  930   2.242   0.508   0.158  0.9429  0.0145 -4.8864
  311SOL     OW  931   1.844   0.993   3.012  0.1124  0.5330  0.2132
  311SOL    HW1  932   1.838   1.084   2.964 -1.3940  0.1895  0.1258
  311SOL    HW2  933   1.898   0.932   2.951  3.1451  2.8059  2.2514
  312SOL     OW  934   1.217   1.578   2.007 -0.2015 -0.6340 -0.5889
  312SOL    HW1  935   1.300   1.641   2.016  1.4295 -0.3125 -2.1241
  312SOL    HW2  936   1.222   1.497   2.072 -0.0721 -1.2245  0.5067
  313SOL     OW  937   3.048   0.641   0.239 -0.0161  0.1041  0.2472
  313SOL    HW1  938   3.068   0.691   0.150 -1.9759  3.3332 -1.9626
  313SOL    HW2  939   2.996   0.555   0.237  0.2198 -2.4250  2.4790
  314SOL     OW  940   0.306   1.753   1.486  0.3332  0.5679 -0.5277
  314SOL    HW1  941   0.370   1.797   1.552 -0.0670 -1.5817 -2.7543
  314SOL    HW2  942   0.286   1.659   1.516  0.8848 -1.4255  0.9455
  315SOL     OW  943   0.993   1.379   1.462  0.4637 -0.6214 -0.3809
  315SOL    HW1  944   1.011   1.400   1.562 -1.4837 -2.8830 -1.4318
  315SOL    HW2  945   1.059   1.428   1.404 -0.6097 -1.5152 -0.4957
  316SOL     OW  946   0.476   2.235   0.649  0.6435  0.4144 -0.1758
  316SOL    HW1  947   0.379   2.256   0.645  1.8754  1.7835 -0.9745
  316SOL    HW2  948   0.500   2.152   0.593  0.2892  0.3903 -1.9218
  317SOL     OW  949   2.560   0.211   1.241  0.4564 -0.2914 -0.7784
  317SOL    HW1  950   2.606   0.258   1.317  0.5200 -0.3408 -1.6610
  317SOL    HW2  951   2.560   0.273   1.159 -0.7622 -0.3288  1.1942
  318SOL     OW  952   1.264   3.010   0.095 -0.5326  0.1706  0.2743
  318SOL    HW1  953   1.304   3.014   0.001 -0.7978  3.0209 -0.5420
  318SOL    HW2  954   1.173   2.961   0.107 -1.2023  0.7601  0.0728
  319SOL     OW  955   1.530   0.680   2.803 -0.1765 -0.3509 -0.3514
  319SOL    HW1  956   1.566   0.769   2.770  2.5589  1.7406 -1.3066
  319SOL    HW2  957   1.442   0.686   2.852  0.6494 -1.3832  2.8520
  320SOL     OW  958   2.902   1.937   1.736 -0.7160  0.5023 -0.7114
  320SOL    HW1  959   2.823   1.877   1.772 -2.1846 -1.7272  0.5937
  320SOL    HW2  960   2.985   1.883   1.752 -3.3679  1.3555  0.5858
  321SOL     OW  961   0.033   2.483   2.846 -0.1816 -0.2160  0.3906
  321SOL    HW1  962   0.011   2.481   2.946  0.1118 -0.5648  1.3963
  321SOL    HW2  963   0.022   2.389   2.812 -0.0993 -2.2573 -0.1694
  322SOL     OW  964   2.761   0.941   2.101  0.5497 -0.4905 -0.5853
  322SOL    HW1  965   2.782   0.935   2.198 -0.0669 -2.2394 -1.7613
  322SOL    HW2  966   2.736   0.856   2.055  1.8550  0.2195 -0.7085
  323SOL     OW  967   1.965   1.345   0.452  0.0539  0.2905 -1.0669
  323SOL    HW1  968   1.925   1.343   0.358  2.1403  1.9687 -2.0365
  323SOL    HW2  969   1.963   1.253   0.489  0.0015  3.2417  2.2279
  324SOL     OW  970   0.092   0.234   1.347  0.0622 -0.0736 -0.0497
  324SOL    HW1  971   0.163   0.189   1.406 -1.3469  2.5747  0.1395
  324SOL    HW2  972   0.130   0.303   1.283 -0.8737 -0.2340 -0.2890
  325SOL     OW  973   2.673   0.001   1.394  0.4020  0.0242  0.0658
  325SOL    HW1  974   2.687   0.005   1.293 -2.1955  0.7037 -0.1575
  325SOL    HW2  975   2.668   0.093   1.431  0.8504 -0.8962 -1.1126
  326SOL     OW  976   1.599   2.728   0.239 -0.3779 -0.2529 -0.7410
  326SOL    HW1  977   1.538   2.705   0.317 -0.7021  2.7017  0.8086
  326SOL    HW2  978   1.668   2.650   0.227  1.6747  0.0354 -0.9479
  327SOL     OW  979   1.840   2.258   0.296 -0.2996 -0.0958  0.5496
  327SOL    HW1  980   1.738   2.250   0.301  0.0630 -0.3288  3.2216
  327SOL    HW2  981   1.881   2.228   0.206 -1.0130  0.6302 -0.9305
  328SOL     OW  982   3.065   2.146   1.814  0.0539  0.2761 -0.2102
  328SOL    HW1  983   2.990   2.076   1.797 -0.9309 -2.4189 -0.3202
  328SOL    HW2  984   3.015   2.226   1.857 -1.7512  0.4005  1.2820
  329SOL     OW  985   2.900   2.183   1.100 -0.4589 -0.3218  0.3734
  329SOL    HW1  986   2.896   2.214   1.197  0.2327 -1.0437  2.1640
  329SOL    HW2  987   2.869   2.081   1.099 -1.8541 -0.4039  3.0222
  330SOL     OW  988   2.221   0.892   2.686  0.3812  0.1427 -0.5546
  330SOL    HW1  989   2.167   0.879   2.601  1.2349 -1.4603  0.7986
  330SOL    HW2  990   2.284   0.973   2.674 -2.4071  1.0718 -0.4382
  331SOL     OW  991   2.296   1.421   0.800 -0.0966  0.1487 -0.1224
  331SOL    HW1  992   2.227   1.437   0.728 -0.2863 -0.8367 -0.0277
  331SOL    HW2  993   2.387   1.464   0.767 -3.1930  1.5269 -1.4177
  332SOL     OW  994   0.120   2.584   1.057  0.2222 -0.1201 -0.1621
  332SOL    HW1  995   0.217   2.584   1.037  0.4958  1.2650 -2.9470
  332SOL    HW2  996   0.083   2.672   1.091  2.4301 -1.3634  1.1460
  333SOL     OW  997   0.093   1.770   2.356 -0.0532  0.0986  0.1618
  333SOL    HW1  998   0.175   1.831   2.346 -1.2652  1.1236 -0.5056
  333SOL    HW2  999   0.023   1.793   2.425 -0.5325  0.3601  0.8022
  334SOL     OW 1000   0.446   0.850   1.143 -0.1012 -0.2097 -0.0688
  334SOL    HW1 1001   0.362   0.846   1.088 -1.0396 -2.8492  0.7927
  334SOL    HW2 1002   0.431   0.817   1.239 -1.4888  1.0202 -0.5848
  335SOL     OW 1003   0.206   1.504   2.046  0.5354 -0.8664 -0.2744
  335SOL    HW1 1004   0.120   1.552   2.068 -0.7175  1.4609 -1.2197
  335SOL    HW2 1005   0.234   1.436   2.116  3.2257 -1.1852  1.4662
  336SOL     OW 1006   2.142   2.718   2.256 -0.0767  0.2281  0.1000
  336SOL    HW1 1007   2.179   2.659   2.330  1.6374 -0.9113 -0.5109
  336SOL    HW2 1008   2.086   2.790   2.296 -0.0864  2.6290  2.6481
  337SOL     OW 1009   0.920   0.697   1.200 -0.1475  0.3178 -0.5883
  337SOL    HW1 1010   0.827   0.741   1.227 -1.5348 -1.9724  0.3230
  337SOL    HW2 1011   0.959   0.762   1.136 -0.5025  0.7741 -2.0316
  338SOL     OW 1012   1.578   2.002   1.003  0.2569 -0.9391 -0.2040
  338SOL    HW1 1013   1.592   2.088   1.055  1.9318 -2.0220 -1.8845
  338SOL    HW2 1014   1.654   1.932   1.017  0.1239 -0.8691 -2.4252
  339SOL     OW 1015   0.114   1.852   1.299  0.1396  0.5962 -0.2742
  339SOL    HW1 1016   0.168   1.804   1.373  1.3322 -0.3616  2.3346
  339SOL    HW2 1017   0.027   1.894   1.334  1.8789 -2.0891 -1.8269
  340SOL     OW 1018   0.735   0.080   2.097 -0.0106  0.0818 -0.2601
  340SOL    HW1 1019   0.777   3.061   2.118 -2.6110  1.2104 -0.8529
  340SOL    HW2 1020   0.675   0.109   2.170 -0.8953 -1.3126 -2.7306
  341SOL     OW 1021   1.804   1.585   0.458 -0.4376 -0.2197 -0.4999
  341SOL    HW1 1022   1.864   1.671   0.436 -1.0883  2.8520 -1.0293
  341SOL    HW2 1023   1.860   1.501   0.465 -1.0943  0.9418  1.5019
  342SOL     OW 1024   1.550   1.550   0.344 -0.1384  0.5148 -0.4566
  342SOL    HW1 1025   1.560   1.513   0.248 -1.5392  0.2415  1.4079
  342SOL    HW2 1026   1.640   1.558   0.387 -0.6379  0.7832 -2.7383
  343SOL     OW 1027   1.920   0.002   0.799 -0.5113 -0.8844  0.0610
  343SOL    HW1 1028   1.902   0.034   0.894 -2.5086 -1.0072  0.3972
  343SOL    HW2 1029   1.954   2.981   0.802 -0.8701  1.2062  0.8518
  344SOL     OW 1030   2.719   0.232   2.891 -0.0165  0.4127 -0.1998
  344SOL    HW1 1031   2.738   0.147   2.950  0.8992  0.7305  0.0267
  344SOL    HW2 1032   2.627   0.228   2.854  2.5245  0.6317  0.8567
  345SOL     OW 1033   1.292   2.552   1.528  0.0404  0.4044  0.1660
  345SOL    HW1 1034   1.324   2.643   1.555  0.6942  1.1926  0.4190
  345SOL    HW2 1035   1.232   2.507   1.601  0.2070  0.9070  2.3034
  346SOL     OW 1036   2.221   2.139   1.346 -0.7248 -0.1273  0.6405
  346SOL    HW1 1037   2.126   2.170   1.343 -0.4974  1.9885  0.3562
  346SOL    HW2 1038   2.263   2.166   1.435 -0.0856 -0.8403 -0.1243
  347SOL     OW 1039   2.082   2.845   1.066 -0.6873 -0.2547  0.3276
  347SOL    HW1 1040   2.026   2.857   0.981  1.5446 -1.5990 -2.5454
  347SOL    HW2 1041   2.097   2.746   1.088  0.0331 -0.3641  0.8917
  348SOL     OW 1042   0.805   1.010   1.521  0.3058 -0.0682  0.1535
  348SOL    HW1 1043   0.747   0.966   1.594 -0.2436 -0.9052 -1.0204
  348SOL    HW2 1044   0.755   1.077   1.463  2.5263  1.5018 -1.7099
  349SOL     OW 1045   2.280   0.335   2.873  0.0814 -0.6758 -0.7060
  349SOL    HW1 1046   2.319   0.424   2.907  0.3441  2.2638  0.7069
  349SOL    HW2 1047   2.351   0.266   2.865  0.5164 -0.6963  2.7828
  350SOL     OW 1048   2.288   2.214   2.795 -0.0930 -0.4722  0.0337
  350SOL    HW1 1049   2.289   2.113   2.823 -2.1737  1.7997  0.3248
  350SOL    HW2 1050   2.230   2.267   2.860  2.1046 -0.5525 -1.1769
  351SOL     OW 1051   1.169   0.239   0.679  0.1695  0.1742 -0.7649
  351SOL    HW1 1052   1.165   0.198   0.586 -2.4232 -1.2053 -0.0721
  351SOL    HW2 1053   1.147   0.341   0.669  1.0198  0.6168  1.4245
  352SOL     OW 1054   1.880   2.130   2.303  0.1698  0.1498  0.0143
  352SOL    HW1 1055   1.830   2.193   2.367  1.7747 -2.0127 -1.1345
  352SOL    HW2 1056   1.980   2.117   2.327  1.0252 -3.3794  0.3009
  353SOL     OW 1057   0.020   0.768   0.008 -0.6466 -0.1432 -0.1250
  353SOL    HW1 1058   0.098   0.737   3.032 -2.9833 -1.8974  2.7516
  353SOL    HW2 1059   0.004   0.868   0.007 -0.6795  1.1377 -2.9001
  354SOL     OW 1060   0.887   2.376   2.722 -0.2964  0.0110  0.5784
  354SOL    HW1 1061   0.931   2.287   2.696 -1.6953 -1.7262  0.3458
  354SOL    HW2 1062   0.930   2.414   2.805  1.5498 -0.2912 -0.5933
  355SOL     OW 1063   2.726   2.709   1.685  0.0315  0.0434 -0.5075
  355SOL    HW1 1064   2.714   2.787   1.749  0.2012 -0.0280  2.0823
  355SOL    HW2 1065   2.630   2.682   1.657  1.2287  1.4081  1.1930
  356SOL     OW 1066   2.618   1.171   0.874  0.2219 -0.0355  0.2513
  356SOL    HW1 1067   2.560   1.092   0.846  1.1436  1.8585 -0.3504
  356SOL    HW2 1068   2.577   1.220   0.956 -1.0013 -1.0276 -2.5323
  357SOL     OW 1069   2.778   0.301   1.026 -0.7878  0.3455 -0.2941
  357SOL    HW1 1070   2.790   0.202   1.043  0.7504  2.2789  0.2177
  357SOL    HW2 1071   2.825   0.316   0.936  2.3012  0.6096  0.2357
  358SOL     OW 1072   1.155   2.261   1.197 -0.3830  0.5003 -0.4962
  358SOL    HW1 1073   1.166   2.301   1.102  1.1718  3.4450  0.0931
  358SOL    HW2 1074   1.239   2.277   1.259 -0.8932 -0.6598  1.7931
  359SOL     OW 1075   3.039   2.739   2.715 -0.0731 -0.1835  0.4865
  359SOL    HW1 1076   0.006   2.651   2.749 -0.2141 -2.4575  1.4785
  359SOL    HW2 1077   0.038   2.791   2.667  0.9148 -0.6447 -2.3501
  360SOL     OW 1078   1.162   0.934   1.714 -0.2120 -0.1907 -0.2468
  360SOL    HW1 1079   1.262   0.948   1.689  0.3368  1.5064 -0.6078
  360SOL    HW2 1080   1.123   0.851   1.677  3.4946 -0.0755  1.3176
  361SOL     OW 1081   2.478   0.247   0.599  0.3065  0.4276 -0.1095
  361SOL    HW1 1082   2.468   0.259   0.699 -1.9643  1.7969 -1.4294
  361SOL    HW2 1083   2.422   0.170   0.563 -0.0789  2.0608  0.3025
  362SOL     OW 1084   0.244   3.039   0.588  0.3755  0.1232 -0.0793
  362SOL    HW1 1085   0.317   2.987   0.539  3.4307 -1.6560  1.0600
  362SOL    HW2 1086   0.281   0.049   0.628 -0.5926 -1.0780  0.9443
  363SOL     OW 1087   0.613   1.239   0.405  0.0275  0.5145 -0.0013
  363SOL    HW1 1088   0.560   1.170   0.462 -0.5341 -1.7236  3.2141
  363SOL    HW2 1089   0.683   1.289   0.464 -1.6288  2.1827  0.6158
  364SOL     OW 1090   0.634   0.893   1.766 -0.2016 -0.0398  0.3589
  364SOL    HW1 1091   0.549   0.883   1.708  2.1547  1.5485  1.4037
  364SOL    HW2 1092   0.625   0.947   1.854  0.9855 -0.0542  1.7738
  365SOL     OW 1093   2.789   1.376   0.545  0.2256  0.0753  0.5677
  365SOL    HW1 1094   2.796   1.280   0.578  1.2404  3.7697  1.8290
  365SOL    HW2 1095   2.781   1.436   0.629  0.6993  2.4540  1.2774
  366SOL     OW 1096   2.738   1.514   0.785 -0.0685  0.0232 -0.2673
  366SOL    HW1 1097   2.704   1.493   0.881  0.9704 -1.0178  2.3885
  366SOL    HW2 1098   2.839   1.539   0.786  0.0820  0.6418  2.7787
  367SOL     OW 1099   2.195   1.950   2.062  0.3627 -0.2846 -0.6477
  367SOL    HW1 1100   2.168   2.012   2.141  1.4897  1.4231 -0.3343
  367SOL    HW2 1101   2.110   1.915   2.018 -0.6421 -0.4965  2.1660
  368SOL     OW 1102   2.640   1.463   1.030 -0.7177 -0.1730 -0.1758
  368SOL    HW1 1103   2.718   1.443   1.093 -0.5501  1.2006 -0.1697
  368SOL    HW2 1104   2.561   1.412   1.065  4.1248 -0.0170 -0.3060
  369SOL     OW 1105   2.253   2.548   2.953 -0.5609  0.0237  0.4769
  369SOL    HW1 1106   2.294   2.558   2.860 -1.2441 -3.4276 -1.9435
  369SOL    HW2 1107   2.152   2.572   2.954 -1.5548  2.5675  2.0719
  370SOL     OW 1108   0.006   3.043   1.216 -0.4024 -0.3859 -0.2255
  370SOL    HW1 1109   0.013   0.053   1.278  2.1009 -1.7433  1.8820
  370SOL    HW2 1110   0.077   3.039   1.136  1.9966  0.0004 -3.9017
  371SOL     OW 1111   0.766   1.751   2.971 -0.2336  0.6095 -0.3252
  371SOL    HW1 1112   0.700   1.826   2.999 -0.5667 -0.1039  2.9354
  371SOL    HW2 1113   0.720   1.663   2.969 -1.7842  1.0915  0.0554
  372SOL     OW 1114   0.990   1.138   0.407  0.4766  0.6224 -0.3952
  372SOL    HW1 1115   0.912   1.179   0.356 -1.6285 -1.5096 -2.7573
  372SOL    HW2 1116   1.043   1.086   0.340  2.7848  1.4433  0.1812
  373SOL     OW 1117   1.624   2.722   2.810 -0.7095  0.3212 -0.2159
  373SOL    HW1 1118   1.679   2.635   2.795  0.0833  0.2597 -2.0187
  373SOL    HW2 1119   1.570   2.708   2.897 -5.7935 -0.1102  0.0299
  374SOL     OW 1120   0.218   2.131   0.154 -0.7436 -0.1831  0.3167
  374SOL    HW1 1121   0.321   2.137   0.149  0.6641  0.9528  1.3772
  374SOL    HW2 1122   0.171   2.126   0.067  2.1111  0.5884  2.7048
  375SOL     OW 1123   0.771   1.309   1.676  0.2365 -0.1322 -0.5507
  375SOL    HW1 1124   0.867   1.317   1.644  1.7387 -1.5653  0.3789
  375SOL    HW2 1125   0.717   1.284   1.599  2.4455  0.5145 -0.8360
  376SOL     OW 1126   0.638   2.363   1.899 -0.1623  0.2890 -0.1665
  376SOL    HW1 1127   0.617   2.430   1.829  0.5703  3.6191  0.8571
  376SOL    HW2 1128   0.549   2.319   1.938 -2.4293 -2.0970  0.2921
  377SOL     OW 1129   2.884   1.443   2.091  0.1567  0.3255  0.6428
  377SOL    HW1 1130   2.935   1.473   2.171 -0.5141 -0.9592  0.4377
  377SOL    HW2 1131   2.899   1.337   2.072 -0.2815 -2.0182  0.0781
  378SOL     OW 1132   1.020   2.925   0.031  0.4873  0.5293 -0.1528
  378SOL    HW1 1133   1.057   2.970   3.017 -0.4001  2.7829 -4.8349
  378SOL    HW2 1134   1.010   2.826   0.016  1.6844  0.4806  0.8762
  379SOL     OW 1135   2.016   0.418   0.706 -0.4361 -0.1235 -0.0916
  379SOL    HW1 1136   2.043   0.421   0.605 -0.2462 -0.1845  0.5312
  379SOL    HW2 1137   2.101   0.427   0.763  1.2940  0.2938  1.0620
  380SOL     OW 1138   2.953   1.916   1.432 -0.6249 -0.4103  0.8673
  380SOL    HW1 1139   2.912   1.852   1.504 -0.2004 -0.2042 -0.5548
  380SOL    HW2 1140   2.876   1.943   1.372  1.8403 -3.7951 -0.7546
  381SOL     OW 1141   1.966   1.815   1.972 -0.0724 -0.4729 -0.3746
  381SOL    HW1 1142   1.927   1.758   2.043  0.2917  1.2760 -2.2450
  381SOL    HW2 1143   1.956   1.771   1.879 -0.1896 -3.2666 -0.6839
  382SOL     OW 1144   0.096   0.376   2.591 -0.1358  0.2061  0.3285
  382SOL    HW1 1145   0.092   0.282   2.619  1.3426  0.2696  0.5427
  382SOL    HW2 1146   0.140   0.386   2.499  2.2109  4.0821  2.7164
  383SOL     OW 1147   1.680   1.439   2.504  0.6600 -0.1007  0.5340
  383SOL    HW1 1148   1.675   1.334   2.515  1.0524  0.8592 -1.1992
  383SOL    HW2 1149   1.775   1.467   2.470  0.0261 -1.0383 -0.8032
  384SOL     OW 1150   1.147   1.985   1.331  0.1153  0.3235 -0.3437
  384SOL    HW1 1151   1.153   2.077   1.285  1.8810  1.4645  1.7179
  384SOL    HW2 1152   1.053   1.949   1.353  1.7021  1.4730 -2.1341
  385SOL     OW 1153   1.854   2.507   0.801  0.1125 -0.0499  0.3691
  385SOL    HW1 1154   1.789   2.582   0.816 -0.1998 -2.8988 -1.1125
  385SOL    HW2 1155   1.868   2.493   0.699  2.9492  0.2692  0.2599
  386SOL     OW 1156   1.963   1.745   0.799 -0.5449  0.0498  0.0526
  386SOL    HW1 1157   1.865   1.740   0.824 -1.7082  1.0061  0.5257
  386SOL    HW2 1158   1.998   1.655   0.779 -1.9421  1.4151 -0.3218
  387SOL     OW 1159   0.195   2.305   1.420 -0.5151  0.3874  0.2306
  387SOL    HW1 1160   0.278   2.257   1.381  3.2670 -2.2645 -3.5488
  387SOL    HW2 1161   0.127   2.244   1.465  0.1474 -0.1219  0.2653
  388SOL     OW 1162   2.968   0.431   1.715  0.4253  0.5486  0.5012
  388SOL    HW1 1163   2.957   0.528   1.752 -1.1245  0.6724 -0.2303
  388SOL    HW2 1164   2.885   0.375   1.729  0.6229  2.6639 -1.4549
  389SOL     OW 1165   1.851   1.097   0.534 -0.0030  0.3066  0.2373
  389SOL    HW1 1166   1.805   1.040   0.609 -1.0855 -4.5159 -0.2652
  389SOL    HW2 1167   1.926   1.046   0.487  0.7910  0.1824 -0.8491
  390SOL     OW 1168   1.018   2.152   2.632 -0.0976 -1.1361  0.1486
  390SOL    HW1 1169   0.936   2.151   2.576 -0.1050 -2.6697  0.7229
  390SOL    HW2 1170   1.082   2.081   2.604 -0.3953  2.2028 -1.0587
  391SOL     OW 1171   0.651   2.025   2.950  0.3361 -0.0815  0.0111
  391SOL    HW1 1172   0.598   2.109   2.954  2.8716 -0.5778 -0.6661
  391SOL    HW2 1173   0.666   2.007   2.853  2.5670 -2.3761 -1.5624
  392SOL     OW 1174   3.018   2.830   1.722 -1.0687  0.8203 -0.0547
  392SOL    HW1 1175   2.937   2.857   1.667  0.0364 -0.3510 -0.3101
  392SOL    HW2 1176   2.991   2.832   1.821 -2.2106 -0.8622  1.9915
  393SOL     OW 1177   1.806   2.528   0.175 -0.0060  0.0928 -0.3598
  393SOL    HW1 1178   1.856   2.478   0.247  1.3237  0.9382  1.7812
  393SOL    HW2 1179   1.857   2.613   0.145 -1.1420  2.0839  0.0057
  394SOL     OW 1180   0.740   0.502   2.206  0.6613 -0.2161  0.3746
  394SOL    HW1 1181   0.710   0.443   2.285  1.9061 -2.9937 -0.7667
  394SOL    HW2 1182   0.819   0.463   2.153 -2.3592  2.9434  0.0733
  395SOL     OW 1183   0.354   1.101   1.297  0.1638  1.5458 -0.4585
  395SOL    HW1 1184   0.271   1.060   1.247 -0.2794  0.8537 -1.8598
  395SOL    HW2 1185   0.344   1.115   1.396  0.9993  1.1580  1.3660
  396SOL     OW 1186   1.627   1.491   2.193  0.1517  0.5316  0.3411
  396SOL    HW1 1187   1.586   1.404   2.160  0.0834  1.0210  2.3398
  396SOL    HW2 1188   1.590   1.509   2.284  0.4043 -0.3094 -3.1591
  397SOL     OW 1189   0.835   0.351   0.085  0.1177  0.0015  0.3118
  397SOL    HW1 1190   0.785   0.441   0.097  0.7307 -0.5008 -0.0917
  397SOL    HW2 1191   0.773   0.272   0.092  0.1060 -3.1705  0.1244
  398SOL     OW 1192   0.724   1.970   2.696 -0.3433 -0.1148 -0.1710
  398SOL    HW1 1193   0.799   1.906   2.704 -1.4562 -0.4490  1.0653
  398SOL    HW2 1194   0.743   2.036   2.617  1.5798  0.2178 -1.2221
  399SOL     OW 1195   2.661   1.536   2.372 -0.1570  0.2099 -0.2439
  399SOL    HW1 1196   2.635   1.546   2.275 -2.8368  1.8788 -0.7228
  399SOL    HW2 1197   2.747   1.582   2.397 -1.9952  0.9872 -0.4511
  400SOL     OW 1198   2.259   1.113   1.542 -0.3335 -0.6752  0.2003
  400SOL    HW1 1199   2.287   1.212   1.525  0.1102  1.3511 -2.1399
  400SOL    HW2 1200   2.212   1.079   1.459 -1.9189 -1.7580  1.7230
  401SOL     OW 1201   0.999   1.706   0.753 -0.7497  0.0689  0.2867
  401SOL    HW1 1202   0.986   1.750   0.848  0.2703  0.4699  0.3641
  401SOL    HW2 1203   1.091   1.667   0.742  0.6772  0.5080  0.4542
  402SOL     OW 1204   0.069   2.594   2.132  0.2478 -0.0606  0.6641
  402SOL    HW1 1205   0.159   2.606   2.179 -1.5701  0.1293 -0.9891
  402SOL    HW2 1206   0.061   2.676   2.072  0.4041  1.8421  0.4383
  403SOL     OW 1207   0.397   1.298   2.499  0.1376  0.0129  0.0716
  403SOL    HW1 1208   0.346   1.360   2.561  1.5633 -0.7621  0.1498
  403SOL    HW2 1209   0.382   1.202   2.525  0.6714  0.9591 -2.3720
  404SOL     OW 1210   1.979   2.330   1.459  0.2729  0.4544  0.4344
  404SOL    HW1 1211   2.057   2.381   1.504 -3.6811  0.5273 -3.4171
  404SOL    HW2 1212   1.944   2.250   1.511 -1.2658 -3.2807 -0.9206
  405SOL     OW 1213   3.009   0.182   2.865  0.3613 -0.5664 -0.4693
  405SOL    HW1 1214   2.922   0.233   2.874 -0.9037 -2.1068 -0.4873
  405SOL    HW2 1215   3.000   0.101   2.926 -1.1373  1.1601 -0.1752
  406SOL     OW 1216   0.650   0.828   0.260 -0.3244 -0.1611  0.1325
  406SOL    HW1 1217   0.752   0.817   0.257  1.3882  2.5123 -2.4826
  406SOL    HW2 1218   0.613   0.895   0.187 -1.1999  1.6759 -0.5487
  407SOL     OW 1219   1.903   2.493   2.650 -0.7579  0.5369 -0.3503
  407SOL    HW1 1220   1.984   2.437   2.667  0.2875  1.6464  2.8297
  407SOL    HW2 1221   1.854   2.491   2.739 -0.4748 -0.5323  1.2208
  408SOL     OW 1222   2.849   2.983   0.223  0.2920 -0.3975 -0.2446
  408SOL    HW1 1223   2.814   2.890   0.242 -0.4785 -0.3712  0.7461
  408SOL    HW2 1224   2.939   2.997   0.263  0.3537 -0.9857  0.0905
  409SOL     OW 1225   2.127   1.513   1.011 -0.2672  0.2252 -0.3082
  409SOL    HW1 1226   2.178   1.539   0.928 -0.8313 -3.1210  0.7435
  409SOL    HW2 1227   2.154   1.412   1.030  0.2035 -1.5627 -0.0364
  410SOL     OW 1228   2.570   2.227   0.114 -0.0564  0.2755  0.1820
  410SOL    HW1 1229   2.474   2.256   0.095  0.4355 -1.4938  1.4240
  410SOL    HW2 1230   2.599   2.140   0.063  0.8316  0.9793  0.4920
  411SOL     OW 1231   0.113   1.277   0.852 -0.2190  0.3832  0.8388
  411SOL    HW1 1232   0.012   1.286   0.862 -2.0717  1.5170  0.2443
  411SOL    HW2 1233   0.148   1.189   0.899 -0.3523  1.4084 -1.0793
  412SOL     OW 1234   2.075   2.429   0.475  0.6449 -0.0165  0.0442
  412SOL    HW1 1235   2.155   2.463   0.423 -0.2701  0.8136 -0.2345
  412SOL    HW2 1236   2.065   2.329   0.468  0.6375  2.3492 -2.4940
  413SOL     OW 1237   2.006   0.774   2.168  0.0172 -0.4007 -0.6879
  413SOL    HW1 1238   1.909   0.813   2.150 -1.5503 -0.3417  1.2441
  413SOL    HW2 1239   2.061   0.769   2.085  0.8369  1.8822  1.7694
  414SOL     OW 1240   2.783   0.168   0.295  0.0476 -0.5282  0.2335
  414SOL    HW1 1241   2.825   0.099   0.237 -0.8246  1.5653  4.3570
  414SOL    HW2 1242   2.692   0.134   0.330 -0.5877 -3.4982  1.5282
  415SOL     OW 1243   0.963   1.662   1.275 -0.0939  0.5927  0.1985
  415SOL    HW1 1244   0.928   1.584   1.216 -0.3291  0.0948  0.1949
  415SOL    HW2 1245   1.055   1.635   1.315  0.4323 -0.2255  0.6341
  416SOL     OW 1246   0.480   2.980   2.646  0.1455  0.2164  0.7129
  416SOL    HW1 1247   0.456   3.050   2.576  3.8956  0.8857  2.1801
  416SOL    HW2 1248   0.440   2.887   2.638  1.2694 -0.4713 -0.2903
  417SOL     OW 1249   2.541   0.421   1.030 -0.4771 -0.1899 -0.1910
  417SOL    HW1 1250   2.519   0.504   0.970  0.6231  0.3521  0.4437
  417SOL    HW2 1251   2.642   0.400   1.023  1.5687 -1.5977 -4.1446
  418SOL     OW 1252   0.083   0.624   2.705 -0.4943  0.1680  0.5245
  418SOL    HW1 1253   3.059   0.635   2.718 -3.5930 -0.8385  1.5699
  418SOL    HW2 1254   0.092   0.533   2.654  1.5736  0.6275  0.8600
  419SOL     OW 1255   0.349   1.129   1.573 -0.3277  0.7162  0.1195
  419SOL    HW1 1256   0.411   1.207   1.560  1.9781  2.3780 -0.1113
  419SOL    HW2 1257   0.249   1.157   1.554  0.7393 -3.1507 -0.5509
  420SOL     OW 1258   0.558   1.515   0.753 -0.2392 -0.2547  0.1663
  420SOL    HW1 1259   0.613   1.584   0.699  0.3763 -0.7736 -1.0694
  420SOL    HW2 1260   0.618   1.441   0.800 -0.4368 -3.3203  1.4329
  421SOL     OW 1261   2.475   2.553   2.777  0.2694  0.3088 -0.6204
  421SOL    HW1 1262   2.500   2.451   2.764 -0.4733 -2.3321  1.3753
  421SOL    HW2 1263   2.473   2.604   2.689  0.2854  1.1871 -2.4711
  422SOL     OW 1264   2.893   0.667   2.720 -0.1745 -0.4912  0.1215
  422SOL    HW1 1265   2.871   0.570   2.737 -1.0217  2.4487 -1.0295
  422SOL    HW2 1266   2.871   0.732   2.797  3.5579 -1.0254 -0.9022
  423SOL     OW 1267   1.430   2.038   0.793  0.0762  0.1513 -0.7844
  423SOL    HW1 1268   1.474   2.010   0.884  1.5004  2.9328  3.3984
  423SOL    HW2 1269   1.327   2.044   0.805 -0.8971 -2.5808  1.8680
  424SOL     OW 1270   0.507   1.867   1.623 -0.4481  0.6181  0.4330
  424SOL    HW1 1271   0.568   1.943   1.585  0.2258  2.0971 -2.8414
  424SOL    HW2 1272   0.452   1.896   1.705 -0.3059 -0.4627  3.3707
  425SOL     OW 1273   0.001   2.803   2.350 -0.1652  0.1566 -0.3857
  425SOL    HW1 1274   0.004   2.701   2.339  0.0236  0.4038  2.7132
  425SOL    HW2 1275   2.989   2.847   2.322  2.4071 -0.4311  1.2499
  426SOL     OW 1276   1.711   0.822   0.630 -1.3561 -0.6511 -0.0734
  426SOL    HW1 1277   1.704   0.827   0.527 -0.9617 -0.4924 -1.8166
  426SOL    HW2 1278   1.626   0.860   0.674  2.5713 -0.3418  0.4602
  427SOL     OW 1279   0.561   1.019   0.085  0.0627 -0.1638  0.3573
  427SOL    HW1 1280   0.470   1.012   0.133 -0.1749 -0.7979 -0.1792
  427SOL    HW2 1281   0.552   0.977   3.067 -2.1097 -0.3511 -2.5697
  428SOL     OW 1282   1.285   1.314   3.055 -0.4355 -0.2489  0.6817
  428SOL    HW1 1283   1.294   1.250   0.058 -0.3600  1.8839 -0.7201
  428SOL    HW2 1284   1.209   1.378   3.070 -1.2643 -1.5824  2.0663
  429SOL     OW 1285   2.963   2.509   0.583  0.5668  0.0349  0.1002
  429SOL    HW1 1286   2.912   2.543   0.501 -0.3143 -3.9823 -0.2787
  429SOL    HW2 1287   3.042   2.565   0.609 -1.1971 -0.0804  1.6723
  430SOL     OW 1288   0.490   2.655   2.428 -0.0687 -0.6142 -0.2450
  430SOL    HW1 1289   0.572   2.590   2.459  2.6684 -1.6574  2.6050
  430SOL    HW2 1290   0.436   2.692   2.506 -0.6636  1.6283 -0.3261
  431SOL     OW 1291   2.824   1.134   0.672  0.1738  0.1576 -0.9041
  431SOL    HW1 1292   2.753   1.122   0.749 -0.7098 -4.0236  2.2426
  431SOL    HW2 1293   2.899   1.068   0.682 -0.2566 -2.3535  0.1819
  432SOL     OW 1294   2.137   2.343   2.144 -0.3608 -0.1585  0.3880
  432SOL    HW1 1295   2.180   2.312   2.230 -1.2118  0.3595  1.6305
  432SOL    HW2 1296   2.116   2.265   2.080  1.2219 -1.9716  0.7944
  433SOL     OW 1297   1.468   2.498   0.814 -0.2247 -0.5586  0.0689
  433SOL    HW1 1298   1.530   2.422   0.782  1.9818  0.0505 -2.7545
  433SOL    HW2 1299   1.504   2.590   0.788  1.5997 -2.5109  2.1407
  434SOL     OW 1300   0.816   1.987   1.967  0.1679 -0.0941  0.6251
  434SOL    HW1 1301   0.887   2.061   1.971 -0.9998  0.4452  1.6535
  434SOL    HW2 1302   0.738   2.013   2.025  0.4112 -0.4359 -0.6982
  435SOL     OW 1303   2.859   0.977   0.095  0.1815  0.2855 -0.3161
  435SOL    HW1 1304   2.911   0.940   0.176  0.4109  2.9988 -2.1589
  435SOL    HW2 1305   2.824   0.896   0.044 -0.1609  0.5614  0.2891
  436SOL     OW 1306   0.321   2.637   1.983  0.3711 -0.2294 -0.0095
  436SOL    HW1 1307   0.322   2.744   1.977  0.0427  3.4556 -0.7160
  436SOL    HW2 1308   0.345   2.609   2.076  0.4779 -1.6726  0.0346
  437SOL     OW 1309   1.939   2.913   1.716 -0.3269  0.3680  0.0971
  437SOL    HW1 1310   1.920   2.850   1.638 -1.3545  0.7379  2.3952
  437SOL    HW2 1311   1.968   2.864   1.799 -1.7209 -0.7613  1.5381
  438SOL     OW 1312   0.363   1.721   0.484 -0.0907  0.7439  0.1782
  438SOL    HW1 1313   0.405   1.730   0.577  1.6075  3.4280  1.3598
  438SOL    HW2 1314   0.330   1.819   0.454 -1.0977 -0.2242 -1.2978
  439SOL     OW 1315   0.162   0.415   0.803  0.5850  0.2970 -0.4174
  439SOL    HW1 1316   0.223   0.395   0.729 -2.9666  1.2546 -0.6225
  439SOL    HW2 1317   0.186   0.355   0.882  0.5155 -0.3890  0.2003
  440SOL     OW 1318   0.332   2.746   2.608 -0.2709  0.1452  0.7941
  440SOL    HW1 1319   0.274   2.665   2.621 -0.0246 -2.3029  0.8800
  440SOL    HW2 1320   0.272   2.824   2.574 -0.0729  1.0093 -0.3498
  441SOL     OW 1321   3.023   0.901   0.718  0.2136 -0.0539  0.0309
  441SOL    HW1 1322   0.044   0.932   0.690 -1.2934 -1.0796 -1.3430
  441SOL    HW2 1323   2.988   0.842   0.645  1.5250 -1.2142  1.0261
  442SOL     OW 1324   1.235   2.335   2.585  0.0970  0.4935  0.5862
  442SOL    HW1 1325   1.294   2.300   2.506  0.4348 -1.5291  1.9073
  442SOL    HW2 1326   1.172   2.259   2.621 -1.7692 -0.6246  0.3237
  443SOL     OW 1327   0.727   0.295   0.420 -0.7457 -0.6125  0.0322
  443SOL    HW1 1328   0.792   0.376   0.400  1.7264  1.2447  0.4432
  443SOL    HW2 1329   0.774   0.248   0.497 -0.5755  0.5558  2.0756
  444SOL     OW 1330   1.579   1.789   2.361  0.1450 -0.4605 -0.7322
  444SOL    HW1 1331   1.510   1.716   2.346  1.7915  0.1294  0.0735
  444SOL    HW2 1332   1.565   1.865   2.294  0.7540 -2.1227 -1.4466
  445SOL     OW 1333   0.036   0.470   0.560 -0.4432 -0.0368 -0.2204
  445SOL    HW1 1334   0.105   0.531   0.515 -1.8184 -1.9422  0.8639
  445SOL    HW2 1335   0.064   0.436   0.652  0.1124  0.7118  1.1316
  446SOL     OW 1336   2.000   0.678   1.063  0.6510 -0.2572 -0.1693
  446SOL    HW1 1337   1.955   0.689   1.155 -1.4851 -0.5738 -0.1828
  446SOL    HW2 1338   1.937   0.720   0.993  1.9879  0.6737 -1.5467
  447SOL     OW 1339   2.944   0.876   0.319 -0.5201 -0.5153 -0.0197
  447SOL    HW1 1340   2.966   0.775   0.323  0.6521  2.5030 -3.5666
  447SOL    HW2 1341   2.871   0.898   0.390  1.5103 -1.6996  0.3227
  448SOL     OW 1342   1.811   2.089   1.544 -0.0789  0.0330 -0.3277
  448SOL    HW1 1343   1.733   2.147   1.580  0.2998 -1.8408 -1.6452
  448SOL    HW2 1344   1.834   2.110   1.447  0.2202 -0.9046 -1.8015
  449SOL     OW 1345   0.808   1.377   0.545  0.1620  0.0263 -0.7202
  449SOL    HW1 1346   0.885   1.343   0.603  0.7994 -2.6331  0.6379
  449SOL    HW2 1347   0.767   1.460   0.586  1.0729 -2.7406  0.7780
  450SOL     OW 1348   2.630   2.807   2.223  0.1455  0.1582 -0.1621
  450SOL    HW1 1349   2.535   2.824   2.188 -0.3990 -2.2858 -1.7982
  450SOL    HW2 1350   2.641   2.715   2.266 -0.5716 -0.7210  2.7513
  451SOL     OW 1351   2.460   1.216   2.889  0.8589 -0.1232  0.1133
  451SOL    HW1 1352   2.525   1.189   2.957 -3.0738  1.4298 -1.0662
  451SOL    HW2 1353   2.383   1.264   2.935 -1.6856 -1.6526  1.9750
  452SOL     OW 1354   1.702   1.081   1.070 -0.5353 -0.5323 -0.2380
  452SOL    HW1 1355   1.792   1.065   1.120  0.7614 -1.2677  1.7035
  452SOL    HW2 1356   1.657   1.165   1.114 -1.9915  1.1582  1.2323
  453SOL     OW 1357   2.107   0.684   1.497 -0.2404  0.3423  0.3730
  453SOL    HW1 1358   2.020   0.716   1.450 -0.6261  1.3193 -2.6171
  453SOL    HW2 1359   2.137   0.754   1.565 -2.7547  1.0146 -1.5464
  454SOL     OW 1360   2.849   1.277   2.899 -0.6890 -0.8297 -0.1189
  454SOL    HW1 1361   2.851   1.239   2.805  2.5720 -1.5275  1.0821
  454SOL    HW2 1362   2.787   1.216   2.957 -0.0696  0.8147 -1.7442
  455SOL     OW 1363   2.537   1.677   1.515 -0.1124 -0.1967  0.6603
  455SOL    HW1 1364   2.554   1.587   1.468 -0.4652  0.1208  0.4561
  455SOL    HW2 1365   2.486   1.740   1.452 -0.8421  2.0006 -2.0059
  456SOL     OW 1366   1.157   2.994   1.596  0.3590 -0.5905 -0.6003
  456SOL    HW1 1367   1.155   0.006   1.543 -0.5604  0.3536  1.9204
  456SOL    HW2 1368   1.248   2.947   1.593 -0.9104  0.0903 -1.3601
  457SOL     OW 1369   1.765   2.763   0.891 -0.2779 -0.2678 -0.3146
  457SOL    HW1 1370   1.743   2.696   0.970 -1.7071 -0.0243 -0.6771
  457SOL    HW2 1371   1.694   2.838   0.888  1.5992 -0.3947  2.0522
  458SOL     OW 1372   2.807   0.017   0.563 -0.1103 -0.2246  0.3873
  458SOL    HW1 1373   2.734   0.012   0.495  1.0810 -0.0120  2.5469
  458SOL    HW2 1374   2.772   0.042   0.656  3.2669 -1.6561  0.9838
  459SOL     OW 1375   1.409   1.170   0.167  0.5479  0.4717  0.1318
  459SOL    HW1 1376   1.401   1.149   0.266 -0.4944 -0.4063 -1.0262
  459SOL    HW2 1377   1.474   1.103   0.122 -3.0425 -2.5264 -0.6936
  460SOL     OW 1378   0.188   2.532   2.587  0.5649  0.2952 -0.0805
  460SOL    HW1 1379   0.124   2.477   2.647  0.9013  0.8685  1.7765
  460SOL    HW2 1380   0.175   2.493   2.491 -3.1294 -1.0455 -1.7774
  461SOL     OW 1381   0.718   1.542   0.076  0.0989  0.4389  0.0282
  461SOL    HW1 1382   0.799   1.548   0.135 -0.5230 -0.0348  1.8612
  461SOL    HW2 1383   0.647   1.607   0.107  0.3383 -0.5250 -0.1185
  462SOL     OW 1384   2.079   2.018   0.770 -0.0135 -0.1402 -0.1847
  462SOL    HW1 1385   2.164   2.051   0.825  2.2130  1.2570  0.3905
  462SOL    HW2 1386   2.054   1.919   0.775  0.4387  2.5602  0.4325
  463SOL     OW 1387   2.829   0.392   0.496 -0.2946  0.5482 -0.1700
  463SOL    HW1 1388   2.924   0.417   0.521 -1.3198  0.6705  0.1311
  463SOL    HW2 1389   2.831   0.303   0.447  1.3547  2.1243  1.3270
  464SOL     OW 1390   0.800   2.232   0.510 -0.2857 -0.2140  0.5648
  464SOL    HW1 1391   0.886   2.221   0.458 -0.0891  1.8395 -4.9168
  464SOL    HW2 1392   0.774   2.147   0.558 -1.5094  4.4277  0.6428
  465SOL     OW 1393   2.162   0.233   1.079  0.2370 -0.2926  0.8314
  465SOL    HW1 1394   2.075   0.271   1.122 -1.3903 -1.1223 -1.0533
  465SOL    HW2 1395   2.145   0.167   1.008  2.7497  2.4031 -0.0714
  466SOL     OW 1396   2.300   0.018   0.479  0.2141 -0.1783 -0.0527
  466SOL    HW1 1397   2.259   2.995   0.497  0.2104 -2.6200  2.1455
  466SOL    HW2 1398   2.222   0.080   0.451 -0.5519  2.6482  1.5272
  467SOL     OW 1399   1.179   0.489   2.155 -0.2800 -0.6699  0.2074
  467SOL    HW1 1400   1.199   0.583   2.174 -1.6088 -1.0997 -0.7024
  467SOL    HW2 1401   1.253   0.448   2.098 -2.7413 -1.0490  0.2744
  468SOL     OW 1402   2.737   0.311   1.791 -0.1258  0.0988 -0.6142
  468SOL    HW1 1403   2.674   0.360   1.727  0.0710  2.4233  0.0814
  468SOL    HW2 1404   2.690   0.298   1.882 -1.3620  0.0634  2.2142
  469SOL     OW 1405   1.011   2.176   1.902  0.1054  0.7432  0.2644
  469SOL    HW1 1406   1.091   2.107   1.896  3.4381 -1.1645 -2.0753
  469SOL    HW2 1407   0.969   2.172   1.810  2.6923 -1.3103 -0.4774
  470SOL     OW 1408   2.076   1.255   1.905 -0.3832  0.0516  0.3887
  470SOL    HW1 1409   2.148   1.211   1.848  0.8214 -0.8502 -1.2323
  470SOL    HW2 1410   2.042   1.184   1.975 -1.4487 -0.1776 -2.0887
  471SOL     OW 1411   2.820   1.565   2.988 -0.0945  0.0911  0.1107
  471SOL    HW1 1412   2.818   1.466   2.964  1.0267 -0.4414 -4.8091
  471SOL    HW2 1413   2.795   1.584   0.010  2.2965  1.4289 -1.8758
  472SOL     OW 1414   0.595   2.409   0.433 -0.0516  0.0642  0.1786
  472SOL    HW1 1415   0.531   2.383   0.506  1.8308  0.1927 -0.0697
  472SOL    HW2 1416   0.660   2.335   0.415 -0.7438  0.1791 -1.3676
  473SOL     OW 1417   1.215   2.207   2.158 -0.4017  0.0930  0.0185
  473SOL    HW1 1418   1.273   2.164   2.089 -1.1548  1.5248 -0.0543
  473SOL    HW2 1419   1.273   2.210   2.238 -0.5514  0.1799 -1.1172
  474SOL     OW 1420   1.095   3.059   2.405  0.3508 -0.0653  0.1434
  474SOL    HW1 1421   0.995   3.051   2.427 -3.9490  0.9587  2.0792
  474SOL    HW2 1422   1.147   2.991   2.459  0.7673  2.3185 -1.6094
  475SOL     OW 1423   0.992   2.267   0.277  0.3189 -0.1845 -0.2081
  475SOL    HW1 1424   1.065   2.283   0.343 -2.8816 -1.5582 -0.2874
  475SOL    HW2 1425   1.018   2.180   0.225  1.7216 -1.4107 -2.6390
  476SOL     OW 1426   0.479   0.417   1.184  0.2960 -0.6492 -0.5538
  476SOL    HW1 1427   0.474   0.486   1.262 -0.8124  2.9110  2.2583
  476SOL    HW2 1428   0.549   0.446   1.110  0.4226 -2.0784 -2.9951
  477SOL     OW 1429   1.887   2.086   1.252  0.2616  0.1966  0.0458
  477SOL    HW1 1430   1.942   2.025   1.192  1.4027 -1.3163 -3.5530
  477SOL    HW2 1431   1.804   2.114   1.198 -1.4347 -2.0675  0.6315
  478SOL     OW 1432   2.726   0.741   3.044 -0.3535 -0.0817 -0.5594
  478SOL    HW1 1433   2.705   0.766   0.065  0.2129 -1.7779 -1.5644
  478SOL    HW2 1434   2.734   0.636   3.041 -0.9248 -1.1720  0.2790
  479SOL     OW 1435   0.578   2.964   0.858  0.0110 -0.8616 -0.0413
  479SOL    HW1 1436   0.557   2.951   0.959 -0.2222 -0.4206  0.0378
  479SOL    HW2 1437   0.678   2.957   0.840  0.6354  0.8836  0.3217
  480SOL     OW 1438   2.412   2.468   0.527 -0.5298 -0.3288 -0.1734
  480SOL    HW1 1439   2.468   2.399   0.477 -0.4626 -0.2499 -3.3124
  480SOL    HW2 1440   2.450   2.478   0.625  1.1564 -1.8444  1.3612
  481SOL     OW 1441   2.808   0.478   1.238 -0.2487  0.1142 -0.6170
  481SOL    HW1 1442   2.819   0.415   1.158 -2.8362  1.5138  2.3327
  481SOL    HW2 1443   2.864   0.436   1.314  1.9852  0.2274  1.2319
  482SOL     OW 1444   0.844   2.967   0.862  0.1252 -0.2711  0.5092
  482SOL    HW1 1445   0.890   2.971   0.770 -0.0903  0.4943 -1.4634
  482SOL    HW2 1446   0.895   3.027   0.931 -0.4853 -0.8913 -1.0177
  483SOL     OW 1447   0.021   1.382   2.982 -0.2838 -0.1864  0.5359
  483SOL    HW1 1448   3.017   1.338   2.935  1.6416  0.7839 -1.1841
  483SOL    HW2 1449   0.058   1.456   2.920  0.0359 -2.1549 -3.0388
  484SOL     OW 1450   1.645   1.564   1.886  0.4080  0.2653 -0.1637
  484SOL    HW1 1451   1.610   1.657   1.871 -2.7577  0.3018 -2.3156
  484SOL    HW2 1452   1.701   1.570   1.967 -2.2040  1.7974 -0.5021
  485SOL     OW 1453   0.306   0.147   2.506 -0.2788  0.2618  0.0390
  485SOL    HW1 1454   0.344   0.216   2.571  1.3532  1.1942  0.9351
  485SOL    HW2 1455   0.221   0.112   2.549  0.4350 -1.6642  0.4212
  486SOL     OW 1456   1.528   3.072   0.536  0.0614 -0.2968 -0.0750
  486SOL    HW1 1457   1.601   3.010   0.571 -1.7444 -0.8565  1.5237
  486SOL    HW2 1458   1.506   3.043   0.438  0.8497 -1.6318  2.7134
  487SOL     OW 1459   1.596   0.281   0.578  0.3487 -0.5254 -0.0358
  487SOL    HW1 1460   1.685   0.241   0.601 -0.8250 -1.8485 -0.8030
  487SOL    HW2 1461   1.531   0.209   0.552  0.9491 -0.2331 -0.5782
  488SOL     OW 1462   2.230   0.812   0.916  0.0747  0.1302  0.3829
  488SOL    HW1 1463   2.183   0.904   0.925 -1.1574  2.6409 -1.6523
  488SOL    HW2 1464   2.160   0.742   0.922 -1.5641  1.0470  1.3114
  489SOL     OW 1465   1.024   2.987   1.272  0.4275  0.8468 -0.6999
  489SOL    HW1 1466   1.111   2.937   1.243  0.3844 -1.3777 -1.2322
  489SOL    HW2 1467   0.988   3.040   1.192 -0.8018  0.3169  2.9350
  490SOL     OW 1468   0.988   0.696   0.567  0.4190  0.7790  0.2403
  490SOL    HW1 1469   0.889   0.703   0.551  0.6055  1.8159 -2.1030
  490SOL    HW2 1470   1.018   0.790   0.593  1.0212 -0.6006 -1.4125
  491SOL     OW 1471   1.067   2.714   0.365 -0.4283  0.0619  0.3476
  491SOL    HW1 1472   1.118   2.770   0.434  0.4579  0.5596 -0.2105
  491SOL    HW2 1473   1.130   2.654   0.311  0.5271 -1.2748  2.2626
  492SOL     OW 1474   1.043   1.380   1.718 -0.1642 -0.3158 -0.1279
  492SOL    HW1 1475   1.052   1.481   1.732  1.7401 -1.4526 -0.8639
  492SOL    HW2 1476   1.073   1.320   1.799  2.6559 -1.3684 -0.9471
  493SOL     OW 1477   0.324   1.600   0.219  0.1563  0.5349 -0.1329
  493SOL    HW1 1478   0.342   1.660   0.303 -0.7448  0.5823  1.4478
  493SOL    HW2 1479   0.329   1.497   0.238 -2.1566 -1.0510  1.3883
  494SOL     OW 1480   1.832   1.830   0.165 -0.7218 -0.1885  0.0218
  494SOL    HW1 1481   1.871   1.812   0.258  1.2072 -2.0678 -1.2972
  494SOL    HW2 1482   1.729   1.839   0.165 -1.8078  0.3103 -0.1232
  495SOL     OW 1483   0.384   1.024   2.512 -0.4668 -0.4846 -0.4496
  495SOL    HW1 1484   0.339   0.934   2.539  0.5513 -1.3289  1.3053
  495SOL    HW2 1485   0.359   1.055   2.416 -1.1048  1.6704 -2.3058
  496SOL     OW 1486   0.518   0.063   2.345 -0.3373  0.0122 -0.5641
  496SOL    HW1 1487   0.434   0.101   2.386  0.8869  0.7040  0.4068
  496SOL    HW2 1488   0.500   3.047   2.303 -1.5907  0.3757  0.1104
  497SOL     OW 1489   1.673   1.282   0.472  0.1691 -0.5666 -0.0917
  497SOL    HW1 1490   1.693   1.339   0.387 -0.2770 -0.4746  0.3046
  497SOL    HW2 1491   1.747   1.210   0.487  1.1947 -0.6573 -0.2930
  498SOL     OW 1492   2.746   2.721   0.234 -0.7209 -0.0082 -0.3756
  498SOL    HW1 1493   2.798   2.639   0.260 -1.2189  1.2756 -0.3383
  498SOL    HW2 1494   2.652   2.709   0.278 -0.9317  1.9439  0.7067
  499SOL     OW 1495   1.830   2.542   0.519  0.0618  0.4800 -0.1820
  499SOL    HW1 1496   1.825   2.636   0.473 -1.6096  4.5491  0.0293
  499SOL    HW2 1497   1.921   2.502   0.500  0.0649  1.6379  1.1593
  500SOL     OW 1498   0.514   0.557   2.936 -0.2300 -0.0477  0.2269
  500SOL    HW1 1499   0.515   0.601   2.844 -0.0154 -0.5986  0.4162
  500SOL    HW2 1500   0.562   0.468   2.937  1.5013  2.6313  2.9502
  501SOL     OW 1501   1.403   2.818   1.594  0.4569  0.0096  0.2102
  501SOL    HW1 1502   1.479   2.795   1.660  1.0612 -1.1803  2.5869
  501SOL    HW2 1503   1.438   2.844   1.505 -1.8898 -1.7570 -0.5744
  502SOL     OW 1504   0.129   0.113   2.119 -0.1355  0.1331  0.3510
  502SOL    HW1 1505   0.171   0.031   2.163  3.2382 -0.6008 -0.9379
  502SOL    HW2 1506   0.124   0.093   2.021 -1.8897  4.0499 -0.5840
  503SOL     OW 1507   1.718   2.283   2.070 -0.1499  0.2180  0.0200
  503SOL    HW1 1508   1.799   2.339   2.095  1.1836 -2.6097  1.8886
  503SOL    HW2 1509   1.750   2.192   2.039  0.5722  3.4738  2.8090
  504SOL     OW 1510   2.092   0.205   1.672  0.1541  0.1295 -0.1177
  504SOL    HW1 1511   2.092   0.285   1.603  1.6280  1.5848  0.1665
  504SOL    HW2 1512   2.002   0.156   1.682  0.0011 -1.0201  0.9679
  505SOL     OW 1513   2.807   1.719   1.572  0.5437 -0.2569 -0.0750
  505SOL    HW1 1514   2.870   1.643   1.541  1.6216 -0.9331 -0.3504
  505SOL    HW2 1515   2.709   1.693   1.559  3.9020  1.9648  1.8276
  506SOL     OW 1516   0.291   1.304   2.220 -0.2972  0.0346 -0.3234
  506SOL    HW1 1517   0.307   1.324   2.319  3.1757  0.2356 -0.1782
  506SOL    HW2 1518   0.275   1.204   2.208  0.2596  1.2425 -0.1159
  507SOL     OW 1519   0.127   2.824   1.313 -0.2522 -0.4663  0.0015
  507SOL    HW1 1520   0.084   2.913   1.284  0.6038  0.7852  1.6109
  507SOL    HW2 1521   0.125   2.821   1.418 -2.4540  0.6307  0.9543
  508SOL     OW 1522   1.146   0.673   1.545 -0.2434  0.4325  0.2378
  508SOL    HW1 1523   1.094   0.598   1.491 -0.0420 -2.4189 -0.4937
  508SOL    HW2 1524   1.244   0.644   1.568 -1.0875  1.2343 -0.7535
  509SOL     OW 1525   1.852   2.363   1.837 -0.2501  0.2194  0.7259
  509SOL    HW1 1526   1.825   2.418   1.754 -0.5012 -2.4162 -1.8959
  509SOL    HW2 1527   1.780   2.357   1.912  2.2565  1.0974 -0.0562
  510SOL     OW 1528   2.232   1.390   3.016  0.2357  0.0283  0.0271
  510SOL    HW1 1529   2.306   1.457   3.045  3.8836  2.3849 -2.3158
  510SOL    HW2 1530   2.207   1.411   2.919  0.1446 -4.1201 -0.3680
  511SOL     OW 1531   0.511   1.330   1.499  0.2243  0.3453 -0.1277
  511SOL    HW1 1532   0.437   1.374   1.451  0.0296 -0.7241 -1.0010
  511SOL    HW2 1533   0.596   1.388   1.490 -1.2507 -2.4277  1.1854
  512SOL     OW 1534   2.677   1.875   0.278 -0.1148 -0.9861 -0.2928
  512SOL    HW1 1535   2.735   1.942   0.327 -1.3615 -1.1028  2.1420
  512SOL    HW2 1536   2.730   1.823   0.207 -0.3040  0.2533  0.0656
  513SOL     OW 1537   0.742   1.900   2.311 -0.2591  0.2361 -0.3080
  513SOL    HW1 1538   0.816   1.884   2.242  2.1274  2.5641 -1.1566
  513SOL    HW2 1539   0.699   1.814   2.352 -1.9094 -2.6195 -0.2454
  514SOL     OW 1540   0.194   2.129   1.993 -0.0420 -0.6282 -0.1116
  514SOL    HW1 1541   0.124   2.080   2.051  0.0245  0.9321 -1.0090
  514SOL    HW2 1542   0.140   2.152   1.912  1.4039 -1.6323  1.0274
  515SOL     OW 1543   1.919   1.369   1.731  0.8983  0.2330 -0.9155
  515SOL    HW1 1544   1.989   1.317   1.793 -0.0705  1.2924  0.6231
  515SOL    HW2 1545   1.835   1.307   1.728  0.3828 -2.2138  1.2780
  516SOL     OW 1546   2.230   2.625   0.230  0.0043  0.5143  0.5294
  516SOL    HW1 1547   2.291   2.694   0.180  0.7522  3.2925 -4.3439
  516SOL    HW2 1548   2.245   2.531   0.182  0.4049 -3.8676 -1.9159
  517SOL     OW 1549   0.860   1.574   0.327  0.0238  0.3474  0.3290
  517SOL    HW1 1550   0.961   1.566   0.299 -0.3473 -0.1409 -1.6415
  517SOL    HW2 1551   0.825   1.493   0.372 -0.6210  1.3552 -3.5855
  518SOL     OW 1552   1.870   2.768   1.496 -0.0476 -0.1056 -0.0554
  518SOL    HW1 1553   1.788   2.759   1.433  0.6054  1.2276  0.5922
  518SOL    HW2 1554   1.955   2.723   1.459 -2.0427  2.1434 -0.3097
  519SOL     OW 1555   2.178   2.588   1.127  0.0700 -0.0109  0.2489
  519SOL    HW1 1556   2.265   2.613   1.077 -0.9421  0.0428  0.5346
  519SOL    HW2 1557   2.127   2.519   1.071  1.3331 -0.4268 -0.5672
  520SOL     OW 1558   2.853   2.112   2.129  0.2176 -0.0803  0.0558
  520SOL    HW1 1559   2.758   2.071   2.133 -2.7546 -0.2252 -0.9859
  520SOL    HW2 1560   2.860   2.188   2.061 -0.9016 -1.1599  0.3415
  521SOL     OW 1561   2.695   0.936   2.395 -0.1309  0.2274 -0.5220
  521SOL    HW1 1562   2.687   1.036   2.399  2.3893 -2.3844 -0.3423
  521SOL    HW2 1563   2.611   0.900   2.446  0.3356  1.1693  0.0350
  522SOL     OW 1564   0.898   0.887   2.469  0.2830 -0.3161  0.1317
  522SOL    HW1 1565   0.952   0.838   2.542 -1.2077 -1.0910 -0.0019
  522SOL    HW2 1566   0.918   0.856   2.372  3.5344 -0.3017 -0.4982
  523SOL     OW 1567   0.119   2.089   0.883 -0.2717  0.0137  0.1022
  523SOL    HW1 1568   0.141   1.993   0.910 -0.9859  0.9891  2.1881
  523SOL    HW2 1569   0.122   2.147   0.967 -1.3950 -1.9095  1.4079
  524SOL     OW 1570   1.993   2.632   2.948  0.3587  0.6932  0.1353
  524SOL    HW1 1571   1.999   2.681   3.033 -3.1269 -1.2050 -0.4994
  524SOL    HW2 1572   1.964   2.692   2.873 -2.1922  1.8617  1.0642
  525SOL     OW 1573   2.337   0.517   1.325  0.3032  0.0790  0.6615
  525SOL    HW1 1574   2.439   0.538   1.319  2.5875  1.2721  0.8292
  525SOL    HW2 1575   2.330   0.412   1.309  0.0765 -3.0568  3.7238
  526SOL     OW 1576   1.028   2.535   0.576 -0.1949  0.1873  0.1532
  526SOL    HW1 1577   0.950   2.545   0.644 -2.5731 -0.2403  0.0959
  526SOL    HW2 1578   1.001   2.579   0.482 -0.5303  1.1196 -3.0596
  527SOL     OW 1579   2.155   2.806   0.472 -0.4582  0.0452  0.3201
  527SOL    HW1 1580   2.217   2.797   0.550 -0.8673 -0.5496 -0.5897
  527SOL    HW2 1581   2.180   2.750   0.391 -0.1937 -0.3300 -0.3494
  528SOL     OW 1582   1.667   0.863   0.364 -0.0559  0.7566 -0.3503
  528SOL    HW1 1583   1.752   0.897   0.323 -1.6352  2.6598 -0.5806
  528SOL    HW2 1584   1.606   0.830   0.286 -4.9816 -0.9825  0.2732
  529SOL     OW 1585   1.364   1.604   2.369 -0.1167 -0.0732  0.2188
  529SOL    HW1 1586   1.388   1.581   2.465 -0.2633  2.5153 -2.8197
  529SOL    HW2 1587   1.276   1.648   2.360  2.4333 -0.6630 -0.9410
  530SOL     OW 1588   2.261   3.037   0.135 -0.1759  0.5554 -0.2837
  530SOL    HW1 1589   2.205   0.034   0.179  1.4375 -1.1125 -0.3460
  530SOL    HW2 1590   2.229   3.017   0.039 -2.5562  1.4358 -2.0749
  531SOL     OW 1591   1.571   1.035   0.017  0.5920  0.8785  0.5252
  531SOL    HW1 1592   1.667   1.014   3.061  0.7769  1.6374  1.0778
  531SOL    HW2 1593   1.502   1.004   3.021 -1.0256  0.3034  0.0680
  532SOL     OW 1594   1.557   0.412   0.808  0.6792  0.0558 -0.2902
  532SOL    HW1 1595   1.567   0.353   0.725 -3.4056  1.7801 -0.4483
  532SOL    HW2 1596   1.645   0.448   0.844  1.5792  0.1760  0.6291
  533SOL     OW 1597   0.515   0.713   2.725  0.6012  0.2364  0.0680
  533SOL    HW1 1598   0.570   0.736   2.643 -0.7548 -1.2859 -1.3034
  533SOL    HW2 1599   0.421   0.685   2.699  0.7686 -1.7208 -0.1252
  534SOL     OW 1600   1.405   0.280   0.037 -0.8575  0.1284  0.0093
  534SOL    HW1 1601   1.387   0.291   0.135 -0.5549  0.7055 -0.8687
  534SOL    HW2 1602   1.509   0.289   0.033 -1.0536  0.1576  0.2791
  535SOL     OW 1603   0.400   2.502   2.901  0.3693 -0.0759  0.0875
  535SOL    HW1 1604   0.424   2.412   2.934 -0.3011  0.9411 -0.1764
  535SOL    HW2 1605   0.308   2.505   2.859 -0.1223  1.1322  0.6803
  536SOL     OW 1606   0.454   2.904   0.461  0.0163  0.0784  0.1422
  536SOL    HW1 1607   0.517   2.981   0.479 -0.3472 -3.4110  1.8288
  536SOL    HW2 1608   0.502   2.814   0.480  1.7139 -1.3522 -0.2703
  537SOL     OW 1609   1.642   0.548   0.160 -0.0719  0.5006  0.2434
  537SOL    HW1 1610   1.585   0.629   0.141  0.9180  0.3946  0.9950
  537SOL    HW2 1611   1.624   0.534   0.259  0.1606  1.7004 -1.0886
  538SOL     OW 1612   2.683   2.035   3.031  0.2072  0.0623  0.0237
  538SOL    HW1 1613   2.763   1.975   3.052 -2.2212  2.1931  1.2460
  538SOL    HW2 1614   2.606   1.984   2.991 -0.5934  1.3162  1.4943
  539SOL     OW 1615   2.263   1.975   2.930  0.2721  0.0413  0.4001
  539SOL    HW1 1616   2.201   1.895   2.917  0.0829 -1.1136  1.1647
  539SOL    HW2 1617   2.270   2.009   3.026 -0.1850  0.7413 -0.2938
  540SOL     OW 1618   0.875   2.818   1.887  0.0302  0.0341  0.3528
  540SOL    HW1 1619   0.923   2.741   1.928 -1.3825 -0.8236 -1.1801
  540SOL    HW2 1620   0.780   2.781   1.866  1.9858  0.3541 -4.7314
  541SOL     OW 1621   2.585   0.032   2.097 -0.1538  0.4147  0.0270
  541SOL    HW1 1622   2.543   0.121   2.081  2.0850 -3.0161 -0.5039
  541SOL    HW2 1623   2.536   3.038   2.038  1.5210  3.3759  0.2244
  542SOL     OW 1624   0.213   0.858   2.645  0.2633  0.0729  0.1715
  542SOL    HW1 1625   0.213   0.923   2.722 -1.0161  0.3620  0.4325
  542SOL    HW2 1626   0.174   0.769   2.674 -0.8456 -0.6809  1.8122
  543SOL     OW 1627   0.249   0.742   0.804  0.4854  0.1432 -0.3033
  543SOL    HW1 1628   0.325   0.687   0.842 -0.2565  0.4283 -0.9116
  543SOL    HW2 1629   0.162   0.700   0.826  1.6638 -1.0692  1.1339
  544SOL     OW 1630   2.603   0.640   1.311  0.1104 -0.3489 -0.3191
  544SOL    HW1 1631   2.681   0.585   1.274 -1.2642  0.3494 -0.0761
  544SOL    HW2 1632   2.634   0.697   1.390 -2.2056  1.9115  2.8892
  545SOL     OW 1633   1.328   1.923   0.574 -0.2702 -0.2208  0.6106
  545SOL    HW1 1634   1.239   1.968   0.547  0.6592  0.1713 -1.6464
  545SOL    HW2 1635   1.369   1.961   0.661  1.1156  1.1058 -0.7435
  546SOL     OW 1636   2.295   2.840   1.462  0.0132  0.6938 -0.2254
  546SOL    HW1 1637   2.205   2.790   1.434  1.2816  2.4147 -1.5335
  546SOL    HW2 1638   2.359   2.852   1.384 -1.7102  0.3782 -0.2690
  547SOL     OW 1639   0.501   2.312   2.211  0.1506 -0.0053 -0.2218
  547SOL    HW1 1640   0.563   2.241   2.180 -0.9860  1.4470  2.8026
  547SOL    HW2 1641   0.444   2.344   2.133 -2.9393 -1.9905  0.4634
  548SOL     OW 1642   1.282   0.728   2.957 -0.1420 -0.2650  0.9694
  548SOL    HW1 1643   1.303   0.654   3.026  0.8330 -2.9138 -0.0756
  548SOL    HW2 1644   1.186   0.713   2.934 -1.8771 -2.1862  0.1461
  549SOL     OW 1645   2.645   0.754   0.246 -0.1780 -0.4316 -0.3756
  549SOL    HW1 1646   2.644   0.653   0.264  3.2216 -3.6776 -1.0837
  549SOL    HW2 1647   2.702   0.810   0.309  0.1661 -0.0909  1.0713
  550SOL     OW 1648   2.117   1.524   0.637 -0.1172  0.6565 -0.0357
  550SOL    HW1 1649   2.141   1.608   0.577 -0.7384  1.9853  1.3449
  550SOL    HW2 1650   2.059   1.453   0.592  0.8814  0.2470 -0.0607
  551SOL     OW 1651   1.092   0.274   0.943  0.4324 -0.0767  0.4611
  551SOL    HW1 1652   1.181   0.312   0.974 -1.0352 -0.4073 -1.8597
  551SOL    HW2 1653   1.107   0.246   0.843  1.1385  0.6066 -1.7017
  552SOL     OW 1654   2.342   2.868   2.172  0.8508  0.2817 -0.4872
  552SOL    HW1 1655   2.265   2.804   2.194 -1.0734  2.8437  1.1431
  552SOL    HW2 1656   2.322   2.958   2.211 -0.8569  0.3523 -0.7608
  553SOL     OW 1657   0.464   2.878   2.262 -0.5440  0.2490 -0.2247
  553SOL    HW1 1658   0.523   2.832   2.191 -2.4597  1.0525 -1.3162
  553SOL    HW2 1659   0.469   2.821   2.350 -2.0994 -0.2691  1.0806
  554SOL     OW 1660   0.473   3.016   1.102 -0.0917 -0.5929 -1.0780
  554SOL    HW1 1661   0.461   0.034   1.148 -0.8815  4.1664  1.0738
  554SOL    HW2 1662   0.531   2.957   1.157 -1.5235  0.7592  0.4133
  555SOL     OW 1663   2.625   1.971   2.142  0.3117 -0.0056 -0.2957
  555SOL    HW1 1664   2.561   2.004   2.069 -2.4870  0.4848 -2.3315
  555SOL    HW2 1665   2.603   2.006   2.237 -0.1344  0.5177  0.2106
  556SOL     OW 1666   1.071   0.367   3.038  0.0935  0.6632 -0.0219
  556SOL    HW1 1667   0.977   0.349   0.006 -1.5360 -0.5417 -1.0878
  556SOL    HW2 1668   1.088   0.307   2.955 -0.4517 -2.6026 -0.2277
  557SOL     OW 1669   0.327   1.933   2.375  0.2341  0.2200  0.5231
  557SOL    HW1 1670   0.336   2.034   2.405 -2.0042 -0.3517 -1.6930
  557SOL    HW2 1671   0.362   1.919   2.281  1.8956  1.3188 -0.2451
  558SOL     OW 1672   2.207   0.752   2.926  0.4212  0.3546  0.0870
  558SOL    HW1 1673   2.212   0.790   2.831  1.0182 -3.0636  0.2159
  558SOL    HW2 1674   2.283   0.681   2.928  2.2872 -0.1159  1.3653
  559SOL     OW 1675   2.423   1.835   1.703 -0.0268  0.5886 -0.1351
  559SOL    HW1 1676   2.493   1.793   1.639 -0.0834 -0.0199 -1.4291
  559SOL    HW2 1677   2.324   1.803   1.690  0.4151 -0.7032  0.5282
  560SOL     OW 1678   2.114   0.846   1.930  0.2710  0.2696  0.7069
  560SOL    HW1 1679   2.172   0.766   1.901  1.1653  2.0651  2.1068
  560SOL    HW2 1680   2.161   0.934   1.908 -1.6635  0.9517 -1.4932
  561SOL     OW 1681   0.047   0.116   2.617 -0.2168 -0.0059 -0.0710
  561SOL    HW1 1682   3.041   0.132   2.557  0.9475  3.2223  2.3243
  561SOL    HW2 1683   0.016   0.126   2.715  2.5490 -0.1407 -1.1751
  562SOL     OW 1684   1.269   1.215   1.423  0.1852  0.1176 -0.1175
  562SOL    HW1 1685   1.267   1.286   1.496  0.9834 -1.3766 -1.0747
  562SOL    HW2 1686   1.178   1.176   1.407  1.5750 -0.0064 -0.0372
  563SOL     OW 1687   1.086   0.174   2.822  0.0593  0.5910 -0.2197
  563SOL    HW1 1688   1.104   0.075   2.811 -0.9079 -0.2944 -2.0129
  563SOL    HW2 1689   1.144   0.223   2.750  1.8715  2.4312  0.5116
  564SOL     OW 1690   2.965   2.000   0.749 -0.0558 -0.0983 -0.5239
  564SOL    HW1 1691   3.065   1.991   0.777  2.7180  0.3052  1.6786
  564SOL    HW2 1692   2.931   2.094   0.773 -0.7021  0.2597 -0.5584
  565SOL     OW 1693   0.516   1.807   1.321 -0.6754 -0.0274 -0.1374
  565SOL    HW1 1694   0.448   1.770   1.385  0.6210  2.4454 -1.9879
  565SOL    HW2 1695   0.525   1.907   1.327  0.7475 -1.9821  2.8159
  566SOL     OW 1696   1.439   2.639   2.140  0.7848  0.6670  0.4354
  566SOL    HW1 1697   1.386   2.693   2.068 -4.6931  1.9637 -1.7612
  566SOL    HW2 1698   1.396   2.648   2.230  1.2520  2.3201 -0.6349
  567SOL     OW 1699   2.353   2.808   0.672 -0.2420 -0.0305  0.2328
  567SOL    HW1 1700   2.335   2.891   0.730  0.2265 -0.5248  2.4314
  567SOL    HW2 1701   2.454   2.787   0.677  0.6808 -0.3347 -1.0745
  568SOL     OW 1702   1.650   1.265   0.751  0.4819 -0.0130 -0.1505
  568SOL    HW1 1703   1.565   1.224   0.793  1.7554  0.2541 -0.6932
  568SOL    HW2 1704   1.629   1.287   0.652  0.4192 -1.9968 -2.1116
  569SOL     OW 1705   3.039   1.508   2.607  0.3843 -0.3140  0.0055
  569SOL    HW1 1706   2.959   1.547   2.652  0.4219 -0.8385 -0.7649
  569SOL    HW2 1707   3.060   1.419   2.650  1.7568  1.8270 -1.5796
  570SOL     OW 1708   3.042   0.085   1.609  0.0211 -0.5945  0.5422
  570SOL    HW1 1709   0.058   0.097   1.556 -0.4161 -0.0585 -2.7269
  570SOL    HW2 1710   2.982   0.017   1.564 -2.4218 -2.0378  1.7813
  571SOL     OW 1711   0.385   0.134   1.713 -0.0222  0.5732  0.7494
  571SOL    HW1 1712   0.436   0.132   1.803  0.6167  3.2406  3.4605
  571SOL    HW2 1713   0.419   0.210   1.649  2.5600 -1.1985 -0.4586
  572SOL     OW 1714   2.918   2.688   1.425  0.3986 -0.0120  0.1657
  572SOL    HW1 1715   3.003   2.657   1.378 -1.3741 -1.5505  1.2559
  572SOL    HW2 1716   2.906   2.628   1.507 -1.3382  0.4502  1.3505
  573SOL     OW 1717   0.920   0.781   0.195 -0.2310 -0.2991  0.1843
  573SOL    HW1 1718   0.884   0.776   0.099  0.8207  1.3845 -0.2936
  573SOL    HW2 1719   0.989   0.708   0.217  2.4623  0.9411  0.2102
  574SOL     OW 1720   2.165   2.982   2.960  0.1024 -0.4360 -0.1615
  574SOL    HW1 1721   2.156   3.058   2.890 -1.1704  0.1122 -0.0416
  574SOL    HW2 1722   2.213   2.900   2.916 -3.3092 -0.1405 -0.6891
  575SOL     OW 1723   1.309   2.596   1.237 -0.3508  0.0459  0.2093
  575SOL    HW1 1724   1.293   2.580   1.336  0.7144  0.6628 -2.8307
  575SOL    HW2 1725   1.348   2.513   1.196 -1.6553 -1.2681 -0.5560
  576SOL     OW 1726   0.962   0.080   1.053 -0.6585  0.3044  0.0862
  576SOL    HW1 1727   1.015   0.156   1.011  1.1831  0.7521 -1.1385
  576SOL    HW2 1728   0.869   0.112   1.087 -1.6736 -1.0942  1.5555
  577SOL     OW 1729   2.217   1.238   0.972 -0.5585 -0.0135 -0.6677
  577SOL    HW1 1730   2.238   1.304   0.896 -2.4032 -1.6653  3.6345
  577SOL    HW2 1731   2.143   1.168   0.958 -1.5838 -2.1691  0.7010
  578SOL     OW 1732   1.661   0.510   0.427  0.2273 -0.5710  0.0271
  578SOL    HW1 1733   1.651   0.425   0.487 -1.2428 -2.8432 -0.5998
  578SOL    HW2 1734   1.759   0.545   0.419  2.4333 -0.2468 -0.0514
  579SOL     OW 1735   1.939   0.745   2.840 -0.2398 -0.6023  0.4338
  579SOL    HW1 1736   2.027   0.745   2.889  2.5072 -2.2236  1.1666
  579SOL    HW2 1737   1.898   0.653   2.842 -0.4468  0.2580  0.0936
  580SOL     OW 1738   1.718   0.790   2.141  0.0042  0.3861  0.2851
  580SOL    HW1 1739   1.715   0.730   2.220  2.0038 -0.0987 -2.6707
  580SOL    HW2 1740   1.637   0.782   2.079  2.4786  2.6499  0.9067
  581SOL     OW 1741   0.462   0.557   0.818 -0.5175  0.2952  0.0557
  581SOL    HW1 1742   0.515   0.512   0.895  0.7122 -3.6144  1.8332
  581SOL    HW2 1743   0.485   0.531   0.721  0.8987  3.8644 -3.0339
  582SOL     OW 1744   2.873   0.092   1.830  0.1429  0.4798 -0.2917
  582SOL    HW1 1745   2.913   0.072   1.739 -4.5265 -0.0125  1.5002
  582SOL    HW2 1746   2.834   0.188   1.827  0.5997 -1.0917 -2.4500
  583SOL     OW 1747   0.414   0.718   2.390  0.2935  0.0668 -0.3371
  583SOL    HW1 1748   0.499   0.774   2.418  2.2851  0.6587  1.6037
  583SOL    HW2 1749   0.408   0.632   2.442  1.8098 -0.8260 -1.2495
  584SOL     OW 1750   1.777   2.187   2.954  0.0468 -0.6194  0.6239
  584SOL    HW1 1751   1.814   2.194   2.857 -1.0735 -1.9018  0.3223
  584SOL    HW2 1752   1.702   2.250   2.969  2.4008 -1.8683  1.6875
  585SOL     OW 1753   0.424   2.225   2.921 -0.1295 -0.0232 -0.4893
  585SOL    HW1 1754   0.372   2.154   2.876  2.5304  3.3456 -0.7988
  585SOL    HW2 1755   0.420   2.214   3.022 -0.6919 -0.7349 -0.4905
  586SOL     OW 1756   2.101   2.098   2.631  0.4161 -0.7076 -0.7735
  586SOL    HW1 1757   2.167   2.158   2.675 -0.5911 -1.0857 -0.5728
  586SOL    HW2 1758   2.138   2.013   2.604  1.4296  1.6527 -0.2635
  587SOL     OW 1759   2.518   1.884   2.889  0.1069  0.2408  0.4019
  587SOL    HW1 1760   2.431   1.918   2.924  1.5716 -2.9785 -2.9968
  587SOL    HW2 1761   2.504   1.794   2.842  0.3868 -0.1647  2.0863
  588SOL     OW 1762   3.004   0.589   0.894 -0.7871 -0.3270 -0.5339
  588SOL    HW1 1763   2.932   0.618   0.830  0.7654  0.8153  0.5670
  588SOL    HW2 1764   3.066   0.515   0.861 -2.6831 -1.1058  1.6571
  589SOL     OW 1765   0.952   0.442   0.428  0.6215 -0.2638  0.3830
  589SOL    HW1 1766   1.000   0.498   0.357  3.1016  2.5560  0.5382
  589SOL    HW2 1767   0.958   0.491   0.520 -1.8130 -0.7899  3.0774
  590SOL     OW 1768   2.118   2.146   0.490 -0.2377 -0.4167 -0.3575
  590SOL    HW1 1769   2.034   2.127   0.435  0.2527 -2.1933 -0.4302
  590SOL    HW2 1770   2.095   2.119   0.586 -1.0649 -1.4380  1.8007
  591SOL     OW 1771   0.363   2.283   1.153 -0.1163  0.0652 -0.0545
  591SOL    HW1 1772   0.264   2.281   1.146  1.5110  0.7592 -2.2822
  591SOL    HW2 1773   0.415   2.297   1.067 -0.3722 -2.4136  0.7911
  592SOL     OW 1774   1.375   0.644   1.195 -0.0527 -0.4650 -0.4638
  592SOL    HW1 1775   1.325   0.662   1.106  1.1738 -0.4653 -2.3185
  592SOL    HW2 1776   1.352   0.721   1.261 -1.8259 -1.8637  1.0468
  593SOL     OW 1777   0.894   1.870   1.408  0.0953 -0.1820  0.6546
  593SOL    HW1 1778   0.900   1.792   1.340 -2.7780 -0.7625  2.1333
  593SOL    HW2 1779   0.809   1.864   1.462  0.9636  2.7299  0.0920
  594SOL     OW 1780   0.979   1.979   0.315  0.1394 -0.2581  0.2453
  594SOL    HW1 1781   0.988   1.944   0.221 -0.4337 -0.5097  3.1487
  594SOL    HW2 1782   0.914   1.919   0.369  0.6574  0.9063 -0.3781
  595SOL     OW 1783   1.677   0.591   1.534 -0.0902  0.0703  0.5539
  595SOL    HW1 1784   1.713   0.523   1.464  0.8655 -1.7465 -3.8012
  595SOL    HW2 1785   1.737   0.596   1.616  1.3472 -3.1508  1.6424
  596SOL     OW 1786   2.954   0.675   1.820  0.3721  0.0922  0.4667
  596SOL    HW1 1787   3.018   0.700   1.894 -0.8934 -0.7815 -2.2446
  596SOL    HW2 1788   2.961   0.747   1.743 -2.4751 -0.0256  1.3396
  597SOL     OW 1789   1.017   2.611   2.038  0.3795 -0.1237 -0.4227
  597SOL    HW1 1790   0.965   2.526   2.048  3.2503 -0.1027 -1.2093
  597SOL    HW2 1791   1.041   2.659   2.126 -1.5568  2.4762 -1.3426
  598SOL     OW 1792   2.431   1.475   1.820  0.7362  0.5125  0.9520
  598SOL    HW1 1793   2.448   1.573   1.847 -1.7019  1.5180 -0.6926
  598SOL    HW2 1794   2.516   1.421   1.796  0.7070  0.5113 -0.6723
  599SOL     OW 1795   0.631   2.820   0.149 -0.4797  0.9743 -0.1769
  599SOL    HW1 1796   0.542   2.773   0.130  0.6828  0.2507  0.0508
  599SOL    HW2 1797   0.655   2.891   0.081 -2.4682 -0.9174  2.6396
  600SOL     OW 1798   3.050   2.431   0.035  0.4727  0.2597  0.0833
  600SOL    HW1 1799   0.002   2.505   0.102 -0.6547 -2.6163 -2.4123
  600SOL    HW2 1800   2.956   2.387   0.047  4.1472 -0.4692 -1.7843
  601SOL     OW 1801   0.406   0.764   1.380 -0.2389  0.5538  0.0644
  601SOL    HW1 1802   0.312   0.716   1.365 -2.7649  0.6335  0.9431
  601SOL    HW2 1803   0.420   0.804   1.475 -1.0384 -0.6367 -0.3469
  602SOL     OW 1804   0.461   0.117   0.725  0.7767 -0.5578 -1.0352
  602SOL    HW1 1805   0.486   0.049   0.797  0.1504 -1.0830  1.6013
  602SOL    HW2 1806   0.426   0.204   0.765 -0.2798  0.3116 -0.1907
  603SOL     OW 1807   0.410   0.311   2.702  0.1698  0.5203  0.2235
  603SOL    HW1 1808   0.326   0.288   2.760  0.4283 -0.9326 -0.1148
  603SOL    HW2 1809   0.488   0.300   2.767 -1.4931 -0.4903 -0.2139
  604SOL     OW 1810   0.820   2.599   1.603  0.0511 -1.0408 -0.2979
  604SOL    HW1 1811   0.804   2.635   1.696 -1.1787  0.7074  2.9926
  604SOL    HW2 1812   0.771   2.508   1.595 -0.4112 -0.6628  0.0002
  605SOL     OW 1813   1.459   1.275   2.118 -0.3957  0.1001 -0.1551
  605SOL    HW1 1814   1.380   1.331   2.148  0.1959 -4.6758  3.0575
  605SOL    HW2 1815   1.442   1.237   2.025  2.2836 -1.6841  0.7176
  606SOL     OW 1816   1.944   2.855   2.812  0.1191  0.4909 -0.0079
  606SOL    HW1 1817   1.996   2.869   2.724 -0.0446 -2.2320 -0.6296
  606SOL    HW2 1818   1.997   2.897   2.890  1.1528  0.7188 -1.0174
  607SOL     OW 1819   1.016   0.311   1.670  0.0487 -0.1954  0.0799
  607SOL    HW1 1820   1.103   0.339   1.710 -0.2330  0.3045  0.4975
  607SOL    HW2 1821   1.028   0.271   1.574  1.4434  0.8125  1.1354
  608SOL     OW 1822   0.141   2.030   2.595  0.1617  0.7254  0.4890
  608SOL    HW1 1823   0.202   1.988   2.521  0.3137 -1.1454  0.9596
  608SOL    HW2 1824   0.193   2.084   2.661  1.7730 -1.6881 -1.3332
  609SOL     OW 1825   1.191   1.336   0.490  1.0764 -0.9091  0.4023
  609SOL    HW1 1826   1.106   1.278   0.470 -1.8348 -1.6278 -0.4069
  609SOL    HW2 1827   1.193   1.411   0.422 -0.1038 -0.4758  2.2060
  610SOL     OW 1828   0.242   0.220   0.988  0.1827 -0.4763 -0.6755
  610SOL    HW1 1829   0.248   0.128   1.030 -1.1113 -2.5221  1.8802
  610SOL    HW2 1830   0.232   0.292   1.064  0.3098  1.9883  3.5713
  611SOL     OW 1831   1.238   1.116   0.642  0.4571 -0.3217  0.4429
  611SOL    HW1 1832   1.213   1.200   0.592 -0.6756 -0.7466  0.0978
  611SOL    HW2 1833   1.269   1.048   0.577 -0.9473  2.0244 -0.7552
  612SOL     OW 1834   1.995   1.615   0.097  0.0906  0.1256  0.3990
  612SOL    HW1 1835   1.934   1.692   0.126 -2.2405  3.0636 -0.6565
  612SOL    HW2 1836   1.950   1.528   0.114 -0.3666  2.6368  0.1465
  613SOL     OW 1837   1.611   1.407   0.106 -0.0044 -0.4324 -0.5998
  613SOL    HW1 1838   1.588   1.434   0.009 -1.9531  1.1055 -2.5889
  613SOL    HW2 1839   1.558   1.324   0.139 -2.5611 -0.0241  0.8275
  614SOL     OW 1840   2.747   0.358   2.419  0.0903 -0.2516  0.1420
  614SOL    HW1 1841   2.737   0.395   2.326 -0.3023 -1.2533 -1.7703
  614SOL    HW2 1842   2.824   0.290   2.425 -1.3333 -1.4626  0.1984
  615SOL     OW 1843   0.765   1.656   0.639 -0.4326 -0.2923  0.0488
  615SOL    HW1 1844   0.856   1.632   0.679 -1.2906  0.0043  2.9227
  615SOL    HW2 1845   0.755   1.740   0.583  1.6644 -1.0701  2.0073
  616SOL     OW 1846   1.551   0.928   2.657  0.0238  0.3287 -0.3197
  616SOL    HW1 1847   1.562   1.020   2.614 -0.0450  0.1784 -1.8180
  616SOL    HW2 1848   1.495   0.937   2.746 -1.2690  1.2493  2.2489
  617SOL     OW 1849   1.362   0.311   0.302  0.2959  0.1070 -0.2294
  617SOL    HW1 1850   1.359   0.401   0.353 -3.3299  1.2886  1.9631
  617SOL    HW2 1851   1.289   0.254   0.335 -0.0664  0.2720  0.4696
  618SOL     OW 1852   2.830   1.751   2.212  0.0215  0.0875 -0.4358
  618SOL    HW1 1853   2.788   1.838   2.182  0.9391 -2.4939  1.6898
  618SOL    HW2 1854   2.844   1.756   2.311  0.3442  0.1017 -1.0351
  619SOL     OW 1855   2.321   1.713   0.860  0.1145 -0.1912 -0.3172
  619SOL    HW1 1856   2.232   1.748   0.897  0.4176 -0.9860 -1.2844
  619SOL    HW2 1857   2.334   1.744   0.766 -2.1169 -2.1203  0.9665
  620SOL     OW 1858   2.432   3.040   1.613  0.1453 -0.2001  0.0661
  620SOL    HW1 1859   2.366   2.986   1.558 -0.2005 -3.0070 -2.3601
  620SOL    HW2 1860   2.521   3.041   1.569 -1.6311 -0.8756 -0.4307
  621SOL     OW 1861   2.840   1.812   0.643  0.0762 -0.2738 -0.4776
  621SOL    HW1 1862   2.887   1.728   0.675  1.4628 -0.4726 -0.6391
  621SOL    HW2 1863   2.893   1.896   0.675 -1.2182  0.0512  0.2708
  622SOL     OW 1864   0.602   1.646   2.346  0.3549 -0.1722 -0.2282
  622SOL    HW1 1865   0.525   1.683   2.403 -2.3637  0.9248  1.6823
  622SOL    HW2 1866   0.616   1.548   2.373 -0.3378  0.7663  2.9542
  623SOL     OW 1867   2.738   2.800   2.771  0.0546 -0.1110 -0.3972
  623SOL    HW1 1868   2.790   2.727   2.733 -2.3683  0.5674  1.2974
  623SOL    HW2 1869   2.757   2.811   2.871 -1.1885 -3.5523 -1.1223
  624SOL     OW 1870   0.793   1.814   0.398  0.2226 -0.4541 -0.2728
  624SOL    HW1 1871   0.825   1.720   0.364  1.4506 -1.8786  1.1997
  624SOL    HW2 1872   0.711   1.849   0.352  1.3780 -0.3165  1.6483
  625SOL     OW 1873   0.625   2.069   2.129 -0.0710 -0.0925  0.1253
  625SOL    HW1 1874   0.673   2.000   2.191 -0.9832 -2.0472 -2.6172
  625SOL    HW2 1875   0.521   2.045   2.127  0.3242 -0.8131  1.2990
  626SOL     OW 1876   0.227   2.337   0.336  0.1930 -0.1453  0.2590
  626SOL    HW1 1877   0.190   2.329   0.432  2.7310 -1.3970 -1.2768
  626SOL    HW2 1878   0.197   2.264   0.275 -1.6744  0.0246  1.0480
  627SOL     OW 1879   0.965   1.360   2.891  0.2291  0.0349 -0.5539
  627SOL    HW1 1880   0.967   1.263   2.866 -0.0316 -0.7157  1.2730
  627SOL    HW2 1881   0.900   1.418   2.837 -1.1323 -3.2390  1.2100
  628SOL     OW 1882   1.592   2.242   0.761 -0.2724 -0.2399  0.2711
  628SOL    HW1 1883   1.527   2.166   0.780  1.0256 -0.3741 -1.5406
  628SOL    HW2 1884   1.685   2.207   0.758 -0.4512  1.7374 -1.3782
  629SOL     OW 1885   0.771   0.259   1.632  0.7102  0.6628  0.4953
  629SOL    HW1 1886   0.735   0.160   1.632 -1.1641 -2.2380 -0.7319
  629SOL    HW2 1887   0.870   0.267   1.649 -0.2178 -0.2248 -1.1754
  630SOL     OW 1888   2.544   0.417   1.630 -0.1139 -0.4381 -0.1350
  630SOL    HW1 1889   2.468   0.352   1.649  2.2038  0.0030 -2.0900
  630SOL    HW2 1890   2.517   0.516   1.647 -1.2663 -1.2585 -0.1613
  631SOL     OW 1891   1.345   0.375   1.000  0.0450  0.0649 -0.4412
  631SOL    HW1 1892   1.418   0.396   0.931 -0.6937 -0.1708  2.4843
  631SOL    HW2 1893   1.335   0.457   1.061 -0.4122 -1.0342 -1.7599
  632SOL     OW 1894   2.716   0.707   1.994  0.3392  0.0944  0.2432
  632SOL    HW1 1895   2.645   0.638   2.004 -0.6797  1.3404 -2.7059
  632SOL    HW2 1896   2.793   0.675   1.936  2.9079 -1.6366  2.0832
  633SOL     OW 1897   1.266   1.160   2.831 -0.0236  0.2072  0.2346
  633SOL    HW1 1898   1.267   1.228   2.907  1.1535  0.0356  0.7312
  633SOL    HW2 1899   1.250   1.210   2.747 -2.9087  1.8238  1.7714
  634SOL     OW 1900   0.485   2.188   0.113 -0.3625  0.0880 -0.0717
  634SOL    HW1 1901   0.537   2.273   0.132  0.8546 -0.3617  1.5550
  634SOL    HW2 1902   0.541   2.110   0.144 -2.1324 -0.6691 -1.3119
  635SOL     OW 1903   2.898   1.570   1.862 -0.5088  0.0870  0.2956
  635SOL    HW1 1904   2.831   1.643   1.881 -0.7718 -0.1809  0.5590
  635SOL    HW2 1905   2.908   1.521   1.952  0.4457  0.0355  0.4135
  636SOL     OW 1906   0.087   1.692   0.123 -0.4285 -0.2228  0.7241
  636SOL    HW1 1907   0.021   1.626   0.156 -1.5672  0.9173 -2.5214
  636SOL    HW2 1908   0.178   1.676   0.161 -3.9196 -0.2238 -0.0155
  637SOL     OW 1909   0.016   2.275   0.513  0.1100  0.4000 -0.0829
  637SOL    HW1 1910   3.038   2.198   0.468 -0.6025 -2.2377 -2.3242
  637SOL    HW2 1911   3.021   2.342   0.549 -0.0564 -2.7675  1.4345
  638SOL     OW 1912   2.525   2.711   0.386  0.2275  0.5433  0.2758
  638SOL    HW1 1913   2.489   2.618   0.409  2.0548 -2.2246 -1.4692
  638SOL    HW2 1914   2.457   2.760   0.329  1.3694  3.7115  0.3678
  639SOL     OW 1915   1.113   0.598   0.272  0.1584  0.3389 -0.1910
  639SOL    HW1 1916   1.146   0.570   0.364  0.4981 -0.5113  0.8195
  639SOL    HW2 1917   1.180   0.588   0.197 -1.1857 -0.2180 -1.6725
  640SOL     OW 1918   2.352   2.219   1.545  0.2100 -0.0370 -0.4291
  640SOL    HW1 1919   2.375   2.171   1.632 -2.2277  0.0097 -1.9468
  640SOL    HW2 1920   2.429   2.272   1.504  0.9172  0.7790 -1.4821
  641SOL     OW 1921   2.835   3.067   1.072  0.1613 -0.4990 -0.5910
  641SOL    HW1 1922   2.850   3.003   0.996 -0.7010  0.2678  0.1284
  641SOL    HW2 1923   2.913   3.052   1.141  1.6023  1.6729  1.0427
  642SOL     OW 1924   1.569   0.856   1.498  0.1423  0.1654 -0.4607
  642SOL    HW1 1925   1.599   0.761   1.510  0.4684  0.1057  0.6657
  642SOL    HW2 1926   1.614   0.900   1.419  3.1511  0.1130  0.2721
  643SOL     OW 1927   0.968   1.813   2.157  0.1615 -0.0566  0.0036
  643SOL    HW1 1928   1.040   1.882   2.135 -1.4908  0.3362  0.2071
  643SOL    HW2 1929   0.909   1.793   2.078  0.1774 -1.3463  0.8000
  644SOL     OW 1930   1.736   0.117   1.981 -0.0942  0.2168 -0.1110
  644SOL    HW1 1931   1.711   0.055   2.059  2.3051 -1.2799  0.9469
  644SOL    HW2 1932   1.758   0.210   2.022 -0.4696  2.2246 -0.4819
  645SOL     OW 1933   1.690   1.222   1.762 -0.9845  0.4964 -0.4454
  645SOL    HW1 1934   1.717   1.154   1.836  1.9115 -1.3708 -1.1842
  645SOL    HW2 1935   1.603   1.204   1.721  1.2904 -0.6402  1.5166
  646SOL     OW 1936   1.358   2.340   0.074  0.5611  0.1059  0.2217
  646SOL    HW1 1937   1.299   2.286   0.012 -0.1179 -0.4412  3.7355
  646SOL    HW2 1938   1.310   2.422   0.112  1.4778  0.4063 -0.0435
  647SOL     OW 1939   1.477   2.429   1.085  0.2612  0.3309  0.1546
  647SOL    HW1 1940   1.461   2.451   0.986  2.5332  0.9586 -0.6987
  647SOL    HW2 1941   1.539   2.346   1.100  3.0911 -0.2113  1.8621
  648SOL     OW 1942   2.912   2.293   1.343 -0.0521  0.3714  0.5508
  648SOL    HW1 1943   2.947   2.242   1.423  0.4293  0.6622 -2.3049
  648SOL    HW2 1944   2.960   2.382   1.331 -0.7552  2.0741 -2.2531
  649SOL     OW 1945   1.138   2.610   2.603  0.2138  0.1521 -0.2624
  649SOL    HW1 1946   1.175   2.515   2.599 -2.0878  0.3340  0.3290
  649SOL    HW2 1947   1.048   2.621   2.556 -3.3475 -3.5677  2.1166
  650SOL     OW 1948   2.886   1.861   3.038  0.6277  0.4757 -0.4192
  650SOL    HW1 1949   2.978   1.891   3.007 -1.2665 -0.5355 -1.5602
  650SOL    HW2 1950   2.871   1.763   3.013  0.5990 -0.2643  0.0325
  651SOL     OW 1951   2.583   2.306   2.086 -0.4866  0.4039  0.3944
  651SOL    HW1 1952   2.527   2.227   2.047 -0.2346  1.8813 -1.5649
  651SOL    HW2 1953   2.602   2.378   2.017  2.4522 -1.3106 -0.0902
  652SOL     OW 1954   2.161   2.578   0.705  0.3884  0.5791 -0.4244
  652SOL    HW1 1955   2.246   2.629   0.694  0.6620  1.0029 -1.1157
  652SOL    HW2 1956   2.142   2.532   0.619  1.3325 -0.8947 -0.5746
  653SOL     OW 1957   0.100   1.200   1.477 -0.4089 -0.2174 -0.0591
  653SOL    HW1 1958   0.034   1.143   1.518  3.6514  3.3408 -1.9817
  653SOL    HW2 1959   0.079   1.240   1.382  0.4925 -2.2606 -2.2759
  654SOL     OW 1960   1.029   0.803   2.888  0.2155 -0.4172  0.2236
  654SOL    HW1 1961   1.045   0.796   2.785 -1.5337 -0.0590 -1.1286
  654SOL    HW2 1962   0.931   0.801   2.911  4.3353 -0.9575  2.1152
  655SOL     OW 1963   1.122   0.908   1.101 -0.0064 -0.1742  0.0103
  655SOL    HW1 1964   1.154   0.912   1.198  0.3761  1.1893  1.7482
  655SOL    HW2 1965   1.175   0.839   1.049  0.8776  1.6039 -1.0532
  656SOL     OW 1966   1.244   2.440   1.966  0.0464  0.0580  0.0980
  656SOL    HW1 1967   1.215   2.354   2.020 -2.1540 -1.4120  0.6606
  656SOL    HW2 1968   1.193   2.524   1.997  0.3013  1.5681  0.2749
  657SOL     OW 1969   1.834   1.295   0.227  0.0728 -0.2251 -0.3253
  657SOL    HW1 1970   1.875   1.220   0.170  0.5695 -0.8817  2.3612
  657SOL    HW2 1971   1.764   1.340   0.172  2.8390 -0.8047  1.9234
  658SOL     OW 1972   1.610   2.229   1.626  0.2203  0.5815 -0.2047
  658SOL    HW1 1973   1.658   2.321   1.632  1.2704  2.4800  0.8345
  658SOL    HW2 1974   1.514   2.228   1.672 -1.1549 -0.0894 -0.3498
  659SOL     OW 1975   2.812   1.620   0.186  0.3191  0.9137 -0.1446
  659SOL    HW1 1976   2.737   1.587   0.246 -1.2541 -0.7088  1.4715
  659SOL    HW2 1977   2.892   1.555   0.197  2.3368 -2.7966  2.2529
  660SOL     OW 1978   0.897   0.167   0.610 -0.0570  0.1817 -0.5691
  660SOL    HW1 1979   0.979   0.192   0.660  0.6148  1.8311 -1.3465
  660SOL    HW2 1980   0.896   0.068   0.587  0.7141 -0.5499  0.3790
  661SOL     OW 1981   2.094   0.435   0.082  0.6594  0.5020 -0.2415
  661SOL    HW1 1982   2.019   0.503   0.099 -1.7637 -0.9237  1.1909
  661SOL    HW2 1983   2.116   0.424   3.057  1.0615  1.2872 -2.7908
  662SOL     OW 1984   0.316   0.355   0.586 -0.3740  0.2487  0.0931
  662SOL    HW1 1985   0.257   0.345   0.505  0.7739  0.4684  1.3978
  662SOL    HW2 1986   0.403   0.399   0.554 -2.0480  2.0478  0.2943
  663SOL     OW 1987   1.653   2.794   2.235  0.5248 -0.5088  0.0755
  663SOL    HW1 1988   1.710   2.747   2.306 -1.6113 -0.7164 -0.9703
  663SOL    HW2 1989   1.568   2.743   2.212 -0.7329 -0.4089  1.1914
  664SOL     OW 1990   0.554   2.487   1.672  0.2950  0.2863 -0.8036
  664SOL    HW1 1991   0.455   2.501   1.678  0.4380  0.8254  2.2241
  664SOL    HW2 1992   0.575   2.411   1.612 -2.6702  0.5552  0.9801
  665SOL     OW 1993   1.337   2.289   1.379  0.1838 -0.3025 -0.4716
  665SOL    HW1 1994   1.326   2.382   1.424 -1.2777  0.3225 -1.4049
  665SOL    HW2 1995   1.416   2.233   1.406  2.3779 -0.4709 -1.5449
  666SOL     OW 1996   0.825   3.042   2.447 -0.6485  0.2551  0.0720
  666SOL    HW1 1997   0.744   3.058   2.509  0.6544  2.5419 -0.4026
  666SOL    HW2 1998   0.799   3.005   2.357 -1.1400 -0.0185  1.1403
  667SOL     OW 1999   2.657   0.804   1.534 -0.7762 -0.6045 -0.7271
  667SOL    HW1 2000   2.611   0.893   1.550 -1.6683 -3.6806  3.0618
  667SOL    HW2 2001   2.756   0.801   1.570  0.0760 -1.0341 -0.3558
  668SOL     OW 2002   1.434   0.191   1.309  0.0934 -0.3171  0.0998
  668SOL    HW1 2003   1.499   0.204   1.388  0.6934  1.6427  0.6565
  668SOL    HW2 2004   1.366   0.266   1.295 -0.1407  0.4436 -2.8846
  669SOL     OW 2005   2.486   2.403   0.983 -0.3960  0.7830 -1.0801
  669SOL    HW1 2006   2.541   2.366   1.062  0.5746 -1.4865  1.0235
  669SOL    HW2 2007   2.548   2.442   0.915 -3.9202 -1.6690 -0.7360
  670SOL     OW 2008   1.415   2.247   2.760 -0.3302  0.0914 -0.4707
  670SOL    HW1 2009   1.512   2.274   2.769 -0.2022 -1.7406  1.2458
  670SOL    HW2 2010   1.360   2.292   2.695 -0.5667 -0.3190  4.2416
  671SOL     OW 2011   0.446   1.024   0.514 -0.1414  0.2549 -0.1010
  671SOL    HW1 2012   0.414   0.991   0.425  0.0195  2.1093 -0.5688
  671SOL    HW2 2013   0.368   1.072   0.555  3.8983 -2.5679  0.2686
  672SOL     OW 2014   2.696   1.126   3.055 -0.4318 -0.0129 -0.0905
  672SOL    HW1 2015   2.752   1.058   0.031 -2.0237  0.5325 -2.2234
  672SOL    HW2 2016   2.658   1.193   0.048  0.5281  0.4995  0.9629
  673SOL     OW 2017   0.060   1.795   1.781 -0.0380 -0.2508 -0.2182
  673SOL    HW1 2018   0.073   1.705   1.740 -0.9767 -2.1538  3.8883
  673SOL    HW2 2019   0.145   1.850   1.797  0.9754  2.0791 -1.4643
  674SOL     OW 2020   1.195   2.192   1.576  0.3474  0.1460 -0.1877
  674SOL    HW1 2021   1.113   2.140   1.562 -1.9266 -1.1602 -0.6390
  674SOL    HW2 2022   1.243   2.216   1.489 -2.5603  2.3619 -0.0823
  675SOL     OW 2023   1.289   1.218   1.141 -0.0535  0.5412  0.1443
  675SOL    HW1 2024   1.290   1.239   1.240 -1.6209 -1.2012  3.7287
  675SOL    HW2 2025   1.197   1.218   1.099  1.0581  0.0466 -0.7229
  676SOL     OW 2026   2.167   0.468   0.927 -0.6855  0.2325  0.3760
  676SOL    HW1 2027   2.119   0.526   0.995 -0.2651 -0.6703  0.3871
  676SOL    HW2 2028   2.178   0.374   0.971 -1.9262 -1.9645  1.3107
  677SOL     OW 2029   2.530   0.357   0.128  0.3068 -1.3994  0.0863
  677SOL    HW1 2030   2.506   0.259   0.132 -3.2004  1.8542 -3.8524
  677SOL    HW2 2031   2.454   0.422   0.156 -2.0013  3.1881 -1.0705
  678SOL     OW 2032   2.550   1.415   1.387 -0.1330 -0.4766 -0.5253
  678SOL    HW1 2033   2.538   1.351   1.311 -1.4563 -1.1764  0.6244
  678SOL    HW2 2034   2.481   1.395   1.463 -0.7601 -1.1236  0.4536
  679SOL     OW 2035   2.404   0.568   2.935  0.4480 -0.5367 -0.2535
  679SOL    HW1 2036   2.478   0.593   2.869  0.6866  0.7182  1.8687
  679SOL    HW2 2037   2.424   0.614   3.022 -0.8494 -0.8722 -1.9590
  680SOL     OW 2038   0.650   1.111   2.262 -0.1465 -0.3944  0.0782
  680SOL    HW1 2039   0.606   1.025   2.239  2.9209  1.3346  1.5998
  680SOL    HW2 2040   0.605   1.193   2.215  0.8563 -0.4811  1.4579
  681SOL     OW 2041   2.722   2.086   1.578 -0.0115 -0.0509 -0.3539
  681SOL    HW1 2042   2.786   2.024   1.627 -0.5611  1.1658 -0.4738
  681SOL    HW2 2043   2.695   2.041   1.490  1.3111 -0.5620  2.4681
  682SOL     OW 2044   0.433   1.736   2.924 -0.3262  0.3010  0.2772
  682SOL    HW1 2045   0.455   1.789   2.840 -0.7183 -2.1592  0.3202
  682SOL    HW2 2046   0.454   1.635   2.912 -1.3453 -0.9814  0.1392
  683SOL     OW 2047   2.510   1.994   0.957  0.4026 -0.9918  0.5842
  683SOL    HW1 2048   2.528   1.896   0.933  1.5528  0.8629 -0.0856
  683SOL    HW2 2049   2.507   2.011   1.057  1.6681  2.2349 -1.9923
  684SOL     OW 2050   2.465   0.962   1.910  0.1205  0.0404  0.0496
  684SOL    HW1 2051   2.504   0.872   1.898 -1.3890  3.5765 -0.8031
  684SOL    HW2 2052   2.464   0.989   2.010  0.8818 -0.1165 -2.0668
  685SOL     OW 2053   1.219   0.683   0.998  0.1317 -0.9000 -0.1895
  685SOL    HW1 2054   1.279   0.676   0.919 -2.0386 -0.8439 -0.2314
  685SOL    HW2 2055   1.135   0.627   0.989  0.8173  2.8724 -0.7081
  686SOL     OW 2056   0.583   0.172   0.066 -0.0734  0.8458  0.1553
  686SOL    HW1 2057   0.643   0.092   0.031 -0.9855 -1.0342 -0.4878
  686SOL    HW2 2058   0.498   0.130   0.107 -2.1197 -1.5485  1.2002
  687SOL     OW 2059   0.136   2.360   2.384 -0.1041 -0.1106  0.1570
  687SOL    HW1 2060   0.047   2.321   2.347 -1.2618 -0.7322 -0.5586
  687SOL    HW2 2061   0.193   2.286   2.415 -0.9613  2.6015 -2.4880
  688SOL     OW 2062   2.123   0.373   1.485  0.5626 -0.5346  0.5148
  688SOL    HW1 2063   2.122   0.475   1.479  2.3842 -1.1660 -0.8147
  688SOL    HW2 2064   2.211   0.338   1.438  2.1098 -5.0240  0.4219
  689SOL     OW 2065   1.797   0.769   0.901  0.1600  0.0529  0.5082
  689SOL    HW1 2066   1.762   0.763   0.807  0.1912  0.2920 -0.1524
  689SOL    HW2 2067   1.718   0.788   0.962  4.7464 -1.6554 -1.0309
  690SOL     OW 2068   2.917   0.844   1.621  0.2035 -0.4095  0.1787
  690SOL    HW1 2069   2.918   0.944   1.646  0.9618 -1.5248  0.9988
  690SOL    HW2 2070   2.964   0.831   1.530 -0.5936 -1.4955 -0.5461
  691SOL     OW 2071   0.264   1.106   1.827 -0.0038  0.3883  0.3859
  691SOL    HW1 2072   0.335   1.116   1.752  1.9970 -1.9688 -2.1195
  691SOL    HW2 2073   0.178   1.157   1.818  0.4867  0.2804 -0.8447
  692SOL     OW 2074   1.015   0.661   1.955 -0.1180  0.1553 -0.2526
  692SOL    HW1 2075   1.000   0.578   2.016  1.1433 -1.6055  0.4082
  692SOL    HW2 2076   0.982   0.640   1.861  0.3549 -0.1820  2.7239
  693SOL     OW 2077   0.570   1.329   2.145  0.0783 -0.1833  0.3164
  693SOL    HW1 2078   0.566   1.375   2.054  0.3893  1.8181  2.1514
  693SOL    HW2 2079   0.473   1.308   2.171  1.9102 -0.4474  2.0596
  694SOL     OW 2080   1.326   1.707   0.388  0.0335  0.7250  0.5912
  694SOL    HW1 2081   1.400   1.638   0.374  1.2164  2.5498 -1.2489
  694SOL    HW2 2082   1.345   1.768   0.467  0.0165  0.9887 -0.2863
  695SOL     OW 2083   0.665   1.139   1.319  0.7743  0.0122 -0.0401
  695SOL    HW1 2084   0.709   1.131   1.227  1.1843  0.1202 -2.1752
  695SOL    HW2 2085   0.562   1.139   1.320 -3.5036  1.3643 -1.2780
  696SOL     OW 2086   0.434   2.470   0.227 -0.1429 -0.3933 -0.5943
  696SOL    HW1 2087   0.346   2.429   0.265 -0.0318  2.0154 -0.0153
  696SOL    HW2 2088   0.513   2.452   0.293  1.6160 -1.2727 -1.9406
  697SOL     OW 2089   1.214   0.372   1.358 -0.7217 -0.5189  0.1811
  697SOL    HW1 2090   1.278   0.446   1.360 -0.2958  1.8468  2.3337
  697SOL    HW2 2091   1.118   0.408   1.375 -2.4148  1.3764  0.2259
  698SOL     OW 2092   1.629   1.623   1.562  0.6384 -0.1106  0.4755
  698SOL    HW1 2093   1.615   1.570   1.643  0.1485 -0.0000 -0.7697
  698SOL    HW2 2094   1.701   1.696   1.568  2.8845 -1.9110  2.7373
  699SOL     OW 2095   0.190   0.481   2.354 -0.2342 -0.5351 -0.0108
  699SOL    HW1 2096   0.127   0.554   2.336  2.2193 -3.3896 -0.0211
  699SOL    HW2 2097   0.211   0.434   2.264  1.8468 -1.0848 -0.4021
  700SOL     OW 2098   1.531   2.769   0.727  0.1862 -0.3632  0.3712
  700SOL    HW1 2099   1.501   2.809   0.816  1.9098 -1.1913  0.7838
  700SOL    HW2 2100   1.599   2.832   0.691  0.5370 -2.2791 -0.6598
  701SOL     OW 2101   0.301   1.465   2.718 -0.1119 -0.4910 -0.0044
  701SOL    HW1 2102   0.221   1.502   2.766 -1.4397 -0.8554  2.7383
  701SOL    HW2 2103   0.385   1.456   2.775  0.9451 -0.5324  0.4335
  702SOL     OW 2104   0.305   0.435   3.038 -0.2252  0.6816 -0.3040
  702SOL    HW1 2105   0.264   0.368   2.970  0.5210 -1.8132 -1.2262
  702SOL    HW2 2106   0.396   0.470   3.005  0.7443  2.7330 -0.6439
  703SOL     OW 2107   1.570   0.005   2.565 -0.0606 -0.5370  0.2087
  703SOL    HW1 2108   1.566   0.035   2.662  0.7717  1.9681 -0.1627
  703SOL    HW2 2109   1.506   0.047   2.498 -0.6719  1.5945  2.7753
  704SOL     OW 2110   2.607   1.743   0.505 -0.3787 -0.2400  0.2329
  704SOL    HW1 2111   2.631   1.789   0.416  3.0399 -0.1577 -0.4589
  704SOL    HW2 2112   2.685   1.772   0.565 -0.5398 -1.2320  1.3177
  705SOL     OW 2113   2.735   1.794   1.896 -0.0993 -0.1008 -0.2396
  705SOL    HW1 2114   2.641   1.750   1.883  0.0968 -0.1368 -2.2289
  705SOL    HW2 2115   2.742   1.846   1.982  3.5411 -2.1734 -0.4373
  706SOL     OW 2116   3.010   2.482   0.876  0.2454  0.2959 -0.1054
  706SOL    HW1 2117   0.031   2.514   0.885  0.3491  0.4154  0.0254
  706SOL    HW2 2118   2.977   2.502   0.785  3.1069 -0.8717 -1.3039
  707SOL     OW 2119   0.780   2.832   0.359 -0.6472 -0.1848 -0.4579
  707SOL    HW1 2120   0.880   2.820   0.335  1.9468  0.9501 -0.4853
  707SOL    HW2 2121   0.723   2.844   0.277 -1.6541 -0.4856 -0.3057
  708SOL     OW 2122   0.650   2.068   1.517  0.4118 -0.0098  0.0186
  708SOL    HW1 2123   0.641   2.078   1.413 -1.7878 -4.3879 -1.5321
  708SOL    HW2 2124   0.647   2.160   1.563  0.7623 -0.6411  0.2404
  709SOL     OW 2125   1.656   3.057   2.202 -0.5581  0.2257  0.1416
  709SOL    HW1 2126   1.585   0.043   2.249  0.3778  2.0517  1.5084
  709SOL    HW2 2127   1.655   2.955   2.226  0.4120 -1.1104  1.0549
  710SOL     OW 2128   1.519   2.800   2.559 -0.3578  0.1040 -0.0525
  710SOL    HW1 2129   1.564   2.759   2.643  0.6247 -1.4004 -1.0211
  710SOL    HW2 2130   1.549   2.899   2.556 -0.5429  0.9289 -1.2877
  711SOL     OW 2131   1.225   2.233   2.966  0.1481 -0.1415  0.1695
  711SOL    HW1 2132   1.146   2.298   2.967 -0.3991 -0.5779  0.5033
  711SOL    HW2 2133   1.271   2.217   2.873 -0.6474 -1.7971 -2.7281
  712SOL     OW 2134   1.122   1.982   3.025  0.2605 -0.1232  0.5509
  712SOL    HW1 2135   1.173   2.070   3.020  1.9891  1.8710  0.6043
  712SOL    HW2 2136   1.142   1.920   2.946 -1.4008 -3.5266  2.7218
  713SOL     OW 2137   1.393   1.030   1.616 -0.1411 -0.3098  0.1917
  713SOL    HW1 2138   1.343   1.097   1.561 -0.3289 -1.0863  3.1630
  713SOL    HW2 2139   1.482   1.004   1.577 -0.8927  0.2450  0.3182
  714SOL     OW 2140   1.365   1.570   1.146 -0.5454 -0.2491  0.6604
  714SOL    HW1 2141   1.445   1.514   1.160  1.0120  0.8331 -1.9272
  714SOL    HW2 2142   1.385   1.662   1.099 -0.9665  4.1997 -0.5326
  715SOL     OW 2143   2.468   0.215   0.864  0.5206 -0.3047  0.1730
  715SOL    HW1 2144   2.374   0.186   0.857  4.3745 -1.7365 -0.7358
  715SOL    HW2 2145   2.488   0.290   0.932 -1.5466 -1.0621 -0.4368
  716SOL     OW 2146   0.491   2.720   0.781 -0.3263  0.2012 -0.2954
  716SOL    HW1 2147   0.516   2.697   0.685  1.7929  2.1680  1.3100
  716SOL    HW2 2148   0.531   2.814   0.804  1.2060  1.7347  0.9463
  717SOL     OW 2149   2.912   0.384   0.184  0.3371  0.2245 -0.0451
  717SOL    HW1 2150   2.857   0.427   0.107 -0.8245  0.4498 -2.4078
  717SOL    HW2 2151   2.859   0.312   0.236  1.2562  1.9629 -0.7240
  718SOL     OW 2152   1.760   1.799   1.094 -0.1669  0.1440  0.6082
  718SOL    HW1 2153   1.782   1.789   1.194  1.1508  1.6697  0.7841
  718SOL    HW2 2154   1.769   1.706   1.051  0.5976 -0.9065  0.0596
  719SOL     OW 2155   2.765   2.312   0.601 -0.3178  1.0391 -0.8269
  719SOL    HW1 2156   2.783   2.254   0.684 -0.3205 -0.8565 -2.4763
  719SOL    HW2 2157   2.839   2.382   0.582 -0.1906 -0.8451  0.7069
  720SOL     OW 2158   0.917   0.931   0.934 -0.2370  0.1000 -0.4829
  720SOL    HW1 2159   1.002   0.936   0.991  1.1241  1.2556 -0.9949
  720SOL    HW2 2160   0.941   0.957   0.839 -2.2620 -1.7508  1.4672
  721SOL     OW 2161   1.444   0.084   1.042 -0.6722 -0.5405 -0.5603
  721SOL    HW1 2162   1.411   0.165   0.988 -0.6430 -0.1766 -0.6719
  721SOL    HW2 2163   1.428   0.104   1.144 -2.8029  0.4730  1.8094
  722SOL     OW 2164   1.250   1.389   2.203 -0.1267 -0.6824  0.3471
  722SOL    HW1 2165   1.271   1.457   2.279  2.2426  1.6199  0.1634
  722SOL    HW2 2166   1.146   1.374   2.197 -0.3338  0.4565 -1.1249
  723SOL     OW 2167   0.881   2.919   1.648  0.1072 -0.0323  0.0175
  723SOL    HW1 2168   0.975   2.946   1.623  1.3412  1.9003 -0.7540
  723SOL    HW2 2169   0.886   2.877   1.741  0.2047  0.4288  0.9794
  724SOL     OW 2170   2.070   2.019   1.702  0.2114 -0.2877 -0.5628
  724SOL    HW1 2171   2.002   2.012   1.631 -1.6531  1.9854  1.7283
  724SOL    HW2 2172   2.142   1.948   1.688 -0.8913  0.7941 -0.5585
  725SOL     OW 2173   0.996   2.614   1.202 -0.1233 -0.0245 -0.4251
  725SOL    HW1 2174   0.967   2.524   1.241  1.2800 -1.5864  0.5797
  725SOL    HW2 2175   1.034   2.666   1.280 -2.9259 -2.4852  0.4218
  726SOL     OW 2176   1.727   2.968   3.013  1.0414 -0.9756 -0.0749
  726SOL    HW1 2177   1.644   2.912   3.031 -3.5455  1.9982 -0.6616
  726SOL    HW2 2178   1.777   2.933   2.937 -3.8246  1.0487  1.1895
  727SOL     OW 2179   1.423   1.665   0.798  0.5956 -0.0133  0.4692
  727SOL    HW1 2180   1.351   1.632   0.736  2.3932 -0.0606  1.1027
  727SOL    HW2 2181   1.486   1.723   0.746 -1.2700 -0.8152 -0.5461
  728SOL     OW 2182   1.936   2.914   2.346  0.2060 -0.4120 -0.3797
  728SOL    HW1 2183   1.939   2.985   2.271  1.1768  2.7880 -1.1463
  728SOL    HW2 2184   1.900   2.957   2.432  1.6718 -0.2570  1.7012
  729SOL     OW 2185   2.410   1.804   1.278 -0.0837  0.1195 -0.4598
  729SOL    HW1 2186   2.399   1.900   1.243 -2.4503 -0.2824  1.9570
  729SOL    HW2 2187   2.323   1.750   1.251 -3.8133  0.0344  1.9029
  730SOL     OW 2188   1.759   0.635   2.379 -0.2461  0.4529 -0.4156
  730SOL    HW1 2189   1.814   0.556   2.425  0.6534 -3.0010  0.1663
  730SOL    HW2 2190   1.757   0.707   2.448  1.0725  0.2565 -1.5072
  731SOL     OW 2191   0.441   0.160   1.261  0.3547  0.2834 -0.1327
  731SOL    HW1 2192   0.367   0.160   1.334 -0.5096  1.5037  3.2151
  731SOL    HW2 2193   0.458   0.256   1.229 -0.9516 -0.1472 -0.0213
  732SOL     OW 2194   1.823   0.029   1.052  0.0582 -0.1282  0.1532
  732SOL    HW1 2195   1.726   0.005   1.075 -0.7224  0.7721 -2.4332
  732SOL    HW2 2196   1.882   0.005   1.134  3.7287  2.1482  0.7492
  733SOL     OW 2197   0.997   1.112   1.375  0.1792 -1.1312  0.3911
  733SOL    HW1 2198   0.935   1.058   1.433  0.6565  0.9299 -1.1802
  733SOL    HW2 2199   0.982   1.210   1.411  0.5010  1.5077  1.2203
  734SOL     OW 2200   2.390   1.924   0.259  0.2319  0.4202  0.1277
  734SOL    HW1 2201   2.363   1.833   0.215  2.7340 -0.4526 -0.6869
  734SOL    HW2 2202   2.484   1.919   0.284 -0.4887  0.3102  0.4251
  735SOL     OW 2203   0.408   0.704   0.272  0.1728  0.6658 -0.1845
  735SOL    HW1 2204   0.415   0.605   0.249  0.2216 -3.8042 -0.7652
  735SOL    HW2 2205   0.500   0.748   0.264 -0.4991 -1.5063  0.3629
  736SOL     OW 2206   1.852   2.670   2.401 -0.3910 -0.2485  0.0241
  736SOL    HW1 2207   1.894   2.630   2.487  1.3584 -1.7406 -2.7497
  736SOL    HW2 2208   1.899   2.755   2.370 -0.1242 -0.4846  1.0311
  737SOL     OW 2209   0.950   1.790   1.000  0.7777  0.7809  0.4059
  737SOL    HW1 2210   0.911   1.719   1.062 -1.0597 -0.3400  0.7542
  737SOL    HW2 2211   1.029   1.837   1.039 -4.2600  1.2555 -2.2933
  738SOL     OW 2212   1.760   2.681   2.001 -0.2029 -0.0279  0.1227
  738SOL    HW1 2213   1.705   2.732   2.069 -0.5254 -0.1112 -0.4737
  738SOL    HW2 2214   1.804   2.594   2.037  0.2841 -1.8124 -0.1266
  739SOL     OW 2215   1.384   2.226   2.393  0.3044 -0.0212  0.0184
  739SOL    HW1 2216   1.424   2.142   2.432  2.1317  2.7472 -1.4600
  739SOL    HW2 2217   1.452   2.289   2.350  3.8527 -1.0422 -0.3160
  740SOL     OW 2218   2.100   2.487   1.801 -0.0446  0.3263  0.5156
  740SOL    HW1 2219   2.131   2.522   1.890  0.5612  3.1856 -0.0367
  740SOL    HW2 2220   2.008   2.445   1.816  1.6596 -2.3821 -1.0511
  741SOL     OW 2221   2.435   1.614   2.814  0.6427 -0.6776  0.0299
  741SOL    HW1 2222   2.334   1.597   2.797  0.7124 -0.5214 -1.5250
  741SOL    HW2 2223   2.497   1.560   2.753 -3.0258  0.0753 -0.8063
  742SOL     OW 2224   0.672   1.211   2.862 -0.1614  0.2812 -0.3218
  742SOL    HW1 2225   0.647   1.246   2.954 -1.1954 -1.0611  1.4437
  742SOL    HW2 2226   0.588   1.185   2.814  2.3719  1.4103  1.0141
  743SOL     OW 2227   1.935   1.128   2.596  0.0165  0.4559 -0.0588
  743SOL    HW1 2228   1.975   1.034   2.584 -1.9591 -1.8014  2.2222
  743SOL    HW2 2229   1.887   1.146   2.508 -0.5012  0.1539  1.3256
  744SOL     OW 2230   2.138   0.007   1.431 -0.5577 -0.5846 -0.4802
  744SOL    HW1 2231   2.204   0.082   1.399 -0.4592  0.8636 -1.5003
  744SOL    HW2 2232   2.185   2.994   1.447  1.3120  0.8610  1.9087
  745SOL     OW 2233   2.474   1.267   1.131 -0.3577 -0.1850  0.4778
  745SOL    HW1 2234   2.494   1.175   1.172  1.8959  0.9163  1.3693
  745SOL    HW2 2235   2.378   1.278   1.087  0.5692  1.8648  2.8143
  746SOL     OW 2236   2.595   1.751   0.889 -0.1182 -0.3432 -0.3351
  746SOL    HW1 2237   2.494   1.717   0.883 -1.0233 -0.9826 -0.4053
  746SOL    HW2 2238   2.656   1.702   0.821  0.1115  0.6175 -3.8784
  747SOL     OW 2239   1.980   2.734   0.122  0.4964 -0.5711  0.6015
  747SOL    HW1 2240   1.939   2.825   0.143  1.6384 -0.0674 -0.1138
  747SOL    HW2 2241   2.072   2.730   0.162 -2.2717  1.3100  0.9923
  748SOL     OW 2242   0.873   2.076   0.003 -0.4058 -0.4607  0.8970
  748SOL    HW1 2243   0.952   2.036   3.027  1.2628 -1.4125  1.9034
  748SOL    HW2 2244   0.790   2.051   3.020  1.0169  0.8822 -2.3652
  749SOL     OW 2245   2.844   0.366   2.132 -0.5469  0.1316 -0.1974
  749SOL    HW1 2246   2.884   0.276   2.149  1.9343  2.2759 -1.6690
  749SOL    HW2 2247   2.913   0.436   2.152 -2.2464  0.1113  0.1909
  750SOL     OW 2248   1.277   0.387   1.786  0.1036  0.1749 -0.0363
  750SOL    HW1 2249   1.343   0.322   1.746  0.4940 -1.8802  0.6220
  750SOL    HW2 2250   1.267   0.382   1.887  0.1920 -0.2827  1.6099
  751SOL     OW 2251   2.621   2.481   1.884  0.2958 -0.3065  0.4431
  751SOL    HW1 2252   2.641   2.432   1.795  0.8592  1.6555  0.4455
  751SOL    HW2 2253   2.531   2.530   1.874 -1.5615  0.5854  1.8682
  752SOL     OW 2254   1.853   1.548   1.018 -0.1259  0.0123  0.1655
  752SOL    HW1 2255   1.817   1.517   0.926  0.5313 -0.7044  2.0993
  752SOL    HW2 2256   1.955   1.560   1.014  3.2322  0.2591  1.1211
  753SOL     OW 2257   1.567   1.039   2.263  0.3212  0.2572 -0.9869
  753SOL    HW1 2258   1.479   1.089   2.259  3.5692 -1.3790  0.2278
  753SOL    HW2 2259   1.556   0.937   2.262 -1.1848  0.3034  0.5268
  754SOL     OW 2260   0.080   2.307   1.052 -0.5816  0.6001 -0.9640
  754SOL    HW1 2261   0.063   2.406   1.065 -0.3484 -2.4551  0.0248
  754SOL    HW2 2262   3.071   2.255   1.064 -0.6819 -0.5825 -2.9530
  755SOL     OW 2263   2.437   3.056   1.139  0.1224  0.1979  0.2992
  755SOL    HW1 2264   2.495   0.069   1.162  1.2719 -1.3319  3.0635
  755SOL    HW2 2265   2.445   2.982   1.208  3.1488 -0.1767  1.8789
  756SOL     OW 2266   1.787   1.673   2.147 -0.2505 -0.1416  0.1627
  756SOL    HW1 2267   1.722   1.597   2.178  0.4017  1.6637 -1.2016
  756SOL    HW2 2268   1.798   1.747   2.215  2.0703  2.7496 -0.1932
  757SOL     OW 2269   3.012   2.826   1.991  0.8295 -0.1080 -0.2077
  757SOL    HW1 2270   2.927   2.764   1.986  1.9749 -2.2314 -0.4345
  757SOL    HW2 2271   2.988   2.915   2.036 -1.6676 -0.5030  2.4053
  758SOL     OW 2272   0.429   2.754   1.597 -0.6747  0.3929 -0.3287
  758SOL    HW1 2273   0.460   2.767   1.500  1.6478  0.5136 -1.2870
  758SOL    HW2 2274   0.394   2.662   1.614  0.7111 -2.1042 -1.6710
  759SOL     OW 2275   1.972   1.067   1.137  0.4682 -0.4906  0.1302
  759SOL    HW1 2276   2.047   1.074   1.207  1.3308 -1.1780  1.4977
  759SOL    HW2 2277   2.000   1.072   1.038 -0.7629  2.1167 -3.2451
  760SOL     OW 2278   1.634   0.193   1.484  0.1409 -0.5511 -0.8157
  760SOL    HW1 2279   1.694   0.143   1.547 -1.8727 -0.8426 -1.9577
  760SOL    HW2 2280   1.701   0.252   1.435 -2.0228 -1.6594  0.3437
  761SOL     OW 2281   2.196   0.117   0.798 -0.5383 -0.3415  0.5753
  761SOL    HW1 2282   2.118   0.086   0.743  1.7596 -0.1875  0.4412
  761SOL    HW2 2283   2.232   0.032   0.842  0.2284  2.9745 -0.4838
  762SOL     OW 2284   1.872   3.009   0.191  0.0121 -0.1839  0.4105
  762SOL    HW1 2285   1.853   0.019   0.249  1.0800  4.5621 -0.4540
  762SOL    HW2 2286   1.815   3.014   0.106  1.4758  0.1844  0.4654
  763SOL     OW 2287   1.001   0.519   1.381 -0.2149 -0.6061 -0.2377
  763SOL    HW1 2288   0.919   0.464   1.392 -1.2535 -2.3517 -4.0613
  763SOL    HW2 2289   0.985   0.588   1.305 -0.6892  0.1530  0.4213
  764SOL     OW 2290   2.489   2.651   2.517  0.4026  0.0204 -0.3487
  764SOL    HW1 2291   2.557   2.615   2.453 -0.4256  1.6806  2.1070
  764SOL    HW2 2292   2.492   2.754   2.524  0.5309  0.3473 -1.3950
  765SOL     OW 2293   3.071   1.045   2.537  0.1420  0.0192 -0.4096
  765SOL    HW1 2294   0.088   0.998   2.549  2.3319 -2.0957 -0.1437
  765SOL    HW2 2295   3.003   0.986   2.500 -1.8555  2.1517  0.7560
  766SOL     OW 2296   2.697   1.198   2.400 -0.2683 -0.3221 -0.5370
  766SOL    HW1 2297   2.627   1.256   2.446 -1.4721  0.7020 -1.8162
  766SOL    HW2 2298   2.777   1.250   2.363  2.8237 -2.1481  1.4031
  767SOL     OW 2299   0.015   2.147   1.504  0.1081  0.6891 -0.4005
  767SOL    HW1 2300   3.058   2.054   1.473  2.6473  0.0049 -0.5165
  767SOL    HW2 2301   0.000   2.161   1.603  1.6575 -0.0098 -1.5778
  768SOL     OW 2302   0.798   0.776   3.029 -0.2944 -0.1337 -0.0346
  768SOL    HW1 2303   0.758   0.682   3.049  0.5161 -3.4502  0.2108
  768SOL    HW2 2304   0.731   0.834   2.977 -0.5143  1.4214  0.4189
  769SOL     OW 2305   1.267   2.662   3.057 -0.4276 -0.2836  1.0718
  769SOL    HW1 2306   1.191   2.649   2.989  0.6398 -1.0475  1.5734
  769SOL    HW2 2307   1.251   2.620   0.077  2.6190 -1.3592 -3.5783
  770SOL     OW 2308   0.890   0.270   2.464 -0.8075 -0.2440 -0.0118
  770SOL    HW1 2309   0.799   0.306   2.434 -1.1989  1.5772 -0.8083
  770SOL    HW2 2310   0.911   0.179   2.424  2.1804  1.4409 -0.9816
  771SOL     OW 2311   0.694   2.518   0.944  0.1476 -0.4535  0.7887
  771SOL    HW1 2312   0.754   2.493   0.861 -1.3654 -1.7939 -2.8269
  771SOL    HW2 2313   0.725   2.595   1.005 -1.1031  1.1186  1.1037
  772SOL     OW 2314   2.726   0.971   0.445  0.0561 -0.2157 -0.0069
  772SOL    HW1 2315   2.656   1.045   0.414 -2.0211  0.3569 -1.7893
  772SOL    HW2 2316   2.712   0.950   0.545  0.2135 -0.5002  1.7450
  773SOL     OW 2317   1.646   0.898   1.773  0.6813  0.2438 -0.2561
  773SOL    HW1 2318   1.745   0.898   1.772 -5.3029  0.1129  0.4240
  773SOL    HW2 2319   1.609   0.866   1.683 -0.2904 -0.5303 -0.4403
  774SOL     OW 2320   0.552   0.485   0.549 -0.1004 -0.1269  0.1313
  774SOL    HW1 2321   0.604   0.570   0.528  0.2644 -1.3832 -1.1915
  774SOL    HW2 2322   0.598   0.402   0.518 -0.9820 -0.8820  2.6912
  775SOL     OW 2323   1.593   0.150   0.295  0.0920  0.1907  0.1887
  775SOL    HW1 2324   1.554   0.065   0.258 -0.3133  0.6518 -3.2058
  775SOL    HW2 2325   1.520   0.220   0.320 -1.8696 -0.8938  0.2374
  776SOL     OW 2326   2.296   0.429   2.379  0.1053 -0.1394  0.3181
  776SOL    HW1 2327   2.276   0.487   2.464 -1.0884  2.9179  1.0065
  776SOL    HW2 2328   2.226   0.358   2.372  1.4343  3.2042 -0.4984
  777SOL     OW 2329   1.003   1.361   0.070  0.4695 -0.0774  0.5487
  777SOL    HW1 2330   0.981   1.362   3.047 -1.5824  0.6105 -0.3512
  777SOL    HW2 2331   0.933   1.297   0.119 -2.3234 -1.6702 -1.7432
  778SOL     OW 2332   0.091   2.569   0.225 -0.1388 -0.0964  0.0832
  778SOL    HW1 2333   0.148   2.493   0.258 -1.2638 -0.2660 -3.0926
  778SOL    HW2 2334   0.105   2.661   0.273  0.3071  2.0976 -1.1073
  779SOL     OW 2335   0.127   1.296   0.343 -0.0423  0.2856  0.0551
  779SOL    HW1 2336   0.108   1.192   0.342  0.4926 -1.6547 -0.0985
  779SOL    HW2 2337   0.231   1.310   0.338  1.0168  0.2767 -0.9669
  780SOL     OW 2338   1.981   0.058   2.139  0.1016 -0.2778 -0.3873
  780SOL    HW1 2339   2.057   0.126   2.137 -1.6050 -1.0219 -1.1672
  780SOL    HW2 2340   1.921   0.069   2.058 -0.4740  0.1476 -0.3523
  781SOL     OW 2341   1.696   1.097   1.369  0.3693 -0.0900 -0.6056
  781SOL    HW1 2342   1.615   1.098   1.305  0.9793 -1.1237 -0.8230
  781SOL    HW2 2343   1.751   1.180   1.349 -0.6123 -1.0241 -1.5393
  782SOL     OW 2344   1.812   2.031   2.070 -0.5207 -0.2150  0.4070
  782SOL    HW1 2345   1.862   1.959   2.017 -3.5362  1.6113 -2.7704
  782SOL    HW2 2346   1.864   2.065   2.152 -0.0766 -0.0590  0.1263
  783SOL     OW 2347   1.390   0.363   2.043 -0.0359  0.3213 -0.4721
  783SOL    HW1 2348   1.417   0.391   2.137 -0.9487  0.2123 -0.0900
  783SOL    HW2 2349   1.434   0.274   2.024  0.0212 -0.5162  2.2359
  784SOL     OW 2350   1.827   1.206   2.374  0.2579  0.8717  0.4495
  784SOL    HW1 2351   1.744   1.145   2.356 -0.7452  0.8659  0.0735
  784SOL    HW2 2352   1.852   1.254   2.287  1.4368  1.2977 -0.1436
  785SOL     OW 2353   1.895   0.630   0.122  0.2051 -0.0856 -0.1149
  785SOL    HW1 2354   1.891   0.730   0.117 -0.6689  0.8558  1.5820
  785SOL    HW2 2355   1.800   0.597   0.121 -0.8016 -0.4104  2.2932
  786SOL     OW 2356   0.060   1.715   0.464 -0.1837 -0.0230 -0.6931
  786SOL    HW1 2357   0.010   1.631   0.480  2.0106  0.2609  0.4537
  786SOL    HW2 2358   0.155   1.699   0.500  0.2964  0.9650 -0.4965
  787SOL     OW 2359   1.563   2.014   0.451 -0.5440 -0.3694  0.0158
  787SOL    HW1 2360   1.473   1.987   0.493 -0.8642 -0.4531 -0.9939
  787SOL    HW2 2361   1.546   2.104   0.406 -2.1467  1.2755  2.4626
  788SOL     OW 2362   2.181   1.606   1.440 -0.0811  0.6385 -0.3835
  788SOL    HW1 2363   2.163   1.635   1.342 -1.7106 -0.7418 -1.7643
  788SOL    HW2 2364   2.122   1.519   1.454  1.4447 -1.2503  3.0182
  789SOL     OW 2365   3.042   1.527   2.341 -0.4634 -0.0201 -0.1205
  789SOL    HW1 2366   0.015   1.615   2.314  0.9659  1.4056  0.9700
  789SOL    HW2 2367   3.057   1.517   2.440 -1.8454  1.8227 -3.2986
  790SOL     OW 2368   0.723   3.013   2.773 -0.1647  0.2436 -0.0760
  790SOL    HW1 2369   0.758   0.034   2.750  0.4199 -1.9043  2.5044
  790SOL    HW2 2370   0.642   2.993   2.711  0.6846 -0.8918 -2.5163
  791SOL     OW 2371   0.845   2.771   2.713 -0.3700  0.4076 -0.1268
  791SOL    HW1 2372   0.777   2.719   2.764  1.7261 -1.1565 -0.7076
  791SOL    HW2 2373   0.821   2.867   2.730 -0.3907 -2.0040  2.2930
  792SOL     OW 2374   1.777   0.364   2.105  0.4103 -0.0316 -0.7470
  792SOL    HW1 2375   1.751   0.392   2.202 -3.1866 -1.2843  2.2596
  792SOL    HW2 2376   1.740   0.434   2.033 -0.4124 -0.7044 -0.5789
  793SOL     OW 2377   2.863   0.062   2.094 -0.1057  0.0283  0.2694
  793SOL    HW1 2378   2.879   0.079   1.993 -0.0215 -2.0256 -1.3458
  793SOL    HW2 2379   2.764   0.061   2.110  0.7382 -0.8385  0.9101
  794SOL     OW 2380   0.505   0.615   1.842 -0.5904 -0.1216 -0.1781
  794SOL    HW1 2381   0.507   0.614   1.945  0.5217  2.8862  0.1061
  794SOL    HW2 2382   0.535   0.709   1.814  0.1719  2.0045  0.2674
  795SOL     OW 2383   3.054   1.470   0.494 -0.3943 -0.1953 -0.0805
  795SOL    HW1 2384   2.962   1.441   0.458  2.3503 -0.3350  0.6015
  795SOL    HW2 2385   0.052   1.402   0.470 -2.7144 -0.2828  2.0011
  796SOL     OW 2386   2.780   2.750   3.033 -0.1484  0.4056  0.3211
  796SOL    HW1 2387   2.775   2.767   0.059 -0.8182  0.0367  1.4497
  796SOL    HW2 2388   2.758   2.653   3.013  2.4117 -1.7216 -1.8293
  797SOL     OW 2389   2.543   2.294   0.399 -0.2090  0.0623  0.5610
  797SOL    HW1 2390   2.533   2.278   0.300 -0.7925  0.3224  1.2024
  797SOL    HW2 2391   2.635   2.279   0.433 -3.7509  0.5957  0.2097
  798SOL     OW 2392   0.392   0.882   1.646 -0.4233 -0.0526 -0.2192
  798SOL    HW1 2393   0.313   0.843   1.699  0.8859  0.4401  0.0308
  798SOL    HW2 2394   0.373   0.978   1.613  0.2861 -0.8786 -0.5836
  799SOL     OW 2395   3.004   0.577   2.245 -0.2717 -0.6045 -0.2468
  799SOL    HW1 2396   2.961   0.635   2.319 -1.1490  0.6098  2.8026
  799SOL    HW2 2397   3.038   0.640   2.176 -0.0422  0.5763  1.4900
  800SOL     OW 2398   2.697   2.038   0.536 -0.1456  0.1997 -0.4443
  800SOL    HW1 2399   2.629   2.071   0.607  0.9472  0.3527  2.1813
  800SOL    HW2 2400   2.760   1.970   0.576  2.8941 -1.1853 -1.0843
  801SOL     OW 2401   1.409   1.151   0.854 -0.6995 -0.2543  0.3690
  801SOL    HW1 2402   1.322   1.134   0.805 -0.0300 -1.6864  0.5481
  801SOL    HW2 2403   1.390   1.192   0.945 -0.8914 -1.8505  0.8160
  802SOL     OW 2404   1.412   1.805   1.032 -0.1054 -0.0576 -0.3939
  802SOL    HW1 2405   1.473   1.883   1.032  0.1563  1.8756  0.6505
  802SOL    HW2 2406   1.399   1.764   0.939  1.4267 -2.5185  1.5756
  803SOL     OW 2407   3.025   1.879   0.287  0.1580  0.0644 -0.6580
  803SOL    HW1 2408   0.000   1.816   0.349 -3.0865 -0.8321 -0.9067
  803SOL    HW2 2409   3.042   1.839   0.195  1.0650  0.9123  0.4693
  804SOL     OW 2410   1.243   2.629   0.732 -0.5105  0.7108 -0.8256
  804SOL    HW1 2411   1.167   2.601   0.670 -1.6334 -1.6152 -2.0840
  804SOL    HW2 2412   1.306   2.552   0.741 -0.2598  0.5355 -2.2168
  805SOL     OW 2413   1.754   1.737   2.578  0.7295  0.2359  0.4257
  805SOL    HW1 2414   1.706   1.733   2.670 -1.0699 -0.8256  2.5158
  805SOL    HW2 2415   1.690   1.714   2.499  1.9235 -1.3398 -0.8322
  806SOL     OW 2416   1.444   2.961   1.348  0.1083 -0.7949 -0.1569
  806SOL    HW1 2417   1.442   3.061   1.385 -1.2382 -0.0620  2.9934
  806SOL    HW2 2418   1.379   2.949   1.268 -0.6265 -0.9491 -1.3392
  807SOL     OW 2419   1.840   3.060   2.572 -0.7148 -0.1136 -0.2223
  807SOL    HW1 2420   1.742   0.006   2.569  3.1669 -0.1474 -0.6144
  807SOL    HW2 2421   1.866   2.999   2.642  0.3113  3.3137 -3.2911
  808SOL     OW 2422   0.393   1.342   0.279 -0.2818  0.4105  0.1406
  808SOL    HW1 2423   0.404   1.334   0.180 -1.5466 -2.2445 -1.5929
  808SOL    HW2 2424   0.468   1.298   0.335 -0.7139  1.2599  1.1483
  809SOL     OW 2425   2.422   0.919   2.430  0.1861 -0.3449  0.2852
  809SOL    HW1 2426   2.447   0.959   2.337 -1.1451 -0.8245  1.0948
  809SOL    HW2 2427   2.365   0.980   2.487  0.7855  1.4200 -0.5869
  810SOL     OW 2428   0.013   0.257   2.322  0.3839  0.2221  0.0541
  810SOL    HW1 2429   0.020   0.354   2.336  1.9165  1.3210 -0.1029
  810SOL    HW2 2430   0.049   0.217   2.230 -1.9006 -3.3411 -1.2163
  811SOL     OW 2431   2.215   2.447   1.579 -0.4324  0.0089 -0.1974
  811SOL    HW1 2432   2.187   2.461   1.680 -0.2531  2.2026  0.4700
  811SOL    HW2 2433   2.270   2.364   1.568 -0.9484  4.5723  0.3653
  812SOL     OW 2434   1.525   0.807   0.146 -0.2038 -0.0310 -0.5725
  812SOL    HW1 2435   1.424   0.809   0.158  1.6510  0.1578 -0.2662
  812SOL    HW2 2436   1.569   0.885   0.097  1.7219 -3.2870  1.7254
  813SOL     OW 2437   1.999   0.484   2.113  0.0982 -0.7413  0.5726
  813SOL    HW1 2438   1.916   0.428   2.125  2.0576  0.2170  1.4917
  813SOL    HW2 2439   1.998   0.572   2.159 -0.9236 -1.3904  1.1675
  814SOL     OW 2440   1.861   1.282   1.279  0.6163 -0.6985  0.7059
  814SOL    HW1 2441   1.904   1.231   1.202  0.6437  0.7180  1.5842
  814SOL    HW2 2442   1.795   1.352   1.245  0.4260  1.5526  1.6786
  815SOL     OW 2443   0.673   0.965   0.680  0.5792 -0.1321 -0.4036
  815SOL    HW1 2444   0.632   0.914   0.758 -0.5715  1.1396 -1.1944
  815SOL    HW2 2445   0.601   0.989   0.612 -2.3228  2.7638 -1.4071
  816SOL     OW 2446   1.844   2.168   2.699  0.0713 -0.1299 -0.0387
  816SOL    HW1 2447   1.930   2.125   2.672  0.8424 -0.0267  1.9028
  816SOL    HW2 2448   1.784   2.196   2.622  0.0071  1.6825  0.6279
  817SOL     OW 2449   2.818   2.660   0.993 -0.3702  0.3002  0.0176
  817SOL    HW1 2450   2.872   2.733   0.945 -0.1228  0.0449  2.5943
  817SOL    HW2 2451   2.872   2.576   0.981  0.2626 -1.8941 -1.9334
  818SOL     OW 2452   1.270   0.530   0.053 -0.1414  0.2377 -0.1890
  818SOL    HW1 2453   1.185   0.490   0.014  1.5774  0.8948 -0.1291
  818SOL    HW2 2454   1.327   0.452   0.081 -0.3829 -1.3501 -1.1731
  819SOL     OW 2455   0.570   0.820   0.892 -0.0644 -0.0010 -0.5798
  819SOL    HW1 2456   0.530   0.733   0.860  0.6419 -1.5639  0.1442
  819SOL    HW2 2457   0.573   0.836   0.993 -0.4604  3.0412 -1.6009
  820SOL     OW 2458   2.217   0.734   1.213  0.0105  0.4392 -0.4267
  820SOL    HW1 2459   2.134   0.720   1.155  0.6179 -0.5032 -0.3329
  820SOL    HW2 2460   2.233   0.655   1.276  0.7131 -2.7674  0.4265
  821SOL     OW 2461   2.575   0.003   0.381  0.0657  0.3670  0.4426
  821SOL    HW1 2462   2.482   0.017   0.416  0.9271  2.3239 -0.3997
  821SOL    HW2 2463   2.600   2.977   0.387  0.1545 -1.7329 -4.9167
  822SOL     OW 2464   0.906   2.662   2.456  0.0395  0.1130 -0.6289
  822SOL    HW1 2465   0.831   2.598   2.430 -0.9785 -0.6447 -0.8426
  822SOL    HW2 2466   0.880   2.725   2.536 -2.5982 -0.8461  1.0953
  823SOL     OW 2467   0.005   1.569   1.665  0.7370  0.2515  0.4369
  823SOL    HW1 2468   2.997   1.569   1.721  0.1944  0.7960 -1.5281
  823SOL    HW2 2469   3.067   1.564   1.564  1.0328 -0.6339  0.6145
  824SOL     OW 2470   0.803   2.899   2.195  0.4893 -0.3113  0.6107
  824SOL    HW1 2471   0.889   2.855   2.203  0.4076  1.8190  0.1286
  824SOL    HW2 2472   0.720   2.840   2.179 -0.4201 -2.3652 -0.2358
  825SOL     OW 2473   0.972   1.814   0.091 -0.4224  0.0709 -0.2938
  825SOL    HW1 2474   0.893   1.757   0.049 -2.1703 -1.1085 -1.7244
  825SOL    HW2 2475   1.016   1.885   0.034  1.2088 -0.2706  0.1206
  826SOL     OW 2476   1.000   2.666   2.931  0.1180  0.9900  0.4436
  826SOL    HW1 2477   1.003   2.723   2.849  1.3027  1.8147  0.1693
  826SOL    HW2 2478   0.945   2.581   2.916 -1.5971 -1.6499  2.3584
  827SOL     OW 2479   0.312   1.901   1.826 -0.1747  0.1129  0.0091
  827SOL    HW1 2480   0.348   1.841   1.898  1.9779  1.2546  0.6123
  827SOL    HW2 2481   0.289   1.993   1.863 -1.6743  2.9126  1.8478
  828SOL     OW 2482   3.003   1.695   1.160 -0.2655 -0.4134  0.2627
  828SOL    HW1 2483   0.012   1.748   1.198  2.2545  2.3926 -1.6234
  828SOL    HW2 2484   2.936   1.759   1.120 -0.1457  0.0466  1.0333
  829SOL     OW 2485   2.913   2.520   0.309  0.7647 -0.1225  0.0831
  829SOL    HW1 2486   3.013   2.540   0.303  1.2772  0.5798 -1.5172
  829SOL    HW2 2487   2.885   2.435   0.260 -2.0450  2.3828 -0.1736
  830SOL     OW 2488   1.148   0.503   0.667 -0.1574  0.9369 -0.0083
  830SOL    HW1 2489   1.229   0.520   0.733  1.9246  2.0419 -2.3157
  830SOL    HW2 2490   1.088   0.582   0.658 -0.1370  0.3592  1.1451
  831SOL     OW 2491   2.841   2.283   0.182  0.7507 -0.8545  0.2620
  831SOL    HW1 2492   2.743   2.278   0.159  3.4556 -1.5504  0.7992
  831SOL    HW2 2493   2.887   2.189   0.192  3.3770 -0.4145  1.2195
  832SOL     OW 2494   1.623   2.402   0.534 -0.5594 -0.3348  0.2101
  832SOL    HW1 2495   1.713   2.448   0.531  1.9695 -1.5089 -0.2902
  832SOL    HW2 2496   1.613   2.346   0.617 -0.2144 -0.5881  0.1336
  833SOL     OW 2497   0.625   0.857   2.478 -0.3128 -0.2240  0.2730
  833SOL    HW1 2498   0.721   0.870   2.450 -0.2929  1.0393  0.2664
  833SOL    HW2 2499   0.590   0.949   2.489 -1.4036 -1.7238 -1.7048
  834SOL     OW 2500   2.636   0.853   0.669  0.2553  0.0315  0.0741
  834SOL    HW1 2501   2.670   0.757   0.672  1.1471  2.4871 -0.8359
  834SOL    HW2 2502   2.574   0.869   0.749  2.9255  0.3262  0.0585
  835SOL     OW 2503   2.465   0.590   2.008  0.9670 -0.1210 -0.1838
  835SOL    HW1 2504   2.374   0.609   1.965 -0.4396  0.4009 -1.5167
  835SOL    HW2 2505   2.466   0.620   2.109 -0.7222  0.1843 -0.0162
  836SOL     OW 2506   0.709   2.019   0.653  0.1293  0.0385 -0.5872
  836SOL    HW1 2507   0.642   1.998   0.577 -3.5404  1.3487 -2.8827
  836SOL    HW2 2508   0.686   1.980   0.746  0.7548 -0.1647 -0.4846
  837SOL     OW 2509   2.297   1.709   2.149 -0.0731  0.5957 -0.2487
  837SOL    HW1 2510   2.234   1.790   2.130 -1.4325 -0.7670  0.0851
  837SOL    HW2 2511   2.268   1.626   2.099 -0.4073  1.1795 -1.7208
  838SOL     OW 2512   0.238   1.028   2.252  0.1812 -0.1621  0.2963
  838SOL    HW1 2513   0.195   0.939   2.267 -0.2460  0.3231 -1.2582
  838SOL    HW2 2514   0.296   1.021   2.166  0.7279 -2.7671 -2.1252
  839SOL     OW 2515   0.363   0.052   2.865  0.3414  0.0413 -0.5983
  839SOL    HW1 2516   0.394   0.004   2.780  1.4171 -0.6961  3.1164
  839SOL    HW2 2517   0.404   0.005   2.943 -2.8168 -1.8987  0.1236
  840SOL     OW 2518   2.949   0.787   2.449  0.3913  0.3120  0.0053
  840SOL    HW1 2519   2.961   0.757   2.547  2.2736 -1.2289  2.6463
  840SOL    HW2 2520   2.855   0.813   2.424  1.7605 -0.9703  4.4772
  841SOL     OW 2521   0.362   2.206   2.438  0.3775 -0.0869  0.1733
  841SOL    HW1 2522   0.398   2.235   2.530 -1.4599 -1.3372  0.0266
  841SOL    HW2 2523   0.415   2.250   2.365  3.9784 -2.0508  1.4688
  842SOL     OW 2524   0.756   0.190   1.170  0.1459 -0.0899 -0.3417
  842SOL    HW1 2525   0.660   0.176   1.204 -1.7611 -0.3538 -0.0533
  842SOL    HW2 2526   0.815   0.242   1.242  1.0399  1.1581 -0.4765
  843SOL     OW 2527   0.382   1.658   2.511  0.1103  0.2346  0.0816
  843SOL    HW1 2528   0.305   1.657   2.441 -1.0531  0.4304 -0.5118
  843SOL    HW2 2529   0.377   1.583   2.578  0.5677  2.7899 -1.0856
  844SOL     OW 2530   1.550   1.975   2.145  0.1022  0.3859  0.1970
  844SOL    HW1 2531   1.489   2.027   2.082  0.1964  1.1161  2.4545
  844SOL    HW2 2532   1.647   2.003   2.125 -0.2971 -1.5065 -1.7526
  845SOL     OW 2533   2.276   3.010   2.501  0.2454 -0.0095  0.2222
  845SOL    HW1 2534   2.374   3.027   2.509 -0.8201  2.5240 -1.4362
  845SOL    HW2 2535   2.225   0.021   2.517 -0.0131  0.0343 -0.5543
  846SOL     OW 2536   2.114   1.741   2.959  0.5856 -0.4633  0.1646
  846SOL    HW1 2537   2.042   1.745   2.887 -0.3566 -1.0439  0.0635
  846SOL    HW2 2538   2.082   1.696   3.044  2.1704 -0.4137  3.8260
  847SOL     OW 2539   2.485   0.200   2.780 -0.0634  0.5647  0.1574
  847SOL    HW1 2540   2.472   0.228   2.680 -1.7984 -1.9846 -3.2129
  847SOL    HW2 2541   2.483   0.097   2.781  1.0885 -3.4047 -0.0583
  848SOL     OW 2542   2.649   0.496   0.344 -0.4051 -0.1374  0.0269
  848SOL    HW1 2543   2.641   0.418   0.280 -1.8825 -0.2941  0.1631
  848SOL    HW2 2544   2.727   0.483   0.407  0.1949  1.4412  1.7822
  849SOL     OW 2545   1.268   0.321   2.668 -0.1973 -0.1099  0.0058
  849SOL    HW1 2546   1.304   0.329   2.570 -0.5471 -0.3513 -0.2030
  849SOL    HW2 2547   1.343   0.340   2.730 -0.4276 -0.8991 -0.5847
  850SOL     OW 2548   2.390   0.717   0.452 -0.1589 -0.2962  0.1681
  850SOL    HW1 2549   2.390   0.621   0.482  1.3173  0.9144 -0.3065
  850SOL    HW2 2550   2.475   0.739   0.403 -2.9227  2.7378  0.3622
  851SOL     OW 2551   0.193   1.019   0.923 -0.6362  0.1599 -0.2627
  851SOL    HW1 2552   0.216   0.921   0.895 -2.5788 -2.3470 -0.2673
  851SOL    HW2 2553   0.150   1.017   1.019 -0.7177  0.6510 -0.2900
  852SOL     OW 2554   1.247   0.798   2.049  0.6142  0.8041  0.0598
  852SOL    HW1 2555   1.217   0.879   2.101  1.7745 -0.4093 -3.2352
  852SOL    HW2 2556   1.169   0.747   2.006  1.8484  0.2737 -0.2546
  853SOL     OW 2557   1.619   1.272   2.819  0.1203 -0.4835  0.2237
  853SOL    HW1 2558   1.716   1.274   2.841 -1.3591 -2.9052 -1.4639
  853SOL    HW2 2559   1.595   1.287   2.720 -0.5169 -2.9387 -1.8399
  854SOL     OW 2560   1.357   1.164   1.865 -0.3641  0.0449 -0.0782
  854SOL    HW1 2561   1.369   1.106   1.781 -1.3127 -0.3525 -1.9457
  854SOL    HW2 2562   1.256   1.168   1.880  2.6113  1.1286 -0.8607
  855SOL     OW 2563   0.374   2.331   1.970  0.1015  0.0435 -0.3818
  855SOL    HW1 2564   0.306   2.254   1.958 -0.5327 -1.9712 -0.0366
  855SOL    HW2 2565   0.332   2.419   1.960  0.1490 -0.0037 -1.5556
  856SOL     OW 2566   1.284   1.066   2.393 -0.5001 -0.2701  0.0310
  856SOL    HW1 2567   1.231   1.120   2.463 -1.5011 -0.2371 -0.0299
  856SOL    HW2 2568   1.233   1.076   2.305 -1.2332  0.9087  0.2000
  857SOL     OW 2569   1.037   1.108   2.544  0.0861 -0.1250 -0.6136
  857SOL    HW1 2570   0.990   1.097   2.636 -2.8471 -2.9813 -0.7315
  857SOL    HW2 2571   1.018   1.024   2.491  0.5680 -0.6023 -1.6285
  858SOL     OW 2572   0.188   0.420   1.669 -0.1272 -0.2962 -0.1384
  858SOL    HW1 2573   0.086   0.419   1.671  0.5325 -0.3636 -0.1355
  858SOL    HW2 2574   0.225   0.455   1.760 -1.3603  1.8399  3.2619
  859SOL     OW 2575   2.278   2.970   0.909  0.0630  0.3602 -0.3985
  859SOL    HW1 2576   2.337   2.998   0.989 -0.1007  1.9449  0.9759
  859SOL    HW2 2577   2.209   2.900   0.943  0.2961  0.8364 -0.3806
  860SOL     OW 2578   1.374   0.585   1.603 -0.1693  0.3426  0.8713
  860SOL    HW1 2579   1.337   0.537   1.688 -1.1673  0.2605  1.7284
  860SOL    HW2 2580   1.474   0.574   1.600  0.4397 -1.2261  1.0152
  861SOL     OW 2581   1.860   0.700   1.294 -0.1138 -0.1183  0.3460
  861SOL    HW1 2582   1.786   0.638   1.303  1.4648  1.5280 -0.2045
  861SOL    HW2 2583   1.850   0.773   1.364 -1.3684  1.5491  1.7853
  862SOL     OW 2584   1.211   0.121   2.206 -0.5879  0.5465 -0.0385
  862SOL    HW1 2585   1.134   0.141   2.149  1.2189  0.3251  1.2470
  862SOL    HW2 2586   1.185   0.070   2.292  1.3723 -0.1910 -0.3695
  863SOL     OW 2587   2.698   0.271   1.466  0.2362 -0.0800 -0.1487
  863SOL    HW1 2588   2.634   0.333   1.518 -0.3901 -0.9458 -0.2689
  863SOL    HW2 2589   2.796   0.304   1.470  1.3109  1.1923  1.7308
  864SOL     OW 2590   2.864   2.958   2.294 -0.7589  0.2223 -0.0893
  864SOL    HW1 2591   2.773   2.913   2.269 -3.3730 -1.7236 -2.6523
  864SOL    HW2 2592   2.886   3.025   2.225 -0.2708 -1.3762  3.8913
  865SOL     OW 2593   1.092   1.430   2.473 -0.5343  0.1674  0.1457
  865SOL    HW1 2594   1.011   1.380   2.433 -0.8426  3.1721  1.7388
  865SOL    HW2 2595   1.101   1.524   2.434 -0.1515 -2.7070  2.4974
  866SOL     OW 2596   2.597   2.862   0.988  0.3431  0.5843  0.5478
  866SOL    HW1 2597   2.667   2.798   1.020  0.5204  1.0483  0.2790
  866SOL    HW2 2598   2.557   2.926   1.056 -0.1129  0.7551  0.6429
  867SOL     OW 2599   2.726   2.680   1.237 -0.0510  0.1400  0.6361
  867SOL    HW1 2600   2.771   2.680   1.145 -0.3916  1.0590  1.0644
  867SOL    HW2 2601   2.789   2.696   1.311 -1.9529 -2.5900  0.9357
  868SOL     OW 2602   2.810   1.300   1.433  0.2635 -0.2960 -0.2016
  868SOL    HW1 2603   2.733   1.366   1.436 -2.7248 -1.8236 -3.5717
  868SOL    HW2 2604   2.783   1.218   1.376  1.0338  0.9897  0.9170
  869SOL     OW 2605   2.186   2.087   2.326  0.4566  0.2284 -0.5064
  869SOL    HW1 2606   2.196   2.176   2.374  2.2256  0.5412  2.2907
  869SOL    HW2 2607   2.261   2.025   2.361  0.4562 -1.5511 -0.1093
  870SOL     OW 2608   1.495   0.893   0.778 -0.4220  0.7627 -0.5065
  870SOL    HW1 2609   1.518   0.874   0.872  3.4154 -2.6825 -2.6153
  870SOL    HW2 2610   1.444   0.978   0.773  0.0858 -1.4764 -0.3804
  871SOL     OW 2611   2.474   1.713   1.960 -0.4011  0.3379 -0.2667
  871SOL    HW1 2612   2.423   1.722   2.051 -0.3525 -2.1814 -1.7298
  871SOL    HW2 2613   2.444   1.784   1.896  1.5995 -4.4040 -1.9288
  872SOL     OW 2614   0.898   1.777   2.745  0.2264 -0.3456 -0.1082
  872SOL    HW1 2615   0.853   1.780   2.835  1.0257  3.5847 -0.8165
  872SOL    HW2 2616   1.001   1.781   2.755  1.8718 -1.4442 -0.7161
  873SOL     OW 2617   1.082   1.174   1.920 -0.2263  0.1581 -0.4464
  873SOL    HW1 2618   1.033   1.199   2.007 -0.7313 -3.0967  0.2838
  873SOL    HW2 2619   1.023   1.104   1.874 -0.8975 -1.3973  1.1142
  874SOL     OW 2620   1.303   0.829   1.384 -0.0998  0.2040  0.0044
  874SOL    HW1 2621   1.387   0.840   1.439  2.8216  3.8119 -2.8677
  874SOL    HW2 2622   1.240   0.763   1.434  0.5759 -0.4285  0.8427
  875SOL     OW 2623   2.593   2.906   2.551  0.2516 -0.2491 -0.5530
  875SOL    HW1 2624   2.605   2.984   2.488 -1.0046 -0.5998  1.2321
  875SOL    HW2 2625   2.671   2.893   2.615  1.2309  1.4050 -2.9919
  876SOL     OW 2626   0.957   0.989   0.660  0.7753  0.1469  0.5902
  876SOL    HW1 2627   0.854   0.988   0.668  0.5056 -1.5919 -0.0142
  876SOL    HW2 2628   0.986   1.028   0.569 -1.2584  1.8609 -0.2862
  877SOL     OW 2629   1.870   2.814   0.452  0.1128 -0.2025  0.0980
  877SOL    HW1 2630   1.870   2.867   0.362  0.2478  1.3381 -0.6137
  877SOL    HW2 2631   1.971   2.816   0.481  0.6500 -1.8746 -1.8021
  878SOL     OW 2632   2.240   2.075   0.103 -0.1437 -0.4836 -0.2505
  878SOL    HW1 2633   2.306   2.028   0.164 -0.5061  0.8257  0.2390
  878SOL    HW2 2634   2.148   2.040   0.131  0.5018  2.1721  1.7162
  879SOL     OW 2635   0.277   2.523   1.632 -0.0435 -0.1592 -0.2719
  879SOL    HW1 2636   0.202   2.551   1.693 -0.9163  0.1240 -0.1529
  879SOL    HW2 2637   0.244   2.451   1.568 -0.6384  2.9781  3.9026
  880SOL     OW 2638   0.145   1.638   0.911 -0.4744 -0.2191  0.0355
  880SOL    HW1 2639   0.137   1.731   0.947  2.0748 -2.7525 -1.2191
  880SOL    HW2 2640   0.221   1.641   0.842  0.3703  1.7825  2.8235
  881SOL     OW 2641   1.465   0.133   2.331 -0.2852 -0.3213  0.8361
  881SOL    HW1 2642   1.370   0.118   2.290 -4.2382 -0.2655  2.3773
  881SOL    HW2 2643   1.455   0.220   2.385  1.4520 -0.0346 -1.3079
  882SOL     OW 2644   2.419   1.282   0.520 -0.7176 -0.7164  0.4713
  882SOL    HW1 2645   2.359   1.225   0.581 -1.8138 -1.7028  0.0591
  882SOL    HW2 2646   2.447   1.370   0.561 -0.4442  0.6456  0.2003
  883SOL     OW 2647   1.412   0.795   2.255  0.9163 -0.0230  0.0827
  883SOL    HW1 2648   1.360   0.766   2.338 -2.5252 -0.4067 -2.1087
  883SOL    HW2 2649   1.349   0.813   2.177 -0.5043 -1.8987  0.7955
  884SOL     OW 2650   0.160   0.062   1.848 -0.1831  0.0464 -0.1640
  884SOL    HW1 2651   0.084   0.078   1.781 -0.9924  0.2577 -1.4463
  884SOL    HW2 2652   0.248   0.093   1.804  1.6507  2.1278 -1.5703
  885SOL     OW 2653   2.069   1.375   2.566  0.0633 -0.3883  0.0252
  885SOL    HW1 2654   2.016   1.442   2.512 -0.9200 -1.1748  1.9886
  885SOL    HW2 2655   2.019   1.284   2.574 -2.7009 -2.6252 -0.1078
  886SOL     OW 2656   1.744   0.503   2.796 -0.0199 -0.1389  0.4573
  886SOL    HW1 2657   1.795   0.515   2.705 -3.2329 -0.3403 -3.3382
  886SOL    HW2 2658   1.672   0.580   2.804 -0.8921  0.1138  1.8046
  887SOL     OW 2659   1.023   2.765   1.441  0.0719  0.1333  0.2020
  887SOL    HW1 2660   1.008   2.851   1.391  1.1337 -3.5456  0.9051
  887SOL    HW2 2661   0.934   2.729   1.481 -0.5645  0.1730  0.2739
  888SOL     OW 2662   2.336   1.386   1.578  0.0661  0.0090 -0.1632
  888SOL    HW1 2663   2.305   1.469   1.521 -1.9816  1.1729 -1.5997
  888SOL    HW2 2664   2.352   1.412   1.677 -0.2584 -2.3652  1.0520
  889SOL     OW 2665   2.096   2.651   1.406  0.0719  0.1303  0.2423
  889SOL    HW1 2666   2.111   2.652   1.307 -0.3749  3.1654  2.9840
  889SOL    HW2 2667   2.149   2.582   1.458 -0.1481  0.9194  0.8941
  890SOL     OW 2668   0.952   2.261   0.907 -0.1865  0.4943  0.5182
  890SOL    HW1 2669   1.008   2.184   0.876 -0.2909 -0.1078  0.5992
  890SOL    HW2 2670   1.016   2.334   0.946  1.4278  2.3431  2.5144
  891SOL     OW 2671   2.552   1.331   0.150 -0.1362 -0.0210  0.1138
  891SOL    HW1 2672   2.506   1.390   0.082 -1.5152 -2.1785  0.4628
  891SOL    HW2 2673   2.577   1.382   0.237 -0.2422 -2.9314  1.8364
  892SOL     OW 2674   2.570   1.457   2.602  0.0290  0.1353  0.3026
  892SOL    HW1 2675   2.613   1.486   2.514  0.4315  2.0183 -0.3888
  892SOL    HW2 2676   2.473   1.433   2.579  1.2361  1.3947 -1.4275
  893SOL     OW 2677   2.405   2.661   0.995 -0.2999  0.2554 -0.8596
  893SOL    HW1 2678   2.486   2.720   0.975  1.4704  1.2808 -0.2129
  893SOL    HW2 2679   2.431   2.558   1.006  2.0877 -3.4220 -1.0037
  894SOL     OW 2680   2.918   0.690   0.570  0.1773  0.5345 -0.6025
  894SOL    HW1 2681   2.835   0.646   0.608 -1.1799 -0.7592  0.6820
  894SOL    HW2 2682   2.979   0.624   0.524 -2.5181 -0.3887 -0.6738
  895SOL     OW 2683   2.710   2.521   2.396  0.0499  0.2610 -0.3655
  895SOL    HW1 2684   2.782   2.486   2.335  3.4613 -1.8629 -0.1132
  895SOL    HW2 2685   2.749   2.533   2.491  0.0927  0.7554 -0.8472
  896SOL     OW 2686   2.233   2.594   2.517  0.4520 -0.3735  0.0281
  896SOL    HW1 2687   2.334   2.600   2.523  1.3246  1.6077  1.9308
  896SOL    HW2 2688   2.201   2.685   2.553 -0.3561  0.0164 -1.7424
  897SOL     OW 2689   0.389   1.732   2.025  0.0972  0.1244  0.4727
  897SOL    HW1 2690   0.311   1.673   2.042  1.1980 -2.5393 -0.0508
  897SOL    HW2 2691   0.477   1.682   2.049 -0.8158 -1.6664 -0.3860
  898SOL     OW 2692   0.029   2.002   2.164  0.0769 -0.1132 -0.1027
  898SOL    HW1 2693   0.039   1.905   2.175 -2.5614  0.6376  0.3068
  898SOL    HW2 2694   3.009   2.036   2.151  4.0541  0.8023  1.0994
  899SOL     OW 2695   1.902   3.054   1.331 -0.5691 -0.3523  0.2656
  899SOL    HW1 2696   1.831   3.028   1.400  1.5872 -1.9161  3.6002
  899SOL    HW2 2697   1.991   3.071   1.380 -1.3699 -0.1026 -1.6662
  900SOL     OW 2698   1.510   1.069   0.423 -0.0948 -0.1293  0.1797
  900SOL    HW1 2699   1.552   1.149   0.469 -0.4954 -2.0369  1.1576
  900SOL    HW2 2700   1.578   0.998   0.404 -1.5919 -3.3426  0.2031
  901SOL     OW 2701   1.286   1.314   2.623  0.3463 -0.3468 -0.0412
  901SOL    HW1 2702   1.209   1.331   2.561  2.3594 -0.6284  1.7444
  901SOL    HW2 2703   1.336   1.405   2.638  3.3880  1.7949  2.4222
  902SOL     OW 2704   2.895   2.239   0.834 -0.0158 -0.7702 -0.3040
  902SOL    HW1 2705   2.959   2.320   0.846 -1.5067 -0.1454  2.3446
  902SOL    HW2 2706   2.878   2.207   0.927 -0.9188  0.0560 -1.3490
  903SOL     OW 2707   0.033   1.262   1.837  0.1222  0.5116  0.3368
  903SOL    HW1 2708   0.103   1.329   1.812 -0.1728 -0.9912  1.1065
  903SOL    HW2 2709   3.044   1.301   1.902  0.0058  0.2551 -1.4531
  904SOL     OW 2710   1.104   1.500   0.269 -0.2751  0.8493 -0.1215
  904SOL    HW1 2711   1.070   1.437   0.191 -2.7269 -1.0935  0.1403
  904SOL    HW2 2712   1.173   1.568   0.240  0.7360 -0.1883  1.0344
  905SOL     OW 2713   2.540   2.388   1.483 -0.5026  0.2561 -0.2575
  905SOL    HW1 2714   2.481   2.470   1.495  0.9114 -3.1447  0.5501
  905SOL    HW2 2715   2.615   2.386   1.548  1.6000  1.4040 -2.3967
  906SOL     OW 2716   1.774   2.491   2.895 -0.1209  0.6807 -0.0086
  906SOL    HW1 2717   1.729   2.440   2.970  3.1215 -1.5773 -4.0098
  906SOL    HW2 2718   1.851   2.546   2.925 -1.1810 -1.7460 -1.3879
  907SOL     OW 2719   0.368   2.604   0.983  0.1541  0.0926  1.1736
  907SOL    HW1 2720   0.429   2.572   1.059 -0.3413 -0.4251  1.9166
  907SOL    HW2 2721   0.424   2.660   0.917  2.1387 -0.1680  0.4125
  908SOL     OW 2722   0.591   0.162   1.881 -0.0089  0.4267  0.1927
  908SOL    HW1 2723   0.657   0.128   1.950 -0.3265  0.7247  1.5552
  908SOL    HW2 2724   0.624   0.130   1.787  0.8215 -2.7952 -2.1217
  909SOL     OW 2725   1.812   0.393   1.397  0.7827 -1.2134  0.3509
  909SOL    HW1 2726   1.897   0.439   1.426 -1.1162  1.0978  1.6005
  909SOL    HW2 2727   1.816   0.359   1.299 -1.3168  1.6448 -4.5714
  910SOL     OW 2728   0.674   0.573   0.141  0.2436  0.1467  0.2811
  910SOL    HW1 2729   0.696   0.630   0.219 -0.1799  0.2080  1.7518
  910SOL    HW2 2730   0.594   0.508   0.157 -1.4091 -0.1714  2.4321
  911SOL     OW 2731   0.196   0.263   2.849  0.0105  0.7224 -0.5011
  911SOL    HW1 2732   0.094   0.248   2.858 -4.9062  0.1925  0.4505
  911SOL    HW2 2733   0.255   0.179   2.858 -0.3004  1.3724 -0.2695
  912SOL     OW 2734   2.859   2.536   2.635 -0.7956 -0.0316  0.4593
  912SOL    HW1 2735   2.918   2.607   2.681  1.9675  4.7023  1.8783
  912SOL    HW2 2736   2.864   2.445   2.681 -0.1160 -1.3986 -0.5047
  913SOL     OW 2737   2.294   2.382   0.114  0.2429  0.0310  0.5439
  913SOL    HW1 2738   2.281   2.287   0.125 -1.3744 -0.0772  0.3176
  913SOL    HW2 2739   2.259   2.417   0.022 -3.4592 -0.0289 -0.1975
  914SOL     OW 2740   1.453   1.728   2.052 -0.2716 -0.9283 -0.1170
  914SOL    HW1 2741   1.457   1.661   2.129 -0.0036 -1.7199  3.2170
  914SOL    HW2 2742   1.510   1.811   2.074  3.1272 -1.4590 -1.3822
  915SOL     OW 2743   2.899   2.516   2.166  0.0329  0.0706  0.0585
  915SOL    HW1 2744   2.996   2.538   2.149 -1.0274 -1.3511  2.4779
  915SOL    HW2 2745   2.840   2.591   2.125  1.9368 -0.3325 -0.6126
  916SOL     OW 2746   0.055   0.719   2.046 -0.2116 -0.5364 -0.1162
  916SOL    HW1 2747   0.105   0.770   2.119  2.9757  0.9300  1.2854
  916SOL    HW2 2748   0.120   0.648   2.007  1.2933 -1.9983  0.5469
  917SOL     OW 2749   1.834   0.258   2.898  0.0815  0.1983  0.7246
  917SOL    HW1 2750   1.792   0.259   2.993 -0.4987 -0.1274  1.9290
  917SOL    HW2 2751   1.791   0.335   2.844  0.9696  0.6235 -0.8944
  918SOL     OW 2752   1.900   2.464   2.188 -0.0552  1.0024 -0.1398
  918SOL    HW1 2753   1.894   2.522   2.269 -0.4488  0.9130  0.3094
  918SOL    HW2 2754   1.992   2.427   2.171  1.3576  2.1792  0.8077
  919SOL     OW 2755   2.061   2.188   1.916  0.1135  0.5643 -0.6243
  919SOL    HW1 2756   2.069   2.113   1.847  0.0923  1.6731  1.0153
  919SOL    HW2 2757   1.985   2.253   1.901 -0.8463  1.1927  0.5722
  920SOL     OW 2758   0.331   0.960   0.199 -0.7388  0.1389  0.1343
  920SOL    HW1 2759   0.317   0.860   0.201  0.7058 -1.4244 -0.9799
  920SOL    HW2 2760   0.249   1.010   0.231 -0.1443  1.1395  0.2604
  921SOL     OW 2761   2.737   1.139   2.682  0.0746  0.6059  0.1957
  921SOL    HW1 2762   2.656   1.183   2.734 -0.8374  0.5738 -0.2749
  921SOL    HW2 2763   2.718   1.127   2.583 -0.1218 -0.8308 -2.6253
  922SOL     OW 2764   0.516   1.751   0.111  0.1848 -0.5075 -0.0388
  922SOL    HW1 2765   0.481   1.781   0.019 -0.4476  1.5181  0.3202
  922SOL    HW2 2766   0.443   1.691   0.157 -3.3610 -0.4386  1.9260
  923SOL     OW 2767   0.647   0.864   2.129 -0.6991 -0.1119  0.1840
  923SOL    HW1 2768   0.680   0.910   2.045  1.5638  0.6527 -0.1130
  923SOL    HW2 2769   0.718   0.804   2.173  0.6858 -0.6001 -0.7022
  924SOL     OW 2770   0.679   2.486   2.601  0.0458  0.4534 -0.1462
  924SOL    HW1 2771   0.769   2.442   2.617 -2.8110  1.9725  1.6348
  924SOL    HW2 2772   0.682   2.559   2.667 -1.1603 -0.4736 -0.4912
  925SOL     OW 2773   1.781   1.505   0.773  0.8548 -0.2394 -0.2382
  925SOL    HW1 2774   1.742   1.414   0.764 -0.7790 -0.3958 -2.1418
  925SOL    HW2 2775   1.744   1.566   0.699 -3.7655  1.8351 -1.2651
  926SOL     OW 2776   1.520   0.512   2.271 -0.1755  0.2182 -0.2260
  926SOL    HW1 2777   1.495   0.592   2.218  0.2187  0.6556 -2.3270
  926SOL    HW2 2778   1.596   0.540   2.333 -0.9021  0.0946 -0.1991
  927SOL     OW 2779   2.777   2.683   2.006  0.1959 -0.3214 -0.4516
  927SOL    HW1 2780   2.721   2.603   1.967  0.3553 -0.3267 -0.9852
  927SOL    HW2 2781   2.739   2.770   1.977  2.7534 -0.0498  2.0383
  928SOL     OW 2782   0.229   1.014   2.903 -0.2393  0.0165 -0.1245
  928SOL    HW1 2783   0.183   1.063   2.981  0.0743  2.9229  0.4035
  928SOL    HW2 2784   0.239   0.918   2.932 -3.0478 -0.8907 -0.2355
  929SOL     OW 2785   0.090   0.120   0.782  0.1811 -0.6582 -0.2376
  929SOL    HW1 2786   0.028   0.050   0.830 -0.4857 -1.9678  1.9701
  929SOL    HW2 2787   0.162   0.146   0.848 -0.5373 -1.8533  1.3587
  930SOL     OW 2788   2.318   0.187   1.948 -0.6005 -0.0045  0.0591
  930SOL    HW1 2789   2.248   0.122   1.933  3.2526  2.4033  1.0357
  930SOL    HW2 2790   2.367   0.208   1.861 -0.4302  3.5916  0.3445
  931SOL     OW 2791   2.166   1.194   0.144  0.1292 -0.1738  0.1119
  931SOL    HW1 2792   2.179   1.115   0.081 -0.9539  1.1509  3.2312
  931SOL    HW2 2793   2.202   1.281   0.094  2.0584 -0.5206 -2.3082
  932SOL     OW 2794   2.686   1.381   1.763  0.0490  0.0028 -0.0974
  932SOL    HW1 2795   2.765   1.442   1.758 -2.3891  0.3586 -0.9906
  932SOL    HW2 2796   2.709   1.285   1.789 -1.7413  0.2195  1.5386
  933SOL     OW 2797   2.924   2.529   1.664 -0.3659 -0.0502 -0.3359
  933SOL    HW1 2798   3.007   2.537   1.726  1.6619  1.7451 -0.8209
  933SOL    HW2 2799   2.851   2.593   1.682  1.6432  3.1503  0.8088
  934SOL     OW 2800   0.604   2.829   1.230  0.8759  0.3213 -0.7201
  934SOL    HW1 2801   0.671   2.785   1.164 -0.5387 -0.1381  2.7021
  934SOL    HW2 2802   0.650   2.823   1.320 -3.3666 -1.3679  0.3465
  935SOL     OW 2803   2.503   1.047   2.187 -0.7161 -0.5908  0.5544
  935SOL    HW1 2804   2.605   1.040   2.170  0.7732  2.7737 -0.7051
  935SOL    HW2 2805   2.476   1.146   2.204 -0.3041  1.9613  0.1356
  936SOL     OW 2806   2.238   1.054   1.808 -0.4971 -0.6336 -0.2583
  936SOL    HW1 2807   2.247   1.060   1.707 -3.7361 -0.9743  3.0968
  936SOL    HW2 2808   2.325   1.016   1.851  0.6142 -1.1742  0.8863
  937SOL     OW 2809   1.975   1.072   2.072 -0.0164  0.0213  0.3082
  937SOL    HW1 2810   1.879   1.055   2.061  3.1557 -1.6240  0.9188
  937SOL    HW2 2811   2.028   0.989   2.100 -0.9146 -2.6667 -1.3414
  938SOL     OW 2812   0.802   2.536   0.062  0.1274  0.2429  0.4859
  938SOL    HW1 2813   0.788   2.446   0.107  1.1307 -2.3182  0.8338
  938SOL    HW2 2814   0.786   2.608   0.134 -2.2060 -2.9699 -0.2532
  939SOL     OW 2815   2.426   0.754   0.054 -0.1246  0.0853  0.6262
  939SOL    HW1 2816   2.375   0.839   0.061  0.5610 -0.9809 -0.0673
  939SOL    HW2 2817   2.513   0.763   0.106 -0.5999  0.5278 -0.5305
  940SOL     OW 2818   1.158   2.046   0.832  0.1454 -0.3981  0.0750
  940SOL    HW1 2819   1.135   2.010   0.928 -1.0455 -1.0493 -0.3045
  940SOL    HW2 2820   1.086   2.020   0.764  0.9401  2.5349 -1.8726
  941SOL     OW 2821   0.923   2.091   1.645  0.7234  0.2314 -0.2287
  941SOL    HW1 2822   0.828   2.086   1.604 -2.3452 -0.1575  2.3363
  941SOL    HW2 2823   0.961   1.994   1.642 -0.9525  1.7313 -2.4992
  942SOL     OW 2824   0.312   2.009   2.829  0.5011  0.0503 -0.2517
  942SOL    HW1 2825   0.377   1.978   2.761 -1.6881  3.4041  1.5451
  942SOL    HW2 2826   0.253   1.930   2.855  1.0968 -1.1067 -1.1626
  943SOL     OW 2827   2.178   3.044   1.851  0.1396  0.3388 -0.3885
  943SOL    HW1 2828   2.124   2.961   1.877  1.0637  1.7741  1.4538
  943SOL    HW2 2829   2.143   3.069   1.756 -1.2806  0.8668 -0.2543
  944SOL     OW 2830   1.399   1.977   2.810 -0.3797  0.6870 -0.3516
  944SOL    HW1 2831   1.486   1.954   2.865  2.2040  0.6270 -0.8377
  944SOL    HW2 2832   1.389   2.079   2.812  0.7762  4.7717 -2.4372
  945SOL     OW 2833   2.603   2.462   0.741 -0.5953  0.1072  0.4207
  945SOL    HW1 2834   2.653   2.393   0.685 -1.9433 -0.8359 -1.2534
  945SOL    HW2 2835   2.637   2.559   0.723  1.1260 -1.0136  0.2611
  946SOL     OW 2836   1.092   1.703   2.394 -0.0644  0.9426  0.1314
  946SOL    HW1 2837   1.034   1.724   2.311 -1.0214 -0.1703 -0.6856
  946SOL    HW2 2838   1.108   1.790   2.442 -0.6497 -0.7249 -0.3647
  947SOL     OW 2839   0.236   0.550   1.902 -0.0615  0.5326  0.0279
  947SOL    HW1 2840   0.336   0.567   1.890 -0.4663  0.5647 -2.0090
  947SOL    HW2 2841   0.222   0.503   1.997  0.6538  0.5268 -2.4694
  948SOL     OW 2842   2.920   1.274   0.924 -0.2362  0.1357  0.6624
  948SOL    HW1 2843   2.897   1.191   0.973  1.9891  1.2569  0.8002
  948SOL    HW2 2844   2.889   1.260   0.824 -0.8648  0.0602 -2.2081
  949SOL     OW 2845   0.872   0.740   2.204 -0.6661  0.5388  0.4479
  949SOL    HW1 2846   0.843   0.643   2.207  0.3606 -3.4338  1.0181
  949SOL    HW2 2847   0.917   0.758   2.114  0.6868 -0.4771  4.6115
  950SOL     OW 2848   0.180   0.668   1.539 -0.1801 -0.2674  0.0311
  950SOL    HW1 2849   0.152   0.733   1.614  3.5914  0.0316 -0.3574
  950SOL    HW2 2850   0.188   0.572   1.572 -3.1794  1.1761  0.7610
  951SOL     OW 2851   0.451   1.108   2.765  0.4683  0.1686 -0.1311
  951SOL    HW1 2852   0.440   1.054   2.681 -0.9297  2.8175  0.5519
  951SOL    HW2 2853   0.358   1.109   2.809 -1.8228 -1.1102  0.6366
  952SOL     OW 2854   1.832   2.145   0.815  0.2107 -0.6272  0.0042
  952SOL    HW1 2855   1.813   2.188   0.902  0.7282 -2.0999 -0.2794
  952SOL    HW2 2856   1.928   2.115   0.807 -0.4541  0.8277 -2.4334
  953SOL     OW 2857   0.396   0.047   0.243 -0.5358 -0.2300 -0.1269
  953SOL    HW1 2858   0.457   0.008   0.317  2.4467 -0.2448 -0.4713
  953SOL    HW2 2859   0.321   0.108   0.281 -2.6385 -1.5965  1.5240
  954SOL     OW 2860   2.464   0.828   1.172  0.2263  0.0922  0.2636
  954SOL    HW1 2861   2.369   0.794   1.186  0.6358  2.1395 -0.5307
  954SOL    HW2 2862   2.528   0.771   1.224  0.4311 -0.4529 -1.4181
  955SOL     OW 2863   1.474   1.470   2.946  0.0239 -0.2519  0.4853
  955SOL    HW1 2864   1.520   1.410   2.873  0.2486 -1.1085 -1.3449
  955SOL    HW2 2865   1.399   1.415   2.997 -0.0119 -1.7572  2.3348
  956SOL     OW 2866   1.052   0.758   2.633  0.5745  0.4895  0.7186
  956SOL    HW1 2867   1.149   0.773   2.601  1.0281 -0.6874  1.7497
  956SOL    HW2 2868   1.028   0.657   2.636 -0.7274  1.7296  0.6730
  957SOL     OW 2869   1.406   0.195   1.655 -0.7160  0.0651  0.5936
  957SOL    HW1 2870   1.420   0.138   1.744 -0.8056  0.3934  2.4724
  957SOL    HW2 2871   1.483   0.182   1.588  2.0319 -2.0272 -2.7475
  958SOL     OW 2872   0.491   2.008   0.436 -0.6872 -0.2377  0.5811
  958SOL    HW1 2873   0.542   2.019   0.346  0.7336 -0.7227 -0.0875
  958SOL    HW2 2874   0.389   2.001   0.422 -4.9849 -1.4974  0.0283
  959SOL     OW 2875   1.903   0.846   1.717 -0.4535  0.2462 -0.3091
  959SOL    HW1 2876   1.975   0.891   1.775 -1.3678 -1.0034  0.6847
  959SOL    HW2 2877   1.905   0.745   1.723  2.2405 -0.7487 -2.7993
  960SOL     OW 2878   0.182   1.805   2.949  0.4187 -0.0391 -0.4935
  960SOL    HW1 2879   0.276   1.765   2.951 -2.5671  0.0430  1.9941
  960SOL    HW2 2880   0.145   1.803   3.042 -2.1688 -1.2719 -1.9799
  961SOL     OW 2881   0.687   1.947   0.918  0.4683 -0.4513 -0.0009
  961SOL    HW1 2882   0.697   2.039   0.952 -0.8507 -3.1557 -1.4157
  961SOL    HW2 2883   0.768   1.892   0.941 -0.2674 -2.0375  0.4702
  962SOL     OW 2884   0.264   1.448   1.421  0.2714 -0.6523 -0.0182
  962SOL    HW1 2885   0.242   1.487   1.330  0.3482  0.5383  1.6678
  962SOL    HW2 2886   0.204   1.368   1.438  0.5463 -1.7522 -0.5761
  963SOL     OW 2887   1.471   2.010   2.533  0.1816 -0.1866  0.3307
  963SOL    HW1 2888   1.499   1.926   2.480 -0.1223  2.4293 -2.5333
  963SOL    HW2 2889   1.476   1.996   2.635  0.7043 -0.6646  0.6581
  964SOL     OW 2890   0.208   2.940   2.213  0.2693 -0.6186 -0.2566
  964SOL    HW1 2891   0.123   2.906   2.264 -0.0313 -0.3189  1.6433
  964SOL    HW2 2892   0.301   2.907   2.245 -0.3033  1.4230 -1.2271
  965SOL     OW 2893   3.016   2.233   2.767 -0.1636  0.0807 -0.0964
  965SOL    HW1 2894   2.949   2.234   2.843 -0.4962 -1.3364 -0.6488
  965SOL    HW2 2895   2.984   2.190   2.678  1.3760 -0.2990 -1.5695
  966SOL     OW 2896   2.818   1.621   2.710  0.8920  0.5027 -0.8928
  966SOL    HW1 2897   2.742   1.564   2.676 -2.0183 -0.2056 -0.6717
  966SOL    HW2 2898   2.818   1.623   2.812  2.3946  2.6889 -3.4333
  967SOL     OW 2899   1.689   0.308   0.063  0.5484  0.2768 -0.2555
  967SOL    HW1 2900   1.681   0.408   0.080 -0.6447 -0.2437  1.5468
  967SOL    HW2 2901   1.684   0.254   0.150  1.6227 -0.6626  0.4412
  968SOL     OW 2902   2.674   0.001   0.830  0.0750 -0.8895 -0.0263
  968SOL    HW1 2903   2.633   2.994   0.880 -0.4400 -2.6519  0.9021
  968SOL    HW2 2904   2.605   0.078   0.822 -0.1175  1.5395 -2.0472
  969SOL     OW 2905   0.424   1.072   2.054 -0.2718  0.2986 -0.4906
  969SOL    HW1 2906   0.373   1.087   1.967  1.6782 -0.9130  3.4208
  969SOL    HW2 2907   0.525   1.072   2.031 -0.5226  2.4716  0.7689
  970SOL     OW 2908   1.592   1.675   2.816 -0.3123  0.0790 -0.1231
  970SOL    HW1 2909   1.541   1.605   2.874 -1.3761  0.0586 -0.6127
  970SOL    HW2 2910   1.614   1.755   2.874  2.0714 -1.4698 -1.3289
  971SOL     OW 2911   2.365   0.208   1.672  0.3534 -0.2757  0.4430
  971SOL    HW1 2912   2.262   0.213   1.682 -1.1676  0.2484  0.0212
  971SOL    HW2 2913   2.396   0.114   1.645 -0.0626 -1.4872 -1.8120
  972SOL     OW 2914   2.911   0.298   0.780  0.4222 -0.3719 -0.3958
  972SOL    HW1 2915   2.864   0.275   0.693  0.5112 -0.0887  0.6362
  972SOL    HW2 2916   3.006   0.263   0.796  2.0532  2.5333  0.8233
  973SOL     OW 2917   0.432   0.469   2.499 -0.0461 -0.9045  0.1235
  973SOL    HW1 2918   0.357   0.460   2.432  1.8443 -0.9255 -0.7542
  973SOL    HW2 2919   0.419   0.422   2.589 -0.6982 -0.3980 -3.6754
  974SOL     OW 2920   2.711   1.082   1.794 -0.1503 -0.1205  0.1071
  974SOL    HW1 2921   2.642   1.043   1.857 -1.0344  1.2814  0.5466
  974SOL    HW2 2922   2.802   1.038   1.801 -1.2511  0.0151  2.8230
  975SOL     OW 2923   1.140   2.703   1.733 -0.3882  1.1443 -0.3210
  975SOL    HW1 2924   1.116   2.748   1.646  2.1571 -3.2144 -0.7593
  975SOL    HW2 2925   1.112   2.602   1.723 -1.5257 -1.8557 -2.4971
  976SOL     OW 2926   1.654   1.502   1.314 -0.5720  0.3010  0.2009
  976SOL    HW1 2927   1.700   1.584   1.272  1.4178  1.6339 -0.4569
  976SOL    HW2 2928   1.635   1.522   1.413  2.1145 -1.6236  0.1131
  977SOL     OW 2929   0.411   2.971   0.012 -0.3889 -0.7165 -0.2518
  977SOL    HW1 2930   0.400   3.024   0.098  1.8306  0.9612 -0.0168
  977SOL    HW2 2931   0.397   2.870   0.025 -1.4589 -4.0596 -1.6457
  978SOL     OW 2932   1.938   1.395   2.128 -0.0260  0.1019  0.0791
  978SOL    HW1 2933   1.879   1.469   2.090 -2.4836 -2.3770 -0.0855
  978SOL    HW2 2934   1.981   1.334   2.057 -0.2970 -0.5262 -2.3677
  979SOL     OW 2935   1.506   0.755   1.968 -0.1445  0.4124 -0.7028
  979SOL    HW1 2936   1.409   0.775   1.998  3.3483 -0.9147  2.1345
  979SOL    HW2 2937   1.532   0.824   1.897 -0.4099 -1.6100 -1.0872
  980SOL     OW 2938   1.893   1.867   2.361  0.5566  0.6707 -0.0510
  980SOL    HW1 2939   1.869   1.958   2.321  0.4566  0.8125  0.2984
  980SOL    HW2 2940   1.843   1.858   2.451 -0.3606  1.2758 -1.7561
  981SOL     OW 2941   1.626   0.529   1.898  0.0482  0.1023 -0.2198
  981SOL    HW1 2942   1.541   0.471   1.893 -1.2471 -1.5244  3.5625
  981SOL    HW2 2943   1.598   0.630   1.918 -1.6680  2.7471  0.2592
  982SOL     OW 2944   0.420   0.433   0.215 -0.2459  0.2526 -0.1743
  982SOL    HW1 2945   0.443   0.349   0.268 -1.2312 -0.4348 -0.4503
  982SOL    HW2 2946   0.364   0.415   0.132 -2.3695 -0.8869 -0.3286
  983SOL     OW 2947   2.189   0.958   0.041 -0.2903 -0.1209  0.8966
  983SOL    HW1 2948   2.230   0.929   0.128 -0.3866  2.0491 -0.4597
  983SOL    HW2 2949   2.191   0.878   3.050  1.1485  0.3631  0.7482
  984SOL     OW 2950   0.821   0.193   2.751  0.0685  0.2369 -0.0507
  984SOL    HW1 2951   0.832   0.227   2.657 -1.4133 -2.9567 -0.1907
  984SOL    HW2 2952   0.900   0.226   2.807  0.9398 -0.1282  0.3735
  985SOL     OW 2953   1.413   2.148   1.977  0.4563 -0.0993 -0.0500
  985SOL    HW1 2954   1.386   2.102   1.892 -0.3759  2.1026 -3.0463
  985SOL    HW2 2955   1.484   2.209   1.942  0.5292 -0.2306  1.2699
  986SOL     OW 2956   2.421   2.660   1.893  0.0148  0.4670  0.0586
  986SOL    HW1 2957   2.442   2.757   1.902  0.0919 -0.1040  0.8083
  986SOL    HW2 2958   2.340   2.636   1.953 -2.2095 -1.7553 -0.8764
  987SOL     OW 2959   1.812   1.069   0.829  0.2037 -0.1170 -0.6811
  987SOL    HW1 2960   1.770   1.050   0.921 -0.4941 -1.1604 -0.2413
  987SOL    HW2 2961   1.753   1.147   0.796  0.1682  1.3372  0.7260
  988SOL     OW 2962   2.611   1.469   2.080 -0.1216 -0.1409 -0.0486
  988SOL    HW1 2963   2.715   1.468   2.059  1.1978 -2.9502 -0.9089
  988SOL    HW2 2964   2.562   1.552   2.038 -0.1494  3.6053  0.8900
  989SOL     OW 2965   1.522   2.256   0.293  0.0240 -0.2298  0.5564
  989SOL    HW1 2966   1.452   2.253   0.217 -2.0762 -0.4580  0.5888
  989SOL    HW2 2967   1.508   2.337   0.357 -0.5204  1.3075  0.2556
  990SOL     OW 2968   1.799   0.819   2.615  0.7347  0.1606  0.6180
  990SOL    HW1 2969   1.702   0.845   2.635  0.5385  3.0921  1.8753
  990SOL    HW2 2970   1.847   0.805   2.699 -3.0355  1.3955 -2.9869
  991SOL     OW 2971   0.831   0.664   0.826  0.1724 -0.5215 -0.5356
  991SOL    HW1 2972   0.827   0.761   0.866 -0.3373  1.7662  1.5099
  991SOL    HW2 2973   0.912   0.617   0.866 -2.3102 -0.9188 -0.2291
  992SOL     OW 2974   2.989   0.900   1.368  0.1302 -0.2498 -0.0436
  992SOL    HW1 2975   2.918   0.980   1.369  0.1439  1.8124  0.8308
  992SOL    HW2 2976   2.977   0.842   1.282 -2.5670 -0.6489 -2.2222
  993SOL     OW 2977   2.272   0.648   1.838  0.0323 -0.2737  0.0291
  993SOL    HW1 2978   2.214   0.563   1.828  1.3095 -1.3155 -1.3772
  993SOL    HW2 2979   2.334   0.658   1.760 -2.9197  1.1491  1.4126
  994SOL     OW 2980   1.067   1.638   1.794  0.0612 -0.0158  0.4419
  994SOL    HW1 2981   1.136   1.606   1.861  0.1786  0.5776  1.3246
  994SOL    HW2 2982   0.975   1.639   1.846 -1.3988 -0.1346  0.0374
  995SOL     OW 2983   2.185   1.498   2.768  0.6978 -0.3499 -0.0507
  995SOL    HW1 2984   2.141   1.438   2.697 -2.1681  1.3432  2.0714
  995SOL    HW2 2985   2.139   1.591   2.763  0.5199 -0.2073 -0.6677
  996SOL     OW 2986   1.924   1.822   0.414 -0.4411  0.4781 -0.4833
  996SOL    HW1 2987   1.897   1.916   0.455  0.3196  2.5976 -0.4730
  996SOL    HW2 2988   2.000   1.778   0.469 -0.3697 -1.6333  1.0448
  997SOL     OW 2989   2.095   0.433   1.865 -0.0620  0.3845 -0.2780
  997SOL    HW1 2990   2.061   0.435   1.957 -0.3026 -0.1193 -3.3248
  997SOL    HW2 2991   2.115   0.339   1.832 -0.6839  1.7502 -0.9585
  998SOL     OW 2992   2.304   1.086   0.712  0.4372 -0.2226  0.1055
  998SOL    HW1 2993   2.391   1.065   0.761  0.7888 -2.5235  0.1264
  998SOL    HW2 2994   2.262   1.002   0.667  2.8713  0.4266  0.4211
  999SOL     OW 2995   2.625   1.490   0.357 -0.4760 -0.4326 -0.1236
  999SOL    HW1 2996   2.583   1.576   0.394 -0.6564  1.5185 -1.8488
  999SOL    HW2 2997   2.672   1.434   0.428  3.4373 -0.5017  0.4823
 1000SOL     OW 2998   0.860   0.889   1.919  0.0118  0.1764  0.4506
 1000SOL    HW1 2999   0.950   0.853   1.886  1.4023 -0.1894 -3.5201
 1000SOL    HW2 3000   0.796   0.886   1.836  1.4123 -1.9803 -0.8415
   3.07372   3.07372   3.07372
