1000 SPC/Fw water molecules t=  59.00000 step= 59000
 3000
    1SOL     OW    1   2.078   2.601   0.789  0.0201 -0.0831  0.4302
    1SOL    HW1    2   2.012   2.613   0.706 -2.4865  2.2523 -3.6586
    1SOL    HW2    3   2.105   2.690   0.835 -1.0829  1.8129  0.3641
    2SOL     OW    4   1.016   1.035   2.595  0.3083  0.1667  0.4994
    2SOL    HW1    5   0.966   1.088   2.669 -3.1832  0.4394  0.2366
    2SOL    HW2    6   1.106   1.081   2.583  0.6296 -0.1382 -0.5314
    3SOL     OW    7   1.207   2.742   2.752  0.3166 -0.3479  0.1772
    3SOL    HW1    8   1.280   2.812   2.761 -2.7481  3.2905 -2.2985
    3SOL    HW2    9   1.242   2.645   2.743  2.6595  0.2056  0.3495
    4SOL     OW   10   1.330   1.465   2.806 -0.1389  0.1643 -0.9101
    4SOL    HW1   11   1.416   1.412   2.832  1.4506  0.5501 -0.2044
    4SOL    HW2   12   1.358   1.548   2.757  1.1617 -0.3703 -0.3545
    5SOL     OW   13   0.835   0.779   1.895  0.1864 -0.5244  0.2266
    5SOL    HW1   14   0.876   0.694   1.930  0.8319  0.5104  0.6672
    5SOL    HW2   15   0.745   0.758   1.857 -2.1979 -2.0009  2.4776
    6SOL     OW   16   1.977   0.628   2.337  0.2277 -0.4084 -0.0668
    6SOL    HW1   17   2.071   0.620   2.305 -1.6210  0.4896  0.5998
    6SOL    HW2   18   1.942   0.535   2.366 -1.8838  0.1441  0.3418
    7SOL     OW   19   0.108   0.626   1.695 -0.1800  0.3721  0.0356
    7SOL    HW1   20   0.161   0.709   1.707  0.8855  1.7121 -0.5481
    7SOL    HW2   21   0.011   0.637   1.723 -1.1265 -0.3355  1.1520
    8SOL     OW   22   1.910   3.104   1.972  0.3019  0.4312 -0.2113
    8SOL    HW1   23   1.875   3.010   1.980  1.5508  1.6484 -2.7516
    8SOL    HW2   24   1.834   0.067   1.990 -0.4043  0.1339 -2.0190
    9SOL     OW   25   0.299   3.106   0.735 -0.7300  0.3327  0.1305
    9SOL    HW1   26   0.210   0.044   0.731  0.7278  1.5394 -0.1002
    9SOL    HW2   27   0.319   3.057   0.646 -0.2864 -1.0614 -1.9231
   10SOL     OW   28   0.543   2.210   2.209 -0.1194 -0.2529  0.0755
   10SOL    HW1   29   0.566   2.235   2.305  0.2048 -0.8236 -1.5513
   10SOL    HW2   30   0.603   2.250   2.133 -0.2629  3.1528 -1.9187
   11SOL     OW   31   0.933   1.473   0.207  0.0944  0.1999  0.1764
   11SOL    HW1   32   0.883   1.484   0.121  0.6725  1.6000  1.8370
   11SOL    HW2   33   0.878   1.519   0.280  1.7591 -1.8125 -1.4994
   12SOL     OW   34   2.639   2.525   1.437 -0.5206  0.3009 -0.1425
   12SOL    HW1   35   2.661   2.526   1.534  0.6016 -2.1813 -3.3537
   12SOL    HW2   36   2.642   2.430   1.398 -0.9517  0.8537 -0.9936
   13SOL     OW   37   0.561   3.006   3.015  0.0017 -0.1391 -0.3930
   13SOL    HW1   38   0.586   3.106   3.026 -0.0776  1.7225  0.6995
   13SOL    HW2   39   0.558   2.972   0.005  0.6681  2.1240  0.3238
   14SOL     OW   40   1.452   1.830   1.438 -0.2595  0.1842  0.3225
   14SOL    HW1   41   1.372   1.823   1.508  0.0850  0.7433  1.4350
   14SOL    HW2   42   1.529   1.773   1.465  1.6522 -2.4762  1.0648
   15SOL     OW   43   0.346   1.761   2.402  0.4142 -0.0947  0.2266
   15SOL    HW1   44   0.393   1.748   2.488 -1.8144  1.6859 -2.8678
   15SOL    HW2   45   0.367   1.858   2.374  3.2283 -0.9521  0.0589
   16SOL     OW   46   1.598   0.574   2.830 -0.5433  0.2864  0.1800
   16SOL    HW1   47   1.595   0.577   2.730  0.8531 -0.6851  0.7250
   16SOL    HW2   48   1.570   0.661   2.867  1.5668  0.3374 -1.8286
   17SOL     OW   49   2.933   2.607   2.519  0.4672 -0.2249 -0.0358
   17SOL    HW1   50   2.962   2.523   2.569  2.0947  3.5254  0.6503
   17SOL    HW2   51   2.957   2.583   2.419  0.4717  0.4428 -1.9608
   18SOL     OW   52   1.191   1.246   0.905  0.0665  0.1696  0.0170
   18SOL    HW1   53   1.121   1.281   0.844  1.8104 -1.2924 -1.2432
   18SOL    HW2   54   1.175   1.285   0.993  1.6730  1.2795 -2.2117
   19SOL     OW   55   2.762   1.888   2.312  0.7588 -0.4658  0.3334
   19SOL    HW1   56   2.844   1.827   2.324 -2.1386  1.1700 -0.3818
   19SOL    HW2   57   2.751   1.953   2.392 -0.0176  0.0889  1.0741
   20SOL     OW   58   2.352   2.260   2.609  0.7694  0.1633  0.2029
   20SOL    HW1   59   2.356   2.289   2.511 -1.0492 -0.1012  0.0251
   20SOL    HW2   60   2.313   2.343   2.657 -1.5714 -0.1792  3.6743
   21SOL     OW   61   1.648   1.777   0.352 -0.2841  0.1102 -1.4360
   21SOL    HW1   62   1.639   1.728   0.447  1.5602 -1.0612  3.6751
   21SOL    HW2   63   1.675   1.877   0.370 -2.8290 -0.7526 -0.0228
   22SOL     OW   64   2.348   2.139   1.262  0.6991  0.0595  0.0119
   22SOL    HW1   65   2.410   2.071   1.304  1.2069 -3.5308 -0.2733
   22SOL    HW2   66   2.271   2.088   1.212 -3.8414  0.9694 -2.2576
   23SOL     OW   67   0.005   1.300   1.276 -0.1495 -0.0741  0.5626
   23SOL    HW1   68   3.071   1.307   1.179 -0.9972  0.4800 -0.0775
   23SOL    HW2   69   3.041   1.292   1.350  2.0247 -0.3810  0.6830
   24SOL     OW   70   2.369   1.250   1.848 -0.2831  0.0460 -0.3757
   24SOL    HW1   71   2.430   1.248   1.763  4.7387 -1.2644  0.2349
   24SOL    HW2   72   2.415   1.236   1.941 -0.5262 -1.1669  0.7594
   25SOL     OW   73   2.041   0.174   2.485  0.1787  0.0658 -0.1771
   25SOL    HW1   74   2.017   0.089   2.532 -0.6386  3.0352  0.6754
   25SOL    HW2   75   2.113   0.148   2.417  1.5467  0.6729 -0.5194
   26SOL     OW   76   0.887   3.086   0.296 -0.2511  0.4811  0.3982
   26SOL    HW1   77   0.910   3.081   0.394  0.7711  0.1096 -0.1957
   26SOL    HW2   78   0.803   0.031   0.287 -1.4929 -2.0220 -0.7213
   27SOL     OW   79   0.602   1.956   0.880  0.6039  0.0362  0.0826
   27SOL    HW1   80   0.640   1.915   0.792 -1.0123 -0.3896  2.6041
   27SOL    HW2   81   0.654   1.916   0.957  0.2903 -2.2117 -1.7962
   28SOL     OW   82   2.392   2.346   1.078 -0.2803 -0.1572 -0.9213
   28SOL    HW1   83   2.388   2.255   1.132  1.3491 -3.5355  1.4090
   28SOL    HW2   84   2.299   2.385   1.087 -2.2478 -0.3977  0.7367
   29SOL     OW   85   2.088   3.083   1.764  0.1621 -0.2670 -0.2867
   29SOL    HW1   86   2.022   3.076   1.844 -0.0382 -0.8675  0.8039
   29SOL    HW2   87   2.182   3.090   1.802 -0.4348 -1.0237 -0.4498
   30SOL     OW   88   0.621   2.921   1.259 -0.1790  0.1630 -0.2169
   30SOL    HW1   89   0.544   2.944   1.325  1.6526 -0.3936  0.7008
   30SOL    HW2   90   0.669   3.006   1.219  0.9014  1.7517 -1.4499
   31SOL     OW   91   0.029   1.935   2.027 -0.1828  0.0634  0.0492
   31SOL    HW1   92   0.112   1.992   2.013 -1.6590  2.8370  2.6680
   31SOL    HW2   93   0.045   1.835   2.022  0.3467 -1.1618  0.2978
   32SOL     OW   94   1.416   1.706   2.331  0.1605 -0.0573  0.3061
   32SOL    HW1   95   1.338   1.758   2.288 -0.2794 -0.3770 -3.4444
   32SOL    HW2   96   1.486   1.672   2.260  0.7192 -2.5857 -1.2846
   33SOL     OW   97   0.309   0.217   2.998  0.4718  0.7925  0.1330
   33SOL    HW1   98   0.350   0.256   2.915  2.2417 -2.1888  1.2804
   33SOL    HW2   99   0.314   0.115   2.996 -1.0947 -0.4807  1.5542
   34SOL     OW  100   2.419   3.040   0.440 -0.2572 -0.5667  0.5506
   34SOL    HW1  101   2.449   0.032   0.452  1.5388  0.0207 -2.5371
   34SOL    HW2  102   2.471   2.975   0.494 -0.0250  1.7015  1.0319
   35SOL     OW  103   2.879   0.287   1.672 -0.0978  0.1264  0.0378
   35SOL    HW1  104   2.858   0.377   1.627  0.1265  1.4836  0.0253
   35SOL    HW2  105   2.978   0.290   1.696 -0.6508 -0.0832  0.8026
   36SOL     OW  106   2.742   2.967   2.300  0.2862  0.1177  0.2755
   36SOL    HW1  107   2.708   2.917   2.378  0.1634  0.8540 -0.3826
   36SOL    HW2  108   2.795   2.907   2.234 -1.4187 -0.1635  0.6944
   37SOL     OW  109   1.480   2.840   0.067  0.2792 -0.1761 -1.0847
   37SOL    HW1  110   1.543   2.871   0.144  1.3280  1.7912  0.7381
   37SOL    HW2  111   1.390   2.804   0.104 -3.0799 -1.2754  1.4540
   38SOL     OW  112   0.052   0.770   2.995 -0.3910  0.4951 -0.5320
   38SOL    HW1  113   3.076   0.708   2.984  0.4809  0.3472  0.3986
   38SOL    HW2  114   0.104   0.765   2.906 -0.5795  1.1275 -1.7648
   39SOL     OW  115   1.608   1.861   2.027 -0.0872 -0.4226  0.2799
   39SOL    HW1  116   1.559   1.935   2.079  1.6867  2.8920  0.7849
   39SOL    HW2  117   1.581   1.767   2.067 -0.2717 -1.7768 -0.0452
   40SOL     OW  118   0.257   0.391   2.685 -0.1621 -0.1062  0.1776
   40SOL    HW1  119   0.172   0.355   2.734  0.0646  0.1087 -2.1906
   40SOL    HW2  120   0.257   0.351   2.592 -3.4704 -0.0986  1.9226
   41SOL     OW  121   1.694   0.937   1.963  0.2262 -0.0742 -0.0115
   41SOL    HW1  122   1.775   0.884   1.997 -0.1885  2.6532 -0.1824
   41SOL    HW2  123   1.626   0.950   2.036  1.4402  1.3420  1.0131
   42SOL     OW  124   0.048   0.353   1.722  0.1266 -0.2587 -0.1178
   42SOL    HW1  125   0.081   0.448   1.716  0.8020 -0.3694  1.5983
   42SOL    HW2  126   0.096   0.287   1.778  1.0732  1.7507 -4.4550
   43SOL     OW  127   1.416   1.438   1.620 -0.1160  0.1743 -0.7623
   43SOL    HW1  128   1.317   1.432   1.640 -2.7779  1.0361 -0.3341
   43SOL    HW2  129   1.471   1.356   1.647  0.4003  0.0482  1.4007
   44SOL     OW  130   0.037   0.297   2.828 -0.4358  0.1062 -0.3640
   44SOL    HW1  131   0.064   0.316   2.927  0.7500 -0.8817  1.0461
   44SOL    HW2  132   3.044   0.273   2.817 -1.0828  0.1721  0.5595
   45SOL     OW  133   0.313   2.202   1.361 -0.0226  0.1517 -0.6946
   45SOL    HW1  134   0.225   2.246   1.332 -1.3663  0.3469 -0.4123
   45SOL    HW2  135   0.375   2.207   1.279 -0.1635 -0.1226 -0.2544
   46SOL     OW  136   2.331   2.991   1.864  0.0517 -0.0090 -0.1672
   46SOL    HW1  137   2.402   3.063   1.868 -1.5878 -1.5944 -1.9378
   46SOL    HW2  138   2.353   2.932   1.783 -0.5531 -3.0493 -0.5113
   47SOL     OW  139   0.316   1.997   1.078 -0.4466 -0.0402  0.3420
   47SOL    HW1  140   0.353   1.926   1.013 -2.9440  0.1303  3.3890
   47SOL    HW2  141   0.215   1.975   1.093 -1.0195  2.7872 -1.2686
   48SOL     OW  142   0.554   2.947   0.172  0.2273  0.3991 -0.1591
   48SOL    HW1  143   0.574   3.032   0.226  0.8839  0.7709 -0.3159
   48SOL    HW2  144   0.470   2.894   0.202 -2.3585  2.0876  1.5180
   49SOL     OW  145   3.004   1.746   1.787 -0.6314 -0.3897  0.2124
   49SOL    HW1  146   3.041   1.703   1.872  0.6488  1.6468 -2.8871
   49SOL    HW2  147   2.961   1.675   1.732  0.5455  0.3783  2.8348
   50SOL     OW  148   1.400   3.081   0.651 -0.3713 -0.2751  0.1306
   50SOL    HW1  149   1.438   0.012   0.562  1.2161 -0.4336  0.2073
   50SOL    HW2  150   1.384   0.050   0.715 -2.7491 -0.4489 -1.8224
   51SOL     OW  151   1.146   0.263   1.179 -0.6770  0.1225  0.6219
   51SOL    HW1  152   1.192   0.241   1.263  0.2351 -0.3240 -4.3566
   51SOL    HW2  153   1.192   0.338   1.134  2.4411 -4.0905  1.5335
   52SOL     OW  154   0.563   1.296   0.639 -0.1047  0.5576 -0.0719
   52SOL    HW1  155   0.578   1.266   0.541 -2.1347  0.9808  1.4133
   52SOL    HW2  156   0.556   1.212   0.697  2.4817  1.1635  1.7096
   53SOL     OW  157   1.349   2.915   2.477  0.4133  0.4357 -0.8374
   53SOL    HW1  158   1.421   2.922   2.406  0.4627 -0.5524  1.6069
   53SOL    HW2  159   1.383   2.903   2.568  0.2486 -2.0107  0.3921
   54SOL     OW  160   1.771   0.483   1.750  0.4361 -0.0901  0.0636
   54SOL    HW1  161   1.804   0.565   1.696  0.9735  2.3353 -2.9486
   54SOL    HW2  162   1.843   0.432   1.801  0.3808  0.3260  2.1728
   55SOL     OW  163   2.992   2.650   0.295  0.1849 -0.2319  0.5526
   55SOL    HW1  164   3.009   2.718   0.370  0.6046  0.4350  0.6822
   55SOL    HW2  165   3.018   2.558   0.327  0.6082  0.6871 -0.3639
   56SOL     OW  166   1.016   2.933   1.653 -0.6768  0.2143  0.3839
   56SOL    HW1  167   0.957   2.970   1.576  0.5940  0.5513 -0.4286
   56SOL    HW2  168   1.079   2.862   1.621 -1.8468  1.5203  1.1114
   57SOL     OW  169   1.732   0.719   2.377 -0.1375 -0.0912 -0.8422
   57SOL    HW1  170   1.827   0.702   2.353 -1.9838  1.3251  0.7517
   57SOL    HW2  171   1.669   0.686   2.309 -0.8538 -0.4970  0.9384
   58SOL     OW  172   0.474   1.146   2.200 -0.1225  0.0959  0.1944
   58SOL    HW1  173   0.440   1.244   2.173 -0.6630  2.3302 -0.4441
   58SOL    HW2  174   0.415   1.074   2.157 -2.7989  0.7751  1.1038
   59SOL     OW  175   0.719   2.443   2.013 -0.3417 -0.0610  0.3616
   59SOL    HW1  176   0.728   2.342   1.987 -1.8981 -0.0366 -1.2768
   59SOL    HW2  177   0.761   2.502   1.941 -3.8111 -0.1229  0.3765
   60SOL     OW  178   2.334   2.459   0.143  0.4511  0.2371  0.1871
   60SOL    HW1  179   2.391   2.388   0.101  0.0428  0.0528 -0.1505
   60SOL    HW2  180   2.377   2.551   0.123  1.3735 -1.6499  0.7429
   61SOL     OW  181   1.218   2.681   0.788  0.0034 -0.2129 -0.6290
   61SOL    HW1  182   1.247   2.697   0.887 -1.1082 -1.1905  0.7287
   61SOL    HW2  183   1.239   2.583   0.768 -4.2789  1.4307 -1.1849
   62SOL     OW  184   1.561   2.372   2.817  0.4729 -0.0173  0.0351
   62SOL    HW1  185   1.566   2.284   2.762  0.7975 -1.0380 -3.2753
   62SOL    HW2  186   1.596   2.369   2.911 -2.6866  0.0092 -5.0436
   63SOL     OW  187   2.383   0.603   2.835  0.0719 -0.6788  0.2884
   63SOL    HW1  188   2.340   0.635   2.920 -0.0407 -0.5032  0.7992
   63SOL    HW2  189   2.368   0.505   2.812  1.0471  1.2675 -0.4118
   64SOL     OW  190   1.285   1.236   0.236  0.2817  0.1095 -0.5271
   64SOL    HW1  191   1.206   1.244   0.167 -1.5982 -0.2930 -0.8295
   64SOL    HW2  192   1.289   1.319   0.295 -1.0311  0.3752 -2.5518
   65SOL     OW  193   0.915   3.038   1.432 -0.0948  0.2425 -0.1756
   65SOL    HW1  194   0.998   3.001   1.384 -1.6323 -1.2511  0.9953
   65SOL    HW2  195   0.893   0.029   1.407 -1.1928 -3.1269  1.4756
   66SOL     OW  196   0.808   1.311   1.373 -0.1121 -0.0140  0.1646
   66SOL    HW1  197   0.790   1.246   1.450 -1.6886  1.7507 -1.0084
   66SOL    HW2  198   0.895   1.291   1.323 -0.2623  3.1911  0.2519
   67SOL     OW  199   2.260   2.351   1.950 -0.5221 -0.4169 -0.4832
   67SOL    HW1  200   2.283   2.447   1.987  2.3378  1.8203  0.7757
   67SOL    HW2  201   2.300   2.337   1.855 -0.0019 -0.0975 -1.5358
   68SOL     OW  202   1.119   1.179   1.777 -0.0091  0.1391  0.6423
   68SOL    HW1  203   1.122   1.235   1.692 -1.4674  1.4085  1.2108
   68SOL    HW2  204   1.066   1.090   1.747 -4.4927 -0.8178 -3.0492
   69SOL     OW  205   2.666   2.648   0.093  0.4634 -0.0793 -0.0476
   69SOL    HW1  206   2.681   2.607   0.186 -0.9214  3.6375  0.9298
   69SOL    HW2  207   2.571   2.677   0.071  1.4084 -1.3239 -0.1993
   70SOL     OW  208   2.459   0.750   2.476  0.3154  0.0769  0.1225
   70SOL    HW1  209   2.486   0.818   2.545  1.5612 -0.8944  1.1786
   70SOL    HW2  210   2.474   0.657   2.515 -0.4932  1.3387  1.1846
   71SOL     OW  211   0.156   1.967   0.722 -0.6493  0.4047 -0.1090
   71SOL    HW1  212   0.131   1.885   0.666 -1.7779  0.0650 -0.4532
   71SOL    HW2  213   0.071   2.016   0.749  0.5789 -0.4846  1.4586
   72SOL     OW  214   2.653   1.745   0.406 -0.7983 -0.3956 -0.6666
   72SOL    HW1  215   2.624   1.768   0.315  1.3518 -1.7004  1.3907
   72SOL    HW2  216   2.580   1.689   0.446 -1.4211 -2.1251 -2.5791
   73SOL     OW  217   1.068   0.413   0.643  0.0593  0.4948 -0.3794
   73SOL    HW1  218   1.164   0.446   0.638  0.6684 -0.6769 -1.4364
   73SOL    HW2  219   1.049   0.373   0.739  0.5501 -2.2260  2.8903
   74SOL     OW  220   2.597   2.332   2.172 -0.3299  0.7016  0.1406
   74SOL    HW1  221   2.582   2.286   2.084  0.8127 -0.2236  2.0133
   74SOL    HW2  222   2.692   2.310   2.200  0.6769 -0.1655  1.3163
   75SOL     OW  223   1.599   1.888   1.767 -0.0851  0.0276  1.0143
   75SOL    HW1  224   1.612   1.856   1.862  1.4061  0.1311  0.5222
   75SOL    HW2  225   1.578   1.806   1.708  1.8745 -3.5182  0.9863
   76SOL     OW  226   1.016   2.039   1.168  0.2541  0.3753  0.1596
   76SOL    HW1  227   1.051   1.953   1.209  2.0834 -0.7403 -0.8406
   76SOL    HW2  228   0.918   2.051   1.203 -1.6603 -2.6541 -0.6934
   77SOL     OW  229   2.775   1.665   1.950  0.1487 -0.4423  0.5824
   77SOL    HW1  230   2.830   1.614   2.018  0.2292  4.1444 -1.1379
   77SOL    HW2  231   2.826   1.750   1.935  2.9165  0.7321 -1.9057
   78SOL     OW  232   1.891   0.665   0.458 -0.4115  0.4457  0.5983
   78SOL    HW1  233   1.981   0.711   0.486  2.3025  1.1217 -3.3089
   78SOL    HW2  234   1.822   0.737   0.447 -0.1680 -1.0815  2.0276
   79SOL     OW  235   1.692   1.404   1.896 -0.4250 -1.0228 -0.5092
   79SOL    HW1  236   1.709   1.411   1.995 -1.6380  0.7152 -1.5628
   79SOL    HW2  237   1.772   1.365   1.843  0.7840 -0.3643  0.8742
   80SOL     OW  238   1.107   0.524   1.679 -0.7007 -0.3302 -0.6232
   80SOL    HW1  239   1.177   0.508   1.606 -2.1326 -0.7914 -2.1946
   80SOL    HW2  240   1.141   0.557   1.767  0.2351  0.6502 -0.4428
   81SOL     OW  241   0.895   2.654   0.787 -0.2215 -0.3205 -0.0426
   81SOL    HW1  242   0.861   2.730   0.847 -1.0337 -0.1290  1.5686
   81SOL    HW2  243   1.000   2.650   0.788  0.2117 -0.2228 -2.7322
   82SOL     OW  244   1.312   0.366   1.928 -0.4274 -0.1036 -0.0493
   82SOL    HW1  245   1.394   0.371   1.869 -0.0802  0.8490 -0.3602
   82SOL    HW2  246   1.330   0.309   2.009  1.3651 -0.2440 -0.8223
   83SOL     OW  247   0.292   2.369   0.734 -0.4940 -0.3544  0.3368
   83SOL    HW1  248   0.281   2.292   0.668 -3.0331 -1.3307  0.6596
   83SOL    HW2  249   0.267   2.337   0.831  1.6312 -0.4673  1.6996
   84SOL     OW  250   2.618   1.455   3.063 -0.0703  0.2475  0.2741
   84SOL    HW1  251   2.628   1.389   2.983  1.2166 -2.5615  2.8413
   84SOL    HW2  252   2.652   1.547   3.033  0.6951 -1.1516 -0.2674
   85SOL     OW  253   2.606   2.250   1.754 -0.1741  0.2342  0.6089
   85SOL    HW1  254   2.508   2.264   1.727  1.9170 -0.8157  1.3436
   85SOL    HW2  255   2.606   2.199   1.845  1.7954 -0.6771  2.7912
   86SOL     OW  256   1.707   2.673   1.186 -0.4875  0.5897 -0.1111
   86SOL    HW1  257   1.780   2.631   1.246 -1.3181  0.4633  2.7788
   86SOL    HW2  258   1.745   2.722   1.103 -0.2991  1.2312 -0.3746
   87SOL     OW  259   2.432   1.576   0.481 -0.1878  0.3912  0.3008
   87SOL    HW1  260   2.381   1.606   0.561  0.8721  0.3292 -1.4899
   87SOL    HW2  261   2.375   1.521   0.418  0.3859  1.3425 -1.3798
   88SOL     OW  262   0.983   0.286   0.860 -0.2476 -0.6430 -0.1198
   88SOL    HW1  263   0.994   0.205   0.916  0.2098 -0.9652 -0.0331
   88SOL    HW2  264   0.889   0.334   0.873 -0.1141  0.2651  1.7337
   89SOL     OW  265   0.726   0.001   1.798 -0.5866 -0.0085 -0.2646
   89SOL    HW1  266   0.801   0.071   1.826  1.2558  2.4628  0.6950
   89SOL    HW2  267   0.680   3.071   1.879 -0.8224  0.3572 -0.0462
   90SOL     OW  268   2.926   1.713   0.790 -0.0790 -0.0486 -0.7008
   90SOL    HW1  269   2.855   1.758   0.722 -3.3469 -0.5733 -1.6701
   90SOL    HW2  270   2.933   1.612   0.777 -0.6475  3.8155  2.3511
   91SOL     OW  271   1.095   1.814   1.272  0.0981 -0.4886 -0.3214
   91SOL    HW1  272   1.013   1.794   1.330 -1.4150 -1.8940  2.6583
   91SOL    HW2  273   1.134   1.724   1.241 -1.4228 -2.9587  0.2629
   92SOL     OW  274   2.544   3.031   1.625 -0.3690  0.6939 -0.1807
   92SOL    HW1  275   2.542   0.024   1.639  0.6336 -2.2979  0.5261
   92SOL    HW2  276   2.636   2.992   1.653 -1.0763 -1.2673 -1.2304
   93SOL     OW  277   0.264   1.092   2.871  0.3064 -0.0104 -0.3250
   93SOL    HW1  278   0.353   1.050   2.908  1.6324  0.3214  1.6955
   93SOL    HW2  279   0.276   1.117   2.772 -1.2731  3.1857  0.9134
   94SOL     OW  280   2.547   0.070   1.965 -0.1838 -0.1887 -0.4271
   94SOL    HW1  281   2.534   0.147   2.028 -0.1091 -1.2362 -0.2921
   94SOL    HW2  282   2.637   0.079   1.928  1.8242 -0.8855  1.3863
   95SOL     OW  283   1.560   0.613   2.164 -0.0228 -0.4195 -0.3883
   95SOL    HW1  284   1.465   0.606   2.206 -0.4680 -2.8476 -0.5229
   95SOL    HW2  285   1.557   0.622   2.062  0.4243 -1.7731  0.8342
   96SOL     OW  286   2.957   0.675   1.769 -0.2015 -0.6836  0.5744
   96SOL    HW1  287   2.928   0.633   1.857 -0.2255  0.0467 -2.6135
   96SOL    HW2  288   2.912   0.764   1.759 -0.0328 -0.7476  0.0186
   97SOL     OW  289   2.099   2.878   1.549 -0.0673 -0.5358  0.0638
   97SOL    HW1  290   2.187   2.846   1.584 -2.0895 -2.2672 -1.6252
   97SOL    HW2  291   2.067   2.950   1.617 -0.4250 -1.4691  4.5033
   98SOL     OW  292   2.070   2.510   1.799 -0.4398  0.3185  0.0721
   98SOL    HW1  293   2.138   2.450   1.848  0.2480  2.2603  0.2992
   98SOL    HW2  294   2.033   2.579   1.859 -0.1457 -0.3657 -0.3175
   99SOL     OW  295   2.617   0.616   1.456  0.5893  0.4113  0.2432
   99SOL    HW1  296   2.557   0.531   1.460  0.8584  0.6477 -0.4461
   99SOL    HW2  297   2.709   0.585   1.486 -2.0041 -0.3592 -2.4107
  100SOL     OW  298   2.512   1.734   1.874  0.0282 -0.6780 -0.2243
  100SOL    HW1  299   2.442   1.756   1.948 -1.4475  0.5436  1.8900
  100SOL    HW2  300   2.606   1.721   1.908 -1.6394 -1.4109  0.5590
  101SOL     OW  301   2.100   0.134   0.121 -0.1314  0.2858 -0.6118
  101SOL    HW1  302   2.198   0.103   0.099  0.3351  2.3420  1.2520
  101SOL    HW2  303   2.083   0.225   0.079  1.2023 -2.6188  2.5517
  102SOL     OW  304   0.728   0.728   1.146 -0.0773  0.3063  0.0946
  102SOL    HW1  305   0.715   0.640   1.203 -0.4444 -2.3276  1.0794
  102SOL    HW2  306   0.762   0.706   1.053  0.1858  0.9936  1.7412
  103SOL     OW  307   2.856   0.101   2.356 -0.1413 -0.0799  0.2033
  103SOL    HW1  308   2.793   0.018   2.351 -1.7392 -1.7110 -1.7786
  103SOL    HW2  309   2.954   0.087   2.324  3.2865  1.3509 -1.1334
  104SOL     OW  310   0.282   2.815   1.550  0.0301 -0.2652 -0.1788
  104SOL    HW1  311   0.346   2.871   1.492 -1.0715  1.1292 -0.1592
  104SOL    HW2  312   0.323   2.763   1.625 -0.8249 -2.1829  1.0159
  105SOL     OW  313   1.209   1.448   2.028 -0.3854 -0.2559 -0.5450
  105SOL    HW1  314   1.135   1.470   2.097 -1.1351 -1.1369 -0.8625
  105SOL    HW2  315   1.215   1.347   2.026 -0.9800  0.8767 -1.5696
  106SOL     OW  316   1.869   0.452   0.617  0.1781  0.4345  0.1977
  106SOL    HW1  317   1.923   0.446   0.698  0.1133 -1.0595 -2.8910
  106SOL    HW2  318   1.887   0.534   0.561  2.4020 -1.9144  1.6042
  107SOL     OW  319   0.696   0.914   1.352 -0.1852  0.0834 -0.2189
  107SOL    HW1  320   0.650   0.863   1.427 -0.9441  0.4488 -1.0178
  107SOL    HW2  321   0.713   0.852   1.272  1.9314  0.0099  2.3009
  108SOL     OW  322   3.080   0.536   2.338 -0.7873 -0.2439 -0.2106
  108SOL    HW1  323   3.063   0.525   2.235  1.4599  1.0905 -1.0108
  108SOL    HW2  324   3.038   0.460   2.397 -1.8990  0.6501  3.4124
  109SOL     OW  325   1.893   3.076   2.619 -0.4913  0.5141  0.3400
  109SOL    HW1  326   1.841   0.027   2.679  0.9283  0.5881  0.5698
  109SOL    HW2  327   1.926   2.991   2.663  0.8958 -0.2759  0.7324
  110SOL     OW  328   0.118   1.820   2.824  0.3891 -0.0652  0.4580
  110SOL    HW1  329   0.014   1.829   2.826  2.9429 -2.5605 -1.6153
  110SOL    HW2  330   0.163   1.889   2.881 -3.3446 -3.9883 -6.2019
  111SOL     OW  331   2.717   0.565   2.333  0.1968  0.6700 -0.4147
  111SOL    HW1  332   2.664   0.559   2.420  0.5898 -0.5203  0.5927
  111SOL    HW2  333   2.734   0.466   2.296 -1.8483 -1.8175  1.9873
  112SOL     OW  334   2.859   2.718   1.322  0.7275  0.1734  0.4829
  112SOL    HW1  335   2.804   2.633   1.313  0.1383 -2.7906 -2.7047
  112SOL    HW2  336   2.931   2.727   1.252 -1.7078 -0.2003 -0.9134
  113SOL     OW  337   2.297   2.126   2.288 -0.7700 -0.3299 -0.7156
  113SOL    HW1  338   2.335   2.219   2.312  0.1293  2.4111  0.0606
  113SOL    HW2  339   2.197   2.124   2.264  1.7083  0.6196  0.9620
  114SOL     OW  340   3.057   0.324   0.222 -0.2124  0.3430  0.7234
  114SOL    HW1  341   3.036   0.223   0.218 -2.5926  0.3338 -0.0220
  114SOL    HW2  342   0.021   0.344   0.292  2.3314 -0.4781 -1.7830
  115SOL     OW  343   2.792   1.652   2.959 -0.2803  0.2840  0.5081
  115SOL    HW1  344   2.867   1.673   3.023  2.5459 -1.5238  0.0747
  115SOL    HW2  345   2.804   1.724   2.888 -0.8937 -2.2289 -2.3142
  116SOL     OW  346   2.984   1.306   1.819 -0.0131  0.1721  0.8249
  116SOL    HW1  347   3.074   1.352   1.792  0.2783  2.7470  0.7701
  116SOL    HW2  348   2.915   1.316   1.745 -0.7990  0.5316 -0.0932
  117SOL     OW  349   2.248   0.065   1.193 -0.4347  0.1073  0.4593
  117SOL    HW1  350   2.160   0.019   1.190  0.8727  0.2243 -1.4947
  117SOL    HW2  351   2.307   0.041   1.269  2.3776  1.3853 -0.3056
  118SOL     OW  352   2.950   2.406   1.995 -0.0918 -0.0309  0.3557
  118SOL    HW1  353   2.933   2.485   1.930  0.0254  0.8001 -2.1749
  118SOL    HW2  354   3.028   2.426   2.062  1.1584  1.7858  0.1352
  119SOL     OW  355   0.827   1.824   1.346  0.0261 -0.3913  0.6279
  119SOL    HW1  356   0.798   1.920   1.337  1.3577 -0.9853 -0.5463
  119SOL    HW2  357   0.751   1.773   1.400 -1.7166  1.4711 -1.1264
  120SOL     OW  358   0.259   1.718   1.346  0.0341 -0.6600  0.2269
  120SOL    HW1  359   0.257   1.695   1.446 -1.5169  1.0283 -1.0610
  120SOL    HW2  360   0.174   1.678   1.302  0.3981 -0.4982 -0.0906
  121SOL     OW  361   1.879   1.424   0.868  0.0545 -0.6638  0.3493
  121SOL    HW1  362   1.810   1.475   0.923 -1.2313  0.8833  0.7530
  121SOL    HW2  363   1.843   1.387   0.780  0.4550 -1.6189 -0.8244
  122SOL     OW  364   1.908   1.957   2.544 -0.0675 -0.3099 -0.0759
  122SOL    HW1  365   1.949   1.957   2.448 -0.8873 -0.5349 -0.0418
  122SOL    HW2  366   1.979   1.990   2.605 -0.3168 -0.6598 -2.3137
  123SOL     OW  367   3.004   0.050   0.137  0.2834 -0.3375 -0.1514
  123SOL    HW1  368   3.106   0.066   0.133 -0.3262  0.6264  1.3827
  123SOL    HW2  369   2.977   0.004   0.222 -0.3808  0.2459  1.5644
  124SOL     OW  370   0.977   1.195   0.581  0.2597 -0.0546  0.1666
  124SOL    HW1  371   0.906   1.153   0.639  1.6781  1.0391 -1.4664
  124SOL    HW2  372   1.009   1.283   0.625  0.1105  0.9948  0.5236
  125SOL     OW  373   0.268   1.255   1.983 -0.5150  0.4727 -0.0893
  125SOL    HW1  374   0.254   1.279   1.887 -0.2510 -0.9201  2.5236
  125SOL    HW2  375   0.207   1.315   2.047 -0.9934  3.8624  0.5917
  126SOL     OW  376   0.095   2.508   0.052 -0.5031  0.6407  0.6593
  126SOL    HW1  377   0.107   2.485   0.149  0.6610  1.8724 -1.6313
  126SOL    HW2  378   0.044   2.596   0.049 -1.2771 -1.4044  0.7816
  127SOL     OW  379   2.932   1.655   0.337  0.0190 -0.7161 -0.0025
  127SOL    HW1  380   2.949   1.648   0.239  1.0928 -2.6002  3.5086
  127SOL    HW2  381   2.834   1.652   0.356 -1.2304  1.4590  1.7744
  128SOL     OW  382   1.346   1.031   0.874  0.3314  0.0335 -0.1891
  128SOL    HW1  383   1.289   1.119   0.871 -0.8665  1.8898  1.0934
  128SOL    HW2  384   1.393   1.025   0.963 -1.8337  0.5213  1.0530
  129SOL     OW  385   2.535   1.967   0.951  0.0003 -0.0434  0.1485
  129SOL    HW1  386   2.557   2.004   0.864 -0.4356 -2.0613  2.1200
  129SOL    HW2  387   2.551   2.030   1.027 -1.3674  1.4891  2.3791
  130SOL     OW  388   2.145   0.922   0.776 -0.1104  0.1614 -0.2314
  130SOL    HW1  389   2.239   0.940   0.803 -0.9537  1.1749 -1.3648
  130SOL    HW2  390   2.085   1.004   0.775 -1.0079  2.3486 -0.6897
  131SOL     OW  391   2.910   1.144   2.491 -0.4903 -0.0692  0.1795
  131SOL    HW1  392   2.839   1.071   2.529 -2.0264 -2.9903  2.5181
  131SOL    HW2  393   2.986   1.102   2.443 -0.0225  3.1541  1.9601
  132SOL     OW  394   1.407   1.402   2.206 -0.1504 -0.2962 -0.1749
  132SOL    HW1  395   1.403   1.302   2.235  1.7658 -1.6789  2.1699
  132SOL    HW2  396   1.322   1.434   2.160  0.0440 -1.5347 -0.3874
  133SOL     OW  397   0.057   0.983   0.348  0.9163 -0.1400 -0.1525
  133SOL    HW1  398   3.084   1.036   0.385 -0.2183  0.7155 -0.4970
  133SOL    HW2  399   0.127   1.045   0.306 -1.8017  0.4075  2.4787
  134SOL     OW  400   2.762   1.102   0.252 -0.4991 -0.2784  0.1001
  134SOL    HW1  401   2.819   1.085   0.171 -2.3135  0.9708  2.2975
  134SOL    HW2  402   2.662   1.099   0.232 -0.2993  0.3194  1.6472
  135SOL     OW  403   1.558   0.852   0.207 -0.1727 -0.3882 -0.3143
  135SOL    HW1  404   1.578   0.918   0.135  2.7501 -1.8835  1.8094
  135SOL    HW2  405   1.494   0.901   0.272 -1.0696 -1.4383  1.0056
  136SOL     OW  406   1.848   1.965   1.626 -0.4400 -0.0187  0.1185
  136SOL    HW1  407   1.756   1.940   1.664 -0.9574 -0.7365 -2.0301
  136SOL    HW2  408   1.847   2.059   1.589 -0.2096  0.2513  2.4371
  137SOL     OW  409   2.519   2.408   0.524 -0.7539  0.2069  0.2435
  137SOL    HW1  410   2.566   2.321   0.528 -1.5328  3.1694 -0.4045
  137SOL    HW2  411   2.440   2.411   0.453 -2.3773 -1.8879 -0.3474
  138SOL     OW  412   2.469   0.383   1.434 -0.0578 -0.2180  0.0733
  138SOL    HW1  413   2.419   0.361   1.519  3.6351 -0.9202 -2.5306
  138SOL    HW2  414   2.497   0.292   1.390 -1.4013  0.0312 -1.8192
  139SOL     OW  415   2.532   0.124   2.670  0.0456 -0.0294 -0.4855
  139SOL    HW1  416   2.508   0.209   2.719  2.3864 -0.4356  0.9630
  139SOL    HW2  417   2.631   0.114   2.664 -0.6578  0.3038 -0.2359
  140SOL     OW  418   1.049   1.959   2.259  0.0370 -0.0587 -0.3477
  140SOL    HW1  419   1.093   2.010   2.335 -0.7806  0.2526  0.8310
  140SOL    HW2  420   1.119   1.910   2.202 -2.0803 -0.0363 -0.0538
  141SOL     OW  421   0.838   0.674   2.275  0.7252  0.2747 -0.4374
  141SOL    HW1  422   0.888   0.661   2.360 -0.1867  3.1032 -2.0189
  141SOL    HW2  423   0.889   0.750   2.228 -2.3087  1.2100 -0.1724
  142SOL     OW  424   2.658   2.693   2.819 -0.4845  0.2912 -0.3890
  142SOL    HW1  425   2.588   2.763   2.827  3.1833 -0.9851  1.4254
  142SOL    HW2  426   2.614   2.602   2.841 -0.4781  0.8837 -1.5580
  143SOL     OW  427   1.038   2.067   0.565  0.1200  0.0903  0.2225
  143SOL    HW1  428   1.112   2.133   0.565 -1.9414 -1.4938 -0.3956
  143SOL    HW2  429   0.979   2.091   0.644  1.2549  0.5907  0.6314
  144SOL     OW  430   1.236   2.735   0.121  0.0771 -0.1357 -0.8949
  144SOL    HW1  431   1.232   2.658   0.053  0.4573  0.4251  1.8139
  144SOL    HW2  432   1.164   2.798   0.097 -0.5404 -3.1093 -0.3420
  145SOL     OW  433   1.648   1.959   2.577 -0.1559 -0.1994  0.1858
  145SOL    HW1  434   1.753   1.970   2.567  3.0064 -2.4668 -2.1603
  145SOL    HW2  435   1.604   1.985   2.489  1.9320  0.8927 -1.6128
  146SOL     OW  436   2.268   0.183   2.955 -0.0055 -0.2268 -0.2745
  146SOL    HW1  437   2.351   0.125   2.964 -0.5036 -3.7628  2.7782
  146SOL    HW2  438   2.186   0.121   2.959 -0.4854 -1.5828 -0.9984
  147SOL     OW  439   2.804   1.074   1.121 -0.6636  0.2051  0.0016
  147SOL    HW1  440   2.707   1.094   1.115  2.3090  0.7166  1.9108
  147SOL    HW2  441   2.852   1.156   1.150  2.8335 -3.7786 -2.9106
  148SOL     OW  442   2.228   2.888   3.067  0.1358  0.0622 -0.2084
  148SOL    HW1  443   2.157   2.832   3.104  0.2720 -0.3393 -1.8891
  148SOL    HW2  444   2.181   2.970   3.022 -1.9432  3.4152 -1.5409
  149SOL     OW  445   0.564   1.775   2.812 -0.0126  0.6452  0.2130
  149SOL    HW1  446   0.633   1.702   2.824  1.2682 -3.8329 -0.6386
  149SOL    HW2  447   0.586   1.853   2.748 -0.3256  2.0140  0.8434
  150SOL     OW  448   0.433   2.517   0.388  0.0128 -0.4947  0.1171
  150SOL    HW1  449   0.526   2.478   0.380 -0.2903 -2.1615  1.2722
  150SOL    HW2  450   0.434   2.578   0.468  2.1551 -1.4615  0.5172
  151SOL     OW  451   0.249   1.132   0.234  0.0137 -0.7462  0.6809
  151SOL    HW1  452   0.296   1.047   0.207 -0.2067  0.0975  0.5472
  151SOL    HW2  453   0.221   1.180   0.144  0.0926  0.0314 -3.1621
  152SOL     OW  454   2.769   2.129   0.634 -0.2280  0.6804 -0.6323
  152SOL    HW1  455   2.768   2.222   0.680 -0.4793 -0.4520  2.4656
  152SOL    HW2  456   2.705   2.112   0.555 -0.8183  0.0492  0.6822
  153SOL     OW  457   1.754   2.204   0.811 -0.2268 -0.2090 -0.2629
  153SOL    HW1  458   1.775   2.198   0.909  1.4245 -2.9158  0.3434
  153SOL    HW2  459   1.687   2.279   0.787 -0.1966  0.1844 -1.3983
  154SOL     OW  460   0.746   2.694   1.314  0.6716 -0.0427 -0.1120
  154SOL    HW1  461   0.689   2.775   1.291 -1.6341  0.3379  1.0854
  154SOL    HW2  462   0.848   2.707   1.285  0.8043  0.0246  0.6926
  155SOL     OW  463   2.757   1.847   0.637 -0.1095  0.5936  0.6520
  155SOL    HW1  464   2.770   1.949   0.635 -1.5579 -1.0308 -0.1244
  155SOL    HW2  465   2.726   1.816   0.546  0.5702  0.7312  1.7102
  156SOL     OW  466   2.707   2.304   2.848  0.7413  0.2564  0.3816
  156SOL    HW1  467   2.732   2.370   2.923  2.1837 -0.5681 -0.6827
  156SOL    HW2  468   2.671   2.212   2.876 -3.8165  1.0162 -0.4332
  157SOL     OW  469   0.481   2.255   1.558 -0.3003  0.1020  0.0687
  157SOL    HW1  470   0.443   2.306   1.634 -0.4972 -1.1361 -2.5811
  157SOL    HW2  471   0.407   2.214   1.498  2.9990  3.0193 -2.2251
  158SOL     OW  472   1.413   0.385   0.712  0.3599  0.1334 -0.4559
  158SOL    HW1  473   1.367   0.304   0.759  1.0337 -2.3073  2.2111
  158SOL    HW2  474   1.499   0.413   0.766  1.4588 -2.7914  1.8857
  159SOL     OW  475   1.642   0.597   0.138 -0.3986 -0.7308 -0.0509
  159SOL    HW1  476   1.683   0.560   0.223  1.0115  0.4433 -0.4138
  159SOL    HW2  477   1.593   0.683   0.164  0.8082  0.0780  1.2883
  160SOL     OW  478   0.696   1.539   0.682  0.2314 -0.0193  0.0659
  160SOL    HW1  479   0.712   1.567   0.782 -0.0058  1.2104  3.9352
  160SOL    HW2  480   0.658   1.443   0.672  1.2003  1.1903 -0.0747
  161SOL     OW  481   2.955   2.352   2.616  0.3930  0.4708 -0.1443
  161SOL    HW1  482   2.875   2.318   2.674  0.1674 -2.0909 -0.7701
  161SOL    HW2  483   3.028   2.285   2.616  0.3249  0.2651  1.0500
  162SOL     OW  484   0.063   2.335   1.294 -0.6558 -0.0399 -0.1345
  162SOL    HW1  485   0.089   2.417   1.353  1.1148 -0.5843 -1.0545
  162SOL    HW2  486   3.070   2.332   1.267 -2.3885 -0.6433 -0.3308
  163SOL     OW  487   0.407   0.589   2.786 -0.2048  0.2857  0.6033
  163SOL    HW1  488   0.364   0.672   2.754  0.4442 -0.7657  1.5379
  163SOL    HW2  489   0.352   0.514   2.744  0.6806  0.8842 -0.0786
  164SOL     OW  490   0.315   2.875   2.541  0.3034 -0.7073 -0.4037
  164SOL    HW1  491   0.403   2.925   2.549 -1.2639 -1.1972  0.4275
  164SOL    HW2  492   0.327   2.788   2.491  1.6835  1.4205 -1.9253
  165SOL     OW  493   2.605   0.983   1.672 -0.2045 -0.5179 -0.1470
  165SOL    HW1  494   2.559   0.940   1.590 -0.0092 -1.8573 -0.1515
  165SOL    HW2  495   2.556   0.956   1.757 -1.5269  2.2976 -1.9038
  166SOL     OW  496   2.053   2.120   1.371  0.1711 -0.3107 -0.4013
  166SOL    HW1  497   2.118   2.197   1.397  0.2800 -3.1537  0.9275
  166SOL    HW2  498   2.074   2.090   1.277  0.5257  0.3177  4.2192
  167SOL     OW  499   0.796   1.006   2.436 -0.0971  0.4189  0.2547
  167SOL    HW1  500   0.803   1.060   2.351 -0.6486 -2.8417  2.8095
  167SOL    HW2  501   0.878   1.023   2.491  0.0605  3.2596 -2.0592
  168SOL     OW  502   2.141   0.121   2.079 -0.4358 -0.3047  0.5709
  168SOL    HW1  503   2.186   0.055   2.138  0.5336 -2.4819 -1.3740
  168SOL    HW2  504   2.051   0.084   2.054 -0.6184 -0.8801  2.0554
  169SOL     OW  505   0.423   0.924   0.131 -0.2610 -0.3837 -0.4416
  169SOL    HW1  506   0.507   0.915   0.190 -0.6736 -1.7704  0.0555
  169SOL    HW2  507   0.363   0.843   0.125 -1.9001 -1.0624  0.2393
  170SOL     OW  508   0.558   1.523   1.700  0.5831 -0.0454  0.0483
  170SOL    HW1  509   0.526   1.436   1.651  1.1456 -0.4402 -0.6369
  170SOL    HW2  510   0.583   1.504   1.793 -1.0993  1.5285 -2.1189
  171SOL     OW  511   0.974   2.444   1.801 -0.5184 -0.2022 -0.6816
  171SOL    HW1  512   0.959   2.402   1.708 -0.4327  1.5987 -0.2957
  171SOL    HW2  513   0.906   2.524   1.806  1.0737  4.7770 -0.9547
  172SOL     OW  514   1.311   2.795   1.979 -0.0036  0.5123  0.1297
  172SOL    HW1  515   1.266   2.847   2.048  0.3325 -3.2653 -0.7413
  172SOL    HW2  516   1.242   2.729   1.944  1.9302  0.4771 -1.0440
  173SOL     OW  517   1.565   2.426   0.769  0.6984  0.5132  0.1826
  173SOL    HW1  518   1.489   2.370   0.729  1.4737 -0.0931 -1.8873
  173SOL    HW2  519   1.535   2.466   0.860  0.5232  0.2468  0.1065
  174SOL     OW  520   2.200   2.889   0.362  0.1442  0.5134  0.6324
  174SOL    HW1  521   2.279   2.936   0.403 -1.2193 -1.2554 -0.7393
  174SOL    HW2  522   2.113   2.920   0.400  0.3527 -0.1624 -0.6609
  175SOL     OW  523   1.090   1.425   0.689 -0.6056  0.3626 -0.3025
  175SOL    HW1  524   1.131   1.489   0.624 -1.0509  3.5851  0.6800
  175SOL    HW2  525   1.040   1.479   0.760 -2.2039  1.4449  0.1143
  176SOL     OW  526   0.672   1.820   0.677 -0.5921 -0.0923 -0.0013
  176SOL    HW1  527   0.704   1.852   0.586 -2.7901  1.3881 -3.1884
  176SOL    HW2  528   0.686   1.722   0.688  2.7713 -0.9507  1.1248
  177SOL     OW  529   1.274   1.204   1.325  0.7140  0.3870 -0.2624
  177SOL    HW1  530   1.357   1.262   1.327 -0.1835 -0.8690 -0.6199
  177SOL    HW2  531   1.302   1.106   1.312 -2.1317  2.2164  0.7628
  178SOL     OW  532   2.557   1.844   0.166  0.2764  0.1393  0.0417
  178SOL    HW1  533   2.510   1.929   0.200 -0.8325 -1.5039  1.2945
  178SOL    HW2  534   2.487   1.777   0.139 -0.9243 -1.2198  0.5778
  179SOL     OW  535   1.260   2.534   3.066 -0.3005  0.0834  0.1790
  179SOL    HW1  536   1.249   2.535   2.966  0.4392 -1.9981  0.2148
  179SOL    HW2  537   1.296   2.443   3.094 -3.7797  0.5412  3.0209
  180SOL     OW  538   2.142   1.430   1.863  0.8271 -0.4992 -0.0830
  180SOL    HW1  539   2.214   1.361   1.844 -1.2098  0.3082 -0.7952
  180SOL    HW2  540   2.050   1.395   1.833 -4.1906 -0.6330 -0.4111
  181SOL     OW  541   0.935   0.705   2.522 -0.1209  0.2010  0.2029
  181SOL    HW1  542   0.913   0.804   2.541 -1.6962 -0.3739  0.8681
  181SOL    HW2  543   0.918   0.659   2.613 -2.1583  2.7116  0.4850
  182SOL     OW  544   2.948   1.283   2.232  0.2233  0.1343  0.1461
  182SOL    HW1  545   2.941   1.226   2.319 -1.0021 -2.8986 -0.8769
  182SOL    HW2  546   2.933   1.224   2.152 -0.7179  0.3208  0.5392
  183SOL     OW  547   1.432   0.392   2.437 -0.0593 -0.5503 -0.2679
  183SOL    HW1  548   1.361   0.371   2.510  0.7738 -0.2435  0.7241
  183SOL    HW2  549   1.391   0.413   2.348 -0.9997  0.8757  1.4178
  184SOL     OW  550   0.551   0.499   1.703  0.1655 -0.3840  0.5613
  184SOL    HW1  551   0.556   0.564   1.782  0.6808 -1.0007 -1.2719
  184SOL    HW2  552   0.457   0.476   1.666 -3.2327  1.0478 -3.2434
  185SOL     OW  553   2.150   1.739   0.453 -0.2547 -0.6500  0.1223
  185SOL    HW1  554   2.139   1.638   0.457 -0.0284  0.0837  1.0893
  185SOL    HW2  555   2.222   1.770   0.514  2.1672 -1.7910  0.6292
  186SOL     OW  556   0.204   1.904   0.361 -0.1386  0.0242 -0.4947
  186SOL    HW1  557   0.306   1.888   0.343  1.9949  0.2680 -0.2671
  186SOL    HW2  558   0.170   1.842   0.433  3.1628  2.2742 -0.3896
  187SOL     OW  559   2.066   2.475   0.114  0.0013  0.1652 -0.0294
  187SOL    HW1  560   2.033   2.420   0.191  2.0549  0.3239 -0.0037
  187SOL    HW2  561   2.170   2.477   0.106  0.5035 -1.0737  0.9409
  188SOL     OW  562   0.937   2.336   1.102  0.0490  0.2962 -0.4109
  188SOL    HW1  563   0.866   2.401   1.128 -0.9983  3.1631 -0.9030
  188SOL    HW2  564   0.899   2.239   1.099  0.0390 -3.2674 -1.7836
  189SOL     OW  565   2.239   1.302   2.631  0.3266  0.7500  0.3154
  189SOL    HW1  566   2.181   1.359   2.568 -1.2319  1.8964 -0.9012
  189SOL    HW2  567   2.286   1.362   2.696 -1.2879  3.4096  0.1121
  190SOL     OW  568   0.850   2.441   2.289 -0.1245 -0.0964  0.0378
  190SOL    HW1  569   0.812   2.479   2.200  2.8932  0.3408 -1.7026
  190SOL    HW2  570   0.778   2.387   2.340  0.0511 -0.8137 -0.3250
  191SOL     OW  571   2.492   0.853   1.462 -1.0287 -0.3649 -0.4836
  191SOL    HW1  572   2.401   0.839   1.417 -0.5681 -2.0352  1.1878
  191SOL    HW2  573   2.533   0.760   1.486  1.7043  0.1153  0.8787
  192SOL     OW  574   2.589   0.620   1.816  0.2423  0.5266  0.1887
  192SOL    HW1  575   2.522   0.543   1.844 -1.3798 -0.4683  1.2948
  192SOL    HW2  576   2.540   0.709   1.810 -1.2929  4.0225  2.3321
  193SOL     OW  577   0.742   0.289   0.362  0.0897  0.8262 -0.3658
  193SOL    HW1  578   0.689   0.359   0.318  0.6281 -1.7461  2.6003
  193SOL    HW2  579   0.836   0.309   0.347 -4.2432  1.3606 -1.1462
  194SOL     OW  580   1.093   2.460   1.368  0.0996  0.3825 -0.5889
  194SOL    HW1  581   1.124   2.374   1.319 -0.5708 -3.3339 -0.8757
  194SOL    HW2  582   1.171   2.514   1.407 -0.6158  0.1235 -1.1664
  195SOL     OW  583   2.363   1.094   0.488  0.3867 -0.8587 -0.2172
  195SOL    HW1  584   2.412   1.004   0.514  2.3925 -2.1008  2.5099
  195SOL    HW2  585   2.414   1.153   0.418  2.3025  2.5969 -2.2373
  196SOL     OW  586   0.718   2.272   1.446  0.4687 -0.0033  0.0355
  196SOL    HW1  587   0.728   2.333   1.364  0.7836  0.6193  0.6677
  196SOL    HW2  588   0.625   2.285   1.489  0.8690 -0.6134  1.4777
  197SOL     OW  589   0.411   0.796   2.394 -0.0287  0.0659 -0.1699
  197SOL    HW1  590   0.381   0.853   2.316  1.6459 -0.4973 -1.6820
  197SOL    HW2  591   0.355   0.717   2.409 -0.0257  1.4154 -0.6010
  198SOL     OW  592   1.699   0.848   0.449  0.4129 -0.2243 -0.1868
  198SOL    HW1  593   1.625   0.790   0.493 -0.8246 -2.1643  0.6568
  198SOL    HW2  594   1.664   0.867   0.353  1.1663 -1.1063 -2.2524
  199SOL     OW  595   2.800   0.559   2.009  0.2735  0.2644  0.4932
  199SOL    HW1  596   2.768   0.548   2.103  0.8874  0.6947 -2.1596
  199SOL    HW2  597   2.722   0.582   1.949 -1.6675 -0.7806  2.3623
  200SOL     OW  598   2.256   3.092   2.675  0.5972  0.1356 -0.1576
  200SOL    HW1  599   2.348   0.013   2.700 -1.1265 -0.1369 -1.0555
  200SOL    HW2  600   2.229   0.014   2.580  1.4665 -0.9264  3.5531
  201SOL     OW  601   2.578   0.182   1.279  0.4121 -0.0267  0.0138
  201SOL    HW1  602   2.564   0.080   1.282 -0.3450 -2.7120 -1.1779
  201SOL    HW2  603   2.522   0.232   1.206  0.3583  1.6520 -0.8303
  202SOL     OW  604   3.057   2.728   0.025 -0.0007  0.1305  0.4704
  202SOL    HW1  605   3.022   2.692   0.111  0.5210  0.0804 -1.5487
  202SOL    HW2  606   2.983   2.770   3.077 -0.6595  0.5844 -1.8101
  203SOL     OW  607   1.047   1.855   2.870  0.5299  0.2053 -0.2338
  203SOL    HW1  608   1.055   1.798   2.958 -1.4270 -1.0121  0.7034
  203SOL    HW2  609   1.070   1.802   2.791 -2.3749 -0.0043  2.1600
  204SOL     OW  610   0.600   1.941   2.586 -0.0963  0.0895 -0.3640
  204SOL    HW1  611   0.564   1.960   2.494 -3.6969  0.0442  0.4044
  204SOL    HW2  612   0.636   2.026   2.628 -1.3122  1.6925 -2.2927
  205SOL     OW  613   1.114   0.835   1.108 -0.2785  0.3327 -0.1434
  205SOL    HW1  614   1.042   0.808   1.174  1.2341  0.5915 -0.5407
  205SOL    HW2  615   1.194   0.869   1.158 -0.4157 -0.7947 -2.6378
  206SOL     OW  616   0.197   0.834   2.780 -0.4113 -0.2957 -0.2746
  206SOL    HW1  617   0.236   0.926   2.794 -2.8508 -3.3314  0.8959
  206SOL    HW2  618   0.166   0.822   2.683 -0.0371  2.2038 -1.4942
  207SOL     OW  619   1.633   2.382   1.876 -0.4694  0.6217  0.2613
  207SOL    HW1  620   1.706   2.426   1.926 -2.0491  0.6375  1.0561
  207SOL    HW2  621   1.548   2.410   1.925 -0.3090  1.4329 -1.5430
  208SOL     OW  622   0.336   2.986   1.136  0.4225  0.4509  0.3639
  208SOL    HW1  623   0.279   2.914   1.176  1.8826  0.1544 -0.1520
  208SOL    HW2  624   0.372   2.958   1.048 -0.8247 -1.3457 -0.1763
  209SOL     OW  625   1.574   1.174   0.531 -0.1464  0.5003 -0.1220
  209SOL    HW1  626   1.565   1.084   0.574 -0.4312  0.4523 -0.9968
  209SOL    HW2  627   1.604   1.165   0.434  1.1885 -0.3250 -0.6779
  210SOL     OW  628   2.530   0.535   0.764  0.1353 -0.0494  0.0583
  210SOL    HW1  629   2.466   0.479   0.708  0.6044  3.0150 -1.3259
  210SOL    HW2  630   2.628   0.503   0.748 -1.2763  1.4047 -2.9593
  211SOL     OW  631   1.332   2.817   0.355 -0.0637 -0.0718  0.3281
  211SOL    HW1  632   1.307   2.787   0.257  1.0809  2.1992 -1.7654
  211SOL    HW2  633   1.426   2.856   0.360 -1.6560 -1.3126 -1.6737
  212SOL     OW  634   1.938   2.263   0.606  0.8046 -0.0158  0.2777
  212SOL    HW1  635   2.032   2.300   0.617  0.1415 -0.7370 -0.6708
  212SOL    HW2  636   1.896   2.242   0.698  0.9456  1.7576  1.5849
  213SOL     OW  637   1.954   0.778   2.587  0.2636  0.1973  0.0950
  213SOL    HW1  638   2.039   0.744   2.634  0.4306  2.1029  1.3366
  213SOL    HW2  639   1.936   0.722   2.504 -2.8146  0.5175  0.0804
  214SOL     OW  640   0.980   1.515   1.861 -0.0537 -0.1131  0.1189
  214SOL    HW1  641   1.074   1.490   1.906  2.7821 -3.7642  3.5873
  214SOL    HW2  642   0.984   1.545   1.762 -1.1111 -0.4699  2.6231
  215SOL     OW  643   0.190   1.175   0.933 -0.0804 -0.5423  0.0912
  215SOL    HW1  644   0.252   1.137   1.000 -0.2307  0.3119 -1.8911
  215SOL    HW2  645   0.111   1.223   0.964  0.8825 -1.3992  0.0677
  216SOL     OW  646   0.338   2.247   2.475 -0.8916  0.4915 -0.2824
  216SOL    HW1  647   0.334   2.328   2.412 -0.9421  2.1141 -1.5971
  216SOL    HW2  648   0.383   2.262   2.566  1.2987 -1.6936  0.1851
  217SOL     OW  649   2.574   1.078   1.296  0.1134  0.1437  0.0824
  217SOL    HW1  650   2.505   1.013   1.327 -0.5731 -0.6829  1.4020
  217SOL    HW2  651   2.557   1.172   1.326  0.4699 -0.3461  3.1766
  218SOL     OW  652   0.724   2.170   1.974 -0.8124 -0.1684 -0.7162
  218SOL    HW1  653   0.659   2.122   1.904 -1.7542  0.6528 -0.6659
  218SOL    HW2  654   0.814   2.121   1.987  1.2619 -1.8445 -1.9520
  219SOL     OW  655   2.038   1.364   0.214  0.2125 -0.1138  0.4798
  219SOL    HW1  656   2.078   1.374   0.118  2.3183  1.0942 -2.9618
  219SOL    HW2  657   2.094   1.409   0.285 -2.4521 -0.5393 -0.6787
  220SOL     OW  658   2.137   0.768   0.521  0.1307 -0.2913 -0.9465
  220SOL    HW1  659   2.156   0.790   0.619 -0.1393 -0.8625  1.8006
  220SOL    HW2  660   2.153   0.848   0.461  0.0612 -3.7432  1.3147
  221SOL     OW  661   2.912   0.797   0.221 -0.2049 -0.2697  0.5955
  221SOL    HW1  662   3.001   0.804   0.173 -1.0349 -1.6850 -1.6093
  221SOL    HW2  663   2.837   0.777   0.158 -1.0870  1.8459  1.2326
  222SOL     OW  664   1.601   1.367   0.716 -0.3271 -0.1315 -0.1075
  222SOL    HW1  665   1.572   1.294   0.651 -1.5408  0.4272  1.0827
  222SOL    HW2  666   1.545   1.360   0.799 -0.4331  1.0792  0.0413
  223SOL     OW  667   0.867   0.065   2.902 -0.3974 -0.2698 -0.3613
  223SOL    HW1  668   0.782   0.110   2.938  0.0115  1.5662 -0.7684
  223SOL    HW2  669   0.863   0.052   2.801 -2.8010 -4.0459 -1.3234
  224SOL     OW  670   1.259   3.083   1.224 -0.4238 -0.1689 -0.1658
  224SOL    HW1  671   1.294   3.085   1.320 -0.9486 -0.8103 -2.2244
  224SOL    HW2  672   1.191   3.006   1.218 -1.2125  0.2323 -2.7807
  225SOL     OW  673   0.244   2.514   2.017  0.1913 -0.3940  0.2487
  225SOL    HW1  674   0.328   2.566   2.025  0.1808  1.6451 -3.6435
  225SOL    HW2  675   0.266   2.422   2.056 -0.4145 -0.9749  4.1305
  226SOL     OW  676   1.378   1.518   0.314  0.1389  0.1708  0.3174
  226SOL    HW1  677   1.479   1.550   0.302  1.7414  0.8329 -1.4149
  226SOL    HW2  678   1.340   1.530   0.407  0.5217 -0.5609 -2.2795
  227SOL     OW  679   0.267   1.579   0.945 -0.9485  0.6745 -0.5470
  227SOL    HW1  680   0.297   1.675   0.910  2.5216 -1.1119  1.7311
  227SOL    HW2  681   0.315   1.511   0.882 -1.0025  1.4820  0.5203
  228SOL     OW  682   2.922   1.457   0.716  0.2828  0.5185  0.1914
  228SOL    HW1  683   2.923   1.365   0.765  0.8780 -0.9045 -0.3598
  228SOL    HW2  684   3.001   1.472   0.650 -1.3418  0.3742 -1.6855
  229SOL     OW  685   2.305   0.364   2.772 -0.0093 -0.0453  0.4144
  229SOL    HW1  686   2.227   0.371   2.706 -0.7152 -2.2263 -1.8357
  229SOL    HW2  687   2.286   0.298   2.846 -1.1422  1.1948  0.2443
  230SOL     OW  688   1.828   1.136   0.981 -0.0053 -0.4754 -0.3239
  230SOL    HW1  689   1.896   1.206   0.961 -1.1370  0.1381 -0.4469
  230SOL    HW2  690   1.744   1.171   1.028 -0.1765 -0.5400 -0.1685
  231SOL     OW  691   1.530   1.263   2.821 -0.1937  0.1038 -0.4084
  231SOL    HW1  692   1.612   1.253   2.757  3.1801 -1.1035 -1.3076
  231SOL    HW2  693   1.572   1.271   2.916  2.4586 -0.4770 -0.0918
  232SOL     OW  694   2.458   2.307   0.815 -0.1434 -0.0673  0.1544
  232SOL    HW1  695   2.522   2.368   0.764 -0.4584  1.2570  0.9372
  232SOL    HW2  696   2.451   2.336   0.912 -0.4228 -0.6871 -1.5879
  233SOL     OW  697   0.638   2.578   0.889  0.6081 -0.2317  0.1215
  233SOL    HW1  698   0.618   2.651   0.952 -0.8180 -0.6614 -1.5017
  233SOL    HW2  699   0.731   2.572   0.855 -3.1113  1.4775  1.0455
  234SOL     OW  700   0.690   0.551   2.573 -0.2712 -0.0085  0.3829
  234SOL    HW1  701   0.697   0.653   2.579 -0.3559 -0.7285 -1.6384
  234SOL    HW2  702   0.661   0.514   2.664  1.3327  0.0076  3.0042
  235SOL     OW  703   2.635   0.829   2.233  0.2011 -0.5344 -0.1254
  235SOL    HW1  704   2.638   0.738   2.270  1.5909 -0.2169 -0.7705
  235SOL    HW2  705   2.630   0.893   2.311  1.1414  2.2668  2.0274
  236SOL     OW  706   1.483   2.843   1.424  0.7885  0.0592 -0.3634
  236SOL    HW1  707   1.500   2.794   1.334 -2.3648 -0.6728 -2.4108
  236SOL    HW2  708   1.488   2.774   1.502  0.8391  1.0119  1.5023
  237SOL     OW  709   1.020   1.339   2.422  0.0061  0.0153 -0.2130
  237SOL    HW1  710   0.918   1.336   2.416 -0.4369  2.3740  2.6412
  237SOL    HW2  711   1.045   1.345   2.522  2.7827  2.0053  3.1274
  238SOL     OW  712   1.053   0.424   2.428 -0.0704  0.0918  0.5070
  238SOL    HW1  713   1.050   0.517   2.467  0.5248 -0.4916 -0.6286
  238SOL    HW2  714   0.961   0.385   2.425 -0.0962  2.4131 -0.4563
  239SOL     OW  715   0.301   2.281   2.109 -0.2214  1.1678 -0.0283
  239SOL    HW1  716   0.390   2.262   2.159  3.1858  0.6334  1.7436
  239SOL    HW2  717   0.281   2.199   2.048 -0.1921 -0.4218 -1.4279
  240SOL     OW  718   2.531   2.868   0.608 -0.0985 -0.6536  0.2723
  240SOL    HW1  719   2.607   2.860   0.681  2.7912  0.5787  0.4845
  240SOL    HW2  720   2.470   2.789   0.619  1.6362 -0.1675  0.0152
  241SOL     OW  721   2.765   1.229   0.516 -0.0400 -0.2330  0.1259
  241SOL    HW1  722   2.678   1.283   0.543 -0.8215  0.4862  1.3703
  241SOL    HW2  723   2.767   1.202   0.416 -0.5732  0.0829  1.1295
  242SOL     OW  724   1.857   2.419   2.050 -0.2139  0.3147  0.2456
  242SOL    HW1  725   1.929   2.351   2.023 -1.0804 -0.6597 -1.4353
  242SOL    HW2  726   1.887   2.522   2.043 -0.4121  2.0962  0.8084
  243SOL     OW  727   0.504   2.622   2.023  0.3593  0.1096  0.1718
  243SOL    HW1  728   0.555   2.701   2.060  0.2120 -1.4459  1.0434
  243SOL    HW2  729   0.559   2.534   2.029 -1.1049  0.5129 -0.1729
  244SOL     OW  730   2.536   0.471   2.550  0.0971  0.3468 -0.1763
  244SOL    HW1  731   2.608   0.399   2.577 -1.7617 -3.6377 -1.3911
  244SOL    HW2  732   2.467   0.415   2.495 -0.9001 -1.0839 -0.7352
  245SOL     OW  733   1.429   0.149   1.084  0.2901  0.5148 -0.2223
  245SOL    HW1  734   1.412   0.249   1.096 -0.3784  4.0742 -3.0330
  245SOL    HW2  735   1.376   0.089   1.148  0.3108  1.1482  0.0421
  246SOL     OW  736   1.685   2.650   3.100  0.0372 -0.0197 -0.2920
  246SOL    HW1  737   1.730   2.705   3.028 -1.7831  0.3272  3.4813
  246SOL    HW2  738   1.592   2.679   0.021 -0.8337  0.4499  0.1901
  247SOL     OW  739   1.208   0.757   2.402 -0.8219  0.1082 -0.3710
  247SOL    HW1  740   1.111   0.765   2.428  4.1373  0.9686  0.4369
  247SOL    HW2  741   1.267   0.763   2.481 -1.3606 -0.9669  1.5581
  248SOL     OW  742   0.102   2.313   1.660  0.4672 -0.0475  0.1104
  248SOL    HW1  743   0.149   2.222   1.643 -0.1856 -1.0678  4.0638
  248SOL    HW2  744   0.007   2.299   1.678  3.0516  1.0880 -2.1429
  249SOL     OW  745   2.846   0.444   0.111  0.2575  0.1478 -0.0265
  249SOL    HW1  746   2.932   0.412   0.149 -1.1693  3.2857  1.5824
  249SOL    HW2  747   2.775   0.371   0.115  2.4717  0.3862  1.3731
  250SOL     OW  748   2.782   0.033   2.630 -0.2581 -0.0940  0.2268
  250SOL    HW1  749   2.797   0.060   2.531 -1.8596  0.7658  0.9378
  250SOL    HW2  750   2.855   3.070   2.657  0.2706  0.3094 -3.5703
  251SOL     OW  751   1.324   0.713   0.141  0.1258  0.0316  0.1474
  251SOL    HW1  752   1.334   0.633   0.201  0.3487  0.6577  1.3767
  251SOL    HW2  753   1.399   0.782   0.155 -1.4359  0.2609 -1.2976
  252SOL     OW  754   1.420   2.457   2.016 -0.1888  0.3997 -0.1247
  252SOL    HW1  755   1.395   2.398   2.096  0.3277  1.9174  0.1385
  252SOL    HW2  756   1.439   2.552   2.049  0.7296 -1.2656 -2.4943
  253SOL     OW  757   2.257   2.540   1.339  0.1378  0.9901  0.2845
  253SOL    HW1  758   2.319   2.615   1.363 -2.4077 -0.8807 -3.3948
  253SOL    HW2  759   2.217   2.555   1.246 -0.8879 -1.0606 -0.8410
  254SOL     OW  760   2.283   1.297   0.654  0.1742 -0.3963  0.1023
  254SOL    HW1  761   2.324   1.207   0.620 -0.2901  0.6670 -0.9088
  254SOL    HW2  762   2.220   1.286   0.735 -0.6236 -0.3509  1.3170
  255SOL     OW  763   1.120   2.874   1.358  0.8377  0.2743  0.5265
  255SOL    HW1  764   1.060   2.803   1.317  0.2478 -1.6723  0.1418
  255SOL    HW2  765   1.163   2.838   1.441  1.1881  0.1808  0.7786
  256SOL     OW  766   1.822   2.209   1.478  0.1231  0.5101  0.0130
  256SOL    HW1  767   1.902   2.168   1.430  1.2252  2.1287 -0.2657
  256SOL    HW2  768   1.741   2.153   1.459  0.1358  0.8469 -0.5454
  257SOL     OW  769   0.623   2.565   2.510 -0.1280 -0.2215  0.4607
  257SOL    HW1  770   0.652   2.653   2.466 -0.2780  2.9370 -0.0904
  257SOL    HW2  771   0.652   2.558   2.609  0.9565 -0.3983 -0.9515
  258SOL     OW  772   0.813   2.585   0.537 -0.0273  0.5193  0.1075
  258SOL    HW1  773   0.813   2.660   0.472 -2.8267 -0.4610  0.1211
  258SOL    HW2  774   0.847   2.610   0.631  1.7265  2.1866 -0.9516
  259SOL     OW  775   1.479   0.325   2.831  0.7793  0.5650 -0.1258
  259SOL    HW1  776   1.469   0.264   2.917 -1.3874 -0.3605 -1.4636
  259SOL    HW2  777   1.501   0.423   2.847 -1.4010 -0.7713 -1.9545
  260SOL     OW  778   2.628   0.665   1.155 -0.3831 -0.4097  0.0673
  260SOL    HW1  779   2.727   0.676   1.137 -1.1027 -0.2533 -1.2672
  260SOL    HW2  780   2.610   0.656   1.257 -4.3950 -0.2065  1.6754
  261SOL     OW  781   0.811   0.329   2.459  0.1576 -0.1098  0.0759
  261SOL    HW1  782   0.745   0.397   2.493  0.5038  0.9020 -1.4629
  261SOL    HW2  783   0.778   0.292   2.368 -0.4020  0.6619 -2.0293
  262SOL     OW  784   1.091   2.376   2.197  0.2168  0.6597  0.0098
  262SOL    HW1  785   1.015   2.414   2.250 -0.2783  0.3208 -0.7641
  262SOL    HW2  786   1.062   2.321   2.119 -1.0067  1.4604  0.1986
  263SOL     OW  787   0.526   1.870   3.075  0.0530  0.6563  0.3073
  263SOL    HW1  788   0.595   1.938   3.099 -0.2908 -0.8425 -0.5356
  263SOL    HW2  789   0.523   1.847   2.976 -1.5775  1.7056  0.2433
  264SOL     OW  790   1.030   1.520   0.971 -0.4469 -0.2027  0.0195
  264SOL    HW1  791   1.026   1.603   0.919  2.1609 -1.1354  1.1760
  264SOL    HW2  792   1.083   1.542   1.052  1.3373 -0.7376 -1.1898
  265SOL     OW  793   1.192   2.377   0.704  0.3787  0.2815  0.4215
  265SOL    HW1  794   1.265   2.309   0.710 -0.4473  2.6773 -0.5474
  265SOL    HW2  795   1.200   2.428   0.616 -0.7393  0.9843 -0.0370
  266SOL     OW  796   2.063   0.500   0.868  0.5116 -0.1146  0.3816
  266SOL    HW1  797   2.113   0.462   0.945  0.0247  0.1816 -0.4737
  266SOL    HW2  798   1.987   0.569   0.888 -1.0030  1.6467 -1.3159
  267SOL     OW  799   3.038   1.356   2.642 -0.1047 -0.0563  0.1245
  267SOL    HW1  800   3.005   1.302   2.721  1.0816 -2.9758 -2.4158
  267SOL    HW2  801   2.989   1.314   2.566 -0.0253  1.4972  0.2571
  268SOL     OW  802   1.595   2.894   0.293  0.3462  0.3635  0.2614
  268SOL    HW1  803   1.692   2.867   0.291 -3.0323  0.2042 -2.9056
  268SOL    HW2  804   1.589   2.978   0.349  0.8465 -0.5752  1.5272
  269SOL     OW  805   2.940   0.719   2.509 -0.4100  0.1491  0.6531
  269SOL    HW1  806   2.962   0.639   2.444  1.1394 -0.5063 -1.5023
  269SOL    HW2  807   3.030   0.772   2.513  0.0590 -1.2728  0.9084
  270SOL     OW  808   3.092   1.443   3.099 -0.1757  0.3243  0.2055
  270SOL    HW1  809   3.078   1.384   0.072  3.0791  1.7142 -3.5809
  270SOL    HW2  810   0.066   1.415   3.039 -3.2032 -0.6274 -2.9395
  271SOL     OW  811   2.665   1.431   2.587  0.1916 -0.2873 -0.2702
  271SOL    HW1  812   2.595   1.502   2.568  0.2102 -0.0242 -1.2269
  271SOL    HW2  813   2.675   1.365   2.509 -0.6319  0.5538 -2.4730
  272SOL     OW  814   2.692   2.605   2.218 -0.6292  0.4539  0.6096
  272SOL    HW1  815   2.666   2.606   2.316 -4.0884 -0.2762  0.0611
  272SOL    HW2  816   2.643   2.527   2.174  1.0544  0.6248  0.6019
  273SOL     OW  817   0.352   2.779   0.222 -0.0992 -0.0839 -0.2550
  273SOL    HW1  818   0.326   2.737   0.310 -0.2394  1.3458 -1.8429
  273SOL    HW2  819   0.272   2.814   0.174  1.5085 -1.9058  1.5663
  274SOL     OW  820   1.133   2.455   0.957  0.1467 -0.4885 -0.1249
  274SOL    HW1  821   1.135   2.427   0.855 -0.8270 -0.7893 -2.1041
  274SOL    HW2  822   1.081   2.383   1.015 -1.2625 -2.5997  0.0540
  275SOL     OW  823   2.326   1.734   0.075  0.0050  0.3625 -0.0410
  275SOL    HW1  824   2.237   1.757   0.124 -1.4989  0.2297 -0.1666
  275SOL    HW2  825   2.318   1.648   0.026 -1.4060  4.1363  2.3874
  276SOL     OW  826   2.542   1.710   1.240  0.0968 -0.1515  0.0386
  276SOL    HW1  827   2.564   1.641   1.313  1.3700 -0.3628  0.9516
  276SOL    HW2  828   2.617   1.717   1.172 -1.4692 -2.9184  1.8509
  277SOL     OW  829   2.418   3.094   0.810 -0.0531 -0.2960 -0.4393
  277SOL    HW1  830   2.403   3.030   0.734 -0.6988  1.8992 -1.5868
  277SOL    HW2  831   2.454   3.045   0.894 -0.2679 -1.0665 -0.5026
  278SOL     OW  832   1.595   0.185   2.374  0.3566 -0.1052  0.3427
  278SOL    HW1  833   1.536   0.268   2.383  2.6050  2.5698  1.9865
  278SOL    HW2  834   1.582   0.118   2.448  1.5758 -1.1481 -0.4312
  279SOL     OW  835   1.449   2.644   1.186 -0.1402 -0.7023  0.3558
  279SOL    HW1  836   1.549   2.644   1.181 -0.7918 -3.5800 -1.0481
  279SOL    HW2  837   1.409   2.617   1.095 -1.4882  3.2354 -3.4434
  280SOL     OW  838   1.109   0.953   0.579  0.0431 -0.3970  0.7183
  280SOL    HW1  839   1.069   1.049   0.589 -0.1681  0.9354 -1.9150
  280SOL    HW2  840   1.209   0.957   0.573 -2.0575  1.4852  0.4215
  281SOL     OW  841   2.319   1.559   2.784  0.2491 -0.3815  0.4485
  281SOL    HW1  842   2.382   1.579   2.707 -0.7623  0.9800 -1.0398
  281SOL    HW2  843   2.231   1.611   2.776  1.8478 -0.1704 -1.6270
  282SOL     OW  844   2.974   1.262   2.896  0.2464 -0.0631 -0.1775
  282SOL    HW1  845   3.007   1.163   2.913  0.4239 -1.1947  0.7837
  282SOL    HW2  846   2.973   1.314   2.980  1.6744 -1.5558 -4.1594
  283SOL     OW  847   1.619   2.637   2.728 -0.3429  0.4314  0.0130
  283SOL    HW1  848   1.663   2.617   2.640  1.9099 -1.2031  4.3194
  283SOL    HW2  849   1.600   2.550   2.776  3.3012 -2.0097 -0.3115
  284SOL     OW  850   0.640   0.153   3.017 -0.1923 -0.1683  0.3877
  284SOL    HW1  851   0.637   0.231   3.081 -1.7484 -2.6112  0.7914
  284SOL    HW2  852   0.583   0.164   2.932  0.5525 -1.9223 -0.5940
  285SOL     OW  853   2.107   1.748   2.451  0.6161 -0.2282 -0.3717
  285SOL    HW1  854   2.196   1.779   2.483 -2.0507  1.0220 -3.0512
  285SOL    HW2  855   2.067   1.812   2.381  1.5387  2.1217 -2.2556
  286SOL     OW  856   1.323   1.998   0.842 -0.2424 -0.4399  0.3380
  286SOL    HW1  857   1.222   2.011   0.844 -1.2278  0.2255 -0.6997
  286SOL    HW2  858   1.367   2.017   0.935  1.8871  0.6798  2.8083
  287SOL     OW  859   1.738   0.355   1.385  0.0764 -0.2014  0.3192
  287SOL    HW1  860   1.762   0.292   1.468  1.7065 -0.5744 -0.5667
  287SOL    HW2  861   1.805   0.434   1.367 -1.0579  1.0873 -1.3494
  288SOL     OW  862   0.725   2.773   2.349 -0.4249  0.1934  0.0661
  288SOL    HW1  863   0.825   2.759   2.360  1.6170 -2.8938  0.0398
  288SOL    HW2  864   0.680   2.786   2.257 -3.9431  0.4868  0.7415
  289SOL     OW  865   0.063   1.091   0.689 -0.2867  0.2765  0.1036
  289SOL    HW1  866   0.112   1.103   0.780  2.3561  0.7615 -1.0257
  289SOL    HW2  867   3.089   1.025   0.696 -1.4956 -2.2132 -3.5664
  290SOL     OW  868   1.192   2.208   1.300  0.3410 -0.0234  0.1025
  290SOL    HW1  869   1.272   2.257   1.257  1.9023  0.9985  0.7972
  290SOL    HW2  870   1.137   2.154   1.237 -0.1324  0.2511  3.5745
  291SOL     OW  871   1.936   2.694   0.592  0.7664  0.1764  0.1412
  291SOL    HW1  872   1.911   2.786   0.628  2.1284 -1.3528  2.5634
  291SOL    HW2  873   1.859   2.644   0.543 -2.9585  0.4534  0.7078
  292SOL     OW  874   0.468   0.130   1.753  0.3461  0.2260 -1.1849
  292SOL    HW1  875   0.432   0.037   1.789 -1.7287 -1.7446  0.6930
  292SOL    HW2  876   0.567   0.134   1.774 -0.8320  1.4393 -1.4761
  293SOL     OW  877   2.340   1.800   0.645 -0.1764 -0.4959 -0.3653
  293SOL    HW1  878   2.415   1.766   0.703  1.2896 -1.1228  0.5002
  293SOL    HW2  879   2.340   1.902   0.634 -0.9507  1.4421 -0.1634
  294SOL     OW  880   1.002   0.163   2.121 -0.2635 -0.6512  0.1914
  294SOL    HW1  881   1.093   0.195   2.155 -0.5133 -0.1218 -1.3218
  294SOL    HW2  882   0.995   0.062   2.127  1.1341 -0.0459  1.2123
  295SOL     OW  883   0.831   1.107   0.788  0.2321  0.3499  0.3905
  295SOL    HW1  884   0.728   1.123   0.804  0.0686 -0.3593 -2.6577
  295SOL    HW2  885   0.877   1.078   0.875 -1.4946 -1.8731 -0.7907
  296SOL     OW  886   2.103   2.103   0.851 -0.5212  0.2450  0.0886
  296SOL    HW1  887   2.075   2.012   0.819  0.5783  0.4950 -0.6570
  296SOL    HW2  888   2.153   2.159   0.782  0.1411  1.5666  2.1351
  297SOL     OW  889   1.722   0.168   2.757 -0.1391 -0.6083 -0.5892
  297SOL    HW1  890   1.641   0.225   2.753  4.8623 -0.9906  0.6925
  297SOL    HW2  891   1.794   0.218   2.804 -1.2703 -4.4444 -0.6008
  298SOL     OW  892   1.193   0.026   2.573  0.6587 -0.1806  0.0648
  298SOL    HW1  893   1.175   3.042   2.532 -1.1455  2.0994 -1.2394
  298SOL    HW2  894   1.204   0.016   2.673 -1.0537  0.4260  0.1197
  299SOL     OW  895   1.078   3.023   2.011 -0.3586 -0.5370  0.6250
  299SOL    HW1  896   1.129   3.061   1.931 -0.6583  1.3067 -1.3679
  299SOL    HW2  897   1.131   3.029   2.093  0.9117  1.1037  0.1622
  300SOL     OW  898   2.594   0.189   1.648 -0.5537  0.3735  0.1165
  300SOL    HW1  899   2.689   0.225   1.646  0.6079 -0.4624  0.5058
  300SOL    HW2  900   2.523   0.260   1.645  0.4977  2.3445  2.9029
  301SOL     OW  901   2.370   0.337   1.687  0.1126 -0.4295 -0.1073
  301SOL    HW1  902   2.381   0.373   1.783 -0.0252  0.2833  2.2070
  301SOL    HW2  903   2.273   0.317   1.660 -0.8986  0.2366 -1.1330
  302SOL     OW  904   0.676   2.569   3.042 -0.2068  0.4849 -0.2851
  302SOL    HW1  905   0.759   2.506   3.066  4.8934 -3.1539 -1.5136
  302SOL    HW2  906   0.600   2.542   0.002 -1.3164 -4.7998  2.3858
  303SOL     OW  907   1.575   2.086   1.435 -0.2399 -0.0382 -0.2393
  303SOL    HW1  908   1.497   2.137   1.475  1.0393  1.3436 -0.4483
  303SOL    HW2  909   1.548   1.995   1.407 -2.7059  3.1637  1.8822
  304SOL     OW  910   0.235   0.660   0.966 -0.2320 -0.7332 -0.0397
  304SOL    HW1  911   0.226   0.725   1.038  2.9475 -1.2098 -3.0644
  304SOL    HW2  912   0.156   0.662   0.896 -1.1965 -0.6802 -1.4198
  305SOL     OW  913   1.091   0.707   0.875 -0.4129  0.4778  0.1505
  305SOL    HW1  914   1.103   0.767   0.960  1.4826 -1.3152 -0.0187
  305SOL    HW2  915   1.137   0.758   0.799  2.0558 -0.2769 -0.8296
  306SOL     OW  916   0.493   1.005   2.993  0.0611 -0.0340  0.2618
  306SOL    HW1  917   0.571   0.940   2.964  2.9359 -0.4971 -0.0178
  306SOL    HW2  918   0.460   0.975   3.084 -2.0020  0.1820  0.1445
  307SOL     OW  919   1.050   0.269   1.648  0.0173  0.0166 -0.0964
  307SOL    HW1  920   1.078   0.369   1.648 -0.9897 -1.6901  0.6035
  307SOL    HW2  921   0.983   0.247   1.725  3.3689 -1.3493 -0.3795
  308SOL     OW  922   0.798   0.691   0.865 -0.0925 -0.4872 -0.7117
  308SOL    HW1  923   0.889   0.695   0.826 -0.7812  3.6492 -1.0128
  308SOL    HW2  924   0.733   0.743   0.812  0.1661  1.3320  0.9922
  309SOL     OW  925   2.477   0.859   0.547 -0.1126  0.2998  0.0415
  309SOL    HW1  926   2.441   0.789   0.607 -0.1739  0.9923 -3.5893
  309SOL    HW2  927   2.572   0.831   0.510  2.8882 -1.1804 -1.0014
  310SOL     OW  928   1.103   1.291   0.032 -0.9560  0.2038 -0.3388
  310SOL    HW1  929   1.047   1.357   0.086 -1.1343 -2.5312 -0.6218
  310SOL    HW2  930   1.047   1.223   3.085  0.1596 -1.0031 -1.9635
  311SOL     OW  931   2.367   2.635   2.409 -0.1723 -0.0800 -0.0526
  311SOL    HW1  932   2.458   2.680   2.398 -1.2375  0.3831 -3.1808
  311SOL    HW2  933   2.289   2.691   2.379 -0.1080 -3.2010 -2.1505
  312SOL     OW  934   2.073   2.390   2.944  0.6314 -0.3994  0.4125
  312SOL    HW1  935   2.163   2.349   2.936 -3.0533  1.3613  0.9656
  312SOL    HW2  936   2.054   2.430   3.037 -1.3816  0.2898  2.3326
  313SOL     OW  937   0.380   0.162   0.196 -0.0489 -0.0776 -0.1815
  313SOL    HW1  938   0.377   0.240   0.267 -1.3588 -1.4623  0.9633
  313SOL    HW2  939   0.366   0.195   0.103 -0.0483 -1.8165 -0.1766
  314SOL     OW  940   2.343   1.501   3.060  0.0070  0.0522  0.3987
  314SOL    HW1  941   2.430   1.465   3.103  3.0245 -0.1614 -0.6934
  314SOL    HW2  942   2.345   1.513   2.957 -0.2603  1.4752 -2.3211
  315SOL     OW  943   1.784   0.469   2.123 -0.4290 -0.0678  0.7160
  315SOL    HW1  944   1.808   0.425   2.209 -0.3178 -3.4303 -3.2930
  315SOL    HW2  945   1.691   0.512   2.128  0.5648  1.0018 -0.0750
  316SOL     OW  946   2.969   0.871   0.693  0.0242 -0.4174 -0.0205
  316SOL    HW1  947   2.901   0.905   0.764 -0.5741  0.6212  0.9205
  316SOL    HW2  948   2.929   0.896   0.601 -0.4425 -0.0059  0.2616
  317SOL     OW  949   0.773   2.783   0.088 -0.2898  0.5516  0.1990
  317SOL    HW1  950   0.701   2.839   0.130 -0.6128 -0.0828  0.7140
  317SOL    HW2  951   0.740   2.716   0.012 -1.2673 -4.9273 -3.9130
  318SOL     OW  952   1.842   2.711   1.614  0.1626  0.2789  0.2255
  318SOL    HW1  953   1.913   2.783   1.589  0.5297  1.1210 -1.0864
  318SOL    HW2  954   1.869   2.615   1.632 -1.8554  0.8001  0.6346
  319SOL     OW  955   1.151   1.611   3.017  0.2150  0.3031  0.6652
  319SOL    HW1  956   1.166   1.600   0.008 -0.1006 -0.9890 -2.1699
  319SOL    HW2  957   1.221   1.563   2.961  1.3181  1.6556 -1.1765
  320SOL     OW  958   0.363   1.845   0.845 -0.3987  0.2801 -0.2461
  320SOL    HW1  959   0.292   1.890   0.787  0.2689  0.4311  0.5965
  320SOL    HW2  960   0.453   1.889   0.825 -4.0346 -3.2332 -0.0583
  321SOL     OW  961   1.956   2.675   1.993 -0.4570  0.0111  1.0396
  321SOL    HW1  962   2.027   2.745   2.021 -1.3569 -0.9483  0.6446
  321SOL    HW2  963   1.869   2.726   1.980 -0.7602 -0.5149 -0.7282
  322SOL     OW  964   2.358   1.901   2.440  0.0191 -0.0809 -0.0257
  322SOL    HW1  965   2.359   1.985   2.395  0.4951 -2.5149 -1.4979
  322SOL    HW2  966   2.419   1.841   2.383 -0.7279  1.4997  0.0002
  323SOL     OW  967   2.613   0.218   0.753  0.1984 -0.3672  0.4723
  323SOL    HW1  968   2.556   0.143   0.789  1.8808  1.2790 -1.7603
  323SOL    HW2  969   2.584   0.238   0.656  1.6232  0.2290  1.3964
  324SOL     OW  970   2.874   2.796   2.127  0.0158  0.2181  0.1186
  324SOL    HW1  971   2.972   2.818   2.108  4.0324  2.5162  1.8040
  324SOL    HW2  972   2.864   2.699   2.157  0.5159 -2.1097  0.2727
  325SOL     OW  973   0.954   0.578   2.777 -0.0870 -0.0638 -0.1304
  325SOL    HW1  974   1.058   0.574   2.766  2.4438  3.2060 -0.3818
  325SOL    HW2  975   0.914   0.490   2.805 -4.0821  0.6472 -1.5733
  326SOL     OW  976   2.708   2.471   0.961  0.2865  0.0182  0.1316
  326SOL    HW1  977   2.789   2.528   0.973 -2.1633  1.7354 -2.5531
  326SOL    HW2  978   2.619   2.519   0.990  1.7056  2.7159  3.5091
  327SOL     OW  979   2.328   3.072   0.191 -0.1508  0.4327 -0.4188
  327SOL    HW1  980   2.382   3.084   0.276  0.0125 -0.3073 -0.0503
  327SOL    HW2  981   2.280   2.982   0.193 -2.9074 -0.0150  2.0665
  328SOL     OW  982   0.568   0.803   1.555 -0.3504 -0.0173  0.6175
  328SOL    HW1  983   0.561   0.705   1.551  0.9507  3.2365 -0.8798
  328SOL    HW2  984   0.532   0.843   1.638  1.8798  0.1972 -3.1379
  329SOL     OW  985   2.097   0.663   1.498  0.4213 -0.3077 -0.0537
  329SOL    HW1  986   2.161   0.614   1.558  0.3864  1.6972 -4.1181
  329SOL    HW2  987   2.124   0.756   1.464 -1.2407  0.4013  1.9832
  330SOL     OW  988   0.740   0.420   0.883  0.6015  0.3386 -0.0531
  330SOL    HW1  989   0.656   0.402   0.941 -0.3576 -1.5821  0.5341
  330SOL    HW2  990   0.752   0.514   0.855  0.0125 -2.7466  0.5128
  331SOL     OW  991   0.842   1.760   1.926  0.0051 -0.0386 -0.2976
  331SOL    HW1  992   0.897   1.682   1.889  3.3502 -1.3878 -2.4569
  331SOL    HW2  993   0.812   1.823   1.851  1.0159 -1.2977  1.8981
  332SOL     OW  994   2.702   2.511   1.691  0.1373  0.3618 -0.0659
  332SOL    HW1  995   2.774   2.563   1.747 -0.5316  0.6466 -0.7866
  332SOL    HW2  996   2.696   2.418   1.732 -1.3134 -1.6789  0.3337
  333SOL     OW  997   3.103   3.009   0.881  0.1951  0.2005  0.1744
  333SOL    HW1  998   0.016   0.001   0.887  1.0112 -0.1931  0.0416
  333SOL    HW2  999   3.014   2.993   0.841  2.9855  0.7707 -0.9807
  334SOL     OW 1000   3.027   1.228   0.491 -0.7675  0.2483 -0.7003
  334SOL    HW1 1001   2.928   1.226   0.515 -4.2794 -1.8297 -0.8805
  334SOL    HW2 1002   3.083   1.185   0.569 -0.5915  0.4141 -3.2260
  335SOL     OW 1003   0.721   2.616   2.765  0.1356 -0.6214  0.5126
  335SOL    HW1 1004   0.710   2.598   2.866  1.7453 -0.2234  0.1316
  335SOL    HW2 1005   0.732   2.716   2.740 -1.1440  1.2537  0.2706
  336SOL     OW 1006   2.690   2.818   1.935 -1.0681  0.1404 -0.1202
  336SOL    HW1 1007   2.604   2.851   1.976  0.9330 -2.5625  0.9218
  336SOL    HW2 1008   2.760   2.826   2.013 -0.7107  1.4841  0.9788
  337SOL     OW 1009   1.269   2.071   1.792 -0.0646 -0.5348 -0.0148
  337SOL    HW1 1010   1.220   2.135   1.857  1.9287 -1.6404  1.8326
  337SOL    HW2 1011   1.370   2.080   1.809  0.5766  1.3726  0.4280
  338SOL     OW 1012   0.884   0.104   2.621  0.2525  0.0288 -0.3150
  338SOL    HW1 1013   0.870   0.189   2.561 -1.4247 -3.3622 -0.5854
  338SOL    HW2 1014   0.975   0.061   2.600  2.5547 -2.0824  1.7675
  339SOL     OW 1015   0.555   1.150   2.466 -0.1379 -0.0924  0.8210
  339SOL    HW1 1016   0.515   1.153   2.372  3.3573 -0.1473  1.7594
  339SOL    HW2 1017   0.625   1.077   2.470 -2.4416  0.5675  1.0429
  340SOL     OW 1018   2.181   0.374   1.085 -0.2879  0.3862 -0.0085
  340SOL    HW1 1019   2.166   0.273   1.069  1.1594 -1.7094  1.0460
  340SOL    HW2 1020   2.275   0.400   1.050  0.8233  1.5415  5.3573
  341SOL     OW 1021   2.098   1.285   0.886  0.0271  0.7402 -0.0582
  341SOL    HW1 1022   2.014   1.341   0.873  0.0318  1.4933  2.1525
  341SOL    HW2 1023   2.108   1.261   0.986 -1.6150  0.5738 -1.7424
  342SOL     OW 1024   2.113   2.654   2.825 -0.6777  0.4266  0.0317
  342SOL    HW1 1025   2.128   2.566   2.866 -0.6287  0.0285 -0.1298
  342SOL    HW2 1026   2.030   2.698   2.859  2.3221 -1.0226 -1.7868
  343SOL     OW 1027   0.162   2.522   1.467 -0.2448  0.1371  0.6125
  343SOL    HW1 1028   0.150   2.453   1.538 -0.6287 -1.7143 -0.5657
  343SOL    HW2 1029   0.173   2.620   1.492  0.4990 -0.9625 -1.1299
  344SOL     OW 1030   2.469   2.727   1.377 -0.0240  0.0318 -0.4703
  344SOL    HW1 1031   2.533   2.650   1.397  2.3600 -1.8562 -1.8749
  344SOL    HW2 1032   2.523   2.809   1.371 -0.2055  1.6934  0.3151
  345SOL     OW 1033   2.496   2.230   0.059  0.2553  0.1751  0.5340
  345SOL    HW1 1034   2.594   2.243   0.066 -0.8355 -0.5900  2.8143
  345SOL    HW2 1035   2.465   2.227   3.071  1.1812 -3.8735 -1.2979
  346SOL     OW 1036   1.515   2.398   1.621  0.6079  0.5482 -0.2947
  346SOL    HW1 1037   1.446   2.323   1.596  1.7626 -2.4124 -2.9412
  346SOL    HW2 1038   1.561   2.382   1.714 -0.3150 -1.3171 -1.0225
  347SOL     OW 1039   0.992   2.059   1.612 -0.2227 -0.4637 -0.1633
  347SOL    HW1 1040   1.089   2.045   1.630 -2.4571  0.1024  1.1021
  347SOL    HW2 1041   0.971   2.156   1.603 -0.0416 -4.0818 -1.7480
  348SOL     OW 1042   0.260   2.050   1.952  0.2508  0.6501  0.1106
  348SOL    HW1 1043   0.234   2.071   1.856  1.1554 -0.6891 -0.9147
  348SOL    HW2 1044   0.319   1.964   1.953  2.0628 -0.8092 -1.2430
  349SOL     OW 1045   1.692   1.687   1.490  0.1302 -0.3494 -0.1126
  349SOL    HW1 1046   1.683   1.658   1.585  1.3615 -0.1433 -2.1260
  349SOL    HW2 1047   1.787   1.712   1.468  1.9673 -0.1221  2.0650
  350SOL     OW 1048   2.230   2.120   0.441 -0.0836  0.4008  0.3537
  350SOL    HW1 1049   2.136   2.086   0.436  1.6836  3.6525 -0.3564
  350SOL    HW2 1050   2.233   2.215   0.418  3.3184 -1.3448 -0.4022
  351SOL     OW 1051   0.693   2.961   1.580  0.0981 -0.6448 -0.2193
  351SOL    HW1 1052   0.715   3.020   1.659 -0.2147  0.3763  2.1749
  351SOL    HW2 1053   0.767   2.960   1.508  0.0864 -0.4262  2.6885
  352SOL     OW 1054   0.377   0.888   0.834 -0.1907  0.0615 -0.6010
  352SOL    HW1 1055   0.332   0.812   0.887  0.1577 -0.4763 -0.2168
  352SOL    HW2 1056   0.317   0.916   0.752 -1.1679  1.5241 -0.3004
  353SOL     OW 1057   1.091   1.677   2.601  0.5635  0.1823  0.3969
  353SOL    HW1 1058   0.992   1.700   2.616  1.7014 -4.0051  0.3372
  353SOL    HW2 1059   1.107   1.583   2.628 -1.1773  0.8396  1.1844
  354SOL     OW 1060   1.696   2.839   1.991  0.3560  0.0860 -0.8862
  354SOL    HW1 1061   1.651   2.831   2.084 -1.0974 -0.4434  1.2866
  354SOL    HW2 1062   1.635   2.865   1.912  2.5240 -0.7284 -0.5558
  355SOL     OW 1063   1.911   1.118   0.123  0.2248 -0.0147 -0.2709
  355SOL    HW1 1064   1.969   1.198   0.137  2.0894  1.9524 -0.3518
  355SOL    HW2 1065   1.918   1.072   0.032  0.5578  0.4731 -0.6732
  356SOL     OW 1066   3.004   1.686   1.446  0.9798 -1.1256  0.4843
  356SOL    HW1 1067   3.028   1.782   1.430 -1.6261 -4.8253 -1.2049
  356SOL    HW2 1068   3.052   1.629   1.378 -0.1477 -0.5065  0.4010
  357SOL     OW 1069   0.181   2.818   1.255  0.6418  0.0999  0.0073
  357SOL    HW1 1070   0.088   2.827   1.216  0.2232 -0.1175 -1.6642
  357SOL    HW2 1071   0.185   2.807   1.359 -2.0911  0.3726 -0.0392
  358SOL     OW 1072   2.545   1.960   1.396  0.3869  0.1506 -0.0235
  358SOL    HW1 1073   2.580   1.948   1.491  0.7135 -0.6815 -2.0744
  358SOL    HW2 1074   2.553   1.873   1.348 -1.6554  1.2298 -0.6404
  359SOL     OW 1075   2.086   2.862   2.655 -0.1307 -0.1925 -0.5325
  359SOL    HW1 1076   2.160   2.933   2.666 -1.8949 -0.7858  1.5402
  359SOL    HW2 1077   2.095   2.784   2.717  1.4249  0.2688 -0.3971
  360SOL     OW 1078   1.107   2.971   0.942 -0.2204  0.7292 -0.3295
  360SOL    HW1 1079   1.121   2.962   0.838  0.3365 -0.7820 -1.7275
  360SOL    HW2 1080   1.161   2.895   0.985  0.5401 -2.1683 -3.4773
  361SOL     OW 1081   2.031   0.157   0.391  0.0511 -0.1015  0.2725
  361SOL    HW1 1082   2.050   0.154   0.290 -0.3240  2.1562  1.6776
  361SOL    HW2 1083   2.059   0.240   0.430 -1.9637 -0.6998  1.4698
  362SOL     OW 1084   1.575   0.948   1.066 -0.3624 -0.3236 -0.0715
  362SOL    HW1 1085   1.649   0.910   1.001  2.2664 -2.6092 -1.0544
  362SOL    HW2 1086   1.588   1.049   1.081 -0.6871 -1.4506  0.7620
  363SOL     OW 1087   2.391   1.176   2.462  0.0327 -0.0027  0.3588
  363SOL    HW1 1088   2.356   1.221   2.547  0.3082 -0.7473  0.1534
  363SOL    HW2 1089   2.318   1.107   2.433 -2.8116 -0.5034  0.9826
  364SOL     OW 1090   0.368   0.666   1.331 -0.2974 -0.0111  0.0943
  364SOL    HW1 1091   0.460   0.639   1.290  2.7232  0.4208  2.8427
  364SOL    HW2 1092   0.297   0.704   1.270 -0.5233 -0.0298 -5.1383
  365SOL     OW 1093   0.555   0.086   2.504  0.2219  0.3285  0.1601
  365SOL    HW1 1094   0.587   3.095   2.519 -3.0453 -2.2843 -1.4609
  365SOL    HW2 1095   0.627   0.150   2.494 -2.6551 -1.5079  0.1744
  366SOL     OW 1096   2.368   2.004   2.687 -0.5123 -0.1160 -0.4403
  366SOL    HW1 1097   2.373   1.941   2.607 -1.5155 -0.4075  1.0689
  366SOL    HW2 1098   2.364   2.102   2.660  0.8374 -2.7131 -1.6783
  367SOL     OW 1099   2.784   2.482   3.023 -0.0467 -0.2327 -0.0113
  367SOL    HW1 1100   2.755   2.553   3.087 -0.5167  0.1509 -2.2360
  367SOL    HW2 1101   2.874   2.515   2.976  0.4003  1.0041 -1.3734
  368SOL     OW 1102   2.696   1.346   1.290  0.1990 -0.1536  0.3366
  368SOL    HW1 1103   2.636   1.407   1.354  2.0384  2.9990  1.7414
  368SOL    HW2 1104   2.725   1.407   1.220 -3.8461 -3.8527  2.2325
  369SOL     OW 1105   0.962   2.937   2.517 -0.4793  0.2757  0.3298
  369SOL    HW1 1106   1.001   2.869   2.453 -0.8847  0.8843 -0.3385
  369SOL    HW2 1107   0.966   2.914   2.617 -1.5122  0.6770 -2.5566
  370SOL     OW 1108   2.921   0.389   0.491  0.0809  0.2934 -0.3669
  370SOL    HW1 1109   3.017   0.409   0.457  2.0383 -2.1347 -1.0927
  370SOL    HW2 1110   2.854   0.440   0.430  0.3846 -0.8174 -1.2443
  371SOL     OW 1111   1.418   2.282   1.155 -0.2491  0.1956 -0.0069
  371SOL    HW1 1112   1.494   2.340   1.194 -1.1372  1.3010 -1.3091
  371SOL    HW2 1113   1.396   2.319   1.066 -0.5833 -2.0721  1.6894
  372SOL     OW 1114   0.095   0.830   2.524 -0.2516  0.3272  0.3417
  372SOL    HW1 1115   0.154   0.762   2.472 -0.0774 -0.4941 -0.9192
  372SOL    HW2 1116   0.094   0.921   2.481 -1.0094 -0.9882 -2.1647
  373SOL     OW 1117   2.538   1.707   0.794 -0.5540 -0.2271 -0.6769
  373SOL    HW1 1118   2.629   1.724   0.748 -0.5052  0.4861  3.2332
  373SOL    HW2 1119   2.526   1.784   0.862  1.5683  2.1347 -1.2237
  374SOL     OW 1120   0.616   2.939   2.577 -0.4270 -0.4036 -0.4305
  374SOL    HW1 1121   0.622   2.915   2.678 -3.5177 -0.2271 -0.1044
  374SOL    HW2 1122   0.676   2.886   2.509 -0.6932  1.0013 -1.4517
  375SOL     OW 1123   0.181   2.935   2.760 -0.0897  0.0356 -0.4417
  375SOL    HW1 1124   0.225   2.923   2.671 -2.7513  0.9937 -1.0777
  375SOL    HW2 1125   0.248   2.973   2.828  2.0300 -0.2686  0.2659
  376SOL     OW 1126   2.951   2.254   1.724  0.1962  0.6570  0.1663
  376SOL    HW1 1127   2.941   2.152   1.737 -0.9569 -0.2787  2.0417
  376SOL    HW2 1128   2.978   2.303   1.814 -0.1075  1.4263 -0.1527
  377SOL     OW 1129   1.796   2.290   2.656 -0.5911  0.0279 -0.2681
  377SOL    HW1 1130   1.742   2.246   2.574  0.8423  0.8492  1.1755
  377SOL    HW2 1131   1.876   2.336   2.616 -0.1930 -2.1134  0.9782
  378SOL     OW 1132   0.318   0.315   2.435  0.3903  0.5814 -0.2595
  378SOL    HW1 1133   0.394   0.381   2.420 -1.3762 -1.6097  0.6710
  378SOL    HW2 1134   0.340   0.224   2.393  0.2216 -0.1233  3.6050
  379SOL     OW 1135   0.454   0.633   0.398  0.4221  0.2372 -0.3332
  379SOL    HW1 1136   0.496   0.638   0.489  2.8323  0.8064 -0.6140
  379SOL    HW2 1137   0.372   0.698   0.392 -3.5152 -0.8427 -0.1023
  380SOL     OW 1138   0.271   1.510   1.779  0.2952 -0.1335  0.0452
  380SOL    HW1 1139   0.367   1.503   1.743  2.8512 -1.1648  0.4039
  380SOL    HW2 1140   0.270   1.572   1.861 -0.7005  1.7049  0.8004
  381SOL     OW 1141   0.459   0.878   1.783 -0.0480 -0.2788  0.2235
  381SOL    HW1 1142   0.362   0.865   1.807  0.2914  1.9323 -1.3420
  381SOL    HW2 1143   0.484   0.979   1.776  1.2699  1.7611  2.0236
  382SOL     OW 1144   2.424   2.061   0.265 -0.1329 -0.3860  0.5450
  382SOL    HW1 1145   2.424   2.119   0.182  0.5726  1.7049  3.3538
  382SOL    HW2 1146   2.341   2.074   0.320 -0.2057  2.1193  1.1331
  383SOL     OW 1147   0.263   1.958   3.020  0.7610  0.3817  0.2175
  383SOL    HW1 1148   0.187   1.951   3.095 -0.2256  1.9836  3.0466
  383SOL    HW2 1149   0.354   1.921   3.051  0.6823  0.5627 -1.2660
  384SOL     OW 1150   0.853   2.041   2.955 -0.3173 -0.0250  0.1264
  384SOL    HW1 1151   0.915   1.963   2.941  0.0612 -2.4804  1.1113
  384SOL    HW2 1152   0.785   2.016   3.026  1.8767  3.3246 -2.5583
  385SOL     OW 1153   2.411   2.074   0.671  0.4252  0.3344 -0.2327
  385SOL    HW1 1154   2.425   2.152   0.732  2.3396 -2.8553 -2.6323
  385SOL    HW2 1155   2.367   2.098   0.586  3.5237 -3.0267  3.5395
  386SOL     OW 1156   2.200   1.118   1.647  0.7099 -0.0543  0.0198
  386SOL    HW1 1157   2.222   1.179   1.566  0.9529  0.2095 -1.2550
  386SOL    HW2 1158   2.200   1.160   1.740 -1.6545 -0.5122  2.2376
  387SOL     OW 1159   2.918   1.549   2.151 -0.2593  0.0624 -0.2107
  387SOL    HW1 1160   2.936   1.452   2.158 -1.6782  1.6042 -0.3459
  387SOL    HW2 1161   2.920   1.603   2.240  0.5528  2.2208  3.3586
  388SOL     OW 1162   0.314   1.658   2.008 -0.4528 -0.5618 -0.7527
  388SOL    HW1 1163   0.358   1.590   2.067 -5.4006 -1.6806  1.6455
  388SOL    HW2 1164   0.365   1.750   2.002 -0.7240  3.3593  1.4697
  389SOL     OW 1165   1.553   1.254   1.727  0.2528 -0.3549  0.0861
  389SOL    HW1 1166   1.591   1.319   1.804 -1.2265 -2.2120  3.5571
  389SOL    HW2 1167   1.493   1.185   1.768 -0.0012  4.0177  2.5120
  390SOL     OW 1168   2.010   3.080   0.910  0.3165  0.2004 -0.1300
  390SOL    HW1 1169   1.976   3.052   1.005 -3.2634 -3.2069  0.8589
  390SOL    HW2 1170   2.079   0.052   0.923  0.3411  0.8387 -2.2300
  391SOL     OW 1171   1.966   1.813   1.165  0.5189  0.2587 -0.1881
  391SOL    HW1 1172   1.994   1.730   1.110  1.3528 -0.1250  0.0843
  391SOL    HW2 1173   1.938   1.784   1.257 -2.0662  1.1338 -0.1630
  392SOL     OW 1174   2.700   2.502   0.335 -0.1159 -0.2338 -0.4818
  392SOL    HW1 1175   2.653   2.462   0.415 -0.3830 -0.4725 -0.2555
  392SOL    HW2 1176   2.761   2.580   0.361 -0.6331  1.8401  1.1955
  393SOL     OW 1177   2.097   2.041   2.720  0.0548 -0.0407 -0.7680
  393SOL    HW1 1178   2.197   2.037   2.690  0.6123 -0.5198 -0.0311
  393SOL    HW2 1179   2.085   2.044   2.821 -0.5425 -0.1417 -2.1145
  394SOL     OW 1180   0.099   2.632   2.533 -0.1717 -0.2054  0.2016
  394SOL    HW1 1181   0.119   2.609   2.629 -0.5443  0.8832  0.6513
  394SOL    HW2 1182   3.105   2.637   2.525  1.0261  0.4633 -1.6122
  395SOL     OW 1183   0.686   0.241   0.672  0.2325 -0.7410  0.3571
  395SOL    HW1 1184   0.599   0.251   0.630  4.4401 -1.7266  1.1592
  395SOL    HW2 1185   0.703   0.317   0.740 -1.3340  5.0294 -0.4945
  396SOL     OW 1186   1.895   1.003   0.572  0.5008 -0.0604 -0.5113
  396SOL    HW1 1187   1.813   0.955   0.534 -1.2335 -1.7527  0.6138
  396SOL    HW2 1188   1.979   0.998   0.510  0.9521  0.3559 -0.1032
  397SOL     OW 1189   0.597   0.691   2.188 -0.5319  0.4816 -0.0446
  397SOL    HW1 1190   0.689   0.693   2.229 -0.8821  1.1374  0.2204
  397SOL    HW2 1191   0.526   0.738   2.242 -1.3246 -0.5730 -4.0470
  398SOL     OW 1192   0.889   2.961   0.563 -0.4165  0.1916 -0.5002
  398SOL    HW1 1193   0.897   3.061   0.559  0.2656 -0.0678 -1.5156
  398SOL    HW2 1194   0.971   2.933   0.613 -1.6667  1.9838 -1.1169
  399SOL     OW 1195   2.340   2.826   1.648  0.5056 -0.3526  0.2095
  399SOL    HW1 1196   2.380   2.734   1.668  0.0021 -0.2886  0.3979
  399SOL    HW2 1197   2.396   2.877   1.574  2.0483  0.5467 -0.5861
  400SOL     OW 1198   0.893   1.725   2.336 -0.7982  0.1173  0.1818
  400SOL    HW1 1199   0.967   1.799   2.338 -0.3105  3.9033  0.0412
  400SOL    HW2 1200   0.850   1.709   2.428  1.8274 -0.6284 -0.8095
  401SOL     OW 1201   0.774   1.163   2.815 -0.0630 -0.4941 -0.1373
  401SOL    HW1 1202   0.688   1.217   2.825 -0.8963  0.6699 -0.7591
  401SOL    HW2 1203   0.749   1.062   2.814  1.4271 -0.2398 -1.0665
  402SOL     OW 1204   2.978   2.022   0.791  1.2055 -0.1993 -0.3316
  402SOL    HW1 1205   2.905   2.075   0.741 -3.5352  2.3425 -2.1510
  402SOL    HW2 1206   2.962   1.928   0.769  2.9909  2.9672  1.3789
  403SOL     OW 1207   0.107   1.069   2.100  0.0900 -0.4816 -0.4054
  403SOL    HW1 1208   0.012   1.064   2.068  0.0766  0.3672 -0.2763
  403SOL    HW2 1209   0.158   1.132   2.033  2.0085 -2.7354 -2.0134
  404SOL     OW 1210   3.030   2.545   2.286 -0.2322 -0.2721  0.0442
  404SOL    HW1 1211   3.051   2.446   2.271 -1.7120  1.5573 -1.2997
  404SOL    HW2 1212   0.002   2.597   2.253 -2.1122 -0.4987  2.0108
  405SOL     OW 1213   0.106   0.127   1.927  0.5091 -0.2480  0.1301
  405SOL    HW1 1214   0.183   0.191   1.947  0.4740  1.3553  1.9582
  405SOL    HW2 1215   0.018   0.158   1.971 -3.4702  3.4236  0.0337
  406SOL     OW 1216   1.434   1.589   2.577 -0.2781  0.2319  0.1943
  406SOL    HW1 1217   1.491   1.642   2.651  1.0753 -1.5569  3.1594
  406SOL    HW2 1218   1.443   1.640   2.488  0.0634 -0.2013 -1.0445
  407SOL     OW 1219   1.585   0.920   2.514  0.1931  0.3714 -0.0445
  407SOL    HW1 1220   1.502   0.920   2.454 -2.0950 -0.5495 -0.5581
  407SOL    HW2 1221   1.654   0.864   2.467 -0.2371  1.7780 -3.2059
  408SOL     OW 1222   0.812   3.102   2.329 -0.3927  0.5806 -0.1851
  408SOL    HW1 1223   0.866   3.102   2.416 -0.2484 -0.7667  0.6848
  408SOL    HW2 1224   0.767   3.010   2.320 -0.5633 -1.8073  2.3125
  409SOL     OW 1225   3.079   2.148   1.019 -0.6365 -0.1742  0.1472
  409SOL    HW1 1226   3.037   2.116   0.933 -1.1568  1.7770  3.6375
  409SOL    HW2 1227   0.037   2.083   1.060 -1.5095 -0.3142  0.4120
  410SOL     OW 1228   2.623   1.428   0.218 -0.4714  0.3468 -0.2912
  410SOL    HW1 1229   2.717   1.446   0.259  0.6974  1.9751 -0.4709
  410SOL    HW2 1230   2.632   1.451   0.119 -0.7338 -1.0402  2.9638
  411SOL     OW 1231   0.332   0.144   1.247 -0.1548  0.0812 -0.5039
  411SOL    HW1 1232   0.353   0.150   1.347 -0.2218  3.9386  0.0096
  411SOL    HW2 1233   0.333   0.046   1.219 -1.9150  0.2476 -3.9501
  412SOL     OW 1234   1.850   0.736   1.604 -0.1735  0.0924  0.2799
  412SOL    HW1 1235   1.933   0.685   1.572 -0.0593 -1.0620 -0.7589
  412SOL    HW2 1236   1.792   0.789   1.533 -0.5714  1.7636  2.1248
  413SOL     OW 1237   0.908   0.196   1.866  0.3966 -0.2872 -0.2683
  413SOL    HW1 1238   0.967   0.190   1.948 -1.0894  2.7299  0.1085
  413SOL    HW2 1239   0.833   0.263   1.888 -1.4403 -2.3679  0.3711
  414SOL     OW 1240   2.886   1.575   2.624  0.1690  0.6046  0.4709
  414SOL    HW1 1241   2.963   1.508   2.637 -0.4074 -0.3506 -0.2500
  414SOL    HW2 1242   2.796   1.527   2.624 -2.2388 -1.2067 -1.3490
  415SOL     OW 1243   0.694   2.299   0.165 -0.3549 -0.3927 -0.9379
  415SOL    HW1 1244   0.760   2.342   0.105 -0.7403 -1.8861 -0.6934
  415SOL    HW2 1245   0.717   2.324   0.264 -1.9484  0.4235 -0.8763
  416SOL     OW 1246   1.821   3.038   2.931  0.4072 -0.9071  0.6081
  416SOL    HW1 1247   1.828   3.055   3.034 -1.6348  0.8612 -2.0533
  416SOL    HW2 1248   1.785   0.012   2.877  4.3618 -0.0513  0.6003
  417SOL     OW 1249   0.397   0.281   0.636  0.3195 -0.2572  0.4155
  417SOL    HW1 1250   0.393   0.354   0.711  0.5594 -3.1752  0.9707
  417SOL    HW2 1251   0.343   0.196   0.656  0.2732 -1.0383  2.3451
  418SOL     OW 1252   2.541   2.949   0.999  0.5468 -0.0321 -0.1239
  418SOL    HW1 1253   2.482   2.923   1.083 -3.4474  0.5229  0.5369
  418SOL    HW2 1254   2.628   2.996   1.022  4.8867  2.3090  0.7133
  419SOL     OW 1255   3.063   2.824   0.502  0.4249 -0.2919 -0.5367
  419SOL    HW1 1256   3.020   2.814   0.594 -1.2637  2.5192 -1.9104
  419SOL    HW2 1257   0.054   2.816   0.504 -4.2849  4.0848  0.2673
  420SOL     OW 1258   0.134   1.278   1.719  0.0001 -0.2190 -0.2014
  420SOL    HW1 1259   0.172   1.373   1.736  1.8632  2.3610  1.1727
  420SOL    HW2 1260   0.150   1.249   1.624  1.0368 -0.9298  2.1287
  421SOL     OW 1261   1.467   2.805   0.611 -0.1551 -0.1799  0.0009
  421SOL    HW1 1262   1.429   2.778   0.521  0.8603  0.9184 -1.3698
  421SOL    HW2 1263   1.456   2.902   0.632  0.9499 -2.9008  0.6960
  422SOL     OW 1264   0.667   0.515   1.314 -0.8426  0.0975  0.4432
  422SOL    HW1 1265   0.705   0.503   1.407 -1.7059  0.9744 -1.2268
  422SOL    HW2 1266   0.594   0.447   1.306 -1.9728  1.2975 -2.1203
  423SOL     OW 1267   1.141   1.349   1.565  0.4517 -0.1851  0.0670
  423SOL    HW1 1268   1.067   1.420   1.558 -1.5240 -1.9179  0.5987
  423SOL    HW2 1269   1.161   1.305   1.473 -1.4642  1.5505 -0.3394
  424SOL     OW 1270   1.931   2.130   0.153 -0.4150 -0.0161 -0.1696
  424SOL    HW1 1271   1.893   2.218   0.192 -1.1391 -1.6504 -0.4568
  424SOL    HW2 1272   1.993   2.089   0.224  2.0161  1.2051  0.4895
  425SOL     OW 1273   2.972   0.188   2.048 -0.2912 -0.4696 -0.2901
  425SOL    HW1 1274   2.987   0.105   2.103 -0.3692 -0.1224  0.2223
  425SOL    HW2 1275   2.910   0.157   1.972 -0.4668 -1.2223 -1.5433
  426SOL     OW 1276   0.127   2.664   2.809  0.1861 -0.2997  0.5317
  426SOL    HW1 1277   0.142   2.763   2.794  0.0445 -0.3690 -0.4464
  426SOL    HW2 1278   0.200   2.620   2.860 -1.8845 -0.1240  1.6968
  427SOL     OW 1279   1.252   0.569   2.982 -0.5119  0.3617  0.6672
  427SOL    HW1 1280   1.313   0.629   3.033 -1.5178  1.7237 -1.6409
  427SOL    HW2 1281   1.203   0.513   3.047  0.7995  0.1040 -0.9058
  428SOL     OW 1282   2.863   0.953   1.770 -0.2577 -0.2557  0.2142
  428SOL    HW1 1283   2.816   0.942   1.861 -2.8403 -0.8407  1.1217
  428SOL    HW2 1284   2.793   0.981   1.698  0.1683  0.8351 -1.3575
  429SOL     OW 1285   1.951   2.833   1.336  0.0816 -0.2585 -0.0125
  429SOL    HW1 1286   2.007   2.834   1.418 -1.1831  0.7263 -0.2302
  429SOL    HW2 1287   1.915   2.739   1.329  0.8776  0.1420  1.3566
  430SOL     OW 1288   1.090   1.384   2.692 -0.4552 -0.3286 -0.2281
  430SOL    HW1 1289   1.014   1.380   2.759 -3.2214 -1.0676  0.9511
  430SOL    HW2 1290   1.177   1.406   2.735 -2.1567  1.8963  0.3884
  431SOL     OW 1291   2.780   1.654   1.600  0.3150  0.2952  0.6431
  431SOL    HW1 1292   2.753   1.734   1.657  1.6691  0.9221  1.3256
  431SOL    HW2 1293   2.857   1.664   1.537 -2.3194  0.8735  3.4181
  432SOL     OW 1294   0.989   2.670   2.369 -0.6593 -0.2755 -0.2638
  432SOL    HW1 1295   1.049   2.645   2.448  0.6378  1.7068  2.5710
  432SOL    HW2 1296   0.917   2.602   2.357 -0.2075 -0.3908  3.6890
  433SOL     OW 1297   2.032   0.338   1.984  0.3576  0.1786  0.3944
  433SOL    HW1 1298   2.095   0.265   2.017 -0.6388 -0.6226  1.7387
  433SOL    HW2 1299   1.933   0.327   2.016 -3.8879 -1.1445  0.7358
  434SOL     OW 1300   0.642   2.299   2.444 -0.5879  0.3120  0.0827
  434SOL    HW1 1301   0.645   2.392   2.486 -0.0226  1.9489 -0.3472
  434SOL    HW2 1302   0.662   2.222   2.509  0.3092 -2.1855  2.2771
  435SOL     OW 1303   0.169   3.097   0.218 -0.2491 -0.2623  0.1664
  435SOL    HW1 1304   0.257   0.044   0.204  3.3740 -1.3204 -0.2545
  435SOL    HW2 1305   0.146   3.083   0.319 -1.0627 -2.3734  2.5035
  436SOL     OW 1306   0.582   0.659   1.924  0.2863 -0.2184  0.1089
  436SOL    HW1 1307   0.534   0.739   1.880 -2.3913  1.7015 -0.4601
  436SOL    HW2 1308   0.581   0.675   2.027  0.1369 -2.0220  1.0727
  437SOL     OW 1309   0.610   2.359   2.758 -0.1183  0.2956 -0.2032
  437SOL    HW1 1310   0.626   2.460   2.769  2.3747  2.8168 -1.4189
  437SOL    HW2 1311   0.511   2.334   2.771  0.2469  1.5617 -1.8425
  438SOL     OW 1312   1.019   1.221   1.242 -0.0548  0.1314 -0.1427
  438SOL    HW1 1313   0.998   1.164   1.157 -0.7461 -3.0142 -0.4453
  438SOL    HW2 1314   1.119   1.232   1.262  1.3103  0.1631  0.0116
  439SOL     OW 1315   2.625   1.181   2.325 -0.4488  0.1659 -0.0044
  439SOL    HW1 1316   2.699   1.129   2.369  1.2012  0.2569 -3.5663
  439SOL    HW2 1317   2.534   1.157   2.369 -3.1555  0.4831 -0.6527
  440SOL     OW 1318   0.205   0.678   0.075  0.4861  0.2738 -0.3332
  440SOL    HW1 1319   0.278   0.632   0.018  0.9360  1.4682  0.8492
  440SOL    HW2 1320   0.137   0.720   0.010 -0.7887  0.4937  1.0333
  441SOL     OW 1321   1.088   2.239   1.938  0.3898 -0.1144  0.5306
  441SOL    HW1 1322   1.038   2.306   1.871 -1.8623  2.5226 -1.4895
  441SOL    HW2 1323   1.031   2.152   1.948  0.5781  0.1364  0.4163
  442SOL     OW 1324   2.073   1.809   0.800 -0.2084  0.0466  0.3739
  442SOL    HW1 1325   2.091   1.765   0.893 -1.5417  0.9244  1.2078
  442SOL    HW2 1326   2.160   1.827   0.750 -1.4339  1.2918 -1.2089
  443SOL     OW 1327   2.594   1.837   2.702 -0.4506 -0.3098 -0.3166
  443SOL    HW1 1328   2.675   1.833   2.765 -0.7684  0.4837  2.0406
  443SOL    HW2 1329   2.544   1.924   2.718  0.1606  0.2662 -2.5638
  444SOL     OW 1330   1.846   1.566   2.760  0.2290  0.6199 -0.5247
  444SOL    HW1 1331   1.791   1.623   2.826 -1.4194 -0.2752  2.6716
  444SOL    HW2 1332   1.937   1.601   2.754 -1.9050 -0.1893  1.4696
  445SOL     OW 1333   2.347   2.626   1.967 -0.1389 -0.1512 -0.0279
  445SOL    HW1 1334   2.403   2.685   2.034  0.6249  2.0069  1.8182
  445SOL    HW2 1335   2.384   2.626   1.872  0.7580  1.6780  0.7237
  446SOL     OW 1336   0.913   0.970   1.704 -0.3066 -0.1153 -0.2650
  446SOL    HW1 1337   0.986   0.929   1.644 -1.8805  0.4481  0.0077
  446SOL    HW2 1338   0.890   0.901   1.777 -1.0528 -1.2760 -0.9282
  447SOL     OW 1339   0.922   1.044   1.019 -0.0922 -0.4464  0.3678
  447SOL    HW1 1340   0.977   0.966   1.054  2.0826 -0.5543 -0.5420
  447SOL    HW2 1341   0.837   1.053   1.073  1.0871  1.2615  3.4575
  448SOL     OW 1342   1.222   1.191   2.283 -0.1816 -0.3493  0.1019
  448SOL    HW1 1343   1.132   1.229   2.326 -4.9734  1.4627 -0.1551
  448SOL    HW2 1344   1.215   1.167   2.182  1.6587  0.1611  0.4442
  449SOL     OW 1345   3.095   2.037   2.264 -0.5415  1.0110 -0.2871
  449SOL    HW1 1346   0.046   1.994   2.337 -0.1867 -1.9589 -0.1473
  449SOL    HW2 1347   0.003   1.991   2.171 -0.8466  3.5153 -1.1765
  450SOL     OW 1348   2.254   1.759   2.041  0.5805  0.4754  0.0141
  450SOL    HW1 1349   2.310   1.677   2.042 -0.1648 -2.0658  0.5099
  450SOL    HW2 1350   2.157   1.734   2.056  0.8412  1.5031 -0.9491
  451SOL     OW 1351   2.588   1.544   1.445  0.1558  0.4983 -0.0093
  451SOL    HW1 1352   2.663   1.579   1.501 -2.0544 -1.4931 -0.9544
  451SOL    HW2 1353   2.504   1.518   1.501  2.4788 -0.7494 -0.4245
  452SOL     OW 1354   0.448   1.328   1.544 -0.2898 -0.2440 -0.2873
  452SOL    HW1 1355   0.351   1.311   1.525  2.3992  1.2645  0.3111
  452SOL    HW2 1356   0.499   1.347   1.459  1.3289  2.3273  1.7614
  453SOL     OW 1357   0.548   1.113   0.818  0.1048 -0.3027 -0.4020
  453SOL    HW1 1358   0.482   1.036   0.837 -0.1629  1.9309  0.7273
  453SOL    HW2 1359   0.541   1.182   0.890  0.2918 -1.2591 -2.6939
  454SOL     OW 1360   0.790   1.591   0.417  0.1019  0.3323 -0.3451
  454SOL    HW1 1361   0.808   1.569   0.517  1.2335 -0.2790  0.1440
  454SOL    HW2 1362   0.690   1.587   0.397 -0.5843  1.6923  2.9515
  455SOL     OW 1363   1.813   0.687   1.195  0.1698 -0.3208 -0.1334
  455SOL    HW1 1364   1.763   0.714   1.281  0.2150  1.5219  2.2501
  455SOL    HW2 1365   1.886   0.618   1.217  0.3044 -2.5477  0.3343
  456SOL     OW 1366   1.781   2.812   0.952 -0.0437 -0.3193  0.4609
  456SOL    HW1 1367   1.853   2.786   0.882  2.3279  1.8318 -2.8245
  456SOL    HW2 1368   1.727   2.899   0.922 -1.7167  2.7582 -1.7390
  457SOL     OW 1369   1.841   0.347   2.363 -0.4452 -0.7875 -0.1784
  457SOL    HW1 1370   1.760   0.287   2.365  4.8577  0.1784  0.6950
  457SOL    HW2 1371   1.911   0.306   2.428  5.1737 -0.1147 -0.5142
  458SOL     OW 1372   2.662   0.702   2.844 -0.0718  0.2208 -0.0348
  458SOL    HW1 1373   2.577   0.647   2.833  1.5687 -1.3537 -3.4125
  458SOL    HW2 1374   2.744   0.667   2.797  0.5208  1.0035 -2.3976
  459SOL     OW 1375   0.049   1.656   2.011 -0.0852 -0.3697 -0.3366
  459SOL    HW1 1376   0.148   1.652   2.011 -2.7006 -1.3355 -2.3752
  459SOL    HW2 1377   0.008   1.593   2.084 -0.1333 -0.7993  1.5907
  460SOL     OW 1378   0.441   0.591   3.048 -0.0141 -0.1042 -0.2370
  460SOL    HW1 1379   0.406   0.586   2.950 -1.2763  0.1219  0.9327
  460SOL    HW2 1380   0.514   0.664   3.054  0.1333  2.2702  1.0827
  461SOL     OW 1381   3.043   2.427   0.474 -0.3456 -0.4094 -0.2697
  461SOL    HW1 1382   3.027   2.332   0.443 -0.0025  0.1801  1.9812
  461SOL    HW2 1383   0.036   2.445   0.446  2.6348  1.2816 -1.1995
  462SOL     OW 1384   0.034   2.927   1.594 -0.2801  0.9202  0.2793
  462SOL    HW1 1385   0.129   2.891   1.589  0.0979 -2.0883 -1.6248
  462SOL    HW2 1386   0.027   3.024   1.562 -0.5835  1.5080  0.2272
  463SOL     OW 1387   1.529   2.125   1.855  0.2568 -0.4695  0.3451
  463SOL    HW1 1388   1.567   2.044   1.802  2.0207 -3.0488 -0.4058
  463SOL    HW2 1389   1.586   2.218   1.854  3.9073  5.2008 -1.5030
  464SOL     OW 1390   0.173   2.769   0.782  0.1187 -0.5677 -0.6505
  464SOL    HW1 1391   0.145   2.868   0.779  1.3327  3.0662 -1.4321
  464SOL    HW2 1392   0.273   2.765   0.795 -1.6131  0.3800  0.6950
  465SOL     OW 1393   0.326   0.188   1.534 -0.0674 -0.4428 -0.3069
  465SOL    HW1 1394   0.390   0.165   1.615  2.2728 -2.6836  1.4201
  465SOL    HW2 1395   0.287   0.284   1.541  2.1813  3.9724  1.6248
  466SOL     OW 1396   1.185   2.064   2.484  0.3269 -0.1276  0.6478
  466SOL    HW1 1397   1.225   1.988   2.540 -1.3305 -1.9997  0.8527
  466SOL    HW2 1398   1.119   2.121   2.539  0.9658  1.2635 -0.3414
  467SOL     OW 1399   3.017   1.305   1.014  0.2706 -0.2341 -0.1900
  467SOL    HW1 1400   2.959   1.388   1.016 -1.7609  0.8186  1.3002
  467SOL    HW2 1401   2.974   1.241   0.954  2.3387  1.1441  2.5857
  468SOL     OW 1402   2.438   1.898   2.969  0.3510  0.1475  0.2306
  468SOL    HW1 1403   2.381   1.877   2.890  2.0006 -0.6529  1.0595
  468SOL    HW2 1404   2.411   1.842   3.054 -0.6059  0.6105  3.4464
  469SOL     OW 1405   1.403   2.210   0.712  0.7593 -0.0048  0.1580
  469SOL    HW1 1406   1.415   2.196   0.612  0.0697  1.1348  0.7903
  469SOL    HW2 1407   1.393   2.115   0.758  1.6970 -1.3523 -0.9076
  470SOL     OW 1408   1.948   1.798   1.442  0.3009 -0.1828 -0.0903
  470SOL    HW1 1409   1.918   1.863   1.516 -0.1732  1.0543 -0.5304
  470SOL    HW2 1410   2.045   1.781   1.464  0.7867  0.2549 -0.0428
  471SOL     OW 1411   0.192   2.416   0.346 -0.2952 -0.4749 -0.2160
  471SOL    HW1 1412   0.288   2.443   0.368 -0.4405  1.6966 -0.8167
  471SOL    HW2 1413   0.184   2.315   0.338 -2.3053 -1.1663  0.0598
  472SOL     OW 1414   2.542   1.724   2.319  0.2068  0.0835 -0.6083
  472SOL    HW1 1415   2.623   1.791   2.314  1.2077  0.0056 -1.1960
  472SOL    HW2 1416   2.509   1.691   2.229 -1.6792 -0.5435 -0.6526
  473SOL     OW 1417   1.402   2.510   0.962 -0.1877  0.4184 -0.3637
  473SOL    HW1 1418   1.299   2.496   0.973 -3.2708 -0.2302  0.8192
  473SOL    HW2 1419   1.428   2.601   0.923  1.5968  0.5871 -0.2245
  474SOL     OW 1420   2.969   0.227   1.402  0.2400 -0.2050  0.6525
  474SOL    HW1 1421   2.915   0.247   1.488  0.9856  0.5449  0.7867
  474SOL    HW2 1422   2.924   0.268   1.320  0.4046  1.1557 -1.5356
  475SOL     OW 1423   2.171   2.849   2.041 -0.0185  0.9211  0.1250
  475SOL    HW1 1424   2.231   2.766   2.034  1.5345 -2.2161  0.2260
  475SOL    HW2 1425   2.211   2.926   1.990 -1.1550  2.1384  2.6377
  476SOL     OW 1426   0.422   0.503   0.823  0.4081  0.2838 -0.3484
  476SOL    HW1 1427   0.446   0.448   0.910 -0.7427  1.6013 -0.7800
  476SOL    HW2 1428   0.348   0.567   0.834  1.4576 -2.8697 -1.4569
  477SOL     OW 1429   0.579   2.246   0.865 -1.2140 -0.1857  0.0735
  477SOL    HW1 1430   0.526   2.299   0.937 -0.2872  0.8496  1.6437
  477SOL    HW2 1431   0.563   2.146   0.879 -0.1450  0.9474 -0.3701
  478SOL     OW 1432   0.932   2.425   2.731 -0.2605 -0.4349  0.0220
  478SOL    HW1 1433   0.976   2.386   2.811 -1.7506  1.6551 -1.0891
  478SOL    HW2 1434   0.863   2.493   2.763 -1.6106 -1.4775  0.2577
  479SOL     OW 1435   2.936   1.116   2.027  0.3894 -0.3883  0.3560
  479SOL    HW1 1436   2.846   1.068   2.012 -1.0358  0.0180 -0.6478
  479SOL    HW2 1437   2.956   1.188   1.950 -0.8960  3.6625 -1.7588
  480SOL     OW 1438   0.302   2.526   2.974 -0.5873 -0.5713 -0.6441
  480SOL    HW1 1439   0.219   2.510   3.032 -0.9003 -0.5471 -3.6531
  480SOL    HW2 1440   0.383   2.533   3.037  1.6451  1.2510  0.3856
  481SOL     OW 1441   1.559   2.881   2.326 -0.1908  0.0583 -0.3203
  481SOL    HW1 1442   1.651   2.867   2.370 -0.8103 -0.4894  1.5105
  481SOL    HW2 1443   1.543   2.972   2.288 -3.4060  0.3799 -1.9006
  482SOL     OW 1444   1.802   2.024   3.067  0.1038 -0.4191 -0.2900
  482SOL    HW1 1445   1.856   2.056   0.043 -0.3146  0.5772 -1.2618
  482SOL    HW2 1446   1.804   2.091   2.989 -1.8304 -0.5777  0.7104
  483SOL     OW 1447   1.102   2.548   2.566  0.4988  0.0871  0.3232
  483SOL    HW1 1448   1.193   2.504   2.566 -0.1886  0.8442  0.7366
  483SOL    HW2 1449   1.039   2.508   2.634  1.4089  0.3514 -1.5374
  484SOL     OW 1450   0.535   2.755   1.054 -0.2952  0.5093  0.0594
  484SOL    HW1 1451   0.479   2.810   0.992  3.7380 -1.7985  1.0046
  484SOL    HW2 1452   0.576   2.816   1.119  0.0529  0.2266  0.5865
  485SOL     OW 1453   2.246   0.548   0.648 -0.3376 -0.3172  0.3222
  485SOL    HW1 1454   2.203   0.614   0.589  2.3363 -0.9724  1.1453
  485SOL    HW2 1455   2.189   0.541   0.735  1.3622 -0.0347  1.3232
  486SOL     OW 1456   2.038   2.896   2.264 -0.0641  0.0815  0.5371
  486SOL    HW1 1457   2.050   2.812   2.318 -1.5909 -2.4137  0.0097
  486SOL    HW2 1458   2.086   2.883   2.175  2.0053 -0.8473 -2.0263
  487SOL     OW 1459   1.047   1.757   0.835 -0.1302  0.3726  0.5933
  487SOL    HW1 1460   1.066   1.753   0.738  0.1613  2.0145  3.8963
  487SOL    HW2 1461   1.038   1.855   0.867  0.9787 -0.0441  3.3722
  488SOL     OW 1462   2.059   0.380   0.040 -0.1154  0.2810 -0.4098
  488SOL    HW1 1463   2.039   0.467   0.088  0.4601 -0.3901 -0.4354
  488SOL    HW2 1464   2.005   0.365   3.063 -1.1601 -0.6920 -2.0940
  489SOL     OW 1465   1.959   3.002   0.433  0.1546 -0.0215 -0.4496
  489SOL    HW1 1466   1.912   2.999   0.522 -1.3373 -0.4054  0.8259
  489SOL    HW2 1467   1.989   3.098   0.419 -0.6592 -1.0993 -0.0555
  490SOL     OW 1468   1.473   3.020   2.970  0.4636  0.1204  0.5279
  490SOL    HW1 1469   1.486   0.001   3.018 -0.8124 -0.8685 -0.4929
  490SOL    HW2 1470   1.473   2.938   3.031  1.6169  1.5773  0.2456
  491SOL     OW 1471   0.726   0.035   1.167 -0.0052 -0.3246 -0.2091
  491SOL    HW1 1472   0.757   0.081   1.252  1.3750  3.9146  0.8820
  491SOL    HW2 1473   0.786   0.064   1.095 -2.3693 -1.3819  4.4087
  492SOL     OW 1474   1.866   2.791   0.302 -0.1310  0.5059  0.0345
  492SOL    HW1 1475   1.911   2.866   0.351 -0.3913  1.7123  1.0631
  492SOL    HW2 1476   1.945   2.743   0.254  1.0682 -1.9108 -0.5486
  493SOL     OW 1477   1.260   2.159   2.818  0.2422  0.3199 -0.4497
  493SOL    HW1 1478   1.303   2.130   2.907  1.5794  0.3568  0.8508
  493SOL    HW2 1479   1.213   2.083   2.767  1.9840  0.5445 -0.3154
  494SOL     OW 1480   0.328   1.030   1.169  0.6495  0.6135 -0.0265
  494SOL    HW1 1481   0.356   1.041   1.267  0.5639 -0.8580 -2.7283
  494SOL    HW2 1482   0.406   1.028   1.103 -1.4302  0.2432 -2.9513
  495SOL     OW 1483   2.879   0.521   1.538 -0.5304 -0.2557 -0.0691
  495SOL    HW1 1484   2.951   0.543   1.466  1.8176 -0.2295 -2.0463
  495SOL    HW2 1485   2.881   0.586   1.613  0.2029 -4.5399 -2.3035
  496SOL     OW 1486   2.402   2.369   2.358 -0.3320  0.1206  0.5041
  496SOL    HW1 1487   2.462   2.352   2.277 -2.4536 -2.4534 -0.6740
  496SOL    HW2 1488   2.388   2.469   2.382 -0.7412  2.7564 -1.0017
  497SOL     OW 1489   1.658   1.216   2.564 -0.5472 -0.3118 -0.1793
  497SOL    HW1 1490   1.669   1.114   2.551  0.5176 -0.2816  0.8559
  497SOL    HW2 1491   1.562   1.250   2.545 -0.7272  1.2584  0.8203
  498SOL     OW 1492   0.835   2.207   0.780  0.4361 -0.1075 -0.0834
  498SOL    HW1 1493   0.860   2.275   0.712  4.7224 -1.3142  0.6385
  498SOL    HW2 1494   0.761   2.244   0.838  1.7953  0.3091  0.2635
  499SOL     OW 1495   3.079   1.657   1.022  0.7679  0.6067 -0.3072
  499SOL    HW1 1496   3.032   1.692   0.938  1.5348 -0.2249  0.0768
  499SOL    HW2 1497   0.066   1.626   1.001  0.0249  2.2777  0.1819
  500SOL     OW 1498   1.248   2.528   0.478  0.2057  0.6130 -0.5152
  500SOL    HW1 1499   1.251   2.471   0.392  1.9177  0.9830 -1.0677
  500SOL    HW2 1500   1.260   2.627   0.453 -2.6445  1.4590  0.2343
  501SOL     OW 1501   2.105   2.539   1.102 -0.3587  0.1134  0.1823
  501SOL    HW1 1502   2.052   2.458   1.067  0.0716 -2.6168 -1.1055
  501SOL    HW2 1503   2.118   2.607   1.028 -4.1416 -1.6344 -0.9615
  502SOL     OW 1504   0.323   0.511   1.558  0.7231  0.3955 -0.1122
  502SOL    HW1 1505   0.244   0.543   1.612 -0.2388  0.8503 -3.2794
  502SOL    HW2 1506   0.337   0.577   1.480  2.4153 -1.0666 -0.6424
  503SOL     OW 1507   2.045   0.203   1.618 -0.1928 -0.4170 -0.0997
  503SOL    HW1 1508   1.956   0.195   1.574  0.6843 -0.4411  0.3943
  503SOL    HW2 1509   2.061   0.120   1.675  0.1835  0.2391  0.2771
  504SOL     OW 1510   2.079   0.718   1.831 -0.5189  0.3564 -0.0802
  504SOL    HW1 1511   2.043   0.651   1.763 -1.2676 -1.2875  0.0052
  504SOL    HW2 1512   2.123   0.795   1.783  0.2136  1.7218 -0.1039
  505SOL     OW 1513   1.192   2.918   2.249 -0.0286 -0.3875  0.2681
  505SOL    HW1 1514   1.192   2.819   2.224  0.6985 -1.7321 -0.2180
  505SOL    HW2 1515   1.249   2.941   2.333  1.2404  2.3736  1.2156
  506SOL     OW 1516   0.314   0.311   1.902  0.1573  0.6729  0.2731
  506SOL    HW1 1517   0.374   0.305   1.986  0.3512 -1.2543  1.9738
  506SOL    HW2 1518   0.349   0.245   1.831 -0.6466  1.5700  2.4623
  507SOL     OW 1519   1.485   0.159   3.047 -0.1174  0.1270 -0.2277
  507SOL    HW1 1520   1.413   0.197   0.004 -1.1231  3.9212 -0.4151
  507SOL    HW2 1521   1.574   0.177   3.093 -2.7577  2.2570  1.0142
  508SOL     OW 1522   2.196   0.378   2.238 -0.5934  0.4557 -0.3883
  508SOL    HW1 1523   2.214   0.460   2.177  0.3208 -0.7714  1.3349
  508SOL    HW2 1524   2.126   0.316   2.193 -1.6280 -0.9132 -1.2458
  509SOL     OW 1525   0.743   1.505   2.247  0.2808  0.2647 -0.6910
  509SOL    HW1 1526   0.770   1.432   2.318  0.2795 -0.3289  0.2473
  509SOL    HW2 1527   0.807   1.582   2.252 -0.3579  0.9034  0.4215
  510SOL     OW 1528   3.008   0.495   0.924 -0.5329  0.2672  0.1423
  510SOL    HW1 1529   3.046   0.579   0.871  0.3222  5.1592  1.0659
  510SOL    HW2 1530   2.990   0.527   1.017  0.5792  0.6492  1.4624
  511SOL     OW 1531   1.732   1.453   1.335  0.5329  0.0920  0.1819
  511SOL    HW1 1532   1.697   1.544   1.369 -1.4915 -0.1140 -3.0654
  511SOL    HW2 1533   1.809   1.422   1.396  2.2429 -0.8063 -0.1288
  512SOL     OW 1534   0.398   1.623   0.596  0.0211  0.1639  0.2800
  512SOL    HW1 1535   0.458   1.690   0.637  2.2380  0.1472  0.5488
  512SOL    HW2 1536   0.375   1.552   0.664  3.0272 -0.6321  0.1475
  513SOL     OW 1537   0.519   2.177   1.147  0.6437  0.1789 -0.2794
  513SOL    HW1 1538   0.456   2.098   1.132  2.1539 -0.5150  3.1059
  513SOL    HW2 1539   0.490   2.265   1.103  0.5072  1.1487  1.1116
  514SOL     OW 1540   0.135   2.159   0.394  0.0078 -0.1007 -0.1147
  514SOL    HW1 1541   0.035   2.169   0.406  2.3928  2.4655  0.3723
  514SOL    HW2 1542   0.157   2.069   0.358 -1.0515 -0.2787  0.4344
  515SOL     OW 1543   2.784   3.106   3.089  0.5882 -0.2288 -0.4549
  515SOL    HW1 1544   2.795   3.003   3.083 -1.4405 -0.3899 -0.0717
  515SOL    HW2 1545   2.863   0.036   0.034 -2.1832  0.1009  0.8078
  516SOL     OW 1546   2.004   3.047   1.179  0.5677  0.5443  0.5494
  516SOL    HW1 1547   1.953   0.020   1.210  1.9420 -0.0064 -0.1930
  516SOL    HW2 1548   1.995   2.969   1.241 -1.2742  0.5661 -1.6296
  517SOL     OW 1549   1.622   1.644   0.603  0.4975  0.3871 -0.4029
  517SOL    HW1 1550   1.693   1.675   0.672 -1.7440  0.5892 -0.9199
  517SOL    HW2 1551   1.604   1.543   0.602  0.7954  1.9903  1.5605
  518SOL     OW 1552   1.422   0.435   1.049  0.1537  0.5587  0.0399
  518SOL    HW1 1553   1.329   0.440   1.009  1.8688 -1.1924 -1.2103
  518SOL    HW2 1554   1.493   0.455   0.977  0.1066  2.2368 -0.1971
  519SOL     OW 1555   2.735   2.316   0.141 -0.0332  0.2838  0.0824
  519SOL    HW1 1556   2.697   2.373   0.213  0.2757  2.2659 -0.9552
  519SOL    HW2 1557   2.770   2.365   0.061  0.2152 -1.0591 -0.8856
  520SOL     OW 1558   2.039   1.950   1.847 -0.2508  0.4353 -0.4321
  520SOL    HW1 1559   2.018   1.877   1.913  0.7014 -1.2150  0.7081
  520SOL    HW2 1560   1.966   1.954   1.773 -1.1712 -0.9096 -0.0729
  521SOL     OW 1561   1.481   2.619   2.244  0.2406  0.3196 -0.1393
  521SOL    HW1 1562   1.378   2.619   2.234 -1.1467 -0.3328 -1.0034
  521SOL    HW2 1563   1.514   2.715   2.260  0.4941  0.9404  0.7199
  522SOL     OW 1564   2.799   0.095   1.848 -0.1449 -0.1335  0.0424
  522SOL    HW1 1565   2.813   0.164   1.770  4.5757  0.5060 -1.7816
  522SOL    HW2 1566   2.815   3.106   1.817  1.8899 -1.0143 -1.3849
  523SOL     OW 1567   0.954   2.316   1.557 -0.3160 -0.4191  0.2813
  523SOL    HW1 1568   0.865   2.290   1.528  1.5216 -2.8967  1.0869
  523SOL    HW2 1569   1.002   2.374   1.486  3.8670  0.9281  0.6700
  524SOL     OW 1570   2.358   2.198   2.932 -0.3016 -0.0125  0.0688
  524SOL    HW1 1571   2.382   2.127   2.867  1.2495  1.6783  0.5997
  524SOL    HW2 1572   2.273   2.172   2.984  0.0467  2.3894  0.6597
  525SOL     OW 1573   2.930   1.054   0.043  0.1142  0.0629 -0.4659
  525SOL    HW1 1574   3.016   1.053   3.093  0.8060 -0.5253  0.7372
  525SOL    HW2 1575   2.855   1.009   3.096  0.6463  1.1640 -0.7052
  526SOL     OW 1576   0.844   2.879   0.918 -0.1909  0.0587  0.3032
  526SOL    HW1 1577   0.931   2.928   0.950  3.7570  1.1150  0.9909
  526SOL    HW2 1578   0.774   2.946   0.890  0.9399 -1.5567 -0.4617
  527SOL     OW 1579   2.556   1.361   0.616  0.0206 -0.5127  0.1794
  527SOL    HW1 1580   2.470   1.315   0.650  1.4692 -0.3552  0.8655
  527SOL    HW2 1581   2.529   1.435   0.548  1.6364  2.3620 -2.2349
  528SOL     OW 1582   0.639   0.819   2.551  0.1840  0.6367 -0.0162
  528SOL    HW1 1583   0.708   0.877   2.503  0.4196  0.7854  0.5296
  528SOL    HW2 1584   0.557   0.799   2.490 -1.3545 -0.2975  1.7085
  529SOL     OW 1585   0.765   1.449   3.095 -0.2052  0.0120  0.3666
  529SOL    HW1 1586   0.701   1.518   0.022  0.8553  0.1724  0.2009
  529SOL    HW2 1587   0.720   1.362   0.008 -2.6576 -0.3290 -0.1419
  530SOL     OW 1588   1.427   1.038   1.853 -0.2496 -0.3086  0.1958
  530SOL    HW1 1589   1.517   1.002   1.888 -0.1573  0.5835  2.7735
  530SOL    HW2 1590   1.352   0.975   1.875 -0.0405  1.5683  0.6872
  531SOL     OW 1591   1.365   2.073   3.037 -0.6695  0.0737  0.8452
  531SOL    HW1 1592   1.295   2.009   3.074 -1.5548 -1.7052 -0.6850
  531SOL    HW2 1593   1.452   2.053   3.078 -2.9594 -2.4226  0.4572
  532SOL     OW 1594   2.129   0.936   0.021 -0.0436 -0.0582  0.5070
  532SOL    HW1 1595   2.151   0.849   3.080  1.3491 -1.0665 -2.4893
  532SOL    HW2 1596   2.044   0.974   3.085  1.5200  0.7641 -3.7496
  533SOL     OW 1597   3.032   0.452   2.096 -0.4750  0.6883  0.7827
  533SOL    HW1 1598   3.030   0.352   2.068  2.0226  3.5131 -0.1019
  533SOL    HW2 1599   2.956   0.502   2.047 -0.7791 -0.4130 -2.2504
  534SOL     OW 1600   1.898   3.047   0.090  0.1381 -0.1375  0.2217
  534SOL    HW1 1601   1.900   2.959   0.140  2.6929  0.8904  2.4887
  534SOL    HW2 1602   1.984   3.101   0.118  1.8575  1.2513  1.6076
  535SOL     OW 1603   0.508   0.206   2.771 -0.3472  0.0706  0.0256
  535SOL    HW1 1604   0.493   0.163   2.680 -0.3957 -1.1287 -0.9627
  535SOL    HW2 1605   0.575   0.282   2.760 -0.7942 -0.6636  3.7800
  536SOL     OW 1606   0.767   1.907   1.695 -0.5752 -0.0955 -0.1424
  536SOL    HW1 1607   0.720   1.839   1.628 -2.5345  1.0571  1.2784
  536SOL    HW2 1608   0.852   1.944   1.654  0.5166 -0.0524 -1.2898
  537SOL     OW 1609   2.945   2.728   1.576 -0.6642 -0.6154  0.1665
  537SOL    HW1 1610   3.013   2.807   1.580  2.5272  2.8169 -0.9229
  537SOL    HW2 1611   2.905   2.721   1.483 -1.1081  1.1980  1.5093
  538SOL     OW 1612   2.967   2.165   0.432 -0.1912  0.3606 -0.0743
  538SOL    HW1 1613   2.880   2.144   0.478  0.6392  1.6055 -1.8940
  538SOL    HW2 1614   2.964   2.140   0.336  2.0489 -2.0209  1.6339
  539SOL     OW 1615   2.517   0.880   2.704 -0.0361 -0.0733 -0.7192
  539SOL    HW1 1616   2.559   0.803   2.753 -4.1989 -0.2028 -2.0856
  539SOL    HW2 1617   2.496   0.954   2.770 -1.5686  0.3204 -3.1046
  540SOL     OW 1618   1.957   0.632   3.023  0.2494  0.3757 -0.0494
  540SOL    HW1 1619   1.930   0.694   2.946  1.0261 -0.3732 -2.2746
  540SOL    HW2 1620   1.885   0.559   3.033 -2.3435  0.2328  0.0620
  541SOL     OW 1621   0.898   0.536   2.034 -0.2187  0.2218 -0.7991
  541SOL    HW1 1622   0.877   0.567   2.136 -0.0942  2.6608  3.4355
  541SOL    HW2 1623   0.827   0.469   2.004 -0.4369 -0.6502  2.6771
  542SOL     OW 1624   1.704   2.472   2.274  0.6404 -0.7046  0.2923
  542SOL    HW1 1625   1.610   2.514   2.256 -0.1381  2.4694 -3.4746
  542SOL    HW2 1626   1.752   2.455   2.186 -2.7955 -2.2994 -0.9996
  543SOL     OW 1627   0.867   2.754   0.343 -0.2187  0.4740  0.3200
  543SOL    HW1 1628   0.863   2.839   0.393  0.7554 -2.1150 -0.2127
  543SOL    HW2 1629   0.835   2.759   0.246  0.9266 -1.3466 -2.7544
  544SOL     OW 1630   2.836   1.956   2.047  0.7138  0.4883 -0.1061
  544SOL    HW1 1631   2.937   1.964   2.038 -1.0689  0.5572 -2.6056
  544SOL    HW2 1632   2.814   1.928   2.147 -1.8672  0.1102  1.5660
  545SOL     OW 1633   1.344   2.189   1.522 -0.4071  0.1749 -0.1433
  545SOL    HW1 1634   1.311   2.139   1.607 -2.9405 -0.9777  0.4489
  545SOL    HW2 1635   1.273   2.198   1.452 -2.3157  2.8926  0.9566
  546SOL     OW 1636   0.390   0.055   2.279  0.1586 -0.2145 -0.4443
  546SOL    HW1 1637   0.450   0.055   2.361 -0.0206 -0.2605 -0.0038
  546SOL    HW2 1638   0.297   0.016   2.304  1.0671 -2.1529 -0.0826
  547SOL     OW 1639   1.241   0.324   0.354  0.5012 -0.1719  0.5082
  547SOL    HW1 1640   1.159   0.369   0.311 -2.5333  1.1404 -0.7393
  547SOL    HW2 1641   1.242   0.316   0.455  1.7018 -1.4827 -0.9880
  548SOL     OW 1642   1.579   2.074   0.102  0.3699  0.3086  0.1026
  548SOL    HW1 1643   1.597   2.139   0.182 -1.3405 -2.9359 -2.4552
  548SOL    HW2 1644   1.663   2.053   0.045  1.3335 -0.3724 -0.7318
  549SOL     OW 1645   2.112   1.007   0.385  0.7908 -0.1776  0.3962
  549SOL    HW1 1646   2.084   1.034   0.291 -1.5322  0.7995 -2.4741
  549SOL    HW2 1647   2.196   1.049   0.423  0.3633  1.7838 -2.2276
  550SOL     OW 1648   2.648   2.163   0.394 -0.7868  0.0484  0.0737
  550SOL    HW1 1649   2.555   2.129   0.366 -0.9897  1.3248  0.6227
  550SOL    HW2 1650   2.717   2.162   0.314  2.2677 -1.8293  1.2133
  551SOL     OW 1651   1.340   0.407   1.509 -0.1464 -0.1243 -0.0002
  551SOL    HW1 1652   1.405   0.429   1.431  3.3659 -0.1698 -0.8735
  551SOL    HW2 1653   1.302   0.311   1.500  0.6914 -2.1004  1.1392
  552SOL     OW 1654   0.150   2.159   2.863 -0.6172 -0.0085  0.5740
  552SOL    HW1 1655   0.203   2.099   2.933 -1.1623  0.6991  1.2462
  552SOL    HW2 1656   0.075   2.205   2.913  1.5825  0.6223 -2.3835
  553SOL     OW 1657   2.784   2.759   0.783  0.0906 -0.2143 -0.6449
  553SOL    HW1 1658   2.709   2.702   0.825  2.0384 -0.0068  3.5047
  553SOL    HW2 1659   2.857   2.698   0.746  1.0314 -1.6792 -1.6512
  554SOL     OW 1660   1.919   1.307   1.765  0.5076 -0.3634 -0.4506
  554SOL    HW1 1661   1.895   1.208   1.763  1.8617  1.9683  1.4746
  554SOL    HW2 1662   1.944   1.334   1.669  1.2715 -0.9885 -3.4526
  555SOL     OW 1663   1.348   2.308   2.220  0.3688 -0.3073 -0.3424
  555SOL    HW1 1664   1.384   2.287   2.313  3.0078 -2.4743 -0.7369
  555SOL    HW2 1665   1.247   2.339   2.222 -2.6060  2.8660  0.9412
  556SOL     OW 1666   1.329   1.663   1.902  0.3175 -0.1698  0.0368
  556SOL    HW1 1667   1.310   1.576   1.951 -0.2002  0.1994 -0.9447
  556SOL    HW2 1668   1.427   1.667   1.883 -2.9752  0.7418  2.7770
  557SOL     OW 1669   1.426   0.011   1.739 -0.3883  0.0090  0.0162
  557SOL    HW1 1670   1.468   3.024   1.744 -2.6271  2.6982  2.3095
  557SOL    HW2 1671   1.328   0.013   1.764 -0.7292 -2.6571 -0.8410
  558SOL     OW 1672   0.526   3.062   2.058  0.3685  0.1087  0.5639
  558SOL    HW1 1673   0.456   3.035   1.990  2.6236  0.2284  0.6308
  558SOL    HW2 1674   0.473   3.103   2.131  0.8885 -1.3407 -1.5933
  559SOL     OW 1675   1.684   2.534   0.284 -0.2979  0.1474 -0.0495
  559SOL    HW1 1676   1.708   2.602   0.213  1.4177 -1.5253 -0.7597
  559SOL    HW2 1677   1.682   2.571   0.378 -2.1389  2.1407  0.9419
  560SOL     OW 1678   1.317   2.178   0.442 -0.4308 -0.0031 -0.1004
  560SOL    HW1 1679   1.323   2.075   0.417 -0.0345 -1.4600 -0.3979
  560SOL    HW2 1680   1.282   2.234   0.366 -0.8990  0.7352  0.6063
  561SOL     OW 1681   1.425   0.529   0.304 -0.0107  0.6003  0.5477
  561SOL    HW1 1682   1.506   0.483   0.264  1.1159 -0.2565 -0.9408
  561SOL    HW2 1683   1.354   0.460   0.323  2.1991  1.9302  0.4390
  562SOL     OW 1684   0.610   1.346   1.905  0.5623  0.3605  0.5943
  562SOL    HW1 1685   0.703   1.339   1.944  1.1021 -1.0995 -1.1522
  562SOL    HW2 1686   0.588   1.266   1.845  0.6656  0.0417  1.1847
  563SOL     OW 1687   1.499   2.156   2.657 -0.1255  0.4082  0.0091
  563SOL    HW1 1688   1.422   2.150   2.721  2.1315  0.4169 -1.2091
  563SOL    HW2 1689   1.550   2.064   2.648 -0.0421 -0.0732  0.9826
  564SOL     OW 1690   2.785   0.938   0.886  0.6877 -0.4806 -0.4771
  564SOL    HW1 1691   2.723   0.860   0.869  0.3517 -0.6986  0.6738
  564SOL    HW2 1692   2.769   0.976   0.977 -2.8921 -0.1369  0.8233
  565SOL     OW 1693   0.571   1.232   0.062 -0.2397 -0.3959  0.0871
  565SOL    HW1 1694   0.522   1.181   3.096 -3.9574 -2.1827  1.7646
  565SOL    HW2 1695   0.654   1.183   0.098 -0.5938  1.2975  1.4906
  566SOL     OW 1696   2.464   2.885   2.830 -0.1240 -0.1209 -0.1767
  566SOL    HW1 1697   2.492   2.972   2.881  1.2636  0.1898  1.7955
  566SOL    HW2 1698   2.366   2.865   2.852 -0.9461 -1.1945  1.7200
  567SOL     OW 1699   1.480   1.379   1.350 -0.0471 -0.3570 -0.1185
  567SOL    HW1 1700   1.581   1.390   1.333  2.6459 -0.9053 -1.0842
  567SOL    HW2 1701   1.455   1.412   1.443 -1.5118 -1.3292 -3.3227
  568SOL     OW 1702   1.375   1.039   2.920  0.0668  0.0973 -0.2307
  568SOL    HW1 1703   1.275   1.029   2.896 -1.6457  0.2506 -0.3981
  568SOL    HW2 1704   1.415   1.118   2.873 -1.0452 -3.2458 -3.8233
  569SOL     OW 1705   2.154   2.112   3.073  0.0047 -0.2821 -0.0447
  569SOL    HW1 1706   2.126   2.015   3.066  0.1128 -0.3551  2.6070
  569SOL    HW2 1707   2.117   2.153   0.052  1.8794  0.0531  0.5314
  570SOL     OW 1708   2.859   2.227   2.208  0.1701 -0.4727  0.3730
  570SOL    HW1 1709   2.915   2.273   2.131  0.1768  2.1393 -0.0097
  570SOL    HW2 1710   2.926   2.182   2.273  0.0151 -0.1079  0.9300
  571SOL     OW 1711   2.878   2.005   1.786  0.7006 -0.2784  0.1298
  571SOL    HW1 1712   2.950   1.930   1.775  3.5169 -1.2541 -2.0578
  571SOL    HW2 1713   2.839   2.003   1.883 -2.0037  3.2644  2.8815
  572SOL     OW 1714   1.610   2.253   0.318  0.0665  0.3623 -0.1315
  572SOL    HW1 1715   1.520   2.249   0.364 -1.2194 -1.4586  2.4565
  572SOL    HW2 1716   1.630   2.349   0.294 -1.7815 -1.5129 -1.7959
  573SOL     OW 1717   1.402   1.760   0.714  0.9191 -0.1738 -0.0961
  573SOL    HW1 1718   1.490   1.741   0.667 -4.7523 -2.2001  1.0124
  573SOL    HW2 1719   1.394   1.858   0.748  0.3703  2.0258 -2.1835
  574SOL     OW 1720   1.357   3.047   1.488 -0.2635 -0.0154  0.5326
  574SOL    HW1 1721   1.408   2.962   1.461  1.3511  0.6644  1.3235
  574SOL    HW2 1722   1.390   3.075   1.580 -0.3958 -2.9762 -1.2357
  575SOL     OW 1723   0.681   1.142   1.191  0.2715 -0.2010  0.1584
  575SOL    HW1 1724   0.695   1.048   1.233  1.4828  1.0965  1.2559
  575SOL    HW2 1725   0.711   1.215   1.251  0.4791 -0.3613 -1.0834
  576SOL     OW 1726   2.811   0.310   1.190 -0.0996 -0.4385  0.1301
  576SOL    HW1 1727   2.800   0.267   1.100  0.8951  1.1670  3.8956
  576SOL    HW2 1728   2.746   0.271   1.254 -1.8477  0.8540 -0.5539
  577SOL     OW 1729   1.584   0.583   2.570 -0.4050  0.0526 -0.0571
  577SOL    HW1 1730   1.532   0.509   2.525 -1.9535 -0.2506 -0.7172
  577SOL    HW2 1731   1.651   0.627   2.509 -1.2701 -2.8497 -0.4965
  578SOL     OW 1732   2.091   1.483   2.476  0.6654  0.0843  0.2522
  578SOL    HW1 1733   1.994   1.467   2.449  1.4047  0.1908  0.0145
  578SOL    HW2 1734   2.109   1.584   2.477 -1.1428 -2.0453 -2.0672
  579SOL     OW 1735   0.435   1.622   1.170  0.3642  0.1825  0.0740
  579SOL    HW1 1736   0.361   1.657   1.240 -4.4230 -0.6840  4.5669
  579SOL    HW2 1737   0.400   1.574   1.088  0.5279 -2.0860 -0.2321
  580SOL     OW 1738   1.394   2.326   0.049  0.1688  0.8357 -0.0223
  580SOL    HW1 1739   1.495   2.334   0.063  2.4178 -0.0932  3.0539
  580SOL    HW2 1740   1.382   2.230   0.014  2.0249 -3.9675 -2.5375
  581SOL     OW 1741   0.981   0.897   2.132  0.1815  0.0169  0.1679
  581SOL    HW1 1742   0.958   0.991   2.164  1.7030 -1.8905  0.0431
  581SOL    HW2 1743   0.926   0.884   2.044  0.0403  0.2460 -1.4233
  582SOL     OW 1744   0.552   1.295   1.019 -0.3757  0.1868  0.0605
  582SOL    HW1 1745   0.607   1.246   1.093  2.5955 -0.6830 -0.6927
  582SOL    HW2 1746   0.578   1.391   1.027  1.0498 -0.9829  0.2570
  583SOL     OW 1747   0.846   1.358   2.039 -0.3473  0.0812 -0.0495
  583SOL    HW1 1748   0.897   1.393   1.960 -0.0664  0.8284 -0.2041
  583SOL    HW2 1749   0.837   1.429   2.116  0.5935  2.6353  3.2393
  584SOL     OW 1750   2.167   2.645   0.441  0.3849 -0.1994 -0.8865
  584SOL    HW1 1751   2.066   2.656   0.477 -4.2645 -0.2490  1.9908
  584SOL    HW2 1752   2.212   2.733   0.420 -0.4567  2.1000 -0.3058
  585SOL     OW 1753   1.738   0.488   3.034 -0.1029  0.0318  0.3567
  585SOL    HW1 1754   1.692   0.525   0.015 -2.2353  0.4729  1.4202
  585SOL    HW2 1755   1.683   0.507   2.946  0.3275 -3.3386  0.7513
  586SOL     OW 1756   0.144   1.727   0.567 -0.6685  0.2461  0.2824
  586SOL    HW1 1757   0.072   1.649   0.566 -3.4853  2.0799  1.2460
  586SOL    HW2 1758   0.241   1.697   0.559 -1.7134 -1.4115  0.6209
  587SOL     OW 1759   1.674   1.966   0.717  0.8123  0.1045 -0.7415
  587SOL    HW1 1760   1.705   2.056   0.752  0.4784  1.7891  1.4879
  587SOL    HW2 1761   1.721   1.892   0.773  3.4766 -0.4167  0.7420
  588SOL     OW 1762   0.520   0.359   1.032 -0.5246 -0.6896 -0.2944
  588SOL    HW1 1763   0.469   0.406   1.110  0.1192 -1.3527  0.2420
  588SOL    HW2 1764   0.513   0.259   1.039  1.1810 -3.2624 -0.3723
  589SOL     OW 1765   1.173   0.462   0.954  0.1687  0.3527 -0.0520
  589SOL    HW1 1766   1.094   0.399   0.955 -3.3594 -2.0936  1.3950
  589SOL    HW2 1767   1.146   0.560   0.938 -0.2090 -0.3417  1.2872
  590SOL     OW 1768   1.388   0.997   0.332 -0.3159  0.2234 -1.1151
  590SOL    HW1 1769   1.373   1.097   0.326 -2.7752 -4.7177  0.6582
  590SOL    HW2 1770   1.405   0.970   0.430 -0.6609  0.5894 -1.1141
  591SOL     OW 1771   2.665   2.611   2.489 -0.0858  0.2028  0.0048
  591SOL    HW1 1772   2.638   2.538   2.556  0.2685  0.8548 -1.0070
  591SOL    HW2 1773   2.765   2.621   2.490 -1.0642 -0.9639 -2.8724
  592SOL     OW 1774   1.474   2.029   1.058 -0.3747  0.0557  0.7438
  592SOL    HW1 1775   1.575   2.020   1.070 -0.5942  0.7144 -3.2649
  592SOL    HW2 1776   1.443   2.106   1.117 -2.0444 -0.5783 -1.4798
  593SOL     OW 1777   0.994   0.077   1.061  0.0213  0.6998 -0.5060
  593SOL    HW1 1778   1.050   3.105   1.029 -0.6919 -2.8634  2.5608
  593SOL    HW2 1779   1.052   0.148   1.103 -0.0472  3.0511  0.7769
  594SOL     OW 1780   0.311   0.886   2.140 -0.5510 -0.1722 -0.0607
  594SOL    HW1 1781   0.244   0.960   2.142  1.5546 -1.2084 -0.8321
  594SOL    HW2 1782   0.299   0.821   2.061  0.4912 -2.6092  1.3243
  595SOL     OW 1783   0.255   2.554   1.187 -0.0212 -0.0172  0.0334
  595SOL    HW1 1784   0.244   2.520   1.281  1.1294 -2.5274  1.0399
  595SOL    HW2 1785   0.253   2.657   1.189 -0.7446  1.2605 -1.3781
  596SOL     OW 1786   0.316   0.968   1.435 -0.6369 -0.4918 -0.4706
  596SOL    HW1 1787   0.404   0.917   1.436 -2.6589 -0.1457 -2.6373
  596SOL    HW2 1788   0.249   0.921   1.492 -0.8797  1.1112 -2.4729
  597SOL     OW 1789   2.017   1.977   0.374 -0.0662 -0.2091  0.4400
  597SOL    HW1 1790   1.918   1.987   0.405  0.6895  3.4655 -0.0057
  597SOL    HW2 1791   2.067   1.887   0.398 -0.9423 -0.3848  1.5681
  598SOL     OW 1792   0.447   2.730   1.767 -0.3602  0.5018 -0.0506
  598SOL    HW1 1793   0.532   2.714   1.713 -0.6042 -1.5267  1.0309
  598SOL    HW2 1794   0.450   2.689   1.861  1.7573  0.2131 -1.7880
  599SOL     OW 1795   2.648   2.078   2.968 -0.1600 -0.5909  0.1494
  599SOL    HW1 1796   2.604   1.991   2.994  1.1790 -2.9092  4.4874
  599SOL    HW2 1797   2.745   2.073   3.005  1.5418  0.2351  1.0687
  600SOL     OW 1798   0.650   0.899   0.250 -0.2811  0.6576 -1.0317
  600SOL    HW1 1799   0.709   0.960   0.191  0.6291 -0.5239 -0.8782
  600SOL    HW2 1800   0.705   0.883   0.335  0.3056  0.4310  3.1598
  601SOL     OW 1801   0.845   0.866   0.443 -0.0838 -0.0912 -0.3159
  601SOL    HW1 1802   0.941   0.886   0.466 -1.0910 -1.9750  1.6109
  601SOL    HW2 1803   0.781   0.886   0.517  1.6719  2.1950  2.0656
  602SOL     OW 1804   1.528   2.726   0.870 -0.0949 -0.2788  0.0808
  602SOL    HW1 1805   1.613   2.764   0.902 -3.4290 -1.7550  0.1154
  602SOL    HW2 1806   1.503   2.756   0.776  0.7157  2.7113 -0.5158
  603SOL     OW 1807   0.664   2.833   2.097 -0.0019 -0.1702 -0.0584
  603SOL    HW1 1808   0.606   2.917   2.090  1.2211  1.0272 -0.9226
  603SOL    HW2 1809   0.745   2.844   2.039 -1.6150  0.6434 -0.2433
  604SOL     OW 1810   3.058   3.097   2.201  0.8303 -0.3082  0.3822
  604SOL    HW1 1811   3.066   3.005   2.159  1.8860  1.6157  0.4532
  604SOL    HW2 1812   0.009   3.090   2.283 -0.6796 -1.0663  1.7131
  605SOL     OW 1813   2.647   2.238   1.182  0.8853  0.0965 -0.2404
  605SOL    HW1 1814   2.582   2.304   1.142  1.0320 -2.0464  1.4772
  605SOL    HW2 1815   2.625   2.224   1.280  1.6922 -0.1469  0.5180
  606SOL     OW 1816   0.429   1.472   2.997 -0.3803 -0.4263 -0.3476
  606SOL    HW1 1817   0.477   1.527   3.069  2.0753 -0.9792  0.0626
  606SOL    HW2 1818   0.376   1.535   2.937  1.9741  1.2252  1.3708
  607SOL     OW 1819   0.989   0.407   0.269  0.7284 -0.0929 -0.0388
  607SOL    HW1 1820   0.955   0.500   0.278  0.3624 -0.7110 -0.8038
  607SOL    HW2 1821   0.989   0.368   0.176 -0.6696 -2.1635 -1.0508
  608SOL     OW 1822   1.556   1.040   2.157  0.9956  0.0302 -0.3380
  608SOL    HW1 1823   1.481   1.018   2.221 -0.2088  2.0621 -0.4000
  608SOL    HW2 1824   1.650   1.064   2.198  0.0750  0.8547  0.4719
  609SOL     OW 1825   3.089   0.245   0.892  0.2539  0.5376  0.2457
  609SOL    HW1 1826   0.039   0.234   0.977 -0.0873 -3.1285 -2.0778
  609SOL    HW2 1827   3.054   0.344   0.884  1.6517  0.6138 -1.1531
  610SOL     OW 1828   0.482   2.491   0.114 -0.2621  0.1714 -0.5404
  610SOL    HW1 1829   0.515   2.399   0.142 -1.6880  0.8716  0.9045
  610SOL    HW2 1830   0.437   2.533   0.191 -1.9541  1.3337  0.5255
  611SOL     OW 1831   1.659   1.146   0.253  0.4614 -0.1271  0.3885
  611SOL    HW1 1832   1.748   1.124   0.206 -1.5754  1.3317  1.7068
  611SOL    HW2 1833   1.580   1.129   0.190 -1.2600  0.4830  1.6983
  612SOL     OW 1834   0.986   2.163   2.622  0.6668 -0.2376  0.1361
  612SOL    HW1 1835   0.904   2.106   2.611 -1.8369  0.6819  2.2650
  612SOL    HW2 1836   0.949   2.256   2.653 -0.4141  1.7894 -2.0177
  613SOL     OW 1837   1.030   2.266   2.939  0.1399  0.0682  0.1228
  613SOL    HW1 1838   1.112   2.224   2.890  0.7427 -0.5768 -2.4263
  613SOL    HW2 1839   0.956   2.201   2.954  2.9689 -0.6355  1.8657
  614SOL     OW 1840   2.678   2.953   1.310 -0.4058  0.2384  0.1786
  614SOL    HW1 1841   2.715   2.988   1.222 -0.2191 -1.0963  1.2178
  614SOL    HW2 1842   2.744   2.906   1.375 -1.5844  1.6689 -1.0055
  615SOL     OW 1843   2.129   1.329   3.080 -0.0540  0.3967  0.1955
  615SOL    HW1 1844   2.054   1.372   3.026  2.2875  0.5706 -1.5053
  615SOL    HW2 1845   2.219   1.370   3.059 -0.6104 -2.8303 -1.2628
  616SOL     OW 1846   1.542   0.048   0.425  0.6888 -0.7363 -0.0299
  616SOL    HW1 1847   1.501   0.091   0.345  2.5977 -0.3196  0.9468
  616SOL    HW2 1848   1.606   0.108   0.479 -0.6099 -0.0961 -0.4891
  617SOL     OW 1849   0.788   1.087   0.143  0.1226 -0.0527 -0.3052
  617SOL    HW1 1850   0.838   1.109   0.053  4.3802  3.8921 -1.3211
  617SOL    HW2 1851   0.849   1.125   0.219  3.2517  1.5226 -0.2747
  618SOL     OW 1852   0.698   0.351   1.940  0.0345 -0.0465  0.1679
  618SOL    HW1 1853   0.661   0.338   2.034  1.7912 -0.3287  0.1941
  618SOL    HW2 1854   0.632   0.394   1.880  1.5924 -1.0089  0.3406
  619SOL     OW 1855   0.214   1.214   1.453 -0.2568  0.0674 -0.3046
  619SOL    HW1 1856   0.155   1.244   1.376  1.9769  1.1681  0.4881
  619SOL    HW2 1857   0.264   1.125   1.442  1.5455 -2.5463 -0.8930
  620SOL     OW 1858   1.927   1.009   2.987  0.4479 -0.1782 -0.3072
  620SOL    HW1 1859   1.941   1.089   2.931  1.3488  1.4721  3.4340
  620SOL    HW2 1860   1.897   0.929   2.931  4.4157  1.0382 -1.7449
  621SOL     OW 1861   2.348   2.884   1.195  0.4462 -0.0447  0.0516
  621SOL    HW1 1862   2.301   2.944   1.261 -1.4022  2.5864 -1.0811
  621SOL    HW2 1863   2.378   2.798   1.249  0.0819 -2.3427  1.6797
  622SOL     OW 1864   1.362   0.749   2.612  0.1205 -0.5319  0.0989
  622SOL    HW1 1865   1.458   0.718   2.607 -4.3982  0.4194  0.7308
  622SOL    HW2 1866   1.298   0.676   2.647  2.7781 -1.7883  0.0149
  623SOL     OW 1867   1.073   0.393   3.106  0.2005  0.6848  0.3101
  623SOL    HW1 1868   1.017   0.372   3.023 -0.3676  0.4830  3.6810
  623SOL    HW2 1869   1.149   0.327   0.009  0.4419  0.1682 -0.8161
  624SOL     OW 1870   1.722   0.448   0.354  0.4658 -0.2398 -0.4622
  624SOL    HW1 1871   1.765   0.500   0.428 -0.2960 -1.6286 -0.9658
  624SOL    HW2 1872   1.700   0.354   0.389  0.1389 -0.3340 -0.5064
  625SOL     OW 1873   0.748   1.535   0.983 -0.1446  0.2096  0.2768
  625SOL    HW1 1874   0.847   1.512   0.980 -0.5949 -1.2512 -0.4341
  625SOL    HW2 1875   0.724   1.628   1.003  0.6315 -1.5022  0.6233
  626SOL     OW 1876   1.458   1.090   0.064 -0.0662  0.3738 -0.0759
  626SOL    HW1 1877   1.392   1.146   0.114  0.8710 -1.6387 -0.0111
  626SOL    HW2 1878   1.413   1.048   3.083 -3.5367 -2.4542 -0.4711
  627SOL     OW 1879   0.882   2.877   1.914  0.1154  0.0759  0.7076
  627SOL    HW1 1880   0.920   2.872   1.820 -2.2412  0.8727  0.9937
  627SOL    HW2 1881   0.943   2.926   1.974  1.4425 -2.1913 -0.7944
  628SOL     OW 1882   2.496   0.280   2.127 -0.0984 -0.7975 -0.3296
  628SOL    HW1 1883   2.583   0.330   2.154  2.5389  0.8721 -0.4107
  628SOL    HW2 1884   2.441   0.252   2.212 -2.7098  1.9317  0.8836
  629SOL     OW 1885   0.949   1.107   3.016 -0.0013 -0.1313 -0.6595
  629SOL    HW1 1886   1.017   1.039   2.975 -1.1768  1.6649  0.7474
  629SOL    HW2 1887   0.880   1.144   2.948 -1.8839  1.3129 -3.3695
  630SOL     OW 1888   1.211   0.220   2.336  0.0979  0.0514 -0.3336
  630SOL    HW1 1889   1.158   0.311   2.345  0.1176  0.7058  0.6490
  630SOL    HW2 1890   1.202   0.165   2.420 -0.9736  0.6765  1.2932
  631SOL     OW 1891   2.688   0.702   0.521  0.1486  0.5069 -0.1754
  631SOL    HW1 1892   2.717   0.641   0.598  0.2575 -0.9628  2.0907
  631SOL    HW2 1893   2.740   0.789   0.520 -1.6375 -3.4179 -1.4713
  632SOL     OW 1894   2.177   0.997   1.144  0.7627 -0.6694 -0.2672
  632SOL    HW1 1895   2.080   0.985   1.119  1.9612  1.2544 -0.3801
  632SOL    HW2 1896   2.233   0.974   1.064 -2.3226  1.6591  2.3860
  633SOL     OW 1897   1.840   0.641   0.928  0.0925 -0.2866 -0.6816
  633SOL    HW1 1898   1.809   0.719   0.868 -0.6171 -0.7965  2.6857
  633SOL    HW2 1899   1.831   0.666   1.032 -0.9194  0.0015  2.8010
  634SOL     OW 1900   1.864   2.964   0.706 -0.0033 -0.3036  0.0724
  634SOL    HW1 1901   1.924   3.011   0.771 -1.5379 -2.2390  1.5255
  634SOL    HW2 1902   1.766   2.997   0.725  1.1223  1.2789 -0.4439
  635SOL     OW 1903   1.675   0.811   1.416 -0.5459  0.1568  0.1053
  635SOL    HW1 1904   1.584   0.755   1.403 -0.6470 -1.7902  1.1522
  635SOL    HW2 1905   1.658   0.909   1.439 -1.0651 -0.1797 -1.2396
  636SOL     OW 1906   0.602   0.634   0.645  0.7288 -0.1940 -0.5454
  636SOL    HW1 1907   0.541   0.597   0.719 -0.3769 -1.0992 -0.5987
  636SOL    HW2 1908   0.674   0.568   0.625 -1.7290  2.1155  1.7780
  637SOL     OW 1909   1.904   2.342   0.322 -0.3486  0.0736 -0.2040
  637SOL    HW1 1910   1.840   2.417   0.304 -2.9087  0.1465 -1.9988
  637SOL    HW2 1911   1.907   2.300   0.414 -0.8703 -1.0492 -2.2941
  638SOL     OW 1912   1.451   2.875   2.747  0.4575  0.7842  0.1508
  638SOL    HW1 1913   1.466   2.934   2.830 -3.1794 -0.3311 -0.1912
  638SOL    HW2 1914   1.503   2.787   2.744 -0.3567 -0.9266 -1.3614
  639SOL     OW 1915   0.751   2.081   1.271  0.0006  0.2299  0.3652
  639SOL    HW1 1916   0.681   2.115   1.203 -0.3432 -1.3357  1.0703
  639SOL    HW2 1917   0.752   2.130   1.362 -0.6469  1.0883 -1.1148
  640SOL     OW 1918   0.149   2.913   0.045 -0.3455  0.1909 -0.6722
  640SOL    HW1 1919   0.055   2.874   0.038  2.1738  0.9286  2.5943
  640SOL    HW2 1920   0.163   2.977   0.120  2.0144 -1.2436  2.4309
  641SOL     OW 1921   0.098   0.370   3.082  0.3626 -0.1183  0.2487
  641SOL    HW1 1922   0.076   0.357   0.074 -0.0024 -1.2324  0.5789
  641SOL    HW2 1923   0.182   0.312   3.055  1.3485  0.6763 -0.9662
  642SOL     OW 1924   3.059   1.008   1.250  0.3593 -0.1013  0.2754
  642SOL    HW1 1925   2.962   0.992   1.226  3.5603  0.0970 -2.0325
  642SOL    HW2 1926   3.102   1.094   1.209  2.7731 -0.3733 -0.1871
  643SOL     OW 1927   0.686   1.842   2.139 -0.3154 -0.6844  0.7035
  643SOL    HW1 1928   0.738   1.838   2.222  1.8869 -1.6208 -2.7354
  643SOL    HW2 1929   0.746   1.818   2.057  1.5721 -0.4454 -0.3678
  644SOL     OW 1930   1.673   2.602   0.556  0.1918 -0.1109 -0.0453
  644SOL    HW1 1931   1.696   2.522   0.614  1.9952  1.5759  1.3626
  644SOL    HW2 1932   1.609   2.659   0.613  1.6882  1.0094  0.4598
  645SOL     OW 1933   1.645   2.401   1.281 -0.3041 -0.3186 -0.0225
  645SOL    HW1 1934   1.691   2.355   1.358 -1.7567  0.5253 -1.2946
  645SOL    HW2 1935   1.627   2.501   1.297 -1.6642  1.2355  1.7171
  646SOL     OW 1936   1.047   2.551   0.246 -0.7060 -0.0267  0.1835
  646SOL    HW1 1937   1.114   2.618   0.209  4.1028  0.8659  2.7098
  646SOL    HW2 1938   0.992   2.599   0.312  0.4703  1.9528 -1.0448
  647SOL     OW 1939   0.384   2.996   1.816  0.3194 -0.1886  0.1235
  647SOL    HW1 1940   0.282   2.986   1.814 -1.3961 -0.5735 -0.4972
  647SOL    HW2 1941   0.422   2.906   1.797  2.5136  2.0530  2.0419
  648SOL     OW 1942   1.902   0.967   1.180  0.2113  0.2032 -0.1093
  648SOL    HW1 1943   1.842   0.884   1.178  0.4646 -3.6802  0.6547
  648SOL    HW2 1944   1.872   1.026   1.104 -0.1575 -1.9752  1.8762
  649SOL     OW 1945   1.827   2.226   2.920 -0.2495  0.8569  0.0378
  649SOL    HW1 1946   1.925   2.263   2.919  2.4453 -0.7881  0.8109
  649SOL    HW2 1947   1.790   2.232   2.828  1.6946 -0.6754  1.3490
  650SOL     OW 1948   2.640   1.925   1.657 -0.2088  0.2076 -0.1662
  650SOL    HW1 1949   2.725   1.966   1.697  0.0372  1.9638  0.4960
  650SOL    HW2 1950   2.578   1.885   1.727  0.1036 -1.3267 -0.6601
  651SOL     OW 1951   1.533   1.763   2.746 -0.6622  0.7619 -0.4340
  651SOL    HW1 1952   1.582   1.764   2.838 -0.6481 -0.4417  2.1044
  651SOL    HW2 1953   1.595   1.805   2.677  0.5075  0.0346  1.8763
  652SOL     OW 1954   0.990   2.882   2.793  0.1197  0.0600  0.1724
  652SOL    HW1 1955   1.052   2.803   2.771 -1.6405 -3.2700  1.8373
  652SOL    HW2 1956   1.039   2.961   2.830  0.9867 -0.9128 -0.0154
  653SOL     OW 1957   1.990   2.324   1.000 -0.8053 -0.2836  0.1821
  653SOL    HW1 1958   2.033   2.251   0.946 -1.5145 -1.9019  1.8672
  653SOL    HW2 1959   1.897   2.299   1.035 -1.6520 -0.1001 -0.5761
  654SOL     OW 1960   2.490   2.783   2.136 -0.1785 -0.6584  0.4142
  654SOL    HW1 1961   2.570   2.737   2.180  0.3990 -0.5998  0.5245
  654SOL    HW2 1962   2.472   2.880   2.170 -3.0991  0.1721  0.3969
  655SOL     OW 1963   2.841   2.047   1.180  1.0570  0.2441  0.1457
  655SOL    HW1 1964   2.911   2.104   1.127  0.9164  1.3769 -2.0552
  655SOL    HW2 1965   2.770   2.116   1.211 -0.2495  1.1655 -0.3172
  656SOL     OW 1966   0.078   2.182   2.604  0.1931 -0.1329 -0.2903
  656SOL    HW1 1967   0.156   2.195   2.537  0.9054 -1.6665  2.0447
  656SOL    HW2 1968   0.120   2.164   2.699  2.3817 -0.6044  4.2034
  657SOL     OW 1969   2.837   0.919   0.458  0.5888 -0.9234  0.2223
  657SOL    HW1 1970   2.859   0.853   0.383 -1.1097 -0.7924  0.5342
  657SOL    HW2 1971   2.788   1.000   0.413  0.5946 -1.4468 -3.6885
  658SOL     OW 1972   1.495   1.781   1.172  0.1461 -0.1868  0.8994
  658SOL    HW1 1973   1.455   1.764   1.265 -0.4151 -3.0013  0.2592
  658SOL    HW2 1974   1.469   1.877   1.141 -0.7861  0.8834  0.8701
  659SOL     OW 1975   1.505   0.471   1.304  0.2100  0.1812 -0.1106
  659SOL    HW1 1976   1.591   0.420   1.323  1.5165 -1.9640 -1.8093
  659SOL    HW2 1977   1.483   0.482   1.207 -0.3455  0.0560  0.1952
  660SOL     OW 1978   1.897   1.285   0.585 -0.5240 -0.4780 -0.7330
  660SOL    HW1 1979   1.916   1.185   0.575  0.0226  0.5499  1.0397
  660SOL    HW2 1980   1.800   1.309   0.591 -1.4019 -0.0586  2.1952
  661SOL     OW 1981   0.512   1.573   0.367 -0.3587  0.4012  0.5571
  661SOL    HW1 1982   0.489   1.480   0.329  0.6255  0.6602  0.6009
  661SOL    HW2 1983   0.461   1.583   0.458  1.5029 -1.6467 -1.3857
  662SOL     OW 1984   2.708   0.969   1.997  0.6783  0.8387  0.4405
  662SOL    HW1 1985   2.692   0.892   2.071 -1.1160 -3.2120  0.9825
  662SOL    HW2 1986   2.629   1.032   1.993  2.0722 -1.7573 -0.7696
  663SOL     OW 1987   2.177   1.436   1.333 -0.1496  0.1314 -0.0233
  663SOL    HW1 1988   2.225   1.514   1.283  2.1779 -0.4013  2.3751
  663SOL    HW2 1989   2.234   1.396   1.410 -0.7790  0.0656  2.2168
  664SOL     OW 1990   0.514   0.095   1.019 -0.1844 -0.1131  0.2990
  664SOL    HW1 1991   0.431   0.037   1.040  0.9255 -1.9150  2.4987
  664SOL    HW2 1992   0.586   0.075   1.086 -2.3125 -0.0321  0.2443
  665SOL     OW 1993   1.215   3.073   2.835  0.1503  0.1922 -0.3876
  665SOL    HW1 1994   1.293   3.010   2.822  0.0830  1.1418  1.7737
  665SOL    HW2 1995   1.220   3.100   2.933 -1.8897 -1.2307  2.0994
  666SOL     OW 1996   0.524   0.486   2.358 -0.0276  0.5106  0.2693
  666SOL    HW1 1997   0.528   0.561   2.290  1.1593  0.0599  0.9046
  666SOL    HW2 1998   0.575   0.514   2.441 -0.0698 -0.1279  0.4287
  667SOL     OW 1999   2.068   1.467   2.121  0.5458  0.0336  0.1601
  667SOL    HW1 2000   2.102   1.475   2.026  0.0907 -0.3849  0.1845
  667SOL    HW2 2001   2.147   1.432   2.175 -1.7680 -1.5655  0.7105
  668SOL     OW 2002   0.154   1.344   2.497  0.5716  0.4812  0.0381
  668SOL    HW1 2003   0.075   1.385   2.549 -1.0622  3.7915  1.4551
  668SOL    HW2 2004   0.213   1.416   2.449 -0.0293  1.0822  1.6316
  669SOL     OW 2005   2.488   0.025   2.435 -0.1216 -1.1132  0.2801
  669SOL    HW1 2006   2.544   3.053   2.457  1.0761  3.0267 -0.0176
  669SOL    HW2 2007   2.481   0.082   2.518  2.5721  1.6881  0.8493
  670SOL     OW 2008   2.747   0.909   2.496  0.6214 -0.4124 -0.4809
  670SOL    HW1 2009   2.822   0.839   2.481 -2.9291 -2.2689  1.7745
  670SOL    HW2 2010   2.673   0.873   2.560 -2.4083  0.1060  1.2970
  671SOL     OW 2011   2.786   1.941   0.070 -0.6662 -0.2649  0.0856
  671SOL    HW1 2012   2.835   1.852   0.054  0.5518 -1.5422  1.8175
  671SOL    HW2 2013   2.695   1.926   0.104  3.9120  0.5273  1.1445
  672SOL     OW 2014   2.377   1.524   2.058 -0.0557  0.0239  0.1084
  672SOL    HW1 2015   2.349   1.488   2.148  3.0606 -0.4644 -0.7134
  672SOL    HW2 2016   2.434   1.456   2.011 -0.0393  0.8917  0.9998
  673SOL     OW 2017   2.848   1.498   1.061  0.2331  0.3188 -0.1427
  673SOL    HW1 2018   2.776   1.493   0.991 -1.8784  0.9981  0.7338
  673SOL    HW2 2019   2.880   1.591   1.066  3.8551 -0.5210 -1.3837
  674SOL     OW 2020   1.241   1.860   2.111 -0.4858  0.7929  1.1142
  674SOL    HW1 2021   1.295   1.945   2.087  3.7482 -0.8818 -1.4729
  674SOL    HW2 2022   1.252   1.788   2.039  1.1379  1.0775 -1.7963
  675SOL     OW 2023   2.892   0.582   1.161 -0.3000 -0.2598  0.4246
  675SOL    HW1 2024   2.939   0.613   1.245 -4.9232 -1.5653 -0.3974
  675SOL    HW2 2025   2.832   0.505   1.182  3.2034  1.8272  1.1050
  676SOL     OW 2026   2.864   1.202   0.781  0.6949  0.0949 -0.2781
  676SOL    HW1 2027   2.804   1.204   0.701  0.6448  2.2480 -1.0937
  676SOL    HW2 2028   2.849   1.113   0.831  0.2630 -1.7049  1.1796
  677SOL     OW 2029   1.570   1.607   2.134  0.2340 -0.0781  0.0755
  677SOL    HW1 2030   1.669   1.577   2.159  1.7358 -0.9331  0.9930
  677SOL    HW2 2031   1.502   1.530   2.152 -1.2916  0.8010 -2.7239
  678SOL     OW 2032   2.572   1.201   0.989  0.2568  0.0632 -0.6675
  678SOL    HW1 2033   2.628   1.246   0.915  0.1829 -1.9318 -0.4060
  678SOL    HW2 2034   2.509   1.268   1.042 -0.7599  0.0634 -1.1752
  679SOL     OW 2035   0.451   2.563   0.641  0.4054  0.8120  0.1229
  679SOL    HW1 2036   0.517   2.575   0.713 -3.2018  1.4226 -1.3561
  679SOL    HW2 2037   0.378   2.494   0.669 -1.3295  1.4584 -2.1300
  680SOL     OW 2038   2.758   1.775   1.063 -0.2119 -0.1170 -0.2820
  680SOL    HW1 2039   2.777   1.774   0.963 -2.6485 -1.2478 -0.5294
  680SOL    HW2 2040   2.784   1.868   1.100  1.5652 -0.8024  0.3715
  681SOL     OW 2041   0.971   0.746   1.336  0.7138  0.2070  0.0059
  681SOL    HW1 2042   1.017   0.784   1.417  1.4839 -2.4801  1.2118
  681SOL    HW2 2043   0.872   0.730   1.350  2.2690  1.1014 -0.4420
  682SOL     OW 2044   1.608   3.013   0.813  0.4014 -1.0235  0.4113
  682SOL    HW1 2045   1.622   3.093   0.875  1.4416 -1.0181 -2.9586
  682SOL    HW2 2046   1.516   3.022   0.766 -0.2334 -0.3569 -2.3023
  683SOL     OW 2047   2.326   1.358   1.560  0.0624 -0.7394  0.0921
  683SOL    HW1 2048   2.300   1.435   1.623  1.3921  4.5547  0.9492
  683SOL    HW2 2049   2.411   1.316   1.592 -0.6203 -1.9687 -1.0326
  684SOL     OW 2050   0.188   1.678   1.595 -0.2743 -0.6472  0.4544
  684SOL    HW1 2051   0.091   1.700   1.621  0.0564  0.3087  0.2486
  684SOL    HW2 2052   0.227   1.613   1.667 -2.0835 -3.0164  1.7912
  685SOL     OW 2053   2.078   1.730   0.153 -0.1647 -0.1496 -0.1306
  685SOL    HW1 2054   2.100   1.731   0.250 -1.7843  1.0721  0.4501
  685SOL    HW2 2055   1.980   1.702   0.141  1.6165  2.2801 -0.5137
  686SOL     OW 2056   2.808   0.184   0.938 -0.1959 -0.4755 -0.3293
  686SOL    HW1 2057   2.907   0.193   0.905  3.0106 -1.2440 -1.3426
  686SOL    HW2 2058   2.745   0.229   0.871 -0.2672  2.2481 -1.2487
  687SOL     OW 2059   1.565   0.021   2.584 -0.4878 -0.5512  0.8075
  687SOL    HW1 2060   1.516   3.042   2.608 -0.9981 -1.5656  0.2772
  687SOL    HW2 2061   1.642   0.040   2.644 -2.1791 -1.0740 -0.9122
  688SOL     OW 2062   1.503   1.991   2.313  0.3730 -0.6332  0.7850
  688SOL    HW1 2063   1.443   1.939   2.374  0.9238 -2.1988 -0.6284
  688SOL    HW2 2064   1.448   2.017   2.225 -1.9037  0.9154 -1.6075
  689SOL     OW 2065   2.660   1.425   1.903  0.0537  0.4217 -0.1190
  689SOL    HW1 2066   2.695   1.518   1.929 -1.6817 -0.5925 -1.3661
  689SOL    HW2 2067   2.687   1.387   1.814 -0.5478 -1.0821 -0.4954
  690SOL     OW 2068   1.726   1.934   1.130  0.1555 -0.3096  0.3592
  690SOL    HW1 2069   1.658   1.866   1.165  2.8522  0.5041 -2.5136
  690SOL    HW2 2070   1.820   1.888   1.141  2.0593 -0.8030  0.6463
  691SOL     OW 2071   0.326   1.401   0.766  0.1113  0.6188  0.6272
  691SOL    HW1 2072   0.411   1.366   0.728 -2.1395 -1.9410 -4.3852
  691SOL    HW2 2073   0.276   1.334   0.824 -1.1862  0.3453 -3.1815
  692SOL     OW 2074   2.457   3.050   2.179  0.2499 -0.6098 -0.5313
  692SOL    HW1 2075   2.494   3.089   2.098 -2.1822 -2.3088  4.2719
  692SOL    HW2 2076   2.488   3.102   2.259 -0.9608  1.1391 -2.0313
  693SOL     OW 2077   0.107   1.390   2.152 -0.2495  0.3896  0.0813
  693SOL    HW1 2078   0.022   1.350   2.194 -2.8464 -1.8385  1.4887
  693SOL    HW2 2079   0.164   1.441   2.215 -2.8974 -1.3865 -2.8695
  694SOL     OW 2080   2.318   3.074   1.444 -0.1196  0.1616 -0.0901
  694SOL    HW1 2081   2.243   3.062   1.506  0.7540 -1.4015 -1.8905
  694SOL    HW2 2082   2.412   3.066   1.487  0.1646 -0.0283 -1.2322
  695SOL     OW 2083   1.116   0.944   2.871  0.7387  0.0120  0.8795
  695SOL    HW1 2084   1.062   0.868   2.900 -0.8926  2.6460 -0.8973
  695SOL    HW2 2085   1.123   0.942   2.771 -0.1784  1.9309 -0.7959
  696SOL     OW 2086   1.719   0.170   2.024 -0.2125 -0.7869 -0.2452
  696SOL    HW1 2087   1.703   0.258   2.072 -0.9571  1.0981  2.6670
  696SOL    HW2 2088   1.665   0.164   1.938  1.6832  0.3296  0.6434
  697SOL     OW 2089   1.562   0.015   2.171  0.6735 -0.3270 -0.0631
  697SOL    HW1 2090   1.581   0.076   2.256  3.9409 -0.4311  2.2584
  697SOL    HW2 2091   1.625   0.041   2.098  0.8848  0.0238  1.8732
  698SOL     OW 2092   1.827   1.533   2.235  0.3662 -1.0165  0.0867
  698SOL    HW1 2093   1.826   1.506   2.330  1.0389 -1.6583 -1.6425
  698SOL    HW2 2094   1.916   1.492   2.198  0.4084  0.5445 -0.1766
  699SOL     OW 2095   2.014   0.614   0.209  0.2122 -0.4820 -0.6303
  699SOL    HW1 2096   1.988   0.690   0.149  1.0481  1.4143 -0.6152
  699SOL    HW2 2097   1.956   0.609   0.295  0.9119  2.3074 -1.6565
  700SOL     OW 2098   1.265   0.222   0.085 -0.4098  0.1972 -0.3790
  700SOL    HW1 2099   1.237   0.226   0.182  0.3722  1.3263 -1.1368
  700SOL    HW2 2100   1.208   0.154   0.036 -1.3828  0.1369  0.4796
  701SOL     OW 2101   0.110   0.490   1.175  0.2165 -0.1249  0.3679
  701SOL    HW1 2102   0.113   0.391   1.145 -0.8792  0.5626 -1.5679
  701SOL    HW2 2103   0.124   0.556   1.094 -1.3942 -2.2108  0.9648
  702SOL     OW 2104   1.791   0.142   1.549  0.2257  0.0683  0.0151
  702SOL    HW1 2105   1.721   0.145   1.621 -0.2959 -1.3525 -1.2349
  702SOL    HW2 2106   1.793   0.055   1.495 -0.3326 -0.3131 -0.1329
  703SOL     OW 2107   2.811   0.969   1.411 -0.5190 -0.7685 -0.3306
  703SOL    HW1 2108   2.834   0.874   1.416 -2.1683 -0.2075 -0.9963
  703SOL    HW2 2109   2.727   0.985   1.355 -2.3204 -0.6896 -0.4860
  704SOL     OW 2110   0.718   2.441   1.227  0.4609  0.4713  0.6051
  704SOL    HW1 2111   0.723   2.539   1.250  0.0668 -0.6835 -0.7900
  704SOL    HW2 2112   0.656   2.425   1.154  0.8533 -0.6509  0.1287
  705SOL     OW 2113   0.284   1.513   2.323  0.3124 -0.0382  0.1161
  705SOL    HW1 2114   0.370   1.465   2.297 -1.1836  0.7716  0.4539
  705SOL    HW2 2115   0.309   1.609   2.352  0.5085  0.1058 -1.4886
  706SOL     OW 2116   2.627   0.275   0.106  0.4071 -0.1550 -0.4747
  706SOL    HW1 2117   2.531   0.305   0.105 -2.6459  2.6361 -0.3034
  706SOL    HW2 2118   2.645   0.208   0.033 -0.9018  2.7575 -1.4110
  707SOL     OW 2119   1.753   2.623   2.490  0.3211 -0.0996 -0.4204
  707SOL    HW1 2120   1.797   2.714   2.471  3.1413 -1.5232  1.3308
  707SOL    HW2 2121   1.735   2.571   2.401 -0.7778 -2.8829  0.5988
  708SOL     OW 2122   0.346   2.323   1.778  0.0450 -0.1704  0.4720
  708SOL    HW1 2123   0.371   2.408   1.831 -0.9623 -0.0568  0.2378
  708SOL    HW2 2124   0.247   2.329   1.748 -1.6057  0.9423 -2.2828
  709SOL     OW 2125   0.212   0.833   1.853 -0.4823 -0.0270 -0.2673
  709SOL    HW1 2126   0.133   0.897   1.843 -1.1522 -0.0212  0.8651
  709SOL    HW2 2127   0.180   0.761   1.912 -1.7869  2.3041 -1.4685
  710SOL     OW 2128   3.068   0.605   1.378 -0.3788  0.1217  0.0256
  710SOL    HW1 2129   0.024   0.550   1.325 -0.0972  3.1428 -0.1559
  710SOL    HW2 2130   0.005   0.685   1.416  0.7337 -0.7232 -0.2275
  711SOL     OW 2131   2.928   2.581   1.050 -0.0227  0.0496 -0.0497
  711SOL    HW1 2132   2.907   2.501   1.110 -1.7819 -2.0167  2.0493
  711SOL    HW2 2133   3.004   2.561   0.987 -0.9629  1.7272 -2.9364
  712SOL     OW 2134   0.144   3.071   2.392  0.2012 -0.5940 -0.2469
  712SOL    HW1 2135   0.171   2.979   2.424 -1.3489 -1.9916  0.0616
  712SOL    HW2 2136   0.136   0.029   2.470  3.0659 -0.2654  0.6148
  713SOL     OW 2137   2.478   0.211   0.493 -0.0876  0.2461 -0.2671
  713SOL    HW1 2138   2.385   0.242   0.461 -0.8263 -0.3903 -1.2984
  713SOL    HW2 2139   2.548   0.271   0.450 -0.8653  2.1042  1.8600
  714SOL     OW 2140   1.799   1.676   0.131  0.1760  0.2820  0.1787
  714SOL    HW1 2141   1.736   1.730   0.188 -2.0167  0.4720  1.0319
  714SOL    HW2 2142   1.782   1.575   0.151  2.5001 -3.8689  1.2632
  715SOL     OW 2143   0.108   0.165   0.657  0.4296 -0.4639 -0.0912
  715SOL    HW1 2144   0.040   0.125   0.593  0.8789  2.3781 -1.6771
  715SOL    HW2 2145   0.057   0.219   0.727 -1.5189 -0.5322 -0.8967
  716SOL     OW 2146   1.154   0.578   1.991  0.1516 -0.0995 -0.8043
  716SOL    HW1 2147   1.210   0.497   1.969 -1.9285 -0.5335 -2.3453
  716SOL    HW2 2148   1.060   0.549   2.014  4.0732 -0.6363  1.2357
  717SOL     OW 2149   0.637   0.444   2.842  0.0846  0.3212  0.2792
  717SOL    HW1 2150   0.553   0.502   2.836 -0.3848 -0.2224 -1.8003
  717SOL    HW2 2151   0.649   0.422   2.942  1.3003  1.7024 -0.7061
  718SOL     OW 2152   1.072   0.781   0.104  0.1270  0.4158 -0.4302
  718SOL    HW1 2153   1.072   0.872   0.151 -0.0439  1.4371  0.3788
  718SOL    HW2 2154   1.163   0.735   0.113 -1.2537  1.6907 -2.8754
  719SOL     OW 2155   2.605   2.382   2.613  0.6112 -0.1488 -0.0280
  719SOL    HW1 2156   2.667   2.355   2.686  0.9747 -1.5289 -1.6434
  719SOL    HW2 2157   2.515   2.343   2.629  0.7271  1.1718 -0.3294
  720SOL     OW 2158   1.409   0.702   1.424  0.1958 -0.3491 -0.1459
  720SOL    HW1 2159   1.391   0.675   1.523  0.9765 -1.4909  1.8182
  720SOL    HW2 2160   1.431   0.623   1.365  1.4640  2.0271  0.0348
  721SOL     OW 2161   3.058   2.832   1.087  0.1371  0.5677 -0.2147
  721SOL    HW1 2162   3.097   2.894   1.015  3.8679 -2.7377 -0.5208
  721SOL    HW2 2163   3.006   2.756   1.045  0.8455 -1.2928 -1.1961
  722SOL     OW 2164   0.934   1.495   2.882 -0.0897 -0.6569  0.1677
  722SOL    HW1 2165   0.891   1.454   2.964  0.0403 -1.2782 -0.7498
  722SOL    HW2 2166   1.012   1.549   2.915  1.1192 -0.8913 -0.8371
  723SOL     OW 2167   2.226   0.118   0.946 -0.3341  0.8405 -0.0112
  723SOL    HW1 2168   2.235   0.084   1.042  0.0755 -1.1777  1.9930
  723SOL    HW2 2169   2.297   0.071   0.891  0.1725  0.9579 -3.4988
  724SOL     OW 2170   0.706   2.033   0.089  0.4208  0.3693  0.5191
  724SOL    HW1 2171   0.724   1.957   0.152  0.9437 -0.6054 -2.7312
  724SOL    HW2 2172   0.693   2.128   0.130 -1.1968  1.3675  2.6120
  725SOL     OW 2173   0.157   0.817   1.182  0.3475 -0.0779 -0.1669
  725SOL    HW1 2174   0.075   0.866   1.214 -3.0503  0.5847 -0.7529
  725SOL    HW2 2175   0.238   0.882   1.183 -1.6300  0.0983  2.9971
  726SOL     OW 2176   2.567   0.636   0.285  0.0124  0.5709 -0.6602
  726SOL    HW1 2177   2.614   0.668   0.369 -1.4911 -1.4944 -2.1853
  726SOL    HW2 2178   2.608   0.682   0.198  0.8977  3.7390 -2.1701
  727SOL     OW 2179   1.810   1.106   2.311 -0.3906 -0.1717  0.1053
  727SOL    HW1 2180   1.799   1.204   2.330  0.4441 -1.5317 -1.7595
  727SOL    HW2 2181   1.852   1.062   2.395 -0.8316 -0.8204  3.1960
  728SOL     OW 2182   1.749   3.022   1.396  0.1471  0.2348 -0.3454
  728SOL    HW1 2183   1.812   2.942   1.365  0.9631 -2.7695 -1.0188
  728SOL    HW2 2184   1.662   2.974   1.421  0.3123 -1.3760 -1.4865
  729SOL     OW 2185   2.327   0.803   2.256  0.0099  0.0673 -0.1209
  729SOL    HW1 2186   2.391   0.766   2.325  1.1718  2.8922 -2.0639
  729SOL    HW2 2187   2.279   0.883   2.298 -0.2487 -3.2872 -1.8604
  730SOL     OW 2188   1.132   0.834   1.595 -0.5085  0.7901 -0.7662
  730SOL    HW1 2189   1.163   0.733   1.591  3.2911 -1.0121  2.8509
  730SOL    HW2 2190   1.209   0.893   1.571 -0.5516 -0.6460 -0.9833
  731SOL     OW 2191   0.547   0.382   0.051 -0.7389 -0.0994  0.4297
  731SOL    HW1 2192   0.589   0.424   0.134  1.6363  0.8457 -1.1270
  731SOL    HW2 2193   0.493   0.455   0.005  2.0489 -1.4685  0.0290
  732SOL     OW 2194   0.378   0.370   0.381 -0.2546 -0.1686  0.2188
  732SOL    HW1 2195   0.418   0.462   0.372  1.3319  0.2323  1.1785
  732SOL    HW2 2196   0.400   0.326   0.472 -1.2282 -1.2051 -0.0186
  733SOL     OW 2197   1.810   1.439   2.502 -0.3532  0.6990 -0.2793
  733SOL    HW1 2198   1.744   1.363   2.488  4.9536  2.1547 -2.1320
  733SOL    HW2 2199   1.806   1.480   2.595 -1.5156  0.7362 -0.6929
  734SOL     OW 2200   0.086   1.848   2.511  0.1670 -0.6565  0.3302
  734SOL    HW1 2201   0.153   1.806   2.450 -0.7108 -1.3311 -3.0069
  734SOL    HW2 2202   0.115   1.849   2.609 -2.1097 -1.5546  0.2454
  735SOL     OW 2203   1.992   0.485   1.267  0.3347  0.3545  0.1084
  735SOL    HW1 2204   2.048   0.442   1.193 -0.1717 -0.1100 -1.1287
  735SOL    HW2 2205   2.044   0.523   1.345 -0.1130 -3.9404 -0.2902
  736SOL     OW 2206   1.709   1.785   2.973 -0.0390  0.3297  0.3537
  736SOL    HW1 2207   1.724   1.727   3.053 -1.6297  0.3641  0.6912
  736SOL    HW2 2208   1.758   1.877   2.983 -2.0125  1.0470  1.9828
  737SOL     OW 2209   0.101   0.360   0.443  0.5022 -0.1588 -0.7910
  737SOL    HW1 2210   0.189   0.369   0.390  0.0843 -2.9774  1.3811
  737SOL    HW2 2211   0.110   0.290   0.518  0.9943 -1.2050  1.9403
  738SOL     OW 2212   0.574   2.063   1.767  0.2799 -0.5379 -0.1765
  738SOL    HW1 2213   0.563   2.142   1.705  1.1075 -2.2310 -2.8822
  738SOL    HW2 2214   0.658   2.009   1.737  0.8616  0.0098 -0.1400
  739SOL     OW 2215   1.212   2.626   2.215  0.9343 -0.0283  0.6274
  739SOL    HW1 2216   1.182   2.533   2.179  0.2991 -1.4376 -1.2564
  739SOL    HW2 2217   1.145   2.657   2.282 -0.5705  1.2419 -1.8372
  740SOL     OW 2218   1.908   2.438   1.589 -0.0529 -0.4049 -0.3163
  740SOL    HW1 2219   1.872   2.350   1.563  1.0659  3.5189 -1.3682
  740SOL    HW2 2220   1.976   2.425   1.664 -2.5499 -0.8631 -0.5484
  741SOL     OW 2221   2.334   0.657   0.176 -0.2564  0.3257  0.0994
  741SOL    HW1 2222   2.424   0.631   0.221  2.0320  0.6901 -1.8703
  741SOL    HW2 2223   2.291   0.735   0.219  0.1614 -1.6426  0.3401
  742SOL     OW 2224   0.897   2.426   0.013  0.2283  0.2464  1.0981
  742SOL    HW1 2225   0.957   2.372   3.059  0.5762  2.4264  1.4726
  742SOL    HW2 2226   0.952   2.479   0.080 -2.8016  0.8928 -2.3898
  743SOL     OW 2227   2.397   0.990   2.073 -0.0529 -0.0650  0.2096
  743SOL    HW1 2228   2.375   0.919   2.148  0.6232 -0.7728  0.9865
  743SOL    HW2 2229   2.437   1.071   2.113 -2.6679 -2.1690 -0.7238
  744SOL     OW 2230   2.795   0.516   0.732 -0.0517  0.3598 -0.3687
  744SOL    HW1 2231   2.865   0.492   0.664  1.4349 -0.2960  0.3475
  744SOL    HW2 2232   2.831   0.502   0.827  3.7563 -0.3061  0.5257
  745SOL     OW 2233   2.561   1.236   1.619  0.6616 -0.7312  0.7069
  745SOL    HW1 2234   2.579   1.140   1.648  0.6018 -0.6438  1.1412
  745SOL    HW2 2235   2.645   1.293   1.615  2.5871  1.3055 -3.4994
  746SOL     OW 2236   1.448   1.353   0.924  0.2899 -0.4274 -0.2467
  746SOL    HW1 2237   1.434   1.453   0.945 -1.1424  2.7560 -0.4841
  746SOL    HW2 2238   1.359   1.307   0.905  0.3813 -0.6455 -1.6167
  747SOL     OW 2239   1.279   1.812   1.678  0.0284 -0.0073 -0.6871
  747SOL    HW1 2240   1.286   1.910   1.719  1.3051  2.4618  0.7029
  747SOL    HW2 2241   1.263   1.743   1.755 -3.3007  0.5639  0.9244
  748SOL     OW 2242   0.321   3.061   2.993 -0.3404  0.5362  0.2998
  748SOL    HW1 2243   0.421   3.045   3.015 -1.6839 -0.8280 -0.4111
  748SOL    HW2 2244   0.257   3.011   3.055  0.9721  0.1081 -0.0828
  749SOL     OW 2245   0.336   1.194   2.622  0.4033  0.3840  0.0432
  749SOL    HW1 2246   0.405   1.166   2.556  0.9948  4.7899  1.3311
  749SOL    HW2 2247   0.254   1.248   2.588  0.7395 -0.1805  0.8282
  750SOL     OW 2248   1.894   0.768   2.024 -0.0988  0.2321 -0.0077
  750SOL    HW1 2249   1.965   0.752   1.950 -1.0231 -2.0054 -0.2584
  750SOL    HW2 2250   1.899   0.690   2.086 -0.8047 -1.9011  1.0082
  751SOL     OW 2251   2.647   0.365   0.362  0.4792  0.5123  0.3356
  751SOL    HW1 2252   2.649   0.310   0.277  1.1017  0.3993  2.0530
  751SOL    HW2 2253   2.629   0.459   0.329  1.3633 -1.1568 -3.1055
  752SOL     OW 2254   0.161   2.375   1.009  0.9438  0.0181  0.1822
  752SOL    HW1 2255   0.113   2.288   1.041  0.1978  0.4498  0.7358
  752SOL    HW2 2256   0.198   2.432   1.084 -0.3749  1.4530  3.4450
  753SOL     OW 2257   0.997   2.654   1.214  0.0486  0.5283 -0.3248
  753SOL    HW1 2258   1.016   2.573   1.270 -1.1375  0.7076  1.4109
  753SOL    HW2 2259   0.997   2.633   1.117  0.7491  1.5554  2.6957
  754SOL     OW 2260   0.109   2.981   1.858  0.6379 -0.2882  0.1963
  754SOL    HW1 2261   0.114   3.083   1.893 -0.0012  1.5440 -0.6435
  754SOL    HW2 2262   0.047   2.960   1.776 -2.3004  0.0419 -3.9814
  755SOL     OW 2263   2.259   0.385   0.441  0.1378  0.4337  0.5457
  755SOL    HW1 2264   2.316   0.424   0.366  0.5362 -1.8392 -0.0694
  755SOL    HW2 2265   2.261   0.442   0.526 -1.7550 -1.0676 -2.0772
  756SOL     OW 2266   2.337   2.547   2.665 -0.1988  0.0448 -0.6311
  756SOL    HW1 2267   2.259   2.597   2.708 -1.3224 -0.3586 -0.1620
  756SOL    HW2 2268   2.356   2.580   2.568  0.2844  0.2105 -0.7052
  757SOL     OW 2269   1.738   0.230   0.518  0.2330 -0.1033  0.2934
  757SOL    HW1 2270   1.815   0.214   0.451  1.1913 -0.1016  0.5974
  757SOL    HW2 2271   1.767   0.302   0.582 -1.0071 -2.3692  0.3697
  758SOL     OW 2272   2.295   0.539   1.268  0.2158  0.1977 -0.3193
  758SOL    HW1 2273   2.367   0.495   1.332  0.7740 -0.1328  3.0194
  758SOL    HW2 2274   2.254   0.462   1.216  1.0454  0.1293 -1.3668
  759SOL     OW 2275   2.442   0.481   1.022 -0.2146 -0.1614 -0.1803
  759SOL    HW1 2276   2.475   0.548   1.088 -0.2606  1.7961 -1.5529
  759SOL    HW2 2277   2.477   0.489   0.931 -1.7304 -1.7917  2.3883
  760SOL     OW 2278   2.093   1.282   1.149  0.2096 -0.2228 -0.4575
  760SOL    HW1 2279   2.134   1.348   1.214 -2.3777  0.9412  0.3581
  760SOL    HW2 2280   2.116   1.181   1.163 -0.8081  0.0399  1.2380
  761SOL     OW 2281   0.657   0.538   0.241 -0.3300  0.0308 -0.4415
  761SOL    HW1 2282   0.728   0.604   0.218 -3.0353 -4.0469  0.7961
  761SOL    HW2 2283   0.577   0.578   0.289  2.0017  0.0470 -0.8352
  762SOL     OW 2284   1.067   2.077   0.902  0.3726  0.4835 -0.0033
  762SOL    HW1 2285   1.045   2.063   1.002 -1.8612 -0.3568  1.1527
  762SOL    HW2 2286   0.981   2.127   0.854 -4.3709  1.2148  1.5886
  763SOL     OW 2287   1.351   0.980   1.598  0.1732 -0.0196  0.2151
  763SOL    HW1 2288   1.435   0.972   1.542  1.6973 -2.3342 -1.1050
  763SOL    HW2 2289   1.370   1.023   1.689  1.3364 -0.9754  1.2405
  764SOL     OW 2290   0.334   1.629   2.802  0.3265 -0.2457 -0.6396
  764SOL    HW1 2291   0.239   1.674   2.807  0.8966 -1.2814  0.6609
  764SOL    HW2 2292   0.410   1.691   2.803  0.6224 -2.8615  2.0038
  765SOL     OW 2293   0.684   2.703   1.608  0.4623  0.1121  0.1952
  765SOL    HW1 2294   0.678   2.660   1.516 -0.5279  3.2793  0.4525
  765SOL    HW2 2295   0.701   2.803   1.597 -0.0093  0.6670 -0.0836
  766SOL     OW 2296   2.731   2.143   2.458  0.5696  0.1684 -0.5525
  766SOL    HW1 2297   2.677   2.212   2.512 -0.6861  0.0203 -1.7524
  766SOL    HW2 2298   2.745   2.173   2.361 -1.2129  0.6570  0.1351
  767SOL     OW 2299   1.369   0.963   2.342  0.2815 -0.1655  0.0100
  767SOL    HW1 2300   1.297   0.893   2.353  1.2682  1.7320  0.7843
  767SOL    HW2 2301   1.337   1.055   2.354  3.4038  0.0571  0.7825
  768SOL     OW 2302   1.418   1.925   0.315 -0.1118  0.1390  0.6966
  768SOL    HW1 2303   1.478   1.843   0.325 -1.3986 -0.6138  2.0905
  768SOL    HW2 2304   1.450   1.978   0.239 -1.8552 -0.9031  1.2799
  769SOL     OW 2305   0.419   1.930   1.435  0.4274 -0.4877  0.0159
  769SOL    HW1 2306   0.398   2.025   1.405 -2.0297  2.4886 -0.1246
  769SOL    HW2 2307   0.356   1.859   1.392  0.1292 -0.4287  0.5858
  770SOL     OW 2308   1.568   0.870   2.812 -0.2798 -0.1244 -0.8353
  770SOL    HW1 2309   1.495   0.918   2.864 -1.1698  1.2783 -0.9081
  770SOL    HW2 2310   1.562   0.906   2.717  1.9541  0.5475  3.5972
  771SOL     OW 2311   0.017   2.855   2.087  0.1724 -0.2673 -0.1456
  771SOL    HW1 2312   0.088   2.813   2.147  0.7151 -0.5344  1.4785
  771SOL    HW2 2313   0.065   2.883   2.001  1.3396 -0.6327  0.7570
  772SOL     OW 2314   2.291   2.016   1.779  0.3920 -0.3405  0.4305
  772SOL    HW1 2315   2.346   2.035   1.864 -1.8144 -0.2704  2.5968
  772SOL    HW2 2316   2.194   1.990   1.803 -0.5902 -2.0541  0.0960
  773SOL     OW 2317   0.627   1.726   1.522 -0.0883  1.1037 -0.0200
  773SOL    HW1 2318   0.615   1.649   1.587 -0.7171  0.5104  1.4733
  773SOL    HW2 2319   0.533   1.762   1.504  3.9315 -0.4386  2.6845
  774SOL     OW 2320   1.225   0.550   2.731  0.6381  0.1706  0.2829
  774SOL    HW1 2321   1.246   0.467   2.677  0.4559 -1.4040  2.4243
  774SOL    HW2 2322   1.246   0.536   2.830 -1.6338 -0.4945 -0.6479
  775SOL     OW 2323   1.872   2.767   2.903  0.1540 -0.2311  0.8134
  775SOL    HW1 2324   1.855   2.868   2.925 -2.6344  0.7968 -0.0673
  775SOL    HW2 2325   1.802   2.728   2.834 -0.2410 -1.1251 -1.5547
  776SOL     OW 2326   0.188   0.570   1.999 -0.5939 -0.5539 -0.4275
  776SOL    HW1 2327   0.107   0.525   2.035  1.0264 -0.1600 -0.4501
  776SOL    HW2 2328   0.251   0.502   1.955  0.9390  1.2053 -0.1267
  777SOL     OW 2329   2.379   2.002   2.048 -0.9140  0.0353 -0.0730
  777SOL    HW1 2330   2.320   1.918   2.039 -0.4335 -1.0535  1.1388
  777SOL    HW2 2331   2.358   2.061   2.129  0.2502 -1.6771 -2.8156
  778SOL     OW 2332   2.001   0.985   2.143 -0.0991  0.5236  0.6740
  778SOL    HW1 2333   1.937   1.045   2.191  1.2836 -1.3946  0.9865
  778SOL    HW2 2334   1.957   0.903   2.104 -1.7519 -0.8489 -1.6051
  779SOL     OW 2335   2.485   1.184   0.250 -0.2487  0.0344 -0.2139
  779SOL    HW1 2336   2.541   1.273   0.237 -0.4497  0.4053  0.6898
  779SOL    HW2 2337   2.441   1.150   0.163  1.0885 -0.9287 -0.8163
  780SOL     OW 2338   2.751   0.336   2.652  0.0054 -0.2188  0.1058
  780SOL    HW1 2339   2.800   0.428   2.651  1.3754  0.1167 -1.6965
  780SOL    HW2 2340   2.777   0.290   2.741  1.0869 -0.0700  3.5529
  781SOL     OW 2341   0.241   2.074   1.663 -0.1949 -0.1561  0.5484
  781SOL    HW1 2342   0.316   2.135   1.692 -2.4247  0.3393 -1.0185
  781SOL    HW2 2343   0.267   2.005   1.592  0.8987 -1.0573  0.1599
  782SOL     OW 2344   2.414   2.481   2.904 -0.2459  0.2271 -0.1841
  782SOL    HW1 2345   2.386   2.506   2.808 -2.1161  0.3798 -1.5383
  782SOL    HW2 2346   2.387   2.383   2.929 -1.8247 -1.6095  1.2723
  783SOL     OW 2347   0.545   1.415   1.315  0.2056  0.2803  0.1254
  783SOL    HW1 2348   0.644   1.401   1.341  1.5284  2.7953  2.6977
  783SOL    HW2 2349   0.541   1.491   1.249 -1.2668 -0.5728  1.2184
  784SOL     OW 2350   1.826   0.812   2.835 -0.2308 -0.4679  0.0642
  784SOL    HW1 2351   1.859   0.784   2.743 -1.5197 -1.6998 -1.7487
  784SOL    HW2 2352   1.726   0.825   2.827  2.9052 -2.8862 -0.4422
  785SOL     OW 2353   2.397   2.633   0.648  0.3136  0.1252  0.6243
  785SOL    HW1 2354   2.464   2.563   0.616 -2.3777  0.7236 -1.2144
  785SOL    HW2 2355   2.304   2.594   0.633 -0.1913  2.0346 -1.0426
  786SOL     OW 2356   0.773   2.066   2.332 -0.2876  0.3027  0.2566
  786SOL    HW1 2357   0.694   2.074   2.268  0.1863  2.6680  1.3135
  786SOL    HW2 2358   0.862   2.056   2.282 -3.1441  0.6050  1.8459
  787SOL     OW 2359   1.348   0.949   1.240  0.0475 -0.1638  0.2468
  787SOL    HW1 2360   1.354   0.883   1.316  1.6865  1.3248 -2.3619
  787SOL    HW2 2361   1.427   0.933   1.171  2.7511  1.0869  0.2364
  788SOL     OW 2362   0.219   0.658   0.582  0.1371 -0.4769  0.1308
  788SOL    HW1 2363   0.251   0.752   0.561 -0.9799  1.6191  0.7954
  788SOL    HW2 2364   0.182   0.624   0.496 -0.5403  2.7743  1.3572
  789SOL     OW 2365   3.016   1.954   1.375 -0.1632 -0.2456 -0.3866
  789SOL    HW1 2366   2.946   1.969   1.302 -1.1611 -0.0847  0.4832
  789SOL    HW2 2367   3.040   2.042   1.420 -2.3110 -1.3053  1.2107
  790SOL     OW 2368   1.250   0.834   1.957 -0.0221  0.3757  0.3956
  790SOL    HW1 2369   1.239   0.730   1.958  0.4414 -2.0107  1.5032
  790SOL    HW2 2370   1.206   0.875   2.033  1.7702 -0.7063 -0.1298
  791SOL     OW 2371   1.481   0.657   0.545 -0.4409 -0.1147 -0.2800
  791SOL    HW1 2372   1.440   0.613   0.463 -0.3797 -0.0448  1.1190
  791SOL    HW2 2373   1.498   0.589   0.620 -2.8409 -0.7472  1.0111
  792SOL     OW 2374   1.487   2.853   1.781  0.0180  0.1192  0.2181
  792SOL    HW1 2375   1.425   2.833   1.862 -1.9191  0.5047  1.0698
  792SOL    HW2 2376   1.498   2.778   1.712 -2.4208  1.4759  0.5944
  793SOL     OW 2377   0.905   0.113   0.559 -0.4821  0.1264  0.3669
  793SOL    HW1 2378   0.986   0.179   0.572  2.1256  2.6837  0.2927
  793SOL    HW2 2379   0.819   0.166   0.585 -1.4655 -0.8256  3.3654
  794SOL     OW 2380   0.790   1.124   2.185 -0.1327  0.4522  0.1558
  794SOL    HW1 2381   0.697   1.120   2.150 -0.0426 -0.0058 -1.9231
  794SOL    HW2 2382   0.837   1.202   2.137 -2.1999  1.0033 -1.9814
  795SOL     OW 2383   0.392   2.022   2.359 -0.0322  0.0905 -0.1321
  795SOL    HW1 2384   0.449   2.046   2.279  0.9474 -0.9360 -0.6300
  795SOL    HW2 2385   0.364   2.106   2.408 -0.6561 -2.5010 -2.5920
  796SOL     OW 2386   2.543   1.238   2.091  0.0158 -0.3323  0.1412
  796SOL    HW1 2387   2.572   1.218   2.186  0.4177  1.4272 -1.4931
  796SOL    HW2 2388   2.611   1.289   2.035  0.1046 -0.4705  0.6124
  797SOL     OW 2389   3.007   2.542   2.873  0.3533 -0.3177 -0.3281
  797SOL    HW1 2390   3.083   2.603   2.838 -2.5903 -1.5068 -0.2495
  797SOL    HW2 2391   2.969   2.486   2.792 -1.7146 -2.0900 -0.3935
  798SOL     OW 2392   0.042   2.303   2.222  0.2931  0.0132  0.1422
  798SOL    HW1 2393   0.134   2.310   2.184 -3.0878 -2.2199  1.0258
  798SOL    HW2 2394   0.021   2.202   2.241 -0.5656 -0.2864  0.4935
  799SOL     OW 2395   0.355   2.319   2.792  0.3560  0.6167  0.3035
  799SOL    HW1 2396   0.345   2.396   2.857  0.2188 -0.9143  1.4123
  799SOL    HW2 2397   0.277   2.250   2.809 -3.2928 -3.0855  2.6749
  800SOL     OW 2398   1.159   1.622   0.181 -0.2360  0.4995 -0.0119
  800SOL    HW1 2399   1.078   1.563   0.208 -1.5468  0.6817  1.0900
  800SOL    HW2 2400   1.241   1.585   0.233  1.3494  2.0895  3.2638
  801SOL     OW 2401   1.951   1.368   1.455  0.2097 -0.4788 -0.0683
  801SOL    HW1 2402   1.922   1.277   1.421  3.3953  5.1123  1.1053
  801SOL    HW2 2403   2.046   1.392   1.421 -0.0611 -1.1713  1.0271
  802SOL     OW 2404   3.036   1.258   0.200  0.0041  0.3600 -0.5251
  802SOL    HW1 2405   3.020   1.273   0.298  0.4073 -0.2558  1.4482
  802SOL    HW2 2406   3.015   1.165   0.165 -1.1885 -2.7073  4.9669
  803SOL     OW 2407   1.315   1.873   2.608 -0.0490 -0.8780 -0.0879
  803SOL    HW1 2408   1.406   1.860   2.642 -0.0852  1.1469  0.9414
  803SOL    HW2 2409   1.267   1.783   2.606  0.9289 -2.0949 -1.0175
  804SOL     OW 2410   1.753   1.389   0.187  0.1419  0.3042  0.1642
  804SOL    HW1 2411   1.725   1.306   0.238 -1.0982 -1.0618 -0.0836
  804SOL    HW2 2412   1.854   1.388   0.187  0.1135  0.9153  0.4086
  805SOL     OW 2413   2.482   1.635   2.575 -0.4971  0.2817 -0.3845
  805SOL    HW1 2414   2.499   1.663   2.481  0.2076  2.9355  0.3571
  805SOL    HW2 2415   2.507   1.709   2.644 -1.5554 -0.4754  3.7608
  806SOL     OW 2416   0.452   2.975   0.512  0.2919  0.4046  0.7441
  806SOL    HW1 2417   0.507   3.026   0.442  1.4551 -3.0578 -3.9700
  806SOL    HW2 2418   0.514   2.932   0.578 -5.3446 -0.1079 -0.7616
  807SOL     OW 2419   1.886   1.337   2.926 -0.2316 -0.0729 -0.3742
  807SOL    HW1 2420   1.877   1.421   2.875  0.2156 -0.1045  1.9352
  807SOL    HW2 2421   1.793   1.311   2.965 -3.3951 -1.1523 -0.0034
  808SOL     OW 2422   3.105   1.483   0.510 -0.7973 -0.0010  0.2114
  808SOL    HW1 2423   3.103   1.383   0.511 -0.7169  1.5900  2.3507
  808SOL    HW2 2424   3.031   1.515   0.447 -0.5090  0.2825 -0.3625
  809SOL     OW 2425   2.331   1.127   3.103 -0.3448  0.2418  0.3400
  809SOL    HW1 2426   2.276   1.042   3.098 -1.3145 -0.2404  1.1468
  809SOL    HW2 2427   2.266   1.209   0.004 -1.4852  2.6939 -0.2703
  810SOL     OW 2428   0.462   1.325   0.297  0.3865 -0.2454  0.2713
  810SOL    HW1 2429   0.506   1.307   0.206  0.9934  2.6765  0.2954
  810SOL    HW2 2430   0.371   1.277   0.308 -1.8775 -1.6754  2.1967
  811SOL     OW 2431   1.352   2.540   1.440  0.4052 -0.6131 -0.5026
  811SOL    HW1 2432   1.396   2.590   1.364  1.3508  1.6241 -1.0947
  811SOL    HW2 2433   1.419   2.474   1.481  1.4538  1.7526  0.5424
  812SOL     OW 2434   0.799   2.637   1.832  0.0078 -0.2969 -0.4889
  812SOL    HW1 2435   0.749   2.656   1.745 -1.1150  0.5443 -1.6518
  812SOL    HW2 2436   0.813   2.725   1.885 -0.2190 -0.6654 -1.6054
  813SOL     OW 2437   1.313   0.140   2.106 -0.0610  0.5312 -0.1648
  813SOL    HW1 2438   1.405   0.089   2.108  2.3137  0.5013  3.0127
  813SOL    HW2 2439   1.278   0.148   2.204 -2.2641 -2.2413  0.9926
  814SOL     OW 2440   1.318   2.461   2.776  0.5146 -0.0929  0.4141
  814SOL    HW1 2441   1.269   2.373   2.782 -0.2319 -0.3248  1.4424
  814SOL    HW2 2442   1.421   2.442   2.783 -1.5792  0.6171  1.4804
  815SOL     OW 2443   0.743   0.231   2.216  0.2772 -0.0750  0.3182
  815SOL    HW1 2444   0.834   0.209   2.178 -2.1175 -1.4846 -0.1508
  815SOL    HW2 2445   0.706   0.154   2.269 -1.0495  1.0171 -0.6260
  816SOL     OW 2446   1.925   0.315   2.890 -0.0926  0.0932 -0.1207
  816SOL    HW1 2447   1.986   0.342   2.808  3.0372 -0.5225 -1.1267
  816SOL    HW2 2448   1.865   0.393   2.918  3.8862 -1.3829 -2.0839
  817SOL     OW 2449   2.391   0.278   2.414  0.4000 -0.0696 -0.2744
  817SOL    HW1 2450   2.398   0.180   2.421 -2.2279 -0.5312  3.7019
  817SOL    HW2 2451   2.311   0.304   2.349  0.8465  0.3410 -0.5269
  818SOL     OW 2452   1.707   0.186   0.071 -0.0592  0.7872 -0.1854
  818SOL    HW1 2453   1.772   0.251   0.106  0.3288 -2.6353  0.4107
  818SOL    HW2 2454   1.732   0.089   0.092  0.7553  2.0566  0.8470
  819SOL     OW 2455   2.096   1.726   2.806 -0.1393 -0.6443 -0.4001
  819SOL    HW1 2456   2.063   1.785   2.737 -1.7763 -0.0740 -1.3336
  819SOL    HW2 2457   2.073   1.761   2.896  2.7776 -3.1778 -2.5195
  820SOL     OW 2458   0.076   1.939   0.117  0.1371 -0.0100 -0.1091
  820SOL    HW1 2459   3.098   1.997   0.122 -0.8609 -1.0884 -0.9609
  820SOL    HW2 2460   0.121   1.917   0.206 -0.7504  0.3289  2.9335
  821SOL     OW 2461   0.418   2.896   0.855 -0.0969 -0.1629  0.0163
  821SOL    HW1 2462   0.507   2.904   0.810 -0.7077  1.3964 -0.2923
  821SOL    HW2 2463   0.361   2.979   0.834 -0.5945 -0.4382 -1.0917
  822SOL     OW 2464   2.782   2.844   3.032  0.4856 -0.1803  0.0705
  822SOL    HW1 2465   2.742   2.795   0.003 -1.4864  0.6304 -1.2616
  822SOL    HW2 2466   2.766   2.802   2.942 -0.9436  0.9094 -3.8563
  823SOL     OW 2467   1.257   0.283   2.661 -0.1598 -0.1042 -0.1353
  823SOL    HW1 2468   1.209   0.196   2.627 -1.1602 -1.3587 -0.6681
  823SOL    HW2 2469   1.341   0.261   2.718 -1.0840  0.8725  1.1023
  824SOL     OW 2470   2.592   2.125   1.981 -0.0345 -0.2395 -0.3521
  824SOL    HW1 2471   2.678   2.077   2.010 -0.4615 -0.4007 -1.6055
  824SOL    HW2 2472   2.511   2.070   2.005 -0.5525  0.6886 -0.4219
  825SOL     OW 2473   2.934   2.013   2.597 -0.6555  0.5077 -0.0456
  825SOL    HW1 2474   3.015   2.069   2.583 -1.6427  1.0791  1.6552
  825SOL    HW2 2475   2.848   2.050   2.553  1.7250  0.7543 -0.0174
  826SOL     OW 2476   2.280   1.397   2.276  0.1925 -0.4682  0.6217
  826SOL    HW1 2477   2.344   1.333   2.325  0.8110 -0.1175  0.3670
  826SOL    HW2 2478   2.208   1.432   2.344 -1.3850  0.1477 -0.2434
  827SOL     OW 2479   2.240   2.304   1.437 -0.1937 -0.2768 -0.3668
  827SOL    HW1 2480   2.251   2.400   1.410 -0.3243 -2.8520 -0.6891
  827SOL    HW2 2481   2.290   2.238   1.380 -2.8649  0.4764 -0.1253
  828SOL     OW 2482   0.066   0.081   1.506 -0.3758 -0.2026  0.2771
  828SOL    HW1 2483   0.004   0.152   1.465 -0.5190 -0.5607  1.3132
  828SOL    HW2 2484   0.165   0.106   1.491 -0.8766  0.8194 -1.5593
  829SOL     OW 2485   1.729   2.216   2.378 -0.5640  0.4152 -0.7315
  829SOL    HW1 2486   1.658   2.147   2.355 -0.5143 -0.3208  1.8222
  829SOL    HW2 2487   1.720   2.306   2.334  1.0442  0.5575  0.7612
  830SOL     OW 2488   0.807   0.477   0.565  0.6788 -0.8444  0.1712
  830SOL    HW1 2489   0.781   0.460   0.470 -0.6616  0.2257 -1.4001
  830SOL    HW2 2490   0.904   0.457   0.581 -2.4846 -0.3997  0.6976
  831SOL     OW 2491   2.677   1.297   2.830  1.0450  0.1245  0.5991
  831SOL    HW1 2492   2.766   1.276   2.870  0.4963 -0.0517 -0.5457
  831SOL    HW2 2493   2.686   1.350   2.744  1.4993  1.7401  0.8594
  832SOL     OW 2494   1.415   2.070   2.090  0.3037 -0.2008 -0.5792
  832SOL    HW1 2495   1.365   2.150   2.133 -0.3103  2.4693  0.8609
  832SOL    HW2 2496   1.458   2.092   2.000 -1.1537 -1.2436 -0.8493
  833SOL     OW 2497   0.462   0.276   2.147  0.1771 -0.5969 -0.2874
  833SOL    HW1 2498   0.494   0.350   2.212  2.4619 -1.1686 -0.1538
  833SOL    HW2 2499   0.429   0.196   2.197  2.5519  2.1993  0.7857
  834SOL     OW 2500   0.768   1.105   1.544  0.0555  0.6488  0.8496
  834SOL    HW1 2501   0.749   1.040   1.469  1.4719 -0.7076 -2.3478
  834SOL    HW2 2502   0.834   1.055   1.609  0.0199  1.8974 -0.8266
  835SOL     OW 2503   2.747   0.961   2.971 -0.5261  0.1716  0.2608
  835SOL    HW1 2504   2.760   0.872   2.929  0.4853  0.8954 -1.4500
  835SOL    HW2 2505   2.654   1.005   2.944 -1.8671  2.6082 -0.1255
  836SOL     OW 2506   1.256   1.601   0.549  0.1139  0.6037  0.2342
  836SOL    HW1 2507   1.186   1.675   0.534  0.9748  0.1457 -0.7199
  836SOL    HW2 2508   1.320   1.636   0.620 -0.6970  1.4156 -0.9490
  837SOL     OW 2509   1.738   1.573   1.061 -0.8503 -0.0661 -0.0966
  837SOL    HW1 2510   1.753   1.508   1.137  1.6709  0.8103 -1.5301
  837SOL    HW2 2511   1.640   1.578   1.041  1.6914 -0.6999 -1.3472
  838SOL     OW 2512   1.035   1.501   2.215  0.3921  0.0414  0.0245
  838SOL    HW1 2513   1.046   1.433   2.295 -2.7154 -2.3330  0.5024
  838SOL    HW2 2514   1.012   1.595   2.252 -0.3669  0.3734 -0.3523
  839SOL     OW 2515   0.736   2.120   2.715  0.2028  0.2769  0.1114
  839SOL    HW1 2516   0.804   2.088   2.784  1.4409 -0.4553 -2.4555
  839SOL    HW2 2517   0.686   2.207   2.751 -2.0786  2.4079  3.2592
  840SOL     OW 2518   0.690   2.378   0.419  0.5987 -0.1074  0.2316
  840SOL    HW1 2519   0.764   2.431   0.474  1.0280  2.4167  3.1314
  840SOL    HW2 2520   0.654   2.303   0.475  0.1462  1.7074 -0.1290
  841SOL     OW 2521   2.002   2.739   0.048  0.2388  0.2167  0.3975
  841SOL    HW1 2522   2.007   2.647   0.088 -0.1614 -1.4407  1.9138
  841SOL    HW2 2523   1.950   2.741   3.069 -0.4930 -0.1890  0.3930
  842SOL     OW 2524   0.629   0.773   3.088 -0.8329  0.4181 -0.1179
  842SOL    HW1 2525   0.728   0.770   3.057  1.3915 -1.0940 -0.6547
  842SOL    HW2 2526   0.619   0.787   0.085  0.6153  0.0913 -0.7870
  843SOL     OW 2527   1.296   0.165   0.842 -0.9223  0.0232 -0.3101
  843SOL    HW1 2528   1.334   0.161   0.935  2.2767 -2.1058 -0.6388
  843SOL    HW2 2529   1.194   0.175   0.840  1.0288 -2.6375 -4.1336
  844SOL     OW 2530   2.853   2.826   2.695  0.5634  0.1500 -0.2753
  844SOL    HW1 2531   2.887   2.749   2.638  2.2020 -1.2900  0.1350
  844SOL    HW2 2532   2.765   2.799   2.738  2.6735  0.4047 -1.0562
  845SOL     OW 2533   2.786   2.407   0.726 -0.2482 -0.5039 -0.3432
  845SOL    HW1 2534   2.861   2.469   0.692  0.2182  1.7625 -0.4559
  845SOL    HW2 2535   2.767   2.426   0.825  0.9727 -0.6636  2.6055
  846SOL     OW 2536   2.975   1.726   2.400  0.8188 -0.3027  0.5792
  846SOL    HW1 2537   2.922   1.661   2.455  0.4718  0.5995 -3.3823
  846SOL    HW2 2538   3.055   1.764   2.456  2.7436  3.3760  3.8368
  847SOL     OW 2539   1.358   0.680   1.712  0.0463 -0.0151 -0.1811
  847SOL    HW1 2540   1.332   0.775   1.715 -0.4872  2.2469 -0.3037
  847SOL    HW2 2541   1.402   0.649   1.801  0.5116 -3.8032  0.2969
  848SOL     OW 2542   2.498   3.091   3.029  0.2706  0.6022  0.0354
  848SOL    HW1 2543   2.449   3.080   0.009 -1.4817 -0.3019 -1.3398
  848SOL    HW2 2544   2.594   0.004   3.050 -2.2960  1.2227 -2.5008
  849SOL     OW 2545   0.703   2.898   2.819  0.5411  0.5558 -0.3241
  849SOL    HW1 2546   0.651   2.951   2.886  1.5412 -1.4947 -2.0012
  849SOL    HW2 2547   0.796   2.876   2.851 -0.9110 -1.3270 -1.3957
  850SOL     OW 2548   1.253   2.786   1.077 -0.9817  0.1762  0.2142
  850SOL    HW1 2549   1.343   2.791   1.121  0.7051  0.8557 -0.4492
  850SOL    HW2 2550   1.177   2.743   1.131 -3.3462 -0.5036  0.3852
  851SOL     OW 2551   2.735   0.312   2.226 -0.6134  0.2605  0.0096
  851SOL    HW1 2552   2.757   0.240   2.299 -0.9566 -1.6006  3.5395
  851SOL    HW2 2553   2.813   0.302   2.158  1.8242 -2.2587 -0.0846
  852SOL     OW 2554   2.190   1.004   2.364 -0.2516 -0.2687  0.3509
  852SOL    HW1 2555   2.157   1.026   2.271 -1.5040  1.4467 -1.4336
  852SOL    HW2 2556   2.112   1.006   2.430 -0.8726  0.4454  1.5062
  853SOL     OW 2557   2.854   0.136   0.460  0.0378  0.4052 -0.3117
  853SOL    HW1 2558   2.877   0.227   0.491 -1.0109 -5.2208  0.5266
  853SOL    HW2 2559   2.762   0.123   0.426  3.0199  0.8382  2.6228
  854SOL     OW 2560   2.181   0.991   1.915  0.2865  0.4925 -0.2695
  854SOL    HW1 2561   2.114   1.012   1.989 -1.2226 -1.4959  0.0617
  854SOL    HW2 2562   2.275   1.012   1.951  4.6935  1.7375  0.0316
  855SOL     OW 2563   1.213   2.333   0.241 -0.6973 -0.6050 -0.0603
  855SOL    HW1 2564   1.136   2.400   0.240  1.3165 -2.1334  0.5655
  855SOL    HW2 2565   1.271   2.340   0.156  3.4453  0.7679 -2.2537
  856SOL     OW 2566   0.054   0.118   2.600  0.3804  0.2747 -0.1288
  856SOL    HW1 2567   0.010   0.032   2.634 -0.1313 -0.1462  3.2262
  856SOL    HW2 2568   0.075   0.176   2.680 -1.5797  2.3858  1.7596
  857SOL     OW 2569   1.163   0.029   1.784 -1.0747 -0.0488 -0.2112
  857SOL    HW1 2570   1.119   0.119   1.786 -0.1361  2.5709 -1.8112
  857SOL    HW2 2571   1.108   3.067   1.727 -0.8190 -2.1490 -1.7458
  858SOL     OW 2572   2.328   2.275   1.702 -0.6149 -0.1313  0.1943
  858SOL    HW1 2573   2.305   2.316   1.609  1.2460 -0.5382 -0.2377
  858SOL    HW2 2574   2.330   2.173   1.691  0.3764  1.8326  3.2900
  859SOL     OW 2575   1.204   2.719   1.615 -0.1950 -0.2844 -0.1608
  859SOL    HW1 2576   1.207   2.671   1.705  1.6638  2.0965  2.2755
  859SOL    HW2 2577   1.247   2.666   1.539 -2.0467 -2.1970 -0.8613
  860SOL     OW 2578   2.414   2.675   0.014 -0.1319  0.5087 -0.8904
  860SOL    HW1 2579   2.404   2.618   3.034  0.8618  1.7121 -0.9768
  860SOL    HW2 2580   2.353   2.758   0.006 -0.5287  1.1230  2.1902
  861SOL     OW 2581   2.135   2.813   0.972  0.0970  0.1479 -0.6277
  861SOL    HW1 2582   2.115   2.905   0.929 -1.0306  0.5576 -1.0427
  861SOL    HW2 2583   2.208   2.819   1.046  2.5857 -1.6935  1.8211
  862SOL     OW 2584   1.815   2.907   2.425  0.1904  0.4062  0.6096
  862SOL    HW1 2585   1.896   2.905   2.355  0.9551  0.9673 -3.5231
  862SOL    HW2 2586   1.828   2.993   2.478  0.2528  1.1849 -0.6195
  863SOL     OW 2587   0.039   0.671   0.783 -1.2673  0.0609 -0.0409
  863SOL    HW1 2588   3.080   0.743   0.755  0.3110 -0.2117  2.6794
  863SOL    HW2 2589   0.106   0.666   0.711 -1.0162  1.7404  3.3245
  864SOL     OW 2590   0.166   2.663   2.227 -0.3198 -0.0272  0.2105
  864SOL    HW1 2591   0.187   2.609   2.142 -1.3515  3.3531 -0.7921
  864SOL    HW2 2592   0.214   2.624   2.306 -0.9784  3.0250 -1.1480
  865SOL     OW 2593   0.543   1.323   2.750 -0.0728  0.1814 -0.8742
  865SOL    HW1 2594   0.499   1.371   2.826 -0.7352  0.5168  0.8789
  865SOL    HW2 2595   0.477   1.267   2.706  1.2858  2.9187  1.3511
  866SOL     OW 2596   2.890   0.560   2.722  0.3013 -0.2193 -0.4979
  866SOL    HW1 2597   2.932   0.615   2.642  1.0082 -0.4135  0.8646
  866SOL    HW2 2598   2.958   0.556   2.800  4.6309 -0.6644  1.0003
  867SOL     OW 2599   3.025   3.007   2.709 -0.1185 -0.3934 -0.0800
  867SOL    HW1 2600   0.006   2.983   2.749 -1.9294  2.0189  1.7918
  867SOL    HW2 2601   2.968   2.921   2.718 -1.1821  0.0506 -1.4017
  868SOL     OW 2602   1.147   2.934   0.673 -0.6911  0.6567 -0.2063
  868SOL    HW1 2603   1.236   2.982   0.648  2.4542 -1.3409  1.9296
  868SOL    HW2 2604   1.178   2.840   0.707  0.5439  0.1931  0.5734
  869SOL     OW 2605   1.459   1.615   0.977  0.2441  0.2806  0.5455
  869SOL    HW1 2606   1.454   1.643   0.876  2.3070  2.8441 -1.4568
  869SOL    HW2 2607   1.477   1.694   1.040 -2.2400  1.7476  1.0069
  870SOL     OW 2608   2.132   2.025   1.142  0.1431 -0.3409 -0.2449
  870SOL    HW1 2609   2.132   2.052   1.045 -0.0776  0.2496 -1.1760
  870SOL    HW2 2610   2.072   1.942   1.155 -0.6243 -1.1433 -1.2969
  871SOL     OW 2611   1.045   1.645   1.603 -0.6820  0.2822 -0.1974
  871SOL    HW1 2612   1.097   1.733   1.606 -0.7208 -2.0209 -1.0678
  871SOL    HW2 2613   1.003   1.639   1.509  1.0075  1.9000 -0.0819
  872SOL     OW 2614   0.955   1.546   1.330 -0.0456  0.0989  0.1977
  872SOL    HW1 2615   0.910   1.623   1.284  0.5583 -0.7790  1.9897
  872SOL    HW2 2616   0.885   1.477   1.345  1.4278  2.0231  1.0928
  873SOL     OW 2617   1.292   1.081   2.612 -0.1903 -0.4368 -0.1637
  873SOL    HW1 2618   1.342   1.171   2.596  1.4415  1.2764  0.4004
  873SOL    HW2 2619   1.366   1.010   2.631  4.0116  2.0870  2.1136
  874SOL     OW 2620   0.048   1.571   1.266  0.3052  0.0601  0.1039
  874SOL    HW1 2621   0.016   1.584   1.169 -0.5116 -1.2252 -0.1543
  874SOL    HW2 2622   0.064   1.469   1.280 -0.2810 -0.3043 -3.2878
  875SOL     OW 2623   2.841   3.011   0.785  0.0089  0.0950  0.8037
  875SOL    HW1 2624   2.771   3.070   0.743  2.8934 -1.6048 -2.6232
  875SOL    HW2 2625   2.808   2.913   0.791 -0.2521 -1.2731 -0.7779
  876SOL     OW 2626   0.910   0.765   2.986  0.2698 -0.8722  0.0820
  876SOL    HW1 2627   0.950   0.687   2.936  1.0010  1.9406 -1.6918
  876SOL    HW2 2628   0.961   0.775   3.078  0.2762  2.7296 -2.9436
  877SOL     OW 2629   0.112   0.240   1.124 -0.4404 -0.0455 -0.2628
  877SOL    HW1 2630   0.035   0.206   1.181 -1.5483 -0.0692  1.9522
  877SOL    HW2 2631   0.201   0.199   1.158 -2.7733  0.6760 -0.4674
  878SOL     OW 2632   1.675   2.377   3.087  0.0742  0.3709 -0.1845
  878SOL    HW1 2633   1.671   2.478   3.060  0.1990  1.9775 -0.0748
  878SOL    HW2 2634   1.748   2.324   3.036 -1.1586 -2.4348 -1.1747
  879SOL     OW 2635   2.193   1.783   1.570 -1.1003 -0.3402 -0.2421
  879SOL    HW1 2636   2.231   1.697   1.609 -0.0469  1.5188  2.1773
  879SOL    HW2 2637   2.236   1.859   1.625  0.9849  1.7806  1.0651
  880SOL     OW 2638   0.798   0.475   1.547 -0.2947 -0.1591  0.2339
  880SOL    HW1 2639   0.887   0.492   1.585  0.0384 -0.5093 -2.6273
  880SOL    HW2 2640   0.722   0.467   1.611  0.0905  0.3027 -0.3506
  881SOL     OW 2641   1.183   1.890   0.142 -0.6244  0.1587 -0.6362
  881SOL    HW1 2642   1.241   1.914   0.221 -0.9049  0.6876  2.1494
  881SOL    HW2 2643   1.170   1.791   0.141  1.1763  1.0332  0.2946
  882SOL     OW 2644   2.249   0.851   1.656  0.6022  0.5078  0.1782
  882SOL    HW1 2645   2.230   0.950   1.655 -0.8013  1.3793 -1.2569
  882SOL    HW2 2646   2.306   0.822   1.575 -1.1782 -1.6480  1.0727
  883SOL     OW 2647   1.309   0.576   2.227 -0.0234  0.4705  0.0144
  883SOL    HW1 2648   1.270   0.647   2.287 -1.0282  0.7953 -1.0035
  883SOL    HW2 2649   1.241   0.562   2.150 -1.3809  2.2017  0.8169
  884SOL     OW 2650   2.377   0.379   0.108 -0.1965 -0.2634 -0.5149
  884SOL    HW1 2651   2.330   0.347   0.021 -0.2461  1.2277 -3.2432
  884SOL    HW2 2652   2.326   0.457   0.144  3.9387  1.5168 -1.9707
  885SOL     OW 2653   0.331   2.137   0.573 -0.4324  0.0179  0.3659
  885SOL    HW1 2654   0.269   2.146   0.493 -2.6609 -0.2093 -0.8571
  885SOL    HW2 2655   0.274   2.112   0.654  1.1268  1.9248 -0.8277
  886SOL     OW 2656   1.664   1.259   3.047 -0.0316 -0.3445  0.4038
  886SOL    HW1 2657   1.587   1.202   3.079  0.8519  3.1660  1.1769
  886SOL    HW2 2658   1.708   1.298   0.027 -0.2253  0.0859  3.4379
  887SOL     OW 2659   1.502   0.425   1.727  0.2316  0.5258 -0.2389
  887SOL    HW1 2660   1.597   0.445   1.692  0.0870  3.1424  1.4954
  887SOL    HW2 2661   1.435   0.434   1.652  0.9851  1.8450  1.1923
  888SOL     OW 2662   2.896   1.234   1.421  0.5646  0.6058  0.4249
  888SOL    HW1 2663   2.883   1.132   1.408 -1.7603 -2.1231  1.0810
  888SOL    HW2 2664   2.823   1.288   1.371 -0.1232 -1.8556  2.1075
  889SOL     OW 2665   0.022   2.569   0.890  0.1498  0.4768  0.2632
  889SOL    HW1 2666   0.078   2.653   0.862  0.4689  3.3403 -1.0680
  889SOL    HW2 2667   0.075   2.503   0.953  0.9153  0.0946 -0.4444
  890SOL     OW 2668   0.364   2.521   2.401 -0.2990  0.0976 -0.2032
  890SOL    HW1 2669   0.458   2.547   2.432  2.0431  2.0005  0.2140
  890SOL    HW2 2670   0.295   2.516   2.479  1.9938 -0.7929  1.2328
  891SOL     OW 2671   0.480   1.864   0.386 -0.3597  0.0942 -0.2301
  891SOL    HW1 2672   0.557   1.919   0.427  1.1664 -2.0469 -2.8600
  891SOL    HW2 2673   0.493   1.765   0.408 -1.2035 -0.5245  2.2650
  892SOL     OW 2674   2.894   2.356   1.238 -0.1891 -0.2024  0.7116
  892SOL    HW1 2675   2.887   2.370   1.341  1.6104  0.8136  0.3695
  892SOL    HW2 2676   2.804   2.337   1.196 -0.7322 -0.5729 -0.1732
  893SOL     OW 2677   0.464   3.031   1.459  0.0919  0.4231  0.2069
  893SOL    HW1 2678   0.551   3.025   1.510 -1.7251  0.8939 -0.7973
  893SOL    HW2 2679   0.409   3.103   1.502 -2.4865 -3.2827 -0.7819
  894SOL     OW 2680   2.644   1.471   0.886  0.1415  0.4956  0.0239
  894SOL    HW1 2681   2.593   1.553   0.862  2.7594 -1.8609 -1.6269
  894SOL    HW2 2682   2.661   1.419   0.803  0.3807 -0.5956  1.3905
  895SOL     OW 2683   2.452   2.597   1.690 -0.0255  0.5633  0.3403
  895SOL    HW1 2684   2.390   2.521   1.648 -1.0466 -2.0949  0.0348
  895SOL    HW2 2685   2.551   2.560   1.694  2.1166  0.5482  1.4712
  896SOL     OW 2686   0.847   0.193   1.374  0.1340  0.4168 -0.2319
  896SOL    HW1 2687   0.936   0.208   1.330 -0.0177 -3.4046  1.9911
  896SOL    HW2 2688   0.821   0.266   1.441 -1.7562 -0.5892  2.8798
  897SOL     OW 2689   0.708   1.804   1.093 -0.0730 -0.1309 -0.4280
  897SOL    HW1 2690   0.613   1.774   1.115  1.5035  0.4880  2.3206
  897SOL    HW2 2691   0.763   1.818   1.178 -2.2645  1.5963  0.1249
  898SOL     OW 2692   1.578   2.671   1.611 -0.0659 -0.2720 -0.1249
  898SOL    HW1 2693   1.538   2.579   1.601  0.1820  1.2464 -1.4018
  898SOL    HW2 2694   1.680   2.677   1.596  0.5737 -0.4942  2.4612
  899SOL     OW 2695   1.017   0.293   2.840  0.3925 -0.1229  0.4043
  899SOL    HW1 2696   1.110   0.297   2.796  0.1535 -1.7196  0.2053
  899SOL    HW2 2697   0.981   0.197   2.852  0.8027 -5.5259 -1.6483
  900SOL     OW 2698   1.215   2.575   1.845 -0.3831 -0.6352  0.2467
  900SOL    HW1 2699   1.123   2.534   1.843 -0.1439 -1.6410 -1.2546
  900SOL    HW2 2700   1.283   2.510   1.890  0.0572  4.6549 -0.3882
  901SOL     OW 2701   0.964   1.985   0.301  0.5000 -0.6321  0.5028
  901SOL    HW1 2702   1.011   2.016   0.389  0.8226 -0.2450  2.8170
  901SOL    HW2 2703   1.030   1.981   0.223  1.4360  1.0424 -0.8807
  902SOL     OW 2704   1.570   1.198   1.117 -0.5431 -0.1467  0.0134
  902SOL    HW1 2705   1.548   1.239   1.206 -0.5533 -0.1255  0.0078
  902SOL    HW2 2706   1.528   1.254   1.042 -1.8534  0.9299  0.4015
  903SOL     OW 2707   2.513   1.080   2.888 -0.1420 -0.2034 -0.0127
  903SOL    HW1 2708   2.535   1.179   2.866 -0.9565  1.4084 -2.5401
  903SOL    HW2 2709   2.460   1.075   2.974 -0.2778  0.3417  0.7497
  904SOL     OW 2710   0.972   1.223   0.313  0.0223 -0.2684  0.3886
  904SOL    HW1 2711   0.955   1.319   0.295  0.0758 -1.9445  0.8108
  904SOL    HW2 2712   0.962   1.212   0.412  0.4636 -3.9926 -2.4420
  905SOL     OW 2713   1.787   0.127   1.223 -0.2500  0.2118 -0.0605
  905SOL    HW1 2714   1.779   0.209   1.282 -0.8609 -0.0502 -1.5749
  905SOL    HW2 2715   1.750   0.044   1.270  0.4270  0.6712 -0.0511
  906SOL     OW 2716   2.535   2.681   0.903  0.4709 -0.5149 -0.3103
  906SOL    HW1 2717   2.546   2.780   0.929 -2.7292  0.7314  0.5886
  906SOL    HW2 2718   2.464   2.670   0.833 -1.2390  1.2427  0.5407
  907SOL     OW 2719   1.389   0.933   0.623  0.2487 -0.0980  0.2490
  907SOL    HW1 2720   1.410   0.836   0.627  0.1924  3.5541 -0.1086
  907SOL    HW2 2721   1.359   0.964   0.719  2.3540  0.8362 -0.8141
  908SOL     OW 2722   1.651   0.175   0.960  0.1857  0.3569 -0.1275
  908SOL    HW1 2723   1.561   0.158   1.003 -0.0269 -2.4197 -4.1206
  908SOL    HW2 2724   1.727   0.166   1.026 -2.6882 -0.6697 -2.6426
  909SOL     OW 2725   2.248   0.816   1.318 -0.3020  0.1857  1.0139
  909SOL    HW1 2726   2.213   0.884   1.241 -0.5842  4.3877 -3.9183
  909SOL    HW2 2727   2.248   0.717   1.287 -3.4665 -3.6076  1.6602
  910SOL     OW 2728   2.213   0.638   2.076  0.1859  0.4021 -0.3568
  910SOL    HW1 2729   2.167   0.684   1.992 -0.4612  3.3911 -1.9412
  910SOL    HW2 2730   2.268   0.714   2.122 -0.5289  0.2963 -3.6793
  911SOL     OW 2731   2.205   0.657   2.616  0.3356 -0.5578  0.4686
  911SOL    HW1 2732   2.284   0.708   2.572 -0.0653  0.2859 -0.0105
  911SOL    HW2 2733   2.234   0.626   2.709  2.2039  1.6645  0.4719
  912SOL     OW 2734   0.550   1.149   1.700 -0.1111 -0.4943 -0.0677
  912SOL    HW1 2735   0.645   1.128   1.678 -1.2978 -0.3862 -2.2108
  912SOL    HW2 2736   0.507   1.205   1.624 -0.7916  1.0389  0.0995
  913SOL     OW 2737   2.935   2.420   1.485  0.2319 -0.1525  0.4278
  913SOL    HW1 2738   2.922   2.382   1.580 -3.0234  1.0209 -0.6727
  913SOL    HW2 2739   2.994   2.501   1.488 -0.5178 -1.9842 -1.7068
  914SOL     OW 2740   1.583   0.659   1.902  0.9276 -0.2450 -0.2135
  914SOL    HW1 2741   1.626   0.752   1.890  1.7201  1.8479 -3.1846
  914SOL    HW2 2742   1.639   0.586   1.859  1.9118 -0.1093 -0.4611
  915SOL     OW 2743   2.402   0.984   0.919 -0.1897 -0.1565 -0.5064
  915SOL    HW1 2744   2.456   0.897   0.906  2.8583 -0.8807  1.5519
  915SOL    HW2 2745   2.470   1.061   0.931 -2.9012 -1.3270  0.4809
  916SOL     OW 2746   1.760   2.217   1.099 -0.1519 -0.0432 -0.0220
  916SOL    HW1 2747   1.713   2.265   1.175 -0.9103  2.3379 -2.1782
  916SOL    HW2 2748   1.783   2.123   1.136 -0.7126  0.9752  3.8587
  917SOL     OW 2749   1.982   2.221   2.300 -0.2936  0.7773 -0.0418
  917SOL    HW1 2750   1.880   2.210   2.321  0.2720  1.5627  0.8537
  917SOL    HW2 2751   1.993   2.250   2.204 -0.3593 -0.5005  0.1409
  918SOL     OW 2752   2.006   2.447   2.465  0.2217  0.0065  0.2730
  918SOL    HW1 2753   1.904   2.467   2.462 -3.1315  3.2996  0.4745
  918SOL    HW2 2754   2.035   2.361   2.424  0.8553  0.4777  0.6643
  919SOL     OW 2755   1.218   0.184   1.457 -0.3321 -0.3315 -0.5288
  919SOL    HW1 2756   1.238   0.084   1.469 -0.9792 -2.9613  2.1693
  919SOL    HW2 2757   1.138   0.200   1.525 -3.9817 -0.2542  2.1687
  920SOL     OW 2758   2.977   0.333   2.494  0.8213 -0.1419  0.4276
  920SOL    HW1 2759   3.052   0.267   2.489 -0.9990  1.5878 -1.2308
  920SOL    HW2 2760   2.891   0.289   2.524 -0.7878 -3.0237 -3.7801
  921SOL     OW 2761   0.007   1.019   1.738  0.0092 -0.3684 -0.0849
  921SOL    HW1 2762   0.032   1.116   1.734  0.1697 -0.5346  0.9202
  921SOL    HW2 2763   3.019   1.007   1.775 -1.6348  0.3883  2.0080
  922SOL     OW 2764   2.273   2.382   0.397 -0.3809  0.5921 -0.1297
  922SOL    HW1 2765   2.220   2.448   0.443  1.3947 -1.8650 -2.4435
  922SOL    HW2 2766   2.310   2.419   0.312  0.1872 -1.3657  2.2131
  923SOL     OW 2767   0.609   2.184   0.575  0.1984 -0.2628  0.2927
  923SOL    HW1 2768   0.655   2.174   0.667  2.2971 -0.8712 -0.2303
  923SOL    HW2 2769   0.502   2.180   0.584 -2.3465  0.3893 -0.3799
  924SOL     OW 2770   1.115   1.010   0.251 -0.1753 -0.1532 -0.2744
  924SOL    HW1 2771   1.060   1.087   0.281  1.5693 -3.4118 -0.8267
  924SOL    HW2 2772   1.207   1.009   0.295 -2.8792 -0.5555 -2.1184
  925SOL     OW 2773   2.569   0.759   0.910 -0.7984 -0.1431 -0.4463
  925SOL    HW1 2774   2.583   0.713   1.003  1.4674 -2.4912  2.0932
  925SOL    HW2 2775   2.542   0.686   0.840 -2.2876 -0.7388 -1.3452
  926SOL     OW 2776   0.421   0.391   1.278 -0.0382 -0.3830 -0.2971
  926SOL    HW1 2777   0.390   0.296   1.273 -1.7140  1.3351  1.7705
  926SOL    HW2 2778   0.345   0.444   1.318  0.1403 -2.7553 -0.6930
  927SOL     OW 2779   0.769   1.346   2.450 -0.4847 -0.3249  0.1771
  927SOL    HW1 2780   0.765   1.403   2.535  2.3944 -0.0337  0.4320
  927SOL    HW2 2781   0.694   1.279   2.456  2.4433  1.9972  1.3946
  928SOL     OW 2782   0.208   0.625   2.367 -0.3066  0.2498 -0.0878
  928SOL    HW1 2783   0.107   0.607   2.366  1.6125  0.6429 -0.9117
  928SOL    HW2 2784   0.260   0.538   2.347  0.4389  3.3084 -1.9376
  929SOL     OW 2785   2.803   3.055   1.087 -0.2150  0.4082  0.3124
  929SOL    HW1 2786   2.876   2.984   1.104  0.6088 -2.5542  1.9389
  929SOL    HW2 2787   2.838   0.027   1.031  1.4438  0.2941 -4.0509
  930SOL     OW 2788   2.086   0.449   1.731  0.1381  0.3273 -0.7267
  930SOL    HW1 2789   2.058   0.361   1.687  0.4716 -0.8909  1.4197
  930SOL    HW2 2790   2.093   0.439   1.833  1.2355  0.5690  3.3352
  931SOL     OW 2791   2.220   0.685   3.032 -0.5039 -0.1500 -0.0112
  931SOL    HW1 2792   2.117   0.670   3.026  0.4883  1.9684 -1.1243
  931SOL    HW2 2793   2.259   0.653   0.016 -1.1876  2.5256 -0.4924
  932SOL     OW 2794   2.135   1.449   0.465 -0.5266  0.0825  0.0642
  932SOL    HW1 2795   2.191   1.401   0.539 -1.5377 -3.6566  2.2046
  932SOL    HW2 2796   2.037   1.437   0.484 -0.0269 -1.4136 -2.1265
  933SOL     OW 2797   2.093   1.632   1.020 -0.5063 -0.5881 -0.1451
  933SOL    HW1 2798   2.169   1.594   1.082  3.0274 -2.7132  1.3564
  933SOL    HW2 2799   2.052   1.563   0.959  2.1141  2.4718  2.7895
  934SOL     OW 2800   1.973   1.032   2.522 -0.4790 -0.0723  0.8567
  934SOL    HW1 2801   1.980   1.100   2.595 -0.7564 -0.8686  0.6897
  934SOL    HW2 2802   1.969   0.939   2.558 -1.2754  0.1317 -1.0723
  935SOL     OW 2803   0.255   0.925   0.602  0.5313 -0.2228  0.0476
  935SOL    HW1 2804   0.316   0.973   0.535  0.7758 -0.7112 -1.0532
  935SOL    HW2 2805   0.160   0.970   0.614  0.0078  0.5495 -1.3533
  936SOL     OW 2806   0.697   0.015   0.846  0.4463 -0.8730 -0.1425
  936SOL    HW1 2807   0.618   0.036   0.906 -1.6282 -0.9172 -0.5835
  936SOL    HW2 2808   0.705   0.083   0.771  0.3572  2.1471  0.5169
  937SOL     OW 2809   2.780   2.933   1.720  0.5158  0.1148  0.0182
  937SOL    HW1 2810   2.836   2.895   1.648 -0.3500  1.1139 -1.5016
  937SOL    HW2 2811   2.748   2.863   1.788 -0.2879  2.5139  0.6889
  938SOL     OW 2812   3.051   2.306   3.011 -0.6075 -0.3062  0.7330
  938SOL    HW1 2813   3.015   2.380   2.959  0.9428 -1.1697  1.6573
  938SOL    HW2 2814   0.006   2.340   3.078  0.5172 -0.3024 -1.5379
  939SOL     OW 2815   1.228   1.561   1.149 -0.3401 -0.0863  0.6447
  939SOL    HW1 2816   1.242   1.502   1.226  1.5803  0.9881 -0.3274
  939SOL    HW2 2817   1.320   1.579   1.104 -1.4508 -0.0718 -3.0838
  940SOL     OW 2818   3.006   0.542   3.004  0.2337 -0.4785  0.1831
  940SOL    HW1 2819   3.092   0.491   3.011 -4.8259  0.4984  0.4307
  940SOL    HW2 2820   2.931   0.499   3.066 -0.9148  0.1906  0.4205
  941SOL     OW 2821   2.067   0.388   2.630  0.1537 -0.0670 -0.0615
  941SOL    HW1 2822   2.067   0.306   2.567  0.7588  1.3943  1.7691
  941SOL    HW2 2823   2.099   0.472   2.585 -0.3839 -0.0513  0.6053
  942SOL     OW 2824   1.635   0.434   0.864  0.0875 -0.1425  0.3981
  942SOL    HW1 2825   1.663   0.341   0.881 -0.1399 -0.4667  1.2419
  942SOL    HW2 2826   1.702   0.507   0.886 -1.3715  1.3606  0.7191
  943SOL     OW 2827   1.235   1.165   2.012  0.2956 -0.2130 -0.3880
  943SOL    HW1 2828   1.326   1.122   2.002 -3.6921  1.7460  2.1264
  943SOL    HW2 2829   1.188   1.174   1.921  2.0270 -1.3547  2.0799
  944SOL     OW 2830   1.907   1.051   1.678  0.1357  0.0007 -0.2343
  944SOL    HW1 2831   1.875   0.993   1.757  0.0557 -1.0501  1.0552
  944SOL    HW2 2832   2.006   1.028   1.659 -1.3376  0.5540 -0.8590
  945SOL     OW 2833   2.827   0.160   2.873  0.4602 -0.1097 -0.8509
  945SOL    HW1 2834   2.810   0.095   2.798  0.5020 -0.5416  1.0572
  945SOL    HW2 2835   2.825   0.110   2.964  0.5945  0.8267 -1.6625
  946SOL     OW 2836   2.793   1.371   1.627 -0.0760  0.2103  0.1543
  946SOL    HW1 2837   2.832   1.301   1.559 -0.4410  0.0529  2.0304
  946SOL    HW2 2838   2.801   1.470   1.598  2.0737 -3.1919 -0.5560
  947SOL     OW 2839   1.021   2.909   0.131 -0.4065  0.9502  0.3794
  947SOL    HW1 2840   0.948   2.844   0.104 -0.5424  0.5719  1.0358
  947SOL    HW2 2841   0.992   2.974   0.207  0.3363  0.5429 -0.4155
  948SOL     OW 2842   2.284   1.654   1.242 -0.1512 -0.4183 -0.0512
  948SOL    HW1 2843   2.237   1.739   1.268  0.5211 -0.0802 -1.8951
  948SOL    HW2 2844   2.381   1.669   1.218  1.5031 -0.5429  3.3054
  949SOL     OW 2845   0.236   1.276   3.079 -0.2781 -0.6757  0.3673
  949SOL    HW1 2846   0.239   1.210   2.999 -2.8575  0.8778 -1.6573
  949SOL    HW2 2847   0.312   1.346   3.070 -4.5241 -1.5463 -0.8009
  950SOL     OW 2848   0.475   2.426   1.070  0.2680 -0.1408  0.2320
  950SOL    HW1 2849   0.382   2.464   1.102 -0.3591 -2.1774  0.6385
  950SOL    HW2 2850   0.512   2.483   0.998  1.9670 -1.4831  0.9477
  951SOL     OW 2851   0.737   1.495   2.685  0.6922  1.2009  0.5165
  951SOL    HW1 2852   0.803   1.503   2.763  1.9818  0.6962  1.2503
  951SOL    HW2 2853   0.661   1.433   2.721 -2.8298 -3.4953 -0.6571
  952SOL     OW 2854   0.643   0.900   0.612 -0.9443 -0.1752  0.5219
  952SOL    HW1 2855   0.609   0.801   0.626  0.0725 -0.5897  1.0096
  952SOL    HW2 2856   0.609   0.960   0.685 -1.1445  0.0178  0.4173
  953SOL     OW 2857   2.622   2.899   2.527  0.3888 -0.1469 -0.2130
  953SOL    HW1 2858   2.632   2.796   2.523 -0.1795  2.6072 -4.2937
  953SOL    HW2 2859   2.632   2.936   2.623  3.0518  1.4212 -0.6213
  954SOL     OW 2860   1.781   0.894   0.828  0.1221 -0.1175  0.8764
  954SOL    HW1 2861   1.812   0.974   0.880  0.4246 -1.0419  0.1953
  954SOL    HW2 2862   1.803   0.901   0.725  0.7316 -0.4839 -2.8458
  955SOL     OW 2863   0.720   1.972   0.449  0.2077 -0.4690 -0.0629
  955SOL    HW1 2864   0.801   1.978   0.389  0.7547  0.3362  0.1316
  955SOL    HW2 2865   0.694   2.060   0.489 -1.8851  1.0415  0.2570
  956SOL     OW 2866   2.404   0.467   1.958  0.4176 -0.1095 -0.3868
  956SOL    HW1 2867   2.333   0.529   1.995 -0.9794  0.3142  3.2874
  956SOL    HW2 2868   2.447   0.414   2.036  0.9368 -0.1301 -1.0687
  957SOL     OW 2869   2.017   2.210   1.999 -0.1504  0.5985 -0.1432
  957SOL    HW1 2870   2.109   2.248   1.996  0.0704  0.2709  2.7828
  957SOL    HW2 2871   2.003   2.121   1.949  1.0958 -3.0994  0.1798
  958SOL     OW 2872   1.604   1.063   1.520 -0.4187  0.0920  0.2414
  958SOL    HW1 2873   1.590   1.130   1.594 -0.6229 -3.1112  0.9859
  958SOL    HW2 2874   1.696   1.082   1.472  4.6741  0.9624  1.6846
  959SOL     OW 2875   1.888   1.788   2.078  0.4626 -0.6113  0.2972
  959SOL    HW1 2876   1.869   1.705   2.134 -0.0087 -1.0536 -2.6893
  959SOL    HW2 2877   1.808   1.847   2.066  0.9193  0.5195  0.8781
  960SOL     OW 2878   0.727   0.900   2.795  0.6031  0.0025  0.1832
  960SOL    HW1 2879   0.674   0.862   2.718 -1.2061 -1.0896  0.8929
  960SOL    HW2 2880   0.803   0.842   2.831 -0.4789 -0.2838 -1.1914
  961SOL     OW 2881   0.009   1.032   2.963  0.1658  0.7043 -0.4795
  961SOL    HW1 2882   0.015   0.933   2.980 -2.0879 -0.1519 -0.4284
  961SOL    HW2 2883   0.094   1.070   2.926 -0.1047 -1.9189 -2.3737
  962SOL     OW 2884   0.791   1.742   2.622 -0.3269  0.1232 -0.0103
  962SOL    HW1 2885   0.758   1.650   2.661  1.9284 -2.8388  1.6314
  962SOL    HW2 2886   0.713   1.813   2.614  0.2881  2.1649 -2.3678
  963SOL     OW 2887   2.976   2.134   0.156 -0.4029  0.0517  0.3762
  963SOL    HW1 2888   2.901   2.068   0.131  2.1306  0.5345 -1.9020
  963SOL    HW2 2889   2.986   2.217   0.093  1.6979  0.6239  1.5483
  964SOL     OW 2890   0.947   2.035   2.014  0.1816  0.2962 -0.4349
  964SOL    HW1 2891   0.997   1.995   2.095  1.1262 -2.4584  1.1658
  964SOL    HW2 2892   0.919   1.963   1.951  0.6625 -1.8125 -1.3070
  965SOL     OW 2893   1.742   2.040   0.441 -0.1551 -0.6093  0.1633
  965SOL    HW1 2894   1.694   2.128   0.411 -1.2879 -0.1336 -2.2792
  965SOL    HW2 2895   1.716   2.016   0.533 -0.1179 -1.4866 -1.2415
  966SOL     OW 2896   3.002   1.699   0.029  0.2705 -0.6154 -0.0708
  966SOL    HW1 2897   3.074   1.765   0.060 -1.1257  0.6105  1.7592
  966SOL    HW2 2898   3.036   1.606   0.017 -2.5854  1.3168 -0.6462
  967SOL     OW 2899   2.205   3.100   2.334  0.6665 -0.4708 -0.2532
  967SOL    HW1 2900   2.287   3.068   2.287  0.5344  0.4510 -0.7934
  967SOL    HW2 2901   2.134   3.030   2.323 -0.6521  2.3838 -0.7477
  968SOL     OW 2902   0.883   0.681   0.245  0.2769 -0.1225  0.2658
  968SOL    HW1 2903   0.866   0.747   0.323  0.6365 -1.2534 -0.0673
  968SOL    HW2 2904   0.956   0.713   0.181 -0.0167 -3.3680 -0.7068
  969SOL     OW 2905   0.496   1.467   2.123  0.3725  0.5219  0.1777
  969SOL    HW1 2906   0.581   1.497   2.175  2.6483 -0.0487  0.3957
  969SOL    HW2 2907   0.517   1.461   2.021 -0.9631  1.8710  0.4802
  970SOL     OW 2908   1.910   2.567   1.319  0.0358  0.2745 -0.3222
  970SOL    HW1 2909   1.983   2.525   1.259  2.9806 -0.1406  1.2186
  970SOL    HW2 2910   1.911   2.529   1.412 -1.5806 -0.4241 -5.2601
  971SOL     OW 2911   2.195   2.351   0.729  0.2750  0.6685  0.3634
  971SOL    HW1 2912   2.154   2.438   0.767  2.7892  0.2604  1.4079
  971SOL    HW2 2913   2.279   2.327   0.780 -1.3198  0.6028 -1.3206
  972SOL     OW 2914   0.083   1.062   2.371  0.4052 -0.4922 -0.1842
  972SOL    HW1 2915   0.096   1.058   2.271  0.2000  0.7301  3.8653
  972SOL    HW2 2916   0.096   1.156   2.396  1.8759 -2.3705 -3.0088
  973SOL     OW 2917   0.613   0.059   0.319  0.2979 -0.0095  0.6059
  973SOL    HW1 2918   0.651   0.142   0.365 -0.9759 -0.5186 -0.0619
  973SOL    HW2 2919   0.528   0.082   0.268 -0.5757 -2.9469  0.8741
  974SOL     OW 2920   2.456   0.870   1.854  0.2284 -0.1327  0.5826
  974SOL    HW1 2921   2.366   0.842   1.809 -2.1457  1.0218 -1.5170
  974SOL    HW2 2922   2.434   0.919   1.941  0.1346 -0.8107 -2.5412
  975SOL     OW 2923   3.081   0.008   0.444  0.0555  0.1990 -0.1386
  975SOL    HW1 2924   2.986   0.050   0.451 -1.3043  0.8704  1.9004
  975SOL    HW2 2925   3.070   3.016   0.466 -1.5528 -0.4608 -2.0519
  976SOL     OW 2926   0.072   1.924   1.127 -0.2058 -0.6368 -0.0672
  976SOL    HW1 2927   0.045   1.937   1.225  2.3460  0.2879  2.0690
  976SOL    HW2 2928   0.024   1.848   1.081 -2.0635 -0.7436 -1.4678
  977SOL     OW 2929   1.040   1.782   0.537 -0.0412  0.0313 -0.8634
  977SOL    HW1 2930   0.974   1.768   0.460  0.6376 -1.3965 -1.1940
  977SOL    HW2 2931   1.043   1.877   0.563 -0.4796 -2.8886 -2.1018
  978SOL     OW 2932   0.180   0.736   0.320 -0.1216  0.2024  0.1994
  978SOL    HW1 2933   0.184   0.711   0.221  1.1389  2.6028  4.6529
  978SOL    HW2 2934   0.131   0.825   0.333  0.7935  1.3403  0.0651
  979SOL     OW 2935   1.805   1.744   0.830  0.2380  0.0060 -0.2711
  979SOL    HW1 2936   1.892   1.787   0.826 -4.8458 -1.0030 -0.0737
  979SOL    HW2 2937   1.788   1.684   0.912  0.8004 -0.3022 -1.9174
  980SOL     OW 2938   0.468   1.885   1.973  0.0179 -0.0735 -0.1511
  980SOL    HW1 2939   0.555   1.865   2.029  1.9528 -0.5858 -2.7549
  980SOL    HW2 2940   0.498   1.934   1.891  0.2868 -3.9234  1.6209
  981SOL     OW 2941   1.977   1.199   2.725  0.1031 -0.3505 -0.0484
  981SOL    HW1 2942   1.938   1.262   2.791  0.6090 -0.1159  0.1882
  981SOL    HW2 2943   2.053   1.245   2.678  0.6897  1.2157 -1.7459
  982SOL     OW 2944   2.867   2.643   1.831 -0.3552  0.1612 -0.3076
  982SOL    HW1 2945   2.784   2.688   1.875  1.0230 -3.2498 -0.1657
  982SOL    HW2 2946   2.923   2.699   1.764 -0.0653  1.4701  0.6998
  983SOL     OW 2947   1.621   0.178   1.769 -0.1773 -0.3120  0.1352
  983SOL    HW1 2948   1.585   0.269   1.748 -0.5700 -4.0283 -0.6339
  983SOL    HW2 2949   1.546   0.105   1.761  0.4740  1.4508  0.7251
  984SOL     OW 2950   2.106   3.080   2.897  0.2476  0.0279 -0.6376
  984SOL    HW1 2951   2.153   3.100   2.807 -0.4193 -1.1221 -3.8832
  984SOL    HW2 2952   2.003   3.069   2.884 -3.6146 -0.6426 -0.4555
  985SOL     OW 2953   1.586   1.614   1.741  0.6827  0.0890 -0.2469
  985SOL    HW1 2954   1.510   1.553   1.696 -2.1296  0.1785 -2.0264
  985SOL    HW2 2955   1.648   1.555   1.802 -0.6070  0.5099 -1.1094
  986SOL     OW 2956   2.088   2.707   2.434  0.0427 -0.6914 -0.0827
  986SOL    HW1 2957   2.085   2.772   2.511 -0.5882 -1.0807 -1.3143
  986SOL    HW2 2958   2.053   2.616   2.458  0.1124  2.1557 -1.3580
  987SOL     OW 2959   2.898   1.798   2.766  0.0469  0.0238 -0.2645
  987SOL    HW1 2960   2.885   1.709   2.713 -0.4924 -0.7020  0.1045
  987SOL    HW2 2961   2.925   1.873   2.702 -0.3252 -2.0203 -1.6912
  988SOL     OW 2962   0.036   0.863   1.483  0.5049  0.0503 -0.1841
  988SOL    HW1 2963   0.031   0.902   1.578 -2.9851  0.6472 -0.5222
  988SOL    HW2 2964   0.003   0.931   1.414  0.9401 -1.8059  0.5608
  989SOL     OW 2965   1.863   1.117   1.409 -0.5179 -0.1450 -0.2682
  989SOL    HW1 2966   1.891   1.049   1.333 -0.0508 -1.5922  0.4302
  989SOL    HW2 2967   1.903   1.081   1.492 -0.0657 -0.6709 -0.9187
  990SOL     OW 2968   2.711   0.692   0.070  0.3337 -0.3708 -0.2446
  990SOL    HW1 2969   2.650   0.672   3.100  0.8036  0.1097  1.0310
  990SOL    HW2 2970   2.773   0.613   0.091  0.2880 -0.4723  1.3788
  991SOL     OW 2971   0.577   1.615   0.085 -0.0088  0.4478 -0.0219
  991SOL    HW1 2972   0.539   1.699   0.049 -1.2805 -1.7004 -0.7821
  991SOL    HW2 2973   0.540   1.597   0.176 -0.2298  0.5802 -2.1119
  992SOL     OW 2974   2.317   1.594   1.717  0.1918  0.3435 -0.4077
  992SOL    HW1 2975   2.253   1.568   1.793 -1.8713  0.6922  1.4141
  992SOL    HW2 2976   2.380   1.667   1.748  2.4381 -0.3049  0.1073
  993SOL     OW 2977   0.652   2.862   0.680 -0.7101 -0.5148  0.6005
  993SOL    HW1 2978   0.745   2.912   0.656  2.8599  2.0588  1.8259
  993SOL    HW2 2979   0.663   2.764   0.681  1.1808  1.2916 -0.0070
  994SOL     OW 2980   2.636   2.221   1.462  0.0219  0.7861  0.8226
  994SOL    HW1 2981   2.662   2.234   1.561 -0.7200 -1.8074 -0.1712
  994SOL    HW2 2982   2.597   2.126   1.449  1.3386 -4.1292  0.2038
  995SOL     OW 2983   2.026   1.940   2.274  0.4694 -0.4553 -0.0694
  995SOL    HW1 2984   1.996   2.039   2.280 -0.0531  1.0031  0.5393
  995SOL    HW2 2985   1.989   1.896   2.185  0.5945 -2.1657 -0.8770
  996SOL     OW 2986   2.041   1.861   3.037 -0.2254 -0.3147  0.1330
  996SOL    HW1 2987   1.958   1.915   3.046  1.5922 -2.0876 -1.3335
  996SOL    HW2 2988   2.055   1.802   0.010  0.4899  3.4347  0.3360
  997SOL     OW 2989   1.391   1.309   2.496  0.3715  0.1699 -0.0459
  997SOL    HW1 2990   1.323   1.300   2.421 -1.2927  0.1980 -1.0722
  997SOL    HW2 2991   1.394   1.403   2.532 -0.2982  1.0826  3.5384
  998SOL     OW 2992   2.965   2.607   0.674  0.5445 -0.9713  0.1751
  998SOL    HW1 2993   3.003   2.565   0.592 -2.3578  1.4853  2.5810
  998SOL    HW2 2994   3.021   2.585   0.753  0.1322  0.6120  1.1108
  999SOL     OW 2995   0.226   2.811   0.493 -0.3270  0.4513 -0.3891
  999SOL    HW1 2996   0.249   2.745   0.569  0.6295 -0.6923  3.6580
  999SOL    HW2 2997   0.313   2.869   0.470  1.1849 -0.4291 -0.3589
 1000SOL     OW 2998   1.098   0.032   3.075  0.2586  0.7040  0.6271
 1000SOL    HW1 2999   1.083   3.045   0.009 -0.3283 -0.9695  1.7261
 1000SOL    HW2 3000   1.009   0.061   3.032  1.3611 -1.2835 -1.3376
   3.10651   3.10651   3.10651
