1000 SPC/Fw water molecules t= 199.00000 step= 199000
 3000
    1SOL     OW    1   2.845   0.010   0.944  0.0624 -0.2855  0.0587
    1SOL    HW1    2   2.746   0.040   0.928 -1.7078 -1.6835  0.0196
    1SOL    HW2    3   2.894   0.003   0.850  2.5955  0.1176 -1.9001
    2SOL     OW    4   1.947   1.494   1.950  0.4224  0.2060  0.0048
    2SOL    HW1    5   2.027   1.523   2.013  0.8714 -1.3917 -1.2894
    2SOL    HW2    6   1.858   1.500   2.004 -0.9599  1.0405  1.4521
    3SOL     OW    7   2.086   2.465   2.040  0.2098 -0.4883  0.4385
    3SOL    HW1    8   2.060   2.563   2.027  0.4267 -1.5782 -1.9827
    3SOL    HW2    9   2.029   2.414   2.107  0.7117 -1.1358  2.2763
    4SOL     OW   10   1.875   1.967   2.322 -0.3363  0.0543  0.8723
    4SOL    HW1   11   1.948   1.963   2.251 -0.7517  0.3720  2.2050
    4SOL    HW2   12   1.849   1.874   2.346 -0.0687  1.2112  0.0560
    5SOL     OW   13   1.298   0.629   1.679 -0.0694  0.2096 -0.6424
    5SOL    HW1   14   1.203   0.670   1.692  1.7992 -0.0709  1.4044
    5SOL    HW2   15   1.303   0.573   1.594  1.5967  1.5893  2.5856
    6SOL     OW   16   2.645   0.641   2.883 -0.1501 -0.4770 -0.1404
    6SOL    HW1   17   2.661   0.648   2.983 -0.9212 -0.9759  0.4893
    6SOL    HW2   18   2.549   0.669   2.858 -0.4587  0.0690  1.1684
    7SOL     OW   19   0.920   0.981   1.312 -0.2217  0.1662 -0.2735
    7SOL    HW1   20   1.022   1.008   1.313 -0.2817  1.5397 -1.0960
    7SOL    HW2   21   0.871   1.065   1.292  0.3619 -0.7222  0.9700
    8SOL     OW   22   1.335   0.715   0.824 -0.3217 -0.2658  0.1751
    8SOL    HW1   23   1.288   0.682   0.907 -0.8373 -0.8868  2.8060
    8SOL    HW2   24   1.434   0.741   0.848 -1.0071 -1.8965  0.6359
    9SOL     OW   25   1.116   0.866   2.776 -0.2452  0.1979  0.5588
    9SOL    HW1   26   1.199   0.875   2.839  2.0566  0.6468  1.2744
    9SOL    HW2   27   1.131   0.788   2.717  1.4353  1.3422 -0.6249
   10SOL     OW   28   0.189   2.467   0.409 -0.0422  1.1001 -0.0246
   10SOL    HW1   29   0.262   2.393   0.393  0.7568 -2.1755  1.4910
   10SOL    HW2   30   0.203   2.559   0.365  1.3841 -2.7782  2.6354
   11SOL     OW   31   0.433   1.506   0.026 -0.0107  0.0562 -0.4475
   11SOL    HW1   32   0.472   1.454   3.006  0.4783 -3.7130  1.2093
   11SOL    HW2   33   0.332   1.497   0.024  1.6502 -1.2041  1.1777
   12SOL     OW   34   0.366   0.064   1.317 -0.5232 -0.5420 -0.0092
   12SOL    HW1   35   0.441   3.059   1.340  0.8199 -0.3155  0.4237
   12SOL    HW2   36   0.372   0.152   1.367 -2.5164 -1.3276  3.6754
   13SOL     OW   37   0.961   0.016   0.369 -0.1293 -0.6539 -0.6590
   13SOL    HW1   38   0.997   0.100   0.418 -0.6390 -0.0369  2.1068
   13SOL    HW2   39   1.041   3.017   0.348 -0.5987 -2.0040  0.8678
   14SOL     OW   40   1.223   2.275   1.280 -0.3843 -0.1503  0.4222
   14SOL    HW1   41   1.176   2.347   1.224 -1.5306 -1.8472 -2.0020
   14SOL    HW2   42   1.163   2.244   1.355  1.4219 -0.9125  3.3566
   15SOL     OW   43   2.545   0.687   1.949 -0.5968 -0.1825 -0.5763
   15SOL    HW1   44   2.635   0.708   1.905 -0.3484  1.0391  1.0014
   15SOL    HW2   45   2.499   0.606   1.912 -1.9599  0.6963  2.0374
   16SOL     OW   46   1.179   2.782   2.961  0.0193 -0.0272 -0.6228
   16SOL    HW1   47   1.180   2.844   3.041  0.8466 -3.0183  0.8398
   16SOL    HW2   48   1.140   2.691   2.994  0.6474 -3.0844  3.8052
   17SOL     OW   49   0.954   0.135   1.417  0.6033 -0.2134  0.0202
   17SOL    HW1   50   0.897   0.139   1.500 -0.6393 -2.8846 -2.4163
   17SOL    HW2   51   0.931   0.217   1.357 -0.7181 -0.0857 -0.9875
   18SOL     OW   52   1.054   1.037   0.345  0.4028  0.3099 -0.0364
   18SOL    HW1   53   1.001   1.104   0.296  2.9139 -0.1319  2.3542
   18SOL    HW2   54   1.154   1.059   0.334  1.9079  0.3719  0.4544
   19SOL     OW   55   1.971   1.441   0.033  0.2879  0.4660 -0.1913
   19SOL    HW1   56   2.030   1.503   3.045 -2.1350 -1.9054  0.9953
   19SOL    HW2   57   1.992   1.344   0.001  1.2446  1.5551  1.4785
   20SOL     OW   58   1.825   1.661   1.577  0.3487 -0.3780  0.2198
   20SOL    HW1   59   1.883   1.664   1.658 -0.5526 -1.4127 -0.1338
   20SOL    HW2   60   1.795   1.565   1.551 -1.3149 -3.1176 -0.3948
   21SOL     OW   61   0.613   1.370   0.194 -0.0074 -0.4688 -0.2648
   21SOL    HW1   62   0.705   1.414   0.186 -0.6228  0.2475  0.6539
   21SOL    HW2   63   0.538   1.419   0.148  1.2873  0.3792  3.0702
   22SOL     OW   64   2.310   0.152   1.289  0.4165 -0.4990  0.1546
   22SOL    HW1   65   2.337   0.144   1.388  0.1978 -0.4169  0.8805
   22SOL    HW2   66   2.214   0.182   1.284 -3.3685 -0.6313 -1.0285
   23SOL     OW   67   3.017   0.925   1.511  0.3433  0.6689  0.4786
   23SOL    HW1   68   0.018   0.844   1.514  0.4042  0.1460 -0.6434
   23SOL    HW2   69   3.012   0.962   1.413  0.3057 -1.5860 -2.9085
   24SOL     OW   70   2.454   2.578   1.187 -0.2811  0.0425  0.1193
   24SOL    HW1   71   2.438   2.514   1.108  0.6400  1.4018  0.6075
   24SOL    HW2   72   2.548   2.574   1.220  0.0925  2.5921 -0.3472
   25SOL     OW   73   1.966   2.514   2.509  0.1385 -0.3910 -0.0076
   25SOL    HW1   74   2.065   2.493   2.498 -1.0824 -0.1048  0.6966
   25SOL    HW2   75   1.928   2.518   2.417  1.0664  2.0005  0.6715
   26SOL     OW   76   1.061   2.532   2.988  0.0420 -0.8354 -0.5266
   26SOL    HW1   77   1.032   2.459   2.921 -0.7274 -1.2506  0.8010
   26SOL    HW2   78   1.039   2.497   0.025 -0.2383 -0.3981 -0.0734
   27SOL     OW   79   0.410   1.926   2.512 -0.6326  0.0676 -0.0254
   27SOL    HW1   80   0.482   1.852   2.511  1.8712 -0.3781 -0.1531
   27SOL    HW2   81   0.317   1.885   2.526  2.2437 -1.7045 -0.9061
   28SOL     OW   82   0.043   1.441   1.668 -0.2364  0.5978 -0.5627
   28SOL    HW1   83   3.028   1.477   1.610 -1.2738  3.4303 -0.2154
   28SOL    HW2   84   0.118   1.508   1.689  1.0930  1.9698  1.9684
   29SOL     OW   85   2.787   2.129   2.032 -0.2172 -0.2444  0.0470
   29SOL    HW1   86   2.782   2.030   2.022  0.6204  2.3964  2.2035
   29SOL    HW2   87   2.881   2.161   2.050 -0.5958 -0.4274 -0.0336
   30SOL     OW   88   1.236   2.859   0.614 -0.3359  0.4549 -0.1078
   30SOL    HW1   89   1.257   2.787   0.684 -0.3814  0.0539  0.9879
   30SOL    HW2   90   1.189   2.939   0.662  0.3581  0.4504 -0.7095
   31SOL     OW   91   3.035   2.291   1.849 -0.5062 -0.1668  0.5912
   31SOL    HW1   92   3.040   2.376   1.787 -0.5297  1.9467  0.1389
   31SOL    HW2   93   2.991   2.206   1.806 -0.4830 -1.9906 -0.7570
   32SOL     OW   94   1.001   1.094   1.682 -0.1433 -0.0960  0.4610
   32SOL    HW1   95   1.103   1.085   1.671  2.2795  0.5148 -1.6412
   32SOL    HW2   96   0.949   1.008   1.667 -4.4741 -1.2887 -0.0779
   33SOL     OW   97   0.242   2.701   2.391 -0.6521  0.2239  0.6219
   33SOL    HW1   98   0.211   2.612   2.431 -0.3266 -0.3944 -0.7151
   33SOL    HW2   99   0.314   2.684   2.316 -0.5562  0.7595 -3.1987
   34SOL     OW  100   1.904   0.174   0.745 -0.1315 -0.3813  0.0186
   34SOL    HW1  101   1.907   0.266   0.791 -0.0238  2.1847  0.1624
   34SOL    HW2  102   1.963   0.110   0.798  0.9775  0.3618 -1.1267
   35SOL     OW  103   2.444   0.253   0.817 -0.2041 -0.4312  0.1207
   35SOL    HW1  104   2.420   0.217   0.726 -0.3023 -1.3829 -1.2841
   35SOL    HW2  105   2.524   0.317   0.812  2.4313 -0.0835 -1.7573
   36SOL     OW  106   2.219   2.715   2.373 -0.3194  0.4004 -0.5512
   36SOL    HW1  107   2.243   2.637   2.309 -1.8823  1.1727  0.4856
   36SOL    HW2  108   2.272   2.797   2.340 -0.4944 -2.3090 -0.9395
   37SOL     OW  109   1.069   2.452   2.157 -0.0538  0.4110 -0.0676
   37SOL    HW1  110   1.121   2.488   2.076 -1.8539  0.6401 -1.5779
   37SOL    HW2  111   1.135   2.427   2.229 -2.4733 -0.8959 -1.6896
   38SOL     OW  112   2.642   0.375   2.799 -0.0567 -0.0048 -0.2289
   38SOL    HW1  113   2.700   0.326   2.868  1.4268  0.4789  0.0752
   38SOL    HW2  114   2.627   0.473   2.822 -0.2998  0.7863 -0.3866
   39SOL     OW  115   2.178   1.624   1.644 -0.2721 -0.3400 -0.0308
   39SOL    HW1  116   2.114   1.686   1.688  0.0656 -0.7611 -2.4802
   39SOL    HW2  117   2.253   1.680   1.602 -1.1557  1.9068 -2.0112
   40SOL     OW  118   0.194   0.021   2.708 -0.2289  0.6531 -0.2232
   40SOL    HW1  119   0.097   0.050   2.691  1.0705  0.5664 -1.1932
   40SOL    HW2  120   0.220   3.008   2.643 -0.9395  0.4725  0.9805
   41SOL     OW  121   1.901   0.530   1.113 -0.8901  0.1671 -0.1984
   41SOL    HW1  122   1.955   0.615   1.095  0.4584  0.6317 -0.4791
   41SOL    HW2  123   1.870   0.487   1.026  0.1069 -3.7907  1.3060
   42SOL     OW  124   0.566   0.363   1.255  0.0043  0.6562  0.2371
   42SOL    HW1  125   0.486   0.356   1.312  1.7142  0.2008  0.2299
   42SOL    HW2  126   0.648   0.383   1.317  1.4154 -0.8517  1.9883
   43SOL     OW  127   2.513   1.085   2.263 -0.0171  0.0084 -0.3731
   43SOL    HW1  128   2.438   1.107   2.204  0.2501 -2.0708  4.3346
   43SOL    HW2  129   2.555   1.002   2.220 -1.1982  0.9742  2.1773
   44SOL     OW  130   3.037   2.869   0.305  0.4728  0.6315  0.4271
   44SOL    HW1  131   2.984   2.956   0.289  0.1736  0.6111  0.8026
   44SOL    HW2  132   0.040   2.882   0.386  1.5429  1.0687 -0.2625
   45SOL     OW  133   3.028   2.523   1.722 -0.2198  0.6418  0.0721
   45SOL    HW1  134   2.934   2.559   1.702 -0.6519  0.7368 -2.3417
   45SOL    HW2  135   0.018   2.495   1.638  1.6828 -0.0239  1.2634
   46SOL     OW  136   2.112   2.327   1.798  0.2334  0.2278  0.1102
   46SOL    HW1  137   2.058   2.365   1.873  1.5161 -0.3737  1.1269
   46SOL    HW2  138   2.209   2.329   1.828 -3.9250 -0.3167  0.4571
   47SOL     OW  139   1.656   2.376   1.452  0.3206  0.0399  0.2988
   47SOL    HW1  140   1.582   2.389   1.379 -1.5649  0.3364  2.6884
   47SOL    HW2  141   1.738   2.319   1.413  2.8382 -1.9513 -0.4380
   48SOL     OW  142   0.514   1.672   0.382  0.0252 -0.0762  0.4989
   48SOL    HW1  143   0.536   1.646   0.284  1.4161 -1.2871  0.6000
   48SOL    HW2  144   0.607   1.683   0.421  0.2411 -1.9001 -4.2044
   49SOL     OW  145   2.744   0.372   2.550  0.4503  0.4501 -0.0482
   49SOL    HW1  146   2.734   0.352   2.651 -4.1289 -1.2509 -2.0531
   49SOL    HW2  147   2.670   0.436   2.527  0.2949 -0.1661 -1.9620
   50SOL     OW  148   2.262   0.883   0.349  0.0671 -0.4323 -0.5284
   50SOL    HW1  149   2.308   0.802   0.393 -1.6158 -1.0507  0.5256
   50SOL    HW2  150   2.293   0.888   0.251 -0.3912 -2.9565 -3.2351
   51SOL     OW  151   1.746   0.511   1.324 -0.2723  0.3360  0.5938
   51SOL    HW1  152   1.719   0.438   1.389 -0.3911  3.0592 -1.3510
   51SOL    HW2  153   1.800   0.490   1.238 -0.7131  2.4808  0.3049
   52SOL     OW  154   1.050   1.482   2.989 -0.2023  0.2330 -0.0191
   52SOL    HW1  155   1.030   1.380   3.007  0.4812 -1.8867  2.3613
   52SOL    HW2  156   1.100   1.488   2.901 -1.9934 -1.0977  2.5291
   53SOL     OW  157   0.811   1.332   2.299  0.7524 -0.0752 -0.3867
   53SOL    HW1  158   0.882   1.398   2.327  2.4328  0.6881  1.7083
   53SOL    HW2  159   0.745   1.380   2.235  0.5689  0.8206  2.4671
   54SOL     OW  160   2.033   0.252   1.219  0.7649  0.2657 -0.1612
   54SOL    HW1  161   1.997   0.156   1.205 -0.0309 -0.3461  0.2670
   54SOL    HW2  162   1.978   0.321   1.163  1.9781 -0.5528 -1.5446
   55SOL     OW  163   2.649   3.001   0.675 -0.1343 -0.3577 -0.9887
   55SOL    HW1  164   2.689   2.934   0.613  0.3899  1.0516  0.6073
   55SOL    HW2  165   2.689   0.032   0.664 -1.4477  0.1685  0.6765
   56SOL     OW  166   0.881   2.804   1.554  0.5938 -0.2452 -0.0238
   56SOL    HW1  167   0.911   2.869   1.484 -2.5213 -0.3807  0.3333
   56SOL    HW2  168   0.941   2.796   1.635  1.1870 -0.7075 -0.4943
   57SOL     OW  169   1.566   1.280   0.486 -0.1539  0.2645  0.2308
   57SOL    HW1  170   1.530   1.239   0.571  1.3317  0.4063  0.2149
   57SOL    HW2  171   1.519   1.370   0.466  2.4407  0.2925  2.1246
   58SOL     OW  172   3.009   0.732   2.365  0.3941 -0.0949  0.0014
   58SOL    HW1  173   2.946   0.798   2.408 -3.5469  4.3088  1.9211
   58SOL    HW2  174   2.970   0.639   2.352  0.8941 -0.5577 -3.1189
   59SOL     OW  175   1.005   2.769   2.477  0.6327  0.1119  0.0687
   59SOL    HW1  176   1.055   2.792   2.561 -0.2510 -0.8774  0.8776
   59SOL    HW2  177   0.923   2.710   2.501  0.8482 -0.2685 -1.3689
   60SOL     OW  178   2.378   2.756   0.897 -0.4924 -0.1147  0.5192
   60SOL    HW1  179   2.381   2.767   0.795 -1.6066 -3.6955 -0.9337
   60SOL    HW2  180   2.467   2.762   0.939 -3.3240  0.7054 -1.6733
   61SOL     OW  181   1.072   2.387   0.713 -0.0909 -0.1409  0.4153
   61SOL    HW1  182   1.015   2.433   0.642 -0.5775  1.5542  1.4733
   61SOL    HW2  183   1.084   2.446   0.793 -0.3804 -2.0111 -0.7291
   62SOL     OW  184   2.370   2.192   2.601  0.3252  0.4551 -0.3769
   62SOL    HW1  185   2.351   2.110   2.544  0.3265  0.1187  1.5332
   62SOL    HW2  186   2.357   2.175   2.705 -0.4497 -1.9478  2.4454
   63SOL     OW  187   2.176   0.822   2.807 -0.1575  0.1551 -0.5771
   63SOL    HW1  188   2.161   0.806   2.708 -0.0035 -3.3778  0.9751
   63SOL    HW2  189   2.081   0.826   2.854 -1.3811 -1.5559  1.5688
   64SOL     OW  190   1.192   0.655   0.037  0.9039 -0.4518  0.7034
   64SOL    HW1  191   1.144   0.573   0.001  2.4464 -2.6472 -0.3048
   64SOL    HW2  192   1.138   0.704   0.105  0.3479  0.0889 -0.3769
   65SOL     OW  193   0.930   2.102   0.479 -0.0350  0.7106 -0.1828
   65SOL    HW1  194   0.918   2.004   0.443  0.4805 -2.0219  2.6452
   65SOL    HW2  195   1.028   2.133   0.469  1.5600  1.8025  0.5321
   66SOL     OW  196   0.364   1.161   1.765  0.1761  0.7146  0.1060
   66SOL    HW1  197   0.324   1.243   1.809  0.2242 -2.4248 -3.1047
   66SOL    HW2  198   0.457   1.147   1.798 -1.5546 -0.2582 -1.1262
   67SOL     OW  199   2.257   2.731   2.630 -0.1481  0.1606  0.1656
   67SOL    HW1  200   2.212   2.824   2.641 -3.4993  4.5510 -1.1640
   67SOL    HW2  201   2.236   2.703   2.531 -1.3380  0.1602  1.2459
   68SOL     OW  202   0.625   1.840   1.331  0.1969 -0.3083  0.8313
   68SOL    HW1  203   0.654   1.759   1.386 -1.3412  2.4072  2.7007
   68SOL    HW2  204   0.703   1.886   1.275  0.6005  1.8413 -1.6375
   69SOL     OW  205   0.984   2.444   0.198 -0.5850  0.1304  0.6595
   69SOL    HW1  206   0.881   2.429   0.204 -2.1708 -0.5950  1.1625
   69SOL    HW2  207   0.999   2.530   0.248 -0.1697 -2.2829  0.6733
   70SOL     OW  208   2.980   1.056   2.777 -0.0225  0.0079  0.2188
   70SOL    HW1  209   3.029   1.109   2.851  1.9512 -1.4609 -3.6407
   70SOL    HW2  210   3.038   1.034   2.696 -0.3824 -0.4103 -0.2733
   71SOL     OW  211   2.898   1.262   2.634 -0.5539  0.1485 -0.0898
   71SOL    HW1  212   2.941   1.185   2.689 -0.3975 -1.4723  1.1245
   71SOL    HW2  213   2.800   1.250   2.607 -0.2027 -1.6872  0.1824
   72SOL     OW  214   2.791   2.210   0.255 -0.0570 -0.4756  0.3999
   72SOL    HW1  215   2.769   2.213   0.356  0.0850 -2.4567 -0.1068
   72SOL    HW2  216   2.886   2.182   0.233  3.2758 -1.1899 -0.4894
   73SOL     OW  217   0.833   1.528   0.137  0.1278 -0.0507  0.5884
   73SOL    HW1  218   0.892   1.485   0.069  2.5750  0.0423  3.0655
   73SOL    HW2  219   0.869   1.623   0.157 -0.4863 -0.8117 -0.9909
   74SOL     OW  220   0.164   0.723   2.974 -0.2154  0.0753 -0.3449
   74SOL    HW1  221   0.080   0.727   3.030  0.5973  0.1292 -0.5065
   74SOL    HW2  222   0.131   0.718   2.878  0.8788 -0.3743 -0.5343
   75SOL     OW  223   2.049   1.388   1.729  0.2031  0.3871 -0.7384
   75SOL    HW1  224   2.096   1.470   1.693  0.9805  2.3536  1.7759
   75SOL    HW2  225   1.989   1.417   1.809 -0.5384  0.5130  0.9922
   76SOL     OW  226   2.042   2.558   1.454  0.1217  0.4016  0.7817
   76SOL    HW1  227   2.019   2.471   1.496  2.2474 -0.3201 -0.1880
   76SOL    HW2  228   1.979   2.634   1.489 -2.8367  3.5905  0.8788
   77SOL     OW  229   2.586   0.507   1.151 -0.1428 -0.4278  0.1980
   77SOL    HW1  230   2.614   0.476   1.244  2.0623  2.5452 -0.9519
   77SOL    HW2  231   2.525   0.437   1.109  1.1444 -1.5369  0.5407
   78SOL     OW  232   1.512   1.151   0.157 -0.7052 -0.0192  0.0486
   78SOL    HW1  233   1.490   1.238   0.106  0.5092  2.8530  1.5751
   78SOL    HW2  234   1.600   1.156   0.213  0.2531 -0.4654  0.2068
   79SOL     OW  235   0.583   1.846   1.803  0.2356 -0.6288 -0.4858
   79SOL    HW1  236   0.664   1.906   1.810  2.2874 -1.5400  0.1814
   79SOL    HW2  237   0.543   1.857   1.711 -0.8491 -1.4509  0.4844
   80SOL     OW  238   1.573   1.096   1.244  0.5074  0.3915  0.4790
   80SOL    HW1  239   1.529   1.053   1.326  0.9373  1.5965 -1.1343
   80SOL    HW2  240   1.544   1.048   1.159  0.8322  2.3485 -1.2047
   81SOL     OW  241   0.778   3.019   1.008  0.3370 -0.1450  0.3894
   81SOL    HW1  242   0.738   2.981   0.925  1.9382  0.2532  0.7531
   81SOL    HW2  243   0.773   0.057   1.000  1.1050 -2.7667 -0.1445
   82SOL     OW  244   1.869   2.750   1.655  0.9700 -0.0620  0.6417
   82SOL    HW1  245   1.818   2.833   1.676 -0.6118 -0.0290 -1.6830
   82SOL    HW2  246   1.824   2.665   1.694 -1.5725  1.8353 -1.0242
   83SOL     OW  247   0.791   2.590   1.017  0.5767 -0.3410 -0.0910
   83SOL    HW1  248   0.688   2.584   1.013 -2.8817  0.0043  1.1647
   83SOL    HW2  249   0.816   2.536   1.096  1.5771  1.4208  1.8858
   84SOL     OW  250   0.568   1.210   2.558 -0.3991 -0.2525  0.1898
   84SOL    HW1  251   0.490   1.258   2.511 -0.5393  2.6928  0.2884
   84SOL    HW2  252   0.609   1.142   2.491  0.8557  1.6605 -0.5979
   85SOL     OW  253   3.039   2.266   1.141 -0.3542  0.2873  0.4198
   85SOL    HW1  254   0.002   2.281   1.244  0.5488  0.9562  2.2471
   85SOL    HW2  255   0.055   2.290   1.086 -1.8899 -0.3388  1.2089
   86SOL     OW  256   2.671   2.179   1.586 -0.4668  0.1288 -0.6893
   86SOL    HW1  257   2.673   2.278   1.553  1.2172 -0.9948  1.0124
   86SOL    HW2  258   2.595   2.129   1.538  0.6489 -0.9758 -0.8129
   87SOL     OW  259   2.717   2.022   2.868  0.5675 -0.2217 -0.3487
   87SOL    HW1  260   2.664   2.112   2.855 -3.1225  1.9067 -0.7804
   87SOL    HW2  261   2.771   2.018   2.954  0.2403 -1.4817 -1.7981
   88SOL     OW  262   0.436   1.779   1.132  0.1625  0.2392  0.4332
   88SOL    HW1  263   0.342   1.814   1.156 -0.8844 -0.1703  0.5723
   88SOL    HW2  264   0.501   1.806   1.209 -0.0927  0.2026 -2.2171
   89SOL     OW  265   1.013   3.036   1.833 -0.0788  0.4199 -0.2425
   89SOL    HW1  266   1.050   0.070   1.816  0.1067  1.9630  0.1890
   89SOL    HW2  267   1.087   2.969   1.832 -0.8309 -2.8437 -0.0108
   90SOL     OW  268   0.034   1.755   1.576  0.2889  0.1742 -0.6011
   90SOL    HW1  269   2.999   1.753   1.545  1.8438 -0.7196 -1.2008
   90SOL    HW2  270   0.057   1.851   1.600  0.6435 -1.5824  0.5994
   91SOL     OW  271   1.052   1.690   0.702  0.4181 -0.6282  0.2463
   91SOL    HW1  272   1.092   1.661   0.616  1.3877  1.7662 -1.2264
   91SOL    HW2  273   1.104   1.771   0.743  1.8756 -0.2700  3.2185
   92SOL     OW  274   2.518   3.055   1.222  0.6344  0.0004 -0.0773
   92SOL    HW1  275   2.428   0.033   1.245  2.9440  0.1995 -1.7248
   92SOL    HW2  276   2.541   0.016   1.126  1.4085  1.1165  0.9968
   93SOL     OW  277   2.683   1.359   2.926 -0.0756  0.5348  0.0536
   93SOL    HW1  278   2.708   1.309   3.013  0.6431  0.5626  1.3600
   93SOL    HW2  279   2.607   1.300   2.892 -1.9066 -0.5499  1.7931
   94SOL     OW  280   2.649   2.454   2.511  0.9916 -0.2448 -0.1618
   94SOL    HW1  281   2.618   2.358   2.479  1.4818  1.4479 -2.7871
   94SOL    HW2  282   2.573   2.515   2.546 -0.5787 -1.8341  1.0542
   95SOL     OW  283   1.753   0.378   1.579 -0.4290 -0.0866  0.1181
   95SOL    HW1  284   1.814   0.460   1.595  0.6514 -0.3770  0.8444
   95SOL    HW2  285   1.813   0.297   1.565 -1.1711 -0.4742 -1.3125
   96SOL     OW  286   2.794   2.906   1.656  0.1719 -0.8818  0.5227
   96SOL    HW1  287   2.835   2.874   1.570 -1.7636  0.4196  0.5353
   96SOL    HW2  288   2.866   2.928   1.723  1.1582  0.7731  0.9526
   97SOL     OW  289   2.365   0.129   1.563  0.3742 -0.0737  0.2839
   97SOL    HW1  290   2.445   0.097   1.615 -1.7525 -2.4889  0.0948
   97SOL    HW2  291   2.294   0.160   1.638 -0.8521 -1.2788  1.3973
   98SOL     OW  292   1.418   2.189   1.550  0.2350 -0.3618  0.2910
   98SOL    HW1  293   1.509   2.231   1.529 -0.6082  1.4353  1.8937
   98SOL    HW2  294   1.390   2.110   1.490 -1.0026 -1.1578 -3.0742
   99SOL     OW  295   0.112   2.803   1.680 -0.7037  0.1251 -0.3000
   99SOL    HW1  296   0.187   2.801   1.749  1.0603 -1.9023 -1.5317
   99SOL    HW2  297   0.019   2.773   1.712  0.7342 -2.7100 -0.5988
  100SOL     OW  298   0.121   1.134   2.349 -0.0267  0.0596 -0.1473
  100SOL    HW1  299   0.143   1.072   2.275 -1.2040  1.0425  2.6201
  100SOL    HW2  300   0.190   1.210   2.360  2.3870 -0.0315  3.3432
  101SOL     OW  301   1.997   0.640   0.484 -0.3652 -0.1165 -0.2472
  101SOL    HW1  302   1.943   0.636   0.393  1.2566 -0.7208 -2.0058
  101SOL    HW2  303   2.005   0.734   0.514  0.2597 -0.4159  1.0371
  102SOL     OW  304   0.181   0.522   1.099  0.1184  0.0320  0.3960
  102SOL    HW1  305   0.179   0.452   1.027  1.1295 -0.6099  1.3565
  102SOL    HW2  306   0.116   0.593   1.069  1.2751 -1.2785  0.7227
  103SOL     OW  307   2.476   0.809   2.557 -0.1769 -0.2721 -0.7071
  103SOL    HW1  308   2.451   0.762   2.647  2.1071 -3.5015  0.9544
  103SOL    HW2  309   2.406   0.878   2.533 -2.1601 -1.7781 -1.2488
  104SOL     OW  310   0.340   0.384   2.484 -0.3495 -0.1770  0.6070
  104SOL    HW1  311   0.412   0.329   2.439 -1.9227  0.0254 -0.6783
  104SOL    HW2  312   0.379   0.434   2.562  0.4349 -1.5771 -0.5433
  105SOL     OW  313   2.085   0.922   1.651 -0.2685 -0.0568  0.2778
  105SOL    HW1  314   2.116   0.872   1.568 -2.4911  1.8793 -0.6407
  105SOL    HW2  315   2.025   1.002   1.629 -0.8218 -1.5127  0.7692
  106SOL     OW  316   1.147   2.844   0.362  0.2844 -0.3358 -0.5567
  106SOL    HW1  317   1.186   2.868   0.456  0.9781  1.3478 -1.2957
  106SOL    HW2  318   1.195   2.762   0.324 -1.1911 -1.0055  0.9242
  107SOL     OW  319   0.468   1.868   1.566  0.3261 -0.2980 -0.2876
  107SOL    HW1  320   0.376   1.830   1.542 -4.3915  0.1115 -0.4973
  107SOL    HW2  321   0.535   1.880   1.489  3.8154  1.3502  4.7462
  108SOL     OW  322   0.322   0.009   2.342 -0.6919 -0.5504  0.2222
  108SOL    HW1  323   0.329   3.022   2.431 -0.5120 -2.5673  1.2051
  108SOL    HW2  324   0.404   0.062   2.325 -0.0291  2.5918  0.6069
  109SOL     OW  325   2.145   0.193   0.186  0.2861  0.2204  0.1717
  109SOL    HW1  326   2.052   0.158   0.169  0.7275  1.5326  2.3548
  109SOL    HW2  327   2.213   0.136   0.138  0.3103  1.1287  1.0446
  110SOL     OW  328   0.295   2.228   2.335 -0.9135 -0.0914 -0.0434
  110SOL    HW1  329   0.278   2.316   2.298  1.2069 -1.5294  0.7448
  110SOL    HW2  330   0.292   2.237   2.435 -0.7375  2.4313  0.0927
  111SOL     OW  331   1.687   2.833   2.190 -0.1490 -0.1110  0.2792
  111SOL    HW1  332   1.598   2.865   2.155 -0.2486 -0.2534 -1.8259
  111SOL    HW2  333   1.763   2.872   2.144  0.1991 -2.8722  1.0811
  112SOL     OW  334   1.885   2.099   2.549  0.2949  0.3019 -0.4140
  112SOL    HW1  335   1.981   2.069   2.569  0.0850 -1.2136 -1.9242
  112SOL    HW2  336   1.863   2.056   2.459  1.2479 -3.0588 -1.1104
  113SOL     OW  337   2.385   2.375   1.862  0.1875  0.7904  0.0549
  113SOL    HW1  338   2.412   2.470   1.874  1.0573 -2.1798 -2.1814
  113SOL    HW2  339   2.462   2.309   1.871  2.8720  2.9090  1.3030
  114SOL     OW  340   2.593   0.830   0.815 -0.2796 -0.1137 -0.0504
  114SOL    HW1  341   2.689   0.792   0.809  0.8537  0.8233 -1.0749
  114SOL    HW2  342   2.594   0.933   0.817  1.3996 -0.6526  0.6865
  115SOL     OW  343   0.269   1.673   2.822 -0.2675 -0.3115 -0.2595
  115SOL    HW1  344   0.308   1.759   2.855 -0.2325  0.7640 -1.2047
  115SOL    HW2  345   0.204   1.698   2.746  0.5702  1.5255 -3.0516
  116SOL     OW  346   0.303   1.392   1.977 -0.2510 -0.1638  0.3573
  116SOL    HW1  347   0.355   1.444   1.907 -1.0006  0.6773 -0.9276
  116SOL    HW2  348   0.213   1.435   1.993  2.8025 -2.1498 -1.8547
  117SOL     OW  349   2.779   0.202   0.679  0.2205 -0.2626  0.1789
  117SOL    HW1  350   2.770   0.269   0.758  1.0421 -0.4194 -2.5522
  117SOL    HW2  351   2.765   0.246   0.586  0.7641 -1.6699 -0.7069
  118SOL     OW  352   1.159   1.841   1.720 -0.1128 -0.0345 -0.7259
  118SOL    HW1  353   1.063   1.813   1.735  2.5294 -0.9290  1.1479
  118SOL    HW2  354   1.201   1.853   1.814  0.7820  3.1486  3.2244
  119SOL     OW  355   1.248   2.103   3.008  0.0796  0.2232 -0.0364
  119SOL    HW1  356   1.224   2.004   3.017 -0.4473 -2.3488 -1.8216
  119SOL    HW2  357   1.204   2.156   0.022  0.1362 -1.0026  0.5148
  120SOL     OW  358   0.346   1.378   2.407 -0.1311  0.4042 -0.0806
  120SOL    HW1  359   0.294   1.465   2.403  0.5806 -0.7902  1.1726
  120SOL    HW2  360   0.349   1.330   2.315  1.3080 -2.1170 -1.7038
  121SOL     OW  361   1.919   2.667   1.076 -0.0086 -0.0258 -0.3392
  121SOL    HW1  362   2.009   2.656   1.024  1.4357 -2.9865 -1.7246
  121SOL    HW2  363   1.843   2.672   1.008 -1.0972  0.8216  0.2424
  122SOL     OW  364   2.179   1.899   1.846  0.7278  0.3066 -0.2147
  122SOL    HW1  365   2.266   1.918   1.901  2.2501  0.3310  0.5958
  122SOL    HW2  366   2.183   1.952   1.758 -0.1863  2.1638 -1.6838
  123SOL     OW  367   3.017   0.033   0.723 -0.7095  0.1755  0.5545
  123SOL    HW1  368   2.971   0.110   0.673  0.7205  0.6202  3.6434
  123SOL    HW2  369   3.050   3.020   0.658  1.3628 -0.6894 -1.7790
  124SOL     OW  370   1.883   0.618   2.475  0.0692  0.3780 -0.4872
  124SOL    HW1  371   1.805   0.564   2.510  0.3324  0.0514  1.8291
  124SOL    HW2  372   1.876   0.628   2.374 -0.3925 -1.6723 -2.6006
  125SOL     OW  373   0.386   1.344   0.783  0.2447  0.0629 -0.2465
  125SOL    HW1  374   0.481   1.327   0.764 -2.7342  1.0541 -0.8943
  125SOL    HW2  375   0.367   1.444   0.795 -0.4200 -2.1593  0.9270
  126SOL     OW  376   2.409   1.728   0.388 -0.2386 -0.3377  0.7718
  126SOL    HW1  377   2.511   1.724   0.381  1.8018 -0.5737 -0.8404
  126SOL    HW2  378   2.369   1.795   0.457 -3.3518  2.4001  2.9120
  127SOL     OW  379   0.255   1.731   1.421  0.1478  0.0253 -0.2918
  127SOL    HW1  380   0.163   1.760   1.456 -1.7376 -1.8566  1.5961
  127SOL    HW2  381   0.251   1.732   1.321 -3.5712 -1.6624 -0.5282
  128SOL     OW  382   0.820   0.635   2.813  0.0864  0.1191 -0.3119
  128SOL    HW1  383   0.858   0.565   2.878 -0.0077 -2.5405 -0.9802
  128SOL    HW2  384   0.874   0.641   2.731  0.5506 -0.2872  4.5964
  129SOL     OW  385   2.154   1.553   1.043  0.3642  0.0356 -0.4461
  129SOL    HW1  386   2.183   1.578   1.138 -2.3948  2.0562  2.9736
  129SOL    HW2  387   2.065   1.494   1.050 -4.5910 -0.0098  2.0471
  130SOL     OW  388   2.147   1.579   1.339 -0.0946  0.0890 -0.2913
  130SOL    HW1  389   2.069   1.519   1.308  0.1214 -2.0039  0.8299
  130SOL    HW2  390   2.234   1.527   1.364  2.7628 -2.3080 -0.8551
  131SOL     OW  391   2.753   0.923   2.861 -0.4544  0.1288 -0.2214
  131SOL    HW1  392   2.833   0.972   2.822 -1.1259  0.5960 -0.6830
  131SOL    HW2  393   2.733   0.836   2.810 -1.8020  2.4592  2.1319
  132SOL     OW  394   2.560   2.164   1.837 -0.7175 -0.4207  0.5483
  132SOL    HW1  395   2.586   2.163   1.738  0.6991 -3.0901  2.1170
  132SOL    HW2  396   2.649   2.167   1.883 -2.0313  0.6021 -1.9921
  133SOL     OW  397   0.653   0.997   1.048 -0.3632 -0.0900 -0.3017
  133SOL    HW1  398   0.726   1.065   1.035 -2.0610 -0.2777 -1.1734
  133SOL    HW2  399   0.690   0.906   1.045 -0.8698  3.3353 -0.9000
  134SOL     OW  400   0.178   0.936   0.372 -0.1206 -0.5977  0.1249
  134SOL    HW1  401   0.178   0.857   0.435 -0.9265  2.2986  0.7978
  134SOL    HW2  402   0.101   0.925   0.297 -0.0042  2.1396  0.2772
  135SOL     OW  403   1.959   1.428   1.216 -0.4750 -0.2930 -0.1934
  135SOL    HW1  404   1.961   1.325   1.226  2.0399 -1.2344 -1.8604
  135SOL    HW2  405   1.868   1.470   1.223 -0.9137 -0.5344 -1.2691
  136SOL     OW  406   2.137   0.961   0.747  0.3791 -0.0119  0.4799
  136SOL    HW1  407   2.204   0.881   0.729  1.5809 -1.7151  0.6572
  136SOL    HW2  408   2.090   0.989   0.662 -0.1918 -2.8614 -0.5636
  137SOL     OW  409   2.440   1.736   0.686 -0.2715  0.3366 -0.4179
  137SOL    HW1  410   2.362   1.794   0.715 -2.6139  0.2134 -1.2945
  137SOL    HW2  411   2.527   1.744   0.745 -1.4797 -1.6149  0.7525
  138SOL     OW  412   1.692   0.652   1.850  0.1279 -0.4190 -0.2041
  138SOL    HW1  413   1.612   0.716   1.859  3.2931  0.9298  1.6629
  138SOL    HW2  414   1.765   0.698   1.795 -1.5647 -0.5546 -1.2929
  139SOL     OW  415   2.361   2.816   2.919 -0.0279  0.2459  0.3718
  139SOL    HW1  416   2.428   2.738   2.921  0.7708 -0.7985  0.5885
  139SOL    HW2  417   2.272   2.780   2.892  1.6752 -1.2672  1.7233
  140SOL     OW  418   1.532   1.848   2.140 -0.4251 -0.5835 -0.0327
  140SOL    HW1  419   1.568   1.935   2.182  0.3565  1.1710  0.0486
  140SOL    HW2  420   1.501   1.782   2.210  1.3326 -1.0318  1.7554
  141SOL     OW  421   1.783   1.829   1.149  0.6348  0.8708  0.1234
  141SOL    HW1  422   1.842   1.845   1.230  1.2815  0.7379 -1.3520
  141SOL    HW2  423   1.743   1.733   1.155 -0.7453 -0.5645 -1.4993
  142SOL     OW  424   0.194   0.253   0.014  0.2133 -0.1482 -0.8238
  142SOL    HW1  425   0.181   0.168   0.065  0.4380  1.8114 -3.7057
  142SOL    HW2  426   0.133   0.322   0.052  2.0384 -0.7841 -1.0924
  143SOL     OW  427   0.132   2.092   2.734 -0.4476 -0.1456  0.2093
  143SOL    HW1  428   0.206   2.043   2.780 -2.6045  0.6352  3.2222
  143SOL    HW2  429   0.170   2.160   2.670  0.4435 -1.5958 -0.2808
  144SOL     OW  430   1.077   2.759   1.749 -0.3121 -0.1456  0.1826
  144SOL    HW1  431   1.151   2.763   1.821 -1.7057  3.2255 -1.8996
  144SOL    HW2  432   1.019   2.677   1.762  5.9328  4.6172 -1.4019
  145SOL     OW  433   2.033   1.215   0.338 -0.3019 -0.6524  0.1321
  145SOL    HW1  434   2.011   1.255   0.430  0.4654 -0.6742 -1.6519
  145SOL    HW2  435   2.078   1.281   0.269 -2.9715 -2.1291  0.7413
  146SOL     OW  436   2.740   2.775   2.810 -0.3815  0.3084 -0.3431
  146SOL    HW1  437   2.731   2.852   2.747 -0.0366  2.3855 -0.8195
  146SOL    HW2  438   2.806   2.799   2.886 -0.8588 -0.8495 -1.1359
  147SOL     OW  439   2.851   2.328   0.957  0.1251  0.0142 -0.3875
  147SOL    HW1  440   2.912   2.281   1.024 -0.0795 -0.0851  2.1667
  147SOL    HW2  441   2.751   2.300   0.974 -3.4529 -1.5470 -0.9523
  148SOL     OW  442   2.007   2.970   2.835 -1.1277 -0.3171  0.3195
  148SOL    HW1  443   2.026   2.977   2.936 -0.4468 -1.7011  0.9170
  148SOL    HW2  444   1.971   2.880   2.811 -0.2566 -0.6700  0.1338
  149SOL     OW  445   1.162   0.286   2.664  0.3626  0.4258 -0.0468
  149SOL    HW1  446   1.209   0.350   2.728  0.0485  1.1589  1.1200
  149SOL    HW2  447   1.097   0.321   2.599  1.7874 -1.5856  1.1220
  150SOL     OW  448   0.896   2.504   0.529  0.2422  0.2068  0.1832
  150SOL    HW1  449   0.841   2.437   0.473 -0.7773 -1.4467 -3.2879
  150SOL    HW2  450   0.828   2.566   0.578 -2.0206 -0.7833  0.8308
  151SOL     OW  451   2.699   1.785   0.033  0.5863  0.8642  0.4120
  151SOL    HW1  452   2.700   1.698   3.037  0.0786 -1.3461  0.5933
  151SOL    HW2  453   2.790   1.830   0.036 -0.2611  0.9867  0.7541
  152SOL     OW  454   0.157   1.101   0.964 -0.0936  0.2151 -0.4008
  152SOL    HW1  455   0.261   1.084   0.956  0.8353  1.8096  0.3812
  152SOL    HW2  456   0.135   1.188   1.017  1.4830  2.2944  0.8014
  153SOL     OW  457   2.263   2.771   0.403  0.0618  0.3593  0.3402
  153SOL    HW1  458   2.364   2.779   0.425  2.5242 -2.6239  0.3811
  153SOL    HW2  459   2.218   2.850   0.446 -1.4316  1.1580  1.2847
  154SOL     OW  460   0.651   0.516   1.543 -0.3330  0.9163  0.2796
  154SOL    HW1  461   0.630   0.426   1.588  1.3885 -0.2834 -0.3636
  154SOL    HW2  462   0.566   0.570   1.520 -0.0743 -1.3337 -0.7045
  155SOL     OW  463   2.978   1.886   1.262 -0.2916  0.1243  0.2426
  155SOL    HW1  464   2.944   1.788   1.255 -0.7932 -1.7069  1.0825
  155SOL    HW2  465   2.902   1.956   1.247 -0.8581  2.0150 -1.1013
  156SOL     OW  466   1.899   2.075   0.022  0.1100 -0.0482  0.7424
  156SOL    HW1  467   1.967   2.011   0.069 -1.9655  2.5741  0.0543
  156SOL    HW2  468   1.944   2.168   0.016  1.5474 -2.7820  0.7958
  157SOL     OW  469   0.912   2.771   0.871 -0.0267  0.0208  0.3235
  157SOL    HW1  470   0.855   2.712   0.936 -1.8635 -1.3837  1.2058
  157SOL    HW2  471   0.974   2.831   0.922 -1.7326  1.2652  0.9906
  158SOL     OW  472   2.512   0.516   2.509  0.3909 -0.2087 -0.1037
  158SOL    HW1  473   2.426   0.482   2.554  2.8859  1.0439 -0.8990
  158SOL    HW2  474   2.524   0.618   2.523  0.4109 -0.7422 -1.0760
  159SOL     OW  475   0.577   0.294   2.859  0.0156  0.2009 -0.1826
  159SOL    HW1  476   0.579   0.396   2.871 -3.2554 -1.2937  0.6843
  159SOL    HW2  477   0.483   0.253   2.845 -3.0381 -0.3849 -0.0735
  160SOL     OW  478   0.780   2.092   0.067  0.0520  0.5666 -0.3296
  160SOL    HW1  479   0.755   2.180   0.028  2.4858  2.1096  1.7791
  160SOL    HW2  480   0.773   2.016   3.057 -2.5225 -1.1969  0.2423
  161SOL     OW  481   3.032   2.147   2.972  0.1074  0.1601  0.2545
  161SOL    HW1  482   0.018   2.109   2.887  1.7779 -2.6020 -0.9308
  161SOL    HW2  483   2.991   2.238   2.953 -3.2048  0.2460 -1.4816
  162SOL     OW  484   0.539   2.620   1.026  0.6086  0.6445 -0.6720
  162SOL    HW1  485   0.482   2.535   1.012  0.5870 -2.1554  1.0435
  162SOL    HW2  486   0.487   2.707   1.041 -0.7497 -1.7366  0.7662
  163SOL     OW  487   2.399   0.666   2.794  0.3781  0.4363 -0.0155
  163SOL    HW1  488   2.317   0.723   2.820 -0.4621 -2.3143 -1.3254
  163SOL    HW2  489   2.364   0.582   2.744  1.4057 -1.2826 -0.1676
  164SOL     OW  490   2.901   2.167   0.749  0.5178 -0.2836 -0.0507
  164SOL    HW1  491   2.915   2.072   0.778 -0.1848  1.9292  0.9197
  164SOL    HW2  492   2.884   2.231   0.828 -0.0919  1.0485  1.0504
  165SOL     OW  493   2.936   2.975   1.398  0.3286  0.0826 -0.1405
  165SOL    HW1  494   3.036   2.989   1.380  0.9265 -0.5078 -0.0050
  165SOL    HW2  495   2.889   2.917   1.330  1.5473 -1.4877 -1.1554
  166SOL     OW  496   2.206   0.255   0.629 -0.8145  0.2601  0.1133
  166SOL    HW1  497   2.186   0.327   0.698  0.2649 -0.4346  0.2397
  166SOL    HW2  498   2.240   0.294   0.537  1.7106 -3.5424 -2.4374
  167SOL     OW  499   0.456   0.147   1.045  0.1173  0.1280  0.4282
  167SOL    HW1  500   0.421   0.127   1.140  0.5876 -0.3537  1.1593
  167SOL    HW2  501   0.546   0.194   1.057  1.6356  1.0649 -0.0013
  168SOL     OW  502   2.418   2.929   2.433 -0.2499  0.5317 -0.0006
  168SOL    HW1  503   2.502   2.913   2.488  0.3856  4.6549 -2.0726
  168SOL    HW2  504   2.335   2.941   2.486 -2.1062  0.8098  0.1176
  169SOL     OW  505   0.027   1.492   0.682  0.1921  0.1439  0.1172
  169SOL    HW1  506   0.042   1.488   0.578  2.4556  1.1788 -1.4442
  169SOL    HW2  507   0.114   1.509   0.733 -0.5865 -0.4791  1.6717
  170SOL     OW  508   2.664   0.972   1.258  0.7031  0.0702 -0.1430
  170SOL    HW1  509   2.628   0.910   1.182 -0.8697  2.2614 -1.2823
  170SOL    HW2  510   2.599   0.968   1.336 -0.3554  0.8528  2.8354
  171SOL     OW  511   1.304   2.434   1.674 -0.5169  0.3869 -0.6251
  171SOL    HW1  512   1.308   2.354   1.615 -1.9489 -3.1121  2.8658
  171SOL    HW2  513   1.297   2.513   1.615  3.2932 -0.4576 -0.5557
  172SOL     OW  514   0.359   2.371   1.270 -0.0862  0.4024 -0.0205
  172SOL    HW1  515   0.337   2.271   1.272 -1.3796 -0.0280 -0.3280
  172SOL    HW2  516   0.280   2.421   1.234  0.4776 -1.7978  0.1572
  173SOL     OW  517   1.383   2.978   0.140  0.3840  0.4390  0.0481
  173SOL    HW1  518   1.426   2.890   0.126 -0.1596  0.1643 -1.1371
  173SOL    HW2  519   1.445   3.035   0.193 -3.1490 -1.0894 -2.2976
  174SOL     OW  520   1.228   2.524   2.631 -0.1099 -0.0729  0.2258
  174SOL    HW1  521   1.141   2.567   2.651  0.4822 -1.0928 -2.3339
  174SOL    HW2  522   1.244   2.443   2.691  0.9454 -3.7219  1.2908
  175SOL     OW  523   1.888   0.081   0.168  0.5689 -0.3245 -0.4594
  175SOL    HW1  524   1.845   0.154   0.108  0.7146  0.6578  0.9874
  175SOL    HW2  525   1.834   0.058   0.255  0.4602  1.5892  1.2545
  176SOL     OW  526   1.519   0.260   0.097  0.3873  0.3556 -0.8159
  176SOL    HW1  527   1.480   0.226   0.005 -2.4859  0.5071  0.6788
  176SOL    HW2  528   1.512   0.190   0.171  0.8791  3.5366  0.1904
  177SOL     OW  529   0.748   1.715   0.509 -0.7106  0.2027  0.7077
  177SOL    HW1  530   0.731   1.757   0.599 -0.8893 -1.4440 -0.1671
  177SOL    HW2  531   0.824   1.767   0.459 -0.3571  1.4355 -0.7218
  178SOL     OW  532   2.527   1.667   2.230  0.5306  0.6748 -0.2588
  178SOL    HW1  533   2.576   1.588   2.178 -1.2442 -2.3445 -3.4738
  178SOL    HW2  534   2.436   1.644   2.274 -0.3077 -1.0751 -1.0012
  179SOL     OW  535   0.425   2.580   2.739  0.0870  0.5726 -0.4290
  179SOL    HW1  536   0.439   2.681   2.749  0.1815  0.2648 -3.2440
  179SOL    HW2  537   0.440   2.560   2.639  1.3159 -0.2575  0.3121
  180SOL     OW  538   1.797   1.927   1.662 -0.3714 -0.2048 -0.0407
  180SOL    HW1  539   1.842   1.840   1.653 -0.7478  2.9837  0.1789
  180SOL    HW2  540   1.792   1.956   1.760 -0.1303  1.1888 -0.6108
  181SOL     OW  541   1.263   1.090   2.339  0.7217 -0.5984 -0.0488
  181SOL    HW1  542   1.295   1.136   2.424  2.8779  0.6273 -1.2485
  181SOL    HW2  543   1.191   1.144   2.290  0.7141 -2.5672 -0.2824
  182SOL     OW  544   0.008   0.461   2.674 -0.0280 -0.0070  0.2212
  182SOL    HW1  545   0.030   0.394   2.596  0.1876 -4.8669 -0.8971
  182SOL    HW2  546   0.098   0.487   2.720 -1.0401 -0.6582 -0.0794
  183SOL     OW  547   1.078   0.249   3.005  0.0839  0.1038  0.2832
  183SOL    HW1  548   1.041   0.154   3.018  1.5116 -0.5443 -3.0730
  183SOL    HW2  549   1.113   0.258   2.909  1.4473 -0.2328  0.3374
  184SOL     OW  550   1.189   1.011   1.310  0.1816  0.2579 -0.0965
  184SOL    HW1  551   1.243   1.086   1.267  1.9702 -1.0089 -2.2605
  184SOL    HW2  552   1.236   0.923   1.313 -3.3557  0.1365  0.0818
  185SOL     OW  553   2.970   1.255   1.267 -0.3388 -0.1273  0.0693
  185SOL    HW1  554   0.001   1.281   1.294 -0.8745 -0.7768 -0.9612
  185SOL    HW2  555   2.907   1.274   1.343 -0.6219 -0.1102  0.6046
  186SOL     OW  556   0.569   1.701   2.567 -0.3874 -0.1071 -0.9551
  186SOL    HW1  557   0.589   1.671   2.471 -0.7387 -2.6112  1.9552
  186SOL    HW2  558   0.509   1.639   2.617  2.6201 -0.0315 -2.2793
  187SOL     OW  559   2.585   1.363   0.256 -0.3853 -0.0667  0.0272
  187SOL    HW1  560   2.620   1.290   0.191 -0.0960 -0.6978 -1.7863
  187SOL    HW2  561   2.658   1.398   0.321 -1.1763  1.4140  2.6591
  188SOL     OW  562   0.037   2.193   0.572 -0.1674  0.0149 -0.3333
  188SOL    HW1  563   0.018   2.243   0.483  1.4206 -0.0081 -1.6867
  188SOL    HW2  564   3.007   2.179   0.618 -2.0456  0.2594  0.0828
  189SOL     OW  565   2.670   0.926   0.068 -0.4178  0.2559 -0.1447
  189SOL    HW1  566   2.708   0.925   3.031 -0.0898 -0.5168  0.5851
  189SOL    HW2  567   2.644   0.834   0.102  1.2014  1.4404 -1.0968
  190SOL     OW  568   1.075   1.271   2.175  0.0183  0.0647  0.1604
  190SOL    HW1  569   1.022   1.235   2.098 -2.6096 -0.0925 -0.5581
  190SOL    HW2  570   1.029   1.350   2.221  0.3726 -2.7213  2.2620
  191SOL     OW  571   2.411   0.422   1.907  0.3103 -0.0469 -0.3003
  191SOL    HW1  572   2.474   0.370   1.843 -1.0149  1.1454  0.6475
  191SOL    HW2  573   2.384   0.365   1.986 -0.7416 -0.1421 -1.1662
  192SOL     OW  574   2.162   0.286   1.696 -0.6664 -0.6298  0.3222
  192SOL    HW1  575   2.161   0.236   1.784  1.8069 -1.2179 -2.7605
  192SOL    HW2  576   2.196   0.382   1.713  0.6852  1.5460 -1.3380
  193SOL     OW  577   0.950   0.471   0.572 -0.4409 -0.5096 -0.6493
  193SOL    HW1  578   1.019   0.500   0.649  0.9203  2.4887  0.6653
  193SOL    HW2  579   0.889   0.548   0.544 -0.7892  1.0652  0.0969
  194SOL     OW  580   1.232   2.955   1.155 -0.0678 -0.0166  0.2637
  194SOL    HW1  581   1.306   3.027   1.155  0.2397 -0.1745 -0.5878
  194SOL    HW2  582   1.162   2.991   1.090  0.3308  0.0083 -0.6791
  195SOL     OW  583   2.481   0.727   0.462 -0.4046 -0.2943 -0.3123
  195SOL    HW1  584   2.578   0.762   0.468  0.5512  1.2550 -0.9274
  195SOL    HW2  585   2.432   0.739   0.551 -0.6356 -1.3653  3.1158
  196SOL     OW  586   1.539   1.658   1.855 -0.1790 -0.2388  0.3023
  196SOL    HW1  587   1.573   1.703   1.770  0.5250  2.5034 -3.2429
  196SOL    HW2  588   1.477   1.727   1.900  1.2588  1.5304  0.4098
  197SOL     OW  589   0.083   2.919   0.565 -0.1358  0.5701 -0.3616
  197SOL    HW1  590   0.173   2.963   0.585 -0.5551  0.3950  1.8487
  197SOL    HW2  591   0.092   2.817   0.589  0.1051 -2.5318 -1.3566
  198SOL     OW  592   0.923   1.491   0.483  0.0667 -0.1238  0.1314
  198SOL    HW1  593   0.857   1.567   0.509  1.8292  1.2810  1.9314
  198SOL    HW2  594   0.868   1.405   0.476 -2.1550  1.0534 -3.4888
  199SOL     OW  595   2.793   0.745   1.828 -0.5028 -0.2377 -0.0118
  199SOL    HW1  596   2.867   0.726   1.895 -0.0291 -1.9945  1.3194
  199SOL    HW2  597   2.819   0.828   1.771  0.5353  0.5054 -0.8204
  200SOL     OW  598   2.121   2.014   2.648  0.3751  0.2314  0.1494
  200SOL    HW1  599   2.200   2.013   2.586 -1.3654  1.9860  0.3040
  200SOL    HW2  600   2.150   2.031   2.744 -3.3602  0.1369 -4.1586
  201SOL     OW  601   2.198   0.026   0.741 -0.2279 -0.0251 -0.3448
  201SOL    HW1  602   2.188   0.119   0.700 -0.6840  1.9277  0.2143
  201SOL    HW2  603   2.233   0.039   0.839  0.7878  0.2585  1.6804
  202SOL     OW  604   2.596   0.662   0.102  0.3688  0.1500 -0.0033
  202SOL    HW1  605   2.540   0.577   0.095  0.3613  0.4511  1.3809
  202SOL    HW2  606   2.670   0.650   0.170  0.1483 -0.3495 -1.5855
  203SOL     OW  607   1.480   1.607   2.298 -0.0283 -0.0356 -0.3507
  203SOL    HW1  608   1.526   1.519   2.264 -2.0492 -2.9428 -1.2513
  203SOL    HW2  609   1.393   1.585   2.347  0.8974 -1.5753  2.5029
  204SOL     OW  610   0.877   1.812   2.244  0.1757  0.3040 -0.3522
  204SOL    HW1  611   0.879   1.899   2.187  0.3250 -1.9921  0.6241
  204SOL    HW2  612   0.973   1.778   2.258  0.2762  0.1047 -2.6007
  205SOL     OW  613   1.280   1.934   1.491 -0.7283  0.6065  0.2340
  205SOL    HW1  614   1.234   1.924   1.582  1.6345  0.0847  0.7439
  205SOL    HW2  615   1.372   1.890   1.491 -1.8158  0.1756 -0.2571
  206SOL     OW  616   0.072   0.757   2.708  0.1983  0.5767 -0.1746
  206SOL    HW1  617   3.036   0.780   2.715  0.4436  1.1936  0.9026
  206SOL    HW2  618   0.120   0.831   2.665 -4.1183 -1.3379  0.5055
  207SOL     OW  619   1.814   2.497   2.284 -0.8789 -0.6542  0.3122
  207SOL    HW1  620   1.725   2.483   2.336 -2.8721  0.1178  1.2527
  207SOL    HW2  621   1.792   2.532   2.190 -0.4137  1.2395 -1.4023
  208SOL     OW  622   0.386   2.313   1.704 -0.4003 -0.3382  0.4820
  208SOL    HW1  623   0.358   2.268   1.617 -0.2493 -1.2990  1.1791
  208SOL    HW2  624   0.341   2.406   1.704  0.8095  0.2715 -0.1421
  209SOL     OW  625   1.427   0.649   2.764 -0.1548 -0.2129  0.2183
  209SOL    HW1  626   1.477   0.739   2.748  2.5601  1.5095 -1.0548
  209SOL    HW2  627   1.493   0.570   2.741  0.6915 -1.3961 -0.5263
  210SOL     OW  628   2.347   0.765   0.706  0.2039  0.1832  0.1322
  210SOL    HW1  629   2.291   0.712   0.772 -2.9172  0.6060 -0.9989
  210SOL    HW2  630   2.436   0.799   0.739 -1.0447  0.3804 -0.8349
  211SOL     OW  631   1.100   0.628   0.739  0.3791 -0.0860 -0.0947
  211SOL    HW1  632   1.023   0.662   0.792  0.6822  0.7217 -1.2627
  211SOL    HW2  633   1.186   0.684   0.750  1.2585 -1.8013  0.0869
  212SOL     OW  634   1.213   1.592   0.427  0.2968  0.6448  0.4641
  212SOL    HW1  635   1.205   1.503   0.476 -1.6941 -0.8785 -3.4378
  212SOL    HW2  636   1.194   1.579   0.327  2.1539 -1.2370 -1.0648
  213SOL     OW  637   1.593   0.069   2.215  0.3149  0.4637 -0.4817
  213SOL    HW1  638   1.690   0.103   2.202 -0.8932 -2.0539 -0.3470
  213SOL    HW2  639   1.578   0.046   2.311 -0.8462  0.8374 -0.3348
  214SOL     OW  640   1.563   1.141   2.544 -0.2643 -0.0127 -0.0712
  214SOL    HW1  641   1.614   1.231   2.536  2.5311 -0.4224 -0.3068
  214SOL    HW2  642   1.467   1.146   2.582 -1.1943 -0.8060 -0.5682
  215SOL     OW  643   0.680   1.559   0.932 -0.7290  0.3008 -0.0189
  215SOL    HW1  644   0.730   1.585   1.020  1.4202 -3.6312  0.3670
  215SOL    HW2  645   0.584   1.535   0.949  1.0866 -0.6926  1.0612
  216SOL     OW  646   0.631   2.855   2.124 -0.4785  0.6555 -0.3749
  216SOL    HW1  647   0.681   2.925   2.076 -3.7026 -0.7534 -0.6619
  216SOL    HW2  648   0.623   2.887   2.224  0.0270 -1.9014  1.0230
  217SOL     OW  649   2.354   0.819   0.045  0.0254  0.4471  0.1506
  217SOL    HW1  650   2.446   0.770   0.059 -0.8139  0.0892 -3.1621
  217SOL    HW2  651   2.363   0.920   0.033 -2.4922 -2.0150  2.0536
  218SOL     OW  652   2.081   1.926   2.131 -0.4548 -0.0093  0.5727
  218SOL    HW1  653   2.082   1.825   2.138  1.7478 -2.4758  0.0680
  218SOL    HW2  654   2.136   1.962   2.054  0.9246 -1.5154  2.2190
  219SOL     OW  655   1.748   1.583   0.103  0.1652 -0.0737  0.4277
  219SOL    HW1  656   1.785   1.656   0.167 -0.7363  2.1004  1.4444
  219SOL    HW2  657   1.822   1.515   0.081  1.7338  0.1953  0.2253
  220SOL     OW  658   1.381   1.765   1.146 -0.0662  0.1871 -0.2064
  220SOL    HW1  659   1.362   1.858   1.172 -2.5550 -1.0111 -1.3168
  220SOL    HW2  660   1.372   1.761   1.048 -0.3621  0.0043  1.4522
  221SOL     OW  661   0.372   0.793   2.820  0.3914 -0.3989  0.2526
  221SOL    HW1  662   0.312   0.764   2.896  2.7139  0.0738  0.5955
  221SOL    HW2  663   0.334   0.879   2.782 -0.3775 -0.9887 -0.0927
  222SOL     OW  664   1.074   2.199   1.492  0.1563  0.9776  0.5051
  222SOL    HW1  665   1.033   2.251   1.567  1.7532 -1.0948 -0.5591
  222SOL    HW2  666   1.137   2.133   1.530  0.1542  1.7797 -0.2130
  223SOL     OW  667   1.441   2.662   2.563 -0.6666  0.0444  0.6298
  223SOL    HW1  668   1.475   2.714   2.644  2.0602 -1.7637 -3.1028
  223SOL    HW2  669   1.366   2.596   2.584  0.1759 -2.2046  0.4172
  224SOL     OW  670   2.808   1.158   0.777 -0.9979  0.0130  0.0559
  224SOL    HW1  671   2.825   1.254   0.753  1.4384 -0.4466 -2.6913
  224SOL    HW2  672   2.720   1.123   0.731 -2.0567  1.4666  1.2036
  225SOL     OW  673   1.276   1.090   1.611  0.5197 -0.2660 -0.3343
  225SOL    HW1  674   1.355   1.150   1.625 -2.9524 -2.0880 -0.8060
  225SOL    HW2  675   1.283   1.045   1.523 -0.5128 -2.2119  2.3555
  226SOL     OW  676   1.269   2.108   2.582  0.6561 -0.5352 -0.3114
  226SOL    HW1  677   1.275   2.181   2.655 -2.0833 -1.8057  0.9298
  226SOL    HW2  678   1.354   2.056   2.580 -2.2967  2.6688  1.0169
  227SOL     OW  679   1.085   1.942   1.090  0.0855 -0.3825  0.1894
  227SOL    HW1  680   1.175   1.968   1.131  0.4491  1.5248  2.8397
  227SOL    HW2  681   1.015   1.982   1.152  1.6825 -0.5329  2.0936
  228SOL     OW  682   0.499   2.037   1.027 -0.6182 -0.1171  0.5304
  228SOL    HW1  683   0.418   2.000   0.976  0.9639 -0.7684 -1.3116
  228SOL    HW2  684   0.555   1.963   1.065  0.1997  1.8658  1.6878
  229SOL     OW  685   2.144   0.666   0.044 -0.0430 -0.1432 -0.0723
  229SOL    HW1  686   2.159   0.574   0.001  2.1722 -2.0074  1.0785
  229SOL    HW2  687   2.230   0.725   0.046 -1.8830 -2.4129  2.5643
  230SOL     OW  688   0.977   0.790   2.122  0.6881  0.1637 -0.5088
  230SOL    HW1  689   1.049   0.829   2.061  1.6443  3.1234 -2.7062
  230SOL    HW2  690   0.986   0.824   2.217 -1.0069  1.3933  2.9266
  231SOL     OW  691   1.171   1.589   2.167 -0.3817 -0.2090 -0.2157
  231SOL    HW1  692   1.107   1.603   2.087 -0.1512  1.3464 -0.6595
  231SOL    HW2  693   1.225   1.503   2.162  1.9197  0.6000 -1.2256
  232SOL     OW  694   2.018   2.088   1.056  0.0193 -0.2124 -0.6623
  232SOL    HW1  695   1.942   2.044   1.005 -0.6614  2.1375  1.3230
  232SOL    HW2  696   1.995   2.185   1.071  1.2410 -3.9579  0.9152
  233SOL     OW  697   1.804   2.341   2.634 -0.0834 -0.4814  0.2365
  233SOL    HW1  698   1.831   2.248   2.605  0.5548  1.2131  1.8970
  233SOL    HW2  699   1.884   2.405   2.624  1.9546  1.2105  0.8181
  234SOL     OW  700   1.083   2.883   2.712 -1.2575  0.3017  0.2662
  234SOL    HW1  701   1.126   2.853   2.798  0.0570 -0.5228 -2.0689
  234SOL    HW2  702   1.075   2.984   2.713  3.0549 -3.0929  1.2627
  235SOL     OW  703   2.452   2.953   0.257  0.3940  0.6235  0.3557
  235SOL    HW1  704   2.405   2.924   0.339  1.0744  0.8606  0.1029
  235SOL    HW2  705   2.386   2.963   0.177 -0.8337  0.6896 -4.6772
  236SOL     OW  706   2.556   2.439   2.133  0.2681  0.1320 -0.0544
  236SOL    HW1  707   2.630   2.423   2.065 -1.3827 -0.0174 -0.6324
  236SOL    HW2  708   2.553   2.371   2.210 -2.7737  1.3717 -0.2634
  237SOL     OW  709   1.472   1.280   1.616  0.0926 -0.1364 -0.1825
  237SOL    HW1  710   1.567   1.288   1.584 -0.0729  0.4999  0.4921
  237SOL    HW2  711   1.403   1.337   1.562  0.2265  1.4517 -2.4330
  238SOL     OW  712   2.041   0.373   2.412 -0.0428 -0.1825 -0.0663
  238SOL    HW1  713   2.086   0.408   2.325  2.0624  0.6258  0.3093
  238SOL    HW2  714   1.988   0.447   2.461  1.8749 -0.5135  1.6219
  239SOL     OW  715   0.369   1.721   2.221 -0.3440 -1.0343 -0.0508
  239SOL    HW1  716   0.467   1.706   2.247 -0.4774 -0.0091  1.3512
  239SOL    HW2  717   0.358   1.718   2.121 -0.7007  0.5594  2.3117
  240SOL     OW  718   2.700   2.803   0.905 -0.0894  0.2297 -0.6568
  240SOL    HW1  719   2.753   2.718   0.879  0.9387 -3.1708 -0.7968
  240SOL    HW2  720   2.699   2.866   0.825 -1.8602 -1.8115 -2.1465
  241SOL     OW  721   1.780   2.126   0.729 -0.5313  0.2725 -0.1431
  241SOL    HW1  722   1.830   2.042   0.761 -1.0361 -0.9143 -0.7250
  241SOL    HW2  723   1.799   2.140   0.631  2.2410  0.9039  0.0446
  242SOL     OW  724   1.179   1.494   2.761 -0.4186 -0.1344  0.2936
  242SOL    HW1  725   1.252   1.557   2.803  1.1716 -1.5641  0.1507
  242SOL    HW2  726   1.117   1.541   2.697  0.4805 -1.5674  1.5769
  243SOL     OW  727   0.774   2.628   2.071  0.2140 -0.8109 -0.1507
  243SOL    HW1  728   0.699   2.697   2.099 -1.2391  0.5064  1.4199
  243SOL    HW2  729   0.846   2.609   2.142  4.1547 -0.7841  1.3511
  244SOL     OW  730   2.195   2.989   2.604  0.7018 -0.6322  0.1999
  244SOL    HW1  731   2.240   0.018   2.587  0.4591 -0.9814 -1.4150
  244SOL    HW2  732   2.118   2.997   2.674  0.6123 -1.5371  2.2008
  245SOL     OW  733   1.241   2.613   0.292  0.4795  0.4489  0.4032
  245SOL    HW1  734   1.281   2.560   0.366  0.0990  0.7465 -4.7037
  245SOL    HW2  735   1.282   2.569   0.209 -0.7795  4.1741  2.6819
  246SOL     OW  736   0.976   0.005   2.961  0.1878  0.8140  0.6297
  246SOL    HW1  737   0.869   0.001   2.980 -2.1013 -2.0968  2.6124
  246SOL    HW2  738   1.021   3.023   3.041 -0.4904  1.9881  0.9579
  247SOL     OW  739   0.383   0.843   2.012  0.4249 -0.3085  0.4686
  247SOL    HW1  740   0.464   0.795   1.976 -3.0147 -1.4570 -0.9995
  247SOL    HW2  741   0.299   0.783   1.998 -0.6850  1.0277 -0.8157
  248SOL     OW  742   0.905   1.141   1.981 -0.1623  0.0125  0.0985
  248SOL    HW1  743   0.851   1.099   2.058 -0.2893 -0.8697  1.2532
  248SOL    HW2  744   0.981   1.081   1.943  2.3749  0.6507 -0.9513
  249SOL     OW  745   2.209   0.413   0.334 -0.6243 -0.1102 -0.6395
  249SOL    HW1  746   2.157   0.488   0.292  0.4455  1.0496 -0.4450
  249SOL    HW2  747   2.195   0.321   0.286  0.1822 -1.5329  0.0561
  250SOL     OW  748   0.848   0.027   0.689  0.0246 -0.0762 -0.4189
  250SOL    HW1  749   0.784   3.043   0.755 -1.0476  2.1093 -0.0479
  250SOL    HW2  750   0.828   3.037   0.602  2.2979  0.4627  0.6778
  251SOL     OW  751   1.713   2.801   2.707  0.2119  0.7889  0.0894
  251SOL    HW1  752   1.712   2.801   2.604  0.5510  1.0331  2.5916
  251SOL    HW2  753   1.806   2.784   2.737 -2.8322  0.7954  0.4137
  252SOL     OW  754   1.624   1.388   2.276 -0.4619 -0.5555  0.0204
  252SOL    HW1  755   1.660   1.385   2.372 -0.7234 -2.3749  0.7571
  252SOL    HW2  756   1.661   1.313   2.218 -0.6674  1.9542  0.4883
  253SOL     OW  757   2.507   2.605   1.903 -0.1488  0.4267  0.0236
  253SOL    HW1  758   2.606   2.596   1.889  0.0538 -1.4030  1.2143
  253SOL    HW2  759   2.489   2.590   2.002  0.1988 -1.5503 -0.4377
  254SOL     OW  760   0.794   1.598   1.170 -0.2777  0.6144 -0.1145
  254SOL    HW1  761   0.895   1.572   1.171  1.4941 -1.3777 -0.3746
  254SOL    HW2  762   0.743   1.552   1.246 -0.1897  0.3461 -0.5411
  255SOL     OW  763   1.162   0.699   1.026  0.1290  0.1397  0.2369
  255SOL    HW1  764   1.126   0.795   0.999 -2.2891  3.1740 -1.8248
  255SOL    HW2  765   1.142   0.670   1.122  0.3156  0.9713 -0.8846
  256SOL     OW  766   1.898   2.128   2.032 -0.1124  0.2738  0.4242
  256SOL    HW1  767   1.918   2.195   2.107 -1.3334  1.5268  1.5142
  256SOL    HW2  768   1.961   2.045   2.033 -0.8266 -1.3223 -0.5231
  257SOL     OW  769   0.127   2.914   2.943  0.4912  0.6732 -0.1952
  257SOL    HW1  770   0.142   2.967   2.862 -3.0059 -0.8630  1.3679
  257SOL    HW2  771   0.170   2.823   2.935  3.5693  0.9790 -1.7831
  258SOL     OW  772   0.768   0.010   2.015  0.3841 -0.0551 -0.0754
  258SOL    HW1  773   0.793   0.070   2.095 -1.3919  1.3234  3.9637
  258SOL    HW2  774   0.843   0.014   1.944 -0.2332 -0.0174 -1.2235
  259SOL     OW  775   0.867   0.157   2.252  0.3259 -0.4698  0.2206
  259SOL    HW1  776   0.970   0.171   2.260  1.8184 -3.2866 -0.9912
  259SOL    HW2  777   0.847   0.077   2.305 -0.3523 -0.8104 -3.3463
  260SOL     OW  778   1.575   0.616   0.911  0.1075 -0.1692  0.8022
  260SOL    HW1  779   1.540   0.532   0.870 -0.0224  0.9208  1.1323
  260SOL    HW2  780   1.677   0.620   0.901  1.7533  3.5405  0.0563
  261SOL     OW  781   0.281   0.477   2.763 -0.0013 -0.4056  0.4056
  261SOL    HW1  782   0.306   0.379   2.789  0.7844  0.2038  1.1846
  261SOL    HW2  783   0.343   0.544   2.807 -0.9582  2.1869 -1.3087
  262SOL     OW  784   2.786   2.462   1.919  0.2959 -0.5254 -0.0024
  262SOL    HW1  785   2.852   2.386   1.905  2.7812 -0.7736  0.8132
  262SOL    HW2  786   2.780   2.514   1.830  0.0445  2.7033 -3.0922
  263SOL     OW  787   2.825   1.825   2.130 -0.5689 -0.2213 -0.4745
  263SOL    HW1  788   2.926   1.822   2.150  0.1031 -0.3636 -0.9657
  263SOL    HW2  789   2.777   1.828   2.220  2.0507 -2.9224 -2.7305
  264SOL     OW  790   0.876   1.162   0.999 -0.3687 -0.2088  1.0077
  264SOL    HW1  791   0.853   1.224   0.923  0.8790 -1.6610 -1.4180
  264SOL    HW2  792   0.885   1.204   1.093  0.3987  0.8175 -1.6697
  265SOL     OW  793   0.374   1.998   0.113  0.4147 -0.1023 -0.6490
  265SOL    HW1  794   0.463   1.971   0.154 -0.0615 -0.0437 -1.0098
  265SOL    HW2  795   0.334   2.067   0.178  0.1400 -0.1948  1.0007
  266SOL     OW  796   1.203   1.095   0.573 -0.5071 -0.0499 -0.3645
  266SOL    HW1  797   1.267   1.067   0.503 -2.3294 -3.1888 -0.2341
  266SOL    HW2  798   1.115   1.045   0.561 -0.8138 -0.4609  1.4469
  267SOL     OW  799   3.021   1.189   0.082  0.3395 -0.3725 -0.1914
  267SOL    HW1  800   3.017   1.260   0.157 -1.3866  0.9577  1.9517
  267SOL    HW2  801   0.011   1.221   3.060  3.0185  1.0233  0.6057
  268SOL     OW  802   2.287   0.178   2.977  0.4942  0.0421  0.7281
  268SOL    HW1  803   2.348   0.173   2.895  1.3327 -2.5892 -3.6618
  268SOL    HW2  804   2.275   0.088   3.025  0.4526 -1.4185  1.9213
  269SOL     OW  805   1.619   0.494   2.663  0.2367  0.0256 -0.0633
  269SOL    HW1  806   1.620   0.389   2.665  1.3696 -1.1161 -1.3177
  269SOL    HW2  807   1.618   0.525   2.569 -1.1502  0.0352 -1.7467
  270SOL     OW  808   0.926   0.992   2.943 -0.1637  0.0748 -0.1065
  270SOL    HW1  809   0.831   0.956   2.929  1.1914  0.9705  1.9814
  270SOL    HW2  810   0.996   0.934   2.900  0.0709 -1.6068  0.7035
  271SOL     OW  811   3.029   0.943   0.192 -0.2048 -0.1209 -0.2371
  271SOL    HW1  812   2.972   0.866   0.146 -3.4096 -4.6174 -2.1156
  271SOL    HW2  813   3.030   1.027   0.133 -0.4654  1.8840  1.8877
  272SOL     OW  814   3.041   1.468   2.746 -0.7684 -0.1798 -0.5436
  272SOL    HW1  815   2.993   1.393   2.691 -2.4045 -0.8068 -0.2486
  272SOL    HW2  816   0.014   1.543   2.684 -3.2705  0.0474  2.8118
  273SOL     OW  817   2.381   2.914   0.673 -0.4309  0.1176  0.1874
  273SOL    HW1  818   2.320   2.987   0.708  1.2429  1.5172 -1.3403
  273SOL    HW2  819   2.478   2.941   0.650  0.6226 -0.9752  0.7433
  274SOL     OW  820   0.434   2.387   0.962 -0.5477  0.0768 -0.3296
  274SOL    HW1  821   0.518   2.327   0.981 -1.5734 -0.3731  1.0184
  274SOL    HW2  822   0.446   2.435   0.868  0.9418  2.6555 -2.6923
  275SOL     OW  823   2.370   1.309   0.413 -0.2512  0.0966 -0.8710
  275SOL    HW1  824   2.442   1.356   0.357 -2.0050 -0.4963  0.4964
  275SOL    HW2  825   2.400   1.212   0.419  1.6679  2.3150 -2.5623
  276SOL     OW  826   2.945   1.271   2.334 -0.2662 -0.6515 -0.2271
  276SOL    HW1  827   3.031   1.216   2.327 -2.0209 -1.3800 -0.5951
  276SOL    HW2  828   2.870   1.212   2.376 -3.5989 -1.9495  1.9952
  277SOL     OW  829   2.064   2.833   1.282 -0.3766  0.0019 -0.4860
  277SOL    HW1  830   2.163   2.816   1.287  0.5466 -0.2853 -0.0106
  277SOL    HW2  831   2.033   2.782   1.200  0.2625 -1.2922 -1.8629
  278SOL     OW  832   1.143   0.142   2.310 -0.2169  0.1548  0.3197
  278SOL    HW1  833   1.201   0.160   2.228  1.0882  1.1368 -0.7377
  278SOL    HW2  834   1.202   0.139   2.391 -1.0168 -0.3735 -2.2715
  279SOL     OW  835   1.589   1.799   0.453 -0.2507 -0.0763 -0.0714
  279SOL    HW1  836   1.612   1.796   0.553  3.1573  1.9961  2.9800
  279SOL    HW2  837   1.672   1.805   0.394  0.9880 -0.1301  1.2670
  280SOL     OW  838   0.041   1.747   0.902  0.5243  0.3979  0.2290
  280SOL    HW1  839   0.116   1.693   0.852  3.3480  0.7356 -1.9499
  280SOL    HW2  840   0.001   1.696   0.982 -0.4459 -0.8578  1.7008
  281SOL     OW  841   2.946   0.486   2.356 -0.0754  0.6741 -0.4758
  281SOL    HW1  842   3.041   0.451   2.378  0.4516  1.8070 -1.4712
  281SOL    HW2  843   2.887   0.475   2.443  0.0076  0.2589  1.1985
  282SOL     OW  844   0.564   0.841   0.683  0.1916 -0.0185 -0.4720
  282SOL    HW1  845   0.559   0.737   0.691  1.0651  1.3257 -1.0717
  282SOL    HW2  846   0.474   0.891   0.689 -0.3056  1.1942  0.8964
  283SOL     OW  847   1.538   1.805   2.920 -0.0117 -0.5355 -0.0446
  283SOL    HW1  848   1.550   1.904   2.950  2.3543  0.6233  2.6623
  283SOL    HW2  849   1.619   1.776   2.869  1.0713  0.2802 -1.7157
  284SOL     OW  850   1.327   1.047   0.329 -0.2113 -0.1837 -0.7952
  284SOL    HW1  851   1.398   1.082   0.264  0.0273  0.7053  0.8994
  284SOL    HW2  852   1.355   0.949   0.357  1.6779 -1.9012  0.3082
  285SOL     OW  853   1.895   0.848   2.845 -0.1017  0.0187  0.6140
  285SOL    HW1  854   1.850   0.869   2.757  1.4356  2.9108  3.7686
  285SOL    HW2  855   1.890   0.749   2.858  1.5192  4.5589 -0.5351
  286SOL     OW  856   1.596   2.709   1.514  0.9608 -0.1887  0.2694
  286SOL    HW1  857   1.645   2.650   1.574 -2.5809 -2.2040 -3.5536
  286SOL    HW2  858   1.643   2.710   1.426  0.4447  3.7868 -0.8675
  287SOL     OW  859   1.063   0.944   0.940  0.3529 -0.1089 -0.2870
  287SOL    HW1  860   0.993   1.016   0.955  1.9051 -3.4344  1.1847
  287SOL    HW2  861   1.081   0.944   0.841  1.2090  1.9316 -1.1568
  288SOL     OW  862   0.901   2.717   0.338  0.6499  0.1157  0.3930
  288SOL    HW1  863   0.989   2.770   0.354  2.5122  2.0024  1.6924
  288SOL    HW2  864   0.882   2.653   0.414 -0.9585  1.7668  0.2346
  289SOL     OW  865   0.492   1.477   1.784  0.4575 -0.0525 -0.1294
  289SOL    HW1  866   0.583   1.523   1.794 -1.2806 -0.5469  0.3898
  289SOL    HW2  867   0.420   1.537   1.751 -2.7005 -2.9318  4.5274
  290SOL     OW  868   1.588   2.349   1.039  0.1067  0.1522  0.1984
  290SOL    HW1  869   1.621   2.267   1.078  1.6744  3.3494  1.2743
  290SOL    HW2  870   1.532   2.403   1.105 -3.7876 -0.8154  1.7540
  291SOL     OW  871   1.738   2.670   2.985 -0.5886  0.0481 -0.0373
  291SOL    HW1  872   1.710   2.725   2.904  0.3686  0.8315 -0.0140
  291SOL    HW2  873   1.761   2.578   2.956 -0.0521  1.0438 -0.5484
  292SOL     OW  874   1.242   0.451   1.905  0.4798  0.0637  0.1484
  292SOL    HW1  875   1.293   0.511   1.839  2.1857  2.6157  3.6620
  292SOL    HW2  876   1.199   0.506   1.979  0.0690 -0.7793  3.0627
  293SOL     OW  877   1.818   2.393   0.862 -0.3641  0.7395 -0.2809
  293SOL    HW1  878   1.757   2.312   0.852  0.8894 -1.5593 -0.7228
  293SOL    HW2  879   1.769   2.477   0.854  0.8448 -4.6577 -1.0292
  294SOL     OW  880   0.499   0.763   2.418 -0.2493  1.0309 -0.5316
  294SOL    HW1  881   0.396   0.762   2.431 -2.0272 -0.4143 -1.3180
  294SOL    HW2  882   0.530   0.702   2.495 -1.5256  1.1660  0.7732
  295SOL     OW  883   1.387   1.761   0.877  0.3807  0.1420 -0.3724
  295SOL    HW1  884   1.395   1.685   0.810 -0.9016  1.9178  0.7955
  295SOL    HW2  885   1.307   1.825   0.855 -1.4293  2.0667 -0.7523
  296SOL     OW  886   2.057   1.910   0.191  0.0500  0.7069  0.6117
  296SOL    HW1  887   2.140   1.966   0.175 -0.4598  0.1679 -1.7408
  296SOL    HW2  888   2.078   1.811   0.196 -0.8007 -2.8185  1.2539
  297SOL     OW  889   2.286   3.004   0.038  0.4491  0.0611 -0.2956
  297SOL    HW1  890   2.190   2.964   0.044  1.4477 -1.7084 -1.3217
  297SOL    HW2  891   2.338   2.939   3.039 -1.2955  0.4415 -2.0326
  298SOL     OW  892   1.241   2.351   2.359  0.2884  0.6757  0.3770
  298SOL    HW1  893   1.237   2.390   2.456 -0.4119  1.7382  1.5898
  298SOL    HW2  894   1.335   2.358   2.324 -2.7937 -2.1470  0.0957
  299SOL     OW  895   1.337   2.661   2.293  0.3221 -0.1020 -0.1453
  299SOL    HW1  896   1.293   2.752   2.272  0.6923 -2.8970 -1.6636
  299SOL    HW2  897   1.383   2.664   2.385  1.6734 -2.9135 -0.4559
  300SOL     OW  898   2.437   0.183   2.746 -0.9765 -0.0078  0.5200
  300SOL    HW1  899   2.365   0.199   2.672 -0.3322 -0.2879 -2.2604
  300SOL    HW2  900   2.494   0.265   2.766 -0.7455  1.7723  0.8039
  301SOL     OW  901   1.616   0.790   2.244  0.3413 -0.2149 -0.1312
  301SOL    HW1  902   1.652   0.889   2.258 -0.2660  3.4876  0.5111
  301SOL    HW2  903   1.683   0.728   2.198 -0.5380  0.1175  0.7837
  302SOL     OW  904   2.491   2.299   0.232 -0.3305  0.0972  0.0613
  302SOL    HW1  905   2.467   2.226   0.301  0.7749 -1.6567  2.2825
  302SOL    HW2  906   2.580   2.268   0.185  2.5780  0.8049 -0.6474
  303SOL     OW  907   2.777   2.632   2.354  0.0988  0.5773 -0.0194
  303SOL    HW1  908   2.809   2.569   2.280  0.4316 -0.4462 -2.1823
  303SOL    HW2  909   2.712   2.581   2.407 -0.8166 -0.6192  0.1868
  304SOL     OW  910   2.714   0.563   1.609 -0.4055 -0.4287 -0.9413
  304SOL    HW1  911   2.742   0.634   1.679 -1.1908  1.1404  0.4877
  304SOL    HW2  912   2.791   0.489   1.599 -0.6179 -0.1011  1.7499
  305SOL     OW  913   0.656   2.240   1.606 -0.1622  0.3435 -0.0745
  305SOL    HW1  914   0.670   2.303   1.525 -1.3011 -1.6160 -2.3328
  305SOL    HW2  915   0.574   2.261   1.660  3.5011 -1.4971 -2.4716
  306SOL     OW  916   2.840   0.995   1.702  0.3382 -0.2217  0.3578
  306SOL    HW1  917   2.785   1.064   1.657 -0.9450 -2.1099 -0.1740
  306SOL    HW2  918   2.899   0.954   1.626  1.8706  0.2753 -0.3484
  307SOL     OW  919   1.423   0.815   1.834 -0.7616 -0.2739 -0.3666
  307SOL    HW1  920   1.402   0.776   1.926 -0.1577 -2.4562  1.3569
  307SOL    HW2  921   1.391   0.758   1.755  0.0868  1.8233  2.6769
  308SOL     OW  922   2.732   1.482   1.025  0.1252  0.0454 -0.1101
  308SOL    HW1  923   2.778   1.466   0.936 -0.5940  0.9499 -3.2462
  308SOL    HW2  924   2.630   1.483   1.015  2.8194 -0.7750 -0.3917
  309SOL     OW  925   2.420   1.339   0.765  0.3131 -0.5359  0.3865
  309SOL    HW1  926   2.323   1.374   0.756  0.2269 -2.1752  0.8570
  309SOL    HW2  927   2.453   1.374   0.856 -1.1267  1.1063  1.6575
  310SOL     OW  928   2.656   1.604   2.696 -0.1840 -0.3850  0.0365
  310SOL    HW1  929   2.681   1.699   2.688  1.1283  0.6353  2.4416
  310SOL    HW2  930   2.706   1.574   2.777  0.2940 -0.7916 -2.9479
  311SOL     OW  931   0.028   2.671   2.670  0.2678  0.7158  0.0788
  311SOL    HW1  932   3.002   2.619   2.681  0.9270  1.1712 -0.9090
  311SOL    HW2  933   0.076   2.693   2.757  0.5787 -0.9172  0.5126
  312SOL     OW  934   1.951   1.687   0.785 -0.0726  0.2221 -0.2541
  312SOL    HW1  935   1.927   1.699   0.685  1.4542 -1.0462 -3.6354
  312SOL    HW2  936   1.877   1.629   0.830 -0.6996 -0.7484  1.2472
  313SOL     OW  937   2.564   0.047   0.947 -0.4675 -0.1140 -0.4800
  313SOL    HW1  938   2.571   3.054   0.859  0.1030  2.5482  0.7817
  313SOL    HW2  939   2.504   0.126   0.933  0.8592 -0.7818  0.1834
  314SOL     OW  940   1.251   1.320   0.263 -0.0420 -0.1606  0.4944
  314SOL    HW1  941   1.292   1.243   0.319  0.1625 -2.3791 -1.6302
  314SOL    HW2  942   1.313   1.350   0.185  0.7115  1.4610  1.5863
  315SOL     OW  943   1.410   2.527   2.067 -0.5547 -0.2694 -0.1150
  315SOL    HW1  944   1.387   2.588   2.143  2.0421  3.4819 -1.0029
  315SOL    HW2  945   1.482   2.566   2.007  2.1718 -1.7754 -2.9984
  316SOL     OW  946   0.022   0.889   0.610 -0.2620 -0.4837  0.3440
  316SOL    HW1  947   3.061   0.961   0.540 -1.1229  2.1077  1.9894
  316SOL    HW2  948   0.010   0.927   0.703 -1.8782 -1.0435 -3.2291
  317SOL     OW  949   0.499   0.051   0.464  0.2105  0.0181  0.4400
  317SOL    HW1  950   0.430   0.041   0.537 -1.2216 -0.7139 -1.7546
  317SOL    HW2  951   0.574   3.045   0.475  0.9486  0.3929 -2.0840
  318SOL     OW  952   2.095   2.419   0.471 -0.2061  0.1205 -0.0760
  318SOL    HW1  953   2.116   2.318   0.465  0.1878  1.1515  1.7561
  318SOL    HW2  954   2.118   2.465   0.382 -1.4803  1.0105 -0.2943
  319SOL     OW  955   0.868   1.220   2.533  0.0876  0.4516  0.5609
  319SOL    HW1  956   0.782   1.242   2.581 -2.9835  0.8606 -1.4940
  319SOL    HW2  957   0.864   1.257   2.437 -2.1864 -0.6408  1.2669
  320SOL     OW  958   0.073   2.586   1.963 -0.4218 -0.2040  0.4688
  320SOL    HW1  959   0.062   2.685   1.945 -1.0516  0.4027  1.1127
  320SOL    HW2  960   0.044   2.537   1.883 -1.5278  1.3625 -0.3408
  321SOL     OW  961   1.511   2.495   2.868  0.1749 -0.4662 -0.1585
  321SOL    HW1  962   1.602   2.478   2.904 -0.3074  2.6402  0.4340
  321SOL    HW2  963   1.462   2.411   2.823 -0.6629 -0.2289 -2.8431
  322SOL     OW  964   2.949   1.432   2.119 -0.0843 -0.2724  0.1662
  322SOL    HW1  965   2.948   1.378   2.205  0.1605  1.0797 -1.2447
  322SOL    HW2  966   2.985   1.371   2.047  0.4117  0.4520  0.8445
  323SOL     OW  967   2.477   1.058   0.419 -0.1471  0.2961  0.8845
  323SOL    HW1  968   2.415   0.987   0.370 -1.8613 -1.2604 -2.4374
  323SOL    HW2  969   2.568   1.025   0.408 -4.1118  1.6007 -3.3477
  324SOL     OW  970   2.840   0.018   2.883  0.6080  0.4767 -0.0106
  324SOL    HW1  971   2.742   0.007   2.892  0.4789  1.0054  1.0420
  324SOL    HW2  972   2.888   3.020   2.949  0.8656 -2.1723 -0.9826
  325SOL     OW  973   1.324   0.113   2.533 -0.0100  0.5553  0.1425
  325SOL    HW1  974   1.394   0.053   2.573 -0.8564 -0.3194  0.3012
  325SOL    HW2  975   1.283   0.165   2.610  0.1865 -3.6058  0.7119
  326SOL     OW  976   2.493   2.851   1.494 -0.1739  0.1316 -0.2191
  326SOL    HW1  977   2.519   2.929   1.555  0.2841  0.4609 -0.8052
  326SOL    HW2  978   2.436   2.782   1.541  0.2157 -0.7105 -0.0284
  327SOL     OW  979   1.880   0.145   2.818 -0.2236 -0.1978  0.1105
  327SOL    HW1  980   1.926   0.054   2.829  1.8170 -0.2376 -2.1589
  327SOL    HW2  981   1.853   0.180   2.910  0.6858  0.0602  0.9890
  328SOL     OW  982   2.915   0.927   2.112 -0.0688 -0.1592 -0.1175
  328SOL    HW1  983   3.016   0.945   2.109  2.3098 -1.9472  1.2434
  328SOL    HW2  984   2.873   0.979   2.191  0.3536  4.2934 -0.6956
  329SOL     OW  985   1.851   0.110   1.803  0.4744 -0.1339 -0.1751
  329SOL    HW1  986   1.891   0.147   1.715 -2.7519 -1.7587 -0.2736
  329SOL    HW2  987   1.883   0.162   1.883 -2.8120 -0.8190  0.5262
  330SOL     OW  988   2.850   1.624   1.265  0.6133  0.6672  0.0579
  330SOL    HW1  989   2.822   1.552   1.198 -0.8676  2.2986 -2.0421
  330SOL    HW2  990   2.847   1.591   1.359 -1.3695  0.2834 -1.2505
  331SOL     OW  991   0.658   1.642   2.286 -0.0022 -0.4258  0.3053
  331SOL    HW1  992   0.738   1.686   2.237  0.6658 -0.8578 -2.2196
  331SOL    HW2  993   0.624   1.569   2.228  2.4686  0.4171  2.0438
  332SOL     OW  994   0.121   2.730   1.427  0.4072 -0.2224 -0.2010
  332SOL    HW1  995   0.120   2.731   1.530  2.7423  0.0983  1.9810
  332SOL    HW2  996   0.105   2.822   1.386 -0.9342  0.5316  0.0280
  333SOL     OW  997   2.330   2.793   1.270  0.5892  0.2386 -0.5356
  333SOL    HW1  998   2.392   2.840   1.335 -0.6465  0.2261 -0.3512
  333SOL    HW2  999   2.374   2.705   1.237 -0.0321  1.4557  3.0148
  334SOL     OW 1000   0.739   1.880   1.084  0.4150 -0.3033  0.6006
  334SOL    HW1 1001   0.719   1.781   1.072  1.8309  0.6169 -1.7383
  334SOL    HW2 1002   0.808   1.915   1.016  0.8905 -2.3259 -1.4467
  335SOL     OW 1003   0.156   2.406   2.991  0.0917  0.5537  0.2362
  335SOL    HW1 1004   0.183   2.329   3.052  0.0113  0.9994  1.9269
  335SOL    HW2 1005   0.074   2.388   2.937  1.0849  1.0151  0.0620
  336SOL     OW 1006   0.107   2.965   2.052 -0.0364  0.2343 -0.4157
  336SOL    HW1 1007   0.158   3.050   2.075  2.1376 -2.7625  0.9429
  336SOL    HW2 1008   0.073   2.918   2.136  0.3042 -0.6647 -3.2968
  337SOL     OW 1009   2.451   1.936   2.890 -0.2117  0.4481 -0.1919
  337SOL    HW1 1010   2.419   1.867   2.956  0.0888  2.1503 -1.8854
  337SOL    HW2 1011   2.550   1.957   2.899 -0.4866 -1.0938  1.5377
  338SOL     OW 1012   1.075   1.570   1.133 -0.6921 -0.1547 -0.1224
  338SOL    HW1 1013   1.137   1.647   1.104  0.1508 -2.1138 -0.0122
  338SOL    HW2 1014   1.059   1.501   1.058 -2.6766 -2.3360 -1.9211
  339SOL     OW 1015   3.031   0.587   1.745  0.2080  0.1341  0.1334
  339SOL    HW1 1016   3.017   0.496   1.714  0.8332  2.0022  1.8383
  339SOL    HW2 1017   2.986   0.606   1.832  0.0211  2.2867 -1.1832
  340SOL     OW 1018   1.363   2.560   0.065  0.0056 -0.3342 -0.0824
  340SOL    HW1 1019   1.373   2.464   0.084  1.1757  1.4847  0.8898
  340SOL    HW2 1020   1.323   2.579   3.033  0.7322  1.2335 -0.9781
  341SOL     OW 1021   1.714   1.578   1.240  0.4509  0.4207 -0.0167
  341SOL    HW1 1022   1.671   1.586   1.336 -0.6742 -2.2382  1.0423
  341SOL    HW2 1023   1.638   1.534   1.178 -1.9686 -2.2761 -0.1420
  342SOL     OW 1024   2.827   2.517   0.544  0.5504  0.0394  0.5424
  342SOL    HW1 1025   2.732   2.497   0.512  0.0297 -1.0499  2.1164
  342SOL    HW2 1026   2.891   2.466   0.490 -2.3515  0.4016 -1.2480
  343SOL     OW 1027   1.463   2.435   1.274 -0.3538 -0.1311 -0.4861
  343SOL    HW1 1028   1.435   2.534   1.266 -1.7574  2.6387  0.6571
  343SOL    HW2 1029   1.378   2.388   1.301 -1.8564 -0.2771 -3.3251
  344SOL     OW 1030   2.124   2.651   0.898 -0.7573  0.0026  0.0434
  344SOL    HW1 1031   2.080   2.702   0.822  3.2496 -2.0989 -2.7254
  344SOL    HW2 1032   2.217   2.695   0.921  1.2265 -1.7348  3.2589
  345SOL     OW 1033   2.760   1.868   2.649  0.4476  0.5900  0.1568
  345SOL    HW1 1034   2.737   1.929   2.728 -0.2419 -0.2102  2.6756
  345SOL    HW2 1035   2.854   1.879   2.618 -2.7611  0.5101 -0.6116
  346SOL     OW 1036   2.672   1.730   0.869 -0.4269  0.1684 -0.1452
  346SOL    HW1 1037   2.615   1.748   0.950  2.3503  2.3612 -3.0800
  346SOL    HW2 1038   2.728   1.643   0.870 -1.5126 -0.0253 -0.8680
  347SOL     OW 1039   2.232   2.423   1.270 -0.3426 -0.4063  0.0239
  347SOL    HW1 1040   2.173   2.473   1.338 -2.0245 -0.4657  2.7492
  347SOL    HW2 1041   2.299   2.483   1.230 -1.8039 -2.5155  1.1767
  348SOL     OW 1042   1.002   1.650   2.637 -0.5745  0.2020  0.3540
  348SOL    HW1 1043   1.035   1.742   2.609  0.0250 -1.1472 -1.4520
  348SOL    HW2 1044   0.946   1.653   2.719 -3.0657 -1.2694 -0.3759
  349SOL     OW 1045   2.240   1.320   1.931 -0.2413  0.3927  0.0649
  349SOL    HW1 1046   2.168   1.323   1.866  4.2929 -0.2873  2.0670
  349SOL    HW2 1047   2.296   1.398   1.930  0.0598 -2.1097  0.1138
  350SOL     OW 1048   0.194   2.245   0.981 -0.0137  0.4834  0.0026
  350SOL    HW1 1049   0.282   2.292   0.997 -0.8035 -0.3243 -1.5291
  350SOL    HW2 1050   0.202   2.147   0.989 -2.0915  2.2388 -0.9226
  351SOL     OW 1051   0.233   0.507   2.267 -0.0694 -0.1825  0.0377
  351SOL    HW1 1052   0.195   0.594   2.292 -1.5707 -0.8516 -2.2171
  351SOL    HW2 1053   0.262   0.452   2.354  1.3734 -1.3615  1.4645
  352SOL     OW 1054   0.605   2.390   1.390  0.4018 -0.4376 -0.2389
  352SOL    HW1 1055   0.633   2.491   1.394 -1.2702  3.9606 -1.6715
  352SOL    HW2 1056   0.517   2.383   1.328  1.2451 -0.5418 -0.2936
  353SOL     OW 1057   1.294   1.443   2.410 -0.1698 -0.5760 -0.2865
  353SOL    HW1 1058   1.202   1.403   2.429  2.1179  0.5657  0.2576
  353SOL    HW2 1059   1.344   1.414   2.327  0.8353 -1.0115 -0.8346
  354SOL     OW 1060   1.588   0.795   0.566 -0.1258  0.0918 -0.5126
  354SOL    HW1 1061   1.597   0.705   0.532  0.8354  3.2225 -0.1613
  354SOL    HW2 1062   1.509   0.826   0.508  1.4557  1.1935  0.8665
  355SOL     OW 1063   2.716   0.910   0.442 -0.2948  0.0029  0.4998
  355SOL    HW1 1064   2.744   0.837   0.374 -0.2239 -0.8214  0.2800
  355SOL    HW2 1065   2.795   0.974   0.456 -1.4909 -2.3677 -0.4851
  356SOL     OW 1066   2.521   1.162   2.810 -0.0561 -0.3365 -0.4230
  356SOL    HW1 1067   2.592   1.084   2.818 -0.3098 -2.5180  2.5237
  356SOL    HW2 1068   2.429   1.135   2.851  0.4078 -0.0925  1.5504
  357SOL     OW 1069   0.687   2.651   1.407 -0.1699  0.5185 -0.2608
  357SOL    HW1 1070   0.665   2.683   1.316  0.6433 -0.5081  0.7636
  357SOL    HW2 1071   0.771   2.702   1.440  0.8871  1.5007 -0.6739
  358SOL     OW 1072   2.305   1.100   2.094 -0.0888 -0.5537  0.3038
  358SOL    HW1 1073   2.277   1.186   2.045 -1.4615  1.9616  0.7547
  358SOL    HW2 1074   2.259   1.014   2.065  0.3066 -2.0419  1.9651
  359SOL     OW 1075   2.019   2.301   3.018  0.3980  0.0395 -0.2981
  359SOL    HW1 1076   2.059   2.340   0.042  1.8625  0.8239  0.5971
  359SOL    HW2 1077   2.061   2.330   2.931  1.1593  1.1427  0.3599
  360SOL     OW 1078   2.133   0.426   0.839  0.0742  0.0570  0.0458
  360SOL    HW1 1079   2.199   0.505   0.837  0.1320 -0.1390 -1.2819
  360SOL    HW2 1080   2.040   0.441   0.793 -1.2611 -2.0723  0.7956
  361SOL     OW 1081   1.965   3.001   0.926 -0.1320  0.1445 -0.0000
  361SOL    HW1 1082   2.064   3.012   0.958  3.6172  1.8434 -0.8347
  361SOL    HW2 1083   1.952   2.938   0.845 -1.8460 -0.3841 -0.1039
  362SOL     OW 1084   1.432   1.144   0.739 -0.0151 -0.8953 -0.1329
  362SOL    HW1 1085   1.347   1.138   0.685  1.0915 -2.4624  0.2303
  362SOL    HW2 1086   1.485   1.058   0.739  2.6491 -0.4189 -1.1680
  363SOL     OW 1087   2.292   1.563   2.322  0.1091  0.2520  0.4100
  363SOL    HW1 1088   2.343   1.477   2.321  0.7191 -0.9554 -0.0935
  363SOL    HW2 1089   2.259   1.590   2.415  1.3806 -1.7030 -5.2653
  364SOL     OW 1090   1.354   0.774   1.277  0.6122 -0.6274 -0.3019
  364SOL    HW1 1091   1.443   0.740   1.244  0.7866 -0.4289  2.5221
  364SOL    HW2 1092   1.288   0.700   1.274  1.0978 -2.4424 -0.9968
  365SOL     OW 1093   0.292   2.777   1.088  0.6219 -0.2866  0.2983
  365SOL    HW1 1094   0.239   2.821   1.156  1.2473 -2.3456 -0.4523
  365SOL    HW2 1095   0.242   2.729   1.015  2.7794  1.5388 -2.0502
  366SOL     OW 1096   2.761   1.478   0.424 -0.4290 -0.2730  0.2739
  366SOL    HW1 1097   2.730   1.481   0.521  0.6371 -0.2315 -0.9303
  366SOL    HW2 1098   2.727   1.555   0.367 -1.6874 -2.3590 -0.2241
  367SOL     OW 1099   2.951   2.397   2.908 -0.1010 -0.3440 -0.2685
  367SOL    HW1 1100   2.901   2.420   2.821  0.6859  0.0932 -1.1399
  367SOL    HW2 1101   2.879   2.403   2.981 -0.0573 -2.6240  0.7081
  368SOL     OW 1102   0.196   1.970   0.912 -0.9542 -1.2121  0.4823
  368SOL    HW1 1103   0.215   2.016   0.819  1.1343  0.2576 -2.1195
  368SOL    HW2 1104   0.121   1.907   0.895  1.0549  1.6099 -0.2485
  369SOL     OW 1105   0.535   0.272   0.290  0.3642 -0.4965 -0.3494
  369SOL    HW1 1106   0.506   0.201   0.354  1.7238 -1.2754 -0.3034
  369SOL    HW2 1107   0.638   0.264   0.279 -1.6710  0.8262 -1.2797
  370SOL     OW 1108   0.294   0.867   1.359 -0.4436  0.2411 -0.2439
  370SOL    HW1 1109   0.317   0.772   1.395  0.3524 -3.2247 -0.2254
  370SOL    HW2 1110   0.294   0.935   1.431 -0.8934 -2.8263  2.5716
  371SOL     OW 1111   1.908   2.535   0.636 -0.4188 -0.9704 -0.4417
  371SOL    HW1 1112   1.990   2.490   0.589 -1.7234 -1.6879  0.7745
  371SOL    HW2 1113   1.886   2.485   0.724  0.5159 -0.9025 -0.2162
  372SOL     OW 1114   0.356   1.049   2.700 -0.1658  0.4039 -0.5009
  372SOL    HW1 1115   0.436   1.094   2.656 -2.7767 -0.3497 -0.4379
  372SOL    HW2 1116   0.343   1.096   2.786  0.1466 -0.1438 -2.1896
  373SOL     OW 1117   2.609   1.515   0.648  0.7602 -0.5182 -0.1049
  373SOL    HW1 1118   2.543   1.592   0.673 -1.0905  0.2618 -0.7444
  373SOL    HW2 1119   2.550   1.431   0.640 -0.9659  0.8528 -0.7757
  374SOL     OW 1120   0.475   2.356   0.370 -0.1681  0.2362 -0.3178
  374SOL    HW1 1121   0.467   2.255   0.376 -0.3993  1.4483  0.2748
  374SOL    HW2 1122   0.455   2.396   0.278  0.1518 -0.4639  1.0429
  375SOL     OW 1123   0.794   0.214   0.216 -0.5701 -0.2288  0.2729
  375SOL    HW1 1124   0.874   0.171   0.264  3.4464 -1.9450 -2.4663
  375SOL    HW2 1125   0.819   0.304   0.178  0.2981 -1.1069  1.0333
  376SOL     OW 1126   0.295   2.834   1.891 -0.2784 -0.2064  0.6898
  376SOL    HW1 1127   0.382   2.886   1.900 -0.8803  0.0452  1.1049
  376SOL    HW2 1128   0.221   2.870   1.961 -2.4880  0.0160  3.1252
  377SOL     OW 1129   0.853   2.313   2.280  0.4199 -0.3614 -0.3116
  377SOL    HW1 1130   0.901   2.251   2.347 -1.3820  0.6790  1.1480
  377SOL    HW2 1131   0.922   2.369   2.228  0.0926  0.3487  0.3102
  378SOL     OW 1132   0.969   0.924   0.665 -0.4599 -0.0458  0.6024
  378SOL    HW1 1133   0.903   0.937   0.589 -3.0931  1.7778 -2.9045
  378SOL    HW2 1134   0.920   0.873   0.738 -0.9622  0.6789 -0.2473
  379SOL     OW 1135   0.795   1.916   2.936 -0.4102 -0.0516 -0.0477
  379SOL    HW1 1136   0.779   1.814   2.939 -2.2537 -3.9596 -0.5732
  379SOL    HW2 1137   0.876   1.936   2.876 -0.3431  0.2269 -1.3565
  380SOL     OW 1138   2.839   1.787   1.688 -0.2604 -0.2270  0.0114
  380SOL    HW1 1139   2.778   1.839   1.752 -1.0674  0.5423 -1.4393
  380SOL    HW2 1140   2.921   1.754   1.738 -0.3588 -0.9405  0.9767
  381SOL     OW 1141   0.094   1.050   1.821  0.0072  0.1513  0.0259
  381SOL    HW1 1142   0.189   1.088   1.810 -0.1976  0.4452  0.8469
  381SOL    HW2 1143   0.055   1.016   1.732 -2.2058  0.5607  0.3777
  382SOL     OW 1144   2.598   2.280   2.846 -0.0787  0.3909  0.4147
  382SOL    HW1 1145   2.524   2.339   2.813 -0.6479  0.5209  0.7006
  382SOL    HW2 1146   2.633   2.302   2.938 -0.5464  1.6679 -0.5419
  383SOL     OW 1147   2.409   1.952   1.971 -0.1816  0.0880  0.0691
  383SOL    HW1 1148   2.455   1.950   2.062 -1.1179  1.2590 -3.4138
  383SOL    HW2 1149   2.448   2.032   1.922  2.8536  1.5026  0.4564
  384SOL     OW 1150   0.710   2.219   2.069 -0.2139  0.1463 -0.1165
  384SOL    HW1 1151   0.750   2.247   2.162  0.6002  0.4691 -3.0325
  384SOL    HW2 1152   0.672   2.300   2.023 -0.4927  1.4011  0.3044
  385SOL     OW 1153   2.464   2.029   1.129  0.8168 -0.8609 -0.5256
  385SOL    HW1 1154   2.397   2.044   1.053 -2.0771 -2.0102  0.5483
  385SOL    HW2 1155   2.493   1.931   1.124  0.5379 -0.8322  0.6093
  386SOL     OW 1156   1.880   0.560   0.056  0.0550  0.3706  0.4555
  386SOL    HW1 1157   1.979   0.564   0.042  0.2577  1.8994  0.8798
  386SOL    HW2 1158   1.850   0.589   0.149  2.3763  2.3523 -0.0859
  387SOL     OW 1159   0.578   0.661   1.947  0.0010 -0.6141  0.0345
  387SOL    HW1 1160   0.502   0.639   1.882 -1.6059 -3.2819  0.1405
  387SOL    HW2 1161   0.559   0.620   2.039 -1.5041  3.2971 -2.5843
  388SOL     OW 1162   2.793   1.080   1.940 -0.3299  0.5675  0.2250
  388SOL    HW1 1163   2.828   1.063   1.843 -1.0552 -1.5256 -2.7037
  388SOL    HW2 1164   2.835   1.017   2.013 -0.8715 -0.8042  0.8717
  389SOL     OW 1165   1.631   0.548   2.389  0.0112  0.2405  0.0713
  389SOL    HW1 1166   1.594   0.639   2.358 -0.3635 -2.2627  2.0215
  389SOL    HW2 1167   1.596   0.475   2.338 -1.5469  1.5930 -1.3215
  390SOL     OW 1168   1.703   2.281   0.117  0.1260 -0.2726 -0.5429
  390SOL    HW1 1169   1.682   2.179   0.134  2.7466 -4.2568  0.9029
  390SOL    HW2 1170   1.764   2.316   0.190  1.4466  3.5933  1.1539
  391SOL     OW 1171   1.795   2.734   1.319  0.2128  0.3805  0.0872
  391SOL    HW1 1172   1.826   2.708   1.228 -0.2844 -0.3447  0.5196
  391SOL    HW2 1173   1.867   2.781   1.374 -0.4466  0.1819  0.0868
  392SOL     OW 1174   2.709   2.490   1.179  0.0909 -0.1794  0.3300
  392SOL    HW1 1175   2.778   2.557   1.142  0.7265 -1.0954 -1.3174
  392SOL    HW2 1176   2.677   2.427   1.106  2.3689 -0.8925  1.7853
  393SOL     OW 1177   1.757   1.745   2.773  0.1596 -0.2600  0.4224
  393SOL    HW1 1178   1.828   1.806   2.810  0.6147 -1.5637  0.5577
  393SOL    HW2 1179   1.785   1.649   2.791 -1.5476 -2.1846 -1.9798
  394SOL     OW 1180   0.214   2.716   0.245 -0.0038  0.0700 -0.2860
  394SOL    HW1 1181   0.150   2.800   0.238  0.2345  1.3598 -0.7549
  394SOL    HW2 1182   0.302   2.749   0.280  0.4504  3.2676 -1.5837
  395SOL     OW 1183   1.329   1.246   1.235  0.0830 -0.2830 -0.2537
  395SOL    HW1 1184   1.428   1.215   1.231  1.8436 -0.9897 -2.2619
  395SOL    HW2 1185   1.298   1.260   1.138 -0.8719  1.1727 -3.0676
  396SOL     OW 1186   1.824   0.585   2.837 -0.3517 -0.7205 -0.0257
  396SOL    HW1 1187   1.738   0.567   2.786  0.2745  2.2115  0.0356
  396SOL    HW2 1188   1.799   0.604   2.931  1.8527 -0.8486 -4.3695
  397SOL     OW 1189   0.106   1.013   2.601  0.0577  0.0404  0.1793
  397SOL    HW1 1190   0.077   1.069   2.525 -1.2743 -2.4180  2.6846
  397SOL    HW2 1191   0.205   1.025   2.634 -0.8707 -1.0490  1.1670
  398SOL     OW 1192   1.155   0.297   0.203 -0.5752 -0.1152 -0.5150
  398SOL    HW1 1193   1.236   0.360   0.212  0.2293 -2.4333 -1.8385
  398SOL    HW2 1194   1.118   0.297   0.110  2.0229  0.0197  0.6280
  399SOL     OW 1195   2.289   3.002   1.801 -0.3625  0.3643 -0.3072
  399SOL    HW1 1196   2.376   2.973   1.754 -0.1933 -0.2872 -0.4700
  399SOL    HW2 1197   2.225   2.922   1.807  2.1402 -1.4771  1.3501
  400SOL     OW 1198   3.004   1.621   2.290 -0.6489  0.1520  0.3871
  400SOL    HW1 1199   2.971   1.551   2.220  2.7426  2.8202 -1.6122
  400SOL    HW2 1200   2.955   1.601   2.378 -3.3367 -0.2642  1.7058
  401SOL     OW 1201   0.705   0.108   3.036  0.1649 -0.2332  0.1950
  401SOL    HW1 1202   0.734   0.159   0.058 -2.0273  0.9912 -1.1119
  401SOL    HW2 1203   0.659   0.170   2.965 -2.9409  0.9177 -1.5667
  402SOL     OW 1204   0.242   2.483   1.500  0.1922  0.3689  0.1449
  402SOL    HW1 1205   0.315   2.441   1.439 -0.9251  2.3957 -3.4905
  402SOL    HW2 1206   0.267   2.574   1.538 -0.6443  1.6723 -1.1340
  403SOL     OW 1207   0.643   1.477   1.348  0.4609  0.2117 -0.2558
  403SOL    HW1 1208   0.644   1.376   1.334 -2.2089 -2.5129 -0.4124
  403SOL    HW2 1209   0.681   1.503   1.441  0.6944 -0.1527  1.9393
  404SOL     OW 1210   2.765   2.567   1.667 -0.2031 -0.7816 -0.3257
  404SOL    HW1 1211   2.733   2.505   1.591 -1.2757 -0.5356  0.3759
  404SOL    HW2 1212   2.749   2.663   1.648 -0.1918 -1.4115 -0.6906
  405SOL     OW 1213   2.774   0.525   2.157  0.1095 -0.1929 -0.7207
  405SOL    HW1 1214   2.683   0.515   2.202 -2.8901  0.2282  0.2202
  405SOL    HW2 1215   2.854   0.509   2.221  1.3627 -1.8615 -1.4557
  406SOL     OW 1216   1.801   2.419   2.893  0.7676 -0.3393  0.1970
  406SOL    HW1 1217   1.875   2.358   2.929  2.0668  1.6680 -2.3859
  406SOL    HW2 1218   1.787   2.390   2.797  2.6980  1.1039  0.8452
  407SOL     OW 1219   1.848   1.923   0.896  0.2553  0.1574 -0.7932
  407SOL    HW1 1220   1.898   1.849   0.840 -0.6764  0.1086 -2.7721
  407SOL    HW2 1221   1.826   1.879   0.990  2.1064 -0.2059  2.1314
  408SOL     OW 1222   0.603   0.310   2.053 -0.2831 -0.0985  0.5368
  408SOL    HW1 1223   0.590   0.391   2.108 -2.4434 -0.7595 -0.1655
  408SOL    HW2 1224   0.694   0.305   2.008 -1.7816 -5.1438 -2.5787
  409SOL     OW 1225   2.450   2.119   0.434 -0.1333 -0.0533 -0.2157
  409SOL    HW1 1226   2.381   2.072   0.487  0.6988  2.3236 -3.2056
  409SOL    HW2 1227   2.541   2.109   0.475 -0.0243 -1.5169 -0.4119
  410SOL     OW 1228   2.206   1.522   0.450 -0.2275  0.4639  0.2815
  410SOL    HW1 1229   2.268   1.442   0.455  2.3236 -0.6833 -1.5163
  410SOL    HW2 1230   2.257   1.607   0.462 -1.1971 -0.1928 -3.4633
  411SOL     OW 1231   0.062   0.626   0.569 -0.3862  0.1533  0.3148
  411SOL    HW1 1232   0.155   0.609   0.613 -0.5647 -3.3267 -0.5098
  411SOL    HW2 1233   0.038   0.723   0.570 -0.6139  0.8017  0.4945
  412SOL     OW 1234   1.772   0.625   0.296  0.1664  0.2374 -0.0299
  412SOL    HW1 1235   1.685   0.588   0.338  4.2464 -0.8558  0.2053
  412SOL    HW2 1236   1.759   0.730   0.305 -2.8634  4.2674  0.4211
  413SOL     OW 1237   0.838   0.724   1.319 -0.5133 -0.3043 -0.0793
  413SOL    HW1 1238   0.782   0.721   1.404 -0.8544  1.4174  0.7196
  413SOL    HW2 1239   0.870   0.820   1.309  0.2408  1.1214  2.3648
  414SOL     OW 1240   0.167   1.555   3.055 -0.4005  0.0329 -0.2801
  414SOL    HW1 1241   0.078   1.588   0.029 -0.3226 -0.2568 -1.7889
  414SOL    HW2 1242   0.192   1.587   2.962  1.6493  0.2077  0.1556
  415SOL     OW 1243   0.120   1.860   0.100 -0.4938  0.6991  0.4420
  415SOL    HW1 1244   0.210   1.907   0.083  0.6790  0.2392 -1.1663
  415SOL    HW2 1245   0.100   1.785   0.032  1.2801  0.2821 -2.3139
  416SOL     OW 1246   1.773   0.899   0.246 -0.4806  0.4174 -0.1117
  416SOL    HW1 1247   1.744   0.995   0.255  0.1302  3.0544 -4.7540
  416SOL    HW2 1248   1.840   0.893   0.171  2.9282  1.0713  0.4370
  417SOL     OW 1249   0.238   0.802   0.911  0.3473  0.2246 -0.2813
  417SOL    HW1 1250   0.168   0.832   0.977  0.1834 -0.2374  1.5801
  417SOL    HW2 1251   0.312   0.870   0.896  3.5569  0.5736 -0.3179
  418SOL     OW 1252   2.232   1.229   2.628 -0.0694  0.3216 -0.3100
  418SOL    HW1 1253   2.142   1.277   2.627 -1.0617 -0.2264  1.6603
  418SOL    HW2 1254   2.243   1.169   2.712  0.5997  1.5890  1.0821
  419SOL     OW 1255   0.311   0.402   0.396 -0.6225 -1.0394  0.8126
  419SOL    HW1 1256   0.351   0.493   0.434 -0.2188  0.7138 -0.2116
  419SOL    HW2 1257   0.378   0.356   0.337  0.2249  0.9122  1.9749
  420SOL     OW 1258   0.275   1.622   0.821  0.3292 -0.6687 -0.0128
  420SOL    HW1 1259   0.330   1.607   0.909  5.0512  0.6659  2.6490
  420SOL    HW2 1260   0.301   1.705   0.771 -2.4774 -1.1289 -0.8896
  421SOL     OW 1261   0.474   2.091   0.397 -0.2463  0.0541 -0.2427
  421SOL    HW1 1262   0.512   2.128   0.480 -1.6125  0.2931 -1.3006
  421SOL    HW2 1263   0.533   2.029   0.339  0.2107 -0.4322 -3.1605
  422SOL     OW 1264   2.598   0.339   1.394  0.3730 -0.1461  0.2172
  422SOL    HW1 1265   2.631   0.408   1.461 -1.3301  0.5653 -1.3674
  422SOL    HW2 1266   2.620   0.245   1.424 -0.0286 -0.1947  0.6202
  423SOL     OW 1267   1.703   1.542   0.838  0.1471  0.0911  0.5085
  423SOL    HW1 1268   1.652   1.459   0.863 -1.5268 -0.1394  0.5343
  423SOL    HW2 1269   1.737   1.531   0.742 -2.6672 -1.5469 -0.7626
  424SOL     OW 1270   1.746   1.191   0.284 -0.2911 -0.3119  0.0207
  424SOL    HW1 1271   1.843   1.190   0.307 -1.7388 -1.2654 -0.2989
  424SOL    HW2 1272   1.684   1.225   0.364 -1.3490  1.7797  1.4270
  425SOL     OW 1273   2.965   2.878   1.890  0.3340  0.7517  0.0469
  425SOL    HW1 1274   3.036   2.927   1.945 -2.0461  1.8314  3.1853
  425SOL    HW2 1275   2.873   2.896   1.930  0.6963 -0.6674  0.7806
  426SOL     OW 1276   2.559   2.635   2.946  0.2494 -0.0552  0.3798
  426SOL    HW1 1277   2.588   2.627   3.040  0.0917  1.6435 -3.0479
  426SOL    HW2 1278   2.628   2.680   2.887  1.0397  1.7836 -0.5195
  427SOL     OW 1279   0.806   0.681   2.321  0.0704 -0.0294  0.2664
  427SOL    HW1 1280   0.866   0.700   2.401  0.3843  1.5576 -1.2866
  427SOL    HW2 1281   0.854   0.712   2.233 -0.9771  2.3503 -2.0222
  428SOL     OW 1282   2.174   0.720   2.536  0.5849  0.2682 -0.6438
  428SOL    HW1 1283   2.233   0.755   2.457  0.0038 -0.7075  0.3051
  428SOL    HW2 1284   2.075   0.749   2.526 -5.8863 -0.7999 -1.2009
  429SOL     OW 1285   2.467   0.221   0.546 -0.4424 -0.4070  0.1700
  429SOL    HW1 1286   2.531   0.171   0.487 -1.6078  2.1942  1.4682
  429SOL    HW2 1287   2.466   0.320   0.517 -1.9379 -0.9952 -0.5012
  430SOL     OW 1288   1.790   1.196   2.139  0.2193 -0.1053 -0.1645
  430SOL    HW1 1289   1.864   1.266   2.153 -0.4073 -0.5028  1.0633
  430SOL    HW2 1290   1.803   1.132   2.060  1.2221  1.0839 -2.4014
  431SOL     OW 1291   2.802   2.099   1.260 -0.2480  0.0817  0.3235
  431SOL    HW1 1292   2.888   2.159   1.254 -0.2654 -1.3642 -0.4080
  431SOL    HW2 1293   2.721   2.156   1.278 -1.1119 -0.0238 -1.3029
  432SOL     OW 1294   1.786   2.788   2.442 -0.9102 -0.0227 -0.3524
  432SOL    HW1 1295   1.734   2.790   2.358 -0.5461 -2.6309  2.1391
  432SOL    HW2 1296   1.848   2.705   2.459  1.1396 -3.3759  1.4572
  433SOL     OW 1297   1.639   0.047   1.465  0.2925 -0.3395 -0.5272
  433SOL    HW1 1298   1.626   3.047   1.384  3.0547  0.4112  0.1306
  433SOL    HW2 1299   1.655   3.056   1.551 -0.8661 -2.6716 -1.7716
  434SOL     OW 1300   2.930   2.509   2.159  0.2872  0.4084  0.3795
  434SOL    HW1 1301   3.020   2.546   2.131 -0.2695  2.3386 -0.2634
  434SOL    HW2 1302   2.872   2.488   2.079 -0.2858  1.0943  3.0920
  435SOL     OW 1303   0.058   1.857   0.370 -0.0783 -0.0879  0.6549
  435SOL    HW1 1304   0.129   1.814   0.426  0.9701  1.2886  1.0872
  435SOL    HW2 1305   0.087   1.862   0.273  1.3211 -1.4121  1.2257
  436SOL     OW 1306   0.892   1.313   1.570 -0.0365  0.1825  0.2006
  436SOL    HW1 1307   0.965   1.344   1.506  0.6486  1.2272 -0.8820
  436SOL    HW2 1308   0.913   1.230   1.624 -0.7788  1.3872 -0.1623
  437SOL     OW 1309   0.553   0.554   2.932 -0.0111  0.2630 -0.0046
  437SOL    HW1 1310   0.627   0.618   2.967 -1.6467  0.1497 -1.7422
  437SOL    HW2 1311   0.493   0.528   3.008  0.4318  1.8769 -2.6523
  438SOL     OW 1312   0.807   2.037   1.687 -0.1633  0.7438  0.3235
  438SOL    HW1 1313   0.742   2.113   1.666  0.0784 -2.0849 -1.2033
  438SOL    HW2 1314   0.831   1.989   1.600 -0.6869 -1.0844  0.8124
  439SOL     OW 1315   1.803   1.062   2.965 -0.4083 -0.1449 -0.1338
  439SOL    HW1 1316   1.876   1.132   2.988  1.5875  0.4219  0.1214
  439SOL    HW2 1317   1.836   0.974   2.915 -1.3758 -2.7455 -1.9512
  440SOL     OW 1318   1.086   0.772   0.273  0.1725 -0.5408  0.0582
  440SOL    HW1 1319   1.084   0.871   0.300  1.4968 -2.8112 -1.7567
  440SOL    HW2 1320   1.128   0.713   0.344 -0.1054  0.7153 -0.5405
  441SOL     OW 1321   0.563   2.893   1.647  0.1620 -0.2633 -0.1661
  441SOL    HW1 1322   0.583   2.800   1.684  1.1432 -0.0608  0.4353
  441SOL    HW2 1323   0.559   2.964   1.725  0.7356  2.0485  2.1184
  442SOL     OW 1324   2.099   2.394   0.852  0.7080  0.1405  0.7195
  442SOL    HW1 1325   2.000   2.378   0.869 -0.3103 -0.2094 -1.6836
  442SOL    HW2 1326   2.119   2.490   0.857 -0.4278 -0.7741 -0.0607
  443SOL     OW 1327   2.624   1.275   2.578 -0.4027  0.2251  0.1040
  443SOL    HW1 1328   2.583   1.232   2.658  0.2810 -0.5984  0.9423
  443SOL    HW2 1329   2.566   1.281   2.496  1.3469  0.1308  0.8889
  444SOL     OW 1330   1.236   0.692   2.576  0.2851  0.2529 -0.2171
  444SOL    HW1 1331   1.291   0.679   2.662 -0.3218  2.3337 -2.4540
  444SOL    HW2 1332   1.281   0.760   2.517  2.5946 -3.1595 -2.4325
  445SOL     OW 1333   2.382   2.667   1.684 -0.3420 -0.3164  0.4711
  445SOL    HW1 1334   2.425   2.650   1.776 -1.1281 -4.2542  2.1440
  445SOL    HW2 1335   2.389   2.583   1.630  0.5682 -0.2169  2.3486
  446SOL     OW 1336   2.684   1.750   0.336 -0.2773  0.1870 -0.1529
  446SOL    HW1 1337   2.712   1.777   0.243 -1.9321  0.8280  1.0393
  446SOL    HW2 1338   2.742   1.799   0.402  0.4256 -0.3904 -0.9577
  447SOL     OW 1339   1.355   2.645   1.473 -0.4833 -0.6441  0.4224
  447SOL    HW1 1340   1.455   2.656   1.481 -0.1530 -0.4667  0.2201
  447SOL    HW2 1341   1.309   2.728   1.513 -0.8528  1.9948  0.2631
  448SOL     OW 1342   1.707   1.539   2.043  0.9991  0.1175  0.6564
  448SOL    HW1 1343   1.646   1.576   1.966  0.2828  1.6665 -0.4096
  448SOL    HW2 1344   1.661   1.492   2.123 -0.9606  0.4083  1.4518
  449SOL     OW 1345   0.260   2.000   2.182 -0.0765 -0.4883  0.0261
  449SOL    HW1 1346   0.273   2.074   2.252  0.6495  0.6931  1.2889
  449SOL    HW2 1347   0.343   1.993   2.127 -0.8476  0.9314  1.4847
  450SOL     OW 1348   2.826   1.547   2.497  0.2812  0.2664 -0.5213
  450SOL    HW1 1349   2.839   1.445   2.501 -0.4892  1.6678  2.3374
  450SOL    HW2 1350   2.749   1.574   2.558  0.4448 -1.8560  0.3679
  451SOL     OW 1351   2.357   0.729   1.275 -0.4730 -0.3992  0.2743
  451SOL    HW1 1352   2.343   0.630   1.301 -0.9196 -0.8515  0.9680
  451SOL    HW2 1353   2.455   0.756   1.261 -2.1465  0.7002  0.7241
  452SOL     OW 1354   0.903   2.073   1.329  0.8230 -0.1044 -0.5141
  452SOL    HW1 1355   0.954   2.118   1.405 -2.9512 -1.4378  0.6411
  452SOL    HW2 1356   0.876   2.131   1.250  1.2080  2.3860 -1.2968
  453SOL     OW 1357   1.237   2.173   0.797 -0.3484  0.3975 -0.1241
  453SOL    HW1 1358   1.329   2.214   0.781  0.6145  2.1808 -1.4371
  453SOL    HW2 1359   1.167   2.246   0.784  0.4038 -0.9289 -3.1527
  454SOL     OW 1360   0.169   1.210   0.701  0.3500 -0.5856  0.0330
  454SOL    HW1 1361   0.114   1.204   0.788  0.0865  0.7129 -1.6002
  454SOL    HW2 1362   0.255   1.269   0.712  1.0055 -0.4354  2.7069
  455SOL     OW 1363   0.724   0.956   0.509  0.2834 -0.3049 -0.4118
  455SOL    HW1 1364   0.679   0.972   0.416  1.3409 -1.3590 -1.8605
  455SOL    HW2 1365   0.664   0.900   0.571  0.9013 -0.2665 -0.7296
  456SOL     OW 1366   1.970   2.366   1.136 -0.0287 -0.1075 -0.5770
  456SOL    HW1 1367   2.055   2.397   1.182 -0.7328 -1.4082 -1.0692
  456SOL    HW2 1368   1.910   2.447   1.117 -0.8257 -0.9544 -1.2100
  457SOL     OW 1369   1.429   2.752   2.827 -0.2818 -0.4529  0.4786
  457SOL    HW1 1370   1.464   2.661   2.858 -0.6298  1.4933  1.0085
  457SOL    HW2 1371   1.352   2.781   2.878  2.1342 -0.4231  1.9815
  458SOL     OW 1372   2.569   3.029   2.929 -0.6538  0.2570 -0.5355
  458SOL    HW1 1373   2.528   2.935   2.943  1.6119 -0.1783  1.6278
  458SOL    HW2 1374   2.521   0.021   2.858  2.1988  0.9118  1.2996
  459SOL     OW 1375   2.321   0.260   2.124  0.0767 -0.3086  0.2743
  459SOL    HW1 1376   2.261   0.335   2.147 -1.9843 -1.9300 -4.2241
  459SOL    HW2 1377   2.350   0.201   2.202  1.1548 -1.8326  0.1686
  460SOL     OW 1378   2.870   0.665   2.689  0.1953  0.2575  0.5204
  460SOL    HW1 1379   2.930   0.583   2.673  0.1757 -2.0677 -2.7475
  460SOL    HW2 1380   2.786   0.632   2.731  0.2957 -0.5000 -0.2286
  461SOL     OW 1381   2.892   1.868   0.775 -0.1081  0.6609 -0.2967
  461SOL    HW1 1382   2.969   1.804   0.808  2.2209 -2.5927  2.6357
  461SOL    HW2 1383   2.801   1.821   0.802 -2.0796 -0.4782 -0.8530
  462SOL     OW 1384   0.096   0.197   0.878 -0.0731  0.7370 -0.6647
  462SOL    HW1 1385   0.033   0.127   0.829 -1.3550 -1.8794 -0.7856
  462SOL    HW2 1386   0.038   0.277   0.898 -1.4231 -1.1280  0.0327
  463SOL     OW 1387   2.310   1.331   0.041 -0.0075  0.0046 -0.3488
  463SOL    HW1 1388   2.316   1.410   0.105 -0.4563  4.0838 -1.0833
  463SOL    HW2 1389   2.282   1.361   3.013 -0.6457 -1.4275 -1.6165
  464SOL     OW 1390   0.936   2.929   1.322  0.0320  0.8662 -0.3172
  464SOL    HW1 1391   0.921   3.025   1.347 -1.7757 -1.8793 -0.5687
  464SOL    HW2 1392   0.870   2.895   1.247 -3.7871  1.8214 -3.4459
  465SOL     OW 1393   1.239   0.423   1.454 -0.0604  0.2641 -0.0526
  465SOL    HW1 1394   1.280   0.333   1.476 -1.0258 -0.7044 -0.2182
  465SOL    HW2 1395   1.151   0.441   1.503 -0.9753  1.5339  0.1303
  466SOL     OW 1396   1.790   2.578   2.036  0.4049 -0.8321 -0.4146
  466SOL    HW1 1397   1.868   2.644   2.030 -0.1795 -0.2488 -2.5274
  466SOL    HW2 1398   1.718   2.600   1.964  2.7289  1.1992  2.9496
  467SOL     OW 1399   0.598   2.624   1.670 -0.3681 -0.4835  0.5224
  467SOL    HW1 1400   0.693   2.609   1.701 -0.5179 -2.1793  0.2580
  467SOL    HW2 1401   0.608   2.647   1.570  2.5059 -0.1538 -0.9505
  468SOL     OW 1402   0.101   1.564   1.977  0.2970 -0.3635  0.2806
  468SOL    HW1 1403   0.031   1.510   2.027  0.0287 -1.3891 -1.2141
  468SOL    HW2 1404   0.058   1.635   1.913 -1.9056 -0.2284 -2.4159
  469SOL     OW 1405   0.827   1.956   0.784 -0.2893 -0.6386  0.5337
  469SOL    HW1 1406   0.822   2.057   0.774 -0.1634  0.1408  0.6704
  469SOL    HW2 1407   0.927   1.932   0.773 -1.0117  0.6020  0.3037
  470SOL     OW 1408   2.006   1.278   2.333  0.5075  0.5014  0.9281
  470SOL    HW1 1409   1.976   1.274   2.434  1.1251  0.0561  1.9113
  470SOL    HW2 1410   2.087   1.223   2.318  0.1399 -0.2806  1.1864
  471SOL     OW 1411   0.353   2.494   0.141  0.0134  0.3642  0.6144
  471SOL    HW1 1412   0.271   2.551   0.165 -0.5339 -4.3129  1.7673
  471SOL    HW2 1413   0.385   2.516   0.050 -2.1011 -2.8573  3.4700
  472SOL     OW 1414   0.021   2.819   2.265  0.9141  0.1715 -0.3920
  472SOL    HW1 1415   0.094   2.767   2.318 -0.7329 -0.8098 -0.1605
  472SOL    HW2 1416   2.992   2.818   2.311  1.0078  0.3471  0.7630
  473SOL     OW 1417   0.606   2.766   0.006  0.0937  0.4699 -0.1396
  473SOL    HW1 1418   0.572   2.858   3.039  0.9299  1.4937 -0.6446
  473SOL    HW2 1419   0.698   2.745   3.031  0.0258  0.1783  0.8155
  474SOL     OW 1420   1.645   0.053   0.763 -0.1204  0.9581 -0.5751
  474SOL    HW1 1421   1.664   3.042   0.691  0.7148 -1.4615 -0.3822
  474SOL    HW2 1422   1.732   0.109   0.774  0.2893 -0.8683 -1.3022
  475SOL     OW 1423   1.369   0.172   1.536 -0.0239 -1.0571 -0.3163
  475SOL    HW1 1424   1.289   0.120   1.492 -3.3745 -3.7869  0.6843
  475SOL    HW2 1425   1.457   0.139   1.498  1.0868  1.3642 -0.5833
  476SOL     OW 1426   0.405   1.075   1.194 -0.0926  0.0998  0.2673
  476SOL    HW1 1427   0.360   0.993   1.234  1.9878  0.6150 -0.5327
  476SOL    HW2 1428   0.461   1.043   1.110  1.5207 -0.3086 -1.6970
  477SOL     OW 1429   0.382   1.840   0.701 -0.3069  0.2194 -0.0255
  477SOL    HW1 1430   0.486   1.818   0.717  1.8377 -2.4181  1.1164
  477SOL    HW2 1431   0.369   1.944   0.709  1.1948 -2.1096  0.6332
  478SOL     OW 1432   0.137   2.470   2.521 -0.4308  0.3110 -0.2875
  478SOL    HW1 1433   0.073   2.529   2.570 -1.3127 -0.5523  1.1110
  478SOL    HW2 1434   0.089   2.414   2.449 -1.3569  1.3936 -0.9848
  479SOL     OW 1435   2.947   0.359   1.299  0.0337 -0.4391  0.3074
  479SOL    HW1 1436   2.955   0.462   1.283 -1.0969  4.8994  0.6177
  479SOL    HW2 1437   3.022   0.331   1.359 -0.6274  0.3617 -2.3280
  480SOL     OW 1438   2.738   2.371   0.048 -0.5778 -0.1865 -0.2443
  480SOL    HW1 1439   2.762   2.311   0.125  1.1480  1.4124  0.8902
  480SOL    HW2 1440   2.715   2.468   0.076 -1.3808  3.0686 -0.2956
  481SOL     OW 1441   2.291   1.871   1.564 -0.0939 -0.4429 -0.2340
  481SOL    HW1 1442   2.393   1.861   1.552  1.2058 -0.8468 -3.6017
  481SOL    HW2 1443   2.263   1.970   1.587 -1.5997  4.1385  1.1566
  482SOL     OW 1444   1.752   1.715   2.322 -0.2193 -0.2826  0.3760
  482SOL    HW1 1445   1.711   1.673   2.241 -0.0889  0.9626  3.1278
  482SOL    HW2 1446   1.672   1.748   2.381 -0.3249  0.4412  0.1761
  483SOL     OW 1447   0.928   1.386   1.895  0.5838 -0.0554 -0.3902
  483SOL    HW1 1448   1.019   1.382   1.855 -2.2612  2.2978  4.4311
  483SOL    HW2 1449   0.896   1.290   1.901 -1.8589  1.5597  1.0201
  484SOL     OW 1450   0.200   0.500   1.380  0.1150  0.3516  0.0806
  484SOL    HW1 1451   0.172   0.407   1.411  1.7786  0.1914 -1.7731
  484SOL    HW2 1452   0.201   0.497   1.274 -1.4762 -2.4852 -0.8971
  485SOL     OW 1453   2.404   1.071   0.077  0.4745 -0.1729 -0.6423
  485SOL    HW1 1454   2.463   1.064   0.162 -0.0974  0.7443  0.7319
  485SOL    HW2 1455   2.390   1.170   0.056  0.5398  2.8053  0.3932
  486SOL     OW 1456   1.626   0.255   1.918 -0.5474  0.6475  0.0647
  486SOL    HW1 1457   1.596   0.292   1.830 -0.8686  0.5095  1.3989
  486SOL    HW2 1458   1.691   0.181   1.893 -2.2497  0.1300 -0.4356
  487SOL     OW 1459   0.939   2.335   1.676 -0.2583  0.0069  0.3813
  487SOL    HW1 1460   0.878   2.260   1.707  1.5710  2.4332  1.1286
  487SOL    HW2 1461   0.938   2.413   1.746 -1.0438 -1.3777 -0.8306
  488SOL     OW 1462   2.195   1.470   2.874 -0.1087  0.1858  0.1871
  488SOL    HW1 1463   2.256   1.494   2.794  0.4642 -0.6910  1.7329
  488SOL    HW2 1464   2.154   1.550   2.918 -0.9959 -2.1982 -0.7496
  489SOL     OW 1465   1.964   2.792   0.713  0.0012 -0.0344 -0.0613
  489SOL    HW1 1466   1.935   2.701   0.670  0.6468 -4.0794 -1.1854
  489SOL    HW2 1467   2.018   2.856   0.651  1.1869  4.1584  1.0364
  490SOL     OW 1468   0.689   2.289   2.925  0.2191  0.3684  0.3788
  490SOL    HW1 1469   0.634   2.221   2.872  0.2567  0.8852 -1.7721
  490SOL    HW2 1470   0.625   2.357   2.965  0.1206 -2.4547  1.7298
  491SOL     OW 1471   1.023   1.437   1.369 -0.3376 -0.1586 -0.3557
  491SOL    HW1 1472   1.038   1.516   1.302 -0.6015  0.4158  0.5741
  491SOL    HW2 1473   1.114   1.405   1.403  0.6438  1.1807 -0.2075
  492SOL     OW 1474   1.070   0.533   2.145  0.1383 -0.5278 -0.4815
  492SOL    HW1 1475   1.133   0.546   2.223  3.0111  0.9500 -4.0022
  492SOL    HW2 1476   1.030   0.616   2.109  1.2756 -1.2479  1.4711
  493SOL     OW 1477   1.996   1.957   0.525 -0.0056  0.3191  0.4473
  493SOL    HW1 1478   1.979   1.857   0.518  0.9241 -4.0310  0.6978
  493SOL    HW2 1479   1.915   2.016   0.496 -2.3208 -0.4563 -2.6184
  494SOL     OW 1480   0.782   1.334   0.792 -0.8250  0.1442  0.0755
  494SOL    HW1 1481   0.764   1.300   0.699  1.7121  0.2392 -0.0725
  494SOL    HW2 1482   0.753   1.431   0.807  0.3746  1.1753 -1.9203
  495SOL     OW 1483   2.350   2.408   0.629  0.4931  1.0164 -0.1848
  495SOL    HW1 1484   2.258   2.452   0.608 -0.2398 -0.0767 -1.9788
  495SOL    HW2 1485   2.338   2.318   0.675 -0.1750 -3.1748 -0.6529
  496SOL     OW 1486   2.691   0.073   1.425  0.7927  0.6382 -0.3962
  496SOL    HW1 1487   2.616   0.027   1.368  0.9836  0.0167 -1.6366
  496SOL    HW2 1488   2.782   0.036   1.416 -4.9368  1.2662  0.5359
  497SOL     OW 1489   2.307   1.032   2.453  0.7682 -0.0243 -0.0774
  497SOL    HW1 1490   2.374   1.052   2.380 -0.1583  0.9074 -0.8618
  497SOL    HW2 1491   2.290   1.121   2.508  1.6286 -0.6362  0.3425
  498SOL     OW 1492   0.330   2.110   1.234 -0.1905 -0.4657  0.5977
  498SOL    HW1 1493   0.255   2.043   1.210  2.0679 -0.4514 -1.8824
  498SOL    HW2 1494   0.408   2.092   1.170 -0.0910 -0.4468  0.6013
  499SOL     OW 1495   1.596   2.646   1.869 -0.2896  0.7866 -0.0500
  499SOL    HW1 1496   1.536   2.721   1.841  2.1922  0.3348  1.7231
  499SOL    HW2 1497   1.633   2.584   1.795 -2.0165 -1.0953  1.3873
  500SOL     OW 1498   0.623   1.944   0.237 -0.3180  0.2572  0.3679
  500SOL    HW1 1499   0.719   1.974   0.213  3.6721 -1.2854 -0.0354
  500SOL    HW2 1500   0.606   1.849   0.209  0.4410  1.5870  0.6435
  501SOL     OW 1501   1.928   0.008   1.188 -0.4439 -0.1671  0.2650
  501SOL    HW1 1502   1.930   3.032   1.095  0.0268 -0.3666  0.0514
  501SOL    HW2 1503   1.984   3.010   1.246 -2.0963  0.8675  1.0832
  502SOL     OW 1504   2.849   0.340   1.579  0.0820  0.0700 -0.4578
  502SOL    HW1 1505   2.851   0.308   1.486 -0.8480 -1.5800  2.6843
  502SOL    HW2 1506   2.887   0.274   1.648 -0.1723  0.4413  1.5835
  503SOL     OW 1507   2.544   1.150   1.890  0.3269 -0.5600 -0.0960
  503SOL    HW1 1508   2.466   1.087   1.898  1.2886  1.7137  0.0222
  503SOL    HW2 1509   2.630   1.110   1.922  1.0460  2.0247 -1.7438
  504SOL     OW 1510   1.565   1.036   1.854  0.5187 -0.4631 -0.8342
  504SOL    HW1 1511   1.518   0.944   1.859 -2.1761  0.5851 -0.4961
  504SOL    HW2 1512   1.507   1.120   1.870 -1.1664 -0.6565 -1.8844
  505SOL     OW 1513   0.802   0.042   1.637  0.0014 -0.2806 -0.4883
  505SOL    HW1 1514   0.730   3.039   1.605  2.1360 -5.0049 -0.4576
  505SOL    HW2 1515   0.861   3.059   1.710 -0.3255 -0.9724 -0.8189
  506SOL     OW 1516   0.281   0.235   0.603 -0.1901 -0.6632 -0.1210
  506SOL    HW1 1517   0.275   0.305   0.527 -1.1009  1.9825 -2.5423
  506SOL    HW2 1518   0.302   0.284   0.693  0.5335  0.1440  1.0056
  507SOL     OW 1519   2.452   0.425   0.052 -0.1265 -0.0137 -0.0370
  507SOL    HW1 1520   2.498   0.334   0.045 -1.3967 -1.0289 -0.6212
  507SOL    HW2 1521   2.370   0.434   3.056 -1.9706 -0.6101  1.1449
  508SOL     OW 1522   1.728   0.466   2.029 -0.2930  0.2393 -0.4055
  508SOL    HW1 1523   1.680   0.377   2.011 -0.0994 -2.5618  0.6668
  508SOL    HW2 1524   1.713   0.532   1.952 -0.6261  0.1384  0.2714
  509SOL     OW 1525   1.553   1.597   1.470 -0.4926  0.0828  0.1970
  509SOL    HW1 1526   1.600   1.510   1.496  1.3751  0.3148 -2.7831
  509SOL    HW2 1527   1.452   1.594   1.466 -1.0433 -2.7076  0.1077
  510SOL     OW 1528   2.578   1.312   1.228  0.3493 -0.9247 -0.2242
  510SOL    HW1 1529   2.495   1.301   1.170 -0.2321  0.4245  0.6259
  510SOL    HW2 1530   2.652   1.358   1.179 -1.4204 -0.2348  2.0617
  511SOL     OW 1531   1.586   2.057   1.161 -0.0018  0.2096  0.6225
  511SOL    HW1 1532   1.601   1.964   1.131 -2.4433  1.0737 -0.0460
  511SOL    HW2 1533   1.668   2.087   1.209  0.0333 -0.4678  0.7249
  512SOL     OW 1534   0.125   1.500   0.435 -0.0097 -0.2113  0.6267
  512SOL    HW1 1535   0.177   1.421   0.391 -1.0699  1.5084 -0.6985
  512SOL    HW2 1536   0.170   1.591   0.429  0.8540 -0.1581  0.2600
  513SOL     OW 1537   2.913   1.942   0.049  0.5362 -0.3901 -0.2606
  513SOL    HW1 1538   2.966   2.006   3.048  3.2364  0.6490 -1.4791
  513SOL    HW2 1539   2.972   1.892   0.119 -1.5218 -1.2175  1.5043
  514SOL     OW 1540   2.482   1.925   2.233  0.0788  0.8383 -0.7358
  514SOL    HW1 1541   2.565   1.971   2.273 -4.0090  1.5275 -0.5421
  514SOL    HW2 1542   2.495   1.819   2.235  1.4911  1.4106 -0.5684
  515SOL     OW 1543   2.033   1.138   0.905 -0.1045 -0.0819  0.9467
  515SOL    HW1 1544   1.933   1.148   0.880 -0.0376  0.3800 -2.1353
  515SOL    HW2 1545   2.077   1.052   0.868 -0.9496  1.0482  0.8787
  516SOL     OW 1546   1.922   2.675   0.130  0.3211 -0.4967 -0.1737
  516SOL    HW1 1547   1.872   2.647   0.044 -1.5701 -0.8787 -1.6006
  516SOL    HW2 1548   1.853   2.698   0.201  1.9596  1.1287 -2.0045
  517SOL     OW 1549   0.815   1.899   2.527  0.4154 -0.4088 -0.4220
  517SOL    HW1 1550   0.845   1.843   2.448  1.5468 -0.5282  1.7532
  517SOL    HW2 1551   0.722   1.873   2.558  0.9227 -1.2785 -3.5429
  518SOL     OW 1552   0.382   0.196   1.971  0.3272  0.2071 -0.2381
  518SOL    HW1 1553   0.307   0.256   2.003 -1.7692  0.0094  0.1741
  518SOL    HW2 1554   0.472   0.242   1.990  0.7603 -0.3741 -1.8094
  519SOL     OW 1555   0.194   1.209   0.438  0.3751  0.2933 -0.0702
  519SOL    HW1 1556   0.175   1.117   0.393 -3.0169 -1.7254 -1.1973
  519SOL    HW2 1557   0.168   1.215   0.537  1.2153  2.9293 -2.2546
  520SOL     OW 1558   2.464   1.597   1.571  0.6611  0.2909  0.0172
  520SOL    HW1 1559   2.526   1.573   1.651  0.0566 -1.7754  2.5372
  520SOL    HW2 1560   2.491   1.689   1.533 -0.2209 -0.9210  0.9050
  521SOL     OW 1561   0.540   2.595   2.480  0.2745  0.3173  0.2272
  521SOL    HW1 1562   0.529   2.497   2.453  0.3294 -1.8510  2.4025
  521SOL    HW2 1563   0.501   2.648   2.398 -0.0921  0.9281 -4.5010
  522SOL     OW 1564   1.940   0.176   2.045  0.5222 -0.3562 -0.2095
  522SOL    HW1 1565   2.035   0.196   2.006  2.1752  1.2467  0.7845
  522SOL    HW2 1566   1.914   0.238   2.125 -0.6757  0.3855  1.0068
  523SOL     OW 1567   1.960   1.736   1.813  0.2535 -0.1465 -0.1908
  523SOL    HW1 1568   2.027   1.805   1.849  0.0446 -1.4240 -0.4834
  523SOL    HW2 1569   1.966   1.660   1.877  0.2474  2.7073  0.4627
  524SOL     OW 1570   0.748   2.965   0.475  0.9194 -0.4047 -0.5813
  524SOL    HW1 1571   0.724   2.868   0.453 -0.7424  0.4356  1.9254
  524SOL    HW2 1572   0.828   3.000   0.427 -1.1903 -0.0186  1.2282
  525SOL     OW 1573   0.070   0.399   0.241  0.3352  0.6964 -0.0727
  525SOL    HW1 1574   0.006   0.353   0.297  0.6318  1.0335 -2.4742
  525SOL    HW2 1575   0.164   0.404   0.282  2.4648  3.3031  1.3284
  526SOL     OW 1576   0.735   2.684   0.645  0.2819  0.3663  0.0271
  526SOL    HW1 1577   0.801   2.731   0.703 -1.5472  0.2348  0.7271
  526SOL    HW2 1578   0.637   2.720   0.657 -4.2350  0.0210  0.0793
  527SOL     OW 1579   2.224   1.714   0.842 -0.1031 -0.2272  0.3058
  527SOL    HW1 1580   2.132   1.714   0.796 -0.4803  0.9267  1.9732
  527SOL    HW2 1581   2.219   1.640   0.913  0.6922  0.5743  0.0759
  528SOL     OW 1582   2.929   2.797   2.506  0.0756 -0.9699  0.5906
  528SOL    HW1 1583   2.879   2.728   2.453  2.2686 -0.5041 -0.4816
  528SOL    HW2 1584   3.001   2.755   2.563  0.4466 -1.7084 -0.0666
  529SOL     OW 1585   0.990   1.520   2.367 -0.5137 -0.0617 -0.1431
  529SOL    HW1 1586   1.045   1.579   2.300  0.5037  0.1438  1.6560
  529SOL    HW2 1587   1.001   1.559   2.461  1.4909  2.0813  0.5850
  530SOL     OW 1588   1.605   1.262   2.921 -0.2848 -0.0694  0.4492
  530SOL    HW1 1589   1.519   1.208   2.909 -1.4203 -0.8656 -1.0794
  530SOL    HW2 1590   1.687   1.197   2.929 -0.2661 -2.0444 -0.5864
  531SOL     OW 1591   0.621   1.424   2.896 -0.3664 -0.2068 -0.3216
  531SOL    HW1 1592   0.555   1.441   2.825 -1.3583 -0.5795  0.0393
  531SOL    HW2 1593   0.645   1.325   2.900  0.8586 -0.2719  0.4185
  532SOL     OW 1594   1.482   1.533   0.432  0.1373  0.1915  0.1589
  532SOL    HW1 1595   1.388   1.544   0.469  1.2645 -1.9622 -0.3633
  532SOL    HW2 1596   1.516   1.628   0.417 -0.5106 -2.2815  0.9193
  533SOL     OW 1597   0.560   0.253   2.417 -0.1685 -0.0431 -0.0558
  533SOL    HW1 1598   0.625   0.300   2.355 -0.4750  0.6302  0.1980
  533SOL    HW2 1599   0.603   0.240   2.505 -1.8026 -3.6937 -0.0454
  534SOL     OW 1600   0.533   2.512   2.969  0.1651 -0.0255  0.0448
  534SOL    HW1 1601   0.481   2.523   2.882  0.3551  1.1217 -0.2117
  534SOL    HW2 1602   0.558   2.601   3.016 -0.6509  2.9020  2.2335
  535SOL     OW 1603   0.322   3.030   0.663 -0.6128  0.3075  0.0518
  535SOL    HW1 1604   0.327   3.003   0.761 -1.8821  0.7573 -0.5083
  535SOL    HW2 1605   0.288   0.069   0.661 -3.8258  0.9412 -2.4675
  536SOL     OW 1606   0.115   0.944   2.073  0.6063 -0.4277  0.3330
  536SOL    HW1 1607   0.099   0.966   1.975 -0.0565 -1.6804  1.2558
  536SOL    HW2 1608   0.199   0.893   2.084 -0.4487  1.8688  0.3612
  537SOL     OW 1609   1.189   0.018   1.386 -0.0044 -0.1832  0.6347
  537SOL    HW1 1610   1.092   0.057   1.399 -0.1930  0.2945  0.1836
  537SOL    HW2 1611   1.200   3.051   1.286 -1.6360  1.5582 -2.9280
  538SOL     OW 1612   2.862   1.903   0.503 -0.2734 -0.1862  0.2832
  538SOL    HW1 1613   2.947   1.879   0.454 -1.5457  1.3647  1.3604
  538SOL    HW2 1614   2.876   1.894   0.600  0.5628  1.7787 -1.1368
  539SOL     OW 1615   2.623   0.861   2.158  0.0331  0.1513 -0.1916
  539SOL    HW1 1616   2.719   0.826   2.171  2.7789 -1.4606 -4.1113
  539SOL    HW2 1617   2.574   0.808   2.090 -1.1880 -1.8083  0.4280
  540SOL     OW 1618   1.709   1.027   2.329  0.0508 -0.7583  0.1019
  540SOL    HW1 1619   1.640   1.060   2.400 -2.2521 -1.0277  1.5130
  540SOL    HW2 1620   1.770   1.098   2.285  1.6980 -1.1405  2.0045
  541SOL     OW 1621   0.738   0.874   1.946 -0.0321 -0.5438 -0.7659
  541SOL    HW1 1622   0.797   0.880   2.028  0.1078 -1.8765 -1.1898
  541SOL    HW2 1623   0.668   0.803   1.959 -0.4594  3.4952  1.0125
  542SOL     OW 1624   1.871   0.164   2.371  0.0245  0.1803 -0.0812
  542SOL    HW1 1625   1.907   0.255   2.397  1.0240 -1.5963  0.2980
  542SOL    HW2 1626   1.935   0.093   2.404  0.2394  2.4395 -2.0077
  543SOL     OW 1627   1.091   0.263   0.469 -0.5123  0.4834  0.7790
  543SOL    HW1 1628   1.033   0.329   0.517  1.7273 -0.0984 -1.7077
  543SOL    HW2 1629   1.094   0.291   0.368  0.2388  3.2922 -2.9200
  544SOL     OW 1630   2.624   1.582   1.809 -0.7744 -0.4111  0.4938
  544SOL    HW1 1631   2.687   1.511   1.850 -0.5479 -0.1526 -1.4605
  544SOL    HW2 1632   2.654   1.676   1.839  0.9591  2.5851  3.1757
  545SOL     OW 1633   1.965   2.324   1.566  0.0802  0.0708 -0.3757
  545SOL    HW1 1634   1.999   2.320   1.663  0.8182 -1.1116 -2.6080
  545SOL    HW2 1635   1.970   2.234   1.520 -0.4003 -0.2605  0.2801
  546SOL     OW 1636   0.317   0.223   2.856 -0.0393  0.3192  0.1342
  546SOL    HW1 1637   0.277   0.148   2.802  0.4823  2.2884  1.7735
  546SOL    HW2 1638   0.265   0.235   2.941  1.0754 -1.8287 -3.5866
  547SOL     OW 1639   1.848   0.858   0.632  0.4709  0.4062 -0.3585
  547SOL    HW1 1640   1.754   0.843   0.592  2.9274  0.0156  0.4263
  547SOL    HW2 1641   1.909   0.919   0.575  1.4372  0.1235 -1.0936
  548SOL     OW 1642   2.163   1.627   2.075 -0.6308  0.1021  0.0345
  548SOL    HW1 1643   2.234   1.629   2.000  1.9652 -0.6118 -0.1967
  548SOL    HW2 1644   2.212   1.602   2.159 -0.1198 -0.8246 -0.2650
  549SOL     OW 1645   1.988   0.138   0.443  1.0500  0.0142  0.3584
  549SOL    HW1 1646   2.023   0.196   0.365  1.3893  0.5461  0.8880
  549SOL    HW2 1647   1.964   0.188   0.527 -0.5170 -0.6436 -0.0478
  550SOL     OW 1648   2.263   2.190   0.773 -0.5327 -0.3242  0.5317
  550SOL    HW1 1649   2.285   2.125   0.845 -1.7032  1.0440 -0.5361
  550SOL    HW2 1650   2.174   2.234   0.799 -1.4426  4.7029  1.1835
  551SOL     OW 1651   1.239   2.869   1.564 -0.3834 -0.0640 -0.0106
  551SOL    HW1 1652   1.210   2.935   1.492 -1.0022 -0.0486  0.3674
  551SOL    HW2 1653   1.171   2.824   1.622 -0.3967  0.1349 -0.6399
  552SOL     OW 1654   2.686   1.974   2.411 -0.2443 -0.3071 -0.0106
  552SOL    HW1 1655   2.696   1.907   2.488  0.9936  0.6686 -1.6793
  552SOL    HW2 1656   2.781   2.005   2.391 -4.0228 -1.8177 -0.1209
  553SOL     OW 1657   0.363   2.983   0.919  0.3536 -0.1461  0.0458
  553SOL    HW1 1658   0.409   3.054   0.976  0.3290 -0.2027  0.4912
  553SOL    HW2 1659   0.336   2.904   0.979  3.3588 -2.2234  1.7948
  554SOL     OW 1660   2.214   2.121   1.655 -0.2443  0.1604 -0.0053
  554SOL    HW1 1661   2.169   2.191   1.713  1.2354  0.7417 -3.6666
  554SOL    HW2 1662   2.219   2.159   1.560 -1.6847 -0.2830  3.2412
  555SOL     OW 1663   1.144   2.181   1.956  0.4181 -0.2456  0.1469
  555SOL    HW1 1664   1.231   2.141   1.925 -3.1036  1.4305 -0.8417
  555SOL    HW2 1665   1.140   2.278   1.930 -1.1317 -1.5345 -0.3099
  556SOL     OW 1666   1.295   1.586   1.713  0.4068  0.7783 -0.3452
  556SOL    HW1 1667   1.240   1.673   1.701  1.1774 -0.9940 -0.5279
  556SOL    HW2 1668   1.378   1.601   1.776 -0.4382 -0.7959 -0.6152
  557SOL     OW 1669   1.983   2.304   2.227  0.3433  0.1204  0.7315
  557SOL    HW1 1670   2.056   2.266   2.289 -0.5059  1.5713  0.2285
  557SOL    HW2 1671   1.914   2.366   2.271 -0.5209  1.6640  0.2140
  558SOL     OW 1672   0.341   2.573   1.755  0.1276 -0.0800  0.1689
  558SOL    HW1 1673   0.317   2.644   1.826 -0.9733  0.8272  1.0405
  558SOL    HW2 1674   0.430   2.601   1.709 -0.5158  3.2715  1.1289
  559SOL     OW 1675   2.261   2.990   0.995 -1.1670 -0.4914  0.5562
  559SOL    HW1 1676   2.334   3.015   1.066 -1.9579 -1.9326 -0.7542
  559SOL    HW2 1677   2.285   2.903   0.951 -2.4825  2.8922  1.2334
  560SOL     OW 1678   1.367   2.367   0.411  0.3128  0.2079  0.4220
  560SOL    HW1 1679   1.319   2.285   0.445  2.8469  1.8411  0.0245
  560SOL    HW2 1680   1.435   2.353   0.332  3.1268  0.2283 -2.5028
  561SOL     OW 1681   0.904   0.458   2.992 -0.1648 -0.2422  0.1259
  561SOL    HW1 1682   0.972   0.379   2.993  0.0218 -2.7159  2.3470
  561SOL    HW2 1683   0.870   0.477   0.026  2.2723 -1.8436  1.8880
  562SOL     OW 1684   0.723   0.247   2.639  0.4635 -0.5520  0.4369
  562SOL    HW1 1685   0.682   0.266   2.733 -0.8233  0.2354  0.5864
  562SOL    HW2 1686   0.787   0.169   2.648 -1.6648 -0.8076  0.5149
  563SOL     OW 1687   1.331   1.728   2.782  0.1902 -0.4204 -0.4478
  563SOL    HW1 1688   1.408   1.762   2.839  0.4265  0.1793 -0.0030
  563SOL    HW2 1689   1.317   1.774   2.694  0.6641 -0.5855 -0.6452
  564SOL     OW 1690   2.373   1.105   0.921  0.1223  0.2812  0.0070
  564SOL    HW1 1691   2.475   1.102   0.939  2.5714 -0.0381  0.1192
  564SOL    HW2 1692   2.355   1.087   0.821 -1.0299 -0.2725 -1.5540
  565SOL     OW 1693   0.978   0.099   2.709  0.2080 -0.4412 -0.3052
  565SOL    HW1 1694   0.980   0.067   2.805  2.1162  2.4144 -1.5017
  565SOL    HW2 1695   1.055   0.170   2.692  1.8843 -0.3347 -0.5053
  566SOL     OW 1696   1.675   0.010   2.485 -0.2220 -0.1175 -0.6761
  566SOL    HW1 1697   1.726   0.082   2.432  0.6963 -1.4780  0.6988
  566SOL    HW2 1698   1.741   2.996   2.498  1.2851  0.0975  1.1329
  567SOL     OW 1699   2.005   1.372   0.574  0.2381  0.3147 -0.0653
  567SOL    HW1 1700   2.040   1.314   0.650  3.2455  0.4446  0.2863
  567SOL    HW2 1701   2.070   1.448   0.557  0.1454 -1.5028 -0.8919
  568SOL     OW 1702   1.790   1.834   0.250  0.4431  0.2170  0.1128
  568SOL    HW1 1703   1.879   1.883   0.239  0.8316  2.0513 -0.5409
  568SOL    HW2 1704   1.714   1.885   0.207 -0.9079 -1.5381  0.8703
  569SOL     OW 1705   2.099   1.165   0.008  0.3552 -0.3968  0.1448
  569SOL    HW1 1706   2.080   1.097   0.079  1.3377 -0.7788 -0.7193
  569SOL    HW2 1707   2.181   1.224   0.042  0.5406  2.4504  2.4501
  570SOL     OW 1708   3.039   2.324   1.409 -0.0451  0.5609 -0.3471
  570SOL    HW1 1709   2.994   2.412   1.382  1.0221 -0.8573 -0.0604
  570SOL    HW2 1710   0.074   2.345   1.426 -0.3053 -4.0993 -2.0954
  571SOL     OW 1711   0.166   0.639   1.960 -1.3982 -0.1037  0.1128
  571SOL    HW1 1712   0.129   0.661   1.868 -2.8449  0.7883 -0.2834
  571SOL    HW2 1713   0.085   0.635   2.022  1.2237 -1.5731  0.3894
  572SOL     OW 1714   1.038   1.478   0.867  0.3474  0.9027  0.2364
  572SOL    HW1 1715   0.952   1.425   0.857  0.1005  2.3580  1.1611
  572SOL    HW2 1716   1.031   1.562   0.811 -1.9862 -3.0101 -0.6261
  573SOL     OW 1717   1.144   1.860   2.950 -0.1082 -0.0202  0.0793
  573SOL    HW1 1718   1.098   1.928   2.888 -1.9873  0.2574  0.0695
  573SOL    HW2 1719   1.200   1.793   2.897  0.1926  0.2429  1.3496
  574SOL     OW 1720   1.125   0.067   0.735 -0.5477 -0.2921 -0.4847
  574SOL    HW1 1721   1.031   0.057   0.695  0.5931 -0.4890  1.4360
  574SOL    HW2 1722   1.145   0.168   0.745 -0.0771 -1.0105 -3.0127
  575SOL     OW 1723   0.303   1.070   1.531  0.4031  0.1446 -0.1613
  575SOL    HW1 1724   0.225   1.121   1.505  0.3286 -3.6681 -0.6575
  575SOL    HW2 1725   0.333   1.104   1.626  0.7340  2.3603  1.0296
  576SOL     OW 1726   2.124   3.051   1.452 -0.4611  0.6051  0.6743
  576SOL    HW1 1727   2.129   2.953   1.439 -1.1959  1.2600  0.5995
  576SOL    HW2 1728   2.214   0.029   1.483  0.9430  0.7193  0.7160
  577SOL     OW 1729   0.622   1.103   1.861  0.2456  0.5584  0.0734
  577SOL    HW1 1730   0.692   1.177   1.860 -1.8066 -0.5953 -2.6127
  577SOL    HW2 1731   0.667   1.020   1.894 -0.6342  1.3992  0.5643
  578SOL     OW 1732   2.265   0.487   2.613  0.6744 -0.2597  0.0220
  578SOL    HW1 1733   2.201   0.442   2.682  0.4448  1.1182 -0.5477
  578SOL    HW2 1734   2.223   0.576   2.586 -1.7377 -1.7360  1.1392
  579SOL     OW 1735   2.380   2.409   1.587  0.2986  0.1457  0.7939
  579SOL    HW1 1736   2.411   2.359   1.672 -0.5247 -0.3769  1.4506
  579SOL    HW2 1737   2.285   2.433   1.600 -0.3438 -1.8725 -0.9881
  580SOL     OW 1738   1.982   1.331   2.604  0.0242 -0.0049 -0.1952
  580SOL    HW1 1739   1.950   1.423   2.573 -0.6434  0.7500  1.9047
  580SOL    HW2 1740   1.943   1.304   2.695 -1.5677  0.3658  1.2724
  581SOL     OW 1741   1.343   1.122   2.912 -0.2469  0.5200  0.3766
  581SOL    HW1 1742   1.309   1.198   2.972 -0.2754 -0.1635 -1.4940
  581SOL    HW2 1743   1.320   1.030   2.950 -0.5092  0.0657  3.4846
  582SOL     OW 1744   1.162   1.361   1.755  0.0473  0.1282 -0.1771
  582SOL    HW1 1745   1.198   1.286   1.691  0.0212 -0.8969 -3.0450
  582SOL    HW2 1746   1.214   1.447   1.738  1.3833 -0.3078  1.8303
  583SOL     OW 1747   1.801   1.202   1.352  0.6663  0.5295  0.9627
  583SOL    HW1 1748   1.704   1.192   1.314 -2.1639  1.2981 -0.2645
  583SOL    HW2 1749   1.871   1.164   1.288  1.6951  2.2347 -0.3221
  584SOL     OW 1750   1.698   2.550   0.476 -0.0116 -0.4386 -0.0118
  584SOL    HW1 1751   1.603   2.543   0.520 -1.0779 -1.4465  1.7339
  584SOL    HW2 1752   1.768   2.543   0.550 -0.1256 -1.8091  1.7605
  585SOL     OW 1753   1.978   2.699   2.764 -0.3028 -0.4791 -0.1301
  585SOL    HW1 1754   2.000   2.638   2.691  0.5411  2.8616  3.5973
  585SOL    HW2 1755   2.027   2.666   2.850  0.5639 -2.0412  2.4731
  586SOL     OW 1756   2.598   2.256   1.024  0.9317 -0.4440 -0.2168
  586SOL    HW1 1757   2.513   2.305   0.999 -2.1144  0.2549 -1.0778
  586SOL    HW2 1758   2.572   2.168   1.058 -0.0656  1.3279 -1.9632
  587SOL     OW 1759   1.006   1.770   0.103  0.9123 -0.9044  0.2555
  587SOL    HW1 1760   1.041   1.821   0.020  0.4473  1.3968 -1.4261
  587SOL    HW2 1761   1.073   1.703   0.141 -0.5675  0.5538  0.4896
  588SOL     OW 1762   0.766   0.224   0.963 -0.0427  0.4882  0.1373
  588SOL    HW1 1763   0.808   0.302   1.018 -1.0427  2.4666  2.3233
  588SOL    HW2 1764   0.755   0.246   0.863 -1.0916 -1.2312  4.7750
  589SOL     OW 1765   1.217   0.615   0.471 -0.3177  0.6428 -0.3491
  589SOL    HW1 1766   1.171   0.618   0.561  0.1853 -3.1540 -1.8878
  589SOL    HW2 1767   1.225   0.519   0.436 -0.4145 -3.5049  0.2862
  590SOL     OW 1768   1.454   3.003   2.689  0.0984  0.1029 -0.1541
  590SOL    HW1 1769   1.551   2.991   2.658 -0.3250 -2.3293  1.7950
  590SOL    HW2 1770   1.424   2.921   2.734  2.1874  1.2700  0.3322
  591SOL     OW 1771   3.041   2.320   2.333 -0.4321  0.7408  0.6509
  591SOL    HW1 1772   0.028   2.259   2.266  0.9487 -2.4693 -1.6060
  591SOL    HW2 1773   2.984   2.387   2.281 -0.2737  1.0705  0.3288
  592SOL     OW 1774   2.639   1.461   2.127  0.5735 -0.3511 -0.5474
  592SOL    HW1 1775   2.656   1.416   2.035  1.0444  0.4699  0.8397
  592SOL    HW2 1776   2.725   1.455   2.173 -1.5059 -0.5489 -2.4091
  593SOL     OW 1777   1.725   1.397   1.546 -0.2886 -0.4473 -0.5293
  593SOL    HW1 1778   1.766   1.317   1.486  1.1188 -0.1820 -0.6993
  593SOL    HW2 1779   1.740   1.380   1.648  0.4724 -1.1287  1.2734
  594SOL     OW 1780   2.739   1.186   0.109  0.4549  0.3427  0.2935
  594SOL    HW1 1781   2.838   1.182   0.098 -0.8551  0.1966  1.6799
  594SOL    HW2 1782   2.693   1.090   0.109  0.5029 -1.4529 -1.7458
  595SOL     OW 1783   0.863   0.708   0.416  0.7692 -0.7970 -0.2404
  595SOL    HW1 1784   0.807   0.796   0.429 -0.2867  1.3665  1.5267
  595SOL    HW2 1785   0.942   0.720   0.352  1.9516  0.4867 -0.9342
  596SOL     OW 1786   0.144   1.280   1.469 -0.4506 -0.1708 -0.4156
  596SOL    HW1 1787   0.084   1.337   1.529 -1.3102  0.0007 -0.3438
  596SOL    HW2 1788   0.237   1.311   1.477 -1.4079 -0.7366  0.6279
  597SOL     OW 1789   1.131   1.921   0.830  0.0461  0.8547 -0.1624
  597SOL    HW1 1790   1.107   1.913   0.931 -0.3878 -0.9494  1.4176
  597SOL    HW2 1791   1.166   2.016   0.812 -1.8640 -0.1014 -0.8664
  598SOL     OW 1792   0.146   0.008   1.589 -0.1978 -0.5918 -0.1275
  598SOL    HW1 1793   0.134   2.972   1.615  3.3093 -2.1242  2.0776
  598SOL    HW2 1794   0.246   0.020   1.561 -0.8779 -1.4332 -1.1217
  599SOL     OW 1795   0.416   1.467   2.677 -0.0631  0.1981  0.3677
  599SOL    HW1 1796   0.336   1.521   2.712 -1.5264  0.5025  1.3473
  599SOL    HW2 1797   0.389   1.421   2.590  0.2153  1.4779 -0.8336
  600SOL     OW 1798   0.646   0.889   2.857 -0.6664  0.1082 -0.4106
  600SOL    HW1 1799   0.558   0.872   2.811  0.5165 -1.0762 -0.7104
  600SOL    HW2 1800   0.711   0.810   2.828  2.1551 -2.6115 -0.9628
  601SOL     OW 1801   0.603   0.960   1.529 -0.2087  0.3122  0.3222
  601SOL    HW1 1802   0.632   1.049   1.486  3.4752  0.3863  0.7648
  601SOL    HW2 1803   0.503   0.953   1.549  2.6928 -1.3379 -0.1375
  602SOL     OW 1804   0.513   3.015   2.954  0.2134 -0.3040  0.0654
  602SOL    HW1 1805   0.597   0.005   2.987 -1.1049  2.6878  0.1853
  602SOL    HW2 1806   0.430   0.006   2.984  0.7945 -0.3859 -1.2861
  603SOL     OW 1807   1.638   2.491   2.463  0.0401  0.2054  0.8912
  603SOL    HW1 1808   1.711   2.454   2.528  1.1577 -3.0590 -1.3331
  603SOL    HW2 1809   1.577   2.563   2.507 -3.0165  0.0458 -1.9159
  604SOL     OW 1810   0.214   2.645   2.880  0.0125 -0.2466 -0.6295
  604SOL    HW1 1811   0.191   2.565   2.938  0.9245  3.5510 -0.4511
  604SOL    HW2 1812   0.298   2.620   2.830  0.8124  1.5766  0.4858
  605SOL     OW 1813   2.184   1.219   1.485 -0.1770  0.8421  0.2119
  605SOL    HW1 1814   2.257   1.292   1.491  2.7251  0.3458  2.1823
  605SOL    HW2 1815   2.143   1.199   1.577 -0.8826 -1.0341 -1.0138
  606SOL     OW 1816   0.914   0.960   2.608 -0.1201 -0.2160  0.1890
  606SOL    HW1 1817   0.916   1.065   2.600 -0.9483  2.8293  1.0666
  606SOL    HW2 1818   1.000   0.925   2.653  0.3159 -0.1001  2.5442
  607SOL     OW 1819   0.853   0.438   1.114  0.2483  0.4684  0.4359
  607SOL    HW1 1820   0.804   0.523   1.086  0.6658  0.0499 -0.6269
  607SOL    HW2 1821   0.944   0.431   1.079 -1.4439 -2.0948 -1.4352
  608SOL     OW 1822   2.853   1.549   1.540  0.4681  0.1771 -0.0454
  608SOL    HW1 1823   2.816   1.612   1.611 -1.0725  0.9206 -2.5017
  608SOL    HW2 1824   2.798   1.470   1.512  3.0222  3.6632  0.8592
  609SOL     OW 1825   2.466   0.462   0.417 -0.0537  1.0357 -0.9268
  609SOL    HW1 1826   2.373   0.440   0.378 -0.0448 -3.6725  1.6237
  609SOL    HW2 1827   2.485   0.563   0.431  2.7842 -0.4122  0.7892
  610SOL     OW 1828   0.145   2.531   1.209 -0.2081 -0.1544  0.0571
  610SOL    HW1 1829   0.148   2.602   1.288 -1.3383 -1.0146  2.3517
  610SOL    HW2 1830   0.136   2.575   1.115 -1.9122  2.5770 -3.1672
  611SOL     OW 1831   1.561   1.944   0.155 -0.2153  0.2826  0.1556
  611SOL    HW1 1832   1.586   1.976   0.063 -0.1002  0.8104 -0.0788
  611SOL    HW2 1833   1.495   1.863   0.138 -2.3504 -3.1011  1.1453
  612SOL     OW 1834   0.516   3.047   1.873  0.3522  0.0792  0.2642
  612SOL    HW1 1835   0.598   3.047   1.934  0.2500 -1.6523 -1.0085
  612SOL    HW2 1836   0.450   0.058   1.904  1.5226  4.1992 -1.6117
  613SOL     OW 1837   0.298   2.090   0.685  0.4327  0.2173  0.3294
  613SOL    HW1 1838   0.214   2.147   0.661 -2.9456  0.7402 -2.4741
  613SOL    HW2 1839   0.382   2.148   0.667  1.7222  0.3866  2.3953
  614SOL     OW 1840   2.180   0.146   1.930  0.1529 -0.5756  0.1868
  614SOL    HW1 1841   2.248   0.174   1.999  0.3136 -0.8224 -2.7364
  614SOL    HW2 1842   2.206   0.056   1.892 -0.3587 -3.0686 -1.2449
  615SOL     OW 1843   1.338   1.539   0.712  0.4998 -0.6258 -0.0701
  615SOL    HW1 1844   1.384   1.458   0.758 -0.6577 -3.0857  1.1643
  615SOL    HW2 1845   1.256   1.510   0.660  0.1318 -0.3044  2.5414
  616SOL     OW 1846   1.758   1.477   0.557 -0.0027  0.1733 -0.3164
  616SOL    HW1 1847   1.841   1.423   0.550 -0.4010  1.5419  0.9972
  616SOL    HW2 1848   1.673   1.422   0.541  0.0957  0.4708  0.4963
  617SOL     OW 1849   1.453   0.693   0.125  0.4801  0.3240 -0.0438
  617SOL    HW1 1850   1.511   0.761   0.081 -0.0339 -0.4279  0.4311
  617SOL    HW2 1851   1.364   0.684   0.071 -2.5751  2.7128 -0.2478
  618SOL     OW 1852   0.774   0.550   1.784 -0.1740 -0.1591  0.6825
  618SOL    HW1 1853   0.725   0.548   1.695 -1.4910  0.3424 -0.8658
  618SOL    HW2 1854   0.732   0.621   1.846 -2.2560 -0.0393 -0.6754
  619SOL     OW 1855   0.367   1.467   1.399 -0.2276  0.3740  0.3622
  619SOL    HW1 1856   0.316   1.543   1.442  1.2663 -1.1851  1.2697
  619SOL    HW2 1857   0.470   1.486   1.388 -2.4590 -0.4314  0.3874
  620SOL     OW 1858   2.673   2.908   2.578  0.4740 -0.1807 -0.2613
  620SOL    HW1 1859   2.753   2.854   2.557  0.1954  1.4962  1.2716
  620SOL    HW2 1860   2.694   3.010   2.561  2.0405  0.5939 -1.2261
  621SOL     OW 1861   2.368   1.791   0.032  0.3388 -0.0491 -0.0170
  621SOL    HW1 1862   2.391   1.721   0.097 -0.1162  3.1309 -0.4998
  621SOL    HW2 1863   2.335   1.875   0.083  1.9967  0.4028 -0.6511
  622SOL     OW 1864   1.262   0.449   2.851 -0.3183 -0.6688  0.2251
  622SOL    HW1 1865   1.327   0.399   2.917  0.9513 -0.4568 -0.8557
  622SOL    HW2 1866   1.312   0.537   2.835  0.9809 -0.5572 -0.5425
  623SOL     OW 1867   0.796   1.588   1.549  0.2953 -0.0542  0.0322
  623SOL    HW1 1868   0.882   1.535   1.547 -0.4063  3.1813 -0.4962
  623SOL    HW2 1869   0.761   1.602   1.644  2.1757  2.9029  1.1986
  624SOL     OW 1870   2.930   0.062   0.309 -0.5835  0.3772 -0.1260
  624SOL    HW1 1871   2.909   0.144   0.254  0.4659  1.5989  0.3230
  624SOL    HW2 1872   3.002   0.095   0.375  0.3137 -0.6572  2.4247
  625SOL     OW 1873   0.831   2.214   0.697  0.3263  0.2586  0.2690
  625SOL    HW1 1874   0.914   2.267   0.728 -0.1952 -0.8518  2.3862
  625SOL    HW2 1875   0.846   2.160   0.607 -0.2375 -0.8054 -2.2591
  626SOL     OW 1876   2.768   0.850   2.531 -0.4405 -0.0525  0.2102
  626SOL    HW1 1877   2.828   0.783   2.582 -2.4387  2.3570 -0.9476
  626SOL    HW2 1878   2.669   0.829   2.546  3.3783  1.5755  0.2320
  627SOL     OW 1879   0.989   1.989   2.757  0.2878  0.0080  0.7185
  627SOL    HW1 1880   1.002   2.089   2.756  1.6371  0.5994 -0.1116
  627SOL    HW2 1881   0.955   1.959   2.666 -3.1635 -3.8856 -1.9563
  628SOL     OW 1882   2.833   2.541   2.693 -0.0632  0.2122  0.2039
  628SOL    HW1 1883   2.771   2.502   2.616  0.2975  1.1531 -1.9942
  628SOL    HW2 1884   2.791   2.625   2.733 -0.3778 -2.5737 -0.1056
  629SOL     OW 1885   0.767   2.790   2.692  0.0109  0.2599  0.5208
  629SOL    HW1 1886   0.789   2.709   2.632 -2.7033  0.5564  2.1012
  629SOL    HW2 1887   0.806   2.875   2.654 -0.0400 -1.1090  1.0268
  630SOL     OW 1888   0.815   0.289   1.884  0.3082  0.0872  0.1328
  630SOL    HW1 1889   0.815   0.388   1.846  0.7655  3.8671 -1.3457
  630SOL    HW2 1890   0.911   0.255   1.878  1.6850 -0.9022 -0.7045
  631SOL     OW 1891   2.040   0.975   0.467 -0.5053 -0.0132 -0.1933
  631SOL    HW1 1892   2.115   0.917   0.425  3.1158  1.4789 -2.8913
  631SOL    HW2 1893   2.038   1.063   0.421  0.3359 -0.1630  2.3492
  632SOL     OW 1894   2.604   0.301   1.770  0.4733  1.0296  0.3240
  632SOL    HW1 1895   2.639   0.278   1.680 -2.4869 -0.2344  0.6061
  632SOL    HW2 1896   2.677   0.347   1.824 -1.6816  0.4357 -0.4715
  633SOL     OW 1897   1.179   1.363   0.562 -0.0326 -0.4558  0.7153
  633SOL    HW1 1898   1.086   1.399   0.571  0.9579  1.7975  0.1776
  633SOL    HW2 1899   1.185   1.262   0.565  0.5251  2.7518 -0.9934
  634SOL     OW 1900   2.644   2.860   2.266 -0.2938  0.3604  0.2160
  634SOL    HW1 1901   2.695   2.772   2.285 -1.8981  1.2680  0.4297
  634SOL    HW2 1902   2.552   2.845   2.313 -0.9924 -2.1718  0.8845
  635SOL     OW 1903   1.561   0.545   0.482  0.0819  0.8767 -0.4696
  635SOL    HW1 1904   1.490   0.520   0.411 -2.1510  2.6542 -1.7205
  635SOL    HW2 1905   1.605   0.455   0.510 -0.3503 -2.5010  1.5375
  636SOL     OW 1906   0.748   1.257   0.526  0.6429  0.0725 -0.4511
  636SOL    HW1 1907   0.654   1.262   0.489  2.0610  0.6928  1.2334
  636SOL    HW2 1908   0.793   1.166   0.524 -0.4847 -1.0528 -1.4015
  637SOL     OW 1909   2.316   2.064   0.105 -0.2768  0.7664 -0.0008
  637SOL    HW1 1910   2.420   2.060   0.105 -0.3357  1.1150  1.1337
  637SOL    HW2 1911   2.284   2.159   0.118  1.2002 -0.2055 -1.3325
  638SOL     OW 1912   1.524   2.338   2.260 -0.1028 -0.3101 -0.4140
  638SOL    HW1 1913   1.482   2.376   2.175 -0.2045 -2.0923 -2.7688
  638SOL    HW2 1914   1.545   2.398   2.339 -1.6522 -0.2557  0.4851
  639SOL     OW 1915   1.422   2.010   0.623 -0.6830  0.2549 -0.6154
  639SOL    HW1 1916   1.334   2.015   0.673  1.1816  0.8120 -1.9890
  639SOL    HW2 1917   1.493   2.041   0.681 -1.3491 -2.3157 -1.0518
  640SOL     OW 1918   2.068   2.956   0.536 -0.6896 -0.2680 -0.1476
  640SOL    HW1 1919   2.027   3.039   0.496  2.1478 -1.4025 -0.9376
  640SOL    HW2 1920   2.148   2.989   0.597  0.2320 -1.5218  2.9554
  641SOL     OW 1921   2.891   0.477   3.048  0.3534 -0.5998  0.3494
  641SOL    HW1 1922   2.874   0.396   0.049  1.9400  0.8704 -1.6868
  641SOL    HW2 1923   2.889   0.446   2.950 -0.1493 -0.1054  1.4696
  642SOL     OW 1924   0.463   0.601   1.138  0.1118 -0.4391  0.0872
  642SOL    HW1 1925   0.362   0.611   1.108 -4.2613  1.1366 -1.1242
  642SOL    HW2 1926   0.489   0.508   1.134 -0.8991  5.4414 -1.8900
  643SOL     OW 1927   0.796   1.068   2.213  0.3533  0.2406 -0.1960
  643SOL    HW1 1928   0.732   1.009   2.269  0.7093 -0.6766  1.2660
  643SOL    HW2 1929   0.811   1.160   2.254 -0.9723 -2.0684  0.1066
  644SOL     OW 1930   1.560   2.113   0.402 -0.5880 -0.3807  0.3885
  644SOL    HW1 1931   1.562   2.049   0.321  1.0089 -3.1142  2.3516
  644SOL    HW2 1932   1.496   2.076   0.470  2.0441  1.7411  2.7645
  645SOL     OW 1933   1.187   2.106   0.395  0.0758 -0.1352  0.3841
  645SOL    HW1 1934   1.155   2.127   0.300  2.2795  0.8995 -1.3021
  645SOL    HW2 1935   1.217   2.008   0.411  1.6493 -1.0853 -0.4964
  646SOL     OW 1936   0.091   1.690   2.622 -0.3029 -0.1094 -0.1155
  646SOL    HW1 1937   0.125   1.650   2.536  0.9887  0.1900  2.4418
  646SOL    HW2 1938   0.051   1.781   2.610  1.1599 -0.7768  1.0672
  647SOL     OW 1939   1.116   0.413   1.038  0.5016 -0.1130  0.1673
  647SOL    HW1 1940   1.182   0.368   1.103 -0.1300  1.4266 -3.5426
  647SOL    HW2 1941   1.141   0.514   1.030  1.9807  1.6243 -1.1698
  648SOL     OW 1942   1.790   0.296   0.969  0.3673 -0.0343 -0.5018
  648SOL    HW1 1943   1.766   0.250   1.058 -1.6515  0.1810  1.2135
  648SOL    HW2 1944   1.695   0.309   0.933  0.7606 -2.7349 -0.4155
  649SOL     OW 1945   0.946   1.855   0.351 -0.1326 -0.1982 -0.4345
  649SOL    HW1 1946   0.959   1.846   0.249  0.8477  3.0054 -3.7767
  649SOL    HW2 1947   1.040   1.845   0.397  3.9104  2.8621 -1.5209
  650SOL     OW 1948   2.362   1.575   1.887  0.6829  0.2653 -0.0702
  650SOL    HW1 1949   2.464   1.587   1.889  2.2389 -2.8289  1.7783
  650SOL    HW2 1950   2.328   1.582   1.791 -1.7325 -0.5202 -1.5356
  651SOL     OW 1951   1.580   2.197   2.747  0.0393 -0.0818 -0.7258
  651SOL    HW1 1952   1.653   2.252   2.711 -2.1649 -0.8848  0.5439
  651SOL    HW2 1953   1.539   2.131   2.680  1.0553  1.7345  3.4627
  652SOL     OW 1954   2.382   1.544   0.195 -0.2759  0.2257  0.1893
  652SOL    HW1 1955   2.469   1.491   0.199  0.2612 -1.1836  1.3538
  652SOL    HW2 1956   2.379   1.614   0.266  2.4833 -2.0083 -2.7077
  653SOL     OW 1957   0.332   0.324   0.875  0.1822 -0.7792 -0.1125
  653SOL    HW1 1958   0.399   0.271   0.933  0.4567  3.9875  1.0999
  653SOL    HW2 1959   0.242   0.273   0.875 -0.5398  0.4644  1.7453
  654SOL     OW 1960   2.935   0.062   2.181 -0.4781 -0.3585  0.1816
  654SOL    HW1 1961   2.863   3.052   2.158 -0.2340  0.6815  1.6098
  654SOL    HW2 1962   3.009   0.026   2.244 -0.3151 -0.7310  3.5022
  655SOL     OW 1963   0.441   2.468   0.709  0.4433  0.3671 -0.2697
  655SOL    HW1 1964   0.476   2.562   0.716  3.1643  1.7085 -1.9675
  655SOL    HW2 1965   0.355   2.454   0.654 -0.3666 -0.6718 -0.3352
  656SOL     OW 1966   2.997   0.054   2.650 -0.4161  0.0636 -0.6865
  656SOL    HW1 1967   2.935   0.095   2.581 -1.0296  0.3239 -1.5098
  656SOL    HW2 1968   2.953   0.026   2.738 -1.4633  0.3648  0.7209
  657SOL     OW 1969   0.079   1.253   2.883  0.7188  0.1912 -0.4954
  657SOL    HW1 1970   0.053   1.341   2.840  0.3711  0.6121  2.5116
  657SOL    HW2 1971   0.176   1.250   2.905  0.5195  1.4041 -0.5377
  658SOL     OW 1972   2.333   1.760   1.256 -0.1036  0.2175 -0.0650
  658SOL    HW1 1973   2.287   1.850   1.248  0.7677  1.4164 -2.7222
  658SOL    HW2 1974   2.262   1.698   1.297  0.3914  0.4621 -3.3918
  659SOL     OW 1975   1.534   2.765   0.107 -0.0596 -0.0423 -0.4959
  659SOL    HW1 1976   1.475   2.687   0.078 -0.2014 -0.7034  3.0919
  659SOL    HW2 1977   1.626   2.759   0.065 -1.0160  0.1463  0.2424
  660SOL     OW 1978   1.545   0.876   2.696  0.1484  0.2001  0.4878
  660SOL    HW1 1979   1.640   0.901   2.664  1.3794  0.3510 -0.2408
  660SOL    HW2 1980   1.478   0.893   2.619  1.6304 -1.2346 -1.0546
  661SOL     OW 1981   0.184   1.872   1.165 -0.2528 -0.4718  0.1593
  661SOL    HW1 1982   0.196   1.906   1.066  2.3368 -0.4198  1.1219
  661SOL    HW2 1983   0.085   1.867   1.193 -0.0906 -2.5305  1.5936
  662SOL     OW 1984   0.372   0.679   0.090 -0.1604  0.3795  0.0178
  662SOL    HW1 1985   0.278   0.691   0.044 -1.1521  1.6301  1.6320
  662SOL    HW2 1986   0.394   0.584   0.116  0.6866  0.5668 -1.2622
  663SOL     OW 1987   2.172   1.963   1.244 -0.7104 -0.3056 -0.2773
  663SOL    HW1 1988   2.133   2.030   1.178  0.5020  1.4377  1.2965
  663SOL    HW2 1989   2.097   1.904   1.286 -1.0351 -2.4018  0.6123
  664SOL     OW 1990   0.862   1.254   1.252  0.1859  0.1870 -0.0117
  664SOL    HW1 1991   0.771   1.246   1.297  1.5114 -1.5308  0.6182
  664SOL    HW2 1992   0.928   1.321   1.294 -1.3472 -1.2856  0.0889
  665SOL     OW 1993   2.018   2.722   2.015 -0.2757  0.4703 -0.0773
  665SOL    HW1 1994   2.002   2.796   2.085  0.8119  2.0433  0.1291
  665SOL    HW2 1995   2.072   2.760   1.938  2.8607  1.0096 -2.7480
  666SOL     OW 1996   2.893   2.674   0.215 -0.5580 -0.1349  0.0051
  666SOL    HW1 1997   2.930   2.587   0.253  0.5411 -0.6871 -2.1033
  666SOL    HW2 1998   2.951   2.749   0.254  1.1485 -0.1354  0.7575
  667SOL     OW 1999   2.623   1.178   1.632 -0.0482  0.2108 -0.0272
  667SOL    HW1 2000   2.570   1.116   1.569  0.2014 -1.1862 -0.7738
  667SOL    HW2 2001   2.586   1.191   1.726  3.3777 -2.5121 -0.9283
  668SOL     OW 2002   0.201   0.720   2.435  0.1841 -0.1564  0.0034
  668SOL    HW1 2003   0.211   0.680   2.528 -2.1552  2.5140  1.0458
  668SOL    HW2 2004   0.104   0.754   2.411  1.9232  2.4944 -2.1073
  669SOL     OW 2005   2.335   1.964   2.467 -0.2565 -0.0765 -0.8265
  669SOL    HW1 2006   2.380   1.892   2.516  0.4455  1.3603 -3.9583
  669SOL    HW2 2007   2.361   1.958   2.368 -0.3294  0.8908  1.3618
  670SOL     OW 2008   2.753   1.361   1.896 -0.1471  0.2948  0.1178
  670SOL    HW1 2009   2.684   1.286   1.910 -1.8020  0.0656  1.8947
  670SOL    HW2 2010   2.843   1.327   1.861  1.0275 -1.8270  0.8120
  671SOL     OW 2011   2.838   1.414   0.758  0.1841 -0.1813  0.3234
  671SOL    HW1 2012   2.933   1.434   0.723 -1.3274 -0.8271  0.4057
  671SOL    HW2 2013   2.766   1.466   0.708 -0.0726 -1.4552  0.7460
  672SOL     OW 2014   2.363   0.632   2.144 -0.1442 -0.6308 -0.2563
  672SOL    HW1 2015   2.331   0.698   2.209  0.1062 -0.6414 -4.0003
  672SOL    HW2 2016   2.419   0.678   2.070 -1.1398 -0.2505 -0.8348
  673SOL     OW 2017   2.427   0.130   2.330 -0.3751 -0.1637 -0.0248
  673SOL    HW1 2018   2.513   0.159   2.282 -0.9259  2.0004  0.8393
  673SOL    HW2 2019   2.428   0.033   2.357  0.5535 -1.3271  0.4817
  674SOL     OW 2020   1.717   2.480   1.689 -0.1673  0.0552 -1.0733
  674SOL    HW1 2021   1.741   2.402   1.757  0.6767 -0.6684  0.0958
  674SOL    HW2 2022   1.679   2.441   1.608  2.4902  3.7714  3.2987
  675SOL     OW 2023   0.818   0.767   0.826  0.7433  0.3520 -0.6936
  675SOL    HW1 2024   0.800   0.727   0.918  1.1375  0.1241  1.0094
  675SOL    HW2 2025   0.756   0.846   0.809  0.3199  1.5566  0.4212
  676SOL     OW 2026   1.636   0.914   0.812 -0.2372 -0.0213 -0.6415
  676SOL    HW1 2027   1.726   0.962   0.814 -1.5811 -2.3830  1.8403
  676SOL    HW2 2028   1.619   0.862   0.728 -1.3846 -0.6800  0.3477
  677SOL     OW 2029   2.486   1.336   2.356  0.1580 -0.4565  0.6092
  677SOL    HW1 2030   2.492   1.242   2.324 -0.9985 -0.4303 -3.7383
  677SOL    HW2 2031   2.538   1.394   2.291  1.7893 -2.6895 -1.7014
  678SOL     OW 2032   2.570   1.748   1.142 -0.0621  0.3068  0.0679
  678SOL    HW1 2033   2.656   1.713   1.183 -3.7428  1.2120 -0.7651
  678SOL    HW2 2034   2.483   1.748   1.192  2.6091  1.4271 -1.0413
  679SOL     OW 2035   2.139   2.553   0.226  0.5102  0.4003 -0.1666
  679SOL    HW1 2036   2.177   2.604   0.303 -2.2097 -1.2573 -3.5614
  679SOL    HW2 2037   2.058   2.609   0.195 -0.8028 -0.5453  0.3319
  680SOL     OW 2038   3.051   2.170   2.093 -0.7819 -0.3430 -0.2157
  680SOL    HW1 2039   0.027   2.079   2.124 -0.6835  1.3076 -0.8368
  680SOL    HW2 2040   0.030   2.203   2.004  0.7177 -0.9566  0.4628
  681SOL     OW 2041   0.617   1.296   1.585 -0.2589  0.1993 -0.0774
  681SOL    HW1 2042   0.722   1.300   1.590  1.0551  1.1275 -1.2154
  681SOL    HW2 2043   0.572   1.369   1.641  0.8799 -0.7884  2.2383
  682SOL     OW 2044   1.301   2.644   0.789 -0.1062  0.2440 -0.1800
  682SOL    HW1 2045   1.343   2.590   0.716 -0.4963  0.5103  1.2626
  682SOL    HW2 2046   1.208   2.619   0.821  1.2086  1.2485  1.7738
  683SOL     OW 2047   2.141   1.379   0.822 -0.0326  0.1294  1.0364
  683SOL    HW1 2048   2.115   1.453   0.884  1.0442 -0.9750  0.6182
  683SOL    HW2 2049   2.111   1.287   0.853  0.7262  3.3427 -0.7895
  684SOL     OW 2050   0.284   2.209   1.945  0.2389  0.0394  0.0415
  684SOL    HW1 2051   0.363   2.194   2.006 -1.0290 -1.2922  1.6385
  684SOL    HW2 2052   0.310   2.263   1.867 -2.6358  0.1099  0.9548
  685SOL     OW 2053   1.486   1.669   0.085  0.6750 -0.0890 -0.0782
  685SOL    HW1 2054   1.491   1.720   3.057  1.6599  0.0411  0.3624
  685SOL    HW2 2055   1.583   1.639   0.105  1.3335 -2.0335 -2.1537
  686SOL     OW 2056   2.952   0.631   1.270 -0.2201 -0.0574  0.0323
  686SOL    HW1 2057   2.866   0.665   1.313 -2.2587  1.4170  2.2130
  686SOL    HW2 2058   3.034   0.650   1.330  1.8656  3.7775 -1.8231
  687SOL     OW 2059   0.845   2.316   2.608 -0.3320  0.0582 -0.0185
  687SOL    HW1 2060   0.760   2.267   2.630  0.4607 -0.1567  0.8780
  687SOL    HW2 2061   0.912   2.248   2.566  0.2027 -3.4197 -1.6928
  688SOL     OW 2062   2.665   1.835   1.910  0.0624  0.5700 -0.0599
  688SOL    HW1 2063   2.576   1.881   1.915  0.7381 -2.5828  2.5672
  688SOL    HW2 2064   2.715   1.817   2.002  2.4559 -3.0628  1.9285
  689SOL     OW 2065   1.905   0.818   2.015 -0.3042 -0.1217  0.0792
  689SOL    HW1 2066   1.898   0.759   1.933 -1.6608 -2.8233 -0.5266
  689SOL    HW2 2067   1.885   0.916   1.996  0.6324  0.3338 -0.6596
  690SOL     OW 2068   2.262   0.867   1.050 -0.3560  0.1983  0.3977
  690SOL    HW1 2069   2.273   0.855   1.151 -1.3991  3.2230  1.3984
  690SOL    HW2 2070   2.304   0.959   1.024  1.4393  2.4185 -2.5726
  691SOL     OW 2071   0.908   1.861   1.851 -0.4912  0.0898  0.2346
  691SOL    HW1 2072   0.900   1.904   1.944 -0.0109 -0.3351  0.4176
  691SOL    HW2 2073   0.859   1.926   1.788 -0.0284 -0.0967 -1.0722
  692SOL     OW 2074   2.116   0.411   1.445  0.1055  0.0523  0.1184
  692SOL    HW1 2075   2.115   0.337   1.515  1.7748  1.1488 -2.1576
  692SOL    HW2 2076   2.095   0.373   1.351 -2.1215  0.1167 -0.3712
  693SOL     OW 2077   0.430   1.237   2.178 -0.2541  0.1916  0.1052
  693SOL    HW1 2078   0.396   1.147   2.217 -1.5918  1.0690  0.8575
  693SOL    HW2 2079   0.372   1.274   2.108  2.4343 -1.4636  2.5179
  694SOL     OW 2080   1.602   2.948   1.242  0.1475  0.1522  0.4952
  694SOL    HW1 2081   1.609   2.957   1.140 -1.2002 -0.3617  0.0811
  694SOL    HW2 2082   1.661   2.871   1.273 -0.1825 -0.7337 -0.5013
  695SOL     OW 2083   1.414   1.273   1.898 -0.2941 -0.0220  0.1045
  695SOL    HW1 2084   1.409   1.297   1.800 -1.1613 -0.9307  1.4219
  695SOL    HW2 2085   1.345   1.324   1.950  4.0524 -0.1180  0.2657
  696SOL     OW 2086   1.309   0.105   0.526 -0.1250 -0.2848  0.3152
  696SOL    HW1 2087   1.234   0.134   0.459 -0.7828  1.6241 -0.8530
  696SOL    HW2 2088   1.273   0.096   0.622  2.4087 -0.4623  1.4986
  697SOL     OW 2089   1.391   0.474   0.737 -0.0973  0.0530  0.1461
  697SOL    HW1 2090   1.364   0.569   0.768  0.5843 -0.1809  0.6458
  697SOL    HW2 2091   1.412   0.468   0.635  1.9474 -0.2199 -1.2184
  698SOL     OW 2092   1.300   1.112   2.608  0.0883 -0.0717 -0.5307
  698SOL    HW1 2093   1.227   1.185   2.600  1.3098  1.3728  1.4221
  698SOL    HW2 2094   1.326   1.108   2.709 -1.0126 -0.0502  2.6257
  699SOL     OW 2095   1.488   1.504   1.107  0.0320  0.3844 -0.0128
  699SOL    HW1 2096   1.465   1.598   1.134  0.4787 -2.7910  0.9428
  699SOL    HW2 2097   1.401   1.459   1.085  0.7951  0.6257  0.0798
  700SOL     OW 2098   1.503   0.108   0.308 -0.5298  0.1612  0.0988
  700SOL    HW1 2099   1.443   0.124   0.390  0.0993 -0.3656 -0.4055
  700SOL    HW2 2100   1.586   0.064   0.340 -1.7069  1.0116 -0.6329
  701SOL     OW 2101   3.011   0.233   1.982 -0.3643  0.0070 -0.0771
  701SOL    HW1 2102   0.024   0.301   2.008  1.8497  2.8593 -1.1199
  701SOL    HW2 2103   2.980   0.175   2.063  0.2193 -1.4810  2.2276
  702SOL     OW 2104   1.112   2.965   0.107 -0.0391  0.5584 -0.9457
  702SOL    HW1 2105   1.210   2.982   0.125  2.3239 -1.2668 -1.0483
  702SOL    HW2 2106   1.068   2.912   0.182 -0.6007 -0.3629 -1.4875
  703SOL     OW 2107   2.497   2.648   2.600 -0.0886  0.5165 -0.7943
  703SOL    HW1 2108   2.399   2.654   2.613  0.3942 -0.8950  0.8093
  703SOL    HW2 2109   2.538   2.740   2.617 -0.1832  2.0007  0.8808
  704SOL     OW 2110   0.660   2.248   0.986 -0.1671  0.4110  0.5881
  704SOL    HW1 2111   0.715   2.233   0.902 -0.7295  0.8929 -0.5634
  704SOL    HW2 2112   0.592   2.171   1.003 -2.3722 -1.3782 -0.3614
  705SOL     OW 2113   2.804   0.376   1.916 -0.2011 -0.2957  0.1714
  705SOL    HW1 2114   2.880   0.315   1.951  2.1341 -0.5659  0.8861
  705SOL    HW2 2115   2.774   0.437   1.995 -1.7606  0.3915  4.3551
  706SOL     OW 2116   1.747   0.023   0.406  0.6233  0.7707  0.2522
  706SOL    HW1 2117   1.733   2.982   0.419 -0.3789  2.2096  0.0601
  706SOL    HW2 2118   1.842   0.053   0.432 -2.6821  0.3811 -2.4233
  707SOL     OW 2119   1.386   1.878   1.918  0.3082 -0.2026  0.0106
  707SOL    HW1 2120   1.422   1.879   2.010 -1.4546  0.4244 -2.6902
  707SOL    HW2 2121   1.406   1.966   1.866 -2.2020  1.4057 -0.8585
  708SOL     OW 2122   2.949   2.170   1.602  0.1059 -0.2669 -0.1612
  708SOL    HW1 2123   2.848   2.175   1.592  1.8292 -0.6212  0.5301
  708SOL    HW2 2124   2.997   2.218   1.524 -3.9517 -0.3896 -1.6253
  709SOL     OW 2125   2.035   0.524   1.938 -0.0126 -0.2267 -0.0694
  709SOL    HW1 2126   2.078   0.553   1.848 -0.4145  1.1385  1.2557
  709SOL    HW2 2127   1.945   0.485   1.923 -1.0488  1.3596  0.1142
  710SOL     OW 2128   2.361   0.493   1.419 -0.5122  0.2692 -0.0830
  710SOL    HW1 2129   2.263   0.465   1.434 -1.0953 -0.3284 -0.9830
  710SOL    HW2 2130   2.418   0.410   1.398 -1.3547  0.1553  2.3301
  711SOL     OW 2131   0.228   2.119   0.317 -0.3107 -0.6245 -0.1624
  711SOL    HW1 2132   0.316   2.100   0.365  0.2101  0.9647  5.1495
  711SOL    HW2 2133   0.157   2.083   0.380  1.6240 -0.7181  4.5811
  712SOL     OW 2134   0.434   2.670   2.201  0.3944 -0.2648 -0.1884
  712SOL    HW1 2135   0.439   2.596   2.133 -0.0325 -2.1727  2.4420
  712SOL    HW2 2136   0.476   2.758   2.172 -3.7866  1.1819  0.4383
  713SOL     OW 2137   2.042   0.900   0.129  0.2695 -0.2191  0.2064
  713SOL    HW1 2138   2.073   0.817   0.075 -0.2037 -3.9789  0.9992
  713SOL    HW2 2139   2.058   0.899   0.226 -2.3793  1.1459 -0.4978
  714SOL     OW 2140   0.653   1.771   0.753  0.3252  0.1318 -0.3010
  714SOL    HW1 2141   0.716   1.848   0.765 -0.8879  0.4587 -0.5651
  714SOL    HW2 2142   0.666   1.705   0.829  0.6021  1.3797 -0.9027
  715SOL     OW 2143   2.008   2.940   0.061 -0.1093 -0.2564 -0.3791
  715SOL    HW1 2144   1.971   2.852   0.095  0.0982 -0.0510 -1.0170
  715SOL    HW2 2145   1.979   3.011   0.127  0.5890 -0.4022  1.6990
  716SOL     OW 2146   0.272   0.267   1.730  0.3013 -0.5890  0.2888
  716SOL    HW1 2147   0.173   0.242   1.724  1.0964 -0.1806  0.6891
  716SOL    HW2 2148   0.320   0.225   1.808 -1.8838  1.4495 -0.4593
  717SOL     OW 2149   3.036   0.643   0.151 -0.0458 -0.1103 -0.2726
  717SOL    HW1 2150   2.987   0.579   0.091  3.9021 -1.0021 -0.6674
  717SOL    HW2 2151   0.040   0.593   0.209  0.0466 -0.4912 -2.1174
  718SOL     OW 2152   1.306   0.864   2.975  1.0558 -0.1136 -0.0576
  718SOL    HW1 2153   1.247   0.808   3.031  2.8413  0.9687 -0.5526
  718SOL    HW2 2154   1.402   0.841   2.985 -1.3428  1.7265  0.5755
  719SOL     OW 2155   2.823   1.578   2.911 -0.4738 -0.0601 -0.2777
  719SOL    HW1 2156   2.765   1.494   2.923 -0.0055 -0.6110 -1.1849
  719SOL    HW2 2157   2.915   1.546   2.868  3.5269 -0.5155  1.0374
  720SOL     OW 2158   1.520   0.915   1.049  0.7896  0.0891 -1.0838
  720SOL    HW1 2159   1.564   0.916   0.959 -2.7188 -0.6551 -0.7604
  720SOL    HW2 2160   1.527   0.828   1.097 -1.8761  0.9985  0.5500
  721SOL     OW 2161   2.807   0.679   0.289  0.1547  0.1189  0.1475
  721SOL    HW1 2162   2.897   0.670   0.250 -0.4937  1.8423 -1.4148
  721SOL    HW2 2163   2.785   0.587   0.338  3.0563 -0.7668  2.5257
  722SOL     OW 2164   1.029   1.215   3.041  0.7645  0.3087  0.8971
  722SOL    HW1 2165   1.017   1.210   0.080 -0.8872 -0.4629 -1.0153
  722SOL    HW2 2166   1.003   1.131   2.989  0.4887 -0.8248  0.6173
  723SOL     OW 2167   0.373   1.026   0.646 -0.4907 -0.6186 -0.3514
  723SOL    HW1 2168   0.299   1.092   0.646  3.0088 -1.7984  0.0421
  723SOL    HW2 2169   0.432   1.041   0.564  0.5368 -1.1183  2.8263
  724SOL     OW 2170   1.215   2.446   1.914 -0.2868 -0.1022  0.3799
  724SOL    HW1 2171   1.249   2.434   1.819 -0.3502 -3.3581 -1.9884
  724SOL    HW2 2172   1.290   2.482   1.977 -2.7961 -0.5322  1.6765
  725SOL     OW 2173   2.489   0.960   1.464 -0.0129  0.1562 -0.0338
  725SOL    HW1 2174   2.409   0.996   1.418  0.3958 -1.4035  0.3843
  725SOL    HW2 2175   2.478   0.858   1.468 -1.9731 -0.4129 -0.9217
  726SOL     OW 2176   1.726   2.772   0.321 -0.6223  0.1339  0.2840
  726SOL    HW1 2177   1.723   2.685   0.377  0.2091  0.1793  0.8164
  726SOL    HW2 2178   1.639   2.780   0.263 -1.4377  0.9663 -3.2957
  727SOL     OW 2179   1.414   0.868   2.433 -0.4601 -0.1423 -0.1354
  727SOL    HW1 2180   1.344   0.945   2.428  0.6422 -0.4773  0.2448
  727SOL    HW2 2181   1.466   0.852   2.350 -1.0754  0.3691  3.9005
  728SOL     OW 2182   1.333   2.706   1.217  0.0819  1.0455  0.0361
  728SOL    HW1 2183   1.317   2.805   1.211  0.5678  0.6265 -0.2615
  728SOL    HW2 2184   1.319   2.663   1.309 -1.3130 -1.9417  0.4724
  729SOL     OW 2185   1.833   0.855   1.238 -0.5011 -0.5493  0.0945
  729SOL    HW1 2186   1.772   0.774   1.233  0.6079 -1.1609 -2.2060
  729SOL    HW2 2187   1.848   0.886   1.337 -0.8909  1.3850  3.2358
  730SOL     OW 2188   0.505   2.041   2.053 -0.2692  0.4428 -0.5396
  730SOL    HW1 2189   0.581   2.111   2.070  2.1555 -1.1454 -1.0601
  730SOL    HW2 2190   0.516   1.994   1.965 -2.1229  0.0389 -2.3201
  731SOL     OW 2191   0.646   0.580   0.704 -0.3696  0.3370  0.5446
  731SOL    HW1 2192   0.651   0.476   0.696  1.4481 -0.7952  1.0755
  731SOL    HW2 2193   0.737   0.632   0.706  2.7730  1.7023 -2.1027
  732SOL     OW 2194   0.659   0.754   0.084  0.6431  0.4869  0.3024
  732SOL    HW1 2195   0.697   0.848   0.103 -0.0413  1.4649  0.5084
  732SOL    HW2 2196   0.559   0.751   0.080 -0.5704  2.7342 -0.9161
  733SOL     OW 2197   1.050   2.431   1.171  0.1448  0.5410  0.0001
  733SOL    HW1 2198   0.953   2.398   1.174 -0.2274 -0.8034 -1.2864
  733SOL    HW2 2199   1.054   2.526   1.202 -0.8820  0.7511  4.3189
  734SOL     OW 2200   3.047   1.943   2.570 -0.3783  0.0673 -0.1195
  734SOL    HW1 2201   2.998   1.993   2.498 -1.2587  1.6437 -1.2059
  734SOL    HW2 2202   0.036   2.003   2.634  1.0374 -2.8230 -1.7660
  735SOL     OW 2203   1.051   3.001   0.978 -0.2715  0.0630  0.6287
  735SOL    HW1 2204   0.956   3.018   1.008  0.4941  2.7076  0.1130
  735SOL    HW2 2205   1.084   3.040   0.888  0.0488  0.0212 -0.8334
  736SOL     OW 2206   1.800   0.301   0.045  0.0417  0.0998 -0.2246
  736SOL    HW1 2207   1.700   0.303   0.074 -2.8625  3.3018  0.2210
  736SOL    HW2 2208   1.844   0.395   0.049  1.3437  2.7815 -1.3638
  737SOL     OW 2209   0.027   0.231   0.500 -0.0703 -0.0017  0.1488
  737SOL    HW1 2210   0.127   0.221   0.526 -2.3328  3.3362  0.8750
  737SOL    HW2 2211   3.051   0.321   0.520 -0.1877 -1.4944 -1.5596
  738SOL     OW 2212   2.639   2.798   1.171  0.5070 -0.0339  0.0690
  738SOL    HW1 2213   2.575   2.880   1.179 -1.7737  1.3395  2.6934
  738SOL    HW2 2214   2.696   2.801   1.084  1.0833  0.2161 -1.9053
  739SOL     OW 2215   1.427   2.290   0.051 -0.0338 -0.4364  0.2303
  739SOL    HW1 2216   1.529   2.279   0.052 -1.1213 -1.7410  0.2959
  739SOL    HW2 2217   1.387   2.206   0.006  0.2950 -4.0874 -0.9905
  740SOL     OW 2218   1.596   2.959   0.980 -0.0819  0.0175 -0.2251
  740SOL    HW1 2219   1.537   2.878   0.969  0.4621  1.5340 -0.2212
  740SOL    HW2 2220   1.608   3.009   0.896  0.4735 -0.2951  0.0739
  741SOL     OW 2221   1.911   0.455   0.681 -0.0278  0.1754 -0.5814
  741SOL    HW1 2222   1.946   0.481   0.587 -0.1851 -2.0267 -1.9752
  741SOL    HW2 2223   1.863   0.536   0.723  0.1417 -0.6230  1.9929
  742SOL     OW 2224   1.178   2.102   2.221  0.1407  0.2891  0.1914
  742SOL    HW1 2225   1.195   2.192   2.264  1.1708 -1.9429  0.1494
  742SOL    HW2 2226   1.175   2.112   2.122 -2.1388 -0.2152 -0.7150
  743SOL     OW 2227   2.238   0.548   1.736 -0.3068  0.1302  0.0158
  743SOL    HW1 2228   2.296   0.595   1.668  0.7773 -0.6211  1.6841
  743SOL    HW2 2229   2.286   0.509   1.819  0.5827 -2.8808  0.2355
  744SOL     OW 2230   2.333   0.375   1.054  0.5537 -0.2289  0.0110
  744SOL    HW1 2231   2.291   0.326   0.978  1.1461  1.8456 -1.2882
  744SOL    HW2 2232   2.365   0.309   1.123  0.5702  1.2190 -3.6464
  745SOL     OW 2233   1.932   1.164   1.608 -0.4017 -0.0283 -0.0194
  745SOL    HW1 2234   1.989   1.239   1.635 -0.4600 -1.3869  2.1246
  745SOL    HW2 2235   1.900   1.175   1.512  0.4996 -1.4360 -0.4006
  746SOL     OW 2236   1.251   1.320   0.989  0.3673 -0.0421 -0.1573
  746SOL    HW1 2237   1.198   1.381   0.927  0.5558  1.4545 -2.0203
  746SOL    HW2 2238   1.237   1.222   0.969  0.2381  0.4979 -1.0409
  747SOL     OW 2239   2.053   1.156   1.171 -0.3983 -0.4323 -0.3307
  747SOL    HW1 2240   2.100   1.079   1.214  1.5760 -1.2136  0.8761
  747SOL    HW2 2241   2.030   1.138   1.073 -1.4612 -1.4002  0.6883
  748SOL     OW 2242   0.118   2.399   0.759  0.0187 -0.1851  0.9031
  748SOL    HW1 2243   0.142   2.342   0.840 -0.5686  0.6958  0.2179
  748SOL    HW2 2244   0.082   2.343   0.681  1.8844  3.2432  0.3256
  749SOL     OW 2245   0.047   0.054   2.381  0.2681  0.0615  0.3035
  749SOL    HW1 2246   0.004   0.002   2.462 -3.8472 -0.7163 -0.6337
  749SOL    HW2 2247   0.146   0.038   2.368 -0.5206  1.5664 -0.5777
  750SOL     OW 2248   2.310   0.621   0.949  1.1297  0.0096 -0.0190
  750SOL    HW1 2249   2.275   0.707   0.998  0.2822 -0.3798  2.3260
  750SOL    HW2 2250   2.310   0.539   1.009 -0.7643  0.8647  0.6017
  751SOL     OW 2251   2.938   0.444   0.615 -0.4961  0.3894  0.4951
  751SOL    HW1 2252   2.998   0.523   0.589  0.5218 -0.5074 -0.1755
  751SOL    HW2 2253   2.959   0.420   0.712 -1.8636 -1.1997  0.7005
  752SOL     OW 2254   0.115   2.604   0.954  0.0545  0.4551  0.2926
  752SOL    HW1 2255   0.059   2.684   0.922 -0.8788  1.0407  0.8299
  752SOL    HW2 2256   0.113   2.525   0.888 -1.0816  1.9215  3.6489
  753SOL     OW 2257   1.330   0.267   2.094  0.1985  0.3403  0.1543
  753SOL    HW1 2258   1.288   0.345   2.043  0.9295 -1.0288 -0.0747
  753SOL    HW2 2259   1.412   0.230   2.048 -0.8353  1.1000 -2.8653
  754SOL     OW 2260   1.750   2.331   1.921 -0.3007 -0.1050  0.2951
  754SOL    HW1 2261   1.813   2.262   1.964  2.2565  3.8742  1.5220
  754SOL    HW2 2262   1.769   2.421   1.968  2.3607  1.7146  1.8125
  755SOL     OW 2263   2.969   1.057   0.425 -0.4979 -0.6259  0.0341
  755SOL    HW1 2264   2.984   1.157   0.410  0.2717 -0.7134 -1.6547
  755SOL    HW2 2265   2.985   1.006   0.340 -2.0567  2.9254 -1.1031
  756SOL     OW 2266   1.445   1.534   2.590  0.5817  0.0096  0.2875
  756SOL    HW1 2267   1.388   1.469   2.538  2.7390 -2.6311  0.4574
  756SOL    HW2 2268   1.391   1.597   2.647 -1.6049  0.0980 -2.0277
  757SOL     OW 2269   1.440   2.797   0.459  0.1523 -0.2495  0.0941
  757SOL    HW1 2270   1.371   2.825   0.533  0.1747 -0.0906  0.1436
  757SOL    HW2 2271   1.409   2.824   0.368 -0.3961  1.0353 -0.4313
  758SOL     OW 2272   0.727   2.822   1.163 -0.2276  0.2565  0.2726
  758SOL    HW1 2273   0.745   2.738   1.106 -0.0800  0.5298  1.3395
  758SOL    HW2 2274   0.732   2.903   1.101  0.3399  0.7178 -1.1554
  759SOL     OW 2275   0.086   0.813   1.174 -0.0334 -0.3219  0.1754
  759SOL    HW1 2276   0.157   0.862   1.228  0.3748 -0.8865  2.1610
  759SOL    HW2 2277   0.012   0.880   1.151  0.4560  1.5968  1.6343
  760SOL     OW 2278   2.318   1.280   1.103 -0.2764 -0.4238  0.6099
  760SOL    HW1 2279   2.221   1.282   1.133  2.1769  0.6486  1.7746
  760SOL    HW2 2280   2.335   1.206   1.035 -1.0556 -0.2711  2.2187
  761SOL     OW 2281   1.304   1.061   1.023  0.0712  0.5053 -0.0433
  761SOL    HW1 2282   1.384   1.000   1.028 -1.4025 -0.6612 -0.2129
  761SOL    HW2 2283   1.216   1.008   1.013 -1.5054  1.9147  0.1845
  762SOL     OW 2284   2.221   2.194   1.403  0.4413  0.1923  0.0885
  762SOL    HW1 2285   2.212   2.107   1.352  3.2741 -2.1851 -0.9561
  762SOL    HW2 2286   2.229   2.276   1.343 -0.1611 -3.0368  1.8816
  763SOL     OW 2287   1.343   1.333   2.158 -0.3408 -0.8437 -0.0212
  763SOL    HW1 2288   1.251   1.297   2.148 -0.1389  1.2705 -1.0345
  763SOL    HW2 2289   1.407   1.264   2.123 -2.4671 -0.1749  1.3110
  764SOL     OW 2290   0.025   1.873   2.189  0.2776  0.2947  0.1103
  764SOL    HW1 2291   0.118   1.904   2.163 -1.7468  0.1570  1.3610
  764SOL    HW2 2292   0.021   1.773   2.210  0.9782 -0.5135 -3.2546
  765SOL     OW 2293   1.028   2.699   1.242  0.0240 -0.0301 -1.0257
  765SOL    HW1 2294   1.117   2.710   1.193 -1.2981 -2.4456  3.6347
  765SOL    HW2 2295   0.988   2.786   1.278 -0.0106 -2.5711  1.3808
  766SOL     OW 2296   0.595   2.327   2.393  0.3815 -0.6207  0.1282
  766SOL    HW1 2297   0.687   2.359   2.371 -1.7751 -3.6064  1.0332
  766SOL    HW2 2298   0.574   2.226   2.376 -0.9403 -3.3706  0.8426
  767SOL     OW 2299   1.669   0.221   2.677 -0.0976 -0.0345 -0.3154
  767SOL    HW1 2300   1.666   0.174   2.586  0.9208  0.0737 -0.1217
  767SOL    HW2 2301   1.751   0.186   2.733  1.8235 -2.3219  0.2053
  768SOL     OW 2302   1.244   2.291   2.808  0.8808  0.0231  0.3059
  768SOL    HW1 2303   1.146   2.312   2.830 -2.2667 -1.5217  2.2532
  768SOL    HW2 2304   1.281   2.236   2.885 -1.4221 -0.3678  2.8908
  769SOL     OW 2305   2.912   2.626   1.080 -0.2099  0.1855  0.5268
  769SOL    HW1 2306   2.965   2.607   1.164  0.7232  2.1350 -0.3527
  769SOL    HW2 2307   2.958   2.589   0.993 -0.1202 -0.6903 -0.9460
  770SOL     OW 2308   0.499   2.847   2.727 -0.4111  0.1976  0.2882
  770SOL    HW1 2309   0.500   2.927   2.789  0.2690 -0.5724 -2.5863
  770SOL    HW2 2310   0.596   2.818   2.712  1.2002  1.0760 -1.5697
  771SOL     OW 2311   0.806   2.571   2.551  0.0166  0.3633  0.0586
  771SOL    HW1 2312   0.820   2.469   2.563 -1.8126 -0.9719  1.8819
  771SOL    HW2 2313   0.705   2.585   2.534  1.3580  1.6917  0.1076
  772SOL     OW 2314   2.572   0.097   1.930  0.3563 -0.2631  0.2578
  772SOL    HW1 2315   2.557   0.121   2.026  0.1434  0.4359 -2.1901
  772SOL    HW2 2316   2.576   0.182   1.869  0.2720  2.4081 -1.7090
  773SOL     OW 2317   0.942   2.534   1.858  0.1917 -0.3769  0.1332
  773SOL    HW1 2318   1.028   2.515   1.904  0.2039  0.1581  1.8365
  773SOL    HW2 2319   0.867   2.550   1.926 -0.4730  0.7084  0.3300
  774SOL     OW 2320   1.414   0.299   2.358  0.2237 -0.1764 -0.0967
  774SOL    HW1 2321   1.396   0.213   2.406 -1.1551  2.1422 -0.7714
  774SOL    HW2 2322   1.403   0.288   2.256  1.7921  2.5651 -2.4342
  775SOL     OW 2323   2.130   2.629   2.964 -0.4422 -0.1993  0.1640
  775SOL    HW1 2324   2.095   2.617   3.060  0.8131 -1.2278  3.3541
  775SOL    HW2 2325   2.188   2.546   2.944  0.5455  1.0300  1.0083
  776SOL     OW 2326   2.178   0.867   2.040 -0.0188 -0.2375  0.2907
  776SOL    HW1 2327   2.085   0.825   2.027 -0.5743  1.7063 -1.5433
  776SOL    HW2 2328   2.222   0.880   1.948  0.5763 -1.3734 -1.2716
  777SOL     OW 2329   2.773   1.064   2.365  0.0640 -0.2130 -0.3021
  777SOL    HW1 2330   2.782   0.999   2.445 -1.3538  1.5736 -0.7460
  777SOL    HW2 2331   2.676   1.074   2.341 -0.4259 -1.1513 -1.2169
  778SOL     OW 2332   2.161   0.475   2.164 -0.2189  0.0547  0.3990
  778SOL    HW1 2333   2.242   0.538   2.153  3.1415  1.4231 -0.2342
  778SOL    HW2 2334   2.099   0.482   2.081 -2.7769  1.0911 -0.2281
  779SOL     OW 2335   0.194   3.051   0.110 -0.1216 -0.0787  0.2506
  779SOL    HW1 2336   0.165   2.998   0.028  0.0302 -0.1570  0.6691
  779SOL    HW2 2337   0.280   3.016   0.155 -3.2513  2.5834 -1.0252
  780SOL     OW 2338   2.254   0.191   2.538  0.1463  0.1179  0.3791
  780SOL    HW1 2339   2.195   0.275   2.524  2.3493  0.1845  1.4349
  780SOL    HW2 2340   2.312   0.180   2.453 -2.0064 -0.1180  0.6697
  781SOL     OW 2341   0.407   0.271   1.494  0.6096 -0.0931 -0.1048
  781SOL    HW1 2342   0.487   0.223   1.529 -1.6494  2.5035 -1.0968
  781SOL    HW2 2343   0.346   0.293   1.568  2.0747  0.0980 -3.2580
  782SOL     OW 2344   1.661   2.051   2.957 -0.2905 -0.0753 -0.3345
  782SOL    HW1 2345   1.749   2.078   2.994  0.8727 -1.5238  2.0164
  782SOL    HW2 2346   1.641   2.100   2.870 -1.0742 -0.9187  4.4007
  783SOL     OW 2347   0.864   1.848   1.516  0.1454 -1.1469 -0.3292
  783SOL    HW1 2348   0.899   1.894   1.425  0.5813  1.2447 -3.6095
  783SOL    HW2 2349   0.847   1.751   1.507  1.8753 -1.7700 -1.5342
  784SOL     OW 2350   1.851   0.637   2.214  0.3110 -0.0765 -0.0593
  784SOL    HW1 2351   1.795   0.567   2.164  1.2410 -0.0904  1.2958
  784SOL    HW2 2352   1.895   0.698   2.144  0.8631  1.0428 -0.7465
  785SOL     OW 2353   3.003   0.407   0.902 -0.0432 -0.0320 -0.1113
  785SOL    HW1 2354   3.019   0.506   0.916  0.5458  0.6273 -1.3486
  785SOL    HW2 2355   2.902   0.396   0.914  0.0107  2.0897  0.7459
  786SOL     OW 2356   1.668   2.869   0.603 -0.0707 -0.3699 -0.6661
  786SOL    HW1 2357   1.585   2.842   0.552 -1.4385 -0.5606  1.9546
  786SOL    HW2 2358   1.745   2.800   0.595 -0.0853  0.0474  1.0154
  787SOL     OW 2359   1.165   0.336   0.772  0.2991  0.3244  0.1058
  787SOL    HW1 2360   1.256   0.381   0.758  0.8917  0.3428  0.1355
  787SOL    HW2 2361   1.136   0.349   0.869  1.0312  0.4829 -0.8816
  788SOL     OW 2362   0.048   1.492   1.078 -0.0678 -0.2471 -0.4593
  788SOL    HW1 2363   3.050   1.481   1.156 -0.0113  0.5796 -1.7203
  788SOL    HW2 2364   0.135   1.435   1.096  1.0105 -0.5799 -0.7269
  789SOL     OW 2365   2.966   0.683   2.023  0.5248  0.5055  0.1408
  789SOL    HW1 2366   2.891   0.618   2.056 -2.4406  1.5055  3.3659
  789SOL    HW2 2367   2.959   0.771   2.074  2.5248 -1.6327 -3.7589
  790SOL     OW 2368   0.513   0.638   2.650 -0.2074 -0.3159 -0.0454
  790SOL    HW1 2369   0.589   0.574   2.668 -1.0590 -0.9995  0.3540
  790SOL    HW2 2370   0.490   0.684   2.737  2.1119  1.5211 -1.2288
  791SOL     OW 2371   2.618   0.153   0.060 -0.3038 -0.0827  0.6302
  791SOL    HW1 2372   2.601   0.083   3.049 -2.3213  1.7629  0.7012
  791SOL    HW2 2373   2.588   0.124   0.154 -0.9230 -0.4376 -0.0557
  792SOL     OW 2374   1.584   0.669   1.176 -0.1853 -0.1238  0.4679
  792SOL    HW1 2375   1.578   0.646   1.076  1.0650  2.9984  1.9639
  792SOL    HW2 2376   1.638   0.604   1.233 -3.2309  2.0457  2.2869
  793SOL     OW 2377   0.144   2.976   1.302  0.5306 -0.0662 -0.0588
  793SOL    HW1 2378   0.244   2.995   1.336  3.8081  0.0424 -2.9058
  793SOL    HW2 2379   0.105   3.047   1.243  0.6529 -1.6018  1.8948
  794SOL     OW 2380   0.160   0.379   2.039  0.0862  0.1155  0.3658
  794SOL    HW1 2381   0.178   0.464   1.982  1.6068  0.9037 -1.0112
  794SOL    HW2 2382   0.203   0.386   2.131 -0.7249  0.3216 -1.4020
  795SOL     OW 2383   0.310   2.266   2.592 -0.2851 -0.2315 -1.0157
  795SOL    HW1 2384   0.393   2.258   2.652  2.7933 -2.0235  1.7596
  795SOL    HW2 2385   0.272   2.365   2.590  1.2850  1.7954 -0.6644
  796SOL     OW 2386   2.013   0.401   2.777  0.5757 -0.2492  0.8042
  796SOL    HW1 2387   1.942   0.473   2.776  0.2839 -0.6361  1.7131
  796SOL    HW2 2388   1.978   0.304   2.769  0.3529  0.0007  0.8821
  797SOL     OW 2389   2.276   2.139   2.863  0.1390  0.3075 -0.1360
  797SOL    HW1 2390   2.333   2.059   2.885 -0.9796  0.0368 -1.0791
  797SOL    HW2 2391   2.284   2.215   2.934  0.1696 -1.5063 -0.8352
  798SOL     OW 2392   0.073   0.687   1.520  0.2025  0.3581 -0.4178
  798SOL    HW1 2393   0.134   0.614   1.478  2.7401 -0.1465  1.8171
  798SOL    HW2 2394   0.032   0.649   1.608 -0.2782 -1.0762  0.6700
  799SOL     OW 2395   0.615   0.266   1.675 -0.2858 -0.5712  0.0513
  799SOL    HW1 2396   0.610   0.314   1.764  2.0998 -2.8197 -0.6948
  799SOL    HW2 2397   0.706   0.210   1.669  4.9569 -2.8946  0.5350
  800SOL     OW 2398   3.007   2.418   0.347  0.1319  0.0365 -0.5008
  800SOL    HW1 2399   3.022   2.356   0.267  0.4905  2.3180  0.2755
  800SOL    HW2 2400   0.041   2.440   0.376  1.2437 -0.9240  1.0487
  801SOL     OW 2401   1.645   1.813   0.721 -0.5393  0.1767 -0.1195
  801SOL    HW1 2402   1.714   1.862   0.782  3.3074  2.6983 -0.3957
  801SOL    HW2 2403   1.578   1.761   0.779  1.0536 -0.9469 -0.2165
  802SOL     OW 2404   0.794   0.524   0.169  0.2927  0.1851  0.6999
  802SOL    HW1 2405   0.794   0.540   0.267  0.6114 -2.4287  0.4233
  802SOL    HW2 2406   0.766   0.611   0.124  1.8331  2.2428 -0.8165
  803SOL     OW 2407   1.156   0.935   1.972  0.5244  0.1440  0.0899
  803SOL    HW1 2408   1.168   0.946   1.877 -1.8807 -0.5429  1.7735
  803SOL    HW2 2409   1.237   0.972   2.022  0.3215 -2.7228 -2.1961
  804SOL     OW 2410   1.801   2.200   1.282  0.8308  0.2122 -0.3749
  804SOL    HW1 2411   1.866   2.155   1.348  0.1352 -2.3448  1.8948
  804SOL    HW2 2412   1.855   2.256   1.215 -0.9167  1.2232  0.3514
  805SOL     OW 2413   2.923   2.070   2.351 -1.0824 -0.1381 -0.1102
  805SOL    HW1 2414   2.980   2.011   2.290  1.9290  0.5523  0.2569
  805SOL    HW2 2415   2.942   2.170   2.343  0.6136  1.1795  0.6649
  806SOL     OW 2416   0.452   2.626   0.405 -0.4001 -0.6199 -0.1350
  806SOL    HW1 2417   0.533   2.661   0.351 -0.5836 -3.3999  1.1136
  806SOL    HW2 2418   0.463   2.529   0.427 -1.3031  2.2415  1.1758
  807SOL     OW 2419   2.267   1.079   2.866  0.4927 -0.0726 -0.1646
  807SOL    HW1 2420   2.211   1.122   2.942 -1.4213 -0.4593  1.1992
  807SOL    HW2 2421   2.233   0.982   2.861 -1.0488 -1.4083  0.8777
  808SOL     OW 2422   1.524   2.214   0.795 -0.5885  0.4318 -0.6598
  808SOL    HW1 2423   1.614   2.163   0.783  0.6750  0.0170  0.0132
  808SOL    HW2 2424   1.533   2.273   0.879 -0.8994  2.1058 -0.9278
  809SOL     OW 2425   0.256   0.580   0.748 -0.4996  0.2294  0.1455
  809SOL    HW1 2426   0.236   0.658   0.808  2.1814 -1.7634 -0.9038
  809SOL    HW2 2427   0.288   0.499   0.803 -0.5966  0.9514 -0.1719
  810SOL     OW 2428   1.217   1.609   0.142  0.4597  0.0689  0.0008
  810SOL    HW1 2429   1.182   1.545   0.075  0.0720 -1.1135  0.4018
  810SOL    HW2 2430   1.317   1.628   0.148 -1.2828  0.5214  4.4837
  811SOL     OW 2431   1.450   2.828   1.705 -0.0342  0.4954  0.3137
  811SOL    HW1 2432   1.524   2.799   1.641 -1.5406 -0.5059 -0.0234
  811SOL    HW2 2433   1.364   2.846   1.656 -1.7189  3.0193 -3.0683
  812SOL     OW 2434   1.542   0.300   0.885 -0.3419  0.0589  0.1878
  812SOL    HW1 2435   1.502   0.364   0.816  1.5472  1.2673 -1.1889
  812SOL    HW2 2436   1.532   0.200   0.848  0.7452 -3.7614 -1.6903
  813SOL     OW 2437   1.405   2.939   2.133  0.2204 -0.1907  0.3798
  813SOL    HW1 2438   1.322   2.936   2.188  2.2484 -2.2631  1.3859
  813SOL    HW2 2439   1.452   3.029   2.148  1.5943  0.6114 -1.3570
  814SOL     OW 2440   1.259   2.835   1.919  0.0918 -0.1010 -0.0487
  814SOL    HW1 2441   1.287   2.872   2.012  0.5113 -0.3125  1.6388
  814SOL    HW2 2442   1.343   2.800   1.874  1.0470  0.4856 -1.4948
  815SOL     OW 2443   0.427   2.939   0.252  0.0582  0.3016  0.7365
  815SOL    HW1 2444   0.449   3.026   0.295  0.6305 -2.3603 -3.1407
  815SOL    HW2 2445   0.508   2.883   0.277  0.2473 -0.2055 -0.5320
  816SOL     OW 2446   2.365   1.468   2.636  0.3453 -0.2544 -0.1326
  816SOL    HW1 2447   2.332   1.369   2.631 -0.3622  0.3269 -2.0059
  816SOL    HW2 2448   2.465   1.480   2.606  0.4680  0.0973 -1.1109
  817SOL     OW 2449   2.574   2.224   2.405 -0.0138 -0.2787 -0.0568
  817SOL    HW1 2450   2.499   2.217   2.472  3.4001  0.1709 -1.3523
  817SOL    HW2 2451   2.624   2.137   2.409 -1.3398  1.3582  0.1696
  818SOL     OW 2452   0.984   1.283   0.256 -0.2431  0.0240 -0.1161
  818SOL    HW1 2453   0.929   1.365   0.271 -0.7159  0.2675  3.5580
  818SOL    HW2 2454   1.084   1.313   0.248  0.2653 -0.2938  0.1220
  819SOL     OW 2455   1.415   1.368   0.027  0.2452 -0.1243 -0.2498
  819SOL    HW1 2456   1.469   1.352   3.007 -1.4216 -0.0641  3.0506
  819SOL    HW2 2457   1.459   1.441   0.080 -0.7051 -0.6287 -0.6031
  820SOL     OW 2458   0.403   1.024   0.899 -0.0247 -0.1165  0.1975
  820SOL    HW1 2459   0.491   0.976   0.921  0.5118 -2.6389 -0.2585
  820SOL    HW2 2460   0.395   1.049   0.799  0.3525 -0.1967 -0.8520
  821SOL     OW 2461   0.579   2.968   1.401  0.0957  0.1514 -0.3025
  821SOL    HW1 2462   0.639   2.901   1.348  1.2620 -2.3540 -0.0223
  821SOL    HW2 2463   0.563   2.933   1.498 -0.2849  0.6314  3.3897
  822SOL     OW 2464   1.980   1.877   2.853 -0.0959 -0.1618  0.0158
  822SOL    HW1 2465   1.941   1.957   2.902 -0.1572 -1.1797 -2.9103
  822SOL    HW2 2466   1.986   1.897   2.748 -3.1204  1.0585 -3.5049
  823SOL     OW 2467   0.761   0.396   2.307 -0.1019  0.4667  0.1764
  823SOL    HW1 2468   0.819   0.326   2.259  0.2396  2.2247 -1.1956
  823SOL    HW2 2469   0.789   0.491   2.289 -0.1769 -0.8989 -1.2057
  824SOL     OW 2470   2.708   2.720   1.416  0.6221 -0.3437 -0.1774
  824SOL    HW1 2471   2.629   2.767   1.463  0.5350 -0.1803 -0.5393
  824SOL    HW2 2472   2.707   2.732   1.316  1.6750  2.0081 -0.1977
  825SOL     OW 2473   0.203   1.609   2.392 -0.3097 -0.1415 -0.0617
  825SOL    HW1 2474   0.278   1.660   2.346 -0.6143 -2.5151 -0.1380
  825SOL    HW2 2475   0.116   1.609   2.340  0.2099  0.0591  0.7076
  826SOL     OW 2476   1.485   0.196   2.906  0.0904  0.4026 -0.6121
  826SOL    HW1 2477   1.560   0.235   2.850 -1.6933 -0.0845 -1.9816
  826SOL    HW2 2478   1.438   0.123   2.850  1.4120  0.2278  1.1639
  827SOL     OW 2479   0.144   1.970   1.883  0.7419 -0.1876 -0.4314
  827SOL    HW1 2480   0.105   1.983   1.790 -0.4173 -2.0319  0.9079
  827SOL    HW2 2481   0.185   2.060   1.915 -2.3389  0.4236 -1.1982
  828SOL     OW 2482   0.005   0.117   1.172 -0.1662 -0.1114 -0.5111
  828SOL    HW1 2483   0.045   0.145   1.082  1.3522  0.0336  0.1836
  828SOL    HW2 2484   2.969   0.151   1.189 -0.3800  1.4278 -1.2116
  829SOL     OW 2485   1.023   1.642   1.952 -0.3290 -0.2011 -0.0804
  829SOL    HW1 2486   0.980   1.552   1.928 -1.6084 -1.8018 -0.1566
  829SOL    HW2 2487   0.983   1.720   1.902  0.0150 -3.6418  1.2741
  830SOL     OW 2488   0.810   0.868   1.672  0.3058  0.0776  0.2914
  830SOL    HW1 2489   0.737   0.907   1.608  1.1409  0.9924 -2.7503
  830SOL    HW2 2490   0.781   0.870   1.768  1.9804  1.4869 -4.5876
  831SOL     OW 2491   2.579   2.028   0.131  0.1625  0.1849  0.0102
  831SOL    HW1 2492   2.596   1.940   0.079  0.5731 -2.4907 -0.9793
  831SOL    HW2 2493   2.663   2.066   0.175  1.8358 -0.0554  0.6221
  832SOL     OW 2494   0.968   2.330   2.861 -0.0963  1.0816 -0.1922
  832SOL    HW1 2495   0.883   2.317   2.921 -2.3065  0.3057  1.3601
  832SOL    HW2 2496   0.934   2.325   2.762 -3.2791 -0.2185 -1.0555
  833SOL     OW 2497   0.098   0.258   1.430 -0.0262  0.7793  0.0748
  833SOL    HW1 2498   0.084   0.191   1.506  0.6242  3.6083 -0.0113
  833SOL    HW2 2499   0.114   0.208   1.347  0.9138  0.7133  1.7607
  834SOL     OW 2500   3.026   0.697   0.933 -0.4806 -0.4189 -0.1677
  834SOL    HW1 2501   3.011   0.686   1.033 -2.8485  0.8015  1.9765
  834SOL    HW2 2502   3.017   0.794   0.905  0.9265 -1.0856 -0.6786
  835SOL     OW 2503   2.763   0.443   0.413 -0.2506  0.4503  0.1096
  835SOL    HW1 2504   2.827   0.451   0.494 -3.4105 -1.0593  0.7363
  835SOL    HW2 2505   2.670   0.426   0.447  0.9522 -1.5026 -0.7900
  836SOL     OW 2506   0.561   2.190   2.666  0.3821  0.1904 -0.0938
  836SOL    HW1 2507   0.573   2.089   2.687  1.4682 -2.9748 -1.7785
  836SOL    HW2 2508   0.529   2.201   2.572  0.1747 -0.7408  1.2480
  837SOL     OW 2509   1.295   1.848   0.397  0.0119  0.0639  0.1415
  837SOL    HW1 2510   1.385   1.872   0.443  1.8048 -0.1822  0.8586
  837SOL    HW2 2511   1.266   1.751   0.420  2.0777 -1.9122  1.3144
  838SOL     OW 2512   2.266   0.826   2.287 -0.4256  0.4691  0.4262
  838SOL    HW1 2513   2.278   0.912   2.340 -0.6514  0.4984 -4.0139
  838SOL    HW2 2514   2.218   0.854   2.204  2.0632 -0.9426  2.5986
  839SOL     OW 2515   1.045   0.891   2.359  0.0792 -0.4056  0.3497
  839SOL    HW1 2516   1.116   0.965   2.359 -0.4836 -0.5371 -0.2607
  839SOL    HW2 2517   0.980   0.898   2.434 -1.5691 -0.6791  1.2002
  840SOL     OW 2518   0.608   0.978   0.275 -0.3058 -0.7723 -0.1156
  840SOL    HW1 2519   0.519   0.967   0.228 -2.1520 -0.8054 -1.9399
  840SOL    HW2 2520   0.633   1.083   0.267  1.4973  1.2166 -1.6830
  841SOL     OW 2521   1.082   2.211   0.144  0.3500 -0.0523 -0.0199
  841SOL    HW1 2522   1.057   2.309   0.165 -1.6945  0.3477  0.2760
  841SOL    HW2 2523   0.999   2.161   0.110  1.8775 -2.5854 -2.7425
  842SOL     OW 2524   0.410   0.615   0.525 -0.1997  0.1110  0.1549
  842SOL    HW1 2525   0.369   0.601   0.620  0.8095 -1.2845  3.3803
  842SOL    HW2 2526   0.512   0.631   0.534  1.2611  0.8264  0.3012
  843SOL     OW 2527   0.427   0.627   1.442  0.2296  0.1991 -0.4956
  843SOL    HW1 2528   0.343   0.582   1.408  0.1873 -1.6888  1.1495
  843SOL    HW2 2529   0.497   0.640   1.376 -1.0214 -1.1413  1.8443
  844SOL     OW 2530   2.130   2.359   2.788  0.4043 -0.3372 -0.4855
  844SOL    HW1 2531   2.204   2.422   2.764 -0.6397  0.9673  0.1047
  844SOL    HW2 2532   2.164   2.264   2.798 -3.3554  2.1510 -0.2019
  845SOL     OW 2533   2.570   3.035   1.700 -0.3170 -0.0278  0.1244
  845SOL    HW1 2534   2.562   0.005   1.798  1.0161 -0.7913  0.8750
  845SOL    HW2 2535   2.669   3.010   1.679 -1.3760 -2.0765  0.6260
  846SOL     OW 2536   1.808   0.863   2.582 -0.0951  0.2763 -0.3242
  846SOL    HW1 2537   1.837   0.777   2.543  0.1075  0.7870  1.1695
  846SOL    HW2 2538   1.799   0.934   2.508  0.5604  1.9693  1.0875
  847SOL     OW 2539   3.029   0.193   1.719  0.3881  0.2767  0.4560
  847SOL    HW1 2540   3.009   0.193   1.822 -1.8227 -0.9318 -0.0598
  847SOL    HW2 2541   0.006   0.110   1.687 -0.5573  3.4882  1.9605
  848SOL     OW 2542   2.632   2.616   0.148  0.2740  0.0212  0.2648
  848SOL    HW1 2543   2.719   2.657   0.181 -3.1603  0.7702 -2.1679
  848SOL    HW2 2544   2.557   2.645   0.214  1.7815 -0.9619  1.1336
  849SOL     OW 2545   0.648   2.937   0.805  0.2912  0.5602  0.2435
  849SOL    HW1 2546   0.633   2.888   0.715 -0.7930 -1.8322  0.2673
  849SOL    HW2 2547   0.554   2.955   0.843  0.2716  0.0834  2.6760
  850SOL     OW 2548   0.543   2.218   0.654  0.3809  0.0883 -0.3389
  850SOL    HW1 2549   0.508   2.314   0.660 -1.3980  0.0465  0.0544
  850SOL    HW2 2550   0.637   2.219   0.696 -1.0577  1.4748 -0.9920
  851SOL     OW 2551   2.144   0.408   3.000 -0.2519 -0.1114  0.6362
  851SOL    HW1 2552   2.111   0.399   2.903  1.1477 -2.2091 -0.4191
  851SOL    HW2 2553   2.193   0.323   3.028  0.3790  0.4278 -0.7361
  852SOL     OW 2554   1.510   2.016   2.539  0.0160 -0.4981  0.3773
  852SOL    HW1 2555   1.548   1.920   2.541  0.6670 -0.7043 -2.1622
  852SOL    HW2 2556   1.508   2.046   2.442  1.4941  1.9149  0.8246
  853SOL     OW 2557   0.004   2.180   0.189 -0.0127 -0.2135 -0.0029
  853SOL    HW1 2558   3.057   2.161   0.087  2.1591  0.7559 -0.7658
  853SOL    HW2 2559   0.097   2.152   0.228  1.5394  1.5479 -1.0138
  854SOL     OW 2560   1.377   0.735   2.139  0.4371  0.2616 -0.0262
  854SOL    HW1 2561   1.328   0.666   2.196 -0.0146 -0.3479  0.0891
  854SOL    HW2 2562   1.473   0.746   2.168  0.2390  0.6725 -1.5870
  855SOL     OW 2563   0.113   2.661   0.617  0.2017  0.6555 -0.2895
  855SOL    HW1 2564   0.051   2.614   0.684  0.5279  2.8663 -1.0406
  855SOL    HW2 2565   0.143   2.597   0.546  0.1851  1.8330  1.4149
  856SOL     OW 2566   0.302   2.895   2.554  0.6068 -0.6613 -0.1793
  856SOL    HW1 2567   0.286   2.821   2.488  1.8255 -1.1635  0.9075
  856SOL    HW2 2568   0.388   2.876   2.609 -2.9024  1.8330  1.8304
  857SOL     OW 2569   1.089   0.240   1.788  0.3970 -0.2729  0.3237
  857SOL    HW1 2570   1.154   0.296   1.845 -3.0458 -1.9331 -0.5762
  857SOL    HW2 2571   1.088   0.279   1.692 -0.3048  0.1324 -1.3363
  858SOL     OW 2572   0.091   2.010   1.624 -0.0539 -0.3196 -0.2060
  858SOL    HW1 2573   0.005   2.066   1.609  1.5500  1.4525 -0.0339
  858SOL    HW2 2574   0.177   2.052   1.589 -0.7026  1.7220  0.1439
  859SOL     OW 2575   2.133   2.781   1.785  0.3057  0.0737 -0.3239
  859SOL    HW1 2576   2.209   2.717   1.765  1.0316 -0.9945  1.0367
  859SOL    HW2 2577   2.057   2.775   1.720 -0.3027  1.1478  2.1147
  860SOL     OW 2578   1.680   0.321   0.570  0.3163 -0.2628  0.5933
  860SOL    HW1 2579   1.679   0.222   0.570 -2.6211  3.6802 -0.3116
  860SOL    HW2 2580   1.752   0.356   0.631 -0.9915 -1.2231 -2.3072
  861SOL     OW 2581   2.817   0.692   0.743  0.1011  0.4402 -0.3138
  861SOL    HW1 2582   2.881   0.674   0.820  0.2789  0.0910  1.6750
  861SOL    HW2 2583   2.871   0.712   0.662 -1.0267 -0.5751  1.6368
  862SOL     OW 2584   1.905   0.742   1.710 -0.3236 -0.3701  0.0851
  862SOL    HW1 2585   1.906   0.673   1.631  0.1742 -0.3614 -4.3663
  862SOL    HW2 2586   1.975   0.816   1.693 -0.3314  1.3134 -1.4285
  863SOL     OW 2587   0.714   0.700   1.068 -0.6596  0.2495  0.5330
  863SOL    HW1 2588   0.619   0.667   1.087 -0.9600 -1.6137 -0.0645
  863SOL    HW2 2589   0.759   0.724   1.155  0.7921 -1.0608 -0.6861
  864SOL     OW 2590   2.759   2.946   2.048 -0.1220 -0.0988 -0.3689
  864SOL    HW1 2591   2.722   2.899   2.130 -2.8908 -2.4751  0.9452
  864SOL    HW2 2592   2.688   3.001   2.003  0.0394 -2.5356 -2.8796
  865SOL     OW 2593   1.287   0.547   2.328  0.0798 -0.0822 -0.1855
  865SOL    HW1 2594   1.271   0.598   2.418  3.9547  1.3496 -0.0586
  865SOL    HW2 2595   1.341   0.464   2.350 -0.7378  1.0327 -2.4668
  866SOL     OW 2596   2.553   2.719   0.451 -0.0443 -0.1114 -0.4352
  866SOL    HW1 2597   2.558   2.616   0.448 -0.9756 -0.6924 -1.5189
  866SOL    HW2 2598   2.638   2.753   0.501  1.6251 -1.8675 -2.2760
  867SOL     OW 2599   2.810   2.795   0.531 -0.1218  0.1247 -0.2877
  867SOL    HW1 2600   2.830   2.700   0.557 -2.3153  1.1246  0.4518
  867SOL    HW2 2601   2.886   2.827   0.474  0.4153  0.6652  1.3987
  868SOL     OW 2602   1.586   0.913   0.012 -0.2361 -0.5306  0.2601
  868SOL    HW1 2603   1.676   0.954   3.050  2.6681 -1.4979 -0.5388
  868SOL    HW2 2604   1.535   0.992   0.058 -1.9471  1.6955 -2.0479
  869SOL     OW 2605   2.589   2.451   0.471 -0.1727  0.1361  0.5597
  869SOL    HW1 2606   2.517   2.447   0.541  1.1279  2.0035  0.0191
  869SOL    HW2 2607   2.564   2.390   0.396  0.5851  0.4934  0.7707
  870SOL     OW 2608   2.136   2.155   0.379 -0.1941 -0.0914  0.0133
  870SOL    HW1 2609   2.085   2.088   0.433 -2.0280 -3.1908  0.3418
  870SOL    HW2 2610   2.228   2.126   0.356  1.4798  1.3366  0.2312
  871SOL     OW 2611   0.619   1.195   1.346  0.4645 -0.7416  0.1911
  871SOL    HW1 2612   0.535   1.166   1.294  0.0233 -3.3324  3.4139
  871SOL    HW2 2613   0.592   1.228   1.437  0.3041  2.8457  0.6556
  872SOL     OW 2614   1.156   1.830   2.290  0.4282 -0.3448  0.0632
  872SOL    HW1 2615   1.169   1.926   2.262 -1.5124  0.4595  1.9825
  872SOL    HW2 2616   1.180   1.762   2.217 -0.3975  1.0293 -1.9971
  873SOL     OW 2617   0.594   2.443   1.962  0.0372  0.0712 -0.8702
  873SOL    HW1 2618   0.656   2.517   1.995 -0.4267 -0.9379 -1.1315
  873SOL    HW2 2619   0.534   2.470   1.886  1.3993  0.4110  1.0419
  874SOL     OW 2620   0.842   0.405   1.383  0.0911 -0.3011 -0.6514
  874SOL    HW1 2621   0.843   0.427   1.283 -0.8100  0.4657 -1.6209
  874SOL    HW2 2622   0.759   0.442   1.432  2.1122  0.7842 -1.6960
  875SOL     OW 2623   2.738   0.228   1.156 -0.0594  0.7594 -0.2189
  875SOL    HW1 2624   2.819   0.275   1.194 -3.2446 -2.3245  1.3220
  875SOL    HW2 2625   2.712   0.144   1.213 -0.4315 -2.6112 -1.8920
  876SOL     OW 2626   0.338   0.962   0.128 -0.4751 -0.0999 -0.6112
  876SOL    HW1 2627   0.351   0.859   0.126  1.0981  0.4421 -0.3861
  876SOL    HW2 2628   0.267   0.992   0.198 -2.4782  1.7833  0.6366
  877SOL     OW 2629   1.036   0.701   1.697  0.5725 -1.0478 -0.1583
  877SOL    HW1 2630   0.964   0.772   1.662 -1.3713  1.7162  0.1994
  877SOL    HW2 2631   1.004   0.668   1.786  1.9621  2.3507 -2.4042
  878SOL     OW 2632   1.856   2.381   0.317  0.0160  0.1227  0.3480
  878SOL    HW1 2633   1.801   2.451   0.368  1.3765 -1.4854  0.4229
  878SOL    HW2 2634   1.955   2.398   0.326  0.7084  1.3257 -2.4612
  879SOL     OW 2635   2.747   1.316   1.436  0.1457 -0.0635 -0.6159
  879SOL    HW1 2636   2.670   1.315   1.368 -0.3988  0.6245  2.7008
  879SOL    HW2 2637   2.720   1.278   1.525 -1.2313 -0.5125 -1.4478
  880SOL     OW 2638   1.462   2.466   0.636  0.0137 -0.2091 -0.6299
  880SOL    HW1 2639   1.469   2.374   0.678  0.0300 -0.1439 -0.7844
  880SOL    HW2 2640   1.418   2.452   0.548 -1.0759 -0.2281  3.4212
  881SOL     OW 2641   0.775   2.320   0.359 -0.4925  0.4824  0.2720
  881SOL    HW1 2642   0.811   2.225   0.371  0.4120 -1.3721 -0.5263
  881SOL    HW2 2643   0.674   2.331   0.365 -1.6216  1.4400  0.4549
  882SOL     OW 2644   2.005   0.766   1.034  0.3475  0.5870 -0.1249
  882SOL    HW1 2645   2.103   0.805   1.033 -0.6723 -2.1120 -0.4144
  882SOL    HW2 2646   1.944   0.815   1.100  3.4686  0.8338 -0.8111
  883SOL     OW 2647   1.680   0.946   1.603  0.2861  0.2465 -0.0969
  883SOL    HW1 2648   1.756   0.877   1.627 -0.0664 -1.6883  0.5835
  883SOL    HW2 2649   1.631   0.973   1.682  0.9391  0.0589 -1.1745
  884SOL     OW 2650   2.837   0.298   0.193  0.0251 -0.0994 -0.6760
  884SOL    HW1 2651   2.809   0.353   0.273 -1.8617  0.4777  3.9267
  884SOL    HW2 2652   2.754   0.252   0.154  1.9423 -0.1941 -0.2970
  885SOL     OW 2653   1.128   1.314   2.576 -0.1620  0.0981 -0.7136
  885SOL    HW1 2654   1.148   1.371   2.655 -4.3847 -3.2033  1.2896
  885SOL    HW2 2655   1.024   1.298   2.568  1.5450 -0.3464  0.1276
  886SOL     OW 2656   1.207   1.853   2.560  0.2554  0.0886  0.0111
  886SOL    HW1 2657   1.209   1.843   2.458 -3.0194  0.2745 -0.7559
  886SOL    HW2 2658   1.226   1.948   2.592  0.7667  1.4421  1.1644
  887SOL     OW 2659   1.323   0.386   1.195 -0.5040 -0.5986 -0.2077
  887SOL    HW1 2660   1.402   0.320   1.180  2.7671 -3.1132  0.0101
  887SOL    HW2 2661   1.294   0.403   1.291  0.2833 -0.3682 -1.3897
  888SOL     OW 2662   2.472   0.676   1.582  0.6406  0.4232  0.0497
  888SOL    HW1 2663   2.567   0.634   1.596 -0.2942  1.3953 -1.3821
  888SOL    HW2 2664   2.414   0.621   1.522  1.0551 -0.8723  1.1241
  889SOL     OW 2665   2.809   2.563   0.818 -0.2059 -0.0913  0.2824
  889SOL    HW1 2666   2.802   2.524   0.724 -2.7824 -0.1220  2.2572
  889SOL    HW2 2667   2.830   2.482   0.880 -1.5027 -1.9562  0.9103
  890SOL     OW 2668   1.813   2.134   0.473 -0.1285 -0.0781  1.3035
  890SOL    HW1 2669   1.842   2.201   0.399 -2.3921 -1.1588  0.0801
  890SOL    HW2 2670   1.711   2.127   0.464 -2.3379  1.7555 -0.2091
  891SOL     OW 2671   0.600   1.170   2.827  0.1766 -0.4354  0.2973
  891SOL    HW1 2672   0.600   1.183   2.725 -2.8077 -1.2334 -0.8304
  891SOL    HW2 2673   0.627   1.072   2.847 -0.0512 -0.7000 -1.2682
  892SOL     OW 2674   2.947   2.592   1.378  0.2259  0.4243  0.0310
  892SOL    HW1 2675   3.025   2.657   1.388  0.8698  3.0040 -0.4368
  892SOL    HW2 2676   2.857   2.642   1.388  1.5689  2.6636  1.9655
  893SOL     OW 2677   1.422   0.128   1.139 -0.4013  0.1172  0.2907
  893SOL    HW1 2678   1.510   0.093   1.184 -0.6838  1.3996  0.2947
  893SOL    HW2 2679   1.430   0.126   1.036  0.6699 -1.1848  0.6519
  894SOL     OW 2680   2.571   0.542   0.839 -0.2701 -0.3305  0.2335
  894SOL    HW1 2681   2.649   0.602   0.798  2.5513  2.3222  0.3687
  894SOL    HW2 2682   2.492   0.592   0.883 -2.1714  2.3622  1.2552
  895SOL     OW 2683   1.675   1.404   2.552  0.2925 -0.7057  0.2329
  895SOL    HW1 2684   1.580   1.444   2.566 -2.0904 -0.7787 -0.8082
  895SOL    HW2 2685   1.745   1.470   2.577 -1.0104 -1.7871  1.7152
  896SOL     OW 2686   1.507   0.362   1.703  0.0091 -0.2026  0.1233
  896SOL    HW1 2687   1.460   0.288   1.655 -0.5924  1.8155  0.2331
  896SOL    HW2 2688   1.598   0.384   1.662 -0.5951 -2.0082 -0.2821
  897SOL     OW 2689   0.736   1.566   1.815  0.9216 -0.1821  0.1908
  897SOL    HW1 2690   0.796   1.501   1.865 -0.7494 -2.0088 -0.0926
  897SOL    HW2 2691   0.717   1.653   1.869 -0.3987 -0.6079  0.2925
  898SOL     OW 2692   2.290   2.519   2.214 -0.0449 -0.0229  0.5498
  898SOL    HW1 2693   2.235   2.475   2.135  0.5069 -1.7470 -0.2584
  898SOL    HW2 2694   2.391   2.507   2.204  1.6127  1.1752 -0.6181
  899SOL     OW 2695   1.282   1.391   1.449 -0.2044  0.2949  0.0390
  899SOL    HW1 2696   1.309   1.336   1.365 -0.3528  0.5748 -1.8693
  899SOL    HW2 2697   1.292   1.491   1.438 -0.0776  0.2625 -0.1803
  900SOL     OW 2698   0.998   2.138   2.490 -0.1529 -0.1233 -0.2740
  900SOL    HW1 2699   1.097   2.124   2.472  0.7982  0.7427  1.0620
  900SOL    HW2 2700   0.955   2.046   2.488  0.6157  0.0813 -0.2392
  901SOL     OW 2701   0.557   2.067   2.321  0.0053  0.3195  0.3611
  901SOL    HW1 2702   0.561   2.033   2.223  0.1693  0.1311 -2.2612
  901SOL    HW2 2703   0.496   2.003   2.374 -2.6389  1.4360  0.6575
  902SOL     OW 2704   2.061   1.609   0.236  0.2048  0.7835 -0.0174
  902SOL    HW1 2705   2.011   1.556   0.160 -1.8979 -0.8109 -1.0202
  902SOL    HW2 2706   2.122   1.549   0.300  1.0110  0.1591 -1.9369
  903SOL     OW 2707   1.948   1.684   0.505 -0.1614  0.1962 -0.0976
  903SOL    HW1 2708   1.865   1.632   0.508  1.2496  2.6107 -2.2446
  903SOL    HW2 2709   1.995   1.660   0.417  2.1362 -2.1131  0.0378
  904SOL     OW 2710   0.957   0.646   2.567  0.4878 -0.9358  0.1218
  904SOL    HW1 2711   1.054   0.668   2.571 -1.1319  0.6974  1.6058
  904SOL    HW2 2712   0.941   0.546   2.549 -2.8022  1.4103  1.4129
  905SOL     OW 2713   2.726   0.348   0.892  0.2275  0.2217 -0.0452
  905SOL    HW1 2714   2.662   0.428   0.884 -0.6990 -2.8916 -0.7371
  905SOL    HW2 2715   2.720   0.302   0.984  2.4592  1.6075  0.5447
  906SOL     OW 2716   2.717   2.140   0.526  0.0294  0.6577  0.2970
  906SOL    HW1 2717   2.741   2.044   0.508 -4.7186  1.1906  0.9993
  906SOL    HW2 2718   2.761   2.175   0.607  0.8466 -0.1413 -0.6513
  907SOL     OW 2719   1.385   0.802   0.376 -0.5954  0.1222  0.1625
  907SOL    HW1 2720   1.403   0.761   0.280  0.8406 -4.6145 -3.5032
  907SOL    HW2 2721   1.327   0.740   0.432 -2.9774 -1.3833  0.7403
  908SOL     OW 2722   1.902   0.143   1.523  0.1574  0.2216 -0.5636
  908SOL    HW1 2723   1.983   0.094   1.497 -3.2410 -1.8573  2.1104
  908SOL    HW2 2724   1.818   0.095   1.495  1.2193 -2.8049 -0.2869
  909SOL     OW 2725   2.569   0.779   1.094 -0.1604  0.8828  0.5362
  909SOL    HW1 2726   2.566   0.674   1.093 -0.3051 -3.0258 -2.0930
  909SOL    HW2 2727   2.562   0.808   0.996 -0.2894  1.5145 -2.1895
  910SOL     OW 2728   1.184   2.908   2.271 -0.3208  0.2681  0.6175
  910SOL    HW1 2729   1.124   2.845   2.327  0.2334 -0.3614  0.6135
  910SOL    HW2 2730   1.151   3.002   2.288  0.7800 -1.4151 -1.0808
  911SOL     OW 2731   2.311   0.894   1.817  0.0510 -0.5365 -0.7586
  911SOL    HW1 2732   2.394   0.837   1.806 -0.4462 -0.9101 -1.3563
  911SOL    HW2 2733   2.274   0.927   1.726 -1.2908  0.3236  1.6959
  912SOL     OW 2734   2.562   1.869   1.495 -0.0686  0.2911  0.4145
  912SOL    HW1 2735   2.555   1.945   1.431  0.3333 -2.9165 -0.3461
  912SOL    HW2 2736   2.660   1.840   1.493  1.0065  1.5250  1.2260
  913SOL     OW 2737   2.506   2.108   1.384 -0.0856  0.1216 -0.0928
  913SOL    HW1 2738   2.432   2.171   1.408  1.8519  1.0050 -1.2006
  913SOL    HW2 2739   2.503   2.077   1.285  0.8451 -1.9173 -3.1510
  914SOL     OW 2740   1.985   1.792   1.356  0.1134  0.4882  0.1649
  914SOL    HW1 2741   2.049   1.714   1.352  1.0901  2.7491  0.7192
  914SOL    HW2 2742   1.904   1.765   1.418 -2.0078 -1.3756 -0.1978
  915SOL     OW 2743   1.291   1.671   1.386 -0.0538  0.4921 -0.1455
  915SOL    HW1 2744   1.250   1.735   1.452  1.5732  0.2612 -0.1697
  915SOL    HW2 2745   1.312   1.718   1.300  0.1101 -1.4018 -0.3219
  916SOL     OW 2746   2.632   2.427   1.470  0.3071  0.1120 -0.7586
  916SOL    HW1 2747   2.656   2.463   1.381 -1.3994 -2.3036  0.4061
  916SOL    HW2 2748   2.529   2.436   1.484 -0.8879  1.1840 -1.2123
  917SOL     OW 2749   2.439   1.788   2.645  0.0020  0.0320 -0.4386
  917SOL    HW1 2750   2.491   1.702   2.649 -0.3601  0.6664  0.8811
  917SOL    HW2 2751   2.456   1.845   2.726  0.9367 -1.4126 -1.2848
  918SOL     OW 2752   1.594   2.076   2.289  0.3441 -0.8158 -0.1036
  918SOL    HW1 2753   1.560   2.174   2.265  2.6832  2.8108 -0.3245
  918SOL    HW2 2754   1.693   2.075   2.293 -2.0885 -1.3408  0.2214
  919SOL     OW 2755   1.403   2.123   1.824  0.1797  0.2125 -0.4077
  919SOL    HW1 2756   1.498   2.144   1.846 -1.7376 -0.9424 -1.3173
  919SOL    HW2 2757   1.382   2.160   1.728  0.8035  1.0383 -3.7321
  920SOL     OW 2758   2.919   0.324   2.838  0.2643  0.5915 -0.4491
  920SOL    HW1 2759   2.966   0.378   2.769 -0.2334 -1.8059  1.9164
  920SOL    HW2 2760   2.938   0.224   2.826 -0.8162 -1.6545 -1.2228
  921SOL     OW 2761   2.820   0.133   2.476 -0.0181 -0.2343 -0.1498
  921SOL    HW1 2762   2.829   0.141   2.377  0.6593  0.2073  1.2081
  921SOL    HW2 2763   2.779   0.216   2.517  1.9842  1.0845  2.0648
  922SOL     OW 2764   2.259   1.965   0.585 -0.0315 -0.2266  0.0812
  922SOL    HW1 2765   2.258   2.046   0.648  0.5873  1.3006  2.1895
  922SOL    HW2 2766   2.158   1.939   0.565  1.2455 -0.3061  0.6503
  923SOL     OW 2767   0.275   1.724   0.479 -0.5699  0.1542 -0.1725
  923SOL    HW1 2768   0.359   1.701   0.425  0.8369  1.8839  0.1597
  923SOL    HW2 2769   0.305   1.775   0.563  1.3493  1.4569  1.5456
  924SOL     OW 2770   1.397   0.454   0.228  0.3910  0.7146  0.5062
  924SOL    HW1 2771   1.435   0.526   0.163  0.3663 -0.5923  0.3228
  924SOL    HW2 2772   1.430   0.367   0.185 -0.3347 -0.6385  0.0227
  925SOL     OW 2773   2.529   1.087   0.685  0.2950  0.0098  0.5877
  925SOL    HW1 2774   2.498   1.177   0.723 -0.4557  0.4721 -1.4530
  925SOL    HW2 2775   2.514   1.085   0.583  2.9295  0.1705 -0.2554
  926SOL     OW 2776   2.644   1.092   0.995 -0.9982 -0.0053  0.6586
  926SOL    HW1 2777   2.673   1.115   1.088  0.9206 -0.5958 -3.3706
  926SOL    HW2 2778   2.716   1.121   0.929  0.0739 -0.8245  0.3527
  927SOL     OW 2779   0.469   1.242   0.421  0.4121  0.0251  0.1480
  927SOL    HW1 2780   0.367   1.223   0.417  0.3319  1.5296  2.0698
  927SOL    HW2 2781   0.499   1.302   0.343  1.5973  0.7608 -3.6324
  928SOL     OW 2782   0.069   0.306   2.480  0.5163 -0.1027 -0.3134
  928SOL    HW1 2783   0.066   0.217   2.428  0.0864  0.2673 -0.5983
  928SOL    HW2 2784   0.163   0.324   2.503 -1.6388  0.9449 -0.0778
  929SOL     OW 2785   2.905   2.896   1.129  0.0291 -0.0052 -0.2196
  929SOL    HW1 2786   2.862   2.972   1.082  0.2958 -0.1937  4.6089
  929SOL    HW2 2787   2.855   2.806   1.125  1.0814  0.2999 -2.7062
  930SOL     OW 2788   1.941   2.061   1.458  0.2886 -0.0203 -0.5055
  930SOL    HW1 2789   1.866   2.013   1.516 -0.4815 -1.8949 -0.5234
  930SOL    HW2 2790   2.028   2.009   1.453 -0.6626  2.3984  0.0288
  931SOL     OW 2791   1.585   1.314   0.915 -0.1393 -0.0057 -0.5544
  931SOL    HW1 2792   1.567   1.341   1.012 -1.3236  0.9657 -0.7965
  931SOL    HW2 2793   1.510   1.256   0.885  2.1610 -1.3520  2.1074
  932SOL     OW 2794   2.952   0.987   1.218  0.1643 -0.0102  0.2903
  932SOL    HW1 2795   2.860   0.966   1.252  0.4762 -0.1163  0.5609
  932SOL    HW2 2796   2.965   1.087   1.230 -3.2232 -1.6815 -0.8393
  933SOL     OW 2797   2.373   1.425   1.388 -0.3045  0.2829 -0.3094
  933SOL    HW1 2798   2.398   1.490   1.466 -0.7809  0.4698  1.9813
  933SOL    HW2 2799   2.457   1.381   1.346  0.7554  0.4920  1.3207
  934SOL     OW 2800   1.730   0.197   1.221  0.0706  0.0606 -0.3567
  934SOL    HW1 2801   1.685   0.200   1.314 -1.2734  0.4667  1.5443
  934SOL    HW2 2802   1.785   0.116   1.211  0.4708 -0.5895 -2.2552
  935SOL     OW 2803   0.437   1.532   1.015 -0.5216 -0.0177  0.5942
  935SOL    HW1 2804   0.398   1.451   1.063  2.9762  1.3957  0.7016
  935SOL    HW2 2805   0.437   1.614   1.074 -0.5762  1.1050 -0.2846
  936SOL     OW 2806   2.994   0.958   0.861 -0.5857 -0.4209 -0.1521
  936SOL    HW1 2807   2.930   1.019   0.811  2.6588 -1.0544  1.8088
  936SOL    HW2 2808   0.005   1.008   0.916  2.2775  0.2250  0.8142
  937SOL     OW 2809   1.720   2.685   0.833  0.0080 -0.1927  0.4929
  937SOL    HW1 2810   1.628   2.687   0.872  1.6293 -0.2645 -0.6596
  937SOL    HW2 2811   1.743   2.773   0.779 -2.3965  2.2311 -2.4738
  938SOL     OW 2812   2.372   2.408   0.991  0.6570 -0.0890  0.5226
  938SOL    HW1 2813   2.374   2.453   0.899  3.7344  0.6259 -1.3706
  938SOL    HW2 2814   2.285   2.368   1.020  3.1161  1.4011 -0.3518
  939SOL     OW 2815   0.327   1.973   2.901 -0.4417 -0.2536  0.2114
  939SOL    HW1 2816   0.413   1.983   2.844  0.1051 -0.9531 -1.3071
  939SOL    HW2 2817   0.333   2.005   2.998  0.8463 -1.3554 -0.1444
  940SOL     OW 2818   2.928   2.852   3.048  0.7453  0.1539 -0.0312
  940SOL    HW1 2819   2.918   2.788   0.063 -0.0447  3.3764 -3.0385
  940SOL    HW2 2820   3.024   2.861   3.021 -1.9891 -1.4110 -0.5315
  941SOL     OW 2821   0.840   2.723   2.949  0.3280  0.1094 -0.4437
  941SOL    HW1 2822   0.923   2.670   2.947 -3.3170  3.0400  0.2908
  941SOL    HW2 2823   0.819   2.761   2.860  1.5772 -1.8289  2.1859
  942SOL     OW 2824   1.537   1.854   1.555  0.0744  0.3755 -0.2212
  942SOL    HW1 2825   1.621   1.885   1.601 -1.5229  1.8984 -0.5905
  942SOL    HW2 2826   1.561   1.764   1.509  1.9320 -4.2363 -1.1716
  943SOL     OW 2827   2.230   1.012   1.327  0.3307 -0.1838 -0.0435
  943SOL    HW1 2828   2.198   1.088   1.386 -1.7844  0.2917  2.4751
  943SOL    HW2 2829   2.191   0.920   1.356 -1.2052 -0.3859 -0.0425
  944SOL     OW 2830   2.143   0.775   1.440  0.4085  0.7004 -0.1564
  944SOL    HW1 2831   2.075   0.699   1.460 -0.9612 -0.5055 -0.0190
  944SOL    HW2 2832   2.213   0.745   1.372 -2.6540  1.7713  0.1505
  945SOL     OW 2833   3.043   2.875   0.877 -0.4461 -0.4348 -0.4018
  945SOL    HW1 2834   3.054   2.969   0.835  0.3896 -1.5968  3.8044
  945SOL    HW2 2835   3.002   2.884   0.971  0.4332 -1.5855  0.1899
  946SOL     OW 2836   0.389   0.550   1.732  0.1859  0.2817 -0.1799
  946SOL    HW1 2837   0.383   0.596   1.642 -0.7025  0.1228  0.0173
  946SOL    HW2 2838   0.382   0.447   1.718  1.3873 -2.1003  2.3425
  947SOL     OW 2839   0.467   2.789   0.627 -0.2613 -0.5214 -0.6392
  947SOL    HW1 2840   0.439   2.745   0.540 -0.7351 -0.3533 -0.7636
  947SOL    HW2 2841   0.418   2.880   0.640  2.0526  0.5616 -0.1278
  948SOL     OW 2842   3.048   1.286   1.908  0.0376 -0.2407 -0.0389
  948SOL    HW1 2843   0.020   1.340   1.829 -0.4399 -1.4906 -1.0083
  948SOL    HW2 2844   0.008   1.189   1.886 -0.0871  0.0067  0.5201
  949SOL     OW 2845   0.378   0.977   2.258  0.0358  0.7433 -0.4143
  949SOL    HW1 2846   0.410   0.929   2.341  0.0575  2.2771 -0.3553
  949SOL    HW2 2847   0.400   0.926   2.171 -1.2289  0.7181  1.4777
  950SOL     OW 2848   1.106   0.620   1.281 -0.3360 -0.1145  0.7799
  950SOL    HW1 2849   1.013   0.645   1.320 -1.8929  0.1537  1.4331
  950SOL    HW2 2850   1.148   0.551   1.344 -2.7223 -0.1576  0.2741
  951SOL     OW 2851   0.906   2.037   2.063 -0.8814 -0.0967  0.3940
  951SOL    HW1 2852   0.984   2.072   2.005 -1.9914 -0.9172 -0.9781
  951SOL    HW2 2853   0.834   2.107   2.060  2.5674  2.0494  2.1428
  952SOL     OW 2854   0.575   1.943   2.782  0.0601  0.3330  0.0780
  952SOL    HW1 2855   0.658   1.948   2.843  1.0484  3.4117  0.0774
  952SOL    HW2 2856   0.577   1.854   2.731 -1.6911 -1.6383  1.3149
  953SOL     OW 2857   1.939   2.947   2.127 -0.1487  0.0039  0.7089
  953SOL    HW1 2858   1.964   2.982   2.221  1.2170  0.0542  0.5182
  953SOL    HW2 2859   1.944   3.021   2.054  0.4750  3.0685  0.9105
  954SOL     OW 2860   1.795   1.207   0.778 -0.1857  0.7711 -0.1637
  954SOL    HW1 2861   1.714   1.243   0.830  1.6793 -0.8145 -0.0078
  954SOL    HW2 2862   1.791   1.239   0.681 -0.5102 -1.5064 -1.7622
  955SOL     OW 2863   0.205   2.418   2.127  0.4377  0.5270  0.3743
  955SOL    HW1 2864   0.242   2.343   2.072  0.5203 -0.2405  2.2662
  955SOL    HW2 2865   0.151   2.478   2.068  0.5664  0.5378  0.5817
  956SOL     OW 2866   1.459   0.963   1.444  0.3361 -0.0134  0.2811
  956SOL    HW1 2867   1.439   0.874   1.401 -1.5123 -2.8662 -3.3384
  956SOL    HW2 2868   1.529   0.948   1.518 -0.1307 -3.9927  1.6460
  957SOL     OW 2869   1.906   1.578   2.534  0.0660  0.4773 -0.9274
  957SOL    HW1 2870   2.007   1.593   2.535 -0.4052 -1.0798 -0.5433
  957SOL    HW2 2871   1.865   1.625   2.455 -0.2871  1.0844 -0.7749
  958SOL     OW 2872   1.071   2.548   0.912 -0.7018 -0.7420  0.4645
  958SOL    HW1 2873   1.010   2.632   0.899 -1.4953  1.0463  1.9371
  958SOL    HW2 2874   1.058   2.511   1.010 -1.5964  1.3200  0.8394
  959SOL     OW 2875   1.603   1.771   2.559  0.0502 -0.1831 -0.6724
  959SOL    HW1 2876   1.570   1.675   2.551 -0.5492 -0.9056 -1.1977
  959SOL    HW2 2877   1.679   1.773   2.627  0.6434 -0.6837 -1.6370
  960SOL     OW 2878   0.429   0.419   0.103  0.3451 -0.5778  0.6121
  960SOL    HW1 2879   0.363   0.356   0.058 -0.9426  3.8177  1.9150
  960SOL    HW2 2880   0.487   0.372   0.168 -0.1012  0.9732  1.0232
  961SOL     OW 2881   0.490   0.597   2.180 -0.1482  0.4708  0.5553
  961SOL    HW1 2882   0.515   0.671   2.250 -1.6410  1.0062 -2.1757
  961SOL    HW2 2883   0.402   0.552   2.208  0.4594  1.8535  0.5033
  962SOL     OW 2884   0.833   1.618   2.864  0.0406  0.1787  0.0133
  962SOL    HW1 2885   0.913   1.593   2.923  0.3950  0.3643 -2.3323
  962SOL    HW2 2886   0.760   1.548   2.869 -0.9767 -0.6351 -0.6384
  963SOL     OW 2887   2.097   1.692   3.013  0.5554 -0.4932  0.1756
  963SOL    HW1 2888   2.056   1.772   2.967 -1.0351 -1.0793 -3.4911
  963SOL    HW2 2889   2.187   1.705   3.060  1.8862 -0.0871  1.1664
  964SOL     OW 2890   1.459   2.729   0.972 -0.8207  0.1132 -0.2995
  964SOL    HW1 2891   1.383   2.684   0.914  1.0623  0.5990  1.1638
  964SOL    HW2 2892   1.433   2.734   1.064  2.5245 -0.2840 -0.2530
  965SOL     OW 2893   0.790   2.335   1.192  0.1456  0.2366  0.3129
  965SOL    HW1 2894   0.740   2.350   1.278  1.5433  0.1188 -0.3667
  965SOL    HW2 2895   0.732   2.288   1.116 -0.6091 -3.5569 -0.5765
  966SOL     OW 2896   2.976   1.614   0.074 -0.0319 -0.3106 -0.1398
  966SOL    HW1 2897   2.919   1.608   3.052 -2.1198  2.5966 -3.4219
  966SOL    HW2 2898   2.944   1.547   0.140  2.7406  0.1399  2.3977
  967SOL     OW 2899   1.721   2.980   1.682  0.3149 -0.1835 -0.5756
  967SOL    HW1 2900   1.633   2.967   1.725  4.3001  3.1505 -3.7088
  967SOL    HW2 2901   1.789   3.033   1.733 -0.2811 -0.7259  1.5672
  968SOL     OW 2902   1.849   0.675   0.836  0.2378 -0.1800  0.4893
  968SOL    HW1 2903   1.852   0.733   0.755 -0.5658  0.9228 -0.5282
  968SOL    HW2 2904   1.914   0.712   0.908 -0.3492  2.6674  0.0900
  969SOL     OW 2905   0.358   1.775   1.926 -0.5246 -0.2465 -0.0065
  969SOL    HW1 2906   0.445   1.802   1.882  0.4328  1.8031 -1.5527
  969SOL    HW2 2907   0.300   1.854   1.940 -1.1541 -1.6747  1.0334
  970SOL     OW 2908   2.458   1.502   0.996  0.2610 -0.2519 -0.1179
  970SOL    HW1 2909   2.377   1.442   1.034 -1.6660  0.4590 -0.2740
  970SOL    HW2 2910   2.452   1.591   1.042  0.6470 -0.8742  1.3979
  971SOL     OW 2911   1.008   0.460   1.587  0.3778 -0.2639  0.2167
  971SOL    HW1 2912   0.933   0.446   1.513 -1.5153 -0.3894 -1.0386
  971SOL    HW2 2913   1.012   0.556   1.629 -3.6503 -2.0684 -0.5831
  972SOL     OW 2914   0.917   0.394   2.531  0.0629 -0.5082 -0.1834
  972SOL    HW1 2915   0.873   0.345   2.606  0.1569  1.0205 -1.8721
  972SOL    HW2 2916   0.852   0.395   2.450  0.5416 -2.4279 -0.8333
  973SOL     OW 2917   0.293   1.327   1.164  0.3946  0.5627 -0.0286
  973SOL    HW1 2918   0.323   1.375   1.250  0.6313  0.8092 -1.7182
  973SOL    HW2 2919   0.320   1.227   1.175  1.4702 -3.5335  0.6455
  974SOL     OW 2920   1.832   1.072   1.880 -0.1258 -0.0418  0.2070
  974SOL    HW1 2921   1.862   1.113   1.792 -1.5210  0.3641  0.7988
  974SOL    HW2 2922   1.730   1.054   1.876  0.4578  0.9447  2.1704
  975SOL     OW 2923   2.643   0.081   0.411  0.4737 -0.3663  0.4194
  975SOL    HW1 2924   2.577   0.014   0.363 -1.9529 -0.6241  0.1223
  975SOL    HW2 2925   2.740   0.053   0.407 -0.8499 -1.9185 -3.2859
  976SOL     OW 2926   0.246   1.627   1.727  0.3539 -0.1787 -0.7257
  976SOL    HW1 2927   0.276   1.660   1.817 -3.0409 -2.0188  0.8971
  976SOL    HW2 2928   0.183   1.694   1.680  0.8380  0.5395  0.3143
  977SOL     OW 2929   0.640   2.749   0.271 -0.5236  0.3385  0.2298
  977SOL    HW1 2930   0.620   2.776   0.175 -0.4843  2.8410 -1.2464
  977SOL    HW2 2931   0.740   2.744   0.275  0.2885 -2.0510 -0.2697
  978SOL     OW 2932   0.617   1.676   0.131  0.1931  0.3514  0.0317
  978SOL    HW1 2933   0.543   1.626   0.081 -1.5294  1.7404  1.7929
  978SOL    HW2 2934   0.699   1.617   0.123 -0.4342 -0.3925  0.1272
  979SOL     OW 2935   1.334   2.036   1.213  0.3188 -0.7305 -0.1147
  979SOL    HW1 2936   1.295   2.120   1.261  1.0013  1.1852 -1.9470
  979SOL    HW2 2937   1.438   2.054   1.208  1.2426 -1.7559 -2.8706
  980SOL     OW 2938   0.594   1.457   2.114  0.1294  0.3065  0.5655
  980SOL    HW1 2939   0.576   1.487   2.017 -0.0863  0.3706 -2.7091
  980SOL    HW2 2940   0.528   1.382   2.145 -1.2302 -1.0261  2.0420
  981SOL     OW 2941   3.001   1.397   0.277 -0.9592  0.0082 -0.4295
  981SOL    HW1 2942   0.008   1.459   0.320  1.2028  2.8022  1.2729
  981SOL    HW2 2943   2.907   1.414   0.317  1.7771  0.2513 -0.9647
  982SOL     OW 2944   2.374   2.472   2.812  0.2531 -0.0769  0.0417
  982SOL    HW1 2945   2.378   2.524   2.726 -1.6316  0.1366  0.6389
  982SOL    HW2 2946   2.436   2.499   2.888 -2.2581 -1.3015  0.9729
  983SOL     OW 2947   1.937   0.595   1.492  0.3260 -0.5923 -0.3253
  983SOL    HW1 2948   1.863   0.586   1.419 -0.9166  1.4666 -0.3653
  983SOL    HW2 2949   2.010   0.530   1.465  0.6864  0.6507  0.6597
  984SOL     OW 2950   0.869   3.006   2.522  0.2709 -0.5436 -0.3249
  984SOL    HW1 2951   0.922   3.049   2.601 -0.8789  1.0879  0.8289
  984SOL    HW2 2952   0.913   2.916   2.495  3.5321  0.7089  0.2267
  985SOL     OW 2953   1.681   1.983   1.919 -0.1747 -0.2321 -0.4247
  985SOL    HW1 2954   1.635   1.920   1.985 -0.6886  1.3239  2.0279
  985SOL    HW2 2955   1.756   2.041   1.953  1.2861  2.6369  1.2139
  986SOL     OW 2956   2.007   2.983   2.399 -0.1408  0.6087 -0.1163
  986SOL    HW1 2957   1.972   2.889   2.416  1.9152 -2.2579 -1.4931
  986SOL    HW2 2958   2.093   3.004   2.452 -0.1829  0.1830  0.9746
  987SOL     OW 2959   2.661   0.203   2.186 -0.3446 -0.0788  0.2410
  987SOL    HW1 2960   2.748   0.178   2.141  0.1158 -0.6933 -0.8194
  987SOL    HW2 2961   2.636   0.302   2.187  0.1931 -2.4796  2.2911
  988SOL     OW 2962   2.542   0.449   2.241  0.0593 -0.9244 -0.9181
  988SOL    HW1 2963   2.541   0.453   2.340  0.8005  0.0936 -1.2252
  988SOL    HW2 2964   2.480   0.520   2.200  0.5220  3.7281 -2.8575
  989SOL     OW 2965   2.241   2.428   2.490  0.4253  0.2609 -0.0781
  989SOL    HW1 2966   2.261   2.443   2.391  0.2684 -2.3973 -0.6353
  989SOL    HW2 2967   2.293   2.350   2.528 -1.3792  1.5363 -0.7516
  990SOL     OW 2968   0.345   1.146   2.950  0.2082 -0.1440  0.5488
  990SOL    HW1 2969   0.334   1.084   3.030  1.1175  0.1854 -0.2567
  990SOL    HW2 2970   0.445   1.165   2.942 -0.5731 -0.8514 -0.9176
  991SOL     OW 2971   0.684   0.965   2.461 -0.3293 -0.5926  0.3611
  991SOL    HW1 2972   0.627   0.883   2.449 -0.2936  2.2090 -0.0475
  991SOL    HW2 2973   0.770   0.951   2.522  1.0677 -1.0509  0.6877
  992SOL     OW 2974   3.006   1.786   1.887 -0.3656 -0.3304 -0.0547
  992SOL    HW1 2975   0.012   1.865   1.899  1.2734 -1.4107  1.9128
  992SOL    HW2 2976   2.941   1.774   1.966 -3.0872 -0.2606  2.8685
  993SOL     OW 2977   0.787   0.292   0.697 -0.0231 -0.2571  0.1733
  993SOL    HW1 2978   0.847   0.359   0.642 -1.1523  2.4119 -0.1406
  993SOL    HW2 2979   0.816   0.198   0.675 -0.0997 -0.3896 -0.1355
  994SOL     OW 2980   0.323   2.098   1.498 -0.8490  0.1381 -0.0396
  994SOL    HW1 2981   0.410   2.050   1.527 -1.8972 -2.1503  0.8068
  994SOL    HW2 2982   0.325   2.103   1.394  0.7112  0.1851 -0.5057
  995SOL     OW 2983   2.150   1.692   2.552 -0.1582 -0.0347  0.5348
  995SOL    HW1 2984   2.217   1.634   2.605  1.3526 -3.3777 -1.3840
  995SOL    HW2 2985   2.157   1.795   2.564  0.3968 -0.1459  0.6608
  996SOL     OW 2986   1.818   1.507   2.862 -0.4438  0.5572 -0.0284
  996SOL    HW1 2987   1.849   1.504   2.962 -0.1370  0.2718  1.5972
  996SOL    HW2 2988   1.743   1.440   2.855 -0.7389 -0.0369 -0.0798
  997SOL     OW 2989   1.727   1.347   1.828  0.4370  0.1029  0.5421
  997SOL    HW1 2990   1.774   1.268   1.865 -0.4510  0.2604  0.1742
  997SOL    HW2 2991   1.691   1.403   1.901 -0.7069  0.5701  0.8548
  998SOL     OW 2992   2.259   1.963   0.943 -0.1709  0.0134  0.0024
  998SOL    HW1 2993   2.168   1.980   0.978  0.6101  0.4706 -0.3310
  998SOL    HW2 2994   2.260   1.869   0.898 -0.3783 -1.2278  2.3503
  999SOL     OW 2995   2.266   2.374   0.084 -0.0091  0.7211 -0.3257
  999SOL    HW1 2996   2.227   2.457   0.123 -1.7858 -2.7439 -2.9164
  999SOL    HW2 2997   2.355   2.351   0.127  1.8626  0.5721  1.9193
 1000SOL     OW 2998   0.655   3.054   2.362  0.3656 -0.3655 -0.4009
 1000SOL    HW1 2999   0.592   0.068   2.386  1.6217 -0.9927  1.4484
 1000SOL    HW2 3000   0.731   3.050   2.431 -2.5838  3.0975  1.9141
   3.06151   3.06151   3.06151
