1000 SPC/Fw water molecules t= 190.00000 step= 190000
 3000
    1SOL     OW    1   2.680   0.019   1.096 -0.4655 -0.2371 -0.3046
    1SOL    HW1    2   2.613   0.088   1.127  1.3324 -0.0986  0.2083
    1SOL    HW2    3   2.707   0.037   1.001  0.1268  0.2773 -0.0236
    2SOL     OW    4   1.792   1.649   2.165  0.1647  0.3660  0.2971
    2SOL    HW1    5   1.853   1.579   2.202 -0.4972  2.1193 -1.7664
    2SOL    HW2    6   1.748   1.704   2.241 -0.4681  0.6575 -0.6769
    3SOL     OW    7   1.855   2.390   2.142 -0.0223 -0.4378 -0.6123
    3SOL    HW1    8   1.916   2.474   2.148  0.4370  3.6135  0.3684
    3SOL    HW2    9   1.908   2.308   2.154  0.2135  1.0812 -0.4472
    4SOL     OW   10   1.831   2.062   2.134 -0.0737 -0.3435 -0.1386
    4SOL    HW1   11   1.909   2.119   2.170  1.3138 -1.5411  1.1077
    4SOL    HW2   12   1.796   2.102   2.049 -0.0858 -1.0942  2.2927
    5SOL     OW   13   1.149   0.572   1.827 -0.1232  0.5754 -0.4945
    5SOL    HW1   14   1.190   0.653   1.867 -0.9852 -1.5659 -0.2314
    5SOL    HW2   15   1.155   0.572   1.726  1.2076  0.7863  0.1955
    6SOL     OW   16   2.785   0.716   3.011  0.1182 -0.0538  0.1472
    6SOL    HW1   17   2.853   0.639   3.007  1.3962 -1.0571 -1.0246
    6SOL    HW2   18   2.691   0.672   3.029  0.8664 -0.1743 -0.6049
    7SOL     OW   19   1.169   0.976   1.690 -0.0244 -0.2612  0.4462
    7SOL    HW1   20   1.069   0.965   1.673  2.6812  0.4030  1.9770
    7SOL    HW2   21   1.207   1.054   1.636 -0.9586  1.1114 -0.8810
    8SOL     OW   22   1.263   0.287   0.955  0.1208  0.0250 -0.7019
    8SOL    HW1   23   1.299   0.224   0.883 -4.0184  0.2060 -0.0716
    8SOL    HW2   24   1.332   0.348   0.997  0.0931  0.4712  0.6305
    9SOL     OW   25   0.951   1.029   2.863 -0.3740  0.5805  0.4761
    9SOL    HW1   26   0.987   1.127   2.864  0.2701  0.2764  0.5196
    9SOL    HW2   27   0.922   1.004   2.958  0.3394  0.3359  1.4152
   10SOL     OW   28   0.166   2.769   0.469  1.0151 -0.6543  0.3072
   10SOL    HW1   29   0.094   2.836   0.437 -0.0791 -0.6945  0.9281
   10SOL    HW2   30   0.203   2.712   0.388  3.4208 -0.7923 -3.8445
   11SOL     OW   31   0.655   1.583   3.104 -0.3792  0.3274 -0.0458
   11SOL    HW1   32   0.685   1.481   3.094  1.0890 -2.8978 -0.8679
   11SOL    HW2   33   0.553   1.581   3.097  1.5602  0.2485  2.4573
   12SOL     OW   34   0.502   0.244   1.488 -0.3216  0.5201 -0.3048
   12SOL    HW1   35   0.529   0.152   1.527  0.2054 -1.1169 -0.7475
   12SOL    HW2   36   0.516   0.312   1.559  1.0783 -1.4342 -0.3447
   13SOL     OW   37   0.845   2.922   0.518  0.4587  0.3703 -0.3244
   13SOL    HW1   38   0.926   2.904   0.460  0.3328  1.5938  0.2857
   13SOL    HW2   39   0.827   2.854   0.591  1.7925  1.3457 -1.5995
   14SOL     OW   40   1.329   2.186   1.289  0.0646 -0.0893 -0.3573
   14SOL    HW1   41   1.260   2.259   1.274 -4.0757  2.1893 -1.5669
   14SOL    HW2   42   1.283   2.093   1.286 -0.7635 -0.9891  0.9165
   15SOL     OW   43   2.791   0.739   2.124  0.3392 -0.1159  0.5286
   15SOL    HW1   44   2.811   0.814   2.190 -2.7927 -1.7227  0.1310
   15SOL    HW2   45   2.742   0.672   2.179  2.0928 -1.0261 -0.6759
   16SOL     OW   46   1.090   2.851   2.859  0.4357 -0.0614  0.2105
   16SOL    HW1   47   1.099   2.835   2.758 -0.0467  0.7783 -0.9305
   16SOL    HW2   48   1.129   2.771   2.908 -2.4487 -1.1629 -0.6748
   17SOL     OW   49   0.965   0.062   1.327 -0.0858  0.2558  0.2703
   17SOL    HW1   50   0.870   0.068   1.292  1.6037  0.1739 -2.8125
   17SOL    HW2   51   1.026   0.128   1.278 -0.0933  0.5430 -0.0222
   18SOL     OW   52   1.051   0.696   0.394 -0.0145  0.1224  0.3842
   18SOL    HW1   53   0.949   0.708   0.372 -2.1280  2.8022 -0.0551
   18SOL    HW2   54   1.077   0.602   0.360 -2.7414 -2.8852 -1.2765
   19SOL     OW   55   2.040   1.399   3.028  0.2878  0.6066  0.3701
   19SOL    HW1   56   2.090   1.485   3.031 -0.0726  1.2930 -1.2825
   19SOL    HW2   57   2.086   1.325   3.084 -1.2585  2.2273 -2.2184
   20SOL     OW   58   1.698   1.644   1.708 -0.2646 -0.2262  0.1626
   20SOL    HW1   59   1.779   1.652   1.772  3.6837 -0.9748  0.9381
   20SOL    HW2   60   1.612   1.619   1.757 -1.2087 -1.6307 -1.6109
   21SOL     OW   61   0.746   1.306   3.102 -0.0833  0.4332  0.6096
   21SOL    HW1   62   0.737   1.208   0.018 -0.9683 -3.6331 -0.4971
   21SOL    HW2   63   0.841   1.340   3.104 -0.8219  2.8086 -2.5489
   22SOL     OW   64   2.257   0.008   1.407  0.1561  0.0395 -0.0497
   22SOL    HW1   65   2.261   0.085   1.469 -1.8273 -1.1866 -0.7281
   22SOL    HW2   66   2.162   3.085   1.404 -1.1255 -0.1867 -0.2657
   23SOL     OW   67   0.073   1.169   1.554  0.7650 -0.3490 -0.0297
   23SOL    HW1   68   0.143   1.108   1.595 -0.2850 -0.8189 -0.6327
   23SOL    HW2   69   0.111   1.220   1.477 -4.8292  1.8872  1.0395
   24SOL     OW   70   2.585   2.132   1.245  0.0807  0.7017  0.5712
   24SOL    HW1   71   2.563   2.151   1.144 -0.3842  1.2710 -0.5714
   24SOL    HW2   72   2.508   2.084   1.293 -2.4890 -0.7208  2.3358
   25SOL     OW   73   1.687   2.848   2.594 -0.4794  0.4123  0.0243
   25SOL    HW1   74   1.668   2.876   2.492 -3.1596  0.7498  1.1445
   25SOL    HW2   75   1.598   2.834   2.639  0.5161 -0.2485 -1.2955
   26SOL     OW   76   1.222   2.660   2.984  0.2696  0.4083 -0.2659
   26SOL    HW1   77   1.291   2.595   2.949 -1.9856 -0.8916  1.9025
   26SOL    HW2   78   1.158   2.611   3.050  1.2650 -0.7557  3.0199
   27SOL     OW   79   0.656   2.246   2.807  0.2696  0.0783  0.3080
   27SOL    HW1   80   0.641   2.144   2.791  2.1668 -1.4389 -0.3708
   27SOL    HW2   81   0.656   2.294   2.717 -1.7480  2.4373 -0.2342
   28SOL     OW   82   0.090   1.502   1.313  0.0212  0.6335 -0.2882
   28SOL    HW1   83   3.103   1.524   1.345 -3.6771  0.8543  2.7408
   28SOL    HW2   84   0.148   1.586   1.300 -0.3090 -0.4377 -0.0462
   29SOL     OW   85   2.469   1.970   2.180  0.1985 -0.2009 -0.3997
   29SOL    HW1   86   2.506   1.905   2.250 -0.2256  0.5781  0.4863
   29SOL    HW2   87   2.526   2.053   2.186  0.4029 -2.8533 -1.8338
   30SOL     OW   88   1.258   2.822   0.787  0.4221 -0.7701  0.0252
   30SOL    HW1   89   1.265   2.725   0.817  0.2981  0.7688  2.6531
   30SOL    HW2   90   1.220   2.879   0.864  0.5117 -1.2203  0.2185
   31SOL     OW   91   2.996   2.280   1.808 -0.2418 -0.0785  0.0482
   31SOL    HW1   92   3.071   2.342   1.769  2.7332  1.6668 -0.5597
   31SOL    HW2   93   3.036   2.191   1.833 -2.1217  2.5985  2.5179
   32SOL     OW   94   1.292   0.803   1.882  0.5295  0.5399  0.0589
   32SOL    HW1   95   1.273   0.868   1.806 -0.7259  2.5402 -0.2141
   32SOL    HW2   96   1.258   0.841   1.973 -0.8737 -0.5517  1.3665
   33SOL     OW   97   0.224   2.766   2.397  0.5431 -0.1167  0.3336
   33SOL    HW1   98   0.167   2.690   2.438 -1.8050 -0.7237  1.4610
   33SOL    HW2   99   0.175   2.826   2.327  1.8984  0.3778 -1.2499
   34SOL     OW  100   2.107   0.136   0.798  0.5279  0.9889 -0.5099
   34SOL    HW1  101   2.136   0.141   0.700 -0.2658 -3.1273  0.6991
   34SOL    HW2  102   2.093   0.036   0.805  1.1078  2.0553 -2.5420
   35SOL     OW  103   2.252   0.746   1.393  0.0350  0.0583  0.5109
   35SOL    HW1  104   2.187   0.797   1.331 -2.2921 -1.1143 -0.0794
   35SOL    HW2  105   2.334   0.797   1.425 -1.1255 -0.6863 -0.5963
   36SOL     OW  106   2.195   2.502   2.119 -0.5294  0.0866 -0.2772
   36SOL    HW1  107   2.183   2.417   2.063 -1.6286  0.1889  1.8849
   36SOL    HW2  108   2.115   2.562   2.129 -2.3384 -1.0068  1.3260
   37SOL     OW  109   0.879   2.476   2.115  0.1484  0.4735 -0.4011
   37SOL    HW1  110   0.891   2.443   2.018  0.8932 -2.9509 -1.0513
   37SOL    HW2  111   0.905   2.404   2.175 -1.4155 -0.0027 -0.8090
   38SOL     OW  112   2.601   0.254   2.908  0.2386 -0.1486  0.3622
   38SOL    HW1  113   2.696   0.249   2.946 -0.7216  0.4422  3.1823
   38SOL    HW2  114   2.538   0.305   2.967  2.5568 -0.5170 -0.9349
   39SOL     OW  115   1.875   1.659   1.914  0.0309 -0.0976 -0.3759
   39SOL    HW1  116   1.831   1.665   2.007  0.6759  1.5841  0.2363
   39SOL    HW2  117   1.972   1.631   1.916 -0.2444  1.4502 -1.2782
   40SOL     OW  118   0.167   0.034   2.576  0.1250 -0.2824  0.1535
   40SOL    HW1  119   0.072   0.010   2.545 -2.8137  1.4821  1.7697
   40SOL    HW2  120   0.234   3.067   2.547  1.0463 -1.8113  0.4483
   41SOL     OW  121   1.677   0.624   1.147 -0.0805  0.5520 -0.2999
   41SOL    HW1  122   1.763   0.577   1.173  0.5898 -1.4937  1.2783
   41SOL    HW2  123   1.654   0.613   1.045 -2.4516  1.0143 -1.6634
   42SOL     OW  124   0.715   0.194   1.328  0.6457  0.3573 -0.2246
   42SOL    HW1  125   0.792   0.222   1.395  1.9435 -0.5521 -1.1982
   42SOL    HW2  126   0.622   0.202   1.371 -3.7182 -0.5595  1.3812
   43SOL     OW  127   2.524   1.116   2.134  0.3447  0.3284  0.2530
   43SOL    HW1  128   2.501   1.089   2.039  0.5190 -2.9114 -1.0609
   43SOL    HW2  129   2.622   1.121   2.144 -0.9705  2.3788  0.1143
   44SOL     OW  130   0.006   2.946   0.343 -0.4341 -0.7607  0.1871
   44SOL    HW1  131   3.038   2.970   0.400 -1.1465 -0.1875 -0.7154
   44SOL    HW2  132   3.099   2.987   0.254  0.2408  0.3817 -1.0100
   45SOL     OW  133   0.068   2.529   2.037 -0.2653 -0.2766 -0.1493
   45SOL    HW1  134   0.117   2.618   2.040 -1.1269  0.4265 -1.9460
   45SOL    HW2  135   0.033   2.517   1.943  0.6932  2.2312 -2.6393
   46SOL     OW  136   2.243   2.289   1.954 -0.1006  0.2649 -0.2008
   46SOL    HW1  137   2.237   2.192   1.991 -1.6340 -1.4261  0.5857
   46SOL    HW2  138   2.338   2.294   1.916 -1.2921  0.9927 -0.9088
   47SOL     OW  139   1.774   2.206   1.338  0.4048  0.3374  0.7234
   47SOL    HW1  140   1.698   2.193   1.271  1.7127 -1.4839 -0.3773
   47SOL    HW2  141   1.846   2.132   1.325 -1.5090  1.8285  0.1032
   48SOL     OW  142   0.698   1.790   0.475  0.0143  0.2380 -0.3084
   48SOL    HW1  143   0.730   1.783   0.382  1.1570  2.9321  1.7983
   48SOL    HW2  144   0.722   1.884   0.508 -0.2700 -1.8786  0.6367
   49SOL     OW  145   2.913   0.354   2.662 -0.4551 -0.4387 -0.4689
   49SOL    HW1  146   2.945   0.306   2.747  0.3963  0.1720  1.1592
   49SOL    HW2  147   2.824   0.393   2.686 -1.8775 -0.8444  1.1080
   50SOL     OW  148   2.160   0.787   0.594  0.4390  0.0328  0.1187
   50SOL    HW1  149   2.108   0.831   0.672 -1.6945  0.6265  0.0990
   50SOL    HW2  150   2.235   0.841   0.559 -2.8987  0.6207 -1.2800
   51SOL     OW  151   1.619   0.250   0.925  0.1728  0.6910 -0.0641
   51SOL    HW1  152   1.628   0.211   1.019 -1.2850  2.1805 -1.9156
   51SOL    HW2  153   1.551   0.203   0.872  1.7495 -0.3083  2.3856
   52SOL     OW  154   1.284   1.259   0.110  0.4419 -0.3713 -0.2626
   52SOL    HW1  155   1.306   1.160   0.104  0.5977  1.0310  0.6256
   52SOL    HW2  156   1.376   1.310   0.104 -0.6451 -1.1379 -1.7304
   53SOL     OW  157   0.830   1.657   2.585 -0.7895 -0.0688  0.0919
   53SOL    HW1  158   0.866   1.741   2.637 -0.7152 -0.2053 -1.4043
   53SOL    HW2  159   0.729   1.668   2.567  0.6016 -2.8321  1.4592
   54SOL     OW  160   2.192   0.399   1.157  0.5436  0.5774  0.0601
   54SOL    HW1  161   2.263   0.410   1.231 -0.9731 -0.1177  2.0986
   54SOL    HW2  162   2.150   0.305   1.165 -0.4890 -2.1592  1.9151
   55SOL     OW  163   2.452   2.825   0.789  0.3454  0.5384 -0.5728
   55SOL    HW1  164   2.466   2.923   0.768 -0.9027  0.5022  0.7653
   55SOL    HW2  165   2.349   2.805   0.807 -2.9786 -3.1353  2.0664
   56SOL     OW  166   0.584   3.073   1.608 -0.0427 -0.2304 -0.3066
   56SOL    HW1  167   0.522   3.077   1.690 -1.0073 -1.7031 -0.7919
   56SOL    HW2  168   0.674   3.030   1.632 -1.2987 -2.5415  0.2387
   57SOL     OW  169   1.555   1.119   0.522 -0.0620  0.4798  0.3945
   57SOL    HW1  170   1.474   1.062   0.499  0.0304  1.8907 -1.8752
   57SOL    HW2  171   1.571   1.195   0.451 -2.1928  2.4419 -2.3056
   58SOL     OW  172   0.122   0.963   2.319 -0.4441  0.2843  0.0365
   58SOL    HW1  173   0.101   1.038   2.384 -0.3935  1.0139 -0.1511
   58SOL    HW2  174   0.043   0.895   2.317  1.4204  0.8262 -1.1163
   59SOL     OW  175   0.895   2.698   2.446 -0.6430 -0.2145 -0.2736
   59SOL    HW1  176   0.859   2.636   2.517  1.3454 -0.3503  1.1064
   59SOL    HW2  177   0.851   2.794   2.445 -0.6380  1.6392 -0.5399
   60SOL     OW  178   2.570   2.667   0.994 -0.3153  0.1495 -0.2226
   60SOL    HW1  179   2.549   2.727   0.910 -0.7755  3.6729  0.6884
   60SOL    HW2  180   2.566   2.734   1.076  1.3289 -0.1941  3.2825
   61SOL     OW  181   1.117   2.288   0.621 -0.0657  0.3519 -0.1217
   61SOL    HW1  182   1.067   2.377   0.607 -1.2887 -0.4484  0.6973
   61SOL    HW2  183   1.053   2.226   0.675 -0.4019  3.5220  0.8143
   62SOL     OW  184   1.988   2.378   2.761 -0.4479 -0.2706 -0.0810
   62SOL    HW1  185   2.085   2.359   2.787 -2.1301 -2.0141 -0.3564
   62SOL    HW2  186   1.989   2.451   2.688  2.3954  2.4154 -0.3899
   63SOL     OW  187   2.116   0.818   2.883  0.0547 -0.0480  0.5454
   63SOL    HW1  188   2.089   0.815   2.977  1.2701  0.0693 -3.6353
   63SOL    HW2  189   2.108   0.725   2.836 -2.2337 -0.1978 -1.1692
   64SOL     OW  190   0.911   0.540   0.064  0.8722 -0.2177 -0.4254
   64SOL    HW1  191   0.872   0.613   0.124  0.9271  0.4881 -0.7736
   64SOL    HW2  192   0.999   0.571   0.023  2.7612 -2.2882 -1.5112
   65SOL     OW  193   1.181   2.185   0.381 -0.4693 -0.5115  0.3355
   65SOL    HW1  194   1.195   2.266   0.316  1.3780 -2.5501 -1.3529
   65SOL    HW2  195   1.151   2.216   0.475  0.2984 -0.8631  1.7539
   66SOL     OW  196   0.664   1.307   1.732  0.0413 -0.1416  0.5075
   66SOL    HW1  197   0.718   1.282   1.816  2.2332  1.2822 -0.7444
   66SOL    HW2  198   0.705   1.391   1.690 -0.5399  4.1912 -0.7474
   67SOL     OW  199   2.145   2.729   2.464 -0.0000 -0.3884  0.0771
   67SOL    HW1  200   2.095   2.773   2.541  0.1098  1.0110  0.2977
   67SOL    HW2  201   2.167   2.805   2.393 -0.1280 -0.5306 -2.4087
   68SOL     OW  202   0.630   1.573   1.404 -0.6550  0.5045 -0.0709
   68SOL    HW1  203   0.621   1.503   1.331 -1.3143  0.4567 -0.3042
   68SOL    HW2  204   0.702   1.546   1.478  1.7440 -0.3623  1.0185
   69SOL     OW  205   1.245   2.403   0.233 -0.6276 -0.5314 -0.0383
   69SOL    HW1  206   1.198   2.480   0.286 -0.2695  0.0657  1.7317
   69SOL    HW2  207   1.319   2.438   0.170 -2.6915  0.9068  1.4087
   70SOL     OW  208   2.752   1.192   2.807  0.1876 -0.3347 -0.4302
   70SOL    HW1  209   2.819   1.218   2.734 -0.3649  1.1377 -1.5700
   70SOL    HW2  210   2.663   1.162   2.767  1.9700  1.8990  1.3124
   71SOL     OW  211   2.858   1.548   2.769 -0.6094  0.1575 -0.5802
   71SOL    HW1  212   2.951   1.528   2.730  0.8307  1.3992 -2.6393
   71SOL    HW2  213   2.824   1.626   2.723 -0.4833 -0.8951 -0.9814
   72SOL     OW  214   2.838   2.465   0.192 -0.0403  0.0840  0.4815
   72SOL    HW1  215   2.903   2.409   0.134  2.2520  0.7010  2.4251
   72SOL    HW2  216   2.888   2.481   0.284  2.6252  1.6077  2.6835
   73SOL     OW  217   1.004   1.550   0.246 -0.4771  0.4785  0.0001
   73SOL    HW1  218   0.991   1.486   0.327  0.2525 -0.0947  2.0680
   73SOL    HW2  219   1.088   1.609   0.263  1.7070  0.4637  2.0577
   74SOL     OW  220   3.017   1.219   2.944 -0.1156 -0.7839  0.3569
   74SOL    HW1  221   2.922   1.234   2.906 -2.5674 -2.3372  1.2825
   74SOL    HW2  222   3.091   1.236   2.876  1.0725  0.1647  1.7802
   75SOL     OW  223   1.715   1.376   1.948  1.0304  0.2438  0.6434
   75SOL    HW1  224   1.738   1.363   2.047  1.3353  1.5534 -2.4733
   75SOL    HW2  225   1.639   1.446   1.935 -1.5087  0.0562  1.6162
   76SOL     OW  226   2.003   2.437   1.517 -0.3742  0.5286  0.4190
   76SOL    HW1  227   2.059   2.362   1.556  0.9478 -0.0984 -0.2965
   76SOL    HW2  228   1.981   2.425   1.421  0.5126 -1.3295  3.1760
   77SOL     OW  229   2.684   0.834   1.275  0.3325  0.2224  0.0538
   77SOL    HW1  230   2.740   0.755   1.310  0.7408  3.6181 -1.2570
   77SOL    HW2  231   2.648   0.813   1.184  1.8222 -2.5278  2.8827
   78SOL     OW  232   1.428   0.794   0.250  0.1323  0.1619  0.0725
   78SOL    HW1  233   1.390   0.852   0.321 -0.1750 -0.0169 -0.6075
   78SOL    HW2  234   1.510   0.745   0.286 -1.3537  0.0611 -0.4632
   79SOL     OW  235   0.471   1.656   1.692  0.7610  0.0008  0.5562
   79SOL    HW1  236   0.572   1.659   1.688  0.8131 -3.2811 -0.9672
   79SOL    HW2  237   0.435   1.702   1.606  1.8254  2.1945 -0.4144
   80SOL     OW  238   1.659   1.206   1.529  0.1567  0.1410  0.4982
   80SOL    HW1  239   1.676   1.114   1.568  1.1582  3.0697  1.6038
   80SOL    HW2  240   1.624   1.195   1.433 -1.7398  0.0291 -0.6360
   81SOL     OW  241   0.735   2.956   1.062  0.1656  0.4951 -0.8702
   81SOL    HW1  242   0.648   2.957   1.008 -2.6840  1.5634 -0.5667
   81SOL    HW2  243   0.758   3.049   1.093 -1.5227  0.3387  1.9896
   82SOL     OW  244   1.696   2.652   1.547 -0.4138 -0.1092 -0.3981
   82SOL    HW1  245   1.724   2.642   1.451 -0.1847  1.4736  1.0801
   82SOL    HW2  246   1.782   2.683   1.595  0.0724  1.2462  1.5486
   83SOL     OW  247   0.729   2.342   1.080  0.0192  0.9771 -0.2383
   83SOL    HW1  248   0.639   2.376   1.116  0.9139  0.4880  1.4036
   83SOL    HW2  249   0.751   2.244   1.107  2.3220  0.1571  2.2089
   84SOL     OW  250   0.332   1.300   2.530 -0.1226 -0.7735 -0.3391
   84SOL    HW1  251   0.236   1.273   2.499  1.1403  1.4071  0.5988
   84SOL    HW2  252   0.394   1.223   2.525 -0.8641  2.1872  0.3555
   85SOL     OW  253   0.105   2.402   1.370  0.4188 -0.7685 -0.2259
   85SOL    HW1  254   0.016   2.419   1.411  3.2933 -1.2359  2.0985
   85SOL    HW2  255   0.135   2.487   1.324  1.9386 -0.1366  2.7285
   86SOL     OW  256   2.712   2.312   1.432 -0.4616 -0.2160 -0.5177
   86SOL    HW1  257   2.716   2.407   1.389  0.1714  0.8991 -1.8284
   86SOL    HW2  258   2.666   2.246   1.371  1.6011 -1.9026  1.6902
   87SOL     OW  259   2.598   2.095   3.031 -0.0985  0.0477 -0.1952
   87SOL    HW1  260   2.598   2.151   0.009  0.7316  0.0981  1.2958
   87SOL    HW2  261   2.609   1.993   3.048  0.6938  0.6162 -2.0427
   88SOL     OW  262   0.743   1.784   1.220  0.0703  0.2931  0.6182
   88SOL    HW1  263   0.787   1.852   1.282  1.3831  0.9980  0.1858
   88SOL    HW2  264   0.675   1.737   1.276  1.3121  0.3808  0.5004
   89SOL     OW  265   1.158   0.001   1.777 -0.1496  0.5418  0.2311
   89SOL    HW1  266   1.202   3.026   1.735  0.7285  0.5492  0.1205
   89SOL    HW2  267   1.153   0.073   1.706  2.1306 -1.7730 -0.7876
   90SOL     OW  268   0.013   1.813   1.451  0.6551  0.2171  0.4809
   90SOL    HW1  269   3.024   1.799   1.469  4.1669  1.4864  1.5488
   90SOL    HW2  270   0.045   1.900   1.493 -0.4963 -0.9754 -1.8932
   91SOL     OW  271   1.160   1.966   0.552  0.2374  0.5437 -0.5319
   91SOL    HW1  272   1.107   1.997   0.630 -0.0107  0.3510 -0.9515
   91SOL    HW2  273   1.172   2.039   0.482  0.6625 -1.1393  0.2625
   92SOL     OW  274   2.481   2.958   1.432 -0.0799  0.1525 -0.2565
   92SOL    HW1  275   2.393   3.007   1.409 -1.9252  0.5315 -3.3078
   92SOL    HW2  276   2.528   3.002   1.509 -0.1403 -0.7139 -1.5422
   93SOL     OW  277   2.635   1.427   2.884 -0.2549 -0.0446 -0.2359
   93SOL    HW1  278   2.666   1.344   2.836 -1.7116  1.2039 -0.7668
   93SOL    HW2  279   2.700   1.505   2.857  0.6923 -0.2251  2.7253
   94SOL     OW  280   2.690   2.569   2.441 -0.1327 -0.2104 -0.1972
   94SOL    HW1  281   2.730   2.476   2.438 -2.1576 -1.3961 -0.8142
   94SOL    HW2  282   2.592   2.574   2.477  1.3338 -1.1206 -2.7291
   95SOL     OW  283   1.821   0.317   1.686 -0.3788  0.2486  0.1296
   95SOL    HW1  284   1.776   0.321   1.591  3.3313 -0.4740 -1.6550
   95SOL    HW2  285   1.832   0.216   1.712  1.5748 -2.2051 -0.2190
   96SOL     OW  286   2.967   0.040   1.664 -0.0294 -0.2626  0.1483
   96SOL    HW1  287   3.042   0.050   1.594  2.1168 -0.8305 -0.7642
   96SOL    HW2  288   2.992   3.073   1.724  3.9346  1.5099  1.4442
   97SOL     OW  289   2.157   0.327   1.573 -0.3622 -0.1956  0.1833
   97SOL    HW1  290   2.250   0.309   1.539 -1.5715 -1.2758  0.4995
   97SOL    HW2  291   2.158   0.319   1.672  0.3122 -1.6987  0.1697
   98SOL     OW  292   1.366   2.219   1.596 -0.0074 -0.9153 -0.3648
   98SOL    HW1  293   1.454   2.243   1.641  0.1442  1.4172  0.1718
   98SOL    HW2  294   1.373   2.244   1.501  2.1956  3.0423  1.6881
   99SOL     OW  295   3.043   2.907   1.861  0.6345  0.1561 -0.1071
   99SOL    HW1  296   0.034   2.923   1.848  0.2205 -1.4870  2.6348
   99SOL    HW2  297   3.008   2.881   1.956 -2.1353  2.4043  0.1346
  100SOL     OW  298   0.031   1.566   2.267 -0.5881  0.3617 -0.3673
  100SOL    HW1  299   0.103   1.528   2.205  2.5246  1.1402  1.4614
  100SOL    HW2  300   0.080   1.626   2.334  0.3830 -0.8626 -0.4599
  101SOL     OW  301   1.961   0.735   0.435  0.7301  0.2165  0.0582
  101SOL    HW1  302   2.044   0.755   0.493 -1.7245 -1.4167 -0.2806
  101SOL    HW2  303   1.885   0.801   0.456  0.3418 -0.7205 -0.2895
  102SOL     OW  304   0.058   0.752   1.093  0.6485 -0.2053 -0.3570
  102SOL    HW1  305   3.067   0.740   1.113 -1.2957  2.0982 -0.5429
  102SOL    HW2  306   0.098   0.834   1.136  0.0682  1.1949 -3.3818
  103SOL     OW  307   2.478   0.666   2.754 -0.0066  0.3995  0.1373
  103SOL    HW1  308   2.451   0.710   2.666  0.1242  2.3460 -1.2549
  103SOL    HW2  309   2.451   0.731   2.828 -1.0519 -0.8357 -0.5172
  104SOL     OW  310   0.311   0.404   2.385 -0.1308  0.0435 -0.0860
  104SOL    HW1  311   0.408   0.395   2.369 -2.1431 -0.9978  0.2921
  104SOL    HW2  312   0.280   0.344   2.463  1.1176 -0.5195 -1.8972
  105SOL     OW  313   2.105   1.001   1.547  0.7745  0.1468  0.1445
  105SOL    HW1  314   2.091   0.922   1.614  0.1013 -1.7225  1.0125
  105SOL    HW2  315   2.073   1.087   1.590 -1.6452 -0.0717 -1.1377
  106SOL     OW  316   1.118   2.927   0.570  0.2288  0.5473 -0.3073
  106SOL    HW1  317   1.086   3.018   0.599 -1.1395 -0.9070 -1.3708
  106SOL    HW2  318   1.157   2.870   0.646 -2.2688 -1.4271  0.0171
  107SOL     OW  319   0.422   1.734   1.443 -1.2065  0.4288 -0.0727
  107SOL    HW1  320   0.358   1.730   1.364 -1.8873 -1.2752  1.1374
  107SOL    HW2  321   0.509   1.682   1.429  0.4389  0.3707  1.6595
  108SOL     OW  322   0.336   0.079   2.299  0.6020 -0.6524  0.5832
  108SOL    HW1  323   0.347   0.008   2.366 -0.5109  2.3416 -1.7328
  108SOL    HW2  324   0.365   0.170   2.334  2.5020  0.7562  0.6113
  109SOL     OW  325   2.165   0.129   0.523 -0.7135 -0.2556 -0.0026
  109SOL    HW1  326   2.171   0.039   0.480 -0.7898  1.1669  1.6017
  109SOL    HW2  327   2.196   0.208   0.468 -2.0360  0.9701 -0.6313
  110SOL     OW  328   0.355   2.176   2.520  0.0649  0.0640 -0.2556
  110SOL    HW1  329   0.349   2.193   2.417  2.6743 -0.8209 -0.4788
  110SOL    HW2  330   0.382   2.261   2.565 -1.2036 -1.1927 -1.5327
  111SOL     OW  331   1.639   2.950   2.328  0.3331 -0.0183  0.0723
  111SOL    HW1  332   1.557   2.967   2.268  1.2031 -2.7274  1.1486
  111SOL    HW2  333   1.727   2.986   2.298 -1.1852 -0.5283 -1.2057
  112SOL     OW  334   1.873   2.173   2.914  0.3792  0.0844  0.0924
  112SOL    HW1  335   1.786   2.138   2.875 -0.6350  2.0511 -1.3803
  112SOL    HW2  336   1.922   2.225   2.842  1.3228  2.1889 -2.2546
  113SOL     OW  337   2.497   2.298   1.846 -0.3086 -0.8509 -0.2985
  113SOL    HW1  338   2.550   2.362   1.910  1.7466  1.4216  3.7214
  113SOL    HW2  339   2.561   2.245   1.791 -0.3570 -1.4882  1.5432
  114SOL     OW  340   2.421   0.957   1.022 -0.3841  0.4547 -0.0132
  114SOL    HW1  341   2.358   0.888   0.970 -0.6680 -2.1533 -3.1840
  114SOL    HW2  342   2.454   1.027   0.955 -2.5913  1.9581 -0.3256
  115SOL     OW  343   0.033   1.596   2.671  0.4088  0.0980 -0.1012
  115SOL    HW1  344   0.136   1.598   2.667  1.9550  3.8514  3.4187
  115SOL    HW2  345   0.005   1.687   2.713 -1.3019 -1.8011 -2.1999
  116SOL     OW  346   0.257   1.494   2.125  0.3648 -0.1113  0.1751
  116SOL    HW1  347   0.271   1.547   2.039  0.1962 -0.3406  2.8015
  116SOL    HW2  348   0.262   1.396   2.107 -2.0048  1.4402 -2.5957
  117SOL     OW  349   2.688   0.368   0.948  0.2947  0.3144 -0.0822
  117SOL    HW1  350   2.766   0.312   0.919 -1.4402  1.6451 -1.6884
  117SOL    HW2  351   2.617   0.373   0.873 -1.8376  1.1456  4.5180
  118SOL     OW  352   0.988   2.099   1.801  0.1318  0.0087  0.4263
  118SOL    HW1  353   0.891   2.079   1.773 -3.3659  2.1278  1.6242
  118SOL    HW2  354   1.029   2.138   1.721  0.2447  0.6917  1.5042
  119SOL     OW  355   1.493   2.097   0.027 -0.4794  0.1069 -0.3551
  119SOL    HW1  356   1.555   2.153   3.080  2.4284 -0.4037 -0.5445
  119SOL    HW2  357   1.397   2.133   0.027 -0.6101 -0.5399  0.1460
  120SOL     OW  358   0.378   1.627   2.325  0.1701  0.5321 -0.1865
  120SOL    HW1  359   0.299   1.685   2.362 -0.1302  1.5022 -0.4542
  120SOL    HW2  360   0.343   1.549   2.264 -2.1685 -2.9540 -2.4289
  121SOL     OW  361   2.241   2.702   1.142 -0.0699  0.1613 -0.4966
  121SOL    HW1  362   2.213   2.678   1.237  0.0240  1.8815  1.2244
  121SOL    HW2  363   2.288   2.796   1.139  1.8779  0.1920  0.5597
  122SOL     OW  364   2.232   2.033   2.072  0.1523 -0.8644  0.3191
  122SOL    HW1  365   2.170   1.958   2.084 -1.5048 -0.4876 -1.6868
  122SOL    HW2  366   2.316   2.026   2.130 -1.1965 -0.4067  1.2540
  123SOL     OW  367   2.929   0.219   0.852  0.3405 -0.0324 -0.2689
  123SOL    HW1  368   2.997   0.240   0.781 -1.3360 -0.0355  0.0430
  123SOL    HW2  369   2.879   0.130   0.835 -1.2112 -1.7707  3.4642
  124SOL     OW  370   1.808   0.451   2.593  0.3326  0.3616 -0.0216
  124SOL    HW1  371   1.803   0.543   2.543  2.2271  2.3833 -0.2917
  124SOL    HW2  372   1.749   0.382   2.545  0.1220 -1.4298  0.7383
  125SOL     OW  373   0.492   1.580   0.287  0.2579 -0.0557 -0.2327
  125SOL    HW1  374   0.494   1.676   0.251  1.3995 -0.0983  0.4023
  125SOL    HW2  375   0.485   1.508   0.216  0.1191 -0.0318  1.2786
  126SOL     OW  376   2.350   1.885   0.516 -0.2062 -0.3706  0.7655
  126SOL    HW1  377   2.353   1.807   0.448  0.4143 -2.0731 -2.0830
  126SOL    HW2  378   2.439   1.932   0.507 -0.7179  0.7215 -2.8461
  127SOL     OW  379   0.220   1.726   1.243 -0.4149 -1.0483 -0.2780
  127SOL    HW1  380   0.162   1.805   1.279 -0.9617  0.0402 -0.0349
  127SOL    HW2  381   0.225   1.726   1.143 -1.6211  1.3728 -0.2411
  128SOL     OW  382   0.724   0.503   2.967 -0.0754 -0.2348  0.1561
  128SOL    HW1  383   0.797   0.486   3.034  0.6838 -0.9747  1.1124
  128SOL    HW2  384   0.684   0.598   2.977 -1.7587 -1.2839  0.9772
  129SOL     OW  385   2.238   1.634   0.910 -0.0603  0.3128 -0.5436
  129SOL    HW1  386   2.171   1.658   0.981 -0.5069 -0.8629  0.6660
  129SOL    HW2  387   2.212   1.684   0.827  0.4137  0.7485 -0.2941
  130SOL     OW  388   2.515   1.785   1.208  0.3201  0.1867 -0.3644
  130SOL    HW1  389   2.494   1.701   1.159  0.7489  3.1980 -0.4950
  130SOL    HW2  390   2.469   1.788   1.303 -1.5975  0.9994  0.4501
  131SOL     OW  391   2.766   0.979   3.076 -0.5270  0.2995 -0.3397
  131SOL    HW1  392   2.782   0.882   3.056 -1.2274  2.0815  1.5326
  131SOL    HW2  393   2.797   1.037   2.997 -0.9283  0.6946  1.3467
  132SOL     OW  394   2.641   2.136   1.638 -0.1962  0.2633  0.4357
  132SOL    HW1  395   2.686   2.219   1.595  0.2789  2.7181 -1.0836
  132SOL    HW2  396   2.704   2.111   1.717  2.4341  2.9295 -1.0833
  133SOL     OW  397   0.421   1.120   0.786  0.1405 -0.2051 -0.1614
  133SOL    HW1  398   0.518   1.147   0.777 -3.5223  2.1868  0.3557
  133SOL    HW2  399   0.360   1.199   0.760  0.6340 -0.4347 -1.1445
  134SOL     OW  400   0.228   0.990   3.100 -0.3916 -0.1895 -0.1952
  134SOL    HW1  401   0.152   0.921   3.097  0.0104  1.0303 -0.0726
  134SOL    HW2  402   0.249   1.019   3.002  0.4271 -1.7308 -3.7843
  135SOL     OW  403   2.001   1.293   1.176  0.2359 -0.6502  0.2703
  135SOL    HW1  404   1.954   1.289   1.264 -0.2841  0.9719 -2.6492
  135SOL    HW2  405   1.981   1.208   1.129  0.1670 -2.7685 -3.0228
  136SOL     OW  406   1.931   1.198   0.900  0.4083  0.2057 -0.7722
  136SOL    HW1  407   1.977   1.115   0.942  0.8919 -0.9431 -2.6808
  136SOL    HW2  408   1.961   1.202   0.801 -0.3269  0.7985 -1.1910
  137SOL     OW  409   2.667   1.835   0.668 -0.3451  0.3816 -0.6869
  137SOL    HW1  410   2.656   1.916   0.609  0.0915  1.9521 -0.4653
  137SOL    HW2  411   2.763   1.799   0.677  1.0093 -1.7959  0.7860
  138SOL     OW  412   1.706   0.732   2.080  0.4117 -0.0878 -0.4248
  138SOL    HW1  413   1.661   0.641   2.067 -0.6211 -3.2160  1.4992
  138SOL    HW2  414   1.812   0.732   2.059  1.8055  0.3912 -1.6004
  139SOL     OW  415   2.207   2.975   0.005 -0.2209  0.6320 -0.0182
  139SOL    HW1  416   2.246   2.971   3.021  0.7740 -1.8504 -0.0830
  139SOL    HW2  417   2.134   3.051   0.008 -3.4711 -1.2356 -0.6098
  140SOL     OW  418   1.412   2.274   2.488  0.0342  0.2920 -0.4111
  140SOL    HW1  419   1.502   2.328   2.488  3.4194  0.0155 -1.0475
  140SOL    HW2  420   1.398   2.194   2.549 -2.9696 -0.6753 -0.4113
  141SOL     OW  421   1.720   1.619   1.437 -0.0327  0.3956  0.3600
  141SOL    HW1  422   1.718   1.625   1.542  0.2344 -2.7224  2.1322
  141SOL    HW2  423   1.626   1.619   1.397 -0.5406 -0.8589  3.0342
  142SOL     OW  424   2.831   0.276   0.067  0.1851  0.0924 -0.0517
  142SOL    HW1  425   2.906   0.274   0.141  2.5606 -0.9628  2.0025
  142SOL    HW2  426   2.737   0.276   0.111 -0.1175  2.6992 -0.6033
  143SOL     OW  427   0.209   2.450   2.767  0.1059  0.4073 -0.0679
  143SOL    HW1  428   0.236   2.410   2.858 -0.2250 -0.0168  0.8505
  143SOL    HW2  429   0.113   2.435   2.738  1.8411  0.7538 -1.0485
  144SOL     OW  430   0.636   2.800   1.797 -0.1756 -0.5247 -0.4235
  144SOL    HW1  431   0.628   2.750   1.707  1.2247  0.1857  2.2773
  144SOL    HW2  432   0.725   2.854   1.786 -0.1459  1.5339  1.8667
  145SOL     OW  433   2.310   1.201   0.369  0.0846  0.1726  0.4166
  145SOL    HW1  434   2.275   1.187   0.463 -2.9410 -0.8878 -1.4310
  145SOL    HW2  435   2.259   1.272   0.321  0.8843 -0.4695  0.9267
  146SOL     OW  436   2.734   3.054   2.697  0.4533  0.3897  0.0976
  146SOL    HW1  437   2.637   3.087   2.709 -1.3697  0.2610 -0.5846
  146SOL    HW2  438   2.785   3.057   2.783 -0.5704  0.7503  0.1796
  147SOL     OW  439   2.838   2.767   1.073  0.2834 -0.3634 -0.1768
  147SOL    HW1  440   2.805   2.809   1.161  0.5664  1.6951  1.3608
  147SOL    HW2  441   2.766   2.728   1.015  1.8938 -1.2001 -0.4230
  148SOL     OW  442   1.818   3.044   0.107  0.1196  1.0076 -0.3100
  148SOL    HW1  443   1.875   2.994   0.180  1.8921 -2.2349  1.7471
  148SOL    HW2  444   1.782   2.979   0.034  0.8483 -0.9178  0.8222
  149SOL     OW  445   1.146   0.453   2.691 -0.1476  0.1056 -0.1551
  149SOL    HW1  446   1.179   0.448   2.789  0.2329 -1.0997  2.8700
  149SOL    HW2  447   1.055   0.500   2.696 -0.0347  1.9437  2.9143
  150SOL     OW  448   0.958   2.517   0.586 -0.1375 -0.6410 -0.0907
  150SOL    HW1  449   0.876   2.454   0.597 -1.3373  1.1023  0.5015
  150SOL    HW2  450   0.937   2.613   0.623 -0.0877  0.0751  2.0033
  151SOL     OW  451   0.029   1.906   3.046 -0.2325 -0.6373 -0.1305
  151SOL    HW1  452   0.002   1.818   3.082 -0.2877  0.8164 -2.6733
  151SOL    HW2  453   0.036   1.894   2.943 -0.2590 -0.7836 -3.5447
  152SOL     OW  454   0.250   1.329   0.666 -0.4934  0.1236  0.0896
  152SOL    HW1  455   0.308   1.378   0.590  0.3393  0.0568 -1.6469
  152SOL    HW2  456   0.225   1.388   0.744 -1.4191 -1.4475 -0.2325
  153SOL     OW  457   2.465   2.610   0.186 -0.3288  0.2114 -0.5601
  153SOL    HW1  458   2.507   2.558   0.270  1.1346 -1.2837  2.6957
  153SOL    HW2  459   2.369   2.587   0.169  0.1234  0.8791  1.2289
  154SOL     OW  460   0.847   0.492   1.233 -0.7849 -0.1977 -0.9230
  154SOL    HW1  461   0.750   0.519   1.235  3.1201  0.6521  0.8525
  154SOL    HW2  462   0.882   0.492   1.329  0.5876  0.6244  0.0166
  155SOL     OW  463   0.062   2.069   1.122  0.3369  0.2977 -0.6672
  155SOL    HW1  464   0.026   1.983   1.084 -0.3863 -1.1757 -0.9786
  155SOL    HW2  465   0.028   2.083   1.218  1.6502  1.8675  2.1307
  156SOL     OW  466   2.050   1.970   2.990 -0.4435  0.1369 -0.3278
  156SOL    HW1  467   2.150   1.978   2.972 -0.2927 -0.1453 -1.3842
  156SOL    HW2  468   1.997   2.058   2.980  1.2997  2.0217  1.1738
  157SOL     OW  469   0.861   2.561   0.965 -0.0017 -0.1929  0.1392
  157SOL    HW1  470   0.815   2.482   1.009  1.6455 -1.6661 -2.1836
  157SOL    HW2  471   0.895   2.632   1.030 -2.1603  0.1937  0.4052
  158SOL     OW  472   2.691   0.468   2.751  0.7285 -0.4226  0.0288
  158SOL    HW1  473   2.648   0.382   2.791  0.2032 -2.9633 -0.2816
  158SOL    HW2  474   2.623   0.546   2.752 -1.2891  2.6373 -1.8697
  159SOL     OW  475   0.742   0.201   2.755 -0.5603  0.3372 -0.3887
  159SOL    HW1  476   0.802   0.234   2.832  1.5672 -1.5429  0.1566
  159SOL    HW2  477   0.696   0.111   2.772 -0.4536 -0.0959  0.1571
  160SOL     OW  478   0.993   1.879   2.951  0.2780  0.3264 -0.4835
  160SOL    HW1  479   0.971   1.784   2.916 -2.2417 -1.4998  0.9700
  160SOL    HW2  480   1.025   1.934   2.875  1.1465 -3.1087 -0.1870
  161SOL     OW  481   2.957   2.380   2.876  0.1245  0.9661  0.4762
  161SOL    HW1  482   2.988   2.330   2.962 -0.6683  2.2080  0.7089
  161SOL    HW2  483   2.940   2.479   2.896  1.0486 -0.5060  0.5184
  162SOL     OW  484   0.425   2.688   1.059 -0.1113  0.3771 -0.7002
  162SOL    HW1  485   0.466   2.597   1.038 -0.0766  0.2225  1.3346
  162SOL    HW2  486   0.326   2.691   1.065  0.8213  0.6194 -0.0200
  163SOL     OW  487   2.527   0.623   3.052  0.4595 -0.0361  0.6596
  163SOL    HW1  488   2.488   0.619   2.958  0.6703  0.1394  1.6803
  163SOL    HW2  489   2.489   0.555   0.006 -0.6847  0.3616  1.0787
  164SOL     OW  490   3.106   2.476   0.696  0.2981  0.1421  0.0065
  164SOL    HW1  491   3.022   2.421   0.687  1.3395  1.7744 -2.7805
  164SOL    HW2  492   3.089   2.573   0.690  2.1303 -2.5206  2.7388
  165SOL     OW  493   2.672   0.408   1.374 -0.1093  0.0618  0.6249
  165SOL    HW1  494   2.634   0.425   1.464  0.2030 -0.3926 -3.3991
  165SOL    HW2  495   2.645   0.317   1.339  0.9128  1.2692  1.8108
  166SOL     OW  496   2.113   0.387   0.878  0.4608 -0.1356 -0.4110
  166SOL    HW1  497   2.112   0.290   0.849  2.7467 -0.5860  0.7093
  166SOL    HW2  498   2.127   0.386   0.981  0.9682 -1.8802  2.5200
  167SOL     OW  499   0.393   0.337   1.272  0.6794 -0.4690  0.2202
  167SOL    HW1  500   0.424   0.297   1.364  2.7674 -0.0836 -0.2587
  167SOL    HW2  501   0.410   0.264   1.206 -0.4711  0.9661 -1.7443
  168SOL     OW  502   2.696   2.953   2.159 -0.8379  0.1719  0.3295
  168SOL    HW1  503   2.647   2.863   2.190 -1.7942 -3.0553  2.0512
  168SOL    HW2  504   2.688   3.023   2.228  1.2670 -0.9439 -0.5044
  169SOL     OW  505   0.065   1.650   0.589 -0.1152  0.2619 -0.0132
  169SOL    HW1  506   0.084   1.700   0.500 -2.3547  1.0509  0.4196
  169SOL    HW2  507   0.153   1.642   0.645  0.6070  2.2432 -0.1327
  170SOL     OW  508   3.105   0.846   1.409 -0.5020  0.5490  0.0137
  170SOL    HW1  509   3.077   0.749   1.393 -0.9874 -0.2712  1.7310
  170SOL    HW2  510   0.071   0.855   1.478  2.3079  2.3854  2.1333
  171SOL     OW  511   1.097   2.169   1.577 -0.4219 -0.3447 -0.2633
  171SOL    HW1  512   1.195   2.195   1.597  0.5158  2.6082 -0.9322
  171SOL    HW2  513   1.049   2.248   1.536  0.7090  0.4693 -2.0524
  172SOL     OW  514   0.405   2.523   1.383  0.2018  0.4492 -0.2012
  172SOL    HW1  515   0.445   2.492   1.293 -1.4349 -1.2307  1.4177
  172SOL    HW2  516   0.315   2.569   1.372  0.1961  0.5238  1.8752
  173SOL     OW  517   1.346   2.922   0.149  0.3051 -0.3508 -0.2714
  173SOL    HW1  518   1.433   2.865   0.143  3.0496 -0.5519  1.6658
  173SOL    HW2  519   1.360   3.016   0.177 -1.2985  2.2188  2.2726
  174SOL     OW  520   0.815   2.527   2.631  0.2229  0.1643 -0.4881
  174SOL    HW1  521   0.845   2.514   2.728  2.8538 -0.9584 -0.0996
  174SOL    HW2  522   0.776   2.444   2.591  0.7786  1.3985 -0.2483
  175SOL     OW  523   1.653   0.413   0.224  0.0781  0.6104  0.1079
  175SOL    HW1  524   1.720   0.352   0.264 -2.1159  1.6957 -0.2817
  175SOL    HW2  525   1.653   0.500   0.274 -0.5156 -1.4259 -0.9411
  176SOL     OW  526   1.403   0.079   0.245  0.1803 -0.3311  0.3771
  176SOL    HW1  527   1.503   0.097   0.254 -1.7201 -1.6291 -0.2675
  176SOL    HW2  528   1.362   0.059   0.338  0.0647 -0.6703  0.6197
  177SOL     OW  529   1.491   0.940   0.887  0.0175  0.3035 -0.4521
  177SOL    HW1  530   1.485   1.031   0.844  0.0936 -4.1070  2.7872
  177SOL    HW2  531   1.394   0.918   0.920 -3.6834  1.5586  2.7785
  178SOL     OW  532   2.122   1.623   2.015 -0.0524 -0.6117  0.6482
  178SOL    HW1  533   2.213   1.585   1.985 -0.1112  0.2635  0.3239
  178SOL    HW2  534   2.083   1.558   2.083  1.4538  2.2263  1.1544
  179SOL     OW  535   0.602   2.685   2.627 -0.4549  0.0180  0.0065
  179SOL    HW1  536   0.689   2.634   2.627 -0.4317  2.5946  0.2574
  179SOL    HW2  537   0.554   2.688   2.534 -1.3660  0.1036 -0.6938
  180SOL     OW  538   1.526   1.895   1.585 -0.1838  0.5578 -0.1709
  180SOL    HW1  539   1.598   1.830   1.617  1.3382 -0.9792 -0.0411
  180SOL    HW2  540   1.562   1.987   1.571 -0.1686 -0.4471  2.0734
  181SOL     OW  541   1.372   1.398   2.537 -0.1533  0.4535 -0.1483
  181SOL    HW1  542   1.339   1.370   2.627 -2.4325 -0.1408 -0.6425
  181SOL    HW2  543   1.318   1.339   2.475 -5.2527  0.1594 -2.1094
  182SOL     OW  544   3.035   0.595   2.637  0.4124 -0.5304  0.2228
  182SOL    HW1  545   2.981   0.510   2.635  1.6561 -0.9724  3.0546
  182SOL    HW2  546   0.018   0.572   2.662 -2.4126 -1.4633 -0.1063
  183SOL     OW  547   1.076   0.171   2.635 -0.2406 -0.1579  0.1858
  183SOL    HW1  548   1.108   0.264   2.612 -1.9623 -0.0640 -0.8268
  183SOL    HW2  549   1.041   0.163   2.729  2.5363 -1.0234 -3.2385
  184SOL     OW  550   1.363   0.783   1.475  0.0909  0.0174  0.3558
  184SOL    HW1  551   1.411   0.833   1.544 -0.5227 -1.5853 -1.5698
  184SOL    HW2  552   1.330   0.841   1.395 -0.0571  0.0595 -0.1057
  185SOL     OW  553   0.268   1.411   0.980  0.3043 -1.0540 -0.0526
  185SOL    HW1  554   0.174   1.402   1.024 -1.2278 -0.3534 -1.2892
  185SOL    HW2  555   0.341   1.394   1.048 -1.1085 -1.5804 -1.9922
  186SOL     OW  556   0.218   1.966   2.603  0.8913 -0.4778  0.2217
  186SOL    HW1  557   0.261   1.901   2.662 -0.2907  1.1682 -1.8704
  186SOL    HW2  558   0.273   2.048   2.576 -1.9277 -0.5736  2.2587
  187SOL     OW  559   2.681   1.271   0.429 -0.7452  0.3682 -0.1485
  187SOL    HW1  560   2.686   1.231   0.334  0.1493 -3.1570  0.0958
  187SOL    HW2  561   2.673   1.376   0.430  0.0029  1.6818  0.9966
  188SOL     OW  562   0.231   2.411   0.566  0.3867 -0.1747 -0.4412
  188SOL    HW1  563   0.222   2.344   0.490 -1.0653 -0.2434 -1.4327
  188SOL    HW2  564   0.146   2.427   0.619  1.0540 -2.1126 -1.2096
  189SOL     OW  565   2.505   0.841   0.132  0.1199 -0.2724 -0.0909
  189SOL    HW1  566   2.509   0.749   0.087  0.7845 -0.2609 -0.9645
  189SOL    HW2  567   2.592   0.876   0.176 -0.2618  0.9430 -1.6820
  190SOL     OW  568   1.397   1.525   2.200 -0.0789  0.1360 -0.7870
  190SOL    HW1  569   1.483   1.480   2.240  0.6209 -1.3706 -3.5407
  190SOL    HW2  570   1.328   1.544   2.268  1.8548  1.3433 -3.1813
  191SOL     OW  571   2.584   0.481   1.618  0.4909 -0.3303  0.4868
  191SOL    HW1  572   2.639   0.455   1.702 -0.1596  1.8815 -0.4814
  191SOL    HW2  573   2.528   0.562   1.641 -0.4625 -0.5256  0.7312
  192SOL     OW  574   2.221   0.331   1.834  0.1309  0.2458  0.1316
  192SOL    HW1  575   2.239   0.236   1.868  0.8250 -3.4024 -0.4380
  192SOL    HW2  576   2.297   0.397   1.861  2.5184 -0.0639 -1.8851
  193SOL     OW  577   0.796   0.694   0.300  0.8661 -0.2792 -0.0961
  193SOL    HW1  578   0.787   0.693   0.401 -1.4662  0.0518 -1.2889
  193SOL    HW2  579   0.718   0.644   0.255 -0.7741  3.3864  0.3724
  194SOL     OW  580   1.194   2.861   1.253 -0.1731  0.4317  0.0241
  194SOL    HW1  581   1.248   2.938   1.214  0.0888 -0.3311 -0.3000
  194SOL    HW2  582   1.118   2.831   1.190  1.1870 -0.6263 -2.3366
  195SOL     OW  583   2.242   0.794   0.880 -0.6748 -0.1577 -0.2625
  195SOL    HW1  584   2.268   0.750   0.791 -0.0269  0.3945 -1.0815
  195SOL    HW2  585   2.208   0.730   0.949  1.8300  0.8380 -2.0619
  196SOL     OW  586   1.611   1.819   1.945  0.0652 -1.0886  0.0384
  196SOL    HW1  587   1.662   1.900   1.909  0.8540 -1.0732 -0.0338
  196SOL    HW2  588   1.520   1.843   1.995 -1.0823 -0.2615  1.0757
  197SOL     OW  589   0.091   0.090   0.155  0.1658 -0.0676 -0.0524
  197SOL    HW1  590   0.128   0.055   0.242 -1.4563 -2.6028 -3.9294
  197SOL    HW2  591   0.163   0.075   0.083 -0.9993 -0.3994 -1.0284
  198SOL     OW  592   0.999   1.191   0.695  0.3257 -0.2180  0.3364
  198SOL    HW1  593   1.081   1.242   0.714 -3.4532 -1.5147  0.3696
  198SOL    HW2  594   1.004   1.102   0.737  1.3334  1.7859 -0.4067
  199SOL     OW  595   3.009   1.015   1.965 -0.0443 -0.6331 -0.1404
  199SOL    HW1  596   2.927   1.026   2.024 -0.4660 -3.7115 -2.3403
  199SOL    HW2  597   3.010   1.085   1.886 -0.9741  2.6724 -3.8389
  200SOL     OW  598   2.421   2.031   2.489 -0.2772 -0.2628  0.3716
  200SOL    HW1  599   2.406   1.984   2.577  1.2802  1.1028 -2.4059
  200SOL    HW2  600   2.432   2.135   2.500 -2.3104  1.5659  0.0927
  201SOL     OW  601   2.531   0.240   1.151 -0.0297  0.7341  0.0644
  201SOL    HW1  602   2.581   0.305   1.088 -0.7026  2.9032 -0.5033
  201SOL    HW2  603   2.447   0.209   1.100  3.1528 -1.7602 -0.0728
  202SOL     OW  604   2.615   0.626   0.369 -0.0071 -0.1780 -0.0268
  202SOL    HW1  605   2.670   0.603   0.446 -1.3597  1.6459  0.0572
  202SOL    HW2  606   2.671   0.679   0.301  1.3786 -0.1005 -2.5775
  203SOL     OW  607   1.633   1.971   2.325 -1.0147 -0.0054 -0.2102
  203SOL    HW1  608   1.697   1.991   2.244 -0.1185  1.1268  1.0593
  203SOL    HW2  609   1.544   2.006   2.312  1.5707 -3.5561  0.7730
  204SOL     OW  610   0.798   1.912   2.264 -0.2178 -0.2231 -0.0156
  204SOL    HW1  611   0.715   1.856   2.238 -0.5286  2.4145 -1.4714
  204SOL    HW2  612   0.878   1.855   2.298 -2.2282 -0.8559  3.8290
  205SOL     OW  613   1.074   1.898   1.532  0.4079 -0.2506  0.8052
  205SOL    HW1  614   1.067   1.996   1.559 -2.0399 -0.2311  0.9463
  205SOL    HW2  615   1.155   1.856   1.575 -1.4921 -1.6025 -1.2245
  206SOL     OW  616   0.124   0.528   3.024 -0.1498  0.5742  0.1246
  206SOL    HW1  617   0.022   0.520   3.028 -0.1037  0.1239  0.9194
  206SOL    HW2  618   0.147   0.518   2.925 -1.4396 -1.3074  1.3104
  207SOL     OW  619   1.704   2.662   2.320  0.0735  0.5507  0.0041
  207SOL    HW1  620   1.646   2.612   2.389 -1.1239  2.2213 -0.7592
  207SOL    HW2  621   1.669   2.751   2.289  2.0722  0.5306 -1.2456
  208SOL     OW  622   0.251   2.284   1.623 -0.1814 -0.0545 -0.4686
  208SOL    HW1  623   0.210   2.300   1.532  1.4454  1.7897  2.7763
  208SOL    HW2  624   0.277   2.367   1.669 -2.3970  0.6955 -1.4303
  209SOL     OW  625   1.444   0.711   2.751  0.6125 -0.5022  0.6272
  209SOL    HW1  626   1.346   0.730   2.763 -0.1167  0.0957 -0.4434
  209SOL    HW2  627   1.459   0.683   2.654 -1.8887 -1.6723 -1.9262
  210SOL     OW  628   2.051   0.967   0.999 -0.1077  0.3156 -0.2827
  210SOL    HW1  629   2.088   0.978   1.094  1.2916 -0.0171 -0.6492
  210SOL    HW2  630   2.118   0.920   0.940  1.3647 -1.2987 -1.0738
  211SOL     OW  631   0.661   0.513   0.573 -0.7545  0.2985 -0.0044
  211SOL    HW1  632   0.673   0.608   0.600  1.7529  0.0696 -1.1007
  211SOL    HW2  633   0.563   0.487   0.549  0.0259  0.3335 -0.2185
  212SOL     OW  634   1.520   1.407   0.090 -0.3940  0.1498 -0.3191
  212SOL    HW1  635   1.613   1.399   0.050  1.0790 -0.9980  1.0070
  212SOL    HW2  636   1.485   1.500   0.078 -1.3691 -3.9748  2.4938
  213SOL     OW  637   1.654   0.228   2.488  0.3235 -0.0001  0.1094
  213SOL    HW1  638   1.556   0.217   2.519 -1.0772 -0.0323  1.0384
  213SOL    HW2  639   1.702   0.137   2.497  0.4381 -1.9417  0.3398
  214SOL     OW  640   1.606   1.470   2.371  0.2311  0.3825  0.4867
  214SOL    HW1  641   1.647   1.566   2.364  1.1582  0.3951 -0.0248
  214SOL    HW2  642   1.553   1.452   2.459 -0.9366 -0.1611  2.0279
  215SOL     OW  643   0.439   1.789   0.589  0.1793  0.1859  0.1165
  215SOL    HW1  644   0.535   1.776   0.562 -2.0601  1.2130  0.6864
  215SOL    HW2  645   0.372   1.769   0.515 -1.1029 -0.7149 -2.1055
  216SOL     OW  646   0.699   2.905   2.188  0.1465  0.1774 -0.2054
  216SOL    HW1  647   0.771   2.874   2.124 -1.1325 -1.7846  2.6822
  216SOL    HW2  648   0.749   2.943   2.274  3.2375 -0.9081  0.1017
  217SOL     OW  649   2.402   0.908   0.551  0.2984 -0.2580 -0.0623
  217SOL    HW1  650   2.450   0.990   0.589  1.6310  0.2375  0.0266
  217SOL    HW2  651   2.440   0.883   0.459  0.6074  1.7009 -1.5030
  218SOL     OW  652   2.074   1.832   2.175 -0.1760 -0.1054 -0.4076
  218SOL    HW1  653   1.980   1.864   2.178  2.0555 -1.2837  0.0043
  218SOL    HW2  654   2.092   1.757   2.117  0.7356  4.4627 -0.0918
  219SOL     OW  655   1.763   1.444   3.090 -0.0308  0.3887 -0.5004
  219SOL    HW1  656   1.759   1.530   3.038  0.6144 -1.3260 -1.1236
  219SOL    HW2  657   1.863   1.420   3.084  1.4987  0.9018 -1.6214
  220SOL     OW  658   1.430   1.612   1.133 -0.3855  0.2179  0.7522
  220SOL    HW1  659   1.429   1.664   1.218  1.5256 -0.6939  2.5381
  220SOL    HW2  660   1.450   1.678   1.059 -1.5743  0.0746 -0.9941
  221SOL     OW  661   0.281   0.751   2.704  0.4077  0.3859  0.5113
  221SOL    HW1  662   0.222   0.829   2.704  2.4894 -1.0931 -2.1397
  221SOL    HW2  663   0.374   0.789   2.711 -1.1451  1.9222  2.0691
  222SOL     OW  664   1.096   1.601   1.438  0.1915 -0.2692 -0.5146
  222SOL    HW1  665   1.108   1.699   1.465 -2.1243  2.1479  2.8606
  222SOL    HW2  666   1.147   1.577   1.354 -1.4308  0.9282  1.6392
  223SOL     OW  667   1.404   0.030   2.576  0.0630 -0.3743  0.0848
  223SOL    HW1  668   1.443   0.012   2.669 -0.9761  1.5129 -0.4897
  223SOL    HW2  669   1.344   0.114   2.574 -0.8801  1.1345  0.2618
  224SOL     OW  670   2.909   0.948   0.794 -0.2323 -0.3303  0.3036
  224SOL    HW1  671   2.980   0.984   0.734 -0.7109  0.1344  0.9039
  224SOL    HW2  672   2.935   0.869   0.852 -0.7393  1.7595  0.8485
  225SOL     OW  673   1.482   0.447   1.629 -0.0229 -0.4297 -0.0458
  225SOL    HW1  674   1.483   0.497   1.544 -0.6254 -3.0611  2.2211
  225SOL    HW2  675   1.552   0.489   1.692 -1.7058 -0.4794  0.2978
  226SOL     OW  676   1.423   2.018   2.589 -0.3730 -0.1800 -0.2915
  226SOL    HW1  677   1.454   1.939   2.535 -1.5572  2.7638  2.9026
  226SOL    HW2  678   1.390   1.981   2.678  2.0208 -2.8164  0.7127
  227SOL     OW  679   1.229   1.944   1.275 -0.6508 -0.2550  0.1339
  227SOL    HW1  680   1.317   1.900   1.265  1.6953 -0.7477 -0.8550
  227SOL    HW2  681   1.189   1.925   1.368  0.2378  1.2907 -2.5825
  228SOL     OW  682   0.700   1.806   0.962  0.0297  0.0247  0.1317
  228SOL    HW1  683   0.720   1.824   1.059  3.3884 -0.4356 -3.8362
  228SOL    HW2  684   0.792   1.802   0.916 -1.9744  2.6273  1.0528
  229SOL     OW  685   2.076   0.338   0.173  0.2184 -0.3418  0.0197
  229SOL    HW1  686   2.048   0.431   0.146  0.1739 -2.4677  0.2469
  229SOL    HW2  687   2.163   0.339   0.226  0.7756 -1.6072  3.0264
  230SOL     OW  688   0.934   0.494   2.139 -0.6830  0.0593 -0.1862
  230SOL    HW1  689   0.894   0.479   2.046  0.0256  0.6292  0.5006
  230SOL    HW2  690   1.036   0.515   2.134  0.8526 -0.0937  1.0627
  231SOL     OW  691   1.209   1.647   2.371 -0.6957  0.4469 -0.2491
  231SOL    HW1  692   1.174   1.561   2.415  1.5181 -1.4752  0.6812
  231SOL    HW2  693   1.134   1.696   2.331  4.6062 -1.0817  0.2218
  232SOL     OW  694   2.181   2.020   1.080 -0.2897  0.0364 -0.2321
  232SOL    HW1  695   2.111   1.966   1.030 -2.5438  0.2028 -1.6711
  232SOL    HW2  696   2.172   2.118   1.071  1.0821 -2.2374 -1.1482
  233SOL     OW  697   1.938   2.660   2.980 -0.3464  0.1016 -0.6641
  233SOL    HW1  698   1.887   2.573   2.997 -1.5316  0.8420 -0.1507
  233SOL    HW2  699   2.032   2.661   3.018 -1.7094 -0.2061  0.6875
  234SOL     OW  700   1.279   2.993   3.008  0.2844 -0.2922  0.6731
  234SOL    HW1  701   1.301   2.946   3.094 -3.5314  0.6804 -2.1937
  234SOL    HW2  702   1.212   2.935   2.963  1.9864  1.2012 -0.2431
  235SOL     OW  703   2.478   0.021   0.319  0.1483  0.1733 -0.0404
  235SOL    HW1  704   2.375   0.008   0.313 -2.7868 -1.2530 -0.1376
  235SOL    HW2  705   2.528   3.055   0.278 -1.3336 -0.8426 -1.5847
  236SOL     OW  706   2.599   2.217   2.226  0.4355 -0.3920 -0.7016
  236SOL    HW1  707   2.663   2.254   2.155  0.6698  0.7835 -1.6339
  236SOL    HW2  708   2.648   2.208   2.315  0.8744 -0.5987 -0.9386
  237SOL     OW  709   1.251   1.169   1.944 -0.1016  0.0666 -0.0651
  237SOL    HW1  710   1.343   1.157   1.980 -0.7130 -1.1853 -3.5928
  237SOL    HW2  711   1.239   1.178   1.847  1.3243 -1.1016  0.3019
  238SOL     OW  712   2.177   0.155   2.457  0.2763 -0.0299 -0.0707
  238SOL    HW1  713   2.221   0.214   2.388 -0.1334 -1.4004  0.6770
  238SOL    HW2  714   2.126   0.206   2.522  2.2227 -2.5480 -2.3855
  239SOL     OW  715   0.352   1.996   2.104  0.5513  0.0814  0.0805
  239SOL    HW1  716   0.438   1.940   2.117  1.2478  0.4104 -1.7787
  239SOL    HW2  717   0.359   2.057   2.022  1.1110  2.0355 -0.9520
  240SOL     OW  718   2.824   2.584   0.841  0.0692 -0.1131  0.2260
  240SOL    HW1  719   2.875   2.546   0.921 -0.9109  0.6698  0.1324
  240SOL    HW2  720   2.742   2.524   0.816 -3.2242  0.2877  0.3913
  241SOL     OW  721   2.016   2.159   0.752  0.0626 -0.5849  0.4839
  241SOL    HW1  722   2.032   2.064   0.790 -2.2400 -0.2570 -1.0714
  241SOL    HW2  723   2.105   2.191   0.715  0.5427  0.8567  0.0120
  242SOL     OW  724   1.152   1.777   2.732 -0.4304 -0.4867 -0.2388
  242SOL    HW1  725   1.142   1.693   2.789  0.8906 -0.9049 -0.6290
  242SOL    HW2  726   1.222   1.838   2.775  0.6401  1.9662 -0.5762
  243SOL     OW  727   0.631   2.609   2.177 -0.3132 -0.0956  0.1576
  243SOL    HW1  728   0.640   2.711   2.192 -0.2625 -0.4008 -2.2750
  243SOL    HW2  729   0.712   2.574   2.124 -0.5699 -0.6800 -0.0844
  244SOL     OW  730   2.288   2.983   2.835 -0.0540 -0.2404  0.4183
  244SOL    HW1  731   2.361   3.051   2.812 -1.6239 -1.0767  0.3924
  244SOL    HW2  732   2.214   2.980   2.764 -0.7713 -0.4520 -1.9920
  245SOL     OW  733   1.472   2.660   0.510 -0.3511  0.3561 -0.2356
  245SOL    HW1  734   1.417   2.593   0.557  1.5658  1.4899 -2.3615
  245SOL    HW2  735   1.418   2.715   0.447  2.6514 -3.9477  2.0416
  246SOL     OW  736   0.952   2.925   0.145 -0.4409 -0.0374  0.4407
  246SOL    HW1  737   0.968   3.023   0.163  1.2991 -0.9111 -0.0585
  246SOL    HW2  738   1.044   2.876   0.160 -2.0271 -2.1650 -1.1448
  247SOL     OW  739   0.649   0.881   1.880  0.0681 -0.3602 -0.6786
  247SOL    HW1  740   0.697   0.810   1.818  1.7072  0.1878 -0.6942
  247SOL    HW2  741   0.721   0.945   1.909 -1.3992 -0.0052  1.8801
  248SOL     OW  742   0.995   1.329   2.293  0.4549  0.8629  0.1789
  248SOL    HW1  743   1.064   1.364   2.231 -2.0850 -0.9367  0.8690
  248SOL    HW2  744   0.986   1.387   2.369 -1.6943  0.8621 -1.5887
  249SOL     OW  745   2.205   0.388   0.419 -0.4661  0.1936 -0.5459
  249SOL    HW1  746   2.248   0.419   0.510  3.0585 -1.4349  0.6951
  249SOL    HW2  747   2.107   0.389   0.422  3.7781 -0.0860 -0.5138
  250SOL     OW  748   0.809   0.030   0.681 -0.2889  0.2967  0.4845
  250SOL    HW1  749   0.827   3.068   0.611 -0.2918 -0.9502  0.3847
  250SOL    HW2  750   0.818   0.121   0.635  2.4450 -1.2423  0.7778
  251SOL     OW  751   1.692   0.178   2.803 -0.2742 -0.2281 -0.0126
  251SOL    HW1  752   1.737   0.135   2.716  1.7876  0.3684 -2.0600
  251SOL    HW2  753   1.615   0.118   2.831  0.7328 -0.1932 -0.6210
  252SOL     OW  754   1.749   1.329   2.209 -0.3590 -0.2443  0.1856
  252SOL    HW1  755   1.700   1.381   2.281 -0.2612  2.1146  4.5594
  252SOL    HW2  756   1.829   1.280   2.259 -1.5206  0.1838 -1.3750
  253SOL     OW  757   2.417   2.686   2.006 -0.0036  0.7569 -0.4411
  253SOL    HW1  758   2.507   2.638   2.008  2.3977 -0.3462 -0.1149
  253SOL    HW2  759   2.345   2.632   2.060 -2.4620  0.3456 -0.0385
  254SOL     OW  760   0.859   1.331   1.134 -0.8319 -0.3948  0.6146
  254SOL    HW1  761   0.847   1.241   1.079 -1.6973 -2.4131 -0.1391
  254SOL    HW2  762   0.938   1.328   1.201  3.4267 -1.5521 -0.3371
  255SOL     OW  763   1.304   0.927   1.254 -0.0652 -0.0573  0.1164
  255SOL    HW1  764   1.206   0.952   1.227 -1.1487 -1.5737  3.3115
  255SOL    HW2  765   1.368   1.003   1.240  1.0894 -0.6970  2.4749
  256SOL     OW  766   1.836   2.603   1.796  0.1498 -0.1760 -0.3988
  256SOL    HW1  767   1.754   2.560   1.844  0.7316  0.4782 -0.5024
  256SOL    HW2  768   1.912   2.539   1.799 -1.1028  0.5457 -2.0327
  257SOL     OW  769   0.198   2.873   2.845 -0.5536 -0.0239 -0.4619
  257SOL    HW1  770   0.207   2.972   2.827 -0.9309 -3.6985  1.3517
  257SOL    HW2  771   0.261   2.814   2.792  1.1238 -0.7360 -0.8714
  258SOL     OW  772   0.867   2.825   2.000  0.7234 -0.4100  0.2198
  258SOL    HW1  773   0.953   2.792   2.038 -1.8365  2.5888 -2.1962
  258SOL    HW2  774   0.830   2.778   1.914  0.6939 -0.8962 -0.2671
  259SOL     OW  775   1.095   2.965   2.237  0.9966  0.2508  0.2809
  259SOL    HW1  776   1.146   3.010   2.162 -0.9230 -0.2134 -0.2916
  259SOL    HW2  777   1.077   2.865   2.214  1.7374 -1.1055  0.6334
  260SOL     OW  778   1.690   0.530   0.882  0.1197  0.3488 -0.7384
  260SOL    HW1  779   1.660   0.431   0.892  0.0133  0.4072  0.6077
  260SOL    HW2  780   1.788   0.542   0.850  0.1158 -2.0108 -1.9013
  261SOL     OW  781   0.174   0.511   2.739  0.1035  0.2462 -0.3699
  261SOL    HW1  782   0.207   0.425   2.698 -2.4243  0.0793  0.0360
  261SOL    HW2  783   0.238   0.588   2.717  1.6911  1.0165 -1.3953
  262SOL     OW  784   2.759   2.414   1.771 -0.2944 -0.4155 -0.5602
  262SOL    HW1  785   2.852   2.369   1.774 -0.7657 -1.4730  1.8642
  262SOL    HW2  786   2.766   2.496   1.711  1.4164 -2.0564 -1.2849
  263SOL     OW  787   2.745   1.771   2.234 -0.5068  0.1021 -0.1913
  263SOL    HW1  788   2.846   1.766   2.244 -0.9783  0.8951 -2.6846
  263SOL    HW2  789   2.710   1.832   2.307  1.4450 -2.6449 -0.0505
  264SOL     OW  790   0.704   1.176   0.774 -0.3144  0.1352 -0.1891
  264SOL    HW1  791   0.800   1.167   0.807  2.5077  0.0614  2.9511
  264SOL    HW2  792   0.701   1.138   0.678  0.0887  1.0870 -0.1265
  265SOL     OW  793   0.580   2.104   0.100  0.3330  0.6445  0.8019
  265SOL    HW1  794   0.649   2.027   0.104 -0.4126  0.0263 -0.9153
  265SOL    HW2  795   0.599   2.164   0.178 -0.9369  0.1506 -2.5370
  266SOL     OW  796   1.410   0.555   0.778 -0.1321  0.3564  0.0225
  266SOL    HW1  797   1.492   0.507   0.816  1.0823 -2.1227 -0.5806
  266SOL    HW2  798   1.364   0.499   0.705 -2.7490  0.1707  2.3534
  267SOL     OW  799   2.977   1.302   0.091  0.2019  0.6313 -0.8303
  267SOL    HW1  800   3.062   1.325   0.142 -0.0318 -1.0778  2.0605
  267SOL    HW2  801   2.988   1.276   3.107 -2.5888 -1.4890  2.0048
  268SOL     OW  802   2.053   0.084   0.053  0.0283 -0.1823 -0.4752
  268SOL    HW1  803   2.067   0.175   0.095 -1.2236  3.2248 -0.3283
  268SOL    HW2  804   1.958   0.061   0.075  0.8566  0.0682  0.4834
  269SOL     OW  805   1.708   0.647   2.737 -0.1718  0.0519 -0.3050
  269SOL    HW1  806   1.732   0.555   2.706  3.1097 -0.2559  1.1409
  269SOL    HW2  807   1.607   0.664   2.756  0.0324  1.3650 -0.9720
  270SOL     OW  808   0.595   0.751   3.009  0.6713 -0.0871 -0.0856
  270SOL    HW1  809   0.552   0.795   3.087 -1.5679 -1.2569 -2.6569
  270SOL    HW2  810   0.559   0.783   2.919 -1.3493  4.0787  0.5347
  271SOL     OW  811   3.045   0.980   0.191  0.1794  0.6190  0.1203
  271SOL    HW1  812   3.033   0.911   0.117  1.1006  1.4280  1.1990
  271SOL    HW2  813   3.026   1.074   0.163  0.9204 -4.1817  1.4371
  272SOL     OW  814   3.100   1.828   2.777  0.2527  0.1679 -0.1795
  272SOL    HW1  815   3.010   1.862   2.803  1.8839 -0.3518 -0.8948
  272SOL    HW2  816   0.028   1.886   2.703  0.1467  0.1485  1.4269
  273SOL     OW  817   2.501   3.095   0.748 -0.4492  0.4145 -0.7745
  273SOL    HW1  818   2.446   0.050   0.807 -0.0031  0.7140 -0.5386
  273SOL    HW2  819   2.558   0.038   0.688 -0.7872 -0.7027  2.2073
  274SOL     OW  820   0.389   2.390   0.880  0.3221 -0.2953 -0.3024
  274SOL    HW1  821   0.348   2.297   0.867  1.0040  0.7393 -0.6860
  274SOL    HW2  822   0.434   2.407   0.790  1.6342 -0.5703  0.5593
  275SOL     OW  823   2.406   1.462   0.507 -0.4471  0.3565  0.4361
  275SOL    HW1  824   2.489   1.474   0.561 -3.0888  0.2509  0.6293
  275SOL    HW2  825   2.404   1.367   0.463  0.3439 -0.4505 -0.5856
  276SOL     OW  826   0.034   1.283   2.252  0.0819  0.3309 -0.3004
  276SOL    HW1  827   0.088   1.232   2.181 -2.2222  1.4554  1.3518
  276SOL    HW2  828   0.006   1.378   2.228  0.3587 -1.6828 -3.2883
  277SOL     OW  829   2.048   2.886   1.333  0.1212  0.1425  0.5032
  277SOL    HW1  830   2.098   2.798   1.353  0.9885  1.3361 -2.6254
  277SOL    HW2  831   1.991   2.878   1.247 -2.4492  0.1101 -1.2082
  278SOL     OW  832   1.231   3.059   2.023  0.4093  0.8029  0.5126
  278SOL    HW1  833   1.201   3.067   1.927 -1.6763 -0.3936 -1.0650
  278SOL    HW2  834   1.257   0.040   2.056  0.0717  3.2873  0.2739
  279SOL     OW  835   1.735   1.975   0.367 -0.3698  0.7283  0.4392
  279SOL    HW1  836   1.643   2.006   0.333 -1.3927  1.8059  1.4328
  279SOL    HW2  837   1.744   1.872   0.360  1.8726 -0.7947 -0.8201
  280SOL     OW  838   0.161   1.736   0.985  0.2552  0.0273  0.0273
  280SOL    HW1  839   0.181   1.705   0.889  1.7180 -0.7118 -0.6937
  280SOL    HW2  840   0.065   1.721   1.014  0.4921 -0.5604  0.7138
  281SOL     OW  841   3.054   0.758   2.393  0.4451 -0.1656  0.0407
  281SOL    HW1  842   3.109   0.689   2.342  1.0727  1.9703  0.0343
  281SOL    HW2  843   3.057   0.730   2.486 -1.6908  0.2044  0.1152
  282SOL     OW  844   0.695   1.040   0.532 -0.2939  0.3866 -0.7253
  282SOL    HW1  845   0.643   1.109   0.472 -1.1290  1.6676 -0.6952
  282SOL    HW2  846   0.787   1.038   0.484  2.5419 -3.9390  0.2451
  283SOL     OW  847   1.810   2.140   0.058 -0.2788 -0.1740 -0.1325
  283SOL    HW1  848   1.834   2.174   3.075  0.5746  1.1687 -3.8249
  283SOL    HW2  849   1.842   2.043   0.080 -0.6763 -0.3668  0.2922
  284SOL     OW  850   1.306   0.418   0.142 -0.1452 -0.0798  0.5362
  284SOL    HW1  851   1.335   0.501   0.093  0.5044 -0.9650 -2.3813
  284SOL    HW2  852   1.379   0.354   0.164  2.0889  0.3498 -1.7619
  285SOL     OW  853   2.083   0.949   2.639 -0.0448  0.2109 -0.0806
  285SOL    HW1  854   1.981   0.940   2.626 -1.5170  0.5049 -1.2354
  285SOL    HW2  855   2.112   0.923   2.734 -0.6104  2.3918  2.1650
  286SOL     OW  856   1.312   2.554   1.629  0.0895 -0.5295  0.3897
  286SOL    HW1  857   1.371   2.641   1.642  1.6488  3.6375  1.3001
  286SOL    HW2  858   1.362   2.472   1.656 -0.0228  0.6696 -2.8786
  287SOL     OW  859   1.002   0.937   0.769  0.0310  0.9059  0.0949
  287SOL    HW1  860   0.942   0.866   0.819 -1.9713 -4.6350  4.0632
  287SOL    HW2  861   1.040   0.898   0.682  1.0902  0.3069  0.9862
  288SOL     OW  862   1.070   2.596   0.348  0.0984  0.5580 -0.5584
  288SOL    HW1  863   1.134   2.667   0.384 -3.6628  1.0678  3.2504
  288SOL    HW2  864   1.018   2.545   0.423 -1.0259 -1.5832  0.6182
  289SOL     OW  865   0.406   1.396   1.617  0.7142 -0.6965  0.5128
  289SOL    HW1  866   0.407   1.496   1.638  1.7712 -0.3906 -0.8646
  289SOL    HW2  867   0.464   1.344   1.682 -0.3847  1.6998 -1.9544
  290SOL     OW  868   1.648   2.352   0.964 -0.3852 -0.2342 -0.2524
  290SOL    HW1  869   1.630   2.292   1.044  2.0086  2.4872 -1.8533
  290SOL    HW2  870   1.613   2.447   0.979 -1.5908  0.4261 -2.4695
  291SOL     OW  871   1.729   2.870   3.004  0.5283 -0.5900  0.7541
  291SOL    HW1  872   1.688   2.907   2.914  0.9407  0.8013  1.2330
  291SOL    HW2  873   1.799   2.800   2.990  0.1940  0.4276  1.1781
  292SOL     OW  874   1.061   0.268   1.913 -0.4272  0.1872 -0.0330
  292SOL    HW1  875   1.153   0.236   1.924 -2.9954  1.2546 -0.8609
  292SOL    HW2  876   1.004   0.222   1.978 -0.6640  1.3970 -0.3168
  293SOL     OW  877   1.856   2.364   0.767 -0.5362 -0.2800 -0.4473
  293SOL    HW1  878   1.923   2.286   0.784 -0.3456  0.5728  1.5381
  293SOL    HW2  879   1.799   2.389   0.853 -1.4713  0.3321  2.0106
  294SOL     OW  880   0.590   0.669   2.421 -0.4647  0.2280 -0.1393
  294SOL    HW1  881   0.496   0.677   2.385 -1.4436 -4.1465 -2.6019
  294SOL    HW2  882   0.597   0.607   2.500  2.5397 -0.9273  1.6304
  295SOL     OW  883   1.459   1.811   0.960  0.1943 -0.0904  0.0711
  295SOL    HW1  884   1.541   1.865   0.986 -0.1285 -0.4205  0.5676
  295SOL    HW2  885   1.405   1.849   0.883  1.4839 -2.7504  2.3974
  296SOL     OW  886   2.328   1.797   0.079  0.1043  0.1116  0.5919
  296SOL    HW1  887   2.425   1.830   0.081 -0.6351 -0.7409  1.9827
  296SOL    HW2  888   2.264   1.861   0.127 -1.0025  0.5615  1.1441
  297SOL     OW  889   2.199   3.038   0.272  0.2080 -0.4622 -0.8256
  297SOL    HW1  890   2.104   3.012   0.300  3.2782 -0.5777 -0.2890
  297SOL    HW2  891   2.210   3.042   0.169 -0.0057  1.7622  0.5914
  298SOL     OW  892   0.982   2.407   2.385 -0.0093  0.2675  0.1060
  298SOL    HW1  893   0.970   2.462   2.469  0.4373 -1.6367 -1.2940
  298SOL    HW2  894   1.077   2.409   2.348 -2.9823 -0.2657  0.8066
  299SOL     OW  895   1.303   2.691   2.228  0.3823 -0.5138  0.2811
  299SOL    HW1  896   1.205   2.693   2.264  0.0935 -0.6266  0.7627
  299SOL    HW2  897   1.353   2.648   2.299 -2.7275  2.0057 -2.5904
  300SOL     OW  898   2.481   0.049   2.780 -0.5492  0.3902 -0.1067
  300SOL    HW1  899   2.534   0.111   2.848  0.6888 -1.8144 -0.9171
  300SOL    HW2  900   2.480   0.093   2.687 -1.2407 -0.9022 -0.2224
  301SOL     OW  901   1.534   0.802   2.303  0.1120  0.6422 -0.3144
  301SOL    HW1  902   1.534   0.897   2.338  0.4042 -1.3570 -0.9606
  301SOL    HW2  903   1.613   0.782   2.240 -0.4497 -0.6852 -0.6740
  302SOL     OW  904   2.534   2.460   0.412 -0.2749 -0.6131  0.4209
  302SOL    HW1  905   2.592   2.376   0.422  0.9099 -0.1324  2.9164
  302SOL    HW2  906   2.551   2.525   0.490  1.2846  0.3374  1.7445
  303SOL     OW  907   2.852   2.582   2.196 -0.0767  0.3529  0.3144
  303SOL    HW1  908   2.932   2.517   2.211  3.3545 -0.3951 -0.0201
  303SOL    HW2  909   2.799   2.580   2.281  1.3873 -1.3329 -1.4748
  304SOL     OW  910   2.589   0.830   1.897  0.3286  0.3491  0.1356
  304SOL    HW1  911   2.626   0.918   1.856 -0.4250 -0.6846 -1.4797
  304SOL    HW2  912   2.654   0.805   1.975  2.6206 -1.8716  2.8092
  305SOL     OW  913   0.731   2.003   1.724 -0.2848  0.1325  0.3588
  305SOL    HW1  914   0.680   2.045   1.644 -3.2669 -0.1763  1.0470
  305SOL    HW2  915   0.691   2.040   1.805 -0.3578 -0.2705 -2.5377
  306SOL     OW  916   2.959   1.127   1.705 -0.0580 -0.5491  0.1169
  306SOL    HW1  917   2.922   1.217   1.671 -0.0794  2.9903 -1.6807
  306SOL    HW2  918   3.035   1.089   1.642  0.5974  1.1561 -2.1596
  307SOL     OW  919   1.358   0.418   1.898 -0.0084 -0.1013 -0.1827
  307SOL    HW1  920   1.259   0.451   1.892 -0.7569  1.9024 -0.3099
  307SOL    HW2  921   1.399   0.409   1.806  1.1315  0.1160  1.3687
  308SOL     OW  922   2.997   1.161   1.067 -0.6313  0.6413  0.0178
  308SOL    HW1  923   3.040   1.125   1.153 -1.5381  1.0273  0.7345
  308SOL    HW2  924   2.908   1.122   1.050 -0.6332 -0.0907  2.2576
  309SOL     OW  925   2.287   1.333   0.889  0.3118  0.0714 -0.4339
  309SOL    HW1  926   2.286   1.305   0.983 -0.6068  2.9917 -2.9184
  309SOL    HW2  927   2.278   1.433   0.884  1.7822 -1.2134 -0.1952
  310SOL     OW  928   2.856   1.915   2.849 -0.6288 -0.1477  0.0454
  310SOL    HW1  929   2.787   1.858   2.802 -1.0203 -1.6686 -1.5598
  310SOL    HW2  930   2.818   2.006   2.869  1.3905 -1.7340  0.7441
  311SOL     OW  931   3.049   2.801   2.630 -0.3544 -0.2519  0.4610
  311SOL    HW1  932   2.953   2.771   2.658 -0.8435 -0.5218  3.4731
  311SOL    HW2  933   3.102   2.795   2.714 -1.2097  3.0090 -1.3247
  312SOL     OW  934   2.190   1.773   0.701 -0.5498  0.1620  0.2288
  312SOL    HW1  935   2.275   1.811   0.658  0.7927 -1.7542 -2.6438
  312SOL    HW2  936   2.168   1.681   0.661 -2.1850 -0.3513 -0.8936
  313SOL     OW  937   2.780   0.001   0.831  0.3588  0.4954  0.3054
  313SOL    HW1  938   2.829   3.024   0.863  1.4538  0.1404  2.8169
  313SOL    HW2  939   2.705   3.085   0.767  2.1528  2.6328 -1.3872
  314SOL     OW  940   1.341   0.969   0.056  0.4530 -0.5108 -0.1936
  314SOL    HW1  941   1.360   0.952   3.067 -0.7064  2.0555 -0.8489
  314SOL    HW2  942   1.380   0.894   0.117  2.6426 -2.2744  0.4017
  315SOL     OW  943   1.417   2.486   2.049  0.1228  0.1750  0.2027
  315SOL    HW1  944   1.381   2.568   2.096 -0.7606  2.0876 -0.4110
  315SOL    HW2  945   1.366   2.402   2.062  1.0660  3.2102 -2.0351
  316SOL     OW  946   0.042   0.897   0.445 -0.2646 -0.3966  1.0492
  316SOL    HW1  947   3.107   0.907   0.353  2.5501 -1.2223  0.7447
  316SOL    HW2  948   0.009   0.964   0.513 -2.6218 -1.5848 -3.8839
  317SOL     OW  949   0.491   0.051   0.476  0.2851 -0.1131 -0.4368
  317SOL    HW1  950   0.388   0.038   0.463  0.9651 -0.0560 -0.5695
  317SOL    HW2  951   0.536   3.072   0.472 -0.8474 -0.7553  0.7667
  318SOL     OW  952   2.257   2.378   0.452  0.4689 -0.0631  0.2920
  318SOL    HW1  953   2.200   2.393   0.369 -2.5163  0.0291  0.1157
  318SOL    HW2  954   2.353   2.399   0.435 -2.3397  2.3819  0.4286
  319SOL     OW  955   1.045   1.577   2.882  0.1461  0.8513 -0.1433
  319SOL    HW1  956   1.076   1.529   2.967 -1.1829 -0.2748 -1.2401
  319SOL    HW2  957   0.966   1.532   2.836  0.5936 -0.0323 -1.5169
  320SOL     OW  958   0.263   2.348   2.037 -0.4465 -0.0862  0.2282
  320SOL    HW1  959   0.256   2.288   1.957 -0.2356 -1.7915  0.2726
  320SOL    HW2  960   0.185   2.413   2.043  1.9168  2.2359 -0.3869
  321SOL     OW  961   1.422   2.816   2.751  0.2650  0.1478 -0.0053
  321SOL    HW1  962   1.431   2.713   2.755 -0.5940 -1.0586 -2.0241
  321SOL    HW2  963   1.323   2.829   2.723 -0.3616  1.4122 -3.7326
  322SOL     OW  964   2.861   1.366   2.122  0.1523  0.5235 -0.4191
  322SOL    HW1  965   2.900   1.405   2.210  1.0144 -2.6326  1.7712
  322SOL    HW2  966   2.921   1.400   2.046  2.0459  2.2037 -0.5546
  323SOL     OW  967   2.253   1.189   0.646  0.0087 -0.1792 -0.4711
  323SOL    HW1  968   2.296   1.215   0.737  2.3751  0.9652  0.9860
  323SOL    HW2  969   2.166   1.135   0.655 -1.1567  1.7969 -3.6522
  324SOL     OW  970   2.887   3.096   2.915  0.1027  0.1245 -0.1733
  324SOL    HW1  971   2.935   0.076   2.909  0.1489  1.8730  0.2903
  324SOL    HW2  972   2.930   3.037   2.988 -0.1757 -1.2412  1.6298
  325SOL     OW  973   1.387   0.343   2.560 -0.1419 -0.0103 -0.8127
  325SOL    HW1  974   1.296   0.379   2.593  0.5323  1.4017  0.2085
  325SOL    HW2  975   1.461   0.369   2.626 -2.0640 -1.7518 -0.3939
  326SOL     OW  976   2.218   2.895   1.729 -0.5088 -0.1111  0.2107
  326SOL    HW1  977   2.277   2.978   1.714 -0.2248  0.7857 -0.1399
  326SOL    HW2  978   2.263   2.800   1.719  2.9582 -2.3390  0.6018
  327SOL     OW  979   2.067   0.143   2.895  0.2987  0.1472 -0.3701
  327SOL    HW1  980   2.073   0.068   2.823  2.8363 -0.6189  0.8355
  327SOL    HW2  981   2.080   0.111   2.993  2.2189  2.6228  0.7777
  328SOL     OW  982   0.067   1.206   2.500  0.0452 -0.0462 -0.1504
  328SOL    HW1  983   0.057   1.224   2.397  0.5016 -2.6110  1.7232
  328SOL    HW2  984   3.097   1.244   2.543 -0.2487  2.2315  0.1202
  329SOL     OW  985   1.834   3.062   1.982 -0.0955 -0.1772  0.5123
  329SOL    HW1  986   1.871   2.969   1.961 -0.5358  1.3150  0.6761
  329SOL    HW2  987   1.909   0.014   2.012  1.1013  1.0031 -0.1982
  330SOL     OW  988   0.024   1.395   1.075  0.4521 -0.5849  0.3092
  330SOL    HW1  989   3.069   1.318   1.078  1.2487  0.3608  0.4657
  330SOL    HW2  990   0.057   1.411   1.169 -0.1590 -2.9117 -1.4590
  331SOL     OW  991   0.567   1.774   2.166 -0.4869 -0.4436 -0.5219
  331SOL    HW1  992   0.512   1.718   2.231  1.2236  0.0798 -0.5810
  331SOL    HW2  993   0.608   1.721   2.086 -1.7632 -0.5666 -2.4245
  332SOL     OW  994   3.082   2.716   1.614 -0.4365  0.1916 -0.2015
  332SOL    HW1  995   3.067   2.781   1.690  0.0489 -2.2092  1.9498
  332SOL    HW2  996   0.017   2.756   1.533  1.2490  0.1878  0.3765
  333SOL     OW  997   2.177   2.627   1.396  0.2231 -0.0256 -0.3902
  333SOL    HW1  998   2.259   2.572   1.373  1.0627  0.6363 -0.9095
  333SOL    HW2  999   2.110   2.571   1.447 -0.4919  2.0696  0.7251
  334SOL     OW 1000   0.945   1.771   0.847 -0.9770 -0.0301 -0.2292
  334SOL    HW1 1001   0.915   1.716   0.764  0.5278 -1.3370 -1.5807
  334SOL    HW2 1002   0.960   1.709   0.933  1.4288 -1.2663  4.3174
  335SOL     OW 1003   0.047   2.790   3.050  0.1982 -0.5420 -0.1377
  335SOL    HW1 1004   0.116   2.811   2.982  1.6135 -1.4892 -1.1780
  335SOL    HW2 1005   3.073   2.748   3.014  2.3886  0.0060  2.1624
  336SOL     OW 1006   0.513   0.000   2.107  0.4687  0.3731  0.1775
  336SOL    HW1 1007   0.431   0.027   2.164 -0.4790 -1.0174  0.2892
  336SOL    HW2 1008   0.559   3.037   2.145 -2.0579  0.5459  0.2070
  337SOL     OW 1009   2.300   2.047   2.930  0.4558  0.4930  0.4549
  337SOL    HW1 1010   2.380   2.034   2.991 -0.1676  0.6742 -1.2425
  337SOL    HW2 1011   2.319   1.994   2.844  0.0882 -2.3982 -0.3437
  338SOL     OW 1012   1.177   1.507   1.175  0.3551 -0.0576  0.3129
  338SOL    HW1 1013   1.086   1.538   1.132 -0.7427 -2.4893 -0.1930
  338SOL    HW2 1014   1.265   1.538   1.131  2.5621 -0.0377 -1.4161
  339SOL     OW 1015   0.250   0.983   1.694 -0.1298 -0.2273  0.6250
  339SOL    HW1 1016   0.207   0.917   1.757  0.6789 -0.2610 -0.9993
  339SOL    HW2 1017   0.335   1.022   1.737 -1.1633  0.6296 -1.3363
  340SOL     OW 1018   1.448   2.516   0.049 -0.1099  0.4197 -0.0055
  340SOL    HW1 1019   1.516   2.458   0.097 -0.3687 -1.6772 -1.4185
  340SOL    HW2 1020   1.476   2.616   0.058  0.8019 -1.2121  0.9824
  341SOL     OW 1021   1.815   1.562   0.938 -0.4101 -0.3037 -0.0939
  341SOL    HW1 1022   1.883   1.547   1.014 -0.9701 -1.4834 -2.3787
  341SOL    HW2 1023   1.759   1.478   0.921 -2.4792 -1.7569 -1.2959
  342SOL     OW 1024   2.682   2.856   0.493 -0.4821  0.1655  0.5093
  342SOL    HW1 1025   2.653   2.768   0.538 -0.5142 -0.7603  1.7777
  342SOL    HW2 1026   2.662   2.851   0.393 -1.5757  1.4844  2.1611
  343SOL     OW 1027   1.559   2.170   1.162  0.3628  0.6802  0.1846
  343SOL    HW1 1028   1.590   2.078   1.130 -0.7931 -0.0140  2.4039
  343SOL    HW2 1029   1.462   2.167   1.194  3.0163  0.5366 -1.2489
  344SOL     OW 1030   2.210   2.489   0.961  0.0382 -0.0070  1.3376
  344SOL    HW1 1031   2.157   2.516   0.877  0.5944 -1.0591  0.8656
  344SOL    HW2 1032   2.219   2.566   1.031 -2.4743  4.0287 -0.0634
  345SOL     OW 1033   2.752   2.182   2.828  0.6121  0.2555  0.0767
  345SOL    HW1 1034   2.684   2.162   2.901  0.8158  1.0470 -0.9648
  345SOL    HW2 1035   2.818   2.257   2.862 -0.0770  1.6111 -0.8950
  346SOL     OW 1036   2.945   1.715   0.706 -0.1635 -0.3235  0.2827
  346SOL    HW1 1037   2.943   1.685   0.804  1.0774 -3.0766  3.2640
  346SOL    HW2 1038   3.036   1.682   0.666 -1.4951 -0.7009 -1.0310
  347SOL     OW 1039   2.304   2.096   1.312 -0.3103 -0.6583 -0.5977
  347SOL    HW1 1040   2.261   2.057   1.228 -1.3568 -0.1370 -0.6751
  347SOL    HW2 1041   2.294   2.200   1.317  0.2845  1.6519  0.1718
  348SOL     OW 1042   0.594   1.973   2.785 -0.6155 -0.4529 -1.0974
  348SOL    HW1 1043   0.608   1.969   2.687  0.4610  0.6882 -2.0805
  348SOL    HW2 1044   0.663   1.915   2.833 -0.7855 -2.1203  2.8323
  349SOL     OW 1045   2.250   1.426   1.532 -0.0978 -0.0675 -0.6900
  349SOL    HW1 1046   2.175   1.369   1.565  0.7142 -1.1984  3.0628
  349SOL    HW2 1047   2.251   1.509   1.589 -0.8546  0.5439  0.4107
  350SOL     OW 1048   0.182   2.564   0.862 -0.3068  0.1660 -0.6976
  350SOL    HW1 1049   0.108   2.524   0.808  1.1099 -0.8485  0.4795
  350SOL    HW2 1050   0.256   2.493   0.880 -0.5019  0.9767  2.7734
  351SOL     OW 1051   0.471   0.581   2.154 -0.5480  0.5744  0.0606
  351SOL    HW1 1052   0.449   0.682   2.161 -2.4093  3.0515 -0.1144
  351SOL    HW2 1053   0.463   0.541   2.246 -0.4182 -1.3996  0.7472
  352SOL     OW 1054   0.637   2.104   1.501  0.2944  0.0736 -0.3190
  352SOL    HW1 1055   0.649   2.208   1.492 -1.5128  1.0390 -1.8832
  352SOL    HW2 1056   0.543   2.080   1.504  1.5315 -0.2534 -0.3395
  353SOL     OW 1057   1.436   1.763   2.501 -0.2516  0.1354  0.3773
  353SOL    HW1 1058   1.344   1.733   2.471  0.1002  0.9458  0.4753
  353SOL    HW2 1059   1.509   1.703   2.461 -1.0024 -0.4549  2.4314
  354SOL     OW 1060   1.256   0.673   1.053  0.3388  0.1496 -0.2060
  354SOL    HW1 1061   1.309   0.645   0.972 -3.4953 -2.5486 -0.6275
  354SOL    HW2 1062   1.230   0.772   1.037  1.0899  1.5500 -1.5396
  355SOL     OW 1063   2.595   1.099   0.619 -0.5016  0.3598  0.1500
  355SOL    HW1 1064   2.641   1.010   0.607 -0.3243  3.3942  1.7842
  355SOL    HW2 1065   2.612   1.168   0.542 -0.3820  1.8705 -0.7725
  356SOL     OW 1066   2.500   1.533   2.633 -0.2414 -0.3520  0.8201
  356SOL    HW1 1067   2.510   1.473   2.711 -0.2553  0.6299  1.1640
  356SOL    HW2 1068   2.425   1.489   2.577 -0.2663 -0.9317 -2.9518
  357SOL     OW 1069   0.782   2.500   1.332  0.3514 -0.3998 -0.0125
  357SOL    HW1 1070   0.809   2.480   1.240 -0.0372  3.3753  2.2405
  357SOL    HW2 1071   0.777   2.604   1.354  0.8897  2.5718 -0.3608
  358SOL     OW 1072   2.337   1.058   1.841  0.2000  0.5635  0.2409
  358SOL    HW1 1073   2.389   1.065   1.753  1.6748 -1.1645  1.5929
  358SOL    HW2 1074   2.309   0.958   1.859 -0.7265 -0.5353 -0.7618
  359SOL     OW 1075   2.250   2.357   2.927 -0.3290 -0.2306  0.6452
  359SOL    HW1 1076   2.278   2.266   2.960  1.4792  1.6436 -0.4777
  359SOL    HW2 1077   2.311   2.388   2.851  1.6267  1.0568 -0.2357
  360SOL     OW 1078   2.110   0.653   1.065  0.2597 -0.1551 -0.1608
  360SOL    HW1 1079   2.030   0.693   1.116  0.7885 -3.2930  0.2114
  360SOL    HW2 1080   2.141   0.570   1.106 -2.6031  1.9750 -2.6965
  361SOL     OW 1081   2.351   0.098   0.956  0.0726  0.6018 -0.5852
  361SOL    HW1 1082   2.322   0.022   1.019 -0.8141 -1.3347  2.1164
  361SOL    HW2 1083   2.272   0.142   0.911  2.1675  2.5767  1.7130
  362SOL     OW 1084   1.320   0.986   0.443  0.4192 -0.2719  0.0911
  362SOL    HW1 1085   1.251   0.941   0.510 -2.9482  0.7499 -0.0058
  362SOL    HW2 1086   1.288   1.079   0.422 -0.1369 -2.4635  1.8243
  363SOL     OW 1087   2.312   1.395   2.496 -0.2758 -0.5291 -0.1698
  363SOL    HW1 1088   2.381   1.380   2.419  1.8877  0.9027  1.8218
  363SOL    HW2 1089   2.260   1.304   2.506 -2.1097  1.2140  0.2893
  364SOL     OW 1090   1.178   0.552   1.545  0.2884 -0.0059 -0.4381
  364SOL    HW1 1091   1.228   0.633   1.522 -2.3722  0.4481  1.7197
  364SOL    HW2 1092   1.214   0.471   1.499  0.0515 -0.8835  0.5130
  365SOL     OW 1093   0.251   3.016   0.808  0.1942 -0.4498 -0.0938
  365SOL    HW1 1094   0.231   2.934   0.748 -0.5805 -0.0998 -2.2597
  365SOL    HW2 1095   0.181   3.018   0.878 -0.9175  0.1193 -0.6432
  366SOL     OW 1096   2.912   1.566   0.211 -0.0741  0.1331 -0.2105
  366SOL    HW1 1097   2.930   1.582   0.309  0.8816  0.0538  0.9095
  366SOL    HW2 1098   2.919   1.468   0.192 -0.6044 -0.5499  0.4784
  367SOL     OW 1099   2.870   2.657   2.906 -0.3603 -0.3370  0.0768
  367SOL    HW1 1100   2.826   2.663   2.817 -0.6167 -1.8980 -0.7918
  367SOL    HW2 1101   2.799   2.636   2.978 -0.7279 -2.3179 -0.2187
  368SOL     OW 1102   0.229   2.159   0.841 -0.1845 -0.1100 -0.7883
  368SOL    HW1 1103   0.289   2.099   0.784  0.1381 -0.0814  1.4684
  368SOL    HW2 1104   0.196   2.099   0.915 -1.0114 -1.0966  0.4435
  369SOL     OW 1105   0.569   0.179   0.255 -0.1509 -0.1710 -0.1127
  369SOL    HW1 1106   0.539   0.122   0.335  0.1502 -3.7088 -1.8472
  369SOL    HW2 1107   0.604   0.274   0.283 -0.8235  1.7248  1.6033
  370SOL     OW 1108   0.461   1.022   1.038  0.4798  0.3553  0.4651
  370SOL    HW1 1109   0.447   1.055   0.944 -2.2195 -0.5649  1.8319
  370SOL    HW2 1110   0.475   1.092   1.111  2.3414  1.7012  4.4848
  371SOL     OW 1111   2.104   2.487   0.668 -0.0745 -0.1862 -0.5764
  371SOL    HW1 1112   2.142   2.449   0.580 -1.2664 -0.9603 -3.4786
  371SOL    HW2 1113   2.022   2.438   0.703  1.5200 -0.3725  0.3130
  372SOL     OW 1114   0.140   0.986   2.658  0.2741  0.5017  0.1172
  372SOL    HW1 1115   0.102   1.053   2.592  1.2961 -1.0627 -2.3751
  372SOL    HW2 1116   0.207   1.031   2.723  2.6575 -1.4309  0.1730
  373SOL     OW 1117   2.704   1.550   0.509  0.2432 -0.7046 -0.0367
  373SOL    HW1 1118   2.684   1.651   0.510 -0.9647  2.4088  1.5431
  373SOL    HW2 1119   2.767   1.517   0.581 -0.6722  2.1082 -0.9859
  374SOL     OW 1120   0.352   2.573   0.303  0.1866 -0.3228  0.5642
  374SOL    HW1 1121   0.300   2.501   0.355  0.4496 -0.0341  1.0898
  374SOL    HW2 1122   0.316   2.586   0.204 -2.5694  0.5784 -1.4690
  375SOL     OW 1123   0.672   0.414   0.314  0.5663 -0.6475 -0.2586
  375SOL    HW1 1124   0.695   0.432   0.415  1.9280 -0.3142  1.2661
  375SOL    HW2 1125   0.601   0.483   0.278 -1.9233  2.2379 -1.1490
  376SOL     OW 1126   0.193   2.947   1.781 -0.1287  0.2186 -0.2983
  376SOL    HW1 1127   0.212   3.016   1.710  0.4223 -2.0065  0.9738
  376SOL    HW2 1128   0.276   2.920   1.833 -0.0720  1.1254 -0.1561
  377SOL     OW 1129   0.984   2.096   2.485  0.3250 -0.6660 -0.0574
  377SOL    HW1 1130   1.006   2.040   2.401  0.3471 -0.8138  0.1074
  377SOL    HW2 1131   0.960   2.189   2.455 -0.3912 -0.7024 -1.9723
  378SOL     OW 1132   1.175   0.815   0.598 -0.0333 -0.4248  0.3798
  378SOL    HW1 1133   1.131   0.768   0.519  0.8780  0.3354 -0.8770
  378SOL    HW2 1134   1.244   0.751   0.643  2.8441 -0.4649 -1.0845
  379SOL     OW 1135   0.718   1.794   2.940  0.5669 -0.2537  0.7005
  379SOL    HW1 1136   0.681   1.712   2.989 -4.8974 -1.3079  1.1020
  379SOL    HW2 1137   0.760   1.862   3.003 -0.5242  2.2103  1.1530
  380SOL     OW 1138   2.760   2.009   1.859  0.1476  0.0136  0.0273
  380SOL    HW1 1139   2.671   1.964   1.889 -0.1030  1.1646 -0.3541
  380SOL    HW2 1140   2.844   1.962   1.900  2.7562  3.4351  1.6971
  381SOL     OW 1141   0.153   1.363   1.757 -0.1748 -0.4291 -0.2337
  381SOL    HW1 1142   0.223   1.409   1.705 -3.9288  0.7277  1.3343
  381SOL    HW2 1143   0.120   1.298   1.689 -1.1403 -0.6459 -1.4598
  382SOL     OW 1144   2.607   2.291   0.133 -0.4270  0.2713 -0.0028
  382SOL    HW1 1145   2.512   2.305   0.179 -0.3378 -1.7546  0.0557
  382SOL    HW2 1146   2.674   2.356   0.169 -3.6954 -2.1865  0.5181
  383SOL     OW 1147   2.240   1.823   2.405 -0.2458 -0.2310  0.2701
  383SOL    HW1 1148   2.191   1.829   2.314 -2.4491  0.9442 -0.5438
  383SOL    HW2 1149   2.317   1.890   2.408 -1.4526 -0.8024 -2.2618
  384SOL     OW 1150   0.772   2.178   2.157  0.1166 -0.5916 -0.5984
  384SOL    HW1 1151   0.768   2.079   2.182  0.6490  0.9763  2.1881
  384SOL    HW2 1152   0.707   2.239   2.208  0.3344  0.3656  1.3014
  385SOL     OW 1153   2.928   2.176   1.006  0.3651 -0.4199 -0.2200
  385SOL    HW1 1154   2.970   2.150   0.917 -1.2053  0.5844  1.7744
  385SOL    HW2 1155   3.005   2.166   1.073 -0.5875  0.5279 -0.0192
  386SOL     OW 1156   1.982   0.602   0.192  0.0182  0.7155 -0.4053
  386SOL    HW1 1157   1.901   0.635   0.142  2.2961  2.5263 -0.8996
  386SOL    HW2 1158   1.982   0.649   0.279 -0.4255  0.5989  0.0032
  387SOL     OW 1159   0.609   0.639   1.481 -0.3327  0.1112 -0.3583
  387SOL    HW1 1160   0.611   0.614   1.386  1.7550  0.2760  3.1452
  387SOL    HW2 1161   0.570   0.567   1.539  0.5352  2.8812 -2.1755
  388SOL     OW 1162   2.791   1.100   2.113  0.6568  0.4670  0.5292
  388SOL    HW1 1163   2.816   1.198   2.130  1.3036 -0.1027 -2.2271
  388SOL    HW2 1164   2.817   1.044   2.191 -0.2555  3.9070  2.3002
  389SOL     OW 1165   1.438   0.633   2.497  0.0964  0.1287 -0.2834
  389SOL    HW1 1166   1.448   0.676   2.403 -0.1114  2.1499 -2.2690
  389SOL    HW2 1167   1.403   0.538   2.488 -2.5653  1.1888  1.3230
  390SOL     OW 1168   2.048   2.344   0.005  0.0993  0.3083  0.0396
  390SOL    HW1 1169   1.955   2.380   3.100 -1.3946 -0.0865 -1.2175
  390SOL    HW2 1170   2.088   2.320   3.025  3.5182 -1.4522  1.5416
  391SOL     OW 1171   1.908   2.418   1.254  0.2317 -0.1216  0.0184
  391SOL    HW1 1172   1.851   2.343   1.282  2.9581  3.5262 -1.8246
  391SOL    HW2 1173   1.847   2.499   1.258  0.8529 -0.7273 -1.7044
  392SOL     OW 1174   2.701   2.558   1.308 -0.0987  0.4147 -0.2933
  392SOL    HW1 1175   2.732   2.653   1.328 -0.9978  1.3933  0.5793
  392SOL    HW2 1176   2.737   2.521   1.220  1.8508 -0.8253 -0.0903
  393SOL     OW 1177   1.799   1.698   2.667  0.1864 -0.0475  0.1311
  393SOL    HW1 1178   1.876   1.759   2.696  0.0065 -0.1023  1.4221
  393SOL    HW2 1179   1.832   1.610   2.631  1.3009  2.6474 -0.0860
  394SOL     OW 1180   0.273   0.008   3.087  0.1724  0.3603  0.1858
  394SOL    HW1 1181   0.268   3.097   2.989  0.7426  0.6428  1.0844
  394SOL    HW2 1182   0.327   0.092   3.110  0.1230  0.5108 -0.4640
  395SOL     OW 1183   1.569   1.150   1.260 -0.1447  0.3618 -0.1735
  395SOL    HW1 1184   1.544   1.220   1.192  1.8592 -0.3640 -1.3652
  395SOL    HW2 1185   1.596   1.073   1.207 -0.0177  2.3102 -0.3547
  396SOL     OW 1186   1.759   0.695   0.080  0.2948 -0.2276  0.7334
  396SOL    HW1 1187   1.728   0.615   0.028  0.0035  3.4199  0.4427
  396SOL    HW2 1188   1.755   0.784   0.029  1.0928 -1.4620 -0.2240
  397SOL     OW 1189   3.080   0.867   2.838 -0.6827  0.1443 -0.6547
  397SOL    HW1 1190   2.990   0.871   2.794  1.7703 -1.0393  1.4421
  397SOL    HW2 1191   0.043   0.888   2.775  0.0127 -0.0018  0.6631
  398SOL     OW 1192   1.242   0.131   0.009 -0.3225 -0.6952  0.0443
  398SOL    HW1 1193   1.292   0.100   0.094 -1.7296 -0.7421  0.4540
  398SOL    HW2 1194   1.256   0.056   3.052  0.0631  0.9450  0.4916
  399SOL     OW 1195   2.134   2.941   2.128 -0.2381 -0.3784  0.1568
  399SOL    HW1 1196   2.212   2.963   2.066 -2.8658  0.7036  2.0544
  399SOL    HW2 1197   2.089   2.856   2.099  3.5429  1.3956 -1.3493
  400SOL     OW 1198   2.961   1.615   2.470 -0.1302  0.4947  0.3141
  400SOL    HW1 1199   3.024   1.592   2.548  0.9094 -0.4507  1.9448
  400SOL    HW2 1200   3.012   1.607   2.386 -2.9253 -0.3244  2.6464
  401SOL     OW 1201   0.481   0.269   2.799  0.3080  0.1343  0.4393
  401SOL    HW1 1202   0.470   0.345   2.866 -2.3156 -2.1406 -0.9561
  401SOL    HW2 1203   0.577   0.271   2.764 -2.4508  1.0560 -1.4417
  402SOL     OW 1204   0.326   2.526   1.774 -0.3135 -0.0848 -0.2179
  402SOL    HW1 1205   0.353   2.601   1.710 -0.0096 -3.1537 -0.3192
  402SOL    HW2 1206   0.399   2.511   1.846  0.4924  0.3177  0.1242
  403SOL     OW 1207   0.989   1.302   1.367  0.3652  0.4459  0.2846
  403SOL    HW1 1208   0.921   1.256   1.428  1.8819  0.8486 -1.9764
  403SOL    HW2 1209   1.048   1.367   1.419 -1.3272  2.2210 -2.1672
  404SOL     OW 1210   2.729   2.637   1.627  0.1519 -0.3112 -0.5036
  404SOL    HW1 1211   2.634   2.635   1.597  1.1807 -1.7748 -0.3830
  404SOL    HW2 1212   2.790   2.655   1.548 -1.4872  0.3503  0.7880
  405SOL     OW 1213   2.948   0.573   1.986  0.0914  1.1537  0.0364
  405SOL    HW1 1214   2.876   0.630   2.038 -0.3050  1.3702 -0.2532
  405SOL    HW2 1215   2.994   0.501   2.041 -1.0234 -0.4779 -0.2051
  406SOL     OW 1216   1.477   2.550   2.744  0.8351 -0.1088 -0.3097
  406SOL    HW1 1217   1.429   2.483   2.810  0.9606  0.1334  1.2698
  406SOL    HW2 1218   1.570   2.516   2.728  0.9249  4.2371 -0.4956
  407SOL     OW 1219   1.671   1.941   1.077  0.0710  0.0879  0.1001
  407SOL    HW1 1220   1.702   1.881   1.155 -0.2522  0.1408 -0.3500
  407SOL    HW2 1221   1.730   1.927   0.992  0.6661  1.5724  1.5193
  408SOL     OW 1222   0.688   0.216   2.152  0.5363  0.0683  0.3604
  408SOL    HW1 1223   0.642   0.124   2.143 -1.4060 -0.4940  2.4682
  408SOL    HW2 1224   0.790   0.204   2.167  0.1030  0.9433 -0.1216
  409SOL     OW 1225   2.682   2.230   0.452  0.1672  0.4332  0.2800
  409SOL    HW1 1226   2.619   2.199   0.523  2.1839  3.1051 -1.8342
  409SOL    HW2 1227   2.703   2.161   0.379 -0.2299 -2.7254 -0.5403
  410SOL     OW 1228   2.082   1.633   0.385 -0.5123 -0.1399  0.2269
  410SOL    HW1 1229   2.173   1.674   0.363  2.1885  3.1887 -1.2778
  410SOL    HW2 1230   2.073   1.594   0.476 -0.9065 -0.7688 -2.4216
  411SOL     OW 1231   0.061   0.649   0.548 -0.4591 -0.4328 -0.2140
  411SOL    HW1 1232   0.143   0.664   0.608 -3.3240 -0.5687  4.6749
  411SOL    HW2 1233   0.028   0.743   0.528  3.2744  0.2410  3.4339
  412SOL     OW 1234   1.896   0.496   0.533 -0.0169 -0.3604  0.1141
  412SOL    HW1 1235   1.904   0.495   0.635 -0.4509 -0.6780 -3.5148
  412SOL    HW2 1236   1.906   0.587   0.498 -0.6258 -3.2318  3.0974
  413SOL     OW 1237   0.973   0.610   1.012 -0.1141 -0.0797  0.2494
  413SOL    HW1 1238   0.933   0.547   1.081  0.0104  1.9561  3.1166
  413SOL    HW2 1239   1.076   0.619   1.029  2.1249  1.0621 -0.1677
  414SOL     OW 1240   0.392   1.694   3.065  0.3012 -0.0044 -0.3490
  414SOL    HW1 1241   0.306   1.641   3.086 -2.4105  0.6134  0.0904
  414SOL    HW2 1242   0.389   1.792   3.101  1.8315 -0.3294 -2.6514
  415SOL     OW 1243   0.354   1.959   0.053 -0.1172  0.2619  0.1520
  415SOL    HW1 1244   0.433   2.025   0.058  0.3015 -1.3175 -1.0168
  415SOL    HW2 1245   0.271   2.009   0.029  0.9718  1.2571 -0.5834
  416SOL     OW 1246   1.650   0.675   0.336  0.3095  0.8566  0.2927
  416SOL    HW1 1247   1.711   0.686   0.252  1.5007 -0.2960 -3.0651
  416SOL    HW2 1248   1.676   0.737   0.409 -1.3888 -2.3294 -3.7548
  417SOL     OW 1249   0.309   0.909   0.662 -0.2454  0.1477  0.3668
  417SOL    HW1 1250   0.238   0.892   0.734  1.0608  3.1919  0.6116
  417SOL    HW2 1251   0.366   0.986   0.693  2.3430 -3.3580 -0.2372
  418SOL     OW 1252   2.494   1.045   2.715 -0.1826  0.3340 -0.3545
  418SOL    HW1 1253   2.423   1.113   2.703 -0.2498  1.0438 -1.3220
  418SOL    HW2 1254   2.484   0.996   2.803 -3.9993  2.5802  0.7444
  419SOL     OW 1255   0.280   0.343   0.324  0.4594  0.6595 -0.4258
  419SOL    HW1 1256   0.341   0.376   0.400  0.6782  0.1965  0.9248
  419SOL    HW2 1257   0.312   0.250   0.297 -0.9596  0.7972  0.6427
  420SOL     OW 1258   0.278   1.596   0.772  0.3973  0.4985  0.4074
  420SOL    HW1 1259   0.267   1.535   0.852  0.5911  2.2830 -1.7530
  420SOL    HW2 1260   0.368   1.643   0.780  1.4630  1.1103 -2.6444
  421SOL     OW 1261   0.440   2.072   0.435 -0.0114  0.4146  0.3697
  421SOL    HW1 1262   0.532   2.094   0.388 -0.3888  1.4966  0.7672
  421SOL    HW2 1263   0.450   2.072   0.534 -2.5763  1.3769 -0.4788
  422SOL     OW 1264   2.830   0.618   1.349 -0.1817 -0.6999 -0.2353
  422SOL    HW1 1265   2.928   0.593   1.367  1.1643 -0.2386  1.2990
  422SOL    HW2 1266   2.772   0.537   1.374 -1.5570 -1.9671 -1.3437
  423SOL     OW 1267   1.785   1.816   0.870 -0.4189  0.3035  0.1482
  423SOL    HW1 1268   1.798   1.720   0.896  0.9923  1.9749 -1.3231
  423SOL    HW2 1269   1.741   1.832   0.778 -1.7524  0.6198  0.3480
  424SOL     OW 1270   1.835   1.124   0.442 -0.2894 -0.3220  0.0798
  424SOL    HW1 1271   1.907   1.123   0.368 -1.2290  0.5295  1.0990
  424SOL    HW2 1272   1.747   1.157   0.407 -1.4794  0.0592  0.8826
  425SOL     OW 1273   0.066   2.910   2.245  0.0448  0.0709 -0.0713
  425SOL    HW1 1274   0.068   3.013   2.260 -2.2276 -1.9510  0.2676
  425SOL    HW2 1275   3.086   2.881   2.221 -1.8424 -1.6429  1.6495
  426SOL     OW 1276   2.443   2.691   2.926  0.1785  0.3206  0.1245
  426SOL    HW1 1277   2.513   2.686   2.999 -0.3820  0.0427  0.4712
  426SOL    HW2 1278   2.442   2.785   2.885  0.5028 -1.1597 -2.0449
  427SOL     OW 1279   0.860   0.981   2.513 -0.0318 -0.8065 -0.1363
  427SOL    HW1 1280   0.828   0.901   2.568 -1.1010  2.4741 -3.2489
  427SOL    HW2 1281   0.961   0.985   2.509 -1.6329 -1.6815  1.4743
  428SOL     OW 1282   2.125   0.708   2.471 -0.1004  0.5664 -0.4695
  428SOL    HW1 1283   2.214   0.747   2.499 -0.8909  1.2808 -3.3259
  428SOL    HW2 1284   2.050   0.760   2.516  0.5965  0.0876  2.4081
  429SOL     OW 1285   2.548   0.367   0.703  0.2057  0.2337 -0.2741
  429SOL    HW1 1286   2.552   0.298   0.626 -0.9331 -1.1054 -2.3813
  429SOL    HW2 1287   2.455   0.409   0.714  0.0030  1.7451  1.8888
  430SOL     OW 1288   1.989   1.192   2.274 -0.7364  0.0715 -0.2368
  430SOL    HW1 1289   2.052   1.157   2.348 -0.4120 -1.2724 -1.9776
  430SOL    HW2 1290   1.998   1.130   2.199  0.0982  0.0377  0.9409
  431SOL     OW 1291   3.055   2.132   1.355 -0.1378  0.3361 -0.3787
  431SOL    HW1 1292   3.031   2.225   1.381 -0.7524 -2.2614 -0.4213
  431SOL    HW2 1293   3.103   2.084   1.429 -0.1963 -0.2896  1.4161
  432SOL     OW 1294   1.365   2.876   2.461  0.3451 -0.7701 -0.2259
  432SOL    HW1 1295   1.370   2.948   2.531  0.5980  1.3729 -0.0371
  432SOL    HW2 1296   1.396   2.913   2.370  0.9240  0.4529 -1.3764
  433SOL     OW 1297   1.481   2.804   1.565  0.0049 -0.3037  0.2204
  433SOL    HW1 1298   1.565   2.746   1.561 -0.0679 -1.1384 -2.2822
  433SOL    HW2 1299   1.506   2.900   1.592 -0.4136  0.5601  1.6226
  434SOL     OW 1300   3.103   2.435   2.265  0.5324 -0.0962  0.2397
  434SOL    HW1 1301   0.041   2.482   2.342 -0.4048  0.5758 -0.4532
  434SOL    HW2 1302   0.013   2.473   2.172 -0.3399  0.6971 -0.9160
  435SOL     OW 1303   2.980   2.050   0.118 -0.3856 -0.4513  0.2682
  435SOL    HW1 1304   3.018   1.997   0.039 -3.1771  2.4247  0.5279
  435SOL    HW2 1305   3.032   2.034   0.204 -0.8531 -1.2706  0.8243
  436SOL     OW 1306   0.815   1.173   1.899  0.1583  0.0229  0.0084
  436SOL    HW1 1307   0.883   1.100   1.894 -1.7186  1.0818  0.4774
  436SOL    HW2 1308   0.806   1.204   1.997  1.2212  2.5542 -0.7912
  437SOL     OW 1309   0.265   0.291   2.637  0.0726 -0.4157 -0.6827
  437SOL    HW1 1310   0.335   0.292   2.710 -1.7190 -1.8348  1.4593
  437SOL    HW2 1311   0.235   0.198   2.614  4.0629  0.8045 -0.7793
  438SOL     OW 1312   0.732   1.727   1.727 -0.2745 -0.2731  0.5854
  438SOL    HW1 1313   0.727   1.824   1.699  0.5969  3.4857  0.0559
  438SOL    HW2 1314   0.766   1.670   1.657 -0.6621  2.2982  4.3460
  439SOL     OW 1315   1.940   1.010   3.055 -0.0352 -0.3075 -0.8899
  439SOL    HW1 1316   1.842   1.005   3.090 -0.8580  0.7308 -0.7243
  439SOL    HW2 1317   1.999   0.933   3.088  0.9372 -2.0118 -0.9564
  440SOL     OW 1318   0.907   0.996   0.007 -0.0793 -0.9066  0.3863
  440SOL    HW1 1319   0.978   1.002   0.083  1.9811 -0.3075  2.3989
  440SOL    HW2 1320   0.816   0.995   0.052 -1.5940  4.2996 -0.2465
  441SOL     OW 1321   0.519   2.703   1.549  0.4194 -0.4656 -0.3083
  441SOL    HW1 1322   0.477   2.637   1.484 -2.4731  1.0663  2.6148
  441SOL    HW2 1323   0.463   2.793   1.559 -3.6695 -0.2958  0.1076
  442SOL     OW 1324   2.396   2.393   0.785  0.2761 -0.1122  0.3787
  442SOL    HW1 1325   2.360   2.309   0.740  0.1416 -0.9139 -0.6666
  442SOL    HW2 1326   2.336   2.438   0.856  2.4135  1.0693  2.5063
  443SOL     OW 1327   2.759   1.441   2.458  0.0360 -0.2839 -0.4784
  443SOL    HW1 1328   2.668   1.469   2.498 -2.2660  0.6698 -0.6097
  443SOL    HW2 1329   2.835   1.503   2.490  0.1582 -2.2808  0.3992
  444SOL     OW 1330   1.150   0.809   2.833  0.3737  0.1780 -0.3493
  444SOL    HW1 1331   1.148   0.732   2.903 -1.8644 -1.7160 -0.0444
  444SOL    HW2 1332   1.062   0.860   2.835 -0.2119 -1.1655  1.2926
  445SOL     OW 1333   2.294   2.632   1.737 -0.2106  0.4664 -0.3674
  445SOL    HW1 1334   2.356   2.616   1.820  0.4889  2.1040 -1.3483
  445SOL    HW2 1335   2.206   2.580   1.747  0.6687  1.7877 -0.7577
  446SOL     OW 1336   2.779   1.980   0.281  0.0559  1.1254  0.1726
  446SOL    HW1 1337   2.834   2.013   0.204 -0.5849 -0.9941  1.0329
  446SOL    HW2 1338   2.828   1.969   0.369  1.2857 -0.1778  1.9517
  447SOL     OW 1339   0.971   2.404   1.486  0.4768  0.5201  0.0545
  447SOL    HW1 1340   0.983   2.482   1.541  0.4520 -3.1362  0.5833
  447SOL    HW2 1341   0.887   2.417   1.433  1.0014 -0.7442  0.1526
  448SOL     OW 1342   1.506   1.570   1.923  0.6765 -0.0961  0.5381
  448SOL    HW1 1343   1.559   1.652   1.955  1.3102  1.7588  0.2059
  448SOL    HW2 1344   1.445   1.532   1.997 -1.0704 -1.0068 -0.1186
  449SOL     OW 1345   0.124   1.958   2.227 -0.0976 -0.5637 -0.2907
  449SOL    HW1 1346   0.077   2.049   2.236 -0.1915 -0.3287  3.3432
  449SOL    HW2 1347   0.210   1.964   2.167  1.8227 -1.0066  1.1449
  450SOL     OW 1348   2.702   1.746   2.649  0.3538  0.2856  0.3238
  450SOL    HW1 1349   2.631   1.676   2.634  1.6283  1.7010 -2.4487
  450SOL    HW2 1350   2.694   1.818   2.576 -0.6724 -0.2151  1.3072
  451SOL     OW 1351   2.097   0.587   1.547  0.4346 -0.2371  0.1115
  451SOL    HW1 1352   2.164   0.620   1.475  2.0105 -0.1073 -2.4947
  451SOL    HW2 1353   2.111   0.488   1.569  1.1566  0.4096  1.0629
  452SOL     OW 1354   0.912   1.588   1.081 -0.2328 -0.2007  0.2075
  452SOL    HW1 1355   0.846   1.639   1.138  2.2501 -3.9479 -2.7662
  452SOL    HW2 1356   0.879   1.487   1.072  1.2193  0.6324 -3.0596
  453SOL     OW 1357   1.305   2.138   0.866  0.3046  0.2272 -0.3148
  453SOL    HW1 1358   1.401   2.163   0.878 -1.1928 -0.8907 -1.1926
  453SOL    HW2 1359   1.245   2.218   0.862  0.2400 -2.5288 -1.3213
  454SOL     OW 1360   0.243   1.131   0.492 -0.1232  0.1993  0.1862
  454SOL    HW1 1361   0.180   1.050   0.509 -0.5213  0.8073  1.5839
  454SOL    HW2 1362   0.226   1.201   0.564  2.1520  0.7472 -0.7125
  455SOL     OW 1363   0.971   1.034   0.425  0.0395 -0.4086  0.6380
  455SOL    HW1 1364   1.029   1.013   0.342  2.2319  1.0884 -1.1151
  455SOL    HW2 1365   0.987   1.131   0.457  0.4311 -1.2426  1.0191
  456SOL     OW 1366   2.137   2.287   1.125 -0.3077  0.0640  0.2109
  456SOL    HW1 1367   2.070   2.323   1.189 -1.0381  0.3609  0.7415
  456SOL    HW2 1368   2.157   2.355   1.051 -0.0977  1.5428  0.2030
  457SOL     OW 1369   1.491   3.077   2.832 -0.6492 -0.3207  0.2916
  457SOL    HW1 1370   1.502   2.977   2.811 -1.0875 -0.4818 -0.8224
  457SOL    HW2 1371   1.421   3.074   2.902 -0.3570  0.1883 -0.3029
  458SOL     OW 1372   2.613   0.249   0.221 -0.2453  0.1342 -0.5114
  458SOL    HW1 1373   2.567   0.335   0.248  2.1509 -1.5784 -0.8978
  458SOL    HW2 1374   2.567   0.170   0.263  1.4106  1.9350  3.0454
  459SOL     OW 1375   2.316   0.271   2.252 -0.0992 -0.2877 -0.3083
  459SOL    HW1 1376   2.231   0.326   2.261  2.0378  1.6801 -1.6439
  459SOL    HW2 1377   2.395   0.339   2.250 -0.7520  0.7674  0.2860
  460SOL     OW 1378   2.838   0.776   2.723  0.1502 -0.1051 -0.4279
  460SOL    HW1 1379   2.920   0.723   2.694  1.4361 -1.5087 -2.2034
  460SOL    HW2 1380   2.810   0.763   2.821 -0.2051 -0.8164 -0.1985
  461SOL     OW 1381   3.063   2.176   0.788  1.0166 -0.1111  0.1092
  461SOL    HW1 1382   0.056   2.184   0.785 -2.6077 -0.9159  0.0051
  461SOL    HW2 1383   3.022   2.219   0.701 -1.7553  2.7663  0.9092
  462SOL     OW 1384   0.001   0.212   1.057  0.4359 -0.2523  0.1491
  462SOL    HW1 1385   3.036   0.237   0.994  1.4896  0.3579  0.0164
  462SOL    HW2 1386   3.081   0.230   1.153  0.0253 -1.2351  1.9310
  463SOL     OW 1387   2.147   1.404   0.252 -1.0635  0.0414 -0.4329
  463SOL    HW1 1388   2.108   1.491   0.293 -1.5007  2.5398 -0.8512
  463SOL    HW2 1389   2.218   1.426   0.185 -0.6704  1.3925  0.8176
  464SOL     OW 1390   0.775   2.746   1.442 -0.0616  0.1744  0.0909
  464SOL    HW1 1391   0.833   2.829   1.453  0.5235  1.2695 -2.0857
  464SOL    HW2 1392   0.693   2.749   1.499  2.1557  0.1228 -0.8338
  465SOL     OW 1393   1.321   0.294   1.452 -0.3050  0.1851  0.7646
  465SOL    HW1 1394   1.399   0.328   1.510  1.6061 -0.0272 -0.2607
  465SOL    HW2 1395   1.254   0.252   1.516  2.7723  2.6850 -0.9512
  466SOL     OW 1396   1.669   2.475   1.957  0.5561  0.2513 -0.0732
  466SOL    HW1 1397   1.736   2.455   2.034  1.4869  1.4146  2.2015
  466SOL    HW2 1398   1.569   2.473   1.988 -0.0263  0.7324 -0.0554
  467SOL     OW 1399   0.610   2.397   1.518  0.2075  1.0445 -0.0712
  467SOL    HW1 1400   0.519   2.417   1.479  0.9769 -2.6420 -0.1822
  467SOL    HW2 1401   0.683   2.442   1.465 -0.0818 -1.6569  0.8609
  468SOL     OW 1402   2.601   1.572   2.120 -0.8342 -0.2869  0.1986
  468SOL    HW1 1403   2.664   1.491   2.129  2.0612 -2.0163 -0.8327
  468SOL    HW2 1404   2.644   1.661   2.144 -0.6022 -0.7365  2.3781
  469SOL     OW 1405   0.946   2.034   0.743  0.2657  0.0722  0.9092
  469SOL    HW1 1406   0.886   2.102   0.792  1.3580 -2.2380 -2.3978
  469SOL    HW2 1407   0.960   1.954   0.806 -1.2351 -0.1322  2.1274
  470SOL     OW 1408   2.202   1.136   2.467  0.4398 -0.7789 -0.9379
  470SOL    HW1 1409   2.267   1.080   2.417  2.1235  1.5284  0.1240
  470SOL    HW2 1410   2.155   1.084   2.540  1.3986 -1.5512  0.0645
  471SOL     OW 1411   0.239   2.567   0.053 -0.5633 -0.1190  0.1967
  471SOL    HW1 1412   0.242   2.647   3.102  2.3328  1.0116  0.7104
  471SOL    HW2 1413   0.258   2.482   0.005 -1.3954  0.5328  2.6113
  472SOL     OW 1414   0.207   2.771   2.040  0.0120 -0.2393  0.3318
  472SOL    HW1 1415   0.170   2.831   2.111  0.2904  0.1885 -2.0264
  472SOL    HW2 1416   0.304   2.795   2.018  1.1094  0.3469 -1.7494
  473SOL     OW 1417   0.552   2.928   0.138 -0.2507  0.7911 -0.3040
  473SOL    HW1 1418   0.460   2.929   0.096 -0.2836 -2.2879 -0.2156
  473SOL    HW2 1419   0.604   3.011   0.114 -0.4956 -0.2432 -2.8058
  474SOL     OW 1420   2.034   2.994   1.071  0.3716 -0.3447  0.9291
  474SOL    HW1 1421   2.029   2.991   0.966 -0.4925 -1.9484 -2.7614
  474SOL    HW2 1422   2.125   2.956   1.109  2.6358 -2.0666  2.3404
  475SOL     OW 1423   1.595   3.061   1.569 -0.0078  0.0384 -0.4195
  475SOL    HW1 1424   1.632   0.019   1.638  0.3973  1.2752  3.3566
  475SOL    HW2 1425   1.564   3.102   1.486  0.8653 -1.1774 -0.0759
  476SOL     OW 1426   0.597   1.451   0.717 -0.2023  0.9570  0.1955
  476SOL    HW1 1427   0.547   1.511   0.786 -0.5512 -0.1913  0.7323
  476SOL    HW2 1428   0.636   1.363   0.757  2.6691  0.4332  0.4178
  477SOL     OW 1429   0.418   2.026   0.710  0.3943  0.3783  0.0993
  477SOL    HW1 1430   0.424   1.923   0.673  2.8457 -5.2725 -0.5206
  477SOL    HW2 1431   0.490   2.041   0.784 -0.5323 -1.3050 -0.7992
  478SOL     OW 1432   0.050   2.579   2.497 -0.3100  0.7063  0.3108
  478SOL    HW1 1433   0.014   2.663   2.540 -0.7606 -1.6256 -0.1430
  478SOL    HW2 1434   3.102   2.502   2.535  0.7972  0.4332  2.4311
  479SOL     OW 1435   3.078   0.558   1.407  0.3058  0.0838  0.3753
  479SOL    HW1 1436   0.057   0.575   1.365 -1.6285  3.1662 -1.7055
  479SOL    HW2 1437   3.091   0.559   1.507 -3.8131 -1.1014  0.4149
  480SOL     OW 1438   2.706   2.648   0.023 -0.3836  0.1886  0.2528
  480SOL    HW1 1439   2.779   2.602   0.079 -0.3327  1.8617  2.0620
  480SOL    HW2 1440   2.614   2.636   0.069  0.4402 -0.1941 -1.8398
  481SOL     OW 1441   2.345   1.929   1.809  0.1620  0.9099  0.0201
  481SOL    HW1 1442   2.284   1.979   1.879 -1.3119  0.8519 -2.1725
  481SOL    HW2 1443   2.362   1.984   1.723 -1.1279  2.9546  3.5410
  482SOL     OW 1444   1.821   2.087   2.501 -0.1099 -0.0845 -0.2275
  482SOL    HW1 1445   1.921   2.060   2.503  0.3140  2.5911 -0.6301
  482SOL    HW2 1446   1.763   2.038   2.432  2.4603 -1.2325 -2.0285
  483SOL     OW 1447   0.784   1.218   2.171 -0.0446 -0.1450 -0.2479
  483SOL    HW1 1448   0.776   1.119   2.185  0.0916  1.1443  1.5789
  483SOL    HW2 1449   0.864   1.259   2.223  0.2759 -0.3007  2.8022
  484SOL     OW 1450   0.239   0.561   1.324 -0.1747  0.1448 -0.2856
  484SOL    HW1 1451   0.294   0.480   1.290  0.6851 -0.8640 -1.0110
  484SOL    HW2 1452   0.248   0.641   1.264  1.7916 -2.0975 -0.0093
  485SOL     OW 1453   2.297   0.993   0.165  0.2775 -0.2290  0.2391
  485SOL    HW1 1454   2.381   0.936   0.160 -0.8775 -1.4787  0.0679
  485SOL    HW2 1455   2.299   1.051   0.244 -2.7837  0.0040 -1.0216
  486SOL     OW 1456   1.642   0.279   2.211 -0.3868 -0.1075 -0.4904
  486SOL    HW1 1457   1.631   0.187   2.161 -0.3630 -0.7302 -0.1407
  486SOL    HW2 1458   1.652   0.263   2.317 -1.1324 -0.5020  3.4937
  487SOL     OW 1459   0.847   1.990   1.378  0.2442  0.7436 -0.0734
  487SOL    HW1 1460   0.771   2.032   1.433 -0.9927  1.1331 -1.6079
  487SOL    HW2 1461   0.923   1.941   1.432  0.8265 -0.5291  3.5863
  488SOL     OW 1462   2.359   1.465   0.113 -0.1820 -0.5101 -0.5702
  488SOL    HW1 1463   2.445   1.423   0.086 -0.9607 -0.1259  0.6060
  488SOL    HW2 1464   2.337   1.543   0.054  0.4143 -0.9504  2.6130
  489SOL     OW 1465   2.157   2.773   0.668 -0.9629 -0.0004 -0.1181
  489SOL    HW1 1466   2.148   2.672   0.659 -0.3579 -1.1310  1.9011
  489SOL    HW2 1467   2.203   2.805   0.583  0.0692 -1.8183 -1.0167
  490SOL     OW 1468   1.045   2.575   0.076 -0.2043 -0.1569 -0.0915
  490SOL    HW1 1469   0.950   2.574   0.047  2.4899 -0.6332 -1.0213
  490SOL    HW2 1470   1.059   2.557   0.176  2.0333  2.5425 -1.4570
  491SOL     OW 1471   1.059   1.075   1.217  0.2839 -0.4341  0.1428
  491SOL    HW1 1472   1.031   1.149   1.287 -0.2168  2.0698  0.8462
  491SOL    HW2 1473   1.116   1.123   1.143  1.3378  1.5721 -1.6225
  492SOL     OW 1474   1.231   0.321   2.314  0.0755  0.1567 -0.1077
  492SOL    HW1 1475   1.243   0.261   2.235 -0.9545  1.9589  2.1654
  492SOL    HW2 1476   1.300   0.303   2.384 -1.3715  0.6161  0.5955
  493SOL     OW 1477   1.952   2.119   0.328 -0.0176 -0.5779  0.4032
  493SOL    HW1 1478   1.959   2.179   0.246  0.3322 -0.1020  1.6925
  493SOL    HW2 1479   1.863   2.076   0.342 -1.2097 -0.2869 -1.7550
  494SOL     OW 1480   0.810   1.621   0.649 -0.2864  0.1496 -0.4874
  494SOL    HW1 1481   0.766   1.667   0.568 -1.1786  2.0378 -2.5710
  494SOL    HW2 1482   0.747   1.547   0.685  0.4211 -1.1527  1.4921
  495SOL     OW 1483   2.651   2.387   0.785 -0.4287  0.5907  0.4620
  495SOL    HW1 1484   2.687   2.299   0.827 -1.3062 -2.8688 -2.5796
  495SOL    HW2 1485   2.551   2.377   0.785 -0.7038  1.3077 -0.6970
  496SOL     OW 1486   2.617   0.094   1.521 -0.4049 -0.3595  0.0908
  496SOL    HW1 1487   2.650   0.101   1.620 -0.1220 -0.7044  0.4713
  496SOL    HW2 1488   2.543   0.164   1.513 -0.1620  2.1407 -3.6853
  497SOL     OW 1489   2.363   0.831   2.530 -0.0403  0.0230 -0.3054
  497SOL    HW1 1490   2.391   0.861   2.437  0.8692 -0.5270 -1.7889
  497SOL    HW2 1491   2.342   0.906   2.592  1.2681 -2.7017 -0.3023
  498SOL     OW 1492   0.467   2.381   1.138  0.0753 -0.0901 -0.0022
  498SOL    HW1 1493   0.426   2.380   1.043 -0.8112 -0.0860 -2.1860
  498SOL    HW2 1494   0.410   2.317   1.198  0.7035  1.3495 -0.3071
  499SOL     OW 1495   1.047   2.586   1.682 -0.5875 -0.2261  0.0127
  499SOL    HW1 1496   1.040   2.669   1.738  1.9217  0.1751 -1.1179
  499SOL    HW2 1497   1.148   2.568   1.665 -1.8320 -0.3620  1.1737
  500SOL     OW 1498   0.813   1.944   0.048 -0.3191  0.1861 -0.4264
  500SOL    HW1 1499   0.897   1.936   3.106 -1.4355 -1.9570 -0.7670
  500SOL    HW2 1500   0.800   1.862   0.114  1.1302 -0.7279 -0.8951
  501SOL     OW 1501   2.087   0.122   1.145 -0.6061 -0.0880 -0.2159
  501SOL    HW1 1502   2.068   0.029   1.110  2.5885 -1.6120 -1.3627
  501SOL    HW2 1503   2.035   0.144   1.236 -1.7016 -1.2930  0.3750
  502SOL     OW 1504   2.723   0.411   1.837  0.2735 -0.1525  0.8581
  502SOL    HW1 1505   2.747   0.323   1.793  0.4543 -0.6653  2.2302
  502SOL    HW2 1506   2.807   0.452   1.876  3.4525  0.8451 -3.2829
  503SOL     OW 1507   2.723   1.066   1.826 -0.0721 -0.3559  0.0596
  503SOL    HW1 1508   2.808   1.076   1.770  4.8749  0.0987 -1.3118
  503SOL    HW2 1509   2.740   1.092   1.923  2.6640 -2.2252 -1.7848
  504SOL     OW 1510   1.577   0.908   1.917  0.2762 -0.0804  0.1371
  504SOL    HW1 1511   1.627   0.841   1.980  2.3393 -0.1595  0.1914
  504SOL    HW2 1512   1.484   0.869   1.895 -1.6797  0.4106  0.5980
  505SOL     OW 1513   0.884   3.097   1.894  0.3872  0.3005  0.1260
  505SOL    HW1 1514   0.847   3.017   1.955 -1.7124 -2.0442  1.3484
  505SOL    HW2 1515   0.979   3.072   1.863 -0.6087 -2.2468 -2.8541
  506SOL     OW 1516   0.229   0.147   0.673 -0.1832 -0.4547 -0.0899
  506SOL    HW1 1517   0.322   0.186   0.679  1.6933 -0.2216 -0.5340
  506SOL    HW2 1518   0.233   0.058   0.726  0.2682  2.4666  0.1243
  507SOL     OW 1519   2.403   0.387   0.009  0.1075  0.2022 -0.4141
  507SOL    HW1 1520   2.391   0.402   0.107 -0.1319  0.0674 -1.3592
  507SOL    HW2 1521   2.313   0.391   3.068 -2.7097 -2.1660  0.1704
  508SOL     OW 1522   1.936   0.334   2.227 -0.1908  0.2231 -0.4038
  508SOL    HW1 1523   2.006   0.403   2.257 -0.0240 -1.3997  2.7778
  508SOL    HW2 1524   1.865   0.310   2.296  0.1793 -0.4350 -1.1275
  509SOL     OW 1525   1.357   1.540   1.582 -0.3700  0.0359 -0.4717
  509SOL    HW1 1526   1.422   1.477   1.634  1.6722 -1.3105  1.3078
  509SOL    HW2 1527   1.295   1.488   1.521 -1.9559  0.4925  0.4366
  510SOL     OW 1528   2.674   1.420   0.781 -0.5009  0.2355 -0.0064
  510SOL    HW1 1529   2.658   1.337   0.833  1.9304 -0.2871 -0.5957
  510SOL    HW2 1530   2.616   1.496   0.821  0.5342  0.7575 -1.2987
  511SOL     OW 1531   1.831   1.776   1.272  0.3285 -0.1381 -0.9842
  511SOL    HW1 1532   1.802   1.719   1.357  0.9916 -2.3164  0.6537
  511SOL    HW2 1533   1.869   1.865   1.304 -0.3120 -0.3887 -0.4333
  512SOL     OW 1534   0.095   1.758   0.319 -0.3513  0.1024 -0.0430
  512SOL    HW1 1535   0.091   1.680   0.250 -2.0824  0.0844 -2.1318
  512SOL    HW2 1536   0.187   1.802   0.319 -0.7998 -0.4357 -0.0735
  513SOL     OW 1537   3.020   2.305   0.034  0.1534  0.1270  0.6184
  513SOL    HW1 1538   2.990   2.209   0.056 -0.9087 -0.2273  0.0640
  513SOL    HW2 1539   3.090   2.335   0.104 -0.9912 -0.0032  2.5133
  514SOL     OW 1540   2.663   1.955   2.429 -0.3551 -0.8241  0.9199
  514SOL    HW1 1541   2.732   2.004   2.484 -2.6871 -1.2375  0.4494
  514SOL    HW2 1542   2.569   1.991   2.456 -2.6200  0.1342 -1.9504
  515SOL     OW 1543   1.883   1.408   0.553  0.0928 -0.0800  0.4175
  515SOL    HW1 1544   1.792   1.455   0.531 -2.8325  0.8652 -0.2217
  515SOL    HW2 1545   1.877   1.312   0.552 -2.0606 -1.3502 -0.5282
  516SOL     OW 1546   1.955   2.972   0.334 -0.1014 -0.2923  0.0798
  516SOL    HW1 1547   1.929   3.042   0.404  0.2055  0.6132 -0.8212
  516SOL    HW2 1548   1.954   2.873   0.369  0.3306 -0.7092  0.3109
  517SOL     OW 1549   0.666   2.038   2.529  0.2800  0.5923 -0.4058
  517SOL    HW1 1550   0.739   1.993   2.477 -3.1755 -1.0163 -0.2400
  517SOL    HW2 1551   0.582   2.036   2.466 -2.0525  1.5732 -2.8110
  518SOL     OW 1552   0.535   0.386   1.989  0.4348 -0.2609  0.0508
  518SOL    HW1 1553   0.512   0.467   2.046 -0.6883  2.1684  0.0603
  518SOL    HW2 1554   0.605   0.329   2.034 -1.3326  1.2323  0.1119
  519SOL     OW 1555   0.273   1.192   0.185  0.4858 -0.0574 -0.6725
  519SOL    HW1 1556   0.265   1.110   0.120 -2.0368 -1.5123  0.7678
  519SOL    HW2 1557   0.274   1.161   0.284 -0.7968  2.0503  0.7485
  520SOL     OW 1558   2.875   1.734   1.548 -0.1727  0.4481  0.2151
  520SOL    HW1 1559   2.848   1.684   1.632 -3.8006  0.0730 -0.8707
  520SOL    HW2 1560   2.815   1.809   1.520  0.7197  0.2536  1.6213
  521SOL     OW 1561   0.473   2.657   2.401 -0.4660 -0.0308 -0.0889
  521SOL    HW1 1562   0.517   2.611   2.322 -0.1701 -1.5999  3.0179
  521SOL    HW2 1563   0.380   2.700   2.373 -1.3029 -3.0108 -1.5529
  522SOL     OW 1564   2.020   0.111   2.109 -0.4505 -0.1177 -0.8039
  522SOL    HW1 1565   2.109   0.110   2.057  3.0806 -0.3143  0.5334
  522SOL    HW2 1566   1.997   0.208   2.136 -1.7538  1.3776 -0.7648
  523SOL     OW 1567   1.842   1.915   1.790 -0.3318 -0.2601 -0.0748
  523SOL    HW1 1568   1.838   2.002   1.846  0.0308  2.0214 -0.1010
  523SOL    HW2 1569   1.834   1.833   1.851 -1.7144  1.8547 -0.6658
  524SOL     OW 1570   0.592   2.921   0.423  0.2630 -0.4746 -0.0033
  524SOL    HW1 1571   0.561   2.913   0.325  0.3236 -1.2995 -0.6223
  524SOL    HW2 1572   0.690   2.902   0.434 -0.0589  0.9593 -0.5684
  525SOL     OW 1573   0.041   0.416   0.411  0.3037 -0.0888  0.1045
  525SOL    HW1 1574   0.055   0.504   0.454  2.0241 -0.9098 -0.4154
  525SOL    HW2 1575   0.126   0.379   0.376 -0.7830 -0.0272 -0.8208
  526SOL     OW 1576   0.797   2.737   0.715  0.1709  0.6232 -0.2123
  526SOL    HW1 1577   0.825   2.692   0.803  3.1553  0.3589 -1.2095
  526SOL    HW2 1578   0.695   2.762   0.720 -0.0474  0.5446  1.6776
  527SOL     OW 1579   2.665   2.126   0.902  0.5243  0.2594  0.8208
  527SOL    HW1 1580   2.591   2.065   0.941  0.2420 -0.1587 -1.8435
  527SOL    HW2 1581   2.754   2.115   0.950  1.1249  1.3581 -0.2299
  528SOL     OW 1582   2.970   0.211   2.431  0.0807 -0.1696  0.3794
  528SOL    HW1 1583   2.920   0.251   2.507  0.4039 -1.2114 -0.8141
  528SOL    HW2 1584   2.996   0.110   2.437 -1.0955 -1.2103 -0.8110
  529SOL     OW 1585   1.059   1.452   2.539  0.2860  0.2461 -0.0386
  529SOL    HW1 1586   0.965   1.463   2.580 -1.0986  1.6899  0.9303
  529SOL    HW2 1587   1.132   1.446   2.606 -0.5366  2.5945 -0.5084
  530SOL     OW 1588   1.830   1.119   2.805  0.3053 -0.1419 -0.3297
  530SOL    HW1 1589   1.818   1.037   2.745  3.7267 -0.5517  1.7889
  530SOL    HW2 1590   1.865   1.083   2.894  0.6500 -1.8105 -2.1605
  531SOL     OW 1591   0.571   1.677   2.536 -0.0866  0.6314  0.1394
  531SOL    HW1 1592   0.571   1.736   2.454  1.0434 -0.9179 -0.6619
  531SOL    HW2 1593   0.563   1.580   2.510 -4.5273 -0.8054 -1.6192
  532SOL     OW 1594   1.639   1.306   0.348 -0.2727 -0.2203  0.2116
  532SOL    HW1 1595   1.580   1.324   0.271  0.3280  1.4279  1.4192
  532SOL    HW2 1596   1.666   1.395   0.389  0.2972  0.8533  2.0540
  533SOL     OW 1597   0.574   0.375   2.333 -0.6361  0.0076  0.3954
  533SOL    HW1 1598   0.616   0.319   2.259  0.4855 -0.7652 -1.4938
  533SOL    HW2 1599   0.630   0.386   2.420  0.2302  0.2303  2.8263
  534SOL     OW 1600   0.758   2.544   3.085 -0.7436 -0.0545  0.4335
  534SOL    HW1 1601   0.682   2.479   3.089  3.9398 -0.6154  2.8098
  534SOL    HW2 1602   0.754   2.612   0.046 -0.9695 -4.2216 -0.9496
  535SOL     OW 1603   0.185   0.027   0.403  0.5775 -0.0974 -0.4183
  535SOL    HW1 1604   0.124   3.058   0.406 -0.1980 -0.0869 -1.5536
  535SOL    HW2 1605   0.175   0.084   0.491 -0.7577  0.9529 -0.4941
  536SOL     OW 1606   0.225   1.232   2.017 -0.4608  0.5583  0.0251
  536SOL    HW1 1607   0.207   1.270   1.925 -4.1207 -1.7464  0.0237
  536SOL    HW2 1608   0.235   1.129   2.014  1.7383  2.2271 -0.9161
  537SOL     OW 1609   1.019   2.921   1.450 -0.0448 -0.4646  0.1410
  537SOL    HW1 1610   0.990   3.015   1.419 -2.2242 -1.4422  2.3368
  537SOL    HW2 1611   1.085   2.881   1.379  1.4806  0.5574  1.6123
  538SOL     OW 1612   0.045   2.014   0.393 -0.3328  0.4558  0.4184
  538SOL    HW1 1613   0.058   1.917   0.367  0.1309  0.5965  2.5711
  538SOL    HW2 1614   3.080   2.017   0.464 -1.2543 -1.5715  0.9658
  539SOL     OW 1615   2.849   0.913   2.321 -0.5696  0.2522  0.0067
  539SOL    HW1 1616   2.792   0.942   2.399  1.9824 -0.0237  1.4926
  539SOL    HW2 1617   2.922   0.851   2.352  0.0992  0.7404 -1.2774
  540SOL     OW 1618   1.483   1.102   2.328  0.0305 -0.3054 -0.0543
  540SOL    HW1 1619   1.518   1.144   2.242  0.7165  2.4013  0.8662
  540SOL    HW2 1620   1.385   1.121   2.343 -0.0358 -2.3596 -0.2920
  541SOL     OW 1621   0.780   0.671   1.707 -0.0546 -0.2660  0.3481
  541SOL    HW1 1622   0.816   0.602   1.768 -0.0055  0.9525 -1.6955
  541SOL    HW2 1623   0.692   0.634   1.673  0.4377 -0.2245  2.3840
  542SOL     OW 1624   2.082   3.044   2.673 -0.1172 -0.4091  0.0449
  542SOL    HW1 1625   2.036   2.958   2.703 -0.1955  0.1062  1.4155
  542SOL    HW2 1626   2.098   3.045   2.573 -2.8704 -2.2212  1.3202
  543SOL     OW 1627   0.998   0.093   0.192 -0.5041  0.3311 -0.1513
  543SOL    HW1 1628   0.997   0.143   0.278 -0.4975 -2.5249 -0.9622
  543SOL    HW2 1629   1.067   0.134   0.133 -1.8668 -0.5404  0.4982
  544SOL     OW 1630   2.766   1.706   1.801 -0.4949  0.2680 -0.5112
  544SOL    HW1 1631   2.740   1.611   1.816 -0.1449  1.9089  2.4657
  544SOL    HW2 1632   2.702   1.775   1.845 -2.6781 -2.3177  2.9223
  545SOL     OW 1633   2.135   2.221   1.586 -0.2313  0.0052  0.0463
  545SOL    HW1 1634   2.233   2.195   1.588 -1.9941 -1.2559  1.0101
  545SOL    HW2 1635   2.071   2.139   1.588 -1.9175 -0.7553  0.9473
  546SOL     OW 1636   0.301   0.046   2.809 -0.3902 -0.2019 -0.0107
  546SOL    HW1 1637   0.393   0.098   2.795  3.1288  2.0078 -1.0935
  546SOL    HW2 1638   0.241   0.054   2.731 -0.9514  0.4842 -0.9740
  547SOL     OW 1639   1.730   0.859   0.498  0.0128 -0.4059  0.4272
  547SOL    HW1 1640   1.740   0.961   0.481 -0.3918  3.0090 -0.2522
  547SOL    HW2 1641   1.674   0.834   0.580  0.4551  0.2545  0.7540
  548SOL     OW 1642   2.015   1.498   2.231 -0.0916 -0.0690  0.0221
  548SOL    HW1 1643   1.998   1.394   2.240  2.6442 -2.5436  0.6877
  548SOL    HW2 1644   2.060   1.538   2.319  2.5912  1.7430  2.8281
  549SOL     OW 1645   1.879   0.318   0.358  0.4917  0.0513 -0.8559
  549SOL    HW1 1646   1.884   0.395   0.427  0.0823 -0.0289  1.8904
  549SOL    HW2 1647   1.931   0.337   0.274 -2.0205 -0.7772  1.6626
  550SOL     OW 1648   2.020   1.925   0.852 -0.3056 -0.2810 -0.3652
  550SOL    HW1 1649   1.928   1.876   0.858  0.0770  0.4074  0.6123
  550SOL    HW2 1650   2.093   1.867   0.801  1.7789 -0.6051 -2.1191
  551SOL     OW 1651   0.843   2.971   1.671  0.0671 -0.1766 -0.0799
  551SOL    HW1 1652   0.928   2.950   1.615 -0.1545 -1.6105 -0.3926
  551SOL    HW2 1653   0.862   3.022   1.754 -0.6086 -1.4991 -3.1583
  552SOL     OW 1654   2.831   2.087   2.594 -0.3654 -0.1703  0.6427
  552SOL    HW1 1655   2.805   2.112   2.687 -0.2723  0.9236 -2.3645
  552SOL    HW2 1656   2.933   2.068   2.589 -2.0351  0.1944 -1.3372
  553SOL     OW 1657   0.269   3.052   1.162  0.3330  0.0045 -0.3186
  553SOL    HW1 1658   0.344   2.979   1.146 -2.0733  0.2433  1.5611
  553SOL    HW2 1659   0.185   3.031   1.114  1.6432 -0.0787  1.2350
  554SOL     OW 1660   2.382   2.083   1.569 -0.8021 -0.1158  0.7619
  554SOL    HW1 1661   2.345   2.077   1.470 -1.1072 -2.8646 -2.0863
  554SOL    HW2 1662   2.476   2.130   1.564 -0.3898  1.8595  1.0948
  555SOL     OW 1663   1.273   2.244   2.112 -0.2197 -0.1335 -0.3581
  555SOL    HW1 1664   1.326   2.207   2.036 -0.0294  0.0674  0.7599
  555SOL    HW2 1665   1.173   2.222   2.105  0.2730  0.0771  1.5348
  556SOL     OW 1666   1.161   1.877   1.917  0.1615 -0.1015 -0.5268
  556SOL    HW1 1667   1.110   1.965   1.897  1.3644  0.6722  2.1287
  556SOL    HW2 1668   1.211   1.849   1.834 -1.5493  0.6917 -0.3749
  557SOL     OW 1669   2.057   2.181   2.219  0.0138  0.2828 -0.2480
  557SOL    HW1 1670   2.127   2.130   2.160  0.4405  1.3011  0.6542
  557SOL    HW2 1671   2.100   2.217   2.301 -0.0864 -0.6454 -1.3754
  558SOL     OW 1672   0.417   2.900   1.912 -0.4927 -0.0734  0.3972
  558SOL    HW1 1673   0.501   2.860   1.870 -2.4219  1.0677 -1.6573
  558SOL    HW2 1674   0.431   3.000   1.943  2.3598 -1.0101  0.4897
  559SOL     OW 1675   2.306   2.996   1.157 -0.0598  0.2802 -0.1359
  559SOL    HW1 1676   2.279   3.054   1.236 -1.8887 -1.3035  1.1730
  559SOL    HW2 1677   2.407   2.981   1.156 -1.2629 -0.0359 -0.9085
  560SOL     OW 1678   1.781   2.415   0.470  0.2123 -0.0607  0.1440
  560SOL    HW1 1679   1.721   2.363   0.533  0.3795 -2.2784 -0.5797
  560SOL    HW2 1680   1.854   2.365   0.425  2.4990 -2.2594 -0.2068
  561SOL     OW 1681   1.069   0.453   0.252 -0.2999 -0.1349 -0.2886
  561SOL    HW1 1682   1.152   0.440   0.196  1.4433  0.9616 -0.0697
  561SOL    HW2 1683   0.989   0.476   0.196 -0.3385  1.5419 -0.4604
  562SOL     OW 1684   0.750   0.369   2.537  0.3093 -0.3952 -0.3081
  562SOL    HW1 1685   0.738   0.302   2.615 -1.2920 -2.2015 -2.3441
  562SOL    HW2 1686   0.842   0.369   2.498 -1.2759 -0.7369  0.7408
  563SOL     OW 1687   1.392   1.946   2.855 -0.6927  0.0025 -0.3024
  563SOL    HW1 1688   1.403   1.987   2.944 -1.2933 -0.7766  0.2921
  563SOL    HW2 1689   1.449   1.858   2.843  1.7482 -2.8555 -2.3227
  564SOL     OW 1690   2.415   1.119   1.246 -0.7796 -0.8567  0.3228
  564SOL    HW1 1691   2.484   1.140   1.315 -1.1922 -0.0364  0.4352
  564SOL    HW2 1692   2.454   1.052   1.180 -1.8831  0.7279 -0.3405
  565SOL     OW 1693   0.973   0.176   2.906 -0.2260  0.4822 -0.1312
  565SOL    HW1 1694   0.964   0.077   2.937  0.0345 -0.6867 -0.2010
  565SOL    HW2 1695   1.038   0.232   2.962  2.7784  1.3395  1.1919
  566SOL     OW 1696   1.779   3.109   2.622 -0.1550 -0.3067 -0.1963
  566SOL    HW1 1697   1.867   0.011   2.572  1.6289 -1.5020 -2.9120
  566SOL    HW2 1698   1.734   3.017   2.605  1.4192 -0.5518 -1.6599
  567SOL     OW 1699   2.105   1.534   0.624 -0.4112 -0.3555 -0.4629
  567SOL    HW1 1700   2.020   1.477   0.617  0.2982  3.3079 -0.0114
  567SOL    HW2 1701   2.184   1.474   0.604 -0.8384  0.6691  0.1808
  568SOL     OW 1702   1.886   1.895   0.083 -0.3821  0.4374 -0.4182
  568SOL    HW1 1703   1.899   1.805   0.133 -1.4362  0.0203 -1.3412
  568SOL    HW2 1704   1.965   1.912   0.017  1.4892 -0.0280  2.0198
  569SOL     OW 1705   2.178   1.144   3.080  0.3003  0.2495  0.0670
  569SOL    HW1 1706   2.085   1.108   3.047  0.3176 -0.8199  3.0303
  569SOL    HW2 1707   2.214   1.081   0.044 -1.7094 -1.7194  0.3879
  570SOL     OW 1708   0.060   2.509   1.756 -0.7787 -0.0023 -0.6775
  570SOL    HW1 1709   0.026   2.587   1.702 -0.0336 -0.5426  3.2721
  570SOL    HW2 1710   0.163   2.505   1.765 -2.2913  0.3479  1.0865
  571SOL     OW 1711   0.495   1.077   1.754  0.2504 -0.4347 -0.5828
  571SOL    HW1 1712   0.550   1.009   1.804 -0.8884 -0.8975  0.8571
  571SOL    HW2 1713   0.544   1.162   1.730 -0.6285  2.3908 -1.8534
  572SOL     OW 1714   1.067   1.527   0.670 -0.0181  0.4551  0.0048
  572SOL    HW1 1715   0.970   1.558   0.658 -0.7741 -0.3019  0.3190
  572SOL    HW2 1716   1.121   1.565   0.597 -2.9689  3.2088  0.5199
  573SOL     OW 1717   1.164   1.932   0.040  0.0032 -0.5109 -0.2034
  573SOL    HW1 1718   1.182   2.033   0.044  1.8291 -0.6556  0.9675
  573SOL    HW2 1719   1.098   1.908   3.074 -2.9379  0.1327 -2.6139
  574SOL     OW 1720   0.966   0.009   0.896 -0.2198  0.1965 -0.0255
  574SOL    HW1 1721   0.891   0.001   0.831 -0.7441  1.3176  0.1117
  574SOL    HW2 1722   0.947   0.078   0.966 -0.5157 -1.7590 -0.0722
  575SOL     OW 1723   0.620   1.088   1.363 -0.0988 -0.2948  0.5685
  575SOL    HW1 1724   0.561   1.010   1.383 -0.4349  1.2079 -1.0235
  575SOL    HW2 1725   0.712   1.077   1.401 -1.5674  0.4552  0.0308
  576SOL     OW 1726   1.990   2.992   1.610  0.3571  0.5087 -0.1018
  576SOL    HW1 1727   2.071   2.958   1.658  1.2930 -0.7514 -1.0651
  576SOL    HW2 1728   1.987   2.947   1.519  2.4008  0.6609  1.4626
  577SOL     OW 1729   0.927   0.909   1.997 -0.3838 -0.0750 -0.4643
  577SOL    HW1 1730   1.034   0.915   2.014  3.3760  0.3784 -1.3316
  577SOL    HW2 1731   0.886   0.818   2.013 -2.2726 -0.8292  1.2020
  578SOL     OW 1732   2.047   0.585   2.743  0.8418 -0.6312 -0.5562
  578SOL    HW1 1733   1.944   0.590   2.743 -2.9592  1.9469  0.3497
  578SOL    HW2 1734   2.076   0.605   2.648 -1.3861 -0.5860  2.0281
  579SOL     OW 1735   2.073   2.462   1.798 -0.0199  0.2749 -0.4040
  579SOL    HW1 1736   2.133   2.399   1.847  1.1099 -1.5117  2.8408
  579SOL    HW2 1737   2.054   2.428   1.703 -3.6193 -0.2967 -0.1884
  580SOL     OW 1738   2.249   1.160   2.773  0.2043  0.5627  0.0541
  580SOL    HW1 1739   2.257   1.152   2.876  0.5092  0.5661  2.2801
  580SOL    HW2 1740   2.165   1.211   2.747 -2.4405 -0.1644 -0.1565
  581SOL     OW 1741   1.424   1.152   2.775 -0.1648  0.2149 -0.1519
  581SOL    HW1 1742   1.486   1.224   2.811  1.6528  0.3142  1.5261
  581SOL    HW2 1743   1.327   1.191   2.774  0.2264  0.0417 -0.1680
  582SOL     OW 1744   1.018   1.640   1.989 -0.4586  0.4098 -0.1309
  582SOL    HW1 1745   1.061   1.593   2.070  1.5477  0.2690  1.6312
  582SOL    HW2 1746   1.075   1.724   1.960  1.0576  0.2274  0.2574
  583SOL     OW 1747   1.878   1.393   1.433  0.5997  0.5596  0.3038
  583SOL    HW1 1748   1.815   1.326   1.479  1.2075  0.1521  2.0580
  583SOL    HW2 1749   1.834   1.482   1.409 -1.5379 -1.5209 -0.6037
  584SOL     OW 1750   1.715   2.640   0.672 -0.5002 -0.1211 -0.1742
  584SOL    HW1 1751   1.631   2.632   0.618 -1.8985 -1.2673  1.2852
  584SOL    HW2 1752   1.771   2.552   0.672  1.6075 -0.4957 -0.4829
  585SOL     OW 1753   1.936   2.793   2.696  0.0158  0.2313 -0.1259
  585SOL    HW1 1754   1.843   2.809   2.657  0.4382 -3.3540  2.5164
  585SOL    HW2 1755   1.937   2.713   2.758  0.1664  0.6634  2.2549
  586SOL     OW 1756   2.826   2.442   1.085 -0.7332 -0.5410  0.5174
  586SOL    HW1 1757   2.734   2.406   1.069  0.8881 -0.6842  3.1260
  586SOL    HW2 1758   2.897   2.384   1.036  1.8346  1.1272 -0.1089
  587SOL     OW 1759   1.245   1.724   0.198  0.4234 -0.4329  0.4574
  587SOL    HW1 1760   1.213   1.804   0.141  1.2289  0.5130  0.6654
  587SOL    HW2 1761   1.325   1.682   0.152  0.6402  0.4012  0.2284
  588SOL     OW 1762   0.405   0.165   1.058  0.0256  0.7834  0.0022
  588SOL    HW1 1763   0.487   0.148   1.003 -2.9306  0.6527  0.7984
  588SOL    HW2 1764   0.361   0.073   1.088 -0.7428 -1.0953  3.5639
  589SOL     OW 1765   0.999   0.270   0.432  0.3778 -0.2903 -0.2108
  589SOL    HW1 1766   0.931   0.299   0.501  2.2246  0.0847 -1.9801
  589SOL    HW2 1767   1.015   0.339   0.360  0.8845 -0.7271  3.2027
  590SOL     OW 1768   1.518   0.381   2.813 -0.2000 -0.1803  0.3598
  590SOL    HW1 1769   1.549   0.454   2.877 -1.2527  0.1767 -1.1638
  590SOL    HW2 1770   1.583   0.301   2.809  0.8591 -2.4306 -1.8657
  591SOL     OW 1771   3.043   2.174   2.299 -0.1520  0.1713  0.1011
  591SOL    HW1 1772   2.954   2.152   2.261  3.9754 -0.9150 -0.0831
  591SOL    HW2 1773   3.075   2.271   2.290  1.6589 -1.4564  0.6088
  592SOL     OW 1774   2.375   1.497   1.930  0.4466 -0.1972 -0.4187
  592SOL    HW1 1775   2.406   1.414   1.882  0.3258  1.0209  1.2517
  592SOL    HW2 1776   2.448   1.526   1.989 -0.4533 -0.0347 -2.1875
  593SOL     OW 1777   1.496   1.334   1.728 -0.0724  0.9479  0.1456
  593SOL    HW1 1778   1.579   1.282   1.694 -2.8251  1.2021  0.5581
  593SOL    HW2 1779   1.524   1.415   1.786  0.8826  2.4891  1.6516
  594SOL     OW 1780   2.749   1.151   0.176  0.4480 -0.0665 -0.2625
  594SOL    HW1 1781   2.835   1.202   0.156 -1.6135 -0.0210 -1.0268
  594SOL    HW2 1782   2.731   1.071   0.117  0.6671 -0.2007  1.2190
  595SOL     OW 1783   0.472   0.906   0.376  0.0687  0.4136 -0.2452
  595SOL    HW1 1784   0.380   0.906   0.421 -0.5261 -2.5864  0.9814
  595SOL    HW2 1785   0.547   0.909   0.446  2.2166  0.9561  1.2860
  596SOL     OW 1786   0.466   1.260   1.223 -0.0246  0.1661 -0.0518
  596SOL    HW1 1787   0.392   1.289   1.284  0.9891 -0.7676 -0.2529
  596SOL    HW2 1788   0.515   1.183   1.272 -1.7163  2.5372 -2.2801
  597SOL     OW 1789   1.093   2.066   1.060 -0.6977  0.7800 -0.5032
  597SOL    HW1 1790   1.125   2.028   1.152 -0.7151  1.2638 -0.3851
  597SOL    HW2 1791   1.172   2.058   1.000 -0.8923  0.5777  1.5959
  598SOL     OW 1792   3.096   0.293   1.768  0.3386  0.2909 -0.0825
  598SOL    HW1 1793   0.011   0.304   1.863 -0.0805 -1.4490  0.2840
  598SOL    HW2 1794   3.038   0.209   1.757 -0.7136  0.2318  0.7971
  599SOL     OW 1795   0.304   1.576   2.656 -0.2180  0.4549  0.0665
  599SOL    HW1 1796   0.319   1.483   2.616  1.5825 -1.0069  0.4576
  599SOL    HW2 1797   0.390   1.627   2.639 -0.1001 -0.7569 -3.0512
  600SOL     OW 1798   0.531   0.849   2.759 -0.0563  0.3347 -0.1639
  600SOL    HW1 1799   0.528   0.948   2.749 -1.7588  2.9856  0.7964
  600SOL    HW2 1800   0.630   0.823   2.741 -0.2899  0.1233 -1.5388
  601SOL     OW 1801   0.878   0.819   1.322 -0.6250 -0.3710 -0.0106
  601SOL    HW1 1802   0.804   0.865   1.270  4.0151 -1.6969  0.8318
  601SOL    HW2 1803   0.887   0.717   1.308 -0.4538 -3.3522 -2.2628
  602SOL     OW 1804   0.706   0.031   0.059 -0.2725  0.2713  0.3042
  602SOL    HW1 1805   0.802   0.051   0.061 -2.2676 -0.1522 -1.9061
  602SOL    HW2 1806   0.657   0.089   0.123  2.0908 -2.2973 -3.1323
  603SOL     OW 1807   1.443   2.611   2.443  0.2254  0.6298  0.1285
  603SOL    HW1 1808   1.389   2.536   2.489  0.7543 -3.2334  2.6492
  603SOL    HW2 1809   1.419   2.702   2.485 -0.3219 -1.5609  0.1676
  604SOL     OW 1810   0.356   2.669   2.745 -0.3347 -0.5050 -0.6391
  604SOL    HW1 1811   0.320   2.577   2.757  1.6113  0.6945 -1.5984
  604SOL    HW2 1812   0.458   2.676   2.737 -2.5256 -0.8277 -1.5949
  605SOL     OW 1813   2.505   1.334   1.555 -0.5195 -0.1039 -0.7434
  605SOL    HW1 1814   2.549   1.363   1.463  1.6638  1.0209  1.0361
  605SOL    HW2 1815   2.410   1.372   1.556  2.7592  0.8117  0.7951
  606SOL     OW 1816   1.012   1.276   2.889  0.4227 -0.0596  0.1199
  606SOL    HW1 1817   1.017   1.296   2.989  0.7585 -0.5444  3.7909
  606SOL    HW2 1818   0.936   1.331   2.846 -0.4031  0.3928  0.6972
  607SOL     OW 1819   0.833   0.330   0.661  0.0137 -0.0126  0.3500
  607SOL    HW1 1820   0.767   0.400   0.625  3.3664  1.1233 -0.5936
  607SOL    HW2 1821   0.900   0.365   0.725 -2.0276 -1.1185 -0.2165
  608SOL     OW 1822   2.882   1.494   1.384 -0.2350  0.3080 -0.1292
  608SOL    HW1 1823   2.866   1.592   1.390 -2.0375 -2.3072 -0.5209
  608SOL    HW2 1824   2.798   1.452   1.347 -0.2810 -0.2853 -1.4741
  609SOL     OW 1825   2.279   0.465   0.676  0.5062 -0.5158 -0.0887
  609SOL    HW1 1826   2.209   0.449   0.751 -0.8705 -1.4616  3.6102
  609SOL    HW2 1827   2.305   0.565   0.669  1.2342  0.7902  1.4180
  610SOL     OW 1828   0.155   2.631   1.255  0.1255  0.6522  0.0976
  610SOL    HW1 1829   0.137   2.705   1.327 -0.1941 -0.4527  1.3361
  610SOL    HW2 1830   0.135   2.668   1.164  0.0237  1.4047 -0.1101
  611SOL     OW 1831   1.630   1.859   3.111 -0.0334 -0.0385  0.5440
  611SOL    HW1 1832   1.589   1.948   0.029 -1.1915 -0.3951 -0.6572
  611SOL    HW2 1833   1.733   1.854   0.027  3.2585 -1.4678  2.6016
  612SOL     OW 1834   0.488   0.061   1.844  0.1454 -0.1836 -0.1904
  612SOL    HW1 1835   0.510   0.057   1.945  1.9259  1.1350  2.0341
  612SOL    HW2 1836   0.422   0.137   1.821 -2.0398  0.7966 -2.6162
  613SOL     OW 1837   0.731   2.349   0.555 -0.1888 -0.2301  0.7004
  613SOL    HW1 1838   0.642   2.391   0.582  0.1112 -0.2677  1.9311
  613SOL    HW2 1839   0.718   2.294   0.469 -1.8217  2.6886  1.1000
  614SOL     OW 1840   2.280   0.115   2.009  0.0925  0.1436  0.3525
  614SOL    HW1 1841   2.300   0.167   2.095 -2.4092  1.3409  1.4750
  614SOL    HW2 1842   2.343   0.032   1.990 -1.7500 -0.4957  0.8304
  615SOL     OW 1843   1.357   1.467   0.560  0.2613  0.3680  0.2556
  615SOL    HW1 1844   1.301   1.384   0.533 -4.3229  0.9234 -0.0378
  615SOL    HW2 1845   1.306   1.549   0.531  3.8081  0.1332  1.3888
  616SOL     OW 1846   1.640   1.516   0.510 -0.1184  0.5638 -0.4903
  616SOL    HW1 1847   1.544   1.500   0.524  2.0556 -0.6152 -1.5292
  616SOL    HW2 1848   1.666   1.609   0.535 -0.4170 -0.0062  1.3082
  617SOL     OW 1849   1.409   0.625   3.111  0.7294  0.0343  0.0988
  617SOL    HW1 1850   1.482   0.555   3.097 -1.2108 -2.4735  1.4087
  617SOL    HW2 1851   1.431   0.691   0.073 -1.6387  1.5472 -2.5752
  618SOL     OW 1852   0.873   0.471   1.852 -0.2944 -0.0410  0.4243
  618SOL    HW1 1853   0.842   0.378   1.831  0.7109  0.2292 -0.3603
  618SOL    HW2 1854   0.975   0.482   1.853  2.3990  2.2163 -0.9765
  619SOL     OW 1855   0.272   1.309   1.401  0.3460  0.2252  0.1512
  619SOL    HW1 1856   0.197   1.373   1.373 -2.0206 -0.8733 -0.6462
  619SOL    HW2 1857   0.331   1.342   1.477  2.3753  3.0197  0.0198
  620SOL     OW 1858   2.634   3.062   2.404 -0.0391 -0.4590  0.1625
  620SOL    HW1 1859   2.553   0.002   2.431  1.9590  0.4460 -0.7644
  620SOL    HW2 1860   2.697   3.046   2.482 -0.6264  0.1444  1.1675
  621SOL     OW 1861   2.403   1.885   2.727 -0.0346 -0.2649  0.7284
  621SOL    HW1 1862   2.468   1.876   2.802 -0.2899  0.6184  0.9013
  621SOL    HW2 1863   2.329   1.816   2.729 -0.6582 -0.0544 -0.4625
  622SOL     OW 1864   1.136   0.588   3.038  1.0392  0.1947  0.5133
  622SOL    HW1 1865   1.167   0.496   3.004  0.5729  4.1898  0.1290
  622SOL    HW2 1866   1.218   0.639   3.066  0.1584 -1.9305 -0.2135
  623SOL     OW 1867   0.907   1.472   1.812 -0.1413 -0.1974 -0.2973
  623SOL    HW1 1868   0.955   1.384   1.804 -1.4483  0.3156 -0.0671
  623SOL    HW2 1869   0.954   1.533   1.880  0.7829 -2.4084 -3.8813
  624SOL     OW 1870   2.879   0.160   0.470  0.1670  0.1420 -0.3350
  624SOL    HW1 1871   2.893   0.197   0.375  0.0892  0.9889  0.5445
  624SOL    HW2 1872   2.947   0.208   0.530 -0.2625 -0.6843  0.0275
  625SOL     OW 1873   0.797   2.248   0.823 -0.5106 -0.4707  0.1625
  625SOL    HW1 1874   0.768   2.300   0.736 -3.2021  2.3512  0.1873
  625SOL    HW2 1875   0.768   2.306   0.902 -1.6634  2.0988 -2.7742
  626SOL     OW 1876   2.704   0.987   2.546  0.7411 -0.0298 -0.2956
  626SOL    HW1 1877   2.740   0.914   2.605  0.5934  0.0081  2.0805
  626SOL    HW2 1878   2.611   1.019   2.583 -2.6532  1.2623  2.0897
  627SOL     OW 1879   0.922   1.898   2.671  0.6322 -0.1437 -0.3411
  627SOL    HW1 1880   0.929   1.989   2.620 -0.5400  2.9489 -1.1216
  627SOL    HW2 1881   1.007   1.853   2.677 -2.3287  3.6204 -2.6972
  628SOL     OW 1882   2.770   2.752   2.665  0.2300  0.4502 -0.1990
  628SOL    HW1 1883   2.726   2.711   2.579 -1.8355  0.3850  0.2961
  628SOL    HW2 1884   2.755   2.852   2.677  1.0451  2.7865 -1.0029
  629SOL     OW 1885   1.140   2.789   2.594  0.7490 -0.2562  0.0336
  629SOL    HW1 1886   1.058   2.766   2.538  1.1242 -1.7249 -0.5459
  629SOL    HW2 1887   1.218   2.809   2.531 -0.2578  0.7950  0.8237
  630SOL     OW 1888   0.943   0.188   2.184  0.3062 -0.3562 -0.1477
  630SOL    HW1 1889   0.936   0.283   2.219 -2.3749  1.0881  1.6974
  630SOL    HW2 1890   0.954   0.119   2.260  1.2969 -0.9949  2.3087
  631SOL     OW 1891   1.997   1.071   0.657  0.3226 -0.6119  0.1165
  631SOL    HW1 1892   1.966   0.985   0.703  0.4893  1.2636  1.2785
  631SOL    HW2 1893   1.937   1.094   0.576 -1.1324 -0.1757 -0.1127
  632SOL     OW 1894   2.739   0.150   1.747 -0.0434  0.4701 -0.2418
  632SOL    HW1 1895   2.688   0.087   1.805  0.0727  0.7063 -1.5587
  632SOL    HW2 1896   2.830   0.113   1.719 -0.3996  0.5777  0.0645
  633SOL     OW 1897   1.217   1.265   0.395 -0.1774  0.0502 -0.2323
  633SOL    HW1 1898   1.237   1.264   0.297 -0.7316  1.0027  1.8537
  633SOL    HW2 1899   1.122   1.298   0.408  1.0845 -0.7358 -1.6819
  634SOL     OW 1900   2.664   2.551   2.000 -0.8254  0.2404 -0.1764
  634SOL    HW1 1901   2.701   2.502   1.916  0.5668 -0.7725  1.0781
  634SOL    HW2 1902   2.736   2.553   2.073 -0.4390  0.2723 -0.1104
  635SOL     OW 1903   1.597   0.243   0.556 -0.2475 -0.2508  0.6426
  635SOL    HW1 1904   1.606   0.242   0.456  1.0014 -2.8436  1.9138
  635SOL    HW2 1905   1.691   0.255   0.600  2.1022  2.9469 -0.6875
  636SOL     OW 1906   0.725   1.375   0.361 -0.3668 -0.0437  0.3561
  636SOL    HW1 1907   0.684   1.469   0.344  1.3729  0.5997 -0.5891
  636SOL    HW2 1908   0.647   1.315   0.377  3.0030  2.0038  2.1687
  637SOL     OW 1909   2.597   1.877   0.114 -0.0094  0.4325 -0.3137
  637SOL    HW1 1910   2.630   1.779   0.104 -0.0706  0.4655  3.0529
  637SOL    HW2 1911   2.665   1.929   0.172  0.5869  0.8150  0.2149
  638SOL     OW 1912   1.243   2.412   2.344 -0.0760  0.3230 -0.3069
  638SOL    HW1 1913   1.271   2.392   2.247  0.2439  1.5928 -1.3830
  638SOL    HW2 1914   1.292   2.348   2.410  3.0258 -2.5060  0.5299
  639SOL     OW 1915   1.391   1.914   0.710  0.3213 -0.1755 -0.0358
  639SOL    HW1 1916   1.410   2.000   0.755 -2.2772  1.1992  0.1559
  639SOL    HW2 1917   1.308   1.917   0.650  0.7157 -1.5817  0.8585
  640SOL     OW 1918   2.314   2.847   0.472 -0.4277 -0.0162  0.4431
  640SOL    HW1 1919   2.411   2.851   0.498 -0.5415  0.3360 -1.5473
  640SOL    HW2 1920   2.292   2.917   0.399  1.0485  3.6452 -0.6415
  641SOL     OW 1921   2.961   0.524   3.038  0.7257  0.6857  0.4447
  641SOL    HW1 1922   2.974   0.538   0.028  1.6510  1.0472  3.2193
  641SOL    HW2 1923   2.910   0.433   3.025 -1.4748 -3.3503  1.9983
  642SOL     OW 1924   0.292   0.613   0.997  0.3953  0.2469  0.3881
  642SOL    HW1 1925   0.199   0.648   1.008  0.0055 -0.0301  2.2198
  642SOL    HW2 1926   0.287   0.515   0.974  0.9891  1.7880 -3.2294
  643SOL     OW 1927   0.576   1.418   2.449  0.5781 -0.0216  0.4797
  643SOL    HW1 1928   0.615   1.424   2.354 -1.2732  0.6279 -0.5465
  643SOL    HW2 1929   0.478   1.393   2.448 -0.0532 -0.0047  0.5991
  644SOL     OW 1930   1.798   2.014   0.648 -0.4629 -1.0549 -0.1826
  644SOL    HW1 1931   1.782   2.039   0.551  1.2704 -2.5800 -0.2982
  644SOL    HW2 1932   1.895   2.032   0.678  3.8912 -1.2876 -0.1071
  645SOL     OW 1933   1.554   2.259   0.533 -0.3677 -0.3388 -0.4521
  645SOL    HW1 1934   1.545   2.189   0.462  1.3910  1.3713  1.9055
  645SOL    HW2 1935   1.565   2.216   0.625 -0.9430  0.4571 -0.8462
  646SOL     OW 1936   0.263   2.100   2.902  0.0881 -0.2047  0.1763
  646SOL    HW1 1937   0.297   2.017   2.853 -1.3400  2.2590  2.1427
  646SOL    HW2 1938   0.200   2.152   2.840 -2.0122  0.0482  2.9912
  647SOL     OW 1939   1.155   0.231   1.215  0.5679 -0.1074  0.6744
  647SOL    HW1 1940   1.194   0.288   1.285  0.1368 -2.4896  1.2338
  647SOL    HW2 1941   1.188   0.258   1.120 -3.3508  1.5785  0.3117
  648SOL     OW 1942   1.429   0.136   0.773 -0.1868  0.0140 -0.6158
  648SOL    HW1 1943   1.413   0.034   0.770  0.2484 -1.2321 -1.1215
  648SOL    HW2 1944   1.467   0.166   0.687 -0.0587 -0.6430  2.1901
  649SOL     OW 1945   1.225   1.683   0.470  0.2126  0.0813  0.0368
  649SOL    HW1 1946   1.235   1.689   0.367  1.6853  0.0951 -1.9496
  649SOL    HW2 1947   1.202   1.776   0.507 -0.0521  3.4870  2.0057
  650SOL     OW 1948   2.271   1.669   1.699 -0.2445  0.7822  0.5811
  650SOL    HW1 1949   2.310   1.614   1.775 -1.5636 -1.1016  0.2286
  650SOL    HW2 1950   2.255   1.765   1.733 -1.8753  1.2199 -1.3883
  651SOL     OW 1951   1.578   2.270   2.926 -0.6314  0.1247 -0.1338
  651SOL    HW1 1952   1.498   2.320   2.883 -2.7326 -1.0288  0.0023
  651SOL    HW2 1953   1.613   2.197   2.865 -0.9591 -0.7705  2.4979
  652SOL     OW 1954   2.344   1.680   0.343 -0.4722 -0.3579 -0.3935
  652SOL    HW1 1955   2.362   1.675   0.243  0.7726 -1.0687 -1.8438
  652SOL    HW2 1956   2.350   1.588   0.388  4.1159 -1.4272 -0.9261
  653SOL     OW 1957   0.238   0.357   0.949  0.2347 -0.0882 -0.0539
  653SOL    HW1 1958   0.322   0.304   0.960  0.4281  0.4480  0.7525
  653SOL    HW2 1959   0.158   0.295   0.968 -0.3201  1.7242  1.8644
  654SOL     OW 1960   0.036   0.335   2.037  0.2008 -0.4717  0.1034
  654SOL    HW1 1961   0.123   0.389   2.032  0.2351  0.2014 -2.2381
  654SOL    HW2 1962   0.040   0.270   2.117  0.1863 -0.5259  0.1988
  655SOL     OW 1963   0.504   2.499   0.623  0.1125 -0.0106  0.0809
  655SOL    HW1 1964   0.511   2.601   0.600 -2.7809  2.2688 -2.0124
  655SOL    HW2 1965   0.417   2.466   0.579  0.1124  1.9275  0.2734
  656SOL     OW 1966   2.992   3.069   2.512 -0.2489 -0.4264 -0.6538
  656SOL    HW1 1967   3.051   2.985   2.518  0.8610 -2.7495 -0.1228
  656SOL    HW2 1968   2.943   3.071   2.601  1.8698 -3.6927  3.3299
  657SOL     OW 1969   0.200   1.405   2.863  0.0174 -0.4004  0.4200
  657SOL    HW1 1970   0.194   1.453   2.954 -0.3005  0.3027 -0.3466
  657SOL    HW2 1971   0.264   1.455   2.799  2.2676  0.0279 -1.9384
  658SOL     OW 1972   2.775   1.756   1.158  0.2819 -0.1962 -0.2905
  658SOL    HW1 1973   2.820   1.836   1.208  1.4431 -1.4396  1.0079
  658SOL    HW2 1974   2.675   1.750   1.170  1.3482  0.0329 -0.6420
  659SOL     OW 1975   1.552   2.763   0.096 -0.5852 -0.0793 -0.5870
  659SOL    HW1 1976   1.608   2.734   0.176 -0.6458 -0.6775  2.0278
  659SOL    HW2 1977   1.602   2.816   0.027 -0.6252 -2.4184  0.8295
  660SOL     OW 1978   1.457   0.937   2.924  0.3041 -0.5084 -0.3370
  660SOL    HW1 1979   1.440   0.850   2.880  1.4458  0.5849  1.2813
  660SOL    HW2 1980   1.448   1.010   2.855  3.1118 -0.0146 -0.1916
  661SOL     OW 1981   0.291   2.210   1.248  0.4912 -0.4814 -0.4447
  661SOL    HW1 1982   0.225   2.164   1.189  1.5679  1.0915  0.7024
  661SOL    HW2 1983   0.245   2.290   1.297  1.0856  0.9762  0.5804
  662SOL     OW 1984   0.301   0.537   0.110  0.1279 -0.1176  0.2011
  662SOL    HW1 1985   0.232   0.530   0.032  1.2109  0.8262 -0.6278
  662SOL    HW2 1986   0.295   0.452   0.168 -0.9098  1.5593 -0.4360
  663SOL     OW 1987   1.985   1.580   1.133  0.1985  0.3739  0.0089
  663SOL    HW1 1988   1.944   1.631   1.215 -1.2905  0.3828 -1.4903
  663SOL    HW2 1989   1.998   1.479   1.151 -1.2670 -1.8042 -2.6999
  664SOL     OW 1990   1.215   1.188   1.025 -0.9217  0.4413 -0.4601
  664SOL    HW1 1991   1.300   1.234   1.053 -0.9870 -0.8891 -0.7480
  664SOL    HW2 1992   1.164   1.250   0.960 -0.4134  0.2081  0.6701
  665SOL     OW 1993   1.945   2.649   2.157  0.2788 -0.1277  0.2543
  665SOL    HW1 1994   1.858   2.672   2.201  3.0820 -1.5774  0.9157
  665SOL    HW2 1995   1.969   2.706   2.078 -0.4947 -1.3140  0.3712
  666SOL     OW 1996   2.771   2.922   0.044 -0.0724  0.7353  0.0207
  666SOL    HW1 1997   2.778   2.827   0.009  0.6010 -1.7787 -1.3392
  666SOL    HW2 1998   2.858   2.976   0.045 -1.5676  2.1835  0.9295
  667SOL     OW 1999   2.869   1.361   1.656  0.1040 -0.4377  0.1627
  667SOL    HW1 2000   2.871   1.386   1.555 -1.5662 -1.0098 -1.9804
  667SOL    HW2 2001   2.776   1.376   1.695  1.5939 -0.0437  0.2762
  668SOL     OW 2002   0.322   0.786   2.391 -0.2424  0.0975  0.3597
  668SOL    HW1 2003   0.272   0.726   2.460 -1.1546 -2.7157  0.0596
  668SOL    HW2 2004   0.253   0.848   2.339  1.2275  2.2866  2.1249
  669SOL     OW 2005   2.078   2.021   2.539  0.3331 -0.5096 -0.2735
  669SOL    HW1 2006   2.125   1.952   2.483 -0.1715 -0.5386  2.0798
  669SOL    HW2 2007   2.112   2.117   2.515 -2.7316  0.1609  1.1650
  670SOL     OW 2008   2.602   1.334   1.813  0.3140 -0.0358 -0.1447
  670SOL    HW1 2009   2.566   1.360   1.724  1.7259 -1.5415  3.5655
  670SOL    HW2 2010   2.641   1.240   1.812 -0.9639 -0.2144 -0.5191
  671SOL     OW 2011   3.110   1.421   0.430 -0.0007  0.1505  0.2193
  671SOL    HW1 2012   0.036   1.497   0.488 -1.3947  1.8392  0.0865
  671SOL    HW2 2013   3.069   1.355   0.493 -1.6206  2.2071 -1.0781
  672SOL     OW 2014   2.436   0.596   2.359 -0.6220  0.0620  0.1091
  672SOL    HW1 2015   2.414   0.615   2.261  0.0145 -0.8691 -1.7316
  672SOL    HW2 2016   2.400   0.676   2.411 -0.5810  2.3418 -1.5317
  673SOL     OW 2017   2.636   3.043   1.919  0.0941  0.0755 -0.4218
  673SOL    HW1 2018   2.682   2.987   1.841  0.9983 -2.9249 -1.9389
  673SOL    HW2 2019   2.659   3.006   2.014 -1.3611 -3.1637 -0.5120
  674SOL     OW 2020   1.641   2.152   1.582 -0.0087  0.0942 -0.1663
  674SOL    HW1 2021   1.659   2.235   1.642 -1.6334 -2.0805  2.6266
  674SOL    HW2 2022   1.699   2.162   1.500 -3.0626  0.1500  1.6565
  675SOL     OW 2023   0.707   0.790   0.637  0.5514  0.4666  0.2564
  675SOL    HW1 2024   0.718   0.805   0.738 -3.5386  1.8521  0.4969
  675SOL    HW2 2025   0.699   0.877   0.590  0.6033 -2.2912 -0.3239
  676SOL     OW 2026   1.667   0.786   0.775  0.2906 -0.1221 -0.1521
  676SOL    HW1 2027   1.591   0.846   0.811 -0.1085  0.2092  0.3461
  676SOL    HW2 2028   1.662   0.689   0.818  0.6658 -2.8382  3.8895
  677SOL     OW 2029   2.474   1.408   2.291  0.3357  0.1501 -0.2424
  677SOL    HW1 2030   2.472   1.318   2.239 -1.6623 -2.2715 -0.6215
  677SOL    HW2 2031   2.494   1.485   2.230 -1.2776 -1.8961 -0.8615
  678SOL     OW 2032   3.022   1.662   1.044 -0.1328 -0.5563 -0.3590
  678SOL    HW1 2033   3.042   1.565   1.055 -2.1213  0.6446 -0.0594
  678SOL    HW2 2034   2.938   1.693   1.097 -1.7853  0.2224 -0.4079
  679SOL     OW 2035   2.178   2.745   0.199  0.4221  0.1082  0.4629
  679SOL    HW1 2036   2.187   2.847   0.194 -1.3143 -1.7537  1.4998
  679SOL    HW2 2037   2.185   2.699   0.108  0.1961  0.5686 -0.4137
  680SOL     OW 2038   0.042   2.072   1.851 -0.2289  0.1743 -0.1073
  680SOL    HW1 2039   3.105   1.983   1.872 -0.5938  2.1570 -0.4919
  680SOL    HW2 2040   0.143   2.069   1.878  0.1391 -1.8810  3.8495
  681SOL     OW 2041   0.838   1.170   1.542 -0.2441  0.1944  0.0519
  681SOL    HW1 2042   0.855   1.075   1.572 -2.5923 -0.2742 -1.0502
  681SOL    HW2 2043   0.771   1.210   1.608  1.1973 -2.1700  0.3963
  682SOL     OW 2044   1.290   2.562   0.871 -0.0332  0.1211  0.2105
  682SOL    HW1 2045   1.326   2.519   0.788  0.8950 -1.2407 -1.1768
  682SOL    HW2 2046   1.209   2.513   0.909  1.5446 -0.3888  2.5473
  683SOL     OW 2047   2.500   1.635   0.847  0.0783 -0.3041 -0.1568
  683SOL    HW1 2048   2.400   1.632   0.860  0.5853 -1.7417 -0.9941
  683SOL    HW2 2049   2.530   1.706   0.778  0.3962  2.4589 -0.2110
  684SOL     OW 2050   0.321   2.135   1.872  0.1539  0.3110  0.0656
  684SOL    HW1 2051   0.421   2.138   1.880 -3.1655 -0.2896  0.7113
  684SOL    HW2 2052   0.290   2.162   1.779  0.5969 -2.3964  2.2434
  685SOL     OW 2053   1.763   1.670   2.960 -0.6868 -0.4651 -0.2469
  685SOL    HW1 2054   1.707   1.757   2.970 -0.8393 -0.2335  1.6004
  685SOL    HW2 2055   1.798   1.663   2.865 -1.1500  0.9414 -1.4271
  686SOL     OW 2056   0.282   0.900   1.234  0.7852 -0.4980 -0.0587
  686SOL    HW1 2057   0.340   0.945   1.163  0.2449  1.5371  0.3024
  686SOL    HW2 2058   0.339   0.905   1.324 -2.0495  0.4864  0.0255
  687SOL     OW 2059   0.873   2.417   2.897 -0.0762 -0.0627  0.0060
  687SOL    HW1 2060   0.831   2.478   2.968  2.0196 -1.7413  1.3901
  687SOL    HW2 2061   0.822   2.334   2.872  1.0235 -0.6515 -0.5344
  688SOL     OW 2062   2.570   1.844   1.932 -0.0703 -0.1088  0.1356
  688SOL    HW1 2063   2.562   1.851   2.031  1.3318  3.1926 -1.9126
  688SOL    HW2 2064   2.477   1.857   1.889 -1.5828 -0.6451 -0.8099
  689SOL     OW 2065   2.331   0.648   2.108  0.7354 -0.5500 -0.0163
  689SOL    HW1 2066   2.377   0.604   2.027  2.5893 -3.6511  1.2614
  689SOL    HW2 2067   2.269   0.728   2.076 -0.2462  3.0546  0.3737
  690SOL     OW 2068   2.177   0.992   1.277  0.5483  0.0458 -0.4005
  690SOL    HW1 2069   2.157   1.012   1.375  0.9493 -1.9320  1.3866
  690SOL    HW2 2070   2.267   1.035   1.247  2.0022  3.2586 -0.9400
  691SOL     OW 2071   0.739   1.659   1.988  0.1150 -0.5786 -0.2748
  691SOL    HW1 2072   0.728   1.678   1.889  0.6261  2.2515 -1.0923
  691SOL    HW2 2073   0.837   1.672   2.014  0.1948 -1.6602 -0.0632
  692SOL     OW 2074   1.997   0.195   1.406  0.1443 -0.0775 -0.5404
  692SOL    HW1 2075   2.050   0.252   1.470 -0.0217 -1.2837  0.6433
  692SOL    HW2 2076   1.916   0.147   1.440  2.1741 -0.2214  0.6190
  693SOL     OW 2077   0.497   0.849   2.097 -0.0602 -0.0964  0.1693
  693SOL    HW1 2078   0.534   0.900   2.176 -1.3484 -0.7415  1.3994
  693SOL    HW2 2079   0.556   0.845   2.013  0.8697 -0.2040  0.5704
  694SOL     OW 2080   1.750   2.652   1.281 -0.4181 -0.0745 -0.0315
  694SOL    HW1 2081   1.649   2.637   1.262 -3.0423 -0.0362  0.0611
  694SOL    HW2 2082   1.785   2.734   1.229 -0.8640 -2.1973 -0.4618
  695SOL     OW 2083   1.185   0.953   2.100 -0.5061 -0.2678 -0.3983
  695SOL    HW1 2084   1.240   0.955   2.186  0.2659 -2.2506  5.9375
  695SOL    HW2 2085   1.191   1.040   2.052 -1.0372 -0.2956 -0.3492
  696SOL     OW 2086   1.478   2.990   0.674  0.2339  0.1252  0.3145
  696SOL    HW1 2087   1.431   2.901   0.688  2.4610 -0.7505  0.6814
  696SOL    HW2 2088   1.548   2.987   0.598 -0.9102 -1.4782  1.0097
  697SOL     OW 2089   1.120   0.094   0.640 -0.1623 -0.3084  0.0545
  697SOL    HW1 2090   1.070   0.112   0.726  2.5723 -0.9691  0.3884
  697SOL    HW2 2091   1.095   0.164   0.572  0.5327  1.0633  1.7773
  698SOL     OW 2092   1.590   1.062   2.589 -0.0879  0.0446 -0.1286
  698SOL    HW1 2093   1.574   1.099   2.493  0.9718 -0.2403 -0.5054
  698SOL    HW2 2094   1.507   1.075   2.647 -0.5931 -0.4879 -0.8256
  699SOL     OW 2095   1.468   1.345   1.082 -0.0191 -0.1138 -0.2067
  699SOL    HW1 2096   1.449   1.443   1.114  1.2377  1.2306 -2.7703
  699SOL    HW2 2097   1.541   1.344   1.013  1.4448  2.0383 -0.9852
  700SOL     OW 2098   1.324   0.010   0.480  0.2502 -0.0810  0.1415
  700SOL    HW1 2099   1.246   0.029   0.536  3.6199  1.7545 -3.5327
  700SOL    HW2 2100   1.389   3.067   0.531  1.0477  0.1117 -2.1144
  701SOL     OW 2101   0.314   0.288   1.844  0.6682  0.4254 -0.0175
  701SOL    HW1 2102   0.392   0.327   1.895 -1.5568 -1.0247  1.7327
  701SOL    HW2 2103   0.223   0.329   1.867  1.5508  0.1011 -0.5801
  702SOL     OW 2104   1.287   2.783   0.380 -0.0243  0.1540  0.1779
  702SOL    HW1 2105   1.296   2.799   0.280 -1.3821  0.2722  2.6576
  702SOL    HW2 2106   1.244   2.858   0.433 -1.2661 -0.1365 -0.4478
  703SOL     OW 2107   2.398   2.593   2.487 -0.2830 -0.4094 -0.0003
  703SOL    HW1 2108   2.322   2.661   2.485 -0.0482 -1.1260  2.2815
  703SOL    HW2 2109   2.380   2.518   2.419  2.7473 -1.8205  3.2420
  704SOL     OW 2110   0.574   2.047   0.935  0.3972 -0.4423 -0.1946
  704SOL    HW1 2111   0.666   2.095   0.939  0.3884 -2.9085  1.8792
  704SOL    HW2 2112   0.592   1.952   0.965 -1.2161  2.8729  0.7467
  705SOL     OW 2113   3.079   0.764   1.831  0.3533  0.1770 -0.3556
  705SOL    HW1 2114   3.035   0.684   1.882  2.6858  0.3108 -2.8734
  705SOL    HW2 2115   3.058   0.853   1.877  2.4852  0.7950  0.2064
  706SOL     OW 2116   1.623   2.958   0.422  0.2667 -0.2449  0.2740
  706SOL    HW1 2117   1.652   2.877   0.367  1.0126 -0.9752  0.3535
  706SOL    HW2 2118   1.630   3.048   0.374  2.1734  1.0383  1.6719
  707SOL     OW 2119   1.380   1.885   2.067  0.0918 -0.0781 -0.2664
  707SOL    HW1 2120   1.285   1.874   2.026 -3.9701  2.3920 -0.8936
  707SOL    HW2 2121   1.379   1.909   2.167 -0.4153 -0.6745  2.0697
  708SOL     OW 2122   2.961   2.375   1.482  0.4003  0.1600  0.3754
  708SOL    HW1 2123   2.868   2.355   1.453  1.0025  1.1419 -0.5614
  708SOL    HW2 2124   2.961   2.400   1.578  0.7734 -0.9521 -0.6264
  709SOL     OW 2125   1.996   0.473   1.874  0.2457  0.4144  0.0770
  709SOL    HW1 2126   2.076   0.412   1.877 -2.2848 -0.5393 -2.9592
  709SOL    HW2 2127   1.916   0.429   1.824  1.2389 -0.8676 -1.8363
  710SOL     OW 2128   2.410   0.299   1.506  0.1383 -0.3056  0.8195
  710SOL    HW1 2129   2.453   0.366   1.567  1.0495  1.2373 -0.5656
  710SOL    HW2 2130   2.396   0.338   1.412 -1.2306 -1.5077  1.3449
  711SOL     OW 2131   0.214   2.224   0.368 -0.0573 -0.5817  0.2641
  711SOL    HW1 2132   0.302   2.180   0.396  1.6769  0.9926 -0.0120
  711SOL    HW2 2133   0.141   2.160   0.386  0.8845  2.7783 -1.1182
  712SOL     OW 2134   0.587   2.343   2.274  0.5444 -0.1917  0.0892
  712SOL    HW1 2135   0.499   2.292   2.255 -1.9260  0.5369  1.0250
  712SOL    HW2 2136   0.597   2.437   2.238 -0.2278 -0.2180  1.0021
  713SOL     OW 2137   2.105   0.820   0.047  0.4422 -0.1134 -0.4554
  713SOL    HW1 2138   2.170   0.874   0.107  1.1708 -1.1876 -0.3139
  713SOL    HW2 2139   2.066   0.741   0.099  2.1166 -1.5628 -1.6902
  714SOL     OW 2140   0.778   2.057   0.522 -0.0810 -0.1346  0.5707
  714SOL    HW1 2141   0.836   2.037   0.605  0.8884  0.0965 -0.7418
  714SOL    HW2 2142   0.823   2.116   0.456  0.3302 -0.0322  0.8669
  715SOL     OW 2143   1.856   0.070   0.472  0.4078  0.0694 -0.4348
  715SOL    HW1 2144   1.850   0.064   0.577 -5.2342 -1.6450  0.2554
  715SOL    HW2 2145   1.896   0.159   0.445 -0.2741  2.6159  0.4080
  716SOL     OW 2146   0.538   0.454   1.697  0.3495  0.2930 -0.4961
  716SOL    HW1 2147   0.561   0.452   1.796  0.4346 -1.3116  0.2090
  716SOL    HW2 2148   0.449   0.490   1.673 -0.2678  0.5274  1.2749
  717SOL     OW 2149   0.015   0.800   3.091 -0.2840  0.1272 -0.2565
  717SOL    HW1 2150   3.088   0.830   3.000 -1.5423 -1.4246 -1.1216
  717SOL    HW2 2151   0.061   0.706   3.079 -1.1575 -1.5162  1.1303
  718SOL     OW 2152   1.081   0.938   0.211 -0.2887  0.0357  0.3447
  718SOL    HW1 2153   1.170   0.960   0.161 -1.1155 -1.7491 -2.1164
  718SOL    HW2 2154   1.084   0.845   0.253  2.0573 -2.6330  0.5467
  719SOL     OW 2155   3.026   1.661   3.086 -0.0150 -0.3280  0.0331
  719SOL    HW1 2156   2.991   1.641   0.070 -0.0190 -1.0816  1.7588
  719SOL    HW2 2157   2.966   1.629   3.011 -0.3534  2.4929 -1.3409
  720SOL     OW 2158   1.642   0.911   1.108  0.3687  0.4349  0.1166
  720SOL    HW1 2159   1.599   0.935   1.017 -0.2429 -0.8213 -0.4373
  720SOL    HW2 2160   1.636   0.810   1.127 -2.2681  1.7861  1.8434
  721SOL     OW 2161   2.738   0.866   0.280 -0.2903  0.1022  0.1833
  721SOL    HW1 2162   2.816   0.922   0.240 -0.8550 -0.9557 -1.5428
  721SOL    HW2 2163   2.745   0.864   0.379 -1.2743  0.0978 -0.6507
  722SOL     OW 2164   0.848   1.422   2.733 -0.0117 -0.2907  0.3833
  722SOL    HW1 2165   0.827   1.509   2.681 -0.9930  0.5931 -2.1997
  722SOL    HW2 2166   0.810   1.338   2.687  1.2458 -1.1158  1.5705
  723SOL     OW 2167   0.504   1.226   0.429  0.4332 -0.6406  0.1396
  723SOL    HW1 2168   0.473   1.322   0.451  0.4910 -2.3353 -0.9686
  723SOL    HW2 2169   0.424   1.167   0.450  2.5302  0.1719 -0.0807
  724SOL     OW 2170   0.915   2.407   1.823 -0.3115 -1.0968  0.0239
  724SOL    HW1 2171   0.819   2.406   1.796 -1.0102 -0.0674  3.2305
  724SOL    HW2 2172   0.981   2.464   1.767  1.4527 -2.1347  2.8052
  725SOL     OW 2173   2.526   1.078   1.624 -0.0296  0.4382  0.7414
  725SOL    HW1 2174   2.511   1.176   1.599 -1.0726 -1.6224  0.4968
  725SOL    HW2 2175   2.615   1.069   1.678  2.7818  2.3272  0.9034
  726SOL     OW 2176   1.700   2.726   0.333  0.0869  0.0653 -0.0001
  726SOL    HW1 2177   1.800   2.721   0.362  4.5302  1.3297  0.1075
  726SOL    HW2 2178   1.640   2.672   0.394 -1.6203 -2.0742  1.2322
  727SOL     OW 2179   1.132   0.952   2.571  0.5145  0.2235  0.7591
  727SOL    HW1 2180   1.141   0.923   2.668  0.0224 -2.1384  0.6850
  727SOL    HW2 2181   1.115   0.872   2.512 -1.4217 -0.8880  2.9697
  728SOL     OW 2182   1.470   2.684   1.280  0.0517  0.4025  0.0635
  728SOL    HW1 2183   1.379   2.637   1.266 -4.2139  2.6002 -1.9006
  728SOL    HW2 2184   1.470   2.741   1.368 -0.3081  1.6051  2.1510
  729SOL     OW 2185   1.508   0.592   1.375  0.2714  0.3270 -0.2320
  729SOL    HW1 2186   1.542   0.621   1.285 -1.3110  0.0917  2.8541
  729SOL    HW2 2187   1.455   0.670   1.417 -0.9211  1.8999  1.0673
  730SOL     OW 2188   0.603   2.176   1.925  0.0881 -0.0306  0.4027
  730SOL    HW1 2189   0.628   2.248   1.857 -0.2574 -0.4953  1.6110
  730SOL    HW2 2190   0.663   2.185   2.009 -0.0421 -1.2061  1.8466
  731SOL     OW 2191   0.492   0.255   0.691 -0.7185  0.4423  0.0885
  731SOL    HW1 2192   0.538   0.210   0.769 -1.5908 -1.2109  2.3372
  731SOL    HW2 2193   0.539   0.226   0.610  0.4535  1.1529  2.4352
  732SOL     OW 2194   0.437   0.460   2.989  0.2182 -0.0811  0.4623
  732SOL    HW1 2195   0.536   0.476   2.993  0.2146  0.1567  0.5479
  732SOL    HW2 2196   0.379   0.529   3.025  3.0691 -4.4201 -1.5698
  733SOL     OW 2197   1.136   2.358   1.265 -0.0651 -0.5331 -0.4735
  733SOL    HW1 2198   1.067   2.355   1.341  0.9556  0.2782  3.1881
  733SOL    HW2 2199   1.174   2.454   1.266  1.3435  3.2403  1.7068
  734SOL     OW 2200   3.063   2.355   2.617 -0.3958 -0.5507  0.2676
  734SOL    HW1 2201   3.087   2.255   2.611  1.6571 -0.6245  1.9080
  734SOL    HW2 2202   3.022   2.376   2.709 -0.5932  1.0203  0.7348
  735SOL     OW 2203   0.971   2.795   1.089  0.2520 -0.4447 -0.1287
  735SOL    HW1 2204   0.884   2.842   1.062 -1.9451  2.1759 -2.2821
  735SOL    HW2 2205   1.051   2.831   1.039  0.5066  0.5067  3.8156
  736SOL     OW 2206   1.647   0.467   3.072  0.0708 -0.4818  0.4261
  736SOL    HW1 2207   1.730   0.425   3.029  0.5189 -1.8071  0.0870
  736SOL    HW2 2208   1.639   0.431   0.057 -0.7000 -0.4479  0.0021
  737SOL     OW 2209   3.103   0.283   0.643 -0.2091  0.4907  0.6238
  737SOL    HW1 2210   0.071   0.234   0.684  1.6842 -1.8410 -0.3500
  737SOL    HW2 2211   0.012   0.337   0.558 -2.9522  2.6355 -1.1219
  738SOL     OW 2212   2.576   2.899   1.165  0.6646 -0.7784 -0.7458
  738SOL    HW1 2213   2.566   2.907   1.267  1.3483  1.9529 -0.3794
  738SOL    HW2 2214   2.622   2.990   1.133  0.8361  0.2193  0.2186
  739SOL     OW 2215   1.629   2.357   0.190 -0.1461 -0.1366 -0.2445
  739SOL    HW1 2216   1.673   2.372   0.281  1.5521 -0.5309  0.6927
  739SOL    HW2 2217   1.650   2.262   0.161  1.1244 -2.4171  0.9711
  740SOL     OW 2218   1.821   2.858   1.129 -0.3522 -0.0114 -0.0624
  740SOL    HW1 2219   1.899   2.917   1.107 -1.8318  2.7594  0.5749
  740SOL    HW2 2220   1.786   2.831   1.038  1.0032  0.7778 -0.7010
  741SOL     OW 2221   1.943   0.554   0.800  0.4092  0.4296  0.2593
  741SOL    HW1 2222   2.013   0.480   0.823 -2.2031  1.4161 -1.0480
  741SOL    HW2 2223   1.985   0.648   0.805  2.0547 -2.4924  1.8734
  742SOL     OW 2224   1.382   2.068   2.297  0.7192 -0.2130  0.3121
  742SOL    HW1 2225   1.402   2.114   2.387  3.2511 -2.8025 -0.1596
  742SOL    HW2 2226   1.332   2.143   2.241  1.2744 -1.0442 -0.9813
  743SOL     OW 2227   2.442   0.487   1.901 -0.1971 -0.0077 -0.2237
  743SOL    HW1 2228   2.435   0.543   1.816  0.1662 -2.8338  0.1709
  743SOL    HW2 2229   2.533   0.439   1.912  0.0723  4.0001 -2.5618
  744SOL     OW 2230   2.403   0.501   1.317 -0.2940 -0.0616  0.5600
  744SOL    HW1 2231   2.365   0.595   1.331  0.2061 -0.8609 -1.8149
  744SOL    HW2 2232   2.506   0.503   1.311  1.5154 -0.3783 -1.4110
  745SOL     OW 2233   1.892   1.169   1.821  0.1959  0.2716 -0.4079
  745SOL    HW1 2234   1.840   1.086   1.793 -0.4534  1.3680 -0.0614
  745SOL    HW2 2235   1.837   1.238   1.874 -1.1900  1.9326 -1.5133
  746SOL     OW 2236   1.197   1.366   0.827 -0.1218 -0.1259  0.1484
  746SOL    HW1 2237   1.121   1.426   0.789  1.4222 -0.0134  0.0465
  746SOL    HW2 2238   1.280   1.422   0.825 -1.5264  1.2453 -4.8268
  747SOL     OW 2239   1.682   1.318   0.900  0.2075  0.3469 -0.1934
  747SOL    HW1 2240   1.615   1.270   0.840  2.2598 -0.7838 -0.4339
  747SOL    HW2 2241   1.769   1.262   0.898  1.6075  1.5064 -0.6630
  748SOL     OW 2242   2.947   2.708   0.648 -0.3322  0.7471 -0.2725
  748SOL    HW1 2243   2.894   2.780   0.596 -2.7778 -0.3850 -0.7831
  748SOL    HW2 2244   2.888   2.646   0.706 -0.2415  0.3542 -0.1440
  749SOL     OW 2245   0.058   0.188   2.258  0.2705 -0.6786 -0.1537
  749SOL    HW1 2246   3.104   0.211   2.336 -1.2606  3.0486  3.6038
  749SOL    HW2 2247   0.150   0.161   2.288 -0.0459  0.0964  0.0488
  750SOL     OW 2248   1.906   0.623   1.345 -0.7238 -0.0297  0.3515
  750SOL    HW1 2249   1.968   0.625   1.429  2.7773 -1.8034  2.8054
  750SOL    HW2 2250   1.894   0.717   1.310  0.2142 -0.1346 -1.3415
  751SOL     OW 2251   2.970   0.605   0.733  0.1728  0.7070  0.1147
  751SOL    HW1 2252   3.005   0.592   0.827 -1.0522 -0.5418  1.2783
  751SOL    HW2 2253   3.048   0.605   0.668 -2.6522 -0.1407 -0.8129
  752SOL     OW 2254   0.114   2.771   1.046  0.0359 -0.6218  0.6965
  752SOL    HW1 2255   0.047   2.846   1.019  0.8851 -1.8516 -0.9822
  752SOL    HW2 2256   0.136   2.708   0.969 -0.3157 -0.1710  2.7106
  753SOL     OW 2257   1.323   0.195   2.055  0.0311  0.3229  0.3507
  753SOL    HW1 2258   1.334   0.287   2.012  2.5438 -1.1834  2.0821
  753SOL    HW2 2259   1.417   0.161   2.059 -2.2036  0.6112  0.3933
  754SOL     OW 2260   1.555   2.412   1.688  0.0181 -0.1801  0.2668
  754SOL    HW1 2261   1.590   2.480   1.622  0.0760 -1.3727  0.2491
  754SOL    HW2 2262   1.574   2.436   1.785  0.4456  1.6273 -0.8377
  755SOL     OW 2263   2.899   1.294   0.624  1.2242  0.0438  0.3219
  755SOL    HW1 2264   2.863   1.330   0.716  0.4649  0.4336  0.2566
  755SOL    HW2 2265   2.820   1.282   0.559  0.0400 -1.1938 -1.1541
  756SOL     OW 2266   1.707   1.728   2.404 -0.3440 -0.0499  0.0294
  756SOL    HW1 2267   1.683   1.823   2.370 -1.8592  3.2605  0.5062
  756SOL    HW2 2268   1.761   1.737   2.492  2.3820 -0.2968  0.7069
  757SOL     OW 2269   1.832   2.869   0.610  0.5312 -0.1115 -0.8856
  757SOL    HW1 2270   1.769   2.910   0.542  0.8279 -0.5716 -1.6610
  757SOL    HW2 2271   1.809   2.771   0.631  0.6666 -0.0802  1.6239
  758SOL     OW 2272   0.512   2.879   1.196 -0.1158 -0.3884 -0.2902
  758SOL    HW1 2273   0.478   2.797   1.145  1.1663  2.0504  1.0347
  758SOL    HW2 2274   0.610   2.899   1.169  0.0498  1.0211 -0.1483
  759SOL     OW 2275   0.122   0.869   0.846  0.4135 -0.7257 -0.3801
  759SOL    HW1 2276   0.083   0.802   0.914 -0.8261  0.6908  1.9606
  759SOL    HW2 2277   0.112   0.961   0.892  0.5216  0.1598 -1.7136
  760SOL     OW 2278   2.274   1.348   1.168 -0.0349  0.1800 -0.6429
  760SOL    HW1 2279   2.296   1.257   1.212 -1.4938 -2.7824 -0.5119
  760SOL    HW2 2280   2.172   1.363   1.160 -2.5014 -1.1144 -0.6888
  761SOL     OW 2281   1.226   0.926   0.937 -0.1651 -0.4227  0.1681
  761SOL    HW1 2282   1.231   1.016   0.990  1.1716  3.1526  1.6325
  761SOL    HW2 2283   1.155   0.929   0.866  0.5090 -0.3283  1.9980
  762SOL     OW 2284   2.475   1.964   1.016  0.2036  0.2400 -0.5183
  762SOL    HW1 2285   2.500   1.884   1.071 -0.4478  2.1827 -2.5249
  762SOL    HW2 2286   2.375   1.983   1.023  0.7577 -1.0725 -3.2264
  763SOL     OW 2287   1.174   1.424   2.102  0.4897 -0.2515 -0.0408
  763SOL    HW1 2288   1.259   1.470   2.139  1.1145  2.0505  1.0853
  763SOL    HW2 2289   1.186   1.360   2.024 -0.9167 -0.5036 -0.8802
  764SOL     OW 2290   3.026   1.813   2.131 -0.3344 -0.1818  0.0872
  764SOL    HW1 2291   3.105   1.861   2.182  1.1076  2.6036  0.3987
  764SOL    HW2 2292   3.042   1.713   2.127  0.0339  2.1144  2.0271
  765SOL     OW 2293   1.205   2.598   1.345  0.1168 -0.7437  0.2014
  765SOL    HW1 2294   1.226   2.571   1.441 -0.5926  0.6887  0.8359
  765SOL    HW2 2295   1.187   2.703   1.336 -0.1469  1.1022  1.7717
  766SOL     OW 2296   0.692   2.303   2.532  0.1252  0.1670 -0.1791
  766SOL    HW1 2297   0.680   2.204   2.543  2.4789  1.0773 -1.6559
  766SOL    HW2 2298   0.644   2.331   2.443 -0.8200 -0.3694 -2.2023
  767SOL     OW 2299   1.864   0.343   2.988  0.1122 -0.4090 -0.2465
  767SOL    HW1 2300   1.843   0.275   2.913  1.1048 -1.5082 -0.4575
  767SOL    HW2 2301   1.962   0.370   2.998 -0.0513 -0.8689  0.1902
  768SOL     OW 2302   1.328   2.420   2.925  0.5817  0.0775  0.0050
  768SOL    HW1 2303   1.232   2.376   2.930 -1.4919 -3.4643 -1.2384
  768SOL    HW2 2304   1.364   2.440   3.015  0.0725  0.7056 -1.9324
  769SOL     OW 2305   2.829   2.807   1.396 -0.4103  0.6478  0.5014
  769SOL    HW1 2306   2.803   2.905   1.411 -1.7069 -0.1509  1.9825
  769SOL    HW2 2307   2.930   2.798   1.380  1.5185  1.1252  0.8488
  770SOL     OW 2308   0.684   3.055   2.879  0.3823  0.1528 -0.6846
  770SOL    HW1 2309   0.641   3.075   2.967  0.8492 -0.4511 -2.7816
  770SOL    HW2 2310   0.781   3.035   2.903 -3.9534  1.3254  0.7394
  771SOL     OW 2311   0.631   2.961   2.638 -0.0316 -0.3169  0.9978
  771SOL    HW1 2312   0.658   3.000   2.730  0.7909 -0.4928  1.6231
  771SOL    HW2 2313   0.611   2.860   2.654  1.1801  0.5997  0.1842
  772SOL     OW 2314   2.378   2.966   1.959  0.5447  0.1113 -0.5057
  772SOL    HW1 2315   2.477   2.989   1.934 -0.0026  0.3747 -2.9825
  772SOL    HW2 2316   2.372   2.864   1.962 -0.3147 -0.4623 -0.0873
  773SOL     OW 2317   0.656   2.367   1.768 -0.1552 -0.1278 -0.1495
  773SOL    HW1 2318   0.628   2.398   1.676  0.0785 -0.3084 -0.1306
  773SOL    HW2 2319   0.633   2.434   1.841  1.2273  0.0868 -0.6042
  774SOL     OW 2320   1.594   0.472   2.039  0.2285 -0.2915 -0.0409
  774SOL    HW1 2321   1.624   0.396   2.109  5.1638 -0.8678  0.1763
  774SOL    HW2 2322   1.497   0.463   2.003  0.5069  1.8188 -0.4899
  775SOL     OW 2323   2.210   2.608   3.055 -0.4734  0.2754 -0.1762
  775SOL    HW1 2324   2.210   2.514   3.021 -2.9102  0.9629 -0.9213
  775SOL    HW2 2325   2.292   2.661   3.024 -0.8550  0.3511 -1.4815
  776SOL     OW 2326   2.156   0.896   2.137 -0.2919 -0.3728 -0.3600
  776SOL    HW1 2327   2.150   0.984   2.089 -0.2144 -0.8850  2.2796
  776SOL    HW2 2328   2.094   0.833   2.089  1.1517 -1.5922  1.0713
  777SOL     OW 2329   2.880   1.193   2.544 -0.4013 -0.3816  0.3625
  777SOL    HW1 2330   2.822   1.107   2.544  0.7005 -1.0794  0.9435
  777SOL    HW2 2331   2.840   1.274   2.499  0.8391  0.6225  0.2972
  778SOL     OW 2332   2.138   0.518   2.277 -0.0532  0.4355 -0.3153
  778SOL    HW1 2333   2.127   0.585   2.353 -1.7424  0.0693 -0.9911
  778SOL    HW2 2334   2.206   0.553   2.214 -1.6166 -2.0235 -0.3959
  779SOL     OW 2335   3.020   0.267   0.238  0.1727 -0.0162  0.4039
  779SOL    HW1 2336   3.069   0.325   0.309  1.9117 -0.9319  1.6090
  779SOL    HW2 2337   3.083   0.199   0.195 -0.6614 -1.8828 -1.7788
  780SOL     OW 2338   2.447   0.119   2.512  0.7034 -0.5649  0.4912
  780SOL    HW1 2339   2.348   0.116   2.493  0.2224  0.0344 -0.8538
  780SOL    HW2 2340   2.482   0.220   2.505  1.4977  0.9798 -0.2670
  781SOL     OW 2341   0.217   0.062   1.622  0.2396 -0.4222  0.7148
  781SOL    HW1 2342   0.203   0.075   1.522  1.6133 -1.2794  1.0332
  781SOL    HW2 2343   0.217   0.149   1.669  1.2364 -1.7791 -1.4181
  782SOL     OW 2344   1.795   2.442   3.062 -0.0053 -0.2137  0.7853
  782SOL    HW1 2345   1.710   2.440   3.007 -0.2156 -3.1100  0.6422
  782SOL    HW2 2346   1.777   2.429   0.048 -0.3461  2.4697 -3.2212
  783SOL     OW 2347   0.840   1.508   1.568  0.2942  0.3243 -0.1731
  783SOL    HW1 2348   0.912   1.536   1.501 -1.1557 -0.4288 -3.0283
  783SOL    HW2 2349   0.875   1.507   1.666 -0.9315 -0.2867  0.4400
  784SOL     OW 2350   1.795   0.672   2.432 -0.0176  0.0969  0.0087
  784SOL    HW1 2351   1.693   0.697   2.420 -3.1561  1.4779  0.4056
  784SOL    HW2 2352   1.855   0.748   2.403 -1.1800  1.1374  3.3345
  785SOL     OW 2353   2.852   0.755   1.069 -0.2010  0.5411  0.5832
  785SOL    HW1 2354   2.843   0.796   1.162 -1.6364 -1.2539 -1.4543
  785SOL    HW2 2355   2.859   0.653   1.075 -0.0413 -1.4488 -2.2928
  786SOL     OW 2356   2.025   2.978   0.795 -0.7740  0.1910  0.1022
  786SOL    HW1 2357   1.937   2.984   0.741 -1.2644 -1.8102 -0.9900
  786SOL    HW2 2358   2.091   2.910   0.753  2.3987  0.8889 -2.0381
  787SOL     OW 2359   1.186   2.992   0.982 -0.3166 -0.1957  0.1221
  787SOL    HW1 2360   1.099   3.046   0.969  0.4170 -1.4151  1.5982
  787SOL    HW2 2361   1.265   3.053   1.009 -0.3233  0.6250  0.2636
  788SOL     OW 2362   0.072   1.148   0.868 -0.2322  0.0201  0.4971
  788SOL    HW1 2363   3.109   1.147   0.937  0.1311  1.6331 -0.9636
  788SOL    HW2 2364   0.106   1.241   0.856  0.4942 -1.1184 -0.3815
  789SOL     OW 2365   0.259   0.963   2.033 -0.2543 -0.0277  0.2824
  789SOL    HW1 2366   0.187   0.960   2.109 -1.4451  3.9773  2.6744
  789SOL    HW2 2367   0.344   0.912   2.058  0.5068 -0.1496 -0.9855
  790SOL     OW 2368   0.868   0.515   2.734 -0.3168 -0.0152 -0.1164
  790SOL    HW1 2369   0.813   0.516   2.822 -1.7847 -0.1212  2.5457
  790SOL    HW2 2370   0.823   0.455   2.663  1.1950  1.5370  1.1566
  791SOL     OW 2371   2.441   0.445   0.278 -0.3883 -0.2629  0.4037
  791SOL    HW1 2372   2.363   0.440   0.338  1.3881  0.1834  0.4717
  791SOL    HW2 2373   2.513   0.509   0.318 -0.0605  3.0616  1.7962
  792SOL     OW 2374   1.357   0.459   1.153 -0.7454 -0.1659  0.0684
  792SOL    HW1 2375   1.304   0.539   1.128  1.3036 -2.4599 -1.8092
  792SOL    HW2 2376   1.428   0.475   1.223  0.2343 -1.9780 -0.1432
  793SOL     OW 2377   0.120   2.837   1.420  0.1641 -0.3405 -0.3678
  793SOL    HW1 2378   0.220   2.854   1.432 -0.8600 -1.3780  0.1265
  793SOL    HW2 2379   0.067   2.922   1.392 -0.8037 -0.9264 -2.0207
  794SOL     OW 2380   0.225   0.533   2.006  0.1516  0.0275  0.3006
  794SOL    HW1 2381   0.234   0.622   1.965  0.3459 -1.6427 -1.9998
  794SOL    HW2 2382   0.297   0.518   2.075  1.5853 -0.3602  0.5264
  795SOL     OW 2383   0.386   2.440   2.550 -0.1349  0.1428 -0.1179
  795SOL    HW1 2384   0.428   2.524   2.514 -1.8437  0.1898 -1.4395
  795SOL    HW2 2385   0.317   2.461   2.618 -0.4373  0.3672 -0.1633
  796SOL     OW 2386   2.012   0.271   2.672  0.5673 -0.1620 -0.0728
  796SOL    HW1 2387   1.950   0.357   2.655 -0.1977  1.1721  1.2404
  796SOL    HW2 2388   2.010   0.237   2.768  2.4991 -1.5135  0.0629
  797SOL     OW 2389   2.546   2.291   2.601 -0.3252 -0.1597 -0.6402
  797SOL    HW1 2390   2.479   2.358   2.638 -0.9727  0.0391  0.6055
  797SOL    HW2 2391   2.594   2.238   2.670  0.6946  1.0636 -1.3903
  798SOL     OW 2392   0.433   0.890   1.464 -0.4285 -0.3405  0.4926
  798SOL    HW1 2393   0.478   0.803   1.477 -0.9625 -0.8734 -1.0014
  798SOL    HW2 2394   0.388   0.923   1.551 -1.9312  1.9865  0.0949
  799SOL     OW 2395   0.751   0.182   1.752 -0.1328  0.0004 -0.4711
  799SOL    HW1 2396   0.659   0.145   1.741  1.4466  1.6557  1.2330
  799SOL    HW2 2397   0.811   0.134   1.817  1.8557  3.5783  0.5922
  800SOL     OW 2398   3.011   2.500   0.405  0.1554 -0.3561 -0.4722
  800SOL    HW1 2399   3.083   2.470   0.334  0.5769  0.1214  1.2394
  800SOL    HW2 2400   3.034   2.580   0.457 -0.8089 -3.9658  0.3925
  801SOL     OW 2401   1.635   1.785   0.627 -0.1485  0.5327 -0.4089
  801SOL    HW1 2402   1.689   1.869   0.602  1.3014  1.3816 -1.2205
  801SOL    HW2 2403   1.550   1.814   0.669  0.5880  2.0058 -1.0367
  802SOL     OW 2404   0.509   0.619   0.247 -0.4918 -0.0712 -0.2472
  802SOL    HW1 2405   0.486   0.701   0.299  2.8724 -0.6093 -2.1894
  802SOL    HW2 2406   0.439   0.596   0.178 -0.7685  1.9585  3.9146
  803SOL     OW 2407   1.216   1.173   2.373  0.2110 -0.2363 -0.6381
  803SOL    HW1 2408   1.188   1.109   2.442  2.1835  2.1018 -2.3994
  803SOL    HW2 2409   1.132   1.227   2.340 -2.3064 -2.1444  0.0919
  804SOL     OW 2410   1.982   1.991   1.336 -0.4120  0.3312  0.1485
  804SOL    HW1 2411   1.998   1.961   1.431  1.6185 -0.7369  0.6836
  804SOL    HW2 2412   2.042   1.945   1.274 -0.8965  2.1519  0.7066
  805SOL     OW 2413   3.085   2.065   2.541 -0.5487  0.1623  0.1530
  805SOL    HW1 2414   0.069   2.024   2.561  4.0262  2.1573 -1.2054
  805SOL    HW2 2415   3.078   2.092   2.444 -3.3518  0.1396 -1.2818
  806SOL     OW 2416   0.604   2.513   0.230  0.1267 -0.1377 -0.2478
  806SOL    HW1 2417   0.650   2.601   0.205  0.9777  1.3818  1.0354
  806SOL    HW2 2418   0.510   2.525   0.269 -1.7502 -0.1875  1.5185
  807SOL     OW 2419   2.404   0.868   2.931  0.3320 -0.0771 -0.5394
  807SOL    HW1 2420   2.449   0.874   3.023 -0.9560 -0.3654 -1.3598
  807SOL    HW2 2421   2.299   0.883   2.932 -1.4066 -0.3110 -1.5470
  808SOL     OW 2422   1.591   2.147   0.798 -0.7352  0.2825  0.6202
  808SOL    HW1 2423   1.669   2.095   0.760  0.4366 -0.5855 -1.4682
  808SOL    HW2 2424   1.625   2.221   0.858 -1.8732 -1.1748  0.0766
  809SOL     OW 2425   0.325   0.632   0.688 -0.4669  1.3449 -0.1615
  809SOL    HW1 2426   0.339   0.725   0.662 -1.3239 -2.0327  1.6350
  809SOL    HW2 2427   0.333   0.615   0.790 -2.3277 -2.3054 -2.7220
  810SOL     OW 2428   1.447   1.656   0.024  0.0590 -0.1703  0.7825
  810SOL    HW1 2429   1.455   1.606   3.048  2.4828  0.5813  1.5995
  810SOL    HW2 2430   1.495   1.747   0.016  1.0233 -0.5586 -1.2208
  811SOL     OW 2431   1.222   2.863   1.634  0.1477  0.0592 -0.1607
  811SOL    HW1 2432   1.308   2.835   1.596  1.7795 -0.6125 -0.6383
  811SOL    HW2 2433   1.157   2.893   1.563 -1.5683  0.9958  3.4397
  812SOL     OW 2434   1.626   2.991   0.909 -0.1403  0.2274  0.0531
  812SOL    HW1 2435   1.593   3.015   0.815  0.5755 -0.8216  1.6643
  812SOL    HW2 2436   1.649   2.894   0.925  0.0527  1.6274  0.5720
  813SOL     OW 2437   1.414   2.927   2.166 -0.1448 -0.0430  1.0335
  813SOL    HW1 2438   1.384   2.835   2.201  0.4821  0.8118 -3.1397
  813SOL    HW2 2439   1.335   2.966   2.111 -2.9610  0.9310 -2.2558
  814SOL     OW 2440   1.169   2.758   1.895 -0.5862 -0.6552 -0.0293
  814SOL    HW1 2441   1.245   2.729   1.956  0.5198 -2.4190 -0.0080
  814SOL    HW2 2442   1.196   2.779   1.797 -0.2359 -1.4128 -0.2933
  815SOL     OW 2443   0.400   0.239   0.057 -0.3164 -0.4005  0.1864
  815SOL    HW1 2444   0.467   0.210   0.127 -1.7222  0.2710 -1.9130
  815SOL    HW2 2445   0.415   0.331   0.012 -0.0972 -0.4848 -0.9862
  816SOL     OW 2446   2.596   1.367   0.044  0.6547 -0.0525  0.4255
  816SOL    HW1 2447   2.639   1.372   3.060  1.2310 -1.1384 -3.0943
  816SOL    HW2 2448   2.632   1.291   0.098 -1.6136  2.2115 -0.9240
  817SOL     OW 2449   2.748   2.298   2.442 -0.7753  0.1394  0.2646
  817SOL    HW1 2450   2.680   2.306   2.514 -0.0030 -0.6863  1.7037
  817SOL    HW2 2451   2.822   2.234   2.466  2.1901 -0.0265 -2.1258
  818SOL     OW 2452   0.969   1.326   0.460 -0.0671  0.1037  0.0155
  818SOL    HW1 2453   0.967   1.299   0.562  1.0477  1.1229  3.1884
  818SOL    HW2 2454   0.871   1.347   0.438 -0.6687  1.7538 -1.5989
  819SOL     OW 2455   1.641   1.321   2.872  0.4701  0.4772  0.1174
  819SOL    HW1 2456   1.695   1.239   2.828 -0.3313 -0.8853 -1.1037
  819SOL    HW2 2457   1.703   1.358   2.942  0.6780 -0.8102 -0.5717
  820SOL     OW 2458   0.426   1.472   0.516  0.4714 -0.1450 -0.1005
  820SOL    HW1 2459   0.490   1.477   0.597  1.2408  0.5262 -2.3958
  820SOL    HW2 2460   0.458   1.538   0.447 -2.7327 -0.7520  1.5893
  821SOL     OW 2461   0.424   2.920   1.439  0.0562 -0.1203  0.1091
  821SOL    HW1 2462   0.462   2.890   1.348 -0.7019  0.8539  1.8177
  821SOL    HW2 2463   0.472   3.002   1.477 -0.7525  0.3288 -2.2711
  822SOL     OW 2464   2.002   1.859   2.745 -0.1861  0.2732  0.2011
  822SOL    HW1 2465   2.014   1.897   2.842  0.5810  1.0968 -0.8223
  822SOL    HW2 2466   2.011   1.934   2.674  1.9176  1.1656  1.7919
  823SOL     OW 2467   0.791   0.731   2.234 -0.1714 -0.5548 -0.3154
  823SOL    HW1 2468   0.828   0.644   2.197  0.8118 -2.0030  0.5192
  823SOL    HW2 2469   0.708   0.720   2.294 -1.0007 -1.2258  0.2431
  824SOL     OW 2470   2.455   2.644   1.508 -0.0341 -0.3930 -0.5413
  824SOL    HW1 2471   2.398   2.639   1.597 -0.6078 -0.7837  4.6427
  824SOL    HW2 2472   2.475   2.743   1.491  2.0370  2.9140 -0.2624
  825SOL     OW 2473   0.163   1.758   2.399  0.4567 -0.3998  0.4967
  825SOL    HW1 2474   0.156   1.836   2.333 -0.8810  1.3646 -1.3565
  825SOL    HW2 2475   0.134   1.782   2.494  1.2654  0.0465  0.7924
  826SOL     OW 2476   1.665   0.060   0.272 -0.3440  0.0400 -0.9207
  826SOL    HW1 2477   1.718   0.059   0.357 -1.8390 -0.1469 -1.5507
  826SOL    HW2 2478   1.726   0.028   0.204  2.0375  2.1548  2.3074
  827SOL     OW 2479   3.004   1.828   1.873  0.0937  0.1201  0.2175
  827SOL    HW1 2480   2.919   1.777   1.840 -4.2236 -3.0091 -0.1713
  827SOL    HW2 2481   3.015   1.815   1.974  1.9369 -1.1829 -1.8128
  828SOL     OW 2482   0.199   0.120   1.356 -0.5098  0.0431 -0.0884
  828SOL    HW1 2483   0.222   0.210   1.309 -0.3323  1.8743 -0.0872
  828SOL    HW2 2484   0.241   0.035   1.311  0.0395 -3.1173 -1.7874
  829SOL     OW 2485   0.915   1.658   2.301 -0.4414 -0.1492  0.1345
  829SOL    HW1 2486   0.905   1.673   2.402  3.0453 -0.7351  0.6246
  829SOL    HW2 2487   0.844   1.588   2.271  0.8480  1.1904 -0.6247
  830SOL     OW 2488   0.903   0.898   1.598  0.4733  0.1260 -0.1715
  830SOL    HW1 2489   0.888   0.865   1.503  1.9611  0.7886  0.8911
  830SOL    HW2 2490   0.874   0.823   1.657  0.9351 -1.1175 -2.2697
  831SOL     OW 2491   2.693   1.635   0.082 -0.1676 -0.2357  0.0320
  831SOL    HW1 2492   2.642   1.549   0.054  1.2163  1.6059 -0.7475
  831SOL    HW2 2493   2.784   1.614   0.131  1.8579 -2.1732 -2.6194
  832SOL     OW 2494   1.098   2.283   2.936  0.6659  0.3088 -0.0687
  832SOL    HW1 2495   1.008   2.328   2.953 -0.9502  0.8905  0.4624
  832SOL    HW2 2496   1.093   2.209   2.865  0.8812 -1.1642 -1.3338
  833SOL     OW 2497   0.304   0.555   1.601  0.3528  0.5291  0.1478
  833SOL    HW1 2498   0.216   0.527   1.640  0.4988  1.6835  1.3272
  833SOL    HW2 2499   0.296   0.555   1.500 -1.1744 -1.6950 -1.1412
  834SOL     OW 2500   0.049   1.047   1.240  0.2291  0.7905  0.1653
  834SOL    HW1 2501   0.148   1.023   1.230 -0.6580  2.1831 -1.5071
  834SOL    HW2 2502   0.012   0.991   1.318 -0.0267 -2.4505  2.5654
  835SOL     OW 2503   2.713   0.610   0.633  0.0275 -0.0636 -0.5114
  835SOL    HW1 2504   2.812   0.616   0.663  1.3678  0.9660 -1.3479
  835SOL    HW2 2505   2.679   0.522   0.672  0.7707 -1.6460  2.1436
  836SOL     OW 2506   0.582   2.329   3.043 -0.3638 -0.1652 -0.2448
  836SOL    HW1 2507   0.564   2.239   3.092  1.1930  0.2576 -0.5247
  836SOL    HW2 2508   0.609   2.310   2.946 -0.5385 -1.2630  1.7842
  837SOL     OW 2509   1.484   2.078   0.314  0.1560  0.0797  0.1661
  837SOL    HW1 2510   1.504   2.076   0.214 -1.1385  1.3549 -1.0096
  837SOL    HW2 2511   1.390   2.047   0.336 -1.5582  2.1631 -0.7616
  838SOL     OW 2512   2.375   0.956   2.286  0.7947  0.0467 -0.6075
  838SOL    HW1 2513   2.445   1.001   2.223 -0.0994  0.4749 -1.9030
  838SOL    HW2 2514   2.297   0.927   2.230 -1.6723  1.3778  0.1436
  839SOL     OW 2515   1.224   1.341   2.749  0.2948  0.7266 -0.2977
  839SOL    HW1 2516   1.141   1.311   2.797 -2.1499 -0.1940  0.5328
  839SOL    HW2 2517   1.287   1.402   2.805  1.0789  1.3548 -0.3435
  840SOL     OW 2518   0.655   1.041   0.118  0.1480  0.4546  0.2976
  840SOL    HW1 2519   0.572   1.008   0.076  0.3597  2.5914  1.0710
  840SOL    HW2 2520   0.665   1.002   0.209 -1.2365 -1.5117 -0.2697
  841SOL     OW 2521   1.244   2.177   0.052 -0.2905 -0.1425  0.2617
  841SOL    HW1 2522   1.250   2.250   0.129  0.1218  1.6022 -0.8331
  841SOL    HW2 2523   1.207   2.218   3.080  1.5924  3.0595 -0.7437
  842SOL     OW 2524   0.409   0.435   0.530  0.0242  0.3544  0.1597
  842SOL    HW1 2525   0.351   0.515   0.555  1.0252  0.3648  1.2489
  842SOL    HW2 2526   0.422   0.378   0.619 -1.3627 -1.2794  1.6454
  843SOL     OW 2527   0.536   0.765   1.037  0.0970  0.0570  0.6964
  843SOL    HW1 2528   0.514   0.863   1.039  0.8396 -0.4909  0.7468
  843SOL    HW2 2529   0.446   0.717   1.027 -0.9897 -0.6103  0.6116
  844SOL     OW 2530   1.977   2.521   2.517 -0.1090 -0.3702  0.7781
  844SOL    HW1 2531   2.024   2.603   2.485 -1.4487  2.3595 -0.0761
  844SOL    HW2 2532   1.879   2.544   2.509 -1.7219  2.3126  2.1101
  845SOL     OW 2533   2.777   2.881   1.763  0.1133  0.0770  0.0029
  845SOL    HW1 2534   2.876   2.910   1.759 -3.1000  0.2987 -1.6305
  845SOL    HW2 2535   2.766   2.781   1.730  1.3241 -2.8929 -0.4657
  846SOL     OW 2536   1.795   0.892   2.666  0.0525 -0.0478  0.1691
  846SOL    HW1 2537   1.775   0.796   2.691  1.2977 -0.6207  0.3367
  846SOL    HW2 2538   1.719   0.938   2.616 -2.7982  0.4449 -1.3366
  847SOL     OW 2539   0.027   0.547   1.666 -0.3853 -0.1630  0.0537
  847SOL    HW1 2540   0.009   0.624   1.731  1.3166  0.0654  0.8922
  847SOL    HW2 2541   0.006   0.455   1.709 -0.3044 -1.0608 -2.1541
  848SOL     OW 2542   2.585   2.858   0.236 -0.1764  0.2849 -0.3401
  848SOL    HW1 2543   2.638   2.906   0.163 -1.3304  1.4977  3.4717
  848SOL    HW2 2544   2.531   2.782   0.196  0.0066 -1.2213 -0.2463
  849SOL     OW 2545   0.525   2.948   0.898  0.0952  0.1376 -0.2146
  849SOL    HW1 2546   0.565   2.878   0.837  1.7617  0.0345  2.3365
  849SOL    HW2 2547   0.425   2.947   0.880  0.4139 -3.1876 -1.8663
  850SOL     OW 2548   0.663   2.254   0.292  0.0222  0.2460  0.5290
  850SOL    HW1 2549   0.643   2.351   0.267 -2.5195 -0.8729 -1.0250
  850SOL    HW2 2550   0.761   2.230   0.266 -1.0912  0.3122 -0.4768
  851SOL     OW 2551   2.158   0.418   2.948 -0.0894 -0.6392 -0.2433
  851SOL    HW1 2552   2.129   0.481   2.876 -2.0968  0.2548  2.5305
  851SOL    HW2 2553   2.149   0.318   2.924  0.9199  0.4101  0.4065
  852SOL     OW 2554   1.720   2.430   2.665  0.2065  0.2804 -0.8339
  852SOL    HW1 2555   1.800   2.392   2.713  1.0205  1.3532  0.8890
  852SOL    HW2 2556   1.714   2.395   2.567  0.7080 -1.9785 -0.4929
  853SOL     OW 2557   0.072   2.414   0.224  0.1667 -0.5442  0.4962
  853SOL    HW1 2558   0.116   2.482   0.161 -0.2153 -0.0809 -0.8954
  853SOL    HW2 2559   0.144   2.350   0.250 -1.2982  0.7586 -1.9507
  854SOL     OW 2560   1.200   0.538   2.173  0.3114  0.1550 -0.3617
  854SOL    HW1 2561   1.231   0.453   2.217  0.7917 -0.1164 -1.7638
  854SOL    HW2 2562   1.275   0.609   2.166  0.3913  3.8647 -0.1515
  855SOL     OW 2563   0.261   2.775   0.703 -0.0588 -0.0458  0.5399
  855SOL    HW1 2564   0.231   2.703   0.766  0.1484 -0.0974 -0.3830
  855SOL    HW2 2565   0.201   2.768   0.616  0.3314  1.1491 -0.4989
  856SOL     OW 2566   0.357   2.984   2.498  0.5476 -0.0492 -0.4761
  856SOL    HW1 2567   0.325   2.889   2.468  2.7574  0.0488 -0.7100
  856SOL    HW2 2568   0.441   2.976   2.556  1.0098 -1.0252  3.3136
  857SOL     OW 2569   1.122   0.242   1.624  0.4270  0.0731 -0.6334
  857SOL    HW1 2570   1.107   0.283   1.718 -0.9245 -0.4746 -1.0134
  857SOL    HW2 2571   1.029   0.240   1.580  1.4338 -1.7616  0.3640
  858SOL     OW 2572   0.088   2.050   1.555 -0.4975 -0.0938 -0.5695
  858SOL    HW1 2573   0.069   2.062   1.655 -0.7167 -1.8153 -1.4698
  858SOL    HW2 2574   0.189   2.055   1.539 -3.0374  0.5197  2.1116
  859SOL     OW 2575   1.975   2.809   1.909  0.1610 -0.5794  0.5505
  859SOL    HW1 2576   2.051   2.824   1.848  2.5543 -0.8207  0.7667
  859SOL    HW2 2577   1.914   2.737   1.871 -1.5659 -0.6096 -0.4058
  860SOL     OW 2578   1.828   0.148   0.732  0.1784 -0.2919 -0.7714
  860SOL    HW1 2579   1.759   0.179   0.801 -1.4726 -0.9021  2.2804
  860SOL    HW2 2580   1.923   0.145   0.768 -2.4570  0.9531  1.6292
  861SOL     OW 2581   2.752   0.876   0.574  0.0126  0.4543 -0.4646
  861SOL    HW1 2582   2.736   0.774   0.587  0.4525 -0.5021  1.1286
  861SOL    HW2 2583   2.824   0.902   0.642 -1.0958  0.1901 -0.8810
  862SOL     OW 2584   1.985   0.708   1.985  0.8810  0.0754 -0.4855
  862SOL    HW1 2585   1.982   0.610   1.957  0.9167 -2.6026  0.6194
  862SOL    HW2 2586   2.056   0.760   1.934 -0.1133  1.4764 -1.5823
  863SOL     OW 2587   0.793   0.792   0.931  0.4396 -0.2100 -0.0844
  863SOL    HW1 2588   0.697   0.760   0.932  0.2839 -1.5340 -2.2666
  863SOL    HW2 2589   0.858   0.717   0.964  0.8552 -1.5272 -0.3243
  864SOL     OW 2590   2.946   2.829   2.139  0.3826  0.2931 -0.3461
  864SOL    HW1 2591   2.923   2.729   2.153 -0.7798  0.6453  1.3205
  864SOL    HW2 2592   2.862   2.884   2.153 -0.1500  1.6303  1.0162
  865SOL     OW 2593   1.029   0.705   2.433  1.0705  0.3249 -0.0524
  865SOL    HW1 2594   0.951   0.711   2.368  0.4163  0.3009 -0.3595
  865SOL    HW2 2595   1.041   0.607   2.460 -1.9156 -1.2006 -0.8171
  866SOL     OW 2596   2.581   2.626   0.627  0.2942 -0.0331 -0.1197
  866SOL    HW1 2597   2.552   2.704   0.685  1.5418  0.3511  0.5284
  866SOL    HW2 2598   2.612   2.547   0.683 -0.1697  0.2187  2.0388
  867SOL     OW 2599   2.893   3.019   0.496 -0.0553  0.1348 -0.3111
  867SOL    HW1 2600   2.807   2.969   0.494  1.0165 -2.4798 -0.7567
  867SOL    HW2 2601   2.885   0.005   0.477 -0.2461 -0.7268  1.6519
  868SOL     OW 2602   1.678   0.981   3.104  0.2418  0.1532  0.2341
  868SOL    HW1 2603   1.607   0.941   3.034 -3.4321 -0.4093 -3.3532
  868SOL    HW2 2604   1.630   1.049   0.054  0.6512 -0.2136 -0.3053
  869SOL     OW 2605   2.901   2.311   0.592  0.2203 -0.0593  0.1749
  869SOL    HW1 2606   2.813   2.274   0.552  1.0375  0.6068  1.2522
  869SOL    HW2 2607   2.956   2.373   0.532  0.6756  0.3492 -2.1788
  870SOL     OW 2608   2.193   2.021   0.281 -0.0495 -0.1823  0.0515
  870SOL    HW1 2609   2.111   2.076   0.311 -0.5648 -2.0771  1.5220
  870SOL    HW2 2610   2.199   1.945   0.344 -0.3835  0.2512 -0.3468
  871SOL     OW 2611   0.851   1.096   1.031 -0.1477  0.3976  0.4339
  871SOL    HW1 2612   0.804   1.012   0.997 -0.2052 -3.2421  1.6785
  871SOL    HW2 2613   0.925   1.072   1.093 -0.7531 -0.3396  1.5693
  872SOL     OW 2614   1.125   1.946   2.287 -0.1347 -0.2161  0.0287
  872SOL    HW1 2615   1.223   1.961   2.294 -2.0104 -0.4488  0.6205
  872SOL    HW2 2616   1.081   1.970   2.199 -0.8158 -0.0696  1.4272
  873SOL     OW 2617   0.506   2.477   1.974  0.3145 -0.3136 -0.0916
  873SOL    HW1 2618   0.558   2.534   2.043  2.7431  1.3952 -1.8088
  873SOL    HW2 2619   0.423   2.423   2.009 -2.0190 -0.0322 -2.5069
  874SOL     OW 2620   0.831   0.221   1.097 -0.3057  0.1212 -0.0647
  874SOL    HW1 2621   0.903   0.291   1.081 -0.3931  0.7031 -2.0994
  874SOL    HW2 2622   0.798   0.221   1.192  1.0878 -1.0465  0.3975
  875SOL     OW 2623   2.979   0.308   1.300  0.3017 -0.3099 -0.3275
  875SOL    HW1 2624   2.890   0.326   1.345  0.7248  2.5990 -0.7498
  875SOL    HW2 2625   3.049   0.358   1.353 -2.3127  0.6330 -1.6869
  876SOL     OW 2626   0.447   0.874   0.091 -0.0193 -0.6702 -0.2822
  876SOL    HW1 2627   0.453   0.885   0.196 -1.8502 -1.0648  2.8778
  876SOL    HW2 2628   0.359   0.899   0.053  0.1502  0.4955  4.4889
  877SOL     OW 2629   0.907   0.543   1.481  0.5330 -0.0426  0.6396
  877SOL    HW1 2630   1.007   0.549   1.504 -2.0135 -2.7927 -0.6104
  877SOL    HW2 2631   0.850   0.619   1.529 -1.0921  1.6809  0.2543
  878SOL     OW 2632   1.999   2.724   0.401  0.3613 -0.4087 -0.0056
  878SOL    HW1 2633   2.072   2.709   0.334  0.0690 -0.5305  0.5432
  878SOL    HW2 2634   2.036   2.723   0.496  0.4241  1.9075 -0.6299
  879SOL     OW 2635   2.639   1.394   1.320 -0.0528  0.2160  0.6050
  879SOL    HW1 2636   2.657   1.295   1.287 -1.3740 -1.8593  0.4606
  879SOL    HW2 2637   2.587   1.445   1.247 -1.7090  0.3016  0.1208
  880SOL     OW 2638   1.366   2.454   0.633 -0.0134  0.0774 -0.4761
  880SOL    HW1 2639   1.447   2.409   0.585  0.4470 -0.5745 -0.9277
  880SOL    HW2 2640   1.297   2.378   0.649  2.0501 -1.6326  0.6901
  881SOL     OW 2641   0.888   2.133   0.242 -0.6299 -0.0412 -0.2064
  881SOL    HW1 2642   0.989   2.152   0.245 -3.3777 -0.3313 -0.4144
  881SOL    HW2 2643   0.856   2.071   0.170  0.3620  0.8498 -0.1107
  882SOL     OW 2644   1.914   0.868   1.250 -0.0788 -0.1000  0.0055
  882SOL    HW1 2645   1.977   0.919   1.313 -2.9513 -0.1588 -1.4559
  882SOL    HW2 2646   1.848   0.940   1.211  0.1147  2.6772 -0.1730
  883SOL     OW 2647   1.721   0.965   1.669 -0.2305  0.4123 -0.4874
  883SOL    HW1 2648   1.723   0.877   1.617  1.5508  3.3218  0.9690
  883SOL    HW2 2649   1.651   0.952   1.743  2.2945 -0.8029 -0.5593
  884SOL     OW 2650   2.991   0.596   0.188 -0.3998  0.0032  0.2117
  884SOL    HW1 2651   3.025   0.685   0.221 -0.6173  1.6538 -3.4777
  884SOL    HW2 2652   2.966   0.536   0.269  1.0501 -0.6739 -0.1464
  885SOL     OW 2653   1.431   1.510   2.848 -0.7034 -0.7919 -0.1087
  885SOL    HW1 2654   1.476   1.595   2.802  1.3459  4.0430  0.9081
  885SOL    HW2 2655   1.499   1.438   2.870 -1.6954  0.0329  1.2161
  886SOL     OW 2656   1.538   1.742   2.758  0.1521 -0.0198  0.5306
  886SOL    HW1 2657   1.488   1.760   2.675  2.3380 -0.5831 -0.9361
  886SOL    HW2 2658   1.633   1.718   2.729 -0.7737  0.1609 -1.6619
  887SOL     OW 2659   1.506   0.104   1.352 -0.1481 -0.2810  0.3745
  887SOL    HW1 2660   1.564   0.102   1.269 -0.7600  1.2026  0.8650
  887SOL    HW2 2661   1.467   0.196   1.355  0.7329  0.2044  0.4916
  888SOL     OW 2662   2.442   0.716   1.702  0.7054  0.4592 -0.4180
  888SOL    HW1 2663   2.500   0.770   1.759  0.1657 -1.5503 -2.1490
  888SOL    HW2 2664   2.433   0.753   1.605  0.4012 -0.7940 -2.3823
  889SOL     OW 2665   2.943   2.899   0.870  0.0289 -0.2318 -0.3191
  889SOL    HW1 2666   2.953   2.825   0.799 -1.3691 -0.9925 -0.0218
  889SOL    HW2 2667   2.912   2.858   0.956  0.5406 -0.8235 -1.0535
  890SOL     OW 2668   2.057   2.429   0.255 -0.4890 -0.7865  0.4539
  890SOL    HW1 2669   2.040   2.524   0.281  1.1736 -1.3272 -1.2205
  890SOL    HW2 2670   2.054   2.411   0.153  0.7868  1.6340 -0.8962
  891SOL     OW 2671   0.526   1.103   2.706 -0.0978 -0.4464 -0.4539
  891SOL    HW1 2672   0.521   1.068   2.609 -0.5492  1.5451 -0.6322
  891SOL    HW2 2673   0.619   1.142   2.718  1.3549  2.7431  1.7937
  892SOL     OW 2674   3.091   3.069   1.404 -0.0743 -0.0223 -0.5506
  892SOL    HW1 2675   0.038   0.027   1.354  0.6197  1.7152 -2.7243
  892SOL    HW2 2676   2.993   3.078   1.382  0.0441  0.0056  0.8706
  893SOL     OW 2677   1.329   0.025   1.157 -0.0812 -0.0631  0.1749
  893SOL    HW1 2678   1.412   0.023   1.217  0.5666 -0.8235 -0.3174
  893SOL    HW2 2679   1.253   0.081   1.193 -0.0211  0.3323 -1.7504
  894SOL     OW 2680   2.437   0.665   0.685 -0.6886 -0.0762 -0.7927
  894SOL    HW1 2681   2.417   0.756   0.643  0.1969 -0.4776 -0.7409
  894SOL    HW2 2682   2.539   0.644   0.684  2.4028 -1.1056 -1.4098
  895SOL     OW 2683   1.924   1.481   2.609 -0.0681  0.0695  0.1417
  895SOL    HW1 2684   1.956   1.396   2.661 -1.3839 -1.8534 -1.3899
  895SOL    HW2 2685   1.995   1.500   2.534  4.0061 -1.7115 -1.8087
  896SOL     OW 2686   1.701   0.528   1.784  0.3341 -0.4485  0.6873
  896SOL    HW1 2687   1.672   0.518   1.885  0.9102  0.4746  2.5635
  896SOL    HW2 2688   1.741   0.442   1.751 -2.0161 -0.4894  1.8518
  897SOL     OW 2689   0.715   1.471   2.212 -0.0947 -0.2728  0.1876
  897SOL    HW1 2690   0.730   1.371   2.190 -0.6087  0.1784  0.3269
  897SOL    HW2 2691   0.749   1.535   2.137  4.4526  0.9991 -0.9096
  898SOL     OW 2692   2.340   2.392   2.312 -0.5130  0.6697  0.6201
  898SOL    HW1 2693   2.276   2.442   2.250 -0.8317 -0.1795 -0.3819
  898SOL    HW2 2694   2.413   2.340   2.263 -1.0334 -0.8536  0.9325
  899SOL     OW 2695   1.295   1.179   1.583  0.2168 -0.2670 -0.5055
  899SOL    HW1 2696   1.285   1.229   1.496  0.2101  0.4705  0.1085
  899SOL    HW2 2697   1.383   1.208   1.633  0.6460 -0.4069  0.7310
  900SOL     OW 2698   1.120   2.116   2.728  0.3527 -0.4517  0.0736
  900SOL    HW1 2699   1.189   2.051   2.698 -0.9323 -1.6962  1.3992
  900SOL    HW2 2700   1.053   2.136   2.650 -0.4971  0.1497 -2.1397
  901SOL     OW 2701   0.453   1.936   2.418  0.5082 -0.2847  0.5290
  901SOL    HW1 2702   0.451   1.836   2.401  1.3802  0.1621 -1.2233
  901SOL    HW2 2703   0.368   1.963   2.466 -1.1907 -0.3202  0.5237
  902SOL     OW 2704   1.892   1.657   0.205  0.3308 -0.5753 -0.4781
  902SOL    HW1 2705   1.855   1.581   0.155  1.1023  5.3780  2.7611
  902SOL    HW2 2706   1.960   1.640   0.280  0.4606  0.9735  0.5700
  903SOL     OW 2707   1.921   1.209   0.205 -0.8361  0.3322 -0.0325
  903SOL    HW1 2708   1.828   1.242   0.190  2.8492  0.1956  0.2245
  903SOL    HW2 2709   1.988   1.283   0.190 -2.5745  2.3596  0.2906
  904SOL     OW 2710   0.806   0.812   2.738 -0.7890  0.1301  0.0338
  904SOL    HW1 2711   0.855   0.724   2.753 -0.8257  3.9695  3.1785
  904SOL    HW2 2712   0.857   0.891   2.783 -0.9416 -1.9422  1.2684
  905SOL     OW 2713   2.933   0.481   1.070 -0.0602  0.1716  0.0137
  905SOL    HW1 2714   2.848   0.431   1.044 -0.3966 -0.6476 -0.0197
  905SOL    HW2 2715   2.997   0.413   1.114 -1.1355  3.4179 -0.8374
  906SOL     OW 2716   2.951   1.949   0.581 -0.0995 -0.1807 -0.5860
  906SOL    HW1 2717   2.950   1.853   0.621 -1.5942  0.5822  0.8522
  906SOL    HW2 2718   2.911   2.019   0.645  1.8492  1.5872 -1.8077
  907SOL     OW 2719   1.338   0.353   0.600  0.5178  0.4102 -0.0693
  907SOL    HW1 2720   1.427   0.371   0.554 -1.3778 -0.9702  1.8930
  907SOL    HW2 2721   1.303   0.261   0.574  0.0394  0.7680 -0.9194
  908SOL     OW 2722   1.828   0.064   1.741  0.2175  0.0100  0.1860
  908SOL    HW1 2723   1.901   0.012   1.691  0.5760 -0.3851  1.1807
  908SOL    HW2 2724   1.819   0.019   1.831 -0.0247 -2.0838 -2.0469
  909SOL     OW 2725   2.499   0.849   1.457 -0.1154 -0.8349 -0.5579
  909SOL    HW1 2726   2.577   0.850   1.384  3.9283  0.3511 -2.9968
  909SOL    HW2 2727   2.515   0.930   1.522  3.6048  2.4226  0.2011
  910SOL     OW 2728   1.037   2.672   2.231 -0.3559  0.0855  0.0767
  910SOL    HW1 2729   0.989   2.681   2.321 -0.1105  1.6647  0.9320
  910SOL    HW2 2730   0.999   2.595   2.175  1.0873  1.7187 -0.0015
  911SOL     OW 2731   2.226   0.796   1.827 -0.3249 -0.3927 -0.2075
  911SOL    HW1 2732   2.315   0.762   1.791  1.6328  0.1222 -0.8066
  911SOL    HW2 2733   2.144   0.791   1.769  0.0735  1.8995 -0.1230
  912SOL     OW 2734   2.683   1.919   1.496 -0.4832  0.3473 -0.0647
  912SOL    HW1 2735   2.717   1.954   1.412  1.1843 -1.7506 -0.2089
  912SOL    HW2 2736   2.646   2.000   1.550  0.6794  0.5929  2.2155
  913SOL     OW 2737   2.823   2.010   1.289  0.0710 -0.1205 -0.7010
  913SOL    HW1 2738   2.761   2.086   1.261  1.1926  0.3480 -0.1860
  913SOL    HW2 2739   2.915   2.050   1.309  1.0336  1.6815  0.5775
  914SOL     OW 2740   2.166   1.708   1.409  0.1877 -0.0750  0.2550
  914SOL    HW1 2741   2.262   1.741   1.400 -1.1590 -0.1658 -0.6003
  914SOL    HW2 2742   2.164   1.612   1.378  0.4452  0.5580  0.0895
  915SOL     OW 2743   1.284   1.321   1.367  0.4355  0.2314  0.5338
  915SOL    HW1 2744   1.224   1.372   1.309  0.3085 -3.0373  4.2715
  915SOL    HW2 2745   1.359   1.281   1.303  0.6271 -1.8217 -0.8509
  916SOL     OW 2746   2.360   2.410   1.366 -0.2484  0.9272  0.9268
  916SOL    HW1 2747   2.397   2.410   1.265  4.0977  2.1429 -0.1089
  916SOL    HW2 2748   2.408   2.483   1.411 -1.1078  0.0677 -1.6366
  917SOL     OW 2749   2.571   1.805   2.932 -0.5130  0.3144 -0.0126
  917SOL    HW1 2750   2.583   1.792   3.032  0.6136  2.3875  1.7157
  917SOL    HW2 2751   2.568   1.708   2.888  1.3117 -0.4223  0.8852
  918SOL     OW 2752   1.703   2.353   2.412 -0.3363  0.3119 -0.2913
  918SOL    HW1 2753   1.737   2.254   2.419  2.5466 -3.7582  1.3741
  918SOL    HW2 2754   1.765   2.398   2.350  0.9645 -0.3616 -0.1429
  919SOL     OW 2755   1.390   2.120   1.913  0.2119 -0.5330  0.2516
  919SOL    HW1 2756   1.387   2.025   1.937  1.5935  3.1146 -0.5157
  919SOL    HW2 2757   1.371   2.131   1.811 -0.4772 -0.3475 -0.0517
  920SOL     OW 2758   2.938   0.248   2.927 -0.8219 -0.4264  0.0727
  920SOL    HW1 2759   3.035   0.245   2.937 -1.2659 -2.1523 -1.5750
  920SOL    HW2 2760   2.898   0.238   3.017  2.4761  1.1221 -1.9657
  921SOL     OW 2761   2.758   0.263   2.274 -0.2464 -0.2592  0.2306
  921SOL    HW1 2762   2.704   0.180   2.285 -1.3459  0.1943  3.9622
  921SOL    HW2 2763   2.854   0.242   2.310  2.6951  1.2773  2.4752
  922SOL     OW 2764   2.253   2.180   0.615  0.4050  0.4477  0.1812
  922SOL    HW1 2765   2.244   2.262   0.556  0.5538  3.0277  1.7940
  922SOL    HW2 2766   2.255   2.095   0.560 -0.0530  0.3369  2.4749
  923SOL     OW 2767   0.348   1.862   0.300 -0.4948  0.0406 -0.0614
  923SOL    HW1 2768   0.334   1.887   0.203 -2.4403 -1.6000  5.0939
  923SOL    HW2 2769   0.388   1.939   0.355 -0.1423 -1.1570 -2.2629
  924SOL     OW 2770   1.280   0.336   2.921 -0.3135 -0.4386 -0.4048
  924SOL    HW1 2771   1.262   0.286   3.010 -0.5298  0.0682  1.0281
  924SOL    HW2 2772   1.376   0.333   2.881  0.8554 -1.2934  1.6124
  925SOL     OW 2773   2.512   1.184   0.859 -0.3547 -0.1116  0.0505
  925SOL    HW1 2774   2.442   1.257   0.858 -0.4976 -1.1434 -0.2203
  925SOL    HW2 2775   2.538   1.158   0.761 -0.1004 -0.7800 -1.3334
  926SOL     OW 2776   2.741   1.084   0.986  0.4107 -0.2949  0.2739
  926SOL    HW1 2777   2.657   1.130   0.937  0.8520  1.6674 -0.9494
  926SOL    HW2 2778   2.796   1.022   0.922 -0.8763 -1.0606  0.4837
  927SOL     OW 2779   0.490   1.376   0.137 -0.1548 -0.3784 -0.5569
  927SOL    HW1 2780   0.411   1.314   0.151  0.0717  2.0387  1.3212
  927SOL    HW2 2781   0.565   1.328   0.087 -1.1519  0.4390  2.2110
  928SOL     OW 2782   0.108   0.556   2.290 -0.1695 -0.0153 -0.3552
  928SOL    HW1 2783   0.035   0.497   2.246 -0.1180  1.4438 -0.8696
  928SOL    HW2 2784   0.185   0.503   2.332  2.6511 -0.6642  0.1367
  929SOL     OW 2785   2.795   3.089   1.351  0.0875  0.1693  0.0162
  929SOL    HW1 2786   2.766   3.107   1.253 -1.5124  2.0348  1.9505
  929SOL    HW2 2787   2.726   0.016   1.415 -1.1167 -0.6836 -0.1669
  930SOL     OW 2788   2.035   1.942   1.591 -0.0033 -0.6427  0.4991
  930SOL    HW1 2789   2.102   1.869   1.579 -1.8637  0.0298  0.9302
  930SOL    HW2 2790   1.983   1.936   1.682  1.0925  0.9953  0.7830
  931SOL     OW 2791   1.417   1.521   0.829 -0.2346 -0.7008  0.0661
  931SOL    HW1 2792   1.475   1.593   0.875 -0.9025 -1.1289  0.9189
  931SOL    HW2 2793   1.439   1.510   0.732  1.7912  3.1793  0.5618
  932SOL     OW 2794   2.712   1.143   1.251  0.1292  0.2103  0.4111
  932SOL    HW1 2795   2.712   1.054   1.301 -0.5800 -0.7852  0.6001
  932SOL    HW2 2796   2.728   1.118   1.157  1.1863  2.1921 -0.5454
  933SOL     OW 2797   2.436   1.768   1.484 -0.4612 -0.3187 -0.0511
  933SOL    HW1 2798   2.390   1.698   1.541  0.1336 -0.8918  1.6692
  933SOL    HW2 2799   2.505   1.827   1.532 -0.1185  0.7885 -1.3719
  934SOL     OW 2800   1.661   0.028   1.145  0.0247  0.4254 -0.1905
  934SOL    HW1 2801   1.618   3.078   1.069 -1.3012 -2.6012 -1.4124
  934SOL    HW2 2802   1.733   3.092   1.199 -0.1147 -1.0853  2.7830
  935SOL     OW 2803   0.530   1.616   0.910 -0.1528 -0.2454 -0.0009
  935SOL    HW1 2804   0.566   1.539   0.968  1.0889 -0.2356  1.2098
  935SOL    HW2 2805   0.592   1.700   0.912  1.7150  2.0936 -0.5895
  936SOL     OW 2806   3.082   1.077   0.634 -0.0628  0.4682  0.2547
  936SOL    HW1 2807   3.010   1.146   0.610 -0.7942  0.2979 -3.6084
  936SOL    HW2 2808   0.032   1.105   0.709 -0.8688 -2.0638  2.0349
  937SOL     OW 2809   1.706   2.744   0.915  0.0605  0.7603  0.2662
  937SOL    HW1 2810   1.637   2.677   0.955  1.0647  3.5301 -0.2810
  937SOL    HW2 2811   1.714   2.723   0.816 -1.9770 -2.1343  0.2137
  938SOL     OW 2812   2.434   2.455   1.106 -0.8333 -0.1416 -0.0730
  938SOL    HW1 2813   2.479   2.542   1.077 -1.4157  0.4725 -1.2686
  938SOL    HW2 2814   2.384   2.407   1.033  0.0566 -0.3955  1.8358
  939SOL     OW 2815   0.311   2.359   3.009 -0.4197  0.3300 -0.1977
  939SOL    HW1 2816   0.408   2.381   3.031 -0.5402 -0.1617 -0.9741
  939SOL    HW2 2817   0.314   2.260   2.980  1.2304  0.0568  0.1545
  940SOL     OW 2818   3.034   3.010   0.028 -0.0413 -0.0120  0.0334
  940SOL    HW1 2819   3.099   3.083   0.056  0.2395  0.6481  0.4841
  940SOL    HW2 2820   3.083   2.923   3.110 -0.5227 -1.3282 -2.3025
  941SOL     OW 2821   0.927   2.996   3.000 -0.1586 -0.7667  0.2356
  941SOL    HW1 2822   0.986   2.941   2.939 -0.0540 -0.5926 -1.0027
  941SOL    HW2 2823   0.914   2.939   3.083  1.0992  1.1230  1.3824
  942SOL     OW 2824   1.282   1.809   1.679  0.2308 -0.1982 -0.0176
  942SOL    HW1 2825   1.370   1.866   1.667  1.4329  0.0562 -0.3649
  942SOL    HW2 2826   1.294   1.711   1.656  0.9151 -0.3301  0.6138
  943SOL     OW 2827   2.043   1.279   1.637 -0.0174  0.1020  0.0100
  943SOL    HW1 2828   1.991   1.341   1.571 -1.1011  2.0962 -0.2362
  943SOL    HW2 2829   1.984   1.237   1.709 -0.5050 -0.8469  0.6462
  944SOL     OW 2830   1.995   0.791   1.673  0.1378 -0.1198  0.3246
  944SOL    HW1 2831   1.897   0.800   1.642 -0.2046  2.2398 -0.6533
  944SOL    HW2 2832   2.031   0.695   1.652  1.1430 -0.2191  0.3376
  945SOL     OW 2833   0.023   3.043   1.004  0.6220  0.1328  0.5720
  945SOL    HW1 2834   3.050   3.005   0.959 -0.4203 -0.3711 -0.2456
  945SOL    HW2 2835   0.024   0.030   1.036 -0.3707 -1.8153 -0.7893
  946SOL     OW 2836   0.590   0.552   1.224  0.5070  0.5855  0.6723
  946SOL    HW1 2837   0.531   0.473   1.201 -1.5250 -0.5267  2.4627
  946SOL    HW2 2838   0.566   0.631   1.163 -0.0621  0.1657 -2.7341
  947SOL     OW 2839   0.535   2.796   0.671 -0.0433 -0.5662  0.2350
  947SOL    HW1 2840   0.566   2.840   0.579  1.6602 -2.1351 -5.1787
  947SOL    HW2 2841   0.432   2.793   0.681 -0.1484 -3.2458  1.9110
  948SOL     OW 2842   3.007   1.437   1.895 -0.1018 -0.1767 -0.1212
  948SOL    HW1 2843   2.950   1.405   1.821 -1.3243 -0.9930  2.7621
  948SOL    HW2 2844   3.111   1.432   1.871  1.0251 -0.1371 -1.9564
  949SOL     OW 2845   0.467   1.033   2.456 -0.3073  0.5282  0.2943
  949SOL    HW1 2846   0.489   1.080   2.366  1.2380 -0.3980  1.8973
  949SOL    HW2 2847   0.418   0.950   2.441 -2.8749  3.5440  1.9951
  950SOL     OW 2848   1.047   0.422   0.825 -0.0464  0.0085  0.8581
  950SOL    HW1 2849   1.020   0.487   0.897  0.6851  1.9796  1.9650
  950SOL    HW2 2850   1.144   0.393   0.833  1.1364  0.3206  1.7725
  951SOL     OW 2851   1.031   2.153   2.068 -0.1667 -0.0199  0.1019
  951SOL    HW1 2852   1.020   2.154   1.967  1.0113 -0.5994 -0.5054
  951SOL    HW2 2853   0.942   2.172   2.112 -1.1579  0.3970  0.3507
  952SOL     OW 2854   0.349   1.857   2.820 -0.3977 -0.1894 -0.3573
  952SOL    HW1 2855   0.443   1.897   2.810 -0.1528  1.0907 -1.1806
  952SOL    HW2 2856   0.339   1.790   2.898 -2.1849 -2.0548  1.2168
  953SOL     OW 2857   1.879   3.079   2.321 -0.1294  0.2042 -0.6007
  953SOL    HW1 2858   1.968   3.053   2.348 -2.1686  2.3651 -1.4312
  953SOL    HW2 2859   1.887   0.039   2.246 -1.9840  1.1216 -1.4288
  954SOL     OW 2860   1.463   1.170   0.778 -0.0810  0.0555 -0.0213
  954SOL    HW1 2861   1.487   1.163   0.681 -1.1133  0.5047 -0.4649
  954SOL    HW2 2862   1.372   1.215   0.792 -0.7778  0.5561  1.1912
  955SOL     OW 2863   0.337   2.213   2.259 -0.4897 -0.0739  0.4235
  955SOL    HW1 2864   0.356   2.118   2.221 -0.4901 -2.0923 -1.3358
  955SOL    HW2 2865   0.287   2.270   2.192  0.7615 -1.8420  4.9790
  956SOL     OW 2866   1.739   0.707   1.574  0.4580  0.3802 -0.1734
  956SOL    HW1 2867   1.735   0.648   1.491  1.2247  1.1971 -2.0635
  956SOL    HW2 2868   1.738   0.650   1.658  0.3280 -1.0943 -0.3559
  957SOL     OW 2869   2.207   1.711   2.714  0.1725 -0.1660  0.6318
  957SOL    HW1 2870   2.220   1.649   2.634  0.9655  0.7585  0.1872
  957SOL    HW2 2871   2.118   1.763   2.715 -0.8503 -0.2014  1.4065
  958SOL     OW 2872   1.090   2.431   0.989 -0.1687  0.1793  0.3021
  958SOL    HW1 2873   0.998   2.467   0.968  1.9297 -1.9501  0.5871
  958SOL    HW2 2874   1.098   2.369   1.066  0.7361  3.3330  1.1762
  959SOL     OW 2875   1.660   2.092   2.732 -0.5027 -0.2205 -0.0596
  959SOL    HW1 2876   1.569   2.072   2.690 -0.0055  1.6249 -1.4388
  959SOL    HW2 2877   1.733   2.097   2.661  0.5122 -0.5376 -0.2964
  960SOL     OW 2878   0.078   0.243   2.962 -0.1277 -0.4464  0.8768
  960SOL    HW1 2879   0.109   0.339   2.969  0.7840  0.0895 -0.8556
  960SOL    HW2 2880   0.155   0.178   2.957 -0.3349 -2.3411  0.4295
  961SOL     OW 2881   0.711   0.970   2.266 -0.0508 -0.1223 -0.1535
  961SOL    HW1 2882   0.729   0.992   2.365 -0.6690 -2.0337 -1.1284
  961SOL    HW2 2883   0.764   0.888   2.239 -0.1011  1.7383  0.1758
  962SOL     OW 2884   1.040   1.382   0.026 -0.0438  0.2942  0.3751
  962SOL    HW1 2885   1.128   1.332   0.041  1.2008 -0.7718  0.3591
  962SOL    HW2 2886   1.033   1.461   0.094 -0.3458  1.9092 -1.4557
  963SOL     OW 2887   2.192   1.626   2.988  0.2549 -0.5815 -0.1373
  963SOL    HW1 2888   2.221   1.650   2.893 -0.0198  1.4129 -0.9544
  963SOL    HW2 2889   2.219   1.699   3.053  3.0917  0.0340 -1.2136
  964SOL     OW 2890   1.501   2.596   1.014 -0.0898 -0.2962  0.5581
  964SOL    HW1 2891   1.412   2.579   0.964  1.4197 -0.8960  0.5814
  964SOL    HW2 2892   1.484   2.647   1.099  0.9293 -0.3352 -0.3035
  965SOL     OW 2893   0.841   2.131   1.156  0.0957  0.0871  0.1125
  965SOL    HW1 2894   0.844   2.075   1.240  0.7599 -1.6605  1.6767
  965SOL    HW2 2895   0.933   2.131   1.108  3.2834 -1.0646 -0.3073
  966SOL     OW 2896   0.168   1.537   3.092  0.4122  0.0404 -0.1244
  966SOL    HW1 2897   0.074   1.579   3.076 -1.8220  0.2147  1.8734
  966SOL    HW2 2898   0.165   1.477   0.065 -1.6690 -1.1505  3.1074
  967SOL     OW 2899   1.571   0.062   2.053 -0.0449 -0.5119  0.1895
  967SOL    HW1 2900   1.538   3.085   2.089  1.2505  1.5187  0.9908
  967SOL    HW2 2901   1.642   0.046   1.979  1.6745  0.9079 -1.5698
  968SOL     OW 2902   1.921   0.845   0.797 -0.5557 -0.0419 -0.1699
  968SOL    HW1 2903   1.955   0.890   0.881  1.9953 -0.0251 -2.4184
  968SOL    HW2 2904   1.819   0.823   0.806  2.0012 -0.6065  0.0194
  969SOL     OW 2905   0.274   1.646   1.879 -0.1676 -0.4624  0.1714
  969SOL    HW1 2906   0.356   1.655   1.819  0.5131 -1.6882 -0.4991
  969SOL    HW2 2907   0.189   1.666   1.823  2.2233 -2.9592 -3.0810
  970SOL     OW 2908   2.505   1.504   1.118  0.3211  0.1703 -0.1618
  970SOL    HW1 2909   2.418   1.452   1.129 -0.8290  0.0532  1.6353
  970SOL    HW2 2910   2.522   1.527   1.022  0.5016  4.7085 -0.8187
  971SOL     OW 2911   0.870   0.289   1.521  0.8418  0.2661  0.2402
  971SOL    HW1 2912   0.884   0.390   1.516  0.5386 -0.9021 -1.8062
  971SOL    HW2 2913   0.816   0.268   1.603 -0.4018 -1.9620 -1.8740
  972SOL     OW 2914   0.971   0.403   2.393  0.1010  0.1811 -0.0058
  972SOL    HW1 2915   1.066   0.365   2.377  0.8720 -2.3257  0.4574
  972SOL    HW2 2916   0.937   0.444   2.306 -1.6864  0.5659 -0.0434
  973SOL     OW 2917   0.610   1.431   1.101 -0.3139  0.2908  0.6968
  973SOL    HW1 2918   0.539   1.373   1.151 -4.8041  2.3946  0.9261
  973SOL    HW2 2919   0.706   1.393   1.102  1.4071 -0.0249  2.7643
  974SOL     OW 2920   2.118   1.107   1.984 -0.2665 -0.2857 -0.2408
  974SOL    HW1 2921   2.033   1.116   1.923 -1.2552  0.6106  0.5979
  974SOL    HW2 2922   2.202   1.102   1.927 -0.6285 -0.4786  1.8841
  975SOL     OW 2923   2.624   0.124   0.529 -0.3777 -0.1682  0.3382
  975SOL    HW1 2924   2.588   0.078   0.445  1.6283 -3.2012  0.8922
  975SOL    HW2 2925   2.729   0.134   0.527  0.9663 -0.1090 -2.5247
  976SOL     OW 2926   0.085   1.709   1.706  0.1869  0.2986  0.3507
  976SOL    HW1 2927   0.010   1.760   1.745  0.0493  2.1336  3.1130
  976SOL    HW2 2928   0.072   1.698   1.606  1.8448  0.0912  0.5794
  977SOL     OW 2929   0.756   2.760   0.148  0.7610 -0.3786 -0.2590
  977SOL    HW1 2930   0.682   2.826   0.133  2.5560  2.7440  0.9484
  977SOL    HW2 2931   0.838   2.819   0.134  1.0634 -0.4952 -0.6647
  978SOL     OW 2932   0.763   1.722   0.202  0.6610  0.1071 -0.0479
  978SOL    HW1 2933   0.703   1.650   0.153 -0.4153 -0.1839 -1.5982
  978SOL    HW2 2934   0.855   1.681   0.215 -1.7951  1.0830  2.8861
  979SOL     OW 2935   1.434   1.743   1.396  0.1710 -1.1242  0.1369
  979SOL    HW1 2936   1.486   1.816   1.445 -0.0530  2.1145  1.3679
  979SOL    HW2 2937   1.394   1.675   1.459  4.2095  0.4677 -1.1489
  980SOL     OW 2938   0.489   1.186   2.228 -0.5733  0.4292  0.2013
  980SOL    HW1 2939   0.584   1.193   2.190 -1.6718  0.8927 -1.2756
  980SOL    HW2 2940   0.421   1.186   2.152 -0.3881  0.3597 -0.3832
  981SOL     OW 2941   0.106   1.394   0.200  0.7080 -0.3146 -0.4497
  981SOL    HW1 2942   0.055   1.400   0.289 -0.2526  0.3828  1.6886
  981SOL    HW2 2943   0.158   1.306   0.193 -0.8359 -1.6577 -1.1226
  982SOL     OW 2944   2.412   2.503   2.762 -0.1501 -0.2082  0.3823
  982SOL    HW1 2945   2.407   2.547   2.667  1.9992 -2.0217 -0.6741
  982SOL    HW2 2946   2.438   2.576   2.834  0.5213  2.6622  0.8887
  983SOL     OW 2947   1.722   0.420   1.450  0.1029  0.3604 -0.2745
  983SOL    HW1 2948   1.636   0.464   1.417 -2.0098 -0.6508 -0.6266
  983SOL    HW2 2949   1.804   0.466   1.413  1.3243 -1.2936  1.4454
  984SOL     OW 2950   0.984   0.028   2.413 -0.0305  0.2007  0.3232
  984SOL    HW1 2951   1.056   3.080   2.372 -0.2924  0.1934  1.2675
  984SOL    HW2 2952   1.022   0.070   2.499 -1.6121  1.6457  1.1899
  985SOL     OW 2953   1.689   2.169   1.916  0.1559 -0.1994 -0.2261
  985SOL    HW1 2954   1.715   2.268   1.905 -0.4657 -1.1856 -1.1012
  985SOL    HW2 2955   1.586   2.160   1.920 -1.6677  0.5569 -0.2372
  986SOL     OW 2956   2.130   3.010   2.391  0.1890  0.0446 -0.1265
  986SOL    HW1 2957   2.140   3.004   2.290  0.2520 -0.2436  0.2448
  986SOL    HW2 2958   2.148   3.108   2.418  0.3075  1.6254  1.3842
  987SOL     OW 2959   2.703   0.533   2.277  0.2312  0.2509  0.2318
  987SOL    HW1 2960   2.742   0.442   2.283 -1.6202  2.2215 -2.5377
  987SOL    HW2 2961   2.608   0.539   2.316 -1.7872  2.6884 -1.9529
  988SOL     OW 2962   2.516   0.374   2.511 -0.3566 -0.5787  0.0530
  988SOL    HW1 2963   2.593   0.395   2.573 -0.5535  0.7114 -0.3928
  988SOL    HW2 2964   2.484   0.457   2.458  0.2858 -0.5533  0.9895
  989SOL     OW 2965   2.140   2.278   2.457 -0.2770 -0.6564 -0.0009
  989SOL    HW1 2966   2.220   2.315   2.406  1.1744  1.8736 -1.7478
  989SOL    HW2 2967   2.093   2.357   2.500  0.2951 -0.6749  1.4715
  990SOL     OW 2968   0.294   1.130   2.850  0.3507 -0.0753  0.5290
  990SOL    HW1 2969   0.270   1.230   2.863 -0.8455  0.6275 -1.6477
  990SOL    HW2 2970   0.382   1.121   2.801 -0.3815  0.4747  0.8310
  991SOL     OW 2971   0.744   1.249   2.578 -0.3727 -0.6032  0.1718
  991SOL    HW1 2972   0.775   1.160   2.536 -0.5872  1.3399  0.3510
  991SOL    HW2 2973   0.679   1.290   2.512  2.0117 -1.1517  1.0215
  992SOL     OW 2974   2.816   2.227   2.050  0.2244 -0.3168 -0.0094
  992SOL    HW1 2975   2.863   2.300   1.994 -0.2901  0.2482  0.0662
  992SOL    HW2 2976   2.791   2.144   1.998 -0.1161 -0.3922 -1.2473
  993SOL     OW 2977   0.633   0.154   0.897 -0.2776 -0.4137  0.4013
  993SOL    HW1 2978   0.705   0.176   0.964 -0.0882  0.4744  3.6259
  993SOL    HW2 2979   0.670   0.087   0.833  0.3955  1.9251  1.3276
  994SOL     OW 2980   0.381   2.020   1.451  0.4391 -0.2146  0.3802
  994SOL    HW1 2981   0.397   1.924   1.426 -1.7441  2.4645 -0.4082
  994SOL    HW2 2982   0.362   2.078   1.366  0.7465  0.1818 -2.6020
  995SOL     OW 2983   2.130   1.572   2.466  0.0166 -0.1278  0.1702
  995SOL    HW1 2984   2.198   1.496   2.469  2.1292 -0.4225 -0.4913
  995SOL    HW2 2985   2.183   1.659   2.447 -3.0984 -1.4027  0.4520
  996SOL     OW 2986   2.016   1.300   2.781 -0.2632 -0.2012 -0.2210
  996SOL    HW1 2987   2.025   1.332   2.880  1.0040  2.0690 -0.1347
  996SOL    HW2 2988   1.952   1.223   2.775 -2.9107  0.9876  1.6171
  997SOL     OW 2989   1.544   1.146   2.057  0.0526 -0.1477 -0.9416
  997SOL    HW1 2990   1.541   1.056   2.013 -1.6573  0.0312 -0.4332
  997SOL    HW2 2991   1.622   1.203   2.026 -0.6643 -0.8226 -0.1313
  998SOL     OW 2992   2.541   2.121   0.652 -0.1280 -0.0279  0.0650
  998SOL    HW1 2993   2.442   2.110   0.658  1.4901  2.1968  2.7136
  998SOL    HW2 2994   2.584   2.122   0.746  2.6040  0.6712 -0.2346
  999SOL     OW 2995   2.319   2.293   0.146  0.0711 -0.0907 -0.4297
  999SOL    HW1 2996   2.239   2.326   0.096 -0.0487  0.8153 -1.8152
  999SOL    HW2 2997   2.288   2.214   0.204  1.0602  0.2396  0.6081
 1000SOL     OW 2998   0.809   2.957   2.442  0.0034 -0.0611 -0.2183
 1000SOL    HW1 2999   0.881   3.026   2.447 -1.4400 -1.1152  0.0685
 1000SOL    HW2 3000   0.731   2.986   2.502  3.0531  0.2488  0.1452
   3.11143   3.11143   3.11143
