1000 SPC/Fw water molecules t= 274.00000 step= 274000
 3000
    1SOL     OW    1   2.839   2.648   0.922 -0.1927 -0.0148 -0.3300
    1SOL    HW1    2   2.935   2.620   0.914 -2.5664  0.2723  0.1017
    1SOL    HW2    3   2.823   2.720   0.994 -0.3620  0.8918  2.8851
    2SOL     OW    4   2.074   1.814   1.085  0.2349  0.0121 -0.7132
    2SOL    HW1    5   2.064   1.899   1.028  0.8432  1.0676  0.1564
    2SOL    HW2    6   2.109   1.848   1.174  1.2868  1.2795 -4.8768
    3SOL     OW    7   1.091   2.659   3.088 -0.7379  0.1967 -0.1111
    3SOL    HW1    8   1.128   2.737   3.031  0.8202  3.1258 -2.3930
    3SOL    HW2    9   1.124   2.568   3.064  0.7519 -0.1766 -0.8174
    4SOL     OW   10   1.904   1.820   1.363 -0.2120  0.5242  0.0881
    4SOL    HW1   11   1.938   1.723   1.373 -0.1799 -0.9220  0.6249
    4SOL    HW2   12   1.978   1.892   1.348 -0.1922  2.1814 -0.4408
    5SOL     OW   13   1.326   1.036   1.418  0.2264  0.1932  0.1744
    5SOL    HW1   14   1.418   1.077   1.384  2.2613  0.8839 -2.8967
    5SOL    HW2   15   1.262   1.112   1.444  0.5018  1.6001 -0.0731
    6SOL     OW   16   2.676   3.084   0.025 -0.2522  0.0950 -0.0175
    6SOL    HW1   17   2.583   3.069   0.075 -0.0628 -0.8362  1.6408
    6SOL    HW2   18   2.668   0.031   3.062  1.7528  0.3254 -1.1375
    7SOL     OW   19   2.797   1.322   1.156  0.0263  0.7294  0.3308
    7SOL    HW1   20   2.702   1.346   1.163  0.8111 -1.6893 -3.1489
    7SOL    HW2   21   2.805   1.244   1.086  0.0497  1.5586  1.2447
    8SOL     OW   22   1.154   2.729   1.071 -0.1223  0.1645 -0.1363
    8SOL    HW1   23   1.084   2.742   1.002 -0.3431 -1.0888  0.0030
    8SOL    HW2   24   1.161   2.807   1.139  0.1410 -0.8445 -0.5067
    9SOL     OW   25   1.807   0.117   1.975 -0.2212 -0.2274  0.3475
    9SOL    HW1   26   1.717   0.066   1.968 -2.1466 -1.0261 -0.2101
    9SOL    HW2   27   1.787   0.218   1.976 -0.2581  0.1746 -0.6631
   10SOL     OW   28   0.879   2.332   0.895  0.1907 -0.0061  0.9870
   10SOL    HW1   29   0.791   2.379   0.856 -1.5561  1.8252  0.3511
   10SOL    HW2   30   0.914   2.393   0.969  2.3128  0.1201 -0.2636
   11SOL     OW   31   1.535   1.384   0.741 -0.7357  0.5181 -0.3637
   11SOL    HW1   32   1.627   1.430   0.743  2.3643  0.5160 -0.5663
   11SOL    HW2   33   1.507   1.364   0.837 -1.9460 -1.3731  0.3893
   12SOL     OW   34   2.850   2.663   1.868 -0.2259 -0.3215  0.2128
   12SOL    HW1   35   2.858   2.645   1.772 -1.1464  0.7398  0.0869
   12SOL    HW2   36   2.939   2.648   1.922  2.0404 -1.8989  1.4809
   13SOL     OW   37   2.153   0.103   0.346  0.0260  0.4812  0.4353
   13SOL    HW1   38   2.051   0.092   0.367  0.8572 -0.7220 -0.9053
   13SOL    HW2   39   2.210   0.025   0.380 -0.4477  0.4089 -2.7939
   14SOL     OW   40   1.401   2.618   1.118  0.0078  0.0942  0.5260
   14SOL    HW1   41   1.445   2.588   1.030 -1.2748 -1.5064 -1.6942
   14SOL    HW2   42   1.306   2.667   1.107 -2.2737  1.8117  1.5586
   15SOL     OW   43   3.103   1.838   1.524  0.5916 -0.5803 -0.1026
   15SOL    HW1   44   0.060   1.906   1.509  1.1186 -0.5053 -0.2622
   15SOL    HW2   45   3.095   1.782   1.444  1.5870  0.8862  0.6118
   16SOL     OW   46   1.918   2.236   0.437  0.1940  0.3089  0.0724
   16SOL    HW1   47   1.829   2.193   0.459  0.9146  0.1510 -0.5394
   16SOL    HW2   48   1.972   2.176   0.375  2.3410 -2.2192 -3.0753
   17SOL     OW   49   0.848   3.060   1.593  0.1416  0.4131 -0.2986
   17SOL    HW1   50   0.802   0.004   1.662 -0.2743  1.4460 -0.7650
   17SOL    HW2   51   0.899   0.005   1.532 -0.6761 -1.6307  0.4537
   18SOL     OW   52   1.167   0.818   0.117 -0.5165 -0.2723 -0.0828
   18SOL    HW1   53   1.140   0.848   0.022  0.4154  2.3517 -0.6832
   18SOL    HW2   54   1.233   0.882   0.168  0.5060  1.9563  1.1676
   19SOL     OW   55   1.738   1.985   0.023  0.0627  0.2082 -0.1787
   19SOL    HW1   56   1.804   1.906   0.028 -1.7677 -0.1208  1.0678
   19SOL    HW2   57   1.783   2.074   0.016 -1.5275 -0.1165  1.6616
   20SOL     OW   58   2.398   1.929   1.803  0.5699  0.2070 -0.0243
   20SOL    HW1   59   2.340   1.966   1.878 -1.8617 -0.1215 -0.8487
   20SOL    HW2   60   2.347   1.881   1.731  1.3573  2.3210 -0.9687
   21SOL     OW   61   0.703   1.413   0.546  0.0439  0.4642 -0.1739
   21SOL    HW1   62   0.752   1.412   0.458 -2.8781 -3.4435  3.5339
   21SOL    HW2   63   0.628   1.480   0.544 -0.1124  0.8231 -0.1367
   22SOL     OW   64   2.230   2.982   1.362  0.9194  0.2413 -0.0055
   22SOL    HW1   65   2.246   3.030   1.271  2.0071  4.0711 -1.3653
   22SOL    HW2   66   2.316   2.944   1.402 -1.0289  1.2555  1.6463
   23SOL     OW   67   2.980   0.821   1.929 -0.1466 -0.4798  0.1408
   23SOL    HW1   68   2.912   0.814   1.854  2.9408  2.6540 -1.9606
   23SOL    HW2   69   2.943   0.879   2.004 -0.0251 -0.7580  0.6948
   24SOL     OW   70   2.281   2.589   0.411 -0.3915  0.1855  0.3350
   24SOL    HW1   71   2.300   2.493   0.425  0.3659  3.8233 -1.9095
   24SOL    HW2   72   2.203   2.598   0.347  1.4779 -0.7806 -1.0440
   25SOL     OW   73   1.572   0.023   2.414  0.5438 -0.0923  0.1324
   25SOL    HW1   74   1.571   0.076   2.501 -1.4777  0.6024 -0.8650
   25SOL    HW2   75   1.634   0.061   2.342  2.7883 -0.2562  0.0873
   26SOL     OW   76   1.728   2.339   0.178 -0.1129  0.1892  0.2857
   26SOL    HW1   77   1.789   2.303   0.099  0.2307 -1.5910 -1.5291
   26SOL    HW2   78   1.639   2.356   0.137  0.3880 -3.2128  1.3288
   27SOL     OW   79   2.563   2.043   3.102  0.1787  0.0205 -0.3562
   27SOL    HW1   80   2.616   1.978   3.045 -1.5183 -0.5679 -0.3998
   27SOL    HW2   81   2.614   2.133   3.099  0.0487  2.2462  0.6106
   28SOL     OW   82   0.278   0.927   1.874 -0.4611 -0.2419  0.0698
   28SOL    HW1   83   0.213   0.953   1.800  2.0525  1.6873  1.3166
   28SOL    HW2   84   0.233   0.873   1.954 -1.7012 -3.2474  0.3300
   29SOL     OW   85   2.367   2.381   1.431  0.1407 -0.2078  0.3372
   29SOL    HW1   86   2.273   2.422   1.443 -0.2310 -0.6423  0.2749
   29SOL    HW2   87   2.381   2.303   1.493 -0.3528  1.6096 -0.5973
   30SOL     OW   88   1.679   0.353   0.709  0.1956 -0.0972 -0.2731
   30SOL    HW1   89   1.689   0.369   0.611 -1.5248 -1.6288  0.5777
   30SOL    HW2   90   1.709   0.430   0.770  0.6930 -0.3025  0.8910
   31SOL     OW   91   2.389   2.277   1.906 -0.0469  0.4369 -0.6693
   31SOL    HW1   92   2.349   2.326   1.985 -1.6134  0.5375  1.0169
   31SOL    HW2   93   2.464   2.325   1.859  0.5493  0.5919  1.7982
   32SOL     OW   94   0.791   2.068   1.206 -0.2692  0.2159  0.5552
   32SOL    HW1   95   0.813   2.076   1.108  0.6872  0.5044  0.1966
   32SOL    HW2   96   0.752   2.157   1.231 -0.3693 -2.3659 -1.4786
   33SOL     OW   97   0.614   3.112   2.602 -0.0569  0.2026  0.0787
   33SOL    HW1   98   0.556   3.040   2.554 -2.3246 -1.2957 -2.2420
   33SOL    HW2   99   0.624   3.087   2.701  0.8760 -0.1634 -2.8806
   34SOL     OW  100   1.229   2.961   0.574  0.2402  0.8289  0.3372
   34SOL    HW1  101   1.205   3.021   0.654 -1.9338  0.1804  0.7170
   34SOL    HW2  102   1.312   3.004   0.529 -0.7007  0.2708  0.8946
   35SOL     OW  103   2.073   2.849   1.156 -0.3528 -1.0303  0.3496
   35SOL    HW1  104   2.147   2.786   1.130 -1.0660 -0.9824  0.5085
   35SOL    HW2  105   2.100   2.904   1.241 -1.4536 -1.0366  1.0342
   36SOL     OW  106   1.985   2.264   2.394 -0.7682 -0.0858  0.1202
   36SOL    HW1  107   1.933   2.210   2.460  1.3193  3.2177 -0.8683
   36SOL    HW2  108   1.978   2.361   2.423  1.8097 -0.6909  0.8488
   37SOL     OW  109   0.970   0.168   2.292  0.0530 -0.2407  0.0779
   37SOL    HW1  110   0.994   0.131   2.198 -0.5897 -1.9457 -1.0565
   37SOL    HW2  111   0.958   0.269   2.293  1.5415  1.0696  0.0391
   38SOL     OW  112   0.211   2.660   2.715 -0.0390 -0.3101  0.1917
   38SOL    HW1  113   0.188   2.749   2.669 -0.1679  1.1686 -1.0001
   38SOL    HW2  114   0.240   2.588   2.651 -3.3530  1.3422 -1.6237
   39SOL     OW  115   2.355   0.973   1.711 -0.1324 -0.3521 -0.3622
   39SOL    HW1  116   2.318   1.014   1.626 -3.4026  0.1320  0.5813
   39SOL    HW2  117   2.349   1.035   1.790 -1.0805  1.3988 -0.8480
   40SOL     OW  118   1.051   2.970   0.239  0.4861 -0.0379  0.3692
   40SOL    HW1  119   0.976   2.940   0.176  0.6882  0.3716 -0.2406
   40SOL    HW2  120   1.100   3.053   0.208  0.8151 -0.7972  0.5656
   41SOL     OW  121   2.189   1.139   1.211  0.2536  0.0763  0.4187
   41SOL    HW1  122   2.283   1.149   1.180 -0.2986 -2.0039 -1.4122
   41SOL    HW2  123   2.150   1.236   1.224  0.7641 -1.6363  1.0819
   42SOL     OW  124   0.420   0.573   1.017 -0.5351  0.4574 -0.0187
   42SOL    HW1  125   0.457   0.663   1.050 -0.5860 -4.0606  0.9865
   42SOL    HW2  126   0.323   0.568   1.053  0.6221  1.8753  1.3865
   43SOL     OW  127   2.397   1.651   2.735 -0.0896 -0.5764  0.5326
   43SOL    HW1  128   2.394   1.586   2.816 -1.7101  0.0878  0.4279
   43SOL    HW2  129   2.387   1.599   2.647  0.8599  0.3147  0.5791
   44SOL     OW  130   2.724   2.978   1.483  0.5281  0.4417  0.1835
   44SOL    HW1  131   2.728   2.972   1.582 -1.4381  4.6265 -2.7275
   44SOL    HW2  132   2.758   3.069   1.463  0.1117  1.1114 -0.5276
   45SOL     OW  133   0.439   2.822   1.600  0.3291 -0.2045 -0.1596
   45SOL    HW1  134   0.378   2.769   1.540  3.8402  0.6695  1.1101
   45SOL    HW2  135   0.530   2.831   1.555  2.0195 -0.5560  1.0070
   46SOL     OW  136   2.047   0.211   2.320 -0.2970 -1.2169  0.0960
   46SOL    HW1  137   2.102   0.135   2.288 -1.2777 -0.4103  1.8664
   46SOL    HW2  138   2.104   0.294   2.337  0.0328  2.1567  1.3473
   47SOL     OW  139   1.801   1.848   0.621 -0.9096  0.0012  0.4401
   47SOL    HW1  140   1.733   1.797   0.672  1.0578  1.0201  0.7993
   47SOL    HW2  141   1.769   1.943   0.597  1.4829 -2.6556 -0.2854
   48SOL     OW  142   0.774   2.119   0.515  0.2094 -0.6289 -0.4967
   48SOL    HW1  143   0.718   2.199   0.487  0.9439 -0.2469  2.0395
   48SOL    HW2  144   0.801   2.062   0.438 -0.9974 -0.5044 -2.3634
   49SOL     OW  145   2.415   0.359   2.551 -0.0170 -0.1717 -0.4138
   49SOL    HW1  146   2.428   0.389   2.646  1.3964 -0.4065  1.4902
   49SOL    HW2  147   2.388   0.255   2.547  0.4554 -1.4567 -2.1682
   50SOL     OW  148   1.959   0.735   0.196  0.3128  0.1252 -0.6228
   50SOL    HW1  149   1.969   0.816   0.253 -0.9096 -0.2324 -0.9042
   50SOL    HW2  150   1.877   0.692   0.229  5.1721  3.6583 -2.1327
   51SOL     OW  151   2.005   0.796   1.057 -0.1106 -0.2659  0.1090
   51SOL    HW1  152   2.035   0.859   0.980  1.0959  0.3083 -1.7115
   51SOL    HW2  153   1.978   0.706   1.011 -3.5816  0.0213 -0.4448
   52SOL     OW  154   1.232   1.552   1.765  0.3249  0.2507 -0.0713
   52SOL    HW1  155   1.225   1.614   1.845  2.0436 -1.1661  0.9719
   52SOL    HW2  156   1.219   1.455   1.781  2.1679 -2.3483  1.5471
   53SOL     OW  157   0.844   1.793   2.214  0.1405 -0.5937  0.3962
   53SOL    HW1  158   0.866   1.707   2.167  1.3694  0.0466  0.2529
   53SOL    HW2  159   0.916   1.863   2.197 -0.0135  0.2543 -0.2506
   54SOL     OW  160   2.275   0.040   1.160 -0.2510  0.5728  0.4393
   54SOL    HW1  161   2.216   0.108   1.202 -0.9404  0.2903 -1.4474
   54SOL    HW2  162   2.308   0.084   1.075  0.2946  4.5325 -0.2119
   55SOL     OW  163   2.499   1.978   0.873 -0.0680  0.4484  0.0329
   55SOL    HW1  164   2.581   2.006   0.823 -0.7137  1.5206  0.6584
   55SOL    HW2  165   2.438   1.921   0.815 -1.7092  0.6005  0.3736
   56SOL     OW  166   1.032   0.065   2.050 -0.1337  0.3665  0.5259
   56SOL    HW1  167   1.073   3.093   2.082 -2.6230  1.1289  3.3714
   56SOL    HW2  168   1.101   0.122   1.998  2.6330 -0.5961  2.3677
   57SOL     OW  169   1.309   1.472   0.245  0.6999  0.3158 -0.5175
   57SOL    HW1  170   1.317   1.444   0.346  0.3696 -0.8986  2.3196
   57SOL    HW2  171   1.282   1.391   0.186 -1.1577  0.0855  2.8111
   58SOL     OW  172   0.312   0.702   2.163 -0.0860  0.3370 -0.5539
   58SOL    HW1  173   0.215   0.724   2.144  0.2560  0.4722  1.4800
   58SOL    HW2  174   0.350   0.786   2.208 -0.5083  0.7071  1.0561
   59SOL     OW  175   1.318   0.053   2.904 -0.3723  0.5580  0.1927
   59SOL    HW1  176   1.259   0.134   2.894  0.1976 -2.6110  0.1025
   59SOL    HW2  177   1.390   0.064   2.973  0.3340 -0.5938  0.3572
   60SOL     OW  178   2.906   2.142   0.162 -0.2224  0.5301  0.3058
   60SOL    HW1  179   2.846   2.117   0.241  0.6435 -1.7052 -0.2742
   60SOL    HW2  180   2.974   2.215   0.193 -0.3179  1.7264 -0.5428
   61SOL     OW  181   1.118   2.296   0.430 -0.8605 -0.5529 -0.2852
   61SOL    HW1  182   1.080   2.267   0.522 -3.3751 -1.7997 -0.5955
   61SOL    HW2  183   1.049   2.353   0.382 -0.8917 -1.9843 -1.6875
   62SOL     OW  184   2.094   2.102   2.677  0.0992 -0.7582 -0.0689
   62SOL    HW1  185   2.105   2.016   2.737  0.6153 -1.9911  1.3621
   62SOL    HW2  186   2.003   2.100   2.631 -1.6384 -0.4596 -0.7684
   63SOL     OW  187   2.242   2.022   0.427 -0.1773  0.3568  0.2964
   63SOL    HW1  188   2.180   2.082   0.372  1.7248  0.8197  0.8017
   63SOL    HW2  189   2.320   1.986   0.376 -1.1784  2.4787 -0.0796
   64SOL     OW  190   1.859   1.166   2.727 -0.0798  0.0418 -0.1726
   64SOL    HW1  191   1.802   1.145   2.807 -0.3034  0.4747  1.2225
   64SOL    HW2  192   1.891   1.079   2.684  0.0244  2.9951  1.8700
   65SOL     OW  193   1.397   2.122   2.999 -0.1501  0.0368 -0.5251
   65SOL    HW1  194   1.430   2.034   3.026 -0.3014 -0.0061  2.4304
   65SOL    HW2  195   1.297   2.116   2.978 -0.6418 -0.6111 -2.3850
   66SOL     OW  196   0.250   1.607   2.326 -0.0855  0.7220 -0.0963
   66SOL    HW1  197   0.202   1.573   2.410 -1.9374 -0.9194  1.3538
   66SOL    HW2  198   0.273   1.527   2.266 -0.2354 -1.1696 -1.8138
   67SOL     OW  199   2.852   2.732   2.773  0.5383  0.0332  0.3096
   67SOL    HW1  200   2.921   2.767   2.841  0.5678 -1.4872  1.6875
   67SOL    HW2  201   2.764   2.787   2.776 -0.7527  0.6516  0.4423
   68SOL     OW  202   0.746   2.605   1.542 -0.5322 -0.4234 -0.8071
   68SOL    HW1  203   0.659   2.628   1.493 -1.3760  0.0662 -0.2904
   68SOL    HW2  204   0.806   2.560   1.468 -0.2489  0.9717  0.1760
   69SOL     OW  205   0.719   2.747   0.531 -0.2663 -0.2622  0.1473
   69SOL    HW1  206   0.705   2.683   0.609  2.5535  0.5205 -1.4530
   69SOL    HW2  207   0.816   2.782   0.534  0.2972  2.0448  0.1795
   70SOL     OW  208   2.611   0.700   2.631  0.1534  0.5311  0.3728
   70SOL    HW1  209   2.652   0.706   2.539 -0.9951  0.8069  1.2825
   70SOL    HW2  210   2.664   0.637   2.690 -3.0016 -4.0632  1.7352
   71SOL     OW  211   0.564   1.229   2.556  0.7679  0.0958  0.0347
   71SOL    HW1  212   0.580   1.298   2.479  1.5866  0.6458 -0.7427
   71SOL    HW2  213   0.523   1.269   2.639  0.1356  0.3119  0.7506
   72SOL     OW  214   3.046   1.797   0.379 -0.4318  0.0585  0.1292
   72SOL    HW1  215   3.094   1.819   0.291  1.6423  0.9752 -0.1239
   72SOL    HW2  216   3.022   1.879   0.433  1.0386 -2.5052 -1.4682
   73SOL     OW  217   0.791   1.486   0.804 -0.2538 -0.0333 -0.1009
   73SOL    HW1  218   0.836   1.576   0.783 -1.7080  1.2267 -0.6049
   73SOL    HW2  219   0.757   1.443   0.716 -2.1328 -0.0444 -3.4389
   74SOL     OW  220   2.396   2.674   0.085 -0.4056 -0.2358  0.4267
   74SOL    HW1  221   2.439   2.689   0.176 -0.1332  1.7806  1.2770
   74SOL    HW2  222   2.306   2.727   0.080 -0.9269 -1.0097  0.1814
   75SOL     OW  223   2.053   1.624   1.522 -0.0177  0.1067  0.0724
   75SOL    HW1  224   2.023   1.545   1.576  1.2614  1.2394 -0.7869
   75SOL    HW2  225   2.132   1.592   1.466  0.8232 -1.0018  0.4685
   76SOL     OW  226   1.960   2.401   1.729 -0.3268  0.0697  0.8072
   76SOL    HW1  227   1.911   2.387   1.638  0.3925 -1.4441  1.6202
   76SOL    HW2  228   1.887   2.418   1.800 -4.7161 -0.6665  0.5247
   77SOL     OW  229   2.326   0.313   1.970 -0.2037 -0.1463  0.4225
   77SOL    HW1  230   2.249   0.321   2.036  0.4032 -1.0580 -1.0781
   77SOL    HW2  231   2.410   0.319   2.022 -1.6447 -0.5106  1.2208
   78SOL     OW  232   1.467   0.929   3.032  0.4141  0.2980  0.2649
   78SOL    HW1  233   1.403   0.925   3.109  0.8750 -2.6856 -1.5616
   78SOL    HW2  234   1.487   0.832   3.001  0.7971 -2.9650 -1.1964
   79SOL     OW  235   2.643   1.663   1.923  0.4155  0.0697 -0.2294
   79SOL    HW1  236   2.583   1.679   1.841  2.7794 -2.2336 -1.1443
   79SOL    HW2  237   2.677   1.746   1.972  2.8678 -0.6703  0.9594
   80SOL     OW  238   1.944   1.335   1.416  0.4759  0.0465  0.3804
   80SOL    HW1  239   1.982   1.268   1.481 -1.4755 -1.6748  0.3405
   80SOL    HW2  240   2.009   1.362   1.342 -1.6240  0.9939  0.6973
   81SOL     OW  241   1.555   0.636   1.675 -0.2359 -0.1549 -0.8966
   81SOL    HW1  242   1.491   0.568   1.712  1.9942  0.9484  2.3399
   81SOL    HW2  243   1.564   0.719   1.738  3.5275 -0.4712  1.9801
   82SOL     OW  244   1.327   2.516   1.344 -0.2614 -0.1442 -0.4015
   82SOL    HW1  245   1.373   2.560   1.261  0.0903  0.9968  0.4372
   82SOL    HW2  246   1.282   2.586   1.401 -0.4224  1.1901  2.5219
   83SOL     OW  247   0.048   0.330   0.495 -0.2980 -0.4890  0.0224
   83SOL    HW1  248   3.082   0.306   0.546  0.1574 -0.0439  0.6962
   83SOL    HW2  249   0.044   0.427   0.466  1.0741 -3.3371  3.1134
   84SOL     OW  250   0.390   1.260   3.028 -0.1613 -0.0368 -0.4190
   84SOL    HW1  251   0.302   1.229   2.987 -0.2128  0.0333  1.3752
   84SOL    HW2  252   0.371   1.329   3.099 -1.4437  0.3911 -1.6239
   85SOL     OW  253   2.918   1.861   1.802  0.1364  0.1344  0.3238
   85SOL    HW1  254   2.922   1.828   1.705 -0.9715 -1.8506  0.7022
   85SOL    HW2  255   2.833   1.912   1.826 -0.6015 -0.2440 -0.4779
   86SOL     OW  256   2.856   2.184   1.651  0.1335 -0.2034  0.1240
   86SOL    HW1  257   2.795   2.107   1.680  0.4153 -1.0472 -0.4192
   86SOL    HW2  258   2.887   2.237   1.729  0.6084  1.6753 -0.2059
   87SOL     OW  259   0.836   0.297   2.802 -0.5229  0.0654  0.0377
   87SOL    HW1  260   0.758   0.269   2.746  0.3235  1.9590 -0.5967
   87SOL    HW2  261   0.809   0.355   2.876  2.5197 -1.9859 -1.9287
   88SOL     OW  262   0.232   2.269   1.254  0.1150 -0.0522 -0.2100
   88SOL    HW1  263   0.319   2.270   1.201  0.4120 -2.1588 -0.7591
   88SOL    HW2  264   0.209   2.174   1.279 -0.5046 -1.6494 -2.7468
   89SOL     OW  265   0.949   0.741   1.654 -0.0165 -0.2231 -0.4067
   89SOL    HW1  266   1.048   0.746   1.637 -0.0746  0.4033  1.4124
   89SOL    HW2  267   0.925   0.673   1.726 -0.6111  1.8263  1.2160
   90SOL     OW  268   2.720   1.430   1.635 -0.6330  0.0319  0.7218
   90SOL    HW1  269   2.761   1.405   1.544 -1.7776  2.3555  0.0284
   90SOL    HW2  270   2.777   1.379   1.702  1.5310  0.9736  0.1614
   91SOL     OW  271   1.135   1.473   0.678  0.4709  0.1685 -0.3558
   91SOL    HW1  272   1.123   1.571   0.682  0.2884 -2.8605 -2.2752
   91SOL    HW2  273   1.063   1.430   0.731  0.9061  1.3066 -1.1259
   92SOL     OW  274   2.305   0.833   0.807  0.0777  0.4273  0.2853
   92SOL    HW1  275   2.214   0.880   0.817  0.8229  1.3702 -0.7368
   92SOL    HW2  276   2.287   0.733   0.837 -0.5274 -2.4029  0.2197
   93SOL     OW  277   1.937   0.936   2.963  0.0747 -0.2359 -0.0790
   93SOL    HW1  278   1.852   0.985   2.988  3.8143 -0.1639  3.5324
   93SOL    HW2  279   1.925   0.884   2.876 -0.6668  1.0416 -2.4513
   94SOL     OW  280   2.509   1.821   2.315  0.4392  0.2128  0.1959
   94SOL    HW1  281   2.460   1.755   2.251 -1.0182 -2.1170 -2.4187
   94SOL    HW2  282   2.442   1.869   2.374 -1.4796 -1.7160 -1.3851
   95SOL     OW  283   2.371   0.468   0.907 -0.1343  0.0885 -0.5013
   95SOL    HW1  284   2.339   0.538   0.973  0.9779 -2.5091 -1.3246
   95SOL    HW2  285   2.329   0.475   0.816 -0.6481 -2.7088  0.5950
   96SOL     OW  286   2.526   0.009   2.191  0.2341  0.0317 -0.7529
   96SOL    HW1  287   2.520   3.049   2.122  1.3388  1.7847  1.4237
   96SOL    HW2  288   2.556   0.091   2.146 -0.7058 -0.8754  1.0444
   97SOL     OW  289   2.369   0.165   0.953  0.1599 -0.0240  0.0309
   97SOL    HW1  290   2.380   0.257   0.912 -1.6831  0.0459 -1.2071
   97SOL    HW2  291   2.424   0.099   0.895  1.6717 -1.1739 -1.1685
   98SOL     OW  292   1.569   2.328   1.701  0.4079  0.0681 -0.0777
   98SOL    HW1  293   1.573   2.327   1.599  1.2032 -1.5333  0.9809
   98SOL    HW2  294   1.638   2.263   1.740  1.6670  1.9613 -0.0899
   99SOL     OW  295   2.432   2.203   1.624  0.3200 -0.3735  0.6106
   99SOL    HW1  296   2.502   2.276   1.644  1.1200  0.0912 -2.4859
   99SOL    HW2  297   2.387   2.175   1.710 -0.9661  0.2645 -0.8030
  100SOL     OW  298   0.517   0.727   2.887 -0.3267 -0.0885 -0.4027
  100SOL    HW1  299   0.593   0.794   2.875  1.9639  0.1664 -0.2834
  100SOL    HW2  300   0.486   0.734   2.987  2.2246 -2.3341  0.7063
  101SOL     OW  301   2.055   0.394   2.899 -0.5989 -0.1063  0.7160
  101SOL    HW1  302   2.099   0.303   2.906 -0.9201 -0.3313  0.5452
  101SOL    HW2  303   2.117   0.468   2.920 -1.0891  0.6849 -1.8443
  102SOL     OW  304   0.100   0.706   1.652  0.5250 -0.3105  0.2839
  102SOL    HW1  305   0.125   0.802   1.661 -0.8862  0.1308 -2.0648
  102SOL    HW2  306   0.143   0.667   1.568 -0.0639 -1.1471 -0.0246
  103SOL     OW  307   2.904   0.872   2.726 -0.5029  0.0669  0.3468
  103SOL    HW1  308   2.840   0.923   2.659  1.4982 -2.1281 -1.1469
  103SOL    HW2  309   2.938   0.789   2.679 -0.4753 -0.3419  0.7126
  104SOL     OW  310   0.686   0.429   2.432  0.0403 -0.5319 -0.2685
  104SOL    HW1  311   0.780   0.441   2.399 -4.6585  2.2310  3.3540
  104SOL    HW2  312   0.631   0.403   2.350 -0.2459 -1.2278  0.1928
  105SOL     OW  313   2.230   1.815   1.620  0.3654 -0.0861 -0.1245
  105SOL    HW1  314   2.245   1.891   1.551  2.6620  0.0782  1.4288
  105SOL    HW2  315   2.164   1.744   1.585 -0.5070 -0.7326 -1.5784
  106SOL     OW  316   1.981   0.408   0.498 -0.3816  0.0627  0.5288
  106SOL    HW1  317   1.981   0.319   0.547  0.4058  0.6483 -0.2951
  106SOL    HW2  318   2.018   0.400   0.401  1.0214 -1.4316  1.3252
  107SOL     OW  319   0.235   1.526   0.985 -0.2698 -0.2736 -0.5122
  107SOL    HW1  320   0.269   1.512   1.082 -4.8156  2.6756 -1.2421
  107SOL    HW2  321   0.304   1.581   0.928  0.8085 -0.6122 -0.0740
  108SOL     OW  322   2.774   2.413   1.535  0.2647  0.1961  0.3078
  108SOL    HW1  323   2.809   2.318   1.543 -0.4147  0.4822  1.9667
  108SOL    HW2  324   2.727   2.434   1.443  1.0198  0.8391 -0.1327
  109SOL     OW  325   2.026   0.123   0.699 -0.1870  0.1784 -0.2104
  109SOL    HW1  326   2.114   0.081   0.688 -0.7387 -0.6884  0.8275
  109SOL    HW2  327   2.023   0.181   0.783  1.6721  0.5780  0.6096
  110SOL     OW  328   0.459   2.156   2.618 -0.0082  0.2400 -0.2166
  110SOL    HW1  329   0.433   2.184   2.525 -0.8327  0.3057  1.7061
  110SOL    HW2  330   0.422   2.064   2.640 -0.4782  1.9403  2.6341
  111SOL     OW  331   1.507   2.630   1.749  0.1118 -0.0036  0.6077
  111SOL    HW1  332   1.498   2.532   1.752 -2.2583 -0.4992 -0.3020
  111SOL    HW2  333   1.523   2.660   1.650  2.3373 -1.9479 -1.7452
  112SOL     OW  334   1.908   2.654   0.028  0.3413  0.3794  0.3379
  112SOL    HW1  335   1.824   2.605   3.105 -0.7620 -0.3255  0.4315
  112SOL    HW2  336   1.886   2.749   0.057 -0.8536 -1.0240  0.6058
  113SOL     OW  337   1.885   2.332   1.479  0.2072  0.8076  0.1175
  113SOL    HW1  338   1.880   2.237   1.516 -0.3428 -0.1350  0.7309
  113SOL    HW2  339   1.848   2.339   1.383 -0.0218  0.2761  0.3663
  114SOL     OW  340   2.732   0.942   0.805 -0.1300 -0.2757  0.0682
  114SOL    HW1  341   2.648   0.903   0.847  0.2943 -1.6244 -0.4238
  114SOL    HW2  342   2.790   0.862   0.764  0.8596 -0.2915  0.5948
  115SOL     OW  343   0.620   1.146   3.017 -0.0416  0.3047 -0.2046
  115SOL    HW1  344   0.528   1.187   3.012  3.1397 -0.4486 -1.3060
  115SOL    HW2  345   0.610   1.058   3.065 -3.8052 -0.1495  2.2743
  116SOL     OW  346   2.746   1.867   2.182 -0.1787  0.3041 -0.2326
  116SOL    HW1  347   2.768   1.806   2.260 -0.9131 -1.0516 -1.6105
  116SOL    HW2  348   2.644   1.892   2.191 -2.5538  1.1852  0.0016
  117SOL     OW  349   2.945   2.407   0.439 -0.3859 -0.1896  0.3344
  117SOL    HW1  350   2.950   2.320   0.494  0.0412 -0.5149  1.0716
  117SOL    HW2  351   2.853   2.424   0.402 -0.8952 -0.2093  0.2911
  118SOL     OW  352   1.071   1.920   2.106  0.0567  0.7456  0.0658
  118SOL    HW1  353   1.114   2.012   2.097  1.0449 -0.3655 -0.0369
  118SOL    HW2  354   1.108   1.852   2.039  1.6572 -2.6056 -0.3557
  119SOL     OW  355   0.121   2.040   2.880 -0.1035 -0.2446 -0.0113
  119SOL    HW1  356   0.072   2.065   2.961  4.1906 -1.2625 -0.4597
  119SOL    HW2  357   0.181   1.964   2.901  1.0390  1.9495  0.4334
  120SOL     OW  358   1.092   0.949   2.998  0.2366 -0.0994  0.5327
  120SOL    HW1  359   1.070   1.048   3.009 -2.1702 -0.3460 -0.8445
  120SOL    HW2  360   1.140   0.929   2.913 -0.4743  0.1342  0.4685
  121SOL     OW  361   1.387   2.844   0.865  0.6683  0.3603 -0.4065
  121SOL    HW1  362   1.323   2.907   0.820  1.6081  1.1576 -1.0361
  121SOL    HW2  363   1.427   2.886   0.950 -0.0557  0.1498  0.5392
  122SOL     OW  364   2.563   2.422   1.728 -0.3742  0.4055 -0.0111
  122SOL    HW1  365   2.529   2.517   1.748  1.4200  0.4320 -1.5982
  122SOL    HW2  366   2.648   2.429   1.679 -1.7598 -1.4627  1.2488
  123SOL     OW  367   0.452   2.728   0.709  0.2676  0.4234  0.2974
  123SOL    HW1  368   0.488   2.674   0.630  1.1883 -0.5179 -1.4728
  123SOL    HW2  369   0.522   2.793   0.738  0.7509 -3.0247 -1.5630
  124SOL     OW  370   2.343   1.028   2.773 -0.5666  0.1886 -0.0921
  124SOL    HW1  371   2.411   1.098   2.739 -1.1529  2.5031 -1.7147
  124SOL    HW2  372   2.390   0.942   2.809  1.8583  1.9292  1.0737
  125SOL     OW  373   0.713   0.928   0.312  0.0075  0.5362 -0.0789
  125SOL    HW1  374   0.633   0.893   0.370 -1.5805 -0.0589 -0.2047
  125SOL    HW2  375   0.770   0.995   0.360 -1.0793 -0.6255 -2.4726
  126SOL     OW  376   0.145   1.248   0.477 -0.0827  0.1200  0.3380
  126SOL    HW1  377   0.089   1.327   0.499  2.9398 -0.0241 -0.0551
  126SOL    HW2  378   0.234   1.263   0.522  1.8771  2.0451  0.5739
  127SOL     OW  379   0.388   1.852   2.057 -0.0146 -0.0330 -0.1069
  127SOL    HW1  380   0.462   1.878   2.119  0.3241 -1.9938 -1.5670
  127SOL    HW2  381   0.301   1.871   2.105  2.8387 -1.1062 -0.6296
  128SOL     OW  382   0.789   1.245   0.102 -0.0217  0.2411  0.3521
  128SOL    HW1  383   0.882   1.225   0.062 -2.8041 -0.6595 -0.3336
  128SOL    HW2  384   0.714   1.219   0.038 -1.8527 -2.0813  2.9615
  129SOL     OW  385   2.694   1.380   0.843 -0.0373 -0.3788 -0.3562
  129SOL    HW1  386   2.610   1.326   0.833  0.3576  1.9495  0.7389
  129SOL    HW2  387   2.778   1.334   0.875  1.8137  1.1886  0.5723
  130SOL     OW  388   2.298   1.057   1.461 -0.7388 -0.0765 -0.2877
  130SOL    HW1  389   2.306   0.958   1.424  0.7821 -0.0309  1.5127
  130SOL    HW2  390   2.271   1.119   1.385  0.8372 -2.5217  0.6401
  131SOL     OW  391   2.943   3.115   2.734  0.3060  0.0613 -0.4413
  131SOL    HW1  392   2.899   3.026   2.727  0.0170  4.0588  1.1794
  131SOL    HW2  393   3.005   3.115   2.814  1.7194 -0.2670 -1.0447
  132SOL     OW  394   0.069   1.413   1.241 -0.2548 -0.0673 -0.1208
  132SOL    HW1  395   0.161   1.449   1.244 -1.3303  2.5254  1.1725
  132SOL    HW2  396   0.007   1.464   1.184 -0.2176 -0.6801  2.4123
  133SOL     OW  397   0.974   0.540   1.374 -0.7862  0.6284 -0.1009
  133SOL    HW1  398   1.030   0.495   1.448 -0.1758 -0.8206  2.3936
  133SOL    HW2  399   0.874   0.534   1.389  0.4930 -2.9522  0.2824
  134SOL     OW  400   0.112   1.633   0.163  0.3730  0.2188  0.3731
  134SOL    HW1  401   0.081   1.537   0.163  0.2681  0.1203  0.8385
  134SOL    HW2  402   0.054   1.684   0.103  1.9556  1.2323  0.3036
  135SOL     OW  403   1.803   0.900   1.449  0.4806 -0.0581  0.0053
  135SOL    HW1  404   1.780   0.802   1.436 -0.4542  1.2648 -2.2724
  135SOL    HW2  405   1.882   0.927   1.387 -0.7579  2.3526 -1.3515
  136SOL     OW  406   0.292   1.187   0.229  0.2266 -0.3749 -0.1294
  136SOL    HW1  407   0.234   1.118   0.178 -0.1723 -2.3764 -0.7327
  136SOL    HW2  408   0.243   1.219   0.311  0.9372  2.2526  3.8999
  137SOL     OW  409   2.865   1.149   0.980  0.0955  0.0008  0.4580
  137SOL    HW1  410   2.827   1.065   0.937  0.9775  1.0048 -0.4726
  137SOL    HW2  411   2.959   1.172   0.945 -1.7900  2.1355 -1.1833
  138SOL     OW  412   1.547   0.780   1.053  0.2250 -0.1877 -0.6176
  138SOL    HW1  413   1.496   0.749   1.137 -0.9435  1.3744 -1.1550
  138SOL    HW2  414   1.631   0.835   1.078  0.3987 -0.5724 -0.0298
  139SOL     OW  415   1.920   3.047   2.958 -0.9240 -0.1539 -0.2255
  139SOL    HW1  416   1.881   3.012   3.043  2.5170  0.5223 -1.3691
  139SOL    HW2  417   1.856   3.054   2.878 -0.9635 -2.7762 -0.8480
  140SOL     OW  418   1.349   1.705   1.578 -0.1391  0.5557  0.4824
  140SOL    HW1  419   1.377   1.796   1.609 -1.0809  2.4714 -1.0834
  140SOL    HW2  420   1.294   1.663   1.647  0.7425 -1.1972 -0.1551
  141SOL     OW  421   1.649   2.067   0.553  0.0100  0.5532 -0.1762
  141SOL    HW1  422   1.650   2.084   0.453  0.1191  0.5670  1.8993
  141SOL    HW2  423   1.563   2.011   0.578  0.2095 -2.0674 -0.7747
  142SOL     OW  424   0.796   0.842   3.025  0.1435  0.0807 -0.3839
  142SOL    HW1  425   0.752   0.793   3.109 -2.0696 -1.8422  0.7586
  142SOL    HW2  426   0.892   0.865   3.041 -2.0674 -3.1458 -2.6502
  143SOL     OW  427   0.427   2.230   0.248 -0.5449 -0.7612  0.1498
  143SOL    HW1  428   0.417   2.256   0.151 -2.0292 -1.0030 -0.1291
  143SOL    HW2  429   0.343   2.256   0.305 -3.4249  1.8798 -0.9143
  144SOL     OW  430   1.545   2.990   1.086  0.1891  0.1536 -0.1505
  144SOL    HW1  431   1.478   3.061   1.120 -0.8098  2.4661 -0.1088
  144SOL    HW2  432   1.573   2.921   1.155  0.8770 -0.3588  1.9315
  145SOL     OW  433   2.071   1.272   0.187  0.0951 -0.1518 -0.2919
  145SOL    HW1  434   2.127   1.223   0.259  0.2527 -2.1979  0.7928
  145SOL    HW2  435   1.988   1.219   0.157 -2.4152 -0.0955 -0.5894
  146SOL     OW  436   2.941   2.018   0.494  0.1798  0.1299 -0.1393
  146SOL    HW1  437   2.945   2.056   0.588  1.3377  1.7485  0.1208
  146SOL    HW2  438   2.847   2.043   0.464 -0.7839 -2.2155 -1.3935
  147SOL     OW  439   2.459   2.962   1.696 -0.1272 -0.1868  0.0536
  147SOL    HW1  440   2.438   2.951   1.596  0.3414 -0.2999 -0.3966
  147SOL    HW2  441   2.555   2.932   1.715  1.0781 -2.1877 -2.1291
  148SOL     OW  442   1.587   3.065   1.974  0.4103 -0.1094  0.6321
  148SOL    HW1  443   1.594   2.970   1.936 -0.5812 -2.8065  2.9714
  148SOL    HW2  444   1.515   3.066   2.050 -0.2082  2.3034  2.7725
  149SOL     OW  445   1.887   0.824   2.083  0.3462  0.2421 -0.1573
  149SOL    HW1  446   1.918   0.744   2.135  0.6984  1.6486 -0.6072
  149SOL    HW2  447   1.941   0.832   1.993  2.0219 -0.9277 -1.4165
  150SOL     OW  448   0.320   0.015   0.238 -0.1193  0.6765  0.1442
  150SOL    HW1  449   0.398   3.103   0.294 -2.3555  0.4788 -1.6846
  150SOL    HW2  450   0.275   0.100   0.262  0.3827 -2.0438 -0.9353
  151SOL     OW  451   0.106   2.049   0.506  0.2736  0.0085 -0.6660
  151SOL    HW1  452   0.006   2.032   0.503 -2.1318 -3.3523  1.8029
  151SOL    HW2  453   0.136   2.131   0.451  0.5794 -0.5408 -0.6863
  152SOL     OW  454   2.921   0.002   0.693  0.7219 -0.5519 -0.8721
  152SOL    HW1  455   2.983   3.056   0.741  3.8176  1.3294  3.7254
  152SOL    HW2  456   2.830   3.114   0.733  0.6241 -1.8151 -0.5105
  153SOL     OW  457   2.524   0.004   0.818 -0.0440  0.2710  0.3709
  153SOL    HW1  458   2.452   3.053   0.812  1.6390  0.4514  2.7807
  153SOL    HW2  459   2.544   0.046   0.728  2.7880 -1.3220 -3.3629
  154SOL     OW  460   1.031   0.346   1.818 -0.2008  0.4609 -0.0617
  154SOL    HW1  461   1.108   0.308   1.871 -2.4826 -0.6392  0.7626
  154SOL    HW2  462   0.985   0.420   1.868 -0.6619  1.2852 -0.0191
  155SOL     OW  463   0.081   1.115   1.197 -0.1647  0.1684  0.5051
  155SOL    HW1  464   0.083   1.150   1.101 -0.0029 -1.3423  0.7765
  155SOL    HW2  465   0.055   1.194   1.255 -0.0260  1.3558 -1.1666
  156SOL     OW  466   3.008   2.014   3.053  0.7731 -0.1571  0.4585
  156SOL    HW1  467   2.957   2.047   0.021 -2.2096  0.1340 -0.3372
  156SOL    HW2  468   2.979   2.064   2.969 -0.2476 -0.6536  0.7749
  157SOL     OW  469   0.971   0.626   0.158  0.2968 -0.3485  0.2859
  157SOL    HW1  470   0.957   0.621   0.261  0.5508 -0.1971 -0.4896
  157SOL    HW2  471   1.028   0.707   0.130  1.4863  2.7093 -1.0123
  158SOL     OW  472   2.535   3.091   2.639  0.2120 -0.1181  0.5167
  158SOL    HW1  473   2.548   0.029   2.723  0.2027 -3.0973 -0.4065
  158SOL    HW2  474   2.460   0.006   2.579 -1.4853 -1.0352 -0.5734
  159SOL     OW  475   0.877   0.321   0.447  0.4859 -0.0965  0.7925
  159SOL    HW1  476   0.936   0.242   0.471  1.1598  2.2784 -1.4878
  159SOL    HW2  477   0.926   0.406   0.465 -0.5770 -0.2553  1.5650
  160SOL     OW  478   1.122   2.040   2.931 -0.6544 -0.4448 -0.1098
  160SOL    HW1  479   1.098   1.945   2.928 -0.3091  3.0817 -0.6901
  160SOL    HW2  480   1.037   2.095   2.952 -2.5064  1.5788 -0.3664
  161SOL     OW  481   2.958   1.548   2.478  0.0777 -0.4068 -0.0610
  161SOL    HW1  482   2.889   1.626   2.462 -0.0752  0.5699  0.1970
  161SOL    HW2  483   2.954   1.512   2.576  1.2822  1.0670  2.2607
  162SOL     OW  484   0.525   2.593   1.390 -0.1885  0.1932  0.0968
  162SOL    HW1  485   0.453   2.527   1.424  1.8804  0.9683  1.3376
  162SOL    HW2  486   0.512   2.616   1.292 -1.0242 -0.3700 -0.1550
  163SOL     OW  487   2.429   0.494   2.306 -0.1000  0.0679 -0.2652
  163SOL    HW1  488   2.486   0.578   2.324  1.6454  2.8402  1.4616
  163SOL    HW2  489   2.421   0.432   2.388 -0.6242 -0.5174  3.0197
  164SOL     OW  490   2.672   1.366   0.526 -0.8042 -0.3559  0.2215
  164SOL    HW1  491   2.575   1.384   0.499  1.0271 -1.2418 -1.3460
  164SOL    HW2  492   2.698   1.384   0.623  1.9878  0.0608  0.9601
  165SOL     OW  493   0.096   0.338   1.404 -0.1909  0.6838 -0.4402
  165SOL    HW1  494   0.121   0.301   1.312  1.2214 -1.8161  1.7178
  165SOL    HW2  495   0.142   0.425   1.419  1.7065 -2.8302 -0.8046
  166SOL     OW  496   2.037   0.946   0.834 -0.5442 -0.5360 -0.0442
  166SOL    HW1  497   2.004   1.040   0.856  0.6782  3.1467 -0.3210
  166SOL    HW2  498   1.998   0.921   0.742 -1.7833 -3.0123 -0.4132
  167SOL     OW  499   0.262   0.611   0.188  0.1226 -0.5140 -0.2195
  167SOL    HW1  500   0.276   0.526   0.132  1.4016 -0.2551 -0.0163
  167SOL    HW2  501   0.239   0.689   0.126 -2.6088  2.1136  2.2269
  168SOL     OW  502   1.972   3.013   1.941 -0.1402 -0.5590 -0.1212
  168SOL    HW1  503   1.901   3.086   1.969  1.0237  0.7655 -1.3783
  168SOL    HW2  504   1.941   2.947   1.867  0.5761  0.3609  0.0485
  169SOL     OW  505   0.744   1.082   0.951  0.1868 -0.1121  0.4303
  169SOL    HW1  506   0.812   1.004   0.942 -0.6594 -1.6543 -2.0852
  169SOL    HW2  507   0.726   1.106   1.049 -1.8086 -0.5449 -3.1858
  170SOL     OW  508   2.922   0.328   1.460  0.3291  0.1002  0.3142
  170SOL    HW1  509   3.013   0.296   1.436 -2.4587  0.2650  2.5932
  170SOL    HW2  510   2.908   0.313   1.559 -0.4472  3.7903  1.8887
  171SOL     OW  511   1.308   2.805   2.698  0.1836 -0.7258  0.0628
  171SOL    HW1  512   1.265   2.717   2.709  2.7026  3.5363  0.3827
  171SOL    HW2  513   1.243   2.883   2.682 -0.4215  1.4810 -0.1750
  172SOL     OW  514   0.268   2.747   1.214 -0.3492  0.5444  0.5903
  172SOL    HW1  515   0.364   2.759   1.175  0.2323 -0.9938 -1.1051
  172SOL    HW2  516   0.203   2.819   1.187  2.4423 -3.9889  0.6874
  173SOL     OW  517   1.480   0.659   2.955  0.0873  0.1650  1.2051
  173SOL    HW1  518   1.427   0.570   2.962 -0.1833 -0.9397  3.2356
  173SOL    HW2  519   1.550   0.654   2.881  1.4836 -2.2094 -1.3710
  174SOL     OW  520   1.881   3.093   2.545 -0.0527 -0.0609  0.2208
  174SOL    HW1  521   1.814   3.085   2.618  2.3836  0.3514 -4.5893
  174SOL    HW2  522   1.965   0.032   2.578  1.0591  1.6008  1.1096
  175SOL     OW  523   2.049   2.596   0.265  0.4149 -0.3135  0.4153
  175SOL    HW1  524   2.022   2.607   0.167 -0.3709  0.2563  0.4180
  175SOL    HW2  525   1.984   2.540   0.321  1.5194  0.6140 -0.7570
  176SOL     OW  526   2.140   0.109   2.938  0.1695  0.2082 -0.4354
  176SOL    HW1  527   2.199   0.092   3.019 -0.6172 -1.1233  0.5239
  176SOL    HW2  528   2.051   0.066   2.950  1.0834  4.2392 -0.3340
  177SOL     OW  529   0.991   1.702   0.727  0.8674 -0.1515  0.4644
  177SOL    HW1  530   1.048   1.786   0.703 -0.1364  1.7325 -1.7399
  177SOL    HW2  531   0.898   1.711   0.683  0.2879 -0.8690 -0.7063
  178SOL     OW  532   2.708   2.287   2.998  0.0917 -0.0291 -0.1208
  178SOL    HW1  533   2.650   2.272   2.914  1.4848 -2.2999  1.4682
  178SOL    HW2  534   2.788   2.340   2.966 -0.8228 -0.1967  4.4874
  179SOL     OW  535   0.609   2.995   2.862 -0.4512  0.5470 -0.0608
  179SOL    HW1  536   0.670   2.916   2.893  2.3629 -3.3033  0.9361
  179SOL    HW2  537   0.511   2.954   2.859 -1.3650 -1.4080  1.8496
  180SOL     OW  538   1.440   1.342   0.998 -0.1267  0.6488  0.4716
  180SOL    HW1  539   1.463   1.409   1.069 -0.1763  1.4350 -3.4787
  180SOL    HW2  540   1.340   1.341   0.984  1.8049 -1.0193  3.3224
  181SOL     OW  541   2.213   0.899   2.278  0.4566  0.3366  0.3785
  181SOL    HW1  542   2.128   0.947   2.302 -4.1078  1.2700  0.4510
  181SOL    HW2  543   2.210   0.816   2.216 -0.5412 -1.9487 -0.2639
  182SOL     OW  544   0.267   2.803   2.167  0.0317  0.0802 -0.4580
  182SOL    HW1  545   0.238   2.870   2.098 -2.1572 -1.4788  3.1607
  182SOL    HW2  546   0.364   2.824   2.208  2.8977  1.8165 -0.4775
  183SOL     OW  547   1.397   0.821   2.332 -0.1381 -0.5789 -0.2274
  183SOL    HW1  548   1.490   0.825   2.283 -1.9906  0.7680  1.9078
  183SOL    HW2  549   1.352   0.733   2.310 -0.3248  2.3847 -0.1630
  184SOL     OW  550   0.473   0.810   1.741 -0.4095  0.1062  0.3591
  184SOL    HW1  551   0.564   0.862   1.747  0.2194  2.6849  1.5549
  184SOL    HW2  552   0.402   0.864   1.798 -1.9534  1.9343  1.5588
  185SOL     OW  553   1.955   0.991   0.340 -0.0964 -0.6214 -0.3295
  185SOL    HW1  554   1.898   1.062   0.288 -2.4965  0.9108 -1.1718
  185SOL    HW2  555   2.046   1.031   0.369 -2.6370 -1.8482 -0.7410
  186SOL     OW  556   0.396   2.331   0.004  0.4405 -0.1638 -0.1345
  186SOL    HW1  557   0.416   2.324   3.021 -0.3348  1.3821  1.6873
  186SOL    HW2  558   0.312   2.278   0.023  1.8057 -0.3003 -1.4704
  187SOL     OW  559   2.566   1.160   0.173  0.0640 -0.1425  0.4796
  187SOL    HW1  560   2.490   1.106   0.133  2.2431  1.9545 -0.7790
  187SOL    HW2  561   2.574   1.139   0.272  1.6728 -0.5522 -0.8698
  188SOL     OW  562   3.104   1.470   0.892 -0.4570 -0.3589  0.1447
  188SOL    HW1  563   0.084   1.489   0.920 -1.6824 -1.9391  1.3880
  188SOL    HW2  564   3.040   1.521   0.943  1.5186 -2.7042  1.9206
  189SOL     OW  565   2.725   0.224   0.233  0.3208  0.0673 -0.6485
  189SOL    HW1  566   2.827   0.203   0.242 -0.7594 -0.5315  1.8435
  189SOL    HW2  567   2.670   0.143   0.263  0.5370  1.7364 -0.0655
  190SOL     OW  568   1.430   1.470   2.140 -0.1800  0.4228 -0.0021
  190SOL    HW1  569   1.335   1.492   2.165  0.3400 -0.1837 -4.4933
  190SOL    HW2  570   1.443   1.380   2.089 -0.6272 -0.5801  0.0929
  191SOL     OW  571   2.672   0.374   1.743  0.1743 -0.9324  0.2722
  191SOL    HW1  572   2.650   0.476   1.722 -2.6232 -1.7689 -0.2073
  191SOL    HW2  573   2.598   0.311   1.704  1.7278 -3.5986 -3.4831
  192SOL     OW  574   1.781   1.425   1.218 -0.0357 -0.6073  0.0842
  192SOL    HW1  575   1.844   1.400   1.295 -0.9597  0.0372 -1.0263
  192SOL    HW2  576   1.822   1.504   1.163  0.9446  2.9247  0.4148
  193SOL     OW  577   0.887   0.847   0.947 -0.1807 -0.1748  0.1808
  193SOL    HW1  578   0.862   0.767   0.892  0.4566 -0.6037  0.1070
  193SOL    HW2  579   0.895   0.819   1.046  3.1399 -1.2431  2.1708
  194SOL     OW  580   1.111   2.412   1.505  0.4590  0.1450 -0.1165
  194SOL    HW1  581   1.188   2.442   1.440 -1.5107 -2.2719 -2.5448
  194SOL    HW2  582   1.113   2.470   1.589 -1.3970 -1.5933  5.1492
  195SOL     OW  583   2.461   0.420   2.805  0.7039  0.1353  0.2729
  195SOL    HW1  584   2.442   0.338   2.865 -0.2315 -1.6268  0.9892
  195SOL    HW2  585   2.424   0.507   2.850 -1.1983  0.6826  0.0166
  196SOL     OW  586   1.115   2.604   1.714  0.3662  0.2713 -0.1445
  196SOL    HW1  587   1.118   2.560   1.806 -0.0142 -1.6033  0.2279
  196SOL    HW2  588   1.027   2.657   1.691 -2.9149  0.9480 -3.3784
  197SOL     OW  589   0.767   2.784   0.981 -0.5446  0.7418 -0.8127
  197SOL    HW1  590   0.726   2.860   0.934 -0.3458 -2.8196  0.3825
  197SOL    HW2  591   0.859   2.764   0.940  1.5521  1.1004 -0.1660
  198SOL     OW  592   0.879   0.933   0.666  0.3606  0.2763  0.4368
  198SOL    HW1  593   0.829   0.897   0.745 -0.4152  0.3351 -1.3751
  198SOL    HW2  594   0.809   0.992   0.621  1.2507  0.3997 -2.0404
  199SOL     OW  595   0.235   2.914   1.735  0.3893 -0.7032 -0.6222
  199SOL    HW1  596   0.312   2.865   1.692 -2.0772  0.4999  2.0074
  199SOL    HW2  597   0.216   3.004   1.685 -1.1778 -0.8239  0.4077
  200SOL     OW  598   2.140   1.913   2.299  0.7542 -0.0507 -0.0456
  200SOL    HW1  599   2.137   1.837   2.231 -0.0675  0.4683 -0.1897
  200SOL    HW2  600   2.208   1.978   2.277 -1.7607 -0.7521  2.1027
  201SOL     OW  601   3.046   2.140   1.456  1.1050 -0.4584 -0.3051
  201SOL    HW1  602   3.007   2.184   1.370 -0.9292 -0.4691  0.0041
  201SOL    HW2  603   2.970   2.143   1.523 -1.8778  1.1527 -0.6375
  202SOL     OW  604   2.619   3.097   0.343  0.2109  0.0034  0.0558
  202SOL    HW1  605   2.709   3.066   0.375 -2.4312  0.3850 -0.9712
  202SOL    HW2  606   2.566   3.014   0.309  1.7903 -1.9936  1.2797
  203SOL     OW  607   1.327   2.131   2.257 -0.5533 -0.1663 -0.8062
  203SOL    HW1  608   1.289   2.057   2.316  0.2921  0.7621  0.9499
  203SOL    HW2  609   1.431   2.142   2.267  2.1382 -0.1802 -0.9254
  204SOL     OW  610   1.463   2.090   1.374 -0.2513  0.4982 -0.4521
  204SOL    HW1  611   1.503   2.180   1.387 -1.0478 -1.6383  0.1283
  204SOL    HW2  612   1.532   2.022   1.403  1.7014  0.4347  0.1342
  205SOL     OW  613   1.210   1.697   1.996 -0.1507  0.0994 -0.4123
  205SOL    HW1  614   1.311   1.686   1.997  1.0845  2.1047  2.5131
  205SOL    HW2  615   1.169   1.640   2.071 -0.0560 -2.0533  0.2150
  206SOL     OW  616   0.365   0.782   2.661 -0.2126 -0.5650  0.4592
  206SOL    HW1  617   0.412   0.769   2.751  0.7081 -3.4534 -0.9715
  206SOL    HW2  618   0.426   0.746   2.588  2.4721  0.1476 -0.0325
  207SOL     OW  619   0.793   0.014   1.951 -0.0865  0.1464  0.1671
  207SOL    HW1  620   0.770   0.101   1.902 -0.5709  0.3039  1.4657
  207SOL    HW2  621   0.893   0.026   1.984 -0.9471  0.5489 -0.9258
  208SOL     OW  622   0.706   2.582   1.918  0.1246 -0.1322  0.4128
  208SOL    HW1  623   0.796   2.624   1.935 -1.8964 -1.5173  4.1534
  208SOL    HW2  624   0.716   2.488   1.881 -1.2683  1.8266  0.3563
  209SOL     OW  625   1.513   0.564   0.090  0.0305  0.6598 -0.1517
  209SOL    HW1  626   1.502   0.604   3.112  0.3257 -0.5982  0.6360
  209SOL    HW2  627   1.428   0.517   0.116 -1.6281  0.0341 -2.2923
  210SOL     OW  628   3.032   0.497   0.786 -0.2010 -0.4791 -1.0850
  210SOL    HW1  629   2.974   0.530   0.862  2.6979 -2.0213 -0.2830
  210SOL    HW2  630   3.005   0.406   0.746 -1.4348 -1.4024 -1.7435
  211SOL     OW  631   0.575   0.709   1.314  0.1707  0.1762  0.4182
  211SOL    HW1  632   0.611   0.611   1.316 -1.7686  0.2476  0.9028
  211SOL    HW2  633   0.510   0.729   1.390 -0.0521 -0.1378 -2.7294
  212SOL     OW  634   1.409   1.754   0.939  0.4263  0.2959  0.8351
  212SOL    HW1  635   1.308   1.743   0.946  0.5947 -1.6706  0.7496
  212SOL    HW2  636   1.451   1.700   1.016 -0.9221  0.6175  0.5682
  213SOL     OW  637   2.010   0.020   1.490 -0.4681  0.3349  0.2124
  213SOL    HW1  638   2.085   3.093   1.433 -0.1948 -1.8314 -1.6956
  213SOL    HW2  639   1.934   3.070   1.518 -1.3645 -2.2166  0.7431
  214SOL     OW  640   1.200   2.573   2.777 -0.0600 -0.3413 -0.0332
  214SOL    HW1  641   1.229   2.507   2.850  2.1566 -1.5102  0.7830
  214SOL    HW2  642   1.221   2.532   2.690  0.7764  0.1956  1.8693
  215SOL     OW  643   2.852   1.826   1.220 -0.2000 -0.7263 -0.0548
  215SOL    HW1  644   2.757   1.855   1.197 -0.1479 -1.1913 -0.3160
  215SOL    HW2  645   2.859   1.726   1.212 -2.1198  0.1190 -2.3976
  216SOL     OW  646   0.283   0.493   1.988 -0.1187  0.4935 -0.5596
  216SOL    HW1  647   0.211   0.555   1.959  1.0025  1.5635  2.4282
  216SOL    HW2  648   0.313   0.525   2.080 -1.2789 -0.7220  0.5730
  217SOL     OW  649   2.999   0.144   0.300  0.1524  0.0343  0.0837
  217SOL    HW1  650   3.065   0.168   0.371  1.0722 -2.4371 -2.7198
  217SOL    HW2  651   2.961   0.051   0.318 -0.6292  2.5592 -1.1822
  218SOL     OW  652   1.636   1.910   1.499  0.9547 -0.0643 -0.7681
  218SOL    HW1  653   1.700   1.853   1.553 -2.4906  0.1210  0.6470
  218SOL    HW2  654   1.616   1.861   1.417  1.7469  1.9723  1.5796
  219SOL     OW  655   1.723   0.587   0.266 -0.1662 -0.0634 -0.1892
  219SOL    HW1  656   1.729   0.501   0.324 -1.4378 -2.2783 -1.0160
  219SOL    HW2  657   1.649   0.577   0.200  0.5566  1.6646  0.3932
  220SOL     OW  658   1.548   1.955   1.034  0.5427 -0.1562  0.2638
  220SOL    HW1  659   1.517   2.054   1.030  3.6125  6.0245 -1.2622
  220SOL    HW2  660   1.496   1.885   0.986 -0.3692  1.2085  0.3309
  221SOL     OW  661   0.035   0.363   0.040  0.2329  0.4533  0.0094
  221SOL    HW1  662   3.091   0.285   0.021 -0.3381  1.6001  1.7796
  221SOL    HW2  663   3.099   0.449   0.063  0.7764 -0.8097 -0.1566
  222SOL     OW  664   0.917   2.801   1.683 -0.4849  0.4586 -0.0734
  222SOL    HW1  665   0.910   2.900   1.657 -0.0641  0.1710 -0.9430
  222SOL    HW2  666   0.842   2.757   1.631 -0.5434  1.1152 -2.4150
  223SOL     OW  667   1.384   0.388   2.971 -0.3665  0.7722 -0.3563
  223SOL    HW1  668   1.470   0.334   2.952 -0.0989 -2.2787 -2.8788
  223SOL    HW2  669   1.302   0.343   2.931 -0.5997  1.3973 -1.5068
  224SOL     OW  670   2.810   0.446   1.179  0.1563  0.0652  0.4162
  224SOL    HW1  671   2.841   0.463   1.275  1.8939 -1.2623 -0.2096
  224SOL    HW2  672   2.743   0.372   1.184  0.0956  1.4016  1.5609
  225SOL     OW  673   0.703   1.309   1.794 -0.1128  0.1414 -0.5418
  225SOL    HW1  674   0.744   1.384   1.740 -1.0443 -0.9792 -1.0718
  225SOL    HW2  675   0.615   1.337   1.836  2.1221 -0.6877 -1.6256
  226SOL     OW  676   0.809   3.112   0.657 -0.1265  0.4466 -0.1088
  226SOL    HW1  677   0.864   3.104   0.573  0.6137 -1.4259  0.5774
  226SOL    HW2  678   0.717   0.034   0.632 -1.5247 -0.8606 -1.4073
  227SOL     OW  679   0.875   1.929   1.649  0.5028 -0.2181  0.3281
  227SOL    HW1  680   0.910   1.986   1.567  1.7127  0.3978 -1.7269
  227SOL    HW2  681   0.947   1.921   1.717 -0.5712 -4.2372 -1.4786
  228SOL     OW  682   0.512   3.099   1.673 -0.1600 -0.2935  0.0423
  228SOL    HW1  683   0.447   0.019   1.741  0.4824 -0.2530 -0.6576
  228SOL    HW2  684   0.514   2.996   1.680 -1.0767 -3.5095  1.2034
  229SOL     OW  685   2.505   0.645   0.425 -0.2176 -0.2080 -0.1558
  229SOL    HW1  686   2.563   0.644   0.507 -0.1752 -2.1775  0.9823
  229SOL    HW2  687   2.556   0.699   0.355  0.0390 -1.6074  0.2652
  230SOL     OW  688   0.266   1.308   2.256 -0.5308  0.2508  0.0390
  230SOL    HW1  689   0.289   1.257   2.343  0.0855 -0.5547  2.1877
  230SOL    HW2  690   0.311   1.264   2.176 -0.5185 -0.0995  1.0313
  231SOL     OW  691   1.082   2.870   1.311 -0.0897  0.0611  0.4209
  231SOL    HW1  692   0.991   2.828   1.287 -1.5557 -0.2011 -0.2102
  231SOL    HW2  693   1.121   2.814   1.389  0.9519 -2.6968  2.4126
  232SOL     OW  694   2.447   2.377   0.191  0.8111 -0.5660 -0.7995
  232SOL    HW1  695   2.445   2.468   0.144  1.4732  2.9128 -0.9226
  232SOL    HW2  696   2.391   2.306   0.144  0.1405 -0.0147  1.3595
  233SOL     OW  697   1.205   2.748   0.193  0.0975  0.6944  0.5417
  233SOL    HW1  698   1.164   2.843   0.199 -1.1426  1.1388  2.0515
  233SOL    HW2  699   1.142   2.686   0.144 -0.9972 -2.0298  0.5755
  234SOL     OW  700   0.990   0.751   2.131  0.7868  0.2152 -0.3808
  234SOL    HW1  701   0.907   0.722   2.184  0.6614 -2.9166  1.8263
  234SOL    HW2  702   0.988   0.849   2.105  0.7108  1.1465  1.2738
  235SOL     OW  703   0.200   2.298   0.384 -0.0960 -0.8813  0.7451
  235SOL    HW1  704   0.203   2.396   0.414 -2.6261  4.0768  2.8530
  235SOL    HW2  705   0.133   2.297   0.306 -1.3359 -0.9733  1.0536
  236SOL     OW  706   2.136   2.698   2.443 -0.2871 -0.1419 -0.0395
  236SOL    HW1  707   2.201   2.699   2.363 -1.5129  0.1030 -0.9020
  236SOL    HW2  708   2.057   2.631   2.432 -2.0934  0.7350  0.8992
  237SOL     OW  709   1.940   1.098   1.581 -0.1240  0.5390 -0.5889
  237SOL    HW1  710   1.887   1.016   1.547  0.3166  0.1286 -2.6902
  237SOL    HW2  711   2.040   1.077   1.579  0.0521 -2.5362  1.0461
  238SOL     OW  712   1.773   0.161   2.269 -0.4270  0.5134 -0.1903
  238SOL    HW1  713   1.864   0.150   2.313  0.7684 -4.8043 -0.4943
  238SOL    HW2  714   1.783   0.161   2.168  1.0705  0.9692  0.3027
  239SOL     OW  715   0.941   2.218   1.778  0.3323 -0.3282  0.0072
  239SOL    HW1  716   0.868   2.275   1.745  1.5688  1.0212  0.7430
  239SOL    HW2  717   0.967   2.155   1.704  0.1725  3.0873  4.0009
  240SOL     OW  718   2.901   2.726   0.656  0.4342 -0.2911 -0.2957
  240SOL    HW1  719   2.995   2.688   0.632  0.7414  3.0245 -1.4814
  240SOL    HW2  720   2.864   2.704   0.750  2.5377  2.0244  0.3207
  241SOL     OW  721   1.432   1.958   0.313 -0.2349 -0.6546 -0.7120
  241SOL    HW1  722   1.404   1.933   0.412  0.6063 -2.7522  1.2759
  241SOL    HW2  723   1.530   1.988   0.302  0.9143 -0.8379  0.0195
  242SOL     OW  724   2.333   1.012   0.141 -0.5042  0.1959 -0.1664
  242SOL    HW1  725   2.374   0.921   0.156  2.2746 -0.9888  0.6359
  242SOL    HW2  726   2.273   1.012   0.058 -0.9619  1.3322 -0.3584
  243SOL     OW  727   0.668   0.426   1.977 -0.2425 -0.4346  0.4620
  243SOL    HW1  728   0.703   0.360   1.907 -0.4366 -0.1651  0.9951
  243SOL    HW2  729   0.604   0.489   1.925 -0.0001 -0.7384 -0.6087
  244SOL     OW  730   1.673   2.686   2.808 -0.5446  0.2136 -0.1447
  244SOL    HW1  731   1.589   2.742   2.816 -1.4392 -2.5608  1.2577
  244SOL    HW2  732   1.755   2.733   2.778  2.7913  0.2146 -0.0037
  245SOL     OW  733   1.719   3.082   2.769 -0.1345 -0.2700 -0.2382
  245SOL    HW1  734   1.685   0.054   2.805  1.2426  0.4328  0.5333
  245SOL    HW2  735   1.647   3.010   2.786  0.8353  0.6124 -4.7684
  246SOL     OW  736   1.306   1.189   2.430  0.0708 -0.4917 -0.5508
  246SOL    HW1  737   1.406   1.202   2.429 -0.4339  0.4714 -0.5330
  246SOL    HW2  738   1.265   1.283   2.457  3.9535  1.7741  2.1020
  247SOL     OW  739   2.837   0.396   1.982 -0.1605  0.0158  0.0756
  247SOL    HW1  740   2.930   0.403   1.935  1.6551  1.5853 -0.5072
  247SOL    HW2  741   2.763   0.393   1.914  2.9816  2.3741  0.2226
  248SOL     OW  742   0.373   1.156   2.058  0.3572 -0.5832 -0.6446
  248SOL    HW1  743   0.336   1.112   1.976  1.3396 -1.1288 -0.7521
  248SOL    HW2  744   0.449   1.216   2.032 -0.1697  0.5768  0.4791
  249SOL     OW  745   2.559   0.390   0.098 -0.1825 -0.0376 -0.1429
  249SOL    HW1  746   2.500   0.424   0.173  2.3375 -0.9572 -1.9392
  249SOL    HW2  747   2.637   0.335   0.140  1.6602  1.8436  0.4906
  250SOL     OW  748   2.938   0.259   0.667 -0.1650 -0.0380  0.3428
  250SOL    HW1  749   2.862   0.306   0.624  1.7609 -0.3451  0.7893
  250SOL    HW2  750   2.933   0.159   0.685  0.8016  0.5936 -0.5571
  251SOL     OW  751   0.671   1.084   2.117 -0.5755  0.4202  0.9407
  251SOL    HW1  752   0.745   1.062   2.188 -0.5734  1.4050 -0.2827
  251SOL    HW2  753   0.704   1.087   2.022  0.2051  0.8969 -0.2413
  252SOL     OW  754   1.495   1.650   1.957 -0.5025  0.2191  0.1048
  252SOL    HW1  755   1.477   1.576   2.029 -0.6340 -2.2389 -3.4470
  252SOL    HW2  756   1.568   1.612   1.900 -2.0211 -0.2937  1.1900
  253SOL     OW  757   1.541   2.442   1.996  0.7182  0.6261  0.5271
  253SOL    HW1  758   1.469   2.510   2.026 -1.4263 -1.4476  1.4696
  253SOL    HW2  759   1.495   2.360   1.954 -1.6098 -0.5781 -1.6913
  254SOL     OW  760   0.850   2.247   2.190  0.3238 -0.5685  0.2110
  254SOL    HW1  761   0.757   2.255   2.147 -1.4482  0.2354 -0.3455
  254SOL    HW2  762   0.931   2.267   2.132 -1.5597 -0.2981  0.1018
  255SOL     OW  763   1.254   0.517   0.738 -0.0075 -0.2799  0.6534
  255SOL    HW1  764   1.159   0.530   0.708  2.8628 -0.6686  1.9298
  255SOL    HW2  765   1.270   0.564   0.827  1.9393  0.8770 -1.6773
  256SOL     OW  766   1.940   2.219   1.171  0.3817  0.5283 -0.3629
  256SOL    HW1  767   2.006   2.271   1.116  1.6370  0.5742  1.0642
  256SOL    HW2  768   1.859   2.194   1.115 -0.8736  1.8154  2.8786
  257SOL     OW  769   0.192   2.196   2.685  0.4357  0.5596  0.6231
  257SOL    HW1  770   0.294   2.194   2.684 -1.1760  0.2396 -1.9165
  257SOL    HW2  771   0.159   2.125   2.752  0.1864  1.6006  1.0261
  258SOL     OW  772   0.330   1.136   2.457 -0.3281 -0.2196  0.1812
  258SOL    HW1  773   0.421   1.162   2.496 -0.8001  1.3069  1.7798
  258SOL    HW2  774   0.283   1.068   2.521 -2.2271 -2.4662  2.2580
  259SOL     OW  775   1.248   0.942   2.512  0.0945  0.1568  0.6909
  259SOL    HW1  776   1.259   1.038   2.479  0.6917  1.7473  1.5577
  259SOL    HW2  777   1.315   0.881   2.463  2.0954 -2.0777  2.2591
  260SOL     OW  778   1.983   0.616   0.662 -0.2007 -0.0562 -0.2606
  260SOL    HW1  779   1.939   0.707   0.636  0.7743  2.0898  0.7802
  260SOL    HW2  780   1.952   0.543   0.598  0.9237  1.5236 -0.4704
  261SOL     OW  781   0.963   0.389   0.018  0.5161  0.3904  0.0579
  261SOL    HW1  782   0.868   0.379   3.100 -0.3738 -1.0363 -0.2322
  261SOL    HW2  783   0.974   0.473   0.075  0.1594  2.7239  1.6698
  262SOL     OW  784   2.152   2.704   2.700  0.2594 -0.4463 -0.0439
  262SOL    HW1  785   2.217   2.643   2.749 -2.0421 -1.2120  0.9918
  262SOL    HW2  786   2.159   2.695   2.598  0.2078  3.4869  1.9474
  263SOL     OW  787   0.862   2.068   0.075 -0.0454  0.1568  0.1393
  263SOL    HW1  788   0.932   1.995   0.102 -1.2822 -0.5150  0.2008
  263SOL    HW2  789   0.872   2.105   3.102 -2.7500 -1.9530  3.4599
  264SOL     OW  790   0.410   1.797   1.673  0.3248  0.1236  0.4865
  264SOL    HW1  791   0.435   1.727   1.739 -0.0930  0.1883  0.8515
  264SOL    HW2  792   0.420   1.881   1.728 -0.0687 -1.2246  1.8119
  265SOL     OW  793   0.718   1.130   0.603  0.1380  0.3973 -0.5537
  265SOL    HW1  794   0.635   1.136   0.661  1.0753 -1.1959 -2.1552
  265SOL    HW2  795   0.761   1.214   0.566 -1.1127  1.0735  1.7621
  266SOL     OW  796   1.651   1.567   0.059 -0.0375  0.2901 -0.5157
  266SOL    HW1  797   1.730   1.627   0.063 -2.0374 -0.4116  1.3462
  266SOL    HW2  798   1.566   1.617   0.052 -0.8303 -1.4312  0.5019
  267SOL     OW  799   2.728   0.168   2.970 -0.1195 -0.5127 -0.3678
  267SOL    HW1  800   2.799   0.223   3.016  0.4213 -0.1630 -1.3924
  267SOL    HW2  801   2.737   0.186   2.871 -1.3325 -0.6628 -1.3305
  268SOL     OW  802   0.390   0.453   2.864  0.3790  0.3003  0.0442
  268SOL    HW1  803   0.489   0.472   2.860  0.1609  1.5184 -3.9734
  268SOL    HW2  804   0.358   0.404   2.781  3.6144  2.5282 -1.5017
  269SOL     OW  805   1.683   0.398   2.586 -0.1222 -0.9825  0.0575
  269SOL    HW1  806   1.659   0.411   2.488  0.4630  0.3040 -3.6312
  269SOL    HW2  807   1.625   0.334   2.639 -1.0176 -0.7654 -0.5368
  270SOL     OW  808   1.007   0.849   2.459 -0.2047  0.5620 -0.3869
  270SOL    HW1  809   1.099   0.871   2.502  0.1401  1.6380  0.1241
  270SOL    HW2  810   0.939   0.834   2.533 -0.2534  0.3802 -0.3189
  271SOL     OW  811   2.690   0.794   0.045  0.0537  0.1596 -0.0992
  271SOL    HW1  812   2.696   0.863   3.083  0.6378 -1.1987 -0.5162
  271SOL    HW2  813   2.694   0.695   0.021 -0.3561 -0.1012  2.0595
  272SOL     OW  814   2.477   1.896   2.720 -0.4335 -0.4201 -0.6261
  272SOL    HW1  815   2.413   1.945   2.656  0.2971  1.5000  0.3691
  272SOL    HW2  816   2.445   1.800   2.730 -0.1101  1.2821  1.2873
  273SOL     OW  817   2.786   0.510   2.785 -0.1892 -0.7488  0.0524
  273SOL    HW1  818   2.775   0.407   2.783 -0.9710 -1.1714  0.5782
  273SOL    HW2  819   2.864   0.544   2.728 -0.8894  2.1089  0.7434
  274SOL     OW  820   3.040   3.021   1.420 -0.3987  0.1230  0.4451
  274SOL    HW1  821   3.011   2.933   1.462 -2.2566 -0.7413 -1.1439
  274SOL    HW2  822   2.967   3.088   1.401  0.9475  0.3238 -0.8858
  275SOL     OW  823   2.121   1.293   0.685 -0.3468  0.0503  0.1323
  275SOL    HW1  824   2.186   1.221   0.651 -1.1557  0.1761 -0.0551
  275SOL    HW2  825   2.024   1.276   0.655 -2.4142  0.6396 -0.6968
  276SOL     OW  826   0.205   1.349   2.698 -0.2652  0.2967  0.3465
  276SOL    HW1  827   0.301   1.337   2.712 -2.9353  2.7284 -1.2966
  276SOL    HW2  828   0.185   1.420   2.632 -1.5239 -0.7645  1.6076
  277SOL     OW  829   1.798   2.417   1.938 -0.2441  0.8156 -0.1931
  277SOL    HW1  830   1.700   2.433   1.932 -0.1454 -2.1335  4.5000
  277SOL    HW2  831   1.812   2.348   2.014 -2.3407  0.1237  0.0453
  278SOL     OW  832   2.097   0.224   1.337 -0.1016 -0.0393 -0.4814
  278SOL    HW1  833   2.066   0.156   1.407  4.3473 -0.3849 -0.3085
  278SOL    HW2  834   2.037   0.222   1.256  3.5180 -2.0441  1.0782
  279SOL     OW  835   1.256   1.270   2.871 -0.1254 -0.3731  0.3178
  279SOL    HW1  836   1.256   1.193   2.809 -2.0725  1.2996  2.1705
  279SOL    HW2  837   1.350   1.286   2.909 -2.6750 -0.8056  1.0706
  280SOL     OW  838   0.564   1.650   1.236 -0.0558 -0.6136 -0.9330
  280SOL    HW1  839   0.575   1.639   1.135 -0.8486  2.1904  1.7456
  280SOL    HW2  840   0.573   1.750   1.266 -1.9994  1.0149 -0.6997
  281SOL     OW  841   0.166   0.194   2.446  0.1011  0.3721  0.0241
  281SOL    HW1  842   0.189   0.164   2.350 -0.2253  2.5073 -0.4253
  281SOL    HW2  843   0.092   0.142   2.494 -0.3348  1.3793 -0.5302
  282SOL     OW  844   0.138   0.976   1.641  0.7680  0.2787  0.0388
  282SOL    HW1  845   0.070   1.054   1.628  1.6424  2.7960 -0.5924
  282SOL    HW2  846   0.166   0.954   1.548  2.6898  1.8107 -0.7697
  283SOL     OW  847   1.537   2.384   2.560  0.0782  0.3038 -0.3412
  283SOL    HW1  848   1.565   2.336   2.478 -2.4504  1.3359  1.0545
  283SOL    HW2  849   1.440   2.369   2.582  1.8214  2.3552 -0.7365
  284SOL     OW  850   1.826   1.149   0.150 -0.3981  0.2413 -0.1984
  284SOL    HW1  851   1.771   1.227   0.178  1.7571 -1.5765 -1.1416
  284SOL    HW2  852   1.801   1.121   0.055  0.0125  0.0863 -2.1610
  285SOL     OW  853   0.008   3.116   2.946  0.1327 -0.1825 -0.2995
  285SOL    HW1  854   3.066   0.032   3.025 -0.2052  0.7818  1.2607
  285SOL    HW2  855   0.090   0.061   2.928  0.7809 -0.6584 -0.1368
  286SOL     OW  856   2.026   2.779   1.479 -0.0059 -0.2863  0.4505
  286SOL    HW1  857   1.946   2.841   1.489 -0.5205 -3.1249  1.0409
  286SOL    HW2  858   2.109   2.838   1.493 -2.7169  0.7401 -0.5636
  287SOL     OW  859   0.738   0.907   1.387 -0.0151 -0.0259 -0.1291
  287SOL    HW1  860   0.668   0.836   1.373  2.2861  1.5827  2.1731
  287SOL    HW2  861   0.758   0.919   1.486 -1.4127  2.4019  1.5455
  288SOL     OW  862   1.501   2.675   0.156 -0.1850 -0.7184 -0.6428
  288SOL    HW1  863   1.539   2.647   0.067 -0.7402  0.9461  0.4743
  288SOL    HW2  864   1.413   2.627   0.172  0.1817 -1.9434  0.9865
  289SOL     OW  865   3.048   1.753   3.115 -0.2752 -0.2308  0.2968
  289SOL    HW1  866   3.043   1.855   3.098 -1.0605  1.0274  0.1140
  289SOL    HW2  867   2.953   1.713   3.105  0.9649 -2.7233 -1.2935
  290SOL     OW  868   1.093   2.609   0.679  0.9067  0.7024  0.4775
  290SOL    HW1  869   1.159   2.654   0.614  2.9605 -0.9346 -0.9842
  290SOL    HW2  870   1.126   2.522   0.720  0.4886  1.1140  0.2043
  291SOL     OW  871   2.077   2.112   0.203  0.0145 -0.1973  0.0873
  291SOL    HW1  872   2.129   2.174   0.143 -1.8622  1.7278 -0.5548
  291SOL    HW2  873   2.104   2.014   0.185  0.6620  0.1790 -0.6727
  292SOL     OW  874   0.892   1.291   2.010 -0.2615  0.1857  0.1534
  292SOL    HW1  875   0.940   1.204   2.037  1.4664  0.4215 -1.6851
  292SOL    HW2  876   0.828   1.275   1.931 -3.1077  1.1757  0.4651
  293SOL     OW  877   2.576   2.725   0.776 -0.1703  0.4772  0.0633
  293SOL    HW1  878   2.595   2.636   0.735 -0.4216  2.4763  3.3352
  293SOL    HW2  879   2.585   2.720   0.876 -1.5768 -1.2865 -3.1363
  294SOL     OW  880   3.077   0.636   2.353  0.0479 -0.1729  0.2062
  294SOL    HW1  881   3.092   0.736   2.363 -0.3834  1.9516 -1.2235
  294SOL    HW2  882   0.040   0.581   2.379  2.6694 -1.6719  0.8197
  295SOL     OW  883   1.022   1.884   0.176 -0.4664  0.1055 -0.6340
  295SOL    HW1  884   1.082   1.807   0.137 -1.0408  0.2197 -0.3729
  295SOL    HW2  885   1.082   1.946   0.228  0.4920  1.9793 -3.4426
  296SOL     OW  886   2.123   1.851   2.781 -0.1196 -0.3921 -0.4755
  296SOL    HW1  887   2.091   1.821   2.877 -0.9127 -1.5281  0.0750
  296SOL    HW2  888   2.164   1.770   2.733 -0.8977 -1.1289 -1.3897
  297SOL     OW  889   2.742   0.551   3.056  0.4607  0.1565 -0.3903
  297SOL    HW1  890   2.738   0.532   2.957  2.4999 -0.4055 -0.8758
  297SOL    HW2  891   2.679   0.484   3.104  3.3376 -0.2500  0.4357
  298SOL     OW  892   0.894   2.222   2.943  0.3070  0.3699 -0.4263
  298SOL    HW1  893   0.840   2.228   2.856 -1.8033  0.7365 -0.4142
  298SOL    HW2  894   0.845   2.272   3.017  1.3512  0.1745  3.5673
  299SOL     OW  895   1.422   2.915   2.477 -0.2011 -0.5018  0.0562
  299SOL    HW1  896   1.484   2.996   2.469 -1.3098  1.1709 -3.5846
  299SOL    HW2  897   1.403   2.897   2.577 -0.3820  1.3286 -0.5681
  300SOL     OW  898   2.754   0.363   0.493  0.2072 -0.2617  0.0023
  300SOL    HW1  899   2.695   0.442   0.522 -1.1695  0.5751 -0.4956
  300SOL    HW2  900   2.744   0.339   0.395 -2.3199 -1.3579  0.9029
  301SOL     OW  901   1.064   1.073   1.784 -0.0595 -0.3220 -0.3441
  301SOL    HW1  902   1.126   1.010   1.736  0.0946  1.2550  1.0730
  301SOL    HW2  903   0.983   1.103   1.730  2.8905  0.1293 -1.4135
  302SOL     OW  904   0.177   2.132   0.085  0.0985 -0.6423  0.2984
  302SOL    HW1  905   0.220   2.038   0.103 -2.4119  0.8482 -0.2970
  302SOL    HW2  906   0.078   2.121   0.094  0.9878 -0.2061 -1.0090
  303SOL     OW  907   0.015   0.002   2.555  0.0324  0.1121 -0.3102
  303SOL    HW1  908   3.072   3.114   2.637  1.1701 -2.1880  1.0001
  303SOL    HW2  909   3.096   3.077   2.471 -0.2043 -0.6704  1.5653
  304SOL     OW  910   2.593   0.621   1.757  0.6220 -0.4496  0.3470
  304SOL    HW1  911   2.658   0.697   1.769 -2.9614 -0.7019  2.0745
  304SOL    HW2  912   2.549   0.592   1.847 -1.8667  1.1666 -2.2108
  305SOL     OW  913   0.720   2.619   2.254 -0.2437  0.1397  0.5136
  305SOL    HW1  914   0.771   2.696   2.212 -0.9199  0.3348 -1.3659
  305SOL    HW2  915   0.748   2.609   2.352 -0.6846 -2.5184  0.1147
  306SOL     OW  916   2.540   1.211   1.473 -0.2488 -0.1542  0.5098
  306SOL    HW1  917   2.475   1.139   1.449  0.5622 -1.0648  2.3135
  306SOL    HW2  918   2.501   1.302   1.459  1.1191 -0.4338 -0.8576
  307SOL     OW  919   1.276   0.580   1.385  0.1060  0.6414 -0.6020
  307SOL    HW1  920   1.297   0.487   1.419 -1.4595  0.5731 -0.1080
  307SOL    HW2  921   1.273   0.568   1.281  1.1292  1.8360 -2.0240
  308SOL     OW  922   2.616   1.937   1.137 -0.1908 -0.4599  0.1155
  308SOL    HW1  923   2.634   2.038   1.152 -1.7396  1.6574 -2.1011
  308SOL    HW2  924   2.590   1.930   1.038  1.0680 -0.5252  1.4630
  309SOL     OW  925   2.280   1.592   1.375  0.4806 -0.4515  0.2907
  309SOL    HW1  926   2.310   1.684   1.339 -1.7987 -1.3604  1.1826
  309SOL    HW2  927   2.358   1.557   1.430  1.4405 -0.1205 -1.4941
  310SOL     OW  928   2.796   1.671   3.077 -0.3265 -0.1209 -0.5251
  310SOL    HW1  929   2.763   1.577   3.055 -1.4370  1.6519 -0.7280
  310SOL    HW2  930   2.738   1.741   3.035  0.7053 -0.1768  1.1191
  311SOL     OW  931   2.325   1.982   2.988  0.4059  0.4742 -0.0667
  311SOL    HW1  932   2.329   1.957   2.888 -0.3212  1.0705 -0.3516
  311SOL    HW2  933   2.418   1.997   3.030  2.0781 -1.8266 -1.0801
  312SOL     OW  934   2.371   1.830   1.273 -0.0838 -0.0371  0.6202
  312SOL    HW1  935   2.339   1.901   1.338 -0.2523  1.0001 -0.9899
  312SOL    HW2  936   2.471   1.843   1.242 -2.4553 -2.7990 -0.4475
  313SOL     OW  937   2.298   2.342   1.146 -0.7293  0.1313  0.2517
  313SOL    HW1  938   2.355   2.400   1.080 -0.3010  3.0323 -2.5456
  313SOL    HW2  939   2.340   2.323   1.232 -1.0816 -1.1523 -0.4667
  314SOL     OW  940   0.984   2.236   0.661 -0.6805 -0.3973 -0.4247
  314SOL    HW1  941   0.954   2.294   0.739 -2.8525  0.1421  0.0885
  314SOL    HW2  942   0.909   2.199   0.605 -0.4100  0.3647 -2.1572
  315SOL     OW  943   0.740   2.759   2.881 -0.3138  0.2963 -0.5145
  315SOL    HW1  944   0.709   2.675   2.836 -2.5378 -0.7420 -0.8856
  315SOL    HW2  945   0.828   2.784   2.833  0.7875  1.9085 -2.1134
  316SOL     OW  946   0.041   0.560   0.355  0.1298 -0.2467 -0.5802
  316SOL    HW1  947   3.067   0.559   0.308  0.7948  0.1133 -3.4337
  316SOL    HW2  948   0.119   0.577   0.292 -2.3285  2.6099  1.1783
  317SOL     OW  949   1.713   0.535   0.964 -0.1862  0.0777  0.1491
  317SOL    HW1  950   1.658   0.455   0.995  3.1582 -2.6778 -0.3840
  317SOL    HW2  951   1.664   0.621   0.973  0.8346 -4.1555  1.1339
  318SOL     OW  952   0.002   2.611   0.502  0.2946 -0.3499 -0.2142
  318SOL    HW1  953   3.087   2.693   0.445  0.2211  2.2746 -2.7272
  318SOL    HW2  954   3.042   2.544   0.500 -1.3780 -1.4469 -1.0432
  319SOL     OW  955   0.620   1.880   2.810  0.1379  0.2573 -0.1070
  319SOL    HW1  956   0.719   1.873   2.787  0.7306  0.1936 -1.8971
  319SOL    HW2  957   0.610   1.956   2.880  1.3756 -0.2042 -2.7785
  320SOL     OW  958   0.864   2.632   2.491  0.4955  0.1712  0.3886
  320SOL    HW1  959   0.927   2.711   2.478  1.4416 -0.7968 -1.7948
  320SOL    HW2  960   0.913   2.548   2.529 -1.1798 -0.9035  2.3671
  321SOL     OW  961   1.406   2.909   3.090  0.2200 -0.4558 -0.4631
  321SOL    HW1  962   1.401   2.851   0.054  0.4690 -0.5580 -2.4003
  321SOL    HW2  963   1.318   2.909   3.039  1.2120  0.2484  1.9842
  322SOL     OW  964   2.478   1.410   1.902 -0.1371  0.5602 -0.8337
  322SOL    HW1  965   2.560   1.469   1.882 -0.3416  1.1979 -2.2854
  322SOL    HW2  966   2.496   1.309   1.901 -0.1692  0.5827 -2.2908
  323SOL     OW  967   2.363   0.505   0.241  0.1154  0.1019 -0.3577
  323SOL    HW1  968   2.262   0.487   0.243  2.3306 -0.1034 -0.1916
  323SOL    HW2  969   2.388   0.561   0.322  1.3115  0.1079 -1.0688
  324SOL     OW  970   0.345   2.967   2.812 -0.5523 -0.8714  0.9361
  324SOL    HW1  971   0.289   3.043   2.851 -3.7053 -0.3543  0.6774
  324SOL    HW2  972   0.329   2.956   2.712  0.2123 -3.4186 -2.8288
  325SOL     OW  973   1.594   0.365   2.321 -0.1912  0.5521 -0.3831
  325SOL    HW1  974   1.666   0.297   2.342 -0.1696 -0.4562  1.4985
  325SOL    HW2  975   1.501   0.317   2.310 -2.6381 -1.1207  0.7077
  326SOL     OW  976   2.424   2.639   1.320  0.2325 -0.3837 -0.2563
  326SOL    HW1  977   2.404   2.545   1.358  0.8620 -0.0408  1.9321
  326SOL    HW2  978   2.360   2.671   1.248  0.5874  0.8585  0.0057
  327SOL     OW  979   1.593   0.231   2.930 -0.2535 -0.3147 -0.0884
  327SOL    HW1  980   1.580   0.152   2.991 -0.8310  0.6366  1.1124
  327SOL    HW2  981   1.660   0.299   2.964  1.8937 -0.2691  0.9774
  328SOL     OW  982   2.622   1.269   2.467  0.1768  0.0307 -0.2661
  328SOL    HW1  983   2.541   1.262   2.404  0.9469  1.2601 -0.9675
  328SOL    HW2  984   2.650   1.366   2.477 -4.9809  2.7557 -0.9545
  329SOL     OW  985   1.672   2.870   1.806  0.1264  0.4908 -0.3686
  329SOL    HW1  986   1.773   2.857   1.796 -2.9452 -0.7195  1.1365
  329SOL    HW2  987   1.617   2.787   1.786 -0.4554  0.6092 -1.0198
  330SOL     OW  988   2.478   1.488   1.519  0.4096 -0.1250  0.2294
  330SOL    HW1  989   2.407   1.456   1.583  0.6541  1.9922  0.5162
  330SOL    HW2  990   2.566   1.476   1.571 -0.8019  2.5714 -1.0362
  331SOL     OW  991   0.216   1.647   1.474 -0.2047 -0.3115  0.2052
  331SOL    HW1  992   0.196   1.694   1.387 -0.9525  0.6855 -1.1885
  331SOL    HW2  993   0.292   1.694   1.523  2.2924  2.0731  0.8277
  332SOL     OW  994   0.725   0.217   1.287 -0.2746 -0.1501 -0.1304
  332SOL    HW1  995   0.709   0.198   1.192  3.3765 -2.6494 -0.2713
  332SOL    HW2  996   0.654   0.182   1.350  0.9491  0.9117  0.6322
  333SOL     OW  997   2.016   2.557   2.094 -0.2962 -0.3140 -0.5484
  333SOL    HW1  998   1.938   2.508   2.054 -2.1397  0.1053  0.6823
  333SOL    HW2  999   1.988   2.660   2.114  0.6880  3.3174  2.2900
  334SOL     OW 1000   0.952   1.228   1.339 -0.6563 -0.9343  0.5598
  334SOL    HW1 1001   0.914   1.322   1.317  0.6669  2.8414  1.4082
  334SOL    HW2 1002   1.012   1.181   1.266 -0.7827 -1.2148  0.0272
  335SOL     OW 1003   1.173   2.899   2.953  0.7715 -0.1081 -0.6394
  335SOL    HW1 1004   1.128   2.993   2.980 -0.4876  0.8810  0.5731
  335SOL    HW2 1005   1.106   2.863   2.879 -1.0150  0.2582 -1.4072
  336SOL     OW 1006   2.973   2.716   2.144 -0.0383  0.5417 -0.1872
  336SOL    HW1 1007   3.010   2.803   2.115  0.4098 -3.2295  4.3334
  336SOL    HW2 1008   3.052   2.652   2.145 -1.2260  1.7934 -0.7713
  337SOL     OW 1009   2.437   1.634   0.525  0.1231  0.1584  0.0398
  337SOL    HW1 1010   2.418   1.538   0.521 -1.4208 -0.2724 -1.7753
  337SOL    HW2 1011   2.477   1.659   0.433  0.6362  1.0238 -2.2497
  338SOL     OW 1012   0.971   2.047   1.440 -0.2477 -0.3787 -0.1914
  338SOL    HW1 1013   1.035   1.992   1.385  3.9478 -0.2053  4.1825
  338SOL    HW2 1014   0.892   2.078   1.383 -0.0417  3.3664 -0.3517
  339SOL     OW 1015   0.037   0.899   2.372  0.0420  0.0541  0.0522
  339SOL    HW1 1016   0.084   0.906   2.462 -0.5131  1.0781  0.6638
  339SOL    HW2 1017   0.006   0.992   2.346 -1.0613 -2.9171  0.2682
  340SOL     OW 1018   1.612   2.775   1.285  0.1757  0.7069 -0.9162
  340SOL    HW1 1019   1.713   2.745   1.279  1.3694 -1.4348 -0.3031
  340SOL    HW2 1020   1.566   2.712   1.223  1.6589  2.4659 -0.0256
  341SOL     OW 1021   1.758   1.532   0.688  0.1256  0.5086  0.8451
  341SOL    HW1 1022   1.807   1.523   0.596  1.4061 -3.2031 -1.9029
  341SOL    HW2 1023   1.822   1.557   0.760 -1.1788 -0.9640  0.5862
  342SOL     OW 1024   0.286   1.222   0.944  0.0955  0.0873 -0.3845
  342SOL    HW1 1025   0.192   1.196   0.925  2.1472  0.6656 -2.4480
  342SOL    HW2 1026   0.290   1.321   0.925 -1.5060  0.4606  1.6261
  343SOL     OW 1027   2.343   0.447   1.313 -0.5550  0.4625 -0.7453
  343SOL    HW1 1028   2.382   0.468   1.403 -2.7935 -1.2026 -2.2770
  343SOL    HW2 1029   2.238   0.433   1.311 -2.2611 -0.6433 -0.8328
  344SOL     OW 1030   2.171   2.643   0.662  0.4204 -0.2228 -0.2011
  344SOL    HW1 1031   2.224   2.654   0.577 -1.0937 -0.5819  1.1441
  344SOL    HW2 1032   2.186   2.556   0.702 -0.1363  2.8383 -0.3265
  345SOL     OW 1033   0.016   2.432   2.771  0.1294  0.1630 -0.2288
  345SOL    HW1 1034   0.055   2.521   2.744 -1.3565  1.1179  1.0041
  345SOL    HW2 1035   0.074   2.355   2.738 -1.5031  2.3610  1.9324
  346SOL     OW 1036   3.002   0.898   0.499  0.1203 -0.0330  0.5018
  346SOL    HW1 1037   3.065   0.845   0.434 -0.5677 -1.6837 -2.4002
  346SOL    HW2 1038   2.943   0.948   0.442 -0.1842  2.3935  1.9465
  347SOL     OW 1039   1.875   2.707   1.270  0.0948  0.1076 -0.2204
  347SOL    HW1 1040   1.933   2.724   1.353 -0.2246 -2.4514 -0.3273
  347SOL    HW2 1041   1.934   2.735   1.188  0.1981  0.4891  0.0143
  348SOL     OW 1042   1.534   1.507   2.475 -0.7037  0.7244 -0.0815
  348SOL    HW1 1043   1.517   1.414   2.437 -1.7755 -2.3583 -3.7800
  348SOL    HW2 1044   1.633   1.526   2.475  4.2054 -2.4246  1.2171
  349SOL     OW 1045   2.437   1.263   2.293 -0.6217 -0.2136  0.1956
  349SOL    HW1 1046   2.370   1.321   2.244 -2.1612  0.5795 -0.0233
  349SOL    HW2 1047   2.452   1.170   2.254 -0.0548 -3.2860 -0.0753
  350SOL     OW 1048   0.314   1.944   0.953  0.5957  0.1235 -0.6705
  350SOL    HW1 1049   0.335   1.932   1.052 -0.6791  0.9719 -0.9588
  350SOL    HW2 1050   0.218   1.968   0.949  1.3888 -4.6093  1.0993
  351SOL     OW 1051   0.950   0.432   2.291 -0.2553 -0.2994  0.0680
  351SOL    HW1 1052   1.018   0.475   2.351 -0.5915 -0.7134  0.0882
  351SOL    HW2 1053   0.902   0.504   2.236  1.8489 -1.4672  0.3853
  352SOL     OW 1054   0.933   2.746   1.969 -0.0757 -0.2384  0.5383
  352SOL    HW1 1055   0.902   2.821   2.036 -0.9492  1.0345  2.4432
  352SOL    HW2 1056   0.926   2.771   1.868  0.8525 -0.3377  0.2454
  353SOL     OW 1057   0.584   1.454   2.397  0.1573 -0.5633 -0.2668
  353SOL    HW1 1058   0.608   1.429   2.300  3.5167  0.3155 -1.7376
  353SOL    HW2 1059   0.567   1.556   2.393  2.2843 -2.2872 -0.5543
  354SOL     OW 1060   1.875   1.181   0.585  0.4278  0.0985 -0.8173
  354SOL    HW1 1061   1.863   1.146   0.683  0.0131 -0.0885  0.5906
  354SOL    HW2 1062   1.791   1.153   0.537 -0.6412 -0.2383  1.3083
  355SOL     OW 1063   2.299   0.168   0.655 -0.1726  0.2318 -0.2101
  355SOL    HW1 1064   2.395   0.159   0.630  0.2548 -2.0344 -2.3211
  355SOL    HW2 1065   2.253   0.238   0.595  0.7970 -1.5186  0.3413
  356SOL     OW 1066   3.056   1.176   2.650 -0.2840 -0.3205  0.1945
  356SOL    HW1 1067   0.019   1.115   2.650 -1.0018  1.3616  0.7574
  356SOL    HW2 1068   3.082   1.270   2.618  0.7983 -0.4454  0.9493
  357SOL     OW 1069   3.034   2.788   1.553 -0.1485 -0.0107 -0.0055
  357SOL    HW1 1070   3.053   2.835   1.642  1.6294  1.0532  0.8927
  357SOL    HW2 1071   3.047   2.686   1.563  2.8208  1.0984  1.0952
  358SOL     OW 1072   2.981   1.455   2.746 -0.7112  0.1385  0.4709
  358SOL    HW1 1073   3.053   1.485   2.811  0.9933 -1.2784  2.7178
  358SOL    HW2 1074   2.906   1.416   2.800 -0.0143 -0.4551 -0.9142
  359SOL     OW 1075   2.647   2.529   2.667 -0.1016  0.5680 -0.0649
  359SOL    HW1 1076   2.724   2.583   2.710  0.6184  2.0693  0.9931
  359SOL    HW2 1077   2.570   2.590   2.646 -0.2546  0.6001 -1.6563
  360SOL     OW 1078   1.171   1.298   1.073  0.6796 -0.3381  0.7886
  360SOL    HW1 1079   1.206   1.208   1.101  2.0345  2.0203  0.3001
  360SOL    HW2 1080   1.099   1.293   1.004  1.8124 -2.7605 -0.0431
  361SOL     OW 1081   2.071   2.385   0.987 -0.4303  0.5986  0.7615
  361SOL    HW1 1082   2.155   2.385   1.045 -0.1898  1.3451  1.3989
  361SOL    HW2 1083   2.019   2.475   0.988 -1.7100  2.3455 -0.1003
  362SOL     OW 1084   1.702   1.245   1.019  0.2562  0.4307  0.2352
  362SOL    HW1 1085   1.743   1.315   1.080  2.1201  0.0798  1.4528
  362SOL    HW2 1086   1.599   1.253   1.013  2.5203 -0.2964 -0.1222
  363SOL     OW 1087   2.461   1.903   0.240 -0.0201 -0.2300  0.2273
  363SOL    HW1 1088   2.507   1.972   0.186  0.6241 -0.7898 -0.7690
  363SOL    HW2 1089   2.502   1.810   0.220  1.4016 -1.1253 -2.6179
  364SOL     OW 1090   2.177   2.941   1.696 -0.4420 -0.3203 -0.2360
  364SOL    HW1 1091   2.276   2.947   1.684 -0.1858  0.4833 -1.6439
  364SOL    HW2 1092   2.142   3.029   1.735 -1.5531  0.8122  2.5508
  365SOL     OW 1093   3.023   2.514   1.583 -0.0508 -0.5591  0.0386
  365SOL    HW1 1094   2.929   2.488   1.558  4.9585  3.6715  1.8961
  365SOL    HW2 1095   3.103   2.465   1.550  0.0696 -1.5345  0.4604
  366SOL     OW 1096   0.045   1.386   0.077 -0.0236 -0.3835  0.3889
  366SOL    HW1 1097   0.091   1.423   3.116  0.1842 -1.2729  0.3155
  366SOL    HW2 1098   0.039   1.286   0.073  0.7632 -0.7657  2.8885
  367SOL     OW 1099   2.449   2.723   2.948  0.1034 -0.3347 -0.2092
  367SOL    HW1 1100   2.403   2.660   2.882  0.3054  1.6367 -1.2159
  367SOL    HW2 1101   2.427   2.695   3.049 -1.2785 -0.2643  0.3528
  368SOL     OW 1102   0.110   1.760   1.261  0.0415  0.0495 -0.1221
  368SOL    HW1 1103   0.188   1.775   1.194 -2.1956 -0.3732 -0.7077
  368SOL    HW2 1104   0.017   1.760   1.217 -0.6987  0.0307  4.0508
  369SOL     OW 1105   0.609   0.405   0.620  0.2452  0.5531 -0.0446
  369SOL    HW1 1106   0.533   0.445   0.561 -1.3294 -1.7205  0.1372
  369SOL    HW2 1107   0.700   0.411   0.581  0.6608  2.3671  1.6612
  370SOL     OW 1108   0.597   0.385   0.880 -0.5998  1.0843  0.3775
  370SOL    HW1 1109   0.530   0.450   0.920  1.4596 -2.1635 -3.4392
  370SOL    HW2 1110   0.596   0.389   0.777  0.2714  0.9042 -0.8907
  371SOL     OW 1111   2.302   1.520   0.146  0.2183 -0.2956 -0.1093
  371SOL    HW1 1112   2.277   1.537   0.248 -1.6121  1.5935  1.5436
  371SOL    HW2 1113   2.399   1.491   0.130 -0.0434  2.0871  0.5683
  372SOL     OW 1114   0.190   0.974   2.614 -0.0162  0.5535 -0.9630
  372SOL    HW1 1115   0.122   0.963   2.688 -0.8331 -1.3839 -2.1367
  372SOL    HW2 1116   0.266   0.912   2.636 -1.9122  1.3415 -0.4565
  373SOL     OW 1117   2.979   1.080   0.078 -0.1808 -0.1475 -0.2746
  373SOL    HW1 1118   2.978   1.098   0.177 -0.1412 -0.8191  0.2177
  373SOL    HW2 1119   2.892   1.123   0.040 -0.4933  3.7464  0.2271
  374SOL     OW 1120   0.697   2.351   3.115  0.3850 -0.5766  0.0229
  374SOL    HW1 1121   0.597   2.337   0.010 -2.8085 -0.4336  1.2276
  374SOL    HW2 1122   0.708   2.450   0.014 -0.1532 -1.1409  2.0731
  375SOL     OW 1123   1.382   0.319   0.429  0.2065 -0.3658 -0.5560
  375SOL    HW1 1124   1.336   0.408   0.403 -0.7351  0.5782 -0.7444
  375SOL    HW2 1125   1.323   0.279   0.502  0.0396  0.7893 -0.1358
  376SOL     OW 1126   3.081   2.892   1.792  0.0256 -0.4617  0.2462
  376SOL    HW1 1127   3.057   2.854   1.882 -1.5835 -1.9522  0.0922
  376SOL    HW2 1128   0.064   2.894   1.771 -0.5279  2.9450 -1.6377
  377SOL     OW 1129   2.945   2.139   2.808  0.1861 -0.3862  0.3277
  377SOL    HW1 1130   2.959   2.241   2.800  1.5603  1.9414 -1.4685
  377SOL    HW2 1131   2.862   2.112   2.752  2.1025  0.7855  0.3034
  378SOL     OW 1132   1.599   0.830   0.555 -0.2350 -0.3622  0.1098
  378SOL    HW1 1133   1.531   0.754   0.530 -0.3131 -1.8042 -0.1954
  378SOL    HW2 1134   1.581   0.874   0.648 -0.8590  0.0299  2.0430
  379SOL     OW 1135   1.349   1.400   0.516  0.2814 -0.0189  0.1411
  379SOL    HW1 1136   1.272   1.433   0.578 -0.5256  1.2354  1.2777
  379SOL    HW2 1137   1.434   1.396   0.575 -0.9600  1.1782  0.3682
  380SOL     OW 1138   2.114   2.192   1.829  0.6231  0.3545  0.2856
  380SOL    HW1 1139   2.211   2.216   1.841  0.0140 -1.9991 -2.3559
  380SOL    HW2 1140   2.052   2.273   1.826  0.3563  1.5715  0.1368
  381SOL     OW 1141   2.889   1.017   2.100  0.2792  0.1674 -0.5256
  381SOL    HW1 1142   2.953   1.082   2.139 -2.6003 -0.4404 -0.9328
  381SOL    HW2 1143   2.828   1.048   2.023 -0.5592 -2.6473 -1.7425
  382SOL     OW 1144   3.039   2.522   0.027 -0.3956 -0.1323  0.7073
  382SOL    HW1 1145   2.996   2.490   3.057 -1.0375  0.1148  1.2194
  382SOL    HW2 1146   3.108   2.596   0.006 -0.0879  0.2301 -1.3295
  383SOL     OW 1147   1.600   1.213   2.160 -0.8030 -0.5264 -0.5387
  383SOL    HW1 1148   1.686   1.254   2.122 -0.2536  0.9784  1.2676
  383SOL    HW2 1149   1.529   1.208   2.085  0.1949  0.1876  0.6146
  384SOL     OW 1150   0.873   2.168   2.470  0.0295  0.2522 -0.3892
  384SOL    HW1 1151   0.877   2.165   2.368  0.1382 -0.6664 -1.5867
  384SOL    HW2 1152   0.916   2.083   2.506  0.6066  2.3502 -1.8635
  385SOL     OW 1153   2.491   2.067   0.555 -0.5785  0.1864 -0.2383
  385SOL    HW1 1154   2.469   2.158   0.514 -1.8340 -0.1411 -2.7959
  385SOL    HW2 1155   2.406   2.012   0.579 -0.6587  0.7189  1.9727
  386SOL     OW 1156   1.373   1.149   0.404  0.5146 -0.1131 -0.4170
  386SOL    HW1 1157   1.345   1.228   0.463  0.3395  0.5500 -1.5524
  386SOL    HW2 1158   1.313   1.066   0.424  1.2669 -0.0600  0.3841
  387SOL     OW 1159   2.776   0.565   1.436 -0.4266 -0.4294  0.0792
  387SOL    HW1 1160   2.833   0.644   1.474  1.3341  1.4306 -1.9372
  387SOL    HW2 1161   2.815   0.474   1.462 -0.7722  1.8576 -1.5323
  388SOL     OW 1162   2.770   0.979   1.290 -0.1911  0.1295  0.0687
  388SOL    HW1 1163   2.842   0.917   1.254 -2.4456  5.1238  0.0932
  388SOL    HW2 1164   2.808   1.060   1.346 -2.0329  2.0681  0.5748
  389SOL     OW 1165   1.896   1.275   2.453  0.3240  0.0111 -0.0898
  389SOL    HW1 1166   1.897   1.250   2.551  2.4973 -2.7083  0.1605
  389SOL    HW2 1167   1.864   1.369   2.433 -0.6739  0.0297  0.8979
  390SOL     OW 1168   1.837   2.483   0.395  0.3182  0.0055  0.1022
  390SOL    HW1 1169   1.869   2.390   0.430 -0.8279  4.2925  2.0342
  390SOL    HW2 1170   1.778   2.459   0.312  0.3599  0.4566 -1.4362
  391SOL     OW 1171   1.200   2.284   1.092 -0.1274 -0.0863  0.7185
  391SOL    HW1 1172   1.159   2.191   1.085 -1.4568 -0.9962 -2.6492
  391SOL    HW2 1173   1.289   2.286   1.141 -0.0533  3.0082  0.3529
  392SOL     OW 1174   2.476   2.889   1.436 -0.1846 -0.3385  0.0105
  392SOL    HW1 1175   2.480   2.788   1.412  0.9214 -4.0602  0.1313
  392SOL    HW2 1176   2.568   2.931   1.433 -2.3365  0.5589 -1.1468
  393SOL     OW 1177   1.930   2.534   2.410  0.7224  1.2482 -0.6390
  393SOL    HW1 1178   1.943   2.542   2.307  1.4132 -0.2280  0.7252
  393SOL    HW2 1179   1.842   2.570   2.443  1.2579  0.4567  0.0061
  394SOL     OW 1180   0.455   2.902   2.487 -0.1897  0.3240  0.3168
  394SOL    HW1 1181   0.470   2.895   2.386 -1.5232  0.8884 -0.1676
  394SOL    HW2 1182   0.361   2.870   2.509  2.5023 -1.1813  2.3816
  395SOL     OW 1183   0.300   1.002   1.344 -0.3832 -0.5398 -0.6285
  395SOL    HW1 1184   0.377   1.025   1.278 -0.9212  0.3642 -2.7091
  395SOL    HW2 1185   0.213   1.034   1.301 -1.9261 -0.6900  0.7580
  396SOL     OW 1186   2.169   1.067   2.547  0.1599 -0.0039 -0.6354
  396SOL    HW1 1187   2.233   1.107   2.481 -1.1483  0.2722  1.0373
  396SOL    HW2 1188   2.217   1.046   2.632  0.0948 -0.3399 -0.5118
  397SOL     OW 1189   2.987   0.605   2.624 -0.0190  0.2078 -0.4795
  397SOL    HW1 1190   3.085   0.634   2.642  0.6717  1.5501 -0.4133
  397SOL    HW2 1191   2.985   0.583   2.524  0.7950 -0.1719  1.9985
  398SOL     OW 1192   1.839   2.921   0.087  0.3460  0.2722  0.2235
  398SOL    HW1 1193   1.885   2.941   0.171 -1.5189  1.8676  0.0021
  398SOL    HW2 1194   1.741   2.902   0.104  0.0024  0.2712 -0.4226
  399SOL     OW 1195   2.258   2.402   2.112  0.1868 -0.1969  0.3370
  399SOL    HW1 1196   2.337   2.466   2.113 -0.9455 -0.3384 -0.2401
  399SOL    HW2 1197   2.169   2.454   2.085 -0.2950 -0.0159  0.2505
  400SOL     OW 1198   0.156   2.173   2.204  0.1188 -0.4602 -0.1682
  400SOL    HW1 1199   0.100   2.121   2.139 -0.5229 -0.7521 -3.0563
  400SOL    HW2 1200   0.187   2.261   2.157 -0.6968 -0.0530  0.6594
  401SOL     OW 1201   0.549   0.788   0.487  0.0154 -0.4063  0.3812
  401SOL    HW1 1202   0.500   0.702   0.470  2.8813  1.2702 -0.8810
  401SOL    HW2 1203   0.481   0.865   0.507 -3.0137  1.4113  0.9233
  402SOL     OW 1204   0.835   2.877   2.196 -0.6619 -0.1428  0.0448
  402SOL    HW1 1205   0.877   2.928   2.274 -0.5089 -0.3155  0.5010
  402SOL    HW2 1206   0.752   2.923   2.156  1.0646 -1.7625 -1.6516
  403SOL     OW 1207   0.105   1.459   2.078 -0.0917  0.1989 -0.2607
  403SOL    HW1 1208   0.164   1.396   2.132 -0.1025  1.2589 -2.3339
  403SOL    HW2 1209   0.023   1.491   2.130 -0.9190  0.1952  0.8155
  404SOL     OW 1210   2.847   2.187   2.434 -0.1147  0.1804 -0.0682
  404SOL    HW1 1211   2.941   2.184   2.477  1.2306  0.0756 -0.6765
  404SOL    HW2 1212   2.776   2.152   2.500  2.6618  0.8945 -4.9206
  405SOL     OW 1213   2.321   0.094   2.528 -0.2014 -0.0889  0.2609
  405SOL    HW1 1214   2.233   0.097   2.578 -0.2483 -3.0931 -0.4593
  405SOL    HW2 1215   2.308   0.075   2.428  1.5300 -1.4095 -2.2137
  406SOL     OW 1216   1.564   2.510   0.581  0.1975 -0.1367  0.4131
  406SOL    HW1 1217   1.492   2.487   0.511 -0.5055  2.1814  0.7287
  406SOL    HW2 1218   1.656   2.519   0.542  0.3640  0.6405 -2.5611
  407SOL     OW 1219   1.671   1.362   0.229  0.3362 -0.5054 -0.1347
  407SOL    HW1 1220   1.654   1.432   0.154 -0.9865  3.0432 -2.8510
  407SOL    HW2 1221   1.588   1.350   0.286  0.5887  0.4859  0.9060
  408SOL     OW 1222   0.087   0.871   2.091  0.0096 -0.1149  0.4019
  408SOL    HW1 1223   0.000   0.855   2.041  0.5002 -2.8042  1.9381
  408SOL    HW2 1224   0.075   0.880   2.192 -0.3710  0.2418  1.0345
  409SOL     OW 1225   2.814   1.256   2.829 -0.0577  0.0115 -0.6317
  409SOL    HW1 1226   2.884   1.234   2.758 -0.5824 -0.3307 -2.2663
  409SOL    HW2 1227   2.815   1.197   2.915 -1.2291 -1.4593  2.9102
  410SOL     OW 1228   2.934   1.558   1.095  0.6132  0.1799 -0.1539
  410SOL    HW1 1229   2.873   1.599   1.029  0.6998  0.9191  3.6326
  410SOL    HW2 1230   2.896   1.465   1.120  2.0627  0.6803 -1.0252
  411SOL     OW 1231   2.897   0.628   0.338  0.2937  0.8654 -0.1872
  411SOL    HW1 1232   2.894   0.580   0.429 -0.3789 -0.7672  0.4497
  411SOL    HW2 1233   2.830   0.704   0.337 -0.6405 -2.6623 -1.1566
  412SOL     OW 1234   1.772   0.202   0.263  0.3462 -0.2113 -0.2813
  412SOL    HW1 1235   1.821   0.141   0.330 -0.4282 -0.6964  1.1053
  412SOL    HW2 1236   1.843   0.241   0.197  0.6645 -1.5409  0.4424
  413SOL     OW 1237   1.234   0.197   1.964  0.1867  0.7912 -0.5477
  413SOL    HW1 1238   1.284   0.270   2.020  1.8848  1.0128  2.0725
  413SOL    HW2 1239   1.301   0.147   1.901  0.2388 -1.6505 -0.4664
  414SOL     OW 1240   0.518   1.022   0.129 -0.1572 -0.0661 -0.4283
  414SOL    HW1 1241   0.473   1.089   0.192 -0.9512  1.9269  0.1399
  414SOL    HW2 1242   0.600   0.980   0.174  0.2745 -2.3280 -1.2932
  415SOL     OW 1243   2.997   1.170   0.350 -0.2571 -0.0473 -0.4431
  415SOL    HW1 1244   2.960   1.265   0.333  0.6353 -0.9412  1.8345
  415SOL    HW2 1245   3.084   1.175   0.400 -1.0885 -2.2188  1.7233
  416SOL     OW 1246   2.431   0.757   0.129 -0.0135  0.2768  0.2588
  416SOL    HW1 1247   2.404   0.661   0.157  1.5464 -1.0949 -2.2106
  416SOL    HW2 1248   2.527   0.756   0.100  0.3532 -0.3772  1.2172
  417SOL     OW 1249   2.839   2.645   0.148  0.4003  0.6999 -0.0878
  417SOL    HW1 1250   2.783   2.692   0.078 -0.4875 -0.9411 -0.3280
  417SOL    HW2 1251   2.913   2.590   0.108  2.2234 -1.3498  0.3399
  418SOL     OW 1252   2.975   0.568   0.095  0.4915  0.3500  0.8047
  418SOL    HW1 1253   2.929   0.600   0.181 -0.9612  0.9214 -0.8266
  418SOL    HW2 1254   2.904   0.552   0.023  1.8154  1.5283 -5.6015
  419SOL     OW 1255   0.672   0.693   0.746  0.3348 -0.0945  0.3598
  419SOL    HW1 1256   0.642   0.601   0.766  1.1667 -0.6941 -1.0886
  419SOL    HW2 1257   0.596   0.763   0.736 -0.6070 -0.4420  0.1528
  420SOL     OW 1258   0.388   0.841   0.815  0.1974 -0.0331  0.2472
  420SOL    HW1 1259   0.287   0.834   0.812  1.5249 -0.9566 -1.3214
  420SOL    HW2 1260   0.414   0.828   0.914 -1.7421 -0.3224 -0.1681
  421SOL     OW 1261   0.291   1.875   0.544  0.1407 -0.6781  0.8434
  421SOL    HW1 1262   0.353   1.901   0.468  0.1686 -1.5382  0.8305
  421SOL    HW2 1263   0.215   1.940   0.543  1.4437  0.2314  1.9350
  422SOL     OW 1264   2.455   0.218   1.657 -0.1755  0.0346 -0.3014
  422SOL    HW1 1265   2.431   0.165   1.737 -4.0964  1.5305 -4.0223
  422SOL    HW2 1266   2.369   0.259   1.619 -0.1260  0.9328  2.9194
  423SOL     OW 1267   1.867   1.769   0.083 -0.1450 -0.5876  0.0331
  423SOL    HW1 1268   1.853   1.764   0.188  0.1967  0.7294 -0.1913
  423SOL    HW2 1269   1.960   1.739   0.056 -0.7687 -0.4319  0.9438
  424SOL     OW 1270   1.808   1.762   2.700  0.3373  0.3028 -0.0191
  424SOL    HW1 1271   1.860   1.800   2.622 -0.2915 -1.1873 -0.1467
  424SOL    HW2 1272   1.864   1.725   2.775 -2.8406  2.2559 -0.1695
  425SOL     OW 1273   0.342   3.069   1.946  0.2536  0.3698  0.4589
  425SOL    HW1 1274   0.283   3.034   1.870  0.5280  3.2384 -2.8799
  425SOL    HW2 1275   0.337   0.054   1.940  3.1956 -0.1471  1.7867
  426SOL     OW 1276   2.190   2.857   0.089  0.1306 -0.2030  0.0868
  426SOL    HW1 1277   2.123   2.867   0.166  1.3012  1.0846 -0.4256
  426SOL    HW2 1278   2.147   2.840   3.113  0.2844 -3.6113 -2.2159
  427SOL     OW 1279   0.477   1.713   2.414 -0.0926  0.4013  0.0064
  427SOL    HW1 1280   0.509   1.782   2.346  3.6857 -0.4567  0.0778
  427SOL    HW2 1281   0.386   1.675   2.379 -3.2920  0.4543 -0.9009
  428SOL     OW 1282   2.083   1.574   2.565  0.6504  0.0822 -0.6378
  428SOL    HW1 1283   2.178   1.574   2.532  2.0844  0.7153 -0.5196
  428SOL    HW2 1284   2.072   1.510   2.645  0.9052  0.3480 -0.8244
  429SOL     OW 1285   2.247   2.974   0.490  0.3816  0.5267 -0.6892
  429SOL    HW1 1286   2.288   2.999   0.583  2.0118  1.1545  0.7667
  429SOL    HW2 1287   2.317   2.923   0.440  2.9537 -0.2742  0.3345
  430SOL     OW 1288   1.709   1.826   2.087 -0.1599 -0.2540 -0.1389
  430SOL    HW1 1289   1.632   1.865   2.028 -2.2799  0.4932 -1.5232
  430SOL    HW2 1290   1.793   1.879   2.076 -1.9011  2.4886 -2.4044
  431SOL     OW 1291   0.001   1.804   1.970 -0.5909 -0.3553 -0.2023
  431SOL    HW1 1292   3.032   1.790   1.922  2.0362 -1.7734  1.7494
  431SOL    HW2 1293   0.072   1.755   1.924 -3.1630  1.1271  1.6987
  432SOL     OW 1294   1.237   2.411   2.308  0.2062 -0.1090 -0.3058
  432SOL    HW1 1295   1.142   2.445   2.291  2.8845 -2.7680 -0.1590
  432SOL    HW2 1296   1.249   2.312   2.276 -1.1385 -2.1981 -0.4080
  433SOL     OW 1297   0.999   2.782   0.842  0.7816  0.5613  0.1313
  433SOL    HW1 1298   1.028   2.706   0.777  2.3244  0.9980  1.6651
  433SOL    HW2 1299   1.011   2.871   0.792  1.5463 -0.3154  0.4933
  434SOL     OW 1300   0.358   2.226   2.356  0.3487  0.4481  0.1191
  434SOL    HW1 1301   0.267   2.185   2.334  0.0267  0.4079 -1.0593
  434SOL    HW2 1302   0.417   2.215   2.275 -0.9532  0.7228  1.9410
  435SOL     OW 1303   0.423   1.562   0.574 -0.0492  0.2472  0.1230
  435SOL    HW1 1304   0.362   1.586   0.494  1.4770 -0.6091  1.2993
  435SOL    HW2 1305   0.413   1.628   0.651 -1.3159 -1.1938 -2.6656
  436SOL     OW 1306   0.678   2.089   1.966 -0.5543  0.2853 -0.1109
  436SOL    HW1 1307   0.625   2.047   1.891 -2.4332 -0.9881 -0.1373
  436SOL    HW2 1308   0.778   2.091   1.942  1.2530 -0.6465 -0.7624
  437SOL     OW 1309   1.027   0.588   0.431  0.4050  0.3299 -0.0933
  437SOL    HW1 1310   1.024   0.643   0.517 -1.2446  0.6006 -0.3512
  437SOL    HW2 1311   1.123   0.580   0.392  0.7418  0.3122  0.0206
  438SOL     OW 1312   0.468   2.138   0.851  0.3424  0.5622  0.0998
  438SOL    HW1 1313   0.407   2.063   0.879  0.8789  0.5354 -0.4067
  438SOL    HW2 1314   0.554   2.099   0.804  0.7280  0.1603 -0.3194
  439SOL     OW 1315   1.301   2.258   1.778 -0.5767  0.3648 -0.4139
  439SOL    HW1 1316   1.246   2.208   1.706 -0.1039  1.0177 -1.1124
  439SOL    HW2 1317   1.373   2.323   1.747 -0.1797 -1.7107 -0.3274
  440SOL     OW 1318   1.542   0.233   1.365 -0.5430  0.4354  0.2277
  440SOL    HW1 1319   1.544   0.250   1.465 -0.6231  0.0750 -2.7504
  440SOL    HW2 1320   1.630   0.261   1.316  0.9824 -0.0181 -0.5280
  441SOL     OW 1321   0.505   0.017   1.418  0.0755  0.3816 -0.1256
  441SOL    HW1 1322   0.475   0.027   1.516  2.3116  0.0485 -0.4109
  441SOL    HW2 1323   0.544   3.041   1.407 -0.6097  0.1844 -2.2942
  442SOL     OW 1324   2.077   1.912   0.632 -0.2548 -0.3436  0.2509
  442SOL    HW1 1325   1.987   1.864   0.615 -0.4649  2.4795 -1.9580
  442SOL    HW2 1326   2.106   1.966   0.551 -1.9051  0.2577 -1.1267
  443SOL     OW 1327   2.676   0.324   2.484  0.5135  0.0682 -0.1628
  443SOL    HW1 1328   2.579   0.320   2.524 -1.7002  0.6073 -0.5886
  443SOL    HW2 1329   2.682   0.381   2.400  0.5812  1.4009  1.3904
  444SOL     OW 1330   2.028   1.490   2.286 -0.2281  0.1620 -0.6921
  444SOL    HW1 1331   2.006   1.517   2.381  1.3935 -3.1012  1.4880
  444SOL    HW2 1332   2.065   1.399   2.288  0.6364  1.2155  0.3341
  445SOL     OW 1333   2.617   2.072   1.465 -0.3720  0.4898  0.0300
  445SOL    HW1 1334   2.561   2.121   1.532  0.3213 -1.0997  2.4572
  445SOL    HW2 1335   2.676   2.004   1.511  0.4852 -2.6012  2.5475
  446SOL     OW 1336   0.147   0.848   0.390  0.3377  0.1503 -0.3423
  446SOL    HW1 1337   0.196   0.904   0.462 -1.8223 -0.8674  0.8544
  446SOL    HW2 1338   0.171   0.877   0.295 -0.7836 -0.9961 -1.3058
  447SOL     OW 1339   0.587   1.614   0.953  0.2055  0.5982  0.5013
  447SOL    HW1 1340   0.669   1.566   0.930 -1.7100  1.4631 -2.7614
  447SOL    HW2 1341   0.546   1.659   0.872  0.8004 -0.6430 -0.7079
  448SOL     OW 1342   1.408   1.203   1.990  0.3386 -0.1902 -0.2595
  448SOL    HW1 1343   1.357   1.201   1.902  0.7917  0.2271  0.4685
  448SOL    HW2 1344   1.357   1.162   2.069  2.3807  1.9461 -2.2194
  449SOL     OW 1345   0.241   1.885   0.106 -0.1499  0.3751  0.4399
  449SOL    HW1 1346   0.224   1.796   0.152 -1.2719  3.0903 -1.7538
  449SOL    HW2 1347   0.262   1.870   0.005 -1.5996 -0.4132 -0.0819
  450SOL     OW 1348   2.633   2.188   2.032  0.5610 -0.2406 -0.1962
  450SOL    HW1 1349   2.533   2.208   2.016 -1.7598 -1.7804 -0.9345
  450SOL    HW2 1350   2.668   2.229   2.117  0.9387 -0.0003  1.2287
  451SOL     OW 1351   2.079   0.364   2.085 -0.0728 -0.2318  0.7704
  451SOL    HW1 1352   2.063   0.347   2.184 -1.4787  0.6087 -2.7535
  451SOL    HW2 1353   1.992   0.353   2.032  2.2796  0.7298  1.6688
  452SOL     OW 1354   1.159   0.011   1.321  0.2015 -0.6440  0.2229
  452SOL    HW1 1355   1.139   3.026   1.309 -1.8955 -2.6817  0.8353
  452SOL    HW2 1356   1.078   0.061   1.351  0.4961 -0.2378 -0.7724
  453SOL     OW 1357   0.805   1.422   1.209  0.2008 -0.0773 -0.0289
  453SOL    HW1 1358   0.883   1.472   1.170  0.1955 -1.2030 -0.0413
  453SOL    HW2 1359   0.740   1.485   1.251 -1.3763 -2.7993  0.8437
  454SOL     OW 1360   0.033   1.071   0.670 -0.5573  0.3044  0.2600
  454SOL    HW1 1361   3.087   1.008   0.623  1.1641  0.7350  0.5913
  454SOL    HW2 1362   0.091   1.118   0.601 -2.8357  2.3638  2.5268
  455SOL     OW 1363   3.021   2.789   0.331  0.2207 -0.7919  0.2719
  455SOL    HW1 1364   2.979   2.725   0.264 -0.8171 -1.4788  0.4354
  455SOL    HW2 1365   3.096   2.838   0.279  0.5795  1.1812 -3.1151
  456SOL     OW 1366   2.202   2.403   0.755  0.5229  0.4619 -0.0132
  456SOL    HW1 1367   2.142   2.386   0.835 -0.4643 -0.7081 -1.1881
  456SOL    HW2 1368   2.170   2.338   0.681 -1.6366 -0.7382  1.0523
  457SOL     OW 1369   1.493   0.148   0.237  0.0801  0.1620 -0.0702
  457SOL    HW1 1370   1.586   0.178   0.216  0.2975 -1.7386 -1.6689
  457SOL    HW2 1371   1.439   0.228   0.276  1.0686  2.6222  0.2693
  458SOL     OW 1372   2.708   2.607   0.380  0.5146 -0.4898 -0.8566
  458SOL    HW1 1373   2.709   2.696   0.426 -1.1864 -0.9869  1.1596
  458SOL    HW2 1374   2.752   2.620   0.287 -1.0217  1.2105 -0.9059
  459SOL     OW 1375   2.094   0.115   2.667  0.2514 -0.0767 -0.6584
  459SOL    HW1 1376   2.052   0.204   2.653 -3.2219  1.8096  4.4240
  459SOL    HW2 1377   2.119   0.102   2.765  1.0249 -0.3227 -0.9101
  460SOL     OW 1378   2.954   0.102   0.033  0.2468  0.2519  0.1938
  460SOL    HW1 1379   2.989   0.129   0.125  0.1737  1.7071  1.8136
  460SOL    HW2 1380   2.870   0.042   0.040 -3.9580 -0.3118  0.3378
  461SOL     OW 1381   0.604   1.506   1.457 -0.5995 -0.6366 -0.0152
  461SOL    HW1 1382   0.538   1.429   1.478 -1.7455 -1.8608 -0.2642
  461SOL    HW2 1383   0.574   1.565   1.384 -1.1606 -1.7231 -0.2416
  462SOL     OW 1384   2.741   2.908   1.738 -0.4391  0.3797 -0.3004
  462SOL    HW1 1385   2.749   2.815   1.781 -0.4894 -2.8792  1.6708
  462SOL    HW2 1386   2.789   2.977   1.795  0.3413 -0.4943  0.4414
  463SOL     OW 1387   2.747   1.167   3.083  0.5910 -0.1305 -0.0511
  463SOL    HW1 1388   2.678   1.168   0.038 -0.6361  1.7978 -1.5958
  463SOL    HW2 1389   2.748   1.075   3.038  2.2664 -2.9886 -0.2148
  464SOL     OW 1390   0.079   2.489   1.158  0.1265  0.1259 -0.2866
  464SOL    HW1 1391   0.140   2.406   1.179 -0.6986 -0.2394 -0.0782
  464SOL    HW2 1392   0.112   2.577   1.194 -0.0546  0.7736 -1.7446
  465SOL     OW 1393   0.350   0.967   0.582  0.2506 -0.1139 -0.1676
  465SOL    HW1 1394   0.358   1.070   0.583 -0.9720  0.3305  1.8317
  465SOL    HW2 1395   0.359   0.931   0.677 -0.4503  3.0218  3.3961
  466SOL     OW 1396   1.353   0.219   2.296  0.3906 -0.7685 -0.6958
  466SOL    HW1 1397   1.387   0.134   2.247  1.0513  0.7572  2.6665
  466SOL    HW2 1398   1.283   0.195   2.370  1.7483  1.0384  0.8982
  467SOL     OW 1399   0.770   0.641   2.230 -0.1357 -0.9660 -0.3126
  467SOL    HW1 1400   0.705   0.573   2.195 -1.3052 -1.5516  0.4827
  467SOL    HW2 1401   0.724   0.718   2.285 -0.3926 -1.4022  1.6321
  468SOL     OW 1402   3.115   1.161   2.302 -0.1355 -0.1355  0.0261
  468SOL    HW1 1403   3.081   1.248   2.266 -0.8301 -0.4305  0.0189
  468SOL    HW2 1404   0.093   1.182   2.339 -0.0808 -1.3190  2.7623
  469SOL     OW 1405   0.382   1.741   0.772  0.0049 -0.2828 -0.1546
  469SOL    HW1 1406   0.348   1.788   0.686  0.0466 -0.1222 -2.1087
  469SOL    HW2 1407   0.373   1.796   0.860  0.7315 -3.2428 -0.4280
  470SOL     OW 1408   2.764   1.746   2.436 -0.5136 -0.3756  0.4291
  470SOL    HW1 1409   2.772   1.789   2.527  0.9669  0.2664  0.3475
  470SOL    HW2 1410   2.679   1.780   2.394  1.7959  2.8926 -0.3692
  471SOL     OW 1411   1.640   0.818   2.178 -0.0948 -0.2865 -0.2259
  471SOL    HW1 1412   1.728   0.810   2.122 -0.5631  0.4692  1.1088
  471SOL    HW2 1413   1.654   0.884   2.245  0.9102 -5.2172 -3.4396
  472SOL     OW 1414   0.851   2.764   1.239 -0.8891  0.1353  0.2913
  472SOL    HW1 1415   0.858   2.664   1.262  0.7635  2.4248 -0.0642
  472SOL    HW2 1416   0.824   2.789   1.147  1.2709  0.0197 -0.3083
  473SOL     OW 1417   0.596   0.265   2.620 -0.1825  0.2001  0.6845
  473SOL    HW1 1418   0.635   0.322   2.545  1.6767  1.2779 -3.1384
  473SOL    HW2 1419   0.604   0.162   2.607 -1.0281  0.4914 -0.6471
  474SOL     OW 1420   1.770   3.077   1.248 -0.2452  0.1815 -0.0842
  474SOL    HW1 1421   1.808   0.040   1.197 -0.2430 -1.8626  1.5662
  474SOL    HW2 1422   1.686   3.044   1.199 -1.0442 -1.2801 -0.4357
  475SOL     OW 1423   2.076   0.301   0.931 -0.0204 -0.7424 -0.4796
  475SOL    HW1 1424   2.051   0.404   0.930 -1.0984  0.1132 -0.8520
  475SOL    HW2 1425   2.176   0.292   0.936 -0.3119 -2.1913  0.0660
  476SOL     OW 1426   0.466   0.825   1.097  0.1735 -0.2389  0.0317
  476SOL    HW1 1427   0.446   0.929   1.089  0.7344  2.3980 -2.8831
  476SOL    HW2 1428   0.525   0.797   1.177  0.8596  1.6908 -1.3163
  477SOL     OW 1429   1.252   2.715   0.467 -1.0167 -0.1223 -0.5000
  477SOL    HW1 1430   1.213   2.715   0.370  1.8095 -1.2214  1.8798
  477SOL    HW2 1431   1.244   2.805   0.510  2.1941 -2.8113 -0.4543
  478SOL     OW 1432   0.366   2.510   2.506 -0.5521  0.3741  0.7451
  478SOL    HW1 1433   0.455   2.563   2.518  0.5951  0.5020  2.1682
  478SOL    HW2 1434   0.374   2.433   2.443  0.2792 -1.4452 -0.3743
  479SOL     OW 1435   2.646   0.254   1.186 -0.1728  0.4982 -0.2217
  479SOL    HW1 1436   2.576   0.216   1.248  2.0929 -1.7246  0.5807
  479SOL    HW2 1437   2.618   0.233   1.088 -0.7876  1.0647 -2.4975
  480SOL     OW 1438   0.516   2.481   0.525  0.1161 -0.4975  0.0595
  480SOL    HW1 1439   0.564   2.419   0.462 -0.5748  0.6099 -0.3124
  480SOL    HW2 1440   0.431   2.511   0.486  1.2805  0.2028  2.1861
  481SOL     OW 1441   2.032   2.048   1.348  0.4750  0.5330 -0.3997
  481SOL    HW1 1442   1.982   2.050   1.437  0.4548 -0.4863  1.6470
  481SOL    HW2 1443   2.001   2.128   1.287 -0.9752  1.7042 -3.0735
  482SOL     OW 1444   1.233   2.389   2.976  0.3232 -0.0403 -0.0747
  482SOL    HW1 1445   1.328   2.348   2.982  1.0192  0.1998  1.3408
  482SOL    HW2 1446   1.166   2.333   3.031  0.5566 -0.0053  2.1398
  483SOL     OW 1447   1.059   2.285   2.024  0.8240  0.5744  0.3663
  483SOL    HW1 1448   1.094   2.380   2.023  0.0043 -1.2530  0.2821
  483SOL    HW2 1449   1.023   2.249   1.934 -1.0970 -1.0493 -1.5196
  484SOL     OW 1450   1.185   0.800   1.529 -0.1705  0.0588 -0.0695
  484SOL    HW1 1451   1.214   0.708   1.483 -0.2377 -0.6691 -6.5778
  484SOL    HW2 1452   1.199   0.877   1.461 -1.5496  0.2787  0.4327
  485SOL     OW 1453   1.679   0.596   2.775  0.0384 -0.2407  0.2975
  485SOL    HW1 1454   1.762   0.654   2.767 -1.6259 -0.6656 -0.5999
  485SOL    HW2 1455   1.675   0.514   2.710 -2.0318 -0.1086  0.1474
  486SOL     OW 1456   2.288   2.707   1.044 -0.0512 -0.5791  0.1188
  486SOL    HW1 1457   2.326   2.631   0.986 -0.2258 -2.8740 -0.5065
  486SOL    HW2 1458   2.358   2.780   1.070 -0.2852 -3.5972  0.8910
  487SOL     OW 1459   0.665   2.277   1.273  0.0197 -0.5932 -0.4214
  487SOL    HW1 1460   0.734   2.350   1.280 -1.8993 -0.5125 -2.1552
  487SOL    HW2 1461   0.622   2.249   1.367  0.5686  0.8652  1.2331
  488SOL     OW 1462   2.228   1.911   0.106 -0.2147  0.4169 -0.4557
  488SOL    HW1 1463   2.304   1.899   0.170 -1.5618  2.0833 -3.2144
  488SOL    HW2 1464   2.260   1.937   0.011 -0.2882  0.1492  1.5544
  489SOL     OW 1465   1.952   3.005   0.973 -0.9762  0.0139 -0.0339
  489SOL    HW1 1466   2.004   2.976   0.889 -0.8430 -0.8598  1.3918
  489SOL    HW2 1467   1.992   2.948   1.052 -0.9700 -0.4264 -1.5158
  490SOL     OW 1468   0.904   1.645   0.290 -0.3698 -0.4545  0.3130
  490SOL    HW1 1469   0.953   1.719   0.235 -0.9112  2.5216  1.0498
  490SOL    HW2 1470   0.809   1.673   0.321  1.5433  1.1373 -0.9253
  491SOL     OW 1471   0.172   2.010   1.453  0.0562 -0.4803  0.5020
  491SOL    HW1 1472   0.080   2.057   1.440 -0.3681 -2.5718  0.2428
  491SOL    HW2 1473   0.235   2.074   1.506  0.8974  2.5962 -0.0229
  492SOL     OW 1474   0.814   1.702   1.858 -0.1313 -0.2109 -0.3375
  492SOL    HW1 1475   0.824   1.634   1.781 -0.6327 -0.7740  0.8709
  492SOL    HW2 1476   0.803   1.789   1.815  1.1160 -3.1018  1.7506
  493SOL     OW 1477   2.775   2.201   0.928  0.1070 -0.3366 -0.5716
  493SOL    HW1 1478   2.757   2.152   0.841  0.6843  1.1558  2.5508
  493SOL    HW2 1479   2.836   2.152   0.990 -2.2040 -0.8272 -1.8733
  494SOL     OW 1480   2.732   2.041   0.701  0.3164  0.3318 -0.3012
  494SOL    HW1 1481   2.657   2.053   0.639 -1.6726  0.7265  1.5837
  494SOL    HW2 1482   2.756   1.940   0.695  0.5973  0.5116  0.6405
  495SOL     OW 1483   2.730   2.801   3.066  0.2667  0.0185  0.4591
  495SOL    HW1 1484   2.646   2.769   3.014 -0.8083 -0.2483 -1.4994
  495SOL    HW2 1485   2.716   2.898   3.097  2.3112  1.4485  1.5364
  496SOL     OW 1486   2.490   2.876   1.119  0.1671  0.0108  0.0541
  496SOL    HW1 1487   2.467   2.956   1.176 -1.1913  1.6189 -0.6877
  496SOL    HW2 1488   2.592   2.863   1.116  3.0792  1.7028  3.5193
  497SOL     OW 1489   2.550   1.228   2.737  0.4200  0.4257 -0.4243
  497SOL    HW1 1490   2.631   1.226   2.800  1.7852 -0.2843 -0.0872
  497SOL    HW2 1491   2.573   1.234   2.639 -0.7340 -0.9685  2.0395
  498SOL     OW 1492   2.971   2.025   1.101 -0.4486  0.4712  0.4992
  498SOL    HW1 1493   2.976   2.111   1.159 -0.2837 -0.0483 -0.1987
  498SOL    HW2 1494   2.930   1.946   1.152  2.1563  1.6355 -1.4548
  499SOL     OW 1495   0.971   2.403   2.581 -0.4720  0.2720  0.1373
  499SOL    HW1 1496   0.927   2.329   2.525  1.4164  0.6599 -2.4220
  499SOL    HW2 1497   1.062   2.385   2.613 -2.7565 -0.3265 -0.6652
  500SOL     OW 1498   1.626   1.097   0.515 -0.9844 -0.2613 -0.1466
  500SOL    HW1 1499   1.548   1.121   0.459 -1.0315  0.4355 -1.5619
  500SOL    HW2 1500   1.622   0.997   0.531  0.3889 -0.7972  0.6764
  501SOL     OW 1501   1.611   0.255   1.637  0.3895  0.2822 -0.0324
  501SOL    HW1 1502   1.569   0.186   1.697  3.6455  0.0206 -1.3080
  501SOL    HW2 1503   1.714   0.266   1.664  5.9334  0.8138  1.6698
  502SOL     OW 1504   2.509   0.615   1.495 -0.3034  0.2452 -0.1918
  502SOL    HW1 1505   2.601   0.609   1.450 -2.7932 -0.0140  1.7879
  502SOL    HW2 1506   2.506   0.617   1.596  0.2370 -3.2330 -2.2710
  503SOL     OW 1507   2.327   1.634   2.202 -0.3084 -0.7421 -0.1798
  503SOL    HW1 1508   2.229   1.630   2.172  0.3355 -0.3693 -0.2994
  503SOL    HW2 1509   2.383   1.575   2.146 -0.6067  0.7705  0.4670
  504SOL     OW 1510   1.227   1.297   1.800 -0.2902  0.2580  0.1696
  504SOL    HW1 1511   1.304   1.277   1.735  0.5619  2.0725  0.4554
  504SOL    HW2 1512   1.160   1.220   1.798  1.3377 -1.0114 -0.0773
  505SOL     OW 1513   0.452   0.438   1.582 -0.2683  0.2975  0.4812
  505SOL    HW1 1514   0.368   0.470   1.533 -1.6479 -1.7642 -1.6498
  505SOL    HW2 1515   0.465   0.491   1.671 -0.2407 -1.0053  1.4785
  506SOL     OW 1516   0.308   0.425   0.002  0.9357  0.2941  0.2183
  506SOL    HW1 1517   0.211   0.395   3.105  1.2086 -0.4558 -2.2855
  506SOL    HW2 1518   0.340   0.423   3.024  1.5692  1.6566 -0.0224
  507SOL     OW 1519   0.819   0.076   0.036 -0.0853 -0.1312  0.0343
  507SOL    HW1 1520   0.745   0.082   3.081 -1.6617  0.4907  0.2053
  507SOL    HW2 1521   0.798   0.154   0.096 -0.6998 -0.1579 -2.1026
  508SOL     OW 1522   0.907   0.585   1.908 -0.2854  0.0331  0.0849
  508SOL    HW1 1523   0.821   0.576   1.960  0.1217  0.6513 -0.3807
  508SOL    HW2 1524   0.972   0.654   1.957  2.9897  3.2457  0.0840
  509SOL     OW 1525   1.506   2.213   1.119  0.2180  0.3573  0.3792
  509SOL    HW1 1526   1.545   2.196   1.214 -2.5572 -0.4651 -0.8542
  509SOL    HW2 1527   1.548   2.290   1.068  0.0963  0.3686  0.8174
  510SOL     OW 1528   2.793   1.259   1.419  0.4029  0.0623  0.0518
  510SOL    HW1 1529   2.690   1.256   1.433  2.8655  1.0788 -1.7451
  510SOL    HW2 1530   2.814   1.287   1.320  1.3207  0.3336 -4.0549
  511SOL     OW 1531   1.237   1.967   1.260  0.2421 -0.3615  0.1564
  511SOL    HW1 1532   1.329   2.000   1.292  0.0123  1.1032 -1.2677
  511SOL    HW2 1533   1.200   2.001   1.170 -2.6397  1.5410 -2.1138
  512SOL     OW 1534   2.868   1.415   0.361 -0.3456  0.1995 -0.3084
  512SOL    HW1 1535   2.781   1.385   0.403  2.8967  1.0940  0.3371
  512SOL    HW2 1536   2.854   1.504   0.303 -1.6975 -1.5631  1.1117
  513SOL     OW 1537   0.056   1.560   2.939  0.3249  0.2664  0.5584
  513SOL    HW1 1538   0.080   1.635   2.876 -1.4567  0.1907  1.1783
  513SOL    HW2 1539   0.003   1.603   3.013 -0.5170 -2.7694 -0.6174
  514SOL     OW 1540   2.294   2.265   2.708  0.1749 -0.3519 -0.2943
  514SOL    HW1 1541   2.216   2.202   2.693  2.3984 -0.2720 -2.6517
  514SOL    HW2 1542   2.346   2.270   2.626 -1.7039 -0.0188  3.0731
  515SOL     OW 1543   2.393   0.862   0.555 -0.3540  0.0643 -0.2784
  515SOL    HW1 1544   2.378   0.843   0.654 -0.9246 -2.7540 -0.3313
  515SOL    HW2 1545   2.392   0.767   0.512 -0.1777 -0.0927  0.6661
  516SOL     OW 1546   2.706   2.326   0.218 -0.3560 -0.0040  0.6224
  516SOL    HW1 1547   2.612   2.354   0.200  1.1891  1.0222  1.1504
  516SOL    HW2 1548   2.747   2.283   0.135  0.3351  0.8981  2.0327
  517SOL     OW 1549   0.564   1.616   2.847  0.1832 -0.4325 -0.2315
  517SOL    HW1 1550   0.600   1.707   2.814  2.0009  2.9371 -0.5462
  517SOL    HW2 1551   0.486   1.627   2.916 -0.5264  1.1342 -0.3483
  518SOL     OW 1552   2.839   0.125   2.328 -0.0866 -0.1038  0.5041
  518SOL    HW1 1553   2.808   0.209   2.374  3.5090 -1.4253  0.0722
  518SOL    HW2 1554   2.786   0.045   2.358  1.3913  2.6326 -1.0744
  519SOL     OW 1555   1.699   1.083   2.985 -0.3425 -0.0398 -0.2520
  519SOL    HW1 1556   1.617   1.020   3.001  0.2401  0.6435  1.6493
  519SOL    HW2 1557   1.662   1.175   2.956 -1.3465 -0.8759  1.6904
  520SOL     OW 1558   2.981   2.921   2.417  0.2058  0.3384  0.0849
  520SOL    HW1 1559   2.889   2.957   2.434  0.9025  0.2120  1.8511
  520SOL    HW2 1560   2.967   2.818   2.426  2.2514  1.2374 -0.9829
  521SOL     OW 1561   0.604   1.909   2.221 -0.0927  0.4223  0.4542
  521SOL    HW1 1562   0.697   1.864   2.221  1.0615 -1.2817  0.0317
  521SOL    HW2 1563   0.617   2.012   2.218  0.2785 -0.5988  2.1166
  522SOL     OW 1564   1.183   2.966   2.073 -0.1180 -0.1092 -0.1040
  522SOL    HW1 1565   1.192   2.919   2.167  1.5545  0.1201  2.5047
  522SOL    HW2 1566   1.234   2.913   1.999 -0.0770 -0.0157 -0.5757
  523SOL     OW 1567   2.270   2.110   0.968  0.6047 -0.5398  0.5659
  523SOL    HW1 1568   2.355   2.055   0.960 -1.0229 -0.3618 -0.4276
  523SOL    HW2 1569   2.277   2.183   1.040 -1.9326 -1.4316 -1.0546
  524SOL     OW 1570   1.265   2.140   0.806 -0.2033 -0.1857 -0.2047
  524SOL    HW1 1571   1.360   2.166   0.778  0.2001  0.6933  0.9856
  524SOL    HW2 1572   1.209   2.225   0.813 -3.0533 -2.8760  0.6341
  525SOL     OW 1573   2.682   0.596   0.626  0.4324 -0.3108  0.0523
  525SOL    HW1 1574   2.664   0.555   0.723 -1.4194 -0.1762  4.3189
  525SOL    HW2 1575   2.754   0.668   0.632 -1.1402  0.1784  3.1330
  526SOL     OW 1576   1.731   2.999   0.599 -0.2212  0.3346  0.7741
  526SOL    HW1 1577   1.678   2.916   0.581 -1.3152  0.2467 -1.7499
  526SOL    HW2 1578   1.725   3.026   0.697 -1.4836 -0.3553 -0.1469
  527SOL     OW 1579   1.915   1.582   1.013  0.2856  0.3270  0.0868
  527SOL    HW1 1580   1.950   1.673   1.039 -2.3342 -2.0243 -0.2883
  527SOL    HW2 1581   1.993   1.518   0.999 -0.3449 -1.3316  1.2289
  528SOL     OW 1582   2.928   2.669   2.501 -0.4943 -0.2523 -0.1082
  528SOL    HW1 1583   2.980   2.585   2.478 -1.8863  0.4101  2.1432
  528SOL    HW2 1584   2.926   2.694   2.602  1.5725  0.7239  1.5492
  529SOL     OW 1585   1.159   1.400   2.498 -0.7141  0.3264  0.1460
  529SOL    HW1 1586   1.208   1.445   2.576 -0.9345 -1.9375 -1.9536
  529SOL    HW2 1587   1.067   1.371   2.532 -1.4827 -1.4958  0.7767
  530SOL     OW 1588   2.088   1.205   2.272  0.0129 -0.3081 -0.0455
  530SOL    HW1 1589   2.012   1.213   2.335  2.7156  1.4033 -0.2309
  530SOL    HW2 1590   2.050   1.164   2.185 -0.6789 -1.5704 -0.5113
  531SOL     OW 1591   0.395   0.832   3.114 -0.3358  0.3481  0.5272
  531SOL    HW1 1592   0.447   0.902   0.051  2.8457 -1.4025  0.8345
  531SOL    HW2 1593   0.323   0.879   3.054 -1.7638 -0.3326 -0.0178
  532SOL     OW 1594   1.807   1.087   0.839  0.7850 -0.4217 -0.0409
  532SOL    HW1 1595   1.733   1.025   0.825 -0.8444 -0.6796 -0.0681
  532SOL    HW2 1596   1.769   1.164   0.901 -0.7665  0.2862  2.0989
  533SOL     OW 1597   0.191   0.473   2.389  0.3737  0.1681 -0.3416
  533SOL    HW1 1598   0.169   0.375   2.414 -1.7697 -2.1582  3.1758
  533SOL    HW2 1599   0.288   0.487   2.386 -0.0209  1.2958  0.4155
  534SOL     OW 1600   1.089   0.586   2.458  0.2563 -0.5743  0.1243
  534SOL    HW1 1601   1.061   0.551   2.549 -0.6810 -0.0687 -2.1375
  534SOL    HW2 1602   1.059   0.682   2.442 -0.6750  0.7623  0.4630
  535SOL     OW 1603   0.559   0.510   0.141  0.0333 -0.0222 -0.1555
  535SOL    HW1 1604   0.611   0.600   0.140 -1.0143  0.3912 -2.6170
  535SOL    HW2 1605   0.470   0.531   0.099 -0.6741 -0.8931  0.8748
  536SOL     OW 1606   0.698   0.896   2.769 -0.2113 -0.6947 -0.0469
  536SOL    HW1 1607   0.738   0.973   2.717 -2.2949 -1.6435  1.6173
  536SOL    HW2 1608   0.736   0.884   2.864  0.3330 -2.1681 -0.8667
  537SOL     OW 1609   1.416   3.111   1.530  0.1847  0.0858 -0.2228
  537SOL    HW1 1610   1.319   0.005   1.505  0.0616 -0.2564  3.0122
  537SOL    HW2 1611   1.480   0.039   1.467 -0.9203 -0.7256 -0.1849
  538SOL     OW 1612   0.469   2.580   0.077  0.0807 -0.4278 -0.3513
  538SOL    HW1 1613   0.444   2.617   3.101  1.6366 -1.0050 -0.2138
  538SOL    HW2 1614   0.452   2.482   0.078  1.6923  0.8506 -0.2580
  539SOL     OW 1615   2.893   1.307   1.806 -0.4880 -0.5268 -0.0977
  539SOL    HW1 1616   2.977   1.315   1.748 -0.9808 -0.4978  0.9065
  539SOL    HW2 1617   2.890   1.382   1.876  0.0342  0.1909 -0.2399
  540SOL     OW 1618   1.765   1.488   1.526 -0.5141  0.6630 -0.8468
  540SOL    HW1 1619   1.836   1.414   1.498 -2.0679  0.5541  0.0946
  540SOL    HW2 1620   1.676   1.460   1.489 -0.6343  3.7220  2.3858
  541SOL     OW 1621   0.572   2.189   1.514 -0.4427  0.2988  0.7019
  541SOL    HW1 1622   0.481   2.226   1.539  1.0362 -0.8794  0.8872
  541SOL    HW2 1623   0.567   2.088   1.533  1.1615  0.2183 -0.3265
  542SOL     OW 1624   2.012   1.094   1.988  0.9645 -0.6212  0.0456
  542SOL    HW1 1625   1.946   1.141   1.920 -2.7045  1.4062 -1.8879
  542SOL    HW2 1626   2.028   0.998   1.960 -3.1384  0.9855  1.0760
  543SOL     OW 1627   0.998   0.639   0.698  0.3174 -0.1185  0.1532
  543SOL    HW1 1628   0.948   0.722   0.678 -0.3924  0.6696 -1.0108
  543SOL    HW2 1629   0.942   0.576   0.757 -0.8880 -0.4617 -1.0338
  544SOL     OW 1630   1.814   1.740   1.660  0.1755 -0.1110  0.2422
  544SOL    HW1 1631   1.893   1.792   1.622 -0.4776 -3.6394  3.2531
  544SOL    HW2 1632   1.816   1.651   1.618 -0.2265  0.8480  1.7978
  545SOL     OW 1633   1.545   1.560   1.168  0.1334 -0.6971  0.3274
  545SOL    HW1 1634   1.572   1.659   1.184 -0.1437 -1.3767 -0.9298
  545SOL    HW2 1635   1.624   1.505   1.194 -1.0615  2.2228 -0.2823
  546SOL     OW 1636   0.219   0.146   2.902 -0.8835 -0.1575 -0.1335
  546SOL    HW1 1637   0.239   0.203   2.821  1.8739  0.9850  1.2166
  546SOL    HW2 1638   0.288   0.157   2.972  1.0680 -0.1314 -2.7589
  547SOL     OW 1639   2.306   0.594   2.961 -0.7503  0.2815  0.0688
  547SOL    HW1 1640   2.230   0.641   3.015 -1.4302 -2.2239  0.5803
  547SOL    HW2 1641   2.308   0.499   3.002  0.4336 -1.9409  0.2028
  548SOL     OW 1642   2.232   2.198   2.312 -0.0183 -0.0261  0.3220
  548SOL    HW1 1643   2.134   2.214   2.342 -1.8757  2.7846 -0.1076
  548SOL    HW2 1644   2.249   2.259   2.230  0.1648  0.8639 -2.1027
  549SOL     OW 1645   2.375   2.918   0.744 -0.3962  0.1435 -0.1402
  549SOL    HW1 1646   2.449   2.848   0.749 -1.8254 -0.0770 -0.3987
  549SOL    HW2 1647   2.284   2.879   0.769 -1.5961  1.1731 -1.4464
  550SOL     OW 1648   2.209   1.329   3.044 -0.1613 -0.2406  0.0606
  550SOL    HW1 1649   2.184   1.229   3.046 -1.8203  0.0097  0.8236
  550SOL    HW2 1650   2.217   1.364   0.018 -1.0947  1.7261 -0.2194
  551SOL     OW 1651   1.438   0.103   1.772  0.4240  0.1096 -0.5331
  551SOL    HW1 1652   1.490   0.046   1.841 -0.1593  1.4327  2.7781
  551SOL    HW2 1653   1.431   0.053   1.687  1.1093 -0.2920  0.1526
  552SOL     OW 1654   2.900   2.449   2.910  0.5698 -0.0498  0.5192
  552SOL    HW1 1655   2.990   2.452   2.865  1.8112  3.2140  1.8132
  552SOL    HW2 1656   2.849   2.534   2.915 -1.9190  0.5692 -0.3367
  553SOL     OW 1657   0.596   0.138   0.652  0.1577 -0.2003 -0.0569
  553SOL    HW1 1658   0.519   0.124   0.712  1.2682  0.4738 -2.7583
  553SOL    HW2 1659   0.601   0.244   0.647 -0.4132  1.3872  0.7478
  554SOL     OW 1660   1.949   2.080   1.622  0.4472  0.3462 -0.0578
  554SOL    HW1 1661   1.868   2.066   1.681  2.2498 -0.3852 -0.0634
  554SOL    HW2 1662   2.026   2.120   1.672  0.4523 -0.6780 -0.6542
  555SOL     OW 1663   1.376   1.944   1.695  0.5937 -0.1384  0.5860
  555SOL    HW1 1664   1.439   1.971   1.763 -3.0256  0.2256 -0.7821
  555SOL    HW2 1665   1.350   2.031   1.645 -0.8311  0.5292 -3.7135
  556SOL     OW 1666   1.857   1.425   0.451  0.0003 -0.1687  0.2142
  556SOL    HW1 1667   1.896   1.347   0.503 -1.4472 -1.0535 -1.8894
  556SOL    HW2 1668   1.827   1.389   0.359  1.8988  0.4258 -1.0098
  557SOL     OW 1669   1.295   2.068   1.991 -0.0302 -0.1527  0.0404
  557SOL    HW1 1670   1.258   2.131   1.914 -0.8667  0.3549 -0.2812
  557SOL    HW2 1671   1.288   2.117   2.077 -1.1014 -0.0632 -3.9631
  558SOL     OW 1672   0.027   0.324   1.976  0.5364  0.1260  0.1002
  558SOL    HW1 1673   0.056   0.424   1.962 -0.2273  2.4609  4.4341
  558SOL    HW2 1674   0.106   0.261   1.962  2.2538  2.7718  0.1897
  559SOL     OW 1675   2.495   2.681   1.746 -0.3476  0.0938  0.1574
  559SOL    HW1 1676   2.409   2.722   1.718  1.6505  0.0381 -4.0726
  559SOL    HW2 1677   2.534   2.715   1.834 -2.3891 -0.1730  0.6503
  560SOL     OW 1678   0.591   0.116   2.981  0.2247 -0.2186  0.1597
  560SOL    HW1 1679   0.608   0.028   2.927 -0.5291 -0.5454 -1.2464
  560SOL    HW2 1680   0.506   0.110   3.042  2.4730  0.5147  0.3362
  561SOL     OW 1681   1.245   0.921   0.466 -0.1570  0.1404  0.4149
  561SOL    HW1 1682   1.185   0.952   0.541  2.0221  0.7994  1.0188
  561SOL    HW2 1683   1.320   0.862   0.503  2.4089 -1.8556  0.4658
  562SOL     OW 1684   0.839   1.041   2.343  0.3868  0.4229 -0.2398
  562SOL    HW1 1685   0.841   1.099   2.430  2.3658 -2.1074 -0.6575
  562SOL    HW2 1686   0.910   0.969   2.344 -0.3473  0.2518  0.5225
  563SOL     OW 1687   1.697   2.391   2.783  0.6483  0.4878 -0.5593
  563SOL    HW1 1688   1.668   2.374   2.686  0.6474  0.1601 -2.1498
  563SOL    HW2 1689   1.671   2.487   2.794  0.0553 -1.6284  0.3396
  564SOL     OW 1690   2.840   1.678   0.256  0.2563 -0.0736 -0.0984
  564SOL    HW1 1691   2.911   1.733   0.305  0.1468 -0.0006 -1.3404
  564SOL    HW2 1692   2.829   1.706   0.157  0.1827 -1.3939 -1.8758
  565SOL     OW 1693   1.508   2.917   2.834 -0.0344 -0.7136  0.2078
  565SOL    HW1 1694   1.418   2.891   2.788  1.6356  0.1333 -0.8422
  565SOL    HW2 1695   1.504   2.906   2.937 -2.2770 -0.5878  1.0765
  566SOL     OW 1696   2.050   2.944   2.380 -0.1241  0.1517 -0.5070
  566SOL    HW1 1697   2.084   2.858   2.414 -2.4346 -0.3124 -3.1896
  566SOL    HW2 1698   1.998   2.999   2.450 -1.5073  0.8592  0.7550
  567SOL     OW 1699   2.428   1.238   0.840 -0.4779 -0.2474 -0.1767
  567SOL    HW1 1700   2.439   1.196   0.935 -0.3991 -0.2681  2.4410
  567SOL    HW2 1701   2.360   1.315   0.853  1.7297 -0.7767 -0.0520
  568SOL     OW 1702   2.047   1.374   2.769  0.0859 -0.4071  0.2001
  568SOL    HW1 1703   1.995   1.285   2.752 -0.6449 -0.1854  0.1735
  568SOL    HW2 1704   2.099   1.364   2.856  0.8704 -2.1097 -0.5753
  569SOL     OW 1705   2.336   1.989   2.505 -0.6382  0.6150 -0.5222
  569SOL    HW1 1706   2.372   2.076   2.462 -1.6908 -0.2239  2.0720
  569SOL    HW2 1707   2.238   1.996   2.515 -0.3043  0.3246  0.8716
  570SOL     OW 1708   3.074   2.510   1.986  0.2209  0.3487 -0.7967
  570SOL    HW1 1709   3.001   2.446   1.956  0.2984  2.8030 -1.2518
  570SOL    HW2 1710   0.042   2.495   1.936 -0.8438  0.4591 -0.6286
  571SOL     OW 1711   0.515   0.080   2.253  0.3472 -0.2666  0.1755
  571SOL    HW1 1712   0.532   0.043   2.345 -0.6030 -0.3095  0.7474
  571SOL    HW2 1713   0.543   0.016   2.178  0.1697  1.4245 -2.4350
  572SOL     OW 1714   1.136   1.748   0.972 -0.1002  0.4174  0.5462
  572SOL    HW1 1715   1.109   1.683   1.050  1.2684 -1.7704  2.3155
  572SOL    HW2 1716   1.090   1.715   0.887 -0.0697 -1.2372 -0.8126
  573SOL     OW 1717   1.216   0.392   0.090 -0.5085  0.1488 -0.3284
  573SOL    HW1 1718   1.118   0.380   0.061 -1.1948 -1.4939  2.3694
  573SOL    HW2 1719   1.280   0.381   0.014  0.0630  1.3863 -0.1635
  574SOL     OW 1720   0.576   0.042   0.384  0.4821  0.7800 -0.2771
  574SOL    HW1 1721   0.612   0.108   0.313 -0.2205  0.0662  0.7148
  574SOL    HW2 1722   0.578   0.082   0.476  3.2594  3.9071 -2.7463
  575SOL     OW 1723   0.119   1.390   1.574 -0.0359 -0.1918 -0.4160
  575SOL    HW1 1724   0.093   1.423   1.666 -1.7592  0.0200 -1.1028
  575SOL    HW2 1725   0.152   1.471   1.520  1.0234  1.5241 -0.7183
  576SOL     OW 1726   2.201   0.124   1.774 -0.2745  0.0480  0.2702
  576SOL    HW1 1727   2.179   0.189   1.698 -1.9468 -1.5443 -0.9026
  576SOL    HW2 1728   2.242   0.169   1.851 -1.6292  0.7238 -2.5714
  577SOL     OW 1729   2.874   1.519   1.980 -0.4132 -0.8976 -0.2358
  577SOL    HW1 1730   2.788   1.565   1.956 -0.8582 -0.9585  0.1003
  577SOL    HW2 1731   2.956   1.564   1.933  0.9262  1.4344 -1.6426
  578SOL     OW 1732   1.404   3.102   2.175 -0.5493  0.4200  0.4981
  578SOL    HW1 1733   1.321   3.071   2.128 -0.0574  1.0744  0.0677
  578SOL    HW2 1734   1.434   3.036   2.246  0.3989 -1.9100 -1.6510
  579SOL     OW 1735   1.944   1.955   2.096  0.2271 -0.2077 -0.2099
  579SOL    HW1 1736   1.977   1.923   2.006  0.9390 -2.6176 -1.4578
  579SOL    HW2 1737   2.017   1.945   2.168 -0.4832 -1.8657  1.6948
  580SOL     OW 1738   1.841   1.348   2.105 -0.2179  0.0850 -0.3391
  580SOL    HW1 1739   1.931   1.360   2.065 -1.8882  0.8119  3.1204
  580SOL    HW2 1740   1.829   1.412   2.179  0.8034 -1.5885 -1.6804
  581SOL     OW 1741   1.573   1.229   2.420  0.1477 -0.2382 -0.3606
  581SOL    HW1 1742   1.603   1.240   2.324 -0.7219 -2.8659  0.2742
  581SOL    HW2 1743   1.645   1.236   2.486 -0.0158  2.2960  2.0489
  582SOL     OW 1744   0.004   2.063   2.013  0.3407  0.2508 -0.3266
  582SOL    HW1 1745   0.024   1.961   1.993  2.7750 -0.3275 -0.3867
  582SOL    HW2 1746   3.036   2.066   2.074  0.2744  0.8880 -2.0670
  583SOL     OW 1747   1.576   0.931   0.818 -0.2227 -0.3744  0.3143
  583SOL    HW1 1748   1.489   0.978   0.803  1.7911  0.3788  1.9928
  583SOL    HW2 1749   1.574   0.880   0.901  1.9529  2.5585  0.1144
  584SOL     OW 1750   0.919   2.475   0.418 -0.1290 -0.4708 -0.0988
  584SOL    HW1 1751   0.916   2.495   0.518 -0.5020  0.1407  0.3888
  584SOL    HW2 1752   0.849   2.526   0.360 -0.1288  0.5790  2.1205
  585SOL     OW 1753   0.095   2.725   0.002 -0.2719 -0.3973 -0.0186
  585SOL    HW1 1754   0.098   2.796   0.076  0.7878 -0.9551  1.0418
  585SOL    HW2 1755   0.187   2.694   3.092 -0.1321  1.1728 -0.9067
  586SOL     OW 1756   2.328   1.124   0.619 -0.5331  0.3691 -0.7765
  586SOL    HW1 1757   2.364   1.030   0.604 -1.8769 -1.7083 -0.1143
  586SOL    HW2 1758   2.377   1.169   0.699  0.4338  0.0965  0.3537
  587SOL     OW 1759   0.569   1.467   0.260 -0.4731 -0.4335  0.4786
  587SOL    HW1 1760   0.517   1.413   0.330 -1.7248  0.6869  0.8261
  587SOL    HW2 1761   0.640   1.409   0.216 -2.2391  2.1093  0.6480
  588SOL     OW 1762   0.257   0.289   0.691  0.2177  0.0712  0.4613
  588SOL    HW1 1763   0.198   0.291   0.605 -0.6198 -0.0641  0.9254
  588SOL    HW2 1764   0.280   0.383   0.712  0.6919 -2.1911 -0.2798
  589SOL     OW 1765   1.218   3.102   0.815 -0.6560  0.3733  0.1638
  589SOL    HW1 1766   1.117   3.109   0.834 -0.1876  1.3962 -0.1100
  589SOL    HW2 1767   1.253   0.066   0.770 -1.4132 -2.0112  1.4860
  590SOL     OW 1768   2.455   2.317   0.454  0.2118  0.8380 -0.7744
  590SOL    HW1 1769   2.523   2.362   0.516  0.5317  1.6470 -0.3848
  590SOL    HW2 1770   2.462   2.352   0.357 -3.3499  0.9507  0.5515
  591SOL     OW 1771   0.279   2.421   2.123  0.1788  0.2536  0.3621
  591SOL    HW1 1772   0.233   2.478   2.190  1.0997 -1.4147 -0.5589
  591SOL    HW2 1773   0.378   2.447   2.120  0.9848 -1.2776  1.8736
  592SOL     OW 1774   0.123   1.929   2.498 -0.3878 -0.0226  0.0825
  592SOL    HW1 1775   0.128   1.928   2.395 -3.2455 -1.8264 -1.7976
  592SOL    HW2 1776   0.210   1.928   2.547 -1.1802 -1.3960  2.8821
  593SOL     OW 1777   1.486   1.455   1.445  0.7867  0.0598  0.2426
  593SOL    HW1 1778   1.471   1.465   1.344  0.3301 -1.7601  1.0755
  593SOL    HW2 1779   1.443   1.533   1.496  0.4759  0.5821 -1.8892
  594SOL     OW 1780   0.465   1.361   2.779  0.1384 -0.2244  0.2750
  594SOL    HW1 1781   0.425   1.329   2.865  0.4328  0.4981 -0.1263
  594SOL    HW2 1782   0.502   1.458   2.791  2.7470  0.6284 -0.6725
  595SOL     OW 1783   1.296   0.712   0.937 -0.2447 -0.7384 -0.0428
  595SOL    HW1 1784   1.387   0.752   0.963 -0.8091 -0.3309 -0.2965
  595SOL    HW2 1785   1.220   0.783   0.956  1.7757  1.4318  0.8256
  596SOL     OW 1786   0.444   1.091   1.126  0.0972 -0.0501  0.8859
  596SOL    HW1 1787   0.538   1.132   1.137 -0.7636 -0.6612  2.0555
  596SOL    HW2 1788   0.392   1.137   1.048  0.9429 -1.4988  0.0454
  597SOL     OW 1789   0.547   2.463   2.122 -0.3397  0.6798  0.2523
  597SOL    HW1 1790   0.612   2.492   2.199 -0.9492 -1.1730  0.1975
  597SOL    HW2 1791   0.584   2.500   2.033 -0.0731  0.4925 -0.9304
  598SOL     OW 1792   2.503   2.530   2.115 -0.2563 -0.0776  0.1991
  598SOL    HW1 1793   2.572   2.488   2.176 -3.0651  1.4245  1.2467
  598SOL    HW2 1794   2.435   2.593   2.160  1.3660  2.4607  0.1749
  599SOL     OW 1795   1.056   1.247   0.460 -0.3453  0.1203 -0.4988
  599SOL    HW1 1796   1.128   1.316   0.461 -2.9712  0.4858 -0.7299
  599SOL    HW2 1797   0.975   1.288   0.414 -0.9667 -1.4079 -0.0807
  600SOL     OW 1798   1.650   0.362   0.428 -0.0643 -0.2884 -0.0135
  600SOL    HW1 1799   1.549   0.357   0.446 -1.1191 -0.4906 -1.2752
  600SOL    HW2 1800   1.687   0.288   0.368  0.3687 -1.7351  1.0262
  601SOL     OW 1801   0.624   0.231   1.570 -0.3193 -0.1285  0.1901
  601SOL    HW1 1802   0.572   0.144   1.570  1.2194  1.5575  0.4805
  601SOL    HW2 1803   0.559   0.312   1.577 -1.6942 -1.1578  0.8836
  602SOL     OW 1804   0.328   2.343   0.741  0.7087  0.4579  0.1934
  602SOL    HW1 1805   0.384   2.275   0.789  0.6512  2.0412  0.0491
  602SOL    HW2 1806   0.365   2.377   0.654 -0.7168 -1.0307  1.5149
  603SOL     OW 1807   1.013   2.821   2.759 -0.7727  0.6308  0.0879
  603SOL    HW1 1808   1.027   2.725   2.789 -2.6656  0.6605  1.4767
  603SOL    HW2 1809   1.027   2.826   2.659  4.2322 -0.7145 -2.4822
  604SOL     OW 1810   0.664   2.316   0.368 -0.9192  0.1578 -0.3255
  604SOL    HW1 1811   0.593   2.267   0.320  0.6529 -0.0008 -0.8439
  604SOL    HW2 1812   0.704   2.384   0.304 -1.1809 -1.3578  0.4307
  605SOL     OW 1813   1.461   1.253   1.639 -0.2241  0.0828 -0.5470
  605SOL    HW1 1814   1.537   1.191   1.614 -0.2365  3.5801 -2.4135
  605SOL    HW2 1815   1.455   1.328   1.573  1.5324  0.4328 -1.9188
  606SOL     OW 1816   0.826   1.238   2.862 -0.1017 -0.2303 -0.1000
  606SOL    HW1 1817   0.752   1.200   2.921  1.2701  1.4303 -0.4543
  606SOL    HW2 1818   0.813   1.339   2.846  2.1062 -1.3663  1.6965
  607SOL     OW 1819   0.955   0.796   1.267  0.2524  0.0279 -0.0460
  607SOL    HW1 1820   0.868   0.839   1.300 -1.2411 -1.1389 -1.2510
  607SOL    HW2 1821   0.988   0.732   1.340 -2.6217 -2.5987 -1.6949
  608SOL     OW 1822   2.907   2.290   1.904 -0.1795 -0.0865 -0.6627
  608SOL    HW1 1823   2.981   2.219   1.927  0.2173 -0.5537 -0.1353
  608SOL    HW2 1824   2.832   2.292   1.976 -0.4550 -0.5607  1.3600
  609SOL     OW 1825   2.248   0.130   0.085  0.0975  0.1376  0.7064
  609SOL    HW1 1826   2.215   0.131   0.181 -1.6434  2.3042  2.2075
  609SOL    HW2 1827   2.335   0.076   0.082  0.3045  2.0107  0.5779
  610SOL     OW 1828   0.339   2.451   1.568  0.4817 -0.3318  0.3441
  610SOL    HW1 1829   0.401   2.488   1.638 -2.3705 -0.1156 -0.3694
  610SOL    HW2 1830   0.261   2.514   1.550  1.2300  1.6657 -0.2429
  611SOL     OW 1831   1.560   1.724   0.715  0.3690 -0.1890 -0.3905
  611SOL    HW1 1832   1.507   1.719   0.803 -0.5019 -0.1536  1.4902
  611SOL    HW2 1833   1.601   1.633   0.689 -0.5352 -1.8962  0.6371
  612SOL     OW 1834   0.558   0.348   2.217  0.1015 -0.0586  0.1254
  612SOL    HW1 1835   0.612   0.360   2.130 -1.6395 -2.4398  0.4947
  612SOL    HW2 1836   0.511   0.259   2.206 -0.7035  3.1865  0.8108
  613SOL     OW 1837   2.597   1.044   0.478  0.3543 -0.0927 -0.5607
  613SOL    HW1 1838   2.522   0.982   0.511  0.5651 -0.7996 -0.0632
  613SOL    HW2 1839   2.643   1.080   0.561  1.4470 -1.9819  1.4088
  614SOL     OW 1840   1.881   0.225   1.678  0.5430  0.0487  0.3173
  614SOL    HW1 1841   1.940   0.217   1.762  1.3665 -0.2467  4.9024
  614SOL    HW2 1842   1.908   0.165   1.599 -0.9390 -0.0245  0.0809
  615SOL     OW 1843   0.794   1.523   1.660 -0.7434 -0.2134 -0.1260
  615SOL    HW1 1844   0.891   1.516   1.619  0.6874 -0.6933 -2.6961
  615SOL    HW2 1845   0.718   1.537   1.591 -3.3229  0.3757  0.7841
  616SOL     OW 1846   1.507   1.872   3.039 -0.1732  0.1756  0.2749
  616SOL    HW1 1847   1.482   1.819   0.004  2.0975 -0.2058  0.2518
  616SOL    HW2 1848   1.594   1.912   3.053  1.2438 -3.4742  0.3699
  617SOL     OW 1849   2.429   3.035   0.121 -0.9809  0.3677 -0.2357
  617SOL    HW1 1850   2.414   3.026   0.019 -1.9427 -1.1637  0.8468
  617SOL    HW2 1851   2.363   2.973   0.162 -2.3914 -4.1897 -2.0398
  618SOL     OW 1852   0.801   0.728   2.592 -0.3817 -0.2024  0.4581
  618SOL    HW1 1853   0.766   0.796   2.660  0.1133 -0.1428 -2.8534
  618SOL    HW2 1854   0.741   0.711   2.507  0.0961  1.3852 -4.0759
  619SOL     OW 1855   2.743   1.647   0.909  0.2234 -0.2654  0.3755
  619SOL    HW1 1856   2.709   1.551   0.879  2.6054 -2.4428 -2.2296
  619SOL    HW2 1857   2.775   1.699   0.827 -1.3716 -0.4939  0.8940
  620SOL     OW 1858   2.363   2.991   2.992  0.1256 -0.0998 -0.0111
  620SOL    HW1 1859   2.425   2.922   2.953  1.2294 -0.6994 -1.0848
  620SOL    HW2 1860   2.268   2.959   2.969  1.7319  2.3052 -1.2988
  621SOL     OW 1861   2.444   1.410   2.894  1.0163 -0.2408  0.3412
  621SOL    HW1 1862   2.345   1.394   2.924 -2.8650 -1.8521 -0.0371
  621SOL    HW2 1863   2.472   1.327   2.837  0.5016 -0.4677  1.7971
  622SOL     OW 1864   1.585   2.752   2.245  0.4285 -0.1889 -0.2515
  622SOL    HW1 1865   1.603   2.728   2.343 -2.4680 -1.1329  1.9427
  622SOL    HW2 1866   1.669   2.796   2.200  1.8181 -0.7597  0.2151
  623SOL     OW 1867   1.136   1.953   0.670 -0.3329 -0.1853  0.1640
  623SOL    HW1 1868   1.173   2.019   0.743 -0.0020 -0.5947  2.6954
  623SOL    HW2 1869   1.059   1.994   0.617 -3.7898  0.0917  0.0185
  624SOL     OW 1870   0.376   0.163   0.011 -0.3212  0.3747 -0.2853
  624SOL    HW1 1871   0.353   0.107   0.091 -2.3009 -0.2026 -3.0044
  624SOL    HW2 1872   0.367   0.266   0.033 -0.7636  1.4960 -1.7609
  625SOL     OW 1873   0.746   1.758   0.630  0.9015  0.6379  0.3591
  625SOL    HW1 1874   0.691   1.819   0.688 -0.1793 -0.4594  1.4783
  625SOL    HW2 1875   0.691   1.741   0.546  1.1872  0.4323  1.7112
  626SOL     OW 1876   3.049   2.852   2.919  0.5966  0.0628 -0.1773
  626SOL    HW1 1877   3.103   2.796   2.985 -0.6121  2.9618 -1.3646
  626SOL    HW2 1878   3.081   2.952   2.930  1.1613  1.6209 -0.9709
  627SOL     OW 1879   1.006   1.949   2.580 -0.1026  0.4400  0.0207
  627SOL    HW1 1880   1.020   1.855   2.542 -3.1470 -0.8877  2.3426
  627SOL    HW2 1881   1.097   2.001   2.589  1.5717  2.3893 -1.1947
  628SOL     OW 1882   0.305   0.284   2.644 -0.0693 -0.0113 -0.2674
  628SOL    HW1 1883   0.404   0.258   2.637 -0.7395 -0.6990  0.5368
  628SOL    HW2 1884   0.251   0.247   2.566 -0.4861 -1.3290  2.3477
  629SOL     OW 1885   0.521   2.817   2.249  0.1462 -0.0564 -0.2486
  629SOL    HW1 1886   0.552   2.894   2.188  0.1832  1.7721  1.3044
  629SOL    HW2 1887   0.584   2.736   2.235  0.4561 -1.1104  0.3108
  630SOL     OW 1888   1.639   1.040   1.615 -0.3647 -0.0405 -0.4959
  630SOL    HW1 1889   1.686   0.988   1.538  1.8157 -0.7040 -0.7196
  630SOL    HW2 1890   1.609   0.984   1.693 -2.1610  0.2765  0.1162
  631SOL     OW 1891   2.220   1.120   0.361 -0.0284  0.2703  0.2513
  631SOL    HW1 1892   2.267   1.065   0.292 -1.2005  2.0956  1.4521
  631SOL    HW2 1893   2.269   1.126   0.451  1.1236  0.6955 -1.8223
  632SOL     OW 1894   2.448   0.567   1.979  0.1853 -0.2480  0.5752
  632SOL    HW1 1895   2.380   0.593   2.051  0.5661  0.4896  2.1270
  632SOL    HW2 1896   2.434   0.471   1.956 -2.4525  1.9884  0.1436
  633SOL     OW 1897   0.742   2.590   0.257 -0.0618  0.0730  0.6500
  633SOL    HW1 1898   0.777   2.612   0.160  1.0307 -0.8051 -1.2543
  633SOL    HW2 1899   0.646   2.613   0.280 -3.1683 -1.3277  1.1005
  634SOL     OW 1900   1.672   2.599   2.489  0.2046 -0.9913 -0.0113
  634SOL    HW1 1901   1.632   2.514   2.514  1.2918  6.2182 -0.2149
  634SOL    HW2 1902   1.695   2.655   2.570 -1.3669  2.4694 -1.6621
  635SOL     OW 1903   2.308   0.362   3.081  0.3621 -0.0233  0.0576
  635SOL    HW1 1904   2.402   0.354   3.113 -4.2413  0.4248  1.3967
  635SOL    HW2 1905   2.256   0.278   3.110  4.5797  0.8119  1.2736
  636SOL     OW 1906   0.507   1.143   0.825 -0.2009  0.1631 -0.8113
  636SOL    HW1 1907   0.437   1.159   0.895 -0.5359 -1.7646 -0.4202
  636SOL    HW2 1908   0.590   1.102   0.865 -0.3445 -0.3542  0.6520
  637SOL     OW 1909   0.018   1.825   0.725  0.5096 -0.1429 -0.1878
  637SOL    HW1 1910   0.012   1.885   0.811  1.0847  1.2732  2.6819
  637SOL    HW2 1911   0.116   1.820   0.696 -0.4172  2.0572 -0.1884
  638SOL     OW 1912   1.047   0.012   3.047  0.7634  0.1350 -0.0109
  638SOL    HW1 1913   0.964   0.051   3.089  0.8726  1.2059 -1.8393
  638SOL    HW2 1914   1.123   0.028   3.108 -1.6591 -2.2544 -1.4523
  639SOL     OW 1915   1.433   1.740   0.166  0.2020  0.1523  0.4904
  639SOL    HW1 1916   1.403   1.653   0.214 -0.2256 -0.8048  0.8074
  639SOL    HW2 1917   1.439   1.820   0.229  2.3929  2.5204  0.8340
  640SOL     OW 1918   1.742   2.675   0.813 -0.0641 -0.0476  0.4171
  640SOL    HW1 1919   1.776   2.701   0.720  1.7119 -3.2029  1.1374
  640SOL    HW2 1920   1.648   2.635   0.816 -0.0389  1.3915  1.8886
  641SOL     OW 1921   0.163   2.634   0.718 -0.3457 -0.6348 -0.4672
  641SOL    HW1 1922   0.104   2.625   0.635  1.3327 -0.0960 -1.7459
  641SOL    HW2 1923   0.256   2.664   0.691  0.8672 -2.5715  2.1858
  642SOL     OW 1924   0.767   0.259   1.793 -0.4486 -0.0223  0.2727
  642SOL    HW1 1925   0.706   0.244   1.708 -0.1853  1.0987 -0.9860
  642SOL    HW2 1926   0.865   0.273   1.772 -1.6064 -0.4857  1.1549
  643SOL     OW 1927   0.564   2.196   2.174  0.1367  0.6900  0.4968
  643SOL    HW1 1928   0.555   2.296   2.157 -0.9883  0.0044 -2.7834
  643SOL    HW2 1929   0.579   2.161   2.076 -1.1467 -2.3683 -2.7310
  644SOL     OW 1930   0.594   2.877   0.342  0.1449  0.4128  0.0000
  644SOL    HW1 1931   0.587   2.969   0.383 -2.5970 -0.6314  0.9385
  644SOL    HW2 1932   0.633   2.809   0.410  0.0033  0.8862  0.2964
  645SOL     OW 1933   1.184   2.102   0.262 -0.3978 -0.6854  0.1383
  645SOL    HW1 1934   1.183   2.170   0.339 -1.5715 -3.0943  1.7810
  645SOL    HW2 1935   1.277   2.053   0.257  2.3847 -0.5367 -1.0936
  646SOL     OW 1936   0.332   1.439   0.109  0.7472 -0.2678 -0.3682
  646SOL    HW1 1937   0.397   1.481   0.175 -2.0278  1.2415  0.6387
  646SOL    HW2 1938   0.300   1.348   0.147 -1.8113 -3.4568 -1.3217
  647SOL     OW 1939   0.975   0.187   1.114  0.2782  0.1901  0.3452
  647SOL    HW1 1940   0.997   0.287   1.132  0.9421  0.4508  4.4453
  647SOL    HW2 1941   1.029   0.122   1.174  1.7101  0.7962  0.4794
  648SOL     OW 1942   2.509   0.078   1.362 -0.1025 -0.0191  0.4285
  648SOL    HW1 1943   2.421   0.055   1.321 -1.8127  1.0427  1.7161
  648SOL    HW2 1944   2.502   0.101   1.460  0.3356 -1.0498 -2.8100
  649SOL     OW 1945   0.734   2.232   2.714  0.3550  0.3894  0.1023
  649SOL    HW1 1946   0.817   2.197   2.657  2.1144 -0.6716 -2.6913
  649SOL    HW2 1947   0.642   2.199   2.681 -0.7918  1.9260 -0.8001
  650SOL     OW 1948   0.152   1.766   1.738  0.2692  0.2467 -0.0568
  650SOL    HW1 1949   0.087   1.790   1.664 -1.3417  5.1736 -0.1559
  650SOL    HW2 1950   0.242   1.790   1.703 -0.5143  1.1698  1.8014
  651SOL     OW 1951   1.212   0.062   0.148 -0.4931 -0.9432 -0.4065
  651SOL    HW1 1952   1.313   0.073   0.155 -0.2835  2.5269 -3.8544
  651SOL    HW2 1953   1.165   0.149   0.163 -0.4549  0.4722  2.2248
  652SOL     OW 1954   2.713   2.102   0.364 -0.1177  0.1909 -0.2669
  652SOL    HW1 1955   2.629   2.070   0.417 -0.0972 -1.0166  1.7217
  652SOL    HW2 1956   2.700   2.191   0.320  1.8356 -0.9909 -0.7500
  653SOL     OW 1957   0.063   0.216   0.899 -0.2402  0.2131  0.2122
  653SOL    HW1 1958   0.063   0.113   0.892 -1.5887 -2.3659  0.7160
  653SOL    HW2 1959   0.115   0.258   0.823  2.3139 -1.4759  0.0044
  654SOL     OW 1960   1.977   0.364   2.615  0.4249  0.1283 -0.3922
  654SOL    HW1 1961   1.987   0.435   2.684 -1.6452 -1.6739 -2.0009
  654SOL    HW2 1962   1.881   0.356   2.587  0.7291  2.5066  2.2640
  655SOL     OW 1963   0.493   2.492   0.940 -0.4280  0.0845 -0.6028
  655SOL    HW1 1964   0.422   2.485   0.873 -1.2659 -1.1988  2.8617
  655SOL    HW2 1965   0.473   2.429   1.019  1.1891  1.0961  0.5037
  656SOL     OW 1966   0.056   0.254   1.660  0.1390  0.2929 -0.5259
  656SOL    HW1 1967   3.072   0.258   1.675 -2.3342 -1.1713 -0.1674
  656SOL    HW2 1968   0.077   0.292   1.567 -1.6404  0.0639 -0.5328
  657SOL     OW 1969   2.254   0.657   2.130  0.1587 -0.1226 -0.4959
  657SOL    HW1 1970   2.290   0.599   2.207 -1.5489 -2.3548 -0.0087
  657SOL    HW2 1971   2.167   0.621   2.092  2.4790 -0.0071 -0.9821
  658SOL     OW 1972   2.276   1.695   0.953 -0.2387  0.4737  0.1370
  658SOL    HW1 1973   2.205   1.732   1.019 -0.7459 -1.4921 -0.2412
  658SOL    HW2 1974   2.292   1.748   0.869  0.3669 -0.4569 -0.8796
  659SOL     OW 1975   2.466   0.117   2.887 -0.3358 -0.2776  0.2517
  659SOL    HW1 1976   2.407   0.053   2.941  0.4541 -2.9187  0.8513
  659SOL    HW2 1977   2.560   0.124   2.923  0.6646 -1.0768  0.1640
  660SOL     OW 1978   1.239   1.522   2.768  0.0044 -0.1039 -0.4812
  660SOL    HW1 1979   1.320   1.581   2.782 -0.5045  1.7434  1.3006
  660SOL    HW2 1980   1.242   1.429   2.810  0.3201  1.5387  0.0346
  661SOL     OW 1981   2.656   2.449   0.879  0.1586  0.2517 -0.7212
  661SOL    HW1 1982   2.680   2.359   0.920 -1.5742  0.2594  1.0806
  661SOL    HW2 1983   2.726   2.517   0.907  2.5557 -0.7231 -0.1432
  662SOL     OW 1984   0.719   0.719   0.130  0.2783  0.0694 -0.0404
  662SOL    HW1 1985   0.803   0.662   0.138  1.1117  0.3923 -0.9503
  662SOL    HW2 1986   0.722   0.794   0.205 -2.0189 -0.0651  0.5796
  663SOL     OW 1987   1.680   2.093   0.278 -0.0844  0.1478  0.2937
  663SOL    HW1 1988   1.701   2.192   0.269 -0.7031 -0.8863  2.0549
  663SOL    HW2 1989   1.701   2.047   0.189 -0.6718 -3.8264 -1.7078
  664SOL     OW 1990   0.739   2.363   1.666  0.5043  0.2905  0.1169
  664SOL    HW1 1991   0.729   2.453   1.625  0.4696 -3.1213 -0.0246
  664SOL    HW2 1992   0.686   2.292   1.617  0.9344  0.6778 -2.1047
  665SOL     OW 1993   2.089   1.924   1.842 -0.1852  0.1729  0.1460
  665SOL    HW1 1994   2.097   2.024   1.844 -0.0598 -1.7035  1.5681
  665SOL    HW2 1995   2.123   1.885   1.755  1.4630 -0.3067 -0.6635
  666SOL     OW 1996   0.353   2.747   0.275  0.4941 -0.4941 -0.1128
  666SOL    HW1 1997   0.437   2.799   0.309 -0.4126 -1.2135  2.9810
  666SOL    HW2 1998   0.378   2.693   0.196  1.1036  3.3728 -0.3929
  667SOL     OW 1999   2.013   1.448   1.729 -0.3668  0.4303 -0.2141
  667SOL    HW1 2000   1.954   1.376   1.762 -1.9079  4.2149 -0.7111
  667SOL    HW2 2001   1.998   1.524   1.799 -0.2996  1.9904  2.1831
  668SOL     OW 2002   0.462   0.601   2.443 -0.1480  0.3047 -0.0267
  668SOL    HW1 2003   0.478   0.674   2.373  1.6583  0.1806 -0.0692
  668SOL    HW2 2004   0.545   0.548   2.468  1.9956 -0.3027 -3.1657
  669SOL     OW 2005   1.809   2.118   2.571 -0.2882  1.0064  0.5486
  669SOL    HW1 2006   1.746   2.108   2.652 -1.1571 -0.5050 -0.1683
  669SOL    HW2 2007   1.789   2.036   2.509  3.6873 -1.3060 -0.7938
  670SOL     OW 2008   2.230   2.248   0.027 -0.1774  0.0839  1.3115
  670SOL    HW1 2009   2.269   2.201   3.060  1.8632 -1.9992  0.1109
  670SOL    HW2 2010   2.206   2.347   0.009  0.7749  1.4948  0.2195
  671SOL     OW 2011   0.704   1.156   1.212 -0.1790 -0.6348  0.2148
  671SOL    HW1 2012   0.764   1.239   1.201 -0.2331  0.5038  0.1947
  671SOL    HW2 2013   0.735   1.105   1.292  1.1419 -1.2660  0.6146
  672SOL     OW 2014   2.722   0.909   2.317  0.6954 -0.1263  0.2379
  672SOL    HW1 2015   2.781   0.940   2.236  1.4272 -0.5382 -2.0422
  672SOL    HW2 2016   2.748   0.966   2.401  3.7703  3.0379  3.3690
  673SOL     OW 2017   2.692   2.348   2.303 -0.2041  0.1464  0.0205
  673SOL    HW1 2018   2.750   2.278   2.352  0.0949 -0.6607  0.7719
  673SOL    HW2 2019   2.742   2.434   2.304 -0.2760 -3.1090 -0.7724
  674SOL     OW 2020   1.250   2.833   2.306  0.0209  0.3906 -0.1768
  674SOL    HW1 2021   1.329   2.865   2.364 -1.8213 -0.4517 -0.4721
  674SOL    HW2 2022   1.252   2.732   2.282 -0.6198 -4.1515 -1.0025
  675SOL     OW 2023   0.754   0.906   1.671 -0.1696  0.0991  0.3371
  675SOL    HW1 2024   0.825   0.832   1.667  1.5403  0.1150  2.6313
  675SOL    HW2 2025   0.807   0.994   1.662  2.1422 -0.8128  1.8108
  676SOL     OW 2026   1.899   0.871   0.586 -0.0900 -0.0184  0.2159
  676SOL    HW1 2027   1.802   0.849   0.576  0.5749  2.3721 -0.3763
  676SOL    HW2 2028   1.940   0.923   0.508  0.8723  0.5058 -2.4353
  677SOL     OW 2029   2.831   1.780   2.692  0.3154 -0.1546  0.0966
  677SOL    HW1 2030   2.853   1.680   2.700 -0.7152  0.3584 -2.0938
  677SOL    HW2 2031   2.923   1.838   2.691  0.5289 -0.6411 -0.9161
  678SOL     OW 2032   2.971   2.269   1.221  0.2904  0.0808  0.0696
  678SOL    HW1 2033   3.056   2.324   1.205 -1.9661 -4.2750  3.0552
  678SOL    HW2 2034   2.893   2.301   1.165  1.8883 -0.3972  1.0971
  679SOL     OW 2035   1.892   2.666   0.594 -0.3378 -0.6011 -0.0201
  679SOL    HW1 2036   1.988   2.659   0.621 -2.4760  0.9878 -2.9184
  679SOL    HW2 2037   1.871   2.600   0.519  0.7550 -2.0703  0.3574
  680SOL     OW 2038   0.590   2.653   2.563  0.6526  0.4512 -0.2855
  680SOL    HW1 2039   0.542   2.743   2.534 -0.5003  2.0937 -0.7700
  680SOL    HW2 2040   0.687   2.643   2.535  2.5944  1.3238  1.2634
  681SOL     OW 2041   3.086   1.173   1.516 -0.0161  0.1731  0.0636
  681SOL    HW1 2042   0.026   1.256   1.530 -1.0106  1.0296  1.9402
  681SOL    HW2 2043   2.990   1.195   1.484  0.1240 -0.0825 -1.1995
  682SOL     OW 2044   0.322   1.934   1.226 -0.3609 -0.3765  0.0409
  682SOL    HW1 2045   0.258   1.922   1.307 -1.8428  1.0497  2.1287
  682SOL    HW2 2046   0.419   1.931   1.253 -0.4134 -2.1293  0.3084
  683SOL     OW 2047   2.550   1.429   1.270  0.1792 -0.1200 -0.1901
  683SOL    HW1 2048   2.522   1.503   1.201 -2.1847  1.2259 -0.1423
  683SOL    HW2 2049   2.526   1.466   1.361 -1.7104 -0.0469 -3.8175
  684SOL     OW 2050   2.694   1.436   3.023 -0.2355 -0.0445  0.2736
  684SOL    HW1 2051   2.758   1.356   3.036  2.6746 -3.4716 -1.1193
  684SOL    HW2 2052   2.615   1.413   2.964  1.2634 -0.3163  1.5689
  685SOL     OW 2053   1.255   1.246   0.112  0.2731 -0.2673 -0.1222
  685SOL    HW1 2054   1.161   1.205   0.099 -1.0942  0.3364  1.9596
  685SOL    HW2 2055   1.321   1.169   0.119  1.7233 -0.5404  1.5233
  686SOL     OW 2056   0.177   0.267   1.148 -0.1251  0.6764  0.6151
  686SOL    HW1 2057   0.236   0.184   1.152  3.1080  1.1225  3.5523
  686SOL    HW2 2058   0.099   0.254   1.085 -3.8671  0.0041 -0.4661
  687SOL     OW 2059   0.984   1.708   2.454 -0.2803  0.0757  0.2664
  687SOL    HW1 2060   0.949   1.622   2.486 -0.1380  3.6570  1.3097
  687SOL    HW2 2061   0.925   1.740   2.377  0.1403 -1.6382  0.3305
  688SOL     OW 2062   0.584   1.914   1.296 -0.3223 -0.4686  0.1078
  688SOL    HW1 2063   0.657   1.972   1.253  1.5766  1.5042 -1.1534
  688SOL    HW2 2064   0.577   1.923   1.397 -0.2506  0.6788  1.2792
  689SOL     OW 2065   1.433   0.783   1.318 -0.2528 -0.2339 -0.1857
  689SOL    HW1 2066   1.408   0.869   1.356  1.6542  0.0437 -0.7436
  689SOL    HW2 2067   1.372   0.713   1.359  0.7391 -1.0756  1.7553
  690SOL     OW 2068   2.519   0.938   1.186  0.1976  0.2120 -0.1350
  690SOL    HW1 2069   2.534   0.876   1.111  1.7955  1.5553  3.2038
  690SOL    HW2 2070   2.607   0.957   1.234 -0.8645  0.6237  0.0665
  691SOL     OW 2071   0.224   2.180   1.864 -0.2261  0.4011  0.1829
  691SOL    HW1 2072   0.212   2.280   1.864  0.8570 -2.0827  1.3253
  691SOL    HW2 2073   0.145   2.132   1.904  0.8944 -3.1063 -1.5685
  692SOL     OW 2074   1.694   3.025   0.862  0.1884  0.1377  0.3715
  692SOL    HW1 2075   1.791   3.022   0.888 -2.6469 -1.2476  0.2334
  692SOL    HW2 2076   1.636   2.989   0.936 -2.5314  0.0795  1.3854
  693SOL     OW 2077   0.113   1.554   2.549  0.4494 -0.3158 -0.4424
  693SOL    HW1 2078   0.132   1.614   2.628  2.4440  1.4317 -1.2835
  693SOL    HW2 2079   0.021   1.582   2.514  1.0986  2.2973 -0.2769
  694SOL     OW 2080   2.289   0.671   1.081  0.1614 -0.1364 -0.2175
  694SOL    HW1 2081   2.352   0.637   1.156  0.8118  2.0662  2.2697
  694SOL    HW2 2082   2.197   0.710   1.114 -3.5535  2.2870 -0.3089
  695SOL     OW 2083   0.863   1.147   1.614  0.1318 -0.8151 -0.0632
  695SOL    HW1 2084   0.803   1.218   1.660 -0.8596  0.6536  2.3630
  695SOL    HW2 2085   0.877   1.173   1.518  1.8818  0.1608  2.7743
  696SOL     OW 2086   1.449   3.113   0.481 -0.3622  0.0712 -0.0963
  696SOL    HW1 2087   1.497   0.055   0.546 -0.8629 -1.4713 -1.6539
  696SOL    HW2 2088   1.485   0.012   0.383  0.1187  0.1328 -3.8707
  697SOL     OW 2089   0.695   0.178   1.023 -0.5018  0.3475  0.3812
  697SOL    HW1 2090   0.677   0.251   0.957 -1.4365 -2.1289 -0.2339
  697SOL    HW2 2091   0.798   0.171   1.037  2.3334 -0.5012 -0.7396
  698SOL     OW 2092   1.657   1.513   2.756 -0.3770 -0.0959 -0.0824
  698SOL    HW1 2093   1.630   1.466   2.667 -1.5108 -1.3930 -0.7904
  698SOL    HW2 2094   1.718   1.595   2.735  1.9187  0.5537 -0.2522
  699SOL     OW 2095   1.072   1.035   1.186 -0.1342  0.0121 -0.3505
  699SOL    HW1 2096   1.030   0.957   1.246  1.0828 -2.3811  0.0478
  699SOL    HW2 2097   1.106   0.995   1.101 -3.0542  2.3038  0.8364
  700SOL     OW 2098   0.970   2.901   0.493 -0.1181  0.0869 -0.2406
  700SOL    HW1 2099   0.966   2.923   0.394 -0.9416 -0.0834  2.1344
  700SOL    HW2 2100   1.060   2.928   0.532 -1.0527  0.4556  0.6516
  701SOL     OW 2101   2.615   2.859   2.758  0.1383  0.3951  0.3999
  701SOL    HW1 2102   2.545   2.810   2.811  1.4221  0.0948  0.4802
  701SOL    HW2 2103   2.583   2.942   2.705  1.5068 -1.2870 -1.8693
  702SOL     OW 2104   1.096   0.096   0.505 -0.0123  0.1107 -0.1480
  702SOL    HW1 2105   1.168   0.036   0.459  1.1267 -0.9588 -0.2041
  702SOL    HW2 2106   1.124   0.144   0.593 -3.1423 -0.6043 -0.1595
  703SOL     OW 2107   2.547   0.324   2.136  0.1086 -0.4394 -0.7187
  703SOL    HW1 2108   2.522   0.392   2.208  1.9989 -0.2292  2.1973
  703SOL    HW2 2109   2.646   0.329   2.119 -1.3077 -0.5230 -0.7708
  704SOL     OW 2110   2.845   1.778   0.699  0.0374  0.0119 -0.2428
  704SOL    HW1 2111   2.805   1.750   0.614  0.7323  1.1440  0.6485
  704SOL    HW2 2112   2.944   1.796   0.701 -0.7530  0.4226 -0.0728
  705SOL     OW 2113   3.087   2.958   2.143 -0.4042 -0.5802 -0.2561
  705SOL    HW1 2114   3.049   3.044   2.101  3.2642 -0.2824  2.7976
  705SOL    HW2 2115   3.058   2.948   2.241  0.2475  0.9156  0.1572
  706SOL     OW 2116   2.403   2.482   0.930 -0.5061 -0.0973 -0.3232
  706SOL    HW1 2117   2.503   2.464   0.900 -0.6836 -0.2232 -2.8051
  706SOL    HW2 2118   2.337   2.439   0.862  2.5420  2.5690 -2.3901
  707SOL     OW 2119   1.224   2.114   1.551 -0.7046 -0.8111  0.1245
  707SOL    HW1 2120   1.295   2.109   1.475 -0.5898  0.5002 -0.9912
  707SOL    HW2 2121   1.128   2.105   1.525  3.0189  1.2232  2.7403
  708SOL     OW 2122   0.195   2.456   1.881  0.4036  0.1991  0.4601
  708SOL    HW1 2123   0.275   2.480   1.832 -1.7629 -0.4840  0.9572
  708SOL    HW2 2124   0.211   2.453   1.985 -0.5994 -0.9342 -0.4781
  709SOL     OW 2125   2.220   2.899   2.076 -0.0095 -0.2704  0.2972
  709SOL    HW1 2126   2.151   2.928   2.007 -1.2081  4.4072 -3.6517
  709SOL    HW2 2127   2.311   2.924   2.044 -1.2764 -1.6983  1.5586
  710SOL     OW 2128   1.907   0.779   2.740 -0.0029 -0.6780 -0.2351
  710SOL    HW1 2129   1.998   0.728   2.745  0.9981 -2.6791  0.3487
  710SOL    HW2 2130   1.903   0.841   2.657 -0.5648  0.7040  0.6092
  711SOL     OW 2131   1.071   2.283   0.081  0.8082  0.0298  0.0774
  711SOL    HW1 2132   1.113   2.208   0.133 -1.2910  3.7794  0.6864
  711SOL    HW2 2133   0.969   2.295   0.090  2.0784 -0.6277  1.0508
  712SOL     OW 2134   0.658   2.506   2.777  0.7973  0.1841  0.1871
  712SOL    HW1 2135   0.732   2.435   2.772  1.7588  3.0430 -0.6851
  712SOL    HW2 2136   0.629   2.546   2.688  1.1518 -1.6016  2.7225
  713SOL     OW 2137   1.546   1.329   2.951  0.1119  0.1519 -0.0711
  713SOL    HW1 2138   1.598   1.400   2.897  3.3092  2.9217 -1.7008
  713SOL    HW2 2139   1.544   1.350   3.048 -0.0860  2.0331 -0.2334
  714SOL     OW 2140   1.063   1.516   1.546  0.3040 -0.3008  0.1270
  714SOL    HW1 2141   1.091   1.597   1.488 -0.7477  2.2258  0.8518
  714SOL    HW2 2142   1.105   1.520   1.633 -2.2783  0.7877  0.2605
  715SOL     OW 2143   1.796   0.452   3.039 -0.0212 -0.1465 -0.5599
  715SOL    HW1 2144   1.733   0.524   3.078  2.4729  0.7941 -1.6381
  715SOL    HW2 2145   1.846   0.494   2.962 -0.1140 -4.3044  0.5975
  716SOL     OW 2146   0.169   2.580   2.312 -0.1025 -0.6004  0.0458
  716SOL    HW1 2147   0.226   2.582   2.397 -1.8703  0.0280  1.9118
  716SOL    HW2 2148   0.175   2.666   2.257  0.7284 -2.7249 -0.5920
  717SOL     OW 2149   2.871   0.588   0.966  0.0216 -0.1389  0.0718
  717SOL    HW1 2150   2.784   0.559   0.925  0.8273 -0.3880 -0.4449
  717SOL    HW2 2151   2.885   0.535   1.056 -0.2958 -1.2024 -0.4180
  718SOL     OW 2152   0.846   1.470   2.516  0.5435 -0.0272 -0.2594
  718SOL    HW1 2153   0.846   1.471   2.621  1.0023  1.9249  2.3657
  718SOL    HW2 2154   0.750   1.458   2.478 -1.5693  0.5697  0.7945
  719SOL     OW 2155   2.186   1.063   3.013 -0.5491 -0.0399  0.2046
  719SOL    HW1 2156   2.096   1.022   2.999  0.3785 -2.1458  0.3012
  719SOL    HW2 2157   2.247   1.053   2.929  0.4529 -0.9722 -1.4534
  720SOL     OW 2158   0.867   0.526   0.914  0.2565  0.0329 -0.0812
  720SOL    HW1 2159   0.919   0.520   1.000 -3.9799  1.9447 -0.2635
  720SOL    HW2 2160   0.770   0.510   0.934 -0.5547  1.3849  0.8306
  721SOL     OW 2161   2.566   0.150   0.572  0.0599  0.0284 -0.3245
  721SOL    HW1 2162   2.629   0.228   0.551 -0.0198  0.6600 -1.3132
  721SOL    HW2 2163   2.571   0.077   0.499 -0.5006  0.2001 -1.4884
  722SOL     OW 2164   2.159   0.667   2.720  0.3171  0.2856  0.0233
  722SOL    HW1 2165   2.216   0.700   2.641  0.8290  0.0648 -1.9145
  722SOL    HW2 2166   2.213   0.606   2.781  2.8513 -1.2490  0.3419
  723SOL     OW 2167   2.279   0.326   0.438 -0.5157  0.1888 -0.1390
  723SOL    HW1 2168   2.215   0.257   0.404  0.3039  1.3483  2.0189
  723SOL    HW2 2169   2.331   0.372   0.364 -0.2119 -2.6174 -0.6261
  724SOL     OW 2170   0.934   1.552   2.056  0.7288  0.0079 -0.4892
  724SOL    HW1 2171   0.907   1.460   2.026 -1.8474  0.2584 -0.7691
  724SOL    HW2 2172   0.886   1.615   1.988 -3.1787  1.4583 -2.2229
  725SOL     OW 2173   1.751   0.303   1.230  0.0858  0.1784  0.3855
  725SOL    HW1 2174   1.802   0.392   1.249  0.3512  1.4899  2.3041
  725SOL    HW2 2175   1.802   0.247   1.162  2.7700 -2.6977 -0.1933
  726SOL     OW 2176   2.026   2.877   0.316 -0.5155 -0.6481  0.1939
  726SOL    HW1 2177   2.081   2.918   0.385 -0.1765  0.2091 -5.6586
  726SOL    HW2 2178   2.005   2.779   0.327 -0.7001 -1.6569  0.9864
  727SOL     OW 2179   1.623   1.456   1.790 -0.0150  0.6112 -0.4290
  727SOL    HW1 2180   1.668   1.474   1.701  1.2409  0.1552  1.4187
  727SOL    HW2 2181   1.564   1.372   1.788  1.5056 -0.4530  0.0711
  728SOL     OW 2182   2.121   2.472   1.482  0.4463 -0.2220  0.2038
  728SOL    HW1 2183   2.037   2.415   1.463 -2.1375 -3.2510  0.0620
  728SOL    HW2 2184   2.097   2.561   1.525 -1.4722  2.5212 -2.2521
  729SOL     OW 2185   2.337   1.847   0.702 -0.1351 -0.2348  0.0561
  729SOL    HW1 2186   2.241   1.861   0.682 -1.4124  2.2339  0.5265
  729SOL    HW2 2187   2.376   1.781   0.635  1.1333  0.9802 -0.5940
  730SOL     OW 2188   0.800   1.119   2.607 -0.0721  0.2384 -0.1252
  730SOL    HW1 2189   0.710   1.164   2.591  2.1944 -1.2176 -1.1930
  730SOL    HW2 2190   0.840   1.165   2.689  0.7785 -1.4926 -0.6424
  731SOL     OW 2191   0.266   3.094   0.719  0.0248 -0.4207 -0.8135
  731SOL    HW1 2192   0.276   0.078   0.715 -0.5308  0.1209 -0.3897
  731SOL    HW2 2193   0.338   3.055   0.781  0.4412 -0.7052  1.3506
  732SOL     OW 2194   1.404   0.660   0.526  0.0040  0.1213  0.3158
  732SOL    HW1 2195   1.360   0.612   0.449 -0.2921  1.8232  1.2214
  732SOL    HW2 2196   1.361   0.640   0.615  1.7344  1.7702 -0.9524
  733SOL     OW 2197   0.449   2.290   1.091 -0.4163  0.4387 -0.3420
  733SOL    HW1 2198   0.529   2.261   1.148  0.2788 -2.5404 -2.6089
  733SOL    HW2 2199   0.447   2.228   1.010  0.9853 -0.6793 -2.8751
  734SOL     OW 2200   0.260   2.560   0.432 -0.2614 -0.1424  0.0219
  734SOL    HW1 2201   0.294   2.641   0.372 -1.2245  3.6470 -2.3747
  734SOL    HW2 2202   0.162   2.577   0.452  1.5447  0.1491  0.0965
  735SOL     OW 2203   1.384   0.099   1.198 -0.4320  0.7846  0.0986
  735SOL    HW1 2204   1.299   0.058   1.240 -2.4621 -0.5903 -2.7668
  735SOL    HW2 2205   1.430   0.161   1.268  0.5894  1.7707  0.1744
  736SOL     OW 2206   2.135   2.475   3.029 -0.3239  0.3207 -0.3238
  736SOL    HW1 2207   2.082   2.554   3.069 -1.9581  0.4175  0.5754
  736SOL    HW2 2208   2.083   2.427   2.954 -1.0393  2.0423  1.6018
  737SOL     OW 2209   0.122   0.822   0.790  0.0312 -0.1054 -0.0817
  737SOL    HW1 2210   0.086   0.911   0.755 -1.3797 -1.6873  1.2362
  737SOL    HW2 2211   0.098   0.747   0.725 -2.6516 -1.6123 -0.0331
  738SOL     OW 2212   2.621   2.746   2.006  0.5293 -0.3192  0.5134
  738SOL    HW1 2213   2.721   2.734   1.982 -0.1357 -0.1354  1.2814
  738SOL    HW2 2214   2.585   2.660   2.043  1.0421  0.1969  0.7013
  739SOL     OW 2215   1.521   2.337   3.113 -0.6620 -0.3809  0.6712
  739SOL    HW1 2216   1.499   2.253   3.055 -2.1964  2.6490 -2.6061
  739SOL    HW2 2217   1.438   2.379   0.029  0.8683  0.8955 -3.8260
  740SOL     OW 2218   1.525   0.323   1.078  0.3987 -0.1120 -0.2034
  740SOL    HW1 2219   1.601   0.305   1.151 -2.3296 -1.6904  3.8673
  740SOL    HW2 2220   1.463   0.241   1.070 -0.4756 -2.6960  1.4373
  741SOL     OW 2221   2.885   0.753   0.689  0.2705 -0.1172  0.2460
  741SOL    HW1 2222   2.936   0.808   0.620 -0.7557 -1.1096 -1.4773
  741SOL    HW2 2223   2.948   0.694   0.739 -1.5032  2.4920  0.0664
  742SOL     OW 2224   0.814   1.506   2.782 -0.3656 -0.0442  0.6168
  742SOL    HW1 2225   0.888   1.544   2.839  2.4235 -1.3140  3.9616
  742SOL    HW2 2226   0.721   1.546   2.796  1.1884  1.7409  1.9435
  743SOL     OW 2227   1.210   0.648   2.241  0.3414 -0.9690 -0.0341
  743SOL    HW1 2228   1.166   0.629   2.329 -1.2555  4.5097 -2.7196
  743SOL    HW2 2229   1.135   0.698   2.191 -1.6177 -0.4672 -1.8651
  744SOL     OW 2230   2.121   0.642   1.398  0.1288  0.1973 -0.1064
  744SOL    HW1 2231   2.204   0.693   1.362 -2.7484  1.5468 -0.4179
  744SOL    HW2 2232   2.111   0.646   1.497 -0.0801 -0.8039 -3.6862
  745SOL     OW 2233   1.197   1.251   1.486 -0.0517  0.2104  0.6717
  745SOL    HW1 2234   1.217   1.341   1.441  0.9154  0.3129 -0.5298
  745SOL    HW2 2235   1.099   1.229   1.468 -1.9986  1.3730  0.9857
  746SOL     OW 2236   2.149   1.436   0.938 -0.3767 -0.3200 -0.2495
  746SOL    HW1 2237   2.188   1.526   0.930  0.6853 -2.5456 -1.2485
  746SOL    HW2 2238   2.146   1.387   0.851  1.3780 -0.1255  1.4748
  747SOL     OW 2239   2.501   1.588   1.065  0.1028 -0.1759 -0.2523
  747SOL    HW1 2240   2.572   1.636   1.012 -1.1711  2.2808 -0.1459
  747SOL    HW2 2241   2.410   1.636   1.046 -1.7588  0.4392 -1.3270
  748SOL     OW 2242   0.873   2.061   0.946  0.3130 -0.0863  0.4612
  748SOL    HW1 2243   0.876   2.162   0.931  1.8030  2.0487  0.0052
  748SOL    HW2 2244   0.964   2.025   0.959 -4.5010  0.6407 -0.1164
  749SOL     OW 2245   2.566   2.794   2.337  0.4883 -0.6278  0.4550
  749SOL    HW1 2246   2.616   2.707   2.312 -0.5830 -0.1990 -0.5764
  749SOL    HW2 2247   2.619   2.847   2.405  0.6824 -2.2647 -0.3705
  750SOL     OW 2248   2.267   0.549   0.662  0.0987  0.5472  0.8987
  750SOL    HW1 2249   2.288   0.483   0.582  2.5916 -2.7663 -1.8495
  750SOL    HW2 2250   2.171   0.581   0.659 -1.3407 -2.6441 -0.2527
  751SOL     OW 2251   2.442   2.818   0.357 -0.1076 -0.0625 -0.1127
  751SOL    HW1 2252   2.521   2.833   0.418  0.5353  3.7167  0.0542
  751SOL    HW2 2253   2.412   2.724   0.377 -0.0173 -0.0531 -0.3324
  752SOL     OW 2254   0.044   3.066   0.851  0.2083  0.3857  0.5473
  752SOL    HW1 2255   0.071   2.978   0.899  0.1297  0.0057  0.9262
  752SOL    HW2 2256   0.123   3.090   0.788  0.0020 -0.8356 -0.9282
  753SOL     OW 2257   1.822   1.016   2.264 -0.4159 -0.2170 -0.2005
  753SOL    HW1 2258   1.774   1.091   2.215  0.5131 -0.5612  1.2185
  753SOL    HW2 2259   1.854   0.947   2.195 -0.5977  1.6122  0.3863
  754SOL     OW 2260   1.706   2.051   1.762  0.3358 -0.1419  0.5132
  754SOL    HW1 2261   1.652   2.019   1.840 -1.4575 -0.0205 -1.9931
  754SOL    HW2 2262   1.667   2.017   1.674  3.0971 -0.7823  1.3892
  755SOL     OW 2263   2.535   0.793   0.950  0.3542 -0.4340 -0.0985
  755SOL    HW1 2264   2.539   0.709   1.008  1.2863  1.9669  1.0828
  755SOL    HW2 2265   2.443   0.824   0.911 -2.0483  2.4161  0.7378
  756SOL     OW 2266   1.021   1.624   2.908 -0.3307  0.3082  0.7121
  756SOL    HW1 2267   1.095   1.590   2.848 -1.3943  1.9534  3.0168
  756SOL    HW2 2268   1.043   1.645   3.005  1.8438  0.3953 -2.2027
  757SOL     OW 2269   1.467   2.597   0.838 -0.5408 -0.1573 -0.4105
  757SOL    HW1 2270   1.402   2.677   0.851  2.9423 -0.8617  1.0338
  757SOL    HW2 2271   1.468   2.566   0.743  1.7259 -1.2837  1.3945
  758SOL     OW 2272   1.239   2.720   1.499 -0.0956  0.1061 -0.2494
  758SOL    HW1 2273   1.336   2.742   1.527  1.6678 -1.1221  0.4985
  758SOL    HW2 2274   1.185   2.686   1.579 -0.0250  0.0732  0.8704
  759SOL     OW 2275   0.093   0.623   0.633  0.1264  0.0983  0.6339
  759SOL    HW1 2276   0.033   0.561   0.687  1.2899  3.1818 -1.4765
  759SOL    HW2 2277   0.072   0.619   0.531  0.8761  2.6036  0.2881
  760SOL     OW 2278   2.445   1.199   1.123  0.1097  0.1026 -0.4757
  760SOL    HW1 2279   2.493   1.108   1.144 -0.5012 -1.6462 -0.3842
  760SOL    HW2 2280   2.494   1.279   1.161  0.7146 -2.0177 -0.0140
  761SOL     OW 2281   1.884   0.074   0.480  0.3924 -0.0544  0.4242
  761SOL    HW1 2282   1.809   0.008   0.498  1.5910  3.6181 -1.4787
  761SOL    HW2 2283   1.919   0.106   0.568 -2.9400 -1.0982 -0.7016
  762SOL     OW 2284   2.095   1.662   3.102 -0.4445 -0.0276  0.0373
  762SOL    HW1 2285   2.130   1.584   0.042  1.1770 -0.7107 -1.5835
  762SOL    HW2 2286   2.149   1.743   0.002 -0.0548  0.7631  1.8006
  763SOL     OW 2287   0.601   1.936   1.558  0.4449 -0.3193  0.5574
  763SOL    HW1 2288   0.699   1.908   1.561 -0.8594 -0.2616  0.7339
  763SOL    HW2 2289   0.543   1.860   1.598 -1.0592  0.5230 -1.0983
  764SOL     OW 2290   2.703   2.103   2.657 -0.4300  0.1559  0.1345
  764SOL    HW1 2291   2.655   2.008   2.661 -0.7925 -1.0822  1.5673
  764SOL    HW2 2292   2.637   2.177   2.683 -2.2969  1.4591 -1.8178
  765SOL     OW 2293   0.529   2.697   1.119 -0.0716 -0.0682  0.2662
  765SOL    HW1 2294   0.621   2.732   1.093  1.6917  1.0313  0.0013
  765SOL    HW2 2295   0.496   2.634   1.046  0.4311  2.3332 -1.5480
  766SOL     OW 2296   0.033   2.213   2.449 -0.0612 -0.8169  0.2812
  766SOL    HW1 2297   0.088   2.194   2.533 -2.5366  0.0585  0.7627
  766SOL    HW2 2298   0.079   2.195   2.362 -2.5183  0.4029  0.2738
  767SOL     OW 2299   2.282   0.751   2.500 -0.2671 -0.1413  0.1714
  767SOL    HW1 2300   2.256   0.811   2.421  0.5830  1.8964 -0.7560
  767SOL    HW2 2301   2.382   0.738   2.515 -2.4713 -0.0696 -1.1946
  768SOL     OW 2302   1.468   0.175   2.652  0.2876  0.5822 -0.1984
  768SOL    HW1 2303   1.401   0.256   2.641 -0.4028 -0.1351  1.4006
  768SOL    HW2 2304   1.453   0.127   2.741  0.5110 -1.1529  2.4187
  769SOL     OW 2305   3.086   2.561   0.915 -0.4128  0.1525 -0.1216
  769SOL    HW1 2306   0.038   2.566   0.840 -0.3165 -1.3890 -0.3909
  769SOL    HW2 2307   0.010   2.525   1.003  1.4126  2.0402  0.0129
  770SOL     OW 2308   0.682   0.370   3.042  0.6974  0.3617  0.2247
  770SOL    HW1 2309   0.637   0.398   0.011 -0.9625 -2.2644  1.4408
  770SOL    HW2 2310   0.638   0.289   2.997 -0.0543  0.4740 -1.8566
  771SOL     OW 2311   1.477   1.803   2.457  0.7449 -0.0888 -0.0218
  771SOL    HW1 2312   1.486   1.701   2.484 -0.3033  1.6358  3.1988
  771SOL    HW2 2313   1.387   1.810   2.419  1.4104  0.3815  0.4992
  772SOL     OW 2314   1.892   2.817   2.145 -0.0894 -0.4379 -0.0878
  772SOL    HW1 2315   1.953   2.853   2.222  0.8548 -0.3763  2.7552
  772SOL    HW2 2316   1.891   2.879   2.065  0.4546  0.9353  1.3287
  773SOL     OW 2317   1.660   0.637   1.423 -0.6547 -0.0963 -0.2097
  773SOL    HW1 2318   1.610   0.688   1.355  3.7923 -0.9410 -0.6183
  773SOL    HW2 2319   1.600   0.615   1.503 -0.0123  3.2721  1.8998
  774SOL     OW 2320   1.055   0.461   1.120  0.6900 -0.4042  0.4369
  774SOL    HW1 2321   1.155   0.461   1.110 -2.2901 -0.6070  2.1747
  774SOL    HW2 2322   1.026   0.501   1.208  0.3630  1.8330 -0.2401
  775SOL     OW 2323   2.128   2.864   2.938  0.4649 -0.1237  0.0385
  775SOL    HW1 2324   2.042   2.920   2.932  3.6561  1.1002 -0.9216
  775SOL    HW2 2325   2.139   2.801   2.856  1.4687 -4.7324  3.0233
  776SOL     OW 2326   2.098   0.578   1.673  1.1803 -0.1281 -0.1464
  776SOL    HW1 2327   2.005   0.588   1.717 -0.6083 -0.9294 -2.1997
  776SOL    HW2 2328   2.169   0.622   1.730 -1.2427 -3.9051 -0.6844
  777SOL     OW 2329   2.996   1.434   2.240 -0.8131 -0.0758  0.0446
  777SOL    HW1 2330   2.982   1.470   2.334 -3.8815 -0.5448 -0.4622
  777SOL    HW2 2331   2.945   1.487   2.169 -3.0338  0.7356  0.0551
  778SOL     OW 2332   2.802   1.065   2.530 -0.4091  0.1664  0.1709
  778SOL    HW1 2333   2.895   1.105   2.529 -1.2538 -1.5319  0.9249
  778SOL    HW2 2334   2.731   1.135   2.519 -0.8020 -2.1396 -0.9706
  779SOL     OW 2335   0.071   0.734   0.005 -0.9061  0.5270  0.4972
  779SOL    HW1 2336   0.112   0.711   3.026  1.4887 -1.4125 -3.8458
  779SOL    HW2 2337   3.093   0.690   0.011 -2.0114  0.5322 -0.5672
  780SOL     OW 2338   2.433   2.285   2.468  0.0241 -0.8570 -0.1850
  780SOL    HW1 2339   2.507   2.319   2.407 -0.2562  0.0546 -1.3044
  780SOL    HW2 2340   2.348   2.276   2.411 -0.4958  0.6042 -0.6045
  781SOL     OW 2341   2.750   1.099   1.859 -0.4696 -0.4905 -0.1905
  781SOL    HW1 2342   2.797   1.178   1.816  1.1606 -0.9870 -2.3040
  781SOL    HW2 2343   2.730   1.034   1.785 -1.4561 -1.3523 -0.7617
  782SOL     OW 2344   1.187   2.124   2.648  0.5733  0.4781  0.2725
  782SOL    HW1 2345   1.276   2.080   2.628 -1.6327 -0.3300 -0.7746
  782SOL    HW2 2346   1.155   2.111   2.743 -0.7931  0.4978  0.4463
  783SOL     OW 2347   1.016   2.483   1.100  0.5729 -0.0591 -0.3594
  783SOL    HW1 2348   1.082   2.408   1.113 -0.7047  0.1379  3.4919
  783SOL    HW2 2349   1.063   2.571   1.079  0.5082 -1.3949  0.2524
  784SOL     OW 2350   1.935   0.627   2.267 -1.0909 -0.2689  0.3547
  784SOL    HW1 2351   2.003   0.594   2.335  0.0790 -1.0350 -2.5248
  784SOL    HW2 2352   1.837   0.613   2.292  0.6132  0.9552  0.3304
  785SOL     OW 2353   2.900   0.231   1.716  0.1264  0.4870  0.3580
  785SOL    HW1 2354   2.814   0.288   1.722  1.2665  1.6521 -0.5092
  785SOL    HW2 2355   2.898   0.138   1.766  1.5034 -1.7090 -1.0559
  786SOL     OW 2356   1.299   2.430   0.150 -0.7582  0.1891 -0.2015
  786SOL    HW1 2357   1.209   2.388   0.131  1.2613  1.8121 -0.2294
  786SOL    HW2 2358   1.318   2.428   0.250  1.8403  1.1341  0.5551
  787SOL     OW 2359   0.966   3.113   0.883 -0.7391 -0.0270  0.3728
  787SOL    HW1 2360   0.906   0.027   0.807 -0.0959 -1.0673  0.8898
  787SOL    HW2 2361   0.952   0.046   0.971 -0.6658  1.2623 -0.2014
  788SOL     OW 2362   0.002   1.217   0.903 -0.3029  0.6357  0.4505
  788SOL    HW1 2363   3.109   1.318   0.901  0.0094 -1.8022 -0.6155
  788SOL    HW2 2364   0.000   1.180   0.807  1.1725 -1.0431 -3.4086
  789SOL     OW 2365   2.460   0.994   2.215 -0.5819  0.0999  0.0308
  789SOL    HW1 2366   2.360   0.979   2.213  1.6009 -1.0187  1.1476
  789SOL    HW2 2367   2.510   0.908   2.240 -0.6416 -0.8577  1.2803
  790SOL     OW 2368   1.157   0.266   2.883  0.0368 -0.6665 -0.1133
  790SOL    HW1 2369   1.181   0.311   2.795  1.5829  0.9851 -1.7523
  790SOL    HW2 2370   1.055   0.248   2.887 -0.4961  0.7287 -1.2720
  791SOL     OW 2371   0.137   2.903   0.213  0.0552 -0.2902 -0.2607
  791SOL    HW1 2372   0.165   3.000   0.197 -0.8786  1.5653 -0.7554
  791SOL    HW2 2373   0.215   2.840   0.233  1.1382 -2.9837  1.2855
  792SOL     OW 2374   1.562   0.876   1.825  0.6567 -0.2553 -0.3819
  792SOL    HW1 2375   1.575   0.918   1.915 -0.3906  0.1177 -3.0472
  792SOL    HW2 2376   1.464   0.894   1.794 -1.2823 -0.8947 -0.1103
  793SOL     OW 2377   2.944   0.225   1.052  0.3514  0.2387 -0.5704
  793SOL    HW1 2378   3.010   0.246   0.973 -1.4884  0.7346  0.1991
  793SOL    HW2 2379   2.906   0.308   1.099  0.5610 -1.5021  1.6979
  794SOL     OW 2380   0.243   0.068   2.236  0.4168 -0.3189 -0.0247
  794SOL    HW1 2381   0.343   0.064   2.264  0.8776  0.9173  0.0329
  794SOL    HW2 2382   0.229   0.045   2.142 -2.3964 -0.4373  3.2268
  795SOL     OW 2383   0.651   1.714   0.352 -0.4486 -0.1934  0.3705
  795SOL    HW1 2384   0.603   1.628   0.341  1.7240  3.5879 -1.5050
  795SOL    HW2 2385   0.593   1.793   0.312 -1.6502  2.2978 -3.4549
  796SOL     OW 2386   0.026   0.931   2.830 -0.2217  0.2876  0.1404
  796SOL    HW1 2387   0.029   0.900   2.927  1.0729 -0.1821 -2.0477
  796SOL    HW2 2388   3.052   0.917   2.793  3.2784  0.4334  1.1159
  797SOL     OW 2389   2.243   0.023   2.264  0.2476  0.0813  0.1197
  797SOL    HW1 2390   2.189   3.052   2.251 -0.7931  1.9290 -5.1686
  797SOL    HW2 2391   2.332   0.013   2.218 -3.0422  0.8578  1.8050
  798SOL     OW 2392   0.113   2.983   1.180  0.4163  0.3254  0.1204
  798SOL    HW1 2393   0.078   2.919   1.107 -0.5382  0.1954  1.0225
  798SOL    HW2 2394   0.039   3.012   1.246  2.2042  0.5412  1.3718
  799SOL     OW 2395   2.809   0.808   1.728  0.2730 -0.5279  0.4744
  799SOL    HW1 2396   2.886   0.778   1.666 -1.0441  0.4588 -1.8989
  799SOL    HW2 2397   2.751   0.872   1.677 -0.4875  0.3781  2.0480
  800SOL     OW 2398   0.383   1.294   0.601 -0.2286 -0.3500  0.0717
  800SOL    HW1 2399   0.403   1.394   0.583  2.0604 -2.5770  4.2071
  800SOL    HW2 2400   0.438   1.262   0.683  0.3814  2.1899  0.2814
  801SOL     OW 2401   1.813   1.689   0.337 -0.6049  0.4140 -0.2734
  801SOL    HW1 2402   1.778   1.749   0.413 -0.9834 -0.7583  1.0481
  801SOL    HW2 2403   1.784   1.594   0.363 -0.4223 -2.7849  0.4100
  802SOL     OW 2404   1.264   0.975   2.790  0.6357  0.3579  0.3114
  802SOL    HW1 2405   1.266   0.959   2.688  1.1570  0.8488 -0.6563
  802SOL    HW2 2406   1.351   0.961   2.841  1.0165  0.4934 -0.1516
  803SOL     OW 2407   1.113   1.863   1.799 -0.4328 -0.2966 -0.6231
  803SOL    HW1 2408   1.193   1.919   1.766 -1.3437 -1.1372 -0.8618
  803SOL    HW2 2409   1.131   1.802   1.871  0.1938  2.0029 -1.0537
  804SOL     OW 2410   1.714   2.382   0.982  0.1580 -0.1370  0.3188
  804SOL    HW1 2411   1.734   2.289   0.952 -0.0844  1.4121  1.3972
  804SOL    HW2 2412   1.722   2.444   0.904  4.4421  0.8248  0.7083
  805SOL     OW 2413   3.075   2.455   2.435 -0.0341  0.8015  0.1493
  805SOL    HW1 2414   3.085   2.350   2.440 -2.8394 -0.4540 -1.3160
  805SOL    HW2 2415   0.030   2.501   2.380 -2.5851  1.3919 -0.9846
  806SOL     OW 2416   2.883   3.037   0.424  0.2365 -0.1321  0.2861
  806SOL    HW1 2417   2.917   3.064   0.518 -0.7001 -2.3604  0.4832
  806SOL    HW2 2418   2.913   2.940   0.397  2.5507  0.2576 -1.2097
  807SOL     OW 2419   2.491   0.789   2.864 -0.0551  0.6294 -0.1744
  807SOL    HW1 2420   2.529   0.740   2.786  0.2173  3.6836  1.8116
  807SOL    HW2 2421   2.426   0.733   2.921 -1.4350  0.3788 -0.3365
  808SOL     OW 2422   1.234   2.425   0.853  0.1572 -0.3464  0.6553
  808SOL    HW1 2423   1.286   2.511   0.875 -0.6087 -1.4309 -0.4172
  808SOL    HW2 2424   1.219   2.371   0.938 -2.3732 -0.8456 -1.6296
  809SOL     OW 2425   2.794   0.223   2.695 -0.8158 -0.1760  0.0080
  809SOL    HW1 2426   2.880   0.169   2.684 -0.3586  0.0731 -1.0957
  809SOL    HW2 2427   2.770   0.255   2.604  0.4687 -2.1878  1.0247
  810SOL     OW 2428   1.357   1.093   0.750  0.0391  0.6379  0.0541
  810SOL    HW1 2429   1.410   1.176   0.720 -1.4248  1.3639  1.0835
  810SOL    HW2 2430   1.254   1.102   0.730 -3.7283 -1.5176  0.9430
  811SOL     OW 2431   1.812   2.947   1.479 -0.7941  0.2117  0.2716
  811SOL    HW1 2432   1.798   2.974   1.382 -2.9665  0.3555  0.7429
  811SOL    HW2 2433   1.723   2.927   1.522  2.5152  2.2974 -1.7671
  812SOL     OW 2434   1.596   2.905   0.228  0.0257  0.2650  0.1743
  812SOL    HW1 2435   1.595   2.900   0.332  3.0838 -0.6896  2.6387
  812SOL    HW2 2436   1.558   2.815   0.191  0.7183  2.1571  0.0800
  813SOL     OW 2437   1.303   0.420   2.125 -0.0585  0.5189  0.4353
  813SOL    HW1 2438   1.267   0.507   2.167  3.1960 -0.8983 -0.2160
  813SOL    HW2 2439   1.309   0.346   2.198 -0.5918  1.4732 -0.3644
  814SOL     OW 2440   0.329   0.031   1.174 -0.3339  0.4236  0.0309
  814SOL    HW1 2441   0.248   3.092   1.192  0.2323  1.1714  0.3546
  814SOL    HW2 2442   0.400   0.021   1.251 -1.8666 -0.3006  0.8814
  815SOL     OW 2443   0.344   2.852   0.956  0.2841  0.2022 -0.0935
  815SOL    HW1 2444   0.360   2.787   0.884 -1.6498 -0.1746  3.2278
  815SOL    HW2 2445   0.416   2.923   0.965  0.8593  3.6444  1.2697
  816SOL     OW 2446   2.633   1.532   2.572 -0.4794 -0.0566  0.6707
  816SOL    HW1 2447   2.590   1.553   2.656  1.1418 -0.0153 -1.3872
  816SOL    HW2 2448   2.629   1.610   2.508 -1.5028 -1.1147  1.3390
  817SOL     OW 2449   1.549   0.040   3.092  0.4757 -0.2094 -0.2129
  817SOL    HW1 2450   1.576   0.075   0.064  0.9594 -3.0353  0.2055
  817SOL    HW2 2451   1.497   3.071   3.093  0.9706  2.2720  0.2372
  818SOL     OW 2452   1.581   0.838   0.291  0.3272 -0.9137 -0.6057
  818SOL    HW1 2453   1.661   0.781   0.258 -2.0239  1.2793 -0.6685
  818SOL    HW2 2454   1.582   0.837   0.395  0.0735 -1.1554  1.7885
  819SOL     OW 2455   1.874   2.787   2.672  0.6702  0.3779  0.5250
  819SOL    HW1 2456   1.858   2.886   2.663 -2.2558 -3.2082 -1.5002
  819SOL    HW2 2457   1.966   2.754   2.648  1.1287  0.1442 -0.1269
  820SOL     OW 2458   1.383   0.982   0.188 -0.0733  0.1410 -0.2229
  820SOL    HW1 2459   1.456   0.915   0.213 -0.9150  1.3506 -0.7765
  820SOL    HW2 2460   1.384   1.057   0.259  0.7371  0.3599 -2.5926
  821SOL     OW 2461   0.240   0.579   1.439 -0.1511 -0.4468  0.0672
  821SOL    HW1 2462   0.292   0.662   1.458 -1.5660  0.0858 -0.4275
  821SOL    HW2 2463   0.216   0.577   1.339 -0.5282 -2.7175 -0.0321
  822SOL     OW 2464   1.353   2.625   2.148  0.1583  0.6625  0.1406
  822SOL    HW1 2465   1.436   2.672   2.184 -2.7437 -1.7444  0.4657
  822SOL    HW2 2466   1.327   2.547   2.209  0.3773 -1.4179  1.4135
  823SOL     OW 2467   0.661   1.355   2.154  0.6378  0.0546  0.2114
  823SOL    HW1 2468   0.755   1.392   2.158 -0.6696  0.1048 -1.1028
  823SOL    HW2 2469   0.655   1.255   2.135 -1.4706  2.1838 -1.6885
  824SOL     OW 2470   1.948   2.813   1.759 -0.1222 -0.9143 -0.1324
  824SOL    HW1 2471   1.942   2.715   1.778  1.0884 -1.4652  0.3854
  824SOL    HW2 2472   2.020   2.840   1.694  0.4681 -1.4022 -0.1672
  825SOL     OW 2473   0.861   1.382   0.332  0.0065 -0.2118  0.1679
  825SOL    HW1 2474   0.893   1.475   0.318 -2.8467 -1.7030  2.4283
  825SOL    HW2 2475   0.852   1.333   0.246 -0.9733  4.1106 -0.4715
  826SOL     OW 2476   2.121   0.469   2.410  0.1341 -0.0376  0.6020
  826SOL    HW1 2477   2.214   0.487   2.440  1.9083 -1.0980  0.0433
  826SOL    HW2 2478   2.068   0.435   2.490 -0.9308  2.7241 -0.4755
  827SOL     OW 2479   0.459   2.339   2.854 -0.5094 -0.1204  0.0230
  827SOL    HW1 2480   0.536   2.410   2.837  4.9846  0.6959 -2.8236
  827SOL    HW2 2481   0.452   2.283   2.771  1.1032  0.0936 -1.9953
  828SOL     OW 2482   2.816   0.086   1.356 -0.2816 -0.1199 -0.3341
  828SOL    HW1 2483   2.725   0.085   1.316  0.6401  2.2259  0.3088
  828SOL    HW2 2484   2.856   0.179   1.367  0.5303  3.5287  2.4848
  829SOL     OW 2485   1.073   1.592   1.168  0.1986 -0.3148  0.4221
  829SOL    HW1 2486   1.117   1.639   1.248  0.0245 -0.9777  2.2030
  829SOL    HW2 2487   1.112   1.503   1.142 -1.9519  1.3625  1.4664
  830SOL     OW 2488   0.460   1.403   1.888  0.6270  0.0537 -0.6258
  830SOL    HW1 2489   0.479   1.497   1.923 -0.9637  0.7256  0.2285
  830SOL    HW2 2490   0.364   1.401   1.852  1.1220  2.0004  0.3496
  831SOL     OW 2491   0.415   1.952   0.314 -0.5381 -0.3928  0.1074
  831SOL    HW1 2492   0.374   1.911   0.228 -0.5096  1.5431  1.1236
  831SOL    HW2 2493   0.421   2.056   0.310  1.5667  0.7778 -1.4951
  832SOL     OW 2494   0.945   0.038   2.767 -0.3155  0.7738 -0.3351
  832SOL    HW1 2495   0.954   0.015   2.866 -1.2070 -0.4145 -3.4310
  832SOL    HW2 2496   0.921   0.137   2.759  1.7498 -0.8346  2.4512
  833SOL     OW 2497   0.058   0.610   1.894 -0.6146  0.4008  0.9438
  833SOL    HW1 2498   0.084   0.650   1.799 -0.3794 -0.3943 -0.0723
  833SOL    HW2 2499   3.099   0.668   1.936 -0.5967 -0.9808  0.0586
  834SOL     OW 2500   3.101   0.753   1.002 -0.1203  0.0773  0.2323
  834SOL    HW1 2501   0.039   0.791   0.925 -0.1562  0.5275 -1.0397
  834SOL    HW2 2502   3.032   0.687   0.970  1.9420  0.2178 -0.5846
  835SOL     OW 2503   2.762   2.861   1.071  0.1205 -0.0815 -0.6125
  835SOL    HW1 2504   2.825   2.945   1.058 -2.5149  1.5206 -1.2768
  835SOL    HW2 2505   2.769   2.828   1.167 -1.2109  1.2651 -1.7869
  836SOL     OW 2506   0.532   2.063   2.998  0.5496 -0.0409 -0.5140
  836SOL    HW1 2507   0.571   2.040   3.091  1.4261 -0.0016  0.0415
  836SOL    HW2 2508   0.525   2.164   2.990  0.2637  1.0239 -0.0058
  837SOL     OW 2509   1.889   2.233   0.004  0.3280  0.8259 -0.1158
  837SOL    HW1 2510   1.920   2.257   3.026  1.0760  2.0814  0.0736
  837SOL    HW2 2511   1.970   2.198   0.057  1.7551  3.8329  0.1470
  838SOL     OW 2512   2.494   1.114   1.958 -0.5092  0.7154  0.2120
  838SOL    HW1 2513   2.478   1.048   2.035  0.5875  0.7015  0.2519
  838SOL    HW2 2514   2.589   1.116   1.921  0.9840  1.2117 -0.8161
  839SOL     OW 2515   1.106   1.067   0.655  0.1945 -0.0992  0.1477
  839SOL    HW1 2516   1.020   1.012   0.669  0.1126 -1.8374  1.7133
  839SOL    HW2 2517   1.091   1.130   0.576 -2.0056  0.2139  1.1870
  840SOL     OW 2518   1.976   0.552   0.912  0.3505  0.2334  0.1351
  840SOL    HW1 2519   1.979   0.579   0.812  1.4421 -0.4496  0.3709
  840SOL    HW2 2520   1.881   0.537   0.946  3.6638 -0.9331  0.6786
  841SOL     OW 2521   0.634   2.922   0.785 -0.7279 -0.3511 -0.2079
  841SOL    HW1 2522   0.603   2.992   0.846  1.5936 -1.4006 -0.2838
  841SOL    HW2 2523   0.708   2.956   0.726  1.6828  1.1360  0.0636
  842SOL     OW 2524   0.436   0.544   0.407  0.3640 -0.2897  0.1139
  842SOL    HW1 2525   0.467   0.522   0.314  0.3627  0.2422  3.7775
  842SOL    HW2 2526   0.347   0.591   0.406  0.6342  2.3169  1.4782
  843SOL     OW 2527   0.489   0.560   1.831 -0.1055  0.0908 -0.3862
  843SOL    HW1 2528   0.476   0.659   1.800  1.3519  0.1592 -1.0826
  843SOL    HW2 2529   0.410   0.533   1.887  0.5805  1.1925  3.4261
  844SOL     OW 2530   1.641   2.576   3.061 -0.7138  0.2060  0.1741
  844SOL    HW1 2531   1.667   2.582   2.963 -1.1949 -0.1862 -0.9429
  844SOL    HW2 2532   1.605   2.484   3.081  2.5294  2.8643 -0.3328
  845SOL     OW 2533   2.772   2.593   2.278  0.4581 -0.1638 -0.0726
  845SOL    HW1 2534   2.821   2.619   2.191  1.0740 -4.0909 -0.3593
  845SOL    HW2 2535   2.831   2.618   2.359  1.7819 -1.3118 -0.6412
  846SOL     OW 2536   1.664   2.046   2.784  0.5315  0.3027 -0.0784
  846SOL    HW1 2537   1.610   2.076   2.868 -0.8486  0.8090  0.6518
  846SOL    HW2 2538   1.730   1.963   2.794  3.5923 -3.5357  2.3496
  847SOL     OW 2539   2.318   2.703   2.236 -0.1851 -0.4325  0.5261
  847SOL    HW1 2540   2.393   2.747   2.283 -1.6678  1.8408  1.4283
  847SOL    HW2 2541   2.269   2.775   2.182  2.0532 -1.2811  1.8651
  848SOL     OW 2542   0.701   0.256   0.237  0.5519  0.4980 -0.4234
  848SOL    HW1 2543   0.641   0.329   0.208  2.6249  0.2357 -1.8519
  848SOL    HW2 2544   0.757   0.285   0.314  0.9578  1.8316 -0.3719
  849SOL     OW 2545   0.665   2.901   1.440  0.1733  0.3366 -0.1724
  849SOL    HW1 2546   0.682   2.871   1.341  0.4369 -0.8968 -0.7083
  849SOL    HW2 2547   0.742   2.951   1.480  1.7698 -2.6331  0.4758
  850SOL     OW 2548   0.254   1.613   0.390 -0.3235 -0.2833  0.2685
  850SOL    HW1 2549   0.192   1.606   0.312  1.5081 -0.2794  0.9697
  850SOL    HW2 2550   0.230   1.685   0.462  1.0596  3.8271  0.6165
  851SOL     OW 2551   0.199   0.680   2.898  0.4763  0.0269 -0.1373
  851SOL    HW1 2552   0.259   0.609   2.860 -1.2353  1.1875  1.6969
  851SOL    HW2 2553   0.164   0.743   2.828  2.6242 -0.5241  0.6954
  852SOL     OW 2554   1.520   1.926   1.932 -0.0502 -0.1165 -0.4275
  852SOL    HW1 2555   1.507   1.825   1.934 -0.9529 -1.3085 -1.6704
  852SOL    HW2 2556   1.442   1.985   1.960 -0.7086 -0.9880  2.0038
  853SOL     OW 2557   0.696   2.003   0.771  0.0995  0.0073 -0.4544
  853SOL    HW1 2558   0.764   2.021   0.848  0.5359 -1.0308  3.1777
  853SOL    HW2 2559   0.732   2.033   0.682 -2.7976 -0.7947  2.3500
  854SOL     OW 2560   1.553   1.121   1.310  0.0001  0.1252 -0.4259
  854SOL    HW1 2561   1.640   1.122   1.368  0.7279 -2.2594  0.3048
  854SOL    HW2 2562   1.563   1.067   1.226  0.1450  0.8856  1.0012
  855SOL     OW 2563   0.614   2.053   0.131  0.4711 -0.0857 -0.6683
  855SOL    HW1 2564   0.713   2.060   0.129  0.4697 -0.7471  0.8072
  855SOL    HW2 2565   0.574   2.113   0.205 -0.0210  0.5777  4.2787
  856SOL     OW 2566   2.919   3.113   1.840 -0.2157 -0.1700 -0.2814
  856SOL    HW1 2567   3.003   3.053   1.811  4.0635 -1.5611 -1.5868
  856SOL    HW2 2568   2.936   0.036   1.935  3.0405 -1.5294  1.7835
  857SOL     OW 2569   0.267   0.218   1.885 -0.7356  0.4638  0.1497
  857SOL    HW1 2570   0.197   0.232   1.814 -0.4435  0.1448  1.8311
  857SOL    HW2 2571   0.301   0.308   1.916 -0.0994 -0.7528 -0.5481
  858SOL     OW 2572   2.900   2.082   2.171  0.0773 -0.4096 -0.3927
  858SOL    HW1 2573   2.841   2.000   2.180 -1.9034  0.6961 -1.7302
  858SOL    HW2 2574   2.896   2.136   2.255  0.2891 -2.8195  2.9407
  859SOL     OW 2575   2.099   2.887   0.770 -0.5409  0.2968  0.3061
  859SOL    HW1 2576   2.076   2.932   0.683 -0.3351 -2.0512  0.9247
  859SOL    HW2 2577   2.112   2.788   0.751 -0.6276  2.4737 -0.4524
  860SOL     OW 2578   1.993   0.255   0.063  0.5401  0.4088  0.7274
  860SOL    HW1 2579   2.057   0.190   0.017  0.6894 -0.1407  0.4139
  860SOL    HW2 2580   1.935   0.305   3.112 -1.0105  2.4521  0.9309
  861SOL     OW 2581   0.345   0.553   0.734  0.1541  0.2488  0.0998
  861SOL    HW1 2582   0.261   0.601   0.706  2.1795 -2.1227  0.0561
  861SOL    HW2 2583   0.376   0.572   0.830 -1.8539  0.7244 -1.2414
  862SOL     OW 2584   2.213   0.330   1.574  0.7993 -0.2885  0.0248
  862SOL    HW1 2585   2.153   0.299   1.499  0.1903  1.5275  1.2877
  862SOL    HW2 2586   2.191   0.416   1.621  1.0996 -2.1699 -0.7880
  863SOL     OW 2587   0.360   1.470   1.217  0.2240  0.0056  0.0290
  863SOL    HW1 2588   0.438   1.533   1.220 -0.1272 -0.0114 -0.0308
  863SOL    HW2 2589   0.369   1.398   1.287  0.7883 -2.5206 -2.7929
  864SOL     OW 2590   2.459   2.962   1.970 -0.3539  0.8052  0.1144
  864SOL    HW1 2591   2.454   2.976   1.866 -0.2739 -1.2893 -2.7805
  864SOL    HW2 2592   2.513   2.879   1.995 -1.0176  0.0409 -4.1333
  865SOL     OW 2593   1.364   0.399   1.604 -0.2293 -0.0020  0.4379
  865SOL    HW1 2594   1.448   0.342   1.618 -0.8362 -2.6036 -0.0672
  865SOL    HW2 2595   1.335   0.428   1.695  1.9659 -1.3629 -0.6058
  866SOL     OW 2596   2.669   2.839   0.533 -0.2251  0.3327  1.0400
  866SOL    HW1 2597   2.763   2.803   0.545  2.1691 -2.9248  1.5446
  866SOL    HW2 2598   2.628   2.836   0.626  1.8400 -1.1184 -1.5308
  867SOL     OW 2599   2.647   2.431   0.607  0.0031  0.3226 -0.6717
  867SOL    HW1 2600   2.657   2.440   0.710  3.9207  0.0871  0.3871
  867SOL    HW2 2601   2.698   2.497   0.555 -0.7560  0.0418  1.1357
  868SOL     OW 2602   1.439   2.055   2.594 -0.1479 -0.1427  0.4033
  868SOL    HW1 2603   1.452   1.955   2.561  1.9571 -1.9944 -2.3652
  868SOL    HW2 2604   1.518   2.088   2.648 -0.0034  0.4015  0.6339
  869SOL     OW 2605   2.394   1.369   0.494  0.2985 -0.5649 -0.6250
  869SOL    HW1 2606   2.310   1.390   0.438  0.9073 -1.7131 -1.7092
  869SOL    HW2 2607   2.380   1.281   0.540  1.0589  1.0825  1.3368
  870SOL     OW 2608   2.567   1.656   0.273  0.0611  0.1827  0.4715
  870SOL    HW1 2609   2.571   1.574   0.212  2.3330 -0.6208  0.9409
  870SOL    HW2 2610   2.663   1.677   0.296 -0.1803  0.6907 -0.2607
  871SOL     OW 2611   2.985   0.750   1.521  0.1182  0.3070 -0.7180
  871SOL    HW1 2612   3.002   0.792   1.430  2.5301 -0.1196  0.9236
  871SOL    HW2 2613   3.070   0.726   1.574  2.3319 -1.3676  2.4591
  872SOL     OW 2614   0.399   1.877   2.648  0.0180  0.0933 -0.4121
  872SOL    HW1 2615   0.477   1.895   2.713  3.1198  1.2679  2.0462
  872SOL    HW2 2616   0.426   1.829   2.565  1.2067 -1.5303  1.3110
  873SOL     OW 2617   0.478   2.589   1.764  0.0228  0.0097 -0.1906
  873SOL    HW1 2618   0.578   2.594   1.791  0.9918 -0.2918 -3.0034
  873SOL    HW2 2619   0.450   2.686   1.743 -0.5827  1.6336 -2.2644
  874SOL     OW 2620   1.254   1.050   2.184 -0.3038  0.0182  0.4896
  874SOL    HW1 2621   1.257   1.131   2.247  2.4277 -2.0283  0.5553
  874SOL    HW2 2622   1.276   0.963   2.237 -1.6707 -0.6863  0.9300
  875SOL     OW 2623   2.840   2.769   1.334 -0.1094  0.2295 -0.0632
  875SOL    HW1 2624   2.921   2.746   1.391 -0.4381 -0.2022  0.9697
  875SOL    HW2 2625   2.785   2.836   1.391  1.2087 -0.6251  1.5724
  876SOL     OW 2626   0.952   1.302   0.911  0.2380 -1.2588 -0.1168
  876SOL    HW1 2627   0.892   1.220   0.905  0.0381  1.4200  0.5890
  876SOL    HW2 2628   0.894   1.381   0.884 -2.3588  2.1474 -0.2427
  877SOL     OW 2629   0.679   0.473   1.386 -0.4652 -0.0846  0.1916
  877SOL    HW1 2630   0.618   0.457   1.467 -2.0894  1.9219 -2.0617
  877SOL    HW2 2631   0.695   0.388   1.332  1.6182  0.3055 -0.2951
  878SOL     OW 2632   2.674   1.862   2.927 -0.0766 -0.6340  0.2189
  878SOL    HW1 2633   2.761   1.832   2.875  2.5984 -0.7542 -0.4641
  878SOL    HW2 2634   2.602   1.879   2.852  0.3099  3.6558 -0.3695
  879SOL     OW 2635   2.290   2.019   1.440 -0.0425  0.7795 -0.5756
  879SOL    HW1 2636   2.338   2.095   1.492 -1.1178  1.4525  0.4425
  879SOL    HW2 2637   2.217   2.055   1.381  0.1591 -0.4011  0.9612
  880SOL     OW 2638   0.889   2.469   1.348  0.5793 -0.0525  0.6055
  880SOL    HW1 2639   0.959   2.443   1.419  2.7318  0.5150 -1.3261
  880SOL    HW2 2640   0.935   2.477   1.260  0.7534 -0.4443  3.3578
  881SOL     OW 2641   1.138   2.012   1.005  0.2160 -0.4926 -0.0782
  881SOL    HW1 2642   1.211   2.053   0.948  0.1936 -2.8204 -0.5921
  881SOL    HW2 2643   1.139   1.910   0.998 -2.5582  1.9021  2.1844
  882SOL     OW 2644   1.968   1.809   2.479  0.3114  0.0754 -0.2184
  882SOL    HW1 2645   2.023   1.742   2.525 -0.5928  1.7322  0.6278
  882SOL    HW2 2646   2.026   1.860   2.414 -0.5828 -1.2300  0.0672
  883SOL     OW 2647   1.342   0.519   1.120  0.2972  0.0628  0.2210
  883SOL    HW1 2648   1.332   0.598   1.051  0.8837 -0.5957 -1.3561
  883SOL    HW2 2649   1.395   0.436   1.081  1.3545  0.5241  0.7787
  884SOL     OW 2650   0.079   2.830   0.978  0.2872  0.0830 -0.2684
  884SOL    HW1 2651   0.180   2.816   0.956 -0.6605  0.0218 -2.6505
  884SOL    HW2 2652   0.020   2.766   0.931 -2.8419  1.0539 -2.1931
  885SOL     OW 2653   1.010   1.046   2.062 -0.3235 -0.1099 -0.2727
  885SOL    HW1 2654   1.021   1.038   1.961  1.7069 -1.1208 -1.0776
  885SOL    HW2 2655   1.099   1.048   2.112 -1.9939  2.0941 -1.0754
  886SOL     OW 2656   1.025   1.213   3.055  0.2130  1.2766 -0.1063
  886SOL    HW1 2657   0.946   1.220   2.988 -1.1166 -1.8771  0.8017
  886SOL    HW2 2658   1.100   1.261   3.017 -1.0071 -3.7963  1.5524
  887SOL     OW 2659   1.542   0.122   0.730 -0.3499  0.0401  0.1600
  887SOL    HW1 2660   1.601   0.211   0.732  0.1350  3.1740 -1.6819
  887SOL    HW2 2661   1.568   0.049   0.800  2.2892 -1.3833  4.6987
  888SOL     OW 2662   2.246   1.370   2.057  0.1316 -0.1930  0.1793
  888SOL    HW1 2663   2.209   1.277   2.050 -2.1344  0.5079 -0.5213
  888SOL    HW2 2664   2.327   1.389   1.998 -0.1921  0.8007 -0.3361
  889SOL     OW 2665   0.062   2.014   0.927  0.4221  0.1686 -0.4198
  889SOL    HW1 2666   0.071   2.101   0.871 -0.7271 -1.4870  0.0911
  889SOL    HW2 2667   3.101   2.025   0.994 -1.9601  3.2847  0.1040
  890SOL     OW 2668   1.346   2.459   0.429  0.1954  0.4309  0.2187
  890SOL    HW1 2669   1.286   2.381   0.445  2.0118  1.8396  1.7655
  890SOL    HW2 2670   1.292   2.549   0.444 -0.2696  2.2141 -2.4061
  891SOL     OW 2671   2.833   0.463   2.262 -0.7496 -0.0200 -0.1985
  891SOL    HW1 2672   2.838   0.436   2.166 -0.2716  1.1023  3.3211
  891SOL    HW2 2673   2.923   0.503   2.281 -0.3652  1.8441  0.6123
  892SOL     OW 2674   0.081   2.351   1.479 -0.0911 -0.0521 -0.3207
  892SOL    HW1 2675   0.158   2.331   1.413  0.2340  2.5538 -1.2538
  892SOL    HW2 2676   0.012   2.271   1.488  0.0524 -0.8748 -1.2985
  893SOL     OW 2677   1.093   0.331   1.565  0.4203  0.1126  0.6089
  893SOL    HW1 2678   1.196   0.335   1.563  2.3525 -1.4597  0.7239
  893SOL    HW2 2679   1.065   0.370   1.656 -0.4468  1.3197  3.3056
  894SOL     OW 2680   2.950   3.066   1.048 -0.1702 -0.5408 -0.2716
  894SOL    HW1 2681   2.949   0.045   1.070 -1.1872  0.2895 -2.0119
  894SOL    HW2 2682   3.009   3.048   0.971  0.6293  0.6334  1.8052
  895SOL     OW 2683   1.725   1.920   2.423  0.2321  0.2798 -0.0005
  895SOL    HW1 2684   1.802   1.851   2.425  2.2054 -1.7134  1.5088
  895SOL    HW2 2685   1.634   1.871   2.432  0.6312  1.6903  3.6502
  896SOL     OW 2686   1.889   0.538   1.276  0.2341  0.0738 -0.6122
  896SOL    HW1 2687   1.816   0.598   1.314 -0.0790  0.3551 -0.9516
  896SOL    HW2 2688   1.982   0.571   1.307  0.9385 -1.2482  0.1839
  897SOL     OW 2689   0.520   1.669   1.893  0.4676 -0.5475 -0.4003
  897SOL    HW1 2690   0.612   1.711   1.877 -0.3952 -1.0433 -1.3280
  897SOL    HW2 2691   0.477   1.705   1.980 -0.5420  0.8147  0.6289
  898SOL     OW 2692   1.836   2.218   2.139  0.0890  0.1162  0.1294
  898SOL    HW1 2693   1.861   2.129   2.090 -0.7662 -1.8062 -0.8063
  898SOL    HW2 2694   1.894   2.223   2.224  1.1362  2.3563  1.3748
  899SOL     OW 2695   1.523   2.229   0.738 -0.2152 -0.5321  0.1009
  899SOL    HW1 2696   1.509   2.327   0.707 -1.3259 -2.3800 -0.8278
  899SOL    HW2 2697   1.605   2.195   0.686 -0.9392 -1.7004  3.7621
  900SOL     OW 2698   0.835   3.051   2.409 -0.9488 -0.0735  0.1710
  900SOL    HW1 2699   0.787   3.068   2.499  0.6190 -2.2652 -1.1889
  900SOL    HW2 2700   0.875   0.019   2.368 -1.5434  1.6905 -1.2219
  901SOL     OW 2701   1.174   1.490   2.219  0.0227 -1.0422 -0.1529
  901SOL    HW1 2702   1.088   1.491   2.156  1.9936 -1.3493 -0.7377
  901SOL    HW2 2703   1.155   1.489   2.322 -0.2872  1.6265  0.9018
  902SOL     OW 2704   2.103   0.737   3.061 -0.2938 -0.3974  0.6067
  902SOL    HW1 2705   2.048   0.814   3.024 -1.8942  2.2715 -1.3352
  902SOL    HW2 2706   2.066   0.715   0.033  1.4474 -0.2221 -2.6522
  903SOL     OW 2707   1.915   0.974   2.543 -0.2343 -0.0408  0.1807
  903SOL    HW1 2708   2.014   0.989   2.520 -0.5650  0.0060 -1.5582
  903SOL    HW2 2709   1.864   0.993   2.456 -0.0324  1.8487  1.9365
  904SOL     OW 2710   1.864   1.215   1.805 -0.3124  0.1034  0.4490
  904SOL    HW1 2711   1.880   1.182   1.710  1.1151 -0.1140  4.4143
  904SOL    HW2 2712   1.781   1.269   1.814 -0.7472 -0.6350  2.3903
  905SOL     OW 2713   2.637   0.458   0.852 -0.1663 -0.4972 -0.7072
  905SOL    HW1 2714   2.536   0.460   0.869  3.1786 -2.4984 -0.0759
  905SOL    HW2 2715   2.666   0.363   0.875 -2.1655  0.3199  0.9787
  906SOL     OW 2716   3.066   1.415   0.575  0.3726 -0.1329  0.0545
  906SOL    HW1 2717   3.043   1.470   0.658 -0.6002 -1.5114 -1.3987
  906SOL    HW2 2718   2.984   1.403   0.515 -4.2569 -0.8488  0.9514
  907SOL     OW 2719   1.294   0.213   0.689  0.1272  0.2512  0.7531
  907SOL    HW1 2720   1.296   0.306   0.737  1.7629  1.6342  3.0136
  907SOL    HW2 2721   1.388   0.168   0.691  0.4916 -0.2356 -1.8665
  908SOL     OW 2722   1.352   2.808   1.935  0.2319  0.5198 -0.1786
  908SOL    HW1 2723   1.341   2.744   2.009 -0.3801  1.1325 -0.9631
  908SOL    HW2 2724   1.399   2.764   1.857 -1.3885 -1.1070  0.8040
  909SOL     OW 2725   2.634   0.992   1.644 -0.1599  0.1564  0.0323
  909SOL    HW1 2726   2.534   0.978   1.671  0.9828 -0.4617  1.9892
  909SOL    HW2 2727   2.652   1.054   1.563 -3.7428  0.7525 -1.3297
  910SOL     OW 2728   1.179   0.135   2.482  0.7627  0.2082  0.1357
  910SOL    HW1 2729   1.097   0.142   2.422  0.4712  0.5262  3.3592
  910SOL    HW2 2730   1.175   0.055   2.539 -1.6857  3.6623  0.0047
  911SOL     OW 2731   2.347   1.569   2.461 -0.1187 -0.5993 -0.1886
  911SOL    HW1 2732   2.344   1.592   2.359  1.3017  0.8710 -1.9831
  911SOL    HW2 2733   2.389   1.479   2.470  1.6640  0.8263  2.0980
  912SOL     OW 2734   2.615   2.220   1.240  0.0606 -0.5982 -0.5484
  912SOL    HW1 2735   2.638   2.162   1.321  0.1227 -0.7300  0.2680
  912SOL    HW2 2736   2.610   2.321   1.258 -0.7659 -0.9378 -0.0512
  913SOL     OW 2737   2.681   1.990   1.839 -0.2263 -0.8155  0.0764
  913SOL    HW1 2738   2.672   2.060   1.909  0.8117 -0.7534 -2.4819
  913SOL    HW2 2739   2.590   1.953   1.813 -1.2036 -0.7825  1.6422
  914SOL     OW 2740   2.034   2.008   0.877  0.1665 -0.3361 -0.2513
  914SOL    HW1 2741   2.117   2.054   0.918  0.4336  1.3403  0.8362
  914SOL    HW2 2742   2.042   1.979   0.781 -0.9570 -1.6861 -1.0558
  915SOL     OW 2743   1.121   2.550   2.018  0.5659  0.1418  0.0079
  915SOL    HW1 2744   1.064   2.633   2.008  1.5669  0.6537 -2.0689
  915SOL    HW2 2745   1.198   2.567   2.086  0.1429  2.0095  1.5880
  916SOL     OW 2746   0.100   2.219   0.726 -0.3562  0.2079 -0.0327
  916SOL    HW1 2747   0.188   2.275   0.741  2.3368  1.1295  0.7224
  916SOL    HW2 2748   0.112   2.156   0.649 -1.0880 -0.3973 -1.0600
  917SOL     OW 2749   2.712   0.931   2.939  0.0853  0.8517  0.2820
  917SOL    HW1 2750   2.621   0.886   2.922 -1.7646  0.3750  0.5336
  917SOL    HW2 2751   2.784   0.897   2.872  0.5956  0.5997 -1.4771
  918SOL     OW 2752   1.574   2.097   2.256 -0.0678 -0.1501  0.1050
  918SOL    HW1 2753   1.639   2.126   2.181 -2.4599  2.3116 -3.3608
  918SOL    HW2 2754   1.618   2.021   2.305 -0.1740  0.0602  1.8904
  919SOL     OW 2755   1.793   2.128   0.949 -0.6972  0.0054  0.2159
  919SOL    HW1 2756   1.734   2.048   0.969  0.4542  2.4093 -0.3000
  919SOL    HW2 2757   1.882   2.110   0.899  3.2147  1.5619 -0.2860
  920SOL     OW 2758   1.237   0.340   2.629 -0.1241 -0.2528  0.6986
  920SOL    HW1 2759   1.205   0.263   2.575  1.0564 -2.7149  0.3640
  920SOL    HW2 2760   1.231   0.426   2.576  2.0806  0.4136 -3.2973
  921SOL     OW 2761   0.133   0.650   2.613 -0.1031 -0.6759  0.2631
  921SOL    HW1 2762   0.221   0.694   2.610 -0.3161 -1.4497 -1.9316
  921SOL    HW2 2763   0.145   0.563   2.560  1.6264 -0.3591 -2.2100
  922SOL     OW 2764   2.829   1.920   1.492  0.3568  0.3640  0.0694
  922SOL    HW1 2765   2.924   1.887   1.516 -0.3943  0.1098  0.1899
  922SOL    HW2 2766   2.816   1.927   1.392 -0.8099  1.2002  2.0538
  923SOL     OW 2767   0.141   1.735   2.750 -0.7944 -0.1136  0.3325
  923SOL    HW1 2768   0.068   1.801   2.766  1.0844 -3.6591  1.9574
  923SOL    HW2 2769   0.233   1.783   2.738 -0.7463  0.6574 -1.4126
  924SOL     OW 2770   1.675   0.542   2.128  0.2361 -0.2545  0.2268
  924SOL    HW1 2771   1.651   0.487   2.212 -0.0119 -2.2884  1.7624
  924SOL    HW2 2772   1.619   0.625   2.121  0.4503  0.2111 -1.2915
  925SOL     OW 2773   0.125   0.985   0.071  0.2400  0.2111  0.6311
  925SOL    HW1 2774   0.112   0.884   0.047 -0.1048 -0.7352 -0.2330
  925SOL    HW2 2775   0.031   1.027   0.076 -0.8753  1.3229  1.1406
  926SOL     OW 2776   2.702   0.181   0.903  0.1498 -0.6450  0.0311
  926SOL    HW1 2777   2.780   0.179   0.969  0.8718  0.8940 -0.8554
  926SOL    HW2 2778   2.653   0.091   0.886  2.7950 -2.4432  1.3652
  927SOL     OW 2779   1.140   0.934   0.939  0.3859  0.0929 -0.3221
  927SOL    HW1 2780   1.196   1.003   0.890 -0.7982 -0.8172 -2.3305
  927SOL    HW2 2781   1.052   0.913   0.890  0.1227 -0.6573  0.9146
  928SOL     OW 2782   2.996   0.109   2.086  0.3216  0.0501  0.6442
  928SOL    HW1 2783   2.937   0.107   2.170 -0.1111  0.6347 -1.7804
  928SOL    HW2 2784   3.025   0.201   2.052 -0.2671  0.9584 -1.7513
  929SOL     OW 2785   2.362   0.820   1.357  0.3822  0.4395 -0.4977
  929SOL    HW1 2786   2.424   0.866   1.290  1.2306 -0.8871  0.5321
  929SOL    HW2 2787   2.419   0.755   1.411  1.3480 -0.1617  0.2177
  930SOL     OW 2788   1.951   2.638   0.972  0.3940  0.2864 -0.2385
  930SOL    HW1 2789   1.874   2.659   0.905 -2.4040 -0.4512 -2.8665
  930SOL    HW2 2790   2.019   2.713   0.964 -0.6089  1.5820  0.1281
  931SOL     OW 2791   1.990   0.941   1.279 -0.4463 -0.2570  0.4478
  931SOL    HW1 2792   1.982   0.877   1.203 -0.0539  1.7797  2.4902
  931SOL    HW2 2793   2.060   1.017   1.262 -0.0683  2.4530 -0.6374
  932SOL     OW 2794   0.005   0.866   1.280  0.3241 -0.1297  0.2303
  932SOL    HW1 2795   0.009   0.971   1.269 -1.2398  2.6845 -5.2764
  932SOL    HW2 2796   0.005   0.827   1.188  1.2369  2.1771  1.1695
  933SOL     OW 2797   2.079   1.686   2.122 -0.1851  0.1216  0.1755
  933SOL    HW1 2798   2.051   1.610   2.179  1.6370  0.9358  1.2567
  933SOL    HW2 2799   2.027   1.676   2.034  0.5857 -1.0287 -0.9988
  934SOL     OW 2800   1.506   2.793   1.534 -0.8120  0.1787 -0.2756
  934SOL    HW1 2801   1.545   2.769   1.441 -0.0554 -0.1549 -2.8948
  934SOL    HW2 2802   1.490   2.895   1.535  3.6578  0.1187  0.3196
  935SOL     OW 2803   0.390   0.791   1.490 -0.2386 -0.2619 -0.1579
  935SOL    HW1 2804   0.354   0.876   1.444  1.5625  1.8489  0.3908
  935SOL    HW2 2805   0.439   0.812   1.576  0.2931 -2.9008 -0.5796
  936SOL     OW 2806   2.549   0.610   1.173 -0.1264  0.3405  0.0916
  936SOL    HW1 2807   2.471   0.555   1.217 -0.4195 -1.0933  0.7759
  936SOL    HW2 2808   2.634   0.600   1.228 -0.1683 -2.1494  0.1692
  937SOL     OW 2809   0.948   0.147   1.439 -0.3414  0.1202 -0.5147
  937SOL    HW1 2810   0.865   0.189   1.392  0.4344 -0.5634 -0.4874
  937SOL    HW2 2811   1.003   0.213   1.492  0.7426 -1.3299 -0.9678
  938SOL     OW 2812   2.912   2.269   0.685  0.1311 -0.1079 -0.2018
  938SOL    HW1 2813   2.848   2.332   0.736 -1.6730  4.4126 -0.7626
  938SOL    HW2 2814   3.005   2.255   0.718  0.4817 -0.9169  2.0269
  939SOL     OW 2815   3.050   1.921   2.690  0.1358  0.4889 -0.5026
  939SOL    HW1 2816   3.094   1.913   2.599 -1.9452  1.4702  0.6915
  939SOL    HW2 2817   3.072   2.003   2.746  2.4985 -0.0984 -2.0520
  940SOL     OW 2818   1.931   2.305   2.874  0.3088 -0.1476  0.6534
  940SOL    HW1 2819   1.842   2.353   2.843 -2.1037  2.1552 -1.9109
  940SOL    HW2 2820   1.960   2.232   2.810  0.4493  1.8439  2.1022
  941SOL     OW 2821   1.550   2.791   0.506 -0.0903  0.1117 -0.5004
  941SOL    HW1 2822   1.456   2.794   0.471  2.2974 -0.3095 -1.0602
  941SOL    HW2 2823   1.578   2.700   0.545  2.2363 -1.6994 -0.9798
  942SOL     OW 2824   1.640   1.803   1.222  0.1281 -0.5646 -0.1677
  942SOL    HW1 2825   1.743   1.794   1.230  1.2727 -0.5916 -0.9624
  942SOL    HW2 2826   1.608   1.868   1.146  1.0951  2.0382 -0.1228
  943SOL     OW 2827   2.034   0.843   1.882 -0.2618  0.2859  0.8311
  943SOL    HW1 2828   1.997   0.852   1.787 -0.1537  0.6135  1.7722
  943SOL    HW2 2829   2.132   0.818   1.882  3.9090  0.4835 -1.3598
  944SOL     OW 2830   1.812   0.525   1.735 -0.1102  0.5376  0.3193
  944SOL    HW1 2831   1.726   0.552   1.694 -1.0793 -2.0634  0.6917
  944SOL    HW2 2832   1.839   0.438   1.688  0.6836 -0.8164  1.3568
  945SOL     OW 2833   2.679   2.513   1.265  0.6167 -0.4407 -0.5904
  945SOL    HW1 2834   2.577   2.542   1.275 -2.9929  1.4169 -0.6919
  945SOL    HW2 2835   2.736   2.591   1.241 -1.4711 -2.9404 -1.0174
  946SOL     OW 2836   0.361   1.280   1.402  0.1204 -0.7472 -0.2821
  946SOL    HW1 2837   0.296   1.276   1.478  0.5323  0.6264 -1.3684
  946SOL    HW2 2838   0.375   1.185   1.372 -1.1698  2.9550 -1.4854
  947SOL     OW 2839   0.688   2.475   0.761  0.4063 -0.1372  0.1050
  947SOL    HW1 2840   0.618   2.496   0.837 -0.7811  1.3512 -0.8251
  947SOL    HW2 2841   0.650   2.479   0.670  2.9406  0.8461  1.7493
  948SOL     OW 2842   0.062   1.510   1.810 -0.0407 -0.1164 -0.4474
  948SOL    HW1 2843   0.095   1.488   1.903 -1.0482 -0.2310 -1.8112
  948SOL    HW2 2844   0.100   1.602   1.784 -0.5387  0.4039  2.5945
  949SOL     OW 2845   0.619   0.826   2.343  0.8582  0.5885  0.2175
  949SOL    HW1 2846   0.675   0.910   2.371  0.3950  1.7575 -1.2979
  949SOL    HW2 2847   0.537   0.864   2.295 -2.0497 -0.4796 -1.6108
  950SOL     OW 2848   0.162   0.544   1.189  0.2421  0.1971 -0.1719
  950SOL    HW1 2849   0.098   0.597   1.134 -0.1413  1.7714  0.1000
  950SOL    HW2 2850   0.163   0.447   1.151  0.1982 -1.6142 -0.1313
  951SOL     OW 2851   1.230   1.855   2.337  0.1696 -0.0936 -0.3096
  951SOL    HW1 2852   1.181   1.785   2.400 -0.7752  1.5691  0.5025
  951SOL    HW2 2853   1.170   1.873   2.252 -0.9141  1.2168 -4.2734
  952SOL     OW 2854   1.172   1.682   0.088 -0.3825  0.4010 -0.1190
  952SOL    HW1 2855   1.269   1.713   0.057  0.4710  1.3066 -1.1074
  952SOL    HW2 2856   1.174   1.590   0.131 -1.0269  0.6175  0.7690
  953SOL     OW 2857   1.187   3.061   2.676 -0.2159 -0.1683 -0.2612
  953SOL    HW1 2858   1.085   3.084   2.686  0.6804  0.9690 -0.9573
  953SOL    HW2 2859   1.244   3.098   2.755  0.8240  1.4289  0.1992
  954SOL     OW 2860   2.168   1.440   0.367 -0.0470 -0.3457 -0.5795
  954SOL    HW1 2861   2.096   1.468   0.433 -1.2114  0.3291  0.8789
  954SOL    HW2 2862   2.132   1.395   0.279 -0.6384 -1.7080 -0.9204
  955SOL     OW 2863   0.340   2.643   2.982  0.0915  0.0271 -0.0846
  955SOL    HW1 2864   0.348   2.724   2.922 -0.9646 -2.1234 -0.0083
  955SOL    HW2 2865   0.308   2.566   2.924  0.1269  2.4618 -0.5900
  956SOL     OW 2866   1.335   0.965   1.697  0.0137  0.2690  0.0036
  956SOL    HW1 2867   1.301   0.873   1.676  1.2785  3.4737  0.2525
  956SOL    HW2 2868   1.327   1.020   1.616 -0.3479  0.0867 -0.8793
  957SOL     OW 2869   1.913   1.619   1.912 -0.2017  0.2026  0.3754
  957SOL    HW1 2870   1.853   1.551   1.952  2.3731  0.0924 -0.5694
  957SOL    HW2 2871   1.864   1.685   1.848  1.2276  0.8008 -0.6557
  958SOL     OW 2872   1.537   2.344   1.402  0.2127 -0.0399 -0.0791
  958SOL    HW1 2873   1.457   2.407   1.382  0.7932 -0.3482  0.6961
  958SOL    HW2 2874   1.618   2.372   1.350  0.5832  0.3510 -1.2963
  959SOL     OW 2875   1.156   1.734   1.369 -0.3156 -0.3981 -0.1973
  959SOL    HW1 2876   1.181   1.819   1.320 -0.0085 -3.4138 -0.4041
  959SOL    HW2 2877   1.222   1.724   1.446 -0.3346 -0.3199  0.0592
  960SOL     OW 2878   0.132   1.237   2.934 -0.8386  0.1936 -0.3974
  960SOL    HW1 2879   0.090   1.159   2.885  1.3493 -1.3056 -1.2389
  960SOL    HW2 2880   0.152   1.303   2.859  0.4433 -2.3451  0.4261
  961SOL     OW 2881   0.386   0.961   2.243  0.4959  0.4247  0.0034
  961SOL    HW1 2882   0.370   1.021   2.325 -0.4175  0.4892  1.5331
  961SOL    HW2 2883   0.381   1.018   2.157 -0.0636 -3.4372  2.4332
  962SOL     OW 2884   1.390   1.926   0.584 -0.6801  0.3614 -0.0579
  962SOL    HW1 2885   1.296   1.944   0.623  1.6217  1.1576 -0.0714
  962SOL    HW2 2886   1.426   1.844   0.635 -0.2404  0.4420 -2.4591
  963SOL     OW 2887   1.266   2.382   2.581 -0.5243 -0.7567 -0.2894
  963SOL    HW1 2888   1.237   2.416   2.486 -0.3179 -0.5934 -1.3529
  963SOL    HW2 2889   1.244   2.282   2.582  1.0775 -0.7458 -1.0572
  964SOL     OW 2890   0.791   2.912   0.110  0.2739  0.2786 -0.1938
  964SOL    HW1 2891   0.719   2.892   0.175  1.5084 -1.0585  0.1781
  964SOL    HW2 2892   0.792   3.013   0.089 -0.4982 -0.3514 -1.3103
  965SOL     OW 2893   0.512   3.080   0.985 -0.0490 -0.6704  0.0182
  965SOL    HW1 2894   0.592   0.029   0.982 -0.0726 -1.4516 -0.9272
  965SOL    HW2 2895   0.452   0.004   1.055 -1.1242 -0.8962  0.6658
  966SOL     OW 2896   0.336   1.595   2.988 -0.3759 -0.5403  0.5404
  966SOL    HW1 2897   0.342   1.538   3.073 -1.9973  0.3951 -2.5974
  966SOL    HW2 2898   0.242   1.582   2.951  0.0848  1.9205  0.1694
  967SOL     OW 2899   1.019   2.849   2.474 -0.4236  0.0233 -0.3940
  967SOL    HW1 2900   0.959   2.929   2.461  0.0259 -1.4897  0.0296
  967SOL    HW2 2901   1.112   2.853   2.430  0.2148  0.6461 -4.7269
  968SOL     OW 2902   2.100   0.449   0.230  0.2486  0.2995  0.4688
  968SOL    HW1 2903   2.060   0.376   0.171  0.4284  1.5087  2.6704
  968SOL    HW2 2904   2.052   0.539   0.226 -1.1821  1.2237  1.2200
  969SOL     OW 2905   0.117   1.839   2.229 -0.5622 -0.2183 -0.6326
  969SOL    HW1 2906   0.047   1.828   2.153  0.9553 -1.6941  3.9876
  969SOL    HW2 2907   0.138   1.749   2.269 -0.4395 -0.1193 -0.2208
  970SOL     OW 2908   2.154   1.407   1.234 -0.5295 -0.0645 -0.2039
  970SOL    HW1 2909   2.156   1.412   1.130  0.9900 -0.5030 -0.3954
  970SOL    HW2 2910   2.214   1.479   1.270  2.8871 -2.9958  1.0555
  971SOL     OW 2911   1.936   0.134   1.111 -0.1692 -0.5504  0.2896
  971SOL    HW1 2912   1.980   0.196   1.045 -0.1578 -3.5564 -0.0115
  971SOL    HW2 2913   1.933   0.038   1.065  0.5103 -2.8233  1.2382
  972SOL     OW 2914   0.165   0.006   1.580  0.5419  0.1316 -0.2040
  972SOL    HW1 2915   0.123   0.094   1.612  0.1229  0.7709  1.2984
  972SOL    HW2 2916   0.114   3.092   1.500  2.3694  0.6689 -0.3053
  973SOL     OW 2917   2.728   0.840   0.318  0.0512  0.8636 -0.0198
  973SOL    HW1 2918   2.717   0.839   0.220  2.4571  0.0947  1.0171
  973SOL    HW2 2919   2.689   0.926   0.358 -1.2665 -2.0707 -2.1027
  974SOL     OW 2920   1.789   1.529   2.441 -0.2208 -0.1543  0.1046
  974SOL    HW1 2921   1.810   1.610   2.495 -1.1029  0.3681  1.3620
  974SOL    HW2 2922   1.766   1.552   2.345 -2.4372 -0.6362 -1.7566
  975SOL     OW 2923   0.213   2.706   1.457  0.4974  0.5178 -0.5052
  975SOL    HW1 2924   0.248   2.700   1.362  0.4030  0.8282  1.8684
  975SOL    HW2 2925   0.124   2.753   1.457 -0.8382 -1.5410  0.5757
  976SOL     OW 2926   0.435   2.011   1.851  0.1082 -0.6426 -0.4833
  976SOL    HW1 2927   0.387   2.101   1.854  0.1252  0.6216  2.2310
  976SOL    HW2 2928   0.421   1.963   1.940 -0.3607  0.4449 -1.1441
  977SOL     OW 2929   0.787   2.628   3.105  0.1732 -0.2038 -0.5207
  977SOL    HW1 2930   0.884   2.659   0.004  0.0512  0.4189 -1.6680
  977SOL    HW2 2931   0.758   2.674   3.021  1.8239  2.5403  0.0387
  978SOL     OW 2932   0.328   1.879   2.957 -0.4241 -0.7233 -0.2117
  978SOL    HW1 2933   0.410   1.932   2.945  0.5920 -0.4299  1.4018
  978SOL    HW2 2934   0.347   1.780   2.957  0.2121  0.8148 -2.3271
  979SOL     OW 2935   1.728   2.447   1.240  0.0165 -0.2041  0.1590
  979SOL    HW1 2936   1.790   2.534   1.245  2.3129  3.2628 -2.3332
  979SOL    HW2 2937   1.747   2.400   1.151  1.6037  0.2176 -1.6925
  980SOL     OW 2938   0.895   1.862   2.797 -0.2500  0.2217 -0.3474
  980SOL    HW1 2939   0.949   1.790   2.840  0.2957 -0.7713 -0.3437
  980SOL    HW2 2940   0.942   1.920   2.726  1.6447  2.1627  1.4119
  981SOL     OW 2941   2.703   3.043   2.424  0.0316 -0.4468 -0.4904
  981SOL    HW1 2942   2.649   3.060   2.334  0.1966  2.2400 -2.5521
  981SOL    HW2 2943   2.648   3.049   2.508  2.1351 -0.5108 -0.9612
  982SOL     OW 2944   0.149   2.865   2.518 -0.0412  0.0060  0.1630
  982SOL    HW1 2945   0.145   2.959   2.551  1.1248 -0.5525  0.7083
  982SOL    HW2 2946   0.054   2.833   2.493  0.0715  1.9405  1.5485
  983SOL     OW 2947   2.301   1.416   1.683 -0.0684 -0.4729  0.3362
  983SOL    HW1 2948   2.363   1.434   1.763 -0.5152 -1.3597 -3.3300
  983SOL    HW2 2949   2.201   1.421   1.694 -1.4874 -1.5552  1.5480
  984SOL     OW 2950   1.426   0.495   1.878 -0.1282 -0.1966 -0.5153
  984SOL    HW1 2951   1.370   0.460   1.957  1.1481  0.4902 -1.7427
  984SOL    HW2 2952   1.525   0.488   1.895  1.0861  0.4131  1.3116
  985SOL     OW 2953   1.681   1.599   2.202  0.1673  0.4698  0.0632
  985SOL    HW1 2954   1.591   1.559   2.172  1.3946  1.3387  0.9750
  985SOL    HW2 2955   1.691   1.694   2.163 -0.3958 -0.9132  1.6649
  986SOL     OW 2956   1.810   0.381   1.968 -0.1329  0.2836  0.0001
  986SOL    HW1 2957   1.814   0.440   1.886 -0.3469  1.0990  1.5311
  986SOL    HW2 2958   1.770   0.443   2.041  1.3549  3.9942 -0.1268
  987SOL     OW 2959   2.283   0.750   1.828 -0.4113 -0.1985 -0.1851
  987SOL    HW1 2960   2.359   0.684   1.847  0.2942 -0.6228  0.2715
  987SOL    HW2 2961   2.334   0.827   1.780 -0.2778 -0.2052 -1.5729
  988SOL     OW 2962   2.683   0.662   2.380 -0.4089  0.0963  0.0923
  988SOL    HW1 2963   2.735   0.594   2.327 -1.2944 -0.2791 -0.5422
  988SOL    HW2 2964   2.701   0.757   2.342 -2.5077 -0.5242  0.2995
  989SOL     OW 2965   2.312   2.517   2.824 -0.2209  0.3737  0.1220
  989SOL    HW1 2966   2.283   2.447   2.755 -1.9616  1.2708  0.3532
  989SOL    HW2 2967   2.281   2.490   2.918  0.0393 -2.4810 -1.1961
  990SOL     OW 2968   0.975   0.525   2.697  0.7452  0.4386  0.0561
  990SOL    HW1 2969   0.948   0.439   2.746  0.9059 -1.7737 -0.1567
  990SOL    HW2 2970   0.898   0.583   2.669  1.3234  0.2877  2.5139
  991SOL     OW 2971   1.269   0.566   0.304 -0.0178 -0.3664  0.1603
  991SOL    HW1 2972   1.258   0.651   0.247 -1.3625  3.0298  0.9813
  991SOL    HW2 2973   1.239   0.484   0.249  2.1162 -1.6138 -2.9385
  992SOL     OW 2974   2.562   2.289   2.772 -0.6071  0.5240  0.3936
  992SOL    HW1 2975   2.463   2.284   2.767  3.4364 -0.7034 -0.5620
  992SOL    HW2 2976   2.600   2.370   2.727  0.0921 -1.5027  0.0358
  993SOL     OW 2977   0.203   0.248   0.265 -0.1874  0.1254 -0.4370
  993SOL    HW1 2978   0.182   0.306   0.181 -1.1549 -0.2243 -1.9946
  993SOL    HW2 2979   0.132   0.265   0.338 -0.7549  1.2709  1.3623
  994SOL     OW 2980   0.291   2.189   1.608  0.1183  0.0233 -0.2998
  994SOL    HW1 2981   0.253   2.173   1.701 -3.2912 -0.9003  0.3828
  994SOL    HW2 2982   0.286   2.287   1.590 -1.0619 -1.3805  0.3566
  995SOL     OW 2983   1.964   1.618   2.877 -0.2852  0.4819 -0.0267
  995SOL    HW1 2984   2.015   1.640   2.966 -0.7587  1.7604 -0.7432
  995SOL    HW2 2985   1.967   1.516   2.859  0.1281 -1.6592  1.3452
  996SOL     OW 2986   1.455   1.667   2.867 -0.7288  0.2359 -0.5209
  996SOL    HW1 2987   1.544   1.631   2.834  1.4595 -0.2605  0.6638
  996SOL    HW2 2988   1.473   1.756   2.911  1.8620 -0.2808  0.0449
  997SOL     OW 2989   1.736   0.986   1.121 -0.4908 -0.0206 -0.2563
  997SOL    HW1 2990   1.740   1.070   1.067 -1.3496 -2.6045 -0.5301
  997SOL    HW2 2991   1.833   0.959   1.139  2.1769  1.9198 -0.4567
  998SOL     OW 2992   2.547   1.422   0.133 -0.1650 -0.0879  0.0291
  998SOL    HW1 2993   2.561   1.320   0.153 -3.1851  0.3939 -2.1489
  998SOL    HW2 2994   2.594   1.454   0.049 -0.9028  0.7355  3.6036
  999SOL     OW 2995   3.088   2.326   0.227  0.5976 -0.5003  0.3141
  999SOL    HW1 2996   3.052   2.376   0.305  0.2662  1.2722 -2.2744
  999SOL    HW2 2997   3.084   2.391   0.148  0.2301 -0.0845 -0.4036
 1000SOL     OW 2998   0.585   3.013   2.077  0.0194  0.6341  0.2597
 1000SOL    HW1 2999   0.496   3.003   2.023 -1.7335 -0.3221  0.3350
 1000SOL    HW2 3000   0.662   3.054   2.025  1.2413  0.9119 -0.0301
   3.11713   3.11713   3.11713
