1000 SPC/Fw water molecules t= 273.00000 step= 273000
 3000
    1SOL     OW    1   2.849   2.579   1.002  0.0473 -0.0269 -0.1187
    1SOL    HW1    2   2.947   2.563   1.012 -1.7864 -2.2405 -0.4032
    1SOL    HW2    3   2.819   2.680   1.017  0.8480  4.4400  1.1663
    2SOL     OW    4   1.976   1.838   1.060 -0.4359 -0.0746 -0.0091
    2SOL    HW1    5   2.018   1.923   1.021  0.7227  0.6204 -0.0450
    2SOL    HW2    6   2.000   1.816   1.161  0.0844 -0.9569  0.6220
    3SOL     OW    7   1.144   2.705   0.032 -0.2856 -0.2106 -0.0690
    3SOL    HW1    8   1.155   2.782   3.091  0.7095 -2.8809  2.1559
    3SOL    HW2    9   1.196   2.624   3.119 -2.5616  0.1147 -1.6078
    4SOL     OW   10   1.950   1.792   1.327  0.2391  0.7438  0.0221
    4SOL    HW1   11   1.917   1.707   1.372 -0.2747 -1.3167  2.3545
    4SOL    HW2   12   1.928   1.876   1.380  0.3642 -1.4962 -1.8952
    5SOL     OW   13   1.360   1.070   1.517 -0.4750 -0.0908  0.1781
    5SOL    HW1   14   1.446   1.060   1.458 -0.5796  1.3442  0.2964
    5SOL    HW2   15   1.332   1.171   1.518  0.1499 -0.4099  0.3397
    6SOL     OW   16   2.708   0.003   0.013 -0.0683  0.0528  0.2308
    6SOL    HW1   17   2.618   0.012   3.099  2.7116 -0.4054  0.9299
    6SOL    HW2   18   2.787   0.044   3.083  0.8907 -1.7797  1.5370
    7SOL     OW   19   2.781   1.265   1.246 -0.3963 -0.2348  0.1622
    7SOL    HW1   20   2.693   1.311   1.232  3.4025  0.3411 -2.4807
    7SOL    HW2   21   2.792   1.192   1.176 -1.1643  0.2761 -1.5706
    8SOL     OW   22   1.245   2.846   1.090  0.5606  0.7333  0.4191
    8SOL    HW1   23   1.187   2.918   1.051  1.3180 -1.1750 -0.1098
    8SOL    HW2   24   1.205   2.798   1.173 -3.2708 -0.7067 -0.1146
    9SOL     OW   25   1.703   0.102   1.997  0.0052  0.2841 -0.2171
    9SOL    HW1   26   1.611   0.058   1.997 -1.2671  2.3908  2.4033
    9SOL    HW2   27   1.706   0.176   1.929 -0.5298 -1.9624  2.4898
   10SOL     OW   28   0.793   2.286   0.884  0.1035  0.1121  0.1859
   10SOL    HW1   29   0.701   2.336   0.871 -4.2735 -1.0664 -1.3365
   10SOL    HW2   30   0.849   2.341   0.947  0.8593 -0.9385  0.7850
   11SOL     OW   31   1.481   1.270   0.658 -0.0909  0.1971 -0.3469
   11SOL    HW1   32   1.560   1.216   0.686 -2.7986  1.1330 -1.4348
   11SOL    HW2   33   1.430   1.308   0.738  0.9091 -1.4994  1.4717
   12SOL     OW   34   2.755   2.682   1.815 -0.2668  0.4367  0.3918
   12SOL    HW1   35   2.781   2.659   1.717 -0.8888 -0.2503  0.2300
   12SOL    HW2   36   2.815   2.636   1.882 -0.3213  1.6105 -0.1271
   13SOL     OW   37   2.214   0.087   0.367 -0.4666  0.2974  0.4056
   13SOL    HW1   38   2.115   0.078   0.384  0.6225 -4.3187  1.7944
   13SOL    HW2   39   2.274   0.018   0.414  1.5521  0.1796 -1.1285
   14SOL     OW   40   1.410   2.627   1.055  0.0539 -0.1460 -0.0570
   14SOL    HW1   41   1.435   2.599   0.961  0.8464 -2.3904  0.6148
   14SOL    HW2   42   1.352   2.711   1.051  0.3873 -1.9963 -0.0683
   15SOL     OW   43   0.002   1.801   1.542 -0.0635  0.0679  0.2178
   15SOL    HW1   44   0.055   1.886   1.540 -1.2843  0.0848 -3.0836
   15SOL    HW2   45   0.024   1.743   1.458  0.4332 -1.8545 -1.4110
   16SOL     OW   46   2.048   2.252   0.474  0.2052 -0.5824 -0.4980
   16SOL    HW1   47   2.084   2.192   0.551 -3.1646  0.9689  0.6442
   16SOL    HW2   48   2.051   2.201   0.384 -2.5060 -1.6090 -0.1647
   17SOL     OW   49   0.912   2.970   1.623 -0.5443  0.0326 -0.1513
   17SOL    HW1   50   0.886   3.015   1.708  0.3422 -1.5599 -0.5979
   17SOL    HW2   51   0.954   3.039   1.560 -1.0079  0.6808  3.0390
   18SOL     OW   52   1.183   0.760   0.162 -0.2044  0.3352 -0.5674
   18SOL    HW1   53   1.164   0.809   0.075  0.7829 -1.8148  2.6196
   18SOL    HW2   54   1.230   0.817   0.230 -3.6703  0.4988 -3.3629
   19SOL     OW   55   1.756   1.958   3.069  0.0358  0.4709  0.0434
   19SOL    HW1   56   1.797   1.904   2.988  0.9523  0.2101 -1.3721
   19SOL    HW2   57   1.818   2.033   3.086 -0.2758 -0.0517 -1.8887
   20SOL     OW   58   2.282   1.832   1.960 -0.3962 -0.0207 -0.2779
   20SOL    HW1   59   2.200   1.794   2.012 -3.2371  0.9230  0.9952
   20SOL    HW2   60   2.257   1.844   1.864 -1.5224  0.8095  0.4369
   21SOL     OW   61   0.673   1.320   0.454 -0.0009 -0.7406 -0.4582
   21SOL    HW1   62   0.750   1.339   0.392  0.9376 -0.2995 -0.5847
   21SOL    HW2   63   0.605   1.398   0.457 -0.9098 -0.1151  0.7787
   22SOL     OW   64   2.198   3.037   1.404 -0.0009  0.2788  0.2123
   22SOL    HW1   65   2.205   0.007   1.361  0.7319  1.2307 -2.2738
   22SOL    HW2   66   2.279   2.980   1.379  0.4576 -1.3510 -1.1507
   23SOL     OW   67   3.011   0.845   1.955  0.1837 -0.0612  0.0405
   23SOL    HW1   68   2.950   0.842   1.871 -2.2023  1.1559 -0.8827
   23SOL    HW2   69   2.955   0.853   2.043  0.9745  2.3244  1.4091
   24SOL     OW   70   2.232   2.582   0.399 -0.4102  0.2511  0.8292
   24SOL    HW1   71   2.277   2.494   0.422  1.0138 -0.7687  0.4153
   24SOL    HW2   72   2.158   2.576   0.331 -0.2742 -3.0231 -2.1151
   25SOL     OW   73   1.571   0.056   2.438  0.0877  0.6733  0.1133
   25SOL    HW1   74   1.529   0.115   2.510 -4.2035 -0.2752  0.2047
   25SOL    HW2   75   1.637   0.102   2.379  0.2520 -2.2920  0.7458
   26SOL     OW   76   1.741   2.224   0.230  0.2685 -0.3204  0.4742
   26SOL    HW1   77   1.795   2.236   0.144 -0.3355 -0.5503  1.0114
   26SOL    HW2   78   1.643   2.242   0.221  2.0110 -1.3785  1.7846
   27SOL     OW   79   2.664   2.046   3.056 -0.1708  0.4958 -0.0436
   27SOL    HW1   80   2.698   1.970   2.997 -1.5554 -1.2935  1.2504
   27SOL    HW2   81   2.709   2.136   3.035 -0.3450  1.3115  1.0477
   28SOL     OW   82   0.290   1.056   1.802 -0.0078  0.1991 -0.3121
   28SOL    HW1   83   0.259   1.039   1.710  2.1081  2.0236  0.6126
   28SOL    HW2   84   0.212   1.037   1.865  0.5675  0.6988 -1.7401
   29SOL     OW   85   2.387   2.272   1.301 -0.7809  0.2801  0.2390
   29SOL    HW1   86   2.340   2.184   1.318  0.7789  0.1685 -0.3344
   29SOL    HW2   87   2.339   2.353   1.338 -0.8455  1.2437 -2.6450
   30SOL     OW   88   1.521   0.372   0.705 -0.3778  0.0084 -0.2865
   30SOL    HW1   89   1.574   0.382   0.616  1.4725 -0.0786 -1.1178
   30SOL    HW2   90   1.534   0.455   0.765  3.0211 -2.1754  1.6424
   31SOL     OW   91   2.379   2.356   1.968 -0.1507  0.1955  0.1987
   31SOL    HW1   92   2.290   2.355   2.024 -1.6247  0.4102 -0.9984
   31SOL    HW2   93   2.362   2.393   1.871 -2.3391 -0.4796 -3.0694
   32SOL     OW   94   0.745   1.954   1.145 -0.3902 -0.0455 -0.0557
   32SOL    HW1   95   0.767   1.989   1.053 -0.3781 -0.0881  2.7166
   32SOL    HW2   96   0.707   2.023   1.212  0.3100 -0.6872  0.6598
   33SOL     OW   97   0.612   3.110   2.687 -0.0025 -0.1064  0.1090
   33SOL    HW1   98   0.546   3.045   2.638 -0.1415 -0.0068 -1.2462
   33SOL    HW2   99   0.608   3.083   2.781  2.5896  2.7624 -0.7495
   34SOL     OW  100   1.279   3.058   0.593  0.9663  0.4353  0.2634
   34SOL    HW1  101   1.312   3.097   0.681 -2.1570 -0.1122 -2.7386
   34SOL    HW2  102   1.331   3.095   0.516 -1.2571 -0.9229  3.7143
   35SOL     OW  103   2.045   2.929   1.077  0.3227  0.1553 -0.2704
   35SOL    HW1  104   2.143   2.929   1.104 -0.8751 -2.2171 -1.2581
   35SOL    HW2  105   1.984   2.956   1.153 -1.1711  0.0776 -2.4589
   36SOL     OW  106   1.931   2.347   2.479  0.0631  0.4047  0.3093
   36SOL    HW1  107   1.860   2.304   2.537  1.1825 -0.3320 -0.7427
   36SOL    HW2  108   1.898   2.435   2.438 -1.5968  0.4336 -0.7090
   37SOL     OW  109   0.886   0.140   2.281 -0.2298 -0.2956 -0.4551
   37SOL    HW1  110   0.934   0.128   2.194 -0.4088  0.9239  1.3706
   37SOL    HW2  111   0.863   0.238   2.297  1.2953 -1.5565  1.5846
   38SOL     OW  112   0.196   2.645   2.628  0.0180  0.5831  0.4613
   38SOL    HW1  113   0.164   2.723   2.572 -0.6080  0.6670  0.3704
   38SOL    HW2  114   0.285   2.615   2.590  0.9968 -2.4811  3.3297
   39SOL     OW  115   2.148   1.019   1.679  0.3127  0.1556  0.4472
   39SOL    HW1  116   2.185   0.996   1.586  3.5799  2.7438 -0.4172
   39SOL    HW2  117   2.138   1.120   1.681 -0.4160  2.6461  2.1711
   40SOL     OW  118   1.033   3.005   0.320  0.1994  0.4955  0.1539
   40SOL    HW1  119   0.932   3.008   0.312 -0.1235 -0.6064  0.2644
   40SOL    HW2  120   1.069   3.071   0.247 -0.9435 -0.1105 -2.4599
   41SOL     OW  121   2.180   1.184   1.272 -0.3090 -0.2786  0.4142
   41SOL    HW1  122   2.264   1.163   1.217 -0.7002 -1.7383 -2.1786
   41SOL    HW2  123   2.165   1.286   1.267 -0.2791 -0.5608  3.7871
   42SOL     OW  124   0.467   0.530   1.000 -0.0918  0.1065 -0.6325
   42SOL    HW1  125   0.512   0.622   0.990  0.0760  1.7829 -0.0780
   42SOL    HW2  126   0.384   0.541   1.055  0.3946 -1.8235  0.2116
   43SOL     OW  127   2.436   1.718   2.724 -0.0997 -0.4227  0.6052
   43SOL    HW1  128   2.460   1.637   2.784  0.1449 -0.7176 -2.3165
   43SOL    HW2  129   2.389   1.690   2.638 -0.2570 -0.5380  0.2919
   44SOL     OW  130   2.692   2.980   1.475  0.6965 -0.0857 -0.0433
   44SOL    HW1  131   2.696   2.981   1.575  1.1168 -1.0366 -1.1250
   44SOL    HW2  132   2.729   3.065   1.429  1.4547  1.1429 -0.2359
   45SOL     OW  133   0.478   2.762   1.561  0.0400 -0.3797  0.1052
   45SOL    HW1  134   0.387   2.805   1.538 -3.1442  0.3702  0.1804
   45SOL    HW2  135   0.557   2.824   1.532  1.0071  1.6663 -1.0076
   46SOL     OW  136   2.020   0.206   2.364 -0.3331  0.0269 -0.5510
   46SOL    HW1  137   2.090   0.133   2.363  0.3642 -1.5091 -0.3351
   46SOL    HW2  138   2.040   0.271   2.443 -1.5507 -0.9522  0.6785
   47SOL     OW  139   2.047   1.837   0.641 -0.3550 -0.1937  0.1098
   47SOL    HW1  140   2.036   1.755   0.695  1.8064  2.6900  2.1970
   47SOL    HW2  141   1.963   1.887   0.614 -2.0982 -1.5729  1.5707
   48SOL     OW  142   0.806   2.230   0.484 -0.0854 -0.2869 -0.0526
   48SOL    HW1  143   0.736   2.306   0.461 -3.4088  2.0897  1.2811
   48SOL    HW2  144   0.838   2.174   0.403 -0.1468 -1.8122  2.6496
   49SOL     OW  145   2.438   0.344   2.522  0.1184 -0.7361  0.1254
   49SOL    HW1  146   2.421   0.377   2.615  0.1842 -1.4933 -0.1689
   49SOL    HW2  147   2.411   0.247   2.502 -1.3510  0.1806  1.1711
   50SOL     OW  148   1.926   0.733   0.283  0.3787 -0.5585 -0.0834
   50SOL    HW1  149   1.952   0.829   0.280  0.9403 -1.6926  1.3433
   50SOL    HW2  150   1.826   0.723   0.283 -1.0150  2.3083 -0.3754
   51SOL     OW  151   1.957   0.862   1.038  0.1344 -0.7338  0.0002
   51SOL    HW1  152   2.007   0.924   0.977 -1.6309 -0.5620 -0.2208
   51SOL    HW2  153   1.949   0.765   1.003 -1.6915 -2.2935 -2.3843
   52SOL     OW  154   1.226   1.531   1.744 -0.0618 -0.7053 -0.5050
   52SOL    HW1  155   1.325   1.572   1.742  3.5765  0.8717  0.9753
   52SOL    HW2  156   1.218   1.448   1.797  0.7366  3.2320 -0.8670
   53SOL     OW  157   0.835   1.841   2.228  0.3129 -0.6320 -0.3160
   53SOL    HW1  158   0.857   1.742   2.220  0.2196 -1.1048  1.4400
   53SOL    HW2  159   0.884   1.896   2.159  0.3298 -1.5575  1.5352
   54SOL     OW  160   2.262   0.162   1.295 -0.0140 -0.3459  0.0129
   54SOL    HW1  161   2.162   0.190   1.301 -1.2108  1.4059  2.5835
   54SOL    HW2  162   2.299   0.195   1.201  3.5521  1.4763 -2.9809
   55SOL     OW  163   2.562   2.006   0.914  0.1158 -0.4013  0.0055
   55SOL    HW1  164   2.655   2.047   0.897  0.6474 -2.4507 -0.0383
   55SOL    HW2  165   2.542   1.933   0.840  1.4326 -0.5120  1.4565
   56SOL     OW  166   1.017   0.043   2.037 -0.1956  0.3431  0.3603
   56SOL    HW1  167   1.071   3.085   2.049  0.1832  1.6390 -1.2242
   56SOL    HW2  168   1.062   0.119   1.991  1.1715  1.8061  1.7580
   57SOL     OW  169   1.253   1.491   0.228  0.2210  0.3710  0.7362
   57SOL    HW1  170   1.252   1.450   0.319  0.9643  1.4317 -2.2654
   57SOL    HW2  171   1.273   1.421   0.160 -0.2293 -0.5650  3.0478
   58SOL     OW  172   0.271   0.720   2.108  0.4167  0.2859 -0.2078
   58SOL    HW1  173   0.337   0.793   2.136 -0.9471  2.1536  0.7497
   58SOL    HW2  174   0.249   0.658   2.189  0.7299 -0.3703 -0.6319
   59SOL     OW  175   1.235   0.216   2.798 -0.3044  0.1009 -0.2265
   59SOL    HW1  176   1.150   0.172   2.831 -1.7446 -1.3070 -1.9529
   59SOL    HW2  177   1.303   0.202   2.872  0.4801 -2.3727 -1.0790
   60SOL     OW  178   3.110   2.055   0.191 -0.5188  0.4858  0.0644
   60SOL    HW1  179   0.027   1.962   0.189 -1.1948 -0.4938 -0.3384
   60SOL    HW2  180   3.041   2.057   0.268 -0.1072 -1.1292  0.2491
   61SOL     OW  181   1.133   2.273   0.400  0.0386  0.2500 -0.4096
   61SOL    HW1  182   1.120   2.270   0.503  1.6613 -2.3097 -0.4964
   61SOL    HW2  183   1.082   2.353   0.369  1.5263 -0.0921  0.0716
   62SOL     OW  184   2.093   2.165   2.749  0.2240  0.2878 -0.3231
   62SOL    HW1  185   2.137   2.078   2.782 -3.3298  0.3061  2.0099
   62SOL    HW2  186   2.001   2.140   2.710 -0.9894  0.8667 -1.3573
   63SOL     OW  187   2.313   2.079   0.372 -0.2217 -0.5553 -0.2329
   63SOL    HW1  188   2.315   2.179   0.394  1.7303  0.1937  0.1860
   63SOL    HW2  189   2.362   2.061   0.284 -0.1607  2.7472 -0.9440
   64SOL     OW  190   1.851   1.242   2.820 -0.0039  0.6927  0.4614
   64SOL    HW1  191   1.834   1.186   2.901  0.8837  1.7613  0.2428
   64SOL    HW2  192   1.865   1.182   2.739  2.5606 -0.8669 -0.7643
   65SOL     OW  193   1.444   2.050   2.995 -0.0517  0.1183 -0.2275
   65SOL    HW1  194   1.476   1.986   3.068  1.3202  0.4215  1.2826
   65SOL    HW2  195   1.345   2.055   3.000  0.6214 -0.4148  2.0043
   66SOL     OW  196   0.309   1.528   2.295  0.3896 -0.4859  0.2250
   66SOL    HW1  197   0.397   1.559   2.341 -0.1681  0.4414  1.6678
   66SOL    HW2  198   0.316   1.427   2.264  1.7110 -1.4691  0.0047
   67SOL     OW  199   2.815   2.742   2.817  0.4239 -0.0806  0.1795
   67SOL    HW1  200   2.871   2.760   2.897  0.4415 -0.5947 -2.7042
   67SOL    HW2  201   2.772   2.829   2.785  0.3604 -1.2692 -0.6428
   68SOL     OW  202   0.777   2.522   1.437  0.2999 -0.3738 -0.3855
   68SOL    HW1  203   0.677   2.499   1.435 -1.6465 -1.4255 -0.5134
   68SOL    HW2  204   0.833   2.457   1.384  0.2851 -1.4570  1.9071
   69SOL     OW  205   0.696   2.704   0.709  0.2246 -0.0121 -0.5100
   69SOL    HW1  206   0.653   2.639   0.776  2.8936  3.3997  1.5718
   69SOL    HW2  207   0.794   2.680   0.686 -0.2769  2.7010  0.9719
   70SOL     OW  208   2.600   0.778   2.698 -0.5898 -0.6528  0.4020
   70SOL    HW1  209   2.574   0.777   2.599  1.7414  0.0092  0.2323
   70SOL    HW2  210   2.641   0.690   2.727  0.4033  2.6710 -2.6706
   71SOL     OW  211   0.553   1.275   2.558  0.3413  0.2532  0.0079
   71SOL    HW1  212   0.590   1.347   2.497  3.2437  0.6697  1.8384
   71SOL    HW2  213   0.530   1.310   2.651 -0.7717  0.3726  0.8059
   72SOL     OW  214   0.142   1.773   0.242 -0.5662 -0.0155  0.4562
   72SOL    HW1  215   0.200   1.760   0.158  1.0544  0.5941  0.0063
   72SOL    HW2  216   0.149   1.700   0.317 -0.9855 -0.1252  0.4225
   73SOL     OW  217   0.701   1.420   0.745 -0.0143  0.1361 -1.0237
   73SOL    HW1  218   0.740   1.493   0.687  3.7167 -1.4119  0.6858
   73SOL    HW2  219   0.645   1.351   0.700  1.4445  1.6334  1.3429
   74SOL     OW  220   2.428   2.667   0.099 -0.4370 -0.1768  0.9104
   74SOL    HW1  221   2.526   2.697   0.094 -0.3356 -0.0474 -2.4237
   74SOL    HW2  222   2.366   2.733   0.055  1.9651  0.4482  0.9827
   75SOL     OW  223   2.148   1.648   1.605  0.2532 -0.0696  0.0709
   75SOL    HW1  224   2.130   1.554   1.636 -1.7336  0.4988 -1.7736
   75SOL    HW2  225   2.180   1.638   1.508 -4.1782 -1.4740 -1.2976
   76SOL     OW  226   1.829   2.430   1.763 -0.0471 -0.7984  0.4923
   76SOL    HW1  227   1.759   2.479   1.711 -0.3393  0.6034  0.6391
   76SOL    HW2  228   1.792   2.424   1.857 -0.4838 -1.1476 -1.0291
   77SOL     OW  229   2.307   0.454   2.002 -0.0287 -0.6543  0.0772
   77SOL    HW1  230   2.211   0.424   2.020 -1.4050  0.6108  2.4890
   77SOL    HW2  231   2.367   0.390   2.054 -0.0896  0.6933 -0.2050
   78SOL     OW  232   1.475   0.998   2.928 -0.1258  0.2547 -0.1345
   78SOL    HW1  233   1.459   1.007   3.027 -0.6805  0.1544 -0.0507
   78SOL    HW2  234   1.542   0.923   2.920  2.7142 -1.5406 -1.6034
   79SOL     OW  235   2.528   1.651   1.950  0.6874 -0.2611 -0.1888
   79SOL    HW1  236   2.438   1.700   1.970 -0.8118 -0.9787 -1.6000
   79SOL    HW2  237   2.583   1.704   1.880 -0.1019 -1.2411 -0.6746
   80SOL     OW  238   1.922   1.414   1.227 -0.4171  0.6348  0.3261
   80SOL    HW1  239   1.912   1.324   1.267 -0.7966  0.8608 -0.8159
   80SOL    HW2  240   2.016   1.452   1.243  1.5016  1.4415  0.3140
   81SOL     OW  241   1.452   0.721   1.672  0.7630  0.0087 -0.2895
   81SOL    HW1  242   1.437   0.653   1.743  2.5389  0.2194 -2.0905
   81SOL    HW2  243   1.447   0.813   1.714 -0.8849 -0.4564 -0.4726
   82SOL     OW  244   1.330   2.481   1.337  0.6753 -0.7050 -0.1858
   82SOL    HW1  245   1.314   2.514   1.242 -0.2579 -3.7697  1.1039
   82SOL    HW2  246   1.336   2.559   1.402  0.8606 -0.9092  2.3661
   83SOL     OW  247   0.092   0.293   0.490  0.0170  0.3558 -0.2114
   83SOL    HW1  248   0.005   0.262   0.539  1.0563  0.9476  0.0850
   83SOL    HW2  249   0.074   0.388   0.458 -1.6764  0.9014  1.3492
   84SOL     OW  250   0.410   1.152   3.032 -0.5113 -0.3653  0.0143
   84SOL    HW1  251   0.318   1.138   3.001  2.0527  0.4688 -0.4667
   84SOL    HW2  252   0.412   1.189   0.000 -1.8648  1.5251 -0.7068
   85SOL     OW  253   2.692   1.817   1.805 -0.2459 -0.3061 -0.1943
   85SOL    HW1  254   2.748   1.824   1.719 -1.0196 -1.0467 -0.4109
   85SOL    HW2  255   2.633   1.901   1.821 -1.4081 -0.7378  2.4193
   86SOL     OW  256   2.946   2.106   1.729  0.5463  0.1557 -0.1682
   86SOL    HW1  257   2.970   2.026   1.787  1.1193 -1.7261  0.0301
   86SOL    HW2  258   2.916   2.185   1.786  1.5604 -2.9571  0.7257
   87SOL     OW  259   0.738   0.217   2.792  0.1976  0.1964 -0.4476
   87SOL    HW1  260   0.687   0.149   2.734 -0.8823 -2.6124 -1.0152
   87SOL    HW2  261   0.678   0.242   2.867  0.9580  0.0838 -1.4912
   88SOL     OW  262   0.260   2.269   1.217  0.2375 -0.2491  0.3605
   88SOL    HW1  263   0.356   2.243   1.188 -0.0482 -1.7152  0.3373
   88SOL    HW2  264   0.233   2.225   1.305  1.2624 -0.2768 -0.7637
   89SOL     OW  265   0.994   0.763   1.711 -0.1634  0.2173  0.3706
   89SOL    HW1  266   1.058   0.729   1.637  0.1728 -0.0245 -0.9640
   89SOL    HW2  267   0.985   0.703   1.792 -0.0626  0.0980 -1.1913
   90SOL     OW  268   2.780   1.558   1.513  0.1588  0.7282  0.0516
   90SOL    HW1  269   2.844   1.540   1.436 -0.6651  0.7857 -4.0456
   90SOL    HW2  270   2.808   1.511   1.597  0.7548 -0.8842 -0.4328
   91SOL     OW  271   1.119   1.314   0.703  0.5637 -0.0689  0.1763
   91SOL    HW1  272   1.078   1.410   0.693  1.5106 -0.1375 -0.6266
   91SOL    HW2  273   1.073   1.281   0.787 -1.1965 -2.3097  0.4839
   92SOL     OW  274   2.277   0.827   0.844 -0.0034  0.0144  0.0845
   92SOL    HW1  275   2.195   0.872   0.804  0.1605 -0.8320 -2.3754
   92SOL    HW2  276   2.251   0.747   0.901  0.7183  0.6305 -1.7518
   93SOL     OW  277   1.942   0.934   3.022  0.3709  0.4887 -0.1083
   93SOL    HW1  278   1.900   1.021   3.051  2.3258  0.4994  0.1799
   93SOL    HW2  279   1.909   0.902   2.928 -0.1451 -0.9511 -3.1490
   94SOL     OW  280   2.607   1.734   2.243  0.2127  0.5135  0.1338
   94SOL    HW1  281   2.546   1.669   2.191 -1.7462 -0.0932  0.1454
   94SOL    HW2  282   2.553   1.805   2.291  2.2103 -0.7528  0.8150
   95SOL     OW  283   2.234   0.377   0.961  0.2460 -0.1048  0.6370
   95SOL    HW1  284   2.238   0.464   1.011  0.5564  0.9099 -1.0868
   95SOL    HW2  285   2.223   0.392   0.858 -1.3625  1.7118 -1.5792
   96SOL     OW  286   2.480   0.022   2.196  0.1113  0.1943  0.0491
   96SOL    HW1  287   2.470   3.107   2.098  0.2119 -0.2282 -0.6779
   96SOL    HW2  288   2.491   0.122   2.188 -2.1877 -1.3017  0.2749
   97SOL     OW  289   2.399   0.222   1.071  0.9244  1.1823 -0.4932
   97SOL    HW1  290   2.336   0.272   1.006 -1.3581 -0.2275  1.4294
   97SOL    HW2  291   2.422   0.130   1.033  0.2785 -1.0298 -0.0999
   98SOL     OW  292   1.495   2.317   1.530  0.5801 -0.0370 -0.0588
   98SOL    HW1  293   1.488   2.307   1.431 -0.9716 -0.4343  0.7153
   98SOL    HW2  294   1.536   2.233   1.578  1.1130 -0.8227  1.4236
   99SOL     OW  295   2.259   2.291   1.619 -0.6556 -0.3577 -0.0259
   99SOL    HW1  296   2.355   2.324   1.636  1.1961 -0.1318  1.4087
   99SOL    HW2  297   2.200   2.337   1.687 -0.6325  1.0204  1.3104
  100SOL     OW  298   0.490   0.737   2.880 -0.3013 -0.4397  0.8870
  100SOL    HW1  299   0.562   0.809   2.889  1.7733  2.1325  1.6655
  100SOL    HW2  300   0.425   0.749   2.955  2.0685 -0.8458  1.2046
  101SOL     OW  301   2.047   0.439   2.887 -0.3205  0.4949  0.4965
  101SOL    HW1  302   2.061   0.349   2.931  2.4217 -2.2368  1.6331
  101SOL    HW2  303   2.123   0.503   2.911  0.7282 -1.1537 -0.6347
  102SOL     OW  304   0.140   0.736   1.646 -0.3669 -0.0865 -0.3580
  102SOL    HW1  305   0.154   0.833   1.616 -1.5800 -0.9385  0.8294
  102SOL    HW2  306   0.206   0.681   1.589  1.9379  0.1097 -2.1940
  103SOL     OW  307   2.985   1.016   2.639  0.2120  0.1665 -0.0188
  103SOL    HW1  308   3.011   1.114   2.615  0.2777  2.3256  0.1524
  103SOL    HW2  309   2.955   0.972   2.550 -1.1008 -0.5038 -0.0782
  104SOL     OW  310   0.599   0.326   2.383 -0.1081  0.3709  0.2091
  104SOL    HW1  311   0.700   0.334   2.397  0.9402  0.2845  0.0931
  104SOL    HW2  312   0.589   0.306   2.284 -0.0035  0.0455 -1.9512
  105SOL     OW  313   2.175   1.910   1.699  0.1472 -0.5920  0.3879
  105SOL    HW1  314   2.167   1.968   1.616  2.6922 -2.4756  2.0368
  105SOL    HW2  315   2.157   1.814   1.674  0.0740  0.2266 -1.9946
  106SOL     OW  316   2.012   0.355   0.572 -0.3720 -0.1135 -0.3348
  106SOL    HW1  317   2.013   0.266   0.619 -0.6705  0.6693 -1.6396
  106SOL    HW2  318   2.079   0.347   0.496 -0.4578  0.3920  0.9471
  107SOL     OW  319   0.330   1.445   0.900 -0.5722 -0.0882  0.1118
  107SOL    HW1  320   0.384   1.476   0.975 -1.9946 -0.2488 -2.2484
  107SOL    HW2  321   0.328   1.515   0.828 -1.0221  2.2776 -0.1577
  108SOL     OW  322   2.743   2.386   1.566  0.0144 -0.3113 -0.2494
  108SOL    HW1  323   2.727   2.288   1.554  1.8835  1.2647 -0.9198
  108SOL    HW2  324   2.699   2.426   1.482 -0.5763  0.0071 -0.7837
  109SOL     OW  325   2.053   0.124   0.681  0.8176  0.2263 -0.3462
  109SOL    HW1  326   2.155   0.142   0.687  1.1725 -2.3303  0.1277
  109SOL    HW2  327   2.026   0.050   0.750 -1.7676 -2.8393 -0.9587
  110SOL     OW  328   0.537   2.182   2.634 -0.1386  0.5023 -0.0576
  110SOL    HW1  329   0.524   2.216   2.540  0.6210  0.2690  2.8371
  110SOL    HW2  330   0.580   2.089   2.635  1.6016  1.1947 -0.0500
  111SOL     OW  331   1.613   2.576   1.652 -0.4149 -0.4558 -0.7549
  111SOL    HW1  332   1.594   2.492   1.600  0.7328  0.8645  0.6588
  111SOL    HW2  333   1.608   2.652   1.591 -0.7636 -0.1111 -0.5233
  112SOL     OW  334   1.860   2.685   0.063  0.3622  0.4705  0.1588
  112SOL    HW1  335   1.766   2.644   0.038 -2.3554 -2.4448 -0.1519
  112SOL    HW2  336   1.859   2.785   0.048 -0.3101 -1.9211  1.8332
  113SOL     OW  337   1.957   2.421   1.429  0.0591 -0.6043 -0.1454
  113SOL    HW1  338   1.948   2.337   1.480 -0.5736 -0.2170 -2.6149
  113SOL    HW2  339   2.038   2.414   1.368  2.6824 -2.7967  2.4867
  114SOL     OW  340   2.808   0.846   0.841 -0.3636  0.5652 -0.1531
  114SOL    HW1  341   2.705   0.847   0.839  0.0075 -2.2782  0.3301
  114SOL    HW2  342   2.845   0.808   0.753 -3.2601 -0.8594  0.6260
  115SOL     OW  343   0.732   1.169   3.060  0.2873 -0.2817 -0.0348
  115SOL    HW1  344   0.629   1.162   3.050 -3.1631 -2.7718  0.1713
  115SOL    HW2  345   0.770   1.079   3.075  0.3300 -1.0233 -1.8991
  116SOL     OW  346   2.804   1.845   2.086  0.4187 -0.0669  0.2122
  116SOL    HW1  347   2.746   1.806   2.158 -1.5285  1.6876 -3.1409
  116SOL    HW2  348   2.776   1.819   1.990  3.7680 -1.2803 -2.0576
  117SOL     OW  349   2.888   2.395   0.522  0.0739  0.5473 -0.0361
  117SOL    HW1  350   2.924   2.354   0.606 -0.7972  1.5487 -4.7992
  117SOL    HW2  351   2.812   2.340   0.490  3.0366  2.4879  1.4049
  118SOL     OW  352   0.984   2.009   2.095  0.1773  0.0388 -0.1862
  118SOL    HW1  353   1.035   2.095   2.089  0.7064 -1.1148  2.8857
  118SOL    HW2  354   1.048   1.938   2.060  2.4007 -0.2941 -0.2535
  119SOL     OW  355   0.250   2.023   2.868  0.2293  0.3858  0.1640
  119SOL    HW1  356   0.176   2.047   2.935  1.0162  2.0211 -1.0953
  119SOL    HW2  357   0.316   1.949   2.901 -1.8972  0.3854  1.1058
  120SOL     OW  358   1.151   0.895   3.053  0.0169 -0.5688  0.1022
  120SOL    HW1  359   1.194   0.984   3.082  1.5444  2.0242  0.5683
  120SOL    HW2  360   1.183   0.861   2.963  0.4734 -0.9342 -2.2367
  121SOL     OW  361   1.443   2.845   0.747 -0.1211 -0.2424  0.1746
  121SOL    HW1  362   1.408   2.937   0.724  2.0868  0.1803  0.3247
  121SOL    HW2  363   1.516   2.855   0.816 -1.6825  0.5955  1.8345
  122SOL     OW  364   2.486   2.425   1.713  0.4120 -0.1094 -0.3335
  122SOL    HW1  365   2.444   2.517   1.732  0.6072  0.3657  2.1865
  122SOL    HW2  366   2.567   2.436   1.650 -0.5368  0.0348  1.0218
  123SOL     OW  367   0.367   2.814   0.785  0.2608 -0.1958 -0.4552
  123SOL    HW1  368   0.350   2.828   0.687 -0.5500  1.6032 -0.7278
  123SOL    HW2  369   0.457   2.859   0.815  0.8310 -3.4597 -1.5549
  124SOL     OW  370   2.341   1.117   2.791 -0.3571 -0.2699 -0.0898
  124SOL    HW1  371   2.418   1.185   2.774  1.6848  0.5003  0.6581
  124SOL    HW2  372   2.368   1.027   2.829 -3.3096  1.1233  0.4471
  125SOL     OW  373   0.630   0.852   0.350  0.0432 -0.4059  0.3228
  125SOL    HW1  374   0.573   0.787   0.405 -2.5065 -0.5408  2.2401
  125SOL    HW2  375   0.681   0.920   0.407 -0.5863  0.2468 -1.0962
  126SOL     OW  376   0.174   1.128   0.448 -0.3031 -0.1945  0.0864
  126SOL    HW1  377   0.131   1.211   0.490 -1.4012 -0.6465  0.2188
  126SOL    HW2  378   0.280   1.141   0.459 -0.7112  0.3203  0.4619
  127SOL     OW  379   0.291   1.887   2.059 -0.2292  0.0786 -0.2707
  127SOL    HW1  380   0.393   1.887   2.086 -0.2341 -0.4416 -1.8276
  127SOL    HW2  381   0.238   1.832   2.128  0.2968 -2.4984  0.2752
  128SOL     OW  382   0.867   1.384   0.024  0.0259 -0.0540  0.1415
  128SOL    HW1  383   0.940   1.428   3.085  0.1067 -1.7758 -2.0842
  128SOL    HW2  384   0.822   1.304   3.101  2.1303 -1.7795 -0.5253
  129SOL     OW  385   2.776   1.251   0.866 -0.3355 -0.3966 -0.6269
  129SOL    HW1  386   2.674   1.254   0.863 -1.9228  2.1204 -0.6769
  129SOL    HW2  387   2.812   1.176   0.926  2.5983 -2.2663 -0.6069
  130SOL     OW  388   2.285   1.015   1.433  0.0778 -0.4443 -0.6058
  130SOL    HW1  389   2.329   0.937   1.384  1.0671 -0.3178 -1.3869
  130SOL    HW2  390   2.231   1.074   1.372 -1.9833 -2.0820 -1.1635
  131SOL     OW  391   2.929   3.057   2.785  0.1729  0.0829 -0.0024
  131SOL    HW1  392   2.832   3.019   2.777  0.9523 -0.7267 -1.4450
  131SOL    HW2  393   2.961   3.078   2.878  0.3216 -0.7430 -0.4221
  132SOL     OW  394   3.091   1.330   1.336 -0.5242  0.1803  0.1142
  132SOL    HW1  395   3.057   1.414   1.289  0.8495  1.4445  0.0428
  132SOL    HW2  396   0.001   1.350   1.431  1.4243 -0.3452  1.1550
  133SOL     OW  397   0.966   0.663   1.361 -0.4714  0.0945 -0.3028
  133SOL    HW1  398   1.050   0.659   1.422 -0.6453  0.6907  1.3532
  133SOL    HW2  399   0.892   0.595   1.387 -0.8674 -0.9483  2.3503
  134SOL     OW  400   0.121   1.528   0.080 -0.1990  0.3140 -0.7442
  134SOL    HW1  401   0.077   1.435   0.065  0.5471 -1.8535  1.7880
  134SOL    HW2  402   0.078   1.601   0.020  0.7164  1.9111 -1.0251
  135SOL     OW  403   1.881   0.953   1.481 -0.6126  0.1964 -0.4264
  135SOL    HW1  404   1.861   0.853   1.486 -1.3808 -0.9799 -1.1232
  135SOL    HW2  405   1.914   0.977   1.387 -0.4471 -2.0327 -0.9155
  136SOL     OW  406   0.266   1.152   0.185 -0.5732  0.5623  0.0144
  136SOL    HW1  407   0.205   1.216   0.127 -2.4033  1.3213 -3.3005
  136SOL    HW2  408   0.218   1.125   0.272  2.6938 -2.5019 -0.2297
  137SOL     OW  409   2.829   1.043   1.036  0.0231 -0.1296  0.1189
  137SOL    HW1  410   2.792   0.968   0.978 -0.2383  2.7034  0.7334
  137SOL    HW2  411   2.906   1.013   1.100  2.0120 -1.6088 -0.4212
  138SOL     OW  412   1.443   0.891   1.184  0.4118 -0.3418  0.2285
  138SOL    HW1  413   1.434   0.841   1.273  1.6919 -1.6946  2.6783
  138SOL    HW2  414   1.533   0.933   1.175  2.2833 -2.0998 -2.6212
  139SOL     OW  415   1.851   0.093   3.038 -0.7976 -0.0283  0.0605
  139SOL    HW1  416   1.839   0.003   3.076  1.9476 -0.4529 -0.0147
  139SOL    HW2  417   1.809   0.105   2.947 -0.5923  0.9034  1.3584
  140SOL     OW  418   1.431   1.623   1.446 -0.1239  0.1202  0.0146
  140SOL    HW1  419   1.509   1.656   1.391 -0.4978 -2.4506 -2.3022
  140SOL    HW2  420   1.396   1.689   1.521 -1.0621  1.7333 -1.0680
  141SOL     OW  421   1.811   1.954   0.599 -0.3983  0.0936 -0.2164
  141SOL    HW1  422   1.771   1.920   0.515  1.6440 -1.0229  1.0478
  141SOL    HW2  423   1.747   1.963   0.674 -0.3285  3.0863 -3.3138
  142SOL     OW  424   0.873   0.915   3.099  0.1121  0.2017 -0.2324
  142SOL    HW1  425   0.842   0.838   0.040 -1.7873 -3.0074  0.6727
  142SOL    HW2  426   0.976   0.908   3.088 -1.6495 -1.6383  0.5333
  143SOL     OW  427   0.398   2.305   0.228  0.2745  0.2580  0.1812
  143SOL    HW1  428   0.355   2.273   0.144  0.0903 -1.3270  1.0306
  143SOL    HW2  429   0.320   2.304   0.295  0.1553  1.1504  0.7742
  144SOL     OW  430   1.612   2.948   1.039 -0.0029  0.6591 -0.3013
  144SOL    HW1  431   1.560   3.025   1.089  0.0793 -2.4460  1.5587
  144SOL    HW2  432   1.589   2.862   1.085  0.7472  0.1558 -1.0317
  145SOL     OW  433   2.141   1.299   0.285 -0.2171 -0.0683 -0.5377
  145SOL    HW1  434   2.175   1.200   0.294 -2.8734 -3.4299 -1.0608
  145SOL    HW2  435   2.037   1.296   0.267 -1.2775  2.1641 -1.5857
  146SOL     OW  436   2.963   2.033   0.497 -0.2937 -0.5531 -0.7740
  146SOL    HW1  437   2.919   1.974   0.570  1.3752 -1.4051  1.4683
  146SOL    HW2  438   2.892   2.081   0.447  0.0745 -1.7240  2.1140
  147SOL     OW  439   2.424   3.015   1.674 -0.4908 -0.1099  0.4479
  147SOL    HW1  440   2.414   2.967   1.582 -1.2290 -1.8638 -1.5462
  147SOL    HW2  441   2.520   3.008   1.717  0.2513  2.1498  3.4197
  148SOL     OW  442   1.497   3.040   1.935  0.0195 -0.1686  0.2102
  148SOL    HW1  443   1.539   2.951   1.911  0.1953 -0.7048  1.6181
  148SOL    HW2  444   1.465   3.043   2.031  0.9284 -2.0958  0.6694
  149SOL     OW  445   1.873   0.791   2.181 -0.6833  0.2269  0.0237
  149SOL    HW1  446   1.939   0.717   2.201  1.6350 -0.0206 -2.9407
  149SOL    HW2  447   1.912   0.863   2.114 -0.2478 -1.1124  1.1396
  150SOL     OW  448   0.218   0.027   0.317  0.6159 -0.2300 -0.3048
  150SOL    HW1  449   0.168   3.118   0.398  0.3382 -0.8260 -0.1325
  150SOL    HW2  450   0.259   0.120   0.332  0.1719  2.1052 -0.1527
  151SOL     OW  451   0.106   2.053   0.504 -0.0307  0.1824 -0.2947
  151SOL    HW1  452   0.009   2.027   0.479  0.5066  1.7762  0.6310
  151SOL    HW2  453   0.137   2.141   0.473 -0.6621  1.6256  0.9616
  152SOL     OW  454   2.854   0.013   0.692  0.1506 -0.2276  0.6093
  152SOL    HW1  455   2.943   3.096   0.720  2.0695 -2.5528 -0.1031
  152SOL    HW2  456   2.791   3.100   0.764 -0.4208 -1.7809  0.1744
  153SOL     OW  457   2.559   0.014   0.900 -0.4963 -0.3687 -1.1056
  153SOL    HW1  458   2.620   3.118   0.976 -2.6397  0.1523 -1.6767
  153SOL    HW2  459   2.517   3.051   0.863  0.2394 -0.9127  0.4183
  154SOL     OW  460   1.057   0.424   1.721  0.1469 -0.5112 -0.1093
  154SOL    HW1  461   1.109   0.370   1.790  1.3159 -0.6780  0.3734
  154SOL    HW2  462   1.024   0.511   1.765  0.9283  1.4853  0.3415
  155SOL     OW  463   0.009   1.105   1.191  0.8800 -0.3824 -0.5295
  155SOL    HW1  464   0.055   1.126   1.099 -0.4045 -0.4623 -0.2399
  155SOL    HW2  465   0.000   1.189   1.246  0.6157 -2.9409  1.8873
  156SOL     OW  466   0.016   2.012   3.044  0.2901 -0.3225 -0.0584
  156SOL    HW1  467   3.120   2.036   0.019 -1.9059 -0.1371  0.6477
  156SOL    HW2  468   3.091   2.075   2.982 -0.3704  2.6416 -0.0686
  157SOL     OW  469   0.981   0.603   0.257 -0.3998  0.0302 -0.0354
  157SOL    HW1  470   0.988   0.544   0.340 -0.2335 -1.6127 -1.7427
  157SOL    HW2  471   1.074   0.651   0.235 -1.9638  0.8728 -3.7959
  158SOL     OW  472   2.552   3.116   2.575  0.4106 -0.0375 -0.0452
  158SOL    HW1  473   2.610   0.065   2.604 -2.1259 -1.4740 -2.7898
  158SOL    HW2  474   2.455   0.028   2.584 -1.1003  0.2922  3.0858
  159SOL     OW  475   0.837   0.276   0.561 -0.0965  0.0652 -0.1863
  159SOL    HW1  476   0.901   0.195   0.571  1.2621 -0.2873 -1.6204
  159SOL    HW2  477   0.887   0.350   0.510 -0.7948  0.9648 -1.7640
  160SOL     OW  478   1.167   2.097   2.979 -0.2675 -0.4558 -0.4386
  160SOL    HW1  479   1.090   2.152   2.937 -1.2504  0.2444  1.1647
  160SOL    HW2  480   1.190   2.122   3.078  1.0334  0.8966  1.8783
  161SOL     OW  481   3.080   1.519   2.490 -0.0199 -0.1523  0.0433
  161SOL    HW1  482   3.015   1.594   2.463  0.0377  1.1404  2.8183
  161SOL    HW2  483   3.047   1.481   2.576  1.9953 -1.3083 -1.6800
  162SOL     OW  484   0.502   2.501   1.448  0.0153 -1.1998 -0.2570
  162SOL    HW1  485   0.480   2.592   1.501  0.0623  2.8863  2.6568
  162SOL    HW2  486   0.495   2.515   1.350  0.4213 -0.5394  0.1227
  163SOL     OW  487   2.454   0.540   2.336 -0.0204 -0.2847  0.8209
  163SOL    HW1  488   2.510   0.616   2.376 -0.5280 -0.7281  2.1969
  163SOL    HW2  489   2.464   0.462   2.400  0.1324  0.0390  0.1178
  164SOL     OW  490   2.723   1.306   0.585  0.1910 -0.3273 -0.2102
  164SOL    HW1  491   2.636   1.349   0.581  1.6948 -1.5378 -0.5327
  164SOL    HW2  492   2.751   1.312   0.681 -0.8103  1.1674 -1.8777
  165SOL     OW  493   0.163   0.320   1.416  0.1216 -0.4114 -0.1093
  165SOL    HW1  494   0.202   0.275   1.333 -0.8647  1.8603 -2.2787
  165SOL    HW2  495   0.175   0.421   1.414 -2.7351 -1.9314  0.4192
  166SOL     OW  496   2.051   0.995   0.799 -0.3739 -0.0297 -0.4133
  166SOL    HW1  497   2.086   1.092   0.792 -0.4367  1.6430 -1.0038
  166SOL    HW2  498   1.986   0.971   0.723  0.8885 -1.2319  0.4616
  167SOL     OW  499   0.294   0.589   0.115  0.3887  0.5192  0.0167
  167SOL    HW1  500   0.266   0.506   0.066  2.2073  0.4712  0.8904
  167SOL    HW2  501   0.298   0.664   0.046  1.0381  1.2768  2.4600
  168SOL     OW  502   1.829   2.968   1.897 -0.1900  0.9039  0.4249
  168SOL    HW1  503   1.805   3.061   1.921  2.1810  0.3049 -2.3437
  168SOL    HW2  504   1.919   2.973   1.857 -2.4187  0.7038 -0.7804
  169SOL     OW  505   0.789   1.041   0.962 -0.1031  0.8523  0.2387
  169SOL    HW1  506   0.814   0.941   0.962  1.3722 -2.5677 -1.6213
  169SOL    HW2  507   0.746   1.068   1.049  0.0044  0.0226  0.0343
  170SOL     OW  508   3.016   0.266   1.433 -0.5869  0.0592  0.2107
  170SOL    HW1  509   3.113   0.278   1.403  2.2286  0.5560  0.3930
  170SOL    HW2  510   3.006   0.229   1.527  0.6266  1.1018  0.9010
  171SOL     OW  511   1.354   2.845   2.700  0.2577  0.5770 -0.0706
  171SOL    HW1  512   1.320   2.752   2.723 -1.0109 -1.3509 -0.9217
  171SOL    HW2  513   1.278   2.908   2.678 -0.1444 -0.3449 -0.0403
  172SOL     OW  514   0.293   2.726   1.218 -0.2890  0.3060  0.0003
  172SOL    HW1  515   0.388   2.695   1.227 -1.4561 -1.1840  0.7722
  172SOL    HW2  516   0.275   2.786   1.136 -1.1743  1.7321  0.1833
  173SOL     OW  517   1.595   0.760   2.864 -0.0842 -0.1575 -0.0888
  173SOL    HW1  518   1.529   0.685   2.871  0.3332  0.1617  0.5763
  173SOL    HW2  519   1.668   0.746   2.792 -1.1393  0.2252 -0.6664
  174SOL     OW  520   1.885   3.115   2.644 -0.7543 -0.1575 -0.1005
  174SOL    HW1  521   1.807   0.019   2.698  0.4646 -0.4368 -0.5359
  174SOL    HW2  522   1.974   0.025   2.685 -0.4428  0.6035 -1.7767
  175SOL     OW  523   1.977   2.556   0.274 -0.1835  0.7750 -0.3145
  175SOL    HW1  524   1.926   2.603   0.198  0.5776  0.1980 -5.3607
  175SOL    HW2  525   1.939   2.470   0.317  0.4974 -2.4785  1.4191
  176SOL     OW  526   2.087   0.212   2.999 -0.0370 -0.3399 -0.1764
  176SOL    HW1  527   2.170   0.181   3.046 -0.2022 -0.6000 -4.1542
  176SOL    HW2  528   2.010   0.148   3.016  2.1313  2.8242  0.5099
  177SOL     OW  529   0.991   1.580   0.672 -0.0851  0.3256 -0.3127
  177SOL    HW1  530   1.067   1.638   0.636 -2.9161 -1.3762  0.9730
  177SOL    HW2  531   0.899   1.609   0.633 -0.7495  1.1189 -1.9948
  178SOL     OW  532   2.740   2.307   3.003  0.4777 -0.1905  0.1623
  178SOL    HW1  533   2.674   2.332   2.929 -0.4519 -1.5268  1.1538
  178SOL    HW2  534   2.832   2.339   2.976  1.6191 -0.0093  0.1868
  179SOL     OW  535   0.591   2.954   2.895 -0.3072 -0.1462  0.4286
  179SOL    HW1  536   0.673   2.896   2.894 -0.4531 -0.1194  0.1399
  179SOL    HW2  537   0.507   2.913   2.931  2.2391 -2.9037 -3.5477
  180SOL     OW  538   1.376   1.342   0.933  0.3717  0.0099 -0.1264
  180SOL    HW1  539   1.384   1.409   1.006 -0.3068  0.5107  1.0403
  180SOL    HW2  540   1.283   1.296   0.938 -0.8739 -0.1185 -3.4068
  181SOL     OW  541   2.287   1.001   2.221  0.1734  0.0217  0.1574
  181SOL    HW1  542   2.225   1.038   2.147  0.9867  0.3413  2.0338
  181SOL    HW2  543   2.302   0.897   2.214 -1.5410 -0.9591  0.4828
  182SOL     OW  544   0.222   2.947   2.273  0.1596 -0.0450 -0.0745
  182SOL    HW1  545   0.158   3.014   2.233  1.7719 -0.3443 -1.1044
  182SOL    HW2  546   0.315   2.962   2.236  1.5421  0.9565 -3.3308
  183SOL     OW  547   1.409   0.874   2.300 -0.5970 -0.8648  0.6262
  183SOL    HW1  548   1.515   0.875   2.305  0.0478  1.4975  0.3633
  183SOL    HW2  549   1.369   0.782   2.280  0.7590 -0.6753  0.9757
  184SOL     OW  550   0.511   0.834   1.730  0.1197  0.0429 -0.0146
  184SOL    HW1  551   0.605   0.869   1.739 -0.5814 -0.3187 -1.2356
  184SOL    HW2  552   0.452   0.849   1.812 -1.5971 -1.6924  1.3877
  185SOL     OW  553   1.982   1.009   0.370 -0.3798 -0.0925 -0.1339
  185SOL    HW1  554   1.948   1.080   0.305  0.6047 -0.4046  1.7893
  185SOL    HW2  555   2.085   1.005   0.370  2.9634 -3.2903 -0.6301
  186SOL     OW  556   0.314   2.392   3.044 -0.4004 -0.2329  0.5403
  186SOL    HW1  557   0.362   2.315   2.997 -0.1572  1.7091 -1.9566
  186SOL    HW2  558   0.241   2.360   3.108 -1.2484  0.4858 -1.8089
  187SOL     OW  559   2.572   1.200   0.086  0.0838  0.1792  0.0698
  187SOL    HW1  560   2.485   1.147   0.075 -0.5360 -0.1880 -0.6389
  187SOL    HW2  561   2.596   1.206   0.187  1.2758 -0.3615  1.1965
  188SOL     OW  562   0.086   1.399   0.814 -0.2844 -0.1060 -0.1599
  188SOL    HW1  563   0.183   1.404   0.859  1.5844  2.6720  1.7046
  188SOL    HW2  564   0.023   1.473   0.847 -1.3818  0.0858  0.6724
  189SOL     OW  565   2.737   0.262   0.202  0.0310  0.1224 -0.7908
  189SOL    HW1  566   2.831   0.216   0.193  0.6802 -0.4493  1.0858
  189SOL    HW2  567   2.667   0.197   0.233 -0.5982  2.1170 -0.7169
  190SOL     OW  568   1.391   1.557   2.197 -0.3672 -0.0107  0.0565
  190SOL    HW1  569   1.299   1.580   2.236 -1.1710 -1.2176 -0.6273
  190SOL    HW2  570   1.396   1.453   2.180  0.2798 -1.0846  1.9757
  191SOL     OW  571   2.830   0.351   1.717  0.0959  0.0455  0.7338
  191SOL    HW1  572   2.802   0.439   1.672  0.3728 -2.0156  1.1240
  191SOL    HW2  573   2.749   0.285   1.712 -1.2496  0.3202 -0.8650
  192SOL     OW  574   1.750   1.464   1.037  0.1249 -1.0098 -0.1110
  192SOL    HW1  575   1.826   1.445   1.100 -4.1111  0.7907  2.5433
  192SOL    HW2  576   1.778   1.504   0.943 -0.9712  2.2321  0.6994
  193SOL     OW  577   0.839   0.779   0.919  0.0848 -0.3042  0.2239
  193SOL    HW1  578   0.764   0.731   0.869  0.7002  0.1977 -0.5783
  193SOL    HW2  579   0.901   0.710   0.962  0.1910 -1.3197  2.5355
  194SOL     OW  580   1.130   2.353   1.452  0.6058  0.6852  0.4199
  194SOL    HW1  581   1.199   2.392   1.390  1.8050 -1.3726 -0.2939
  194SOL    HW2  582   1.127   2.397   1.542  1.3566 -1.3489 -1.4507
  195SOL     OW  583   2.443   0.374   2.798  0.0599 -0.0989 -0.0249
  195SOL    HW1  584   2.474   0.276   2.815 -0.9243  0.5518 -0.6170
  195SOL    HW2  585   2.424   0.418   2.885 -0.1242  0.2664  1.0341
  196SOL     OW  586   1.124   2.535   1.678 -0.3001  0.0399 -0.2250
  196SOL    HW1  587   1.131   2.512   1.778  0.2131 -0.5654  1.8475
  196SOL    HW2  588   1.034   2.584   1.663 -1.9217 -0.7694 -0.2000
  197SOL     OW  589   0.710   2.737   1.065  0.0738 -0.3723 -0.5617
  197SOL    HW1  590   0.638   2.765   0.998  1.1159 -0.2250 -0.7914
  197SOL    HW2  591   0.794   2.717   1.012  0.8170  0.3547 -1.2995
  198SOL     OW  592   0.913   0.775   0.592  0.1776 -0.9008  0.1927
  198SOL    HW1  593   0.842   0.718   0.638 -0.7072 -1.7856  1.5278
  198SOL    HW2  594   0.864   0.858   0.556 -0.8575  0.9823 -2.6773
  199SOL     OW  595   0.311   2.865   1.922  0.0654  0.2855 -0.2303
  199SOL    HW1  596   0.401   2.815   1.912  0.6357  0.4008  2.2333
  199SOL    HW2  597   0.279   2.915   1.836 -1.6404  2.8319 -0.7553
  200SOL     OW  598   2.112   1.915   2.371 -0.1974  0.4583 -0.0336
  200SOL    HW1  599   2.109   1.854   2.290  0.1649 -1.0231  0.2052
  200SOL    HW2  600   2.094   2.014   2.341  0.8544 -1.5421 -0.6679
  201SOL     OW  601   3.021   2.238   1.486 -0.2017 -0.2154 -0.3742
  201SOL    HW1  602   2.968   2.240   1.400 -0.9686  2.3711  2.0992
  201SOL    HW2  603   2.964   2.218   1.571 -0.4584  1.0314  2.0352
  202SOL     OW  604   2.644   0.026   0.324 -0.1640 -0.0928 -0.2971
  202SOL    HW1  605   2.716   3.085   0.358  0.1989  0.1469  2.4760
  202SOL    HW2  606   2.582   3.106   0.254 -0.1429 -0.2214 -1.3645
  203SOL     OW  607   1.282   2.163   2.329 -0.1310  0.3269  0.0907
  203SOL    HW1  608   1.266   2.065   2.351  1.6688  0.2563 -0.7404
  203SOL    HW2  609   1.378   2.186   2.354  2.4325  0.8526 -2.3297
  204SOL     OW  610   1.418   1.970   1.295 -0.2443 -0.0401 -0.3087
  204SOL    HW1  611   1.418   2.072   1.288 -0.6203  1.7002 -1.5316
  204SOL    HW2  612   1.474   1.937   1.377  1.1744  1.9837  2.3250
  205SOL     OW  613   1.149   1.774   2.043  0.5751  0.3888  0.1365
  205SOL    HW1  614   1.225   1.742   1.988 -1.0123 -0.6182  0.4123
  205SOL    HW2  615   1.117   1.691   2.097  0.9652  0.8317  3.2248
  206SOL     OW  616   0.389   0.752   2.614  0.1870 -0.2493 -0.2510
  206SOL    HW1  617   0.413   0.755   2.714 -1.2603 -1.9222  0.8700
  206SOL    HW2  618   0.432   0.676   2.568 -1.5470  0.4234 -0.1059
  207SOL     OW  619   0.830   0.024   1.825 -0.0373  0.3379  0.1004
  207SOL    HW1  620   0.827   0.112   1.774  0.5773 -0.4737  0.1897
  207SOL    HW2  621   0.883   0.036   1.912  0.5267 -0.7042  0.3015
  208SOL     OW  622   0.682   2.484   1.849 -0.1436 -0.4412 -0.0766
  208SOL    HW1  623   0.765   2.536   1.881  0.7376 -1.9562  1.3531
  208SOL    HW2  624   0.700   2.425   1.774  0.4038  0.6310  1.6307
  209SOL     OW  625   1.494   0.538   0.059  0.3256 -0.4360  0.2466
  209SOL    HW1  626   1.468   0.563   3.083  0.5873  0.1178 -0.6651
  209SOL    HW2  627   1.413   0.537   0.117  2.2651  3.5970 -0.6004
  210SOL     OW  628   3.050   0.459   0.744 -0.2859  0.1894  0.0716
  210SOL    HW1  629   2.975   0.480   0.813 -1.2580  1.4808  2.8189
  210SOL    HW2  630   3.032   0.378   0.684 -0.3877 -2.5019 -3.8512
  211SOL     OW  631   0.636   0.747   1.291  0.5415  0.1239  0.0755
  211SOL    HW1  632   0.685   0.671   1.338 -0.3070 -1.9741 -0.9855
  211SOL    HW2  633   0.550   0.759   1.338  3.2394 -1.7431  1.8524
  212SOL     OW  634   1.392   1.522   1.134  0.4698 -0.1306  0.4343
  212SOL    HW1  635   1.317   1.547   1.195  0.8725 -1.5077  0.5935
  212SOL    HW2  636   1.481   1.565   1.158 -2.2791 -0.6580  2.7457
  213SOL     OW  637   1.945   0.081   1.599 -0.3369  0.7632 -0.2426
  213SOL    HW1  638   2.031   0.050   1.646  0.2833 -3.1130  2.7769
  213SOL    HW2  639   1.890   0.002   1.570  2.4625  1.9918 -0.2000
  214SOL     OW  640   1.255   2.615   2.758 -0.1678 -0.2302  0.5559
  214SOL    HW1  641   1.292   2.587   2.851  3.1049 -1.9097 -0.4322
  214SOL    HW2  642   1.207   2.543   2.713 -2.0921  0.5270 -0.9800
  215SOL     OW  643   2.878   1.782   1.233 -0.5217  0.0076 -0.0360
  215SOL    HW1  644   2.788   1.830   1.230 -0.9625  3.6453 -1.2980
  215SOL    HW2  645   2.879   1.683   1.222 -0.1498  1.1001 -0.2678
  216SOL     OW  646   0.243   0.463   1.969 -0.0728 -0.2060  0.0906
  216SOL    HW1  647   0.161   0.520   1.946  0.4081 -0.1951  0.9572
  216SOL    HW2  648   0.311   0.514   2.030 -0.2405 -0.5987 -0.9098
  217SOL     OW  649   3.003   0.148   0.291 -0.1934 -0.4409  0.4924
  217SOL    HW1  650   3.065   0.191   0.357 -0.2256 -0.5512 -0.0746
  217SOL    HW2  651   2.969   0.056   0.328  3.6039  1.2644  2.4841
  218SOL     OW  652   1.645   1.889   1.469  0.4870 -0.6117  0.5480
  218SOL    HW1  653   1.680   1.813   1.521 -2.2928  2.3658 -2.2860
  218SOL    HW2  654   1.689   1.903   1.383  0.0324  1.5208  2.0875
  219SOL     OW  655   1.675   0.693   0.201  0.2842 -0.0751 -0.3439
  219SOL    HW1  656   1.614   0.714   0.282  0.8918 -0.1721 -0.8132
  219SOL    HW2  657   1.632   0.640   0.126 -0.7715  0.2188  0.1365
  220SOL     OW  658   1.630   1.938   0.857 -0.1762 -0.1336  0.1445
  220SOL    HW1  659   1.553   1.999   0.841 -0.1122  2.6722  1.9350
  220SOL    HW2  660   1.602   1.837   0.847  0.2959 -1.6532 -0.6975
  221SOL     OW  661   2.999   0.381   2.996  0.4637 -0.2949  0.1857
  221SOL    HW1  662   3.080   0.384   2.932 -0.2453 -1.6891 -0.8121
  221SOL    HW2  663   2.984   0.477   3.039  1.0891  2.0511  0.7496
  222SOL     OW  664   0.908   2.705   1.630  0.1051  1.1290  0.4719
  222SOL    HW1  665   0.907   2.804   1.628 -1.1706 -2.5670 -1.4387
  222SOL    HW2  666   0.843   2.668   1.558 -0.8063 -1.9271 -3.5332
  223SOL     OW  667   1.416   0.523   2.916  0.4936 -0.7171  0.0843
  223SOL    HW1  668   1.475   0.467   2.860 -1.3109  2.0353  1.4199
  223SOL    HW2  669   1.316   0.514   2.894 -1.6912  1.6107 -0.0388
  224SOL     OW  670   2.774   0.425   1.130  0.6658  0.1075 -0.4318
  224SOL    HW1  671   2.840   0.475   1.194  0.5503 -0.5329  1.6478
  224SOL    HW2  672   2.709   0.363   1.177 -2.5982 -0.2216 -2.4192
  225SOL     OW  673   0.709   1.352   1.820 -0.5629 -0.4149 -0.1061
  225SOL    HW1  674   0.721   1.447   1.780 -0.5609  2.5157  0.6509
  225SOL    HW2  675   0.611   1.332   1.822 -0.1963  0.1603 -1.3844
  226SOL     OW  676   0.889   2.951   0.827 -0.0052 -0.6089 -0.1761
  226SOL    HW1  677   0.928   2.913   0.741 -0.3202  2.9873  0.3779
  226SOL    HW2  678   0.836   3.034   0.800 -0.1532  0.8382  0.6202
  227SOL     OW  679   0.912   1.906   1.589  0.1046  0.4044 -0.5994
  227SOL    HW1  680   0.916   1.875   1.492 -0.0732  0.5011  1.9204
  227SOL    HW2  681   0.958   1.843   1.653  2.2266  0.8623  0.2829
  228SOL     OW  682   0.509   3.093   1.664 -0.2636  0.8214 -0.4504
  228SOL    HW1  683   0.566   3.083   1.751  0.1129 -0.2384  1.1967
  228SOL    HW2  684   0.416   3.060   1.672 -0.4128  0.2117 -1.5686
  229SOL     OW  685   2.534   0.746   0.457  0.1505  0.0336  0.1261
  229SOL    HW1  686   2.595   0.674   0.498  2.4614 -1.9500  1.4849
  229SOL    HW2  687   2.593   0.807   0.406 -1.9390 -3.2112 -0.3700
  230SOL     OW  688   0.388   1.273   2.203 -0.1135 -0.1399 -0.0022
  230SOL    HW1  689   0.362   1.193   2.261  0.3317  0.7771  1.8059
  230SOL    HW2  690   0.488   1.281   2.188 -1.2284 -1.8331 -0.1239
  231SOL     OW  691   1.133   2.781   1.328 -0.1109 -0.1776  0.3184
  231SOL    HW1  692   1.030   2.774   1.351 -0.2972 -0.6307  2.0357
  231SOL    HW2  693   1.186   2.732   1.401  0.8911  2.9231  0.1293
  232SOL     OW  694   2.435   2.426   0.175 -0.2262  0.0627 -0.0499
  232SOL    HW1  695   2.440   2.531   0.160 -0.8469 -0.1233 -1.0473
  232SOL    HW2  696   2.350   2.394   0.136  1.9069  2.4093  1.6407
  233SOL     OW  697   1.131   2.742   0.292 -0.0206  0.4133  0.4906
  233SOL    HW1  698   1.110   2.837   0.308  1.6277 -4.1228  0.8761
  233SOL    HW2  699   1.123   2.723   0.192  1.6875  2.7217  1.8362
  234SOL     OW  700   0.966   0.718   2.111  0.2276 -0.7214 -0.1333
  234SOL    HW1  701   0.883   0.661   2.104 -0.9588 -1.9932 -1.1312
  234SOL    HW2  702   0.948   0.817   2.114 -0.2805 -1.3489 -2.1566
  235SOL     OW  703   0.188   2.314   0.403 -0.6508 -0.6136 -0.0739
  235SOL    HW1  704   0.192   2.397   0.467  1.9817  2.8774 -0.9800
  235SOL    HW2  705   0.096   2.321   0.356  0.1957  0.4650 -0.5087
  236SOL     OW  706   2.064   2.772   2.458  0.5030  0.2278  0.6279
  236SOL    HW1  707   2.155   2.754   2.415  0.3149  0.0241 -1.3057
  236SOL    HW2  708   2.006   2.692   2.433 -1.6725 -0.7738  1.0734
  237SOL     OW  709   1.931   1.242   1.499 -0.1647  0.4382  0.3740
  237SOL    HW1  710   1.941   1.144   1.468  1.3242 -1.5863 -2.4946
  237SOL    HW2  711   1.848   1.255   1.558 -1.1422  1.2688 -1.0482
  238SOL     OW  712   1.747   0.197   2.260  0.3511  0.1953 -0.2094
  238SOL    HW1  713   1.845   0.182   2.289  2.5334 -0.9204  0.0151
  238SOL    HW2  714   1.738   0.166   2.163 -2.3320 -2.2740  0.6856
  239SOL     OW  715   0.988   2.195   1.790 -0.1061  0.0909 -0.5319
  239SOL    HW1  716   0.903   2.214   1.740  1.3228 -1.4673  1.8699
  239SOL    HW2  717   1.071   2.186   1.732 -0.6537  0.8260  2.9742
  240SOL     OW  718   2.953   2.758   0.772 -0.6447 -0.3950  0.6399
  240SOL    HW1  719   2.985   2.733   0.673  2.3490 -2.1161 -2.4003
  240SOL    HW2  720   2.948   2.677   0.835  1.4532 -0.0353  1.7647
  241SOL     OW  721   1.462   1.976   0.340  0.1809 -0.3831  0.8095
  241SOL    HW1  722   1.440   1.959   0.437  2.0054 -0.7928  1.7500
  241SOL    HW2  723   1.562   1.985   0.312  1.7733 -0.3667  1.9350
  242SOL     OW  724   2.356   1.037   0.085 -0.0013  0.0071 -0.0939
  242SOL    HW1  725   2.389   0.939   0.085 -1.6641  0.2104 -0.8962
  242SOL    HW2  726   2.302   1.059   3.123 -0.2596 -1.3444  1.6460
  243SOL     OW  727   0.631   0.354   1.852 -0.3966 -0.3156  0.1615
  243SOL    HW1  728   0.700   0.316   1.794 -1.4618  1.6943  2.8108
  243SOL    HW2  729   0.559   0.408   1.805 -0.6290 -0.2405  2.8166
  244SOL     OW  730   1.679   2.765   2.878  0.1173 -0.1967  0.0310
  244SOL    HW1  731   1.645   2.864   2.870  0.6273  3.5157  0.6395
  244SOL    HW2  732   1.744   2.749   2.809 -1.9011  0.4428  3.3700
  245SOL     OW  733   1.693   0.083   2.824 -0.5000  0.3206 -0.3665
  245SOL    HW1  734   1.658   0.179   2.842 -0.8856  0.3105  1.9568
  245SOL    HW2  735   1.631   0.009   2.860 -0.6432 -0.8955 -0.7711
  246SOL     OW  736   1.332   1.240   2.495 -0.3303 -0.3113  0.5561
  246SOL    HW1  737   1.433   1.252   2.488  1.4157  0.9216  5.2707
  246SOL    HW2  738   1.283   1.327   2.499  0.3873 -2.5632  1.0387
  247SOL     OW  739   2.768   0.448   2.065 -0.1952 -0.3133  0.0630
  247SOL    HW1  740   2.834   0.411   2.005 -3.1467  1.3087  1.4404
  247SOL    HW2  741   2.727   0.526   2.011  0.6513 -3.7401 -1.3012
  248SOL     OW  742   0.505   1.068   1.992 -0.1786 -0.3505  0.2159
  248SOL    HW1  743   0.423   1.062   1.932 -1.0661 -1.3619  1.9458
  248SOL    HW2  744   0.538   1.167   1.992  2.7734  0.2973  1.7510
  249SOL     OW  745   2.594   0.474   0.151  0.2187  0.0229 -0.1531
  249SOL    HW1  746   2.523   0.497   0.217 -0.0532 -0.9745 -0.2440
  249SOL    HW2  747   2.668   0.413   0.183 -1.5614  1.3884 -0.4953
  250SOL     OW  748   2.963   0.239   0.603  0.0362 -0.6052 -0.1324
  250SOL    HW1  749   2.899   0.291   0.539 -0.5334  0.2869 -3.0233
  250SOL    HW2  750   2.915   0.149   0.629 -1.7562 -1.3082  0.2472
  251SOL     OW  751   0.788   1.075   2.239  0.3323 -0.4239  0.2877
  251SOL    HW1  752   0.817   1.020   2.320 -0.4717 -0.3024  0.4837
  251SOL    HW2  753   0.850   1.061   2.163  2.2247  0.7495  1.4958
  252SOL     OW  754   1.430   1.717   1.959 -0.6422 -0.4848 -0.3037
  252SOL    HW1  755   1.431   1.671   2.048 -1.8652  3.1428 -1.1404
  252SOL    HW2  756   1.461   1.658   1.883  0.8522 -0.4607  1.8040
  253SOL     OW  757   1.437   2.410   1.852 -0.1129 -0.5302  0.2049
  253SOL    HW1  758   1.410   2.510   1.833  0.0388 -0.4525 -0.3604
  253SOL    HW2  759   1.367   2.339   1.830  1.1416 -0.2369  0.2254
  254SOL     OW  760   0.846   2.171   2.291  0.1439  0.4756  0.0976
  254SOL    HW1  761   0.751   2.170   2.247 -0.8598  0.5259 -1.7153
  254SOL    HW2  762   0.914   2.108   2.250 -1.2378  0.2260  0.8363
  255SOL     OW  763   1.316   0.715   0.651 -0.1837 -0.1030 -0.3649
  255SOL    HW1  764   1.226   0.668   0.666  1.5649  0.5033  1.7688
  255SOL    HW2  765   1.331   0.789   0.722  0.0452  3.8339  2.5477
  256SOL     OW  766   1.947   2.190   1.142  0.1523  0.1574  0.4344
  256SOL    HW1  767   1.978   2.286   1.138  0.1784  1.7701 -0.5555
  256SOL    HW2  768   1.915   2.159   1.049  0.2787  0.0290 -0.7191
  257SOL     OW  769   0.237   2.218   2.695 -0.3435  0.0600 -0.1461
  257SOL    HW1  770   0.331   2.253   2.683 -0.5971 -1.0522  1.3519
  257SOL    HW2  771   0.241   2.137   2.756 -1.5129  0.4305  0.6329
  258SOL     OW  772   0.420   1.078   2.408 -0.0223  0.4676  0.4450
  258SOL    HW1  773   0.475   1.148   2.458  0.6501  1.1763  0.1262
  258SOL    HW2  774   0.381   1.009   2.473  1.1293 -0.1840 -0.3386
  259SOL     OW  775   1.265   0.987   2.516  0.5481 -0.0892 -0.1265
  259SOL    HW1  776   1.284   1.089   2.525  1.8831 -0.8465  0.6531
  259SOL    HW2  777   1.330   0.946   2.446  0.2814  0.4204  0.3987
  260SOL     OW  778   2.034   0.621   0.638  0.5852 -0.1497  0.4556
  260SOL    HW1  779   2.006   0.701   0.580  0.0585  1.1212 -0.8962
  260SOL    HW2  780   1.986   0.537   0.614  3.1335 -0.3551 -1.0551
  261SOL     OW  781   0.899   0.439   2.963 -0.1120 -0.1106  0.1514
  261SOL    HW1  782   0.841   0.423   2.883 -0.3190  2.1916 -0.6188
  261SOL    HW2  783   0.878   0.519   3.018  0.1508 -1.5413 -1.5298
  262SOL     OW  784   2.198   2.813   2.699 -0.3126 -0.3702  0.3953
  262SOL    HW1  785   2.204   2.721   2.732 -0.0260  0.5679  0.4185
  262SOL    HW2  786   2.163   2.824   2.604 -2.1913 -0.9652 -0.2423
  263SOL     OW  787   0.861   2.119   0.224 -0.0031 -0.2017  0.3778
  263SOL    HW1  788   0.915   2.043   0.173 -1.0223 -1.4591 -1.0223
  263SOL    HW2  789   0.869   2.202   0.173 -0.1820 -1.1478  3.5898
  264SOL     OW  790   0.308   1.638   1.712 -0.2760 -0.1842  0.1353
  264SOL    HW1  791   0.358   1.595   1.792 -1.8115 -0.0551 -0.1772
  264SOL    HW2  792   0.256   1.727   1.739 -0.0242 -0.8113  0.7677
  265SOL     OW  793   0.751   1.020   0.519 -0.4197  0.1992  0.1912
  265SOL    HW1  794   0.683   1.049   0.587  0.0056  1.4252 -0.5002
  265SOL    HW2  795   0.829   1.085   0.514 -0.9554 -0.4378 -0.1586
  266SOL     OW  796   1.669   1.587   0.135  0.1665 -0.1474  0.2799
  266SOL    HW1  797   1.749   1.645   0.153 -1.6034 -1.0795 -0.3519
  266SOL    HW2  798   1.586   1.621   0.190 -1.5440  0.8843  0.4842
  267SOL     OW  799   2.790   0.201   2.957 -0.0992 -0.4333 -0.2559
  267SOL    HW1  800   2.859   0.275   2.980  2.5830 -2.1102  0.3291
  267SOL    HW2  801   2.740   0.224   2.870 -0.9588  0.1858  0.1410
  268SOL     OW  802   0.319   0.324   2.881  0.6719 -0.7069  0.7383
  268SOL    HW1  803   0.420   0.346   2.875  1.7503 -0.4180  2.3249
  268SOL    HW2  804   0.280   0.270   2.802 -1.1084  1.2959 -0.8592
  269SOL     OW  805   1.735   0.364   2.572  0.4168  0.1274  0.2069
  269SOL    HW1  806   1.682   0.375   2.485 -3.0985 -1.4833 -2.3486
  269SOL    HW2  807   1.677   0.318   2.643  1.4568  0.4027  1.1980
  270SOL     OW  808   1.074   0.783   2.561  0.4361 -0.2374 -0.0938
  270SOL    HW1  809   1.124   0.861   2.522  1.2347  0.0715  2.4567
  270SOL    HW2  810   1.103   0.758   2.656 -1.3711 -0.2046  0.7470
  271SOL     OW  811   2.669   0.886   0.030 -0.0809  0.0222  0.2616
  271SOL    HW1  812   2.696   0.982   3.120 -1.1233  2.8813 -0.3194
  271SOL    HW2  813   2.696   0.811   3.087 -3.5581 -2.8153  1.4763
  272SOL     OW  814   2.713   1.917   2.628  0.1174 -0.5203  0.1642
  272SOL    HW1  815   2.737   2.017   2.629 -0.3721 -1.9334  0.9210
  272SOL    HW2  816   2.638   1.900   2.562  0.6218 -0.4000  2.7366
  273SOL     OW  817   2.669   0.505   2.792  0.1926  0.0222 -0.3007
  273SOL    HW1  818   2.598   0.434   2.766 -1.5524 -0.7081  0.4164
  273SOL    HW2  819   2.731   0.516   2.711  0.8966 -0.1577  2.8014
  274SOL     OW  820   2.988   3.017   1.518 -0.2029 -0.3923 -0.1608
  274SOL    HW1  821   2.990   2.942   1.581  2.4979 -1.9853 -0.8557
  274SOL    HW2  822   2.958   3.099   1.569 -1.1418  1.5712  0.3148
  275SOL     OW  823   2.115   1.267   0.757 -0.0978 -0.3799 -0.1683
  275SOL    HW1  824   2.202   1.237   0.713 -2.0683 -0.4083 -1.6604
  275SOL    HW2  825   2.035   1.254   0.698  1.0201  0.6593  0.4991
  276SOL     OW  826   0.235   1.331   2.736 -0.1446 -0.3206  0.4999
  276SOL    HW1  827   0.336   1.331   2.755  0.8661 -0.5924  2.5432
  276SOL    HW2  828   0.200   1.427   2.732 -0.3684  1.2403  0.8667
  277SOL     OW  829   1.687   2.443   1.989 -0.2270  0.3767  0.2338
  277SOL    HW1  830   1.603   2.418   1.943  2.1780 -0.8918  0.0413
  277SOL    HW2  831   1.700   2.400   2.078  1.0774 -0.7782  1.3007
  278SOL     OW  832   2.026   0.271   1.405  0.4048  0.1342 -0.3444
  278SOL    HW1  833   1.985   0.196   1.464  0.1682 -0.4209  1.4025
  278SOL    HW2  834   1.951   0.337   1.373 -0.3004  1.0993 -1.3441
  279SOL     OW  835   1.471   1.285   2.899  0.2754 -0.0671  0.3244
  279SOL    HW1  836   1.492   1.191   2.891  0.0266  5.5799  1.1523
  279SOL    HW2  837   1.541   1.329   2.953 -1.4624 -1.9019 -0.3133
  280SOL     OW  838   0.602   1.719   1.179  0.0883 -0.4567 -0.4033
  280SOL    HW1  839   0.599   1.667   1.090  3.2370  0.1436 -2.0144
  280SOL    HW2  840   0.650   1.809   1.168 -0.1945  0.0409  1.1102
  281SOL     OW  841   0.056   0.200   2.444  0.3363  0.1591  0.0700
  281SOL    HW1  842   0.055   0.221   2.342  0.7505 -0.1410 -2.1177
  281SOL    HW2  843   3.121   0.119   2.464  2.5391  2.2825  0.9738
  282SOL     OW  844   0.138   1.001   1.554 -0.0679  0.1485  0.4583
  282SOL    HW1  845   0.052   1.055   1.552  1.1216 -0.3122 -1.2675
  282SOL    HW2  846   0.202   1.036   1.480  0.5367  1.2538 -0.5103
  283SOL     OW  847   1.482   2.470   2.578 -0.3651  0.1675  0.1521
  283SOL    HW1  848   1.524   2.403   2.513  1.2985  0.1543 -0.5094
  283SOL    HW2  849   1.383   2.453   2.592 -4.1814 -0.2183 -0.6691
  284SOL     OW  850   1.874   1.232   0.233 -0.3620  0.0429 -0.2654
  284SOL    HW1  851   1.781   1.249   0.266 -0.9881 -0.3646 -0.1369
  284SOL    HW2  852   1.882   1.238   0.132 -0.7949  0.8070  0.2122
  285SOL     OW  853   3.082   3.083   3.040  0.1237  0.4370  0.3971
  285SOL    HW1  854   3.109   0.043   3.088 -1.6050 -1.2421  1.2288
  285SOL    HW2  855   0.035   3.062   2.978 -2.4294 -0.2754  1.0642
  286SOL     OW  856   2.048   2.864   1.543 -0.0087 -0.4679 -0.1108
  286SOL    HW1  857   1.949   2.878   1.525 -0.7140 -0.4634 -0.0138
  286SOL    HW2  858   2.104   2.925   1.488 -1.9619  0.7987  0.6814
  287SOL     OW  859   0.707   1.004   1.392 -0.1580 -0.4081 -0.5593
  287SOL    HW1  860   0.683   0.912   1.358 -1.2177  1.2263 -0.1365
  287SOL    HW2  861   0.714   1.001   1.492 -1.4537 -2.0806  0.5527
  288SOL     OW  862   1.441   2.755   0.101 -0.1804 -0.0007 -0.1932
  288SOL    HW1  863   1.502   2.682   0.056  0.1065 -0.0326 -1.9407
  288SOL    HW2  864   1.407   2.726   0.196 -0.8994 -1.0027  0.1350
  289SOL     OW  865   0.001   1.743   3.076  0.2286 -0.1637 -0.2278
  289SOL    HW1  866   3.122   1.837   3.038  2.6573 -0.6002  1.8171
  289SOL    HW2  867   3.027   1.710   3.086 -2.3679  0.8374 -0.2736
  290SOL     OW  868   0.953   2.652   0.652 -0.4667  0.2454 -0.0272
  290SOL    HW1  869   0.954   2.742   0.601  0.2935 -0.5568 -1.5405
  290SOL    HW2  870   0.983   2.574   0.591 -0.6996  0.0823 -0.2033
  291SOL     OW  871   2.096   2.188   0.167  0.6242 -0.9004  0.0101
  291SOL    HW1  872   2.151   2.254   0.113 -2.2481 -0.4455 -1.1472
  291SOL    HW2  873   2.117   2.093   0.145  1.0990 -0.7358  2.9741
  292SOL     OW  874   0.901   1.305   1.996  0.1709 -0.1975 -0.0983
  292SOL    HW1  875   0.976   1.245   1.962 -1.0297  1.3288  3.5777
  292SOL    HW2  876   0.832   1.317   1.929  2.5738  0.8745  3.5219
  293SOL     OW  877   2.488   2.731   1.025  0.2384 -0.3430 -0.6697
  293SOL    HW1  878   2.476   2.642   0.978  0.2510  2.6926  0.5794
  293SOL    HW2  879   2.590   2.752   1.042  3.0951 -1.3104  2.2542
  294SOL     OW  880   3.051   0.627   2.373 -0.1373 -0.1934 -0.6226
  294SOL    HW1  881   3.038   0.728   2.356 -0.3414 -0.3497 -0.1441
  294SOL    HW2  882   0.023   0.607   2.345  1.1718  1.0024  0.7228
  295SOL     OW  883   1.022   1.896   0.136  0.0602 -0.3012  0.3638
  295SOL    HW1  884   1.077   1.832   0.078 -1.7460 -1.0030  1.5465
  295SOL    HW2  885   1.073   1.946   0.206  0.6622 -4.0860 -0.7422
  296SOL     OW  886   2.201   1.925   2.828 -0.2435 -0.1942 -0.1121
  296SOL    HW1  887   2.143   1.854   2.876 -2.2152  2.4578  1.3255
  296SOL    HW2  888   2.283   1.878   2.794 -1.2078  0.9278  0.7843
  297SOL     OW  889   2.678   0.611   3.061 -0.5188  0.2876 -0.0188
  297SOL    HW1  890   2.676   0.570   2.963 -0.1219 -1.1907 -1.9729
  297SOL    HW2  891   2.646   0.546   0.013 -2.7458 -0.3550  3.2346
  298SOL     OW  892   0.853   2.292   3.107 -0.7163 -0.0686 -0.6551
  298SOL    HW1  893   0.892   2.242   3.027  1.0438 -0.7182  1.3746
  298SOL    HW2  894   0.791   2.367   3.079  0.9518  0.0724 -0.3302
  299SOL     OW  895   1.500   2.909   2.485  0.2715  0.3953 -0.0043
  299SOL    HW1  896   1.522   3.009   2.469 -1.1545 -1.5028 -3.8064
  299SOL    HW2  897   1.438   2.892   2.571 -1.4877  1.6674  1.6612
  300SOL     OW  898   2.831   0.390   0.421  0.5299 -0.1121  0.9294
  300SOL    HW1  899   2.764   0.455   0.462 -0.7541  0.6172 -0.6320
  300SOL    HW2  900   2.805   0.353   0.326 -1.4450 -2.1292 -1.3424
  301SOL     OW  901   1.071   1.126   1.848  0.5171  0.2311 -0.1429
  301SOL    HW1  902   1.136   1.057   1.806  3.2271  0.8625  0.0841
  301SOL    HW2  903   1.001   1.152   1.775 -0.7758  0.4903  1.2997
  302SOL     OW  904   0.137   2.303   0.102 -0.0242  0.0957 -0.2289
  302SOL    HW1  905   0.115   2.204   0.127 -1.7872 -3.3605  0.6860
  302SOL    HW2  906   0.055   2.363   0.116 -3.0371 -0.9250  0.6505
  303SOL     OW  907   3.057   3.085   2.525  0.1075  0.0876 -0.0610
  303SOL    HW1  908   3.037   3.079   2.626 -2.0343  0.8984 -0.9106
  303SOL    HW2  909   3.005   3.015   2.472 -0.8991  1.4182  0.5194
  304SOL     OW  910   2.686   0.670   1.946 -0.4129 -0.0212 -0.5734
  304SOL    HW1  911   2.728   0.678   1.853 -0.1565 -0.6175  1.8592
  304SOL    HW2  912   2.587   0.693   1.938  0.1239 -0.9850 -3.3024
  305SOL     OW  913   0.639   2.664   2.220 -0.1745  0.1656 -0.5851
  305SOL    HW1  914   0.699   2.732   2.177 -0.9834  1.7490  0.5435
  305SOL    HW2  915   0.678   2.620   2.301  1.8164  0.7254 -1.1716
  306SOL     OW  916   2.500   1.092   1.574  0.5635  0.3797  0.0029
  306SOL    HW1  917   2.415   1.063   1.529 -2.1667  0.7170  0.8667
  306SOL    HW2  918   2.485   1.173   1.630  0.1757 -1.7161  1.2369
  307SOL     OW  919   1.368   0.466   1.447 -0.4268  0.0211 -0.2847
  307SOL    HW1  920   1.450   0.449   1.502 -0.0086 -1.6328 -2.6810
  307SOL    HW2  921   1.389   0.488   1.349  0.1556 -0.2839  1.1807
  308SOL     OW  922   2.606   1.959   1.184  0.0339 -0.7095  0.5689
  308SOL    HW1  923   2.636   2.035   1.245  3.1534  0.0629 -2.0358
  308SOL    HW2  924   2.597   1.980   1.084  1.5087 -0.6149 -0.8067
  309SOL     OW  925   2.313   1.639   1.353 -0.0613 -0.0651  0.2115
  309SOL    HW1  926   2.308   1.736   1.312 -1.4149  2.8581 -1.3139
  309SOL    HW2  927   2.395   1.624   1.413  0.3651  1.7971 -1.0001
  310SOL     OW  928   2.829   1.678   0.017  0.0409 -0.4679 -0.0465
  310SOL    HW1  929   2.814   1.600   3.084  0.9897  0.3654  1.3036
  310SOL    HW2  930   2.779   1.759   3.107  0.0558  0.6378  0.2893
  311SOL     OW  931   2.420   2.216   2.987 -0.1335 -0.0333  0.8944
  311SOL    HW1  932   2.389   2.212   2.892  0.7967 -0.5207 -0.4995
  311SOL    HW2  933   2.510   2.166   3.004  0.8593 -2.1448 -0.7539
  312SOL     OW  934   2.356   1.886   1.249 -0.1378  0.0535 -0.2914
  312SOL    HW1  935   2.309   1.959   1.309 -1.6927  1.4288  0.8977
  312SOL    HW2  936   2.451   1.913   1.224 -2.8981  0.6322 -1.0957
  313SOL     OW  937   2.308   2.346   1.049 -0.1355 -0.3339  0.2929
  313SOL    HW1  938   2.361   2.396   0.970  1.2927  2.2620 -4.1679
  313SOL    HW2  939   2.370   2.322   1.126  1.1862  0.8296  0.0064
  314SOL     OW  940   0.991   2.320   0.677 -0.3272  0.0826  0.0054
  314SOL    HW1  941   0.977   2.293   0.770 -2.9400 -0.1752  0.0172
  314SOL    HW2  942   0.915   2.278   0.617 -0.8629  1.5353 -0.3016
  315SOL     OW  943   0.830   2.770   2.862  0.0052  0.5045 -0.5253
  315SOL    HW1  944   0.827   2.670   2.851 -0.4763  1.3534 -1.5588
  315SOL    HW2  945   0.899   2.815   2.796  1.8429 -2.2541  0.4252
  316SOL     OW  946   0.059   0.538   0.391  0.1208  0.1554  0.1225
  316SOL    HW1  947   3.086   0.537   0.360 -1.1288 -0.1317  1.5354
  316SOL    HW2  948   0.118   0.606   0.347  0.9106  1.6375  0.1636
  317SOL     OW  949   1.585   0.601   0.844  0.0166  0.0212  0.5547
  317SOL    HW1  950   1.599   0.529   0.911  0.0406  1.0681 -1.9365
  317SOL    HW2  951   1.518   0.676   0.871  0.8443 -0.4486  1.2809
  318SOL     OW  952   3.091   2.634   0.550 -0.0044 -0.0507 -0.3003
  318SOL    HW1  953   3.068   2.705   0.477  1.4195  0.2494 -2.1552
  318SOL    HW2  954   3.032   2.552   0.537  0.2497  2.1698  1.3632
  319SOL     OW  955   0.738   1.864   2.909  0.3610  0.0583  0.2349
  319SOL    HW1  956   0.837   1.887   2.899  2.0052  3.8774 -4.6433
  319SOL    HW2  957   0.698   1.933   2.974  2.5532 -0.8198  1.3322
  320SOL     OW  958   0.857   2.642   2.400  0.1088  0.0167 -0.0362
  320SOL    HW1  959   0.936   2.702   2.386  0.0561 -2.5807  0.6975
  320SOL    HW2  960   0.887   2.555   2.445  1.1239 -1.2774  0.3495
  321SOL     OW  961   1.341   2.978   3.091  0.7676 -0.5461 -0.5988
  321SOL    HW1  962   1.381   2.901   0.020  0.3588  1.2638 -2.4525
  321SOL    HW2  963   1.266   2.951   3.027 -0.6821 -0.5355 -3.2464
  322SOL     OW  964   2.486   1.362   1.951 -0.0477  0.1889 -0.5761
  322SOL    HW1  965   2.465   1.458   1.978  0.4360 -3.1715  0.6156
  322SOL    HW2  966   2.531   1.310   2.030 -2.4765  0.4140 -1.4424
  323SOL     OW  967   2.370   0.555   0.286 -0.2088 -0.5463 -0.1607
  323SOL    HW1  968   2.263   0.553   0.280 -3.8114  2.2060 -1.7550
  323SOL    HW2  969   2.408   0.621   0.356  1.8048  2.2785  0.5329
  324SOL     OW  970   0.343   2.857   2.992 -0.2372  0.1180 -0.3903
  324SOL    HW1  971   0.291   2.946   2.981 -0.3734 -0.4887 -2.9181
  324SOL    HW2  972   0.303   2.775   2.948  1.1644  2.5111 -0.0638
  325SOL     OW  973   1.569   0.377   2.325 -0.0608 -0.4298  0.2397
  325SOL    HW1  974   1.622   0.300   2.284 -1.0937  2.2708 -2.2974
  325SOL    HW2  975   1.470   0.349   2.332 -3.0405 -1.0886  0.0546
  326SOL     OW  976   2.360   2.631   1.340 -0.2990 -0.3658  0.3749
  326SOL    HW1  977   2.276   2.621   1.403 -1.2675 -1.9991 -1.4774
  326SOL    HW2  978   2.328   2.611   1.246 -0.5878 -0.6324  1.5757
  327SOL     OW  979   1.630   0.340   2.890 -0.4215 -0.0803  0.3902
  327SOL    HW1  980   1.579   0.323   2.979  1.4978  1.2565 -0.6808
  327SOL    HW2  981   1.689   0.426   2.899 -1.4075  1.3828 -0.7382
  328SOL     OW  982   2.693   1.432   2.536  0.6006 -0.4539 -0.6679
  328SOL    HW1  983   2.642   1.459   2.450 -0.1747  1.5066 -0.5329
  328SOL    HW2  984   2.728   1.515   2.584 -1.2388 -0.8589 -3.3397
  329SOL     OW  985   1.609   2.815   1.825  0.2091  0.0466  0.3616
  329SOL    HW1  986   1.704   2.856   1.829  0.9935  1.9913  1.5542
  329SOL    HW2  987   1.615   2.720   1.791  2.7627 -1.4772  0.5802
  330SOL     OW  988   2.521   1.501   1.484 -0.0665  0.1576 -0.3730
  330SOL    HW1  989   2.492   1.456   1.574 -0.5557 -1.0330  4.3418
  330SOL    HW2  990   2.616   1.535   1.496  0.8965  0.7604 -1.7633
  331SOL     OW  991   0.217   1.516   1.482  0.2455 -0.4333 -0.5376
  331SOL    HW1  992   0.180   1.587   1.417  4.2857  1.6747 -2.2793
  331SOL    HW2  993   0.250   1.566   1.564  0.6048  2.8108  1.7725
  332SOL     OW  994   0.810   0.220   1.414  0.3715  0.2584 -0.3482
  332SOL    HW1  995   0.836   0.219   1.315  0.1087  2.0407  1.3621
  332SOL    HW2  996   0.708   0.197   1.414 -3.8117  0.7541 -1.7394
  333SOL     OW  997   1.923   2.576   2.093 -0.2186 -0.3189  0.0774
  333SOL    HW1  998   1.844   2.553   2.046  0.9972  1.4074  2.6241
  333SOL    HW2  999   1.930   2.680   2.096  2.9321 -2.0688  2.0571
  334SOL     OW 1000   0.986   1.250   1.428 -0.0564  0.3943 -0.3258
  334SOL    HW1 1001   0.953   1.338   1.386  1.9518 -1.4740  2.5653
  334SOL    HW2 1002   1.022   1.186   1.358  2.3326 -2.7318  2.2717
  335SOL     OW 1003   1.101   2.915   2.960 -0.2139 -0.4056 -0.0166
  335SOL    HW1 1004   1.022   2.969   2.997  0.0219 -0.5820 -1.0408
  335SOL    HW2 1005   1.084   2.899   2.861 -0.3607 -0.4202 -1.6817
  336SOL     OW 1006   3.117   2.585   2.196  0.1191 -0.3607  0.6992
  336SOL    HW1 1007   0.089   2.615   2.231  0.1232  0.2251  0.6282
  336SOL    HW2 1008   3.109   2.578   2.095  0.8361 -1.4036 -0.1085
  337SOL     OW 1009   2.587   1.647   0.551  0.1476  0.6933 -0.3250
  337SOL    HW1 1010   2.536   1.562   0.575  1.4421  0.2704  0.1370
  337SOL    HW2 1011   2.623   1.643   0.453 -0.9652  0.9996 -1.3253
  338SOL     OW 1012   0.927   1.855   1.324  0.4504 -0.4940  0.3457
  338SOL    HW1 1013   1.014   1.833   1.277 -2.7279 -3.5569  0.3520
  338SOL    HW2 1014   0.862   1.896   1.257 -2.7859  2.5123  0.4221
  339SOL     OW 1015   3.063   0.907   2.388  0.0774 -0.4525  0.5445
  339SOL    HW1 1016   0.012   0.906   2.462 -0.1601 -1.3415  2.4087
  339SOL    HW2 1017   3.081   0.977   2.318  2.5072 -1.1230 -0.6611
  340SOL     OW 1018   1.581   2.722   1.213 -0.0767  0.2956 -0.2861
  340SOL    HW1 1019   1.665   2.668   1.212  1.2562  3.6498  3.2145
  340SOL    HW2 1020   1.497   2.671   1.173 -0.4784 -3.4060 -2.3458
  341SOL     OW 1021   1.774   1.552   0.779 -0.9125 -0.2155 -0.9469
  341SOL    HW1 1022   1.758   1.511   0.689 -0.6108 -0.3251 -0.4755
  341SOL    HW2 1023   1.862   1.603   0.779 -1.1422 -0.5586 -1.9861
  342SOL     OW 1024   0.333   1.171   0.873  0.3101  0.1613 -0.0183
  342SOL    HW1 1025   0.234   1.156   0.880  0.7688  0.4761 -0.7488
  342SOL    HW2 1026   0.350   1.274   0.895 -0.0439  3.2888  0.6233
  343SOL     OW 1027   2.483   0.520   1.373  0.2119  0.1748  0.0109
  343SOL    HW1 1028   2.561   0.567   1.413  0.2186  0.0979  1.3850
  343SOL    HW2 1029   2.420   0.481   1.443 -0.6543  3.3024 -0.4396
  344SOL     OW 1030   2.158   2.620   0.649 -0.5116  0.0182 -0.1522
  344SOL    HW1 1031   2.196   2.607   0.555  0.0277 -2.4539  0.1017
  344SOL    HW2 1032   2.167   2.538   0.711 -0.2404 -1.1151 -0.4185
  345SOL     OW 1033   0.051   2.408   2.723 -0.8067 -0.7726  0.0796
  345SOL    HW1 1034   0.055   2.466   2.641  1.5376  1.5146  1.2406
  345SOL    HW2 1035   0.111   2.325   2.725  2.0319 -2.1982  1.4739
  346SOL     OW 1036   3.040   0.828   0.414  0.0404  0.7189 -0.0357
  346SOL    HW1 1037   0.009   0.820   0.369  0.5425  1.0381  0.1220
  346SOL    HW2 1038   2.995   0.908   0.382  2.1523 -0.3085  1.8740
  347SOL     OW 1039   1.783   2.533   1.230 -0.1043 -0.0956  0.3491
  347SOL    HW1 1040   1.838   2.502   1.311  0.2488 -0.6275  2.2414
  347SOL    HW2 1041   1.843   2.586   1.167 -1.0296  1.0982 -0.2971
  348SOL     OW 1042   1.555   1.564   2.595 -0.3842 -0.1870  0.1755
  348SOL    HW1 1043   1.523   1.482   2.544  0.3068  1.6124 -2.8638
  348SOL    HW2 1044   1.643   1.595   2.554  0.4157 -0.9416 -0.7550
  349SOL     OW 1045   2.362   1.323   2.448  0.0691 -0.1446 -0.0893
  349SOL    HW1 1046   2.298   1.341   2.374  4.0321 -0.6070  0.2398
  349SOL    HW2 1047   2.439   1.259   2.426  0.5527  2.0034 -3.3460
  350SOL     OW 1048   0.262   1.830   0.981 -0.5173  0.3067 -0.3048
  350SOL    HW1 1049   0.260   1.814   1.083  0.3899  1.3921 -2.2685
  350SOL    HW2 1050   0.181   1.892   0.959 -2.0694  1.4744  0.5562
  351SOL     OW 1051   0.868   0.408   2.290 -0.2517  1.1570 -0.2365
  351SOL    HW1 1052   0.944   0.444   2.348  3.1670  0.3783  1.5793
  351SOL    HW2 1053   0.820   0.485   2.250  2.9388  0.2195  0.8052
  352SOL     OW 1054   0.884   2.676   1.928 -0.5085  0.4017  0.2458
  352SOL    HW1 1055   0.829   2.745   1.978 -1.4567 -0.0602 -3.5859
  352SOL    HW2 1056   0.913   2.723   1.842 -0.6175  3.8812  1.5817
  353SOL     OW 1057   0.685   1.443   2.387 -0.8538  0.4720  1.0150
  353SOL    HW1 1058   0.688   1.388   2.301 -0.0567 -1.1129 -3.2199
  353SOL    HW2 1059   0.617   1.511   2.366  1.6630 -2.8962  1.1344
  354SOL     OW 1060   1.922   1.222   0.589  0.5595  0.3029  0.0212
  354SOL    HW1 1061   1.836   1.187   0.635  1.1543  1.4988 -0.9528
  354SOL    HW2 1062   1.945   1.162   0.510 -0.1718 -1.3781  1.6776
  355SOL     OW 1063   2.315   0.156   0.732  0.2438  0.7572  0.1541
  355SOL    HW1 1064   2.375   0.104   0.676 -1.0285  1.6408  3.3596
  355SOL    HW2 1065   2.359   0.241   0.768 -0.8577  1.5385  0.3867
  356SOL     OW 1066   0.056   1.208   2.530 -0.1776 -0.0238  0.3195
  356SOL    HW1 1067   0.107   1.141   2.480 -2.6713  2.1278  0.1906
  356SOL    HW2 1068   0.102   1.251   2.609 -3.2230  0.8680  1.5548
  357SOL     OW 1069   3.018   2.812   1.692  0.2744  0.3860 -0.4504
  357SOL    HW1 1070   3.046   2.809   1.789  0.8228 -1.2529  2.4870
  357SOL    HW2 1071   3.006   2.719   1.653  0.6078  0.7528 -0.1342
  358SOL     OW 1072   3.043   1.452   2.740  0.1377  0.5807 -0.4370
  358SOL    HW1 1073   0.001   1.478   2.795  1.8783  1.2578  1.8689
  358SOL    HW2 1074   3.015   1.367   2.786 -0.3171  3.5248 -1.0533
  359SOL     OW 1075   2.576   2.580   2.704  0.0903  0.0918 -0.2474
  359SOL    HW1 1076   2.649   2.650   2.718 -1.4698 -3.6466  1.2491
  359SOL    HW2 1077   2.485   2.625   2.717 -0.6994 -0.2169 -2.2952
  360SOL     OW 1078   1.137   1.287   1.032 -1.0746  0.1966  0.1713
  360SOL    HW1 1079   1.150   1.189   1.061  0.5803 -0.6446 -3.5111
  360SOL    HW2 1080   1.043   1.299   0.996 -1.3221 -0.4290  1.2983
  361SOL     OW 1081   2.075   2.430   1.143 -0.2688  0.0389 -0.2741
  361SOL    HW1 1082   2.149   2.393   1.079  0.1539  1.2660  0.1529
  361SOL    HW2 1083   2.025   2.509   1.098 -0.1418 -0.7314  0.2379
  362SOL     OW 1084   1.616   1.243   0.946 -0.0956 -0.7191 -0.4090
  362SOL    HW1 1085   1.663   1.324   0.979 -0.2173  0.4135 -0.9435
  362SOL    HW2 1086   1.520   1.265   0.920  0.2074  0.8230 -1.5258
  363SOL     OW 1087   2.486   1.995   0.156  0.2069  0.2171 -0.3009
  363SOL    HW1 1088   2.551   2.013   0.080 -1.3162 -0.8363 -0.1711
  363SOL    HW2 1089   2.543   1.990   0.242  1.8292  1.9576  1.5390
  364SOL     OW 1090   2.196   0.059   1.720 -0.5134  0.1110  0.4914
  364SOL    HW1 1091   2.287   0.018   1.685  3.9747 -0.5314 -1.2539
  364SOL    HW2 1092   2.212   0.155   1.756  0.1677 -1.5241 -0.2968
  365SOL     OW 1093   2.934   2.597   1.557 -0.6170  0.2915  0.6301
  365SOL    HW1 1094   2.879   2.521   1.587  1.1541  0.4593 -1.0440
  365SOL    HW2 1095   3.012   2.557   1.502 -1.6316 -1.8448 -3.1329
  366SOL     OW 1096   0.058   1.279   0.027 -0.0485  0.3898  0.0752
  366SOL    HW1 1097   0.089   1.249   3.058 -0.6655 -0.6476 -3.6787
  366SOL    HW2 1098   3.089   1.242   0.043 -2.2984 -0.1681  1.7302
  367SOL     OW 1099   2.424   2.821   2.870  0.3009  0.0672  0.1338
  367SOL    HW1 1100   2.374   2.867   2.795  1.0334 -1.3438  4.0230
  367SOL    HW2 1101   2.371   2.736   2.894 -0.8931 -0.8517 -1.4844
  368SOL     OW 1102   0.046   1.686   1.301  0.2851 -0.3295 -0.7385
  368SOL    HW1 1103   0.097   1.772   1.280 -2.5138  0.4655 -0.5541
  368SOL    HW2 1104   3.077   1.681   1.258  0.3728 -0.0683  0.7920
  369SOL     OW 1105   0.672   0.342   0.746  0.0166  0.3231 -0.5509
  369SOL    HW1 1106   0.573   0.356   0.719 -0.9222 -0.5973 -0.9260
  369SOL    HW2 1107   0.730   0.309   0.665  1.6253 -0.4533  0.9340
  370SOL     OW 1108   0.723   0.445   0.999 -0.2739  0.3550 -0.8242
  370SOL    HW1 1109   0.624   0.471   1.016 -2.0795 -0.3861 -1.5623
  370SOL    HW2 1110   0.730   0.405   0.909  1.3324  0.9512  0.2619
  371SOL     OW 1111   2.300   1.557   0.148 -0.3456 -0.1553  0.2190
  371SOL    HW1 1112   2.273   1.568   0.246  1.6619  1.5776 -1.0547
  371SOL    HW2 1113   2.401   1.551   0.131 -0.3226  0.0831 -0.1222
  372SOL     OW 1114   0.176   0.922   2.572 -0.0692 -0.0846 -0.3383
  372SOL    HW1 1115   0.116   0.945   2.656  0.1017  1.6116  1.6692
  372SOL    HW2 1116   0.231   0.839   2.594  0.6963 -1.3354 -0.9177
  373SOL     OW 1117   2.986   1.094   0.082  0.2613  0.0917 -0.0995
  373SOL    HW1 1118   2.989   1.110   0.180  0.7318  2.6223 -2.6068
  373SOL    HW2 1119   2.895   1.115   0.036 -2.5403  1.3908 -0.3942
  374SOL     OW 1120   0.655   2.443   2.987  0.2443  0.0541  0.1457
  374SOL    HW1 1121   0.624   2.509   3.062  0.0246 -2.9451  3.3792
  374SOL    HW2 1122   0.651   2.487   2.897 -2.7087 -0.0174 -0.7172
  375SOL     OW 1123   1.387   0.298   0.391  0.0718 -0.0818 -0.4475
  375SOL    HW1 1124   1.326   0.330   0.312  0.7239  0.0523  0.6007
  375SOL    HW2 1125   1.341   0.272   0.481  1.3566 -0.0700  2.0679
  376SOL     OW 1126   0.021   2.884   1.955 -0.3544 -0.7423 -0.9803
  376SOL    HW1 1127   3.122   2.933   2.043  0.6522  2.4362  1.6193
  376SOL    HW2 1128   0.115   2.846   1.949 -1.1418  0.4671  3.7472
  377SOL     OW 1129   3.028   2.172   2.791 -0.4000 -0.0361  0.2548
  377SOL    HW1 1130   3.080   2.257   2.774  0.1660  0.4315 -0.4352
  377SOL    HW2 1131   3.076   2.091   2.744 -0.8963 -3.0152 -2.6823
  378SOL     OW 1132   1.634   0.874   0.661 -0.8603 -0.1427  0.4847
  378SOL    HW1 1133   1.585   0.810   0.599 -1.2947 -0.7501  3.5133
  378SOL    HW2 1134   1.575   0.886   0.743  1.5755 -1.7901 -3.3719
  379SOL     OW 1135   1.286   1.361   0.485 -0.4743 -0.1705 -0.5069
  379SOL    HW1 1136   1.210   1.374   0.554 -0.9552 -0.8805  0.5282
  379SOL    HW2 1137   1.370   1.356   0.536 -3.7343 -1.6761  0.9243
  380SOL     OW 1138   2.082   2.366   1.812  0.7177  0.4446  0.0654
  380SOL    HW1 1139   2.089   2.365   1.911 -1.6117 -0.1932 -2.8422
  380SOL    HW2 1140   1.994   2.412   1.784  0.2913 -1.5662  3.6576
  381SOL     OW 1141   2.832   1.071   2.110 -0.2952 -0.0386 -0.1356
  381SOL    HW1 1142   2.926   1.083   2.136 -0.9601 -0.8464  0.5165
  381SOL    HW2 1143   2.822   1.090   2.011 -0.1162  0.6182  3.2227
  382SOL     OW 1144   3.032   2.498   0.052  0.2130 -0.0717  0.2582
  382SOL    HW1 1145   3.002   2.500   3.079  3.2708 -0.4019  1.3093
  382SOL    HW2 1146   3.090   2.579   0.071 -0.7739 -0.8779 -0.2452
  383SOL     OW 1147   1.684   1.290   2.172 -0.5123 -0.5808  0.2079
  383SOL    HW1 1148   1.749   1.359   2.128  0.9582 -1.3118 -0.9474
  383SOL    HW2 1149   1.586   1.301   2.145 -1.7262  0.9005 -1.4539
  384SOL     OW 1150   0.931   2.157   2.569 -0.2136  0.2154  0.0321
  384SOL    HW1 1151   0.917   2.138   2.467  0.8995 -1.2445  1.8043
  384SOL    HW2 1152   0.994   2.091   2.613  0.3687  1.0225 -0.9174
  385SOL     OW 1153   2.595   1.938   0.421 -0.3648 -0.1264  0.7464
  385SOL    HW1 1154   2.523   1.966   0.487 -2.0168  0.5135 -0.9743
  385SOL    HW2 1155   2.610   1.837   0.416  0.6356 -1.2745 -0.3591
  386SOL     OW 1156   1.383   1.148   0.334  0.4066  0.3064  0.2528
  386SOL    HW1 1157   1.331   1.219   0.384 -1.9960  0.6589 -0.0583
  386SOL    HW2 1158   1.361   1.056   0.369 -1.5801  0.8790  0.3983
  387SOL     OW 1159   2.962   0.520   1.302 -0.7825 -0.4209  0.4210
  387SOL    HW1 1160   2.972   0.592   1.380  1.3586  0.7748  1.5313
  387SOL    HW2 1161   2.976   0.434   1.347  0.6014  1.6370  0.3171
  388SOL     OW 1162   2.782   0.854   1.370  0.1362 -0.9528 -0.0514
  388SOL    HW1 1163   2.880   0.871   1.343  0.1504  0.1257 -3.7656
  388SOL    HW2 1164   2.752   0.936   1.419  1.2514  0.4957 -0.5973
  389SOL     OW 1165   1.848   1.388   2.557  0.1225 -0.5870 -0.2663
  389SOL    HW1 1166   1.860   1.349   2.656  0.3687 -2.1600  2.9047
  389SOL    HW2 1167   1.801   1.482   2.556  0.9565  1.2873  1.3190
  390SOL     OW 1168   1.805   2.323   0.468  0.2535 -0.1443 -0.2590
  390SOL    HW1 1169   1.896   2.286   0.491  2.9917  0.4195 -0.4296
  390SOL    HW2 1170   1.769   2.272   0.382 -0.6915 -1.0008  1.0530
  391SOL     OW 1171   1.245   2.384   0.937 -0.3283 -0.5141 -0.8059
  391SOL    HW1 1172   1.293   2.297   0.946 -2.0573  2.1197  2.3173
  391SOL    HW2 1173   1.310   2.461   0.915  3.5479 -0.6194 -1.7320
  392SOL     OW 1174   2.438   2.880   1.452  0.0356 -0.7572 -0.2483
  392SOL    HW1 1175   2.419   2.792   1.404 -0.1189  0.9552 -0.6250
  392SOL    HW2 1176   2.541   2.904   1.462  1.4875  0.3599  3.1337
  393SOL     OW 1177   1.873   2.583   2.363 -0.0982 -0.5323  0.6840
  393SOL    HW1 1178   1.905   2.590   2.265  1.4837  1.1348  0.0781
  393SOL    HW2 1179   1.771   2.597   2.370  2.0360 -2.1644  0.1639
  394SOL     OW 1180   0.445   2.949   2.571 -0.4568  0.4225 -0.6047
  394SOL    HW1 1181   0.451   2.947   2.468  2.5106  0.5607 -2.1805
  394SOL    HW2 1182   0.347   2.931   2.595 -0.4176  3.0319 -1.0862
  395SOL     OW 1183   0.312   1.080   1.374 -0.1993  0.3499 -0.0685
  395SOL    HW1 1184   0.353   1.172   1.369 -2.2113 -1.7305 -0.0683
  395SOL    HW2 1185   0.303   1.055   1.279 -0.4105  1.6004  3.4265
  396SOL     OW 1186   2.214   1.077   2.571 -0.2903 -0.4960  0.1512
  396SOL    HW1 1187   2.221   1.158   2.509  1.7717 -1.8070  1.6847
  396SOL    HW2 1188   2.275   1.089   2.650  2.8553  0.8702 -1.4411
  397SOL     OW 1189   2.850   0.567   2.603  0.4749  0.0411  0.2313
  397SOL    HW1 1190   2.931   0.525   2.644 -1.7594 -0.1484  0.8107
  397SOL    HW2 1191   2.868   0.575   2.504  0.2563  1.8923  0.7598
  398SOL     OW 1192   1.825   2.960   0.093  0.1983 -0.2713  0.0406
  398SOL    HW1 1193   1.889   2.957   0.173  0.9604  1.9421 -2.9633
  398SOL    HW2 1194   1.729   2.971   0.127 -0.0683 -2.3352  0.9576
  399SOL     OW 1195   2.117   2.377   2.096  0.2335 -0.3328 -0.2182
  399SOL    HW1 1196   2.188   2.421   2.154  0.4236 -0.9595 -1.7590
  399SOL    HW2 1197   2.037   2.439   2.091  1.7711 -2.0005  1.4467
  400SOL     OW 1198   0.226   2.251   2.231 -0.1921 -0.7733 -0.7439
  400SOL    HW1 1199   0.175   2.180   2.174 -0.0188  0.2919 -1.5459
  400SOL    HW2 1200   0.252   2.333   2.174 -0.6262 -0.7298  0.4542
  401SOL     OW 1201   0.499   0.636   0.475  0.3912 -0.4255 -0.4374
  401SOL    HW1 1202   0.494   0.592   0.387 -1.2292  3.1112  2.8925
  401SOL    HW2 1203   0.427   0.709   0.486 -0.2418  0.4913 -1.2393
  402SOL     OW 1204   0.798   2.876   2.140  0.4605 -0.3695 -0.5831
  402SOL    HW1 1205   0.856   2.894   2.221  0.8395 -0.3359 -1.1765
  402SOL    HW2 1206   0.749   2.958   2.103 -1.1273 -0.4301 -1.3777
  403SOL     OW 1207   0.183   1.379   2.062  0.3662 -0.4073  0.2110
  403SOL    HW1 1208   0.263   1.327   2.102  2.1962 -0.1650 -2.2132
  403SOL    HW2 1209   0.109   1.378   2.137 -2.6575 -1.7522 -1.5377
  404SOL     OW 1210   2.949   2.098   2.413 -0.8300  0.0954  0.1131
  404SOL    HW1 1211   3.054   2.104   2.431  2.0869 -1.0243  0.5572
  404SOL    HW2 1212   2.901   2.121   2.499  2.8443 -0.1412 -0.9609
  405SOL     OW 1213   2.312   0.105   2.540  0.0464  0.7861  0.1079
  405SOL    HW1 1214   2.242   0.102   2.622 -2.9022  0.8515  1.7733
  405SOL    HW2 1215   2.259   0.078   2.453  0.0394  2.0883  0.5298
  406SOL     OW 1216   1.587   2.429   0.612 -0.4256  0.0265  0.1832
  406SOL    HW1 1217   1.526   2.440   0.532 -1.1252 -1.4498  0.0025
  406SOL    HW2 1218   1.666   2.371   0.582  2.6565 -1.6345  0.5941
  407SOL     OW 1219   1.573   1.322   0.267 -0.6304 -0.1076 -0.0234
  407SOL    HW1 1220   1.563   1.389   0.191  0.6492  0.4865 -0.6572
  407SOL    HW2 1221   1.488   1.265   0.273  0.3157  0.4072  0.0092
  408SOL     OW 1222   0.116   0.945   2.001 -0.0141 -0.0351 -0.4691
  408SOL    HW1 1223   0.023   0.915   1.964 -1.0681  1.2709  0.4314
  408SOL    HW2 1224   0.157   0.873   2.055 -1.1384 -0.3831 -1.7363
  409SOL     OW 1225   2.988   1.247   2.894 -0.7487  0.0464 -0.4868
  409SOL    HW1 1226   3.077   1.195   2.899  0.1970 -1.3546 -2.9568
  409SOL    HW2 1227   2.912   1.189   2.927  2.9850  0.5817  0.7436
  410SOL     OW 1228   2.881   1.510   1.189  0.4345 -0.6806  0.5953
  410SOL    HW1 1229   2.846   1.505   1.092 -0.3058 -0.0156  2.3801
  410SOL    HW2 1230   2.856   1.424   1.235  1.5498 -0.6776  2.3080
  411SOL     OW 1231   2.932   0.607   0.284 -0.4955  0.3054  0.1049
  411SOL    HW1 1232   2.892   0.525   0.331  0.7159 -2.1626 -0.6473
  411SOL    HW2 1233   2.939   0.692   0.343  0.1828  0.2821 -1.2179
  412SOL     OW 1234   1.707   0.202   0.262  0.5796 -0.3862 -0.4490
  412SOL    HW1 1235   1.771   0.161   0.330  0.9465 -0.4072  1.7976
  412SOL    HW2 1236   1.764   0.233   0.181  1.3370 -1.0819  1.5118
  413SOL     OW 1237   1.159   0.242   1.888  0.0849  0.1050 -0.0816
  413SOL    HW1 1238   1.199   0.311   1.956  0.0251  1.6847  3.5576
  413SOL    HW2 1239   1.234   0.176   1.859 -1.9261  0.9335 -0.5301
  414SOL     OW 1240   0.403   0.914   0.204 -0.4158  0.1117 -0.3617
  414SOL    HW1 1241   0.368   1.009   0.220  0.5688  0.7988 -0.7965
  414SOL    HW2 1242   0.491   0.900   0.256  0.3694 -2.0674 -0.9084
  415SOL     OW 1243   3.005   1.116   0.357 -0.4593  0.4921  0.0093
  415SOL    HW1 1244   2.947   1.139   0.438  1.5557  1.4095 -2.5895
  415SOL    HW2 1245   3.104   1.101   0.380 -1.3387 -1.3028 -0.8675
  416SOL     OW 1246   2.422   0.768   0.089 -0.3265 -0.0118  0.5795
  416SOL    HW1 1247   2.398   0.683   0.138  0.0293 -1.9329  1.7831
  416SOL    HW2 1248   2.522   0.777   0.067 -0.3003 -1.7129  2.7695
  417SOL     OW 1249   2.882   2.644   0.218 -0.0956  0.6492  0.0964
  417SOL    HW1 1250   2.811   2.689   0.158  0.7867  0.7696  1.1288
  417SOL    HW2 1251   2.927   2.568   0.164 -0.1355 -0.2647  1.2320
  418SOL     OW 1252   2.946   0.611   0.016  0.0702 -0.3499 -0.3616
  418SOL    HW1 1253   2.943   0.599   0.118 -1.4808 -0.8985 -0.1386
  418SOL    HW2 1254   2.849   0.632   3.109 -1.2458 -0.3257  0.8804
  419SOL     OW 1255   0.708   0.637   0.712  0.0451  0.2262  0.0184
  419SOL    HW1 1256   0.726   0.537   0.715  0.3302  1.0467 -1.8287
  419SOL    HW2 1257   0.611   0.648   0.685  1.2430  0.7823 -0.2480
  420SOL     OW 1258   0.380   0.859   0.824 -0.1283  0.2975  0.2901
  420SOL    HW1 1259   0.283   0.834   0.837 -1.5920  1.1860  1.6913
  420SOL    HW2 1260   0.435   0.824   0.904  2.4002 -0.0076  0.0973
  421SOL     OW 1261   0.319   1.899   0.543 -0.6223 -0.0324 -0.3773
  421SOL    HW1 1262   0.390   1.892   0.470  1.9680  2.4176 -1.1934
  421SOL    HW2 1263   0.241   1.948   0.505  0.6719 -1.8283 -0.2533
  422SOL     OW 1264   2.608   0.219   1.651 -0.0444 -0.1292 -0.2109
  422SOL    HW1 1265   2.558   0.244   1.736  1.0381  0.4537  0.7153
  422SOL    HW2 1266   2.548   0.195   1.576  0.2444 -0.2574 -0.8261
  423SOL     OW 1267   1.896   1.740   0.197 -0.2436 -0.6896 -0.4755
  423SOL    HW1 1268   1.916   1.697   0.287  0.4766 -1.5081  1.8632
  423SOL    HW2 1269   1.981   1.758   0.143 -0.0938 -1.1550  0.5529
  424SOL     OW 1270   1.853   1.846   2.813 -0.0969  0.1800  0.3790
  424SOL    HW1 1271   1.871   1.853   2.714 -1.8836  1.1899 -0.8392
  424SOL    HW2 1272   1.943   1.820   2.854  2.6943 -4.3031  0.4151
  425SOL     OW 1273   0.367   3.100   2.024 -0.2641 -0.0184  0.4624
  425SOL    HW1 1274   0.342   3.005   1.994 -1.4227  0.7743  0.5146
  425SOL    HW2 1275   0.313   0.050   1.978  1.8242  0.8317 -0.3674
  426SOL     OW 1276   2.217   2.922   0.109  0.8311  0.3801  0.0713
  426SOL    HW1 1277   2.143   2.920   0.178  1.9964 -0.9623 -3.8669
  426SOL    HW2 1278   2.172   2.925   0.019  0.9903  1.5450  0.3699
  427SOL     OW 1279   0.526   1.686   2.380  0.2713  0.1785 -0.0023
  427SOL    HW1 1280   0.507   1.766   2.319 -2.4783  1.6109 -1.9533
  427SOL    HW2 1281   0.501   1.702   2.476 -0.2915  0.0146  0.1315
  428SOL     OW 1282   2.140   1.586   2.612  0.5390 -0.4699  0.0225
  428SOL    HW1 1283   2.232   1.604   2.572 -0.3626 -2.1023 -0.0705
  428SOL    HW2 1284   2.143   1.505   2.671  0.6360  0.4557 -4.0148
  429SOL     OW 1285   2.348   2.998   0.482  0.1762 -0.0076  0.1596
  429SOL    HW1 1286   2.426   3.052   0.527  1.1641  0.3124  0.3406
  429SOL    HW2 1287   2.385   2.914   0.434  1.6502 -1.6586  0.3523
  430SOL     OW 1288   1.664   1.919   2.073  0.6914 -0.8572  0.4307
  430SOL    HW1 1289   1.591   1.978   2.026 -0.9742  1.5851  1.9143
  430SOL    HW2 1290   1.751   1.968   2.079 -0.6735 -1.1048 -1.0372
  431SOL     OW 1291   3.032   1.690   2.046  0.4730  0.0247  0.3442
  431SOL    HW1 1292   2.965   1.708   2.116  0.7541 -0.7827  0.9790
  431SOL    HW2 1293   3.024   1.763   1.981  0.4934  0.0830  1.7836
  432SOL     OW 1294   1.081   2.349   2.328 -0.5428  0.8932 -0.1098
  432SOL    HW1 1295   0.989   2.315   2.304  2.6980 -0.8573  2.3034
  432SOL    HW2 1296   1.155   2.275   2.316  1.7469 -1.8237 -1.8747
  433SOL     OW 1297   0.943   2.667   0.936 -0.0183 -0.4253  0.3906
  433SOL    HW1 1298   0.941   2.642   0.838 -1.0090 -0.5691  2.2771
  433SOL    HW2 1299   0.988   2.759   0.946 -0.7419 -1.2502 -0.4001
  434SOL     OW 1300   0.444   2.290   2.391 -0.0061 -0.1409 -0.0133
  434SOL    HW1 1301   0.355   2.278   2.342 -3.4445  0.2128  0.8836
  434SOL    HW2 1302   0.526   2.298   2.333  1.0859  0.5722  0.2614
  435SOL     OW 1303   0.458   1.470   0.393 -0.4114  0.2647  0.9507
  435SOL    HW1 1304   0.367   1.522   0.402 -0.5051  2.3433 -0.6564
  435SOL    HW2 1305   0.518   1.543   0.352  0.0211  1.6805  0.1566
  436SOL     OW 1306   0.766   1.986   1.908 -0.1818  0.2108 -0.8492
  436SOL    HW1 1307   0.728   1.964   1.811 -0.5809  1.3566 -3.4435
  436SOL    HW2 1308   0.851   2.042   1.901  0.1607 -0.2339  0.5423
  437SOL     OW 1309   1.066   0.447   0.479 -0.4671  0.1660 -0.0334
  437SOL    HW1 1310   1.070   0.479   0.580 -1.5578  1.9845  2.3945
  437SOL    HW2 1311   1.152   0.393   0.460  2.5388 -1.6981  1.5414
  438SOL     OW 1312   0.498   1.971   0.907  0.2760  0.5890 -0.2204
  438SOL    HW1 1313   0.417   1.915   0.937  1.4615 -0.9484  0.7567
  438SOL    HW2 1314   0.570   1.913   0.870 -0.6660 -0.0917  0.3428
  439SOL     OW 1315   1.286   2.246   1.690  0.1576  0.3206 -0.0600
  439SOL    HW1 1316   1.265   2.162   1.644 -0.9227 -0.9828 -3.4004
  439SOL    HW2 1317   1.371   2.293   1.649 -1.8819 -2.6020  0.8001
  440SOL     OW 1318   1.492   0.156   1.431  0.5204  0.1946 -0.0524
  440SOL    HW1 1319   1.515   0.136   1.528 -1.2962  0.0650  0.1966
  440SOL    HW2 1320   1.539   0.241   1.393 -1.2049  3.7411  1.4347
  441SOL     OW 1321   0.543   3.093   1.284  0.2840  0.1836  0.7336
  441SOL    HW1 1322   0.530   0.051   1.345 -3.8182  1.7951 -2.0961
  441SOL    HW2 1323   0.588   3.017   1.339  1.8310  0.0980 -3.6647
  442SOL     OW 1324   2.298   1.932   0.589 -0.0843  0.5344 -0.2761
  442SOL    HW1 1325   2.208   1.889   0.604  1.1772 -1.7295 -0.0159
  442SOL    HW2 1326   2.299   1.973   0.495  0.4491 -2.9767 -0.2630
  443SOL     OW 1327   2.690   0.304   2.445 -0.4856 -0.4013 -0.1734
  443SOL    HW1 1328   2.599   0.317   2.490  3.4939 -2.3128  0.3937
  443SOL    HW2 1329   2.733   0.387   2.406 -0.6538  0.4023  2.0975
  444SOL     OW 1330   2.017   1.546   2.338  0.7190 -0.1960 -0.2814
  444SOL    HW1 1331   2.037   1.566   2.435  0.5729 -1.7309 -0.4235
  444SOL    HW2 1332   1.982   1.453   2.330 -1.7329 -0.5720 -0.1747
  445SOL     OW 1333   2.680   2.125   1.594 -0.2802 -0.0544 -0.0755
  445SOL    HW1 1334   2.594   2.103   1.647 -2.1465  2.0575  0.0482
  445SOL    HW2 1335   2.760   2.094   1.649 -2.5142 -0.5688  0.9581
  446SOL     OW 1336   0.177   0.799   0.335 -0.3006  0.4453  0.0870
  446SOL    HW1 1337   0.260   0.814   0.388 -3.7416 -2.0623  0.1526
  446SOL    HW2 1338   0.190   0.817   0.234 -3.5146 -1.7383 -1.8169
  447SOL     OW 1339   0.599   1.605   0.912  0.0811 -0.1073  0.4620
  447SOL    HW1 1340   0.636   1.525   0.862  2.0064 -0.2733  0.7854
  447SOL    HW2 1341   0.538   1.657   0.850 -0.6863  0.5054 -1.3957
  448SOL     OW 1342   1.433   1.312   2.090 -0.0810  0.2321  0.1400
  448SOL    HW1 1343   1.422   1.324   1.993  1.1264 -0.7722  0.6964
  448SOL    HW2 1344   1.366   1.247   2.127  2.0099 -1.7325 -0.6394
  449SOL     OW 1345   0.337   1.781   0.048 -0.5875 -0.2989  0.6234
  449SOL    HW1 1346   0.336   1.679   0.042  1.8687 -1.0180  0.1494
  449SOL    HW2 1347   0.383   1.817   3.089 -1.2607  2.6978 -1.5418
  450SOL     OW 1348   2.565   2.194   2.039  0.1653 -0.0475 -0.0903
  450SOL    HW1 1349   2.498   2.270   2.012  0.5233  2.4631 -0.1409
  450SOL    HW2 1350   2.595   2.204   2.136 -1.3244 -1.9239  0.2276
  451SOL     OW 1351   2.084   0.352   2.104 -0.1182 -0.2539  0.3020
  451SOL    HW1 1352   2.076   0.267   2.159 -1.0211 -0.9151  0.0463
  451SOL    HW2 1353   1.989   0.382   2.084  0.8229  0.0799  0.8904
  452SOL     OW 1354   1.178   3.061   1.303 -0.0752  0.3925 -0.4767
  452SOL    HW1 1355   1.160   2.961   1.315  1.0299 -2.9403  0.3548
  452SOL    HW2 1356   1.135   3.123   1.373 -1.4016 -0.9641  1.2529
  453SOL     OW 1357   0.819   1.456   1.252  0.1793  0.8484  0.3172
  453SOL    HW1 1358   0.884   1.487   1.174  0.9846 -0.6088 -1.5616
  453SOL    HW2 1359   0.724   1.489   1.230  1.8872  2.1075 -2.1152
  454SOL     OW 1360   0.058   0.942   0.651 -0.2223  0.0110 -0.1047
  454SOL    HW1 1361   3.104   0.900   0.605  1.0091 -1.1757  0.7415
  454SOL    HW2 1362   0.120   0.984   0.582  0.9150 -0.7658  1.9303
  455SOL     OW 1363   3.032   2.820   0.370  0.1371  0.1768 -0.2514
  455SOL    HW1 1364   2.966   2.762   0.316  1.0959  0.9495 -0.1691
  455SOL    HW2 1365   3.107   2.830   0.304 -3.7702 -2.0733  0.9333
  456SOL     OW 1366   2.305   2.377   0.715  0.2988  0.2559 -0.3810
  456SOL    HW1 1367   2.316   2.285   0.757  0.1716  3.0342  1.9549
  456SOL    HW2 1368   2.275   2.373   0.617 -0.2613 -0.5632  0.2622
  457SOL     OW 1369   1.541   0.287   0.015 -0.5361 -0.1034  0.6700
  457SOL    HW1 1370   1.567   0.252   0.108  1.3067  1.4681  1.9723
  457SOL    HW2 1371   1.520   0.387   0.029 -2.1417 -1.8516  0.2548
  458SOL     OW 1372   2.674   2.614   0.445  0.2849  0.0565 -0.6668
  458SOL    HW1 1373   2.670   2.677   0.524  1.3711  1.1881  0.4644
  458SOL    HW2 1374   2.770   2.602   0.415 -1.6483  1.1909  1.3492
  459SOL     OW 1375   2.131   0.144   2.726  0.1575  0.0459 -0.0068
  459SOL    HW1 1376   2.092   0.217   2.662 -2.2185 -0.0314 -1.4708
  459SOL    HW2 1377   2.148   0.179   2.820  3.2873  0.8023 -1.7369
  460SOL     OW 1378   3.094   0.195   0.050 -0.4489 -0.2841 -0.0555
  460SOL    HW1 1379   3.029   0.251   3.120  0.3611 -2.8160  1.4762
  460SOL    HW2 1380   3.064   0.168   0.142 -1.2549  1.8164 -3.5991
  461SOL     OW 1381   0.548   1.702   1.605  0.0246 -0.0355 -0.5680
  461SOL    HW1 1382   0.466   1.668   1.654  0.5108 -0.4328 -2.6236
  461SOL    HW2 1383   0.515   1.740   1.517 -0.3173 -0.0588  1.1967
  462SOL     OW 1384   2.704   2.980   1.745  0.1737  0.7271 -0.1462
  462SOL    HW1 1385   2.710   2.881   1.776  0.5105 -1.4927  0.9166
  462SOL    HW2 1386   2.744   3.046   1.811  0.1590 -1.5017 -0.1131
  463SOL     OW 1387   2.752   1.119   3.021 -0.3504 -0.0491 -0.2218
  463SOL    HW1 1388   2.676   1.181   3.049  0.2279  0.1955 -1.1268
  463SOL    HW2 1389   2.746   1.091   2.923 -0.8479 -1.9864  1.6044
  464SOL     OW 1390   0.133   2.508   1.215  0.3836 -0.2980 -0.0913
  464SOL    HW1 1391   0.194   2.425   1.217  1.9011  1.5711  2.7261
  464SOL    HW2 1392   0.183   2.599   1.223  0.2898  1.5506 -0.7958
  465SOL     OW 1393   0.365   0.872   0.561  0.2133 -0.6547  0.5866
  465SOL    HW1 1394   0.386   0.968   0.540  0.4667 -0.5970  1.9034
  465SOL    HW2 1395   0.364   0.868   0.664  0.8826  1.3719  2.1110
  466SOL     OW 1396   1.361   0.181   2.200  0.3842  0.1668  0.3267
  466SOL    HW1 1397   1.394   0.091   2.161  1.3550 -0.4523 -1.1633
  466SOL    HW2 1398   1.281   0.161   2.261 -2.5499 -1.0518 -2.1189
  467SOL     OW 1399   0.731   0.582   2.140 -0.5926 -0.0366 -0.1377
  467SOL    HW1 1400   0.662   0.509   2.121  0.6103  1.2262 -0.8603
  467SOL    HW2 1401   0.691   0.647   2.208 -1.2021 -1.7568  1.6188
  468SOL     OW 1402   3.090   1.120   2.204 -0.0856  0.9259  0.8224
  468SOL    HW1 1403   3.078   1.221   2.205 -0.8692  1.5521  0.5697
  468SOL    HW2 1404   0.019   1.085   2.126  1.5902 -0.9793  0.6552
  469SOL     OW 1405   0.389   1.736   0.745  0.2072  0.2200  0.2621
  469SOL    HW1 1406   0.381   1.801   0.666  0.0770 -0.3555  1.8437
  469SOL    HW2 1407   0.316   1.752   0.809  1.6497 -1.1031 -3.8644
  470SOL     OW 1408   2.880   1.660   2.398 -0.0059  0.3462  0.1147
  470SOL    HW1 1409   2.857   1.712   2.484  0.4568  0.2620  0.9548
  470SOL    HW2 1410   2.804   1.643   2.327  0.2069  0.5372 -1.1109
  471SOL     OW 1411   1.664   0.831   2.344 -0.5758  0.1801  0.6263
  471SOL    HW1 1412   1.743   0.816   2.281  0.7551 -1.2259  0.8998
  471SOL    HW2 1413   1.674   0.797   2.438 -0.9657  1.0439 -3.2408
  472SOL     OW 1414   0.838   2.752   1.316 -0.1042  0.4657 -0.1847
  472SOL    HW1 1415   0.824   2.656   1.346  0.9157  0.1615 -0.5962
  472SOL    HW2 1416   0.793   2.765   1.227 -2.0099 -0.9945  1.7242
  473SOL     OW 1417   0.459   0.134   2.516 -0.2475  0.1537 -0.0710
  473SOL    HW1 1418   0.512   0.211   2.478  0.8137 -3.7924  3.0974
  473SOL    HW2 1419   0.522   0.077   2.575  0.4110  1.0724 -2.5385
  474SOL     OW 1420   1.802   3.067   1.214 -0.5391  0.4730  0.6303
  474SOL    HW1 1421   1.814   0.036   1.170  0.1056 -2.9314  0.0026
  474SOL    HW2 1422   1.751   3.003   1.156  1.3668 -1.5805  1.7009
  475SOL     OW 1423   1.962   0.378   0.987 -0.5830 -0.0380  0.0109
  475SOL    HW1 1424   1.927   0.468   0.949 -1.7931 -0.8995 -1.4641
  475SOL    HW2 1425   2.064   0.366   0.976 -0.7750  1.3225  0.0742
  476SOL     OW 1426   0.535   0.793   1.044 -0.0421  0.5991  0.6421
  476SOL    HW1 1427   0.502   0.891   1.046  1.0400  1.0399 -1.2692
  476SOL    HW2 1428   0.603   0.778   1.119  2.0271  0.2156  1.3042
  477SOL     OW 1429   1.422   2.740   0.439 -0.4777 -0.2351 -0.2018
  477SOL    HW1 1430   1.329   2.774   0.417 -2.3854 -0.0067 -2.5894
  477SOL    HW2 1431   1.443   2.765   0.533 -0.3986  1.7637  2.3775
  478SOL     OW 1432   0.414   2.583   2.483 -0.3409 -0.3382  0.2737
  478SOL    HW1 1433   0.502   2.608   2.532 -1.0124  1.4162 -0.5494
  478SOL    HW2 1434   0.417   2.488   2.448 -3.5290 -0.5279 -0.8135
  479SOL     OW 1435   2.582   0.281   1.262 -0.0268  0.0882  0.2007
  479SOL    HW1 1436   2.532   0.355   1.305  0.8541 -0.8779 -2.1251
  479SOL    HW2 1437   2.529   0.260   1.177 -1.7201 -1.5753 -0.0693
  480SOL     OW 1438   0.414   2.376   0.589 -0.6407 -0.1334  0.0859
  480SOL    HW1 1439   0.502   2.374   0.529  1.3395  0.6537  1.5099
  480SOL    HW2 1440   0.355   2.454   0.569  0.9002 -2.4276  0.9244
  481SOL     OW 1441   1.954   2.083   1.387 -0.6293 -0.1959 -0.1068
  481SOL    HW1 1442   1.887   2.125   1.451 -0.0190 -1.9411  0.2904
  481SOL    HW2 1443   1.935   2.113   1.292  0.2808 -2.2584  2.1017
  482SOL     OW 1444   1.298   2.493   3.027  0.0956 -0.1780  0.3644
  482SOL    HW1 1445   1.390   2.438   3.035  0.2109  1.9428 -0.0027
  482SOL    HW2 1446   1.221   2.449   3.080  2.3575 -0.7078 -2.7279
  483SOL     OW 1447   1.115   2.248   2.011 -0.0517  0.1865  0.6338
  483SOL    HW1 1448   1.122   2.349   2.028 -0.2699  0.3273 -2.6340
  483SOL    HW2 1449   1.057   2.237   1.927 -2.9056 -0.3925 -1.9099
  484SOL     OW 1450   1.162   0.646   1.531  0.3576 -0.5974  0.0104
  484SOL    HW1 1451   1.189   0.558   1.575 -0.4637 -0.5082  1.1680
  484SOL    HW2 1452   1.240   0.713   1.526 -2.5041 -0.3107 -1.0700
  485SOL     OW 1453   1.725   0.656   2.617 -0.5484  0.0647 -0.0746
  485SOL    HW1 1454   1.816   0.697   2.626 -1.8660  0.1317 -1.8437
  485SOL    HW2 1455   1.726   0.556   2.597  1.0321  3.6027 -0.9811
  486SOL     OW 1456   2.335   2.924   1.163  0.0545  0.2691  0.1614
  486SOL    HW1 1457   2.386   2.847   1.117 -0.9550  0.8745 -0.6894
  486SOL    HW2 1458   2.402   2.984   1.200 -3.2646 -2.4314  0.2223
  487SOL     OW 1459   0.675   2.175   1.273  0.2282 -0.1356 -0.1684
  487SOL    HW1 1460   0.776   2.204   1.270  1.4262  2.7824 -1.2024
  487SOL    HW2 1461   0.632   2.195   1.361  0.2016 -0.7358  0.5328
  488SOL     OW 1462   2.258   2.029   0.022  0.5690  0.1902  0.0977
  488SOL    HW1 1463   2.346   2.036   0.072  1.2015 -0.9425 -0.1166
  488SOL    HW2 1464   2.261   2.019   3.046  0.9878 -1.7956 -2.1553
  489SOL     OW 1465   1.997   3.015   0.822  0.2796  0.3189  0.2192
  489SOL    HW1 1466   2.069   2.969   0.761  0.0071  0.2280  0.8044
  489SOL    HW2 1467   2.008   2.976   0.917 -1.2182  1.0975 -2.4558
  490SOL     OW 1468   0.973   1.682   0.342 -0.0490 -0.1168  0.0408
  490SOL    HW1 1469   1.017   1.754   0.292  0.7009  0.3665  0.5843
  490SOL    HW2 1470   0.879   1.707   0.367  0.4494 -0.7477  0.2048
  491SOL     OW 1471   0.172   2.140   1.436 -0.0012 -0.4104 -0.4611
  491SOL    HW1 1472   0.078   2.152   1.474  1.4368 -0.2188 -0.0727
  491SOL    HW2 1473   0.240   2.198   1.487  0.4738 -0.0072  0.0670
  492SOL     OW 1474   0.803   1.699   1.935 -0.4298 -0.2596 -0.3234
  492SOL    HW1 1475   0.821   1.667   1.841 -1.9384 -0.0707 -1.1627
  492SOL    HW2 1476   0.793   1.799   1.934 -0.0134  1.4383  1.1676
  493SOL     OW 1477   2.807   2.072   0.865  0.0888  0.0754 -0.0067
  493SOL    HW1 1478   2.807   2.007   0.789 -0.1043  1.4086  1.1579
  493SOL    HW2 1479   2.872   2.051   0.936  0.6633  2.2752 -1.7583
  494SOL     OW 1480   2.814   1.855   0.688 -0.3244 -0.5271 -0.4504
  494SOL    HW1 1481   2.727   1.811   0.682  0.1192  0.5246 -1.0295
  494SOL    HW2 1482   2.892   1.786   0.703 -0.7787 -1.0082  1.5292
  495SOL     OW 1483   2.715   2.821   0.067  0.5960 -0.4504 -0.0849
  495SOL    HW1 1484   2.788   2.819   3.114  0.8079  0.5808 -1.2077
  495SOL    HW2 1485   2.695   2.917   0.097 -3.6876 -1.1247  2.1450
  496SOL     OW 1486   2.531   3.095   1.212  0.4624 -0.3566  0.8105
  496SOL    HW1 1487   2.519   0.013   1.304 -2.1348  0.4119 -0.6828
  496SOL    HW2 1488   2.618   3.112   1.169 -0.7171  0.6029  1.5213
  497SOL     OW 1489   2.604   1.265   2.750  0.9733 -0.4697  0.3071
  497SOL    HW1 1490   2.663   1.184   2.733  1.2175 -3.1620 -0.0944
  497SOL    HW2 1491   2.594   1.319   2.663  1.0806  1.1875 -0.1944
  498SOL     OW 1492   2.959   2.025   1.097  0.0260  0.1032  0.0381
  498SOL    HW1 1493   2.966   2.112   1.155  1.1140  1.6326  0.3060
  498SOL    HW2 1494   2.937   1.946   1.157 -1.2293  3.5919  1.3067
  499SOL     OW 1495   0.918   2.443   2.566 -0.2057  0.0325 -0.5202
  499SOL    HW1 1496   0.897   2.345   2.587  0.1672  2.0501  1.8068
  499SOL    HW2 1497   1.020   2.453   2.579  1.0105 -3.0181 -0.0643
  500SOL     OW 1498   1.658   1.090   0.387 -0.3332  0.0378 -0.2122
  500SOL    HW1 1499   1.618   1.183   0.358  0.6338  2.5595 -0.8557
  500SOL    HW2 1500   1.599   1.049   0.460 -0.6341  1.0509 -1.0603
  501SOL     OW 1501   1.583   0.110   1.701  0.4668  0.5308 -0.4526
  501SOL    HW1 1502   1.483   0.082   1.728 -1.5080  0.6182 -0.6866
  501SOL    HW2 1503   1.638   0.025   1.705  0.5989 -0.6382  0.1952
  502SOL     OW 1504   2.668   0.674   1.526 -0.0333 -0.3057 -0.4398
  502SOL    HW1 1505   2.708   0.745   1.464 -0.5647  2.4396  0.0536
  502SOL    HW2 1506   2.588   0.722   1.573  0.9751  1.3612  1.1046
  503SOL     OW 1507   2.346   1.615   2.195  0.3249 -0.2800  0.3611
  503SOL    HW1 1508   2.295   1.695   2.167  3.0602  1.6169  1.6062
  503SOL    HW2 1509   2.295   1.528   2.186 -0.1787  0.7161 -0.8572
  504SOL     OW 1510   1.289   1.279   1.847 -0.4860  0.1416 -0.1230
  504SOL    HW1 1511   1.341   1.233   1.774  2.4871  1.8483  1.1620
  504SOL    HW2 1512   1.199   1.241   1.848  3.3249 -0.6832 -2.1665
  505SOL     OW 1513   0.486   0.424   1.528  0.2213 -0.3191 -0.4084
  505SOL    HW1 1514   0.416   0.462   1.463  2.3858  0.6306 -2.6483
  505SOL    HW2 1515   0.459   0.458   1.620  1.3214  0.5239 -0.4055
  506SOL     OW 1516   0.234   0.342   0.003 -0.0797  0.2558 -0.0122
  506SOL    HW1 1517   0.153   0.290   0.026  2.9592  1.1940 -1.3293
  506SOL    HW2 1518   0.261   0.347   3.030 -0.6590 -2.8664  1.1814
  507SOL     OW 1519   0.691   0.017   0.183 -0.3884  0.5908 -0.3092
  507SOL    HW1 1520   0.653   0.053   0.098 -0.6493 -1.2941  2.5453
  507SOL    HW2 1521   0.670   0.071   0.268 -2.7653 -1.0770  0.3051
  508SOL     OW 1522   0.885   0.567   1.867 -0.4309 -0.4727 -0.4648
  508SOL    HW1 1523   0.802   0.507   1.861  1.5262 -1.5282  1.7142
  508SOL    HW2 1524   0.894   0.607   1.961  1.9592 -0.0513  3.2791
  509SOL     OW 1525   1.426   2.184   0.945 -0.2741 -0.1922 -0.0754
  509SOL    HW1 1526   1.412   2.186   1.047  2.7899  3.2569  0.4440
  509SOL    HW2 1527   1.512   2.240   0.926 -1.2195 -1.0427  2.9708
  510SOL     OW 1528   2.764   1.126   1.488 -0.1502  0.8094 -0.1285
  510SOL    HW1 1529   2.664   1.121   1.504  2.1541 -1.1968 -2.4523
  510SOL    HW2 1530   2.793   1.170   1.398  1.5103 -0.1827 -2.6659
  511SOL     OW 1531   1.165   1.855   1.184  0.0708 -0.4281 -0.1936
  511SOL    HW1 1532   1.266   1.866   1.194 -1.0339 -0.3774  0.1220
  511SOL    HW2 1533   1.139   1.887   1.085 -2.3800  1.2128 -0.5338
  512SOL     OW 1534   2.913   1.538   0.517 -0.2290 -0.0450 -0.1403
  512SOL    HW1 1535   2.823   1.497   0.501 -3.2161  0.0323  2.0959
  512SOL    HW2 1536   2.936   1.585   0.428  3.0201 -1.7557  1.2529
  513SOL     OW 1537   0.106   1.569   2.883 -0.3870  0.0067  0.3298
  513SOL    HW1 1538   0.147   1.597   2.795  1.4528 -1.6999  0.5117
  513SOL    HW2 1539   0.104   1.650   2.953 -0.2499  0.0025  0.3903
  514SOL     OW 1540   2.348   2.218   2.626 -0.8015  0.0196 -0.0412
  514SOL    HW1 1541   2.249   2.209   2.654  1.5234 -0.6597 -0.9717
  514SOL    HW2 1542   2.367   2.184   2.534  1.0869  0.4389 -3.1975
  515SOL     OW 1543   2.360   0.929   0.599 -0.3174 -0.4222  0.0083
  515SOL    HW1 1544   2.300   0.896   0.678  1.5880  0.9385  0.4416
  515SOL    HW2 1545   2.422   0.857   0.562 -1.0267  1.6862  2.7998
  516SOL     OW 1546   2.674   2.296   0.141  0.0370  0.2633 -0.2915
  516SOL    HW1 1547   2.580   2.342   0.148 -0.1486 -1.3323  2.1849
  516SOL    HW2 1548   2.700   2.293   0.044 -0.6691  2.1040  1.0235
  517SOL     OW 1549   0.581   1.570   2.952 -0.2118 -0.5684 -0.2752
  517SOL    HW1 1550   0.669   1.599   3.002  2.8526  1.5276 -1.7538
  517SOL    HW2 1551   0.501   1.551   3.021 -1.5415  0.6733 -0.4716
  518SOL     OW 1552   2.839   0.110   2.299 -0.4074 -0.0884  0.1453
  518SOL    HW1 1553   2.783   0.178   2.350  0.0477  0.0086 -0.5055
  518SOL    HW2 1554   2.809   0.019   2.312  0.7605  0.4377 -1.7603
  519SOL     OW 1555   1.763   1.158   3.088 -0.4122  0.3645  0.1326
  519SOL    HW1 1556   1.725   1.098   0.037  1.6605  3.6873 -1.1605
  519SOL    HW2 1557   1.702   1.235   3.056 -1.0911  2.0546 -1.2227
  520SOL     OW 1558   2.888   2.887   2.360 -0.1900 -0.1262  0.0801
  520SOL    HW1 1559   2.792   2.919   2.359 -1.3321  0.9712  0.1347
  520SOL    HW2 1560   2.900   2.803   2.418  0.2716 -0.5479  0.3723
  521SOL     OW 1561   0.536   1.897   2.186  0.2219  0.7709  0.1501
  521SOL    HW1 1562   0.634   1.865   2.173  1.5416 -2.9771 -2.6246
  521SOL    HW2 1563   0.529   1.997   2.193 -1.9393 -4.0275  1.3786
  522SOL     OW 1564   1.168   2.968   1.750 -0.4253  0.1282  0.5543
  522SOL    HW1 1565   1.074   2.956   1.713 -1.5012  1.3390  2.0481
  522SOL    HW2 1566   1.205   2.879   1.785 -2.1040 -0.1850  0.9577
  523SOL     OW 1567   2.337   2.148   0.869 -0.2788  0.2420 -0.0135
  523SOL    HW1 1568   2.426   2.100   0.873 -1.6231  1.3847 -1.3075
  523SOL    HW2 1569   2.321   2.202   0.955  3.0492  1.4301 -3.0145
  524SOL     OW 1570   1.137   2.073   0.663 -0.7531  0.5958 -0.1776
  524SOL    HW1 1571   1.236   2.098   0.668 -1.3867 -1.7256 -0.0172
  524SOL    HW2 1572   1.074   2.151   0.652  1.0416 -0.4611  0.4541
  525SOL     OW 1573   2.699   0.580   0.574 -0.3351 -0.3579  0.3024
  525SOL    HW1 1574   2.657   0.547   0.660 -1.4094  1.0018 -1.0902
  525SOL    HW2 1575   2.789   0.629   0.581 -1.4581 -1.3146  0.9888
  526SOL     OW 1576   1.677   3.074   0.543 -0.2663  0.0333 -0.2162
  526SOL    HW1 1577   1.685   2.970   0.522 -0.3734 -0.5080 -1.6676
  526SOL    HW2 1578   1.681   3.091   0.643  2.8798 -0.2486  0.5346
  527SOL     OW 1579   2.016   1.651   0.865 -0.1124 -0.2139 -0.3485
  527SOL    HW1 1580   1.997   1.716   0.937  0.9554 -1.6279  0.6876
  527SOL    HW2 1581   2.106   1.602   0.895  0.8566 -1.4211  3.1537
  528SOL     OW 1582   2.927   2.678   2.549 -0.3469 -0.5161 -0.1856
  528SOL    HW1 1583   2.964   2.586   2.530  3.0717 -1.0869  0.3745
  528SOL    HW2 1584   2.907   2.700   2.645  2.1832  0.2918  0.7431
  529SOL     OW 1585   1.179   1.472   2.585 -0.4596 -0.0931  0.0540
  529SOL    HW1 1586   1.231   1.455   2.675  2.0399  2.2148  0.3780
  529SOL    HW2 1587   1.082   1.486   2.607  1.1662 -0.1244  2.7179
  530SOL     OW 1588   2.039   1.235   2.361 -0.1198  0.8862 -0.0700
  530SOL    HW1 1589   1.993   1.269   2.447 -1.3025  2.4317  0.8802
  530SOL    HW2 1590   1.981   1.165   2.315 -1.3044  0.1298 -0.9677
  531SOL     OW 1591   0.314   0.823   3.077 -0.1681  0.4371 -0.2004
  531SOL    HW1 1592   0.388   0.862   0.016  0.1352 -1.1915  0.0720
  531SOL    HW2 1593   0.220   0.855   3.106 -1.3141 -0.4804 -1.3003
  532SOL     OW 1594   1.702   1.135   0.711  0.6224  0.3164  0.4836
  532SOL    HW1 1595   1.692   1.035   0.692 -1.5349  1.1054 -1.4747
  532SOL    HW2 1596   1.676   1.155   0.810  1.3804  2.3627 -2.2801
  533SOL     OW 1597   0.199   0.514   2.279  0.8527 -0.1033  0.1328
  533SOL    HW1 1598   0.164   0.424   2.247 -1.7735 -3.2826 -1.6281
  533SOL    HW2 1599   0.266   0.503   2.353  3.2507 -1.5861  2.2302
  534SOL     OW 1600   1.061   0.537   2.462  0.2534 -0.2803 -0.3742
  534SOL    HW1 1601   0.992   0.481   2.517 -0.1189 -1.4037  0.4407
  534SOL    HW2 1602   1.055   0.636   2.488  1.9802 -0.5845 -0.2519
  535SOL     OW 1603   0.659   0.556   3.105 -0.2134  0.5147 -0.4591
  535SOL    HW1 1604   0.690   0.625   0.049 -2.5108 -2.7035  1.9452
  535SOL    HW2 1605   0.656   0.598   3.013  0.8019 -0.3580  0.8554
  536SOL     OW 1606   0.712   0.909   2.881 -0.1915 -0.1520  0.3963
  536SOL    HW1 1607   0.724   0.983   2.808 -2.2074  1.9680 -0.8518
  536SOL    HW2 1608   0.771   0.928   2.959 -3.3933  0.8341  1.5276
  537SOL     OW 1609   1.388   3.011   1.563  0.0100  0.4075  0.1874
  537SOL    HW1 1610   1.284   3.002   1.572 -2.0654 -1.4536  0.3744
  537SOL    HW2 1611   1.409   3.097   1.515 -0.4055  1.6692  1.0453
  538SOL     OW 1612   0.482   2.608   0.010  0.0953  0.0569 -0.6848
  538SOL    HW1 1613   0.455   2.702   3.100 -2.4077  0.4057 -4.0954
  538SOL    HW2 1614   0.407   2.544   3.108 -0.3440  1.1525 -0.3458
  539SOL     OW 1615   2.864   1.440   1.782  0.4700  0.0972  0.1222
  539SOL    HW1 1616   2.956   1.455   1.825  2.2879  0.6797 -3.4089
  539SOL    HW2 1617   2.787   1.451   1.846 -0.1685 -2.2066  0.4315
  540SOL     OW 1618   1.793   1.576   1.437 -0.7224  0.1745 -0.2869
  540SOL    HW1 1619   1.829   1.477   1.439 -2.2310 -0.3627 -0.2732
  540SOL    HW2 1620   1.749   1.597   1.350 -0.0397 -0.3254 -0.0521
  541SOL     OW 1621   0.548   2.150   1.511  0.8262  0.5801 -0.6382
  541SOL    HW1 1622   0.478   2.212   1.552  1.3625  1.9466 -1.8528
  541SOL    HW2 1623   0.576   2.082   1.584  1.4979 -0.0524 -0.9760
  542SOL     OW 1624   2.007   1.248   1.910  0.1310 -0.4749  0.1070
  542SOL    HW1 1625   1.906   1.277   1.889 -1.0064  0.6607 -0.6657
  542SOL    HW2 1626   2.002   1.148   1.929  0.5973 -0.3161 -0.0343
  543SOL     OW 1627   1.070   0.576   0.719 -0.2694 -0.2286 -0.0013
  543SOL    HW1 1628   1.015   0.658   0.682 -1.2766  3.8259  0.1211
  543SOL    HW2 1629   1.031   0.555   0.810  1.6047  2.3477 -0.4267
  544SOL     OW 1630   1.771   1.727   1.681  0.2325 -0.1900 -0.4503
  544SOL    HW1 1631   1.810   1.731   1.777  1.0666 -1.3153 -0.4665
  544SOL    HW2 1632   1.849   1.697   1.625 -0.6578  1.7973 -1.9227
  545SOL     OW 1633   1.628   1.629   1.189  0.0718  0.5364 -0.0907
  545SOL    HW1 1634   1.634   1.728   1.171 -0.2485 -0.8866 -1.4497
  545SOL    HW2 1635   1.686   1.570   1.127  1.7694 -2.3793 -0.2171
  546SOL     OW 1636   0.213   3.105   2.912  0.1848 -0.1198  0.2305
  546SOL    HW1 1637   0.224   0.036   2.827 -1.1932 -2.3072 -0.5951
  546SOL    HW2 1638   0.227   0.034   2.997 -3.3477  0.0564  0.5269
  547SOL     OW 1639   2.249   0.610   2.987 -0.1943 -0.6426  0.2079
  547SOL    HW1 1640   2.174   0.655   3.040 -1.5905 -1.1388  0.2880
  547SOL    HW2 1641   2.303   0.548   3.049 -0.4964 -2.7727 -1.0287
  548SOL     OW 1642   2.082   2.185   2.306 -0.2081  0.1817  0.1512
  548SOL    HW1 1643   2.027   2.198   2.389  0.9781 -0.2080 -0.1181
  548SOL    HW2 1644   2.091   2.271   2.254 -0.7603 -1.2759 -1.2152
  549SOL     OW 1645   2.440   2.916   0.811 -0.2926 -0.0671  0.1778
  549SOL    HW1 1646   2.441   2.843   0.884  1.1267 -0.4291 -0.5975
  549SOL    HW2 1647   2.346   2.951   0.791 -2.3520  1.7227 -1.9576
  550SOL     OW 1648   2.220   1.379   3.027 -0.2980 -0.6544 -0.0593
  550SOL    HW1 1649   2.205   1.282   3.042 -0.0005  0.9397  3.5908
  550SOL    HW2 1650   2.245   1.418   3.116 -0.5520  1.0034 -2.7742
  551SOL     OW 1651   1.326   0.056   1.799 -0.3181 -0.5400 -0.4740
  551SOL    HW1 1652   1.389   0.016   1.869  2.5190 -0.0538  0.7000
  551SOL    HW2 1653   1.265   3.111   1.759  1.9282  0.0139  0.7937
  552SOL     OW 1654   2.952   2.523   2.913  0.4560  0.3305  0.1105
  552SOL    HW1 1655   3.035   2.520   2.849  1.4130 -0.5716 -0.2466
  552SOL    HW2 1656   2.887   2.593   2.877 -2.5416 -0.3466 -1.8985
  553SOL     OW 1657   0.725   0.050   0.794 -0.2935  0.2134  0.2500
  553SOL    HW1 1658   0.717   0.039   0.895  1.0433 -0.5878 -1.9749
  553SOL    HW2 1659   0.706   0.145   0.767  0.5822  0.6299  1.6786
  554SOL     OW 1660   1.840   2.226   1.588  0.3097  0.5550 -0.5129
  554SOL    HW1 1661   1.762   2.161   1.607 -1.1541 -0.0719  0.8930
  554SOL    HW2 1662   1.851   2.293   1.665  0.6634 -0.8007  0.3488
  555SOL     OW 1663   1.342   1.831   1.610  0.1201 -0.4542  0.3217
  555SOL    HW1 1664   1.385   1.873   1.692  0.5669 -2.2856  0.4906
  555SOL    HW2 1665   1.264   1.887   1.577 -0.2459  1.2603 -1.5206
  556SOL     OW 1666   1.733   1.460   0.522 -0.4239  0.1077 -0.1581
  556SOL    HW1 1667   1.792   1.380   0.535  0.1378  2.5686 -0.6137
  556SOL    HW2 1668   1.654   1.442   0.456  0.8884 -1.7117 -0.4904
  557SOL     OW 1669   1.326   2.100   2.067  0.6230 -0.1975  0.4318
  557SOL    HW1 1670   1.264   2.157   2.014  0.6376 -4.1155  0.6822
  557SOL    HW2 1671   1.307   2.136   2.162  0.4015  2.0073  1.2686
  558SOL     OW 1672   3.007   0.360   1.916 -0.3136 -0.3815 -0.3602
  558SOL    HW1 1673   3.074   0.437   1.920  0.9864 -1.8568 -0.7015
  558SOL    HW2 1674   2.940   0.378   1.842  0.4332 -1.4511 -0.0786
  559SOL     OW 1675   2.398   2.658   1.791  0.1121 -0.2191  0.0035
  559SOL    HW1 1676   2.377   2.715   1.708 -1.5005  0.8499 -0.3171
  559SOL    HW2 1677   2.453   2.706   1.868  1.7181  2.3353  2.5769
  560SOL     OW 1678   0.545   0.063   3.057  0.1184  0.2797  0.1692
  560SOL    HW1 1679   0.566   3.104   2.998 -1.6600  2.0743  0.6339
  560SOL    HW2 1680   0.452   0.053   3.097 -0.5691 -3.3886  0.5510
  561SOL     OW 1681   1.315   0.875   0.369 -0.2165  0.0774  0.5993
  561SOL    HW1 1682   1.226   0.877   0.415 -0.4014  0.0332 -0.7474
  561SOL    HW2 1683   1.372   0.800   0.409  2.0174 -2.0999  1.2159
  562SOL     OW 1684   0.815   0.911   2.482  0.6313  0.4095 -0.4793
  562SOL    HW1 1685   0.812   0.989   2.545 -1.8821 -1.4846 -1.5040
  562SOL    HW2 1686   0.904   0.865   2.487 -0.4854  0.4375 -1.3712
  563SOL     OW 1687   1.734   2.499   2.725  0.1389 -0.1001  0.7801
  563SOL    HW1 1688   1.642   2.471   2.689 -1.6245 -1.4098  0.8695
  563SOL    HW2 1689   1.749   2.585   2.685 -0.7546 -5.0942  2.7200
  564SOL     OW 1690   2.983   1.672   0.265 -0.1475 -0.4893 -0.0982
  564SOL    HW1 1691   3.059   1.742   0.265  0.9827  0.5467 -1.8686
  564SOL    HW2 1692   2.922   1.677   0.184  1.2880 -2.2401  0.3834
  565SOL     OW 1693   1.518   3.000   2.886  0.3033  0.3079 -0.7768
  565SOL    HW1 1694   1.469   2.944   2.815 -0.6388  0.3012 -1.6579
  565SOL    HW2 1695   1.457   3.001   2.969 -1.7838  1.1516  0.0613
  566SOL     OW 1696   1.872   3.006   2.388 -0.3021  0.4661  0.0362
  566SOL    HW1 1697   1.939   2.934   2.418 -1.9459 -1.0560  0.8144
  566SOL    HW2 1698   1.854   3.072   2.469  0.9507  4.2555  2.6493
  567SOL     OW 1699   2.504   1.247   0.900 -0.6284  0.5362 -0.0295
  567SOL    HW1 1700   2.466   1.208   0.980 -0.4226  1.9578 -4.2575
  567SOL    HW2 1701   2.509   1.351   0.902  0.5133  0.4958 -0.9434
  568SOL     OW 1702   2.061   1.400   2.805 -0.0620  0.6022 -0.6714
  568SOL    HW1 1703   1.976   1.349   2.819  2.8278  0.7089  0.7359
  568SOL    HW2 1704   2.117   1.398   2.892 -1.7679 -1.8682  0.9982
  569SOL     OW 1705   2.475   1.878   2.480  0.2844  0.4089  0.1814
  569SOL    HW1 1706   2.447   1.971   2.452 -2.3469  0.1521 -0.2399
  569SOL    HW2 1707   2.452   1.848   2.574 -0.8186 -1.2643 -0.3122
  570SOL     OW 1708   2.923   2.491   1.934 -0.2884  0.0346  0.0702
  570SOL    HW1 1709   2.880   2.401   1.959  1.6751 -0.1865  2.4434
  570SOL    HW2 1710   3.022   2.472   1.913  2.2035 -1.7978 -1.5011
  571SOL     OW 1711   0.389   0.145   2.237 -0.6817  0.0932 -0.2673
  571SOL    HW1 1712   0.394   0.113   2.336  1.6516 -2.7776 -0.9320
  571SOL    HW2 1713   0.411   0.076   2.164 -0.5325  0.4384  0.4144
  572SOL     OW 1714   1.005   1.709   0.898  0.3869  0.5320 -0.0644
  572SOL    HW1 1715   1.023   1.656   0.982 -0.0068  3.4824  1.3700
  572SOL    HW2 1716   0.983   1.646   0.821  1.4544 -2.6352  0.2911
  573SOL     OW 1717   1.096   0.306   0.021 -0.1333  0.2423  0.3888
  573SOL    HW1 1718   1.017   0.344   3.101  2.0926 -1.3960 -2.6990
  573SOL    HW2 1719   1.157   0.267   3.078 -2.7855  0.0314  2.0661
  574SOL     OW 1720   0.477   3.094   0.616 -0.4212  0.2010  0.3013
  574SOL    HW1 1721   0.515   0.032   0.538 -0.8870 -4.0360 -1.4448
  574SOL    HW2 1722   0.536   3.072   0.698  1.0333 -0.5278  1.1574
  575SOL     OW 1723   0.004   1.413   1.612  0.5395 -0.3429 -0.0631
  575SOL    HW1 1724   3.123   1.450   1.709 -0.1261  2.4126  1.6782
  575SOL    HW2 1725   0.082   1.457   1.564 -0.6644  0.0193  1.7562
  576SOL     OW 1726   2.263   0.326   1.763  0.1382  0.0916  0.0941
  576SOL    HW1 1727   2.273   0.375   1.673 -0.3619  1.0359 -3.3237
  576SOL    HW2 1728   2.272   0.390   1.844  1.6654  1.8886  1.9492
  577SOL     OW 1729   2.836   1.487   2.133 -0.0274  0.8627  0.4642
  577SOL    HW1 1730   2.801   1.390   2.124  1.9318 -0.7172 -0.7594
  577SOL    HW2 1731   2.777   1.548   2.079  0.1428  0.2097  0.8799
  578SOL     OW 1732   1.415   3.026   2.203 -0.1404 -0.0609  0.1758
  578SOL    HW1 1733   1.337   2.970   2.238 -0.5325 -0.6098  2.1040
  578SOL    HW2 1734   1.451   3.080   2.285 -0.4641  1.7978 -0.6542
  579SOL     OW 1735   1.930   2.083   2.095 -0.1730 -0.1179 -0.1624
  579SOL    HW1 1736   1.958   2.079   1.997  0.6547 -2.3719 -1.4718
  579SOL    HW2 1737   2.023   2.089   2.143  0.5801 -2.0718 -0.2020
  580SOL     OW 1738   1.889   1.449   2.074 -0.3870 -0.6447  0.6627
  580SOL    HW1 1739   1.941   1.376   2.027 -1.6567 -2.4254  2.3531
  580SOL    HW2 1740   1.942   1.491   2.148 -1.1599 -0.0573  1.6377
  581SOL     OW 1741   1.595   1.297   2.467 -0.2164 -0.2213  0.0034
  581SOL    HW1 1742   1.613   1.304   2.368  1.0105 -0.8206 -1.3309
  581SOL    HW2 1743   1.674   1.321   2.526 -0.1911 -0.2984  0.5176
  582SOL     OW 1744   0.099   2.087   2.063 -0.5690  0.0449  1.0777
  582SOL    HW1 1745   0.138   1.990   2.067 -0.7747 -3.0002  0.3788
  582SOL    HW2 1746   0.002   2.090   2.090  4.0381  0.6798 -3.2410
  583SOL     OW 1747   1.451   0.900   0.863 -0.5465  0.3146 -0.0979
  583SOL    HW1 1748   1.382   0.966   0.819 -2.2074  0.6115 -0.4139
  583SOL    HW2 1749   1.468   0.918   0.960  2.7327  0.1425 -0.6767
  584SOL     OW 1750   1.019   2.499   0.337 -0.1466 -0.0858  0.2953
  584SOL    HW1 1751   1.071   2.586   0.332 -1.9878 -0.5391  2.5875
  584SOL    HW2 1752   0.920   2.525   0.332  0.8023  2.0711 -0.3924
  585SOL     OW 1753   0.050   2.712   0.028  0.1966  0.2967  0.1912
  585SOL    HW1 1754   0.107   2.755   0.100  1.0775  1.2353 -0.7074
  585SOL    HW2 1755   0.110   2.706   3.069 -0.4528  0.3164 -0.5700
  586SOL     OW 1756   2.347   1.186   0.671  0.2173  0.1138  0.1679
  586SOL    HW1 1757   2.349   1.086   0.649  1.1616 -1.5983 -0.0542
  586SOL    HW2 1758   2.404   1.202   0.754 -0.2305  0.2655 -2.4538
  587SOL     OW 1759   0.811   1.691   0.091  0.9490  0.0663  0.6728
  587SOL    HW1 1760   0.844   1.646   0.007  1.5338  1.0598 -0.5517
  587SOL    HW2 1761   0.873   1.767   0.113 -0.9313  0.2498  0.2103
  588SOL     OW 1762   0.205   0.219   0.733 -0.1474  0.4887 -0.2742
  588SOL    HW1 1763   0.187   0.241   0.633 -0.5305  0.7856  1.3593
  588SOL    HW2 1764   0.266   0.291   0.765  0.2428  0.0794 -1.9233
  589SOL     OW 1765   1.375   0.002   0.829 -0.4293 -0.1234  0.3935
  589SOL    HW1 1766   1.290   3.108   0.879 -0.0895  0.5529 -1.1732
  589SOL    HW2 1767   1.430   0.062   0.889  1.7860 -0.8436  0.2114
  590SOL     OW 1768   2.402   2.341   0.434 -0.1271 -0.3121 -0.0481
  590SOL    HW1 1769   2.480   2.360   0.501  0.8160  0.0813 -1.1860
  590SOL    HW2 1770   2.437   2.356   0.338 -1.9811 -0.2330  0.5775
  591SOL     OW 1771   0.288   2.462   2.068  0.3438  0.0603  0.1120
  591SOL    HW1 1772   0.287   2.536   2.140 -2.8401  2.2261  1.0525
  591SOL    HW2 1773   0.376   2.435   2.026 -0.5832  1.2145  1.2036
  592SOL     OW 1774   0.168   1.888   2.424 -0.3639  0.7545 -0.1658
  592SOL    HW1 1775   0.147   1.838   2.337 -0.4409  0.5043 -1.7282
  592SOL    HW2 1776   0.157   1.987   2.411  2.8508 -0.2486  1.4486
  593SOL     OW 1777   1.459   1.316   1.314  0.4433  0.3862  0.3053
  593SOL    HW1 1778   1.385   1.346   1.377 -2.4780 -0.3421 -0.5842
  593SOL    HW2 1779   1.450   1.353   1.220  2.5156  0.0870  1.1514
  594SOL     OW 1780   0.513   1.340   2.817 -0.1053  0.3917  0.5237
  594SOL    HW1 1781   0.474   1.280   2.888 -2.8683  0.6146 -1.5966
  594SOL    HW2 1782   0.530   1.437   2.857  0.4727  1.2774  0.9966
  595SOL     OW 1783   1.233   0.736   1.094 -0.2881  0.6324  0.6935
  595SOL    HW1 1784   1.271   0.816   1.138  0.8930  0.5720  0.9156
  595SOL    HW2 1785   1.200   0.758   1.002  3.4534 -0.0754  2.6065
  596SOL     OW 1786   0.476   1.066   1.067  0.4290  0.5595  0.0957
  596SOL    HW1 1787   0.534   1.129   1.118 -2.1130  1.7217  1.1821
  596SOL    HW2 1788   0.435   1.117   0.993  4.7055  0.1351  0.3599
  597SOL     OW 1789   0.563   2.435   2.087  0.6973 -0.9292 -0.0742
  597SOL    HW1 1790   0.591   2.519   2.142 -0.0083  2.3164 -1.1804
  597SOL    HW2 1791   0.599   2.453   1.992  1.6367  0.6135  0.5431
  598SOL     OW 1792   2.293   2.538   2.205 -0.0112 -0.0535 -0.1940
  598SOL    HW1 1793   2.377   2.548   2.145 -3.6224 -0.1688  1.7612
  598SOL    HW2 1794   2.291   2.614   2.273 -0.4726 -0.6761 -0.8575
  599SOL     OW 1795   0.972   1.191   0.506  0.6181  0.2760 -0.8827
  599SOL    HW1 1796   1.027   1.240   0.580 -0.2978 -1.4039  0.7897
  599SOL    HW2 1797   0.937   1.257   0.434  0.5225 -1.7777 -2.1764
  600SOL     OW 1798   1.604   0.438   0.436 -0.2151 -0.4545 -0.0249
  600SOL    HW1 1799   1.524   0.378   0.419 -0.8119  2.1210  0.0265
  600SOL    HW2 1800   1.684   0.397   0.386  0.0268 -1.0534  3.0433
  601SOL     OW 1801   0.552   0.152   1.461  0.2729  0.1705 -0.6388
  601SOL    HW1 1802   0.542   0.088   1.539  0.7825 -0.5166  2.5401
  601SOL    HW2 1803   0.506   0.243   1.478  1.5822  1.5459 -0.3775
  602SOL     OW 1804   0.409   2.208   0.820 -0.5475  0.1583 -0.0239
  602SOL    HW1 1805   0.444   2.112   0.831  0.1348 -1.9974  0.5133
  602SOL    HW2 1806   0.420   2.245   0.725 -0.1124 -2.8578  0.7905
  603SOL     OW 1807   1.054   2.818   2.687  0.1409  0.7450 -0.3204
  603SOL    HW1 1808   1.113   2.741   2.712  2.7618 -1.5974 -0.0804
  603SOL    HW2 1809   1.071   2.855   2.599  0.3069 -2.9064  2.8059
  604SOL     OW 1810   0.607   2.401   0.370 -0.6840  0.1441  0.6977
  604SOL    HW1 1811   0.521   2.375   0.326  1.2201 -1.4330 -0.9176
  604SOL    HW2 1812   0.668   2.465   0.316  0.5777 -0.6796  1.5584
  605SOL     OW 1813   1.593   1.360   1.562  0.4525  0.3388  0.4138
  605SOL    HW1 1814   1.613   1.265   1.527  3.0176 -2.6181  1.1318
  605SOL    HW2 1815   1.568   1.422   1.485 -0.6102 -0.7948 -0.5324
  606SOL     OW 1816   0.904   1.256   2.867  0.4189  0.3372 -0.0807
  606SOL    HW1 1817   0.841   1.216   2.938 -0.2324 -1.4039  2.2653
  606SOL    HW2 1818   0.882   1.355   2.866  0.1003  0.9416 -1.3553
  607SOL     OW 1819   0.972   0.922   1.269  0.7167  0.2935 -0.4024
  607SOL    HW1 1820   0.871   0.941   1.286 -2.3417  0.9567 -1.9676
  607SOL    HW2 1821   0.995   0.820   1.283 -0.9736 -3.9111  1.1671
  608SOL     OW 1822   2.839   2.231   1.959  0.0794 -0.1794  0.4508
  608SOL    HW1 1823   2.875   2.160   2.020 -0.2431  2.3539 -3.4602
  608SOL    HW2 1824   2.736   2.224   1.955 -0.3823 -1.8839  1.1454
  609SOL     OW 1825   2.286   0.165   0.075  0.2075  0.4810 -0.4390
  609SOL    HW1 1826   2.260   0.139   0.172  2.0344 -0.6857 -1.1066
  609SOL    HW2 1827   2.314   0.086   0.021 -0.1130  2.5333  0.1403
  610SOL     OW 1828   0.123   2.645   1.655  0.7083 -0.5751 -0.3125
  610SOL    HW1 1829   0.152   2.741   1.627 -0.3699  2.9345 -0.1997
  610SOL    HW2 1830   0.095   2.592   1.578 -1.8806 -0.0478 -0.4937
  611SOL     OW 1831   1.518   1.671   0.797  0.1197  0.1449  0.8214
  611SOL    HW1 1832   1.460   1.637   0.874 -0.7937  2.0282 -0.8613
  611SOL    HW2 1833   1.605   1.619   0.786 -2.0279  0.0631 -0.0797
  612SOL     OW 1834   0.554   0.362   2.105 -0.5609  0.5412  0.3701
  612SOL    HW1 1835   0.581   0.341   2.005  2.3726 -2.0522  0.5453
  612SOL    HW2 1836   0.469   0.317   2.133  1.6572  1.0907 -0.8106
  613SOL     OW 1837   2.602   1.172   0.376  0.3016 -0.3124  0.2561
  613SOL    HW1 1838   2.513   1.162   0.423  0.1524 -0.6484 -0.8220
  613SOL    HW2 1839   2.669   1.208   0.440 -0.8917 -2.4725 -3.2696
  614SOL     OW 1840   1.959   0.317   1.709  0.0191 -0.4336 -0.5795
  614SOL    HW1 1841   2.033   0.320   1.776  0.3696 -0.8108  0.9603
  614SOL    HW2 1842   1.932   0.221   1.681 -0.9131  3.1117  1.3346
  615SOL     OW 1843   0.769   1.587   1.677  0.8214 -0.7970  0.2280
  615SOL    HW1 1844   0.845   1.598   1.606 -1.3637  0.4363  1.9601
  615SOL    HW2 1845   0.682   1.631   1.638  0.1716  0.0684 -4.4414
  616SOL     OW 1846   1.532   1.863   0.043 -0.0649 -0.0966 -0.2914
  616SOL    HW1 1847   1.534   1.825   0.139  1.4268 -2.6371 -1.1705
  616SOL    HW2 1848   1.625   1.907   0.018  0.1456  3.1763 -0.2830
  617SOL     OW 1849   2.463   2.974   0.185  0.6662 -0.3371 -0.1273
  617SOL    HW1 1850   2.369   2.963   0.145 -0.9874  0.7075 -0.6861
  617SOL    HW2 1851   2.480   2.899   0.251 -1.7351 -0.3858 -3.2028
  618SOL     OW 1852   0.708   0.655   2.675 -0.2104  0.1426  0.5701
  618SOL    HW1 1853   0.737   0.749   2.641  2.2482  1.4253  0.6298
  618SOL    HW2 1854   0.629   0.663   2.738  1.6758  0.0888 -0.1855
  619SOL     OW 1855   2.811   1.508   0.946 -0.3669 -0.0865  0.1845
  619SOL    HW1 1856   2.814   1.411   0.908 -2.1084  1.5769  0.4059
  619SOL    HW2 1857   2.879   1.562   0.884  1.2863  0.5628 -1.1898
  620SOL     OW 1858   2.317   3.079   2.994  0.1406  0.4699  0.0852
  620SOL    HW1 1859   2.383   2.999   2.987 -1.5602  0.2624  2.1583
  620SOL    HW2 1860   2.225   3.040   3.006  1.9334 -0.1709 -1.4205
  621SOL     OW 1861   2.459   1.484   2.893 -0.0258 -0.4144 -0.1022
  621SOL    HW1 1862   2.365   1.455   2.923  0.1910 -1.8614  0.8887
  621SOL    HW2 1863   2.526   1.410   2.887  0.3400  2.5749  1.3984
  622SOL     OW 1864   1.494   2.673   2.107  0.0017 -0.3087  0.0110
  622SOL    HW1 1865   1.525   2.681   2.202 -1.0852 -2.4542 -0.3018
  622SOL    HW2 1866   1.560   2.618   2.057 -2.5655  2.4907  2.0345
  623SOL     OW 1867   1.126   1.805   0.573  0.4466 -0.0302  0.4049
  623SOL    HW1 1868   1.072   1.884   0.605 -0.8681 -0.8478  0.0725
  623SOL    HW2 1869   1.138   1.821   0.476 -0.8938  0.8227  1.2155
  624SOL     OW 1870   0.287   0.078   0.064  0.1739  0.1924  0.3336
  624SOL    HW1 1871   0.245   0.037   0.149  0.8265 -0.9901  1.9986
  624SOL    HW2 1872   0.293   0.183   0.071  3.4424 -0.3408  0.7265
  625SOL     OW 1873   0.743   1.652   0.589 -0.5430 -0.2920 -0.5867
  625SOL    HW1 1874   0.705   1.731   0.637 -0.9081  1.4868 -1.0257
  625SOL    HW2 1875   0.712   1.644   0.495 -0.7049 -0.6013  0.6865
  626SOL     OW 1876   2.963   2.842   3.020  0.2444 -0.0935 -0.2949
  626SOL    HW1 1877   3.036   2.791   3.070  0.4754 -0.4757  1.3859
  626SOL    HW2 1878   2.986   2.942   3.024  1.4814 -2.5003 -0.5906
  627SOL     OW 1879   1.083   1.907   2.657  0.0840 -0.3572 -0.4578
  627SOL    HW1 1880   1.007   1.874   2.602  1.1810  0.6423  3.4162
  627SOL    HW2 1881   1.163   1.845   2.640 -0.0625 -1.4859 -1.6156
  628SOL     OW 1882   0.242   0.155   2.692 -0.2467 -0.1854  0.5934
  628SOL    HW1 1883   0.313   0.115   2.634 -1.6193 -1.2141 -1.1089
  628SOL    HW2 1884   0.161   0.187   2.637 -1.7063  2.6942 -0.0206
  629SOL     OW 1885   0.515   2.951   2.293  0.1844  0.2275  0.1459
  629SOL    HW1 1886   0.570   3.025   2.258 -1.1319 -1.6850  0.6582
  629SOL    HW2 1887   0.561   2.868   2.258  0.3505  0.4613  1.8043
  630SOL     OW 1888   1.765   1.001   1.755 -0.3190 -0.5350  0.2410
  630SOL    HW1 1889   1.799   0.986   1.655 -0.3321 -0.2721 -3.4812
  630SOL    HW2 1890   1.671   0.974   1.769  2.4404  0.2872 -2.7934
  631SOL     OW 1891   2.245   1.043   0.354  0.5518 -0.1246  0.6877
  631SOL    HW1 1892   2.308   1.039   0.275 -0.0156  0.0204  2.5885
  631SOL    HW2 1893   2.284   0.991   0.429  1.0119 -0.4887 -0.5924
  632SOL     OW 1894   2.411   0.711   1.926  0.3994  0.2588  0.1084
  632SOL    HW1 1895   2.376   0.711   2.021 -0.0406  0.2853 -1.1198
  632SOL    HW2 1896   2.373   0.622   1.888 -0.2390  1.0144  1.5958
  633SOL     OW 1897   0.772   2.602   0.291  1.0165 -0.3966 -0.0619
  633SOL    HW1 1898   0.806   2.620   0.196  2.5304 -0.6096 -2.7291
  633SOL    HW2 1899   0.751   2.684   0.349  0.1549  1.6135 -1.9973
  634SOL     OW 1900   1.604   2.666   2.389 -0.3265  0.2802 -0.3017
  634SOL    HW1 1901   1.573   2.603   2.466  0.7651 -1.4262 -0.2802
  634SOL    HW2 1902   1.579   2.761   2.417  2.0106  1.4390 -0.5058
  635SOL     OW 1903   2.384   0.407   3.098  0.3787 -0.1473  0.0788
  635SOL    HW1 1904   2.455   0.424   0.048  0.6986  1.0575  0.9495
  635SOL    HW2 1905   2.329   0.326   0.000  3.2249  0.6087  1.2456
  636SOL     OW 1906   0.582   1.037   0.740 -0.0732  0.4112  0.5275
  636SOL    HW1 1907   0.499   0.990   0.777  1.7501  1.5259 -0.9701
  636SOL    HW2 1908   0.662   1.028   0.806 -1.9530 -2.4347  0.4507
  637SOL     OW 1909   0.013   1.826   0.715  0.1047  0.0665 -0.7558
  637SOL    HW1 1910   0.035   1.887   0.795  0.3684 -1.1519 -1.2575
  637SOL    HW2 1911   0.064   1.856   0.632  1.4405  0.6493  0.0842
  638SOL     OW 1912   0.903   3.071   3.097  0.3345  0.1856 -0.2354
  638SOL    HW1 1913   0.829   3.094   0.036 -0.0489 -2.6831 -0.7540
  638SOL    HW2 1914   0.996   3.096   0.019  2.1678  2.4125  3.5772
  639SOL     OW 1915   1.466   1.675   0.291  0.2827 -0.1234 -0.0617
  639SOL    HW1 1916   1.377   1.634   0.266  0.7023  0.6822  0.3445
  639SOL    HW2 1917   1.460   1.739   0.365  0.7865  1.4954  0.2220
  640SOL     OW 1918   1.779   2.746   0.826  1.2179  0.0185  0.6044
  640SOL    HW1 1919   1.807   2.693   0.743  0.4567  0.4294  0.7540
  640SOL    HW2 1920   1.772   2.842   0.797 -0.0527 -1.1079 -0.1753
  641SOL     OW 1921   0.207   2.590   0.816 -0.1517 -0.3988  0.4689
  641SOL    HW1 1922   0.176   2.566   0.723  1.1216 -0.6501 -0.4114
  641SOL    HW2 1923   0.268   2.671   0.812  0.7883 -0.6864 -0.7155
  642SOL     OW 1924   0.840   0.280   1.690  0.6033  0.1369  0.2427
  642SOL    HW1 1925   0.816   0.256   1.591 -0.4047 -2.5798  0.5365
  642SOL    HW2 1926   0.925   0.340   1.700 -1.2934  1.2380 -3.5642
  643SOL     OW 1927   0.638   2.150   2.120  0.0161  0.1027  0.4273
  643SOL    HW1 1928   0.588   2.238   2.108  0.3482  0.3279  3.5572
  643SOL    HW2 1929   0.686   2.111   2.039  0.7704  0.9790  1.0873
  644SOL     OW 1930   0.563   2.841   0.500 -0.3306 -0.4166  0.4608
  644SOL    HW1 1931   0.528   2.927   0.542  1.5438  2.0345  2.1076
  644SOL    HW2 1932   0.613   2.792   0.569 -1.6810 -0.6008 -1.3731
  645SOL     OW 1933   1.184   1.988   0.340 -0.3221 -0.3237 -0.8366
  645SOL    HW1 1934   1.165   2.085   0.354  0.4684 -3.3381 -0.2982
  645SOL    HW2 1935   1.286   1.981   0.330 -2.1857 -0.7440 -2.0699
  646SOL     OW 1936   0.559   1.349   0.139 -0.0325 -0.2407 -0.1561
  646SOL    HW1 1937   0.654   1.316   0.120  4.8089  0.9221 -1.7938
  646SOL    HW2 1938   0.545   1.352   0.237  0.7964  0.2614 -0.4316
  647SOL     OW 1939   1.094   0.147   1.142  0.1942  0.0394  0.0250
  647SOL    HW1 1940   1.116   0.244   1.164 -0.0081 -0.3511 -1.9972
  647SOL    HW2 1941   1.136   0.077   1.201 -2.8596  0.3976 -0.0679
  648SOL     OW 1942   2.465   0.074   1.464 -0.2358  0.1545 -0.2859
  648SOL    HW1 1943   2.388   0.103   1.411  2.2556 -0.5555  2.1106
  648SOL    HW2 1944   2.457   3.115   1.523  0.5018 -0.0205  3.4572
  649SOL     OW 1945   0.908   2.241   2.853 -0.0396 -0.5376  0.7335
  649SOL    HW1 1946   0.909   2.205   2.759 -1.6859  0.5174 -0.2311
  649SOL    HW2 1947   0.826   2.301   2.856  0.2338 -0.9986 -1.9195
  650SOL     OW 1948   3.040   1.875   1.843  0.2720  0.7758  0.2095
  650SOL    HW1 1949   2.977   1.841   1.766 -1.3292 -1.4297 -0.5142
  650SOL    HW2 1950   0.015   1.860   1.814 -1.2514  2.0229  1.4603
  651SOL     OW 1951   1.128   0.019   0.093 -0.7434 -0.3195 -0.1517
  651SOL    HW1 1952   1.126   0.124   0.100 -1.2786  1.2507 -0.3197
  651SOL    HW2 1953   1.222   3.110   0.072  1.1140 -0.3469 -0.2125
  652SOL     OW 1954   2.763   2.143   0.342  0.0694  0.4482 -0.1574
  652SOL    HW1 1955   2.699   2.068   0.366  1.0812  0.3570 -0.7752
  652SOL    HW2 1956   2.737   2.192   0.257  0.5746  1.6966 -0.2197
  653SOL     OW 1957   3.107   0.152   0.919 -0.0967 -0.2159  0.5554
  653SOL    HW1 1958   3.112   0.053   0.897  1.0801 -2.2045 -3.0388
  653SOL    HW2 1959   0.061   0.192   0.865  0.6349  0.3116  0.1811
  654SOL     OW 1960   2.030   0.366   2.617  0.0314 -0.3960  0.1773
  654SOL    HW1 1961   2.046   0.403   2.713 -2.2605  0.1846 -0.0106
  654SOL    HW2 1962   1.927   0.366   2.592 -1.1327 -0.5517 -1.4333
  655SOL     OW 1963   0.369   2.488   0.996  0.0495 -0.1181 -0.3526
  655SOL    HW1 1964   0.302   2.522   0.921 -1.0705 -2.9098 -0.3459
  655SOL    HW2 1965   0.361   2.387   1.017  0.2276 -2.0310 -1.6751
  656SOL     OW 1966   0.120   0.136   1.640 -0.3341 -0.1441 -0.2062
  656SOL    HW1 1967   0.017   0.133   1.634 -1.1305 -1.0021  0.0069
  656SOL    HW2 1968   0.163   0.201   1.571  2.4389 -1.5372 -1.9193
  657SOL     OW 1969   2.323   0.734   2.183 -0.6313 -0.4627  0.6044
  657SOL    HW1 1970   2.381   0.650   2.212 -0.0475 -0.3133  0.6219
  657SOL    HW2 1971   2.227   0.709   2.202  3.5425  2.3614  1.2291
  658SOL     OW 1972   2.391   1.731   0.986 -0.0822  0.5063 -0.3750
  658SOL    HW1 1973   2.378   1.798   1.064 -1.2989  1.3344 -1.4029
  658SOL    HW2 1974   2.411   1.779   0.898  2.3220 -0.4383  0.2859
  659SOL     OW 1975   2.509   0.112   2.859 -0.1733 -0.5943 -0.0621
  659SOL    HW1 1976   2.432   0.054   2.894  1.5419  0.2585  1.3204
  659SOL    HW2 1977   2.594   0.065   2.892 -0.1563  0.3747  0.8192
  660SOL     OW 1978   1.273   1.465   2.865  0.3864 -0.8707  0.2304
  660SOL    HW1 1979   1.318   1.555   2.889 -1.1373  3.2149  0.4239
  660SOL    HW2 1980   1.339   1.383   2.871  0.5190 -2.2482  1.1445
  661SOL     OW 1981   2.739   2.381   0.849 -0.1893 -0.0286 -0.1457
  661SOL    HW1 1982   2.784   2.290   0.854 -1.8092 -0.9229  1.8138
  661SOL    HW2 1983   2.784   2.450   0.908 -0.0780  1.5928 -1.5392
  662SOL     OW 1984   0.777   0.738   0.144 -0.4623 -0.2476  0.2208
  662SOL    HW1 1985   0.859   0.692   0.185  0.0627  1.2215 -1.2389
  662SOL    HW2 1986   0.722   0.774   0.217  2.1888 -0.5466 -2.2325
  663SOL     OW 1987   1.735   1.976   0.311  0.3167 -0.4579  0.1485
  663SOL    HW1 1988   1.754   2.074   0.304  0.7124 -3.2057  0.0942
  663SOL    HW2 1989   1.811   1.929   0.266  0.5300  0.9790  2.1943
  664SOL     OW 1990   0.766   2.322   1.636 -0.0612  0.2403 -0.8684
  664SOL    HW1 1991   0.784   2.397   1.569 -1.5412 -1.9348 -1.5811
  664SOL    HW2 1992   0.714   2.249   1.584 -0.0491 -2.2145 -0.9784
  665SOL     OW 1993   2.063   2.101   1.851  0.1896 -0.1266  0.4201
  665SOL    HW1 1994   2.073   2.202   1.835 -0.6897 -0.7970  0.0048
  665SOL    HW2 1995   2.118   2.042   1.790 -1.3097 -3.5790 -1.1166
  666SOL     OW 1996   0.403   2.711   0.292 -0.0309  0.6756  0.7891
  666SOL    HW1 1997   0.468   2.750   0.356 -2.4761 -0.2400  0.3609
  666SOL    HW2 1998   0.445   2.671   0.212 -1.5882  2.5892  0.3889
  667SOL     OW 1999   2.123   1.340   1.672  0.2224 -0.5599  0.2951
  667SOL    HW1 2000   2.047   1.325   1.606  2.0512  2.9808  1.8670
  667SOL    HW2 2001   2.099   1.313   1.767  4.6782 -0.0236  1.9670
  668SOL     OW 2002   0.477   0.559   2.415 -0.0571 -0.2528 -0.1654
  668SOL    HW1 2003   0.520   0.634   2.354  0.2295  3.4193 -0.6136
  668SOL    HW2 2004   0.525   0.467   2.411  0.8829  0.4821  0.8734
  669SOL     OW 2005   1.801   2.111   2.594 -0.4729  0.0431 -0.1397
  669SOL    HW1 2006   1.757   2.084   2.679 -0.3954  1.0427 -1.6892
  669SOL    HW2 2007   1.747   2.077   2.514  2.3942 -0.8655 -2.2804
  670SOL     OW 2008   2.218   2.337   3.107 -0.5526  0.1499  0.1021
  670SOL    HW1 2009   2.307   2.291   3.078  0.0597 -0.6982  0.5200
  670SOL    HW2 2010   2.157   2.356   3.028  1.0833 -3.5136  1.8456
  671SOL     OW 2011   0.689   1.208   1.190  0.0748 -0.0554  0.1959
  671SOL    HW1 2012   0.742   1.297   1.208  1.2654 -1.0783 -1.4199
  671SOL    HW2 2013   0.691   1.154   1.278  2.0739 -2.4644  2.8474
  672SOL     OW 2014   2.753   1.008   2.383  0.3489  0.0116  0.3652
  672SOL    HW1 2015   2.786   0.995   2.290 -0.1491  1.4124  0.3009
  672SOL    HW2 2016   2.794   1.092   2.428 -0.5795  2.6253  1.7042
  673SOL     OW 2017   2.667   2.258   2.283 -0.1478 -0.2338  0.3162
  673SOL    HW1 2018   2.740   2.246   2.357  1.9743  0.7174  0.3429
  673SOL    HW2 2019   2.683   2.347   2.241  2.4537  0.5643  3.0827
  674SOL     OW 2020   1.258   2.852   2.336  0.1320  0.1316 -0.1795
  674SOL    HW1 2021   1.348   2.867   2.383 -1.5263  0.3024  0.7426
  674SOL    HW2 2022   1.244   2.766   2.292 -1.5816  0.9426  1.1311
  675SOL     OW 2023   0.788   0.939   1.681  0.3738  0.1074 -0.5101
  675SOL    HW1 2024   0.866   0.871   1.684  0.8211  0.4378 -0.2421
  675SOL    HW2 2025   0.816   1.036   1.682 -2.0229 -1.0246 -1.1931
  676SOL     OW 2026   1.892   0.889   0.596 -0.2200  0.0802  0.3247
  676SOL    HW1 2027   1.794   0.874   0.620  0.5720  2.9674 -0.1505
  676SOL    HW2 2028   1.911   0.934   0.508 -0.3204 -1.8963  0.8796
  677SOL     OW 2029   2.994   1.744   2.760 -0.2409  0.1068  0.4937
  677SOL    HW1 2030   3.040   1.660   2.743  0.4325  2.7807  1.6646
  677SOL    HW2 2031   3.065   1.813   2.755 -1.8989 -2.0698 -0.7369
  678SOL     OW 2032   2.908   2.267   1.250 -0.2692 -0.2745  0.0697
  678SOL    HW1 2033   2.904   2.368   1.226 -0.8451  2.2229 -0.1728
  678SOL    HW2 2034   2.815   2.239   1.269  3.5910 -1.1448  0.7007
  679SOL     OW 2035   1.868   2.578   0.569  0.2139 -0.3533  0.4134
  679SOL    HW1 2036   1.971   2.584   0.579  1.4252  0.5492 -0.4323
  679SOL    HW2 2037   1.848   2.490   0.520  0.5294 -2.3798 -1.7520
  680SOL     OW 2038   0.638   2.708   2.572  0.6576 -0.3639 -0.0121
  680SOL    HW1 2039   0.611   2.805   2.566  0.5960  0.2321 -0.0633
  680SOL    HW2 2040   0.722   2.689   2.520 -1.0037 -0.0631 -0.8108
  681SOL     OW 2041   3.020   1.176   1.595 -0.4373  0.0933  0.2654
  681SOL    HW1 2042   3.063   1.269   1.590 -1.0526 -0.6964 -0.0018
  681SOL    HW2 2043   2.924   1.173   1.565  1.9438  0.4951  2.3272
  682SOL     OW 2044   0.198   1.904   1.247  0.1861  0.0290 -0.5359
  682SOL    HW1 2045   0.175   1.991   1.297 -0.1864 -0.0446  1.1256
  682SOL    HW2 2046   0.293   1.871   1.271  1.5438  0.0387  1.0679
  683SOL     OW 2047   2.534   1.348   1.246  0.2634 -0.1206  0.6123
  683SOL    HW1 2048   2.509   1.432   1.193  2.2122  1.8499  2.1676
  683SOL    HW2 2049   2.522   1.373   1.344 -0.5461 -1.2763  0.0775
  684SOL     OW 2050   2.798   1.487   2.957  0.3766  0.2523 -0.6633
  684SOL    HW1 2051   2.864   1.414   2.938 -1.4013  0.3260 -0.4072
  684SOL    HW2 2052   2.756   1.529   2.872 -1.1086 -0.6829 -1.1351
  685SOL     OW 2053   1.306   1.282   0.042 -0.2011  0.0937 -0.2091
  685SOL    HW1 2054   1.247   1.267   3.081  0.2679 -1.5137 -0.2150
  685SOL    HW2 2055   1.358   1.196   0.074 -0.7950 -1.2187  1.3501
  686SOL     OW 2056   0.185   0.283   1.103  0.1797 -0.0325 -0.0883
  686SOL    HW1 2057   0.254   0.211   1.109 -0.4849  0.0279 -0.8341
  686SOL    HW2 2058   0.093   0.243   1.075 -1.0961  1.4836 -0.6347
  687SOL     OW 2059   0.862   1.828   2.503 -0.0031  0.1734  0.3812
  687SOL    HW1 2060   0.878   1.733   2.526  0.2087  0.0034  1.9432
  687SOL    HW2 2061   0.844   1.846   2.404  0.3437  2.8250 -1.9975
  688SOL     OW 2062   0.437   1.842   1.360 -0.4991  0.6420  0.3529
  688SOL    HW1 2063   0.496   1.794   1.292 -0.3343  1.3228  0.3145
  688SOL    HW2 2064   0.473   1.933   1.381 -3.5101 -1.1723 -0.9207
  689SOL     OW 2065   1.434   0.757   1.411  0.3291 -0.0778 -0.3566
  689SOL    HW1 2066   1.448   0.752   1.513 -0.0215 -2.1775  1.3392
  689SOL    HW2 2067   1.393   0.673   1.372  0.4135 -3.2201 -0.6169
  690SOL     OW 2068   2.562   0.887   1.109  0.0674  0.0652 -0.6647
  690SOL    HW1 2069   2.567   0.827   1.033 -0.6581  2.2058  3.9665
  690SOL    HW2 2070   2.642   0.870   1.171  3.4346 -1.2121  1.5098
  691SOL     OW 2071   0.143   2.158   1.810  0.6758  0.6841  0.4725
  691SOL    HW1 2072   0.051   2.188   1.778  0.3196  0.7140 -0.7359
  691SOL    HW2 2073   0.139   2.149   1.910  0.9999 -0.4089  1.7309
  692SOL     OW 2074   1.719   3.056   0.812 -0.2708 -0.3468 -0.0987
  692SOL    HW1 2075   1.821   3.038   0.815  1.1796  0.2570 -1.1545
  692SOL    HW2 2076   1.672   3.012   0.897 -1.4187 -1.1492  2.1970
  693SOL     OW 2077   0.199   1.601   2.632 -0.1761  0.9175 -0.2200
  693SOL    HW1 2078   0.285   1.651   2.608  1.2457  1.8784 -0.2352
  693SOL    HW2 2079   0.141   1.576   2.549  0.7030  1.1364 -1.9886
  694SOL     OW 2080   2.223   0.659   1.032 -0.6823 -0.3251 -0.2088
  694SOL    HW1 2081   2.315   0.618   1.058  3.6167 -0.2085 -1.5769
  694SOL    HW2 2082   2.165   0.664   1.115  2.5222 -2.9659  1.6172
  695SOL     OW 2083   0.865   1.185   1.668  0.4634  0.1216 -0.6457
  695SOL    HW1 2084   0.806   1.257   1.708 -0.5795  0.4279  0.4078
  695SOL    HW2 2085   0.908   1.219   1.584 -1.1587  0.6906 -0.7054
  696SOL     OW 2086   1.472   0.024   0.388 -0.1990  0.3428 -0.2355
  696SOL    HW1 2087   1.537   3.118   0.464 -2.7913 -0.3754  0.1923
  696SOL    HW2 2088   1.488   0.123   0.374  0.9016  2.1474  0.4918
  697SOL     OW 2089   0.842   0.226   1.143 -0.6797 -0.4176 -0.2789
  697SOL    HW1 2090   0.807   0.292   1.075 -0.9756 -1.3636 -2.1709
  697SOL    HW2 2091   0.940   0.197   1.123  0.6126  0.3097 -0.4805
  698SOL     OW 2092   1.654   1.646   2.838  0.8320 -0.4447  0.1390
  698SOL    HW1 2093   1.610   1.615   2.753  1.6884  1.6692 -0.2013
  698SOL    HW2 2094   1.709   1.729   2.825 -3.3703 -2.8016 -2.0997
  699SOL     OW 2095   1.160   1.021   1.101  0.4293  0.5449 -0.2712
  699SOL    HW1 2096   1.083   0.993   1.161  1.1403  0.9185 -0.8318
  699SOL    HW2 2097   1.166   0.962   1.024 -1.6796 -0.5906 -0.0759
  700SOL     OW 2098   1.025   2.903   0.577 -0.0998 -0.1026 -0.5869
  700SOL    HW1 2099   1.006   2.936   0.479 -2.8405  0.6195 -1.5288
  700SOL    HW2 2100   1.112   2.942   0.610 -1.8462  1.2179  2.9718
  701SOL     OW 2101   2.663   2.961   2.767 -0.0647 -0.2838 -0.1084
  701SOL    HW1 2102   2.589   2.914   2.818 -5.6850  0.5041 -2.6477
  701SOL    HW2 2103   2.619   3.015   2.688  0.3192 -0.0585 -3.1425
  702SOL     OW 2104   1.027   0.083   0.616 -0.3005 -0.2869 -0.0381
  702SOL    HW1 2105   1.007   3.110   0.595  2.5777 -0.4062  1.4190
  702SOL    HW2 2106   1.130   0.102   0.607  1.2161 -0.1373  0.1325
  703SOL     OW 2107   2.519   0.331   2.146  0.4984  0.2598  0.1437
  703SOL    HW1 2108   2.485   0.411   2.191 -0.2745 -2.7144 -1.9251
  703SOL    HW2 2109   2.620   0.337   2.122 -0.3703  0.3370 -0.5095
  704SOL     OW 2110   3.006   1.600   0.776 -0.6516 -0.1227  0.5562
  704SOL    HW1 2111   2.991   1.551   0.689  1.2170  0.0183  1.6065
  704SOL    HW2 2112   3.067   1.684   0.772 -0.0024  2.3831 -0.5325
  705SOL     OW 2113   3.088   3.011   2.187  0.2152 -0.0827  0.1012
  705SOL    HW1 2114   3.056   3.103   2.160 -1.7370 -3.1524  0.8365
  705SOL    HW2 2115   3.034   2.974   2.265 -2.7410 -1.9096  0.7406
  706SOL     OW 2116   2.493   2.479   0.883  0.4640  0.7823 -0.2764
  706SOL    HW1 2117   2.591   2.445   0.884  1.0449 -1.3391  2.6898
  706SOL    HW2 2118   2.452   2.469   0.791  1.8331  1.1090  1.3192
  707SOL     OW 2119   1.158   2.053   1.564  0.0309  0.1421  0.4338
  707SOL    HW1 2120   1.178   2.115   1.487  1.6782 -0.6931 -1.2538
  707SOL    HW2 2121   1.066   2.017   1.557  1.0417  0.6305  0.6027
  708SOL     OW 2122   0.049   2.555   1.890 -0.0420  0.8497 -0.4980
  708SOL    HW1 2123   0.079   2.592   1.799  1.5371  0.2215 -2.5756
  708SOL    HW2 2124   0.132   2.506   1.938  0.4620 -1.2711  2.9845
  709SOL     OW 2125   2.171   2.914   2.103  0.3684 -0.3404  0.4432
  709SOL    HW1 2126   2.072   2.895   2.104  1.2834 -1.8696 -1.2943
  709SOL    HW2 2127   2.206   2.947   2.012  1.7503  0.3589 -1.6975
  710SOL     OW 2128   1.859   0.863   2.759  0.8277  0.0939  0.2638
  710SOL    HW1 2129   1.951   0.822   2.769 -2.2352 -1.6905  0.4003
  710SOL    HW2 2130   1.860   0.934   2.691 -1.6302 -4.5282 -0.8309
  711SOL     OW 2131   1.117   2.349   0.057 -0.3309 -0.1744 -0.5761
  711SOL    HW1 2132   1.107   2.340   0.161  0.2893  0.6414 -0.0979
  711SOL    HW2 2133   1.026   2.374   0.023 -0.8858  0.9981  1.0387
  712SOL     OW 2134   0.724   2.531   2.741  0.2796  0.3449  0.1681
  712SOL    HW1 2135   0.801   2.503   2.682 -1.2209 -0.5692  1.7213
  712SOL    HW2 2136   0.670   2.609   2.698  0.6545  0.1061  0.0234
  713SOL     OW 2137   1.654   1.426   3.034  0.6608  0.4256  0.5774
  713SOL    HW1 2138   1.664   1.483   2.949  1.6558  0.6854 -1.9482
  713SOL    HW2 2139   1.666   1.482   3.117 -0.1566  0.0207 -1.0938
  714SOL     OW 2140   0.956   1.591   1.470  0.3469  0.8462  0.3088
  714SOL    HW1 2141   0.899   1.556   1.395 -2.1222  1.0213  0.4057
  714SOL    HW2 2142   1.042   1.635   1.436  0.3803 -0.9769  1.6162
  715SOL     OW 2143   1.804   0.547   2.968 -0.2390  0.2297  0.0615
  715SOL    HW1 2144   1.794   0.645   2.977  0.9651 -0.7611  1.2045
  715SOL    HW2 2145   1.892   0.515   2.925 -3.3822  1.5038  0.2843
  716SOL     OW 2146   0.241   2.663   2.280 -0.1053 -0.2156  0.1176
  716SOL    HW1 2147   0.288   2.645   2.370  2.7387 -0.0707 -1.0134
  716SOL    HW2 2148   0.251   2.762   2.258 -0.3176  0.9792  1.6605
  717SOL     OW 2149   2.876   0.567   0.927 -0.2261 -0.0441 -0.0573
  717SOL    HW1 2150   2.834   0.658   0.912  0.6419 -1.9023  0.2274
  717SOL    HW2 2151   2.815   0.509   0.984 -1.3863  1.3173 -1.1817
  718SOL     OW 2152   0.898   1.562   2.556  0.2313  0.2719 -0.1919
  718SOL    HW1 2153   0.879   1.560   2.655  0.9150 -1.0063  0.5673
  718SOL    HW2 2154   0.826   1.511   2.507  1.4498  1.1665  0.1837
  719SOL     OW 2155   2.173   1.117   3.005 -0.5035 -0.3555 -0.5446
  719SOL    HW1 2156   2.103   1.049   3.012  0.0002  1.3748 -0.4310
  719SOL    HW2 2157   2.214   1.117   2.910 -0.6676 -0.2733  0.9063
  720SOL     OW 2158   0.977   0.545   0.969 -0.2167  0.2865 -0.5100
  720SOL    HW1 2159   1.051   0.549   1.036 -0.2787 -2.2299 -0.4184
  720SOL    HW2 2160   0.897   0.499   1.014 -0.1068  2.8959  0.3679
  721SOL     OW 2161   2.526   0.078   0.546 -0.4698 -0.1427  0.1530
  721SOL    HW1 2162   2.582   0.142   0.603 -0.0799  1.7137  0.6159
  721SOL    HW2 2163   2.568   0.066   0.452 -2.1807 -1.6413  0.0895
  722SOL     OW 2164   2.110   0.764   2.799 -0.1656  0.1375 -0.1567
  722SOL    HW1 2165   2.157   0.780   2.711  2.9954  0.0105  0.7030
  722SOL    HW2 2166   2.164   0.701   2.864  1.5494 -1.2137  1.4740
  723SOL     OW 2167   2.317   0.340   0.439 -0.0765  0.1794  0.0149
  723SOL    HW1 2168   2.291   0.246   0.397 -1.4316 -4.6219 -2.7445
  723SOL    HW2 2169   2.341   0.415   0.375 -1.6925  1.5309  0.9473
  724SOL     OW 2170   0.959   1.558   2.103 -0.0177 -0.4422 -0.3661
  724SOL    HW1 2171   0.948   1.459   2.081  0.7484 -0.9099 -3.1841
  724SOL    HW2 2172   0.901   1.606   2.033 -0.8288  0.2119  2.3680
  725SOL     OW 2173   1.689   0.341   1.274  0.0203  0.0389  0.3458
  725SOL    HW1 2174   1.751   0.425   1.270  0.1901  0.5311  2.5818
  725SOL    HW2 2175   1.732   0.275   1.211  1.3672 -2.1965 -1.1879
  726SOL     OW 2176   2.011   2.915   0.292  0.0214 -0.7635 -0.9548
  726SOL    HW1 2177   2.019   2.989   0.363 -0.2075  0.2797  0.5938
  726SOL    HW2 2178   1.979   2.827   0.333  3.2544 -0.2232 -1.3669
  727SOL     OW 2179   1.529   1.568   1.747  0.5826  0.3895 -0.2138
  727SOL    HW1 2180   1.608   1.626   1.715  1.4547  0.2101  0.7988
  727SOL    HW2 2181   1.524   1.479   1.692 -1.1868 -2.4250 -0.1026
  728SOL     OW 2182   2.156   2.601   1.497  0.5210 -0.4316 -0.3673
  728SOL    HW1 2183   2.079   2.533   1.502 -0.8335 -2.3298  0.1491
  728SOL    HW2 2184   2.121   2.683   1.546 -0.6705 -0.1563  0.0684
  729SOL     OW 2185   2.482   1.814   0.734 -0.5570  0.3850 -0.2083
  729SOL    HW1 2186   2.422   1.865   0.667 -1.8603 -2.7542 -1.4707
  729SOL    HW2 2187   2.524   1.737   0.681  0.0659  1.0234  0.7563
  730SOL     OW 2188   0.765   1.095   2.697 -0.0645 -0.0812  0.1411
  730SOL    HW1 2189   0.688   1.145   2.654  2.1387 -0.1413 -1.6149
  730SOL    HW2 2190   0.841   1.154   2.739  1.3603  3.2007 -0.3555
  731SOL     OW 2191   0.207   3.098   0.629  0.2946  0.4692 -0.0739
  731SOL    HW1 2192   0.205   0.066   0.675 -0.7049  0.2099  0.1071
  731SOL    HW2 2193   0.304   3.069   0.614 -0.9009  3.1304 -1.8068
  732SOL     OW 2194   1.518   0.702   0.480 -0.3455  0.2305 -0.1658
  732SOL    HW1 2195   1.567   0.616   0.460 -1.8727  1.2893  0.0335
  732SOL    HW2 2196   1.432   0.687   0.535  0.3156 -1.1105 -0.7077
  733SOL     OW 2197   0.505   2.249   1.086  0.4196  0.7740 -0.0094
  733SOL    HW1 2198   0.565   2.232   1.171  1.1061  2.9727 -2.3453
  733SOL    HW2 2199   0.525   2.185   1.009  0.5083 -1.7469  1.2556
  734SOL     OW 2200   0.237   2.590   0.517 -0.0611  0.1642  0.4115
  734SOL    HW1 2201   0.285   2.631   0.437 -1.0857  0.4940  1.8702
  734SOL    HW2 2202   0.141   2.628   0.514  0.3166  0.5051  0.3716
  735SOL     OW 2203   1.455   0.021   1.164  0.0811 -0.4881  0.4345
  735SOL    HW1 2204   1.360   3.110   1.169 -0.3898  0.2597 -1.8958
  735SOL    HW2 2205   1.485   0.069   1.248 -1.0179  0.4179  0.3907
  736SOL     OW 2206   2.038   2.599   2.991 -0.2568 -0.1151  0.0529
  736SOL    HW1 2207   1.984   2.622   3.074  0.6498  2.1339  0.7550
  736SOL    HW2 2208   1.990   2.539   2.926  1.0285 -1.6395  1.7341
  737SOL     OW 2209   0.120   0.758   0.838  0.0098 -0.1196 -0.0626
  737SOL    HW1 2210   0.076   0.829   0.774 -2.8178  1.1174 -0.2381
  737SOL    HW2 2211   0.160   0.680   0.784 -0.3820  1.3161  0.4241
  738SOL     OW 2212   2.542   2.785   1.980  0.4208  0.3917  0.4080
  738SOL    HW1 2213   2.631   2.767   1.940  0.9585 -1.5348 -1.2565
  738SOL    HW2 2214   2.533   2.749   2.073  0.0320  1.7934 -0.3367
  739SOL     OW 2215   1.496   2.341   3.079  0.5296  0.0643 -0.1103
  739SOL    HW1 2216   1.503   2.259   3.012 -2.0914 -1.7125 -0.9714
  739SOL    HW2 2217   1.483   2.310   0.053  0.4501  2.2846  0.9438
  740SOL     OW 2218   1.576   0.412   1.030 -0.0468 -0.1734  0.2932
  740SOL    HW1 2219   1.616   0.392   1.120 -1.7330 -1.0194 -0.0530
  740SOL    HW2 2220   1.572   0.326   0.977  0.0831  1.0795 -0.6303
  741SOL     OW 2221   2.948   0.676   0.627  0.2093 -0.4360  0.1280
  741SOL    HW1 2222   2.992   0.716   0.544 -1.2461  0.4983 -1.8667
  741SOL    HW2 2223   2.999   0.595   0.668  1.9494 -0.1416 -1.6004
  742SOL     OW 2224   0.869   1.561   2.815 -0.3204 -0.0865 -0.1257
  742SOL    HW1 2225   0.954   1.588   2.863  0.1765  0.5131 -0.5962
  742SOL    HW2 2226   0.793   1.623   2.841 -1.7294 -1.1995  0.9252
  743SOL     OW 2227   1.223   0.613   2.238  0.2173  0.0105  0.8600
  743SOL    HW1 2228   1.204   0.573   2.328  0.8858 -0.3577  1.4650
  743SOL    HW2 2229   1.146   0.667   2.195 -0.5195 -0.1880 -1.4384
  744SOL     OW 2230   2.111   0.656   1.306 -0.1235  0.1680 -0.3291
  744SOL    HW1 2231   2.155   0.747   1.304 -1.3026  0.5541  0.6907
  744SOL    HW2 2232   2.104   0.631   1.402  0.4704  1.9669 -2.6562
  745SOL     OW 2233   1.235   1.338   1.518  0.5790 -0.4333 -0.4684
  745SOL    HW1 2234   1.233   1.412   1.591 -0.3489 -1.7979  2.9908
  745SOL    HW2 2235   1.145   1.325   1.469 -1.3913  0.2246  0.3163
  746SOL     OW 2236   2.236   1.460   0.936 -0.0865  0.4152 -0.7773
  746SOL    HW1 2237   2.325   1.487   0.904  1.1103 -0.9950  1.7862
  746SOL    HW2 2238   2.182   1.402   0.870 -1.8812 -1.6434 -0.4234
  747SOL     OW 2239   2.523   1.497   0.971 -0.4373  0.1164 -0.0376
  747SOL    HW1 2240   2.619   1.528   0.957 -2.5494 -0.0411 -1.4543
  747SOL    HW2 2241   2.464   1.581   0.988  0.3143 -0.8951 -1.1529
  748SOL     OW 2242   0.811   2.028   0.883 -0.0022  0.4951  0.6925
  748SOL    HW1 2243   0.805   2.131   0.875  2.5734 -0.3717  0.7221
  748SOL    HW2 2244   0.905   1.990   0.906 -1.4686 -0.1782  2.3916
  749SOL     OW 2245   2.586   2.712   2.248 -0.1346  0.0436 -0.3091
  749SOL    HW1 2246   2.666   2.643   2.260  2.3208 -2.3616  2.1770
  749SOL    HW2 2247   2.616   2.805   2.276  1.2530  1.4762  2.6996
  750SOL     OW 2248   2.277   0.470   0.686  0.4587 -0.4800 -0.4036
  750SOL    HW1 2249   2.290   0.432   0.589  0.5936 -0.1661  0.1697
  750SOL    HW2 2250   2.204   0.541   0.687  0.0493 -1.5520 -0.9081
  751SOL     OW 2251   2.469   2.784   0.356  0.2986 -0.3346 -0.1228
  751SOL    HW1 2252   2.559   2.738   0.374 -3.6867  0.4499 -0.9238
  751SOL    HW2 2253   2.404   2.718   0.308  1.9925 -1.3601 -0.5854
  752SOL     OW 2254   3.072   3.023   0.772  0.0063  0.2756  0.5884
  752SOL    HW1 2255   3.027   2.934   0.783 -0.1792  0.0531  1.7339
  752SOL    HW2 2256   0.039   3.012   0.730  0.1185 -0.6067 -1.1926
  753SOL     OW 2257   1.797   1.078   2.338  0.8311 -0.7898 -0.2001
  753SOL    HW1 2258   1.749   1.150   2.283  0.3177  2.0874  0.1984
  753SOL    HW2 2259   1.744   0.997   2.341  2.8790  0.8609  1.7206
  754SOL     OW 2260   1.588   2.085   1.653  0.6681 -0.1050  0.0937
  754SOL    HW1 2261   1.543   2.060   1.746 -0.4742 -2.5841  2.4626
  754SOL    HW2 2262   1.602   2.010   1.587  2.2001  0.6411  0.5156
  755SOL     OW 2263   2.558   0.745   0.860 -0.3718  0.3459 -0.0770
  755SOL    HW1 2264   2.549   0.644   0.841 -2.4280 -1.4917 -1.3136
  755SOL    HW2 2265   2.475   0.802   0.845  1.4665  0.2428  1.8624
  756SOL     OW 2266   1.070   1.525   3.018  0.7005  0.0953 -0.1008
  756SOL    HW1 2267   1.143   1.492   2.954  0.4640 -0.2090 -1.4359
  756SOL    HW2 2268   1.115   1.585   3.084  0.5249 -2.6705  0.3130
  757SOL     OW 2269   1.432   2.577   0.788 -0.6794  0.5998 -0.0591
  757SOL    HW1 2270   1.433   2.676   0.769  2.7491 -1.4555 -2.1605
  757SOL    HW2 2271   1.494   2.525   0.726 -0.2050 -2.5387 -1.4149
  758SOL     OW 2272   1.288   2.676   1.512 -0.2566 -0.0161  0.0040
  758SOL    HW1 2273   1.353   2.723   1.570  1.7397 -0.4483  0.3862
  758SOL    HW2 2274   1.220   2.620   1.563  2.1732  1.2813 -1.5392
  759SOL     OW 2275   0.175   0.545   0.664 -0.0287  0.2940 -0.1848
  759SOL    HW1 2276   0.091   0.497   0.690  0.7242  0.8189  0.3995
  759SOL    HW2 2277   0.157   0.592   0.578 -0.8418  0.4883  0.7606
  760SOL     OW 2278   2.417   1.134   1.137  0.4866  0.0880  0.3604
  760SOL    HW1 2279   2.483   1.055   1.125  1.6456 -0.2006 -1.7600
  760SOL    HW2 2280   2.458   1.219   1.177 -0.1923  2.0755  0.5529
  761SOL     OW 2281   1.939   0.025   0.441  0.4664  0.1151 -0.0833
  761SOL    HW1 2282   1.851   3.110   0.466  1.3201  2.0133  0.0441
  761SOL    HW2 2283   1.973   0.070   0.524  0.5561 -0.2344 -2.2053
  762SOL     OW 2284   2.151   1.783   0.074 -1.0519  0.3289  0.0558
  762SOL    HW1 2285   2.219   1.719   0.103 -0.3545 -1.0810  1.1117
  762SOL    HW2 2286   2.197   1.869   0.042  2.6440  2.1220 -2.2119
  763SOL     OW 2287   0.647   1.956   1.670  0.5144  0.2591 -0.1093
  763SOL    HW1 2288   0.739   1.936   1.627  2.0517  0.8294 -1.0267
  763SOL    HW2 2289   0.586   1.873   1.666  0.7172 -0.6428 -0.4275
  764SOL     OW 2290   2.793   2.178   2.638 -0.3354  0.1465  0.0639
  764SOL    HW1 2291   2.867   2.186   2.710 -1.7066  0.7700 -0.7610
  764SOL    HW2 2292   2.710   2.227   2.665  0.0033 -0.5564 -1.9529
  765SOL     OW 2293   0.532   2.591   1.192 -0.4624  0.6979 -0.1344
  765SOL    HW1 2294   0.603   2.638   1.138 -0.2180 -0.4739  3.3692
  765SOL    HW2 2295   0.471   2.531   1.129  0.1126 -1.9240 -2.2078
  766SOL     OW 2296   0.102   2.149   2.450 -0.0775 -0.0688 -0.6082
  766SOL    HW1 2297   0.144   2.174   2.542 -1.3690 -0.0344  1.6742
  766SOL    HW2 2298   0.137   2.202   2.371  0.5426 -0.8173  1.4273
  767SOL     OW 2299   2.199   0.792   2.534  0.6265  0.5187  0.1796
  767SOL    HW1 2300   2.206   0.889   2.545 -1.8706 -2.7068  1.0564
  767SOL    HW2 2301   2.256   0.761   2.454  1.8277  0.4158  0.4393
  768SOL     OW 2302   1.458   0.248   2.611 -0.0942 -0.2043  0.0582
  768SOL    HW1 2303   1.435   0.321   2.545 -1.4715 -2.1765  2.3553
  768SOL    HW2 2304   1.390   0.238   2.682  1.5138  0.7671 -0.2892
  769SOL     OW 2305   3.117   2.483   0.973  0.2213  0.2510 -0.1793
  769SOL    HW1 2306   0.075   2.520   0.918 -1.3166  2.2784 -0.2235
  769SOL    HW2 2307   0.029   2.463   1.066 -1.4343 -2.5220 -0.8127
  770SOL     OW 2308   0.577   0.327   2.967  0.7360 -0.0824  0.2386
  770SOL    HW1 2309   0.581   0.399   3.036  1.6362 -0.8989 -2.8834
  770SOL    HW2 2310   0.546   0.235   2.997  0.7029 -0.2043  1.9743
  771SOL     OW 2311   1.320   1.767   2.532  0.3787 -0.0853  0.2509
  771SOL    HW1 2312   1.324   1.662   2.530  1.8996  0.4828 -1.0616
  771SOL    HW2 2313   1.284   1.811   2.450 -0.3009 -0.2549  1.6136
  772SOL     OW 2314   1.908   2.858   2.136 -0.0145 -0.0875  0.0582
  772SOL    HW1 2315   1.888   2.913   2.217  3.1774 -1.2614 -0.6289
  772SOL    HW2 2316   1.857   2.888   2.059 -0.3205 -0.2771  2.4231
  773SOL     OW 2317   1.752   0.717   1.482  0.5832 -0.2403  0.1157
  773SOL    HW1 2318   1.661   0.714   1.437  1.6432 -2.3132  0.4983
  773SOL    HW2 2319   1.752   0.648   1.557  2.1048 -0.8059 -2.1119
  774SOL     OW 2320   1.137   0.419   1.180  0.7029 -0.1772 -0.5315
  774SOL    HW1 2321   1.236   0.431   1.178  1.5512 -1.7598  0.3913
  774SOL    HW2 2322   1.092   0.477   1.253  1.4376  1.1426  2.1601
  775SOL     OW 2323   2.095   2.917   2.969  0.3946  0.3164  0.5005
  775SOL    HW1 2324   2.004   2.865   2.976  0.0867  0.0620  0.5580
  775SOL    HW2 2325   2.132   2.912   2.876 -0.8565  0.1821  1.4074
  776SOL     OW 2326   2.077   0.615   1.587 -0.6430  0.2644  0.5182
  776SOL    HW1 2327   1.983   0.596   1.612  0.9937  0.1425  1.3444
  776SOL    HW2 2328   2.117   0.666   1.667 -3.6068  2.3379 -0.9308
  777SOL     OW 2329   3.095   1.398   2.222 -0.3440 -0.1498 -0.2258
  777SOL    HW1 2330   3.102   1.420   2.321  0.8138 -0.5881  0.1935
  777SOL    HW2 2331   3.000   1.424   2.190  0.0453  2.8825 -1.2911
  778SOL     OW 2332   2.896   1.242   2.454 -0.0108  0.3560  0.2383
  778SOL    HW1 2333   2.988   1.264   2.478 -2.5174 -0.0889 -0.5133
  778SOL    HW2 2334   2.842   1.324   2.478  0.3139 -0.9643  2.1673
  779SOL     OW 2335   0.035   0.674   2.997 -0.3596 -0.3676  0.3967
  779SOL    HW1 2336   0.064   0.597   2.938 -1.4138  2.3976  1.9465
  779SOL    HW2 2337   3.089   0.655   3.061  3.6980  0.1582 -2.0688
  780SOL     OW 2338   2.405   2.115   2.363 -0.0983  0.0136 -0.1768
  780SOL    HW1 2339   2.480   2.182   2.347 -0.1451 -0.4401 -3.1716
  780SOL    HW2 2340   2.352   2.113   2.278 -1.0107  0.8495 -0.5942
  781SOL     OW 2341   2.823   1.149   1.840  0.1848  0.5073 -0.2241
  781SOL    HW1 2342   2.862   1.240   1.820 -1.1810 -0.4558 -0.2114
  781SOL    HW2 2343   2.784   1.108   1.756 -1.1266 -0.8277 -0.6377
  782SOL     OW 2344   1.260   2.217   2.738 -0.3713  0.1398  0.6505
  782SOL    HW1 2345   1.325   2.163   2.688 -0.9247  0.1926  1.8378
  782SOL    HW2 2346   1.219   2.162   2.814 -0.5915 -0.8359  1.3705
  783SOL     OW 2347   0.995   2.431   1.040  0.0628  0.3545  0.6326
  783SOL    HW1 2348   1.086   2.409   0.994 -1.9377  1.6596 -1.3878
  783SOL    HW2 2349   0.962   2.522   1.008 -1.1757 -0.0290  3.0233
  784SOL     OW 2350   2.084   0.616   2.211  0.1102  0.0153 -0.1184
  784SOL    HW1 2351   2.044   0.609   2.306  1.7920 -0.3558 -0.4267
  784SOL    HW2 2352   2.103   0.521   2.175 -1.0033  1.3993 -0.4051
  785SOL     OW 2353   2.969   0.129   1.663 -0.2234 -0.2669 -0.4035
  785SOL    HW1 2354   2.907   0.209   1.676 -0.9749 -0.2660 -0.0464
  785SOL    HW2 2355   2.954   0.066   1.739  0.7300  1.8772 -0.5589
  786SOL     OW 2356   1.435   2.238   0.207 -0.1679 -0.4982  0.1508
  786SOL    HW1 2357   1.420   2.142   0.241 -0.8520 -0.6250 -1.2035
  786SOL    HW2 2358   1.384   2.301   0.271 -0.3743 -0.2150 -0.1523
  787SOL     OW 2359   1.110   3.061   0.947 -0.3784 -0.1033 -0.3973
  787SOL    HW1 2360   1.016   3.036   0.918  0.8783 -0.7463 -0.8705
  787SOL    HW2 2361   1.101   0.035   0.987 -1.6874  2.9840  1.6824
  788SOL     OW 2362   0.026   1.123   0.898  0.5334  0.6676  0.0576
  788SOL    HW1 2363   0.050   1.224   0.875 -0.7578  4.6890  1.2968
  788SOL    HW2 2364   0.040   1.053   0.823  0.4805  1.9620 -0.7587
  789SOL     OW 2365   2.524   1.140   2.390  0.3719  0.2229  0.4240
  789SOL    HW1 2366   2.439   1.092   2.374  2.4379  1.3930 -0.1283
  789SOL    HW2 2367   2.606   1.072   2.385  1.7860 -0.5906 -1.6537
  790SOL     OW 2368   1.143   0.516   2.867 -0.3275  0.2740 -0.3159
  790SOL    HW1 2369   1.130   0.468   2.776 -1.8162 -0.1960 -4.5126
  790SOL    HW2 2370   1.054   0.501   2.924 -2.2976 -1.8345 -0.5369
  791SOL     OW 2371   0.160   2.875   0.240 -0.0316  0.8890  0.0552
  791SOL    HW1 2372   0.180   2.974   0.259 -1.6545 -2.3283  0.7023
  791SOL    HW2 2373   0.233   2.821   0.280 -0.9131  1.7879 -0.4616
  792SOL     OW 2374   1.491   0.987   1.802 -0.2649  0.3093  0.1918
  792SOL    HW1 2375   1.487   1.011   1.901 -0.1685 -0.4344  0.8457
  792SOL    HW2 2376   1.407   1.011   1.752  2.7480 -0.6313  0.9276
  793SOL     OW 2377   2.852   0.203   0.983  0.0541 -0.1795 -0.1345
  793SOL    HW1 2378   2.945   0.181   0.940 -0.7913  1.1496  0.3380
  793SOL    HW2 2379   2.859   0.282   1.052  0.6260  0.0128  0.8767
  794SOL     OW 2380   0.153   0.263   2.184  0.4617  0.3102 -0.8527
  794SOL    HW1 2381   0.223   0.194   2.206 -0.9833 -0.2547  0.9622
  794SOL    HW2 2382   0.118   0.249   2.090 -0.0257 -0.8395 -0.2236
  795SOL     OW 2383   0.651   1.675   0.317  0.2188  0.0255 -0.3691
  795SOL    HW1 2384   0.707   1.669   0.234 -1.9677 -1.0572  2.2559
  795SOL    HW2 2385   0.578   1.750   0.312 -0.9150 -0.0520 -1.3475
  796SOL     OW 2386   0.057   0.898   2.850 -0.9459  0.0170 -0.3732
  796SOL    HW1 2387   0.067   0.819   2.914 -0.0829  0.0269  0.4299
  796SOL    HW2 2388   3.093   0.886   2.804 -0.3940 -2.1973  1.6817
  797SOL     OW 2389   2.219   0.016   2.270 -0.2317 -0.6513 -0.5348
  797SOL    HW1 2390   2.176   3.071   2.213  0.0670  4.2480  2.3095
  797SOL    HW2 2391   2.318   0.015   2.245 -0.1858 -0.7224  0.5409
  798SOL     OW 2392   0.037   3.023   1.316  0.5608 -0.0151 -0.6183
  798SOL    HW1 2393   3.109   2.973   1.243 -3.0526  2.3434 -1.0165
  798SOL    HW2 2394   3.099   3.023   1.396  0.3539  0.0583  0.3198
  799SOL     OW 2395   2.836   0.801   1.739  0.3690 -0.1434 -0.3960
  799SOL    HW1 2396   2.872   0.750   1.660  0.9938 -0.2651 -1.1345
  799SOL    HW2 2397   2.748   0.846   1.715 -0.0521 -0.8885 -2.3960
  800SOL     OW 2398   0.429   1.159   0.458  0.7383  0.3653 -0.0179
  800SOL    HW1 2399   0.437   1.250   0.416 -0.2767 -1.7741  0.7034
  800SOL    HW2 2400   0.527   1.135   0.478  0.1373  1.2726  0.5193
  801SOL     OW 2401   1.958   1.646   0.463 -0.1244  0.1006 -0.4437
  801SOL    HW1 2402   1.992   1.721   0.524  0.2063 -0.5249  1.5520
  801SOL    HW2 2403   1.858   1.620   0.469 -3.1794 -0.6328 -2.4140
  802SOL     OW 2404   1.249   0.900   2.801  0.3626 -0.7895 -0.2472
  802SOL    HW1 2405   1.262   0.935   2.706 -0.0814 -0.6888 -0.5846
  802SOL    HW2 2406   1.322   0.938   2.860  2.2039  0.2838 -0.4833
  803SOL     OW 2407   1.057   1.741   1.773 -0.2487  0.2109 -0.0914
  803SOL    HW1 2408   1.093   1.764   1.867  1.3973  1.7801 -0.0188
  803SOL    HW2 2409   1.106   1.657   1.736 -2.8985  1.2493 -0.3494
  804SOL     OW 2410   1.641   2.296   0.848  0.2405  0.7479  0.3667
  804SOL    HW1 2411   1.730   2.248   0.856  1.6478 -1.0346 -1.7402
  804SOL    HW2 2412   1.650   2.362   0.775  1.7314 -1.6525  0.1207
  805SOL     OW 2413   3.039   2.469   2.440  0.4088 -0.1214  0.5698
  805SOL    HW1 2414   3.042   2.369   2.433  0.4852  1.0416 -3.5178
  805SOL    HW2 2415   3.060   2.507   2.345 -0.9365  0.5086  1.5660
  806SOL     OW 2416   2.924   3.066   0.416  0.3007 -0.0199 -0.2258
  806SOL    HW1 2417   2.894   3.069   0.512 -1.0556  0.0627 -1.4110
  806SOL    HW2 2418   2.975   2.978   0.403  2.1394  1.9253  1.5187
  807SOL     OW 2419   2.406   0.877   2.893  0.3247 -0.4590 -0.3177
  807SOL    HW1 2420   2.455   0.814   2.828 -1.3690 -0.5341 -2.1075
  807SOL    HW2 2421   2.370   0.822   2.968  1.2222  0.4413 -0.4550
  808SOL     OW 2422   1.213   2.475   0.630 -0.2778  0.0435  0.1775
  808SOL    HW1 2423   1.282   2.505   0.700  2.5001 -1.1028  2.0026
  808SOL    HW2 2424   1.126   2.449   0.671  0.6682 -0.4187  0.4658
  809SOL     OW 2425   2.776   0.165   2.665  0.7457  0.7148  0.2141
  809SOL    HW1 2426   2.860   0.110   2.683 -0.9085  0.5530 -1.8215
  809SOL    HW2 2427   2.773   0.217   2.578 -1.7810 -4.0229 -0.5260
  810SOL     OW 2428   1.281   1.063   0.732 -0.1369  0.4330 -0.0515
  810SOL    HW1 2429   1.282   1.157   0.694  1.1196 -0.6964 -0.7640
  810SOL    HW2 2430   1.225   1.001   0.671  0.3141 -2.0636  0.1953
  811SOL     OW 2431   1.807   2.953   1.469  0.6335  0.0467 -0.1722
  811SOL    HW1 2432   1.805   3.009   1.384  0.6234  0.8343 -1.2329
  811SOL    HW2 2433   1.739   2.877   1.465 -0.2180 -0.5713 -0.9794
  812SOL     OW 2434   1.547   2.995   0.175 -0.2048 -0.2954 -0.3032
  812SOL    HW1 2435   1.525   3.035   0.268  0.5306  0.2874 -1.0142
  812SOL    HW2 2436   1.511   2.898   0.163  1.2784 -2.1579 -1.6266
  813SOL     OW 2437   1.291   0.409   2.063 -0.1659  0.7297 -0.1361
  813SOL    HW1 2438   1.267   0.476   2.130  3.4553 -3.1188 -4.2737
  813SOL    HW2 2439   1.346   0.332   2.106  2.0045 -1.1658 -2.1601
  814SOL     OW 2440   0.271   0.023   1.183  0.0028  0.4634  0.0995
  814SOL    HW1 2441   0.196   3.091   1.229 -0.5740  1.5153  0.1821
  814SOL    HW2 2442   0.358   0.014   1.231 -3.5333 -0.9542 -2.0124
  815SOL     OW 2443   0.248   2.900   1.005 -0.3274 -0.2581 -0.1522
  815SOL    HW1 2444   0.256   3.001   1.013 -0.6853  0.2003  3.3046
  815SOL    HW2 2445   0.301   2.869   0.924 -1.5573  1.4419 -1.0731
  816SOL     OW 2446   2.770   1.647   2.673 -0.2957  0.7198  0.5708
  816SOL    HW1 2447   2.704   1.722   2.647  1.4110 -0.8190 -0.1834
  816SOL    HW2 2448   2.845   1.683   2.725  0.7553  0.1621 -1.2062
  817SOL     OW 2449   1.355   0.127   3.060 -0.2762 -0.1345  0.5596
  817SOL    HW1 2450   1.425   0.192   3.095 -0.8545 -2.3380 -0.1824
  817SOL    HW2 2451   1.371   0.029   3.086  1.6045  0.3830  0.7232
  818SOL     OW 2452   1.681   0.970   0.149  0.1513  0.0083  0.3071
  818SOL    HW1 2453   1.705   0.870   0.142  0.3867  2.5243 -0.0365
  818SOL    HW2 2454   1.685   1.005   0.243  0.0016  0.0659 -1.9734
  819SOL     OW 2455   1.808   2.740   2.626 -0.0258  0.5514  0.0984
  819SOL    HW1 2456   1.741   2.804   2.592 -1.9810  2.6711  2.3123
  819SOL    HW2 2457   1.887   2.747   2.562 -0.2469  1.3934 -2.8610
  820SOL     OW 2458   1.423   1.026   0.060  0.0155 -0.0123 -0.0051
  820SOL    HW1 2459   1.521   1.037   0.084  0.7240  0.5376  2.2686
  820SOL    HW2 2460   1.377   1.023   0.151 -0.2057  1.3079 -0.4425
  821SOL     OW 2461   0.305   0.570   1.395 -0.1445 -0.4164 -0.2506
  821SOL    HW1 2462   0.344   0.655   1.434 -0.4516 -0.7968  0.7635
  821SOL    HW2 2463   0.281   0.588   1.295 -0.7435  1.9467  0.8961
  822SOL     OW 2464   1.245   2.593   2.181  0.4218 -0.0694 -0.4587
  822SOL    HW1 2465   1.340   2.620   2.171  0.5504  0.5781 -1.2400
  822SOL    HW2 2466   1.233   2.521   2.254  1.4622 -2.7244 -0.6241
  823SOL     OW 2467   0.674   1.300   2.132 -0.0048  0.4034 -0.0680
  823SOL    HW1 2468   0.754   1.327   2.082 -2.3756 -0.2785  1.7168
  823SOL    HW2 2469   0.696   1.219   2.187  0.6868 -0.5004  0.4910
  824SOL     OW 2470   2.075   2.960   1.799 -0.1967 -0.3567  0.1067
  824SOL    HW1 2471   2.069   2.890   1.724 -1.4597  1.2189 -1.5631
  824SOL    HW2 2472   2.113   3.046   1.762 -0.5835  1.0136 -0.5629
  825SOL     OW 2473   0.891   1.430   0.290  0.2435 -0.2521  0.8233
  825SOL    HW1 2474   0.938   1.520   0.312 -0.9420  0.8220  1.0014
  825SOL    HW2 2475   0.871   1.414   0.191 -2.5012 -1.5004 -0.9183
  826SOL     OW 2476   1.997   0.628   2.477  0.3713  0.4180 -0.5344
  826SOL    HW1 2477   2.042   0.705   2.520  0.4577 -1.5325 -0.5447
  826SOL    HW2 2478   2.031   0.547   2.526  0.6375 -1.8500 -1.7430
  827SOL     OW 2479   0.483   2.220   2.907  0.4580  0.2093 -0.2287
  827SOL    HW1 2480   0.544   2.297   2.932 -1.6353 -0.1613  3.2665
  827SOL    HW2 2481   0.480   2.204   2.807  2.6484  0.0361  1.2026
  828SOL     OW 2482   2.763   0.108   1.366  0.2879  0.3135  0.2380
  828SOL    HW1 2483   2.690   0.172   1.347  2.1280 -0.2018 -0.8710
  828SOL    HW2 2484   2.848   0.162   1.360 -0.9669  1.2481  1.8304
  829SOL     OW 2485   1.032   1.539   1.111 -0.0454 -0.6418  0.2140
  829SOL    HW1 2486   1.082   1.578   1.192 -0.5408 -0.8771  1.2225
  829SOL    HW2 2487   1.092   1.466   1.074 -0.3206  1.2394  1.2317
  830SOL     OW 2488   0.437   1.307   1.809 -0.1295  0.4694  0.3592
  830SOL    HW1 2489   0.364   1.346   1.865 -0.0299 -2.1097 -0.6394
  830SOL    HW2 2490   0.410   1.215   1.774  2.2708 -0.3859  1.4118
  831SOL     OW 2491   0.472   1.863   0.265 -0.3634  0.4224 -0.0571
  831SOL    HW1 2492   0.420   1.837   0.181 -1.1233  1.7600  3.7924
  831SOL    HW2 2493   0.513   1.957   0.252  0.6599 -2.3511  1.7966
  832SOL     OW 2494   0.953   0.070   2.848  0.4902 -0.0572  0.7041
  832SOL    HW1 2495   0.928   0.029   2.940 -0.7010 -1.8296 -0.4566
  832SOL    HW2 2496   0.880   0.128   2.810 -1.1510 -1.9900  1.7467
  833SOL     OW 2497   0.034   0.617   1.872 -0.3631  0.3518  0.1269
  833SOL    HW1 2498   0.065   0.651   1.782 -0.2994 -1.9265  1.0495
  833SOL    HW2 2499   3.107   0.695   1.918 -0.4424  1.2805  0.5005
  834SOL     OW 2500   3.119   0.679   1.100  0.2331  0.8494  0.4908
  834SOL    HW1 2501   0.025   0.709   1.006 -0.9244 -1.6150  2.8512
  834SOL    HW2 2502   3.043   0.607   1.085 -1.3282  0.7959  0.8715
  835SOL     OW 2503   2.741   2.830   1.091  0.3508  0.3000  0.0885
  835SOL    HW1 2504   2.767   2.926   1.082  0.6369 -3.7414 -0.2728
  835SOL    HW2 2505   2.743   2.802   1.188  0.1880  0.4888 -0.2221
  836SOL     OW 2506   0.577   2.036   3.056  0.1042  0.0866 -0.3587
  836SOL    HW1 2507   0.588   2.063   0.028  1.9718 -0.2858  1.6013
  836SOL    HW2 2508   0.536   2.112   3.004  0.2127 -1.7072 -3.8054
  837SOL     OW 2509   1.880   2.197   3.104  0.0065 -0.1327 -0.3438
  837SOL    HW1 2510   1.874   2.259   3.022  1.0540  1.5460 -1.0955
  837SOL    HW2 2511   1.973   2.197   0.025 -2.1436 -0.5244 -1.0347
  838SOL     OW 2512   2.648   1.260   2.153 -0.8939 -0.2525  0.0151
  838SOL    HW1 2513   2.596   1.237   2.239  1.5302 -1.4932  0.7941
  838SOL    HW2 2514   2.708   1.179   2.128 -1.6903  1.2892  1.1736
  839SOL     OW 2515   1.101   0.964   0.524  0.3021  0.6136 -0.0569
  839SOL    HW1 2516   1.037   0.895   0.553 -0.5660  1.2012 -0.7855
  839SOL    HW2 2517   1.046   1.051   0.502 -0.9666 -0.0972  1.7690
  840SOL     OW 2518   1.894   0.634   0.891  0.2402  0.5850  0.2058
  840SOL    HW1 2519   1.946   0.652   0.808 -1.4345 -0.0971  2.8828
  840SOL    HW2 2520   1.799   0.659   0.880 -0.8110 -1.5865  0.6562
  841SOL     OW 2521   0.607   2.922   0.908  0.0346 -0.2569  0.3470
  841SOL    HW1 2522   0.620   2.988   0.986 -1.7367  1.8826  1.7249
  841SOL    HW2 2523   0.694   2.918   0.857  1.1446 -0.5177  0.6498
  842SOL     OW 2524   0.506   0.473   0.231  0.4025 -0.1320  0.2738
  842SOL    HW1 2525   0.590   0.489   0.172  0.3394  1.3219 -2.5069
  842SOL    HW2 2526   0.428   0.524   0.194  5.4254  1.9953 -2.0890
  843SOL     OW 2527   0.419   0.531   1.773  0.2849  0.0282 -0.2052
  843SOL    HW1 2528   0.453   0.628   1.784  0.5873  0.4919 -1.3824
  843SOL    HW2 2529   0.336   0.515   1.828  0.0814  0.6798 -2.1076
  844SOL     OW 2530   1.623   2.596   3.086 -0.0157 -0.6316  0.0937
  844SOL    HW1 2531   1.649   2.646   3.002 -1.3575 -1.4073  0.9866
  844SOL    HW2 2532   1.590   2.506   3.057  0.0115 -1.3967 -2.0291
  845SOL     OW 2533   2.825   2.554   2.224 -0.0902  0.2341 -0.4536
  845SOL    HW1 2534   2.872   2.545   2.132  0.4171 -1.3629  0.2640
  845SOL    HW2 2535   2.890   2.574   2.304  1.5509  0.1913  1.0447
  846SOL     OW 2536   1.629   2.006   2.799 -0.1839  0.2946 -0.2457
  846SOL    HW1 2537   1.573   2.023   2.882  0.9556  1.6585  1.2351
  846SOL    HW2 2538   1.721   1.964   2.817 -1.3598  0.3088 -0.4689
  847SOL     OW 2539   2.309   2.786   2.350 -0.4625  0.4165  0.8124
  847SOL    HW1 2540   2.409   2.773   2.353  2.3592  1.4801 -1.0572
  847SOL    HW2 2541   2.287   2.873   2.303  1.2847 -0.6188  0.0870
  848SOL     OW 2542   0.603   0.136   0.407 -0.0952 -0.3442 -0.7602
  848SOL    HW1 2543   0.520   0.187   0.378 -2.8709  0.5533  2.3019
  848SOL    HW2 2544   0.680   0.201   0.433 -0.3546 -0.9287  0.7059
  849SOL     OW 2545   0.679   2.916   1.453 -0.2024  0.2448  0.4463
  849SOL    HW1 2546   0.723   2.852   1.384  1.3460  0.9691  1.2669
  849SOL    HW2 2547   0.746   2.955   1.519 -0.3920 -2.0242  0.0302
  850SOL     OW 2548   0.160   1.548   0.364 -0.9204  0.3115  0.5950
  850SOL    HW1 2549   0.141   1.545   0.260 -2.8808  0.4487 -0.9475
  850SOL    HW2 2550   0.101   1.482   0.415 -0.1484  2.9966 -3.0078
  851SOL     OW 2551   0.082   0.446   2.821  0.1315 -0.2246 -0.5754
  851SOL    HW1 2552   0.181   0.418   2.825  1.6928  1.2350 -1.0487
  851SOL    HW2 2553   0.045   0.455   2.727  1.9719 -0.0063  2.0623
  852SOL     OW 2554   1.460   1.973   1.877  0.3882  0.4486 -0.0687
  852SOL    HW1 2555   1.454   1.873   1.897  1.7705 -1.0415  1.5233
  852SOL    HW2 2556   1.393   2.020   1.937 -0.4631  0.2526  2.9560
  853SOL     OW 2557   0.754   1.964   0.627  0.2787  0.7546 -0.0984
  853SOL    HW1 2558   0.764   1.970   0.727 -0.3171 -0.2941  0.5530
  853SOL    HW2 2559   0.753   2.059   0.583 -0.1204  2.1681 -0.2699
  854SOL     OW 2560   1.613   1.118   1.431  1.1774  0.0160 -0.0623
  854SOL    HW1 2561   1.575   1.166   1.349 -3.4142 -0.9270 -0.5888
  854SOL    HW2 2562   1.658   1.032   1.406  2.2112 -0.2810  3.6039
  855SOL     OW 2563   0.581   2.085   0.211  0.5708  0.4537 -0.4943
  855SOL    HW1 2564   0.681   2.099   0.202  0.9975  1.4788 -0.1192
  855SOL    HW2 2565   0.531   2.168   0.243 -0.9348 -1.9913  0.0799
  856SOL     OW 2566   2.906   3.098   1.899 -0.1167  0.1286 -0.1654
  856SOL    HW1 2567   2.960   3.020   1.920 -2.5960  0.9987 -1.6397
  856SOL    HW2 2568   2.928   0.052   1.963  0.1358  1.5770 -0.5290
  857SOL     OW 2569   0.179   0.187   1.919  0.3058  0.3513 -0.0986
  857SOL    HW1 2570   0.133   0.205   1.830 -1.5977 -0.1450 -0.8676
  857SOL    HW2 2571   0.248   0.257   1.946 -1.5043  0.5579  1.6545
  858SOL     OW 2572   2.963   2.056   2.148 -0.2965  0.9962 -0.9077
  858SOL    HW1 2573   2.907   1.974   2.125 -0.4626  3.0366  0.7459
  858SOL    HW2 2574   2.959   2.077   2.251 -1.6402  0.3578  1.4522
  859SOL     OW 2575   2.183   2.901   0.673  0.1929 -0.0407 -0.0477
  859SOL    HW1 2576   2.230   2.941   0.592  0.2282  0.3892 -1.2797
  859SOL    HW2 2577   2.183   2.801   0.661  1.5944  0.4774  3.0597
  860SOL     OW 2578   1.910   0.393   0.077  0.6095  0.0095 -0.3872
  860SOL    HW1 2579   1.907   0.304   0.028  1.2810 -0.7657 -2.2176
  860SOL    HW2 2580   1.894   0.470   0.010 -3.5582  2.0315 -0.6456
  861SOL     OW 2581   0.414   0.419   0.743  0.6327  0.4684  0.0031
  861SOL    HW1 2582   0.352   0.479   0.697  1.2114 -0.9776  0.3426
  861SOL    HW2 2583   0.426   0.451   0.841 -0.4791 -3.5834 -0.3468
  862SOL     OW 2584   2.254   0.412   1.511 -0.5691  0.1446 -0.0723
  862SOL    HW1 2585   2.200   0.346   1.454  0.4986  1.0822 -3.9456
  862SOL    HW2 2586   2.186   0.483   1.541  1.9107 -0.5897  2.6872
  863SOL     OW 2587   0.457   1.470   1.165  0.5877  0.3696 -0.9791
  863SOL    HW1 2588   0.508   1.551   1.204  0.2186 -2.2241  1.5309
  863SOL    HW2 2589   0.443   1.397   1.235  1.0037 -1.6593  1.0775
  864SOL     OW 2590   2.458   3.031   1.961 -0.1250 -0.0809 -0.2794
  864SOL    HW1 2591   2.445   3.059   1.862  3.2980 -0.2803 -0.9631
  864SOL    HW2 2592   2.487   2.932   1.961 -0.3933  0.7312 -1.8555
  865SOL     OW 2593   1.527   0.379   1.673 -0.1249  0.6645 -0.1110
  865SOL    HW1 2594   1.563   0.284   1.696  0.1550  0.3589 -0.3572
  865SOL    HW2 2595   1.474   0.417   1.750 -1.9303  0.1367  2.3328
  866SOL     OW 2596   2.691   2.789   0.671 -0.2135  0.2462 -0.4877
  866SOL    HW1 2597   2.767   2.791   0.740  0.9447 -1.1435 -0.9844
  866SOL    HW2 2598   2.599   2.823   0.712  0.0335  0.7333 -0.3526
  867SOL     OW 2599   2.611   2.404   0.608 -0.4411  0.0546 -0.2037
  867SOL    HW1 2600   2.670   2.403   0.690  3.3776  0.6238  0.5689
  867SOL    HW2 2601   2.636   2.482   0.546  0.7251 -1.7662 -3.7448
  868SOL     OW 2602   1.427   2.008   2.630  0.1602  0.2406  0.0041
  868SOL    HW1 2603   1.400   1.911   2.610  0.9082  1.9923  0.9190
  868SOL    HW2 2604   1.503   2.010   2.696 -2.9081 -1.8551  0.5721
  869SOL     OW 2605   2.430   1.438   0.531 -0.7445 -0.0314  0.0237
  869SOL    HW1 2606   2.347   1.481   0.490  2.2714 -0.3272  0.6801
  869SOL    HW2 2607   2.401   1.356   0.580 -1.4528 -0.1978 -2.5305
  870SOL     OW 2608   2.706   1.607   0.306 -0.1728  0.5733  0.3957
  870SOL    HW1 2609   2.644   1.562   0.242  1.2174  0.5653  2.3153
  870SOL    HW2 2610   2.803   1.602   0.270  1.2885 -0.2233 -0.3236
  871SOL     OW 2611   3.030   0.707   1.510 -0.1331 -0.0715  0.3747
  871SOL    HW1 2612   3.034   0.758   1.419 -2.8069 -2.1804 -0.3050
  871SOL    HW2 2613   3.108   0.728   1.570 -3.0917  1.5889 -0.3074
  872SOL     OW 2614   0.647   1.917   2.653  0.4470 -0.0115 -0.4873
  872SOL    HW1 2615   0.673   1.924   2.754 -0.4318  1.1841  1.3463
  872SOL    HW2 2616   0.731   1.901   2.589 -1.2952  1.2001 -1.3835
  873SOL     OW 2617   0.557   2.724   1.810 -0.2839  0.4615 -0.0979
  873SOL    HW1 2618   0.601   2.632   1.825 -1.7173 -0.7549  0.5892
  873SOL    HW2 2619   0.536   2.740   1.711  0.8332 -0.6085 -1.1856
  874SOL     OW 2620   1.215   1.100   2.220  0.1891 -0.6396  0.1696
  874SOL    HW1 2621   1.208   1.145   2.311  1.4917  0.7998  1.4744
  874SOL    HW2 2622   1.289   1.030   2.226 -0.7692 -1.1750  1.2171
  875SOL     OW 2623   2.771   2.749   1.372 -0.0996  0.3216 -0.0587
  875SOL    HW1 2624   2.842   2.726   1.444 -0.3147 -0.2844  1.3844
  875SOL    HW2 2625   2.738   2.848   1.387 -1.0676  3.6922  2.4320
  876SOL     OW 2626   0.904   1.300   0.902 -0.3335 -0.3357 -0.6553
  876SOL    HW1 2627   0.861   1.212   0.938  0.3060 -1.5606  0.9601
  876SOL    HW2 2628   0.832   1.360   0.862 -0.9901  0.1769 -0.5749
  877SOL     OW 2629   0.748   0.498   1.417 -0.6525  0.8553 -0.2964
  877SOL    HW1 2630   0.657   0.474   1.456 -0.9735  0.6740 -1.7159
  877SOL    HW2 2631   0.808   0.418   1.404 -0.3384  0.8060 -1.1396
  878SOL     OW 2632   2.794   1.873   2.896  0.3352 -0.3999  0.4991
  878SOL    HW1 2633   2.871   1.807   2.875 -0.0528 -0.9227 -0.9231
  878SOL    HW2 2634   2.738   1.884   2.807 -1.7101  1.2674  0.3203
  879SOL     OW 2635   2.204   2.074   1.431  0.1323  0.2180 -0.3789
  879SOL    HW1 2636   2.208   2.150   1.493 -1.7560 -0.7080 -0.4629
  879SOL    HW2 2637   2.112   2.064   1.391  0.7764 -1.2458 -1.3007
  880SOL     OW 2638   0.911   2.286   1.282  0.0973  0.0592 -0.3642
  880SOL    HW1 2639   0.985   2.292   1.356  0.3174  4.0487  0.9889
  880SOL    HW2 2640   0.941   2.337   1.202 -0.8651  0.2603  2.9670
  881SOL     OW 2641   1.079   1.953   0.909 -0.0886 -0.2970  0.2541
  881SOL    HW1 2642   1.108   2.000   0.819  0.7979  2.7116  0.1503
  881SOL    HW2 2643   1.069   1.851   0.903  0.3718  0.2402  1.0931
  882SOL     OW 2644   1.991   1.804   2.584 -0.0281 -0.5912  0.1201
  882SOL    HW1 2645   2.059   1.727   2.603  1.8164 -0.2357 -1.7198
  882SOL    HW2 2646   2.033   1.880   2.521  0.5566 -0.4409 -2.5168
  883SOL     OW 2647   1.380   0.526   1.181  0.2126  0.0732 -0.3170
  883SOL    HW1 2648   1.326   0.608   1.140 -1.9190 -0.5521 -2.8701
  883SOL    HW2 2649   1.447   0.485   1.116  1.7449 -2.4037  2.1971
  884SOL     OW 2650   3.078   2.841   1.131 -0.3920  0.3416  0.0847
  884SOL    HW1 2651   0.024   2.858   1.057  0.1481  1.0603 -0.7253
  884SOL    HW2 2652   3.032   2.753   1.114  3.9386 -0.2978  1.3613
  885SOL     OW 2653   1.005   0.999   2.096  0.2768 -0.4485 -0.1717
  885SOL    HW1 2654   1.011   1.051   2.008 -0.1474  3.1413 -0.8312
  885SOL    HW2 2655   1.078   1.029   2.160  0.9472  0.0049 -0.0675
  886SOL     OW 2656   1.168   1.204   2.951 -0.4812 -0.2800  0.7490
  886SOL    HW1 2657   1.079   1.228   2.909 -2.0438 -0.3660 -1.3675
  886SOL    HW2 2658   1.244   1.202   2.881  0.8666 -2.4172 -1.6914
  887SOL     OW 2659   1.625   0.189   0.851 -0.4944  0.1495  0.1295
  887SOL    HW1 2660   1.597   0.256   0.779 -0.8514 -0.9032 -0.3796
  887SOL    HW2 2661   1.675   0.109   0.814 -0.2245 -2.8164  0.0258
  888SOL     OW 2662   2.249   1.347   2.190  0.0252 -0.4314  0.1620
  888SOL    HW1 2663   2.177   1.289   2.230  0.3797  2.0195 -2.2810
  888SOL    HW2 2664   2.291   1.299   2.112  2.0376  1.6854 -4.0073
  889SOL     OW 2665   0.062   1.992   0.933  0.2876  0.4223  0.2949
  889SOL    HW1 2666   0.076   2.084   0.895 -0.8052 -1.0562 -1.7212
  889SOL    HW2 2667   3.101   1.985   0.994 -2.4572 -1.9861 -0.0206
  890SOL     OW 2668   1.383   2.459   0.400  0.3521 -0.1576  0.1149
  890SOL    HW1 2669   1.307   2.440   0.462  0.8181  0.3018 -0.7826
  890SOL    HW2 2670   1.411   2.559   0.399 -1.8943  0.1979  0.4470
  891SOL     OW 2671   2.808   0.513   2.332 -0.4207  0.6858  0.1255
  891SOL    HW1 2672   2.784   0.490   2.236 -0.5759  2.7235  1.8631
  891SOL    HW2 2673   2.905   0.550   2.328 -0.8248 -0.4770 -0.3168
  892SOL     OW 2674   0.021   2.462   1.457 -0.1123  0.2834  0.5882
  892SOL    HW1 2675   0.059   2.475   1.363 -0.6397 -1.2905 -1.1254
  892SOL    HW2 2676   3.102   2.369   1.464  0.5129  2.6300 -1.0462
  893SOL     OW 2677   1.208   0.225   1.552  0.5314 -0.0268  0.4149
  893SOL    HW1 2678   1.291   0.247   1.497  1.8869  0.2595  0.8149
  893SOL    HW2 2679   1.181   0.312   1.602  1.2007  2.4112  0.6819
  894SOL     OW 2680   2.755   3.110   1.093 -0.2378 -0.3083  0.1493
  894SOL    HW1 2681   2.786   0.079   1.059  0.1859  0.7326 -0.6640
  894SOL    HW2 2682   2.808   3.088   1.178  0.4885 -3.0477  1.2139
  895SOL     OW 2683   1.599   1.991   2.447 -0.0241  0.4009 -0.3433
  895SOL    HW1 2684   1.585   1.910   2.388  3.3339  2.7962  3.0329
  895SOL    HW2 2685   1.525   2.008   2.514  2.7812 -1.9746 -1.0642
  896SOL     OW 2686   1.852   0.552   1.288  0.2200  0.3289 -0.5181
  896SOL    HW1 2687   1.824   0.619   1.359 -2.4193 -0.1607  1.1296
  896SOL    HW2 2688   1.948   0.571   1.263 -0.1545  0.9778  2.0289
  897SOL     OW 2689   0.502   1.640   1.938  0.1274  0.0706  0.8065
  897SOL    HW1 2690   0.597   1.679   1.931 -0.6087 -1.5950 -1.0035
  897SOL    HW2 2691   0.449   1.660   2.023  1.2988  0.4233  1.2038
  898SOL     OW 2692   1.747   2.287   2.216 -0.3403 -0.1170 -0.3072
  898SOL    HW1 2693   1.802   2.214   2.165  2.0158  1.5637  1.3642
  898SOL    HW2 2694   1.815   2.331   2.273 -1.0618 -1.5520  1.0212
  899SOL     OW 2695   1.356   2.214   0.669  0.1189 -0.2151 -0.0395
  899SOL    HW1 2696   1.364   2.311   0.639 -2.1644 -1.9784 -1.2060
  899SOL    HW2 2697   1.392   2.199   0.758 -0.9348  0.9583 -3.0274
  900SOL     OW 2698   0.813   3.100   2.482 -0.2277 -0.2429 -0.0939
  900SOL    HW1 2699   0.737   3.118   2.549 -0.5869  1.3329  1.1101
  900SOL    HW2 2700   0.822   0.059   2.424 -2.0453 -1.4163  0.6852
  901SOL     OW 2701   1.125   1.618   2.313 -0.5743  0.2880 -0.1009
  901SOL    HW1 2702   1.060   1.590   2.238  0.9425  0.9115  1.4554
  901SOL    HW2 2703   1.097   1.570   2.393  1.8553  2.0357 -0.3504
  902SOL     OW 2704   2.066   0.727   0.039  0.1434  0.3515  0.2699
  902SOL    HW1 2705   2.018   0.792   3.100 -0.1212  1.4590  3.2754
  902SOL    HW2 2706   2.014   0.718   0.127 -0.2570  0.0655  2.9733
  903SOL     OW 2707   1.930   1.076   2.608  0.5168  0.8774  0.0015
  903SOL    HW1 2708   2.032   1.082   2.607  1.3058 -2.2278  0.0088
  903SOL    HW2 2709   1.894   1.067   2.517 -1.1909 -3.7059  2.0764
  904SOL     OW 2710   1.764   1.280   1.771 -0.0174  0.4723 -0.2576
  904SOL    HW1 2711   1.735   1.183   1.790 -0.7591 -1.7129 -1.4762
  904SOL    HW2 2712   1.679   1.327   1.746  1.8188 -1.3392  0.0982
  905SOL     OW 2713   2.536   0.486   0.786  0.5792 -0.0857  0.5129
  905SOL    HW1 2714   2.433   0.474   0.773 -0.5621 -2.3787 -2.2409
  905SOL    HW2 2715   2.578   0.391   0.794  2.4709  0.0894  1.0100
  906SOL     OW 2716   0.047   1.360   0.552 -0.0216 -0.3483  0.4723
  906SOL    HW1 2717   0.067   1.371   0.651 -1.2016 -0.1651 -2.6561
  906SOL    HW2 2718   3.069   1.357   0.535  1.2958  0.0630 -0.4893
  907SOL     OW 2719   1.250   0.268   0.658  0.0124  0.2950  0.1692
  907SOL    HW1 2720   1.176   0.311   0.705  0.9468  0.5512 -2.0763
  907SOL    HW2 2721   1.341   0.300   0.697  0.7419  0.0897  0.9368
  908SOL     OW 2722   1.317   2.758   1.869  0.3311  0.1851 -0.2114
  908SOL    HW1 2723   1.405   2.804   1.865 -2.2790  1.3421  2.7052
  908SOL    HW2 2724   1.316   2.686   1.943 -0.4577  0.2322  1.7549
  909SOL     OW 2725   2.556   0.842   1.707  0.6129 -0.2787 -0.1509
  909SOL    HW1 2726   2.499   0.806   1.781  2.5318  0.9212 -0.8600
  909SOL    HW2 2727   2.527   0.937   1.668 -1.2843  2.3134  0.6726
  910SOL     OW 2728   1.164   0.131   2.356  0.1994  0.0047  0.2984
  910SOL    HW1 2729   1.080   0.095   2.311  0.8606 -1.4188 -1.5308
  910SOL    HW2 2730   1.158   0.121   2.455 -1.5516 -1.1354  0.0592
  911SOL     OW 2731   2.379   1.588   2.484  0.3865  0.2330  0.2815
  911SOL    HW1 2732   2.416   1.626   2.398  0.5011 -0.8154  0.5449
  911SOL    HW2 2733   2.349   1.486   2.477 -0.4885 -0.7344  0.8183
  912SOL     OW 2734   2.672   2.171   1.328  0.0946 -0.5533 -0.7668
  912SOL    HW1 2735   2.690   2.137   1.422  0.6821 -0.2952 -1.0562
  912SOL    HW2 2736   2.589   2.229   1.323 -2.0241 -1.6945  0.7213
  913SOL     OW 2737   2.509   2.033   1.820 -0.0265 -0.1661  0.5750
  913SOL    HW1 2738   2.517   2.109   1.887 -1.3533 -3.4905 -0.1883
  913SOL    HW2 2739   2.421   1.983   1.845 -1.8153  0.5834  0.0823
  914SOL     OW 2740   2.095   2.046   0.822 -0.4222  0.3898  0.2755
  914SOL    HW1 2741   2.185   2.095   0.835 -0.5069 -1.5514 -2.5001
  914SOL    HW2 2742   2.100   1.967   0.762 -1.9364 -0.4861  0.1525
  915SOL     OW 2743   1.104   2.512   1.989 -0.3039 -0.8693  0.0537
  915SOL    HW1 2744   1.026   2.571   1.968  1.0810 -0.4360  1.1301
  915SOL    HW2 2745   1.150   2.549   2.075 -1.1702 -0.3893  2.3985
  916SOL     OW 2746   0.131   2.192   0.765  0.1453 -1.0089  0.5874
  916SOL    HW1 2747   0.218   2.222   0.805 -2.7403 -0.0126 -1.6038
  916SOL    HW2 2748   0.146   2.148   0.672 -0.4873 -3.6860 -2.1870
  917SOL     OW 2749   2.747   1.023   2.761 -0.6069  0.0771  0.2044
  917SOL    HW1 2750   2.684   0.945   2.726  0.1396 -2.3025  2.4822
  917SOL    HW2 2751   2.846   1.014   2.729 -1.0472  0.2746  1.7279
  918SOL     OW 2752   1.537   2.245   2.383  0.0975 -0.2293  0.0238
  918SOL    HW1 2753   1.587   2.278   2.300  0.6775 -1.6484  0.0942
  918SOL    HW2 2754   1.574   2.158   2.415  0.5745  4.7679 -0.4460
  919SOL     OW 2755   1.840   2.113   0.914 -0.5030 -0.2054  0.1157
  919SOL    HW1 2756   1.790   2.022   0.895 -0.9753 -0.7196 -0.3374
  919SOL    HW2 2757   1.935   2.121   0.880 -0.8499  2.0406  1.0465
  920SOL     OW 2758   1.291   0.373   2.408 -0.1026  0.2575  0.5397
  920SOL    HW1 2759   1.229   0.316   2.352 -1.1231 -0.1126 -2.1508
  920SOL    HW2 2760   1.237   0.431   2.476 -0.0937  0.2763  1.3918
  921SOL     OW 2761   3.112   0.447   2.579  0.5936  0.2889 -0.0959
  921SOL    HW1 2762   3.080   0.532   2.529 -0.0099 -0.3888 -0.5124
  921SOL    HW2 2763   0.020   0.371   2.519  0.4798 -0.4509  1.0480
  922SOL     OW 2764   2.871   1.797   1.613 -0.4982  0.0287 -0.1506
  922SOL    HW1 2765   2.968   1.816   1.589  0.9193 -0.8519 -2.9361
  922SOL    HW2 2766   2.840   1.708   1.572  1.4002  0.1203  0.7464
  923SOL     OW 2767   0.394   1.788   2.589  0.1146  0.1380  0.2077
  923SOL    HW1 2768   0.324   1.848   2.549  1.8860 -2.4773  2.0528
  923SOL    HW2 2769   0.475   1.848   2.605 -0.6235  1.3865 -1.8613
  924SOL     OW 2770   1.651   0.578   2.153 -0.2201 -0.1962 -0.1063
  924SOL    HW1 2771   1.615   0.506   2.219  2.1849 -0.1565  0.4196
  924SOL    HW2 2772   1.697   0.655   2.196 -1.5415 -2.3147  1.0567
  925SOL     OW 2773   0.069   0.906   0.061 -0.2863  0.4090  0.5171
  925SOL    HW1 2774   0.037   0.840   3.116  1.1682  3.5264 -0.7766
  925SOL    HW2 2775   0.005   0.981   0.071 -0.2513 -3.3422 -1.3235
  926SOL     OW 2776   2.659   0.231   0.798 -0.6694  0.0861 -0.4013
  926SOL    HW1 2777   2.737   0.248   0.860  0.6410  0.3942  0.0681
  926SOL    HW2 2778   2.616   0.145   0.819 -1.2012  1.5788 -0.0087
  927SOL     OW 2779   1.131   0.861   0.872  0.2220  0.9172  0.2180
  927SOL    HW1 2780   1.155   0.954   0.842 -0.1180 -0.9520  2.7740
  927SOL    HW2 2781   1.032   0.850   0.866  2.2007  1.6257 -1.7819
  928SOL     OW 2782   3.014   0.128   2.083 -0.0573  0.0541  0.2071
  928SOL    HW1 2783   2.944   0.136   2.156  0.8068 -3.1332 -2.6453
  928SOL    HW2 2784   3.024   0.204   2.016  1.1827  0.8740  0.0859
  929SOL     OW 2785   2.366   0.800   1.290 -0.2024  0.1267  0.1958
  929SOL    HW1 2786   2.424   0.822   1.207 -3.4325 -0.2508  0.0757
  929SOL    HW2 2787   2.336   0.702   1.290 -0.2506  1.0795 -0.3697
  930SOL     OW 2788   1.955   2.669   1.066 -0.3499 -0.3783 -0.3264
  930SOL    HW1 2789   1.902   2.677   0.977  0.5295  2.5039  0.4891
  930SOL    HW2 2790   2.011   2.753   1.077  3.5944 -4.1312 -1.4551
  931SOL     OW 2791   1.962   1.029   1.248 -0.0912  0.2842  0.4341
  931SOL    HW1 2792   1.977   0.958   1.172  0.6247 -3.0330  0.7865
  931SOL    HW2 2793   2.046   1.089   1.253 -3.3220 -0.6533 -0.2645
  932SOL     OW 2794   3.046   0.858   1.295 -0.3768 -0.3645  0.1400
  932SOL    HW1 2795   3.059   0.960   1.287  2.6961  0.4929 -0.1874
  932SOL    HW2 2796   3.071   0.807   1.210 -0.7284 -0.1346 -1.7383
  933SOL     OW 2797   2.084   1.735   2.140  0.1464 -0.4140 -0.2187
  933SOL    HW1 2798   2.067   1.670   2.216 -1.2496  1.3322 -0.5611
  933SOL    HW2 2799   1.996   1.772   2.100 -1.4306  1.5118 -1.3326
  934SOL     OW 2800   1.561   2.809   1.492 -0.6342 -0.3523 -0.3086
  934SOL    HW1 2801   1.540   2.797   1.395 -0.1439 -0.3769 -0.9968
  934SOL    HW2 2802   1.506   2.883   1.529  2.6069 -0.3263 -2.3765
  935SOL     OW 2803   0.409   0.800   1.465  0.1219 -0.0924 -0.4972
  935SOL    HW1 2804   0.373   0.888   1.432  0.3438 -2.5384 -1.5469
  935SOL    HW2 2805   0.451   0.805   1.556  4.2833 -1.7982  0.1029
  936SOL     OW 2806   2.472   0.574   1.114 -0.0311  0.5016  0.0376
  936SOL    HW1 2807   2.496   0.544   1.207 -1.6315  1.6442  0.1368
  936SOL    HW2 2808   2.517   0.522   1.041 -0.5779  1.8466  4.3638
  937SOL     OW 2809   0.998   0.063   1.516  0.3375 -0.7554  0.0239
  937SOL    HW1 2810   0.924   0.124   1.480  0.7441  0.6096  0.8142
  937SOL    HW2 2811   1.082   0.115   1.542 -1.4331  0.9034 -0.0985
  938SOL     OW 2812   3.017   2.304   0.774  0.0156  0.5386  0.5583
  938SOL    HW1 2813   3.040   2.372   0.841  1.9267 -2.4509 -4.8350
  938SOL    HW2 2814   3.096   2.238   0.758  1.2826 -0.1238 -0.5378
  939SOL     OW 2815   0.066   1.946   2.700  0.1714 -0.1062  0.4240
  939SOL    HW1 2816   0.078   1.924   2.598 -2.0558 -2.2619 -1.9832
  939SOL    HW2 2817   0.150   1.979   2.738 -0.1699 -1.8421  0.7926
  940SOL     OW 2818   1.933   2.364   2.863 -0.3846  0.0622 -0.1397
  940SOL    HW1 2819   1.863   2.415   2.810 -1.1633 -0.7357  1.9547
  940SOL    HW2 2820   2.004   2.318   2.801  0.8405 -0.1081  2.1115
  941SOL     OW 2821   1.709   2.816   0.495 -0.0188  0.3355 -0.0234
  941SOL    HW1 2822   1.621   2.774   0.464 -2.9283 -2.3161  0.0995
  941SOL    HW2 2823   1.791   2.752   0.487 -0.3351 -2.9685  1.0874
  942SOL     OW 2824   1.726   1.905   1.157 -0.2171 -1.0775 -0.0699
  942SOL    HW1 2825   1.824   1.893   1.128 -0.3938 -1.3106 -1.2174
  942SOL    HW2 2826   1.673   1.970   1.101 -1.8879  0.4373 -0.6881
  943SOL     OW 2827   1.959   0.975   1.957 -0.2077 -0.2080  0.4771
  943SOL    HW1 2828   1.873   0.984   1.901  0.6169 -0.9971  1.5589
  943SOL    HW2 2829   2.035   0.937   1.896  2.5987 -0.3050 -1.5425
  944SOL     OW 2830   1.782   0.497   1.647  0.4366 -0.0473 -0.3025
  944SOL    HW1 2831   1.694   0.440   1.654 -0.0663 -0.4459 -2.2964
  944SOL    HW2 2832   1.862   0.434   1.652  0.5916  0.4262  2.3811
  945SOL     OW 2833   2.597   2.513   1.373  0.1801 -0.2040  0.0879
  945SOL    HW1 2834   2.503   2.548   1.354  0.2531  0.3829 -2.3065
  945SOL    HW2 2835   2.659   2.591   1.344  0.8968 -0.5051  0.4156
  946SOL     OW 2836   0.422   1.334   1.387  0.0813  0.1989  0.4957
  946SOL    HW1 2837   0.348   1.395   1.420  1.3031 -0.2825 -1.3275
  946SOL    HW2 2838   0.499   1.325   1.452 -0.0283  0.9755  0.4910
  947SOL     OW 2839   0.601   2.472   0.815 -0.4009  0.6429  0.0662
  947SOL    HW1 2840   0.529   2.446   0.883  0.1417 -0.3057  0.1474
  947SOL    HW2 2841   0.575   2.440   0.719 -1.0462 -1.0131 -1.4119
  948SOL     OW 2842   3.100   1.488   1.895  0.3766  0.4925  0.5140
  948SOL    HW1 2843   0.051   1.433   1.932  2.8030  0.1008 -1.8126
  948SOL    HW2 2844   3.066   1.559   1.960 -0.5482 -0.6470  1.3000
  949SOL     OW 2845   0.635   0.757   2.319  0.6397 -0.1571 -0.0306
  949SOL    HW1 2846   0.704   0.811   2.377 -0.0601 -0.1282  1.0526
  949SOL    HW2 2847   0.580   0.819   2.257  1.6805 -0.0739  0.0095
  950SOL     OW 2848   0.227   0.556   1.140 -0.6370  0.0633 -0.0926
  950SOL    HW1 2849   0.140   0.610   1.139  0.6716 -0.9795 -1.5738
  950SOL    HW2 2850   0.203   0.457   1.134 -0.4817 -0.2918  0.6720
  951SOL     OW 2851   1.232   1.884   2.300  0.2240  0.0766 -0.0418
  951SOL    HW1 2852   1.159   1.813   2.326 -1.3868 -0.8001  1.6418
  951SOL    HW2 2853   1.224   1.911   2.203 -0.5672 -0.4059 -1.6103
  952SOL     OW 2854   1.225   1.708   0.056  0.3211  0.1060 -0.1617
  952SOL    HW1 2855   1.299   1.713   3.108  0.7031 -0.4179  1.4573
  952SOL    HW2 2856   1.244   1.626   0.121  1.2554 -1.8140  3.5880
  953SOL     OW 2857   1.170   3.107   2.689  0.4237  0.0472  0.0438
  953SOL    HW1 2858   1.087   3.085   2.743  0.9880 -0.6495  0.3468
  953SOL    HW2 2859   1.184   0.081   2.694 -1.3953 -2.3544 -1.3017
  954SOL     OW 2860   2.192   1.513   0.428  0.0530 -0.2149  0.3726
  954SOL    HW1 2861   2.111   1.572   0.448  0.8062  2.5652  0.1066
  954SOL    HW2 2862   2.172   1.426   0.381  1.8191  0.3078  3.2300
  955SOL     OW 2863   0.207   2.637   2.897 -0.1005  0.2013 -0.4776
  955SOL    HW1 2864   0.187   2.637   2.798 -0.1612 -2.9883  0.5992
  955SOL    HW2 2865   0.235   2.542   2.933 -0.2052 -0.2905  2.5458
  956SOL     OW 2866   1.230   0.942   1.700  0.3351 -0.2071 -0.4207
  956SOL    HW1 2867   1.138   0.895   1.682 -1.1637  1.9443 -2.4872
  956SOL    HW2 2868   1.270   0.994   1.620 -2.6256  2.2358  1.6911
  957SOL     OW 2869   1.862   1.706   1.967  0.1246 -0.3068 -0.2168
  957SOL    HW1 2870   1.853   1.611   1.990 -1.2343  2.0932  0.0347
  957SOL    HW2 2871   1.768   1.751   1.987 -0.6440  0.2783  3.1951
  958SOL     OW 2872   1.425   2.241   1.269 -0.1087 -0.7890 -0.3358
  958SOL    HW1 2873   1.382   2.325   1.304 -0.3137 -2.1768 -1.9487
  958SOL    HW2 2874   1.517   2.270   1.230 -1.3007  0.5603  0.7191
  959SOL     OW 2875   1.198   1.632   1.311  0.5315 -0.6519  0.1355
  959SOL    HW1 2876   1.183   1.730   1.283  3.3351  1.7000  1.5045
  959SOL    HW2 2877   1.278   1.627   1.377  0.3879  1.2276  0.8912
  960SOL     OW 2878   0.128   1.154   2.909  0.2261 -0.4668 -0.8961
  960SOL    HW1 2879   0.126   1.055   2.880 -0.2932 -0.4285 -1.0803
  960SOL    HW2 2880   0.169   1.210   2.833  0.5448  1.3831 -0.9817
  961SOL     OW 2881   0.447   0.914   2.211  0.1733 -0.1434 -0.6004
  961SOL    HW1 2882   0.429   0.977   2.287  1.0228 -1.0066  2.3059
  961SOL    HW2 2883   0.490   0.965   2.135 -1.6113 -2.3080  0.3968
  962SOL     OW 2884   1.404   1.877   0.608  0.2942 -0.0412 -0.3368
  962SOL    HW1 2885   1.302   1.889   0.604 -0.8920  0.0830 -0.7070
  962SOL    HW2 2886   1.438   1.811   0.681 -0.1048 -0.3057  1.2596
  963SOL     OW 2887   1.205   2.416   2.552  0.3738 -0.0033  0.2354
  963SOL    HW1 2888   1.150   2.384   2.471 -2.3678  0.6876 -1.9198
  963SOL    HW2 2889   1.222   2.337   2.616  2.9230  1.0533 -0.5369
  964SOL     OW 2890   0.740   2.910   0.315 -0.0953  0.4511 -0.0745
  964SOL    HW1 2891   0.675   2.893   0.393 -1.0059  1.8727  3.6651
  964SOL    HW2 2892   0.710   2.996   0.263 -1.4270  0.7022  0.1472
  965SOL     OW 2893   0.686   0.000   1.072 -0.1128  0.3673 -0.3390
  965SOL    HW1 2894   0.753   0.075   1.099  0.6937  1.4539  2.5161
  965SOL    HW2 2895   0.616   3.123   1.144 -2.4177  3.8084  1.1447
  966SOL     OW 2896   0.385   1.513   3.118 -0.2509 -0.4384 -0.1976
  966SOL    HW1 2897   0.433   1.443   0.055  0.8244  1.4390  0.9212
  966SOL    HW2 2898   0.287   1.512   0.009  4.8199 -1.8230 -1.1733
  967SOL     OW 2899   0.972   2.903   2.392  0.4971 -0.2725  0.0132
  967SOL    HW1 2900   0.909   2.969   2.434 -0.2927 -1.3993 -0.4443
  967SOL    HW2 2901   1.069   2.938   2.387  4.1522 -1.3806  3.0394
  968SOL     OW 2902   2.101   0.525   0.261 -0.1715 -0.4420 -0.1292
  968SOL    HW1 2903   2.039   0.467   0.200 -2.3058 -0.3111 -1.9046
  968SOL    HW2 2904   2.046   0.610   0.287  0.7541  0.9836  0.4790
  969SOL     OW 2905   0.126   1.721   2.213  0.2819  0.0553  0.2022
  969SOL    HW1 2906   0.042   1.697   2.160  3.4587  1.4941 -0.3135
  969SOL    HW2 2907   0.184   1.638   2.238  1.2558 -1.5359  3.0122
  970SOL     OW 2908   2.197   1.448   1.204 -0.2666  0.4209  0.0438
  970SOL    HW1 2909   2.224   1.450   1.104 -0.4311  0.4620 -1.1507
  970SOL    HW2 2910   2.248   1.526   1.244  0.3644 -0.1220 -2.1540
  971SOL     OW 2911   1.796   0.196   1.077 -0.0627  0.3637 -0.7491
  971SOL    HW1 2912   1.864   0.258   1.039  2.5697 -0.1833 -2.0665
  971SOL    HW2 2913   1.722   0.175   1.012 -0.4718 -2.4506  0.2691
  972SOL     OW 2914   0.251   2.988   1.693  0.1926 -0.0156  0.0594
  972SOL    HW1 2915   0.199   3.074   1.704  1.1209  0.8468  0.6372
  972SOL    HW2 2916   0.206   2.925   1.625  3.0696 -0.1518 -0.7724
  973SOL     OW 2917   2.694   0.910   0.286 -0.1444 -0.2508 -0.5470
  973SOL    HW1 2918   2.686   0.894   0.184  0.2552 -1.6608 -0.3511
  973SOL    HW2 2919   2.663   1.007   0.305 -2.5906 -1.6180  1.3301
  974SOL     OW 2920   1.777   1.660   2.487  0.6426  0.3885 -0.2615
  974SOL    HW1 2921   1.856   1.715   2.516  0.0695  0.8851  1.6018
  974SOL    HW2 2922   1.736   1.702   2.405  0.9886 -1.0866  0.5902
  975SOL     OW 2923   0.182   2.844   1.463 -0.4890 -0.2870 -0.6633
  975SOL    HW1 2924   0.225   2.789   1.386  1.5632  1.0441 -0.8255
  975SOL    HW2 2925   0.125   2.919   1.422 -1.9832  2.3863 -0.5330
  976SOL     OW 2926   0.196   1.885   1.787  0.0003 -0.3193  0.3320
  976SOL    HW1 2927   0.171   1.983   1.792 -0.2122  0.1467 -1.5977
  976SOL    HW2 2928   0.240   1.854   1.872  3.3141 -1.6639 -0.5310
  977SOL     OW 2929   0.860   2.681   3.122 -0.5168  0.0165 -0.6176
  977SOL    HW1 2930   0.960   2.677   0.014 -0.6815  0.8233  1.3458
  977SOL    HW2 2931   0.835   2.735   3.044 -0.3515 -0.2513  3.0830
  978SOL     OW 2932   0.429   1.823   2.924 -0.6294  0.2497  0.2922
  978SOL    HW1 2933   0.514   1.875   2.943 -2.9270  1.4291 -2.5664
  978SOL    HW2 2934   0.450   1.726   2.893 -1.3594 -3.4721 -1.4929
  979SOL     OW 2935   1.624   2.353   1.123  0.2689 -0.7218  0.9085
  979SOL    HW1 2936   1.682   2.428   1.160 -1.2460  0.5342  0.9309
  979SOL    HW2 2937   1.647   2.330   1.028  0.1166  0.3494  1.7517
  980SOL     OW 2938   1.001   1.852   2.915  0.2608  0.5852 -0.2202
  980SOL    HW1 2939   1.058   1.897   2.985 -0.3847  0.7502 -0.2172
  980SOL    HW2 2940   1.038   1.868   2.819 -1.3007  0.2055  0.3361
  981SOL     OW 2941   2.631   2.972   2.339  0.4870  0.0950 -0.1508
  981SOL    HW1 2942   2.585   3.022   2.262 -2.0929 -0.2809  3.2204
  981SOL    HW2 2943   2.604   3.017   2.428 -0.8924 -0.4793  4.3768
  982SOL     OW 2944   0.148   2.903   2.539  0.2632  0.5929  0.2482
  982SOL    HW1 2945   0.074   2.963   2.575 -0.9411  1.9322  0.8232
  982SOL    HW2 2946   0.165   2.925   2.442 -1.6128 -2.5657  1.0471
  983SOL     OW 2947   2.401   1.310   1.693 -0.3268  0.1230 -0.5877
  983SOL    HW1 2948   2.434   1.322   1.789 -2.8134 -0.9816 -0.4794
  983SOL    HW2 2949   2.303   1.330   1.680 -0.8104  0.7147 -2.1259
  984SOL     OW 2950   1.485   0.563   1.908  0.1212 -0.4490 -0.3439
  984SOL    HW1 2951   1.407   0.505   1.940  1.3154  0.5600 -0.2458
  984SOL    HW2 2952   1.563   0.559   1.973  2.7873  1.4226  1.3644
  985SOL     OW 2953   1.602   1.762   2.289  0.0633 -0.2023  0.0955
  985SOL    HW1 2954   1.523   1.697   2.282 -0.7707  0.8317  0.4369
  985SOL    HW2 2955   1.609   1.813   2.201  1.8846 -4.7590  3.1124
  986SOL     OW 2956   1.840   0.431   2.006  0.1108 -0.2539 -0.5894
  986SOL    HW1 2957   1.826   0.468   1.909 -1.8140 -0.9803 -0.1316
  986SOL    HW2 2958   1.763   0.467   2.066 -0.6924  0.7166  0.3691
  987SOL     OW 2959   2.198   0.767   1.780  0.7957 -0.0774  0.0181
  987SOL    HW1 2960   2.278   0.778   1.847  1.4770  0.6032  2.0895
  987SOL    HW2 2961   2.182   0.859   1.729  0.0061 -0.5482  0.0413
  988SOL     OW 2962   2.638   0.739   2.421  0.7274 -0.0811 -0.5012
  988SOL    HW1 2963   2.709   0.673   2.459 -3.3169  0.3038  3.2882
  988SOL    HW2 2964   2.670   0.829   2.391 -1.0623 -0.7917 -0.2851
  989SOL     OW 2965   2.284   2.595   2.876 -0.3687  0.1183 -0.5859
  989SOL    HW1 2966   2.312   2.498   2.874  2.0157  2.1851  0.2516
  989SOL    HW2 2967   2.198   2.594   2.935  1.3008 -1.1197  0.1707
  990SOL     OW 2968   0.870   0.431   2.630 -0.3708  0.4826 -0.0595
  990SOL    HW1 2969   0.813   0.348   2.666 -2.1089 -0.5991  0.2817
  990SOL    HW2 2970   0.819   0.519   2.649 -2.3249  0.0417 -0.7065
  991SOL     OW 2971   1.239   0.458   0.203 -0.1158  0.7304 -0.2580
  991SOL    HW1 2972   1.217   0.557   0.214 -1.5343  1.4459  0.3595
  991SOL    HW2 2973   1.179   0.416   0.128 -0.6426  1.3614  0.4292
  992SOL     OW 2974   2.568   2.310   2.747 -0.4075 -0.0921  0.9939
  992SOL    HW1 2975   2.479   2.272   2.711  0.7107  0.1659 -2.3454
  992SOL    HW2 2976   2.573   2.413   2.725 -0.0320  2.4762 -0.7578
  993SOL     OW 2977   0.343   0.262   0.341  0.0430 -0.1867 -0.0692
  993SOL    HW1 2978   0.400   0.338   0.299  1.4106  0.9903 -0.6236
  993SOL    HW2 2979   0.262   0.294   0.396 -1.5113  0.4509  1.4940
  994SOL     OW 2980   0.354   2.297   1.665 -0.4519  0.1120 -0.2205
  994SOL    HW1 2981   0.286   2.234   1.708  0.3153 -1.3705  0.0381
  994SOL    HW2 2982   0.320   2.395   1.661 -1.1695  1.3607  2.1657
  995SOL     OW 2983   2.064   1.728   2.931 -0.0074 -0.6501 -0.3523
  995SOL    HW1 2984   2.084   1.720   3.031  1.1113 -2.9325 -3.3782
  995SOL    HW2 2985   2.064   1.634   2.885  0.2769  1.7694 -2.0534
  996SOL     OW 2986   1.434   1.697   3.004 -0.0548  0.2536 -0.1267
  996SOL    HW1 2987   1.508   1.678   2.931  0.4353 -0.5676  0.4565
  996SOL    HW2 2988   1.470   1.755   3.082  0.5122 -4.1427 -1.9760
  997SOL     OW 2989   1.671   1.068   1.159  0.0205  0.1737 -0.0123
  997SOL    HW1 2990   1.642   1.131   1.079  0.4830  1.5663 -2.7267
  997SOL    HW2 2991   1.770   1.082   1.175 -0.4292  0.2930  0.9533
  998SOL     OW 2992   2.573   1.486   0.077 -0.0094  0.1530  0.1093
  998SOL    HW1 2993   2.561   1.386   0.097 -1.3792 -1.1964  0.4078
  998SOL    HW2 2994   2.624   1.497   3.115  0.2104  0.6680 -1.1868
  999SOL     OW 2995   3.067   2.339   0.307 -0.1122 -0.1462 -0.0072
  999SOL    HW1 2996   3.001   2.350   0.388  0.1006  0.3360  0.1012
  999SOL    HW2 2997   3.019   2.337   0.217 -2.4776 -0.7153  0.7159
 1000SOL     OW 2998   0.655   3.094   2.054  0.1485  0.0386  0.3092
 1000SOL    HW1 2999   0.554   3.094   2.065  1.0590  1.7961  1.0955
 1000SOL    HW2 3000   0.684   0.022   1.973 -1.1469  0.7704 -2.7129
   3.12340   3.12340   3.12340
