1000 SPC/Fw water molecules t=  66.00000 step= 66000
 3000
    1SOL     OW    1   2.048   2.727   0.884  0.2096 -0.2137 -0.2288
    1SOL    HW1    2   1.957   2.769   0.871 -1.2425  1.0294  0.9863
    1SOL    HW2    3   2.111   2.749   0.809  0.9799 -1.6276  0.6026
    2SOL     OW    4   0.957   1.244   2.431  0.2866 -0.1991 -0.5623
    2SOL    HW1    5   0.888   1.206   2.495  1.0469  0.6332  0.9525
    2SOL    HW2    6   0.991   1.332   2.475 -2.5009 -0.8832 -4.2833
    3SOL     OW    7   1.433   2.639   2.481  0.5616 -0.0410  0.1619
    3SOL    HW1    8   1.501   2.695   2.541  0.3090  0.5011  2.4444
    3SOL    HW2    9   1.457   2.539   2.485  1.8910  1.2947 -2.5780
    4SOL     OW   10   1.192   1.987   2.848 -0.2986 -0.0109  0.4623
    4SOL    HW1   11   1.139   1.910   2.820 -1.4268  0.2496 -0.3056
    4SOL    HW2   12   1.291   1.964   2.843 -2.6034  1.3275  0.7458
    5SOL     OW   13   0.830   0.637   1.777  0.0161 -0.3180 -0.3734
    5SOL    HW1   14   0.857   0.537   1.771 -1.8386  1.3061  0.4231
    5SOL    HW2   15   0.770   0.662   1.860 -0.5298 -0.9867 -0.7056
    6SOL     OW   16   1.959   0.532   2.493 -0.3062 -0.0989  0.1943
    6SOL    HW1   17   2.027   0.506   2.424 -0.2184  0.1659  2.6253
    6SOL    HW2   18   1.896   0.452   2.501  1.8539  1.2225 -0.4464
    7SOL     OW   19   0.210   0.359   1.671 -0.2185  0.1145 -0.1467
    7SOL    HW1   20   0.145   0.393   1.598 -1.3870  0.4084 -2.3634
    7SOL    HW2   21   0.173   0.363   1.762  0.7601 -1.5668 -2.6769
    8SOL     OW   22   1.961   3.032   1.688  0.0162  0.1037 -0.2767
    8SOL    HW1   23   1.899   2.961   1.727  0.3156 -0.1465  1.5055
    8SOL    HW2   24   1.970   0.022   1.743  0.9227  1.4373  3.1409
    9SOL     OW   25   0.340   3.004   0.735 -0.5833  0.3327 -0.2130
    9SOL    HW1   26   0.418   3.061   0.764 -3.4640 -2.5147  0.9426
    9SOL    HW2   27   0.280   3.048   0.668 -1.3212 -1.6521  1.6473
   10SOL     OW   28   0.542   2.293   2.414  0.5873  0.6596 -0.2640
   10SOL    HW1   29   0.598   2.316   2.332  2.5159  1.6835 -0.9028
   10SOL    HW2   30   0.599   2.315   2.496  1.7117  1.5126  1.4989
   11SOL     OW   31   0.710   1.569   0.184  0.2565 -0.0634 -0.5146
   11SOL    HW1   32   0.671   1.520   0.102 -1.5046  1.5577  1.1031
   11SOL    HW2   33   0.632   1.578   0.254 -4.6866  0.9369 -1.2393
   12SOL     OW   34   2.690   2.738   1.627  0.4154  0.4734  0.0519
   12SOL    HW1   35   2.627   2.746   1.544 -1.7581  0.0316  3.6119
   12SOL    HW2   36   2.779   2.689   1.616  2.8787  0.5083  4.0225
   13SOL     OW   37   0.781   2.922   0.127  0.1145 -0.0349 -0.3335
   13SOL    HW1   38   0.785   3.011   0.078  0.2356 -1.9562  0.6836
   13SOL    HW2   39   0.692   2.870   0.124  0.1887 -1.1893  1.0655
   14SOL     OW   40   1.462   1.709   1.447  0.0549 -0.2884 -0.4851
   14SOL    HW1   41   1.433   1.619   1.480 -0.8964  0.2727 -2.8316
   14SOL    HW2   42   1.562   1.710   1.433 -2.9452 -0.4919  0.2553
   15SOL     OW   43   0.428   1.894   2.501  0.3850 -0.1811 -0.2509
   15SOL    HW1   44   0.529   1.899   2.497 -0.7172 -0.1696  0.8056
   15SOL    HW2   45   0.389   1.981   2.462 -0.9914 -3.2330 -1.3508
   16SOL     OW   46   1.562   0.484   2.713  0.2073 -0.6201  1.4074
   16SOL    HW1   47   1.567   0.517   2.616  0.7263  0.3221 -0.8917
   16SOL    HW2   48   1.629   0.536   2.769 -0.3928  1.5474  2.7449
   17SOL     OW   49   3.033   2.600   2.483  0.4638  0.7198  0.6902
   17SOL    HW1   50   3.057   2.586   2.583  1.7923  1.7304  0.2812
   17SOL    HW2   51   0.021   2.584   2.431  1.8296  1.2433  1.1199
   18SOL     OW   52   1.122   1.349   0.843  0.7971  0.2284 -0.4081
   18SOL    HW1   53   1.128   1.448   0.830 -2.4139  0.2619  0.6708
   18SOL    HW2   54   1.057   1.324   0.918 -1.5490  2.1764  0.8839
   19SOL     OW   55   2.840   1.837   2.387 -0.5210  0.3289 -0.0609
   19SOL    HW1   56   2.943   1.830   2.382  0.6486 -0.3611  0.6438
   19SOL    HW2   57   2.818   1.879   2.481 -0.6724 -0.9199  1.6981
   20SOL     OW   58   2.439   2.238   2.511  0.3770 -0.1407  0.2868
   20SOL    HW1   59   2.488   2.204   2.428 -0.1498  1.0786  1.0178
   20SOL    HW2   60   2.364   2.289   2.475  2.2944 -1.9772 -0.7541
   21SOL     OW   61   1.508   1.746   0.454  0.6494  0.2696  0.2382
   21SOL    HW1   62   1.574   1.690   0.507  2.4213 -0.7007  2.9793
   21SOL    HW2   63   1.464   1.813   0.516 -1.3047 -2.3549  0.5352
   22SOL     OW   64   2.326   2.103   1.434  0.1020 -0.1026  0.7805
   22SOL    HW1   65   2.405   2.105   1.501  2.0027 -1.8365  0.1665
   22SOL    HW2   66   2.337   2.184   1.373  1.4538 -0.4351  0.0488
   23SOL     OW   67   3.035   1.176   1.166  0.1135  0.1134  0.5196
   23SOL    HW1   68   2.945   1.220   1.187  2.4692 -1.7160 -0.6764
   23SOL    HW2   69   3.029   1.076   1.129  4.1595 -0.7809 -1.1507
   24SOL     OW   70   2.357   1.354   1.892  0.3719  0.6615  0.6800
   24SOL    HW1   71   2.383   1.407   1.810  1.6598  0.8948  1.4710
   24SOL    HW2   72   2.273   1.296   1.886 -0.4260  1.8610  1.3865
   25SOL     OW   73   2.022   0.255   2.290  0.0681 -0.1946 -0.2756
   25SOL    HW1   74   2.098   0.308   2.326  0.5162  0.9259 -1.6557
   25SOL    HW2   75   2.058   0.158   2.281  2.9016 -0.2586  2.2792
   26SOL     OW   76   1.188   0.079   0.268  0.3682  0.3524  0.3127
   26SOL    HW1   77   1.136   0.131   0.196  0.5814  0.5585 -1.4479
   26SOL    HW2   78   1.130   0.075   0.354 -1.7269 -1.8016 -1.0766
   27SOL     OW   79   0.562   1.771   0.792 -0.7957  0.2933  0.4106
   27SOL    HW1   80   0.610   1.792   0.707 -2.1570  0.8440 -1.2634
   27SOL    HW2   81   0.537   1.671   0.798 -0.0139  0.9233  0.2556
   28SOL     OW   82   2.480   2.248   1.168 -0.3531 -0.9231 -0.8804
   28SOL    HW1   83   2.388   2.215   1.149 -0.5573 -0.6188  0.7156
   28SOL    HW2   84   2.528   2.292   1.089  1.5492 -0.4419  1.2612
   29SOL     OW   85   2.184   0.078   1.603  0.2048  0.3505 -0.1909
   29SOL    HW1   86   2.121   3.098   1.613  0.9924  0.4707 -1.2968
   29SOL    HW2   87   2.242   0.095   1.685  0.7503 -1.2124 -0.2236
   30SOL     OW   88   0.869   2.879   1.173  0.5331  0.2169 -0.3035
   30SOL    HW1   89   0.782   2.828   1.193 -0.5179  0.5305  1.7382
   30SOL    HW2   90   0.897   2.935   1.252 -0.4613 -0.1954  0.3571
   31SOL     OW   91   3.027   1.922   2.032 -0.5035  0.4405 -0.7281
   31SOL    HW1   92   3.085   1.974   1.961  2.1809  3.4839 -2.7636
   31SOL    HW2   93   3.074   1.837   2.056  1.5053 -2.1491 -0.2691
   32SOL     OW   94   1.473   1.637   2.256 -0.0844 -0.0038 -0.0196
   32SOL    HW1   95   1.439   1.663   2.164  1.3444 -0.7339  2.4802
   32SOL    HW2   96   1.557   1.580   2.247  0.3085  0.2628  0.8246
   33SOL     OW   97   0.352   3.093   2.974 -0.1836  0.3363 -0.5725
   33SOL    HW1   98   0.443   0.028   2.944  1.2091 -1.0978 -0.9469
   33SOL    HW2   99   0.361   2.991   3.006 -3.5819 -2.5711  1.5031
   34SOL     OW  100   2.469   3.018   0.565  0.4747  0.2670 -0.0403
   34SOL    HW1  101   2.443   3.077   0.642  0.3316 -0.5825 -0.0959
   34SOL    HW2  102   2.532   2.948   0.605  0.5061 -0.9191 -1.7238
   35SOL     OW  103   2.688   0.300   1.477 -0.2754 -0.3619 -0.3557
   35SOL    HW1  104   2.703   0.282   1.579 -0.6630 -0.2622  2.9942
   35SOL    HW2  105   2.588   0.321   1.468 -2.3467 -1.2960 -1.0960
   36SOL     OW  106   2.805   3.042   2.309  0.0962 -0.5098  0.0761
   36SOL    HW1  107   2.732   3.041   2.241  1.8327 -0.0912  1.9528
   36SOL    HW2  108   2.879   2.975   2.280 -0.8365 -2.3902  0.3049
   37SOL     OW  109   1.660   2.610   2.967 -0.2939  0.4267 -0.6558
   37SOL    HW1  110   1.650   2.709   2.945 -0.3787 -0.0517  0.6035
   37SOL    HW2  111   1.573   2.573   3.014 -1.6648  0.7876 -0.3622
   38SOL     OW  112   3.063   0.998   3.088  0.5940  0.2379 -0.1491
   38SOL    HW1  113   3.004   0.924   3.051  0.8897 -0.4116  0.8602
   38SOL    HW2  114   3.012   1.030   0.073 -0.0147  0.4894 -0.1594
   39SOL     OW  115   1.809   1.714   2.085  0.1258  0.5823 -0.0086
   39SOL    HW1  116   1.798   1.798   2.144 -0.3077  0.7875  1.2263
   39SOL    HW2  117   1.734   1.646   2.107 -3.6986  1.7706 -1.5584
   40SOL     OW  118   0.239   0.336   2.538 -0.3710  0.2637  0.5934
   40SOL    HW1  119   0.168   0.299   2.597  2.3943 -1.4923  1.1615
   40SOL    HW2  120   0.318   0.340   2.598 -5.4584  0.0898 -3.5134
   41SOL     OW  121   1.809   1.226   1.853  0.0630 -0.4216  0.0310
   41SOL    HW1  122   1.747   1.255   1.928  0.2990 -0.9856  0.6405
   41SOL    HW2  123   1.789   1.278   1.766 -2.2605  0.9167  2.5020
   42SOL     OW  124   3.007   0.181   1.504  0.2820  0.7019 -0.0358
   42SOL    HW1  125   2.958   0.158   1.419 -1.4060  0.8406 -1.2849
   42SOL    HW2  126   3.068   0.260   1.489 -0.1903  2.3088  2.9284
   43SOL     OW  127   1.486   1.277   1.733  0.1228 -0.0650  0.2180
   43SOL    HW1  128   1.444   1.348   1.792  1.1212 -0.4837 -0.8964
   43SOL    HW2  129   1.433   1.189   1.742  1.0361 -0.0517 -0.0306
   44SOL     OW  130   3.056   0.270   2.966 -0.3006  0.1745  0.5095
   44SOL    HW1  131   0.010   0.234   3.048  1.5878  2.2072 -0.5142
   44SOL    HW2  132   2.996   0.194   2.931  0.7911  1.1001 -0.3495
   45SOL     OW  133   0.363   2.192   1.070  0.0034  0.0901 -0.1604
   45SOL    HW1  134   0.322   2.232   1.158  2.0164  1.9268  1.4202
   45SOL    HW2  135   0.286   2.141   1.025 -0.7941  0.4433  1.1804
   46SOL     OW  136   2.320   2.956   1.926 -0.3680  0.0511 -0.4334
   46SOL    HW1  137   2.313   3.039   1.870  1.7119 -0.5191 -0.1031
   46SOL    HW2  138   2.411   2.906   1.919  1.8203 -0.9875  0.5124
   47SOL     OW  139   0.303   1.750   0.988 -0.0728 -0.2591  0.1739
   47SOL    HW1  140   0.393   1.702   0.985  1.4772 -0.7783  1.0247
   47SOL    HW2  141   0.306   1.845   0.949  2.1248 -0.2678  1.7813
   48SOL     OW  142   0.520   2.842   0.189  0.2939  0.2015  0.1825
   48SOL    HW1  143   0.514   2.925   0.247 -1.9221  1.4457 -1.5334
   48SOL    HW2  144   0.508   2.759   0.248  0.1399 -0.2986  1.4203
   49SOL     OW  145   2.888   1.679   1.756  0.8258 -0.4679  0.5164
   49SOL    HW1  146   2.848   1.635   1.839  1.1105 -2.4080  2.7542
   49SOL    HW2  147   2.988   1.654   1.739  0.4175  1.9523 -0.3708
   50SOL     OW  148   1.444   0.059   0.581 -0.3758 -0.4577 -0.2521
   50SOL    HW1  149   1.419   0.061   0.482  2.1010  0.0744  0.5256
   50SOL    HW2  150   1.402   0.135   0.635  0.1414 -0.4198 -1.4208
   51SOL     OW  151   0.986   0.530   1.215  0.0466 -0.4094  0.0695
   51SOL    HW1  152   1.036   0.604   1.165  0.6110  0.9777  0.5396
   51SOL    HW2  153   0.913   0.492   1.161  1.6651  2.5445  2.0671
   52SOL     OW  154   0.765   1.170   0.604  0.3756 -0.2496  0.5020
   52SOL    HW1  155   0.699   1.208   0.535 -0.8503 -0.5847 -1.0417
   52SOL    HW2  156   0.721   1.164   0.696  1.6830 -4.6824  1.3253
   53SOL     OW  157   1.364   3.058   2.249  0.1406  0.0711  0.1832
   53SOL    HW1  158   1.399   3.092   2.338  1.5159 -1.0563  1.0128
   53SOL    HW2  159   1.448   3.034   2.192  0.5286  3.6496 -1.5911
   54SOL     OW  160   1.700   0.555   1.612  0.5702 -0.1887  0.3413
   54SOL    HW1  161   1.690   0.556   1.510  3.2337  0.8760 -1.2572
   54SOL    HW2  162   1.792   0.582   1.644  0.7042 -0.3830 -1.6848
   55SOL     OW  163   2.930   2.701   0.480 -0.0373  0.2993 -0.1472
   55SOL    HW1  164   2.913   2.687   0.579 -3.1928 -2.6560  1.2169
   55SOL    HW2  165   2.978   2.625   0.431 -0.9154  0.7645 -0.5975
   56SOL     OW  166   1.142   2.490   1.675 -0.3484  0.2510  0.2549
   56SOL    HW1  167   1.189   2.536   1.756  1.0952 -1.8249 -1.6630
   56SOL    HW2  168   1.133   2.550   1.591  0.5041  3.2749 -1.0015
   57SOL     OW  169   1.664   0.842   2.374 -0.1349 -0.4984  0.2067
   57SOL    HW1  170   1.605   0.774   2.422  0.2476 -0.8887  0.0482
   57SOL    HW2  171   1.720   0.807   2.299  0.3430 -0.2357  0.6773
   58SOL     OW  172   0.472   1.268   2.195 -0.3504  0.2700 -0.3257
   58SOL    HW1  173   0.505   1.351   2.143  0.2154  1.4063 -0.5281
   58SOL    HW2  174   0.416   1.204   2.140 -1.1762  0.3398  1.0618
   59SOL     OW  175   0.546   2.560   1.934  0.1984  0.3325 -0.4361
   59SOL    HW1  176   0.540   2.459   1.956 -2.2590 -0.2565 -1.0232
   59SOL    HW2  177   0.608   2.615   1.998 -0.6053  3.8909  1.2197
   60SOL     OW  178   2.466   2.399   0.251  0.7745  0.1064  0.6913
   60SOL    HW1  179   2.533   2.325   0.269  1.8266 -0.5462 -0.4074
   60SOL    HW2  180   2.485   2.456   0.168  1.7756  0.8107  0.2391
   61SOL     OW  181   1.167   2.882   0.552  0.3465  0.2655  0.1504
   61SOL    HW1  182   1.267   2.907   0.566 -1.2896  0.2631  1.8117
   61SOL    HW2  183   1.161   2.794   0.504  0.8221  1.0178  0.8543
   62SOL     OW  184   1.834   2.338   2.591  0.3034  0.0666  0.0009
   62SOL    HW1  185   1.844   2.280   2.509  1.3689  0.6050  0.4674
   62SOL    HW2  186   1.857   2.287   2.676  1.5930 -1.3830 -1.7266
   63SOL     OW  187   2.182   0.578   2.817 -0.3594  0.4565 -0.0583
   63SOL    HW1  188   2.224   0.598   2.726  1.2127  0.5280 -2.5017
   63SOL    HW2  189   2.252   0.591   2.889 -1.3630  0.3326 -1.0815
   64SOL     OW  190   1.371   1.539   0.353 -0.0741  0.3076 -0.4555
   64SOL    HW1  191   1.423   1.620   0.379  1.4326 -1.3469  0.1055
   64SOL    HW2  192   1.280   1.540   0.397 -0.6457  0.6044 -0.9835
   65SOL     OW  193   0.933   3.056   1.374 -0.0386 -0.1697 -0.0484
   65SOL    HW1  194   1.026   3.027   1.408 -3.2459 -0.3282  1.4838
   65SOL    HW2  195   0.911   0.055   1.397 -1.8780 -1.8660  2.1885
   66SOL     OW  196   0.724   1.220   1.487 -0.4543 -0.4966  0.3902
   66SOL    HW1  197   0.708   1.163   1.571 -0.0225 -0.1963  0.9751
   66SOL    HW2  198   0.821   1.220   1.452  1.1904  2.4108  0.8419
   67SOL     OW  199   2.323   2.530   1.949  0.0898  0.1509 -0.0307
   67SOL    HW1  200   2.356   2.470   2.021 -0.8305  0.5420 -1.5095
   67SOL    HW2  201   2.380   2.521   1.865  1.1705 -2.2887 -1.7801
   68SOL     OW  202   0.968   1.042   1.800 -0.7573  0.4729 -0.1946
   68SOL    HW1  203   0.915   1.101   1.867 -1.4944  4.0306  2.6990
   68SOL    HW2  204   0.916   0.965   1.752 -3.2386  1.8045 -0.5636
   69SOL     OW  205   2.715   2.634   0.133 -0.4661 -0.1505  0.3496
   69SOL    HW1  206   2.686   2.684   0.218 -1.7272 -0.3280  2.0878
   69SOL    HW2  207   2.635   2.607   0.073  0.7280 -2.6914  1.3112
   70SOL     OW  208   2.515   0.806   2.474  0.3590 -0.0841 -0.2062
   70SOL    HW1  209   2.521   0.817   2.574  1.3326  0.7746 -1.5138
   70SOL    HW2  210   2.591   0.744   2.447 -2.1558  1.4965  0.5423
   71SOL     OW  211   0.030   2.151   0.542  0.2127 -0.2977  0.0594
   71SOL    HW1  212   3.057   2.100   0.496 -1.5557  1.6146 -1.2347
   71SOL    HW2  213   0.041   2.243   0.500 -1.3750  1.7906 -0.2558
   72SOL     OW  214   2.957   2.043   0.358  0.7666  0.3593  0.0387
   72SOL    HW1  215   2.919   1.948   0.364 -0.5320 -0.4142  0.8161
   72SOL    HW2  216   2.980   2.068   0.260  0.0098  2.0059  1.8256
   73SOL     OW  217   0.955   0.567   0.841 -0.6180  0.1653  0.2349
   73SOL    HW1  218   0.919   0.499   0.910 -0.3520 -0.4673 -0.0865
   73SOL    HW2  219   0.889   0.642   0.822 -0.5063  1.4131  1.0314
   74SOL     OW  220   2.538   2.138   2.283 -0.4816 -0.2255  0.3955
   74SOL    HW1  221   2.499   2.086   2.207  2.8630  0.1869  3.1807
   74SOL    HW2  222   2.641   2.152   2.271  2.6363  0.0655  0.6990
   75SOL     OW  223   1.840   1.648   1.819 -0.5337  0.4586 -0.4584
   75SOL    HW1  224   1.846   1.682   1.913 -1.2233 -1.4454 -0.2856
   75SOL    HW2  225   1.752   1.602   1.799  0.3071 -2.9383  0.1920
   76SOL     OW  226   1.200   1.981   1.188 -0.2743  0.3024  0.2379
   76SOL    HW1  227   1.237   1.889   1.176  2.1634  0.8746  0.8129
   76SOL    HW2  228   1.100   1.967   1.202 -3.1550 -0.8813  0.0654
   77SOL     OW  229   2.794   1.624   1.993  0.3751 -0.1160 -0.4818
   77SOL    HW1  230   2.799   1.529   2.037  0.2094 -0.7374 -1.4183
   77SOL    HW2  231   2.798   1.706   2.055  2.2970 -0.3425  1.1020
   78SOL     OW  232   1.582   0.594   0.496  0.7807 -0.2990  0.2831
   78SOL    HW1  233   1.515   0.652   0.449  2.0047  1.3191 -3.4188
   78SOL    HW2  234   1.599   0.640   0.589  1.6566  0.3448  1.8995
   79SOL     OW  235   2.082   1.303   1.930 -0.6311 -0.0513 -0.1953
   79SOL    HW1  236   2.131   1.240   1.996 -0.4462 -0.8066  0.9952
   79SOL    HW2  237   1.986   1.276   1.907  1.0432 -1.6108  1.2608
   80SOL     OW  238   0.991   0.484   1.493  0.1296  0.3976 -0.5207
   80SOL    HW1  239   1.003   0.507   1.395 -0.2319 -0.6778  0.2881
   80SOL    HW2  240   1.017   0.561   1.559  0.5016  0.3321 -0.2141
   81SOL     OW  241   0.939   2.590   0.765 -0.2232  0.0862 -0.4740
   81SOL    HW1  242   0.987   2.657   0.826  2.3185  3.7910  1.0137
   81SOL    HW2  243   0.940   2.501   0.807  1.1750  1.2629  1.2068
   82SOL     OW  244   1.249   0.312   1.757 -0.1009  0.4845 -0.1629
   82SOL    HW1  245   1.344   0.332   1.724  0.8203 -1.1877 -1.3122
   82SOL    HW2  246   1.242   0.219   1.794 -0.8619  1.0149 -0.6076
   83SOL     OW  247   0.414   2.306   0.596 -0.7072  0.0781  0.3671
   83SOL    HW1  248   0.376   2.214   0.563 -0.7852 -2.3930 -2.4346
   83SOL    HW2  249   0.392   2.326   0.695 -1.5892  0.0701  0.2762
   84SOL     OW  250   2.654   1.493   2.994 -0.1095 -0.2468 -0.6953
   84SOL    HW1  251   2.735   1.431   2.991 -3.0152  0.0498  0.9690
   84SOL    HW2  252   2.683   1.583   3.031  2.0798 -0.0274  1.3294
   85SOL     OW  253   2.752   2.391   1.742 -0.1549 -0.6104  0.1843
   85SOL    HW1  254   2.663   2.354   1.706 -2.5126  0.8443 -1.7691
   85SOL    HW2  255   2.769   2.354   1.835  1.3297  2.6208  0.8381
   86SOL     OW  256   1.577   2.692   1.222 -0.2102  0.0771 -0.2119
   86SOL    HW1  257   1.662   2.640   1.227  1.2163  1.7827 -0.7348
   86SOL    HW2  258   1.564   2.753   1.141 -1.5765 -0.1477 -1.5867
   87SOL     OW  259   2.817   1.802   0.366 -0.5014  0.0411 -0.3245
   87SOL    HW1  260   2.714   1.806   0.389 -2.6470 -0.1139  1.7035
   87SOL    HW2  261   2.845   1.783   0.270  1.9147  0.1285 -0.9753
   88SOL     OW  262   0.814   0.434   1.031  0.3761 -0.1313 -0.1876
   88SOL    HW1  263   0.715   0.462   1.029 -1.2025  0.6002  0.8434
   88SOL    HW2  264   0.825   0.333   1.043 -0.1951 -1.9650 -0.1796
   89SOL     OW  265   0.741   2.969   1.773  0.1576 -0.7856 -0.4141
   89SOL    HW1  266   0.738   3.025   1.863 -0.3065  0.6047  2.0384
   89SOL    HW2  267   0.693   2.880   1.783 -0.0273 -1.3686 -0.1582
   90SOL     OW  268   2.948   1.766   0.998  0.1846  0.1770  0.4458
   90SOL    HW1  269   2.946   1.832   0.918 -0.5871 -2.4520  0.3392
   90SOL    HW2  270   2.978   1.813   1.080 -2.3164  0.0410 -1.0407
   91SOL     OW  271   1.300   1.728   1.172 -0.5158  0.0301 -0.1522
   91SOL    HW1  272   1.383   1.697   1.227  0.2453 -1.4628 -0.6194
   91SOL    HW2  273   1.226   1.661   1.185 -0.1272 -0.2654  0.8162
   92SOL     OW  274   2.689   0.042   1.674 -0.4317 -0.2603  0.1521
   92SOL    HW1  275   2.644   0.115   1.734 -1.3359 -0.8075  0.7940
   92SOL    HW2  276   2.740   3.078   1.730 -0.1092  2.5972 -2.5344
   93SOL     OW  277   0.252   1.098   2.811 -0.1596  0.2498 -0.3299
   93SOL    HW1  278   0.305   1.047   2.881  2.7198 -1.6248  1.6943
   93SOL    HW2  279   0.309   1.140   2.738 -0.8557 -1.4244 -1.3897
   94SOL     OW  280   2.338   0.109   1.818 -0.5604 -0.1526 -0.2421
   94SOL    HW1  281   2.283   0.131   1.905 -1.0190  2.1129  0.7685
   94SOL    HW2  282   2.396   0.188   1.793  1.8490  0.1750  3.1352
   95SOL     OW  283   1.616   0.722   1.989  0.0503  0.6985 -0.3825
   95SOL    HW1  284   1.520   0.687   2.003 -0.2954 -1.0095 -0.6006
   95SOL    HW2  285   1.628   0.764   1.896 -0.6622 -1.3778  0.8677
   96SOL     OW  286   2.962   0.601   1.653  0.4264 -0.3459 -0.4641
   96SOL    HW1  287   2.991   0.596   1.750  0.7286 -2.8017 -2.3878
   96SOL    HW2  288   2.897   0.684   1.642 -1.9044 -0.6576 -0.3122
   97SOL     OW  289   2.356   0.050   1.392  0.2126  0.0021 -0.1917
   97SOL    HW1  290   2.425   3.074   1.401 -1.3551  0.9922  1.1435
   97SOL    HW2  291   2.294   0.052   1.477 -0.0399  1.3363  0.6827
   98SOL     OW  292   2.045   2.423   1.570 -0.0136 -0.2256 -0.0820
   98SOL    HW1  293   2.071   2.395   1.666 -0.2365  2.7511  0.2421
   98SOL    HW2  294   1.941   2.439   1.558 -1.9413 -1.7152 -0.2764
   99SOL     OW  295   2.506   0.535   1.590 -0.2451 -0.2673  0.5482
   99SOL    HW1  296   2.417   0.517   1.542  1.8377 -1.4498  0.9431
   99SOL    HW2  297   2.489   0.599   1.675 -0.6528  1.0057  2.3944
  100SOL     OW  298   2.317   1.621   1.978 -0.0374  0.2864  0.1810
  100SOL    HW1  299   2.334   1.523   1.949 -1.5196 -1.5580 -1.6699
  100SOL    HW2  300   2.230   1.618   2.041 -0.4182  1.0288 -1.0372
  101SOL     OW  301   2.224   0.105   3.060  0.2411  0.4717  0.6090
  101SOL    HW1  302   2.277   0.027   0.009  1.4919 -2.1828  0.6222
  101SOL    HW2  303   2.160   0.153   0.030 -2.0028 -0.0929  1.7267
  102SOL     OW  304   0.643   0.593   1.280  0.7719 -0.3926 -0.2033
  102SOL    HW1  305   0.650   0.507   1.327 -0.9277  0.7416 -0.4974
  102SOL    HW2  306   0.601   0.594   1.191 -0.5879 -2.8482  1.4054
  103SOL     OW  307   2.942   0.168   2.327 -0.2702 -0.9914 -0.5100
  103SOL    HW1  308   2.899   0.079   2.332  1.6104  2.2940 -1.4336
  103SOL    HW2  309   3.043   0.162   2.310 -0.5054  1.9399 -1.0606
  104SOL     OW  310   0.033   2.877   1.604  0.1341  0.0129 -0.2535
  104SOL    HW1  311   3.090   2.821   1.533  0.0959  1.1483  2.1924
  104SOL    HW2  312   0.009   2.840   1.694 -3.8098  1.7111  2.2535
  105SOL     OW  313   1.407   1.128   2.002  0.0262 -0.3012  0.1356
  105SOL    HW1  314   1.317   1.179   2.017 -1.4016  1.6127  1.8067
  105SOL    HW2  315   1.398   1.076   1.912 -0.6334  1.3641  0.6853
  106SOL     OW  316   1.882   0.551   0.680 -0.5787  0.1384  0.0118
  106SOL    HW1  317   1.835   0.477   0.740 -1.7308 -0.7063  3.7618
  106SOL    HW2  318   1.818   0.631   0.663  0.0306  0.7902 -1.0358
  107SOL     OW  319   0.556   0.916   1.386  0.5558  0.1854 -0.3454
  107SOL    HW1  320   0.494   0.840   1.430 -3.3223 -1.1014 -0.8736
  107SOL    HW2  321   0.643   0.874   1.371 -2.7208  0.5159  1.6016
  108SOL     OW  322   3.053   0.506   2.269 -0.6463 -0.0065  0.0804
  108SOL    HW1  323   2.994   0.465   2.195 -1.1988 -2.6797  0.5765
  108SOL    HW2  324   3.028   0.462   2.363  1.0378  0.2384  2.6990
  109SOL     OW  325   2.006   3.090   2.704  0.0394 -0.2098  0.2481
  109SOL    HW1  326   2.092   3.073   2.765  1.4050 -0.4917  2.5394
  109SOL    HW2  327   1.998   3.009   2.646  0.2017  1.2434  2.5328
  110SOL     OW  328   0.039   1.726   2.862  0.1750  0.4280 -0.4699
  110SOL    HW1  329   3.042   1.745   2.836  0.3372  0.2316 -1.1796
  110SOL    HW2  330   0.062   1.790   2.942  2.2559  4.0492  2.9628
  111SOL     OW  331   2.802   0.550   2.587 -0.0941 -0.3524 -0.7401
  111SOL    HW1  332   2.746   0.492   2.652  1.3959 -2.6250 -0.8968
  111SOL    HW2  333   2.879   0.497   2.544 -0.1353 -1.9303  1.0037
  112SOL     OW  334   2.816   2.723   1.134  0.0793 -0.4018  0.2562
  112SOL    HW1  335   2.734   2.680   1.180 -2.3008 -2.1701  0.7288
  112SOL    HW2  336   2.892   2.658   1.147 -2.1754 -2.1833 -0.0660
  113SOL     OW  337   2.162   2.157   2.204 -0.3892 -0.2721 -0.2806
  113SOL    HW1  338   2.152   2.243   2.260 -0.0219 -0.1822 -2.4686
  113SOL    HW2  339   2.084   2.094   2.207 -0.6096 -3.2624  2.2408
  114SOL     OW  340   2.748   0.127   0.267  0.4081 -0.3286 -0.3665
  114SOL    HW1  341   2.655   0.098   0.303 -2.8391 -0.9568  0.7799
  114SOL    HW2  342   2.796   0.186   0.339  0.0586 -1.8390  2.2290
  115SOL     OW  343   2.766   1.744   3.066  0.0746  0.0025 -0.4222
  115SOL    HW1  344   2.845   1.754   0.034  2.6207 -1.4983  1.0013
  115SOL    HW2  345   2.799   1.760   2.970 -0.8944 -3.0649  2.1709
  116SOL     OW  346   0.109   1.467   1.944  0.1343  0.2759  0.3568
  116SOL    HW1  347   0.053   1.448   1.860 -0.1380  2.4417  1.0169
  116SOL    HW2  348   0.180   1.399   1.965 -1.1745  0.9365 -3.2982
  117SOL     OW  349   2.222   0.184   0.995 -0.5574  0.0753  0.4590
  117SOL    HW1  350   2.159   0.114   0.956 -1.0495 -1.2409 -0.7588
  117SOL    HW2  351   2.176   0.233   1.070  1.6088  1.1764 -0.0617
  118SOL     OW  352   2.812   2.254   1.979  0.6879  0.4858 -0.4427
  118SOL    HW1  353   2.780   2.164   1.941  2.0924 -1.6080  1.1268
  118SOL    HW2  354   2.911   2.264   1.966 -2.7717 -0.4855  1.1157
  119SOL     OW  355   0.773   1.732   1.254 -0.2773 -0.1508 -0.3604
  119SOL    HW1  356   0.793   1.820   1.305 -2.4630  0.6585  0.5627
  119SOL    HW2  357   0.683   1.696   1.290  0.4878  1.3344 -0.8075
  120SOL     OW  358   0.264   1.566   1.206 -0.3280  0.4057  0.0127
  120SOL    HW1  359   0.209   1.486   1.164  0.6511 -1.3732 -2.0111
  120SOL    HW2  360   0.271   1.643   1.144  0.7084 -2.8461  0.1718
  121SOL     OW  361   1.886   1.364   0.962  0.0919 -0.5703 -0.4278
  121SOL    HW1  362   1.904   1.460   0.931 -1.1855 -1.5086  0.1388
  121SOL    HW2  363   1.885   1.358   1.069  3.9570 -1.3881  1.2750
  122SOL     OW  364   1.899   1.816   2.641 -0.0198  0.6629  0.2028
  122SOL    HW1  365   1.825   1.748   2.629  0.5740 -0.6180 -1.1914
  122SOL    HW2  366   1.944   1.836   2.553  0.4849 -0.6583  0.0588
  123SOL     OW  367   2.906   2.991   0.280  0.4293  0.4230 -0.1755
  123SOL    HW1  368   2.841   3.062   0.304 -3.4910  1.0406  1.5014
  123SOL    HW2  369   2.908   2.917   0.348 -0.8946 -0.8204 -0.0840
  124SOL     OW  370   0.994   1.272   0.445 -0.1313  0.7702 -0.5801
  124SOL    HW1  371   0.941   1.225   0.523  1.3945  1.9242  2.2003
  124SOL    HW2  372   1.044   1.356   0.467 -0.3982 -0.5135 -1.5040
  125SOL     OW  373   0.294   1.396   2.396  0.2853  0.0874  0.0453
  125SOL    HW1  374   0.301   1.498   2.387 -0.4689  2.0504  0.9544
  125SOL    HW2  375   0.375   1.356   2.349 -0.5583  1.0580  0.1929
  126SOL     OW  376   0.011   2.554   0.091  0.4588 -0.6735  0.2270
  126SOL    HW1  377   3.059   2.630   0.049  0.8919 -2.0659 -0.3783
  126SOL    HW2  378   0.088   2.594   0.145  0.0372  2.5882 -1.9932
  127SOL     OW  379   2.862   1.769   0.660  0.3459  0.3148 -0.0806
  127SOL    HW1  380   2.855   1.796   0.564  0.6149 -1.4247  2.9218
  127SOL    HW2  381   2.854   1.667   0.672  1.2355  1.4840  0.5199
  128SOL     OW  382   1.162   1.136   0.687 -0.3036  0.3768 -0.0369
  128SOL    HW1  383   1.148   1.222   0.742 -1.3215 -0.4883  0.5972
  128SOL    HW2  384   1.233   1.069   0.724  1.3195  1.3739 -0.3966
  129SOL     OW  385   2.215   2.096   1.136 -0.4707  0.1425  0.0817
  129SOL    HW1  386   2.234   2.062   1.041  0.3835 -1.6315 -0.0761
  129SOL    HW2  387   2.185   2.025   1.202  2.5447 -1.7756 -0.8376
  130SOL     OW  388   1.979   1.035   0.801 -0.2905  0.1419  0.2789
  130SOL    HW1  389   1.886   1.051   0.836  3.4967 -0.6150 -1.4730
  130SOL    HW2  390   2.046   1.112   0.828  2.4051  2.1752 -0.2730
  131SOL     OW  391   2.935   1.185   2.757 -0.1735 -0.0120  0.3097
  131SOL    HW1  392   2.864   1.242   2.704 -2.8677 -3.1293  2.4307
  131SOL    HW2  393   2.938   1.088   2.718 -2.8500 -0.0741 -1.6881
  132SOL     OW  394   1.633   1.234   2.109  0.0153 -0.3054  0.2147
  132SOL    HW1  395   1.649   1.173   2.193  4.1980  1.3024  2.9410
  132SOL    HW2  396   1.540   1.213   2.064 -2.7476  0.0640 -1.2972
  133SOL     OW  397   2.998   1.058   0.276  0.4149  0.8378  0.1038
  133SOL    HW1  398   2.995   1.005   0.363 -0.4129 -2.4265  2.2052
  133SOL    HW2  399   3.048   1.146   0.285 -1.4531  2.6480 -0.3058
  134SOL     OW  400   2.697   0.850   0.347  0.3802 -0.3099 -0.3685
  134SOL    HW1  401   2.721   0.782   0.268  0.1685 -1.5859 -0.3439
  134SOL    HW2  402   2.624   0.916   0.319 -0.4406 -0.6842  2.5678
  135SOL     OW  403   1.561   0.774   3.032 -0.4254 -0.2963 -0.0649
  135SOL    HW1  404   1.626   0.725   2.968  0.5768  1.5186 -2.1447
  135SOL    HW2  405   1.554   0.719   0.023 -1.9031 -1.4240 -0.6682
  136SOL     OW  406   1.837   1.932   1.745 -0.3686 -0.1907  0.3546
  136SOL    HW1  407   1.853   1.832   1.777 -1.7194 -0.6918  4.0722
  136SOL    HW2  408   1.825   1.939   1.645  1.1279  1.0091 -2.7022
  137SOL     OW  409   2.465   2.629   0.573  0.2820 -0.2580  0.5445
  137SOL    HW1  410   2.502   2.552   0.629 -1.8483  0.8002 -3.7207
  137SOL    HW2  411   2.392   2.593   0.510 -0.2383  1.5646  0.4421
  138SOL     OW  412   2.258   0.492   1.446  0.0948 -0.1553 -0.3667
  138SOL    HW1  413   2.184   0.466   1.508  0.9117 -2.3776  3.1128
  138SOL    HW2  414   2.283   0.412   1.394 -0.1659  2.4317 -0.3838
  139SOL     OW  415   2.557   0.048   2.398 -0.3915  0.5577  0.2901
  139SOL    HW1  416   2.563   0.108   2.482  1.1932  1.6805  3.3750
  139SOL    HW2  417   2.654   0.038   2.362  0.4489 -2.1262  0.8706
  140SOL     OW  418   1.148   1.843   2.073 -0.2401 -0.1910  0.2002
  140SOL    HW1  419   1.186   1.884   2.154  1.3132 -2.9579  0.7841
  140SOL    HW2  420   1.226   1.796   2.031 -0.6404  0.4098  0.5903
  141SOL     OW  421   0.863   0.718   2.507  0.0559 -0.1708  0.2540
  141SOL    HW1  422   0.924   0.785   2.553  0.4531  0.4776  1.4716
  141SOL    HW2  423   0.795   0.763   2.444  1.4520  0.5289 -0.6510
  142SOL     OW  424   2.737   2.588   2.723 -0.4300 -0.5105  0.6353
  142SOL    HW1  425   2.699   2.631   2.807 -0.7082  0.1259 -0.2156
  142SOL    HW2  426   2.698   2.497   2.692 -2.8382 -1.4972 -0.0932
  143SOL     OW  427   0.985   2.024   0.385 -0.0587  0.0833 -0.7239
  143SOL    HW1  428   1.073   2.070   0.413  2.4788  0.8613  0.6944
  143SOL    HW2  429   0.933   1.991   0.469 -0.3601  3.5036 -1.8503
  144SOL     OW  430   1.411   2.550   3.081 -0.0736  0.5712 -0.6536
  144SOL    HW1  431   1.328   2.520   3.029 -0.1352 -1.6466  0.0033
  144SOL    HW2  432   1.383   2.611   0.059  1.0699 -0.9395 -0.9418
  145SOL     OW  433   1.628   2.053   2.721 -0.1306  0.2502  0.4506
  145SOL    HW1  434   1.699   2.124   2.724 -3.0006 -0.3049 -1.0909
  145SOL    HW2  435   1.617   2.007   2.627 -0.8012 -2.5834 -0.7245
  146SOL     OW  436   2.584   3.079   2.744  0.1193 -0.1173 -0.7567
  146SOL    HW1  437   2.597   3.057   2.845 -2.2748  0.9954  3.5562
  146SOL    HW2  438   2.620   3.011   2.680 -1.3359  1.7282 -0.2954
  147SOL     OW  439   2.615   1.049   1.021 -0.5427 -0.0460 -0.0400
  147SOL    HW1  440   2.594   1.150   1.004 -0.1220  1.1714 -1.0015
  147SOL    HW2  441   2.576   0.988   0.946  0.1705 -0.7779 -0.3101
  148SOL     OW  442   2.239   2.745   0.039  0.1520  0.0246 -0.0780
  148SOL    HW1  443   2.227   2.732   0.138  0.1051 -0.5483 -0.9043
  148SOL    HW2  444   2.148   2.762   3.089  1.2292 -0.9409 -1.1027
  149SOL     OW  445   0.662   1.748   2.814 -0.2198  0.2918 -0.0709
  149SOL    HW1  446   0.575   1.740   2.762 -0.1726  1.4799 -0.8842
  149SOL    HW2  447   0.709   1.660   2.838 -0.2381  2.1829  0.3250
  150SOL     OW  448   0.365   2.523   0.440 -0.3573  0.4114  0.4835
  150SOL    HW1  449   0.429   2.594   0.470  0.9213  0.2735  0.0987
  150SOL    HW2  450   0.383   2.437   0.494 -2.6927 -3.4352  0.0909
  151SOL     OW  451   0.361   1.210   0.288 -0.2054  0.6782 -0.2752
  151SOL    HW1  452   0.360   1.110   0.323 -0.8617 -2.4773  0.2205
  151SOL    HW2  453   0.392   1.205   0.188  1.0332 -0.3859 -0.2988
  152SOL     OW  454   2.791   2.162   0.526 -0.6206  0.7730  0.4772
  152SOL    HW1  455   2.840   2.113   0.450  0.6636 -0.3882 -3.0763
  152SOL    HW2  456   2.708   2.119   0.568  0.5658 -1.0357  1.4899
  153SOL     OW  457   1.885   2.324   0.660 -0.0534  0.5563 -0.1910
  153SOL    HW1  458   1.889   2.271   0.744  2.2202  0.3430 -2.7197
  153SOL    HW2  459   1.806   2.288   0.601 -0.9413 -4.2018  0.9992
  154SOL     OW  460   0.859   2.603   1.324 -0.1916  0.1302  0.0193
  154SOL    HW1  461   0.763   2.575   1.340  1.4255  3.2389 -3.2190
  154SOL    HW2  462   0.869   2.637   1.228 -1.3750 -0.1721  0.3488
  155SOL     OW  463   2.739   1.966   0.813  0.2145 -0.8162 -0.0774
  155SOL    HW1  464   2.653   1.976   0.755 -1.8868  0.7662  1.5955
  155SOL    HW2  465   2.820   1.920   0.767 -0.3501  1.3350 -2.9383
  156SOL     OW  466   2.734   2.220   2.939 -0.2788 -0.0427 -0.5024
  156SOL    HW1  467   2.695   2.252   2.852 -0.4374  0.2773 -0.7801
  156SOL    HW2  468   2.661   2.175   2.987 -1.1425  1.0674  0.2297
  157SOL     OW  469   0.507   2.067   1.592 -0.0375  0.4851 -0.2337
  157SOL    HW1  470   0.586   2.116   1.556 -0.9899 -3.4531  0.0477
  157SOL    HW2  471   0.430   2.079   1.528  1.3025 -0.1980 -0.7892
  158SOL     OW  472   1.560   0.285   0.230 -0.6146  0.0314 -0.5924
  158SOL    HW1  473   1.638   0.340   0.277  0.3851  3.6142 -0.5857
  158SOL    HW2  474   1.569   0.300   0.133 -1.1850 -0.9415  2.3877
  159SOL     OW  475   1.538   0.592   0.127 -0.0576 -0.2105  0.5946
  159SOL    HW1  476   1.615   0.535   0.155  2.4560  0.2416  1.5170
  159SOL    HW2  477   1.452   0.531   0.122 -1.0323  0.9627 -2.4284
  160SOL     OW  478   0.786   1.558   0.706 -0.0273 -0.1966  0.3836
  160SOL    HW1  479   0.835   1.504   0.774 -2.2993  1.4646  0.1207
  160SOL    HW2  480   0.693   1.520   0.687  2.2771  2.5321  4.4625
  161SOL     OW  481   0.039   2.518   2.750 -0.1661 -0.3085  0.3050
  161SOL    HW1  482   0.020   2.433   2.694 -1.5483 -1.2957 -3.1708
  161SOL    HW2  483   0.138   2.543   2.746  1.1976 -0.8489  1.4616
  162SOL     OW  484   0.219   2.287   1.294 -0.4153  0.0720 -0.2545
  162SOL    HW1  485   0.244   2.377   1.335  0.5989 -0.2414 -0.3943
  162SOL    HW2  486   0.118   2.287   1.280  1.6699  0.1020 -0.9183
  163SOL     OW  487   0.117   0.686   2.892 -0.3664 -0.2510 -0.4082
  163SOL    HW1  488   0.095   0.709   2.793  4.4369  0.0458  3.2505
  163SOL    HW2  489   0.040   0.646   2.942 -2.4199 -0.0399  0.6632
  164SOL     OW  490   0.353   3.043   2.556  0.1086 -0.1127 -0.4046
  164SOL    HW1  491   0.439   2.993   2.568 -3.8417  0.5106 -0.1812
  164SOL    HW2  492   0.273   2.982   2.538 -0.9234  3.3544 -1.8816
  165SOL     OW  493   2.494   1.081   1.665 -0.0621  0.0238  0.0451
  165SOL    HW1  494   2.503   1.016   1.588  1.2116  0.7334 -2.0591
  165SOL    HW2  495   2.491   1.023   1.751  1.3047  1.1153  0.8217
  166SOL     OW  496   2.057   2.100   1.418 -0.1189  0.2167  0.5033
  166SOL    HW1  497   2.157   2.112   1.423  0.9088 -3.4111  1.0892
  166SOL    HW2  498   2.003   2.183   1.443 -1.7696 -0.5679  0.2797
  167SOL     OW  499   0.686   0.928   2.377 -0.5082  0.3087  0.0299
  167SOL    HW1  500   0.753   0.938   2.298  0.1639 -0.5245 -1.8422
  167SOL    HW2  501   0.724   0.976   2.460  1.4360 -0.0066 -0.5821
  168SOL     OW  502   2.168   0.133   2.020 -0.1682  0.1204 -0.4414
  168SOL    HW1  503   2.213   0.123   2.111  2.1803  1.0606  2.9276
  168SOL    HW2  504   2.105   0.059   2.006  0.7223 -2.9601  1.6440
  169SOL     OW  505   0.340   0.933   0.320 -0.4716 -0.1613  0.9109
  169SOL    HW1  506   0.396   0.852   0.353 -1.7222 -2.2722  0.3092
  169SOL    HW2  507   0.284   0.911   0.235 -0.5994 -1.5181  1.3985
  170SOL     OW  508   0.421   1.421   1.762  0.7099  0.0529 -0.1150
  170SOL    HW1  509   0.398   1.317   1.764 -3.3562 -0.4151  1.0558
  170SOL    HW2  510   0.493   1.449   1.695 -0.3275  1.0908 -1.1992
  171SOL     OW  511   1.119   2.102   1.752  0.7464 -0.8128  0.6149
  171SOL    HW1  512   1.017   2.108   1.775 -2.6075 -0.6969 -1.4442
  171SOL    HW2  513   1.131   2.154   1.667 -0.1880  0.1322  4.5177
  172SOL     OW  514   1.249   2.627   1.865  0.3439 -0.8015 -0.0181
  172SOL    HW1  515   1.205   2.716   1.890  1.9266  0.1758  0.0834
  172SOL    HW2  516   1.233   2.560   1.944 -0.6302  0.0973  0.4096
  173SOL     OW  517   1.294   2.473   0.699 -0.1464 -0.1186 -0.5320
  173SOL    HW1  518   1.242   2.383   0.688 -0.0283 -1.5427  2.1887
  173SOL    HW2  519   1.306   2.496   0.798  2.2458 -0.2953  1.4146
  174SOL     OW  520   2.436   0.047   0.337 -0.1164  0.6715  0.1641
  174SOL    HW1  521   2.444   3.088   0.421  0.3711 -0.3526  2.5279
  174SOL    HW2  522   2.378   0.129   0.351 -0.6374  1.2124 -0.5554
  175SOL     OW  523   0.836   1.563   0.433 -0.1563  0.0484  0.3228
  175SOL    HW1  524   0.760   1.564   0.364 -2.0089  0.7117  0.7907
  175SOL    HW2  525   0.798   1.572   0.527 -2.0542 -0.8379  0.1341
  176SOL     OW  526   0.660   1.822   0.543  0.7127  0.6796 -0.1894
  176SOL    HW1  527   0.650   1.893   0.472  2.2885 -0.3812 -1.7234
  176SOL    HW2  528   0.640   1.731   0.500  0.3107  1.2190  0.5277
  177SOL     OW  529   1.237   1.197   1.450 -0.2866  0.2375  0.1822
  177SOL    HW1  530   1.198   1.217   1.541 -1.3494 -3.5189 -0.4370
  177SOL    HW2  531   1.316   1.133   1.466  0.2047  0.8740  4.4972
  178SOL     OW  532   2.446   1.825   0.427  0.0626  0.4714 -0.2025
  178SOL    HW1  533   2.407   1.911   0.377  1.7072 -1.0333 -1.0755
  178SOL    HW2  534   2.417   1.737   0.373 -2.9914  1.2614 -0.3924
  179SOL     OW  535   1.179   2.420   2.963  0.2595  0.0020 -0.9954
  179SOL    HW1  536   1.223   2.424   2.868 -0.5763 -0.2665 -3.0374
  179SOL    HW2  537   1.215   2.332   3.005 -0.7855  1.0183 -1.1289
  180SOL     OW  538   2.063   1.369   2.209  0.1728  0.0187 -0.2917
  180SOL    HW1  539   2.068   1.467   2.188  1.1945  0.7735  0.7472
  180SOL    HW2  540   2.145   1.314   2.176  0.0172  0.5008  0.4572
  181SOL     OW  541   1.035   0.911   2.636  0.3357 -0.2136  0.3332
  181SOL    HW1  542   1.045   0.872   2.730  0.7148 -0.2542 -0.1356
  181SOL    HW2  543   1.113   0.898   2.572 -1.0727  0.4611 -0.9573
  182SOL     OW  544   2.955   1.317   2.333 -0.0658 -0.3456  0.2241
  182SOL    HW1  545   2.881   1.310   2.403  0.3813 -0.1755 -0.3559
  182SOL    HW2  546   3.032   1.379   2.362 -1.4764 -1.4593 -0.2095
  183SOL     OW  547   1.414   0.495   2.276 -0.2403  0.0294  0.3267
  183SOL    HW1  548   1.327   0.458   2.309  0.1376 -0.7776 -0.4401
  183SOL    HW2  549   1.403   0.531   2.180 -1.7432  1.5522  0.0196
  184SOL     OW  550   0.590   0.465   1.874  0.1678 -0.0049 -0.2752
  184SOL    HW1  551   0.609   0.563   1.901 -2.7434 -0.3871 -1.5461
  184SOL    HW2  552   0.572   0.466   1.775  0.7412  1.7998  2.4139
  185SOL     OW  553   1.998   1.924   0.622  0.1864  0.3189 -0.0601
  185SOL    HW1  554   2.095   1.946   0.593  1.3890  0.0934 -1.9295
  185SOL    HW2  555   1.998   1.899   0.720  1.3816  1.7616 -1.3612
  186SOL     OW  556   0.241   1.981   0.293 -0.5809 -0.1456 -0.1029
  186SOL    HW1  557   0.331   1.960   0.251  0.7880  1.7904  0.6735
  186SOL    HW2  558   0.199   1.886   0.318 -0.6559 -2.5595  1.0753
  187SOL     OW  559   2.071   2.091   0.318 -0.5077  0.0298  0.2847
  187SOL    HW1  560   2.043   2.187   0.335 -2.2225  0.4358  0.2543
  187SOL    HW2  561   2.001   2.031   0.360  1.4932  0.3819 -0.3757
  188SOL     OW  562   1.019   2.346   1.152 -0.3548 -0.2175 -0.1110
  188SOL    HW1  563   1.105   2.304   1.186  0.1452  0.3709 -1.7276
  188SOL    HW2  564   0.954   2.354   1.231  0.7892 -3.2137  0.9031
  189SOL     OW  565   2.266   1.247   2.776  0.5279  0.1075  0.2295
  189SOL    HW1  566   2.203   1.305   2.717 -0.2038  1.5677 -0.8854
  189SOL    HW2  567   2.347   1.308   2.800  0.7044  0.5724 -0.6514
  190SOL     OW  568   1.035   2.231   2.033 -0.0485  0.6998 -0.1972
  190SOL    HW1  569   1.030   2.148   1.977  0.4068  1.5395  0.5183
  190SOL    HW2  570   0.994   2.212   2.125  1.8081  2.7621  0.3306
  191SOL     OW  571   2.560   0.873   1.492 -0.1127 -0.5533 -0.0088
  191SOL    HW1  572   2.513   0.909   1.409 -0.7107  0.0079  0.4098
  191SOL    HW2  573   2.606   0.789   1.468 -0.9376  4.6993 -0.1564
  192SOL     OW  574   2.416   0.652   1.813  0.5961 -0.2982 -0.0977
  192SOL    HW1  575   2.359   0.572   1.852 -0.8020  1.7064  1.5289
  192SOL    HW2  576   2.406   0.725   1.884  1.4947 -0.2331  4.0436
  193SOL     OW  577   0.733   0.164   0.162  0.0700 -0.4757  0.2112
  193SOL    HW1  578   0.698   0.259   0.171  0.2808  2.3890  0.7615
  193SOL    HW2  579   0.709   0.116   0.246  2.2500  2.1098 -1.9736
  194SOL     OW  580   1.117   2.248   1.531  0.0487 -0.3847 -0.1464
  194SOL    HW1  581   1.175   2.244   1.450 -2.0076 -1.4775 -1.2387
  194SOL    HW2  582   1.114   2.341   1.578 -1.0836 -0.3050  0.5259
  195SOL     OW  583   2.463   1.050   0.584  0.0584 -0.1680 -0.5957
  195SOL    HW1  584   2.460   1.137   0.636 -1.5943  0.3041  0.8875
  195SOL    HW2  585   2.423   1.058   0.492 -1.4012 -2.0018  0.3438
  196SOL     OW  586   0.861   2.211   1.753 -0.0043 -0.4766  0.1838
  196SOL    HW1  587   0.817   2.284   1.693 -0.6186 -0.2472 -0.6192
  196SOL    HW2  588   0.792   2.179   1.823 -1.0085  1.9161  1.2956
  197SOL     OW  589   0.336   0.762   2.506  0.1335  0.1467  0.1582
  197SOL    HW1  590   0.311   0.837   2.438 -1.7182  3.8447 -1.0157
  197SOL    HW2  591   0.275   0.678   2.498 -1.6736 -2.5436  0.4386
  198SOL     OW  592   1.550   0.824   0.279 -0.6226 -0.4383 -0.4727
  198SOL    HW1  593   1.543   0.748   0.212  0.1673  0.2290  1.7176
  198SOL    HW2  594   1.504   0.904   0.243  2.8942  1.6143  0.6087
  199SOL     OW  595   2.629   0.588   2.131 -0.0319  0.2837 -0.5159
  199SOL    HW1  596   2.678   0.632   2.210  0.4697 -1.9200 -1.2271
  199SOL    HW2  597   2.563   0.653   2.096 -1.2500 -1.1112  1.6796
  200SOL     OW  598   2.411   2.817   2.740 -0.5766  0.3017  0.4266
  200SOL    HW1  599   2.496   2.818   2.803  2.1167  1.4374  1.4424
  200SOL    HW2  600   2.440   2.851   2.651  0.4770  0.4674  0.1507
  201SOL     OW  601   2.466   0.285   1.308  0.0615 -0.0414 -0.2737
  201SOL    HW1  602   2.428   0.197   1.343  4.0875  1.9856 -1.8669
  201SOL    HW2  603   2.494   0.276   1.207 -1.0968  0.4568  1.8419
  202SOL     OW  604   0.060   2.892   0.332  1.3641 -0.2059  0.3807
  202SOL    HW1  605   3.065   2.932   0.308 -0.5442 -0.3497 -0.5262
  202SOL    HW2  606   0.136   2.963   0.334 -0.4545  3.1964 -0.2732
  203SOL     OW  607   1.069   2.217   2.765  0.1464 -0.0811 -0.1155
  203SOL    HW1  608   0.967   2.215   2.761 -2.3063 -0.1269 -4.5229
  203SOL    HW2  609   1.110   2.125   2.777  0.3762 -0.4822 -2.1865
  204SOL     OW  610   0.706   1.885   2.446  0.0620 -0.0758  0.1349
  204SOL    HW1  611   0.712   1.948   2.368 -0.3462 -0.0010 -1.1679
  204SOL    HW2  612   0.783   1.896   2.517  1.6342  1.6116  0.8243
  205SOL     OW  613   0.969   0.979   1.104  0.5629  0.3117 -0.4383
  205SOL    HW1  614   0.909   0.919   1.163 -0.0591  0.6340  0.7098
  205SOL    HW2  615   1.040   0.922   1.060  0.9267 -0.3177 -0.2795
  206SOL     OW  616   0.066   0.721   2.632  0.5844  0.1551 -0.3252
  206SOL    HW1  617   0.086   0.824   2.627  1.6648  2.6290 -0.5619
  206SOL    HW2  618   0.106   0.663   2.556  1.4462  0.3219 -0.9440
  207SOL     OW  619   1.718   2.335   1.801 -0.3189  0.2817  0.2828
  207SOL    HW1  620   1.781   2.396   1.849 -0.5052  0.9007 -1.9525
  207SOL    HW2  621   1.619   2.348   1.832  0.5034  3.0170 -1.5350
  208SOL     OW  622   0.621   2.846   1.285  0.8813 -0.3283 -0.0399
  208SOL    HW1  623   0.644   2.873   1.380 -2.2129 -1.4723  0.3200
  208SOL    HW2  624   0.522   2.861   1.271  2.8677 -1.2684  1.6687
  209SOL     OW  625   1.482   1.376   0.159  0.3538 -0.4221  0.0500
  209SOL    HW1  626   1.431   1.419   0.237 -0.4032  1.3840  1.2552
  209SOL    HW2  627   1.580   1.366   0.189  1.6068 -0.7625  2.7396
  210SOL     OW  628   2.316   0.697   0.857  0.0178 -0.6092  0.0540
  210SOL    HW1  629   2.231   0.728   0.800 -1.6876  0.3393 -1.6552
  210SOL    HW2  630   2.359   0.618   0.808  2.2161 -2.6555 -1.6367
  211SOL     OW  631   1.558   2.744   0.329 -0.0073  0.3101 -0.1739
  211SOL    HW1  632   1.471   2.714   0.287  2.1923  2.1899  1.1724
  211SOL    HW2  633   1.615   2.805   0.266 -0.4774 -2.0347 -0.1939
  212SOL     OW  634   2.152   2.262   0.713  0.4359 -0.2146 -0.2495
  212SOL    HW1  635   2.181   2.346   0.767 -0.9897  0.4246  2.3261
  212SOL    HW2  636   2.051   2.260   0.688 -2.7140  1.2296 -1.1823
  213SOL     OW  637   1.956   0.686   2.718  0.4337  0.7031 -0.3981
  213SOL    HW1  638   2.023   0.647   2.786  0.2823 -0.8927  1.3344
  213SOL    HW2  639   1.952   0.628   2.633 -0.5277  0.1881 -1.4368
  214SOL     OW  640   1.027   1.450   1.956 -0.0655 -0.0967  0.6487
  214SOL    HW1  641   1.049   1.366   2.013  1.2806 -0.0189  0.0877
  214SOL    HW2  642   1.008   1.537   2.007  2.2841 -0.6421 -2.3265
  215SOL     OW  643   0.050   1.470   0.700  0.0309 -0.3558  0.8264
  215SOL    HW1  644   0.090   1.499   0.787  3.6621  1.3659 -1.5318
  215SOL    HW2  645   3.051   1.477   0.698  1.4122 -0.1945 -0.9158
  216SOL     OW  646   0.447   2.541   2.480 -0.6875 -0.7997 -0.0065
  216SOL    HW1  647   0.448   2.445   2.443  0.0159  0.9917 -0.0833
  216SOL    HW2  648   0.543   2.579   2.491 -1.3232 -0.6358  0.4259
  217SOL     OW  649   2.743   1.071   1.346 -0.8736 -0.0410 -0.1451
  217SOL    HW1  650   2.651   1.028   1.350  0.1113 -0.5985 -0.6747
  217SOL    HW2  651   2.752   1.158   1.288  1.4833  3.2345 -0.2893
  218SOL     OW  652   0.934   1.978   1.942 -0.1723 -0.0972 -0.4386
  218SOL    HW1  653   0.888   1.904   1.878 -2.1819 -0.6632  1.1510
  218SOL    HW2  654   1.023   1.944   1.976  1.9241 -3.1429  0.4131
  219SOL     OW  655   2.064   1.470   0.301 -0.4099 -0.2873 -0.4228
  219SOL    HW1  656   2.030   1.432   0.212 -0.1961 -1.5885 -2.3537
  219SOL    HW2  657   2.021   1.411   0.372  0.0376  0.5537 -0.0085
  220SOL     OW  658   2.116   1.067   0.397 -0.0083  0.7213 -0.3069
  220SOL    HW1  659   2.211   1.087   0.361 -0.6941 -0.9481 -0.6772
  220SOL    HW2  660   2.105   0.969   0.434  1.7728 -4.4790  1.3839
  221SOL     OW  661   2.913   0.517   0.294  0.5706 -0.3409  0.3342
  221SOL    HW1  662   3.000   0.485   0.249  1.3477 -2.3630  3.1017
  221SOL    HW2  663   2.851   0.568   0.227 -0.7869  1.2324 -0.1432
  222SOL     OW  664   1.519   1.317   0.552  0.2129 -0.2460  0.3657
  222SOL    HW1  665   1.462   1.386   0.502  0.5407 -0.4325  1.8409
  222SOL    HW2  666   1.486   1.308   0.648 -1.5655  0.2410 -0.6917
  223SOL     OW  667   0.969   0.056   2.893 -0.3260  0.4136  0.8425
  223SOL    HW1  668   0.879   0.030   2.937  0.1610  1.9165 -0.9452
  223SOL    HW2  669   0.958   0.045   2.793  2.2558  0.2033  1.0262
  224SOL     OW  670   1.111   0.172   1.151  0.4242  0.1500  0.4983
  224SOL    HW1  671   1.086   0.229   1.233 -0.7208 -0.1054  3.6217
  224SOL    HW2  672   1.159   0.091   1.190  0.2697 -0.6553  0.7529
  225SOL     OW  673   3.076   2.342   1.855  0.3392  0.1139 -0.1766
  225SOL    HW1  674   0.034   2.298   1.781  0.4358 -0.6601 -1.8617
  225SOL    HW2  675   3.026   2.423   1.817 -0.0306  1.4622  2.3191
  226SOL     OW  676   1.096   1.568   0.398 -0.2688 -0.0811 -0.6945
  226SOL    HW1  677   1.003   1.566   0.445  0.9709 -3.0610  1.0883
  226SOL    HW2  678   1.106   1.651   0.339  0.8156 -0.4194  1.6471
  227SOL     OW  679   0.533   1.559   1.010  0.9795 -0.8384  0.1468
  227SOL    HW1  680   0.614   1.566   1.079 -0.3462 -0.3851  1.0980
  227SOL    HW2  681   0.509   1.464   0.987 -0.7058 -1.0945 -0.1158
  228SOL     OW  682   3.065   1.923   0.743 -0.1305 -0.4056  0.1167
  228SOL    HW1  683   3.072   1.993   0.672 -2.5825  0.9954  1.6158
  228SOL    HW2  684   2.989   1.860   0.712 -0.3185  0.8442  0.0487
  229SOL     OW  685   2.502   0.201   2.617 -0.0754 -0.2010  0.0012
  229SOL    HW1  686   2.399   0.207   2.614 -2.9272 -2.0547  0.9022
  229SOL    HW2  687   2.524   0.119   2.673 -1.2565 -0.7979  0.4844
  230SOL     OW  688   1.741   1.131   0.912  0.3323  0.0907  0.1466
  230SOL    HW1  689   1.804   1.211   0.926  2.3701  1.4848 -1.9226
  230SOL    HW2  690   1.654   1.158   0.960 -0.9927  2.4059  1.1365
  231SOL     OW  691   1.322   1.436   2.569  0.2531 -0.1516  0.9976
  231SOL    HW1  692   1.372   1.529   2.564  0.0364  1.0611  1.2244
  231SOL    HW2  693   1.348   1.368   2.498 -0.0301 -0.7743 -1.5594
  232SOL     OW  694   2.507   2.428   0.752  0.7213  0.3555  0.2201
  232SOL    HW1  695   2.566   2.439   0.831 -0.3442 -2.4633 -1.7031
  232SOL    HW2  696   2.414   2.450   0.783  2.2031 -0.9243 -2.0531
  233SOL     OW  697   0.702   2.603   0.950 -0.1612  0.2102 -0.1516
  233SOL    HW1  698   0.708   2.707   0.935  0.8442  0.4542 -1.8011
  233SOL    HW2  699   0.763   2.563   0.873  2.0674 -1.3208 -1.0889
  234SOL     OW  700   0.586   0.562   2.781 -0.2733 -0.1278 -0.1958
  234SOL    HW1  701   0.579   0.654   2.735 -1.9826  2.3968 -1.2679
  234SOL    HW2  702   0.580   0.564   2.885  2.4906  0.9568 -1.7404
  235SOL     OW  703   2.739   0.693   2.381 -0.3032  0.1852 -0.1662
  235SOL    HW1  704   2.744   0.637   2.467  0.4111  1.9089 -1.2857
  235SOL    HW2  705   2.836   0.725   2.371  1.4128 -0.8600 -0.7742
  236SOL     OW  706   1.604   2.858   1.456 -0.7676  0.0996 -0.9480
  236SOL    HW1  707   1.592   2.791   1.378 -1.3380  0.6952  0.7886
  236SOL    HW2  708   1.606   2.803   1.540  0.2817  0.0185 -1.2778
  237SOL     OW  709   1.035   1.597   2.355 -0.8205  0.1690 -0.7262
  237SOL    HW1  710   0.936   1.610   2.327  1.0329  2.6788 -2.7178
  237SOL    HW2  711   1.038   1.556   2.448  2.1521  1.9224 -1.8423
  238SOL     OW  712   1.047   0.291   2.254  0.8211  0.2877 -0.1383
  238SOL    HW1  713   1.069   0.370   2.318 -1.7699  0.2771  0.8214
  238SOL    HW2  714   0.976   0.236   2.297 -0.6109  0.5695 -0.1325
  239SOL     OW  715   0.290   2.239   2.104 -0.5492  0.2829 -0.3032
  239SOL    HW1  716   0.389   2.241   2.077 -2.0229 -0.6398  1.2419
  239SOL    HW2  717   0.240   2.321   2.076 -0.9781 -0.4744  2.7357
  240SOL     OW  718   2.649   2.886   0.743 -0.0204  0.2276 -0.4703
  240SOL    HW1  719   2.731   2.832   0.728 -0.1605  0.6239  2.6298
  240SOL    HW2  720   2.572   2.825   0.769 -1.7812  0.3582 -3.6239
  241SOL     OW  721   2.508   1.334   0.763  0.3107  0.0938  0.2459
  241SOL    HW1  722   2.460   1.418   0.734  2.9760 -1.5719  0.2689
  241SOL    HW2  723   2.508   1.318   0.867  0.8351 -0.0176  1.2968
  242SOL     OW  724   1.910   2.399   1.985  0.2720  0.6693 -0.4301
  242SOL    HW1  725   1.984   2.374   1.920  0.3068 -2.2911 -0.0459
  242SOL    HW2  726   1.911   2.502   1.995  0.7027  1.7435  3.6020
  243SOL     OW  727   0.640   2.742   1.759  0.6010 -1.3632  0.5250
  243SOL    HW1  728   0.625   2.674   1.831 -0.3443  3.4773 -0.6246
  243SOL    HW2  729   0.724   2.719   1.708 -0.6892 -1.1691  0.5107
  244SOL     OW  730   2.253   0.689   2.554 -0.3250 -0.0335  0.5378
  244SOL    HW1  731   2.219   0.640   2.471  0.4113  0.2370 -0.0382
  244SOL    HW2  732   2.346   0.731   2.547  0.4861  0.5563  1.0313
  245SOL     OW  733   1.359   0.392   1.001 -0.2968  0.2549  0.5395
  245SOL    HW1  734   1.293   0.471   0.990  2.0991  1.2191 -0.2663
  245SOL    HW2  735   1.318   0.302   0.991 -0.5403 -0.0216 -0.6220
  246SOL     OW  736   1.853   2.672   0.166  0.0716  0.1023 -0.2047
  246SOL    HW1  737   1.909   2.718   0.091  0.6667  0.1788 -1.7458
  246SOL    HW2  738   1.763   2.647   0.130  1.9989  1.4690 -0.3788
  247SOL     OW  739   1.213   0.771   2.427  0.6245 -0.4375  0.7099
  247SOL    HW1  740   1.258   0.760   2.522  0.2316  3.2099  1.1923
  247SOL    HW2  741   1.242   0.858   2.380  0.5348  1.1234  2.8359
  248SOL     OW  742   0.169   2.207   1.681 -0.3223 -0.2493  0.2891
  248SOL    HW1  743   0.213   2.164   1.595  0.8750  0.9291  0.1066
  248SOL    HW2  744   0.184   2.149   1.765  0.3094  0.7598 -0.6112
  249SOL     OW  745   2.690   0.416   0.128 -0.5580 -0.4190 -0.2841
  249SOL    HW1  746   2.774   0.373   0.172 -0.4028 -3.2101  0.5184
  249SOL    HW2  747   2.658   0.361   0.047  1.3755  1.4618 -1.1968
  250SOL     OW  748   2.786   2.949   2.591  0.0184 -0.4610  0.2923
  250SOL    HW1  749   2.873   2.972   2.641 -1.2878 -1.0527  0.7526
  250SOL    HW2  750   2.794   2.954   2.488 -0.3735  2.1547  1.0959
  251SOL     OW  751   1.295   0.695   3.010  0.1621 -0.3487  0.0652
  251SOL    HW1  752   1.286   0.604   3.055 -4.8762  2.3367  0.5598
  251SOL    HW2  753   1.393   0.726   3.017 -3.1458  1.2112 -0.0053
  252SOL     OW  754   1.406   2.099   1.887  0.1376 -0.2607 -0.0191
  252SOL    HW1  755   1.313   2.079   1.855  1.4674 -1.9862  0.1899
  252SOL    HW2  756   1.410   2.109   1.988 -1.3990 -1.2034 -0.8105
  253SOL     OW  757   2.296   2.497   1.134  0.1636  0.6433 -0.7682
  253SOL    HW1  758   2.334   2.595   1.136 -0.4815  1.5082 -0.8914
  253SOL    HW2  759   2.364   2.432   1.182 -0.9357  0.2844 -1.2842
  254SOL     OW  760   2.161   1.422   0.687 -0.5795  0.1708  0.3899
  254SOL    HW1  761   2.115   1.386   0.603  1.6229 -1.3957 -1.1449
  254SOL    HW2  762   2.162   1.347   0.757  0.2579  3.3450  1.0763
  255SOL     OW  763   1.258   3.075   1.247 -0.5683 -0.4642  0.0990
  255SOL    HW1  764   1.280   2.983   1.204  2.7078 -0.8899  1.6016
  255SOL    HW2  765   1.311   3.090   1.334  1.3430  2.2253 -0.4659
  256SOL     OW  766   1.820   2.250   1.293 -0.1762  0.3992  0.3846
  256SOL    HW1  767   1.906   2.257   1.235  0.5624  1.0448 -2.0840
  256SOL    HW2  768   1.783   2.153   1.294  2.3216  1.5251  2.3573
  257SOL     OW  769   0.710   2.632   2.542 -0.3761 -0.2640  0.0276
  257SOL    HW1  770   0.769   2.657   2.460  0.8102  2.6998 -1.9289
  257SOL    HW2  771   0.744   2.671   2.635  3.2071  0.8930  1.4358
  258SOL     OW  772   0.785   2.637   0.529 -0.3459  0.0315 -0.0975
  258SOL    HW1  773   0.813   2.718   0.471  0.4657  1.6312 -0.5872
  258SOL    HW2  774   0.847   2.629   0.613  1.4833  1.3099  3.1704
  259SOL     OW  775   1.501   0.187   2.669  0.4607 -1.0752  0.2115
  259SOL    HW1  776   1.468   0.139   2.752  0.2772 -0.0908 -0.7565
  259SOL    HW2  777   1.534   0.277   2.700  0.9859  2.1689  1.1008
  260SOL     OW  778   2.673   0.657   1.414 -0.7738  0.1615 -0.2970
  260SOL    HW1  779   2.716   0.589   1.353 -0.8261  1.5032  0.6048
  260SOL    HW2  780   2.626   0.597   1.486  0.7174  0.0031 -0.8329
  261SOL     OW  781   0.818   0.484   2.639 -0.0216 -0.1936 -0.3330
  261SOL    HW1  782   0.739   0.517   2.699 -2.3931  1.5120  1.0022
  261SOL    HW2  783   0.836   0.558   2.566  0.7441  0.5190  1.5511
  262SOL     OW  784   1.450   2.355   2.199 -0.3652  0.1959  0.1856
  262SOL    HW1  785   1.386   2.420   2.154 -0.1958  0.5805  1.6134
  262SOL    HW2  786   1.548   2.371   2.179 -0.1393 -0.7352  1.0854
  263SOL     OW  787   0.528   2.011   2.835  0.5417  0.2356  0.4202
  263SOL    HW1  788   0.549   2.111   2.828 -2.6044 -1.3200  0.2490
  263SOL    HW2  789   0.610   1.948   2.840 -0.7946 -0.0769 -1.1358
  264SOL     OW  790   1.152   1.594   0.777 -0.3370 -0.2570 -0.5521
  264SOL    HW1  791   1.089   1.675   0.759 -0.6287 -0.6832  2.1783
  264SOL    HW2  792   1.254   1.623   0.757  2.7980 -1.2325 -1.2452
  265SOL     OW  793   1.199   2.616   0.457 -0.1869  0.0086  0.7015
  265SOL    HW1  794   1.155   2.540   0.403  0.9396  0.2116 -1.4891
  265SOL    HW2  795   1.223   2.582   0.546 -1.0229 -0.7021 -4.9640
  266SOL     OW  796   1.949   0.649   0.999 -0.0699  0.3657 -0.2690
  266SOL    HW1  797   2.027   0.590   1.020 -0.3930  3.2970  1.0932
  266SOL    HW2  798   1.958   0.733   1.057 -0.6628 -1.1109  1.2640
  267SOL     OW  799   0.097   1.324   2.741 -0.1065  0.2822 -0.2079
  267SOL    HW1  800   0.158   1.261   2.786 -3.4273  1.1981  0.1297
  267SOL    HW2  801   3.099   1.283   2.752 -0.3166 -0.9385  1.2741
  268SOL     OW  802   1.647   2.969   0.187 -0.1556  0.6461  0.4843
  268SOL    HW1  803   1.743   3.001   0.192 -3.8996 -3.8265 -0.0191
  268SOL    HW2  804   1.588   3.030   0.238  0.9872  1.7817 -2.0120
  269SOL     OW  805   2.836   0.785   2.721 -0.2930  0.5628 -0.3741
  269SOL    HW1  806   2.835   0.691   2.680 -1.8459 -3.1058 -1.0019
  269SOL    HW2  807   2.894   0.847   2.670 -0.4460  0.7029 -0.2783
  270SOL     OW  808   0.030   1.581   0.202  0.0926  0.1755  0.5838
  270SOL    HW1  809   3.059   1.508   0.210 -0.7584  0.2723  2.7481
  270SOL    HW2  810   0.096   1.552   0.128 -1.4161  0.8240  0.1622
  271SOL     OW  811   2.761   1.311   2.537  0.0520  0.2096  0.0971
  271SOL    HW1  812   2.674   1.361   2.511 -1.7952 -1.0424  0.9581
  271SOL    HW2  813   2.752   1.207   2.547 -3.0118  0.6049 -0.3248
  272SOL     OW  814   2.778   2.497   2.325 -0.1146  0.0227 -0.1101
  272SOL    HW1  815   2.871   2.511   2.359 -1.9665 -1.5925  0.2244
  272SOL    HW2  816   2.761   2.396   2.301  0.9667  0.0172 -0.7980
  273SOL     OW  817   0.163   2.747   0.570  0.2910  0.0254  0.2907
  273SOL    HW1  818   0.268   2.749   0.554  3.0177  3.2965 -0.5509
  273SOL    HW2  819   0.115   2.794   0.490 -0.5976  3.1979 -0.2502
  274SOL     OW  820   0.945   2.329   0.883  0.8306  0.4040  0.1036
  274SOL    HW1  821   1.010   2.293   0.808 -0.7280 -0.0376 -0.3741
  274SOL    HW2  822   0.982   2.328   0.981  2.3216  0.7698  0.4422
  275SOL     OW  823   2.351   1.612   0.306 -0.3539  0.0276 -0.4811
  275SOL    HW1  824   2.254   1.578   0.295  1.9755  0.3232  1.5134
  275SOL    HW2  825   2.414   1.570   0.232  2.0269 -1.4427  0.0110
  276SOL     OW  826   2.547   1.527   1.200 -0.0175  0.1415 -0.4145
  276SOL    HW1  827   2.613   1.479   1.263  3.0392 -0.3419 -1.3050
  276SOL    HW2  828   2.570   1.624   1.179 -1.4130  1.5762 -0.9291
  277SOL     OW  829   2.410   0.044   0.798  0.0881  0.2095  0.5272
  277SOL    HW1  830   2.333   0.042   0.868 -1.5564  1.1192 -1.8186
  277SOL    HW2  831   2.504   0.032   0.834 -0.4373 -1.2005  0.5866
  278SOL     OW  832   1.511   0.260   2.398 -0.0979  0.1957 -0.0991
  278SOL    HW1  833   1.501   0.363   2.391  1.7497  0.4454  2.4109
  278SOL    HW2  834   1.499   0.233   2.498  0.1974 -1.6278 -1.9269
  279SOL     OW  835   1.327   2.660   1.307 -0.1396 -0.6692  0.8019
  279SOL    HW1  836   1.424   2.657   1.273  0.0232  1.6374  1.0409
  279SOL    HW2  837   1.261   2.630   1.233  0.2005 -3.1492 -2.2439
  280SOL     OW  838   0.943   0.979   0.632 -0.1277  0.1007  0.3297
  280SOL    HW1  839   0.865   1.041   0.618 -0.2028  0.8933  0.2996
  280SOL    HW2  840   1.021   1.030   0.678  2.3954 -0.2341 -0.4902
  281SOL     OW  841   2.508   1.442   2.538  0.3626 -0.0272 -0.0448
  281SOL    HW1  842   2.526   1.536   2.573 -2.1459 -0.4047  0.6188
  281SOL    HW2  843   2.426   1.442   2.473 -2.0919 -1.9287  0.5089
  282SOL     OW  844   2.960   1.367   0.178  0.0110  0.1361 -0.5739
  282SOL    HW1  845   2.869   1.315   0.187  0.1698 -1.5868 -1.2722
  282SOL    HW2  846   3.028   1.339   0.245 -0.8028  1.2994 -0.5209
  283SOL     OW  847   1.836   2.614   2.576  0.4074  0.9364 -0.6057
  283SOL    HW1  848   1.856   2.629   2.481 -2.8988 -1.7559 -1.7276
  283SOL    HW2  849   1.813   2.514   2.591  0.1616  1.4302 -1.2095
  284SOL     OW  850   0.749   0.047   3.019  0.8213 -0.2966 -0.3578
  284SOL    HW1  851   0.731   0.110   0.005 -0.1384  1.2954  2.7698
  284SOL    HW2  852   0.679   0.082   2.949  0.0166  0.6483 -2.3528
  285SOL     OW  853   2.204   1.579   2.508 -0.7268 -0.2890 -0.0833
  285SOL    HW1  854   2.243   1.601   2.601  2.0106  2.3877  2.2259
  285SOL    HW2  855   2.148   1.655   2.471  1.9354  0.4298 -1.4962
  286SOL     OW  856   1.218   2.088   0.906  0.2958  0.4415 -0.4384
  286SOL    HW1  857   1.148   2.029   0.954 -0.1131 -0.7214  0.8719
  286SOL    HW2  858   1.308   2.085   0.952  0.4094 -1.3643  0.2213
  287SOL     OW  859   1.745   0.259   1.211 -0.3026  0.0745 -0.7014
  287SOL    HW1  860   1.751   0.220   1.308  2.0773  1.6838  5.0336
  287SOL    HW2  861   1.809   0.341   1.208  2.0551  2.0055 -1.0641
  288SOL     OW  862   0.901   2.694   2.360  0.4785 -0.4498  0.3526
  288SOL    HW1  863   0.990   2.669   2.401 -0.3191 -2.1222 -0.0337
  288SOL    HW2  864   0.904   2.687   2.260 -0.5564  3.5021  0.3919
  289SOL     OW  865   0.063   1.227   0.604  1.0012 -0.2285 -0.0333
  289SOL    HW1  866   0.067   1.329   0.619 -1.6499  0.8759 -2.6831
  289SOL    HW2  867   3.076   1.185   0.644 -2.1830 -1.0341  0.3057
  290SOL     OW  868   1.239   2.242   1.248 -0.9481  0.0723  0.1755
  290SOL    HW1  869   1.333   2.284   1.223  3.4942  1.0770  1.0462
  290SOL    HW2  870   1.235   2.143   1.222  0.9191  0.6270  0.9810
  291SOL     OW  871   1.804   2.833   0.833  0.3784  1.2765 -0.7619
  291SOL    HW1  872   1.847   2.909   0.781 -0.5393  0.6139  0.7297
  291SOL    HW2  873   1.765   2.760   0.767 -2.1719  1.2949 -2.6883
  292SOL     OW  874   0.444   0.101   1.955  0.3896  0.5343 -0.2813
  292SOL    HW1  875   0.403   0.016   1.911  0.4828 -2.0060  1.0547
  292SOL    HW2  876   0.510   0.073   2.023 -1.2973  1.6437  3.5780
  293SOL     OW  877   2.279   1.858   0.650 -0.4347  0.1213  0.0139
  293SOL    HW1  878   2.298   1.791   0.724 -1.0740 -2.4221 -0.0518
  293SOL    HW2  879   2.329   1.830   0.563 -0.4316 -0.0010 -3.3388
  294SOL     OW  880   0.969   3.060   2.146 -0.2365  0.2591 -0.5254
  294SOL    HW1  881   1.033   0.040   2.148 -0.1769 -0.2100  2.0298
  294SOL    HW2  882   1.027   2.984   2.193  4.1879 -1.6415  1.1388
  295SOL     OW  883   1.033   1.243   1.105  0.2264  0.0789  0.3000
  295SOL    HW1  884   1.131   1.262   1.126 -1.0402 -1.6306 -3.5786
  295SOL    HW2  885   1.012   1.142   1.098  0.4640 -1.3556  0.5875
  296SOL     OW  886   2.230   2.041   0.861  0.1607 -0.1394  0.1619
  296SOL    HW1  887   2.258   1.972   0.791 -1.2396  1.9458  0.4814
  296SOL    HW2  888   2.226   2.136   0.818 -1.5296  2.5424  0.9644
  297SOL     OW  889   2.233   3.054   2.836  0.4842  0.2828 -0.3963
  297SOL    HW1  890   2.270   2.962   2.835 -2.1842  3.2704 -0.5639
  297SOL    HW2  891   2.267   0.009   2.919 -0.3097 -0.2722 -2.2976
  298SOL     OW  892   1.192   0.212   2.529 -0.8534  0.1821 -0.2005
  298SOL    HW1  893   1.114   0.194   2.463  1.9002 -0.0361  0.6233
  298SOL    HW2  894   1.247   0.128   2.548 -1.7663  1.2111 -0.9112
  299SOL     OW  895   1.097   2.839   1.965  0.2986 -0.0142  0.2631
  299SOL    HW1  896   1.062   2.911   1.898  0.2979  0.1720  0.0175
  299SOL    HW2  897   1.136   2.880   2.048  2.3095  0.4118  0.4637
  300SOL     OW  898   2.498   0.331   1.768 -0.2152  0.1733  0.5432
  300SOL    HW1  899   2.518   0.358   1.864  1.3866 -1.3489 -1.5210
  300SOL    HW2  900   2.518   0.414   1.708  0.2531  1.2935  0.6331
  301SOL     OW  901   2.094   0.421   1.700  0.2126  0.5165  0.4015
  301SOL    HW1  902   2.090   0.408   1.801  1.3776  1.8918  0.2070
  301SOL    HW2  903   2.050   0.342   1.650  0.4252  0.3712  2.6691
  302SOL     OW  904   0.319   2.569   3.053  0.7121  0.4454  0.3424
  302SOL    HW1  905   0.303   2.508   2.970 -1.2979 -1.2304  0.1064
  302SOL    HW2  906   0.325   2.508   0.035  0.0697 -1.5254 -1.3921
  303SOL     OW  907   1.694   1.960   1.318  0.1787 -0.2684  0.1161
  303SOL    HW1  908   1.591   1.972   1.331 -1.5436 -0.2382  0.5749
  303SOL    HW2  909   1.721   1.865   1.337  0.5762  0.6118  0.5552
  304SOL     OW  910   0.152   0.588   0.976 -0.7302 -0.2137 -0.2212
  304SOL    HW1  911   0.191   0.631   1.059  0.2902 -0.7092  0.5575
  304SOL    HW2  912   0.138   0.655   0.902  0.5730  0.2152  2.1387
  305SOL     OW  913   0.806   0.786   0.800  0.1550  0.3803  0.7386
  305SOL    HW1  914   0.769   0.833   0.884  0.2240 -2.2773  1.6550
  305SOL    HW2  915   0.861   0.844   0.739 -2.8730  1.1189  0.9983
  306SOL     OW  916   0.454   0.988   2.976  0.8578 -0.2423 -0.6451
  306SOL    HW1  917   0.527   0.961   2.911  1.4029  0.3356 -0.1521
  306SOL    HW2  918   0.409   0.902   3.009 -0.8853 -1.2065  0.1657
  307SOL     OW  919   1.183   0.276   1.477 -0.1942  0.1527 -0.0786
  307SOL    HW1  920   1.119   0.346   1.505  0.6040 -2.7393 -1.1386
  307SOL    HW2  921   1.195   0.212   1.557  1.2347 -0.1003 -0.9528
  308SOL     OW  922   0.435   0.732   0.966  0.5531 -0.4738 -0.8205
  308SOL    HW1  923   0.419   0.745   0.870 -2.1894 -0.1753 -0.4444
  308SOL    HW2  924   0.356   0.758   1.024  0.0167  0.5584 -2.4112
  309SOL     OW  925   2.535   0.890   0.812 -0.0233  0.2647 -0.5453
  309SOL    HW1  926   2.452   0.830   0.835  0.2174 -2.8382 -1.8330
  309SOL    HW2  927   2.511   0.937   0.723 -2.1059 -2.2314 -2.7557
  310SOL     OW  928   0.958   1.290   2.820  0.2730 -0.2707  0.2177
  310SOL    HW1  929   1.052   1.249   2.827 -2.4068 -0.2668 -0.7056
  310SOL    HW2  930   0.891   1.228   2.865 -0.5165  1.2988 -1.9098
  311SOL     OW  931   2.434   2.697   2.255 -0.0950 -0.2148  0.3764
  311SOL    HW1  932   2.503   2.693   2.328 -1.8427 -0.6005 -3.3120
  311SOL    HW2  933   2.343   2.715   2.291  0.4115 -1.0023 -3.1951
  312SOL     OW  934   2.007   2.182   0.027  0.3331  0.4183  0.4011
  312SOL    HW1  935   2.086   2.181   3.064  0.8924 -0.7711 -2.9842
  312SOL    HW2  936   1.988   2.273   0.070 -0.9032  0.4631  0.8607
  313SOL     OW  937   0.264   0.096   0.119 -0.2336 -0.2362  0.3325
  313SOL    HW1  938   0.274   0.196   0.132 -0.8876 -0.6873  0.9113
  313SOL    HW2  939   0.306   0.064   0.034 -1.7386  3.2146  3.0624
  314SOL     OW  940   2.504   1.363   2.809 -0.1043  0.4886  0.4332
  314SOL    HW1  941   2.556   1.409   2.886 -2.8795  1.0337  0.1972
  314SOL    HW2  942   2.521   1.411   2.720 -0.4991 -0.8491 -0.8398
  315SOL     OW  943   1.784   0.503   2.095 -0.1562  0.2226 -0.1681
  315SOL    HW1  944   1.820   0.559   2.169  1.2565 -0.0518 -2.6303
  315SOL    HW2  945   1.711   0.559   2.050  0.2570 -0.7514  0.1730
  316SOL     OW  946   2.914   1.115   0.684  0.2980 -0.1826 -0.0741
  316SOL    HW1  947   2.894   1.077   0.777  2.8169 -0.0313  0.0324
  316SOL    HW2  948   2.923   1.036   0.618  1.5111  1.2024 -0.4771
  317SOL     OW  949   1.019   2.787   0.112 -0.3679  0.0647  0.0578
  317SOL    HW1  950   0.924   2.834   0.104  0.4076 -1.7896 -0.5134
  317SOL    HW2  951   1.013   2.686   0.084 -1.6545  0.7726  0.8651
  318SOL     OW  952   2.025   2.775   1.360  0.0775  0.1107 -0.6716
  318SOL    HW1  953   2.033   2.719   1.279  0.4251  1.5547 -0.2055
  318SOL    HW2  954   2.080   2.729   1.434  1.4704  1.9932  1.4016
  319SOL     OW  955   1.120   1.607   2.928 -0.1338  0.0084 -0.2587
  319SOL    HW1  956   1.036   1.623   2.987 -0.4820  0.7646  3.1121
  319SOL    HW2  957   1.200   1.609   2.994 -1.3723  2.1736  0.7851
  320SOL     OW  958   0.363   1.952   0.830 -0.0231  0.2260  0.2463
  320SOL    HW1  959   0.333   1.992   0.739  0.2834  3.7006 -1.8667
  320SOL    HW2  960   0.443   1.881   0.822 -0.6103 -0.1614 -0.2805
  321SOL     OW  961   1.904   2.668   2.000 -0.6534  0.8222 -0.1221
  321SOL    HW1  962   1.992   2.706   1.960 -0.6611 -0.1345  0.3174
  321SOL    HW2  963   1.837   2.739   2.022  1.5868  2.2855 -0.0942
  322SOL     OW  964   2.332   1.940   2.418  0.4650  0.5466 -0.1955
  322SOL    HW1  965   2.359   2.029   2.375  0.2642 -0.8876  1.9344
  322SOL    HW2  966   2.407   1.873   2.401  1.2233 -2.9879 -1.4540
  323SOL     OW  967   2.292   0.252   0.618 -0.3865 -0.4735 -0.3124
  323SOL    HW1  968   2.332   0.176   0.670 -0.3487  0.0286  1.6131
  323SOL    HW2  969   2.280   0.230   0.521 -0.8319 -0.5889  0.7951
  324SOL     OW  970   2.991   2.820   2.304 -0.3914 -0.0893 -0.6561
  324SOL    HW1  971   3.087   2.846   2.283 -1.1702 -0.1189 -0.6686
  324SOL    HW2  972   2.979   2.759   2.382 -0.2457  2.0861 -0.6303
  325SOL     OW  973   1.034   0.500   2.774  0.2288  0.5234 -0.1327
  325SOL    HW1  974   1.119   0.473   2.726 -0.6421 -0.7764  1.9547
  325SOL    HW2  975   0.950   0.499   2.706 -0.4931 -1.0082 -0.1546
  326SOL     OW  976   2.436   2.505   1.425 -0.2135  0.1389  0.3901
  326SOL    HW1  977   2.423   2.604   1.444 -2.0310 -0.8861 -1.2719
  326SOL    HW2  978   2.350   2.453   1.432  2.4360  1.9400  0.2322
  327SOL     OW  979   2.361   3.016   0.099  0.0052 -0.3839 -0.1718
  327SOL    HW1  980   2.387   3.055   0.193 -1.8192  1.5497  1.0819
  327SOL    HW2  981   2.325   2.922   0.111 -2.8365  2.3098 -0.7718
  328SOL     OW  982   0.408   0.757   1.538 -0.8693 -0.2717  0.3148
  328SOL    HW1  983   0.462   0.668   1.533 -0.2450  0.5445  0.4503
  328SOL    HW2  984   0.351   0.770   1.623 -0.2789 -3.3174 -1.2978
  329SOL     OW  985   2.001   0.745   1.431 -0.2965 -0.1234 -0.0120
  329SOL    HW1  986   1.970   0.703   1.518  1.6796 -0.1861 -1.3745
  329SOL    HW2  987   2.101   0.744   1.420 -1.9111  0.4052  0.7838
  330SOL     OW  988   0.559   0.499   1.030  0.3492 -0.5892 -0.2215
  330SOL    HW1  989   0.492   0.424   1.011  2.4170 -2.1262 -0.3368
  330SOL    HW2  990   0.519   0.585   0.995  0.5375 -0.4991  1.5515
  331SOL     OW  991   0.788   1.398   1.837  0.2131 -0.2531 -0.5633
  331SOL    HW1  992   0.886   1.411   1.851 -1.9633 -0.3036  1.7113
  331SOL    HW2  993   0.757   1.426   1.746  0.8976 -1.0933  4.0072
  332SOL     OW  994   2.925   2.594   1.657 -0.1843  0.0468 -0.0261
  332SOL    HW1  995   2.956   2.652   1.737 -0.2522  0.0094  2.4581
  332SOL    HW2  996   2.866   2.515   1.699  0.8270  0.0133  1.4770
  333SOL     OW  997   3.009   2.934   1.093 -0.3191  0.6506  0.1008
  333SOL    HW1  998   3.003   2.950   0.991  1.0733 -0.2428 -0.7862
  333SOL    HW2  999   2.953   2.859   1.130  0.4449  1.4283  2.2080
  334SOL     OW 1000   0.077   1.275   0.342  0.2292 -0.5346  0.1411
  334SOL    HW1 1001   0.079   1.252   0.442  0.3890 -0.5074  0.9514
  334SOL    HW2 1002   0.166   1.292   0.296  0.0290 -1.3291 -2.2565
  335SOL     OW 1003   0.608   2.613   3.033  0.6556 -0.8117 -0.5569
  335SOL    HW1 1004   0.508   2.597   3.015 -3.5716 -0.2174 -1.6590
  335SOL    HW2 1005   0.633   2.558   0.018  1.4663  0.7984  0.5662
  336SOL     OW 1006   2.844   2.824   2.067  0.1768  0.1060  0.5149
  336SOL    HW1 1007   2.886   2.815   2.158 -2.8510  0.1872  1.1793
  336SOL    HW2 1008   2.764   2.763   2.071  1.3559  2.1993 -1.5347
  337SOL     OW 1009   1.500   1.836   1.779  0.0092 -0.0657 -0.2821
  337SOL    HW1 1010   1.403   1.840   1.740  0.9077 -0.0594 -1.4305
  337SOL    HW2 1011   1.541   1.931   1.795  1.1606  1.7274 -0.3482
  338SOL     OW 1012   0.787   0.201   2.607 -0.6088 -0.4311  0.3363
  338SOL    HW1 1013   0.819   0.300   2.619  2.0696 -1.9556 -1.2348
  338SOL    HW2 1014   0.835   0.161   2.527  2.0014  0.4308  0.1589
  339SOL     OW 1015   0.497   1.118   2.413  0.2985  0.5649  0.3549
  339SOL    HW1 1016   0.479   1.166   2.327 -0.3952  2.3853 -1.7607
  339SOL    HW2 1017   0.556   1.034   2.396  0.7244  0.1521  1.2717
  340SOL     OW 1018   2.128   0.483   1.092 -0.0462 -0.2261 -0.2199
  340SOL    HW1 1019   2.169   0.421   1.161 -2.1200  1.0923 -1.7715
  340SOL    HW2 1020   2.186   0.479   1.009  0.2609  0.6317  1.2014
  341SOL     OW 1021   2.132   1.240   0.876 -0.2417  0.3346 -0.1121
  341SOL    HW1 1022   2.043   1.276   0.908  2.6394 -0.3879 -1.7840
  341SOL    HW2 1023   2.187   1.213   0.959  1.0832  0.0222  0.3011
  342SOL     OW 1024   2.240   2.447   2.758 -0.2452 -0.3912 -0.6799
  342SOL    HW1 1025   2.323   2.439   2.817 -2.4274 -0.3993 -2.9171
  342SOL    HW2 1026   2.159   2.430   2.819 -0.6137  0.2785  1.4423
  343SOL     OW 1027   0.741   2.379   1.597 -0.2439 -0.1100  0.1400
  343SOL    HW1 1028   0.762   2.477   1.620  0.8530  4.6901 -1.9753
  343SOL    HW2 1029   0.647   2.364   1.617  2.1943  1.0857  0.1613
  344SOL     OW 1030   2.381   2.759   1.445  0.6049  0.0768 -0.0978
  344SOL    HW1 1031   2.307   2.723   1.508 -1.0682  0.7639 -1.1659
  344SOL    HW2 1032   2.430   2.841   1.481 -0.8797 -2.4099  0.6618
  345SOL     OW 1033   2.455   2.162   2.998  0.2305 -0.2556 -0.3712
  345SOL    HW1 1034   2.498   2.149   3.091 -0.5674  0.5297 -0.0566
  345SOL    HW2 1035   2.362   2.114   3.000 -1.4483 -4.1999  3.3526
  346SOL     OW 1036   1.423   2.173   1.551 -1.0794  0.2108 -0.0221
  346SOL    HW1 1037   1.425   2.091   1.482  1.9016 -2.1586 -6.7139
  346SOL    HW2 1038   1.419   2.143   1.643 -0.3731  0.6327  0.8544
  347SOL     OW 1039   1.001   1.702   1.627  0.9022 -0.0996 -0.1557
  347SOL    HW1 1040   0.990   1.780   1.563 -0.6750 -1.9167 -0.2926
  347SOL    HW2 1041   1.025   1.620   1.567  0.4733  1.1397 -0.2801
  348SOL     OW 1042   0.170   2.064   1.909  0.0272 -0.0454  0.7341
  348SOL    HW1 1043   0.204   1.968   1.915  0.9628 -3.1756 -0.7421
  348SOL    HW2 1044   0.215   2.133   1.974  0.3880  3.0495  0.3526
  349SOL     OW 1045   1.734   1.691   1.379 -0.1542 -0.8106  0.2323
  349SOL    HW1 1046   1.746   1.592   1.362 -1.0253  0.2291  0.2299
  349SOL    HW2 1047   1.827   1.735   1.385  2.5720  4.1222 -0.3811
  350SOL     OW 1048   2.386   2.236   0.585 -0.2350  0.8803 -0.3101
  350SOL    HW1 1049   2.292   2.255   0.621  1.4565  1.3683  1.9161
  350SOL    HW2 1050   2.448   2.298   0.636  3.3223 -0.7579  0.1561
  351SOL     OW 1051   0.700   2.975   1.500 -0.0392 -0.2324 -0.3681
  351SOL    HW1 1052   0.715   2.956   1.598 -1.6960  0.4660 -0.4453
  351SOL    HW2 1053   0.779   3.008   1.447  0.5150 -1.1967 -0.2602
  352SOL     OW 1054   0.129   0.943   0.817 -0.4446  0.0842  0.2348
  352SOL    HW1 1055   0.179   0.937   0.726  2.9900 -1.2276 -0.8150
  352SOL    HW2 1056   0.189   0.939   0.897  1.9373  1.6675  0.9128
  353SOL     OW 1057   1.226   1.781   2.473  0.0215 -0.1353  0.2878
  353SOL    HW1 1058   1.163   1.720   2.419  0.3999  0.0616 -1.0643
  353SOL    HW2 1059   1.318   1.744   2.490  0.5196  0.1616  1.1684
  354SOL     OW 1060   1.718   2.887   1.987 -0.2773  0.1418  0.1539
  354SOL    HW1 1061   1.691   2.964   2.054 -3.0044  0.5221 -1.1548
  354SOL    HW2 1062   1.643   2.867   1.921  1.2627  0.8533  0.4216
  355SOL     OW 1063   1.987   1.330   0.072 -0.1249  0.2015  0.5476
  355SOL    HW1 1064   2.088   1.346   0.058  3.2279  1.7036 -2.6621
  355SOL    HW2 1065   1.938   1.296   3.087 -0.4981 -3.0710 -2.4815
  356SOL     OW 1066   3.088   1.562   1.361  0.4240  0.1647 -0.6409
  356SOL    HW1 1067   0.062   1.604   1.309 -2.6332 -3.8899  1.3582
  356SOL    HW2 1068   3.081   1.462   1.343  2.3898  0.7856 -2.0252
  357SOL     OW 1069   0.305   2.640   1.439  0.0224  0.2025 -0.1226
  357SOL    HW1 1070   0.309   2.723   1.386  1.8212 -1.0477  1.3813
  357SOL    HW2 1071   0.207   2.607   1.450  1.5611  1.2826 -2.2864
  358SOL     OW 1072   2.612   1.725   1.589 -0.2477  0.3051  0.0786
  358SOL    HW1 1073   2.610   1.704   1.692  1.6062 -0.2210  1.9139
  358SOL    HW2 1074   2.705   1.700   1.554 -0.0877 -1.9570  0.3924
  359SOL     OW 1075   2.179   2.713   2.668  0.4881  0.4182 -0.2004
  359SOL    HW1 1076   2.266   2.759   2.693  3.3409  0.1205 -1.3727
  359SOL    HW2 1077   2.189   2.615   2.688  0.3945  0.3860 -0.3593
  360SOL     OW 1078   1.184   2.959   0.827  0.1835  0.0599  0.3865
  360SOL    HW1 1079   1.250   2.884   0.845 -0.9072  1.4651 -0.8441
  360SOL    HW2 1080   1.152   2.944   0.731  1.8653  2.8736  0.3258
  361SOL     OW 1081   2.085   0.507   0.253 -0.4003 -0.1913 -0.0560
  361SOL    HW1 1082   2.064   0.472   0.346 -1.9705 -1.3926 -2.6761
  361SOL    HW2 1083   2.146   0.593   0.265 -2.3522  0.6434 -0.0384
  362SOL     OW 1084   1.383   0.982   0.824 -0.5206  0.5168  0.2722
  362SOL    HW1 1085   1.437   0.934   0.758 -2.4676  1.4192  2.5195
  362SOL    HW2 1086   1.440   1.038   0.889 -0.5354 -0.7149  3.0324
  363SOL     OW 1087   2.273   1.146   2.455  0.1005  0.6990  0.1525
  363SOL    HW1 1088   2.269   1.156   2.553  1.0528  0.8508 -0.9643
  363SOL    HW2 1089   2.192   1.088   2.424 -3.0477  0.3322 -2.6851
  364SOL     OW 1090   0.255   0.203   1.118  0.2547  0.6724 -0.7107
  364SOL    HW1 1091   0.195   0.281   1.150 -1.6301 -2.1510 -0.4311
  364SOL    HW2 1092   0.212   0.115   1.150 -1.2457 -0.5456  0.9819
  365SOL     OW 1093   0.577   0.098   2.758 -0.0049 -0.6586  0.0345
  365SOL    HW1 1094   0.550   0.009   2.728  2.2981  1.7425  1.2502
  365SOL    HW2 1095   0.654   0.125   2.696 -1.5742  2.3125  1.9468
  366SOL     OW 1096   2.061   2.103   2.626  0.3142  0.4709 -0.2992
  366SOL    HW1 1097   2.145   2.053   2.659 -2.2096  0.6891 -1.0962
  366SOL    HW2 1098   2.003   2.138   2.702  1.2653  2.3991  0.7217
  367SOL     OW 1099   2.876   2.432   0.197 -0.4450 -0.1639 -0.1138
  367SOL    HW1 1100   2.806   2.507   0.186 -2.9657 -2.0408 -1.0812
  367SOL    HW2 1101   2.967   2.463   0.162  1.5111  0.4254  1.2737
  368SOL     OW 1102   2.806   1.295   1.184  0.8699  0.5894 -0.7902
  368SOL    HW1 1103   2.775   1.354   1.259  2.4653  1.2369 -3.6104
  368SOL    HW2 1104   2.818   1.350   1.096 -0.2850  0.7409  1.6122
  369SOL     OW 1105   0.961   3.018   2.616 -0.1863  0.0402 -0.1590
  369SOL    HW1 1106   0.969   2.924   2.653  1.3962  1.2860 -0.4026
  369SOL    HW2 1107   1.022   3.023   2.534  1.3798  1.0025  1.9346
  370SOL     OW 1108   2.605   0.226   0.568  0.2234  0.3441  0.3670
  370SOL    HW1 1109   2.665   0.298   0.526  2.6118 -3.3422 -2.4996
  370SOL    HW2 1110   2.508   0.230   0.537 -1.3882 -0.1541  1.5392
  371SOL     OW 1111   1.471   2.364   1.149 -0.0514  0.4680  0.7555
  371SOL    HW1 1112   1.561   2.397   1.184 -3.7871 -2.8661  0.6599
  371SOL    HW2 1113   1.435   2.442   1.095  0.5833  1.6464  0.1575
  372SOL     OW 1114   2.967   0.957   2.545 -0.5580  0.3334  0.1669
  372SOL    HW1 1115   2.956   0.909   2.453  0.1092 -1.8841  0.1640
  372SOL    HW2 1116   3.069   0.964   2.583  4.1939  2.2909  1.9199
  373SOL     OW 1117   2.608   1.786   0.979  0.9630 -0.2926  0.0563
  373SOL    HW1 1118   2.651   1.851   0.911  4.0654  0.4660 -0.2859
  373SOL    HW2 1119   2.652   1.790   1.071  2.3118 -0.4532 -0.6747
  374SOL     OW 1120   0.596   2.946   2.638  0.3993 -0.3821  0.6100
  374SOL    HW1 1121   0.623   2.881   2.715 -2.0916 -2.2623  1.2851
  374SOL    HW2 1122   0.657   2.938   2.560 -2.0511  1.2496 -1.5869
  375SOL     OW 1123   0.166   0.023   2.763  0.1371  0.4664  0.4353
  375SOL    HW1 1124   0.218   3.096   2.676  2.0115  1.0515 -0.5576
  375SOL    HW2 1125   0.226   0.013   2.846 -1.9960  1.4112  2.6485
  376SOL     OW 1126   3.004   2.071   1.618  0.0492  0.2945 -0.3690
  376SOL    HW1 1127   3.099   2.086   1.654 -1.6749  0.7973 -4.2550
  376SOL    HW2 1128   2.949   2.017   1.680 -0.1488  0.6650 -1.0430
  377SOL     OW 1129   1.748   2.182   2.368 -0.5967 -0.3198 -0.4553
  377SOL    HW1 1130   1.671   2.116   2.380  0.3839  0.0382  2.1300
  377SOL    HW2 1131   1.726   2.248   2.291 -2.3511  3.7209 -1.5443
  378SOL     OW 1132   0.423   0.329   2.729 -0.3677 -0.7100  0.0655
  378SOL    HW1 1133   0.485   0.408   2.731 -1.3557 -0.7993 -1.9303
  378SOL    HW2 1134   0.472   0.244   2.738 -1.0990  1.8625 -2.6112
  379SOL     OW 1135   0.499   0.702   0.420 -0.5409 -0.2569  0.0170
  379SOL    HW1 1136   0.576   0.673   0.489  0.6826 -1.7063  1.7947
  379SOL    HW2 1137   0.533   0.690   0.326 -0.1414 -1.7569  1.7236
  380SOL     OW 1138   0.324   1.681   1.738  0.3318 -0.0773 -0.0274
  380SOL    HW1 1139   0.340   1.582   1.768  0.2952 -1.4273  0.7314
  380SOL    HW2 1140   0.308   1.746   1.820 -1.8501  0.4971  1.8675
  381SOL     OW 1141   0.345   1.118   2.016 -0.1649 -0.2907  0.3599
  381SOL    HW1 1142   0.260   1.072   2.042  0.2764  0.8462  0.6040
  381SOL    HW2 1143   0.350   1.141   1.918  2.8079  1.7520 -1.4832
  382SOL     OW 1144   2.336   2.097   0.374 -0.2459 -0.0099  0.1102
  382SOL    HW1 1145   2.248   2.126   0.335 -2.6187 -0.3273  1.3908
  382SOL    HW2 1146   2.356   2.161   0.450  0.8018 -2.2250  1.4913
  383SOL     OW 1147   0.259   2.010   2.791 -0.3011 -0.3930 -1.0867
  383SOL    HW1 1148   0.240   1.924   2.841  1.7645 -0.5066  2.6033
  383SOL    HW2 1149   0.359   2.025   2.795 -0.6401  2.5933 -0.2707
  384SOL     OW 1150   0.831   2.101   2.833  0.2640  0.6025  0.3467
  384SOL    HW1 1151   0.877   2.032   2.886  0.2295  2.0317  0.6849
  384SOL    HW2 1152   0.774   2.156   2.892  1.1649 -1.6907 -1.6742
  385SOL     OW 1153   2.563   2.007   0.604  0.0794 -0.0974 -0.4228
  385SOL    HW1 1154   2.489   2.081   0.601 -2.0469  3.2633 -1.7267
  385SOL    HW2 1155   2.547   1.938   0.530  2.3013 -2.3410 -0.7949
  386SOL     OW 1156   2.204   1.399   1.524  0.1403 -0.0049 -0.1253
  386SOL    HW1 1157   2.290   1.435   1.572 -0.3152  0.4034 -1.0151
  386SOL    HW2 1158   2.118   1.416   1.575  1.2606  0.1840 -1.2788
  387SOL     OW 1159   2.813   1.385   2.122  0.5259 -0.0895  0.2019
  387SOL    HW1 1160   2.847   1.337   2.205  1.0471  0.1881 -1.2385
  387SOL    HW2 1161   2.707   1.392   2.128 -3.8296 -1.9940 -0.7625
  388SOL     OW 1162   0.284   1.821   1.973  0.1754 -0.2205 -0.3442
  388SOL    HW1 1163   0.377   1.832   2.016 -1.6628  0.9295  1.0373
  388SOL    HW2 1164   0.225   1.758   2.027  1.6025  0.2881 -0.4194
  389SOL     OW 1165   1.835   0.977   1.745 -0.7514 -0.0195  0.0599
  389SOL    HW1 1166   1.892   0.984   1.663 -0.5149 -1.0787  1.5374
  389SOL    HW2 1167   1.819   1.073   1.779  0.2115 -1.0814  2.5197
  390SOL     OW 1168   2.082   0.083   0.544  0.0793 -0.5851  0.1747
  390SOL    HW1 1169   2.021   0.019   0.602 -0.7449  0.2717  4.1915
  390SOL    HW2 1170   2.054   0.177   0.548  2.2618 -0.7154 -0.4367
  391SOL     OW 1171   1.949   1.746   1.124 -0.6818  0.2309 -0.2112
  391SOL    HW1 1172   2.046   1.717   1.103  0.4899 -1.1542 -0.4240
  391SOL    HW2 1173   1.946   1.793   1.211  2.9746 -2.5403 -0.0956
  392SOL     OW 1174   2.661   2.729   0.396 -0.1816  0.0891  0.3713
  392SOL    HW1 1175   2.587   2.708   0.465 -1.8963  1.0550  0.1994
  392SOL    HW2 1176   2.752   2.699   0.428  0.5342  3.5057 -2.6801
  393SOL     OW 1177   1.965   1.949   2.866  0.1382  0.4108 -0.1147
  393SOL    HW1 1178   1.938   1.891   2.950 -0.4886 -0.5093  0.6739
  393SOL    HW2 1179   1.949   1.907   2.777  1.7797  2.2751  3.0191
  394SOL     OW 1180   0.124   2.887   2.565 -0.2320  0.1180  1.0389
  394SOL    HW1 1181   0.055   2.964   2.573  0.8854 -0.9295 -0.4782
  394SOL    HW2 1182   0.146   2.849   2.657 -2.2923  1.6748 -0.5193
  395SOL     OW 1183   0.498   0.395   0.449  0.5961 -0.3147  0.5334
  395SOL    HW1 1184   0.406   0.444   0.440  0.5070  0.5853  0.7580
  395SOL    HW2 1185   0.521   0.407   0.547 -0.3925 -4.4454 -1.0721
  396SOL     OW 1186   1.706   0.971   0.436  0.6437 -0.1136  0.0144
  396SOL    HW1 1187   1.641   0.930   0.371 -2.1750 -0.5083 -0.2422
  396SOL    HW2 1188   1.783   0.909   0.460 -0.1006 -0.2380  1.2830
  397SOL     OW 1189   0.616   0.674   2.285  0.3478 -0.4596 -0.1982
  397SOL    HW1 1190   0.539   0.607   2.303 -3.8882  1.7956  1.4871
  397SOL    HW2 1191   0.591   0.757   2.335  0.5238  0.5263  0.7223
  398SOL     OW 1192   0.838   0.135   0.554  0.0748  0.0885  0.7061
  398SOL    HW1 1193   0.849   0.200   0.628  2.8725 -1.2500  0.1398
  398SOL    HW2 1194   0.932   0.105   0.528 -3.5971  1.3904 -0.0403
  399SOL     OW 1195   2.187   2.665   1.586 -0.4851  0.3027  0.1209
  399SOL    HW1 1196   2.151   2.722   1.660  1.3272  1.4621 -1.3103
  399SOL    HW2 1197   2.152   2.570   1.587 -2.4238  0.2822 -3.7026
  400SOL     OW 1198   0.944   1.669   2.071  0.3923  0.4524  0.0484
  400SOL    HW1 1199   1.023   1.734   2.080 -0.0485 -0.6295  1.5581
  400SOL    HW2 1200   0.896   1.656   2.162 -2.3879 -1.4786  2.7827
  401SOL     OW 1201   0.776   1.026   2.601  0.1298  0.5945 -0.2186
  401SOL    HW1 1202   0.754   1.079   2.686 -0.0218 -0.1330 -0.5263
  401SOL    HW2 1203   0.865   0.978   2.617 -0.2142 -1.0949  1.5655
  402SOL     OW 1204   2.898   2.164   0.992  0.6428  0.4957 -0.0577
  402SOL    HW1 1205   2.883   2.264   0.980  0.9982  0.6169  1.3277
  402SOL    HW2 1206   2.844   2.112   0.919  0.4083 -1.9089 -1.2061
  403SOL     OW 1207   0.246   0.975   2.362  0.2751  0.0807  0.1769
  403SOL    HW1 1208   0.188   0.963   2.279  1.1231  1.8889  0.6772
  403SOL    HW2 1209   0.281   1.071   2.366 -0.1863 -0.2897  1.0340
  404SOL     OW 1210   0.106   2.451   2.064  0.4589  0.0956 -0.5015
  404SOL    HW1 1211   0.054   2.408   1.986  1.3633 -1.1850 -0.8210
  404SOL    HW2 1212   0.094   2.552   2.066 -2.1714 -3.6597  1.0140
  405SOL     OW 1213   0.127   0.374   1.938 -0.0226  0.0984 -0.5736
  405SOL    HW1 1214   0.213   0.379   1.994 -0.7517 -0.1157 -1.5871
  405SOL    HW2 1215   0.072   0.292   1.969  1.6674 -1.0744 -1.6045
  406SOL     OW 1216   1.447   1.675   2.536  0.2454 -0.5245 -0.5187
  406SOL    HW1 1217   1.506   1.677   2.453  1.5281  2.1990 -0.6110
  406SOL    HW2 1218   1.513   1.673   2.622  4.5834  1.8456  2.3845
  407SOL     OW 1219   1.403   1.136   2.435 -0.0823 -0.1502 -0.1855
  407SOL    HW1 1220   1.362   1.066   2.370 -1.2353 -4.3712 -0.4723
  407SOL    HW2 1221   1.499   1.148   2.411 -1.6359  0.9256 -0.0660
  408SOL     OW 1222   0.723   2.955   2.397 -0.1508 -0.4539  0.6495
  408SOL    HW1 1223   0.772   3.046   2.416 -1.2267  0.2344  0.4768
  408SOL    HW2 1224   0.787   2.878   2.368  1.3602 -2.6484  1.9238
  409SOL     OW 1225   0.099   2.257   0.800 -0.9081 -0.2839  0.6169
  409SOL    HW1 1226   0.068   2.226   0.710  0.7673 -1.9646  0.8017
  409SOL    HW2 1227   0.108   2.176   0.867  0.7296 -0.1885  0.1761
  410SOL     OW 1228   2.499   1.456   0.135 -0.2934  0.3966  0.0872
  410SOL    HW1 1229   2.538   1.397   0.209  0.1904 -0.8207  0.3098
  410SOL    HW2 1230   2.557   1.467   0.049 -0.3011  0.7374  0.8609
  411SOL     OW 1231   0.111   3.077   1.193 -0.3675 -0.0570  0.1345
  411SOL    HW1 1232   0.143   3.046   1.285  1.4466 -0.4411  1.1826
  411SOL    HW2 1233   0.052   3.009   1.140  0.2707 -0.3657  0.2482
  412SOL     OW 1234   1.677   0.634   1.355 -0.1634  0.2532 -0.1153
  412SOL    HW1 1235   1.651   0.548   1.305 -1.0559 -0.4134  1.2412
  412SOL    HW2 1236   1.658   0.715   1.296  0.4494 -3.4045  3.0139
  413SOL     OW 1237   0.758   0.021   2.001  0.1081  0.5454  0.2334
  413SOL    HW1 1238   0.848   3.089   2.045  1.9770  0.1227 -0.6709
  413SOL    HW2 1239   0.737   0.120   2.035 -0.6592  2.0321  0.3329
  414SOL     OW 1240   2.855   1.577   2.628  0.1234 -0.4565 -0.3813
  414SOL    HW1 1241   2.829   1.480   2.630 -2.5916 -1.4041  0.4871
  414SOL    HW2 1242   2.924   1.612   2.561 -1.1033  2.9322  1.5872
  415SOL     OW 1243   0.738   2.467   0.143  0.2593 -0.4370 -0.3093
  415SOL    HW1 1244   0.829   2.498   0.106 -1.3337  0.4808 -0.8341
  415SOL    HW2 1245   0.746   2.446   0.243  1.3362 -0.4525  2.2244
  416SOL     OW 1246   1.854   3.049   2.946  0.2231 -0.1844  0.5878
  416SOL    HW1 1247   1.884   0.008   3.023  0.0340 -2.9935 -0.5112
  416SOL    HW2 1248   1.914   3.070   2.863  3.2590  2.6354 -3.6949
  417SOL     OW 1249   0.148   0.473   0.572 -0.8778  0.0826  0.3216
  417SOL    HW1 1250   0.211   0.484   0.649  1.3522  0.0139 -0.2894
  417SOL    HW2 1251   0.087   0.387   0.582 -1.5377 -2.7882 -0.4749
  418SOL     OW 1252   2.478   0.259   1.029  0.5507 -0.9293 -0.5582
  418SOL    HW1 1253   2.386   0.224   1.004 -2.1628  1.8100 -0.1849
  418SOL    HW2 1254   2.543   0.216   0.965 -0.3236 -0.4407  3.0989
  419SOL     OW 1255   3.071   2.982   0.841  0.1879  0.2253  0.6281
  419SOL    HW1 1256   3.099   3.039   0.765 -1.4100  0.1541 -0.5516
  419SOL    HW2 1257   0.021   2.895   0.846 -0.0082  2.9777 -1.4124
  420SOL     OW 1258   0.057   1.343   1.690  0.4221  0.4375  0.5135
  420SOL    HW1 1259   0.141   1.339   1.632 -0.0263  1.2111 -2.8723
  420SOL    HW2 1260   3.094   1.261   1.682 -0.7193 -1.1079 -2.3116
  421SOL     OW 1261   1.448   2.893   0.583  0.0132  0.1656  0.0395
  421SOL    HW1 1262   1.520   2.856   0.524  1.5145 -1.0551 -0.4265
  421SOL    HW2 1263   1.458   2.997   0.587  0.9607  1.0634 -0.8546
  422SOL     OW 1264   0.592   0.365   1.398 -0.0661  0.1404 -0.3980
  422SOL    HW1 1265   0.671   0.322   1.443  3.1097 -1.6079  0.9433
  422SOL    HW2 1266   0.542   0.304   1.338  3.4163  0.9134  2.1243
  423SOL     OW 1267   1.140   1.243   1.707  0.0037  0.1680  0.7341
  423SOL    HW1 1268   1.165   1.306   1.784 -1.0263 -1.6806  0.9139
  423SOL    HW2 1269   1.079   1.168   1.739  0.5226 -1.2344 -0.0869
  424SOL     OW 1270   2.096   1.848   0.182  0.3522 -0.6187  0.0664
  424SOL    HW1 1271   2.103   1.948   0.215 -0.8473  2.0746 -0.6419
  424SOL    HW2 1272   2.043   1.799   0.253  1.3694  0.7553 -1.6074
  425SOL     OW 1273   3.085   0.176   2.067  0.2943 -0.4483  0.1830
  425SOL    HW1 1274   0.029   0.179   2.156 -0.7402 -0.6027  0.3301
  425SOL    HW2 1275   2.986   0.188   2.068  1.1755 -0.9500  1.3493
  426SOL     OW 1276   0.285   2.805   2.781 -0.2555 -0.2731  0.5560
  426SOL    HW1 1277   0.335   2.840   2.863 -0.5280 -1.3526  1.8222
  426SOL    HW2 1278   0.303   2.709   2.764  0.2059 -0.0608 -1.9656
  427SOL     OW 1279   1.069   0.768   2.857 -0.2045  0.4460  0.6746
  427SOL    HW1 1280   1.163   0.773   2.895  0.4880  1.9439  1.4841
  427SOL    HW2 1281   1.044   0.670   2.836 -0.1295  1.1158  0.0278
  428SOL     OW 1282   2.786   0.829   1.642 -0.1419  0.0807 -0.1906
  428SOL    HW1 1283   2.694   0.839   1.600 -1.1009 -0.2314 -0.2023
  428SOL    HW2 1284   2.802   0.909   1.701  0.9563  0.4752 -3.0637
  429SOL     OW 1285   2.152   2.989   1.199 -0.1926 -0.3878  0.3664
  429SOL    HW1 1286   2.202   3.060   1.256  0.7635  1.1894 -0.0429
  429SOL    HW2 1287   2.105   2.934   1.270  0.1336 -1.2458  2.8796
  430SOL     OW 1288   1.050   1.448   2.585  0.4274 -0.3493 -0.1017
  430SOL    HW1 1289   1.004   1.401   2.664  0.9951  1.4399 -2.7073
  430SOL    HW2 1290   1.148   1.432   2.588 -0.9222  1.6162  0.8471
  431SOL     OW 1291   2.851   1.676   1.485  0.4885 -0.5903 -0.3338
  431SOL    HW1 1292   2.865   1.676   1.587 -1.3284  0.4992 -0.7173
  431SOL    HW2 1293   2.934   1.643   1.431  0.1883 -1.9020  0.0186
  432SOL     OW 1294   0.876   2.350   2.422  0.0040  0.3288  0.7491
  432SOL    HW1 1295   0.812   2.320   2.497 -1.5866  1.7919  2.4917
  432SOL    HW2 1296   0.933   2.428   2.452 -0.3535 -1.1348  1.4487
  433SOL     OW 1297   2.008   0.383   1.987 -0.4639 -0.0046 -0.2198
  433SOL    HW1 1298   2.030   0.297   2.037  0.2202 -0.7528 -0.6722
  433SOL    HW2 1299   1.928   0.431   2.033  1.0395  0.6961 -1.0561
  434SOL     OW 1300   0.705   2.389   2.203  0.1036 -0.0013 -0.3433
  434SOL    HW1 1301   0.681   2.491   2.200 -0.4043 -1.8409  0.1594
  434SOL    HW2 1302   0.785   2.370   2.264  0.5763 -0.1713 -2.3904
  435SOL     OW 1303   0.241   3.090   0.363 -0.1840 -0.7497 -0.1548
  435SOL    HW1 1304   0.237   0.041   0.272 -0.6472  2.9063 -1.4957
  435SOL    HW2 1305   0.341   3.068   0.378  0.9521 -0.8141 -1.2058
  436SOL     OW 1306   0.648   0.683   1.997  0.1043  0.5480  0.0834
  436SOL    HW1 1307   0.608   0.776   1.979  1.7270  1.1973 -0.4979
  436SOL    HW2 1308   0.628   0.663   2.093  1.1334  0.2709  1.4944
  437SOL     OW 1309   0.681   2.351   2.637 -0.1963 -0.9678  0.5996
  437SOL    HW1 1310   0.721   2.444   2.652 -0.9262  0.6533  0.1164
  437SOL    HW2 1311   0.638   2.320   2.724  0.2710 -2.7991 -1.6875
  438SOL     OW 1312   0.985   1.256   1.395 -0.1811 -0.1997 -0.0591
  438SOL    HW1 1313   0.960   1.199   1.315  1.9343 -1.0516 -0.7907
  438SOL    HW2 1314   1.079   1.231   1.428  5.5080 -2.6832  0.1549
  439SOL     OW 1315   2.520   1.109   2.312 -0.6165  0.0322 -0.1010
  439SOL    HW1 1316   2.604   1.087   2.368  1.2088 -1.9182 -0.4260
  439SOL    HW2 1317   2.441   1.126   2.375  1.2098  2.1272  0.6253
  440SOL     OW 1318   0.037   0.441   0.165  0.2279  0.0522 -0.2585
  440SOL    HW1 1319   0.034   0.340   0.149 -0.5449 -0.9308  0.6641
  440SOL    HW2 1320   0.130   0.471   0.188  0.4158 -1.6067  1.0883
  441SOL     OW 1321   1.230   1.839   1.724 -0.4133  0.1083 -0.2956
  441SOL    HW1 1322   1.191   1.930   1.725  2.7125  0.0138  1.2717
  441SOL    HW2 1323   1.159   1.774   1.677 -1.1730 -0.7699 -2.6006
  442SOL     OW 1324   2.045   1.595   0.847 -0.4457 -0.1614  0.2953
  442SOL    HW1 1325   2.096   1.639   0.929 -0.1549 -1.3450  1.0870
  442SOL    HW2 1326   2.106   1.541   0.783 -0.2904 -0.6754 -0.6548
  443SOL     OW 1327   2.772   1.974   2.615 -0.3471  0.1728  0.0150
  443SOL    HW1 1328   2.796   2.069   2.584  0.0981  2.0486  0.8548
  443SOL    HW2 1329   2.692   1.969   2.675 -0.9239  0.8236  0.2403
  444SOL     OW 1330   1.522   1.677   2.968 -0.1430 -0.2638 -0.1069
  444SOL    HW1 1331   1.607   1.656   3.027  4.4199  0.0050  1.7634
  444SOL    HW2 1332   1.435   1.666   3.017  2.1131  0.7684 -0.3274
  445SOL     OW 1333   2.558   2.831   1.866 -0.0874  0.5232 -0.3181
  445SOL    HW1 1334   2.596   2.767   1.935  0.3686 -0.7830  0.9795
  445SOL    HW2 1335   2.594   2.809   1.776 -1.7397  0.8041  2.3656
  446SOL     OW 1336   0.884   0.851   1.639 -0.2347 -0.1212 -0.0262
  446SOL    HW1 1337   0.962   0.836   1.579 -1.3547 -0.6232  0.3083
  446SOL    HW2 1338   0.854   0.765   1.678 -0.3356  0.2680 -1.5943
  447SOL     OW 1339   0.653   0.916   0.988  0.6505 -0.2577  0.5460
  447SOL    HW1 1340   0.564   0.873   0.963  1.0002 -0.5803  0.2035
  447SOL    HW2 1341   0.671   0.890   1.087  0.1476 -0.9802 -0.3870
  448SOL     OW 1342   1.084   1.071   2.253  0.1925 -0.1023  0.0641
  448SOL    HW1 1343   1.049   1.131   2.332 -1.7888 -0.2009  1.5899
  448SOL    HW2 1344   1.013   0.997   2.243 -2.8816 -0.0184 -0.4896
  449SOL     OW 1345   3.042   2.056   2.266 -0.1275  0.1841  0.5714
  449SOL    HW1 1346   3.080   1.991   2.335  2.2517  0.6853 -0.3249
  449SOL    HW2 1347   3.042   2.013   2.172  1.4865  0.9204 -0.4921
  450SOL     OW 1348   2.442   1.829   2.114 -0.2952 -0.4435 -0.4575
  450SOL    HW1 1349   2.506   1.807   2.198 -0.1292  1.0570  2.8544
  450SOL    HW2 1350   2.385   1.748   2.086 -2.5086 -1.1824  2.4447
  451SOL     OW 1351   2.697   1.415   1.396  0.6631  0.0118 -0.2745
  451SOL    HW1 1352   2.718   1.512   1.414 -3.4464  0.1877 -0.5784
  451SOL    HW2 1353   2.686   1.363   1.484  0.5294 -4.1632 -0.6931
  452SOL     OW 1354   0.253   1.268   1.514 -0.0555 -0.0003  0.3492
  452SOL    HW1 1355   0.196   1.210   1.450  0.4620  2.5323  1.8813
  452SOL    HW2 1356   0.330   1.308   1.463  0.8968  1.0593  0.2787
  453SOL     OW 1357   0.353   0.796   0.703 -0.2936  0.1463  0.8140
  453SOL    HW1 1358   0.315   0.876   0.649 -2.9830  1.2075  1.1651
  453SOL    HW2 1359   0.392   0.724   0.646 -0.9860  0.4080  1.2325
  454SOL     OW 1360   0.563   1.598   0.412  0.2092 -0.0788 -0.2357
  454SOL    HW1 1361   0.526   1.570   0.506 -0.3092 -1.1091 -0.1023
  454SOL    HW2 1362   0.483   1.617   0.348 -4.5073  0.6239 -0.0122
  455SOL     OW 1363   1.677   0.632   1.008 -0.7383 -0.2494  0.2048
  455SOL    HW1 1364   1.775   0.656   0.987  1.3677  1.0057 -1.4359
  455SOL    HW2 1365   1.647   0.537   0.973  0.7844 -0.4826 -1.7959
  456SOL     OW 1366   1.593   2.870   1.006 -0.5915 -0.1077 -0.1918
  456SOL    HW1 1367   1.672   2.851   0.949 -2.6396 -0.2879  2.8422
  456SOL    HW2 1368   1.586   2.972   1.023 -1.6638 -1.3706 -2.5575
  457SOL     OW 1369   1.802   0.268   2.484  0.1318  0.4438 -0.1044
  457SOL    HW1 1370   1.710   0.229   2.462  1.0438 -1.8377  0.7227
  457SOL    HW2 1371   1.868   0.240   2.410 -1.4433 -0.7249  2.4870
  458SOL     OW 1372   2.438   0.556   2.932 -0.6489 -0.3962 -0.3293
  458SOL    HW1 1373   2.409   0.457   2.916  0.2932 -1.5152 -0.5224
  458SOL    HW2 1374   2.527   0.583   2.891 -0.3862  0.9310 -0.3873
  459SOL     OW 1375   0.067   1.696   2.108 -0.2908  0.0044  0.2969
  459SOL    HW1 1376   0.079   1.608   2.057  1.5941  1.1776  0.5135
  459SOL    HW2 1377   0.063   1.679   2.206  1.5935  0.8465  1.5207
  460SOL     OW 1378   0.340   0.741   3.027 -0.7393 -0.0838 -0.0542
  460SOL    HW1 1379   0.258   0.716   2.974 -0.0124 -1.3494  0.0224
  460SOL    HW2 1380   0.423   0.684   3.004 -0.4419 -0.0406  2.9543
  461SOL     OW 1381   2.875   2.398   0.612 -0.4698 -0.0047 -0.0585
  461SOL    HW1 1382   2.836   2.306   0.588  0.0136  0.0900 -1.5796
  461SOL    HW2 1383   2.961   2.418   0.563 -1.2626  1.0558  3.2626
  462SOL     OW 1384   3.016   0.004   1.704  0.1252 -0.1141  0.0207
  462SOL    HW1 1385   3.052   3.031   1.643 -0.7510  1.7890 -1.5559
  462SOL    HW2 1386   2.986   0.080   1.640 -1.8088  1.6974 -2.3182
  463SOL     OW 1387   1.738   2.087   1.934  0.4953  0.0173  0.0954
  463SOL    HW1 1388   1.777   2.019   1.863  1.6151  0.3423  1.7244
  463SOL    HW2 1389   1.745   2.183   1.902 -1.2958  1.2444 -2.1314
  464SOL     OW 1390   0.370   2.870   1.219  0.1998 -0.4135 -0.2588
  464SOL    HW1 1391   0.293   2.919   1.262  2.0183 -0.6829  1.0842
  464SOL    HW2 1392   0.344   2.846   1.123  0.0767  0.9784 -0.8407
  465SOL     OW 1393   0.415   0.192   1.688 -0.3261  0.1756 -0.2676
  465SOL    HW1 1394   0.403   0.166   1.785 -0.6910  0.0280  1.7204
  465SOL    HW2 1395   0.333   0.250   1.666 -0.3409  1.3025  1.1118
  466SOL     OW 1396   1.195   1.995   2.320 -0.0621 -0.3151  0.2413
  466SOL    HW1 1397   1.203   1.917   2.385 -0.4301 -0.0266 -0.6455
  466SOL    HW2 1398   1.113   2.054   2.318  0.0219  2.1360 -1.3283
  467SOL     OW 1399   2.871   1.497   0.727  0.3735 -0.1409  0.0939
  467SOL    HW1 1400   2.826   1.506   0.821 -0.2338 -0.1748  0.4164
  467SOL    HW2 1401   2.816   1.429   0.673  2.0477 -0.9240 -0.4377
  468SOL     OW 1402   2.313   1.932   2.717  0.2885  0.0667  0.4818
  468SOL    HW1 1403   2.266   1.838   2.720  1.7458 -1.2765  0.0982
  468SOL    HW2 1404   2.349   1.963   2.630 -0.0053 -3.9504  2.7453
  469SOL     OW 1405   1.147   2.254   0.723  0.1907 -0.0173  0.0403
  469SOL    HW1 1406   1.153   2.200   0.638  1.4071  0.9325 -1.6461
  469SOL    HW2 1407   1.183   2.196   0.796  0.7150  1.1982  1.0209
  470SOL     OW 1408   1.964   1.845   1.383  0.2128  0.2647 -0.5988
  470SOL    HW1 1409   1.979   1.944   1.406 -0.1457  0.1997 -0.0268
  470SOL    HW2 1410   2.035   1.796   1.436 -2.1387  2.7420 -1.5040
  471SOL     OW 1411   0.010   2.475   0.453  0.3134 -0.6178  0.2105
  471SOL    HW1 1412   0.059   2.545   0.512  0.7650 -0.0810 -0.7028
  471SOL    HW2 1413   0.073   2.436   0.388  1.6178  2.5784 -0.2622
  472SOL     OW 1414   2.563   1.785   2.357 -0.5592 -0.0422  0.6616
  472SOL    HW1 1415   2.563   1.711   2.422  1.0187  0.4301 -2.2708
  472SOL    HW2 1416   2.656   1.820   2.355 -0.3754  0.8839 -2.2149
  473SOL     OW 1417   1.383   2.562   0.976 -0.2864  0.1523  0.0703
  473SOL    HW1 1418   1.295   2.559   1.029  1.4049 -0.8291 -1.5878
  473SOL    HW2 1419   1.396   2.652   0.923  1.1044  1.3207 -2.2054
  474SOL     OW 1420   2.815   0.135   1.299  0.2391  0.0875 -0.4305
  474SOL    HW1 1421   2.784   0.038   1.274 -1.1780 -0.8962 -1.0154
  474SOL    HW2 1422   2.744   0.184   1.355 -0.4195 -0.9114 -1.7442
  475SOL     OW 1423   2.146   2.757   1.929 -0.1323  0.1422 -0.8243
  475SOL    HW1 1424   2.208   2.677   1.934  0.4042 -0.8135  0.5229
  475SOL    HW2 1425   2.198   2.844   1.939 -2.2851  0.0620 -0.9079
  476SOL     OW 1426   0.331   0.486   0.780 -0.0962  0.1211  0.3723
  476SOL    HW1 1427   0.355   0.400   0.825 -1.5228  0.6494  0.1766
  476SOL    HW2 1428   0.269   0.540   0.844  1.3831 -1.3629 -2.6487
  477SOL     OW 1429   0.726   1.902   0.974  0.0014  0.1133 -0.4742
  477SOL    HW1 1430   0.692   1.986   1.028  1.7866  2.6185  1.0757
  477SOL    HW2 1431   0.659   1.865   0.909  1.5097  2.2882  0.3703
  478SOL     OW 1432   0.853   2.509   2.885 -0.2943  0.2419  0.1157
  478SOL    HW1 1433   0.906   2.496   2.968 -0.2618  1.4600 -2.4253
  478SOL    HW2 1434   0.755   2.536   2.906  3.6860 -0.7510  0.5146
  479SOL     OW 1435   0.125   0.986   2.094  0.2495 -0.2979  0.3952
  479SOL    HW1 1436   0.042   1.048   2.104 -0.6624  1.4020  0.8244
  479SOL    HW2 1437   0.112   0.923   2.018 -0.0352  2.4040 -1.7130
  480SOL     OW 1438   0.368   2.414   0.184  0.5854  0.1834 -0.1686
  480SOL    HW1 1439   0.296   2.337   0.195 -0.9146 -2.2652  0.0048
  480SOL    HW2 1440   0.387   2.461   0.271  0.2327  3.8754 -0.4126
  481SOL     OW 1441   1.643   3.079   2.153 -0.1361 -0.2532 -0.2600
  481SOL    HW1 1442   1.711   3.067   2.231  2.1510 -1.5855  4.4451
  481SOL    HW2 1443   1.621   0.078   2.140  1.2955 -2.8144 -1.0857
  482SOL     OW 1444   1.761   2.053   0.101  0.0758  0.2319  0.0012
  482SOL    HW1 1445   1.778   1.978   0.176 -0.0709 -3.7461  1.7920
  482SOL    HW2 1446   1.850   2.070   0.051  0.7674 -0.2945  0.6170
  483SOL     OW 1447   1.032   2.539   2.679  0.0533 -0.0071  0.0986
  483SOL    HW1 1448   1.120   2.503   2.705 -4.0733 -1.1847 -0.0486
  483SOL    HW2 1449   0.967   2.511   2.753  2.0610 -0.8122 -1.6523
  484SOL     OW 1450   0.735   2.876   0.887  0.2976  0.5336  0.1268
  484SOL    HW1 1451   0.709   2.914   0.795  0.7674  0.1518  0.1682
  484SOL    HW2 1452   0.823   2.917   0.917  1.7904 -0.4118  1.6330
  485SOL     OW 1453   2.065   0.774   0.765  0.0490 -0.1921 -0.2746
  485SOL    HW1 1454   2.041   0.873   0.772  1.5464  0.1646  2.9983
  485SOL    HW2 1455   2.001   0.711   0.814  1.3187  1.5228  0.6503
  486SOL     OW 1456   2.053   2.834   2.200  0.3900 -0.1960 -0.0043
  486SOL    HW1 1457   2.113   2.786   2.270 -2.3099 -0.2712  0.3476
  486SOL    HW2 1458   2.081   2.812   2.102 -0.4385  0.1313  0.6953
  487SOL     OW 1459   1.125   1.852   0.732  0.6195  0.3480  0.0904
  487SOL    HW1 1460   1.055   1.886   0.662  1.3446 -0.7980 -0.0623
  487SOL    HW2 1461   1.095   1.879   0.827 -0.1623  1.8328  4.8402
  488SOL     OW 1462   2.063   0.296   0.101 -0.2113 -0.0876  0.1905
  488SOL    HW1 1463   2.058   0.390   0.147 -1.6969  0.2870 -0.5374
  488SOL    HW2 1464   2.056   0.315   3.099  0.3114  1.2381 -4.6991
  489SOL     OW 1465   2.228   2.957   0.478  0.0928  1.1138 -0.0351
  489SOL    HW1 1466   2.322   2.979   0.516  1.0663  0.6275 -2.2150
  489SOL    HW2 1467   2.171   3.042   0.489 -1.1429  0.4850 -0.0661
  490SOL     OW 1468   1.643   2.868   2.883  0.2041  0.1243  0.0844
  490SOL    HW1 1469   1.725   2.925   2.866  1.5733 -1.3010  0.2050
  490SOL    HW2 1470   1.588   2.905   2.963 -1.2802  0.1265  1.3281
  491SOL     OW 1471   0.894   0.128   0.965  0.3396 -0.6358  0.1132
  491SOL    HW1 1472   0.952   0.144   1.050  1.1903 -0.8772 -0.8468
  491SOL    HW2 1473   0.804   0.088   0.993  2.2244  2.6791  0.4044
  492SOL     OW 1474   1.951   3.027   0.288  0.0414 -0.5524 -0.2481
  492SOL    HW1 1475   2.017   3.071   0.352 -2.2500  0.0350 -2.1078
  492SOL    HW2 1476   1.904   2.945   0.331  1.4482 -2.5001  0.7498
  493SOL     OW 1477   1.905   2.628   2.845 -0.0402  1.1156 -0.2910
  493SOL    HW1 1478   1.888   2.622   2.744  1.0343 -0.6213  2.3737
  493SOL    HW2 1479   1.813   2.598   2.889 -1.1254 -0.8871 -1.5071
  494SOL     OW 1480   0.253   1.180   1.026  0.0110  0.3469  0.5860
  494SOL    HW1 1481   0.304   1.148   1.106  0.0673 -0.4067 -1.7070
  494SOL    HW2 1482   0.185   1.245   1.059  1.0038 -1.1804  0.5007
  495SOL     OW 1483   2.863   0.323   1.712 -0.2054  0.4002 -0.2041
  495SOL    HW1 1484   2.911   0.292   1.626 -3.5116  0.2806 -1.8166
  495SOL    HW2 1485   2.845   0.425   1.707 -0.5480  4.0135  0.3229
  496SOL     OW 1486   2.472   2.407   2.174  0.4794 -0.0345 -0.6903
  496SOL    HW1 1487   2.477   2.320   2.226  0.8659 -1.0982 -2.1535
  496SOL    HW2 1488   2.459   2.489   2.232 -0.0512 -0.1686 -0.3973
  497SOL     OW 1489   1.695   1.313   2.696  0.6716  0.6768 -0.3138
  497SOL    HW1 1490   1.758   1.270   2.629 -1.9662 -0.9817 -1.2167
  497SOL    HW2 1491   1.623   1.248   2.733  1.3544 -2.1636  1.4375
  498SOL     OW 1492   0.756   2.126   0.779  0.0438 -0.1179 -0.0668
  498SOL    HW1 1493   0.831   2.186   0.818  1.1858 -0.1595  1.6445
  498SOL    HW2 1494   0.691   2.114   0.855  1.4980  1.4819  2.0591
  499SOL     OW 1495   0.073   1.603   0.955  0.2299  0.3010  0.7287
  499SOL    HW1 1496   3.079   1.640   0.947  1.0005  0.8249 -2.0602
  499SOL    HW2 1497   0.146   1.674   0.966 -1.3932 -2.6611 -0.6118
  500SOL     OW 1498   1.506   2.523   0.548  0.0527  0.2673 -0.7513
  500SOL    HW1 1499   1.487   2.593   0.482  2.2391 -1.5148  1.1485
  500SOL    HW2 1500   1.420   2.499   0.594  1.8752 -3.7373 -2.3599
  501SOL     OW 1501   2.049   2.626   1.134  0.2953  0.3182 -0.8862
  501SOL    HW1 1502   2.119   2.554   1.128 -0.0029  2.9521 -0.2247
  501SOL    HW2 1503   2.037   2.676   1.044 -0.0942 -1.2017 -3.0504
  502SOL     OW 1504   0.514   0.495   1.611  0.2005  0.6739  0.4418
  502SOL    HW1 1505   0.414   0.467   1.620 -1.7508  0.1031  2.0253
  502SOL    HW2 1506   0.558   0.449   1.525  1.4331 -0.2148 -0.3940
  503SOL     OW 1507   2.012   0.249   1.480  0.0737  0.1483  0.0746
  503SOL    HW1 1508   1.917   0.209   1.470 -1.9200 -2.5013  1.7492
  503SOL    HW2 1509   2.073   0.184   1.538 -0.0159 -0.9665  3.6888
  504SOL     OW 1510   2.077   0.846   1.812  0.3982  0.6029  0.3637
  504SOL    HW1 1511   2.002   0.910   1.784 -1.0258 -1.5217  1.1281
  504SOL    HW2 1512   2.162   0.902   1.819 -1.1783 -1.3414  0.6155
  505SOL     OW 1513   1.148   2.902   2.279 -0.1480 -0.6531 -0.1096
  505SOL    HW1 1514   1.148   2.812   2.326 -1.6140 -0.0999 -0.4498
  505SOL    HW2 1515   1.239   2.950   2.284  1.3086  0.6598 -0.3662
  506SOL     OW 1516   0.386   0.346   2.044 -0.0946 -0.6490  0.1642
  506SOL    HW1 1517   0.448   0.391   1.976 -2.0028 -3.1288  3.0198
  506SOL    HW2 1518   0.406   0.245   2.028  3.8576 -0.2614  3.3926
  507SOL     OW 1519   1.460   0.092   2.945 -0.4210  0.1616 -0.2510
  507SOL    HW1 1520   1.455   3.099   2.988 -0.7714 -2.4711  1.1853
  507SOL    HW2 1521   1.538   0.144   2.984  1.9139 -1.0315 -2.3000
  508SOL     OW 1522   2.210   0.613   2.269  0.2587 -0.4954 -0.2689
  508SOL    HW1 1523   2.286   0.687   2.275  1.0288  2.4262 -0.2244
  508SOL    HW2 1524   2.142   0.633   2.196  2.4910  0.0256  0.0676
  509SOL     OW 1525   0.750   1.206   2.241 -0.0199 -1.1884  0.0619
  509SOL    HW1 1526   0.665   1.242   2.283  0.0820 -0.0472 -0.8055
  509SOL    HW2 1527   0.831   1.234   2.300  4.6107  0.5855  1.4278
  510SOL     OW 1528   2.939   0.549   1.041  0.0392 -0.4602 -0.8012
  510SOL    HW1 1529   3.003   0.618   0.998 -1.8788  2.0711  1.6659
  510SOL    HW2 1530   2.843   0.576   1.020 -0.3586  0.2216 -0.8097
  511SOL     OW 1531   1.533   1.399   1.172 -0.5289  0.8138 -0.1075
  511SOL    HW1 1532   1.574   1.472   1.118 -0.0159 -2.4088 -1.2322
  511SOL    HW2 1533   1.587   1.386   1.258 -0.7343  0.4560 -1.1555
  512SOL     OW 1534   0.535   1.470   0.679 -0.1322 -0.5032 -0.4464
  512SOL    HW1 1535   0.543   1.377   0.639 -0.8727 -0.9934 -0.3842
  512SOL    HW2 1536   0.497   1.452   0.775 -0.7775  1.2004  1.5388
  513SOL     OW 1537   0.621   2.127   1.065 -0.3729 -1.0017  0.0695
  513SOL    HW1 1538   0.519   2.142   1.063 -2.4062  0.4888  1.0146
  513SOL    HW2 1539   0.659   2.220   1.085 -0.2304  0.0489  2.2988
  514SOL     OW 1540   0.178   2.237   0.245  0.6492 -0.4629  0.3171
  514SOL    HW1 1541   0.087   2.250   0.191 -1.2116  1.7446 -4.4182
  514SOL    HW2 1542   0.192   2.142   0.270 -1.8647 -0.7378 -1.5516
  515SOL     OW 1543   2.881   3.008   0.014  0.0802 -0.1217  0.4051
  515SOL    HW1 1544   2.917   2.921   3.082 -1.5871  3.0252  2.8554
  515SOL    HW2 1545   2.879   3.016   0.112 -0.8307 -1.1245 -2.6246
  516SOL     OW 1546   2.026   3.086   0.959  0.0862 -0.5251 -0.4003
  516SOL    HW1 1547   1.947   3.097   1.024 -3.7471 -1.8678  1.6364
  516SOL    HW2 1548   2.096   3.028   1.006  1.5854 -0.3047  1.2931
  517SOL     OW 1549   1.662   1.563   0.580  0.3633  0.3739  0.0596
  517SOL    HW1 1550   1.720   1.586   0.660  0.6129  0.7266 -0.2124
  517SOL    HW2 1551   1.649   1.467   0.567  1.2510  1.6913 -0.8639
  518SOL     OW 1552   1.349   0.615   1.213  0.0923 -0.4676  0.5226
  518SOL    HW1 1553   1.285   0.593   1.136  3.1202 -1.2235 -0.8724
  518SOL    HW2 1554   1.424   0.548   1.223  1.6732  1.6230 -0.2837
  519SOL     OW 1555   2.679   2.231   0.263  0.2880  0.9169 -0.6808
  519SOL    HW1 1556   2.699   2.208   0.361 -0.9558 -0.2791 -0.9513
  519SOL    HW2 1557   2.730   2.318   0.237 -1.4652 -0.4438 -0.7478
  520SOL     OW 1558   2.110   2.000   1.744 -0.1517 -0.4021 -0.7464
  520SOL    HW1 1559   2.167   1.924   1.779  1.0657  0.0251 -2.2692
  520SOL    HW2 1560   2.011   1.982   1.741  1.6828 -0.7501  0.5331
  521SOL     OW 1561   1.586   2.658   2.197  0.3802 -0.3879  0.0217
  521SOL    HW1 1562   1.529   2.667   2.280  0.9779  1.9727  0.6134
  521SOL    HW2 1563   1.547   2.708   2.116  1.3393 -0.6335  0.5318
  522SOL     OW 1564   2.795   0.203   1.935 -0.4296 -0.0173 -0.3406
  522SOL    HW1 1565   2.832   0.243   1.847  2.6200 -0.6251  0.9798
  522SOL    HW2 1566   2.813   0.106   1.944 -0.4632  0.8129 -3.7475
  523SOL     OW 1567   0.929   1.947   1.511 -0.6043 -0.0299 -0.5265
  523SOL    HW1 1568   0.935   2.035   1.561 -3.4066  0.4153 -1.2590
  523SOL    HW2 1569   0.865   1.961   1.434  1.2999  0.6149 -1.3641
  524SOL     OW 1570   2.205   2.072   2.929  0.0670 -0.0753  0.2144
  524SOL    HW1 1571   2.253   2.052   2.840  1.5889 -0.2823  3.0547
  524SOL    HW2 1572   2.113   2.030   2.930  1.5053  1.0333  1.0652
  525SOL     OW 1573   2.756   1.177   0.196 -0.2728 -0.2702 -0.6111
  525SOL    HW1 1574   2.825   1.125   0.251  0.6060  0.6190 -0.4100
  525SOL    HW2 1575   2.747   1.140   0.098  1.4006 -2.6147 -0.9780
  526SOL     OW 1576   1.002   2.769   0.962  0.6032 -0.4100 -0.3246
  526SOL    HW1 1577   1.035   2.852   0.917 -0.8204 -1.1062 -0.9704
  526SOL    HW2 1578   0.940   2.798   1.041 -0.1450  1.6544  0.0112
  527SOL     OW 1579   2.377   1.555   0.617  0.0733  0.1670  0.1107
  527SOL    HW1 1580   2.280   1.522   0.624  0.2519  3.0357 -1.4073
  527SOL    HW2 1581   2.408   1.579   0.525  0.1698  1.5948  1.9504
  528SOL     OW 1582   0.583   0.790   2.625  0.1098  0.4642 -0.2017
  528SOL    HW1 1583   0.635   0.849   2.561 -0.2409  1.1594  1.7196
  528SOL    HW2 1584   0.491   0.771   2.590  2.7861  0.5809  2.7487
  529SOL     OW 1585   0.596   1.447   3.081 -0.5180 -0.5077  0.2767
  529SOL    HW1 1586   0.532   1.508   3.033  2.2027 -2.4149  1.9328
  529SOL    HW2 1587   0.563   1.361   0.018  0.6724 -0.1440  1.0788
  530SOL     OW 1588   1.381   0.980   1.756 -0.7475  0.2987 -0.7194
  530SOL    HW1 1589   1.465   0.918   1.759  0.0324  1.7294 -0.9355
  530SOL    HW2 1590   1.303   0.930   1.799  3.2091 -0.4116  2.9532
  531SOL     OW 1591   1.309   2.188   3.029  0.2033  0.1385  0.0438
  531SOL    HW1 1592   1.264   2.123   2.966 -0.3387 -0.0760  2.8489
  531SOL    HW2 1593   1.390   2.143   3.066 -1.9650 -1.0787 -0.2685
  532SOL     OW 1594   2.433   0.686   0.099  0.2646  1.0505  0.0392
  532SOL    HW1 1595   2.351   0.675   0.156  2.4138  1.0377 -1.5200
  532SOL    HW2 1596   2.434   0.629   0.015 -0.6225  0.1399 -0.4970
  533SOL     OW 1597   2.880   0.441   2.069 -0.2813 -0.0559 -0.2895
  533SOL    HW1 1598   2.869   0.342   2.040 -1.5431  0.0060  0.7750
  533SOL    HW2 1599   2.787   0.481   2.091  1.4883 -0.7482 -0.0368
  534SOL     OW 1600   1.924   0.081   0.058  0.0124  0.1677  0.2075
  534SOL    HW1 1601   1.940   0.003   0.124 -1.3705  3.6217  0.0664
  534SOL    HW2 1602   1.962   0.166   0.098 -0.4758 -0.8258 -0.3179
  535SOL     OW 1603   0.527   0.256   3.013  1.0245 -0.2142 -0.0968
  535SOL    HW1 1604   0.482   0.285   2.927  1.2318 -0.7137  0.1285
  535SOL    HW2 1605   0.472   0.278   3.093  1.1952 -1.1956  1.1279
  536SOL     OW 1606   0.637   1.494   1.615 -0.5907  0.1999 -0.2441
  536SOL    HW1 1607   0.617   1.588   1.586  1.0521  0.7759 -0.2534
  536SOL    HW2 1608   0.640   1.430   1.537 -0.7922  0.7299  0.0382
  537SOL     OW 1609   0.190   2.694   1.909 -0.1828 -0.3397 -0.6030
  537SOL    HW1 1610   0.250   2.694   1.827  1.0956 -0.0702 -1.6619
  537SOL    HW2 1611   0.237   2.717   1.998  0.3945  0.6332  0.6726
  538SOL     OW 1612   3.013   2.199   0.137  0.0170 -0.3164  0.5012
  538SOL    HW1 1613   2.947   2.269   0.158  0.9756 -1.6454 -0.4163
  538SOL    HW2 1614   3.003   2.162   0.042  0.6473 -1.4821  0.2972
  539SOL     OW 1615   2.566   0.855   2.733  0.2304  0.3308 -0.4686
  539SOL    HW1 1616   2.666   0.832   2.732 -2.0050  0.0157 -1.6194
  539SOL    HW2 1617   2.551   0.948   2.772 -0.7654  2.4921  0.1743
  540SOL     OW 1618   1.827   0.714   0.138  0.7440 -0.1691  0.1142
  540SOL    HW1 1619   1.897   0.779   0.106  0.9185 -1.2044  1.4207
  540SOL    HW2 1620   1.735   0.763   0.132 -1.8641  4.5202 -1.2859
  541SOL     OW 1621   0.969   0.452   2.051 -0.3716 -0.5660  0.5259
  541SOL    HW1 1622   1.011   0.400   2.129 -1.9097 -0.6753  2.4636
  541SOL    HW2 1623   0.882   0.404   2.027 -2.3648  0.1771 -0.7834
  542SOL     OW 1624   1.724   2.391   2.185 -0.3273 -0.7315  0.2153
  542SOL    HW1 1625   1.731   2.483   2.221  0.3551 -0.7585 -1.0300
  542SOL    HW2 1626   1.794   2.383   2.109  0.4930  0.1056  1.4542
  543SOL     OW 1627   0.843   2.869   0.408  0.0122 -0.0793 -0.0956
  543SOL    HW1 1628   0.941   2.891   0.414 -2.2000 -2.0494 -2.4172
  543SOL    HW2 1629   0.819   2.879   0.306  4.1599  0.6117  0.2465
  544SOL     OW 1630   2.780   1.871   2.123 -0.7095  0.6347  0.2205
  544SOL    HW1 1631   2.863   1.899   2.070  3.6749  0.7535  0.9029
  544SOL    HW2 1632   2.809   1.865   2.223  0.5111 -1.8546 -0.6969
  545SOL     OW 1633   1.414   1.971   1.366  0.1016  0.3478  0.1543
  545SOL    HW1 1634   1.438   1.878   1.399 -0.3049  3.1161  0.0475
  545SOL    HW2 1635   1.327   1.971   1.321  2.1149 -1.1590  0.3811
  546SOL     OW 1636   0.553   0.001   2.224  0.0415 -0.2515 -0.7452
  546SOL    HW1 1637   0.612   3.031   2.270  2.0016  2.0077 -1.0507
  546SOL    HW2 1638   0.509   0.058   2.298  0.1310 -0.2256  4.2762
  547SOL     OW 1639   1.087   0.371   0.326  0.2491 -0.7732  0.5238
  547SOL    HW1 1640   1.069   0.313   0.248  3.5268  1.9537  2.6219
  547SOL    HW2 1641   1.019   0.446   0.337 -1.4103 -0.5877  1.6908
  548SOL     OW 1642   1.504   2.036   0.026 -1.1687 -0.2407  0.2229
  548SOL    HW1 1643   1.600   2.046   0.059 -0.2459 -2.9968 -0.8615
  548SOL    HW2 1644   1.497   2.000   3.030 -1.2554 -0.2441  1.3235
  549SOL     OW 1645   2.097   1.092   0.115 -0.1087  0.0971 -0.1238
  549SOL    HW1 1646   2.048   1.182   0.100  0.3117  0.9826 -0.6117
  549SOL    HW2 1647   2.115   1.072   0.211  0.4595 -0.6794 -2.2051
  550SOL     OW 1648   2.498   2.037   0.158  0.1674 -0.0033 -0.0566
  550SOL    HW1 1649   2.422   2.057   0.220  0.2872  1.6796  1.3481
  550SOL    HW2 1650   2.574   2.107   0.181  3.2031  2.1856  0.3110
  551SOL     OW 1651   1.322   0.503   1.475 -0.4323  0.0892  0.1342
  551SOL    HW1 1652   1.354   0.566   1.403 -0.1345 -0.3972  1.5221
  551SOL    HW2 1653   1.267   0.424   1.435 -0.5260 -1.3729  2.3164
  552SOL     OW 1654   0.289   2.268   2.913  0.0086  0.0877 -0.2226
  552SOL    HW1 1655   0.291   2.172   2.880  0.2874 -3.5747  0.7623
  552SOL    HW2 1656   0.196   2.290   2.946  0.6265 -0.5758 -2.5616
  553SOL     OW 1657   2.877   2.745   0.752 -0.2820  0.1797  0.2263
  553SOL    HW1 1658   2.880   2.654   0.799  2.9939 -0.8064 -3.5914
  553SOL    HW2 1659   2.955   2.797   0.772 -1.2500 -5.0235 -2.0660
  554SOL     OW 1660   2.064   1.524   1.765  0.3014 -0.0226 -0.5101
  554SOL    HW1 1661   2.082   1.440   1.820  0.9091  3.5624 -2.4474
  554SOL    HW2 1662   1.973   1.563   1.794  2.1986  1.8534  0.7536
  555SOL     OW 1663   1.417   2.089   2.210  0.3783 -0.1205  0.1992
  555SOL    HW1 1664   1.336   2.055   2.270 -3.3494 -0.6395  3.1067
  555SOL    HW2 1665   1.425   2.192   2.212 -2.0089  1.2560 -0.8032
  556SOL     OW 1666   1.259   1.480   1.838 -0.4228  0.3330  0.2957
  556SOL    HW1 1667   1.169   1.481   1.883 -0.4983 -0.6497  0.6555
  556SOL    HW2 1668   1.246   1.484   1.737  1.7884 -0.8906 -1.5026
  557SOL     OW 1669   1.423   3.057   1.768  0.7671  0.5480 -0.4290
  557SOL    HW1 1670   1.429   2.959   1.790 -1.1706 -0.2248 -0.8615
  557SOL    HW2 1671   1.342   0.004   1.812  3.1992  3.5016  1.9674
  558SOL     OW 1672   0.500   2.867   2.067 -0.1453  0.1963  0.1189
  558SOL    HW1 1673   0.468   2.895   1.972 -0.7542  0.1543  2.3439
  558SOL    HW2 1674   0.546   2.944   2.114  0.6361  2.8897  0.4987
  559SOL     OW 1675   1.939   2.409   0.171  0.0054 -0.6238  0.2256
  559SOL    HW1 1676   1.894   2.499   0.165  1.4772  1.1432  1.2271
  559SOL    HW2 1677   1.996   2.400   0.258 -0.3036  1.7103  3.2666
  560SOL     OW 1678   1.216   2.122   0.490 -0.0969 -0.0280 -0.3482
  560SOL    HW1 1679   1.282   2.041   0.514  3.1514 -2.2553 -0.5608
  560SOL    HW2 1680   1.248   2.171   0.410 -1.2960 -0.7789 -1.1356
  561SOL     OW 1681   1.317   0.461   0.101 -0.3611 -0.1029 -0.3852
  561SOL    HW1 1682   1.247   0.494   0.167 -2.0070  0.3343 -0.5464
  561SOL    HW2 1683   1.302   0.364   0.070  0.0473 -1.0130  1.0976
  562SOL     OW 1684   0.573   1.436   2.009  0.4508 -0.0939 -0.4390
  562SOL    HW1 1685   0.674   1.416   2.001  0.9661  2.1900  1.1809
  562SOL    HW2 1686   0.531   1.453   1.917 -2.2213 -0.5355  2.2395
  563SOL     OW 1687   1.374   2.120   2.584 -0.4209  0.4665 -0.9873
  563SOL    HW1 1688   1.324   2.034   2.568 -0.1379 -0.1618  2.7348
  563SOL    HW2 1689   1.435   2.123   2.668 -0.2485  0.1666  1.0677
  564SOL     OW 1690   2.854   0.981   0.915  0.0371 -0.0015  0.1209
  564SOL    HW1 1691   2.856   0.881   0.903 -0.5363  1.2182  1.5908
  564SOL    HW2 1692   2.769   1.024   0.961 -2.5992  3.8749  2.0183
  565SOL     OW 1693   0.484   1.205   0.055  0.7369 -0.4347  0.0121
  565SOL    HW1 1694   0.414   1.166   3.088 -0.7916  0.2228  1.9364
  565SOL    HW2 1695   0.562   1.141   0.065  1.8262  3.3275  0.3204
  566SOL     OW 1696   2.624   2.758   2.931 -0.0718  0.0746  0.1048
  566SOL    HW1 1697   2.638   2.854   2.952  2.9058 -0.6365  1.3896
  566SOL    HW2 1698   2.561   2.707   2.991 -1.9995  0.1944  0.9720
  567SOL     OW 1699   1.268   1.346   1.198 -0.3876 -0.0063 -0.5812
  567SOL    HW1 1700   1.363   1.356   1.168  0.5074 -0.2732 -1.2363
  567SOL    HW2 1701   1.266   1.298   1.288  0.5548  2.1650 -0.5724
  568SOL     OW 1702   1.420   1.278   2.754  0.1199  0.0307  0.3607
  568SOL    HW1 1703   1.332   1.236   2.777 -0.6070 -1.5917 -0.0487
  568SOL    HW2 1704   1.402   1.363   2.699  0.1026  0.9382  0.2964
  569SOL     OW 1705   2.262   1.685   3.060  0.1778  0.0901  0.3775
  569SOL    HW1 1706   2.340   1.739   3.081 -4.3310 -2.2888  0.3355
  569SOL    HW2 1707   2.193   1.696   0.027 -0.8676  1.2843 -1.6823
  570SOL     OW 1708   2.812   2.219   2.250  0.5120 -0.4188 -0.1747
  570SOL    HW1 1709   2.816   2.258   2.155 -0.3591  1.1727  2.0253
  570SOL    HW2 1710   2.890   2.163   2.270 -1.8914  0.1679  1.3838
  571SOL     OW 1711   2.856   1.939   1.792  0.2539 -0.2327  0.6535
  571SOL    HW1 1712   2.862   1.833   1.795 -0.9493 -2.8154  1.1330
  571SOL    HW2 1713   2.781   1.968   1.855 -0.1031 -0.3526 -2.1347
  572SOL     OW 1714   1.647   2.291   0.514 -0.1441  0.0503 -0.3762
  572SOL    HW1 1715   1.586   2.372   0.504  1.9399 -3.9539 -0.9601
  572SOL    HW2 1716   1.678   2.259   0.426  0.6973  2.7065  0.4298
  573SOL     OW 1717   1.375   1.930   0.592 -0.7589 -0.4461  0.1898
  573SOL    HW1 1718   1.444   1.994   0.636  2.6773  1.3714 -0.0080
  573SOL    HW2 1719   1.304   1.902   0.660 -0.9234 -2.4198 -1.5193
  574SOL     OW 1720   1.412   3.097   1.467  0.0418 -0.0802 -0.3626
  574SOL    HW1 1721   1.496   3.041   1.445  2.1244 -0.9759  0.7908
  574SOL    HW2 1722   1.415   0.015   1.568  1.5884 -1.0469  1.4673
  575SOL     OW 1723   0.405   1.105   1.237 -0.2323 -0.5013 -0.1182
  575SOL    HW1 1724   0.451   1.042   1.304 -0.1847 -0.7227  0.7856
  575SOL    HW2 1725   0.411   1.199   1.265  1.3940 -4.3126 -1.9510
  576SOL     OW 1726   2.567   0.524   1.067  0.3534 -0.2665  0.0701
  576SOL    HW1 1727   2.632   0.529   1.144 -1.3163 -0.2837 -2.0565
  576SOL    HW2 1728   2.527   0.437   1.050 -2.8419  0.9676 -1.0254
  577SOL     OW 1729   1.524   0.640   2.457  0.4446 -0.0373 -0.7462
  577SOL    HW1 1730   1.461   0.696   2.515 -0.2133 -0.6163 -0.2599
  577SOL    HW2 1731   1.477   0.606   2.371  0.1237 -1.4462 -0.7212
  578SOL     OW 1732   2.048   1.365   2.626 -0.2215 -0.4420 -0.1457
  578SOL    HW1 1733   2.005   1.416   2.709  1.1247  0.0166  2.2411
  578SOL    HW2 1734   2.105   1.438   2.572  0.6519  1.4060 -1.7956
  579SOL     OW 1735   0.532   1.595   1.341  0.6592  0.4733 -0.2519
  579SOL    HW1 1736   0.502   1.666   1.408  0.5341  1.8354 -1.6132
  579SOL    HW2 1737   0.445   1.564   1.294  2.3320  0.7747  0.1894
  580SOL     OW 1738   1.497   2.423   0.229  0.4957  0.1225 -1.2394
  580SOL    HW1 1739   1.487   2.469   0.138 -0.2825  0.5541 -0.3376
  580SOL    HW2 1740   1.580   2.366   0.233  0.1812  0.5896  0.2495
  581SOL     OW 1741   0.867   0.915   2.173  0.2766  0.2731  0.1807
  581SOL    HW1 1742   0.781   0.923   2.113 -0.8423 -0.4421 -0.4339
  581SOL    HW2 1743   0.934   0.844   2.140 -0.3459 -0.0417 -1.8743
  582SOL     OW 1744   0.662   1.176   0.867  0.1815  0.0676 -0.1641
  582SOL    HW1 1745   0.665   1.093   0.925  0.2112 -0.9581 -0.8182
  582SOL    HW2 1746   0.729   1.247   0.893 -2.7679 -0.2157  1.4175
  583SOL     OW 1747   0.764   1.143   1.980 -0.0430  1.1333  0.2055
  583SOL    HW1 1748   0.756   1.223   1.912 -2.7395  1.4330 -1.5518
  583SOL    HW2 1749   0.771   1.163   2.077  1.9740 -0.5492 -1.8781
  584SOL     OW 1750   2.148   2.763   0.286 -0.4161  0.3377 -0.0767
  584SOL    HW1 1751   2.049   2.739   0.283 -1.0548  1.3038  1.3272
  584SOL    HW2 1752   2.168   2.846   0.345  3.5584  4.1167  2.0874
  585SOL     OW 1753   1.945   0.243   2.722  0.0717  0.1075  0.6867
  585SOL    HW1 1754   1.959   0.141   2.708  0.6295 -0.3276  2.1708
  585SOL    HW2 1755   1.885   0.285   2.652  1.5124 -1.0020  1.1979
  586SOL     OW 1756   0.174   1.744   0.379 -0.2111  0.9063 -0.1530
  586SOL    HW1 1757   0.195   1.737   0.477 -1.5390 -0.4182 -1.8282
  586SOL    HW2 1758   0.088   1.699   0.352 -0.7249 -1.6623 -1.0558
  587SOL     OW 1759   1.748   1.901   0.645 -0.2066  0.1754 -0.2256
  587SOL    HW1 1760   1.744   1.810   0.694 -3.4539 -0.4994  0.9656
  587SOL    HW2 1761   1.841   1.931   0.613  0.2072  0.0935 -1.1721
  588SOL     OW 1762   0.435   0.268   0.929  0.1088 -0.3003  0.0172
  588SOL    HW1 1763   0.358   0.227   0.982 -5.2423  0.2441 -3.1719
  588SOL    HW2 1764   0.487   0.193   0.880 -3.1246 -1.3547 -1.1763
  589SOL     OW 1765   1.167   0.599   0.977 -0.7566 -0.2611 -0.1357
  589SOL    HW1 1766   1.081   0.577   0.926 -0.2183 -0.0709  3.7238
  589SOL    HW2 1767   1.188   0.698   0.963 -1.6747 -1.5316 -2.0719
  590SOL     OW 1768   1.427   1.078   0.193  0.1194  0.1135  0.1928
  590SOL    HW1 1769   1.480   1.164   0.183 -2.7649  0.7744 -0.9403
  590SOL    HW2 1770   1.339   1.088   0.244 -1.9664  0.7225 -0.1483
  591SOL     OW 1771   2.634   2.668   2.466  0.2524 -0.1559 -0.4704
  591SOL    HW1 1772   2.659   2.664   2.564 -1.6957  2.4036 -0.3944
  591SOL    HW2 1773   2.695   2.607   2.409 -0.7424  3.8129 -0.9008
  592SOL     OW 1774   1.481   2.084   0.974 -0.1879  0.7331 -0.5657
  592SOL    HW1 1775   1.534   2.084   0.884  0.5665  0.1379 -0.4163
  592SOL    HW2 1776   1.485   2.180   1.009 -0.8037  0.6694  2.2816
  593SOL     OW 1777   1.211   0.127   0.917  0.1596  0.2761  0.4870
  593SOL    HW1 1778   1.197   0.025   0.907  0.9722 -0.5689  1.1985
  593SOL    HW2 1779   1.155   0.159   0.996 -1.8780  0.8406 -3.9633
  594SOL     OW 1780   2.978   0.794   2.321 -0.2797 -0.6868  0.4664
  594SOL    HW1 1781   3.025   0.848   2.250  1.2236 -1.5020 -0.2429
  594SOL    HW2 1782   3.019   0.701   2.318 -3.2204  1.4794  1.3439
  595SOL     OW 1783   0.586   2.590   1.325  0.1539  0.5178 -1.1656
  595SOL    HW1 1784   0.598   2.684   1.298 -0.6738 -3.5127 -0.3814
  595SOL    HW2 1785   0.502   2.577   1.380 -5.6365  0.0217  0.0286
  596SOL     OW 1786   0.215   0.894   1.418 -0.1454 -0.1605  0.1912
  596SOL    HW1 1787   0.303   0.845   1.443 -2.5511 -0.9823 -1.3654
  596SOL    HW2 1788   0.137   0.833   1.423  2.5284 -0.2673 -1.8082
  597SOL     OW 1789   1.784   1.885   0.308 -0.4725  0.5804  0.0958
  597SOL    HW1 1790   1.702   1.862   0.364 -0.5583 -1.5760 -1.9328
  597SOL    HW2 1791   1.853   1.810   0.322  1.4772  0.6312  0.6735
  598SOL     OW 1792   0.358   2.780   1.676 -0.6396  0.5789 -0.4353
  598SOL    HW1 1793   0.339   2.721   1.597  0.1678 -0.9058  1.4647
  598SOL    HW2 1794   0.456   2.772   1.705 -0.3971  0.6248 -0.8800
  599SOL     OW 1795   2.551   1.878   2.817  0.4663 -0.5563  0.0573
  599SOL    HW1 1796   2.460   1.891   2.772  0.8202  0.7209  0.0177
  599SOL    HW2 1797   2.538   1.888   2.919  0.9096  1.5918 -0.0061
  600SOL     OW 1798   0.643   0.858   0.234 -0.2172  0.4749 -0.4908
  600SOL    HW1 1799   0.632   0.955   0.221  0.7002 -2.3656 -1.1196
  600SOL    HW2 1800   0.713   0.832   0.303  2.0334 -2.2497  1.0672
  601SOL     OW 1801   0.873   0.813   0.422  0.3875 -0.5685  0.2580
  601SOL    HW1 1802   0.938   0.872   0.477 -0.2217  0.6973 -1.5604
  601SOL    HW2 1803   0.806   0.769   0.479  3.1434  0.2003 -3.2736
  602SOL     OW 1804   1.413   2.793   0.829  0.4925 -0.3903  0.2693
  602SOL    HW1 1805   1.479   2.821   0.904 -0.3781 -0.1406 -1.6743
  602SOL    HW2 1806   1.444   2.826   0.738 -1.3117  0.2445  2.5248
  603SOL     OW 1807   0.687   2.677   2.155  0.1267 -0.3230  0.2365
  603SOL    HW1 1808   0.641   2.767   2.156 -4.9525 -0.6310  0.0712
  603SOL    HW2 1809   0.774   2.671   2.099  3.8582 -0.3286 -0.5763
  604SOL     OW 1810   0.104   0.119   2.297 -0.4694 -0.5413  0.1821
  604SOL    HW1 1811   0.129   0.023   2.282 -0.8117  0.4792  0.5829
  604SOL    HW2 1812   0.168   0.160   2.364  0.8156  0.0995  1.6224
  605SOL     OW 1813   2.625   2.039   1.319  0.3506  0.5210  0.0438
  605SOL    HW1 1814   2.545   2.085   1.276  0.7737 -0.4037 -0.7857
  605SOL    HW2 1815   2.620   2.044   1.421  0.6211  2.1771  0.7913
  606SOL     OW 1816   0.405   1.589   2.946 -0.4220  0.5733 -0.8630
  606SOL    HW1 1817   0.385   1.683   2.984  0.5751  2.1530 -1.0227
  606SOL    HW2 1818   0.423   1.599   2.850  1.8945  0.2395  4.4978
  607SOL     OW 1819   0.987   0.236   0.127  0.0133 -0.3228  0.5287
  607SOL    HW1 1820   0.898   0.187   0.132  1.1436  2.5297  0.4478
  607SOL    HW2 1821   0.993   0.281   0.033 -1.3032 -0.0346  0.1234
  608SOL     OW 1822   1.676   1.127   2.363 -0.6493  0.0820  0.0418
  608SOL    HW1 1823   1.761   1.145   2.417 -1.1439  0.7673 -1.0449
  608SOL    HW2 1824   1.667   1.025   2.358 -0.6448 -0.3017  0.5955
  609SOL     OW 1825   2.980   0.312   0.864 -0.0167  0.1628  0.1271
  609SOL    HW1 1826   3.009   0.242   0.929  1.1070  2.4890 -3.1780
  609SOL    HW2 1827   2.954   0.401   0.909 -0.4815  1.3471 -0.3016
  610SOL     OW 1828   0.510   2.724   0.566  0.5065 -0.1922 -0.7639
  610SOL    HW1 1829   0.605   2.720   0.547 -2.1688  0.8031  1.1861
  610SOL    HW2 1830   0.495   2.699   0.667  1.2397 -2.9228  1.6737
  611SOL     OW 1831   1.584   1.014   2.881 -0.4898  0.0990 -0.3852
  611SOL    HW1 1832   1.567   0.935   2.947 -0.3259 -1.4420  1.1854
  611SOL    HW2 1833   1.595   1.103   2.935 -0.4045  0.2071  1.5702
  612SOL     OW 1834   0.960   2.100   2.357  0.1012 -0.1322 -0.6927
  612SOL    HW1 1835   0.942   2.056   2.448 -1.0578  0.4431  0.8089
  612SOL    HW2 1836   0.946   2.197   2.377  0.9952 -3.7703  1.0001
  613SOL     OW 1837   1.291   2.240   0.258  0.1193 -0.3633 -0.2981
  613SOL    HW1 1838   1.371   2.302   0.274 -0.0288 -1.1581 -1.5040
  613SOL    HW2 1839   1.294   2.209   0.160  1.4652 -0.4555 -2.5040
  614SOL     OW 1840   2.552   2.994   1.474  0.3472 -0.0103  0.0418
  614SOL    HW1 1841   2.606   3.004   1.387  3.1450  1.2667 -0.2950
  614SOL    HW2 1842   2.591   3.037   1.557  0.6470  0.7921 -0.4001
  615SOL     OW 1843   2.237   1.406   0.007  0.0431 -0.3139 -0.0109
  615SOL    HW1 1844   2.231   1.498   3.058  1.6645  2.3123 -2.5727
  615SOL    HW2 1845   2.324   1.392   0.054 -1.7517  0.1926  1.5762
  616SOL     OW 1846   1.443   0.048   0.278 -0.1823  0.5551  0.0414
  616SOL    HW1 1847   1.343   0.072   0.272  1.3926  0.0784 -2.2128
  616SOL    HW2 1848   1.495   0.131   0.253 -0.4681 -0.5712  2.1279
  617SOL     OW 1849   0.710   1.080   0.071  0.1659  0.4459  0.2713
  617SOL    HW1 1850   0.770   1.063   3.087  0.2611  0.9415  1.1261
  617SOL    HW2 1851   0.759   1.152   0.130  1.6208  0.8707  3.5515
  618SOL     OW 1852   0.736   0.306   2.055 -0.3986  0.3785  0.2717
  618SOL    HW1 1853   0.720   0.321   2.158 -0.8642  0.5507 -0.0287
  618SOL    HW2 1854   0.670   0.348   1.990  0.9152  1.6728 -0.0130
  619SOL     OW 1855   0.054   1.114   1.393 -0.0734  0.0614  0.2864
  619SOL    HW1 1856   0.124   1.039   1.386 -0.1661 -0.7112 -0.8576
  619SOL    HW2 1857   0.012   1.136   1.303 -0.8056  0.1746  0.3823
  620SOL     OW 1858   1.900   0.998   2.850 -0.5805 -0.6307  0.5769
  620SOL    HW1 1859   1.979   0.974   2.791  1.5820  0.7233  0.6862
  620SOL    HW2 1860   1.812   0.975   2.811  0.6737  0.4367  0.7268
  621SOL     OW 1861   2.349   2.778   1.161  0.5033 -0.1796 -0.3559
  621SOL    HW1 1862   2.284   2.842   1.126  1.7728 -0.5855  2.1555
  621SOL    HW2 1863   2.343   2.780   1.260 -0.2719  2.4118  0.0418
  622SOL     OW 1864   1.370   0.759   2.659 -0.2052  0.0805  0.2186
  622SOL    HW1 1865   1.376   0.859   2.666  1.1216 -0.5279 -0.4348
  622SOL    HW2 1866   1.400   0.710   2.745 -2.3726  0.9256  0.2278
  623SOL     OW 1867   1.269   0.196   0.015  0.5303 -0.2176  0.0717
  623SOL    HW1 1868   1.179   0.211   3.073  1.3501 -1.9132 -3.0549
  623SOL    HW2 1869   1.332   0.148   3.053  0.3859 -0.4744 -0.6554
  624SOL     OW 1870   1.821   0.465   3.076 -0.6737 -0.1071  0.0429
  624SOL    HW1 1871   1.855   0.537   0.041 -1.6320 -1.2419  0.6798
  624SOL    HW2 1872   1.900   0.426   3.032 -1.3952  2.7028 -2.5554
  625SOL     OW 1873   0.824   1.358   0.969 -0.0845 -0.2379 -0.3314
  625SOL    HW1 1874   0.899   1.305   1.018  0.2287  1.5494 -0.7036
  625SOL    HW2 1875   0.813   1.457   0.997  0.4436  1.2399 -3.0955
  626SOL     OW 1876   1.541   1.275   2.989  0.5389 -0.0707  0.5230
  626SOL    HW1 1877   1.492   1.325   3.064 -1.8086 -3.0879  2.1463
  626SOL    HW2 1878   1.484   1.286   2.905 -1.8978  0.3163 -0.5281
  627SOL     OW 1879   0.958   2.653   2.108  0.5353  0.1127 -0.3704
  627SOL    HW1 1880   0.943   2.585   2.033 -0.5983  0.0781  0.2763
  627SOL    HW2 1881   1.022   2.722   2.069  0.7327  3.2804  2.2959
  628SOL     OW 1882   2.407   0.207   2.217  0.0038 -0.5079 -0.2064
  628SOL    HW1 1883   2.461   0.232   2.133  1.2626  2.5704  0.8204
  628SOL    HW2 1884   2.447   0.129   2.267 -1.5292 -1.1813  0.7564
  629SOL     OW 1885   0.898   1.054   2.953  0.0118 -0.2887 -0.2760
  629SOL    HW1 1886   0.994   1.020   2.956 -0.5600  1.2988 -1.7805
  629SOL    HW2 1887   0.834   0.985   2.914 -2.1423 -0.8938  0.9109
  630SOL     OW 1888   1.210   0.136   2.123  0.0183 -0.0880  0.5348
  630SOL    HW1 1889   1.183   0.223   2.169  0.3170  1.2184 -0.0215
  630SOL    HW2 1890   1.268   0.073   2.181 -1.2430  0.0273 -0.8597
  631SOL     OW 1891   2.741   0.500   0.678 -0.1477 -0.3595 -0.2433
  631SOL    HW1 1892   2.751   0.566   0.757 -2.4917  1.2147  1.6283
  631SOL    HW2 1893   2.819   0.501   0.612 -0.2357  0.1507  0.4517
  632SOL     OW 1894   2.049   1.062   1.232  0.0519 -0.3372 -0.1305
  632SOL    HW1 1895   2.004   0.978   1.188 -1.5661 -2.7211  0.2543
  632SOL    HW2 1896   2.130   1.042   1.295 -1.2891  3.4906 -0.1092
  633SOL     OW 1897   1.622   0.697   0.742 -0.8424  0.3033  0.3204
  633SOL    HW1 1898   1.640   0.794   0.727 -1.2835 -0.0196  1.9586
  633SOL    HW2 1899   1.629   0.670   0.838  1.2106 -1.3382 -1.6714
  634SOL     OW 1900   1.904   3.069   0.718 -0.3111 -0.2650  0.0271
  634SOL    HW1 1901   1.955   3.096   0.804 -1.2229  0.4663  0.9034
  634SOL    HW2 1902   1.805   0.005   0.727  0.3705 -2.0999  0.2170
  635SOL     OW 1903   1.631   0.863   1.153  0.2471 -0.2926 -0.0503
  635SOL    HW1 1904   1.619   0.779   1.096 -1.0600 -0.1361 -4.6654
  635SOL    HW2 1905   1.540   0.909   1.163  2.5018 -0.1812  0.2195
  636SOL     OW 1906   0.612   0.391   0.699  0.1783  0.8876 -0.1550
  636SOL    HW1 1907   0.553   0.370   0.780  0.2088 -3.4176  0.3647
  636SOL    HW2 1908   0.711   0.369   0.718  0.9951  0.0652 -1.1404
  637SOL     OW 1909   2.031   2.360   0.419 -0.8180 -0.5165 -0.5231
  637SOL    HW1 1910   1.978   2.392   0.502  1.1291 -0.8931 -0.7532
  637SOL    HW2 1911   2.123   2.414   0.417  3.8768  0.2099  0.6040
  638SOL     OW 1912   1.607   2.783   2.630  0.2661 -0.1480  0.0200
  638SOL    HW1 1913   1.613   2.803   2.731 -2.3439 -1.7848 -1.3341
  638SOL    HW2 1914   1.678   2.718   2.608 -1.8652  4.0550  1.6278
  639SOL     OW 1915   0.777   2.033   1.286 -0.0168 -0.2331 -0.0657
  639SOL    HW1 1916   0.818   2.119   1.318 -3.3756 -0.8403 -3.3578
  639SOL    HW2 1917   0.714   2.045   1.209 -0.8446 -0.8289  1.9920
  640SOL     OW 1918   0.179   2.676   0.254 -0.2328  0.6074 -0.7341
  640SOL    HW1 1919   0.131   2.760   0.287  0.1190 -2.4654 -0.9702
  640SOL    HW2 1920   0.210   2.611   0.327 -0.1492 -0.7815  0.2228
  641SOL     OW 1921   3.083   0.170   0.128  0.3667 -0.0271  0.3040
  641SOL    HW1 1922   2.997   0.118   0.118  0.9400  0.6839  0.8708
  641SOL    HW2 1923   0.065   0.114   0.146 -1.3847  0.4530 -0.2917
  642SOL     OW 1924   3.056   0.882   1.095 -0.1464 -0.1241 -0.3285
  642SOL    HW1 1925   2.996   0.835   1.167 -0.2503 -0.8327  0.7810
  642SOL    HW2 1926   3.005   0.919   1.017  1.4074 -0.5581 -0.3105
  643SOL     OW 1927   0.643   1.863   2.022 -0.5339  0.2393 -0.0192
  643SOL    HW1 1928   0.691   1.939   2.077  2.4836  2.5232  0.4055
  643SOL    HW2 1929   0.707   1.815   1.958 -1.6114  2.3670  1.0586
  644SOL     OW 1930   1.701   2.656   0.664 -0.2218  0.0228 -0.3514
  644SOL    HW1 1931   1.706   2.615   0.758  1.9975 -0.4865  1.4921
  644SOL    HW2 1932   1.636   2.602   0.611  1.8044  1.6417  0.0498
  645SOL     OW 1933   1.674   2.536   0.916  0.5973 -0.1760  0.1465
  645SOL    HW1 1934   1.721   2.526   1.005 -1.9761  0.0103  0.5074
  645SOL    HW2 1935   1.579   2.560   0.937 -0.1616 -0.9641  0.5286
  646SOL     OW 1936   1.318   2.693   0.211  0.0948 -0.0352 -0.3765
  646SOL    HW1 1937   1.267   2.649   0.287  1.5473 -1.2074 -1.0363
  646SOL    HW2 1938   1.272   2.778   0.169 -2.7433  0.1184 -3.3447
  647SOL     OW 1939   0.335   2.991   1.850 -0.2346 -0.6547  0.4930
  647SOL    HW1 1940   0.238   3.015   1.874 -2.1739 -0.2504  1.9856
  647SOL    HW2 1941   0.336   2.916   1.785 -0.8133 -0.7050 -0.2372
  648SOL     OW 1942   1.899   0.856   1.166  0.4475  0.1090 -0.5901
  648SOL    HW1 1943   1.925   0.810   1.255 -1.8337  0.4006  0.5711
  648SOL    HW2 1944   1.800   0.876   1.163  1.2959  0.5987  2.6053
  649SOL     OW 1945   1.870   2.192   2.828 -0.1047 -0.4035  0.3375
  649SOL    HW1 1946   1.903   2.098   2.843 -0.6332  1.6092  0.2832
  649SOL    HW2 1947   1.879   2.250   2.914 -0.6439 -0.4348  1.4806
  650SOL     OW 1948   2.576   1.679   1.844  0.4406  0.6507  0.1384
  650SOL    HW1 1949   2.654   1.664   1.908 -1.0730 -1.3195 -0.0699
  650SOL    HW2 1950   2.490   1.662   1.900  2.5391  0.0587  0.0367
  651SOL     OW 1951   1.467   1.937   2.881  0.3436  0.1016  0.7896
  651SOL    HW1 1952   1.471   1.836   2.908  0.2706  1.9053  0.2720
  651SOL    HW2 1953   1.549   1.961   2.826 -1.2809 -1.3490  3.7760
  652SOL     OW 1954   0.964   2.803   2.812  0.0906  0.1666  0.1173
  652SOL    HW1 1955   1.006   2.711   2.798 -1.3426 -1.6200  1.1774
  652SOL    HW2 1956   1.032   2.871   2.850  0.0799 -1.4257  0.0036
  653SOL     OW 1957   2.029   2.293   1.122 -0.4417  0.2874 -0.4923
  653SOL    HW1 1958   2.113   2.228   1.112  2.7183 -1.8993 -3.2496
  653SOL    HW2 1959   1.975   2.293   1.036  0.0455  3.3203  1.8914
  654SOL     OW 1960   2.634   2.639   2.048 -0.3030  0.3158 -0.3252
  654SOL    HW1 1961   2.634   2.541   2.023 -2.3434  2.1361 -0.2273
  654SOL    HW2 1962   2.557   2.668   2.112 -1.8506  0.5248  0.6036
  655SOL     OW 1963   2.907   2.051   1.220  0.1540  0.1664  0.7931
  655SOL    HW1 1964   2.905   2.101   1.128 -0.4447  0.8295  0.4596
  655SOL    HW2 1965   2.811   2.033   1.260 -0.0842  1.3189  0.8337
  656SOL     OW 1966   0.308   2.515   2.729  0.1165  0.0016 -0.2189
  656SOL    HW1 1967   0.359   2.528   2.643 -1.9848 -0.6005  0.6703
  656SOL    HW2 1968   0.307   2.420   2.759  1.0365  0.9657  0.6062
  657SOL     OW 1969   2.920   0.899   0.494 -0.5706 -0.2118  0.2297
  657SOL    HW1 1970   2.962   0.803   0.493  1.1249  0.2701  0.6584
  657SOL    HW2 1971   2.831   0.903   0.455  3.7460 -0.9118 -1.2100
  658SOL     OW 1972   1.489   1.812   0.987  0.0751 -0.2160  0.2608
  658SOL    HW1 1973   1.390   1.803   1.022 -2.0367  2.3247  1.2779
  658SOL    HW2 1974   1.510   1.911   0.971  1.5499  3.7726 -0.9175
  659SOL     OW 1975   1.536   0.428   1.200  0.1900 -0.6980  0.6744
  659SOL    HW1 1976   1.621   0.374   1.210  0.9403  0.5459 -0.2523
  659SOL    HW2 1977   1.476   0.385   1.131 -0.2455  1.5572  1.4938
  660SOL     OW 1978   1.733   1.226   0.434  0.3863  0.7527 -0.4107
  660SOL    HW1 1979   1.722   1.123   0.429 -1.1074  0.0846  3.8502
  660SOL    HW2 1980   1.651   1.263   0.484 -1.5119 -0.2969 -1.1212
  661SOL     OW 1981   0.352   1.641   0.218  0.0654 -0.3269  0.3516
  661SOL    HW1 1982   0.316   1.597   0.129 -3.2543 -0.1273 -0.9813
  661SOL    HW2 1983   0.269   1.650   0.283 -0.2118 -1.3169 -0.5978
  662SOL     OW 1984   3.009   1.144   2.148  0.0022 -0.0954 -0.4877
  662SOL    HW1 1985   2.975   1.208   2.078 -1.6219  1.7003  0.8684
  662SOL    HW2 1986   2.988   1.193   2.234  2.4136  2.0256  1.2871
  663SOL     OW 1987   2.137   1.459   1.282  0.2621  0.5249  0.0520
  663SOL    HW1 1988   2.192   1.545   1.268 -0.4269  1.9600 -1.2186
  663SOL    HW2 1989   2.152   1.433   1.381  2.3513  1.1302  1.1207
  664SOL     OW 1990   0.667   0.030   1.063 -0.0220  0.0849 -0.7582
  664SOL    HW1 1991   0.671   3.036   1.110  0.3987 -1.6139  0.9337
  664SOL    HW2 1992   0.617   0.091   1.133 -1.7450  0.6009  2.9157
  665SOL     OW 1993   1.262   3.058   2.595 -0.2260 -0.0209 -0.6941
  665SOL    HW1 1994   1.363   3.049   2.584 -2.6325  0.9227 -0.8891
  665SOL    HW2 1995   1.233   3.028   2.689 -1.0896  0.3181  0.6692
  666SOL     OW 1996   0.405   0.500   2.286 -0.2202  0.7783  0.8108
  666SOL    HW1 1997   0.363   0.442   2.208 -0.7848 -2.0391 -2.4238
  666SOL    HW2 1998   0.335   0.562   2.328 -3.3285  1.2614  1.2055
  667SOL     OW 1999   1.884   1.453   2.377  0.4020 -0.1123  0.0655
  667SOL    HW1 2000   1.971   1.448   2.324  1.1638 -2.7264 -0.6465
  667SOL    HW2 2001   1.878   1.370   2.436  0.1404 -1.4760 -1.3733
  668SOL     OW 2002   0.161   1.574   2.685  0.1688 -0.5251 -0.0266
  668SOL    HW1 2003   0.145   1.468   2.696  0.1000 -1.1056  2.0598
  668SOL    HW2 2004   0.127   1.630   2.764 -1.1363  3.1331  0.8449
  669SOL     OW 2005   2.239   3.047   2.507  0.1719 -0.5142 -0.1725
  669SOL    HW1 2006   2.317   2.987   2.506  2.1844  0.6630  0.1638
  669SOL    HW2 2007   2.229   3.094   2.599  2.3549  1.8715  1.7220
  670SOL     OW 2008   2.715   1.035   2.493  0.2290  0.3935 -0.4285
  670SOL    HW1 2009   2.814   1.021   2.516 -0.2696 -1.1348  0.2257
  670SOL    HW2 2010   2.654   0.953   2.499 -0.2303  0.1789  2.5160
  671SOL     OW 2011   2.497   1.828   3.088 -0.1049  0.0244  0.1065
  671SOL    HW1 2012   2.473   1.903   0.058 -1.2610 -0.6157  2.4391
  671SOL    HW2 2013   2.596   1.795   0.001  1.8140 -0.6362  0.9310
  672SOL     OW 2014   2.539   1.399   2.112  0.1649 -0.0265 -0.5549
  672SOL    HW1 2015   2.493   1.402   2.202  1.1386 -2.7065  0.6467
  672SOL    HW2 2016   2.470   1.370   2.045  1.2209  1.7791 -1.8622
  673SOL     OW 2017   2.782   1.545   0.975  0.4470  0.7716 -0.5117
  673SOL    HW1 2018   2.684   1.552   0.995  1.4657  1.6473 -4.3644
  673SOL    HW2 2019   2.831   1.627   1.001  0.9247 -1.4399  0.3400
  674SOL     OW 2020   1.377   1.683   1.992 -0.2770 -0.1860 -0.5103
  674SOL    HW1 2021   1.451   1.717   1.927  0.3477 -1.0265 -0.1133
  674SOL    HW2 2022   1.327   1.605   1.956 -0.8763  3.2017 -0.4140
  675SOL     OW 2023   2.804   0.476   1.258  0.3017  0.7046 -0.7643
  675SOL    HW1 2024   2.874   0.477   1.183 -1.1702  1.1469  0.3434
  675SOL    HW2 2025   2.810   0.385   1.307  2.2926 -0.1172 -0.7059
  676SOL     OW 2026   2.725   1.314   0.615 -0.0215 -0.4964  0.1314
  676SOL    HW1 2027   2.637   1.319   0.671 -0.7465 -0.3369 -1.7096
  676SOL    HW2 2028   2.777   1.229   0.639 -2.6378  0.5865  0.0689
  677SOL     OW 2029   1.690   1.475   2.207 -0.3101 -0.6668  0.6449
  677SOL    HW1 2030   1.773   1.472   2.274 -0.7753  1.5796  0.9819
  677SOL    HW2 2031   1.672   1.382   2.167 -0.6614  0.5608 -1.6437
  678SOL     OW 2032   2.519   1.309   1.033 -0.0060 -0.3858  0.5005
  678SOL    HW1 2033   2.515   1.401   1.083  0.4180  3.2243  0.2216
  678SOL    HW2 2034   2.434   1.256   1.050 -0.8656 -1.1387  0.8611
  679SOL     OW 2035   0.460   2.624   0.809 -0.6952  0.3029  0.2793
  679SOL    HW1 2036   0.551   2.612   0.857 -0.5116  0.1173  0.8731
  679SOL    HW2 2037   0.399   2.545   0.830 -1.6246  0.9386  3.5708
  680SOL     OW 2038   2.694   1.769   1.229  0.6989  0.1013  0.1108
  680SOL    HW1 2039   2.760   1.749   1.304  1.2637 -0.1409  0.5019
  680SOL    HW2 2040   2.650   1.856   1.258  1.8712 -4.2124 -2.1777
  681SOL     OW 2041   0.819   0.803   1.255  0.9305 -0.4802  0.1985
  681SOL    HW1 2042   0.885   0.825   1.332 -1.3438  2.3648 -0.6432
  681SOL    HW2 2043   0.760   0.721   1.277  0.8020 -1.6504 -2.1995
  682SOL     OW 2044   1.663   0.055   0.762 -0.1948  0.0894  0.6899
  682SOL    HW1 2045   1.640   0.042   0.859  2.5882  0.2675  0.6800
  682SOL    HW2 2046   1.578   0.034   0.706 -0.0997  1.5150 -1.1223
  683SOL     OW 2047   2.423   1.481   1.664 -0.3055  0.4650 -0.8033
  683SOL    HW1 2048   2.470   1.571   1.672 -3.6670 -0.2703 -1.5901
  683SOL    HW2 2049   2.491   1.412   1.641 -1.0669  1.1528 -0.8632
  684SOL     OW 2050   0.052   1.635   1.628  0.0269  0.0169  0.2438
  684SOL    HW1 2051   0.037   1.553   1.573  1.6295 -0.7315  3.9345
  684SOL    HW2 2052   0.146   1.628   1.668  0.7116  0.7397 -0.8570
  685SOL     OW 2053   1.976   1.713   0.388 -0.1735  0.3277  0.1330
  685SOL    HW1 2054   1.980   1.748   0.483 -0.2838 -2.4566  1.1422
  685SOL    HW2 2055   2.027   1.625   0.384 -0.5336  0.7510 -1.7576
  686SOL     OW 2056   2.715   0.210   0.841  0.1377 -0.3841  0.3197
  686SOL    HW1 2057   2.819   0.233   0.835  1.5491  1.8611 -0.4890
  686SOL    HW2 2058   2.669   0.232   0.748  0.2195 -0.5464 -2.9118
  687SOL     OW 2059   1.513   3.030   2.526  0.3694 -0.1060 -0.2538
  687SOL    HW1 2060   1.568   0.010   2.556  0.1055  0.0428 -1.3299
  687SOL    HW2 2061   1.558   2.942   2.555  1.4821  2.1701  2.3083
  688SOL     OW 2062   1.626   1.906   2.473  0.2574 -0.2328 -0.0708
  688SOL    HW1 2063   1.661   1.816   2.504 -0.0349  1.2440 -0.0851
  688SOL    HW2 2064   1.638   1.908   2.371 -0.8451  0.4569 -0.1742
  689SOL     OW 2065   2.740   1.224   1.892  0.4146 -0.6449  0.0579
  689SOL    HW1 2066   2.795   1.265   1.966  1.1760 -2.7476  0.5594
  689SOL    HW2 2067   2.793   1.144   1.858  0.8832 -0.3417 -0.5400
  690SOL     OW 2068   1.773   2.033   1.054  0.4981  0.1227  0.1702
  690SOL    HW1 2069   1.721   2.001   1.138  2.2378 -0.7228  0.5166
  690SOL    HW2 2070   1.856   1.980   1.032 -0.4612  2.2741  0.3550
  691SOL     OW 2071   0.458   1.335   0.906 -0.0288  0.1893 -0.3681
  691SOL    HW1 2072   0.522   1.261   0.879 -1.2042 -2.0692 -0.6532
  691SOL    HW2 2073   0.369   1.293   0.941  0.5042 -1.0133  0.6371
  692SOL     OW 2074   2.586   3.013   2.106 -0.4883  0.5550 -0.7651
  692SOL    HW1 2075   2.511   2.950   2.134  0.7457  0.3052 -0.9792
  692SOL    HW2 2076   2.593   3.010   2.005  0.4444 -1.2138 -1.1479
  693SOL     OW 2077   0.053   1.493   2.443  0.6540 -0.0406 -0.5732
  693SOL    HW1 2078   0.086   1.525   2.532  0.5073 -2.2172  0.1667
  693SOL    HW2 2079   0.115   1.418   2.405  0.6222 -2.0693 -1.4740
  694SOL     OW 2080   2.152   0.246   1.245 -0.7257  0.0815  0.3056
  694SOL    HW1 2081   2.233   0.204   1.289 -0.2054  0.7509 -0.3292
  694SOL    HW2 2082   2.078   0.262   1.319  0.4292 -0.7189 -0.9398
  695SOL     OW 2083   1.200   0.995   3.079  0.5792 -0.1792 -0.2774
  695SOL    HW1 2084   1.159   0.960   0.064  0.6764 -1.8974 -0.2637
  695SOL    HW2 2085   1.295   1.025   3.096 -0.4973  1.8407  0.1280
  696SOL     OW 2086   1.922   0.180   1.797 -0.5642  0.3218 -0.0558
  696SOL    HW1 2087   1.938   0.267   1.849  0.1120 -0.2643  1.8267
  696SOL    HW2 2088   1.822   0.167   1.781  0.0411 -1.2095  1.4511
  697SOL     OW 2089   1.606   0.257   2.132 -0.6168  0.0013 -0.2288
  697SOL    HW1 2090   1.552   0.260   2.216  1.0666 -1.0036 -2.5044
  697SOL    HW2 2091   1.696   0.303   2.138  1.2892 -1.1886 -0.6251
  698SOL     OW 2092   1.749   1.628   2.544 -0.0949 -0.2304  0.2089
  698SOL    HW1 2093   1.698   1.589   2.624  0.6499  0.7365  1.1495
  698SOL    HW2 2094   1.777   1.558   2.474 -0.7871  2.8112  0.6379
  699SOL     OW 2095   1.801   0.720   0.413  0.0382 -0.4327 -0.1969
  699SOL    HW1 2096   1.816   0.737   0.315  0.4330 -0.0296  3.3529
  699SOL    HW2 2097   1.719   0.661   0.428 -0.9421 -2.5271  0.1268
  700SOL     OW 2098   1.490   2.964   3.080  0.0956 -0.0884  0.0081
  700SOL    HW1 2099   1.559   2.960   0.057  0.1821 -0.2869  0.4332
  700SOL    HW2 2100   1.393   2.947   0.004 -1.1243 -0.2780 -0.8752
  701SOL     OW 2101   0.071   0.397   1.172  0.2778 -0.4570  0.6078
  701SOL    HW1 2102   0.071   0.478   1.106  1.7756  2.7677 -1.2957
  701SOL    HW2 2103   0.005   0.326   1.143 -1.9937 -1.1830  1.5183
  702SOL     OW 2104   1.758   0.128   1.450  0.6565 -0.1676  0.4380
  702SOL    HW1 2105   1.716   0.137   1.543  1.6055 -3.2361 -0.3657
  702SOL    HW2 2106   1.789   0.032   1.444 -0.8307  1.4454  0.9858
  703SOL     OW 2107   2.846   0.830   1.296 -0.0010 -0.0915 -0.1809
  703SOL    HW1 2108   2.778   0.762   1.334 -2.4188 -0.3038 -1.1563
  703SOL    HW2 2109   2.817   0.927   1.322 -0.8485 -1.6431  1.4299
  704SOL     OW 2110   0.888   2.285   1.391 -0.1819  0.3752 -0.2560
  704SOL    HW1 2111   0.981   2.252   1.433  1.9428 -0.7006 -0.3268
  704SOL    HW2 2112   0.831   2.323   1.463 -2.4497 -1.8454  0.4216
  705SOL     OW 2113   0.336   1.652   2.370 -0.1625  0.0427  0.6206
  705SOL    HW1 2114   0.390   1.668   2.284  1.6926 -0.3253 -0.3670
  705SOL    HW2 2115   0.345   1.733   2.431  1.6506  0.6933 -3.5100
  706SOL     OW 2116   2.654   0.384   2.747  0.0277 -0.5703  0.4223
  706SOL    HW1 2117   2.596   0.323   2.683  3.3088 -0.2261 -2.1187
  706SOL    HW2 2118   2.667   0.334   2.835  0.1466  2.0545 -2.3354
  707SOL     OW 2119   1.850   2.663   2.310  0.1488 -0.1094 -0.0474
  707SOL    HW1 2120   1.922   2.724   2.271 -2.2368 -0.2901  0.4771
  707SOL    HW2 2121   1.756   2.686   2.280 -0.3264 -2.3926 -1.1782
  708SOL     OW 2122   0.494   2.346   1.678 -0.3388 -0.1523  0.3623
  708SOL    HW1 2123   0.493   2.342   1.780  1.2242 -0.9973  0.0968
  708SOL    HW2 2124   0.403   2.350   1.646  1.0754  1.7982 -0.0040
  709SOL     OW 2125   0.032   0.842   1.873  0.3499 -0.6726  0.1031
  709SOL    HW1 2126   0.086   0.843   1.789 -0.0571  1.3351 -1.1161
  709SOL    HW2 2127   3.090   0.753   1.898 -1.8898 -0.1379 -0.1029
  710SOL     OW 2128   0.013   0.430   1.469 -0.0462  0.0878  0.2423
  710SOL    HW1 2129   0.013   0.428   1.367 -1.8979  0.8549 -2.5627
  710SOL    HW2 2130   3.039   0.485   1.511  1.1755 -2.4024 -4.0177
  711SOL     OW 2131   3.008   2.529   1.191 -0.2351  0.3788  0.0461
  711SOL    HW1 2132   3.000   2.434   1.221  0.9200 -1.3094 -1.6428
  711SOL    HW2 2133   3.025   2.525   1.090  1.1145 -0.6886 -1.2197
  712SOL     OW 2134   0.434   0.155   2.414  0.1080  0.4533  0.0565
  712SOL    HW1 2135   0.413   0.075   2.473  0.5646  1.0287 -1.2223
  712SOL    HW2 2136   0.378   0.234   2.447 -0.8083  0.6760  2.1425
  713SOL     OW 2137   2.321   0.280   0.329 -0.8053 -0.1826  0.0850
  713SOL    HW1 2138   2.260   0.294   0.250  2.2313  1.0696  1.6299
  713SOL    HW2 2139   2.391   0.356   0.331 -0.4969  0.8383  2.5293
  714SOL     OW 2140   1.718   1.656   0.091  0.3228  0.1259 -0.2834
  714SOL    HW1 2141   1.691   1.706   0.178  0.8717  0.2223  2.0758
  714SOL    HW2 2142   1.718   1.559   0.112 -1.1202  2.1013  2.3303
  715SOL     OW 2143   3.084   0.259   0.605 -0.2544 -0.2532  0.5182
  715SOL    HW1 2144   0.023   0.160   0.602  3.0170 -2.3723  1.5288
  715SOL    HW2 2145   3.038   0.283   0.692 -1.2306 -0.0371 -0.4968
  716SOL     OW 2146   1.152   0.547   1.856 -0.4997  0.1394 -0.0397
  716SOL    HW1 2147   1.182   0.460   1.810 -1.0661 -0.2883 -0.5322
  716SOL    HW2 2148   1.096   0.538   1.941  0.2803 -0.2593 -0.8963
  717SOL     OW 2149   0.249   0.443   2.942 -0.5129  0.1243 -0.2444
  717SOL    HW1 2150   0.169   0.498   2.921  0.6712  0.2272  2.4473
  717SOL    HW2 2151   0.302   0.402   2.860  0.7033 -2.2670 -1.0026
  718SOL     OW 2152   1.054   0.690   0.060  0.5705  0.1448  0.1028
  718SOL    HW1 2153   1.104   0.761   0.109  2.5846 -1.5193 -1.3504
  718SOL    HW2 2154   1.083   0.692   3.060  1.0087  0.0932 -1.6942
  719SOL     OW 2155   2.633   2.339   2.688  0.4189 -0.1883 -0.2795
  719SOL    HW1 2156   2.701   2.292   2.623  1.0306 -1.6253 -1.0563
  719SOL    HW2 2157   2.548   2.357   2.637  1.2403  0.5699  3.2754
  720SOL     OW 2158   1.352   0.883   1.246  0.1257 -0.3152  0.1025
  720SOL    HW1 2159   1.382   0.924   1.334 -0.2763 -2.2756  0.4256
  720SOL    HW2 2160   1.356   0.779   1.245  0.0346  0.2031  1.1559
  721SOL     OW 2161   0.054   2.565   1.476  0.1623 -0.6204 -0.5923
  721SOL    HW1 2162   3.085   2.566   1.548  0.5930 -1.0326  0.2565
  721SOL    HW2 2163   0.009   2.546   1.388 -1.9421  1.2322  0.1747
  722SOL     OW 2164   0.802   1.516   2.892 -0.0417  0.4551 -0.0732
  722SOL    HW1 2165   0.737   1.505   2.971 -3.5679  1.2635  0.3178
  722SOL    HW2 2166   0.865   1.440   2.878 -0.5720  2.0269  0.7627
  723SOL     OW 2167   2.038   0.437   0.499  0.2045 -0.3297  0.1325
  723SOL    HW1 2168   2.122   0.403   0.546 -3.3527 -0.7633  1.7718
  723SOL    HW2 2169   1.983   0.477   0.570  1.1335 -1.5666 -0.1772
  724SOL     OW 2170   0.757   2.252   3.080  0.7181  0.0454 -0.7345
  724SOL    HW1 2171   0.802   2.181   0.042 -0.0179 -1.5925 -0.3781
  724SOL    HW2 2172   0.727   2.334   0.037 -2.8448  1.2802 -0.2466
  725SOL     OW 2173   0.230   0.844   1.132  0.3459  0.0718 -0.0858
  725SOL    HW1 2174   0.130   0.864   1.117 -0.7682 -1.0522 -2.1328
  725SOL    HW2 2175   0.264   0.892   1.216 -1.0759  1.9992  1.6460
  726SOL     OW 2176   2.521   0.681   0.456 -0.0930  0.0904  0.5179
  726SOL    HW1 2177   2.600   0.737   0.423 -0.4450 -2.2606 -2.0955
  726SOL    HW2 2178   2.536   0.681   0.554 -1.0957  1.1050 -0.8042
  727SOL     OW 2179   1.872   1.197   2.527 -0.1213 -0.3721  0.2590
  727SOL    HW1 2180   1.946   1.242   2.577 -0.2840 -0.9025  0.2144
  727SOL    HW2 2181   1.872   1.097   2.549 -0.3475 -2.1718  0.3694
  728SOL     OW 2182   1.837   2.972   1.380  0.2494  0.2292  0.0212
  728SOL    HW1 2183   1.909   2.900   1.364  0.8787 -1.9298  0.4112
  728SOL    HW2 2184   1.747   2.932   1.406  2.0800 -1.3727 -2.2058
  729SOL     OW 2185   2.322   0.867   2.275  0.1374  0.2811 -0.5937
  729SOL    HW1 2186   2.404   0.879   2.334  1.0636 -2.0092 -1.5178
  729SOL    HW2 2187   2.233   0.879   2.326  0.8470 -0.8104  0.4085
  730SOL     OW 2188   1.063   0.820   1.401 -0.3589  0.4726  0.0095
  730SOL    HW1 2189   1.085   0.799   1.306 -2.0355  2.5638  1.3401
  730SOL    HW2 2190   1.105   0.757   1.470  2.8928  0.6784  1.1016
  731SOL     OW 2191   0.321   0.355   0.115  0.0515  0.0906 -0.5806
  731SOL    HW1 2192   0.309   0.417   0.199 -1.8925  1.6121  1.7052
  731SOL    HW2 2193   0.301   0.403   0.031 -1.9827 -1.1908  2.1432
  732SOL     OW 2194   0.289   0.525   0.322  0.1430  0.4809 -0.1289
  732SOL    HW1 2195   0.336   0.613   0.332 -1.1052  0.6797 -0.1734
  732SOL    HW2 2196   0.223   0.509   0.401  2.7684 -1.6512 -0.4599
  733SOL     OW 2197   1.592   1.568   2.741  0.1463  0.3155 -0.2664
  733SOL    HW1 2198   1.617   1.468   2.751  0.7259  0.3758 -1.5920
  733SOL    HW2 2199   1.571   1.611   2.836 -0.3153  3.8221  0.8635
  734SOL     OW 2200   0.132   2.040   2.558 -0.0423  0.4577 -0.2545
  734SOL    HW1 2201   0.200   2.090   2.500 -0.6282 -0.4474  2.5968
  734SOL    HW2 2202   0.180   2.017   2.648 -0.3676  0.3703  0.0115
  735SOL     OW 2203   1.888   0.472   1.250 -0.6204  0.0611 -0.8769
  735SOL    HW1 2204   1.945   0.503   1.171 -2.4048  2.6640  0.6687
  735SOL    HW2 2205   1.869   0.549   1.313 -1.3682 -0.4409 -0.7428
  736SOL     OW 2206   1.310   1.613   0.033 -0.1109  0.0842  0.6645
  736SOL    HW1 2207   1.326   1.528   0.089 -0.1931 -1.5100  2.0766
  736SOL    HW2 2208   1.277   1.688   0.094 -0.5586 -0.7723  1.5098
  737SOL     OW 2209   2.873   0.291   0.433 -0.2612  0.4484  0.1654
  737SOL    HW1 2210   2.900   0.367   0.373 -0.2951 -3.1523  3.8297
  737SOL    HW2 2211   2.950   0.266   0.496 -0.7481  0.6023  0.1649
  738SOL     OW 2212   0.613   2.066   1.853  0.5248  0.3048 -0.4395
  738SOL    HW1 2213   0.566   2.071   1.763 -0.5244  2.2292  0.3876
  738SOL    HW2 2214   0.612   1.975   1.897 -1.3877  0.4835  0.8492
  739SOL     OW 2215   1.150   2.688   2.465 -0.6836 -0.0668 -0.1864
  739SOL    HW1 2216   1.100   2.648   2.548  1.2701  0.5168 -0.6925
  739SOL    HW2 2217   1.245   2.653   2.461 -3.4784  0.2109  0.5368
  740SOL     OW 2218   1.784   2.433   1.549  0.3202  0.0974  0.2364
  740SOL    HW1 2219   1.748   2.404   1.460  2.9943  2.6838 -1.2196
  740SOL    HW2 2220   1.746   2.388   1.634  1.3359  0.7327  1.2360
  741SOL     OW 2221   2.266   0.701   0.331 -0.2447  0.2168 -0.3984
  741SOL    HW1 2222   2.363   0.680   0.357  2.0382 -1.6042 -1.5127
  741SOL    HW2 2223   2.216   0.762   0.397 -0.4802  1.8369  3.6131
  742SOL     OW 2224   1.003   2.522   0.040 -0.0528 -0.8856  0.5105
  742SOL    HW1 2225   1.068   2.476   3.076 -2.0726  3.7709  2.4336
  742SOL    HW2 2226   1.036   2.509   0.137  1.8498 -0.5821  0.1431
  743SOL     OW 2227   2.472   0.807   2.060 -0.1504 -0.2254 -0.2058
  743SOL    HW1 2228   2.410   0.829   2.140  0.4742  0.5228  0.5078
  743SOL    HW2 2229   2.522   0.890   2.030 -0.7229  0.6648 -0.1869
  744SOL     OW 2230   2.430   0.501   0.675 -0.3372  0.1602  0.1967
  744SOL    HW1 2231   2.376   0.422   0.655  1.8448  1.6840 -0.3496
  744SOL    HW2 2232   2.534   0.479   0.687  3.0883 -1.5061  1.2963
  745SOL     OW 2233   2.648   1.302   1.650  0.3323 -0.2338  0.0428
  745SOL    HW1 2234   2.590   1.216   1.645 -0.1283  2.4436 -0.5466
  745SOL    HW2 2235   2.691   1.299   1.742 -1.6347 -0.6156 -0.8737
  746SOL     OW 2236   1.384   1.383   0.799 -0.1969  0.0828 -0.8788
  746SOL    HW1 2237   1.395   1.482   0.820  1.1006  1.7835  0.4690
  746SOL    HW2 2238   1.286   1.352   0.820  0.3904 -0.2580  2.1359
  747SOL     OW 2239   1.559   1.584   1.728 -0.3333  0.2436 -0.5314
  747SOL    HW1 2240   1.551   1.683   1.747 -0.2627  0.9917  1.8041
  747SOL    HW2 2241   1.468   1.558   1.686  2.9574  0.2375 -1.8792
  748SOL     OW 2242   0.375   2.842   3.044  0.6216 -0.2589  0.0158
  748SOL    HW1 2243   0.353   2.744   3.038 -0.4546 -3.2358 -0.5958
  748SOL    HW2 2244   0.386   2.866   0.041 -0.0470  0.5365  3.2342
  749SOL     OW 2245   0.433   1.233   2.651  0.7523  0.3497  0.5476
  749SOL    HW1 2246   0.458   1.191   2.561  1.1241 -0.2574  2.3206
  749SOL    HW2 2247   0.468   1.331   2.646  0.5441 -2.4110  2.0750
  750SOL     OW 2248   1.816   0.772   2.167 -0.2179 -0.2629 -0.1806
  750SOL    HW1 2249   1.909   0.773   2.115  3.5242  2.0474 -2.8348
  750SOL    HW2 2250   1.736   0.753   2.107  0.8074  0.2396 -3.3826
  751SOL     OW 2251   2.536   0.432   0.366 -0.4886 -0.2130 -0.0463
  751SOL    HW1 2252   2.601   0.444   0.285  1.0197 -1.5195 -0.8018
  751SOL    HW2 2253   2.524   0.523   0.417  0.0840 -1.4192  3.3768
  752SOL     OW 2254   0.344   2.362   0.846  0.8832  0.8216  0.1122
  752SOL    HW1 2255   0.257   2.314   0.817  1.0508 -0.1053 -1.6987
  752SOL    HW2 2256   0.392   2.313   0.925  1.8732 -1.9082  2.9241
  753SOL     OW 2257   1.137   2.588   1.126 -0.6922  0.4924  0.3577
  753SOL    HW1 2258   1.102   2.492   1.106 -1.7087 -1.1984 -1.7545
  753SOL    HW2 2259   1.077   2.646   1.065  0.9114 -2.4670  0.5979
  754SOL     OW 2260   0.077   3.071   1.917 -0.1972 -0.6284  0.4046
  754SOL    HW1 2261   0.079   0.052   1.984  2.6789  0.5356  0.8594
  754SOL    HW2 2262   0.022   3.094   1.839  1.3270 -0.2572  3.3039
  755SOL     OW 2263   2.070   0.803   0.493  0.1331  0.1095  0.5519
  755SOL    HW1 2264   1.996   0.747   0.454  0.2013  1.0807 -0.1937
  755SOL    HW2 2265   2.085   0.778   0.590  2.7826  1.9887  2.6838
  756SOL     OW 2266   2.215   2.375   2.424  0.1099 -0.1624 -0.1320
  756SOL    HW1 2267   2.204   2.380   2.524  0.2191  1.2097 -1.9169
  756SOL    HW2 2268   2.121   2.395   2.385 -0.0211  0.5261 -0.3162
  757SOL     OW 2269   1.736   0.436   0.345 -0.3158 -0.1100  0.4887
  757SOL    HW1 2270   1.691   0.493   0.417 -1.1521  0.0271 -1.3873
  757SOL    HW2 2271   1.837   0.424   0.355 -0.7017 -0.5757 -0.6095
  758SOL     OW 2272   2.289   0.731   1.361 -0.0167  0.0172 -0.8226
  758SOL    HW1 2273   2.276   0.634   1.397 -1.7185 -2.1466  1.9307
  758SOL    HW2 2274   2.340   0.735   1.273 -4.2176  0.6354 -0.0530
  759SOL     OW 2275   2.385   0.727   1.118 -0.2112  0.0550  0.5625
  759SOL    HW1 2276   2.441   0.641   1.115 -0.2801  1.3555  1.0389
  759SOL    HW2 2277   2.333   0.731   1.032  1.1549 -0.6916  0.9971
  760SOL     OW 2278   2.249   1.240   1.122 -0.3691  0.0395  0.3209
  760SOL    HW1 2279   2.233   1.322   1.182  1.2864  0.9982 -1.6226
  760SOL    HW2 2280   2.173   1.176   1.144 -0.9491 -1.1818  0.0477
  761SOL     OW 2281   0.680   0.423   0.208  0.2217 -0.1111  0.3688
  761SOL    HW1 2282   0.766   0.478   0.220  2.1977 -0.8481  0.5852
  761SOL    HW2 2283   0.623   0.424   0.295  3.5286  1.3196  1.7740
  762SOL     OW 2284   1.007   1.874   0.976 -0.0104 -0.1335  0.4941
  762SOL    HW1 2285   0.904   1.889   0.983 -2.8807 -2.1870  0.6125
  762SOL    HW2 2286   1.032   1.779   0.998  0.7944 -4.8328  0.4972
  763SOL     OW 2287   1.440   1.013   1.484  0.4966  0.1366 -0.4207
  763SOL    HW1 2288   1.395   0.999   1.575  2.5449  1.7952 -0.6288
  763SOL    HW2 2289   1.542   1.011   1.492 -1.4962 -1.6705  0.4771
  764SOL     OW 2290   0.431   1.665   2.672 -0.4222  0.0534 -0.3856
  764SOL    HW1 2291   0.330   1.653   2.684 -2.8874  0.0887  3.1337
  764SOL    HW2 2292   0.447   1.748   2.618 -1.2832  0.4379  2.6288
  765SOL     OW 2293   0.859   2.629   1.618  0.7987 -0.2176  0.0698
  765SOL    HW1 2294   0.867   2.639   1.514 -1.4253  0.4260  0.5298
  765SOL    HW2 2295   0.930   2.682   1.665 -1.5447 -0.3079 -1.9715
  766SOL     OW 2296   2.833   2.261   2.519 -0.0157 -0.3870  0.2263
  766SOL    HW1 2297   2.915   2.304   2.555  0.2272 -1.2590  1.3733
  766SOL    HW2 2298   2.831   2.243   2.422  2.3856 -2.7038 -0.7425
  767SOL     OW 2299   1.320   0.964   2.228  0.3557 -0.2072 -0.5816
  767SOL    HW1 2300   1.357   0.996   2.139 -1.1601  0.8310 -2.3883
  767SOL    HW2 2301   1.227   1.007   2.242  1.7729 -1.5456  0.8545
  768SOL     OW 2302   1.352   1.849   0.199  0.0223 -0.7452  0.2650
  768SOL    HW1 2303   1.388   1.928   0.141  1.8586  2.2009 -0.2531
  768SOL    HW2 2304   1.406   1.832   0.278 -0.2520 -0.1238  2.3774
  769SOL     OW 2305   0.252   2.076   1.453  0.4716 -0.4075  0.1312
  769SOL    HW1 2306   0.247   2.147   1.376  1.5763  1.1068  1.3469
  769SOL    HW2 2307   0.210   1.985   1.431 -0.2470 -3.2145  0.8196
  770SOL     OW 2308   1.388   1.013   2.697  0.3655  0.2523 -0.0223
  770SOL    HW1 2309   1.473   1.014   2.753  1.2982  1.5425  1.5067
  770SOL    HW2 2310   1.404   1.074   2.617 -1.8647  0.2454  1.0764
  771SOL     OW 2311   0.115   2.941   2.185 -0.7867  0.0456  0.0681
  771SOL    HW1 2312   0.193   2.875   2.193 -1.0602  1.1026 -0.3384
  771SOL    HW2 2313   0.092   2.956   2.093  3.5951 -0.1568  2.0071
  772SOL     OW 2314   2.319   2.186   1.812  0.3695 -0.4917 -0.1141
  772SOL    HW1 2315   2.336   2.151   1.905 -2.0608 -0.3552 -1.0994
  772SOL    HW2 2316   2.273   2.115   1.751 -0.7783 -1.2878 -2.3030
  773SOL     OW 2317   0.517   1.768   1.550 -0.0822 -0.4896 -0.3878
  773SOL    HW1 2318   0.422   1.752   1.597 -2.1052 -0.5485  0.2139
  773SOL    HW2 2319   0.557   1.856   1.578  1.2288 -1.3207 -0.2583
  774SOL     OW 2320   1.118   0.511   2.419 -0.2510  0.1924 -0.7514
  774SOL    HW1 2321   1.152   0.476   2.506  0.0553 -0.8495 -1.2641
  774SOL    HW2 2322   1.117   0.612   2.421  1.0122 -1.6104 -0.7065
  775SOL     OW 2323   1.993   2.807   3.024 -0.3927  0.1785 -0.5125
  775SOL    HW1 2324   1.976   2.895   2.976 -1.4833 -2.9916 -0.7404
  775SOL    HW2 2325   1.947   2.738   2.960 -0.3754 -0.5209 -0.0999
  776SOL     OW 2326   3.046   0.578   1.897  0.8486 -0.5659  0.9156
  776SOL    HW1 2327   2.971   0.544   1.963  0.7078  2.5352  0.0111
  776SOL    HW2 2328   0.022   0.508   1.902  0.6101 -2.0541 -0.5893
  777SOL     OW 2329   2.386   2.088   2.043 -0.1430 -0.1733 -0.0235
  777SOL    HW1 2330   2.389   1.995   2.081 -0.4059  1.9021  0.0863
  777SOL    HW2 2331   2.311   2.138   2.092  3.0527 -0.9860 -2.6690
  778SOL     OW 2332   1.939   1.074   2.247 -0.6443  0.3194  0.1067
  778SOL    HW1 2333   1.925   1.171   2.229  0.7710 -1.6317 -0.1743
  778SOL    HW2 2334   1.856   1.015   2.235 -1.7195 -0.7060  0.7287
  779SOL     OW 2335   2.410   1.133   0.297  0.5511  0.5936 -0.0866
  779SOL    HW1 2336   2.468   1.214   0.322 -2.6419 -2.0501  1.0484
  779SOL    HW2 2337   2.437   1.083   0.213  1.1442 -2.2703 -2.7825
  780SOL     OW 2338   2.371   0.291   2.909 -0.4874 -0.0891 -0.0167
  780SOL    HW1 2339   2.327   0.306   2.818  1.1422  0.3126 -1.4579
  780SOL    HW2 2340   2.309   0.238   2.975 -1.3548  2.2530 -0.5295
  781SOL     OW 2341   0.064   1.860   1.499 -0.6128 -0.0351  0.1897
  781SOL    HW1 2342   0.024   1.932   1.561  0.2328 -0.3489  0.4735
  781SOL    HW2 2343   0.054   1.765   1.539 -1.7316 -0.1525  0.0818
  782SOL     OW 2344   2.473   2.415   2.905  0.2376 -0.3642  0.6781
  782SOL    HW1 2345   2.497   2.393   2.808  0.8234 -0.5243  0.3418
  782SOL    HW2 2346   2.466   2.321   2.947 -1.2717 -2.2773 -0.5083
  783SOL     OW 2347   0.494   1.330   1.377  0.0351 -0.3420 -0.0984
  783SOL    HW1 2348   0.572   1.272   1.407 -1.4663  3.2315 -1.5692
  783SOL    HW2 2349   0.528   1.425   1.343  1.9104  4.1963 -0.0800
  784SOL     OW 2350   1.724   0.631   2.880  0.0847  0.1729  0.3471
  784SOL    HW1 2351   1.813   0.675   2.837  4.8684  2.3360 -1.8285
  784SOL    HW2 2352   1.750   0.580   2.966 -2.1365 -3.3248  3.9789
  785SOL     OW 2353   2.444   2.767   0.867  0.2071  0.1755 -0.0224
  785SOL    HW1 2354   2.350   2.788   0.827 -0.4663 -0.2094  1.0549
  785SOL    HW2 2355   2.441   2.742   0.968 -0.1593 -0.9858 -3.7178
  786SOL     OW 2356   0.788   2.013   2.168 -0.5163 -0.6220  0.0498
  786SOL    HW1 2357   0.837   2.018   2.078  0.3401  0.1142 -2.2149
  786SOL    HW2 2358   0.858   2.042   2.238 -0.7123  0.8690 -0.6626
  787SOL     OW 2359   1.204   0.867   1.018  0.4018  0.1270  0.0934
  787SOL    HW1 2360   1.253   0.883   1.105  0.0172 -0.6572  0.6063
  787SOL    HW2 2361   1.244   0.923   0.943 -1.5917  1.1288  1.8335
  788SOL     OW 2362   3.051   0.655   0.509 -0.1071 -0.0055 -0.5256
  788SOL    HW1 2363   0.035   0.606   0.549 -0.1925 -1.6708  1.2932
  788SOL    HW2 2364   3.016   0.600   0.431  1.9580  0.1167  1.6940
  789SOL     OW 2365   0.024   1.907   1.217  0.1464 -0.5276  0.2660
  789SOL    HW1 2366   3.045   1.973   1.228 -0.8624  3.2402  2.5508
  789SOL    HW2 2367   0.042   1.869   1.307 -2.2043 -1.3027 -2.0713
  790SOL     OW 2368   1.074   0.720   2.167 -0.1504 -0.3788 -0.1637
  790SOL    HW1 2369   1.028   0.631   2.156  0.8052  3.2042  0.4978
  790SOL    HW2 2370   1.134   0.723   2.252  2.2387 -3.3528 -1.8602
  791SOL     OW 2371   1.349   0.399   0.415 -0.2085  0.3581 -0.1909
  791SOL    HW1 2372   1.420   0.366   0.349 -0.2755 -1.3083  1.2797
  791SOL    HW2 2373   1.257   0.369   0.376 -4.3500  1.8454 -0.3572
  792SOL     OW 2374   1.455   2.787   1.793 -0.3850  0.1430  0.1326
  792SOL    HW1 2375   1.392   2.718   1.836 -0.9252  0.2033  1.2990
  792SOL    HW2 2376   1.529   2.741   1.742  0.1910  2.6096  0.2386
  793SOL     OW 2377   1.378   0.482   0.680  0.1001  0.9154  0.4384
  793SOL    HW1 2378   1.462   0.534   0.710  0.7554 -1.5407  0.3315
  793SOL    HW2 2379   1.356   0.488   0.579 -0.3664  1.6101  1.5368
  794SOL     OW 2380   0.567   0.953   2.017 -0.0010 -0.3956  0.1544
  794SOL    HW1 2381   0.481   0.999   2.029  1.9226 -1.6344  0.8033
  794SOL    HW2 2382   0.639   1.027   2.001  1.3733  0.0317 -0.2344
  795SOL     OW 2383   0.321   2.146   2.387  0.2358 -0.3265  0.0407
  795SOL    HW1 2384   0.404   2.199   2.416 -1.0762 -0.9819  0.1164
  795SOL    HW2 2385   0.299   2.158   2.283 -2.4315  3.4862 -2.1750
  796SOL     OW 2386   2.533   1.098   2.033 -0.3754  0.8511  0.2738
  796SOL    HW1 2387   2.554   1.098   2.134 -0.0222  0.0058 -2.0136
  796SOL    HW2 2388   2.579   1.162   1.978 -0.0498 -4.6017  0.3636
  797SOL     OW 2389   2.862   2.454   2.929 -0.4038 -0.5158 -0.2127
  797SOL    HW1 2390   2.843   2.515   2.850  0.9710 -1.5848  1.7067
  797SOL    HW2 2391   2.819   2.356   2.926 -1.7643 -4.1990  0.9401
  798SOL     OW 2392   0.035   2.307   2.308 -0.3111 -0.0346 -0.6678
  798SOL    HW1 2393   0.088   2.338   2.231 -1.9605 -1.4052 -1.1932
  798SOL    HW2 2394   0.001   2.211   2.300  0.4778  1.7212  0.2265
  799SOL     OW 2395   0.579   2.307   2.894 -0.2062  0.4999 -0.1229
  799SOL    HW1 2396   0.645   2.278   2.970 -0.3414 -0.9624  2.5971
  799SOL    HW2 2397   0.484   2.334   2.931 -0.3171  1.6393 -0.8409
  800SOL     OW 2398   0.955   1.667   0.062 -0.2991 -0.2207 -0.2650
  800SOL    HW1 2399   0.859   1.643   0.086 -0.8042 -1.6530  1.6250
  800SOL    HW2 2400   1.005   1.676   0.149 -0.6256 -0.3767  1.7754
  801SOL     OW 2401   1.722   1.419   1.372  0.4313 -0.0556  0.4823
  801SOL    HW1 2402   1.802   1.377   1.324 -1.3546  3.9496  0.6442
  801SOL    HW2 2403   1.714   1.390   1.470  1.2176  0.0816 -3.0565
  802SOL     OW 2404   2.598   1.324   0.352  0.1839  0.4526  0.5776
  802SOL    HW1 2405   2.642   1.348   0.440  0.1608  2.5081 -2.4477
  802SOL    HW2 2406   2.658   1.263   0.294 -0.1581 -0.0280  2.8898
  803SOL     OW 2407   1.084   1.783   2.720 -0.4344  0.7675 -0.0792
  803SOL    HW1 2408   1.080   1.696   2.776 -0.3110  0.3306 -0.4253
  803SOL    HW2 2409   1.139   1.767   2.641 -1.4583 -0.9936  1.3404
  804SOL     OW 2410   1.751   1.350   0.189  0.1067 -0.2083  0.6672
  804SOL    HW1 2411   1.751   1.292   0.275  0.0325 -1.9847  2.2878
  804SOL    HW2 2412   1.842   1.344   0.139  1.5350  1.6201 -0.0188
  805SOL     OW 2413   2.589   1.643   2.663  0.0083  0.0728  0.2820
  805SOL    HW1 2414   2.561   1.719   2.733 -0.1202  0.9495  1.9427
  805SOL    HW2 2415   2.690   1.639   2.664  1.0563 -1.9884 -2.0925
  806SOL     OW 2416   0.486   3.004   0.430  0.1445  0.8157  0.4362
  806SOL    HW1 2417   0.544   3.087   0.434 -2.7142  0.9343 -1.4644
  806SOL    HW2 2418   0.492   2.963   0.522  1.7728 -1.3888  0.1689
  807SOL     OW 2419   1.937   1.512   2.827 -0.6936 -0.5408  0.0175
  807SOL    HW1 2420   1.886   1.596   2.847  0.1707 -0.1242  3.2832
  807SOL    HW2 2421   1.902   1.431   2.873  0.4434 -0.9653 -0.2152
  808SOL     OW 2422   0.196   1.752   0.647  0.5987  0.1662 -0.0015
  808SOL    HW1 2423   0.134   1.822   0.695  1.1856  0.2973  0.0682
  808SOL    HW2 2424   0.171   1.656   0.670  0.0733  0.5899 -0.7772
  809SOL     OW 2425   2.526   0.949   0.137 -0.5301 -0.6088  0.4413
  809SOL    HW1 2426   2.479   0.858   0.106 -2.5448 -2.3244  1.0213
  809SOL    HW2 2427   2.575   0.983   0.052  0.8000 -1.9414 -0.0620
  810SOL     OW 2428   0.593   1.263   0.432  0.1021 -0.3342 -0.5514
  810SOL    HW1 2429   0.656   1.276   0.349 -2.0783 -0.8060 -0.3156
  810SOL    HW2 2430   0.492   1.246   0.407 -5.3095  0.3111 -1.6934
  811SOL     OW 2431   1.407   2.440   1.548 -0.2141 -0.7363 -0.0916
  811SOL    HW1 2432   1.345   2.475   1.469 -0.0700  0.4029 -2.4593
  811SOL    HW2 2433   1.408   2.336   1.543  0.3604 -0.7422 -1.4571
  812SOL     OW 2434   0.953   2.460   1.915  0.3032 -0.6542 -0.1645
  812SOL    HW1 2435   0.992   2.456   1.817  0.0653  0.9851 -2.1746
  812SOL    HW2 2436   0.983   2.374   1.958 -1.2985  2.0781  0.0794
  813SOL     OW 2437   1.202   0.063   1.872 -0.1940  0.1767  0.0389
  813SOL    HW1 2438   1.184   0.088   1.970 -0.6190  2.4731 -2.6674
  813SOL    HW2 2439   1.117   0.026   1.831 -0.0684 -0.4153  0.7708
  814SOL     OW 2440   1.270   2.404   2.716  0.4159  0.1593  0.0643
  814SOL    HW1 2441   1.350   2.408   2.654 -1.4954  1.1563 -0.0083
  814SOL    HW2 2442   1.216   2.316   2.711 -1.2588  0.3000 -1.9032
  815SOL     OW 2443   0.849   0.140   2.355  0.3829  0.2134 -0.1759
  815SOL    HW1 2444   0.868   0.076   2.279 -4.2948  2.3194 -0.2876
  815SOL    HW2 2445   0.758   0.192   2.340 -2.3803  2.6162  1.3657
  816SOL     OW 2446   2.037   0.381   2.943 -0.0416  0.3908  0.2022
  816SOL    HW1 2447   2.090   0.462   2.909 -1.6269 -0.1175  0.6977
  816SOL    HW2 2448   1.998   0.326   2.868  0.8309  1.9737  0.9995
  817SOL     OW 2449   2.257   0.362   2.396 -0.1417 -0.2182 -0.4528
  817SOL    HW1 2450   2.334   0.313   2.350  0.2410  1.5832 -0.1287
  817SOL    HW2 2451   2.251   0.457   2.355  1.9718  3.3501  0.9885
  818SOL     OW 2452   1.670   0.214   3.047  0.4792 -0.1812 -0.2712
  818SOL    HW1 2453   1.703   0.305   3.051  1.3266 -0.5016 -0.2129
  818SOL    HW2 2454   1.742   0.148   3.063 -0.5556  3.3153 -0.4624
  819SOL     OW 2455   2.193   1.652   2.792  0.3359 -0.0838 -0.3924
  819SOL    HW1 2456   2.100   1.611   2.805 -1.7021 -1.3380  1.1325
  819SOL    HW2 2457   2.237   1.667   2.882 -1.7701  1.5355  0.0162
  820SOL     OW 2458   0.075   1.915   3.091  0.1766  0.2326  0.7566
  820SOL    HW1 2459   0.028   2.000   3.056 -2.8837  2.2433  0.3826
  820SOL    HW2 2460   0.170   1.934   0.025  1.0001 -0.0005 -1.4618
  821SOL     OW 2461   0.297   2.810   0.939  0.2922 -0.4980  0.1857
  821SOL    HW1 2462   0.357   2.736   0.906  0.3908  2.0669  1.7212
  821SOL    HW2 2463   0.306   2.889   0.876 -3.0270  0.1915  0.6606
  822SOL     OW 2464   2.940   2.756   3.056  0.2482 -0.1792 -0.1622
  822SOL    HW1 2465   2.869   2.695   3.090  1.3048  1.2688 -3.9179
  822SOL    HW2 2466   2.948   2.748   2.955 -0.5240  2.0110 -0.7304
  823SOL     OW 2467   1.273   0.440   2.657 -0.0789  0.5733 -0.3279
  823SOL    HW1 2468   1.249   0.349   2.623 -1.1892  0.8785  0.6375
  823SOL    HW2 2469   1.369   0.434   2.703  4.5853 -0.6597 -0.2919
  824SOL     OW 2470   2.653   2.031   1.942 -0.4531  0.2223 -0.1992
  824SOL    HW1 2471   2.672   1.983   2.031  1.3575 -2.6810  2.0499
  824SOL    HW2 2472   2.552   2.054   1.943 -1.4678  0.3698  2.6855
  825SOL     OW 2473   0.020   2.296   2.578  0.2741 -0.3904  0.1901
  825SOL    HW1 2474   0.049   2.198   2.590  1.3508  1.2289  1.5697
  825SOL    HW2 2475   0.044   2.325   2.482 -2.5276  1.9159 -1.5973
  826SOL     OW 2476   2.347   1.382   2.327 -0.0131 -0.0359 -0.1834
  826SOL    HW1 2477   2.332   1.290   2.365  0.3450  1.3475 -0.9606
  826SOL    HW2 2478   2.261   1.438   2.337 -1.5594 -1.9096  0.8683
  827SOL     OW 2479   2.209   2.359   1.385  0.4733  0.2622 -0.1013
  827SOL    HW1 2480   2.165   2.371   1.294  2.3485 -2.0475 -0.1979
  827SOL    HW2 2481   2.152   2.377   1.469  1.3108  1.2311 -0.8263
  828SOL     OW 2482   0.222   2.985   1.418  0.1812  0.1828 -0.3270
  828SOL    HW1 2483   0.171   2.953   1.500 -1.6164  1.7673  0.1916
  828SOL    HW2 2484   0.312   3.024   1.453 -2.3350  1.7610 -1.8650
  829SOL     OW 2485   1.455   2.370   2.487 -0.1865 -0.8685  0.0781
  829SOL    HW1 2486   1.421   2.283   2.529  0.9199  3.0652 -0.0976
  829SOL    HW2 2487   1.447   2.361   2.380 -2.3938  1.1752 -2.0788
  830SOL     OW 2488   0.866   0.300   0.762 -0.7266 -0.3152 -0.5795
  830SOL    HW1 2489   0.876   0.237   0.839 -2.2135  0.6558 -1.8878
  830SOL    HW2 2490   0.946   0.368   0.764  2.9783  2.1753 -0.9574
  831SOL     OW 2491   2.870   1.347   3.006 -0.4242  0.1040  0.3732
  831SOL    HW1 2492   2.923   1.371   3.092 -1.2928  0.8368  3.5004
  831SOL    HW2 2493   2.918   1.293   2.935  0.8128  2.7099 -0.2578
  832SOL     OW 2494   1.670   1.954   2.156  0.0329  0.1980  0.4193
  832SOL    HW1 2495   1.573   1.973   2.178  1.7520 -1.3353 -4.2150
  832SOL    HW2 2496   1.691   1.994   2.065 -1.0205 -1.3887  1.9463
  833SOL     OW 2497   0.688   0.379   2.309 -0.0352 -0.5863 -0.5547
  833SOL    HW1 2498   0.608   0.351   2.364 -0.1618  0.6673 -3.1161
  833SOL    HW2 2499   0.696   0.480   2.312 -0.1308 -3.1354  0.0926
  834SOL     OW 2500   0.599   1.000   1.641 -0.4210 -0.0603 -0.3405
  834SOL    HW1 2501   0.582   0.965   1.547 -0.6697  0.8692 -1.0878
  834SOL    HW2 2502   0.674   0.950   1.683  2.5252  0.3080  1.2101
  835SOL     OW 2503   2.715   1.013   3.031 -0.9322  0.0439 -0.3310
  835SOL    HW1 2504   2.788   0.945   2.999  1.4764 -1.4957  1.1692
  835SOL    HW2 2505   2.658   1.049   2.959  0.7342 -2.4763  5.4240
  836SOL     OW 2506   1.107   1.805   0.280 -0.4414  0.6163  0.2336
  836SOL    HW1 2507   1.055   1.879   0.324  1.0735 -2.0012 -0.3121
  836SOL    HW2 2508   1.201   1.832   0.249 -3.1825 -0.5193 -1.8108
  837SOL     OW 2509   1.675   1.640   1.078 -0.0649 -0.0970 -0.0010
  837SOL    HW1 2510   1.750   1.693   1.115 -1.9135 -0.6485 -0.2737
  837SOL    HW2 2511   1.599   1.708   1.049  0.4492  2.6448 -1.1733
  838SOL     OW 2512   1.181   1.266   2.082  0.0567 -0.1209  0.5859
  838SOL    HW1 2513   1.129   1.193   2.136 -1.8443  0.3109 -3.0378
  838SOL    HW2 2514   1.213   1.343   2.138 -1.1666  0.0124 -2.5666
  839SOL     OW 2515   0.919   1.960   2.597  0.0507 -0.3755 -0.0256
  839SOL    HW1 2516   0.980   1.879   2.619  0.1570 -0.9208 -3.1324
  839SOL    HW2 2517   0.880   2.010   2.683  0.8985 -2.2073 -0.2656
  840SOL     OW 2518   0.834   2.404   0.407  0.3953  0.3598 -0.3078
  840SOL    HW1 2519   0.811   2.488   0.456 -1.5491  0.3310 -0.4849
  840SOL    HW2 2520   0.785   2.328   0.455  0.0625 -2.6244 -0.2951
  841SOL     OW 2521   1.844   2.794   0.433 -0.1716  0.0473  0.4194
  841SOL    HW1 2522   1.834   2.767   0.531  0.3414 -0.2214 -2.1258
  841SOL    HW2 2523   1.772   2.757   0.374  1.2450  1.0727 -1.1888
  842SOL     OW 2524   0.554   0.571   3.059  0.3829  0.5094  0.0169
  842SOL    HW1 2525   0.562   0.491   0.017  0.6159  2.5401  0.2025
  842SOL    HW2 2526   0.635   0.634   3.076 -0.1317 -1.1178  0.2121
  843SOL     OW 2527   1.248   0.241   0.688  0.2814 -0.0354  0.5138
  843SOL    HW1 2528   1.225   0.193   0.777 -1.6437 -0.6254  1.3236
  843SOL    HW2 2529   1.288   0.336   0.702 -2.1739 -3.3635 -1.3217
  844SOL     OW 2530   2.966   2.727   2.752 -0.2915 -0.0911  0.2369
  844SOL    HW1 2531   3.038   2.652   2.764 -0.3826 -3.5730 -1.0049
  844SOL    HW2 2532   2.887   2.687   2.707  2.7684  1.4999  0.0975
  845SOL     OW 2533   2.628   2.450   1.000  0.1701 -0.5175 -0.4014
  845SOL    HW1 2534   2.706   2.493   0.952 -2.3364 -0.3587  0.2389
  845SOL    HW2 2535   2.606   2.513   1.081 -0.7837  2.4523  3.0718
  846SOL     OW 2536   0.014   1.831   2.452  0.3441  0.1543  0.2479
  846SOL    HW1 2537   0.054   1.907   2.507 -1.2745 -0.8376 -3.6438
  846SOL    HW2 2538   0.063   1.745   2.470 -2.3798 -0.5153 -0.7628
  847SOL     OW 2539   1.132   0.674   1.623  0.0412 -0.4594 -0.3014
  847SOL    HW1 2540   1.125   0.667   1.724  1.4045 -1.6783 -0.2676
  847SOL    HW2 2541   1.208   0.617   1.587 -0.2708  0.9718  0.3428
  848SOL     OW 2542   2.611   3.052   3.010 -0.5043  0.3930 -0.1884
  848SOL    HW1 2543   2.533   3.079   3.068 -1.4284  0.2028  0.1869
  848SOL    HW2 2544   2.692   3.032   3.071  0.7089 -0.7509  0.1071
  849SOL     OW 2545   0.705   2.757   2.810 -0.7672  0.1398 -0.1511
  849SOL    HW1 2546   0.668   2.742   2.908 -1.2440  1.9509  1.3582
  849SOL    HW2 2547   0.808   2.778   2.817  1.8500  3.7569  2.5297
  850SOL     OW 2548   1.113   2.631   1.453 -0.0796 -0.5287  0.7819
  850SOL    HW1 2549   1.190   2.661   1.391  1.0015  2.1056 -1.2944
  850SOL    HW2 2550   1.036   2.608   1.389  0.8912  0.6030  1.5347
  851SOL     OW 2551   2.554   0.323   2.020 -0.0777  0.2684 -0.4756
  851SOL    HW1 2552   2.584   0.411   2.070  1.4596  2.1290  1.4199
  851SOL    HW2 2553   2.635   0.273   1.987 -2.1953  1.8168  0.8830
  852SOL     OW 2554   2.097   0.935   2.405  0.1832 -0.5053 -1.2436
  852SOL    HW1 2555   2.019   0.976   2.346  0.8081 -1.2101  0.5439
  852SOL    HW2 2556   2.070   0.894   2.496 -0.7041 -0.6947 -0.3176
  853SOL     OW 2557   2.887   2.979   0.581  0.1513  0.5928  0.4621
  853SOL    HW1 2558   2.792   3.002   0.615  0.5823  1.2193  2.2457
  853SOL    HW2 2559   2.893   2.885   0.558  0.2976  2.4053  1.1199
  854SOL     OW 2560   2.277   1.166   2.129 -0.3028  0.0322  0.5360
  854SOL    HW1 2561   2.277   1.067   2.156  3.8929 -1.6023  0.5919
  854SOL    HW2 2562   2.375   1.191   2.135  0.4500  2.0991  1.8795
  855SOL     OW 2563   1.079   2.427   0.302  0.3265 -0.7328  0.8836
  855SOL    HW1 2564   0.986   2.407   0.341 -1.1748 -1.0531  2.6393
  855SOL    HW2 2565   1.148   2.351   0.300  1.3456 -3.7476 -0.0707
  856SOL     OW 2566   0.041   0.264   2.701 -0.6035 -0.3775 -0.9440
  856SOL    HW1 2567   0.074   0.172   2.740  0.6668 -3.4050  1.4546
  856SOL    HW2 2568   0.007   0.310   2.784  0.7959 -0.2197 -1.5629
  857SOL     OW 2569   1.017   2.997   1.753 -0.5606  0.2421 -0.0646
  857SOL    HW1 2570   1.055   2.940   1.678  1.7982 -0.1124 -1.2433
  857SOL    HW2 2571   0.915   2.986   1.760 -2.6181 -1.9782 -0.0431
  858SOL     OW 2572   2.531   2.252   1.671  0.1308 -0.2960 -0.2405
  858SOL    HW1 2573   2.557   2.169   1.621 -0.2653  2.9874  0.4644
  858SOL    HW2 2574   2.456   2.237   1.740  0.8747 -0.0017  3.5893
  859SOL     OW 2575   1.425   2.360   1.829 -0.2461  0.0736 -0.2448
  859SOL    HW1 2576   1.439   2.258   1.830  0.6968 -0.1208  1.9174
  859SOL    HW2 2577   1.398   2.397   1.741 -1.6875 -2.2229  3.6658
  860SOL     OW 2578   2.472   2.603   3.098 -0.0156 -0.3671 -0.8309
  860SOL    HW1 2579   2.472   2.539   3.018  2.3463 -0.8734  0.3134
  860SOL    HW2 2580   2.384   2.654   0.007 -0.1690 -0.9014 -3.5191
  861SOL     OW 2581   2.239   2.750   0.685  0.0235  0.2981 -0.4000
  861SOL    HW1 2582   2.184   2.799   0.614 -0.2498 -0.9555 -2.2666
  861SOL    HW2 2583   2.325   2.714   0.650 -1.7220  0.9320  1.6516
  862SOL     OW 2584   1.809   3.067   2.377 -0.4284 -0.3465 -0.0215
  862SOL    HW1 2585   1.910   3.057   2.360 -0.4003 -0.6626  0.2140
  862SOL    HW2 2586   1.774   3.020   2.461 -1.1095  0.8521 -2.7448
  863SOL     OW 2587   3.045   0.728   0.787 -0.4056 -0.2217 -0.5735
  863SOL    HW1 2588   3.093   0.817   0.806 -0.5829 -0.6427  0.2580
  863SOL    HW2 2589   3.038   0.713   0.689 -0.7890  0.1145  2.0468
  864SOL     OW 2590   0.278   2.734   2.178  0.0488  0.2304  0.0575
  864SOL    HW1 2591   0.378   2.755   2.171 -0.0227  0.9095  1.8468
  864SOL    HW2 2592   0.246   2.705   2.275 -0.3041 -1.0549  0.7952
  865SOL     OW 2593   0.647   1.179   2.807  0.2650  0.1586  0.0618
  865SOL    HW1 2594   0.630   1.131   2.899  0.5402 -1.8184  0.8236
  865SOL    HW2 2595   0.559   1.215   2.767 -3.7700  2.8652 -2.8352
  866SOL     OW 2596   2.877   0.781   2.991 -0.2988 -0.4354  0.1970
  866SOL    HW1 2597   2.858   0.787   2.888  1.7036  1.1981 -0.9769
  866SOL    HW2 2598   2.920   0.690   3.020 -0.1801 -0.3303  1.5819
  867SOL     OW 2599   3.014   3.004   2.732  0.3433 -0.3047  0.4574
  867SOL    HW1 2600   3.087   3.047   2.792  0.4777 -1.2364 -1.9404
  867SOL    HW2 2601   2.999   2.906   2.756  0.1685 -1.5908  2.4579
  868SOL     OW 2602   1.096   0.084   0.534  0.0228  0.0429 -0.1516
  868SOL    HW1 2603   1.136   0.166   0.582 -0.7239 -0.0802  1.6870
  868SOL    HW2 2604   1.158   0.004   0.532 -0.8409 -0.6532  0.8072
  869SOL     OW 2605   1.415   1.664   0.774 -0.1299  0.0913  0.5198
  869SOL    HW1 2606   1.486   1.641   0.709 -2.3108  0.3710  2.1682
  869SOL    HW2 2607   1.449   1.732   0.847 -0.5767  0.0233  1.0838
  870SOL     OW 2608   1.984   1.917   0.909 -0.4678  0.4001  0.0366
  870SOL    HW1 2609   2.073   1.964   0.919 -3.1172 -0.4755  1.3098
  870SOL    HW2 2610   1.979   1.835   0.967  2.1592 -1.5105 -0.3227
  871SOL     OW 2611   1.332   1.465   1.539  0.5671  0.2700 -0.0553
  871SOL    HW1 2612   1.364   1.383   1.483 -0.4995  1.4613 -2.1167
  871SOL    HW2 2613   1.228   1.475   1.517 -2.9682 -2.2297 -2.5980
  872SOL     OW 2614   1.086   1.495   1.448 -0.2730 -0.0453  0.0740
  872SOL    HW1 2615   1.091   1.541   1.357 -0.2751 -1.2102  0.1915
  872SOL    HW2 2616   1.030   1.410   1.445  3.9269  1.4170 -2.7020
  873SOL     OW 2617   1.194   1.147   2.826 -0.0150  0.2718 -0.1712
  873SOL    HW1 2618   1.210   1.096   2.914  0.1136  1.0786  1.2575
  873SOL    HW2 2619   1.246   1.091   2.757  2.5940  1.4199  2.7929
  874SOL     OW 2620   0.095   1.372   1.110  0.0414  0.0148 -0.1574
  874SOL    HW1 2621   0.071   1.425   1.028 -0.6492  1.3759  1.4802
  874SOL    HW2 2622   0.027   1.299   1.130  1.0500 -0.1760  1.2091
  875SOL     OW 2623   2.637   3.069   0.947 -0.4779 -0.3556 -0.6648
  875SOL    HW1 2624   2.681   0.056   0.919 -0.6374 -1.4730 -2.2469
  875SOL    HW2 2625   2.644   3.000   0.877  1.7278  2.0728  0.1093
  876SOL     OW 2626   0.753   0.744   3.085  0.1775  0.1817 -0.3809
  876SOL    HW1 2627   0.855   0.729   0.007  4.1642 -0.4343  1.7574
  876SOL    HW2 2628   0.703   0.819   0.039 -1.6696 -0.1698 -0.6428
  877SOL     OW 2629   3.030   0.177   1.105 -0.2875  0.0728 -0.2351
  877SOL    HW1 2630   2.939   0.147   1.137  1.5437 -1.7811 -0.6729
  877SOL    HW2 2631   3.097   0.102   1.126 -0.2351 -1.1391 -1.9738
  878SOL     OW 2632   1.723   2.269   0.246 -0.4106 -0.6473  0.3696
  878SOL    HW1 2633   1.808   2.326   0.228 -0.9975  2.3189 -0.2746
  878SOL    HW2 2634   1.730   2.187   0.180  2.5068 -1.2529 -0.1055
  879SOL     OW 2635   2.281   1.850   1.498 -0.1621 -0.6687 -0.8207
  879SOL    HW1 2636   2.268   1.829   1.598  0.1345 -0.4242  0.8307
  879SOL    HW2 2637   2.288   1.949   1.472 -2.5629  1.2010  1.4544
  880SOL     OW 2638   0.674   0.167   1.623  0.6274 -0.5538 -0.2916
  880SOL    HW1 2639   0.581   0.205   1.637 -0.6450 -1.2401 -1.2872
  880SOL    HW2 2640   0.690   0.091   1.684  1.0863  1.6992 -1.1005
  881SOL     OW 2641   0.980   1.951   3.044 -0.2212  0.6677  0.5019
  881SOL    HW1 2642   1.062   1.944   2.981  0.6376 -0.1483 -0.0057
  881SOL    HW2 2643   0.962   1.856   3.085 -0.4819 -4.3182  0.7094
  882SOL     OW 2644   2.191   1.134   1.618 -0.1054 -0.3108  0.3466
  882SOL    HW1 2645   2.165   1.232   1.608 -0.6467  0.6188  0.6714
  882SOL    HW2 2646   2.248   1.102   1.541 -0.2091  0.3995 -0.5856
  883SOL     OW 2647   1.332   0.652   2.046  0.5428 -0.3131 -0.1506
  883SOL    HW1 2648   1.276   0.707   2.110  0.7267 -1.2299 -1.6037
  883SOL    HW2 2649   1.275   0.626   1.964 -3.4946  0.3836 -1.0235
  884SOL     OW 2650   2.636   0.248   2.996 -0.4302  0.0272 -0.1196
  884SOL    HW1 2651   2.666   0.153   2.977 -0.2865  1.4380 -1.3792
  884SOL    HW2 2652   2.550   0.262   2.952 -0.1508  0.5230 -1.9653
  885SOL     OW 2653   0.281   2.058   0.604 -0.0069  0.5555  0.6491
  885SOL    HW1 2654   0.292   2.001   0.518  1.1667  0.2183 -3.0942
  885SOL    HW2 2655   0.182   2.079   0.610  2.5445 -0.1692 -1.9046
  886SOL     OW 2656   1.847   1.270   2.960 -0.5775 -0.4385 -0.5309
  886SOL    HW1 2657   1.856   1.174   2.927 -1.8214 -0.1366  1.6979
  886SOL    HW2 2658   1.751   1.300   2.969 -0.2390 -1.5334 -1.1116
  887SOL     OW 2659   1.487   0.376   1.649  0.0019  0.7150  0.5255
  887SOL    HW1 2660   1.577   0.410   1.636 -3.2014 -3.2556  0.7257
  887SOL    HW2 2661   1.421   0.407   1.578  0.5846 -1.9285 -2.8335
  888SOL     OW 2662   2.962   1.128   1.577 -0.1209 -0.4426  0.4555
  888SOL    HW1 2663   3.045   1.095   1.535 -0.6678  0.0280  0.9465
  888SOL    HW2 2664   2.890   1.138   1.508  1.7758  1.7430 -2.3602
  889SOL     OW 2665   3.070   2.468   0.912 -0.3100 -0.3232 -0.1572
  889SOL    HW1 2666   0.034   2.547   0.885  0.8194  1.2741 -2.5683
  889SOL    HW2 2667   0.004   2.386   0.860  1.1490 -1.6093  0.7737
  890SOL     OW 2668   0.202   2.674   2.419 -0.3011 -0.2177 -0.1518
  890SOL    HW1 2669   0.288   2.634   2.455 -3.2477 -1.4428 -2.6104
  890SOL    HW2 2670   0.175   2.762   2.459 -0.8488 -1.6344 -2.8945
  891SOL     OW 2671   0.467   1.879   0.194  0.2543  0.0813  0.2308
  891SOL    HW1 2672   0.528   1.940   0.243 -2.7414 -0.6386  0.3678
  891SOL    HW2 2673   0.458   1.786   0.231 -0.4903  0.4717 -0.9056
  892SOL     OW 2674   3.050   2.276   1.282  0.0258 -0.4643 -0.2557
  892SOL    HW1 2675   3.025   2.274   1.380  0.7962  1.4791 -1.5120
  892SOL    HW2 2676   3.002   2.200   1.238  0.5063  2.1030 -0.8455
  893SOL     OW 2677   0.444   3.093   1.499  0.5181 -0.3886  0.1923
  893SOL    HW1 2678   0.535   3.048   1.508 -1.0603 -0.5665  0.5950
  893SOL    HW2 2679   0.451   0.073   1.566  1.7922  2.3578 -0.2528
  894SOL     OW 2680   2.394   1.659   0.854 -0.2664  0.5251  0.0262
  894SOL    HW1 2681   2.482   1.693   0.896  0.3784 -0.0088  3.2810
  894SOL    HW2 2682   2.408   1.631   0.755  2.8135 -1.4002 -3.1142
  895SOL     OW 2683   2.480   2.509   1.738  0.8987  0.5927  0.3894
  895SOL    HW1 2684   2.502   2.412   1.702 -0.4413 -2.4038 -2.1831
  895SOL    HW2 2685   2.553   2.578   1.716 -1.7349  1.9714  0.2867
  896SOL     OW 2686   0.874   0.242   1.414  0.5570  0.4410 -0.5670
  896SOL    HW1 2687   0.922   0.328   1.409  3.3174 -2.1483 -0.9447
  896SOL    HW2 2688   0.822   0.229   1.502 -0.0862  0.1083  0.7691
  897SOL     OW 2689   0.844   1.624   1.007  0.3003 -0.1595 -0.3432
  897SOL    HW1 2690   0.812   1.695   1.074 -1.2463  0.3148 -0.5703
  897SOL    HW2 2691   0.812   1.653   0.915  0.3400 -3.9956  1.4556
  898SOL     OW 2692   1.616   2.637   1.630  0.3098 -0.6823  0.0450
  898SOL    HW1 2693   1.539   2.573   1.615  1.1830 -0.3519  0.6375
  898SOL    HW2 2694   1.703   2.582   1.621 -1.8895  0.4034 -0.7135
  899SOL     OW 2695   1.032   0.297   2.956  0.1891  0.5456 -0.1738
  899SOL    HW1 2696   0.996   0.370   2.899 -0.3756 -3.3436  0.2595
  899SOL    HW2 2697   0.992   0.206   2.928 -3.9804 -2.0910  0.4385
  900SOL     OW 2698   1.244   2.425   2.031 -0.2840 -0.3645 -0.5110
  900SOL    HW1 2699   1.170   2.354   2.040  0.5007 -0.9790  3.7037
  900SOL    HW2 2700   1.314   2.396   1.964 -2.2652 -1.9137  2.1079
  901SOL     OW 2701   0.857   2.052   0.146  0.3100  0.1009 -0.1092
  901SOL    HW1 2702   0.908   2.048   0.235 -0.0831  0.3635 -0.5162
  901SOL    HW2 2703   0.909   2.011   0.071 -1.3365  0.1759  0.0614
  902SOL     OW 2704   1.502   1.223   0.973  0.1359  0.3292  0.7963
  902SOL    HW1 2705   1.525   1.289   1.050 -1.3981  0.6102 -2.1864
  902SOL    HW2 2706   1.448   1.280   0.903  0.2798  1.3407 -0.0192
  903SOL     OW 2707   2.529   1.096   2.870  0.3745  0.1164  0.3444
  903SOL    HW1 2708   2.537   1.195   2.851 -0.7921 -1.9092  0.4784
  903SOL    HW2 2709   2.434   1.069   2.892 -0.2192  0.6226  0.9324
  904SOL     OW 2710   0.788   1.279   0.229  0.3530 -0.1384  0.7059
  904SOL    HW1 2711   0.764   1.374   0.231  1.9966 -0.2809  1.3064
  904SOL    HW2 2712   0.858   1.259   0.296 -3.0079 -1.4307  0.1857
  905SOL     OW 2713   1.828   0.010   1.137  0.2047  0.6303  0.0183
  905SOL    HW1 2714   1.811   0.112   1.139 -2.6527 -0.8589 -0.4830
  905SOL    HW2 2715   1.827   3.067   1.231 -1.1082 -0.5926  0.1946
  906SOL     OW 2716   2.572   2.625   1.228 -0.1822 -0.1996  0.4485
  906SOL    HW1 2717   2.557   2.567   1.314 -0.4383 -1.8270  0.1421
  906SOL    HW2 2718   2.504   2.702   1.222  0.1956  0.3962  2.3454
  907SOL     OW 2719   1.205   1.087   0.400  0.0494 -0.0522  0.0086
  907SOL    HW1 2720   1.235   1.076   0.499 -0.4957  2.8499  2.0542
  907SOL    HW2 2721   1.124   1.154   0.393 -0.5278  0.0714  0.0429
  908SOL     OW 2722   1.597   0.042   1.032 -0.0854  0.2026  0.0004
  908SOL    HW1 2723   1.542   0.121   1.066 -0.1644  0.2136  0.3704
  908SOL    HW2 2724   1.692   0.042   1.070 -1.0085  0.4559  0.7844
  909SOL     OW 2725   2.273   1.002   1.388 -0.4964  0.2960 -0.0766
  909SOL    HW1 2726   2.344   1.017   1.317 -0.1599  1.1017  1.2578
  909SOL    HW2 2727   2.284   0.903   1.412  0.3914 -2.8446  1.6189
  910SOL     OW 2728   2.084   0.700   2.035  0.3204 -0.6430  0.3458
  910SOL    HW1 2729   2.076   0.773   1.966 -1.4098 -0.7128  2.1028
  910SOL    HW2 2730   2.074   0.613   1.987 -2.6817  1.5167  1.5129
  911SOL     OW 2731   2.142   0.918   2.694 -0.1747 -0.1268  0.0373
  911SOL    HW1 2732   2.193   0.947   2.777 -0.0627 -2.3743  2.6187
  911SOL    HW2 2733   2.173   0.827   2.657 -1.0334  1.1367  3.0069
  912SOL     OW 2734   0.359   1.152   1.729 -0.0788  0.3423 -0.1958
  912SOL    HW1 2735   0.442   1.100   1.703  0.9822 -1.5844 -1.1260
  912SOL    HW2 2736   0.316   1.200   1.652  0.9756 -0.4399  1.3566
  913SOL     OW 2737   2.946   2.315   1.528  0.2722 -0.5045  0.0067
  913SOL    HW1 2738   2.963   2.231   1.582  2.3675  2.8210  1.7504
  913SOL    HW2 2739   2.859   2.362   1.554  1.3901 -1.9096 -0.4211
  914SOL     OW 2740   1.615   0.825   1.756  0.9021 -0.5486 -0.6907
  914SOL    HW1 2741   1.696   0.883   1.763 -1.1907 -1.5965 -3.9603
  914SOL    HW2 2742   1.642   0.750   1.697  1.1040  2.1746 -0.6278
  915SOL     OW 2743   2.513   0.945   1.242  0.0189  0.7343  0.3224
  915SOL    HW1 2744   2.481   0.852   1.218 -1.3345 -0.9400  0.0845
  915SOL    HW2 2745   2.569   0.980   1.167 -1.7253 -1.7421 -0.3283
  916SOL     OW 2746   1.830   2.262   0.909 -0.0845 -0.4774  0.2404
  916SOL    HW1 2747   1.768   2.336   0.882 -0.1411 -0.6215  0.2138
  916SOL    HW2 2748   1.792   2.179   0.959  3.0449 -1.2313  0.3465
  917SOL     OW 2749   1.970   2.016   2.391 -0.1515  0.8346  0.1839
  917SOL    HW1 2750   1.881   2.068   2.375 -1.2074  0.5869 -0.3452
  917SOL    HW2 2751   2.008   2.042   2.484  1.5000  1.9873 -1.2740
  918SOL     OW 2752   2.018   2.440   2.253  0.1178  0.1871  0.2075
  918SOL    HW1 2753   1.974   2.528   2.289 -0.8951 -0.4259  0.3366
  918SOL    HW2 2754   1.981   2.413   2.165  0.2235  0.2066  5.0533
  919SOL     OW 2755   1.133   2.900   1.526 -0.5284  0.4881  0.1763
  919SOL    HW1 2756   1.130   2.808   1.484 -1.3581  0.6473 -1.0997
  919SOL    HW2 2757   1.225   2.932   1.547 -1.0593 -1.8706  2.6606
  920SOL     OW 2758   3.009   0.385   2.503  0.5511  0.2609 -0.6164
  920SOL    HW1 2759   3.064   0.346   2.578 -0.5181  0.9366  1.5722
  920SOL    HW2 2760   2.960   0.306   2.459 -1.0854  1.0850 -0.1913
  921SOL     OW 2761   0.212   0.930   1.704  0.6999 -0.0805  0.0504
  921SOL    HW1 2762   0.210   0.936   1.604 -0.5677  3.1273 -0.7900
  921SOL    HW2 2763   0.255   1.013   1.746 -1.7667  1.9743 -0.2087
  922SOL     OW 2764   2.235   2.531   0.369  0.5297 -0.3335  0.0364
  922SOL    HW1 2765   2.206   2.623   0.352 -0.3048 -0.8002 -0.3426
  922SOL    HW2 2766   2.302   2.491   0.304 -2.1551  2.1669 -0.1141
  923SOL     OW 2767   0.669   2.219   0.546 -0.1244  0.1974  0.3754
  923SOL    HW1 2768   0.685   2.170   0.636  1.4985  0.1420 -0.9380
  923SOL    HW2 2769   0.587   2.277   0.551  0.5164 -0.7281 -0.4922
  924SOL     OW 2770   1.092   0.921   0.217  0.0076  0.2557 -0.2902
  924SOL    HW1 2771   0.994   0.908   0.247  0.6807 -1.4916  0.2406
  924SOL    HW2 2772   1.137   0.981   0.283 -0.4585 -1.3045 -0.9072
  925SOL     OW 2773   2.714   0.683   0.869 -0.1241 -0.4011 -0.7762
  925SOL    HW1 2774   2.654   0.623   0.927  2.3679 -1.1831  1.4010
  925SOL    HW2 2775   2.668   0.763   0.835  2.0548  3.0556  0.7033
  926SOL     OW 2776   0.501   0.166   1.223 -0.4416 -0.4930  0.2645
  926SOL    HW1 2777   0.484   0.096   1.295  0.0948 -0.1985 -3.6660
  926SOL    HW2 2778   0.409   0.192   1.180 -2.0121 -1.8491 -1.2470
  927SOL     OW 2779   0.602   1.498   2.413 -0.0710 -0.5360  0.3875
  927SOL    HW1 2780   0.648   1.450   2.489 -1.8682 -0.4862 -2.3063
  927SOL    HW2 2781   0.522   1.554   2.439  0.2932  1.1336  1.2541
  928SOL     OW 2782   0.167   0.567   2.435 -0.4226 -0.1758  0.0563
  928SOL    HW1 2783   0.084   0.565   2.371  0.6671 -1.4476  0.2905
  928SOL    HW2 2784   0.188   0.472   2.469 -0.2057  2.3477 -0.2157
  929SOL     OW 2785   2.676   2.966   1.206 -0.3268 -0.1925  0.0413
  929SOL    HW1 2786   2.715   2.873   1.175  2.0565 -0.2990  0.6541
  929SOL    HW2 2787   2.642   3.024   1.128 -1.7077  1.6762 -1.6779
  930SOL     OW 2788   1.947   0.638   1.689  0.1028  0.0117  0.0050
  930SOL    HW1 2789   2.014   0.559   1.683  1.8687  1.7884 -0.6904
  930SOL    HW2 2790   1.986   0.719   1.741 -0.5286  1.9528 -0.1081
  931SOL     OW 2791   1.961   0.905   3.096 -0.2699 -0.0161 -0.3140
  931SOL    HW1 2792   1.921   0.934   3.005  0.7692 -0.9201 -1.6023
  931SOL    HW2 2793   2.022   0.983   0.026  0.2325  2.6109 -1.7211
  932SOL     OW 2794   1.994   1.296   0.491  0.2010 -0.0489  0.7811
  932SOL    HW1 2795   2.024   1.197   0.464  1.8694 -4.9025 -1.4631
  932SOL    HW2 2796   1.891   1.287   0.488 -0.1791 -0.9451  0.1995
  933SOL     OW 2797   2.194   1.711   1.043 -0.3600  0.3771  0.1469
  933SOL    HW1 2798   2.276   1.730   0.985 -0.8303 -0.9560 -0.3052
  933SOL    HW2 2799   2.225   1.667   1.128 -1.6343  0.2414 -0.6719
  934SOL     OW 2800   1.844   0.925   2.576 -0.1658 -0.0872 -0.3946
  934SOL    HW1 2801   1.889   0.851   2.634  0.8335 -0.7063  1.3257
  934SOL    HW2 2802   1.765   0.898   2.518 -1.6063 -0.1815 -0.8659
  935SOL     OW 2803   0.212   1.012   0.556  0.1524  0.3632 -0.1764
  935SOL    HW1 2804   0.225   1.009   0.457 -0.3970 -0.5744  1.3451
  935SOL    HW2 2805   0.160   1.096   0.579 -0.1735  0.5129 -2.8749
  936SOL     OW 2806   0.551   0.050   0.825  0.2617  0.0104 -0.2085
  936SOL    HW1 2807   0.589   0.035   0.921  0.0293  2.9296  1.5285
  936SOL    HW2 2808   0.620   0.017   0.753  2.5021 -1.8023  0.2589
  937SOL     OW 2809   2.830   3.038   1.905  0.2712 -0.1828 -0.1099
  937SOL    HW1 2810   2.921   3.042   1.861 -3.3921  0.1572  1.7619
  937SOL    HW2 2811   2.820   2.961   1.974 -0.8359  0.5611  1.4073
  938SOL     OW 2812   0.034   2.391   2.985 -0.0342  0.1868 -0.2705
  938SOL    HW1 2813   3.064   2.428   2.921  0.4085 -0.6985  0.4692
  938SOL    HW2 2814   0.040   2.450   3.070  0.7904  1.8138  0.0942
  939SOL     OW 2815   1.088   1.570   1.196  0.3847  0.3086 -0.1447
  939SOL    HW1 2816   1.127   1.482   1.176 -4.4481  0.8301 -1.9231
  939SOL    HW2 2817   0.998   1.575   1.142 -0.0287 -2.3791 -0.4117
  940SOL     OW 2818   3.005   0.539   3.038 -0.0918  0.0306  0.5384
  940SOL    HW1 2819   2.985   0.449   2.988  1.6122 -0.1439  0.5476
  940SOL    HW2 2820   3.069   0.522   0.013 -1.7114  0.1466 -0.2233
  941SOL     OW 2821   2.226   0.273   2.671 -0.4461  0.1281 -0.0322
  941SOL    HW1 2822   2.240   0.311   2.583  0.3086  0.3650  0.4583
  941SOL    HW2 2823   2.129   0.272   2.698  2.1412  1.4861  1.1220
  942SOL     OW 2824   1.639   0.385   0.898 -0.2791 -0.7980 -0.0220
  942SOL    HW1 2825   1.542   0.369   0.903 -0.7053 -1.7606 -1.1490
  942SOL    HW2 2826   1.682   0.296   0.871  3.8461 -0.1043 -0.0900
  943SOL     OW 2827   1.164   0.867   1.897  0.0450 -0.1262 -0.3501
  943SOL    HW1 2828   1.135   0.819   1.981 -0.6555  1.7416  0.0096
  943SOL    HW2 2829   1.101   0.942   1.871  1.9313 -3.0602 -0.2810
  944SOL     OW 2830   1.964   0.989   1.529  0.0736 -0.0156  0.4113
  944SOL    HW1 2831   1.994   0.899   1.482  1.4831  2.2665 -2.1559
  944SOL    HW2 2832   2.047   1.043   1.545 -2.8849 -2.2020 -1.7264
  945SOL     OW 2833   2.873   0.087   2.904  0.2527 -0.1262  0.7412
  945SOL    HW1 2834   2.835   0.060   2.814 -0.9911 -3.8018  1.5509
  945SOL    HW2 2835   2.878   0.009   2.969 -2.1413 -0.7272  0.0090
  946SOL     OW 2836   2.900   1.025   1.807 -0.0072  0.0783 -0.3597
  946SOL    HW1 2837   2.923   1.077   1.722 -0.7141  1.4357  2.3712
  946SOL    HW2 2838   2.979   0.973   1.847  1.0414 -0.2811  1.7997
  947SOL     OW 2839   1.227   2.934   0.101  0.4568 -0.3282 -0.0384
  947SOL    HW1 2840   1.138   2.885   0.108  1.2047  2.1419 -0.9265
  947SOL    HW2 2841   1.225   3.017   0.158 -0.5259  1.2309  0.9433
  948SOL     OW 2842   2.291   1.662   1.298 -0.4189  0.5430  0.3634
  948SOL    HW1 2843   2.306   1.723   1.381  2.5353  0.4738  0.3315
  948SOL    HW2 2844   2.379   1.618   1.276 -1.5507  2.5530  1.1930
  949SOL     OW 2845   0.239   1.465   0.016  0.0828 -0.4058  0.0219
  949SOL    HW1 2846   0.211   1.366   0.001  0.5655  1.4119 -0.4889
  949SOL    HW2 2847   0.304   1.490   3.040  0.1156 -0.3484  0.8844
  950SOL     OW 2848   0.621   2.396   1.113  0.2884  0.4335  0.1345
  950SOL    HW1 2849   0.608   2.443   1.202  1.7220  0.9660 -1.5540
  950SOL    HW2 2850   0.643   2.463   1.041 -1.8477 -2.3238  1.8953
  951SOL     OW 2851   0.723   1.397   2.656 -0.4143 -0.0817 -0.3053
  951SOL    HW1 2852   0.767   1.469   2.714 -0.5752 -0.6163  0.2154
  951SOL    HW2 2853   0.709   1.316   2.712  1.3791  2.7477 -0.6727
  952SOL     OW 2854   0.699   0.650   0.594 -0.1227  0.1006  0.1230
  952SOL    HW1 2855   0.659   0.560   0.629  2.2437  0.3602  1.0468
  952SOL    HW2 2856   0.715   0.713   0.672  0.2230  0.4064  2.5213
  953SOL     OW 2857   2.492   2.903   2.483 -0.0377  0.4126  0.5749
  953SOL    HW1 2858   2.570   2.837   2.467 -0.6179  1.1357 -2.4168
  953SOL    HW2 2859   2.510   2.993   2.442  1.9225 -2.8040 -0.2662
  954SOL     OW 2860   1.658   0.965   0.702  0.5221 -1.3778  0.1459
  954SOL    HW1 2861   1.677   1.036   0.775 -2.5883  0.6912 -0.3895
  954SOL    HW2 2862   1.698   0.983   0.613  0.5261 -1.9600  2.0607
  955SOL     OW 2863   0.671   2.013   0.347  0.0324 -0.0593  0.1168
  955SOL    HW1 2864   0.735   2.035   0.267  1.0271 -1.1317 -0.8546
  955SOL    HW2 2865   0.696   2.078   0.428  1.3992  2.2013  0.4594
  956SOL     OW 2866   2.269   0.481   1.976 -0.5320  0.0222 -0.3181
  956SOL    HW1 2867   2.179   0.447   1.989  1.9579  1.3760 -0.5555
  956SOL    HW2 2868   2.334   0.423   2.027  0.3506  1.3875 -1.8737
  957SOL     OW 2869   2.121   2.393   1.831  0.1159  0.1060  0.2704
  957SOL    HW1 2870   2.153   2.466   1.895 -0.2143 -0.1411 -1.5851
  957SOL    HW2 2871   2.195   2.333   1.803  2.0198  0.1355 -0.8563
  958SOL     OW 2872   1.720   1.053   1.433 -0.3188 -0.0642 -0.1908
  958SOL    HW1 2873   1.725   1.075   1.332 -0.4803  2.0552 -0.1183
  958SOL    HW2 2874   1.806   1.017   1.474  0.4277 -1.6642  4.3889
  959SOL     OW 2875   2.086   1.630   2.173  0.0403 -0.0274 -0.0877
  959SOL    HW1 2876   2.005   1.653   2.115 -0.5969 -0.6048  3.2968
  959SOL    HW2 2877   2.082   1.690   2.261 -1.9392  0.0236 -0.7337
  960SOL     OW 2878   0.676   0.879   2.864  0.0816  0.4246  0.9218
  960SOL    HW1 2879   0.661   0.851   2.767 -0.0739  1.2868  0.7857
  960SOL    HW2 2880   0.722   0.809   2.922  0.3675  1.6075 -1.6062
  961SOL     OW 2881   0.168   1.201   3.049 -0.1088  0.2620 -0.1974
  961SOL    HW1 2882   0.116   1.131   3.097 -1.9488 -0.4236 -0.2847
  961SOL    HW2 2883   0.164   1.182   2.949 -1.1625 -3.2222 -2.2502
  962SOL     OW 2884   0.784   1.666   2.302  0.0040  0.5382 -0.4596
  962SOL    HW1 2885   0.724   1.587   2.332  0.5175  0.4220  2.2639
  962SOL    HW2 2886   0.746   1.756   2.336  0.7705  2.7602  0.6594
  963SOL     OW 2887   3.022   2.133   2.981  0.1172 -0.2629  0.1147
  963SOL    HW1 2888   2.932   2.147   2.934  0.0660  1.1365  1.3549
  963SOL    HW2 2889   3.090   2.207   2.956  2.3170 -2.2483 -1.5074
  964SOL     OW 2890   0.829   1.752   1.852 -0.5314 -0.5226  0.0648
  964SOL    HW1 2891   0.873   1.710   1.932  1.4946 -1.6203 -1.3552
  964SOL    HW2 2892   0.849   1.691   1.773  0.3841 -0.9279  2.0896
  965SOL     OW 2893   1.588   2.103   0.721  0.2220 -0.2405 -0.0532
  965SOL    HW1 2894   1.592   2.184   0.653 -0.3730  2.5835  0.4869
  965SOL    HW2 2895   1.659   2.032   0.691  2.0043 -3.7435 -1.5477
  966SOL     OW 2896   2.980   1.792   0.149 -0.0318 -0.5265  0.1854
  966SOL    HW1 2897   3.057   1.844   0.106 -1.4601 -0.1410  1.8626
  966SOL    HW2 2898   3.011   1.695   0.170 -0.5449 -0.5718 -2.8869
  967SOL     OW 2899   2.097   3.084   2.266 -0.3028  0.3678 -0.0901
  967SOL    HW1 2900   2.141   3.072   2.363  1.9719  0.6181 -0.2571
  967SOL    HW2 2901   2.056   2.997   2.226 -2.3609 -0.1796 -0.5111
  968SOL     OW 2902   0.906   0.566   0.262 -0.2071 -0.1520  0.2415
  968SOL    HW1 2903   0.925   0.657   0.305  1.4509 -0.6796  2.5254
  968SOL    HW2 2904   0.955   0.559   0.173  0.3658 -0.8744  1.7477
  969SOL     OW 2905   0.491   1.652   2.151  0.5265  0.2568 -0.3640
  969SOL    HW1 2906   0.551   1.729   2.123 -3.0493 -0.1597  2.1889
  969SOL    HW2 2907   0.513   1.570   2.094 -0.5677 -0.0972  1.5485
  970SOL     OW 2908   1.807   2.489   1.175  0.8489  0.2142  0.2488
  970SOL    HW1 2909   1.898   2.512   1.139 -0.3316 -1.6961 -1.5737
  970SOL    HW2 2910   1.803   2.403   1.230 -1.7248 -0.1065  1.9288
  971SOL     OW 2911   2.260   2.463   0.878  0.0802  0.0474  0.0834
  971SOL    HW1 2912   2.192   2.538   0.853  1.8822 -1.5259 -0.8047
  971SOL    HW2 2913   2.275   2.453   0.979  1.7432 -1.2649  0.0593
  972SOL     OW 2914   0.119   0.974   2.612  0.1655 -0.4110  0.7253
  972SOL    HW1 2915   0.184   0.975   2.533 -2.5169 -2.2094 -0.6451
  972SOL    HW2 2916   0.158   1.008   2.700  0.5365 -0.3528  1.1369
  973SOL     OW 2917   0.612   0.139   0.431  0.3124 -0.4346  0.8385
  973SOL    HW1 2918   0.698   0.154   0.478  1.5185  1.6728 -3.7507
  973SOL    HW2 2919   0.556   0.222   0.446 -0.5653  0.1913  3.0990
  974SOL     OW 2920   2.311   1.001   1.879 -0.5176 -0.5466  0.4114
  974SOL    HW1 2921   2.307   1.075   1.808  0.9058 -0.7424 -0.2349
  974SOL    HW2 2922   2.367   1.035   1.956 -0.4281  0.0361 -2.8139
  975SOL     OW 2923   0.050   3.099   0.574  0.0636 -0.4934  0.4087
  975SOL    HW1 2924   3.051   3.074   0.558  0.2397 -0.3777 -0.0608
  975SOL    HW2 2925   0.105   3.073   0.493 -0.7485  1.4374  0.1106
  976SOL     OW 2926   0.126   2.025   0.986 -0.3540 -0.5474  0.3790
  976SOL    HW1 2927   0.094   1.996   1.078 -1.4943 -0.9428 -0.3234
  976SOL    HW2 2928   0.108   1.952   0.919 -2.0664 -0.4126  2.2027
  977SOL     OW 2929   0.891   1.941   0.629 -0.3747 -0.0180 -0.5723
  977SOL    HW1 2930   0.836   1.869   0.582 -0.5737  0.4686  0.8271
  977SOL    HW2 2931   0.837   1.980   0.707  0.0357 -2.0622  1.8736
  978SOL     OW 2932   0.210   0.905   0.088  0.0916  0.4202  0.7540
  978SOL    HW1 2933   0.260   0.835   0.035 -3.8557  0.5667 -0.8712
  978SOL    HW2 2934   0.124   0.929   0.034 -1.4315  1.3495  0.7669
  979SOL     OW 2935   1.785   1.659   0.797 -0.2000  0.0938  0.9476
  979SOL    HW1 2936   1.885   1.646   0.815 -0.2705  2.2348  1.1539
  979SOL    HW2 2937   1.739   1.660   0.885  1.8828 -1.4473 -0.1151
  980SOL     OW 2938   0.544   2.278   2.004  0.4741 -0.0824  0.1542
  980SOL    HW1 2939   0.617   2.298   2.080  1.0694  1.3157  3.2397
  980SOL    HW2 2940   0.566   2.199   1.944  0.9282 -0.4408 -1.9967
  981SOL     OW 2941   2.258   1.052   2.945  0.5915 -0.3414  0.0000
  981SOL    HW1 2942   2.232   1.122   2.874  0.1702  3.2357  0.1877
  981SOL    HW2 2943   2.219   1.065   3.038  2.5462 -0.5652  0.9767
  982SOL     OW 2944   3.011   2.721   1.869  0.0130  0.2239 -0.5522
  982SOL    HW1 2945   2.948   2.760   1.940  1.1704 -0.1536 -0.9389
  982SOL    HW2 2946   0.009   2.727   1.903  0.1216  1.9544  2.4461
  983SOL     OW 2947   1.641   0.155   1.742 -0.1892  0.2924 -0.0743
  983SOL    HW1 2948   1.573   0.229   1.723 -1.1192 -2.0776  0.3864
  983SOL    HW2 2949   1.591   0.096   1.811 -3.0549 -0.1376  1.2030
  984SOL     OW 2950   1.962   2.850   2.594  0.1964  0.1538  0.2579
  984SOL    HW1 2951   2.046   2.803   2.628  0.9394  1.6758 -0.4349
  984SOL    HW2 2952   1.890   2.786   2.574  0.2303 -1.3301  1.3413
  985SOL     OW 2953   1.718   1.388   1.642 -0.1966 -0.4100  0.4451
  985SOL    HW1 2954   1.642   1.320   1.659 -0.6573 -0.6701  2.3353
  985SOL    HW2 2955   1.683   1.477   1.680  0.3087 -0.4924 -0.0996
  986SOL     OW 2956   2.211   2.670   2.396 -0.2670  0.5180  0.5257
  986SOL    HW1 2957   2.218   2.705   2.493 -2.0279 -0.6535  1.1352
  986SOL    HW2 2958   2.220   2.570   2.389  1.8298  1.2249 -1.8663
  987SOL     OW 2959   2.865   1.796   2.813  0.1618  0.0148  0.8397
  987SOL    HW1 2960   2.872   1.706   2.770 -0.7544  0.4392 -1.3393
  987SOL    HW2 2961   2.837   1.869   2.748  0.5136 -0.1289 -0.0678
  988SOL     OW 2962   3.066   0.769   1.447  0.2840  0.1075 -1.1972
  988SOL    HW1 2963   3.056   0.708   1.525  0.0345  1.5582 -0.4051
  988SOL    HW2 2964   2.976   0.788   1.409  1.3315 -0.1486  3.4942
  989SOL     OW 2965   1.942   1.307   1.224  0.7944 -0.1556  0.4032
  989SOL    HW1 2966   2.031   1.353   1.234  0.8730 -2.4792  1.5030
  989SOL    HW2 2967   1.971   1.210   1.218  3.9524 -2.5157  0.6840
  990SOL     OW 2968   2.751   0.687   0.145 -0.1961  0.0816  0.2267
  990SOL    HW1 2969   2.762   0.732   0.054 -2.1929  1.0630 -1.2413
  990SOL    HW2 2970   2.685   0.614   0.143  2.6496  2.8754  0.0752
  991SOL     OW 2971   0.396   1.854   3.024  0.4072 -0.2520  0.2565
  991SOL    HW1 2972   0.450   1.912   2.958 -0.5379 -3.8184  1.5414
  991SOL    HW2 2973   0.441   1.849   0.021  1.2512 -1.9202  0.1031
  992SOL     OW 2974   2.244   1.758   1.762 -0.1456 -0.0213 -0.1419
  992SOL    HW1 2975   2.184   1.679   1.726  0.0081 -0.8291 -0.8667
  992SOL    HW2 2976   2.283   1.727   1.851 -1.2807  3.6465 -1.1436
  993SOL     OW 2977   0.735   3.002   0.630  0.4627  0.3103 -0.1164
  993SOL    HW1 2978   0.792   3.086   0.608 -0.4313 -1.4346  1.5100
  993SOL    HW2 2979   0.743   2.935   0.555 -1.0553  2.4052  1.6145
  994SOL     OW 2980   2.641   2.010   1.579 -0.3547  0.0780 -0.1972
  994SOL    HW1 2981   2.730   2.015   1.632  2.2092 -1.5562  1.6846
  994SOL    HW2 2982   2.610   1.910   1.584  0.5455 -0.5350  0.5573
  995SOL     OW 2983   2.116   1.804   2.365  0.0831 -0.0149 -0.2704
  995SOL    HW1 2984   2.052   1.885   2.382 -4.0966  1.8025 -1.4019
  995SOL    HW2 2985   2.215   1.834   2.379  0.3319 -2.2874 -1.4767
  996SOL     OW 2986   1.927   1.788   3.068  0.1567 -0.1280 -0.0797
  996SOL    HW1 2987   1.844   1.748   0.015  0.0956  1.6347 -0.4691
  996SOL    HW2 2988   1.990   1.818   0.046  1.0747  0.9007 -0.4336
  997SOL     OW 2989   1.239   1.449   2.243  0.0184 -0.1592 -0.0741
  997SOL    HW1 2990   1.155   1.488   2.292 -1.4496 -1.4252 -0.9186
  997SOL    HW2 2991   1.314   1.518   2.237 -0.5745  0.3878  0.5129
  998SOL     OW 2992   2.823   2.491   0.846  0.0291 -0.2961 -0.1154
  998SOL    HW1 2993   2.828   2.454   0.751 -1.4789  0.9856 -2.1722
  998SOL    HW2 2994   2.909   2.472   0.899  1.0893 -0.8979  1.7067
  999SOL     OW 2995   0.076   2.695   0.822 -0.1772 -0.2835  0.3096
  999SOL    HW1 2996   0.147   2.713   0.896  0.9303  2.2253  0.2373
  999SOL    HW2 2997   0.107   2.715   0.727 -1.6501  1.9992 -1.6293
 1000SOL     OW 2998   1.165   2.984   2.883 -0.1775 -0.5779 -0.1224
 1000SOL    HW1 2999   1.212   2.948   2.968  0.4163 -1.4695  3.2128
 1000SOL    HW2 3000   1.106   3.065   2.907 -0.6622  1.6183  2.4070
   3.09953   3.09953   3.09953
