1000 SPC/Fw water molecules t= 275.00000 step= 275000
 3000
    1SOL     OW    1   2.833   2.747   0.782 -0.2024  0.4279  0.0838
    1SOL    HW1    2   2.922   2.696   0.800  1.6542 -1.0408 -1.2757
    1SOL    HW2    3   2.824   2.811   0.861  1.7146  2.3972 -2.4462
    2SOL     OW    4   2.162   1.782   1.178  0.2492 -0.0184 -0.2568
    2SOL    HW1    5   2.146   1.883   1.166  2.0289  1.3374  1.1339
    2SOL    HW2    6   2.242   1.766   1.239 -0.2852 -0.3932 -0.6017
    3SOL     OW    7   1.055   2.678   0.008 -0.1038  0.2977 -0.7273
    3SOL    HW1    8   1.045   2.758   3.079  2.9656 -1.5394  0.8675
    3SOL    HW2    9   1.092   2.604   3.078  0.3404  0.8944 -1.1827
    4SOL     OW   10   1.929   1.893   1.387 -0.5161  0.1772 -0.3101
    4SOL    HW1   11   2.006   1.830   1.412 -0.9066  0.4442 -1.2786
    4SOL    HW2   12   1.958   1.990   1.371 -3.6605  1.9501 -0.7706
    5SOL     OW   13   1.522   0.987   1.505 -0.2060  0.2460 -0.4785
    5SOL    HW1   14   1.614   0.982   1.537 -2.1398 -1.9356  1.8165
    5SOL    HW2   15   1.496   1.083   1.488 -0.2187 -0.9451  0.8407
    6SOL     OW   16   2.624   0.029   0.145  0.1721 -0.2255  0.2615
    6SOL    HW1   17   2.529   0.011   0.173 -0.2142 -1.6641 -0.2011
    6SOL    HW2   18   2.629   0.110   0.086 -1.0756 -0.7564  2.5384
    7SOL     OW   19   2.822   1.292   1.175 -0.0250 -0.0301 -0.3935
    7SOL    HW1   20   2.734   1.322   1.210  2.0046  0.9594 -2.5135
    7SOL    HW2   21   2.817   1.250   1.082 -1.4051  1.0249  0.5770
    8SOL     OW   22   1.133   2.709   1.111  0.4545 -0.3723 -0.0907
    8SOL    HW1   23   1.091   2.784   1.054 -0.9007  2.8461 -1.2003
    8SOL    HW2   24   1.128   2.728   1.209  0.9108  0.5396  0.1924
    9SOL     OW   25   1.837   0.047   2.036 -0.4539 -0.0657  0.1163
    9SOL    HW1   26   1.762   0.014   1.982 -0.3181  1.7404  0.3535
    9SOL    HW2   27   1.848   0.147   2.052 -3.3060  0.6998  1.1418
   10SOL     OW   28   0.839   2.371   0.936 -0.2597  0.4302 -0.0327
   10SOL    HW1   29   0.760   2.431   0.937  1.4055 -0.1546 -0.1689
   10SOL    HW2   30   0.911   2.412   0.991  0.7820 -0.7039 -2.6927
   11SOL     OW   31   1.541   1.529   0.704 -0.1043 -0.3357 -0.5526
   11SOL    HW1   32   1.642   1.521   0.707 -0.5295 -1.8038  1.4823
   11SOL    HW2   33   1.508   1.484   0.786  2.0509  0.5108 -2.4665
   12SOL     OW   34   2.852   2.707   1.750 -0.5606 -0.0397  0.0447
   12SOL    HW1   35   2.838   2.627   1.688  3.0079 -1.1845 -0.2819
   12SOL    HW2   36   2.928   2.692   1.811 -0.5476 -1.7677 -0.3797
   13SOL     OW   37   2.100   0.116   0.420  0.6977 -0.1260 -0.4527
   13SOL    HW1   38   2.007   0.099   0.463 -1.0051 -1.6435 -1.2430
   13SOL    HW2   39   2.152   0.028   0.413 -2.0424  0.8594  0.4059
   14SOL     OW   40   1.390   2.599   1.106  0.1951 -0.2755  0.0147
   14SOL    HW1   41   1.446   2.599   1.021 -0.0204 -1.6641  1.1936
   14SOL    HW2   42   1.307   2.660   1.095  1.8004  1.0611  0.5550
   15SOL     OW   43   3.062   1.732   1.423  0.3855 -0.1737  0.6834
   15SOL    HW1   44   0.012   1.761   1.366 -0.7529 -0.7863  1.4631
   15SOL    HW2   45   3.035   1.643   1.387  1.3618 -0.4002  0.5324
   16SOL     OW   46   2.020   2.338   0.432  0.2999  0.2019  0.4866
   16SOL    HW1   47   2.075   2.337   0.518 -1.8588  1.0477  0.2308
   16SOL    HW2   48   2.029   2.253   0.381 -0.3882  3.0398  0.8079
   17SOL     OW   49   0.863   3.071   1.613  0.2578  0.2879  0.4353
   17SOL    HW1   50   0.866   3.107   1.705 -1.0528 -0.2113 -1.9978
   17SOL    HW2   51   0.904   0.012   1.549 -2.9919  0.5624 -0.6023
   18SOL     OW   52   1.199   0.876   0.133 -0.4110 -0.3526  0.0044
   18SOL    HW1   53   1.200   0.918   0.038  0.7471  0.0645 -1.8398
   18SOL    HW2   54   1.259   0.931   0.196 -0.3326  0.0345 -0.0043
   19SOL     OW   55   1.669   1.925   0.012  0.2251 -0.3982  0.4231
   19SOL    HW1   56   1.741   1.855   0.042 -0.4730 -3.9098 -0.1772
   19SOL    HW2   57   1.715   2.017   3.119  0.0516  0.4012  2.1587
   20SOL     OW   58   2.381   1.962   1.752 -0.3973 -0.3661  0.1667
   20SOL    HW1   59   2.316   1.985   1.825 -0.1645  0.0201  1.3408
   20SOL    HW2   60   2.418   1.871   1.767 -2.5824 -1.2898 -0.0124
   21SOL     OW   61   0.699   1.432   0.520  0.1702 -1.0012  0.6603
   21SOL    HW1   62   0.773   1.419   0.452 -0.3997  1.4871  0.3089
   21SOL    HW2   63   0.627   1.503   0.501 -1.4846  0.6018 -0.6046
   22SOL     OW   64   2.252   2.979   1.347  0.0839  0.1082  0.4449
   22SOL    HW1   65   2.268   3.079   1.356 -1.9551 -1.2328  0.2319
   22SOL    HW2   66   2.336   2.928   1.364 -3.3293  2.3080 -0.3588
   23SOL     OW   67   2.989   0.760   1.941  0.3747  0.2863  0.7074
   23SOL    HW1   68   2.909   0.772   1.875  0.8240  2.6304 -4.3984
   23SOL    HW2   69   2.955   0.766   2.037 -0.6393 -2.1307 -2.3644
   24SOL     OW   70   2.251   2.589   0.403  0.3279  0.0799 -0.8219
   24SOL    HW1   71   2.320   2.516   0.416 -0.4907 -1.4834  0.5041
   24SOL    HW2   72   2.222   2.595   0.309 -4.5641 -0.4171  1.9734
   25SOL     OW   73   1.586   0.032   2.475 -0.3803 -0.2942 -0.3759
   25SOL    HW1   74   1.566   0.082   2.561  1.7622  1.1993 -2.4813
   25SOL    HW2   75   1.652   0.083   2.422  0.0421 -0.8381  0.8450
   26SOL     OW   76   1.714   2.326   0.186 -0.3794 -0.1266  0.0308
   26SOL    HW1   77   1.743   2.238   0.142 -1.5995 -0.3950  0.2427
   26SOL    HW2   78   1.694   2.389   0.115  0.9218 -1.8164  1.7324
   27SOL     OW   79   2.559   1.961   0.066  0.0611 -0.6118 -0.3835
   27SOL    HW1   80   2.564   1.923   3.100 -0.4262  0.3615  2.9179
   27SOL    HW2   81   2.628   2.035   0.075 -1.4131 -2.5861  0.3672
   28SOL     OW   82   0.241   1.040   1.718 -0.1582 -0.2955 -0.7131
   28SOL    HW1   83   0.187   1.036   1.636 -0.0128 -1.9131  1.1449
   28SOL    HW2   84   0.192   0.989   1.790  1.8615  0.7663  0.9335
   29SOL     OW   85   2.326   2.405   1.447 -0.1738  0.0756  0.9193
   29SOL    HW1   86   2.244   2.472   1.442 -2.0733  0.5937  0.9487
   29SOL    HW2   87   2.384   2.445   1.522 -1.9181  1.2037  0.1424
   30SOL     OW   88   1.583   0.470   0.592 -0.1510  0.1804  0.4005
   30SOL    HW1   89   1.587   0.409   0.511  0.3941  1.8241  0.0440
   30SOL    HW2   90   1.516   0.541   0.576 -0.6716 -0.7453  1.2889
   31SOL     OW   91   2.451   2.431   1.968  0.7898 -0.1038 -0.0831
   31SOL    HW1   92   2.360   2.451   2.008  0.6012  3.1121 -0.0795
   31SOL    HW2   93   2.463   2.481   1.880 -0.7349  0.8313 -0.1816
   32SOL     OW   94   0.709   2.018   1.215 -0.0762 -0.0155 -0.6547
   32SOL    HW1   95   0.775   2.029   1.137  3.2775 -0.9779  0.3473
   32SOL    HW2   96   0.714   2.095   1.280  0.4206 -0.8548 -1.0591
   33SOL     OW   97   0.649   3.073   2.562 -0.0036  0.0142  0.3145
   33SOL    HW1   98   0.567   3.056   2.507 -1.0859 -1.6051  2.7707
   33SOL    HW2   99   0.637   3.020   2.647 -0.4448 -0.5948  3.1701
   34SOL     OW  100   1.360   2.973   0.583  0.2123  0.1618 -0.0066
   34SOL    HW1  101   1.292   3.004   0.652 -1.5951  1.6175 -0.7130
   34SOL    HW2  102   1.421   3.052   0.561  0.5058 -0.5484 -3.2833
   35SOL     OW  103   2.277   2.860   1.101  0.2970 -0.1652  1.3895
   35SOL    HW1  104   2.375   2.837   1.081 -0.7279  2.4956  0.3036
   35SOL    HW2  105   2.269   2.926   1.181 -1.1258 -1.9104 -1.2857
   36SOL     OW  106   1.982   2.296   2.395 -0.4374 -0.1478  0.1729
   36SOL    HW1  107   1.919   2.252   2.461  1.8704  1.6500  0.7769
   36SOL    HW2  108   1.972   2.397   2.396 -0.7187 -1.0754  0.7130
   37SOL     OW  109   1.021   0.140   2.253  0.6316  0.3441 -0.6678
   37SOL    HW1  110   1.069   0.087   2.182 -0.2684  1.1644  1.8158
   37SOL    HW2  111   1.013   0.240   2.239 -0.6791 -0.4650 -0.1108
   38SOL     OW  112   0.151   2.606   2.739  0.4010  0.2390 -0.6034
   38SOL    HW1  113   0.096   2.691   2.728  1.4427  0.7848  1.5972
   38SOL    HW2  114   0.189   2.576   2.647  1.2059 -0.6289 -2.4914
   39SOL     OW  115   2.392   0.889   1.789  0.1226 -0.1959  0.4332
   39SOL    HW1  116   2.379   0.901   1.686  0.1384  0.5017 -2.6832
   39SOL    HW2  117   2.318   0.928   1.845  2.6655 -0.1559  3.6335
   40SOL     OW  118   1.021   3.025   0.164  0.2699  0.1833 -0.4464
   40SOL    HW1  119   0.922   3.034   0.134  0.4500  0.4825 -0.6150
   40SOL    HW2  120   1.076   3.100   0.125  0.1027  0.0657  1.9694
   41SOL     OW  121   2.149   1.145   1.269  0.1875  0.3236  0.3604
   41SOL    HW1  122   2.253   1.152   1.263  0.6809  1.1690  1.5231
   41SOL    HW2  123   2.105   1.228   1.240  1.6293 -3.2789 -1.7328
   42SOL     OW  124   0.389   0.579   0.941  0.5668  0.2735  0.2980
   42SOL    HW1  125   0.438   0.665   0.953 -0.9055  0.1357 -1.4392
   42SOL    HW2  126   0.324   0.565   1.018 -0.8400  0.9847  0.5284
   43SOL     OW  127   2.392   1.676   2.760  0.3049 -0.2417  0.5427
   43SOL    HW1  128   2.404   1.613   2.839  0.1485  0.5987  0.7104
   43SOL    HW2  129   2.300   1.672   2.718  0.4302 -3.7814 -0.2269
   44SOL     OW  130   2.750   2.910   1.443 -0.2090 -0.0375  0.2264
   44SOL    HW1  131   2.770   2.932   1.542  2.7472  0.3086 -1.2711
   44SOL    HW2  132   2.763   2.996   1.387  0.5666 -2.5757  1.6716
   45SOL     OW  133   0.449   2.842   1.641  1.0317 -0.6145 -0.2597
   45SOL    HW1  134   0.371   2.797   1.592 -0.7605  0.4063 -1.1602
   45SOL    HW2  135   0.533   2.851   1.586  2.1604  1.7796  2.4981
   46SOL     OW  136   2.062   0.110   2.371  0.5599 -0.3394  0.2981
   46SOL    HW1  137   2.130   0.075   2.305 -2.0893  0.4240 -0.6116
   46SOL    HW2  138   2.015   0.031   2.407  1.1158 -0.4687 -0.8724
   47SOL     OW  139   1.807   1.867   0.596  0.2917 -0.8506 -0.2244
   47SOL    HW1  140   1.761   1.809   0.666 -1.3172  0.7574 -0.3625
   47SOL    HW2  141   1.741   1.937   0.556  0.6313  0.1398 -0.5303
   48SOL     OW  142   0.778   2.072   0.552 -0.3473 -0.2399 -0.1176
   48SOL    HW1  143   0.775   2.156   0.495 -0.7548 -1.7578 -0.4014
   48SOL    HW2  144   0.785   1.987   0.493  1.4774 -0.6143  0.3058
   49SOL     OW  145   2.424   0.409   2.596  0.2236  0.6017  0.2731
   49SOL    HW1  146   2.427   0.417   2.697 -0.9654  0.1771 -1.0140
   49SOL    HW2  147   2.394   0.308   2.572 -0.7066 -4.2389 -0.0676
   50SOL     OW  148   1.998   0.617   0.170  0.5252  0.0807 -0.2843
   50SOL    HW1  149   2.016   0.708   0.213  2.1010  0.1478 -0.2611
   50SOL    HW2  150   1.902   0.586   0.191  1.5291 -4.1756 -0.5077
   51SOL     OW  151   2.031   0.800   1.108  0.1661 -0.1965 -0.1656
   51SOL    HW1  152   2.052   0.863   1.028  0.0768  0.1137 -0.7489
   51SOL    HW2  153   1.971   0.725   1.082  0.2160 -0.0875  1.6568
   52SOL     OW  154   1.192   1.551   1.670  0.1967  0.2131  0.0005
   52SOL    HW1  155   1.150   1.583   1.757  0.9807 -0.2644  1.3078
   52SOL    HW2  156   1.137   1.479   1.618 -2.5847 -2.4495  0.3388
   53SOL     OW  157   0.821   1.766   2.239 -0.3825 -0.4679 -0.5061
   53SOL    HW1  158   0.801   1.708   2.159  3.1237  0.2995  3.1707
   53SOL    HW2  159   0.866   1.854   2.207  1.2401  0.4412  0.3109
   54SOL     OW  160   2.268   0.153   1.289  0.0359 -0.3264 -0.2930
   54SOL    HW1  161   2.176   0.182   1.319  2.2410 -0.0966 -2.4494
   54SOL    HW2  162   2.279   0.145   1.186  1.0512  0.3015 -1.7041
   55SOL     OW  163   2.407   2.064   0.861  0.1129  0.2841  0.1436
   55SOL    HW1  164   2.380   2.138   0.798  1.7287 -1.0695  1.5187
   55SOL    HW2  165   2.373   1.974   0.829  0.1386  0.3293 -1.7945
   56SOL     OW  166   1.159   0.056   2.014  0.3606 -0.0578  0.3431
   56SOL    HW1  167   1.217   3.104   2.028 -0.0884  3.2812 -0.2423
   56SOL    HW2  168   1.196   0.111   1.940  0.0443  0.0720  0.8501
   57SOL     OW  169   1.301   1.446   0.280  0.7725  0.1374  0.4178
   57SOL    HW1  170   1.341   1.429   0.371 -2.2737  0.3849  1.5748
   57SOL    HW2  171   1.257   1.359   0.240  2.1552  0.3520  1.2646
   58SOL     OW  172   0.285   0.836   2.142 -0.3574  0.0030 -0.3353
   58SOL    HW1  173   0.218   0.878   2.084 -2.1691 -1.7622  0.0972
   58SOL    HW2  174   0.366   0.893   2.170  0.3111  1.3517  1.3194
   59SOL     OW  175   1.273   0.030   2.833  0.2389 -0.1143 -0.7761
   59SOL    HW1  176   1.217   0.117   2.820 -0.1549  0.1021  0.7335
   59SOL    HW2  177   1.289   0.011   2.933  0.3231  0.1800  0.0519
   60SOL     OW  178   2.974   2.178   0.143 -0.2688  0.0618  0.3988
   60SOL    HW1  179   2.877   2.191   0.160 -0.8087  1.9083 -0.1519
   60SOL    HW2  180   3.025   2.256   0.187 -1.0671 -0.6090 -1.0050
   61SOL     OW  181   1.053   2.312   0.432 -0.5841  1.0190  0.0803
   61SOL    HW1  182   1.025   2.280   0.522  0.7993 -1.6988 -2.3957
   61SOL    HW2  183   1.037   2.411   0.417 -0.6953 -0.5503  0.6281
   62SOL     OW  184   2.087   2.143   2.718 -0.2359 -0.1695  0.4034
   62SOL    HW1  185   2.071   2.042   2.722 -1.0208 -0.4935 -2.4835
   62SOL    HW2  186   2.017   2.184   2.657 -0.3302  1.4082  1.6003
   63SOL     OW  187   2.214   2.015   0.400 -1.2752 -0.0162  0.2273
   63SOL    HW1  188   2.162   2.040   0.316  1.5400 -0.4471 -0.9175
   63SOL    HW2  189   2.300   1.973   0.363 -0.0707  1.7866 -1.0116
   64SOL     OW  190   1.833   1.228   2.707 -0.3683  0.7318 -0.1425
   64SOL    HW1  191   1.761   1.207   2.774 -0.5964  2.2976  0.4923
   64SOL    HW2  192   1.886   1.148   2.675 -0.8041  2.7280  1.5214
   65SOL     OW  193   1.340   2.055   3.059 -0.2737 -0.4673  0.1806
   65SOL    HW1  194   1.369   1.960   3.071 -1.8410  5.2923 -2.3019
   65SOL    HW2  195   1.262   2.053   2.993 -0.1776  0.3088  0.7639
   66SOL     OW  196   0.320   1.498   2.399  0.5851 -0.2584  0.2226
   66SOL    HW1  197   0.236   1.551   2.425  1.9984 -1.2999 -0.3456
   66SOL    HW2  198   0.306   1.444   2.315 -0.1074  1.7115  0.5340
   67SOL     OW  199   2.851   2.729   2.856 -0.1296 -0.0733  0.0477
   67SOL    HW1  200   2.937   2.778   2.832  0.6590 -0.3689 -0.3209
   67SOL    HW2  201   2.767   2.782   2.837 -1.8957 -0.1173  0.4787
   68SOL     OW  202   0.804   2.582   1.500 -0.4894 -0.0719 -0.4678
   68SOL    HW1  203   0.705   2.579   1.477  2.3823  3.1451 -0.6234
   68SOL    HW2  204   0.863   2.514   1.452  0.8349 -1.4837 -0.6177
   69SOL     OW  205   0.780   2.744   0.692 -0.5433 -0.0691  0.4864
   69SOL    HW1  206   0.717   2.677   0.731  0.7450 -1.7348 -0.0270
   69SOL    HW2  207   0.869   2.748   0.744 -1.2997  0.1024  0.3748
   70SOL     OW  208   2.576   0.680   2.689 -0.3636 -0.0941 -0.1372
   70SOL    HW1  209   2.618   0.685   2.595  0.8921  0.9713  2.4048
   70SOL    HW2  210   2.631   0.612   2.742  2.3306 -0.2491  2.5555
   71SOL     OW  211   0.641   1.212   2.577  0.3948 -0.5467  0.0682
   71SOL    HW1  212   0.624   1.240   2.483  0.9777 -0.2470 -0.7169
   71SOL    HW2  213   0.573   1.249   2.644  0.8052 -1.1745 -0.7624
   72SOL     OW  214   2.984   1.851   0.253  0.3057 -0.3124 -0.3110
   72SOL    HW1  215   3.052   1.888   0.185  2.7374  0.0330  2.0281
   72SOL    HW2  216   2.992   1.908   0.338  0.0877  0.1713  3.9184
   73SOL     OW  217   0.906   1.489   0.751  0.3243  0.3559 -0.1248
   73SOL    HW1  218   0.911   1.589   0.733  0.4289  0.3511  0.0918
   73SOL    HW2  219   0.823   1.455   0.706  0.3899 -2.3756  1.1508
   74SOL     OW  220   2.467   2.651   0.160 -0.2136 -0.0364 -0.1282
   74SOL    HW1  221   2.517   2.679   0.245  2.3229 -1.2771 -1.2733
   74SOL    HW2  222   2.365   2.649   0.176 -0.6413  4.6123  0.6127
   75SOL     OW  223   2.095   1.682   1.505 -0.4596 -0.1316  0.0688
   75SOL    HW1  224   2.001   1.643   1.526 -0.1998  2.0703 -1.6510
   75SOL    HW2  225   2.147   1.614   1.447 -2.5950 -3.0064 -0.2762
   76SOL     OW  226   1.927   2.500   1.770  0.3301  0.3446 -0.9419
   76SOL    HW1  227   1.867   2.454   1.698  1.1687  1.5773  1.2824
   76SOL    HW2  228   1.864   2.515   1.850  1.6128 -0.5312  1.5558
   77SOL     OW  229   2.371   0.248   2.065 -0.3153  0.0700  0.4194
   77SOL    HW1  230   2.299   0.277   2.136  0.7308 -1.7213  1.3484
   77SOL    HW2  231   2.466   0.251   2.101  0.2207  1.7080  1.6574
   78SOL     OW  232   1.550   0.935   3.022 -0.1777  0.4832 -0.5037
   78SOL    HW1  233   1.635   0.907   3.077  0.9612 -0.2120 -2.4605
   78SOL    HW2  234   1.481   0.861   3.012  0.5177  1.3053 -3.2079
   79SOL     OW  235   2.764   1.667   1.916 -0.3375  0.1123 -0.0284
   79SOL    HW1  236   2.856   1.683   1.874  0.0669 -0.4153  1.8701
   79SOL    HW2  237   2.762   1.712   2.009  0.4715  2.4409  2.1567
   80SOL     OW  238   1.990   1.375   1.531 -0.4356  0.2128 -0.3353
   80SOL    HW1  239   1.993   1.275   1.548  3.6759 -0.9935  0.3804
   80SOL    HW2  240   2.001   1.400   1.429 -1.8479  2.4425 -2.4014
   81SOL     OW  241   1.603   0.578   1.747 -0.7162 -0.3344 -0.2379
   81SOL    HW1  242   1.599   0.499   1.807 -0.0614  0.3751 -2.5609
   81SOL    HW2  243   1.565   0.661   1.790  0.7651 -0.3999  1.3967
   82SOL     OW  244   1.317   2.513   1.356  0.1086 -0.4564 -0.4474
   82SOL    HW1  245   1.325   2.538   1.257 -1.4939 -3.0428 -1.4658
   82SOL    HW2  246   1.280   2.595   1.408  0.1629  1.2322  0.2379
   83SOL     OW  247   0.121   0.354   0.418 -0.2483 -0.2911  0.5134
   83SOL    HW1  248   0.040   0.348   0.480 -0.1847  1.4330  0.3069
   83SOL    HW2  249   0.120   0.447   0.375  1.5368  1.6497  1.8549
   84SOL     OW  250   0.466   1.178   2.999  0.4302 -0.4771  0.1261
   84SOL    HW1  251   0.380   1.162   2.942  2.0899 -1.0018 -0.4225
   84SOL    HW2  252   0.430   1.223   3.085 -0.1023  0.1473 -1.0300
   85SOL     OW  253   2.828   1.869   1.712  0.4777  0.1968  0.0955
   85SOL    HW1  254   2.831   1.875   1.611 -3.3441 -0.9850  0.0697
   85SOL    HW2  255   2.747   1.915   1.748  2.0967 -0.2055  1.4265
   86SOL     OW  256   2.810   2.259   1.730 -0.2204 -0.2199  0.1096
   86SOL    HW1  257   2.736   2.193   1.746 -0.3930  4.0203 -1.2209
   86SOL    HW2  258   2.880   2.248   1.804 -1.2449  0.4813  3.3957
   87SOL     OW  259   0.861   0.344   2.741  0.4257  0.2564 -0.2984
   87SOL    HW1  260   0.790   0.315   2.668  0.1461 -1.5202 -1.5868
   87SOL    HW2  261   0.821   0.316   2.831  0.4882 -3.3826 -2.7208
   88SOL     OW  262   0.209   2.275   1.193  0.3473  0.5710  0.4013
   88SOL    HW1  263   0.305   2.262   1.214 -2.9921  1.0340  0.7560
   88SOL    HW2  264   0.153   2.193   1.202 -1.0756 -0.0315  0.6256
   89SOL     OW  265   0.880   0.856   1.683 -0.1320 -0.7170  0.3729
   89SOL    HW1  266   0.959   0.817   1.640 -1.4975 -1.5663 -0.7759
   89SOL    HW2  267   0.866   0.827   1.780  0.5397  1.1924 -1.2794
   90SOL     OW  268   2.783   1.567   1.529  0.2511  0.0923  0.0322
   90SOL    HW1  269   2.732   1.650   1.547  0.5132 -1.5320  0.6687
   90SOL    HW2  270   2.853   1.542   1.600  1.4086 -1.5563  2.3305
   91SOL     OW  271   1.325   1.207   0.728  0.3289 -0.1836 -0.1265
   91SOL    HW1  272   1.364   1.269   0.797 -1.4592 -0.7778 -1.0203
   91SOL    HW2  273   1.224   1.193   0.746  1.1075 -1.4154 -1.7749
   92SOL     OW  274   2.370   0.727   0.828  0.1624  0.1182  0.3322
   92SOL    HW1  275   2.332   0.716   0.919  0.3972 -1.1812 -0.2718
   92SOL    HW2  276   2.349   0.649   0.770  1.9473  0.5074  2.8778
   93SOL     OW  277   1.988   0.928   3.007  0.0567 -0.1169  0.1627
   93SOL    HW1  278   1.962   0.993   3.077  1.0547 -5.5685 -3.7991
   93SOL    HW2  279   1.915   0.912   2.941 -1.4109 -0.0856  1.1102
   94SOL     OW  280   2.592   1.856   2.307  0.1864 -0.5693 -0.4551
   94SOL    HW1  281   2.520   1.793   2.273  0.8220 -2.1874 -0.0998
   94SOL    HW2  282   2.549   1.933   2.353 -0.2228 -0.1942  0.2157
   95SOL     OW  283   2.351   0.396   0.940 -0.1977 -0.1719 -0.4682
   95SOL    HW1  284   2.362   0.465   1.017 -0.0028 -0.4554  3.6053
   95SOL    HW2  285   2.298   0.442   0.863  1.4318 -0.2822  0.4795
   96SOL     OW  286   2.532   3.118   2.209  0.4638  0.1241 -0.4370
   96SOL    HW1  287   2.573   3.079   2.128  0.9497  1.7267  0.9331
   96SOL    HW2  288   2.549   0.092   2.213 -1.9357  2.6629 -0.5581
   97SOL     OW  289   2.347   0.123   0.995  0.3033 -0.6022 -0.1645
   97SOL    HW1  290   2.349   0.213   0.945 -3.0296  1.5416 -2.3166
   97SOL    HW2  291   2.366   0.050   0.926 -0.4980 -0.9070 -0.7820
   98SOL     OW  292   1.497   2.456   1.640 -0.0253  0.5318  0.3581
   98SOL    HW1  293   1.422   2.396   1.610 -0.8400 -1.9956 -2.0522
   98SOL    HW2  294   1.589   2.423   1.617 -0.5779 -1.3406  1.6259
   99SOL     OW  295   2.410   2.133   1.545 -0.6900 -0.2014 -0.0437
   99SOL    HW1  296   2.386   2.227   1.573 -1.4614  0.3264  0.1111
   99SOL    HW2  297   2.420   2.073   1.628  0.7163  0.7839 -1.7213
  100SOL     OW  298   0.557   0.605   2.852 -0.2383 -0.1219 -0.4754
  100SOL    HW1  299   0.637   0.649   2.810  1.8921  4.5778 -1.1222
  100SOL    HW2  300   0.568   0.624   2.952  0.9618  1.5714 -1.7239
  101SOL     OW  301   2.082   0.474   2.897  0.2917 -0.2635  1.0233
  101SOL    HW1  302   2.100   0.382   2.940 -0.3926 -1.5077  1.2749
  101SOL    HW2  303   2.088   0.549   2.963  1.1310  0.2682  0.1835
  102SOL     OW  304   0.046   0.780   1.624  0.0626 -0.1865 -0.6771
  102SOL    HW1  305   0.081   0.872   1.597  0.8423  3.1567 -1.8529
  102SOL    HW2  306   0.094   0.705   1.573  1.5712  1.7212  1.2315
  103SOL     OW  307   2.873   0.948   2.673  0.4298  0.0535  0.1758
  103SOL    HW1  308   2.890   1.016   2.596 -0.1696  0.0341 -0.5528
  103SOL    HW2  309   2.877   0.852   2.639 -1.1160 -2.3178 -0.2610
  104SOL     OW  310   0.588   0.367   2.367  0.8369 -0.8067 -0.5728
  104SOL    HW1  311   0.675   0.373   2.318 -0.3782 -2.4739  3.4098
  104SOL    HW2  312   0.506   0.388   2.308 -2.1110  2.5156 -0.0641
  105SOL     OW  313   2.538   1.752   1.799  0.0279  0.2873 -0.0250
  105SOL    HW1  314   2.484   1.667   1.776 -2.3515  0.2332  0.6797
  105SOL    HW2  315   2.632   1.728   1.828  0.6618 -1.1328 -3.1493
  106SOL     OW  316   1.858   0.472   0.605 -0.2530  0.0828 -0.3691
  106SOL    HW1  317   1.882   0.373   0.608  1.3524 -1.7304 -0.9178
  106SOL    HW2  318   1.758   0.485   0.593 -0.8477 -0.2351  0.9862
  107SOL     OW  319   0.347   1.481   0.808  0.5456  0.1403 -0.7346
  107SOL    HW1  320   0.359   1.472   0.910 -0.6959  1.1174 -0.6746
  107SOL    HW2  321   0.338   1.578   0.780 -2.7625  1.2850 -0.7475
  108SOL     OW  322   2.812   2.506   1.588 -0.3272  0.7445 -0.5173
  108SOL    HW1  323   2.811   2.423   1.648  0.6935 -0.4229  2.4279
  108SOL    HW2  324   2.767   2.490   1.499  0.9746  1.2616  1.6445
  109SOL     OW  325   2.076   0.166   0.755  0.2765 -0.2373  0.3385
  109SOL    HW1  326   2.176   0.160   0.730 -1.0143 -1.6532 -1.6356
  109SOL    HW2  327   2.064   0.204   0.846 -2.6802 -1.1086 -3.6243
  110SOL     OW  328   0.333   2.142   2.652 -0.3408 -0.2607  0.0753
  110SOL    HW1  329   0.366   2.165   2.557 -0.0633  1.4553 -1.0461
  110SOL    HW2  330   0.379   2.054   2.682 -2.0810  1.7407 -1.2822
  111SOL     OW  331   1.469   2.705   1.760  0.0808  0.3019  0.4722
  111SOL    HW1  332   1.492   2.607   1.742  1.5647  1.2059 -1.9487
  111SOL    HW2  333   1.475   2.760   1.671  0.1115  0.4353 -1.4980
  112SOL     OW  334   1.937   2.660   3.082 -0.1531  0.7313 -0.4205
  112SOL    HW1  335   1.850   2.618   3.117 -1.0253  1.1989  0.1198
  112SOL    HW2  336   1.923   2.758   3.076 -0.7597 -0.1536 -2.4156
  113SOL     OW  337   1.752   2.398   1.581  0.5459  0.4038  0.0976
  113SOL    HW1  338   1.801   2.308   1.602  1.4149 -1.1879  1.7057
  113SOL    HW2  339   1.765   2.431   1.483 -1.7344 -0.6602 -1.0657
  114SOL     OW  340   2.769   0.922   0.908  0.6225 -0.5135  0.0261
  114SOL    HW1  341   2.693   0.875   0.951 -0.1622  1.7336  1.3879
  114SOL    HW2  342   2.790   0.882   0.822 -2.2734  2.1909  1.9715
  115SOL     OW  343   0.671   1.010   0.032 -0.4342 -0.5078 -0.2760
  115SOL    HW1  344   0.581   1.046   0.004  0.6137  2.3262  0.6892
  115SOL    HW2  345   0.669   0.920   0.074 -1.1662  2.5420 -1.9852
  116SOL     OW  346   2.795   1.751   2.169  0.5238  0.2231 -0.1835
  116SOL    HW1  347   2.808   1.659   2.214 -1.7190  0.3725  2.0081
  116SOL    HW2  348   2.720   1.805   2.216 -0.1051  2.5131  1.8941
  117SOL     OW  349   2.969   2.509   0.542 -0.6153 -0.5461 -0.0856
  117SOL    HW1  350   2.998   2.468   0.633 -2.1937 -0.3909  0.8276
  117SOL    HW2  351   2.868   2.483   0.524 -1.3139  2.7106 -1.1865
  118SOL     OW  352   0.926   1.998   2.170 -0.1207  0.1435 -0.3001
  118SOL    HW1  353   0.910   2.070   2.237 -2.4630 -1.1955 -1.5159
  118SOL    HW2  354   0.932   2.040   2.077  0.5759 -0.9885 -1.3390
  119SOL     OW  355   0.191   2.032   3.083  0.5328 -0.1876  0.5723
  119SOL    HW1  356   0.101   2.036   0.010 -4.9722  1.7108  0.4587
  119SOL    HW2  357   0.230   1.934   3.078  0.0481 -0.0411 -0.6306
  120SOL     OW  358   1.159   0.961   3.004  0.4772 -0.2169 -0.0256
  120SOL    HW1  359   1.110   1.046   3.028  0.9250 -1.1685 -0.1933
  120SOL    HW2  360   1.241   0.982   2.944  0.9037 -1.4934  1.5450
  121SOL     OW  361   1.452   2.866   0.899  0.1522 -0.4915 -0.3765
  121SOL    HW1  362   1.355   2.892   0.876  0.5674  0.2292  2.6321
  121SOL    HW2  363   1.484   2.917   0.982 -0.0393 -2.1703 -1.8873
  122SOL     OW  364   2.500   2.483   1.662  0.3843 -0.3298 -0.2220
  122SOL    HW1  365   2.496   2.570   1.715  1.7132  0.5190  2.0672
  122SOL    HW2  366   2.596   2.471   1.639 -2.2916  1.1336 -0.0871
  123SOL     OW  367   0.459   2.756   0.716 -0.2097  0.1716  0.1828
  123SOL    HW1  368   0.496   2.838   0.664 -0.9196  1.0257  1.9281
  123SOL    HW2  369   0.518   2.675   0.709  0.3250 -1.1313  0.2804
  124SOL     OW  370   2.418   1.063   2.793  0.4710 -0.2549  0.5976
  124SOL    HW1  371   2.480   1.095   2.720 -3.2334 -0.6022  1.2042
  124SOL    HW2  372   2.439   0.965   2.819  0.9662  0.3003  1.5438
  125SOL     OW  373   0.580   0.879   0.389  0.6365  0.6654  0.3790
  125SOL    HW1  374   0.519   0.847   0.464  3.1604 -1.4350  0.2091
  125SOL    HW2  375   0.645   0.946   0.425 -1.1744 -2.2974  0.4799
  126SOL     OW  376   0.107   1.254   0.495 -0.4916 -0.2748 -0.4488
  126SOL    HW1  377   0.064   1.336   0.450 -2.5968 -0.1490  0.5044
  126SOL    HW2  378   0.185   1.279   0.549  0.3313 -0.6322 -1.1753
  127SOL     OW  379   0.439   1.826   2.120 -0.5491  0.2158  0.1568
  127SOL    HW1  380   0.508   1.848   2.191 -0.3458  0.4547  1.4233
  127SOL    HW2  381   0.346   1.819   2.159  5.6687 -0.6787 -0.3132
  128SOL     OW  382   0.915   1.179   0.135  0.6677 -0.3517 -0.6459
  128SOL    HW1  383   0.954   1.194   0.042 -0.5372  0.9308  1.0255
  128SOL    HW2  384   0.841   1.107   0.140 -2.0093  0.8540 -0.0267
  129SOL     OW  385   2.655   1.350   0.882  0.6561  0.4343  0.0635
  129SOL    HW1  386   2.567   1.311   0.918 -1.0370 -0.5340  1.9629
  129SOL    HW2  387   2.735   1.290   0.897  0.8939  3.2887  0.6885
  130SOL     OW  388   2.322   1.046   1.537  0.0062  0.8443  0.1621
  130SOL    HW1  389   2.370   1.110   1.472 -3.0429  0.5954 -0.5491
  130SOL    HW2  390   2.236   1.090   1.563  0.2567 -3.5359 -3.0677
  131SOL     OW  391   2.827   3.120   2.706  0.0268 -0.1891 -0.6674
  131SOL    HW1  392   2.739   3.061   2.705 -2.9802 -2.9310 -0.1296
  131SOL    HW2  393   2.910   3.068   2.729 -1.1403 -0.9449 -1.6103
  132SOL     OW  394   0.087   1.392   1.103 -0.0997  0.3346 -0.4847
  132SOL    HW1  395   0.178   1.424   1.072  0.6551  1.9261  0.8895
  132SOL    HW2  396   0.020   1.467   1.081  1.5536 -1.0860  0.2521
  133SOL     OW  397   0.975   0.563   1.351 -0.5716  0.2153  0.2104
  133SOL    HW1  398   1.032   0.503   1.410  1.0571 -0.6875  0.0904
  133SOL    HW2  399   0.876   0.537   1.361  3.5255  0.3331  2.8015
  134SOL     OW  400   0.048   1.591   0.154 -0.1752 -0.1674 -0.1513
  134SOL    HW1  401   0.098   1.540   0.080  0.9626 -0.1632  2.2037
  134SOL    HW2  402   3.107   1.658   0.121 -0.1546  1.4684  2.4738
  135SOL     OW  403   1.897   0.828   1.570  0.4983 -0.2328 -0.2184
  135SOL    HW1  404   1.847   0.745   1.562 -1.0198  2.0777 -5.6634
  135SOL    HW2  405   1.933   0.845   1.476  1.0371 -1.6214  0.8230
  136SOL     OW  406   0.213   1.173   0.263 -0.4883 -0.1974  0.5188
  136SOL    HW1  407   0.155   1.200   0.182 -2.6921  1.7145  1.3733
  136SOL    HW2  408   0.167   1.189   0.350 -0.2425 -3.8840  3.5699
  137SOL     OW  409   2.864   1.182   0.919 -0.3941 -0.3535 -0.1584
  137SOL    HW1  410   2.807   1.097   0.916  1.0899 -1.1257 -2.8970
  137SOL    HW2  411   2.963   1.162   0.897 -0.7823  1.2330 -2.2543
  138SOL     OW  412   1.561   0.809   1.126  0.6940 -0.0091 -0.0921
  138SOL    HW1  413   1.546   0.752   1.206 -1.0854  0.4708 -2.1647
  138SOL    HW2  414   1.643   0.867   1.138  0.7460 -0.2109 -1.6049
  139SOL     OW  415   1.855   2.935   3.060  0.0656  0.0355  0.6064
  139SOL    HW1  416   1.808   2.941   0.022 -0.9636  3.2973 -2.3551
  139SOL    HW2  417   1.785   2.967   2.993  0.7994 -0.3079 -0.1351
  140SOL     OW  418   1.412   1.670   1.536 -0.0724  0.0278  0.2117
  140SOL    HW1  419   1.441   1.766   1.565 -1.5588 -0.6310 -3.3754
  140SOL    HW2  420   1.336   1.631   1.598 -1.6969 -1.2699  1.0613
  141SOL     OW  421   1.620   2.002   0.444  0.2626  0.6357  0.0411
  141SOL    HW1  422   1.598   1.998   0.341 -0.2582 -1.4278 -3.2147
  141SOL    HW2  423   1.543   1.954   0.494 -1.8588 -2.3044 -0.8237
  142SOL     OW  424   0.971   0.744   3.042  0.7190  0.1213  0.2184
  142SOL    HW1  425   0.936   0.760   0.010 -0.4746 -0.4062  0.6104
  142SOL    HW2  426   1.033   0.819   3.016  1.9437  0.6029 -1.1068
  143SOL     OW  427   0.370   2.114   0.167  0.4791 -0.6913 -0.1046
  143SOL    HW1  428   0.314   2.094   0.084 -3.7723 -1.0610  2.3815
  143SOL    HW2  429   0.318   2.188   0.215 -0.3538 -2.0106 -0.8544
  144SOL     OW  430   1.522   2.987   1.122 -0.1744  0.0901  0.1728
  144SOL    HW1  431   1.455   3.051   1.158  0.4529 -1.0357  0.7632
  144SOL    HW2  432   1.558   2.925   1.190 -2.3262  2.9655 -2.3413
  145SOL     OW  433   2.157   1.148   0.205  0.3428 -0.3085  0.6287
  145SOL    HW1  434   2.243   1.105   0.167  0.0563  1.2756 -0.3936
  145SOL    HW2  435   2.078   1.160   0.138  1.1495 -0.3002 -0.2514
  146SOL     OW  436   2.955   2.012   0.478 -0.7720 -0.1275 -0.0529
  146SOL    HW1  437   2.919   1.955   0.551  0.2161  3.5539  1.7603
  146SOL    HW2  438   2.891   2.088   0.450 -0.3104  0.9744  0.2435
  147SOL     OW  439   2.463   2.973   1.691 -0.4187  0.1267  0.0752
  147SOL    HW1  440   2.451   2.965   1.593 -0.0886 -0.8098  3.8234
  147SOL    HW2  441   2.561   2.967   1.720 -0.6068  0.5530  0.7950
  148SOL     OW  442   1.602   3.098   1.908 -0.3039 -0.8631  0.1306
  148SOL    HW1  443   1.627   3.021   1.846 -3.1568 -1.8649  1.4048
  148SOL    HW2  444   1.576   3.061   2.000 -0.5433  1.8335 -1.0719
  149SOL     OW  445   1.832   0.798   2.221 -0.4624 -0.6390 -0.9787
  149SOL    HW1  446   1.864   0.772   2.315  1.5876  0.5764 -3.2805
  149SOL    HW2  447   1.892   0.772   2.143 -1.4209 -0.5382 -3.0900
  150SOL     OW  448   0.347   0.017   0.160  0.2454  0.0046 -0.0932
  150SOL    HW1  449   0.419   0.017   0.237  0.2764 -0.5787  3.0678
  150SOL    HW2  450   0.284   0.098   0.173  0.8791 -0.2576 -0.6385
  151SOL     OW  451   0.099   2.089   0.495 -0.0304 -0.3181  0.2093
  151SOL    HW1  452   0.004   2.061   0.487  1.3454  0.0808  0.8369
  151SOL    HW2  453   0.130   2.165   0.429 -0.1874  2.5591 -1.9896
  152SOL     OW  454   3.054   3.119   0.615 -0.5267  0.0383  0.1148
  152SOL    HW1  455   0.006   3.125   0.676 -3.7739  0.5341 -0.1204
  152SOL    HW2  456   3.040   3.020   0.591 -0.1038  0.6175 -1.5583
  153SOL     OW  457   2.481   3.051   0.818 -0.7058  0.1478 -0.7682
  153SOL    HW1  458   2.391   3.043   0.784  3.6877 -0.4020  3.0947
  153SOL    HW2  459   2.547   3.091   0.749  0.8451  3.1551 -0.5731
  154SOL     OW  460   1.018   0.485   1.742  0.1413  0.2383 -0.7839
  154SOL    HW1  461   1.105   0.450   1.788 -1.4470  0.4801  1.0879
  154SOL    HW2  462   0.996   0.579   1.768  0.0809 -1.8185 -0.5544
  155SOL     OW  463   0.078   1.108   1.132 -0.3335  0.7278 -0.4387
  155SOL    HW1  464   0.063   1.119   1.034  2.0639  0.8609  3.4513
  155SOL    HW2  465   0.067   1.200   1.175  3.0994 -2.0092  1.9344
  156SOL     OW  466   3.053   1.963   3.118  0.5096 -0.4233 -0.1419
  156SOL    HW1  467   2.999   2.028   0.050 -1.3153 -0.4358  0.9772
  156SOL    HW2  468   3.035   1.990   3.019 -0.5031 -0.7129 -1.7201
  157SOL     OW  469   0.930   0.760   0.207  0.0048 -0.5404  0.2070
  157SOL    HW1  470   0.953   0.702   0.288  0.4466 -1.8913  2.4308
  157SOL    HW2  471   0.994   0.834   0.193 -0.6418  1.2962  1.6293
  158SOL     OW  472   2.496   3.052   2.711 -0.8785  0.6042  0.0940
  158SOL    HW1  473   2.474   3.087   2.801  0.6011  1.8914  0.9329
  158SOL    HW2  474   2.435   3.105   2.652  0.5893 -2.0895  3.7503
  159SOL     OW  475   0.983   0.301   0.350 -0.0890  0.2924  0.3218
  159SOL    HW1  476   1.074   0.249   0.365  0.5401  0.3936  0.7010
  159SOL    HW2  477   0.997   0.400   0.361 -0.6098 -1.8768  1.0920
  160SOL     OW  478   1.092   2.052   2.912 -0.5626 -0.0287 -0.0097
  160SOL    HW1  479   1.062   1.963   2.871 -1.2790  0.5257 -3.5972
  160SOL    HW2  480   1.048   2.073   3.003  2.9831 -2.7025 -2.5611
  161SOL     OW  481   2.982   1.585   2.537  0.6650  0.1067  0.3211
  161SOL    HW1  482   2.921   1.669   2.525 -4.5331 -2.1549  0.5148
  161SOL    HW2  483   2.969   1.536   2.628 -0.7972 -1.1706  1.6029
  162SOL     OW  484   0.537   2.595   1.452 -0.8779  0.1732 -0.2988
  162SOL    HW1  485   0.458   2.588   1.516 -0.8289  1.0390  1.7071
  162SOL    HW2  486   0.507   2.626   1.361  1.7890  0.0865  0.3906
  163SOL     OW  487   2.438   0.568   2.305 -0.1615  0.3821  0.0826
  163SOL    HW1  488   2.507   0.641   2.326  0.8020  1.7720  2.0527
  163SOL    HW2  489   2.370   0.553   2.383 -2.3543 -0.5820 -0.3000
  164SOL     OW  490   2.658   1.397   0.610 -0.6248 -0.0309 -0.1578
  164SOL    HW1  491   2.570   1.451   0.614 -2.3248  3.7027 -2.4124
  164SOL    HW2  492   2.688   1.365   0.706 -0.9398  0.3743  0.3642
  165SOL     OW  493   0.079   0.381   1.377 -0.2116  0.5851 -0.5088
  165SOL    HW1  494   0.129   0.327   1.307 -0.1175 -0.2773  0.6610
  165SOL    HW2  495   0.121   0.471   1.401 -1.4236 -0.4596  2.0741
  166SOL     OW  496   1.884   0.989   0.875  0.0129 -0.2232  0.2749
  166SOL    HW1  497   1.808   1.054   0.883 -1.0681 -2.9927  0.2703
  166SOL    HW2  498   1.898   0.979   0.774 -2.8276  0.7662 -0.3459
  167SOL     OW  499   0.361   0.591   0.185 -0.2648 -0.2503  0.5152
  167SOL    HW1  500   0.309   0.549   0.104  0.3668  0.3300 -3.4399
  167SOL    HW2  501   0.422   0.669   0.156 -2.4926  1.3879  0.1472
  168SOL     OW  502   2.039   3.002   2.057  0.5420 -0.2655  0.1061
  168SOL    HW1  503   1.958   3.063   2.036  1.4979  0.9468  0.1183
  168SOL    HW2  504   2.047   2.943   1.977 -0.4904  1.5226  0.3646
  169SOL     OW  505   0.868   1.119   1.002  0.1495  0.2696  0.1518
  169SOL    HW1  506   0.909   1.027   1.011  2.6018  2.0580 -0.1856
  169SOL    HW2  507   0.793   1.124   1.071  1.6270 -0.8131 -0.6344
  170SOL     OW  508   2.915   0.411   1.382 -0.3299  0.8699 -0.0614
  170SOL    HW1  509   3.013   0.397   1.382 -1.4484  0.1621 -0.4245
  170SOL    HW2  510   2.870   0.324   1.345  0.1425  0.6549 -0.3061
  171SOL     OW  511   1.319   2.816   2.634 -0.1749 -0.3167 -0.3229
  171SOL    HW1  512   1.324   2.740   2.565 -1.3754 -1.7854  1.2754
  171SOL    HW2  513   1.221   2.849   2.642  0.2178 -0.6926  0.5115
  172SOL     OW  514   0.182   2.707   1.237  0.0945  0.8781  0.1055
  172SOL    HW1  515   0.276   2.702   1.201 -0.9752  0.0303  2.1996
  172SOL    HW2  516   0.146   2.801   1.253 -1.2069 -0.4627 -3.4322
  173SOL     OW  517   1.430   0.667   2.930  0.1839  0.6508 -0.5796
  173SOL    HW1  518   1.381   0.590   2.884  2.2393 -0.3402 -1.3956
  173SOL    HW2  519   1.524   0.668   2.889 -1.2106  1.0737 -0.4790
  174SOL     OW  520   1.868   3.075   2.708  0.5040 -0.1874 -0.1996
  174SOL    HW1  521   1.778   3.076   2.759 -2.3841  2.2428  2.6719
  174SOL    HW2  522   1.925   0.029   2.730  2.4228  0.6355 -3.2512
  175SOL     OW  523   1.883   2.560   0.264  0.6015  0.0051  0.1404
  175SOL    HW1  524   1.795   2.519   0.231 -2.2015  0.5817 -0.8046
  175SOL    HW2  525   1.942   2.497   0.306 -2.0730 -1.2074 -2.5287
  176SOL     OW  526   2.089   0.181   3.039 -0.4058 -0.2536  0.0210
  176SOL    HW1  527   2.137   0.202   0.001 -0.9464  0.4536 -1.2921
  176SOL    HW2  528   2.094   0.081   3.020 -1.8779 -2.0213 -1.0128
  177SOL     OW  529   0.933   1.770   0.754 -0.4379 -0.1730 -0.5648
  177SOL    HW1  530   1.003   1.795   0.681  1.2104  0.3942  0.8917
  177SOL    HW2  531   0.877   1.851   0.777  0.9340  0.0604  1.7499
  178SOL     OW  532   2.808   2.282   2.975  0.0098  0.1705  0.1393
  178SOL    HW1  533   2.727   2.284   2.919 -0.6284 -0.2573 -1.3439
  178SOL    HW2  534   2.828   2.374   3.008  1.4124 -1.3197 -2.6388
  179SOL     OW  535   0.522   2.960   2.805  0.6775 -0.4708  0.1288
  179SOL    HW1  536   0.561   2.895   2.868  0.8447 -0.4812  0.4507
  179SOL    HW2  537   0.424   2.932   2.786  1.3829 -0.6355 -1.8518
  180SOL     OW  538   1.482   1.402   0.943  0.6969  0.1686 -0.1696
  180SOL    HW1  539   1.529   1.464   1.007 -0.3774  1.4109 -2.0250
  180SOL    HW2  540   1.390   1.374   0.982  0.2482 -0.1280  1.7515
  181SOL     OW  541   2.372   0.984   2.423  0.2608  0.4306 -0.4419
  181SOL    HW1  542   2.335   1.053   2.484 -0.3406  4.3092  0.9050
  181SOL    HW2  543   2.300   0.967   2.356 -1.4043 -1.0337 -0.7536
  182SOL     OW  544   0.113   2.760   2.109 -0.1939  0.4796  0.3297
  182SOL    HW1  545   0.086   2.846   2.147 -0.5170 -1.5804 -0.9203
  182SOL    HW2  546   0.215   2.757   2.103  0.5655 -0.7867  1.4499
  183SOL     OW  547   1.325   0.895   2.181 -0.0684  0.5289 -0.0709
  183SOL    HW1  548   1.427   0.895   2.187 -2.4030 -0.7893  1.7940
  183SOL    HW2  549   1.295   0.803   2.163  1.3979  2.0325 -2.0878
  184SOL     OW  550   0.445   0.860   1.713  0.0441  0.0702  0.0298
  184SOL    HW1  551   0.527   0.915   1.725 -0.9951  1.7549 -0.6780
  184SOL    HW2  552   0.361   0.919   1.725 -2.4096  2.2735  2.0602
  185SOL     OW  553   2.011   0.863   0.261 -0.2063 -0.0167  0.1000
  185SOL    HW1  554   1.956   0.928   0.207 -0.2736  0.5646 -3.1014
  185SOL    HW2  555   2.070   0.904   0.341  3.2676  0.9738  1.7618
  186SOL     OW  556   0.419   2.467   0.085 -0.8169 -0.1635  0.0545
  186SOL    HW1  557   0.362   2.408   0.034  1.7071  4.3282  1.2743
  186SOL    HW2  558   0.406   2.460   0.184 -1.6347  1.1229  0.3073
  187SOL     OW  559   2.552   1.223   0.165  0.3789  0.6630 -0.3149
  187SOL    HW1  560   2.477   1.155   0.139  0.7374 -0.4730 -0.9477
  187SOL    HW2  561   2.588   1.198   0.259 -0.9407  0.0012 -1.9559
  188SOL     OW  562   0.064   1.423   0.790  0.2120 -0.5358 -0.3938
  188SOL    HW1  563   0.154   1.456   0.758 -1.3755 -0.6169  1.0165
  188SOL    HW2  564   0.012   1.492   0.844  1.6026 -0.2637  1.8434
  189SOL     OW  565   2.866   0.267   0.253 -0.1727 -0.2699  0.1246
  189SOL    HW1  566   2.932   0.322   0.198 -0.7730  0.8689 -0.8891
  189SOL    HW2  567   2.867   0.171   0.220 -1.9898  0.6255 -1.9856
  190SOL     OW  568   1.401   1.514   2.214 -0.4528  0.3049  0.1225
  190SOL    HW1  569   1.312   1.487   2.251  0.1968 -0.3895  1.5411
  190SOL    HW2  570   1.443   1.434   2.164 -0.8839 -0.5799  0.3341
  191SOL     OW  571   2.675   0.295   1.675 -0.3860 -0.3236  0.0071
  191SOL    HW1  572   2.634   0.386   1.699 -1.4868  1.7801 -2.6002
  191SOL    HW2  573   2.626   0.214   1.708  0.6425 -1.1320  0.4546
  192SOL     OW  574   1.870   1.401   1.108  0.1815  0.3930  0.2263
  192SOL    HW1  575   1.942   1.407   1.172 -3.8245 -1.4602 -3.5584
  192SOL    HW2  576   1.895   1.468   1.031  3.9376  1.7083 -2.1364
  193SOL     OW  577   0.961   0.856   1.044 -0.0009  0.3395  0.2237
  193SOL    HW1  578   0.935   0.764   1.012  1.0567 -0.1451  3.0386
  193SOL    HW2  579   0.988   0.862   1.143 -1.1351  1.4288 -0.0181
  194SOL     OW  580   1.180   2.379   1.563  0.3005  1.1440 -0.2883
  194SOL    HW1  581   1.226   2.425   1.486 -1.4788 -0.3062  0.6679
  194SOL    HW2  582   1.132   2.452   1.617 -1.6059  0.0576  0.0906
  195SOL     OW  583   2.457   0.345   2.862  0.5078  0.0091  0.0664
  195SOL    HW1  584   2.407   0.353   2.954 -3.1281  0.2469  2.2056
  195SOL    HW2  585   2.513   0.262   2.862  0.1730  0.1543  3.3063
  196SOL     OW  586   1.087   2.609   1.685 -0.5020 -0.1634 -0.0478
  196SOL    HW1  587   1.130   2.600   1.777  1.5668  0.6379  1.5271
  196SOL    HW2  588   1.002   2.664   1.685 -0.0066  0.8873 -3.3118
  197SOL     OW  589   0.775   2.693   1.022 -0.1515  0.4895  0.4561
  197SOL    HW1  590   0.733   2.777   0.988  1.8447 -2.5237 -0.3256
  197SOL    HW2  591   0.874   2.700   1.001  2.8150 -0.3798 -1.1420
  198SOL     OW  592   0.895   0.875   0.650  0.7705 -0.1593  0.3936
  198SOL    HW1  593   0.851   0.864   0.743 -1.6278  3.7019 -1.4024
  198SOL    HW2  594   0.831   0.906   0.580  2.2035 -0.1032  1.1083
  199SOL     OW  595   0.033   3.088   1.863 -0.1113  0.3554  0.7387
  199SOL    HW1  596   3.067   3.121   1.880 -2.5981  2.1928 -0.3706
  199SOL    HW2  597   0.025   3.010   1.794 -2.4436 -3.3615 -2.1401
  200SOL     OW  598   2.158   1.890   2.273  0.0919 -0.3692 -0.0224
  200SOL    HW1  599   2.180   1.795   2.227  0.3520 -1.0074  0.0889
  200SOL    HW2  600   2.238   1.957   2.258 -0.9517 -0.0878 -1.8345
  201SOL     OW  601   3.010   2.115   1.516 -0.1186  0.4036 -0.0110
  201SOL    HW1  602   2.938   2.045   1.505  0.3517  2.4867  0.4160
  201SOL    HW2  603   2.972   2.187   1.575  0.8577  1.0210  1.6742
  202SOL     OW  604   2.683   3.060   0.394 -0.1678  0.1138  0.2512
  202SOL    HW1  605   2.671   3.086   0.302 -0.1110 -0.4998  1.6668
  202SOL    HW2  606   2.680   2.959   0.411 -0.5119  2.8668 -1.1010
  203SOL     OW  607   1.346   2.173   2.381 -0.0136 -0.1955  0.2006
  203SOL    HW1  608   1.335   2.095   2.453 -2.3963 -1.5964  1.8261
  203SOL    HW2  609   1.441   2.198   2.357  2.6657  1.3977  1.4281
  204SOL     OW  610   1.472   2.067   1.439  0.1470  0.0306 -0.1957
  204SOL    HW1  611   1.487   2.165   1.419  0.4794  0.1966  0.1141
  204SOL    HW2  612   1.533   1.998   1.392 -1.7708 -0.1412  1.7834
  205SOL     OW  613   1.174   1.684   1.915  0.3316 -0.3103  0.4429
  205SOL    HW1  614   1.275   1.674   1.929  3.4507  2.2590 -1.9293
  205SOL    HW2  615   1.127   1.728   1.993  0.5654  0.2953  2.4399
  206SOL     OW  616   0.354   0.746   2.611  0.2036 -0.3199  0.7915
  206SOL    HW1  617   0.431   0.746   2.676 -0.6598 -0.4591  0.5907
  206SOL    HW2  618   0.381   0.712   2.517 -0.7603 -0.7908  0.2330
  207SOL     OW  619   0.904   0.056   1.845  0.0185  0.3572 -0.1910
  207SOL    HW1  620   0.868   0.151   1.841 -0.3951  0.7948  0.7274
  207SOL    HW2  621   0.990   0.046   1.897  0.9195 -2.6028 -0.6181
  208SOL     OW  622   0.634   2.567   1.897 -0.0408  0.3226 -0.1621
  208SOL    HW1  623   0.674   2.659   1.923  1.9763  1.8007  0.9783
  208SOL    HW2  624   0.691   2.517   1.829 -0.9036  2.4571  0.7384
  209SOL     OW  625   1.516   0.614   0.064 -0.0561 -0.3939 -0.0769
  209SOL    HW1  626   1.495   0.611   3.088 -1.4674 -0.0435 -0.5198
  209SOL    HW2  627   1.430   0.632   0.111 -2.0893 -0.3788  0.4193
  210SOL     OW  628   2.952   0.499   0.756 -0.4114 -0.0858 -0.0439
  210SOL    HW1  629   2.913   0.519   0.846  1.4695 -0.5426 -0.0841
  210SOL    HW2  630   2.970   0.400   0.745 -0.3858  0.2458 -0.1449
  211SOL     OW  631   0.594   0.730   1.239  0.6169  0.1023 -0.1838
  211SOL    HW1  632   0.635   0.638   1.256 -2.1497 -1.1045  1.9131
  211SOL    HW2  633   0.509   0.735   1.298  0.1521 -0.5554  0.5444
  212SOL     OW  634   1.422   1.739   0.996  0.0156 -0.0209 -0.3528
  212SOL    HW1  635   1.324   1.748   0.971  0.3718  0.8476 -1.1157
  212SOL    HW2  636   1.433   1.660   1.058 -0.6162  0.4543  0.9195
  213SOL     OW  637   2.004   0.008   1.611 -0.1085  0.7477 -0.0830
  213SOL    HW1  638   2.075   3.088   1.667  1.8312  0.0910  0.2264
  213SOL    HW2  639   1.931   3.076   1.571 -0.4536 -0.4331  1.8505
  214SOL     OW  640   1.117   2.534   2.731 -0.0668 -0.5541  0.1394
  214SOL    HW1  641   1.172   2.505   2.811  0.2688  2.2955  0.1537
  214SOL    HW2  642   1.164   2.499   2.649  0.5566 -2.5863  2.6315
  215SOL     OW  643   2.649   1.837   1.250 -0.1823  0.3973 -0.2304
  215SOL    HW1  644   2.646   1.916   1.189 -0.5769 -1.6120  0.4431
  215SOL    HW2  645   2.681   1.752   1.204  1.0294 -2.0859  2.2254
  216SOL     OW  646   0.265   0.589   2.031  0.3237  0.2307 -0.0741
  216SOL    HW1  647   0.177   0.559   1.991  2.9487  1.6099  0.7441
  216SOL    HW2  648   0.263   0.681   2.077  0.1107  0.0585 -1.2954
  217SOL     OW  649   3.095   0.072   0.105 -0.4926 -0.4826  0.0206
  217SOL    HW1  650   0.048   0.136   0.110 -0.0475 -1.7270 -3.0500
  217SOL    HW2  651   3.104   0.020   0.197  2.0421  1.3185  0.8722
  218SOL     OW  652   1.668   1.855   1.428  0.8416  0.2004  0.1803
  218SOL    HW1  653   1.653   1.759   1.397  1.8741  1.5306 -1.7633
  218SOL    HW2  654   1.768   1.878   1.428  1.3145  1.5298 -0.6518
  219SOL     OW  655   1.749   0.537   0.214  0.1055  0.6994 -0.1845
  219SOL    HW1  656   1.700   0.485   0.290 -3.3954  1.0954  1.5310
  219SOL    HW2  657   1.678   0.580   0.157  0.1722 -1.3238 -2.0568
  220SOL     OW  658   1.555   1.964   1.107  0.5578 -0.1866 -0.0689
  220SOL    HW1  659   1.514   2.053   1.091 -0.4681 -0.0689 -0.2024
  220SOL    HW2  660   1.509   1.893   1.053  2.1749 -0.0243  0.9053
  221SOL     OW  661   0.125   0.442   0.022  0.5494  0.6178 -0.1214
  221SOL    HW1  662   0.125   0.509   3.070  0.9109  0.5577 -1.4260
  221SOL    HW2  663   0.033   0.429   0.060  2.3037  0.8682 -3.0590
  222SOL     OW  664   0.886   2.788   1.669  0.1661  0.6493 -0.7895
  222SOL    HW1  665   0.882   2.879   1.628 -0.8006  0.3898  0.0077
  222SOL    HW2  666   0.872   2.715   1.601 -0.1432  1.4841  0.6174
  223SOL     OW  667   1.356   0.423   2.851  0.0607  0.5191 -0.0701
  223SOL    HW1  668   1.407   0.346   2.895  1.0882 -0.4091  1.2617
  223SOL    HW2  669   1.269   0.396   2.814  3.7086 -0.5204  2.1476
  224SOL     OW  670   2.802   0.372   1.120 -0.4004  0.2162 -0.2040
  224SOL    HW1  671   2.779   0.392   1.216 -0.9924 -2.7128  1.1390
  224SOL    HW2  672   2.751   0.295   1.083 -0.6099  0.8860  0.9485
  225SOL     OW  673   0.711   1.298   1.717  0.0666  0.1455 -0.1472
  225SOL    HW1  674   0.737   1.368   1.645 -0.8366 -1.9143 -1.0991
  225SOL    HW2  675   0.617   1.311   1.754 -0.2613  1.6401  1.7293
  226SOL     OW  676   0.699   3.112   0.711 -0.3428 -0.0044 -0.0610
  226SOL    HW1  677   0.611   3.074   0.740  2.0901  0.3319  0.3593
  226SOL    HW2  678   0.691   0.082   0.670  1.4960  2.7126 -0.6112
  227SOL     OW  679   0.864   1.868   1.581 -0.0419  0.0021  0.5157
  227SOL    HW1  680   0.889   1.878   1.485  0.2143  1.0597  1.1815
  227SOL    HW2  681   0.944   1.885   1.642  0.0498  0.8856 -1.0634
  228SOL     OW  682   0.428   3.102   1.746 -0.4799  0.0378 -0.1763
  228SOL    HW1  683   0.378   0.047   1.697 -0.9063 -0.8253 -1.2546
  228SOL    HW2  684   0.418   3.012   1.701 -0.6324 -2.1818 -0.4940
  229SOL     OW  685   2.527   0.761   0.480 -0.1782  0.0068 -0.1196
  229SOL    HW1  686   2.587   0.685   0.503 -1.1998  1.7562  1.4220
  229SOL    HW2  687   2.582   0.822   0.418  0.9777  0.7622 -1.0163
  230SOL     OW  688   0.247   1.301   2.200  0.3573  0.3212 -0.1800
  230SOL    HW1  689   0.253   1.220   2.263  1.3664  0.1534  1.1772
  230SOL    HW2  690   0.269   1.284   2.101 -1.7434  2.4819  1.8699
  231SOL     OW  691   1.061   2.899   1.324 -0.3824  0.0572  0.5307
  231SOL    HW1  692   0.963   2.875   1.332  1.9509  0.3583 -2.3986
  231SOL    HW2  693   1.113   2.863   1.398 -0.1772 -0.5770  0.1803
  232SOL     OW  694   2.491   2.381   0.097  0.4225 -0.3235  0.1020
  232SOL    HW1  695   2.480   2.482   0.095  0.6243 -2.3700  0.2192
  232SOL    HW2  696   2.400   2.340   0.081 -0.2726 -1.9750  1.7265
  233SOL     OW  697   1.042   2.787   0.266 -0.3352  0.4117  0.0842
  233SOL    HW1  698   1.032   2.885   0.239  0.2324 -0.9768 -1.4398
  233SOL    HW2  699   1.054   2.730   0.182 -1.8899 -0.9565 -0.1203
  234SOL     OW  700   0.945   0.880   2.157  0.0902  0.4405 -0.1046
  234SOL    HW1  701   0.979   0.874   2.253  1.2124 -0.1661  0.7215
  234SOL    HW2  702   1.001   0.941   2.098  1.6818  1.1766  2.4540
  235SOL     OW  703   0.220   2.275   0.319  0.5743  0.6637 -0.3348
  235SOL    HW1  704   0.266   2.351   0.366 -2.2326 -0.0550 -1.1018
  235SOL    HW2  705   0.131   2.307   0.279  1.9006  0.2707 -1.4328
  236SOL     OW  706   2.140   2.801   2.524  0.5164 -0.0500 -0.0178
  236SOL    HW1  707   2.220   2.805   2.460  2.7872  0.4224 -0.1087
  236SOL    HW2  708   2.075   2.729   2.491 -1.8210  0.2719 -1.3763
  237SOL     OW  709   2.045   1.126   1.602 -0.2372 -0.9319  0.2150
  237SOL    HW1  710   2.013   1.039   1.565 -0.5133  0.6220  1.0123
  237SOL    HW2  711   2.005   1.139   1.692  0.0183  0.4443  0.4787
  238SOL     OW  712   1.767   0.150   2.329 -0.0404  0.3463 -0.1064
  238SOL    HW1  713   1.854   0.157   2.386 -2.6791  0.1222  1.3261
  238SOL    HW2  714   1.790   0.120   2.233  2.3699  1.3123  2.4412
  239SOL     OW  715   0.952   2.119   1.944 -0.4501  0.1902 -0.0842
  239SOL    HW1  716   0.854   2.122   1.906 -2.7630 -1.6581 -1.0889
  239SOL    HW2  717   1.021   2.137   1.872  0.2229 -2.1496  1.4982
  240SOL     OW  718   3.029   2.860   0.569 -0.2932 -0.1791 -0.0166
  240SOL    HW1  719   3.098   2.798   0.527  1.0023  1.5298 -3.0543
  240SOL    HW2  720   2.962   2.808   0.622  3.1800  1.0133 -0.1562
  241SOL     OW  721   1.322   1.869   0.244 -0.0474 -0.1855 -0.3524
  241SOL    HW1  722   1.340   1.870   0.346 -3.1927 -0.7929 -0.6253
  241SOL    HW2  723   1.382   1.943   0.209  0.8604  0.6561  2.3878
  242SOL     OW  724   2.369   1.040   0.100  0.0511  0.3351  0.0961
  242SOL    HW1  725   2.420   0.952   0.107 -1.4135  0.5604 -1.4623
  242SOL    HW2  726   2.326   1.041   0.002 -1.2614  0.5776 -0.9351
  243SOL     OW  727   0.681   0.533   1.927 -0.1388 -0.6648 -0.0022
  243SOL    HW1  728   0.709   0.439   1.902  0.3299 -1.1328  2.6811
  243SOL    HW2  729   0.602   0.573   1.877  2.2448 -0.8103  2.0909
  244SOL     OW  730   1.699   2.647   2.859  0.5270  0.0576  0.1779
  244SOL    HW1  731   1.622   2.714   2.840 -2.1817  1.4066 -0.8032
  244SOL    HW2  732   1.785   2.684   2.827 -0.7605 -1.0695  1.6137
  245SOL     OW  733   1.663   3.082   2.875 -0.6692  0.2959 -0.4174
  245SOL    HW1  734   1.619   0.030   2.925  3.2820 -1.0555 -1.9326
  245SOL    HW2  735   1.603   3.006   2.852 -1.0495  2.4849 -0.7249
  246SOL     OW  736   1.260   1.141   2.520 -0.0774  0.1401 -0.0445
  246SOL    HW1  737   1.349   1.190   2.513  1.8062  1.7629 -1.0622
  246SOL    HW2  738   1.190   1.197   2.568 -0.4400  0.1787 -0.5653
  247SOL     OW  739   2.830   0.438   2.091  0.1251 -0.3767  0.0050
  247SOL    HW1  740   2.915   0.379   2.077 -0.1734  0.0695 -1.4528
  247SOL    HW2  741   2.770   0.420   2.013  1.7164 -1.2715  0.3339
  248SOL     OW  742   0.294   1.259   1.945 -0.6203 -0.0398 -0.1267
  248SOL    HW1  743   0.258   1.183   1.892  1.1465 -0.5284  1.4600
  248SOL    HW2  744   0.356   1.318   1.889  0.1480 -1.3286  1.7064
  249SOL     OW  745   2.656   0.425   0.136  0.1923  0.3773 -0.1299
  249SOL    HW1  746   2.600   0.460   0.213  2.4414  1.5969 -2.3038
  249SOL    HW2  747   2.733   0.367   0.170  1.4739 -0.4852  0.5543
  250SOL     OW  748   3.020   0.261   0.602  0.5097  0.3648  0.4934
  250SOL    HW1  749   2.919   0.276   0.578 -1.7566 -0.8855 -1.7879
  250SOL    HW2  750   3.043   0.160   0.606 -1.2599 -1.8054 -1.4974
  251SOL     OW  751   0.732   1.169   2.169  0.3994 -0.1037 -0.1481
  251SOL    HW1  752   0.809   1.164   2.238  0.0786 -0.0392 -2.2814
  251SOL    HW2  753   0.747   1.137   2.075 -0.8346 -0.1808 -0.2581
  252SOL     OW  754   1.480   1.637   1.956  0.1923 -0.1351  0.1894
  252SOL    HW1  755   1.451   1.640   2.057 -1.0912  1.8460  2.7379
  252SOL    HW2  756   1.548   1.563   1.935  0.1984  0.5927  0.3994
  253SOL     OW  757   1.551   2.420   1.909  0.0042 -0.5450 -0.3774
  253SOL    HW1  758   1.471   2.423   1.973 -0.5902 -3.1349  2.2178
  253SOL    HW2  759   1.517   2.431   1.812 -0.5534  0.2945 -2.7462
  254SOL     OW  760   0.858   2.224   2.310 -0.5234 -0.8314  0.3409
  254SOL    HW1  761   0.757   2.222   2.271 -1.8292  1.2078 -1.2272
  254SOL    HW2  762   0.919   2.269   2.242 -1.3414 -2.1859  1.1564
  255SOL     OW  763   1.318   0.612   0.691  0.1871 -0.0685 -0.1126
  255SOL    HW1  764   1.216   0.605   0.678 -1.7559  0.6919  1.1908
  255SOL    HW2  765   1.341   0.626   0.788  0.7271  1.9159  1.3574
  256SOL     OW  766   1.875   2.266   1.121  0.2246  0.1709 -0.0065
  256SOL    HW1  767   1.956   2.318   1.078 -1.2209  4.7143 -2.9053
  256SOL    HW2  768   1.801   2.271   1.051  0.7848  1.2296 -0.4888
  257SOL     OW  769   0.161   2.180   2.840 -0.2403 -0.5376 -0.0408
  257SOL    HW1  770   0.212   2.176   2.757  0.8895 -2.5254 -0.7481
  257SOL    HW2  771   0.218   2.139   2.915  0.3769  0.4732  2.6104
  258SOL     OW  772   0.293   1.137   2.425 -0.1928 -0.1682  0.3908
  258SOL    HW1  773   0.281   1.208   2.495  0.7838  0.4617  1.7494
  258SOL    HW2  774   0.257   1.050   2.458  1.5785 -0.2010 -1.1081
  259SOL     OW  775   1.312   0.882   2.511 -0.5936  0.0877 -0.2268
  259SOL    HW1  776   1.284   0.975   2.523 -0.3687 -0.3271  0.0304
  259SOL    HW2  777   1.383   0.883   2.442 -0.6079  1.7059  0.8866
  260SOL     OW  778   2.006   0.660   0.729 -0.1441  0.2145  0.3528
  260SOL    HW1  779   1.995   0.753   0.690  2.9475 -2.1346  0.0970
  260SOL    HW2  780   1.955   0.596   0.668  2.1568  1.5949  2.8163
  261SOL     OW  781   1.003   0.468   3.017 -0.1585  0.2405 -0.4238
  261SOL    HW1  782   0.923   0.414   2.991  0.1661 -1.9917  0.7327
  261SOL    HW2  783   0.995   0.572   3.017  0.3017 -0.2668 -0.3382
  262SOL     OW  784   2.189   2.826   2.801 -0.2929  0.6635 -0.3289
  262SOL    HW1  785   2.254   2.749   2.834  1.5991  0.6169 -0.1486
  262SOL    HW2  786   2.192   2.836   2.700  0.1869  0.0787  2.8410
  263SOL     OW  787   0.925   2.087   3.120 -0.0349  0.4023 -0.7383
  263SOL    HW1  788   0.860   2.005   3.112 -0.3963 -5.4472  0.3423
  263SOL    HW2  789   0.867   2.169   3.109  1.2185  0.3721  1.1453
  264SOL     OW  790   0.364   1.843   1.710 -0.2146 -0.3667  0.0608
  264SOL    HW1  791   0.409   1.771   1.771  2.2638 -2.1798  3.4856
  264SOL    HW2  792   0.373   1.942   1.745 -1.6807  1.8246  3.3103
  265SOL     OW  793   0.730   1.063   0.496  0.5051 -0.0845 -0.1789
  265SOL    HW1  794   0.721   1.085   0.595 -1.4686 -2.7737  2.2986
  265SOL    HW2  795   0.775   1.138   0.441  1.0950  0.4571 -2.9915
  266SOL     OW  796   1.672   1.534   0.026  0.1524  0.2096  0.1990
  266SOL    HW1  797   1.767   1.581   0.028  0.3797 -1.3645 -1.2942
  266SOL    HW2  798   1.600   1.584   0.074  1.6499 -2.4010 -0.2902
  267SOL     OW  799   2.729   0.138   3.027 -0.2837  0.2988  0.2607
  267SOL    HW1  800   2.812   0.080   3.016  0.7649 -0.9921 -0.9822
  267SOL    HW2  801   2.747   0.215   2.961 -0.5091  1.4118 -0.4111
  268SOL     OW  802   0.447   0.363   2.794 -0.5803 -0.5773 -0.0978
  268SOL    HW1  803   0.491   0.459   2.807  0.1358 -1.1002  1.8626
  268SOL    HW2  804   0.506   0.300   2.740 -3.3928  1.7950 -0.5322
  269SOL     OW  805   1.658   0.529   2.591 -0.3213  0.3741  0.1803
  269SOL    HW1  806   1.672   0.510   2.493  0.1575  0.6080 -0.2187
  269SOL    HW2  807   1.575   0.478   2.623 -0.1197  1.1172  2.3607
  270SOL     OW  808   1.048   0.882   2.405 -0.6257 -0.1115 -0.5110
  270SOL    HW1  809   1.147   0.872   2.435  0.4928 -0.6791 -1.7849
  270SOL    HW2  810   0.998   0.804   2.444 -0.5306 -0.6413  1.4433
  271SOL     OW  811   2.769   0.898   0.069 -0.0940  0.4755  0.5168
  271SOL    HW1  812   2.799   0.967   0.004 -1.4633 -1.0591 -0.5227
  271SOL    HW2  813   2.802   0.805   0.036  1.1248 -2.4812  1.3191
  272SOL     OW  814   2.462   1.931   2.710  0.3261 -0.2207 -0.0990
  272SOL    HW1  815   2.470   1.974   2.621 -0.0923 -1.0990  2.1578
  272SOL    HW2  816   2.432   1.832   2.701  0.4174  0.1295 -0.2918
  273SOL     OW  817   2.765   0.518   2.797  0.0006 -0.8425  0.0987
  273SOL    HW1  818   2.781   0.420   2.776  0.2429  0.2223  1.4766
  273SOL    HW2  819   2.828   0.581   2.749  0.3196 -0.1722 -1.8744
  274SOL     OW  820   3.115   0.043   1.552 -0.2914  0.4293  0.4870
  274SOL    HW1  821   0.008   3.078   1.590  0.2113 -0.3705 -1.3623
  274SOL    HW2  822   3.073   0.025   1.461  0.6244  1.9173  1.0386
  275SOL     OW  823   2.031   1.287   0.689  0.4549 -0.0261 -0.8239
  275SOL    HW1  824   2.114   1.232   0.703  0.5270  0.5788 -0.8017
  275SOL    HW2  825   1.983   1.245   0.611  1.0315 -0.2172  1.2994
  276SOL     OW  826   0.224   1.388   2.712  0.0845 -0.6035 -0.2310
  276SOL    HW1  827   0.312   1.363   2.753  2.2825  0.8979 -1.1716
  276SOL    HW2  828   0.243   1.476   2.669 -2.8778 -0.7870  1.4182
  277SOL     OW  829   1.772   2.501   2.010  0.4248  0.5863 -0.1735
  277SOL    HW1  830   1.685   2.477   1.966  2.8733  3.5660  2.9826
  277SOL    HW2  831   1.795   2.436   2.083  0.3719  2.9995 -3.9959
  278SOL     OW  832   2.031   0.222   1.413 -0.3274 -0.2840  0.5238
  278SOL    HW1  833   1.980   0.141   1.448  0.7223 -1.4817 -1.2960
  278SOL    HW2  834   1.976   0.309   1.416  2.1651  2.5825  0.2546
  279SOL     OW  835   1.324   1.241   2.916  0.4947 -0.3820  0.6209
  279SOL    HW1  836   1.335   1.144   2.881  0.2325  1.4070 -0.1571
  279SOL    HW2  837   1.413   1.293   2.929 -0.0749 -1.1301 -1.6549
  280SOL     OW  838   0.572   1.604   1.188 -0.3248 -0.2305  0.1687
  280SOL    HW1  839   0.632   1.593   1.104  1.6676 -1.2441 -1.8649
  280SOL    HW2  840   0.582   1.696   1.229 -1.3352  0.8351 -0.8415
  281SOL     OW  841   0.208   0.226   2.446  0.0850  0.1938 -0.0547
  281SOL    HW1  842   0.270   0.209   2.365 -0.6259 -1.9115 -0.6818
  281SOL    HW2  843   0.128   0.160   2.451 -0.2031 -1.6645 -0.0221
  282SOL     OW  844   0.072   1.044   1.482 -0.0822  0.4580  0.3553
  282SOL    HW1  845   0.047   1.143   1.463 -1.2099  3.1133  0.1521
  282SOL    HW2  846   0.030   0.985   1.414  0.6099  0.0956 -0.2903
  283SOL     OW  847   1.535   2.457   2.522 -0.7972 -0.0385 -0.3280
  283SOL    HW1  848   1.543   2.420   2.430 -1.7887  3.1553  2.2547
  283SOL    HW2  849   1.451   2.440   2.571  0.6829  1.5906 -0.6742
  284SOL     OW  850   1.908   1.150   0.061 -0.0466  0.6280  0.4475
  284SOL    HW1  851   1.847   1.193   0.125  1.7360 -3.1191 -0.8814
  284SOL    HW2  852   1.866   1.156   3.098  1.0058 -2.0441  0.4739
  285SOL     OW  853   3.075   3.102   2.803 -0.6051  0.3841  0.4417
  285SOL    HW1  854   3.022   3.105   2.889 -0.7385 -3.4225 -1.5953
  285SOL    HW2  855   0.032   0.035   2.810  1.4899 -0.3818 -0.5288
  286SOL     OW  856   2.024   2.820   1.341 -0.1542  0.1299  0.1413
  286SOL    HW1  857   1.944   2.871   1.376  0.5799 -0.3110  0.9184
  286SOL    HW2  858   2.104   2.879   1.333 -1.1328 -2.2437  0.4188
  287SOL     OW  859   0.761   0.923   1.338 -0.0242 -0.2841 -0.0940
  287SOL    HW1  860   0.697   0.855   1.305  1.2853  0.9407 -2.9741
  287SOL    HW2  861   0.735   0.964   1.427  0.2608  1.3033  1.1864
  288SOL     OW  862   1.463   2.646   0.139  0.1281 -0.4587  0.9121
  288SOL    HW1  863   1.530   2.608   0.074 -2.2863 -1.5425  1.1353
  288SOL    HW2  864   1.435   2.570   0.205 -1.9591 -2.2016  0.6051
  289SOL     OW  865   3.016   1.718   3.089  0.3251  0.4012 -0.3057
  289SOL    HW1  866   3.024   1.817   3.112 -1.5861  2.3357 -0.3155
  289SOL    HW2  867   2.918   1.696   3.087  2.5343 -0.5662 -1.1010
  290SOL     OW  868   1.139   2.704   0.765  0.1440 -0.4202  0.4496
  290SOL    HW1  869   1.167   2.716   0.669 -1.1635 -1.2100  0.6903
  290SOL    HW2  870   1.193   2.627   0.802 -0.4561  0.5662  1.0849
  291SOL     OW  871   2.054   2.098   0.162 -0.1589  0.4186 -0.0312
  291SOL    HW1  872   2.101   2.178   0.125 -1.3646 -2.1500  1.0439
  291SOL    HW2  873   2.100   2.013   0.131 -0.1171 -1.7766  1.5416
  292SOL     OW  874   0.911   1.375   1.891 -0.3017  0.2739  0.4959
  292SOL    HW1  875   0.998   1.326   1.875  0.5388 -0.2680 -0.1841
  292SOL    HW2  876   0.844   1.327   1.827  2.3348  0.0249 -1.9532
  293SOL     OW  877   2.358   2.701   0.818 -0.1352 -0.2823  0.3800
  293SOL    HW1  878   2.389   2.616   0.774 -1.1070 -0.4052  3.5802
  293SOL    HW2  879   2.316   2.678   0.905 -0.4027 -0.1006 -1.4770
  294SOL     OW  880   3.071   0.656   2.425  0.3131  0.4088  0.1933
  294SOL    HW1  881   3.102   0.748   2.408  1.8524 -1.6515  2.7765
  294SOL    HW2  882   0.018   0.587   2.404  0.9933 -0.1294 -0.7576
  295SOL     OW  883   0.818   1.875   0.342 -0.0886  0.4952 -0.3069
  295SOL    HW1  884   0.751   1.906   0.275  0.5508 -2.0936  1.4177
  295SOL    HW2  885   0.907   1.925   0.332  0.6314 -1.1682 -2.4962
  296SOL     OW  886   2.011   1.878   2.748 -0.0290  0.0493 -0.2008
  296SOL    HW1  887   2.057   1.793   2.717 -2.2040 -0.2433  0.1188
  296SOL    HW2  888   1.952   1.859   2.830 -0.2682 -2.9279 -0.0280
  297SOL     OW  889   2.784   0.599   3.069 -0.1110 -0.6492  0.5924
  297SOL    HW1  890   2.774   0.576   2.969 -0.4142  2.5965 -3.3032
  297SOL    HW2  891   2.708   0.554   3.122 -1.7768 -1.8215 -1.1725
  298SOL     OW  892   0.841   2.359   2.999 -0.0125 -0.6649 -0.6548
  298SOL    HW1  893   0.822   2.293   2.922  2.5812  0.2766  2.2504
  298SOL    HW2  894   0.757   2.410   3.023  3.5001 -1.8129  1.2848
  299SOL     OW  895   1.558   2.893   2.459  0.7987  0.1261  0.6659
  299SOL    HW1  896   1.556   2.993   2.474 -0.8458 -0.1054 -0.9225
  299SOL    HW2  897   1.477   2.845   2.503 -0.9082 -2.2159 -2.6011
  300SOL     OW  898   2.767   0.297   0.510 -0.0177 -0.2115  0.6862
  300SOL    HW1  899   2.726   0.390   0.511 -0.7388  1.5811  0.7479
  300SOL    HW2  900   2.797   0.266   0.420 -3.1807 -0.6321 -0.0189
  301SOL     OW  901   1.099   1.192   1.783  0.3009 -0.2660 -0.3773
  301SOL    HW1  902   1.145   1.106   1.757 -0.7216  0.2515  0.4110
  301SOL    HW2  903   1.076   1.241   1.700  1.0781 -0.5052  0.3939
  302SOL     OW  904   0.193   2.328   3.117 -0.2754 -0.2765  0.3738
  302SOL    HW1  905   0.166   2.240   3.081  2.1299 -0.0239 -0.5537
  302SOL    HW2  906   0.124   2.407   3.126 -2.3281  3.8628 -3.5859
  303SOL     OW  907   3.096   0.055   2.506 -0.4675  0.0410  0.4771
  303SOL    HW1  908   3.073   0.024   2.597  1.0994  2.8591 -1.4716
  303SOL    HW2  909   3.010   0.071   2.451 -1.2092  2.2434 -0.1626
  304SOL     OW  910   2.581   0.522   1.811  0.1950 -0.5533  0.2452
  304SOL    HW1  911   2.657   0.586   1.817 -0.0805  1.9371 -2.0684
  304SOL    HW2  912   2.544   0.503   1.901  0.2139  1.6054  1.1081
  305SOL     OW  913   0.643   2.682   2.255  0.9551 -0.0011 -0.1623
  305SOL    HW1  914   0.707   2.757   2.228  0.0808 -1.1588  3.3111
  305SOL    HW2  915   0.665   2.650   2.351  0.4019  0.7452  2.6004
  306SOL     OW  916   2.633   0.990   1.494 -0.5708 -0.3670  0.3582
  306SOL    HW1  917   2.711   0.993   1.432 -1.5857  4.0284 -1.6995
  306SOL    HW2  918   2.567   0.921   1.468  0.7040 -1.0099  1.0923
  307SOL     OW  919   1.314   0.585   1.375  0.3034  0.2501 -0.2395
  307SOL    HW1  920   1.350   0.527   1.451 -0.5511 -1.7960  1.2931
  307SOL    HW2  921   1.295   0.530   1.290  0.9063 -1.7560  0.2048
  308SOL     OW  922   2.592   2.046   1.050 -0.1025 -0.4058 -0.4529
  308SOL    HW1  923   2.579   2.133   1.099 -1.3781  2.5311 -3.5743
  308SOL    HW2  924   2.524   2.038   0.976 -2.0248 -1.3061 -2.2200
  309SOL     OW  925   2.293   1.560   1.385  0.3549  0.0117 -0.3011
  309SOL    HW1  926   2.332   1.641   1.338  0.6496  1.2129 -0.0982
  309SOL    HW2  927   2.360   1.519   1.447  0.5186  0.9707 -0.0572
  310SOL     OW  928   2.727   1.671   0.029 -0.5072 -0.2694  0.1092
  310SOL    HW1  929   2.720   1.586   3.101  2.3024 -0.2924  1.1087
  310SOL    HW2  930   2.672   1.731   3.100 -1.6949 -1.9110  0.1174
  311SOL     OW  931   2.324   2.086   2.885 -0.0212 -0.5511 -0.2616
  311SOL    HW1  932   2.285   2.154   2.831  2.8367 -2.8673  1.0293
  311SOL    HW2  933   2.383   2.024   2.836 -0.7566  0.4923  1.8007
  312SOL     OW  934   2.392   1.799   1.294  0.4497 -0.0445  0.2873
  312SOL    HW1  935   2.345   1.888   1.297  0.8902  2.0088 -0.6686
  312SOL    HW2  936   2.495   1.809   1.278  2.0308  1.7474  0.3245
  313SOL     OW  937   2.322   2.327   1.175  0.0391  0.1075  0.4548
  313SOL    HW1  938   2.415   2.289   1.182  0.0025  3.5330 -1.1233
  313SOL    HW2  939   2.282   2.349   1.261 -0.3902 -2.8687 -1.4807
  314SOL     OW  940   0.948   2.236   0.720 -0.4321 -0.5633  0.0512
  314SOL    HW1  941   0.910   2.308   0.790 -0.7252 -0.1310  2.4220
  314SOL    HW2  942   0.886   2.162   0.702  1.2451  1.4288  3.1751
  315SOL     OW  943   0.626   2.788   3.004 -0.2513  0.1921  0.1866
  315SOL    HW1  944   0.663   2.854   3.068  2.0540  0.1004 -0.5471
  315SOL    HW2  945   0.648   2.694   3.030  0.3879  3.4011  3.2373
  316SOL     OW  946   0.157   0.638   0.357  0.3939  0.2023 -0.0197
  316SOL    HW1  947   0.153   0.739   0.357  0.6131  0.4099  1.8083
  316SOL    HW2  948   0.226   0.604   0.287 -0.6071 -2.7347  0.1455
  317SOL     OW  949   1.676   0.545   0.903  0.1214 -0.1928  0.3844
  317SOL    HW1  950   1.668   0.645   0.871 -0.8784 -0.2479  1.9735
  317SOL    HW2  951   1.615   0.488   0.847 -1.9891 -1.7797  2.1303
  318SOL     OW  952   0.063   2.642   0.482 -0.4190  0.2995  0.3631
  318SOL    HW1  953   0.039   2.699   0.399 -2.1540 -0.6250  1.1314
  318SOL    HW2  954   3.114   2.579   0.506  0.2712  0.3323 -2.4514
  319SOL     OW  955   0.625   1.874   2.893 -0.7366 -0.1040 -0.3346
  319SOL    HW1  956   0.719   1.830   2.895 -0.5725  1.7080 -0.6973
  319SOL    HW2  957   0.632   1.956   2.956  0.3958  2.4797 -0.2204
  320SOL     OW  958   0.751   2.655   2.501 -0.4644  0.1553 -0.0448
  320SOL    HW1  959   0.826   2.723   2.488  0.3112 -2.6375 -0.6678
  320SOL    HW2  960   0.785   2.579   2.564 -0.9845 -0.9836 -0.6796
  321SOL     OW  961   1.336   2.847   3.029  0.1432  0.2456 -0.4387
  321SOL    HW1  962   1.368   2.813   3.117 -3.0798 -1.4656 -2.1369
  321SOL    HW2  963   1.238   2.841   3.012  1.7123 -2.3891  1.5661
  322SOL     OW  964   2.531   1.479   1.984  0.1962 -0.3747 -0.1054
  322SOL    HW1  965   2.610   1.530   1.938  0.0661  3.3181 -0.1015
  322SOL    HW2  966   2.555   1.392   2.030  1.9561  0.9208 -0.4139
  323SOL     OW  967   2.479   0.549   0.304  0.0342 -0.4286  0.7712
  323SOL    HW1  968   2.385   0.526   0.274 -1.6387 -0.5641  0.5296
  323SOL    HW2  969   2.483   0.651   0.311  1.6126  1.6106 -2.0271
  324SOL     OW  970   0.244   2.944   2.737  0.0632 -0.0930 -0.2511
  324SOL    HW1  971   0.228   3.030   2.783 -0.8668 -1.5386  0.1300
  324SOL    HW2  972   0.250   2.958   2.636  0.0364 -0.4358 -2.8946
  325SOL     OW  973   1.647   0.403   2.354  0.3832 -0.3503  0.3324
  325SOL    HW1  974   1.695   0.317   2.329 -3.3715 -0.1692  0.5546
  325SOL    HW2  975   1.553   0.371   2.365  0.1060 -0.8057 -0.5093
  326SOL     OW  976   2.473   2.590   1.288 -0.4917 -0.4129  0.0137
  326SOL    HW1  977   2.433   2.537   1.364  0.7067  0.7142  1.8769
  326SOL    HW2  978   2.446   2.556   1.196  0.1359  0.4512  1.8894
  327SOL     OW  979   1.539   0.206   2.960 -0.6584  0.2351 -0.2139
  327SOL    HW1  980   1.563   0.191   3.063 -0.4805  0.5579  0.1085
  327SOL    HW2  981   1.607   0.270   2.915 -1.6915 -0.0744 -0.0630
  328SOL     OW  982   2.662   1.390   2.453 -0.0257  0.4180  0.3356
  328SOL    HW1  983   2.569   1.373   2.409  0.2303  0.7834 -1.5287
  328SOL    HW2  984   2.647   1.437   2.541 -2.2938 -0.2948 -0.2105
  329SOL     OW  985   1.724   2.880   1.763  0.4469  0.0797  0.0856
  329SOL    HW1  986   1.819   2.848   1.797  0.2268  3.1264  1.6245
  329SOL    HW2  987   1.664   2.806   1.734 -0.1580  0.7460  1.4679
  330SOL     OW  988   2.504   1.462   1.515  0.0773 -0.0297 -0.3821
  330SOL    HW1  989   2.454   1.493   1.595  0.6700 -2.7561  0.6899
  330SOL    HW2  990   2.601   1.464   1.535 -1.7518  1.8102 -0.1646
  331SOL     OW  991   0.181   1.563   1.342 -0.3392  0.0106  0.0266
  331SOL    HW1  992   0.188   1.515   1.253 -3.4764  1.7806  1.6005
  331SOL    HW2  993   0.202   1.663   1.327  1.9861 -2.3239  0.8363
  332SOL     OW  994   0.703   0.212   1.302  0.0405  0.2390  0.0359
  332SOL    HW1  995   0.688   0.203   1.201  1.2233 -2.2203 -2.2130
  332SOL    HW2  996   0.631   0.162   1.362 -0.4562 -0.9069  0.5557
  333SOL     OW  997   1.965   2.600   2.163  0.1268 -0.6561 -0.0359
  333SOL    HW1  998   1.898   2.583   2.084 -1.2942 -3.1844 -1.5142
  333SOL    HW2  999   1.941   2.694   2.200 -0.4476  0.5690  0.4520
  334SOL     OW 1000   1.171   1.226   1.360  0.2892  0.3961 -0.3363
  334SOL    HW1 1001   1.113   1.271   1.288 -0.5038 -0.6277  2.1196
  334SOL    HW2 1002   1.234   1.157   1.315  2.8710 -0.0647 -1.1829
  335SOL     OW 1003   1.043   2.904   2.987 -0.2746  0.2972 -0.0354
  335SOL    HW1 1004   1.011   2.999   3.004 -1.7738  1.2586  2.8487
  335SOL    HW2 1005   1.011   2.882   2.891  0.5323  1.8029 -3.0226
  336SOL     OW 1006   2.939   2.638   2.147 -0.5370 -0.9285 -0.1617
  336SOL    HW1 1007   2.991   2.723   2.160 -3.2729  0.6073 -0.4547
  336SOL    HW2 1008   2.976   2.583   2.069  1.7697 -0.8761 -0.8156
  337SOL     OW 1009   2.461   1.617   0.601 -0.6076 -0.0074 -0.2123
  337SOL    HW1 1010   2.383   1.549   0.598  0.5226  1.8378 -0.4865
  337SOL    HW2 1011   2.486   1.652   0.504  0.8282  2.8205 -0.5713
  338SOL     OW 1012   0.918   1.851   1.313 -0.8379  0.5799 -0.1389
  338SOL    HW1 1013   1.000   1.886   1.270 -2.4678  1.8825  0.9595
  338SOL    HW2 1014   0.836   1.911   1.283 -0.8906  2.4446  0.7009
  339SOL     OW 1015   0.002   0.930   2.363 -0.1411  0.0550  0.5262
  339SOL    HW1 1016   0.026   0.939   2.460 -1.6053  2.0073 -1.3463
  339SOL    HW2 1017   0.027   1.012   2.314  1.7611  0.1835 -1.7947
  340SOL     OW 1018   1.571   2.773   1.268  0.2912 -0.0498 -0.0663
  340SOL    HW1 1019   1.672   2.756   1.253  1.1338  1.3983  0.3009
  340SOL    HW2 1020   1.518   2.693   1.229  2.3963 -1.5125  3.1700
  341SOL     OW 1021   1.796   1.431   0.766  0.0976 -0.2543  0.0173
  341SOL    HW1 1022   1.885   1.392   0.732 -0.6780 -0.4006 -0.3164
  341SOL    HW2 1023   1.819   1.499   0.840  1.2931  1.4374  1.3987
  342SOL     OW 1024   0.467   1.233   0.842  0.2164  0.3641 -0.4085
  342SOL    HW1 1025   0.408   1.166   0.793  0.9283  0.0512  0.0272
  342SOL    HW2 1026   0.440   1.331   0.826 -0.9524  0.7305  1.2780
  343SOL     OW 1027   2.319   0.421   1.295 -0.1300  0.2609  0.2870
  343SOL    HW1 1028   2.323   0.317   1.290  0.2761 -1.2167  0.2430
  343SOL    HW2 1029   2.237   0.459   1.335  1.9004  1.2713 -2.6806
  344SOL     OW 1030   2.085   2.576   0.633 -0.5798  0.4603 -0.5957
  344SOL    HW1 1031   2.146   2.563   0.550 -0.7252 -0.2293 -0.7416
  344SOL    HW2 1032   2.131   2.526   0.713  0.6451  0.2510 -1.1762
  345SOL     OW 1033   3.124   2.413   2.894 -0.4170 -0.2210 -0.2937
  345SOL    HW1 1034   0.035   2.483   2.829  0.0238 -0.6442 -0.6222
  345SOL    HW2 1035   0.051   2.326   2.887 -0.2657 -2.3966  1.1503
  346SOL     OW 1036   3.013   0.807   0.454 -0.1350  0.4471 -0.0175
  346SOL    HW1 1037   3.095   0.866   0.424  0.2978 -1.9433 -1.6849
  346SOL    HW2 1038   2.929   0.849   0.427  2.4143  3.5372 -1.9521
  347SOL     OW 1039   1.823   2.714   1.197 -0.2103 -0.2442 -0.3675
  347SOL    HW1 1040   1.909   2.750   1.238  0.1970  2.4160  0.0974
  347SOL    HW2 1041   1.828   2.711   1.092 -1.8733 -1.6455 -2.3733
  348SOL     OW 1042   1.368   1.488   2.529  0.0436  0.0152 -0.0429
  348SOL    HW1 1043   1.278   1.467   2.573  1.2402  0.9778 -0.6861
  348SOL    HW2 1044   1.350   1.544   2.442 -0.1232  1.5964 -2.0529
  349SOL     OW 1045   2.394   1.344   2.354  0.3034  0.7755  0.4910
  349SOL    HW1 1046   2.410   1.297   2.266  0.9083  3.3887  0.0918
  349SOL    HW2 1047   2.312   1.310   2.401 -0.2435  0.9595 -2.0823
  350SOL     OW 1048   0.266   1.863   1.011  0.3516 -0.2593  0.7953
  350SOL    HW1 1049   0.266   1.834   1.108  2.0613 -1.5003  0.1803
  350SOL    HW2 1050   0.202   1.942   0.984  1.5839  0.5331 -2.2317
  351SOL     OW 1051   0.988   0.420   2.329  0.7088 -0.2034 -0.3174
  351SOL    HW1 1052   0.980   0.447   2.426 -1.6714  2.3231 -0.9647
  351SOL    HW2 1053   0.910   0.462   2.276 -1.4939 -2.0525  0.5764
  352SOL     OW 1054   0.918   2.754   1.946  0.0655 -0.1475 -0.2034
  352SOL    HW1 1055   0.870   2.799   2.021 -0.2440 -1.3810 -1.3191
  352SOL    HW2 1056   0.881   2.776   1.850 -0.1466 -1.9795 -0.9743
  353SOL     OW 1057   0.597   1.419   2.394  0.5865  0.2994  0.4578
  353SOL    HW1 1058   0.626   1.435   2.298  2.8143  0.2534 -0.4189
  353SOL    HW2 1059   0.496   1.443   2.402  1.0440  0.6169  0.1073
  354SOL     OW 1060   1.878   1.185   0.502 -0.5535  0.7769 -0.4699
  354SOL    HW1 1061   1.809   1.153   0.570 -0.2827 -2.8969  0.0647
  354SOL    HW2 1062   1.877   1.118   0.425 -0.6422 -1.0762  0.9680
  355SOL     OW 1063   2.345   0.190   0.663 -0.2624  0.3827  0.0152
  355SOL    HW1 1064   2.439   0.166   0.638  0.5290 -2.1879 -0.6152
  355SOL    HW2 1065   2.301   0.248   0.592 -2.8341  2.7417 -1.3269
  356SOL     OW 1066   0.016   1.220   2.589  0.0707  0.5282 -0.1881
  356SOL    HW1 1067   0.057   1.132   2.621 -0.6731 -0.3961  0.7157
  356SOL    HW2 1068   0.068   1.299   2.629  0.9265  3.7098  1.4145
  357SOL     OW 1069   0.007   2.852   1.594  0.5294  0.1917  0.1020
  357SOL    HW1 1070   0.022   2.814   1.684  0.3162 -3.1244 -3.1789
  357SOL    HW2 1071   3.072   2.788   1.543  1.1352 -3.1173 -2.2288
  358SOL     OW 1072   2.945   1.463   2.784  0.0301 -0.1057 -0.3952
  358SOL    HW1 1073   3.030   1.498   2.822 -0.3148  1.1931 -0.0663
  358SOL    HW2 1074   2.930   1.366   2.809 -3.4838  2.1426  0.5604
  359SOL     OW 1075   2.622   2.567   2.671  0.2868 -0.2539  0.0231
  359SOL    HW1 1076   2.639   2.661   2.705 -0.9910 -1.9612 -1.3834
  359SOL    HW2 1077   2.681   2.542   2.587  2.4007 -1.0266 -2.4821
  360SOL     OW 1078   1.243   1.287   1.020  0.0456  0.1318 -0.1756
  360SOL    HW1 1079   1.266   1.204   1.076 -0.6425  1.6791 -3.8026
  360SOL    HW2 1080   1.163   1.272   0.961  2.8570 -0.5606  0.1014
  361SOL     OW 1081   2.100   2.402   1.037  0.0382  0.0911 -0.0855
  361SOL    HW1 1082   2.190   2.374   1.078 -2.0234 -0.8873 -0.0313
  361SOL    HW2 1083   2.082   2.503   1.034 -1.0058  0.2923  1.1414
  362SOL     OW 1084   1.707   1.215   1.002  0.0359 -0.4325  0.3690
  362SOL    HW1 1085   1.762   1.289   1.045 -1.3426 -1.8154 -1.7939
  362SOL    HW2 1086   1.625   1.251   0.949 -0.8500 -2.4991  1.2806
  363SOL     OW 1087   2.390   1.881   0.257  0.0775 -0.1233  0.2374
  363SOL    HW1 1088   2.457   1.911   0.191 -1.9337 -1.9696  1.7553
  363SOL    HW2 1089   2.417   1.794   0.309  0.6082 -2.2971 -1.3589
  364SOL     OW 1090   2.196   3.002   1.779  0.7570 -0.1648  0.4149
  364SOL    HW1 1091   2.286   2.986   1.736 -0.3518 -4.3773  1.2053
  364SOL    HW2 1092   2.206   3.095   1.823 -1.4040 -0.4927  1.9039
  365SOL     OW 1093   3.025   2.631   1.485  0.2635  0.3560 -0.4543
  365SOL    HW1 1094   2.937   2.601   1.534  0.2614  0.6485 -0.8933
  365SOL    HW2 1095   3.071   2.546   1.452  0.2414 -1.1693  0.4175
  366SOL     OW 1096   0.140   1.252   0.014 -0.0536 -0.2921  0.3225
  366SOL    HW1 1097   0.183   1.209   3.061  0.1309  0.7602  2.9517
  366SOL    HW2 1098   0.042   1.222   0.019  1.5761  0.6224 -1.1219
  367SOL     OW 1099   2.453   2.775   3.023 -0.0628  0.7769  0.2289
  367SOL    HW1 1100   2.403   2.711   2.962  2.8438 -0.9049  2.0644
  367SOL    HW2 1101   2.466   2.742   3.119 -2.1622  2.4221  0.1544
  368SOL     OW 1102   3.050   1.583   1.029 -0.2059 -0.8686 -0.1639
  368SOL    HW1 1103   3.086   1.657   0.973  2.2382  0.4365 -1.2235
  368SOL    HW2 1104   2.954   1.597   1.063 -1.6514  1.7628 -1.3698
  369SOL     OW 1105   0.696   0.506   0.546 -0.7504 -0.1995  0.2198
  369SOL    HW1 1106   0.602   0.531   0.522  1.7864 -0.5104  1.7166
  369SOL    HW2 1107   0.760   0.571   0.504 -1.4709 -0.7344  0.9289
  370SOL     OW 1108   0.644   0.417   0.818  0.1151 -0.0130 -0.5499
  370SOL    HW1 1109   0.562   0.469   0.854 -1.8155  2.0074  0.8961
  370SOL    HW2 1110   0.683   0.454   0.730  2.8332 -2.1892  1.7524
  371SOL     OW 1111   2.207   1.519   0.109 -0.1376 -0.0199 -0.2430
  371SOL    HW1 1112   2.178   1.472   0.198  1.1263  0.1478  1.0383
  371SOL    HW2 1113   2.307   1.537   0.116  0.6753 -1.0581 -0.1719
  372SOL     OW 1114   0.141   0.963   2.613  0.0628  0.0697  0.6034
  372SOL    HW1 1115   0.108   0.911   2.695 -0.7047 -0.0275  1.5252
  372SOL    HW2 1116   0.236   0.929   2.593  1.9083  2.5643  1.3524
  373SOL     OW 1117   3.017   1.167   0.104 -0.2082  0.1124 -0.7614
  373SOL    HW1 1118   3.002   1.197   0.198  0.8541  2.0765 -3.6062
  373SOL    HW2 1119   2.934   1.193   0.053 -1.3928  0.8244 -0.9873
  374SOL     OW 1120   0.642   2.528   3.082  0.4355 -0.4968  0.2686
  374SOL    HW1 1121   0.554   2.485   3.112  0.0681  0.7238 -0.1851
  374SOL    HW2 1122   0.702   2.541   0.039  1.3681 -0.5507  0.1483
  375SOL     OW 1123   1.384   0.295   0.206  0.1647  0.2928 -0.7728
  375SOL    HW1 1124   1.322   0.335   0.138 -1.1582 -0.6215  0.4537
  375SOL    HW2 1125   1.325   0.257   0.283  0.7243 -1.1568 -0.9441
  376SOL     OW 1126   0.028   2.754   1.834  0.3390  0.2085 -0.0440
  376SOL    HW1 1127   3.122   2.663   1.825  1.4013  1.4916 -1.1957
  376SOL    HW2 1128   0.075   2.783   1.921 -0.8919 -1.1614  0.4305
  377SOL     OW 1129   3.012   2.119   2.906  0.6299 -0.3560  0.1620
  377SOL    HW1 1130   3.099   2.156   2.871 -3.1883  1.1846  1.2663
  377SOL    HW2 1131   2.945   2.191   2.937  1.6609 -1.0383 -2.8075
  378SOL     OW 1132   1.696   0.818   0.505 -0.3857 -0.4583 -0.2335
  378SOL    HW1 1133   1.612   0.767   0.487 -1.4868  0.7480 -0.1041
  378SOL    HW2 1134   1.715   0.802   0.604 -3.3586  0.4448  4.9171
  379SOL     OW 1135   1.424   1.355   0.513  0.2426 -0.2129  0.1228
  379SOL    HW1 1136   1.392   1.274   0.569 -1.4977 -4.0371  2.0879
  379SOL    HW2 1137   1.452   1.428   0.576  0.8525  0.3890 -1.4945
  380SOL     OW 1138   2.108   2.299   1.835 -0.0887 -0.0402  0.5442
  380SOL    HW1 1139   2.145   2.340   1.921 -1.5400  2.3450 -2.2821
  380SOL    HW2 1140   2.033   2.359   1.803 -2.1027 -2.7413  2.2302
  381SOL     OW 1141   2.983   1.032   2.096 -0.2993  0.8556 -0.3170
  381SOL    HW1 1142   3.039   1.099   2.151 -0.2276  0.7844  0.0135
  381SOL    HW2 1143   2.915   1.082   2.035 -2.4357  0.2106 -0.4613
  382SOL     OW 1144   0.008   2.533   0.047 -0.5471 -0.2750 -0.1192
  382SOL    HW1 1145   3.042   2.527   0.005 -0.2153  3.6284  1.0030
  382SOL    HW2 1146   0.053   2.602   3.117 -0.2768 -0.9869  0.2846
  383SOL     OW 1147   1.700   1.195   2.176  0.6709 -0.0338 -0.3506
  383SOL    HW1 1148   1.761   1.261   2.135 -1.9599  0.1206 -2.3673
  383SOL    HW2 1149   1.606   1.218   2.149 -2.3554  0.3544 -0.6344
  384SOL     OW 1150   0.916   2.196   2.581  0.0672 -0.3513 -0.1587
  384SOL    HW1 1151   0.906   2.196   2.478  1.5242 -0.0772 -2.5242
  384SOL    HW2 1152   1.013   2.196   2.612 -0.1548  0.2841  0.3989
  385SOL     OW 1153   2.399   2.188   0.503 -0.4583 -0.3155  0.3202
  385SOL    HW1 1154   2.412   2.277   0.450 -1.0408 -0.1981 -0.2597
  385SOL    HW2 1155   2.313   2.134   0.485  0.5536  1.7241 -0.4488
  386SOL     OW 1156   1.468   1.155   0.319  0.0851 -0.7448 -0.3973
  386SOL    HW1 1157   1.464   1.226   0.391  0.5128 -0.0032 -0.0143
  386SOL    HW2 1158   1.419   1.066   0.343  1.0287 -1.3495 -0.2483
  387SOL     OW 1159   2.703   0.627   1.435  0.6149  0.3616 -0.1082
  387SOL    HW1 1160   2.783   0.690   1.433  3.1925 -2.1492  0.5231
  387SOL    HW2 1161   2.734   0.534   1.462 -0.5224  0.2477  0.0417
  388SOL     OW 1162   2.839   1.035   1.282  0.1296  0.3516  0.7457
  388SOL    HW1 1163   2.838   1.137   1.282 -1.0887  0.1135  0.1796
  388SOL    HW2 1164   2.930   0.996   1.271  1.3873 -1.0819  1.3197
  389SOL     OW 1165   1.766   1.367   2.463 -0.3459 -0.0912  0.5046
  389SOL    HW1 1166   1.816   1.327   2.543  1.0440 -0.2990  0.0145
  389SOL    HW2 1167   1.745   1.465   2.485 -1.6126  0.3930 -0.2683
  390SOL     OW 1168   1.746   2.350   0.486  0.0743 -0.4953 -0.5577
  390SOL    HW1 1169   1.840   2.395   0.485  1.5174  0.5668  0.8216
  390SOL    HW2 1170   1.724   2.304   0.393 -1.5108 -1.4910 -3.6296
  391SOL     OW 1171   1.218   2.289   0.985 -0.3810 -0.5819  0.2460
  391SOL    HW1 1172   1.160   2.206   0.976  1.3833 -1.0311  1.7704
  391SOL    HW2 1173   1.316   2.272   1.001  0.1754  1.2493 -0.5017
  392SOL     OW 1174   2.480   2.855   1.384  0.1970  0.1771  0.5404
  392SOL    HW1 1175   2.493   2.762   1.351  2.2374  1.3855 -0.5623
  392SOL    HW2 1176   2.574   2.888   1.397 -0.9356  2.1057 -2.3316
  393SOL     OW 1177   1.956   2.556   2.427 -0.1246 -0.0869 -0.4668
  393SOL    HW1 1178   1.959   2.569   2.331  2.1607 -0.1630  2.9318
  393SOL    HW2 1179   1.869   2.586   2.473 -2.0358  1.6291 -1.6621
  394SOL     OW 1180   0.470   2.986   2.385 -0.0765 -0.0036 -0.3424
  394SOL    HW1 1181   0.487   3.034   2.297 -0.2360  2.3839  1.7028
  394SOL    HW2 1182   0.376   3.007   2.419  2.2149  2.8137  2.5464
  395SOL     OW 1183   0.304   1.037   1.265  0.2814 -0.2439 -0.2079
  395SOL    HW1 1184   0.373   1.062   1.193  0.9972 -0.7661 -0.9573
  395SOL    HW2 1185   0.216   1.053   1.223  1.2227  1.7322 -0.7972
  396SOL     OW 1186   2.229   1.176   2.633  0.2819  0.3387  0.3117
  396SOL    HW1 1187   2.160   1.245   2.663  2.8682 -0.6451  0.1713
  396SOL    HW2 1188   2.291   1.139   2.707  1.3732 -1.7497 -2.8368
  397SOL     OW 1189   2.965   0.684   2.674 -0.0543  0.1500  0.5585
  397SOL    HW1 1190   3.044   0.695   2.737 -0.9474 -0.7714  0.5786
  397SOL    HW2 1191   2.997   0.657   2.582 -2.1545 -0.2613 -1.2513
  398SOL     OW 1192   1.741   2.909   0.179 -0.0359  0.0635  0.3940
  398SOL    HW1 1193   1.811   2.882   0.244 -1.2591 -1.1954  1.0045
  398SOL    HW2 1194   1.654   2.928   0.230 -0.9607 -0.8063  0.6520
  399SOL     OW 1195   2.198   2.441   2.108 -0.2574  0.1611  0.3763
  399SOL    HW1 1196   2.255   2.415   2.184 -1.5445 -0.5595 -0.5846
  399SOL    HW2 1197   2.118   2.495   2.135  0.9563 -0.0895 -0.6997
  400SOL     OW 1198   0.180   2.053   2.295 -0.1701 -0.2556 -0.5866
  400SOL    HW1 1199   0.180   1.954   2.328 -0.6519 -3.6083 -2.4830
  400SOL    HW2 1200   0.121   2.056   2.216  0.7667  0.4852  1.0818
  401SOL     OW 1201   0.484   0.706   0.653 -0.0203  0.1762 -0.4047
  401SOL    HW1 1202   0.427   0.639   0.606 -1.0217 -0.2793 -0.3838
  401SOL    HW2 1203   0.422   0.782   0.686 -0.8252 -0.7296 -0.3585
  402SOL     OW 1204   0.763   2.891   2.106 -0.3581 -0.3778  0.5826
  402SOL    HW1 1205   0.782   2.937   2.197  2.4198 -2.6980  0.1611
  402SOL    HW2 1206   0.733   2.958   2.036  0.5701 -3.7598  2.0840
  403SOL     OW 1207   2.972   1.442   2.053  0.2785 -0.6774  0.3998
  403SOL    HW1 1208   3.000   1.347   2.061  0.6639  1.6428 -0.4530
  403SOL    HW2 1209   2.929   1.475   2.145  1.5108  1.0396  2.6265
  404SOL     OW 1210   2.982   2.038   2.521  0.3191 -0.1214  0.3545
  404SOL    HW1 1211   3.048   2.114   2.518  1.4121 -1.0266  0.8272
  404SOL    HW2 1212   2.894   2.062   2.569 -4.7600  2.0652  2.8898
  405SOL     OW 1213   2.321   0.090   2.571 -0.6539  0.0668 -0.1348
  405SOL    HW1 1214   2.227   0.129   2.594  1.3353 -1.4687  1.4720
  405SOL    HW2 1215   2.317   0.056   2.476 -2.3848 -1.2262  0.0592
  406SOL     OW 1216   1.571   2.554   0.594  0.5078 -0.4682  0.6985
  406SOL    HW1 1217   1.479   2.535   0.549 -1.2706 -1.0864  0.2593
  406SOL    HW2 1218   1.635   2.481   0.568 -1.4351 -2.5031  0.7424
  407SOL     OW 1219   1.669   1.315   0.202 -0.1239 -0.3177  0.8688
  407SOL    HW1 1220   1.658   1.369   0.120  0.2116 -0.2724  2.3831
  407SOL    HW2 1221   1.578   1.296   0.238  1.0157 -1.5554  2.1903
  408SOL     OW 1222   0.084   0.933   1.930  0.4078 -0.0991 -0.5330
  408SOL    HW1 1223   0.030   0.850   1.916  0.6841 -1.6148 -4.8243
  408SOL    HW2 1224   0.030   0.998   1.984 -0.0619  0.0089  0.4819
  409SOL     OW 1225   2.926   1.191   2.852  0.0034 -0.3364 -0.3448
  409SOL    HW1 1226   2.893   1.132   2.774 -1.1079 -1.2012 -3.5490
  409SOL    HW2 1227   2.874   1.172   2.937 -3.9212  0.9384  0.8034
  410SOL     OW 1228   2.775   1.767   0.996  0.4510 -0.0075  0.4239
  410SOL    HW1 1229   2.843   1.790   0.930  1.7412 -2.4886 -0.8499
  410SOL    HW2 1230   2.693   1.733   0.949  2.0240 -0.1784  1.9757
  411SOL     OW 1231   2.989   0.550   0.344  0.3199 -0.1871  0.1819
  411SOL    HW1 1232   3.015   0.639   0.388 -0.3070  1.7631 -3.8320
  411SOL    HW2 1233   2.910   0.500   0.387  0.2622 -0.7063 -0.4698
  412SOL     OW 1234   1.782   0.134   0.332  0.0943  0.6024 -0.0040
  412SOL    HW1 1235   1.829   0.059   0.388  0.6649 -2.6528  1.7414
  412SOL    HW2 1236   1.832   0.153   0.246 -0.9721 -0.8109 -0.6551
  413SOL     OW 1237   1.225   0.330   1.866 -0.1762  0.0044  0.0451
  413SOL    HW1 1238   1.258   0.349   1.959  0.6125 -0.7108  1.9520
  413SOL    HW2 1239   1.274   0.250   1.824  0.6314 -2.4883  1.1449
  414SOL     OW 1240   0.412   0.995   0.187  0.4676  0.7357 -0.0104
  414SOL    HW1 1241   0.359   1.071   0.224  1.6879  0.3567  0.3848
  414SOL    HW2 1242   0.476   0.961   0.258 -3.5304  3.5903 -0.0146
  415SOL     OW 1243   2.958   1.254   0.361 -0.0882  0.2354  0.2901
  415SOL    HW1 1244   2.919   1.348   0.377  0.3855 -4.4875 -1.7666
  415SOL    HW2 1245   3.003   1.223   0.445 -0.7181  0.8989 -0.2381
  416SOL     OW 1246   2.518   0.808   0.153 -0.9162 -0.0568  0.2110
  416SOL    HW1 1247   2.486   0.738   0.091  2.1170  0.1529  2.0605
  416SOL    HW2 1248   2.619   0.818   0.133 -0.2642  3.4657 -1.3133
  417SOL     OW 1249   2.876   2.763   0.123 -0.1810  0.3340 -0.5060
  417SOL    HW1 1250   2.795   2.815   0.081  1.8412 -0.3638 -0.6767
  417SOL    HW2 1251   2.908   2.685   0.068 -1.1446 -1.5264 -0.8844
  418SOL     OW 1252   2.972   0.452   0.086  0.3345 -0.2763  0.7257
  418SOL    HW1 1253   2.966   0.489   0.179 -1.3080 -2.7037 -1.6368
  418SOL    HW2 1254   2.893   0.496   0.034 -1.1357  3.2400 -1.3222
  419SOL     OW 1255   0.692   0.765   0.821  0.3943 -0.0081  0.2292
  419SOL    HW1 1256   0.626   0.735   0.751  0.2068  0.6377 -0.7453
  419SOL    HW2 1257   0.645   0.798   0.905  0.5544 -2.4865  1.4238
  420SOL     OW 1258   0.348   0.900   0.816  0.0415  0.0854 -0.4757
  420SOL    HW1 1259   0.255   0.854   0.836 -0.1990 -0.7469  1.9503
  420SOL    HW2 1260   0.407   0.891   0.899  1.7206  0.0165  3.0107
  421SOL     OW 1261   0.317   1.932   0.557  0.2477  0.2951 -0.1870
  421SOL    HW1 1262   0.362   1.908   0.464 -0.3806 -0.8688 -0.9516
  421SOL    HW2 1263   0.236   1.985   0.534  2.2224 -2.5539 -0.6790
  422SOL     OW 1264   2.447   0.119   1.634 -0.4006  0.7246 -0.3355
  422SOL    HW1 1265   2.430   0.036   1.690 -0.1332  2.7615 -0.2855
  422SOL    HW2 1266   2.375   0.188   1.642  0.5245 -4.2467  1.2844
  423SOL     OW 1267   1.852   1.729   0.079  0.3877  0.0226 -0.0725
  423SOL    HW1 1268   1.878   1.715   0.178  1.7561 -0.5832  3.3053
  423SOL    HW2 1269   1.934   1.723   0.019 -0.3544  2.7871 -1.3881
  424SOL     OW 1270   1.720   1.756   2.803  0.0838  0.1010 -0.1136
  424SOL    HW1 1271   1.738   1.768   2.702  3.8266  0.0008 -1.7693
  424SOL    HW2 1272   1.794   1.706   2.853  0.6966 -0.1324  2.1937
  425SOL     OW 1273   0.204   0.178   1.944  0.2301  0.5798 -0.0656
  425SOL    HW1 1274   0.173   0.089   1.905  3.4600 -0.7335 -2.5042
  425SOL    HW2 1275   0.253   0.234   1.876  0.2161 -0.5933  1.5195
  426SOL     OW 1276   2.178   2.684   0.160  0.0573 -0.3721  0.6389
  426SOL    HW1 1277   2.123   2.745   0.218  0.4443 -2.2985 -2.1881
  426SOL    HW2 1278   2.114   2.652   0.088 -2.4278 -0.2818  2.0559
  427SOL     OW 1279   0.458   1.733   2.507  0.0186 -0.3381  0.0577
  427SOL    HW1 1280   0.513   1.790   2.438  1.1240 -0.4589 -5.0056
  427SOL    HW2 1281   0.433   1.646   2.461 -0.8672 -0.9456 -3.4332
  428SOL     OW 1282   2.141   1.647   2.651  0.0130  0.4313 -0.4940
  428SOL    HW1 1283   2.183   1.632   2.558 -1.3004 -0.4813  2.5803
  428SOL    HW2 1284   2.107   1.555   2.690  1.0525 -0.6845  2.9904
  429SOL     OW 1285   2.248   3.000   0.444  0.3150  0.5228 -0.5788
  429SOL    HW1 1286   2.235   3.009   0.542 -2.9850 -0.7990 -1.0192
  429SOL    HW2 1287   2.315   2.925   0.424 -3.0514  0.8694  1.1628
  430SOL     OW 1288   1.747   1.816   2.057 -0.5955 -0.3747  0.2745
  430SOL    HW1 1289   1.686   1.855   1.983 -2.6555  2.3040 -2.7059
  430SOL    HW2 1290   1.820   1.879   2.088  0.4419 -0.0243 -1.6627
  431SOL     OW 1291   3.073   1.874   1.846 -0.3993 -1.0243  0.2047
  431SOL    HW1 1292   2.990   1.861   1.788 -0.2069 -1.7487 -1.1125
  431SOL    HW2 1293   0.029   1.842   1.790  0.3088  0.3202  2.2371
  432SOL     OW 1294   1.185   2.393   2.301 -0.2547  0.2523 -0.5291
  432SOL    HW1 1295   1.113   2.381   2.229  2.7295  0.1547 -1.2040
  432SOL    HW2 1296   1.261   2.330   2.289 -0.7478  2.5559 -0.8261
  433SOL     OW 1297   0.984   2.856   0.937 -0.2724 -0.2691 -0.6529
  433SOL    HW1 1298   1.042   2.798   0.872  1.6615 -0.0532 -4.0067
  433SOL    HW2 1299   0.973   2.948   0.897 -1.7826 -1.2436 -0.2468
  434SOL     OW 1300   0.396   2.224   2.390 -0.1076 -0.0282 -0.0176
  434SOL    HW1 1301   0.337   2.151   2.350 -1.1050 -1.9641 -1.5220
  434SOL    HW2 1302   0.476   2.242   2.333  2.0603 -0.0530  0.7908
  435SOL     OW 1303   0.255   1.572   0.486 -0.0183  0.1366 -0.1461
  435SOL    HW1 1304   0.159   1.540   0.466  1.6919  1.1369  0.2664
  435SOL    HW2 1305   0.248   1.660   0.536 -2.4967 -0.1247 -2.6339
  436SOL     OW 1306   0.698   2.130   1.850  0.3089  0.4188 -0.5857
  436SOL    HW1 1307   0.609   2.092   1.881  1.2553  0.6585  0.7542
  436SOL    HW2 1308   0.686   2.200   1.778 -0.7150  0.4797  0.4733
  437SOL     OW 1309   1.028   0.564   0.404 -0.2155 -0.8587  0.3963
  437SOL    HW1 1310   1.020   0.591   0.503  1.5307 -1.1467 -0.9481
  437SOL    HW2 1311   1.124   0.582   0.368  0.3164  1.2856  1.9086
  438SOL     OW 1312   0.474   2.035   0.979 -0.5812  0.1455  1.1111
  438SOL    HW1 1313   0.400   1.972   0.960  0.9430  1.0955  0.2898
  438SOL    HW2 1314   0.558   2.005   0.932 -1.5731 -0.0170  0.2252
  439SOL     OW 1315   1.263   2.330   1.977  0.2625  0.3085 -0.0722
  439SOL    HW1 1316   1.284   2.295   1.887 -2.5168  0.5439 -1.2975
  439SOL    HW2 1317   1.183   2.386   1.961  3.4654 -2.2743 -1.0444
  440SOL     OW 1318   1.658   0.296   1.464  0.0118 -0.2300 -0.1678
  440SOL    HW1 1319   1.669   0.298   1.566  0.6897 -0.6316 -0.8075
  440SOL    HW2 1320   1.703   0.367   1.413  0.4213 -1.3394  1.3365
  441SOL     OW 1321   0.500   0.064   1.421  0.3460 -0.4587 -0.0158
  441SOL    HW1 1322   0.424   0.097   1.480 -0.4687  0.9137  0.6293
  441SOL    HW2 1323   0.539   3.099   1.446  0.0808  0.6284 -0.4124
  442SOL     OW 1324   2.102   1.885   0.634 -0.3426 -0.3227  0.5732
  442SOL    HW1 1325   2.001   1.877   0.620 -1.7487  0.4959 -2.9383
  442SOL    HW2 1326   2.155   1.927   0.557 -0.6563 -0.0567 -1.3208
  443SOL     OW 1327   2.703   0.386   2.541 -0.3458  0.4218 -0.4111
  443SOL    HW1 1328   2.603   0.410   2.544  0.6453 -2.5416 -1.5783
  443SOL    HW2 1329   2.760   0.442   2.479  0.7889  2.4546 -0.7868
  444SOL     OW 1330   2.152   1.406   2.146 -0.2638 -0.1536  0.3164
  444SOL    HW1 1331   2.099   1.377   2.228 -0.9341 -1.8346  0.1095
  444SOL    HW2 1332   2.216   1.333   2.114  0.8907  2.2205 -0.5398
  445SOL     OW 1333   2.658   2.117   1.444  0.3402 -0.2327 -0.1255
  445SOL    HW1 1334   2.567   2.119   1.491 -2.1518 -1.5501 -1.2997
  445SOL    HW2 1335   2.700   2.027   1.458 -1.4236 -0.8128  0.7939
  446SOL     OW 1336   0.137   0.910   0.393  0.0279  0.0392  0.1783
  446SOL    HW1 1337   0.223   0.937   0.441 -1.0413 -0.0624 -0.0357
  446SOL    HW2 1338   0.142   0.958   0.303  0.1113  0.6458 -2.1499
  447SOL     OW 1339   0.725   1.590   0.961  0.3056  0.1858  0.0951
  447SOL    HW1 1340   0.814   1.557   0.928  1.0661  0.9302  0.8961
  447SOL    HW2 1341   0.668   1.624   0.886  1.7600  0.9007  2.2218
  448SOL     OW 1342   1.464   1.267   2.080  0.3183 -0.3692 -0.0290
  448SOL    HW1 1343   1.478   1.250   1.976 -1.7903 -1.2815 -1.8705
  448SOL    HW2 1344   1.378   1.217   2.103  0.4876 -0.9218 -3.7240
  449SOL     OW 1345   0.281   1.717   0.184  0.1928 -0.3125 -0.1248
  449SOL    HW1 1346   0.188   1.680   0.179 -2.7311 -1.8052 -1.0192
  449SOL    HW2 1347   0.318   1.740   0.097 -0.5047 -0.6158  2.6202
  450SOL     OW 1348   2.627   2.234   2.041  0.2656 -0.2532 -0.1291
  450SOL    HW1 1349   2.553   2.301   2.024 -2.7182 -0.6976  2.2639
  450SOL    HW2 1350   2.659   2.243   2.136 -2.2128  1.4941  1.6763
  451SOL     OW 1351   2.156   0.393   2.182 -0.3322 -0.6078 -0.4109
  451SOL    HW1 1352   2.124   0.398   2.277 -1.7537 -0.3351 -5.2489
  451SOL    HW2 1353   2.085   0.369   2.117  1.9584 -0.0336  0.8018
  452SOL     OW 1354   1.086   0.032   1.212 -0.2776 -0.3165 -0.5983
  452SOL    HW1 1355   1.068   3.057   1.222 -0.7198  3.1444 -0.5686
  452SOL    HW2 1356   1.031   0.077   1.282  2.6173 -1.6398 -1.7864
  453SOL     OW 1357   1.009   1.340   1.166 -0.4137 -0.5829 -0.2422
  453SOL    HW1 1358   0.937   1.280   1.130  0.6150 -0.3367 -1.2151
  453SOL    HW2 1359   0.960   1.423   1.205  0.4029  0.8339 -0.5606
  454SOL     OW 1360   0.042   1.041   0.646  0.2053  0.6084 -0.2709
  454SOL    HW1 1361   0.043   1.132   0.606 -1.2090 -0.0739 -0.3279
  454SOL    HW2 1362   0.078   0.972   0.585 -1.4143  1.8836  0.6368
  455SOL     OW 1363   0.034   2.804   0.269 -0.2013 -0.3724  0.6005
  455SOL    HW1 1364   3.079   2.824   0.214 -0.3627  0.1470  1.7327
  455SOL    HW2 1365   0.118   2.829   0.214  2.4020 -1.3118  0.0754
  456SOL     OW 1366   2.171   2.305   0.786 -0.1903 -0.4245  0.0289
  456SOL    HW1 1367   2.156   2.346   0.877 -2.6934  1.1870 -1.6694
  456SOL    HW2 1368   2.107   2.222   0.776  1.4866  0.3685 -0.9581
  457SOL     OW 1369   1.587   0.136   0.089  0.1022 -0.3368 -0.0959
  457SOL    HW1 1370   1.676   0.166   0.135  0.9523 -1.1324  0.4984
  457SOL    HW2 1371   1.511   0.183   0.141  2.0615 -0.8361  2.5920
  458SOL     OW 1372   2.782   2.784   0.414  0.1728 -0.0267 -0.2581
  458SOL    HW1 1373   2.848   2.837   0.471  0.1007  1.0571 -1.4368
  458SOL    HW2 1374   2.805   2.780   0.315 -1.7932 -1.2024 -0.5553
  459SOL     OW 1375   2.101   0.228   2.665 -0.0940  0.0924 -0.2514
  459SOL    HW1 1376   2.001   0.239   2.668  0.3136  2.8442  1.3842
  459SOL    HW2 1377   2.148   0.248   2.755 -0.7469  1.2692  1.8459
  460SOL     OW 1378   2.927   3.091   3.046  0.7714 -0.6530 -0.5835
  460SOL    HW1 1379   2.985   0.012   3.117  0.3531  0.4291 -0.2916
  460SOL    HW2 1380   2.872   3.020   3.094 -2.4903  1.2023  2.1921
  461SOL     OW 1381   0.634   1.368   1.336 -0.4163 -0.2881 -0.8806
  461SOL    HW1 1382   0.537   1.340   1.354  1.2486 -1.0629 -0.8101
  461SOL    HW2 1383   0.636   1.455   1.278  0.5287  0.2607  0.3407
  462SOL     OW 1384   2.773   2.970   1.692  0.3480 -0.3575  0.2525
  462SOL    HW1 1385   2.797   2.879   1.709 -1.0276  2.9225  2.2790
  462SOL    HW2 1386   2.802   3.027   1.771  1.2232 -0.8454 -1.3967
  463SOL     OW 1387   2.755   1.170   3.103  0.0725 -0.1108  0.4722
  463SOL    HW1 1388   2.689   1.180   0.054 -0.3885 -3.7481 -2.7238
  463SOL    HW2 1389   2.722   1.106   3.035 -0.6479  0.4879  1.9439
  464SOL     OW 1390   0.032   2.516   1.066 -0.1892 -0.6127  0.0139
  464SOL    HW1 1391   0.110   2.447   1.058  1.3001 -1.0790  0.0891
  464SOL    HW2 1392   0.072   2.595   1.109 -0.2047  1.5635  1.4297
  465SOL     OW 1393   0.338   1.014   0.536  0.2524 -0.5252 -0.2116
  465SOL    HW1 1394   0.329   1.117   0.518 -0.4851  2.8451 -2.5198
  465SOL    HW2 1395   0.338   0.995   0.634  0.8730 -0.1691  1.0457
  466SOL     OW 1396   1.431   0.155   2.259  0.0857 -0.0105  0.3095
  466SOL    HW1 1397   1.439   0.077   2.196  0.1012 -0.5175 -0.4942
  466SOL    HW2 1398   1.469   0.119   2.350  1.8324 -3.3124  3.6364
  467SOL     OW 1399   0.758   0.538   2.190  0.9444 -0.6368 -0.3322
  467SOL    HW1 1400   0.723   0.519   2.099  2.0666  0.5982 -0.1264
  467SOL    HW2 1401   0.716   0.629   2.221 -0.2220  0.8115  0.7962
  468SOL     OW 1402   0.006   1.197   2.244  0.2049 -0.5552 -0.0040
  468SOL    HW1 1403   3.117   1.233   2.335 -0.1754 -0.6266 -0.4180
  468SOL    HW2 1404   0.090   1.235   2.204 -2.2998 -0.1428 -2.6036
  469SOL     OW 1405   0.248   1.769   0.750 -0.3708  0.3885 -0.1116
  469SOL    HW1 1406   0.279   1.841   0.685  2.4961 -2.9371 -0.7768
  469SOL    HW2 1407   0.257   1.809   0.844 -1.0554 -2.4289  3.0655
  470SOL     OW 1408   2.804   1.784   2.515 -0.3692  0.0670  0.1480
  470SOL    HW1 1409   2.795   1.854   2.587 -0.0426  1.6551 -1.3600
  470SOL    HW2 1410   2.727   1.806   2.454 -4.2566  0.8052  1.8353
  471SOL     OW 1411   1.602   0.955   2.133 -0.0423  0.0854 -0.2892
  471SOL    HW1 1412   1.680   0.894   2.117 -2.4259  1.8369  0.0510
  471SOL    HW2 1413   1.621   1.053   2.158  0.6766  2.0789 -0.8192
  472SOL     OW 1414   0.797   2.821   1.301 -0.1324  0.7390 -0.1431
  472SOL    HW1 1415   0.776   2.740   1.361 -2.3186  1.3406  0.7013
  472SOL    HW2 1416   0.758   2.815   1.206  0.5394 -0.7400  0.1480
  473SOL     OW 1417   0.604   0.238   2.606 -0.8593 -0.3722 -0.3333
  473SOL    HW1 1418   0.588   0.288   2.517 -0.2910  3.1928  0.0590
  473SOL    HW2 1419   0.619   0.136   2.601  2.6923  2.2828 -0.8775
  474SOL     OW 1420   1.767   0.088   1.354  0.4184 -0.1738  0.1827
  474SOL    HW1 1421   1.727   0.172   1.388 -1.9928 -1.9013  0.2755
  474SOL    HW2 1422   1.816   0.105   1.265 -1.0066 -2.0736  1.0775
  475SOL     OW 1423   2.075   0.321   1.006  0.2627  0.6601 -0.1610
  475SOL    HW1 1424   2.024   0.410   1.003 -1.2799  1.1439  0.1458
  475SOL    HW2 1425   2.179   0.324   1.006  1.2603 -0.8663 -1.0736
  476SOL     OW 1426   0.510   0.859   1.025  0.7386 -0.1398  0.0263
  476SOL    HW1 1427   0.519   0.951   1.065 -0.7931  0.9807 -1.0673
  476SOL    HW2 1428   0.531   0.793   1.095 -2.7343 -1.7333  1.3907
  477SOL     OW 1429   1.229   2.742   0.496  0.2919  0.3667 -0.0320
  477SOL    HW1 1430   1.155   2.744   0.431 -2.2900 -0.1199  0.5811
  477SOL    HW2 1431   1.258   2.832   0.533 -2.5575  2.2435 -0.0532
  478SOL     OW 1432   0.332   2.556   2.452 -0.4918  0.3687  0.2174
  478SOL    HW1 1433   0.391   2.625   2.496 -1.0922  0.1722 -1.7822
  478SOL    HW2 1434   0.375   2.464   2.443  0.5909 -0.6347 -0.9051
  479SOL     OW 1435   2.761   0.096   1.265 -0.0040 -0.4538  0.0151
  479SOL    HW1 1436   2.682   0.112   1.324  2.4676  0.8630  0.6526
  479SOL    HW2 1437   2.736   0.094   1.162 -0.1685 -0.7656 -1.1200
  480SOL     OW 1438   0.490   2.335   0.534  0.3016  0.2542  0.4676
  480SOL    HW1 1439   0.560   2.310   0.467  1.3223  1.3403  1.7360
  480SOL    HW2 1440   0.420   2.396   0.490 -0.6856  0.7309  1.2609
  481SOL     OW 1441   1.998   2.144   1.330 -0.2100 -0.1351  0.0240
  481SOL    HW1 1442   1.973   2.186   1.417 -2.0832 -1.9002  1.6415
  481SOL    HW2 1443   1.943   2.173   1.251  0.3989  0.7253 -1.1082
  482SOL     OW 1444   1.116   2.437   3.019  0.1524  0.4839  0.4146
  482SOL    HW1 1445   1.130   2.393   3.114  0.4160 -0.0896  0.6717
  482SOL    HW2 1446   1.014   2.419   2.997 -2.4264  3.3097 -1.2663
  483SOL     OW 1447   0.988   2.364   2.091  0.3137 -0.2650 -0.1224
  483SOL    HW1 1448   1.004   2.446   2.041  0.5317 -0.9428  1.2681
  483SOL    HW2 1449   0.969   2.289   2.029 -1.7264  0.0817 -0.6288
  484SOL     OW 1450   1.157   0.762   1.539  0.0198 -0.1051 -0.0543
  484SOL    HW1 1451   1.194   0.678   1.495  1.3873 -2.1522  0.2728
  484SOL    HW2 1452   1.127   0.830   1.471 -2.2586 -1.9301  1.7172
  485SOL     OW 1453   1.673   0.683   2.806 -0.6451 -0.0428 -0.0698
  485SOL    HW1 1454   1.735   0.764   2.787  0.2846  0.4571  0.2669
  485SOL    HW2 1455   1.668   0.624   2.726 -0.0345  0.4134  1.3046
  486SOL     OW 1456   2.504   2.567   0.997  0.4221  0.1312  0.1106
  486SOL    HW1 1457   2.564   2.540   0.923  1.2870  2.1994  0.9448
  486SOL    HW2 1458   2.506   2.671   0.995  1.0906  3.4358  2.0271
  487SOL     OW 1459   0.693   2.245   1.351 -0.0276 -0.4493  0.5941
  487SOL    HW1 1460   0.780   2.291   1.344 -1.4142 -1.4230 -1.4614
  487SOL    HW2 1461   0.656   2.233   1.446 -1.6017 -1.1682  1.8663
  488SOL     OW 1462   2.248   1.948   0.042 -0.0511  0.2793  0.1289
  488SOL    HW1 1463   2.314   1.926   0.114  0.6795  0.9702 -2.7425
  488SOL    HW2 1464   2.293   1.991   3.091 -0.4304 -0.4474  0.2262
  489SOL     OW 1465   2.090   3.036   1.006 -0.4460  0.7570  0.5534
  489SOL    HW1 1466   2.129   3.103   0.942 -1.8065  0.3625  2.0776
  489SOL    HW2 1467   2.149   2.958   1.039  1.5975 -0.2132 -1.3816
  490SOL     OW 1468   0.854   1.638   0.220  0.3046 -0.2486  0.8334
  490SOL    HW1 1469   0.841   1.725   0.279  2.3621  0.2196  1.7819
  490SOL    HW2 1470   0.944   1.646   0.171  1.5467 -1.5328 -0.7728
  491SOL     OW 1471   0.125   2.023   1.413  0.3174 -0.3128  0.1536
  491SOL    HW1 1472   0.031   2.052   1.439  0.4151  0.0265  1.2676
  491SOL    HW2 1473   0.187   2.044   1.489  3.9426  0.9272  0.0829
  492SOL     OW 1474   0.741   1.666   1.739  0.2446 -0.1886 -0.0429
  492SOL    HW1 1475   0.742   1.574   1.690  1.7903  0.1256  0.2472
  492SOL    HW2 1476   0.779   1.740   1.679  0.9158 -1.2313  1.3524
  493SOL     OW 1477   2.802   2.245   0.824  0.3456  0.3100 -0.2668
  493SOL    HW1 1478   2.736   2.176   0.793  0.4656 -0.1160 -0.7129
  493SOL    HW2 1479   2.852   2.220   0.908  1.0537 -0.4457  0.0856
  494SOL     OW 1480   2.671   2.002   0.725 -0.4268 -0.2445  0.4837
  494SOL    HW1 1481   2.604   1.976   0.797  0.9234 -0.7457  1.1119
  494SOL    HW2 1482   2.739   1.929   0.712 -2.2369  0.1760  1.1426
  495SOL     OW 1483   2.683   2.926   0.026 -0.3910  0.2392 -0.2239
  495SOL    HW1 1484   2.604   2.887   3.105  2.6060  2.1196 -0.8117
  495SOL    HW2 1485   2.664   3.019   0.052 -1.8265 -0.8718 -0.2389
  496SOL     OW 1486   2.549   2.855   1.014  0.1963 -0.3454  0.7819
  496SOL    HW1 1487   2.512   2.916   0.946  1.5071  0.2018  3.1550
  496SOL    HW2 1488   2.646   2.874   1.029  1.1316 -2.6332 -3.1226
  497SOL     OW 1489   2.597   1.161   2.616  0.6002  0.1006 -0.0134
  497SOL    HW1 1490   2.684   1.123   2.589 -1.7023 -1.2637  1.4532
  497SOL    HW2 1491   2.565   1.232   2.552 -3.4299  0.3704  0.2932
  498SOL     OW 1492   2.882   2.070   1.023  0.1207  0.1047 -0.1462
  498SOL    HW1 1493   2.907   2.156   1.067  0.8740 -0.3701 -1.5783
  498SOL    HW2 1494   2.787   2.036   1.035 -0.8886  2.0157  0.2513
  499SOL     OW 1495   0.815   2.464   2.687  0.6887 -0.4254 -0.3965
  499SOL    HW1 1496   0.823   2.368   2.662 -2.2896  1.9832 -0.0651
  499SOL    HW2 1497   0.903   2.493   2.731  0.2340  4.7530  2.1590
  500SOL     OW 1498   1.721   1.002   0.300 -0.3857  0.1196  0.8677
  500SOL    HW1 1499   1.646   1.070   0.305  1.7858 -0.3879  1.8929
  500SOL    HW2 1500   1.714   0.934   0.374  0.0369  3.9224  1.6603
  501SOL     OW 1501   1.621   0.295   1.765 -0.1176 -0.2938  0.1814
  501SOL    HW1 1502   1.577   0.281   1.855  0.9567  0.0035  0.4358
  501SOL    HW2 1503   1.712   0.249   1.776 -1.0010  1.5742 -2.1054
  502SOL     OW 1504   2.468   0.739   1.541 -0.0400 -0.5627  0.2169
  502SOL    HW1 1505   2.547   0.682   1.504 -0.1681  0.7118  2.6665
  502SOL    HW2 1506   2.460   0.703   1.637 -2.1643 -0.8404 -1.4889
  503SOL     OW 1507   2.443   1.657   2.159  0.4780  0.0925 -0.5129
  503SOL    HW1 1508   2.351   1.685   2.117  1.7718 -0.9073  1.1129
  503SOL    HW2 1509   2.479   1.583   2.096  0.5716 -2.3144  0.4440
  504SOL     OW 1510   1.451   1.237   1.805  0.7642 -0.2661 -0.0298
  504SOL    HW1 1511   1.535   1.217   1.753  0.5274 -1.7574  1.2074
  504SOL    HW2 1512   1.380   1.288   1.754 -2.1710  3.6470 -0.0382
  505SOL     OW 1513   0.513   0.544   1.498  0.6518 -0.2571 -0.3286
  505SOL    HW1 1514   0.425   0.523   1.453  1.1781 -1.4547 -0.7690
  505SOL    HW2 1515   0.486   0.596   1.581  0.8555 -4.4826 -1.5447
  506SOL     OW 1516   0.393   0.386   3.069 -0.4721 -0.5415 -0.1817
  506SOL    HW1 1517   0.299   0.413   3.100 -2.0420  0.2361 -1.6745
  506SOL    HW2 1518   0.409   0.371   2.970 -0.3197  2.2320  2.7041
  507SOL     OW 1519   0.739   3.099   0.066  0.4778 -0.0928 -0.2029
  507SOL    HW1 1520   0.695   0.001   3.103  0.8137  2.1261  0.2994
  507SOL    HW2 1521   0.761   0.058   0.118 -0.5506 -0.1251  0.9822
  508SOL     OW 1522   0.833   0.767   1.945 -0.2775  0.2009 -0.1159
  508SOL    HW1 1523   0.767   0.698   1.964 -0.1887  3.6346  1.1798
  508SOL    HW2 1524   0.882   0.803   2.026  0.8951 -0.3844 -2.1353
  509SOL     OW 1525   1.469   2.208   1.098  0.8922 -0.3158 -0.0611
  509SOL    HW1 1526   1.510   2.234   1.190 -0.7951 -0.1224  0.8013
  509SOL    HW2 1527   1.528   2.242   1.018  2.3717 -0.4155 -0.7475
  510SOL     OW 1528   2.958   1.468   1.344  0.5996  0.5700  0.2160
  510SOL    HW1 1529   2.884   1.493   1.408  1.2993 -3.6502 -3.2566
  510SOL    HW2 1530   2.924   1.393   1.280  0.2806  0.1682 -1.0585
  511SOL     OW 1531   1.145   1.993   1.256  0.9573 -0.2407 -0.2458
  511SOL    HW1 1532   1.210   2.041   1.312 -1.1358 -0.3585  4.6398
  511SOL    HW2 1533   1.154   2.021   1.158  2.1201  0.8049 -0.6397
  512SOL     OW 1534   2.856   1.542   0.518  0.3785 -0.5755  0.2709
  512SOL    HW1 1535   2.781   1.490   0.564  1.8241  1.7957  0.2138
  512SOL    HW2 1536   2.821   1.585   0.428  0.1913  0.9988 -2.2866
  513SOL     OW 1537   0.061   1.584   2.911 -0.5170 -0.2005 -0.1832
  513SOL    HW1 1538   0.108   1.654   2.855 -2.2739 -0.7377  2.0820
  513SOL    HW2 1539   0.003   1.632   2.980 -1.2079  0.2258 -2.8412
  514SOL     OW 1540   2.313   2.324   2.684  0.3427  0.0275  0.0031
  514SOL    HW1 1541   2.230   2.266   2.675 -1.3060 -1.1889  1.7370
  514SOL    HW2 1542   2.344   2.364   2.597  0.1619 -0.2175  1.9591
  515SOL     OW 1543   2.379   0.944   0.653  0.0798  0.3129  0.1326
  515SOL    HW1 1544   2.370   0.892   0.737  2.5824  0.7446 -0.2132
  515SOL    HW2 1545   2.431   0.885   0.588  0.0293 -0.7065 -1.9726
  516SOL     OW 1546   2.703   2.198   0.086 -0.1593  0.5559  0.4094
  516SOL    HW1 1547   2.622   2.253   0.093  1.1283 -1.8454 -1.2057
  516SOL    HW2 1548   2.747   2.227   3.126 -2.9390  4.4276  1.7652
  517SOL     OW 1549   0.583   1.569   2.869  0.1571  0.4984  0.0024
  517SOL    HW1 1550   0.595   1.664   2.834 -1.4431  2.9149  0.2521
  517SOL    HW2 1551   0.504   1.569   2.928  1.4525 -0.0450  0.1395
  518SOL     OW 1552   2.837   0.152   2.409 -0.2216  0.7193 -0.0595
  518SOL    HW1 1553   2.806   0.248   2.425  2.1299 -0.3537  1.8240
  518SOL    HW2 1554   2.788   0.084   2.468 -0.0860  0.7438 -2.4978
  519SOL     OW 1555   1.713   1.161   2.977 -0.0751 -0.1899  0.3969
  519SOL    HW1 1556   1.651   1.081   2.998 -0.9446  0.5208 -0.7111
  519SOL    HW2 1557   1.666   1.249   2.966  1.3382 -1.7993 -0.6485
  520SOL     OW 1558   2.853   2.872   2.343 -0.1498  0.1759  0.6486
  520SOL    HW1 1559   2.802   2.951   2.376  1.1028  1.5441 -0.2864
  520SOL    HW2 1560   2.900   2.815   2.413  3.0332  1.7119  2.1402
  521SOL     OW 1561   0.609   1.895   2.348  0.2470  0.1276  0.5567
  521SOL    HW1 1562   0.691   1.832   2.342 -1.7167 -2.3584 -0.2734
  521SOL    HW2 1563   0.635   1.987   2.369  1.2542  0.8378 -1.3559
  522SOL     OW 1564   1.249   2.939   2.085 -0.6412  0.0831 -0.0604
  522SOL    HW1 1565   1.218   2.935   2.183 -2.0908  1.2520  2.4286
  522SOL    HW2 1566   1.279   2.849   2.049  0.0039  0.3873  1.4593
  523SOL     OW 1567   2.174   2.062   1.022  0.5456  0.2602  0.0401
  523SOL    HW1 1568   2.271   2.074   0.987  1.5139  0.2924 -1.3935
  523SOL    HW2 1569   2.181   2.066   1.126 -1.3732  0.2723  1.4445
  524SOL     OW 1570   1.229   2.089   0.706  0.2138 -0.5755 -0.4036
  524SOL    HW1 1571   1.323   2.124   0.688  3.2917 -0.0735  0.5318
  524SOL    HW2 1572   1.159   2.152   0.663  0.1462  1.4398 -3.6624
  525SOL     OW 1573   2.699   0.553   0.555  0.3603 -0.4672  0.1207
  525SOL    HW1 1574   2.645   0.518   0.630  1.2659  1.2583 -0.9530
  525SOL    HW2 1575   2.748   0.640   0.581 -0.2676 -4.6395 -1.6122
  526SOL     OW 1576   1.776   2.990   0.760 -0.3264 -0.1836  0.8639
  526SOL    HW1 1577   1.701   2.945   0.710  2.2001 -0.0901  0.5802
  526SOL    HW2 1578   1.741   3.046   0.838 -1.8986 -0.6976 -1.7286
  527SOL     OW 1579   1.900   1.621   0.939 -0.2385 -0.2333 -0.7804
  527SOL    HW1 1580   1.845   1.691   0.993 -0.2544  3.2728  2.5360
  527SOL    HW2 1581   1.991   1.653   0.909  1.8516 -1.7952 -0.2138
  528SOL     OW 1582   3.016   2.731   2.498  0.3305 -0.8654 -0.1475
  528SOL    HW1 1583   3.086   2.708   2.428  0.6237 -2.5317 -0.7916
  528SOL    HW2 1584   3.052   2.720   2.590  1.5347  1.2639 -1.2562
  529SOL     OW 1585   1.061   1.454   2.576  0.6226 -0.6246 -0.2007
  529SOL    HW1 1586   1.087   1.498   2.666  0.6030  1.0118 -0.5884
  529SOL    HW2 1587   0.961   1.479   2.571 -2.4563  1.9130  0.8662
  530SOL     OW 1588   2.031   1.282   2.365  0.0613  0.0089 -0.1299
  530SOL    HW1 1589   1.945   1.330   2.360  1.5986 -1.4734 -1.4555
  530SOL    HW2 1590   2.020   1.188   2.336 -0.3255 -1.4931 -0.5617
  531SOL     OW 1591   0.279   0.884   3.122 -0.8998  0.1526 -0.2057
  531SOL    HW1 1592   0.334   0.918   0.072  0.2282 -0.4583  0.1230
  531SOL    HW2 1593   0.185   0.909   0.017  2.8690  0.7171 -1.4822
  532SOL     OW 1594   1.696   1.138   0.699 -0.2276 -0.4619 -0.3390
  532SOL    HW1 1595   1.629   1.080   0.743 -0.9057 -0.9399 -1.7306
  532SOL    HW2 1596   1.678   1.236   0.720  1.0512 -1.8998 -0.4881
  533SOL     OW 1597   0.139   0.489   2.392  0.8191  0.3718 -0.0345
  533SOL    HW1 1598   0.134   0.389   2.413 -1.2815  2.6136  2.5975
  533SOL    HW2 1599   0.239   0.508   2.375 -1.4034  1.6629  0.0400
  534SOL     OW 1600   1.266   0.619   2.527 -0.2012  0.3019 -0.5183
  534SOL    HW1 1601   1.182   0.574   2.568 -0.9510 -0.5758 -0.4576
  534SOL    HW2 1602   1.272   0.722   2.538 -0.2142  1.0157 -1.5355
  535SOL     OW 1603   0.627   0.426   0.129  0.2990  0.3900 -0.2509
  535SOL    HW1 1604   0.643   0.529   0.146 -0.1088  1.6715 -1.0143
  535SOL    HW2 1605   0.532   0.403   0.150  2.4089 -1.5721 -1.2449
  536SOL     OW 1606   0.786   0.748   2.785  0.1974 -0.2293 -0.1580
  536SOL    HW1 1607   0.755   0.842   2.760 -1.7991 -2.1769  1.2272
  536SOL    HW2 1608   0.845   0.750   2.866 -0.6613 -1.3704  0.3906
  537SOL     OW 1609   1.513   3.097   1.443  0.0891  0.4472  0.4543
  537SOL    HW1 1610   1.454   0.014   1.373  1.7543  0.6964 -1.3265
  537SOL    HW2 1611   1.593   0.030   1.448  1.3355  0.0107 -2.6495
  538SOL     OW 1612   0.414   2.727   0.073  0.1253  0.0956 -0.1769
  538SOL    HW1 1613   0.464   2.754   3.113  2.4885  0.6188 -2.3538
  538SOL    HW2 1614   0.413   2.626   0.087  1.0536 -0.0996  0.3622
  539SOL     OW 1615   3.018   1.209   1.796 -0.0566 -0.0912  0.0212
  539SOL    HW1 1616   3.085   1.154   1.745  1.8472  1.2977 -0.2185
  539SOL    HW2 1617   3.021   1.309   1.765  0.6484  1.6197 -4.1715
  540SOL     OW 1618   1.823   1.572   1.589  0.4064 -0.6345  0.4306
  540SOL    HW1 1619   1.883   1.488   1.580  1.7604  1.6385  0.2776
  540SOL    HW2 1620   1.755   1.578   1.515 -0.3557 -1.5194  1.5247
  541SOL     OW 1621   0.564   2.222   1.581 -0.6716 -0.3920 -0.0968
  541SOL    HW1 1622   0.468   2.243   1.559 -1.5303  0.1724  0.7122
  541SOL    HW2 1623   0.564   2.125   1.605 -1.1176 -0.2362 -2.6972
  542SOL     OW 1624   2.218   0.959   2.019  0.9089  0.0333  0.3422
  542SOL    HW1 1625   2.124   0.972   1.973 -3.5941 -2.4614  3.3642
  542SOL    HW2 1626   2.214   0.904   2.100  2.3210 -2.8605 -1.0109
  543SOL     OW 1627   1.004   0.632   0.674  0.4131  0.4184  0.0814
  543SOL    HW1 1628   0.986   0.732   0.672 -0.2940 -0.4792 -1.3400
  543SOL    HW2 1629   0.968   0.596   0.765  0.2666 -1.0323 -0.3709
  544SOL     OW 1630   1.959   1.861   1.719 -0.1416 -0.1105  0.1045
  544SOL    HW1 1631   1.878   1.915   1.687  2.7238 -0.2852  0.2800
  544SOL    HW2 1632   2.026   1.835   1.645  1.7630 -2.0560 -1.5418
  545SOL     OW 1633   1.633   1.552   1.139  0.1753 -0.2518  0.6117
  545SOL    HW1 1634   1.657   1.649   1.121 -0.0759 -0.2435 -3.6208
  545SOL    HW2 1635   1.709   1.488   1.135 -2.2803 -2.5184  2.6953
  546SOL     OW 1636   0.185   0.080   2.839  0.6685 -0.5001  0.2406
  546SOL    HW1 1637   0.189   0.173   2.796 -2.0326  0.1301  1.7215
  546SOL    HW2 1638   0.238   0.076   2.925 -0.9514  0.5452 -0.4862
  547SOL     OW 1639   2.387   0.655   3.095  0.4300 -0.1250 -0.7033
  547SOL    HW1 1640   2.285   0.674   3.102 -3.5223  1.5505  0.0305
  547SOL    HW2 1641   2.400   0.556   3.101 -0.7460 -2.0538 -0.2998
  548SOL     OW 1642   2.241   2.173   2.319  0.2944  0.3221 -0.2286
  548SOL    HW1 1643   2.144   2.202   2.334 -0.3809  1.1009  0.0130
  548SOL    HW2 1644   2.309   2.242   2.345  0.8348 -0.3891 -1.0926
  549SOL     OW 1645   2.245   2.943   0.727 -0.0458 -0.2024 -0.2867
  549SOL    HW1 1646   2.296   2.871   0.775  0.9658 -1.1861 -1.2885
  549SOL    HW2 1647   2.143   2.922   0.709 -1.8748  2.2362 -1.1809
  550SOL     OW 1648   2.206   1.364   2.984 -0.1577 -0.2613 -0.0311
  550SOL    HW1 1649   2.204   1.264   2.997  0.6612  0.7816 -0.5036
  550SOL    HW2 1650   2.191   1.413   3.072  1.0906  2.0661  2.1121
  551SOL     OW 1651   1.377   0.117   1.792 -0.1773  0.4245 -0.3745
  551SOL    HW1 1652   1.456   0.070   1.842 -0.2629  3.4390 -0.6355
  551SOL    HW2 1653   1.392   0.116   1.695  1.6837 -1.1526  0.3327
  552SOL     OW 1654   2.911   2.526   3.025 -0.8425 -0.1083  0.0729
  552SOL    HW1 1655   2.983   2.472   2.971  2.7102 -0.3793 -1.6171
  552SOL    HW2 1656   2.889   2.606   2.966  0.1481  1.0553 -1.4879
  553SOL     OW 1657   0.662   0.216   0.596 -0.6258  0.5107  0.5723
  553SOL    HW1 1658   0.568   0.240   0.603 -1.8345 -0.6562  1.0175
  553SOL    HW2 1659   0.724   0.285   0.550 -1.3361  0.7369 -0.1858
  554SOL     OW 1660   1.900   2.161   1.657 -0.2252  0.2588 -0.5369
  554SOL    HW1 1661   1.815   2.109   1.677  0.4521  0.1009  1.6036
  554SOL    HW2 1662   1.954   2.180   1.744  1.6906  2.2923  0.6221
  555SOL     OW 1663   1.376   1.933   1.663  0.1265 -0.6035  0.1188
  555SOL    HW1 1664   1.440   1.930   1.744  2.4275  0.1482 -2.3302
  555SOL    HW2 1665   1.420   1.994   1.596  1.5168 -0.3730 -0.8454
  556SOL     OW 1666   1.876   1.422   0.358 -0.2107 -0.1412  0.5608
  556SOL    HW1 1667   1.882   1.354   0.437  1.5475  0.5611 -0.3408
  556SOL    HW2 1668   1.799   1.394   0.298  0.3515  1.4430  2.9685
  557SOL     OW 1669   1.362   2.054   2.066  0.0500 -0.3143  0.2039
  557SOL    HW1 1670   1.296   2.118   2.020  0.2133  1.3151 -1.5649
  557SOL    HW2 1671   1.350   2.062   2.169 -0.9378 -4.3875  0.0401
  558SOL     OW 1672   0.009   0.297   2.096 -0.2724  0.0655  0.6144
  558SOL    HW1 1673   0.079   0.258   2.032 -0.1034  1.0331 -0.2756
  558SOL    HW2 1674   0.017   0.399   2.103  3.5688 -3.3219 -0.4095
  559SOL     OW 1675   2.502   2.730   1.804  0.2521 -0.3335  0.2533
  559SOL    HW1 1676   2.477   2.820   1.765  1.0249 -3.7331  0.2113
  559SOL    HW2 1677   2.555   2.734   1.890  1.0712 -2.4262 -0.7127
  560SOL     OW 1678   0.621   0.050   2.934 -0.2294  0.4979 -0.5109
  560SOL    HW1 1679   0.607   3.100   2.868  1.5782  3.1172  1.5539
  560SOL    HW2 1680   0.529   0.074   2.976 -0.7142 -0.7568  0.1256
  561SOL     OW 1681   1.355   0.935   0.408 -1.1493 -0.3093 -0.2017
  561SOL    HW1 1682   1.381   0.837   0.404 -2.4233  1.4546 -0.2976
  561SOL    HW2 1683   1.303   0.959   0.493  0.6007 -1.4369  1.2194
  562SOL     OW 1684   0.904   1.139   2.409 -0.3072 -0.7475 -0.0525
  562SOL    HW1 1685   0.851   1.183   2.482  1.7776  1.0669 -0.6550
  562SOL    HW2 1686   0.962   1.062   2.442  0.6605 -1.0084  2.2624
  563SOL     OW 1687   1.720   2.377   2.754 -0.2997 -0.3028  0.1901
  563SOL    HW1 1688   1.658   2.376   2.677 -0.2964 -0.3106 -0.2310
  563SOL    HW2 1689   1.718   2.466   2.797  2.3159 -1.1867 -1.4017
  564SOL     OW 1690   2.793   1.666   0.283  0.2778 -0.6460  0.0502
  564SOL    HW1 1691   2.872   1.732   0.272  3.2874  1.9675  3.2021
  564SOL    HW2 1692   2.750   1.644   0.193 -2.9282 -2.4557 -1.1619
  565SOL     OW 1693   1.517   2.826   2.815 -0.1765 -0.3327 -0.3078
  565SOL    HW1 1694   1.463   2.814   2.725 -0.2874 -0.1811 -0.5799
  565SOL    HW2 1695   1.453   2.851   2.893 -0.8659  1.8789  0.9685
  566SOL     OW 1696   1.958   3.009   2.477  0.3490  0.1641 -0.0851
  566SOL    HW1 1697   2.027   2.942   2.507 -4.9792  3.4313  0.8930
  566SOL    HW2 1698   1.900   3.034   2.560  1.0032 -0.1534 -0.9722
  567SOL     OW 1699   2.401   1.260   0.996  0.2310  0.2253  0.1352
  567SOL    HW1 1700   2.406   1.211   1.085  1.4959 -0.9162  4.0785
  567SOL    HW2 1701   2.308   1.294   0.977  2.0946 -0.1836  4.7656
  568SOL     OW 1702   2.050   1.413   2.758  0.0256 -0.3007  0.5014
  568SOL    HW1 1703   1.957   1.369   2.752 -1.0609 -2.0107  0.5724
  568SOL    HW2 1704   2.092   1.402   2.850 -1.6982  0.8928  1.9701
  569SOL     OW 1705   2.449   2.044   2.457 -0.1422 -0.4571  0.0403
  569SOL    HW1 1706   2.496   2.136   2.458  0.4211 -2.5786  0.3837
  569SOL    HW2 1707   2.349   2.050   2.430  0.2905 -0.0514 -2.5915
  570SOL     OW 1708   3.035   2.496   1.909  0.1705 -0.1234 -0.1519
  570SOL    HW1 1709   2.988   2.411   1.932 -0.1791 -0.7230  0.5655
  570SOL    HW2 1710   0.006   2.491   1.882 -1.0545  0.8870  1.8025
  571SOL     OW 1711   0.575   0.040   2.195  0.2456  0.2243  0.0926
  571SOL    HW1 1712   0.648   0.019   2.258  0.0994  0.0876  0.0947
  571SOL    HW2 1713   0.595   0.019   2.097  0.2414 -0.0105 -0.4855
  572SOL     OW 1714   1.111   1.781   0.964 -0.9684 -0.1002 -1.0317
  572SOL    HW1 1715   1.141   1.703   1.025  0.6561 -1.6639 -1.0141
  572SOL    HW2 1716   1.042   1.751   0.897 -2.7695  0.2863  0.5988
  573SOL     OW 1717   1.240   0.453   0.027  0.4526  0.0971 -0.1536
  573SOL    HW1 1718   1.142   0.444   0.000  0.5590  0.3390  1.2360
  573SOL    HW2 1719   1.303   0.464   3.077  0.2285 -1.2665  2.9949
  574SOL     OW 1720   0.582   0.047   0.357  0.2083 -0.5302 -0.3133
  574SOL    HW1 1721   0.641   0.091   0.286 -0.6964  1.1360 -1.2859
  574SOL    HW2 1722   0.612   0.083   0.449  1.7489 -1.3738  0.7108
  575SOL     OW 1723   0.233   1.450   1.584 -0.2046  0.1823 -0.6444
  575SOL    HW1 1724   0.170   1.467   1.663  1.1164 -0.1483  0.6558
  575SOL    HW2 1725   0.217   1.507   1.500  0.5940 -0.8070 -2.1791
  576SOL     OW 1726   2.204   0.119   1.854 -0.2710  0.0509 -0.1845
  576SOL    HW1 1727   2.190   0.176   1.769  0.5734  2.3880  0.2752
  576SOL    HW2 1728   2.260   0.169   1.923  0.7526  0.9477  1.0755
  577SOL     OW 1729   2.939   1.467   1.745  0.2602  0.1112  0.0233
  577SOL    HW1 1730   2.861   1.461   1.812  0.2359 -2.4273 -0.4936
  577SOL    HW2 1731   3.019   1.519   1.777 -2.8304  0.1272 -2.4373
  578SOL     OW 1732   1.494   3.010   2.149 -0.0192 -0.5290 -0.2981
  578SOL    HW1 1733   1.406   2.968   2.120  1.6120 -0.5855  3.0332
  578SOL    HW2 1734   1.522   2.967   2.236 -1.0403  1.4361 -2.6475
  579SOL     OW 1735   1.947   2.011   2.126  0.0009 -0.3262 -0.0485
  579SOL    HW1 1736   2.000   2.012   2.040  1.2170 -0.7189 -0.4746
  579SOL    HW2 1737   2.017   1.981   2.198 -0.3918  0.8929  1.6407
  580SOL     OW 1738   1.889   1.351   1.991  0.5156 -0.3294 -0.3585
  580SOL    HW1 1739   1.989   1.360   1.996  0.4692  0.4619  0.2553
  580SOL    HW2 1740   1.855   1.414   1.918 -0.1738 -0.7115  1.5193
  581SOL     OW 1741   1.509   1.270   2.517 -0.6467  0.2198  0.0161
  581SOL    HW1 1742   1.453   1.352   2.516  0.0586  0.8665 -1.3821
  581SOL    HW2 1743   1.608   1.294   2.490  1.7561  2.2360  0.8837
  582SOL     OW 1744   3.116   2.045   2.048  0.0457 -0.0415 -0.0242
  582SOL    HW1 1745   3.097   1.981   1.969  1.4722 -2.1565 -0.0099
  582SOL    HW2 1746   3.062   2.011   2.128 -0.8995  1.1548  3.6930
  583SOL     OW 1747   1.676   0.803   0.781 -0.3781  0.0439 -0.3269
  583SOL    HW1 1748   1.591   0.853   0.800 -0.3723 -0.0245  1.2670
  583SOL    HW2 1749   1.751   0.848   0.830  0.6409  1.9109 -2.8558
  584SOL     OW 1750   0.975   2.591   0.431 -0.0467  0.1959  0.1389
  584SOL    HW1 1751   0.912   2.612   0.505 -0.2509  0.9692 -2.0009
  584SOL    HW2 1752   0.978   2.677   0.376  2.2056 -0.5564 -2.3749
  585SOL     OW 1753   0.141   2.754   3.022  0.0232 -0.0333  0.9616
  585SOL    HW1 1754   0.148   2.814   3.104 -1.3981 -3.3622 -1.0984
  585SOL    HW2 1755   0.232   2.717   2.995 -1.6625 -1.3584  1.2748
  586SOL     OW 1756   2.299   1.191   0.735 -0.1773  0.4271  0.9542
  586SOL    HW1 1757   2.331   1.103   0.694 -2.5335  2.9199 -0.0953
  586SOL    HW2 1758   2.310   1.200   0.838  0.0482  0.6986  2.3956
  587SOL     OW 1759   0.619   1.246   0.230 -0.1900 -0.0268  0.4569
  587SOL    HW1 1760   0.587   1.234   0.326 -0.9431 -0.4579 -2.7838
  587SOL    HW2 1761   0.714   1.284   0.230 -0.7856  0.2202  0.9237
  588SOL     OW 1762   0.352   0.223   0.580  0.1318 -0.1787 -0.2920
  588SOL    HW1 1763   0.275   0.229   0.516  0.2269 -0.3635 -1.6769
  588SOL    HW2 1764   0.349   0.302   0.644  0.3897 -0.4611  1.4235
  589SOL     OW 1765   1.220   3.002   0.818  0.1898 -0.0604 -0.0124
  589SOL    HW1 1766   1.122   3.030   0.803 -0.1362 -0.6775  0.8972
  589SOL    HW2 1767   1.265   3.079   0.872 -0.6029  3.6447 -0.6027
  590SOL     OW 1768   2.458   2.416   0.368  0.5246 -0.0434  0.3314
  590SOL    HW1 1769   2.522   2.465   0.429 -2.1219 -3.6521 -0.0334
  590SOL    HW2 1770   2.489   2.396   0.272  1.0202 -2.7795  0.3852
  591SOL     OW 1771   0.251   2.377   2.132 -0.6338 -0.1858 -0.0023
  591SOL    HW1 1772   0.212   2.316   2.203 -2.3122  1.6181  0.1946
  591SOL    HW2 1773   0.334   2.427   2.162 -2.1147  0.4746 -1.1043
  592SOL     OW 1774   0.186   1.752   2.212  0.2332  0.2869 -0.0452
  592SOL    HW1 1775   0.109   1.747   2.140 -0.5675  1.4035 -0.6917
  592SOL    HW2 1776   0.161   1.702   2.295  0.4430 -0.4515 -0.0167
  593SOL     OW 1777   1.615   1.563   1.408  0.3644  0.0239 -0.2439
  593SOL    HW1 1778   1.592   1.550   1.308  0.4363 -0.0959 -0.4286
  593SOL    HW2 1779   1.531   1.607   1.457  0.3850 -1.0627  0.5903
  594SOL     OW 1780   0.481   1.335   2.770  0.0775  0.2311 -0.3767
  594SOL    HW1 1781   0.478   1.275   2.855 -1.3736  0.1651  1.5628
  594SOL    HW2 1782   0.510   1.430   2.789 -0.7607 -1.0484  0.1626
  595SOL     OW 1783   1.357   0.696   0.948  0.3710  0.1908 -0.0894
  595SOL    HW1 1784   1.444   0.736   0.976 -3.3254  0.7249  0.7937
  595SOL    HW2 1785   1.288   0.770   0.943 -0.3651  1.8493 -1.5254
  596SOL     OW 1786   0.483   1.117   1.081 -0.5675 -0.1202 -0.3316
  596SOL    HW1 1787   0.556   1.152   1.146  0.2222  5.0829 -1.6216
  596SOL    HW2 1788   0.474   1.170   0.992  1.3955 -1.5473 -0.9104
  597SOL     OW 1789   0.513   2.457   2.140  0.2118 -0.0296 -0.3509
  597SOL    HW1 1790   0.525   2.542   2.202  0.5738  0.5397  1.6775
  597SOL    HW2 1791   0.562   2.473   2.053  3.3320  1.5705  0.0826
  598SOL     OW 1792   2.271   2.504   2.401  0.2470  0.0795  0.1833
  598SOL    HW1 1793   2.184   2.496   2.445  1.5747  0.0127 -1.5712
  598SOL    HW2 1794   2.295   2.596   2.371  0.2990 -0.1217  0.0530
  599SOL     OW 1795   1.096   1.217   0.537 -0.2691  0.3807  0.0102
  599SOL    HW1 1796   1.070   1.303   0.584 -0.8306  1.5985 -0.6824
  599SOL    HW2 1797   1.107   1.231   0.435 -0.3391  0.3633 -1.3817
  600SOL     OW 1798   1.613   0.336   0.357 -0.2318 -0.1972 -0.0721
  600SOL    HW1 1799   1.534   0.330   0.296  0.9139 -2.3344  0.3886
  600SOL    HW2 1800   1.671   0.256   0.346  0.5771  1.6985 -1.0325
  601SOL     OW 1801   0.567   0.335   1.682 -0.3719  0.1484 -0.1759
  601SOL    HW1 1802   0.475   0.336   1.730  0.2705  2.2209 -1.6279
  601SOL    HW2 1803   0.564   0.407   1.608  0.8793  0.9283  1.9723
  602SOL     OW 1804   0.399   2.247   0.761 -0.3359  0.1885  0.3609
  602SOL    HW1 1805   0.475   2.193   0.804 -3.0344  0.8464 -0.0248
  602SOL    HW2 1806   0.421   2.271   0.661  1.2065  1.3771 -0.6934
  603SOL     OW 1807   1.017   2.790   2.705  0.2035 -0.1866  0.0389
  603SOL    HW1 1808   1.034   2.691   2.706 -0.4607  2.0600  1.1647
  603SOL    HW2 1809   0.969   2.812   2.621  1.0567 -1.8772  1.3836
  604SOL     OW 1810   0.783   2.267   0.375 -0.1214 -0.0117 -0.0708
  604SOL    HW1 1811   0.884   2.288   0.357 -3.4656 -2.2531  0.5185
  604SOL    HW2 1812   0.727   2.351   0.373  1.0706 -2.1038 -0.8616
  605SOL     OW 1813   1.676   1.199   1.683  0.3275  0.1043  0.5009
  605SOL    HW1 1814   1.705   1.109   1.724  0.7500  2.0093  0.9992
  605SOL    HW2 1815   1.693   1.201   1.584  1.2315  1.8652  2.4681
  606SOL     OW 1816   0.810   1.143   2.952 -0.3454 -0.1962 -0.1454
  606SOL    HW1 1817   0.748   1.118   3.030  0.1204 -1.1767 -0.3290
  606SOL    HW2 1818   0.782   1.235   2.913  0.0594  2.5105 -0.6319
  607SOL     OW 1819   1.021   0.846   1.308  0.0230 -0.0623 -0.0425
  607SOL    HW1 1820   0.922   0.863   1.312  1.1337 -1.2820 -1.6373
  607SOL    HW2 1821   1.043   0.743   1.306  0.1350  1.5001 -0.0691
  608SOL     OW 1822   2.931   2.263   1.984 -0.1606  0.5572  0.2730
  608SOL    HW1 1823   2.986   2.193   2.035 -1.5782  1.1854  1.9304
  608SOL    HW2 1824   2.832   2.260   1.998  0.5987  2.2602 -1.7019
  609SOL     OW 1825   2.221   0.237   0.189  0.2894  0.2916  0.6024
  609SOL    HW1 1826   2.137   0.223   0.242 -4.0069  0.5670 -0.9521
  609SOL    HW2 1827   2.283   0.158   0.208 -0.3796  0.4455 -0.1544
  610SOL     OW 1828   0.263   2.419   1.556  0.2535  0.4010 -0.3525
  610SOL    HW1 1829   0.273   2.487   1.627  1.5569 -0.5098  0.6323
  610SOL    HW2 1830   0.176   2.416   1.500 -0.6626  1.1501 -0.0550
  611SOL     OW 1831   1.542   1.793   0.740 -0.1641  0.2768 -0.3274
  611SOL    HW1 1832   1.512   1.806   0.834 -1.0494  0.2137  2.2293
  611SOL    HW2 1833   1.549   1.691   0.727  1.8587  0.3878  3.0270
  612SOL     OW 1834   0.378   0.437   2.210  0.5241 -0.0360  0.0992
  612SOL    HW1 1835   0.329   0.491   2.137  1.1166  1.3928 -0.8782
  612SOL    HW2 1836   0.361   0.337   2.196  1.0657 -1.0836  1.1976
  613SOL     OW 1837   2.677   1.189   0.413  0.5693 -0.1447  0.7147
  613SOL    HW1 1838   2.642   1.259   0.479 -0.5963 -2.6743  0.4244
  613SOL    HW2 1839   2.781   1.184   0.400  0.3610  2.4800 -0.3960
  614SOL     OW 1840   1.904   0.209   1.761 -0.1776 -0.0443 -0.2960
  614SOL    HW1 1841   1.929   0.186   1.858  0.5759  1.7623  1.8351
  614SOL    HW2 1842   1.935   0.135   1.696  1.9517  2.8717 -1.4605
  615SOL     OW 1843   0.777   1.474   1.523 -0.2069  0.0595  0.0310
  615SOL    HW1 1844   0.846   1.533   1.478 -0.2005  1.7228 -1.0316
  615SOL    HW2 1845   0.720   1.424   1.457  1.3072  2.1893  1.2737
  616SOL     OW 1846   1.419   1.795   3.069  0.5522  0.1604 -0.1978
  616SOL    HW1 1847   1.416   1.724   0.014  3.1476 -1.0182 -2.4265
  616SOL    HW2 1848   1.515   1.834   3.069 -0.0658 -0.6529 -0.0614
  617SOL     OW 1849   2.373   0.002   0.211 -0.3016 -0.3162 -0.1644
  617SOL    HW1 1850   2.332   3.076   0.134 -1.7651 -0.2691 -1.4238
  617SOL    HW2 1851   2.342   3.091   0.298  0.8201  0.0279  4.6520
  618SOL     OW 1852   0.844   0.714   2.509  0.6041 -0.2074  0.2132
  618SOL    HW1 1853   0.829   0.745   2.605  0.6474  1.7828 -0.3912
  618SOL    HW2 1854   0.771   0.733   2.444  1.3883  0.6216  2.7869
  619SOL     OW 1855   2.575   1.598   0.867  0.5085  0.0024  0.3273
  619SOL    HW1 1856   2.628   1.512   0.869 -0.9146  0.2579  0.4429
  619SOL    HW2 1857   2.558   1.617   0.770  0.8496  4.4378 -0.3242
  620SOL     OW 1858   2.324   2.997   3.088  0.3572  0.2332 -0.2831
  620SOL    HW1 1859   2.381   2.917   3.062  1.9397  0.7628 -0.8513
  620SOL    HW2 1860   2.231   3.002   3.042 -2.0314 -0.9587  0.2561
  621SOL     OW 1861   2.478   1.412   2.860  0.1172 -0.1342 -0.0340
  621SOL    HW1 1862   2.393   1.362   2.874 -1.5393  2.5051 -0.1701
  621SOL    HW2 1863   2.518   1.399   2.768  0.1197  0.1435  1.5544
  622SOL     OW 1864   1.572   2.667   2.182 -0.6799 -0.0636  0.2307
  622SOL    HW1 1865   1.627   2.688   2.264 -0.7123  1.1831  1.6421
  622SOL    HW2 1866   1.621   2.613   2.110  0.1007 -5.5255 -1.2528
  623SOL     OW 1867   1.125   1.871   0.570 -0.4806  0.4630  0.1581
  623SOL    HW1 1868   1.158   1.944   0.627 -1.7387 -2.4095 -1.7325
  623SOL    HW2 1869   1.111   1.909   0.478  2.5945  0.6239  2.8283
  624SOL     OW 1870   0.387   0.116   3.032 -0.1332  0.0023 -0.4475
  624SOL    HW1 1871   0.385   0.067   3.121  1.4966 -1.0717  0.5050
  624SOL    HW2 1872   0.393   0.217   3.052  1.8625  0.1169  2.4137
  625SOL     OW 1873   0.594   1.701   0.748  0.0715 -0.3082 -0.0560
  625SOL    HW1 1874   0.592   1.804   0.769 -1.9885  0.0791  0.8685
  625SOL    HW2 1875   0.556   1.677   0.656 -1.5013 -1.9999 -1.8085
  626SOL     OW 1876   3.100   2.835   2.796 -0.5776 -0.2419  0.5144
  626SOL    HW1 1877   0.042   2.794   2.860  1.1262  1.1216  0.8086
  626SOL    HW2 1878   3.101   2.935   2.793 -0.1749  0.2565 -0.5285
  627SOL     OW 1879   1.080   1.781   2.735  0.0192 -0.5993  0.3423
  627SOL    HW1 1880   1.023   1.772   2.652 -1.1764  0.0912 -0.7089
  627SOL    HW2 1881   1.185   1.792   2.724  0.2019  1.9904  2.4910
  628SOL     OW 1882   0.191   0.359   2.684 -0.1665  0.3023  0.5576
  628SOL    HW1 1883   0.280   0.363   2.728  0.9794 -0.5342 -1.1266
  628SOL    HW2 1884   0.194   0.335   2.586  0.0921  3.9508  0.4045
  629SOL     OW 1885   0.375   2.800   2.144  0.0898 -0.1847  0.0624
  629SOL    HW1 1886   0.399   2.884   2.091 -1.5454 -1.4442 -0.3757
  629SOL    HW2 1887   0.463   2.759   2.177  0.4301  2.3230  0.4233
  630SOL     OW 1888   1.772   0.942   1.781 -0.5245  0.4995  0.2529
  630SOL    HW1 1889   1.818   0.878   1.715 -1.3113 -1.3019 -2.0908
  630SOL    HW2 1890   1.693   0.889   1.817  0.3166  0.3507  0.2110
  631SOL     OW 1891   2.140   1.006   0.468  0.4540 -0.3021  0.3264
  631SOL    HW1 1892   2.148   1.063   0.382  1.4608  4.2429  0.2869
  631SOL    HW2 1893   2.231   1.006   0.517  2.0870  1.1196  2.2713
  632SOL     OW 1894   2.457   0.512   2.046 -0.0638 -0.1188 -0.0024
  632SOL    HW1 1895   2.451   0.547   2.141 -0.9885  1.4974  0.0693
  632SOL    HW2 1896   2.411   0.421   2.043 -1.1675 -3.9562  1.6588
  633SOL     OW 1897   0.681   2.514   0.382 -0.0112 -0.2090 -0.1650
  633SOL    HW1 1898   0.733   2.546   0.304 -0.7973  1.0716  1.4032
  633SOL    HW2 1899   0.627   2.589   0.429  1.1685  1.1982 -1.5372
  634SOL     OW 1900   1.711   2.661   2.462 -0.4727  0.7865  0.0578
  634SOL    HW1 1901   1.646   2.614   2.523 -1.2501  3.0701 -1.2501
  634SOL    HW2 1902   1.690   2.757   2.454 -1.4847 -3.8492 -1.7402
  635SOL     OW 1903   2.417   0.346   0.031 -0.1810 -0.3800 -0.0847
  635SOL    HW1 1904   2.514   0.359   0.068  1.1979  1.0673 -0.2774
  635SOL    HW2 1905   2.362   0.291   0.096  0.1371 -1.6515 -1.9749
  636SOL     OW 1906   0.718   1.149   0.762  0.9058  0.3766  0.0051
  636SOL    HW1 1907   0.634   1.199   0.798 -0.8681  1.1704 -1.1685
  636SOL    HW2 1908   0.783   1.130   0.838  1.4300 -3.1391  2.1166
  637SOL     OW 1909   3.112   1.767   0.841  0.2342  0.3665  0.3224
  637SOL    HW1 1910   3.121   1.858   0.889 -2.0030  4.5171  0.5522
  637SOL    HW2 1911   0.076   1.742   0.806 -0.2778 -1.8064 -0.3531
  638SOL     OW 1912   0.931   0.040   2.946 -0.4310  0.1102 -0.6749
  638SOL    HW1 1913   0.835   0.045   2.971  3.4087 -0.8882 -1.1946
  638SOL    HW2 1914   0.985   0.108   2.999 -0.1705 -1.0362  0.2958
  639SOL     OW 1915   1.434   1.640   0.147  0.3685  0.2593  0.3403
  639SOL    HW1 1916   1.387   1.562   0.190  0.3353  1.6701 -0.0625
  639SOL    HW2 1917   1.406   1.724   0.195  1.1035  0.5698  0.3424
  640SOL     OW 1918   1.846   2.717   0.904  0.5169  0.1644 -0.1976
  640SOL    HW1 1919   1.818   2.651   0.830 -1.5652 -0.1184  1.5919
  640SOL    HW2 1920   1.814   2.812   0.876 -0.3042  0.2224  0.8159
  641SOL     OW 1921   0.190   2.663   0.718 -0.2970  0.0352 -0.2406
  641SOL    HW1 1922   0.156   2.647   0.622 -0.7815  0.1520  1.1947
  641SOL    HW2 1923   0.287   2.689   0.719 -1.6856 -1.3138  1.2681
  642SOL     OW 1924   0.797   0.305   1.819 -0.4081 -0.0033 -0.4035
  642SOL    HW1 1925   0.711   0.304   1.762 -0.4030 -1.1036  1.9903
  642SOL    HW2 1926   0.864   0.376   1.789 -1.6146 -0.8021 -0.7311
  643SOL     OW 1927   0.608   2.198   2.189 -0.3180  0.4884  0.4293
  643SOL    HW1 1928   0.567   2.285   2.160 -1.9414 -0.5737 -0.3659
  643SOL    HW2 1929   0.605   2.133   2.111 -3.1138 -0.2694 -0.6496
  644SOL     OW 1930   0.683   2.861   0.449  0.2328 -0.4341  0.3337
  644SOL    HW1 1931   0.696   2.959   0.436  2.4347 -0.8498 -0.9520
  644SOL    HW2 1932   0.727   2.826   0.537  3.1065 -1.1802  1.8666
  645SOL     OW 1933   1.040   2.000   0.337 -0.4626  0.0381 -0.3763
  645SOL    HW1 1934   1.043   2.095   0.368 -2.6477  1.9696 -0.5405
  645SOL    HW2 1935   1.109   1.983   0.261  0.5975  1.7674 -1.7157
  646SOL     OW 1936   0.395   1.357   0.091  0.0596  0.0453 -0.1449
  646SOL    HW1 1937   0.485   1.335   0.131  1.1553  0.3046 -1.4725
  646SOL    HW2 1938   0.316   1.333   0.156 -1.7097 -0.9005  1.1721
  647SOL     OW 1939   0.948   0.185   1.039 -0.1389  0.3097 -0.0249
  647SOL    HW1 1940   0.992   0.272   1.062  0.0239 -0.0131  1.1435
  647SOL    HW2 1941   1.001   0.111   1.089 -0.5033  0.6799  2.9524
  648SOL     OW 1942   2.523   0.102   1.372  0.1113 -0.4439  0.2402
  648SOL    HW1 1943   2.425   0.092   1.337  0.1286  1.0596 -1.4627
  648SOL    HW2 1944   2.529   0.108   1.475 -2.2890 -1.3616  1.1017
  649SOL     OW 1945   0.807   2.170   2.823  0.6814  0.1037 -0.3741
  649SOL    HW1 1946   0.858   2.168   2.738  0.0151  0.0430 -0.7393
  649SOL    HW2 1947   0.735   2.096   2.823 -0.4196  1.9317  1.2774
  650SOL     OW 1948   0.108   1.771   1.654 -0.1078  0.6129 -0.0425
  650SOL    HW1 1949   0.070   1.787   1.561 -0.2887  2.2017  2.5606
  650SOL    HW2 1950   0.204   1.805   1.663 -1.3092 -0.6725  0.4639
  651SOL     OW 1951   1.092   0.136   0.012 -0.0557  0.1041 -0.2367
  651SOL    HW1 1952   1.176   0.081   0.009 -3.5041  0.6225  1.8415
  651SOL    HW2 1953   1.115   0.224   0.056  1.2906 -1.5694 -1.5452
  652SOL     OW 1954   2.751   2.175   0.433 -0.3169  0.0463  0.1564
  652SOL    HW1 1955   2.701   2.155   0.522  0.9813 -0.4160  0.5683
  652SOL    HW2 1956   2.685   2.203   0.362  0.1520 -0.5477  2.4627
  653SOL     OW 1957   0.157   0.256   0.872 -0.3555 -0.6643  0.3350
  653SOL    HW1 1958   0.162   0.172   0.819 -0.2835  0.5929 -0.5786
  653SOL    HW2 1959   0.197   0.333   0.822 -1.1867  0.5325  1.8431
  654SOL     OW 1960   1.834   0.270   2.673 -0.0470 -0.1333  0.3657
  654SOL    HW1 1961   1.804   0.365   2.695 -1.8829  0.0293 -0.8651
  654SOL    HW2 1962   1.748   0.217   2.647 -2.1055  1.9033 -0.1234
  655SOL     OW 1963   0.479   2.439   0.960 -0.0548 -0.2327  0.1526
  655SOL    HW1 1964   0.402   2.410   0.898  0.5475 -0.6437 -1.3415
  655SOL    HW2 1965   0.487   2.363   1.030 -0.0440 -1.3935  3.5483
  656SOL     OW 1966   0.035   0.375   1.689 -0.5308 -0.1114 -0.4432
  656SOL    HW1 1967   3.112   0.299   1.727  0.0381  1.0219 -2.3738
  656SOL    HW2 1968   0.014   0.391   1.593 -1.5162  1.2698  0.1176
  657SOL     OW 1969   2.222   0.799   2.246 -0.0394 -0.1995 -0.1387
  657SOL    HW1 1970   2.263   0.709   2.219 -1.8954  2.6220 -0.5933
  657SOL    HW2 1971   2.135   0.784   2.302  1.4581 -1.1014 -0.5595
  658SOL     OW 1972   2.156   1.679   0.934  0.2966 -0.0849 -0.7595
  658SOL    HW1 1973   2.145   1.696   1.036 -1.1583 -1.6505 -0.6704
  658SOL    HW2 1974   2.232   1.733   0.892  2.1022 -0.4251  1.5783
  659SOL     OW 1975   2.472   0.058   2.945  0.0204  0.2218  0.2874
  659SOL    HW1 1976   2.407   0.027   3.009 -0.3767  0.2242 -0.7017
  659SOL    HW2 1977   2.562   0.085   2.987  0.2379  0.8104  0.1195
  660SOL     OW 1978   1.164   1.467   2.840 -0.5007 -0.2279 -1.2715
  660SOL    HW1 1979   1.225   1.551   2.855  0.8431 -1.5899  0.7083
  660SOL    HW2 1980   1.213   1.385   2.873 -0.1231 -0.8251 -0.3981
  661SOL     OW 1981   2.692   2.504   0.787  0.2011  0.1214 -0.5239
  661SOL    HW1 1982   2.731   2.408   0.799  1.2380  0.1454 -0.4680
  661SOL    HW2 1983   2.765   2.575   0.793  0.1895  1.7209  1.3513
  662SOL     OW 1984   0.650   0.729   0.188 -0.1385  0.0175 -0.3760
  662SOL    HW1 1985   0.748   0.722   0.167 -4.3292 -2.0731  0.6029
  662SOL    HW2 1986   0.629   0.780   0.275 -0.1966 -0.9758 -0.5579
  663SOL     OW 1987   1.496   2.072   0.199 -0.3327  0.2370  0.0559
  663SOL    HW1 1988   1.493   2.172   0.199 -0.6742 -0.3115 -0.2524
  663SOL    HW2 1989   1.557   2.035   0.124 -3.1619 -1.6042  1.7094
  664SOL     OW 1990   0.721   2.404   1.709  0.1255 -0.4292  0.0690
  664SOL    HW1 1991   0.777   2.450   1.638  1.7144 -1.4504 -1.2178
  664SOL    HW2 1992   0.635   2.358   1.670 -1.3611  0.0090 -1.4096
  665SOL     OW 1993   2.080   2.025   1.904 -0.2252 -0.3507  0.2641
  665SOL    HW1 1994   2.099   2.122   1.869 -1.2024  0.2961 -0.0269
  665SOL    HW2 1995   2.032   1.970   1.832 -0.4971 -0.9754  3.9234
  666SOL     OW 1996   0.461   2.711   0.339 -0.0526 -0.0339 -0.3770
  666SOL    HW1 1997   0.497   2.791   0.398  0.3328  0.6838  1.9773
  666SOL    HW2 1998   0.481   2.734   0.240 -2.4365  1.2585  0.0955
  667SOL     OW 1999   2.115   1.496   1.776  0.0516  0.0257  0.0689
  667SOL    HW1 2000   2.078   1.484   1.683  0.7579  1.7524  0.0404
  667SOL    HW2 2001   2.056   1.570   1.823 -2.2460  0.2253 -0.0997
  668SOL     OW 2002   0.364   0.659   2.355 -0.3630  0.1483  0.1160
  668SOL    HW1 2003   0.335   0.725   2.288  0.8591 -1.2492  1.1317
  668SOL    HW2 2004   0.408   0.574   2.314 -1.2331 -1.5950 -1.3033
  669SOL     OW 2005   1.838   2.203   2.595  1.0968  0.4127  0.4734
  669SOL    HW1 2006   1.809   2.284   2.649  1.9455 -0.9760 -0.5400
  669SOL    HW2 2007   1.768   2.129   2.574 -1.8543  1.1092 -1.3933
  670SOL     OW 2008   2.238   2.286   0.001 -0.2674  0.2026 -0.0859
  670SOL    HW1 2009   2.254   2.224   3.047  1.6521  0.8423 -2.9127
  670SOL    HW2 2010   2.183   2.361   3.086  1.9213  0.6408 -1.2002
  671SOL     OW 2011   0.712   1.164   1.222 -0.3186  0.3064 -0.2065
  671SOL    HW1 2012   0.696   1.250   1.276  0.2395 -0.1210 -3.1576
  671SOL    HW2 2013   0.733   1.086   1.279  3.9369  0.1383 -0.6135
  672SOL     OW 2014   2.841   0.912   2.354  0.5941 -0.4276 -0.3816
  672SOL    HW1 2015   2.928   0.896   2.304  0.9464 -0.3047 -1.5543
  672SOL    HW2 2016   2.825   1.009   2.366  1.4999 -1.1047  0.5764
  673SOL     OW 2017   2.793   2.212   2.316  0.4781  0.5342  0.0259
  673SOL    HW1 2018   2.853   2.134   2.306 -1.1812  1.2060 -1.6393
  673SOL    HW2 2019   2.835   2.285   2.373  2.5876  0.7130 -1.5356
  674SOL     OW 2020   1.191   2.902   2.370 -0.8086  1.1351  0.1021
  674SOL    HW1 2021   1.225   2.969   2.433 -2.8115 -3.0497 -2.4973
  674SOL    HW2 2022   1.252   2.823   2.362  0.4842 -0.3043  0.7013
  675SOL     OW 2023   0.690   1.004   1.602 -0.0072  0.5519 -0.7589
  675SOL    HW1 2024   0.766   0.945   1.631 -0.1987 -2.0117 -1.5518
  675SOL    HW2 2025   0.688   1.087   1.659 -0.8682 -0.1568 -1.1581
  676SOL     OW 2026   1.935   0.889   0.601 -0.0400 -0.2082 -0.0187
  676SOL    HW1 2027   1.853   0.868   0.548  1.0339 -1.5026  0.8753
  676SOL    HW2 2028   2.004   0.937   0.543 -0.7076 -0.4575  1.4207
  677SOL     OW 2029   2.830   1.728   2.818  0.1539  0.2530  0.1388
  677SOL    HW1 2030   2.833   1.631   2.797 -0.8905 -0.6316  0.1856
  677SOL    HW2 2031   2.919   1.777   2.803  1.7322  2.9253 -1.6095
  678SOL     OW 2032   2.921   2.312   1.109 -0.8544  0.5730  0.2044
  678SOL    HW1 2033   3.004   2.379   1.103  3.1478  1.9809 -1.8152
  678SOL    HW2 2034   2.848   2.355   1.163 -0.6006  0.0374  1.7171
  679SOL     OW 2035   1.831   2.513   0.721 -0.2129  0.1243 -0.3902
  679SOL    HW1 2036   1.915   2.549   0.674  1.0670 -1.2910 -0.4517
  679SOL    HW2 2037   1.820   2.410   0.718 -1.7601 -2.0972  2.8954
  680SOL     OW 2038   0.515   2.762   2.534 -0.3718  0.0754 -0.0659
  680SOL    HW1 2039   0.503   2.837   2.462 -0.5141 -1.7577  0.7214
  680SOL    HW2 2040   0.611   2.730   2.528 -0.5210  3.3605 -1.7744
  681SOL     OW 2041   0.019   1.301   1.463 -0.0734 -0.0868 -0.1217
  681SOL    HW1 2042   0.099   1.357   1.486  2.7772  1.7271  0.3740
  681SOL    HW2 2043   3.080   1.352   1.403  2.7032 -0.4691 -1.9987
  682SOL     OW 2044   0.254   1.819   1.314 -0.1542  0.3959 -0.1496
  682SOL    HW1 2045   0.206   1.901   1.346  2.4687  0.5320  0.5482
  682SOL    HW2 2046   0.355   1.829   1.300  1.9556 -0.0727  1.4582
  683SOL     OW 2047   2.598   1.381   1.274 -0.7556 -0.4933  0.1348
  683SOL    HW1 2048   2.561   1.444   1.198  0.5963 -0.2048 -0.9661
  683SOL    HW2 2049   2.554   1.409   1.361 -0.1983  0.4082  0.9191
  684SOL     OW 2050   2.683   1.447   3.019 -0.2864  0.6008 -0.4284
  684SOL    HW1 2051   2.697   1.350   3.031  0.0494  2.4537 -1.2398
  684SOL    HW2 2052   2.621   1.459   2.939 -1.9610  0.6952  0.0069
  685SOL     OW 2053   1.159   1.216   0.248 -0.1524 -0.4734  0.1163
  685SOL    HW1 2054   1.070   1.211   0.197 -0.4542 -0.0734  0.4590
  685SOL    HW2 2055   1.230   1.168   0.193 -0.7823 -0.3768 -0.6556
  686SOL     OW 2056   0.195   0.266   1.168  0.0493  0.0797 -0.1048
  686SOL    HW1 2057   0.226   0.173   1.197  1.1435 -1.7680  1.6630
  686SOL    HW2 2058   0.213   0.266   1.066  1.6933  1.0069  0.4177
  687SOL     OW 2059   0.879   1.739   2.514  0.2548 -0.1185  0.5145
  687SOL    HW1 2060   0.821   1.658   2.533 -0.6104  1.4367  0.2754
  687SOL    HW2 2061   0.884   1.765   2.415  0.0969 -0.8689  1.1851
  688SOL     OW 2062   0.525   1.835   1.320  0.2370 -0.8745 -0.0405
  688SOL    HW1 2063   0.567   1.904   1.261  0.4225 -0.5742  3.2011
  688SOL    HW2 2064   0.549   1.854   1.418 -2.8273 -1.4111  3.3002
  689SOL     OW 2065   1.527   0.747   1.387 -0.4721 -0.2853  0.4148
  689SOL    HW1 2066   1.524   0.835   1.438  0.5349  0.0248 -0.4428
  689SOL    HW2 2067   1.438   0.708   1.365  3.7685  0.3717  0.4709
  690SOL     OW 2068   2.595   0.958   1.210  0.1403  0.5370  0.0749
  690SOL    HW1 2069   2.588   0.863   1.173 -0.9919 -0.1235 -1.5512
  690SOL    HW2 2070   2.692   0.991   1.210 -1.7241  0.3956  0.8852
  691SOL     OW 2071   0.193   2.184   1.905 -0.5671  0.1269  0.9591
  691SOL    HW1 2072   0.182   2.287   1.896 -2.3886  1.3362 -3.5881
  691SOL    HW2 2073   0.116   2.146   1.957  0.1838 -1.7041 -0.5869
  692SOL     OW 2074   1.682   0.002   0.952  0.0184  0.6772 -0.3558
  692SOL    HW1 2075   1.766   0.021   1.005 -1.9291 -0.1203  3.3313
  692SOL    HW2 2076   1.617   3.076   1.009  0.3335 -2.5791 -0.0338
  693SOL     OW 2077   0.113   1.637   2.498 -0.4534 -0.0417 -0.1149
  693SOL    HW1 2078   0.143   1.669   2.588 -0.5262 -0.0655 -1.1608
  693SOL    HW2 2079   0.010   1.624   2.495 -1.7634  1.4389  1.6361
  694SOL     OW 2080   2.294   0.715   1.093  0.5901  0.0564  0.3087
  694SOL    HW1 2081   2.333   0.700   1.185 -0.4651  1.3236 -1.0626
  694SOL    HW2 2082   2.198   0.733   1.094 -0.3124  1.4754  1.1704
  695SOL     OW 2083   1.037   1.340   1.573 -0.0611  0.1441 -0.1149
  695SOL    HW1 2084   0.942   1.359   1.542  0.5871 -1.2376  1.9240
  695SOL    HW2 2085   1.089   1.282   1.507  0.2051 -0.9847  2.0346
  696SOL     OW 2086   1.557   0.007   0.526 -0.2461  0.4729 -0.3857
  696SOL    HW1 2087   1.649   3.094   0.522 -1.2119 -0.3006 -0.1901
  696SOL    HW2 2088   1.543   0.088   0.467  0.5015 -0.8725  1.7067
  697SOL     OW 2089   0.683   0.214   0.996  0.1315  0.6576  0.5228
  697SOL    HW1 2090   0.676   0.280   0.914 -0.0827 -0.6167 -3.0565
  697SOL    HW2 2091   0.783   0.193   1.016  0.9721 -1.5058 -0.9357
  698SOL     OW 2092   1.541   1.519   2.720  0.3336 -0.1855  0.3966
  698SOL    HW1 2093   1.464   1.506   2.648 -3.4162 -2.0217  0.9071
  698SOL    HW2 2094   1.616   1.580   2.677  3.2985 -1.7459 -1.9185
  699SOL     OW 2095   1.322   1.037   1.154 -0.5035 -0.2105  0.1462
  699SOL    HW1 2096   1.396   0.984   1.195  1.1298 -0.6901 -2.0488
  699SOL    HW2 2097   1.277   0.980   1.088 -1.7574  1.6565  0.8538
  700SOL     OW 2098   1.271   3.081   0.287  0.3908 -0.2515 -0.4537
  700SOL    HW1 2099   1.201   3.020   0.251  1.2165 -0.2219  1.6951
  700SOL    HW2 2100   1.362   3.034   0.275  1.2776  0.7126  2.1441
  701SOL     OW 2101   2.605   2.833   2.805  0.4060 -0.5659 -0.4871
  701SOL    HW1 2102   2.559   2.815   2.895 -2.6839 -1.0352 -1.6558
  701SOL    HW2 2103   2.561   2.913   2.765  1.4624 -0.3476  2.2462
  702SOL     OW 2104   1.242   0.176   0.400  0.5475 -0.0252  0.3142
  702SOL    HW1 2105   1.260   0.078   0.365  1.0265 -1.0061 -0.7061
  702SOL    HW2 2106   1.259   0.188   0.501  0.5585  2.6697  0.5695
  703SOL     OW 2107   2.594   0.295   2.226  0.2059  0.6168 -0.5341
  703SOL    HW1 2108   2.540   0.351   2.296 -1.5694 -1.7513 -1.8195
  703SOL    HW2 2109   2.671   0.354   2.186  2.2521  2.2189 -1.1300
  704SOL     OW 2110   2.873   1.822   0.715 -0.1214 -0.6021  0.0022
  704SOL    HW1 2111   2.849   1.748   0.653  1.3310  1.2695 -0.2655
  704SOL    HW2 2112   2.963   1.814   0.765  1.2082 -1.1182 -0.2242
  705SOL     OW 2113   3.107   2.943   2.252  0.1536  0.4765 -0.5244
  705SOL    HW1 2114   3.089   3.040   2.230  1.2050 -0.4914  1.1258
  705SOL    HW2 2115   3.022   2.902   2.294 -0.0247  0.1342  1.0693
  706SOL     OW 2116   2.394   2.457   0.707 -0.2328 -0.1729 -0.1671
  706SOL    HW1 2117   2.494   2.441   0.712 -1.6422  0.8055 -1.8348
  706SOL    HW2 2118   2.340   2.372   0.723  0.9252  1.1412 -1.2972
  707SOL     OW 2119   1.158   2.180   1.762 -0.0896  0.7298  0.6158
  707SOL    HW1 2120   1.145   2.082   1.738  0.2510  4.8136  1.4599
  707SOL    HW2 2121   1.162   2.239   1.675  1.9052  0.7335 -1.8793
  708SOL     OW 2122   0.171   2.461   1.866 -0.0766 -0.1822 -0.1180
  708SOL    HW1 2123   0.251   2.501   1.816 -1.7215 -1.7170  0.2971
  708SOL    HW2 2124   0.196   2.442   1.967  0.1189 -4.0368  0.5582
  709SOL     OW 2125   2.302   2.916   2.115  0.7902 -0.2841  0.7656
  709SOL    HW1 2126   2.225   2.983   2.124 -0.7575 -2.1574 -0.1925
  709SOL    HW2 2127   2.349   2.930   2.031 -3.6352 -1.4888  2.3801
  710SOL     OW 2128   1.880   0.860   2.772 -0.1968  0.4520 -0.3827
  710SOL    HW1 2129   1.953   0.793   2.765 -0.6680 -0.0445 -2.0588
  710SOL    HW2 2130   1.910   0.941   2.720 -0.0518 -0.3247  0.7659
  711SOL     OW 2131   1.158   2.199   0.092  0.0358  0.2678 -0.1937
  711SOL    HW1 2132   1.238   2.144   0.061  0.8687 -0.3785 -0.2976
  711SOL    HW2 2133   1.067   2.158   0.068  1.4422  2.4186 -1.0741
  712SOL     OW 2134   0.570   2.565   2.783  0.0406  0.2780  0.1010
  712SOL    HW1 2135   0.664   2.520   2.775  2.2162 -0.4490 -0.4541
  712SOL    HW2 2136   0.563   2.642   2.720 -1.5812 -2.0733  0.7803
  713SOL     OW 2137   1.548   1.386   2.966  0.5624 -0.3583  0.2806
  713SOL    HW1 2138   1.547   1.429   2.875  1.2132  0.6703 -0.1846
  713SOL    HW2 2139   1.596   1.449   3.032 -2.0414  1.1215  0.6501
  714SOL     OW 2140   0.953   1.593   1.357 -0.9104 -0.0667 -0.7094
  714SOL    HW1 2141   0.913   1.686   1.336 -1.4958  1.9976 -0.6053
  714SOL    HW2 2142   1.054   1.608   1.358  1.1363 -0.5124  1.5160
  715SOL     OW 2143   1.764   0.435   2.909 -0.4292 -0.3337  0.3461
  715SOL    HW1 2144   1.710   0.520   2.885 -0.1422  1.8907  0.5717
  715SOL    HW2 2145   1.866   0.453   2.910 -1.2275 -0.9572 -0.8684
  716SOL     OW 2146   0.078   2.608   2.374 -0.1740  0.7754 -0.2151
  716SOL    HW1 2147   0.166   2.586   2.412  0.5477  1.6057 -2.5019
  716SOL    HW2 2148   0.093   2.614   2.274 -0.3095 -0.4631 -0.6440
  717SOL     OW 2149   2.851   0.606   1.007  0.2008  0.2956  0.1978
  717SOL    HW1 2150   2.761   0.655   0.997  1.8452  1.0469 -0.1548
  717SOL    HW2 2151   2.842   0.515   1.057  0.7221 -1.6517  0.0678
  718SOL     OW 2152   0.771   1.514   2.573 -0.1510  0.6474 -0.0066
  718SOL    HW1 2153   0.758   1.475   2.666 -1.4568 -2.2518  0.8664
  718SOL    HW2 2154   0.697   1.481   2.511  0.5326 -0.8614 -0.0570
  719SOL     OW 2155   2.223   1.087   2.999 -0.1737 -0.0435 -0.4492
  719SOL    HW1 2156   2.146   1.018   3.001 -0.5397 -2.0646  1.7494
  719SOL    HW2 2157   2.284   1.063   2.923  1.5406  0.4999  2.3474
  720SOL     OW 2158   0.920   0.593   0.932  0.2573  0.0702  0.0964
  720SOL    HW1 2159   0.949   0.530   1.008 -2.4619  1.7730 -0.4628
  720SOL    HW2 2160   0.818   0.595   0.925 -0.3058  2.4672 -1.2331
  721SOL     OW 2161   2.588   0.087   0.611 -0.4830 -0.5439  0.1172
  721SOL    HW1 2162   2.652   0.164   0.586 -1.5163 -1.0275 -0.9138
  721SOL    HW2 2163   2.591   0.022   0.532  0.8329 -0.0551 -0.0306
  722SOL     OW 2164   2.097   0.698   2.725  0.7174 -0.2885  0.1766
  722SOL    HW1 2165   2.083   0.601   2.758 -1.2455 -2.0114 -0.9392
  722SOL    HW2 2166   2.188   0.719   2.679  0.3890  0.6720 -0.7555
  723SOL     OW 2167   2.180   0.355   0.507  0.0740  0.2135 -0.1365
  723SOL    HW1 2168   2.160   0.261   0.467 -0.0710 -0.9490 -0.6953
  723SOL    HW2 2169   2.202   0.416   0.429 -0.5434 -3.0618 -0.1491
  724SOL     OW 2170   0.794   1.606   1.995 -0.4509 -0.0475  0.1331
  724SOL    HW1 2171   0.854   1.523   1.983  1.3309 -0.4335 -0.7520
  724SOL    HW2 2172   0.782   1.651   1.907 -2.0026 -0.9383  0.4606
  725SOL     OW 2173   1.670   0.440   1.165 -0.5474 -0.0846 -0.1092
  725SOL    HW1 2174   1.745   0.443   1.237 -2.6292  1.2791 -1.1389
  725SOL    HW2 2175   1.696   0.485   1.079 -2.1336 -2.3940  3.3476
  726SOL     OW 2176   1.967   2.816   0.307  0.1476  0.0512 -0.4141
  726SOL    HW1 2177   2.002   2.852   0.396 -1.3131  2.8172  1.0477
  726SOL    HW2 2178   1.937   2.716   0.320  1.9292 -2.4461  2.0672
  727SOL     OW 2179   1.682   1.459   1.808 -0.3237  0.0614  0.8201
  727SOL    HW1 2180   1.706   1.535   1.747  0.5612  2.4213  2.0098
  727SOL    HW2 2181   1.696   1.366   1.767 -0.8619 -1.9463 -1.8461
  728SOL     OW 2182   2.124   2.577   1.470 -0.1617  0.4839 -0.3161
  728SOL    HW1 2183   2.049   2.553   1.528 -2.1364  0.6583 -0.0430
  728SOL    HW2 2184   2.109   2.652   1.400 -0.6693  1.4593 -0.6131
  729SOL     OW 2185   2.331   1.808   0.779 -0.5557  0.3971  0.2341
  729SOL    HW1 2186   2.250   1.815   0.719 -0.2144 -0.6976  0.8250
  729SOL    HW2 2187   2.401   1.756   0.723  2.0939 -0.6129  1.8131
  730SOL     OW 2188   0.746   1.001   2.717  0.1195 -0.1777  0.0084
  730SOL    HW1 2189   0.715   1.073   2.652 -0.3776  0.6269 -0.3263
  730SOL    HW2 2190   0.794   1.043   2.800  1.4296 -2.6579  1.7432
  731SOL     OW 2191   0.413   3.119   0.733  0.5243 -0.2381 -0.1494
  731SOL    HW1 2192   0.399   0.077   0.682  1.0994 -1.0803 -1.4647
  731SOL    HW2 2193   0.439   0.006   0.831 -2.4768 -1.8288 -2.8508
  732SOL     OW 2194   1.412   0.683   0.466  0.1863  0.3652  0.1158
  732SOL    HW1 2195   1.367   0.647   0.381  1.2094  2.0873  1.8317
  732SOL    HW2 2196   1.364   0.655   0.553  2.4140  2.7048  0.0292
  733SOL     OW 2197   0.494   2.245   1.161 -0.0990 -0.0756  0.1189
  733SOL    HW1 2198   0.559   2.259   1.238  0.8451  0.4973  0.2154
  733SOL    HW2 2199   0.516   2.158   1.110 -0.3249 -1.3845  0.0952
  734SOL     OW 2200   0.304   2.529   0.419  0.2345  0.4324 -0.0067
  734SOL    HW1 2201   0.354   2.607   0.380  1.4364  0.5727 -0.7879
  734SOL    HW2 2202   0.209   2.564   0.445 -0.0333  0.4001  1.0528
  735SOL     OW 2203   1.361   0.061   1.229 -0.4932 -0.0167  0.3516
  735SOL    HW1 2204   1.260   0.070   1.216  2.5211 -1.9647 -1.6536
  735SOL    HW2 2205   1.412   0.135   1.179  3.4090 -0.2804  0.6705
  736SOL     OW 2206   2.109   2.476   2.990 -0.1733 -0.0343  0.3695
  736SOL    HW1 2207   2.054   2.552   3.024  1.8545  1.0939  1.9444
  736SOL    HW2 2208   2.048   2.410   2.936 -0.7240  0.3560  0.1161
  737SOL     OW 2209   0.077   0.812   0.817  0.0488  0.4164  0.1557
  737SOL    HW1 2210   0.013   0.886   0.787  1.9787  2.6103 -1.1883
  737SOL    HW2 2211   0.076   0.733   0.756  2.0693 -0.5149 -5.2649
  738SOL     OW 2212   2.679   2.755   2.057  0.0060  0.5695 -0.3720
  738SOL    HW1 2213   2.771   2.726   2.080 -0.5398  2.2439  0.3903
  738SOL    HW2 2214   2.621   2.733   2.141  0.0823  0.0089 -0.3653
  739SOL     OW 2215   1.496   2.301   3.110  0.1478  0.0956 -0.4457
  739SOL    HW1 2216   1.427   2.240   3.064 -0.5118 -1.5106  0.6901
  739SOL    HW2 2217   1.474   2.331   0.080 -1.1227 -2.9999  2.0854
  740SOL     OW 2218   1.480   0.298   1.041 -0.1080 -0.0830 -0.0028
  740SOL    HW1 2219   1.558   0.358   1.075 -0.7357 -0.2501  0.9722
  740SOL    HW2 2220   1.495   0.282   0.942  0.3749  0.0745  0.4752
  741SOL     OW 2221   2.854   0.759   0.673 -0.1466 -0.0331 -0.2385
  741SOL    HW1 2222   2.915   0.787   0.598  0.0455 -2.6905  2.7013
  741SOL    HW2 2223   2.886   0.667   0.709 -3.0405 -1.7819 -1.7999
  742SOL     OW 2224   0.786   1.392   2.841 -0.4283 -0.3605 -0.5192
  742SOL    HW1 2225   0.860   1.430   2.895  0.3430 -0.5918  1.2690
  742SOL    HW2 2226   0.697   1.444   2.853 -1.0352 -1.6368  0.7535
  743SOL     OW 2227   1.234   0.554   2.273  0.1485 -0.1913  0.1020
  743SOL    HW1 2228   1.233   0.603   2.364 -1.7309 -0.2203  0.0098
  743SOL    HW2 2229   1.138   0.526   2.250 -0.5220  2.7062 -0.3573
  744SOL     OW 2230   2.099   0.583   1.434 -0.2145 -0.4540  0.9739
  744SOL    HW1 2231   2.169   0.652   1.395 -0.9250 -1.0347 -0.9498
  744SOL    HW2 2232   2.112   0.574   1.535  1.3552 -1.4546  0.4249
  745SOL     OW 2233   1.492   1.257   1.473  0.3724  0.2628 -0.3538
  745SOL    HW1 2234   1.428   1.314   1.425  3.1332 -1.1148  0.3526
  745SOL    HW2 2235   1.565   1.310   1.523  1.7394 -0.0962  1.4029
  746SOL     OW 2236   2.155   1.388   0.952  0.0558  0.1280  0.1989
  746SOL    HW1 2237   2.164   1.482   0.911 -1.0126  0.8922 -0.7337
  746SOL    HW2 2238   2.093   1.330   0.897 -0.0588 -1.1606 -0.5318
  747SOL     OW 2239   2.513   1.583   1.117  0.0597  0.2934  0.1364
  747SOL    HW1 2240   2.521   1.581   1.017 -2.5767 -0.5495  1.1325
  747SOL    HW2 2241   2.460   1.665   1.145  0.6672  0.3667 -2.1544
  748SOL     OW 2242   0.853   2.084   0.998  0.1045  0.0495 -0.0706
  748SOL    HW1 2243   0.846   2.182   0.984 -1.0277  0.7650  1.1962
  748SOL    HW2 2244   0.947   2.048   0.982  0.6445  2.4758  1.5092
  749SOL     OW 2245   2.586   2.720   2.333 -0.1576  0.2166  0.2829
  749SOL    HW1 2246   2.626   2.631   2.356 -0.9083  0.0859  1.2385
  749SOL    HW2 2247   2.665   2.786   2.343  1.4287  0.2980  1.5911
  750SOL     OW 2248   2.221   0.509   0.738  0.2710  0.3096 -0.3950
  750SOL    HW1 2249   2.209   0.451   0.659  0.1080  1.0477  0.9181
  750SOL    HW2 2250   2.140   0.571   0.747 -0.1158 -0.6655  0.1325
  751SOL     OW 2251   2.425   2.793   0.414  0.2436 -0.2607  0.2786
  751SOL    HW1 2252   2.481   2.790   0.500  1.0177 -2.7976  0.2060
  751SOL    HW2 2253   2.353   2.720   0.412 -0.4803  1.1258  1.2287
  752SOL     OW 2254   0.143   3.094   0.775  0.1267  0.0354 -0.5862
  752SOL    HW1 2255   0.112   3.018   0.833  1.2605 -0.0008  0.4305
  752SOL    HW2 2256   0.241   3.084   0.749  0.5648  0.2863  1.5407
  753SOL     OW 2257   1.901   1.051   2.297 -0.2972  0.2083 -0.0682
  753SOL    HW1 2258   1.835   1.111   2.247 -2.6015 -1.2175  1.6076
  753SOL    HW2 2259   1.888   0.958   2.267  1.7741  0.5415  0.7255
  754SOL     OW 2260   1.706   1.973   1.667 -0.3022 -0.3300 -0.4813
  754SOL    HW1 2261   1.651   1.923   1.737 -0.3347  0.4621 -1.6619
  754SOL    HW2 2262   1.691   1.932   1.576 -0.1427  3.2563 -1.8835
  755SOL     OW 2263   2.597   0.716   1.012 -0.4153 -0.2572  0.2832
  755SOL    HW1 2264   2.566   0.655   1.085  0.1488  0.1856  0.5872
  755SOL    HW2 2265   2.520   0.729   0.940 -2.2921 -0.5386 -1.2546
  756SOL     OW 2266   0.960   1.528   3.006 -0.0827 -0.5715  0.4741
  756SOL    HW1 2267   1.029   1.544   2.937 -1.0245 -1.1134  1.5327
  756SOL    HW2 2268   0.993   1.550   3.102 -2.1895  1.4081  1.2572
  757SOL     OW 2269   1.523   2.596   0.862 -0.0254  0.0262 -0.5626
  757SOL    HW1 2270   1.502   2.697   0.869  2.5452  3.0030 -1.1114
  757SOL    HW2 2271   1.543   2.577   0.765 -1.0926 -1.1624  2.6007
  758SOL     OW 2272   1.208   2.734   1.485  0.2236 -0.0935  0.4464
  758SOL    HW1 2273   1.303   2.754   1.510 -0.0562 -0.9671 -2.3536
  758SOL    HW2 2274   1.152   2.690   1.563  0.7050 -2.3683  0.0440
  759SOL     OW 2275   0.093   0.587   0.621  0.0252  0.8787  0.0761
  759SOL    HW1 2276   3.126   0.552   0.646 -1.7645  2.2613  1.1715
  759SOL    HW2 2277   0.105   0.611   0.522 -1.2538 -1.8002  2.2845
  760SOL     OW 2278   2.420   1.160   1.251  0.1305 -0.8863 -0.0488
  760SOL    HW1 2279   2.483   1.083   1.249 -1.7140  1.1529  1.5997
  760SOL    HW2 2280   2.474   1.240   1.263 -0.7905 -0.3086  1.1174
  761SOL     OW 2281   1.900   0.035   0.584  0.3450  0.5989 -0.3945
  761SOL    HW1 2282   1.848   3.090   0.636  0.5598 -1.8567 -0.4625
  761SOL    HW2 2283   1.964   0.087   0.647  0.3084  0.1412 -1.5232
  762SOL     OW 2284   2.131   1.726   3.087  0.1025  0.3409  0.2903
  762SOL    HW1 2285   2.161   1.644   0.019 -0.3140 -0.0752  0.1402
  762SOL    HW2 2286   2.159   1.812   0.001 -1.9328 -3.1661 -3.4582
  763SOL     OW 2287   0.597   1.937   1.566 -0.5025  0.1060  0.2745
  763SOL    HW1 2288   0.695   1.912   1.588  1.3269 -1.7910  0.5648
  763SOL    HW2 2289   0.534   1.904   1.639  1.4235  2.4393  0.1493
  764SOL     OW 2290   2.746   2.082   2.697 -0.2261 -0.2704 -0.4688
  764SOL    HW1 2291   2.649   2.076   2.712  0.6234  0.5988  0.4251
  764SOL    HW2 2292   2.790   2.155   2.754 -0.1507 -0.1048  2.8020
  765SOL     OW 2293   0.545   2.630   1.137  0.3452 -0.1113  0.4963
  765SOL    HW1 2294   0.641   2.652   1.117  0.5342 -0.4647  0.0646
  765SOL    HW2 2295   0.517   2.550   1.079 -1.7094  1.2426  1.7389
  766SOL     OW 2296   0.099   2.233   2.489 -0.5931  0.0345  0.0244
  766SOL    HW1 2297   0.165   2.239   2.565 -0.5537 -0.1697 -0.0693
  766SOL    HW2 2298   0.130   2.165   2.419  1.5528 -2.3813  0.5668
  767SOL     OW 2299   2.326   0.752   2.579  0.0872  0.6209 -0.1910
  767SOL    HW1 2300   2.336   0.834   2.514 -0.2500  2.3507  0.3904
  767SOL    HW2 2301   2.415   0.720   2.617  1.4388  1.0265 -0.8952
  768SOL     OW 2302   1.540   0.214   2.667 -0.1405 -0.3879 -0.2373
  768SOL    HW1 2303   1.470   0.283   2.640 -1.1368 -0.6750  0.9340
  768SOL    HW2 2304   1.524   0.177   2.760  0.3402 -0.7233 -0.0539
  769SOL     OW 2305   3.084   2.675   0.870 -0.0469  0.0172 -0.2216
  769SOL    HW1 2306   0.032   2.668   0.802 -1.0532  1.5069  0.0194
  769SOL    HW2 2307   3.096   2.593   0.930  0.2377  0.3943 -1.1934
  770SOL     OW 2308   0.736   0.319   2.976  0.4425  0.0531  0.4602
  770SOL    HW1 2309   0.689   0.364   3.051  0.9140 -3.0157 -0.3681
  770SOL    HW2 2310   0.689   0.240   2.930  0.5314  1.0033  0.5335
  771SOL     OW 2311   1.404   1.796   2.415 -0.7037 -0.7131 -0.5540
  771SOL    HW1 2312   1.477   1.785   2.345  0.7471  1.8654 -2.0555
  771SOL    HW2 2313   1.313   1.788   2.388 -0.4960  1.4467  0.3201
  772SOL     OW 2314   1.915   2.848   2.236  0.1924  0.3324 -0.0276
  772SOL    HW1 2315   1.919   2.910   2.317  0.8303 -0.8820  0.2416
  772SOL    HW2 2316   1.946   2.900   2.154 -2.7774  0.5244 -0.4403
  773SOL     OW 2317   1.718   0.606   1.517  0.2073 -0.3165  0.0133
  773SOL    HW1 2318   1.649   0.646   1.454  2.0947 -1.6983  0.6546
  773SOL    HW2 2319   1.668   0.595   1.607 -2.4683  0.5703 -0.7371
  774SOL     OW 2320   1.027   0.416   1.106 -0.1917  0.1169  0.0573
  774SOL    HW1 2321   1.130   0.427   1.104  0.8649  1.4529  1.5985
  774SOL    HW2 2322   0.990   0.455   1.190  0.0875 -0.2816  1.7010
  775SOL     OW 2323   2.091   3.033   2.968  0.2412 -0.3784 -0.3639
  775SOL    HW1 2324   2.007   3.004   3.011 -0.1917  1.3468 -0.3158
  775SOL    HW2 2325   2.113   2.967   2.891 -1.3573  1.8385  0.9462
  776SOL     OW 2326   2.110   0.553   1.720 -0.1922 -0.4449  0.0394
  776SOL    HW1 2327   2.013   0.564   1.750 -3.9730  0.5475 -0.8515
  776SOL    HW2 2328   2.167   0.605   1.788  1.6800  1.0172 -2.6055
  777SOL     OW 2329   2.849   1.486   2.293  0.7196  0.0935 -0.2012
  777SOL    HW1 2330   2.909   1.509   2.367 -0.4463 -1.1083 -2.7840
  777SOL    HW2 2331   2.774   1.434   2.335  4.0217 -1.4173 -2.1843
  778SOL     OW 2332   2.875   1.172   2.517  0.2760  0.1661  0.0762
  778SOL    HW1 2333   2.971   1.204   2.549  0.4388 -1.7426 -0.9397
  778SOL    HW2 2334   2.810   1.252   2.514  0.3483 -0.7386 -2.5823
  779SOL     OW 2335   3.031   0.728   3.043  0.4089  0.1780  0.0765
  779SOL    HW1 2336   3.116   0.682   3.022  1.3673 -0.8842  0.6799
  779SOL    HW2 2337   2.952   0.662   3.043 -1.5990 -0.9247 -0.0868
  780SOL     OW 2338   2.520   2.300   2.424  0.0890 -0.0146 -0.2663
  780SOL    HW1 2339   2.594   2.277   2.363 -3.0332 -0.3681 -0.7593
  780SOL    HW2 2340   2.485   2.395   2.419  1.5492 -0.3971 -2.4755
  781SOL     OW 2341   2.799   1.171   1.933 -0.4924 -0.0925 -0.8744
  781SOL    HW1 2342   2.875   1.202   1.870 -0.7018  1.9356  0.6511
  781SOL    HW2 2343   2.721   1.132   1.881 -0.0531  1.2091 -0.8441
  782SOL     OW 2344   1.158   2.172   2.670 -0.5849 -0.4748  0.2579
  782SOL    HW1 2345   1.211   2.091   2.631  0.3942 -1.2087  1.8762
  782SOL    HW2 2346   1.124   2.148   2.766  2.1449  0.2220 -0.7887
  783SOL     OW 2347   1.047   2.454   1.092 -0.2842 -0.2685  0.0567
  783SOL    HW1 2348   1.108   2.382   1.058  1.7744 -0.4892  1.0705
  783SOL    HW2 2349   1.095   2.545   1.085 -0.4486 -0.1054 -0.9692
  784SOL     OW 2350   2.012   0.720   2.429  0.1307 -0.4443  0.0960
  784SOL    HW1 2351   2.016   0.624   2.450  2.0033 -2.4708  0.6963
  784SOL    HW2 2352   2.012   0.777   2.512 -0.1829 -1.1852 -1.1976
  785SOL     OW 2353   2.939   0.155   1.709 -0.0479  0.0900 -0.1826
  785SOL    HW1 2354   2.866   0.217   1.666 -3.0001  1.5124 -0.6210
  785SOL    HW2 2355   2.994   0.102   1.642 -0.8712 -1.9110  0.3381
  786SOL     OW 2356   1.398   2.389   0.239 -0.5037  0.3119 -0.0011
  786SOL    HW1 2357   1.304   2.357   0.203 -3.1773  0.1434 -0.8888
  786SOL    HW2 2358   1.384   2.442   0.327  0.2326 -1.6697  0.2313
  787SOL     OW 2359   0.943   0.008   0.835  0.2609 -0.4347 -0.2358
  787SOL    HW1 2360   0.877   3.116   0.760  2.0992 -3.2634 -1.1098
  787SOL    HW2 2361   0.924   0.086   0.894  1.1782  0.3980 -0.5601
  788SOL     OW 2362   0.006   1.165   0.897  0.2815 -0.1651  0.6904
  788SOL    HW1 2363   0.036   1.261   0.876  0.5373  1.4208  0.9149
  788SOL    HW2 2364   0.022   1.119   0.806 -0.9686  1.7400 -2.3602
  789SOL     OW 2365   2.593   1.064   2.290 -0.4267 -0.7302  0.4305
  789SOL    HW1 2366   2.505   1.025   2.329 -0.8771  0.6445  0.0392
  789SOL    HW2 2367   2.663   0.994   2.274  0.7882  0.3118  2.3482
  790SOL     OW 2368   1.115   0.251   2.754  0.1976  0.0928 -0.2287
  790SOL    HW1 2369   1.138   0.251   2.653  0.7983  0.9117 -1.6896
  790SOL    HW2 2370   1.020   0.283   2.756 -2.1305 -2.1049 -0.2240
  791SOL     OW 2371   0.220   2.912   0.124 -0.2091 -0.1561 -0.5459
  791SOL    HW1 2372   0.241   3.012   0.113 -3.1470 -0.1707  1.5991
  791SOL    HW2 2373   0.309   2.861   0.105  0.8604  3.7416 -1.2027
  792SOL     OW 2374   1.539   0.825   1.876 -0.6993 -0.3225  0.4084
  792SOL    HW1 2375   1.575   0.844   1.968 -1.2753 -1.3780  0.0784
  792SOL    HW2 2376   1.456   0.885   1.858  2.1235 -1.2997  0.3113
  793SOL     OW 2377   3.033   0.210   1.023  0.6917 -0.3517  0.5076
  793SOL    HW1 2378   3.124   0.215   0.980 -1.2856 -2.2564  0.3692
  793SOL    HW2 2379   3.010   0.287   1.087 -0.7357 -0.2743  0.7114
  794SOL     OW 2380   0.318   0.174   2.199 -0.0958  0.0215 -0.1428
  794SOL    HW1 2381   0.411   0.129   2.184  1.0529 -0.4174 -0.9079
  794SOL    HW2 2382   0.254   0.145   2.125 -0.8757  1.5319  0.3542
  795SOL     OW 2383   0.535   1.670   0.451  0.1161  0.0822 -0.0322
  795SOL    HW1 2384   0.445   1.665   0.409  0.2514  2.4899  0.8528
  795SOL    HW2 2385   0.595   1.747   0.418 -1.2130 -0.7703  1.1154
  796SOL     OW 2386   3.124   0.911   2.840  0.1496  0.2574  0.6042
  796SOL    HW1 2387   3.114   0.858   2.925 -0.2317 -0.0292 -0.0119
  796SOL    HW2 2388   3.037   0.955   2.807 -0.3286 -0.1979  0.9178
  797SOL     OW 2389   2.295   3.114   2.329 -0.1680  0.6145 -0.6361
  797SOL    HW1 2390   2.282   3.018   2.350  0.1662 -0.4952 -1.2061
  797SOL    HW2 2391   2.384   0.003   2.278  1.5684  0.4104 -0.7287
  798SOL     OW 2392   0.119   2.968   1.226  0.1758  0.0058  0.2575
  798SOL    HW1 2393   0.134   2.956   1.125  0.0990  1.3021  0.8939
  798SOL    HW2 2394   0.020   2.991   1.251 -0.0524  0.2266  0.3883
  799SOL     OW 2395   2.773   0.769   1.769  0.1401  0.1487  0.1936
  799SOL    HW1 2396   2.830   0.766   1.685 -0.2503  0.1810  0.1526
  799SOL    HW2 2397   2.710   0.848   1.758 -0.5002  1.8439 -1.1244
  800SOL     OW 2398   0.378   1.316   0.515  0.2915  0.3989 -0.4756
  800SOL    HW1 2399   0.367   1.419   0.495  1.9930  0.0898  1.5736
  800SOL    HW2 2400   0.472   1.300   0.543 -1.4498  2.8627 -1.1944
  801SOL     OW 2401   1.867   1.696   0.353  0.4435  0.5178  0.6580
  801SOL    HW1 2402   1.862   1.744   0.441  1.8606 -1.3279 -2.0287
  801SOL    HW2 2403   1.875   1.592   0.360 -3.1045  0.9777 -1.9955
  802SOL     OW 2404   1.361   0.992   2.831  0.1309  0.4345  0.3274
  802SOL    HW1 2405   1.331   0.935   2.750 -2.1482  3.1065 -2.1365
  802SOL    HW2 2406   1.453   0.955   2.853 -0.3862 -0.8211 -1.2043
  803SOL     OW 2407   1.116   1.921   1.701 -0.3355  0.6465  0.4200
  803SOL    HW1 2408   1.210   1.934   1.663  0.6897 -3.6544  4.1492
  803SOL    HW2 2409   1.119   1.843   1.762  1.1163  1.7870  0.5475
  804SOL     OW 2410   1.668   2.336   0.950 -0.2014 -0.2401  0.0471
  804SOL    HW1 2411   1.733   2.328   0.874 -0.2504  1.3758  1.9294
  804SOL    HW2 2412   1.625   2.427   0.951  2.7369  0.2005  1.1935
  805SOL     OW 2413   3.019   2.376   2.418  0.3787  0.3005  0.5137
  805SOL    HW1 2414   3.096   2.305   2.442  0.2767 -2.2875  0.6847
  805SOL    HW2 2415   3.054   2.465   2.395 -0.2447 -0.1833  0.1252
  806SOL     OW 2416   0.003   3.075   0.333  0.3021 -0.2157  0.2152
  806SOL    HW1 2417   3.091   3.100   0.423 -0.5983 -1.1332 -0.5756
  806SOL    HW2 2418   0.039   2.981   0.327  0.5810 -0.1533  0.6583
  807SOL     OW 2419   2.479   0.815   2.896  0.1525  0.1280 -0.0208
  807SOL    HW1 2420   2.493   0.763   2.806 -1.3133  3.5278 -2.4927
  807SOL    HW2 2421   2.449   0.751   2.974 -0.9166  1.0133  3.2946
  808SOL     OW 2422   1.265   2.479   0.815  0.9046  0.2167 -0.1424
  808SOL    HW1 2423   1.363   2.508   0.815 -3.4118 -1.4543 -2.7500
  808SOL    HW2 2424   1.247   2.395   0.872  0.7981 -1.2263 -1.6493
  809SOL     OW 2425   2.793   0.260   2.748  0.7044  0.6084 -0.0895
  809SOL    HW1 2426   2.815   0.164   2.722  0.4707  2.7043 -1.0992
  809SOL    HW2 2427   2.770   0.305   2.660 -0.6126 -1.4670  3.0178
  810SOL     OW 2428   1.483   1.008   0.841  0.2838  0.3463 -0.3597
  810SOL    HW1 2429   1.426   1.062   0.781  0.9308  1.1370  0.6456
  810SOL    HW2 2430   1.437   0.991   0.932 -0.4436 -0.3571  0.4761
  811SOL     OW 2431   1.833   2.973   1.461  0.0087  0.7684 -0.0086
  811SOL    HW1 2432   1.808   3.050   1.395  0.0509 -0.8115 -1.1025
  811SOL    HW2 2433   1.758   2.948   1.524 -1.5622 -2.3230 -1.4811
  812SOL     OW 2434   1.476   2.885   0.270  0.2069 -0.0655 -0.5108
  812SOL    HW1 2435   1.421   2.874   0.356 -2.4838 -1.0930  0.3821
  812SOL    HW2 2436   1.459   2.804   0.208  1.4609 -0.0144 -0.6364
  813SOL     OW 2437   1.341   0.354   2.112 -0.6120  0.1334 -0.3188
  813SOL    HW1 2438   1.298   0.429   2.168  0.1269  0.6955  2.9733
  813SOL    HW2 2439   1.350   0.271   2.177  0.5682 -1.9453  1.0177
  814SOL     OW 2440   0.329   0.004   1.213  0.5771 -0.0016  0.1409
  814SOL    HW1 2441   0.246   3.076   1.229 -0.5577  0.1214  1.0265
  814SOL    HW2 2442   0.380   0.023   1.302  1.6140 -1.8059  0.2926
  815SOL     OW 2443   0.364   2.787   0.988 -0.3786 -0.2941 -0.6341
  815SOL    HW1 2444   0.386   2.778   0.893 -0.4815 -0.6686  2.1878
  815SOL    HW2 2445   0.429   2.737   1.049  0.1192 -0.0240  3.6900
  816SOL     OW 2446   2.638   1.548   2.663 -0.0627  0.1316  0.3381
  816SOL    HW1 2447   2.557   1.602   2.702 -2.2687  3.1696 -2.5099
  816SOL    HW2 2448   2.700   1.619   2.631 -2.8063  0.1618 -1.8171
  817SOL     OW 2449   1.316   0.003   3.105  0.7008  0.7032 -0.2029
  817SOL    HW1 2450   1.404   0.045   0.003 -0.7186 -3.1062 -0.6996
  817SOL    HW2 2451   1.337   3.035   3.066  1.7199 -0.1750 -3.4865
  818SOL     OW 2452   1.735   0.866   0.071 -0.2024 -0.3558 -0.0681
  818SOL    HW1 2453   1.748   0.934   0.148  1.2868  2.8773  1.5109
  818SOL    HW2 2454   1.755   0.773   0.100 -1.2997  2.9172 -1.1630
  819SOL     OW 2455   1.889   2.802   2.779  0.1571  0.7649 -0.2311
  819SOL    HW1 2456   1.891   2.892   2.738 -2.4269 -3.1861  1.1333
  819SOL    HW2 2457   1.979   2.774   2.808 -5.2540  1.3236 -0.7275
  820SOL     OW 2458   1.370   1.089   0.078 -0.7382 -0.2684  0.1372
  820SOL    HW1 2459   1.429   1.066   3.126 -1.5385  2.7714 -0.3211
  820SOL    HW2 2460   1.419   1.118   0.163 -1.4111 -0.0828  1.4091
  821SOL     OW 2461   0.239   0.595   1.374  0.3824  0.1709 -0.3597
  821SOL    HW1 2462   0.305   0.667   1.396 -2.8878 -3.8851 -1.0178
  821SOL    HW2 2463   0.212   0.599   1.277 -0.8922 -3.0721  1.8574
  822SOL     OW 2464   1.340   2.687   2.376 -0.1328  0.0731  0.4167
  822SOL    HW1 2465   1.401   2.674   2.297 -1.2094  2.6378  0.2196
  822SOL    HW2 2466   1.295   2.600   2.400 -0.9131  2.3419  0.9330
  823SOL     OW 2467   0.632   1.428   2.119  0.0498  0.0708  0.4089
  823SOL    HW1 2468   0.689   1.504   2.079 -2.3830  0.5116  1.8233
  823SOL    HW2 2469   0.665   1.336   2.089 -0.0412 -0.6553  0.6751
  824SOL     OW 2470   1.986   2.802   1.829  0.1153 -0.5530  0.4554
  824SOL    HW1 2471   2.014   2.706   1.829 -2.0829  0.0932 -4.2430
  824SOL    HW2 2472   2.049   2.855   1.772  1.0849 -0.1695  1.3199
  825SOL     OW 2473   0.869   1.387   0.330 -0.2514  0.0129  0.0272
  825SOL    HW1 2474   0.863   1.484   0.292 -1.2988  0.6109 -2.9021
  825SOL    HW2 2475   0.921   1.329   0.264 -1.2838 -1.3075 -3.5681
  826SOL     OW 2476   2.099   0.443   2.445 -0.0553  0.0293  0.3174
  826SOL    HW1 2477   2.159   0.476   2.518  1.3620 -0.6695 -1.5597
  826SOL    HW2 2478   2.078   0.347   2.467 -0.0070  2.0750  1.6730
  827SOL     OW 2479   0.536   2.294   2.960  0.1109  0.2620  0.0562
  827SOL    HW1 2480   0.567   2.391   2.971 -0.2992  2.2141  1.4378
  827SOL    HW2 2481   0.523   2.279   2.860 -0.0833  3.7736  1.4174
  828SOL     OW 2482   3.014   0.019   1.293  0.0140  0.3992  0.2598
  828SOL    HW1 2483   3.046   0.051   1.203 -1.1370 -0.3855 -0.4524
  828SOL    HW2 2484   2.916   0.047   1.309  0.5111  0.5069  1.0233
  829SOL     OW 2485   1.213   1.575   1.095  0.2144 -0.3723  0.2526
  829SOL    HW1 2486   1.224   1.610   1.192  1.0922 -1.5792 -2.5289
  829SOL    HW2 2487   1.201   1.474   1.087  2.3572  1.0131  1.2306
  830SOL     OW 2488   0.450   1.421   1.755 -0.2043  0.3074  0.2073
  830SOL    HW1 2489   0.447   1.513   1.799 -1.3900  0.9104 -0.4381
  830SOL    HW2 2490   0.395   1.418   1.668 -1.1651 -1.8461  1.3672
  831SOL     OW 2491   0.440   1.905   0.316  0.0265  0.0290 -0.3693
  831SOL    HW1 2492   0.413   1.828   0.258 -2.2067 -1.7586 -0.1684
  831SOL    HW2 2493   0.404   1.990   0.279  0.2316  0.8597  0.7319
  832SOL     OW 2494   0.932   3.110   2.656 -0.0524 -0.3720 -0.5119
  832SOL    HW1 2495   0.966   0.008   2.749  1.5416 -3.1951  0.4031
  832SOL    HW2 2496   0.831   3.116   2.652 -0.3798 -1.1064  0.4856
  833SOL     OW 2497   0.024   0.539   1.927 -0.2474 -0.2263  0.0169
  833SOL    HW1 2498   0.017   0.505   1.827  3.5629  1.8310 -2.2968
  833SOL    HW2 2499   3.095   0.623   1.941 -1.0938 -2.4498  1.2730
  834SOL     OW 2500   3.101   0.705   1.065  0.2327 -0.0782  0.2459
  834SOL    HW1 2501   0.020   0.740   0.982 -0.6196 -2.5314  0.4007
  834SOL    HW2 2502   3.005   0.670   1.045 -1.8153 -0.6848 -0.3469
  835SOL     OW 2503   2.811   2.915   1.025  0.2336  0.0112 -0.3026
  835SOL    HW1 2504   2.862   3.000   0.999 -1.7203 -0.9882  0.1202
  835SOL    HW2 2505   2.856   2.872   1.101 -0.6749  1.9225  2.5353
  836SOL     OW 2506   0.638   2.078   3.078 -0.0473 -0.4489  0.1514
  836SOL    HW1 2507   0.670   2.087   0.049  0.9494  1.4942  1.5872
  836SOL    HW2 2508   0.599   2.163   3.041  2.2169  1.3447  2.8091
  837SOL     OW 2509   1.819   2.143   0.016  0.3398  0.1346  0.2224
  837SOL    HW1 2510   1.853   2.208   3.069  0.8575 -0.8464 -1.6800
  837SOL    HW2 2511   1.896   2.116   0.077  0.0572  1.1840 -2.7526
  838SOL     OW 2512   2.625   1.260   2.129 -0.1143  0.1466  0.5040
  838SOL    HW1 2513   2.625   1.183   2.197  4.3265 -0.4181 -2.0882
  838SOL    HW2 2514   2.681   1.223   2.053 -1.1408 -0.6275  0.8741
  839SOL     OW 2515   1.139   0.983   0.641  0.4378  0.1532 -0.4440
  839SOL    HW1 2516   1.050   0.945   0.658  2.4450 -0.5261 -1.0738
  839SOL    HW2 2517   1.140   1.077   0.604  2.5997 -1.4693  2.0936
  840SOL     OW 2518   1.931   0.540   0.968  0.0979  0.2954 -0.5170
  840SOL    HW1 2519   1.972   0.592   0.893 -1.1140 -0.8864 -0.5831
  840SOL    HW2 2520   1.832   0.527   0.948  0.7280 -0.0255  1.8297
  841SOL     OW 2521   0.666   2.924   0.913 -0.4618 -0.2690 -0.5822
  841SOL    HW1 2522   0.608   2.995   0.956  1.8390  1.5050  0.7865
  841SOL    HW2 2523   0.734   2.972   0.853  2.2124 -1.9483 -1.1973
  842SOL     OW 2524   0.407   0.537   0.466 -0.7945  0.3117 -0.1040
  842SOL    HW1 2525   0.339   0.463   0.488  0.6301 -0.9669 -0.4161
  842SOL    HW2 2526   0.387   0.569   0.370 -2.5870 -0.4300  0.3912
  843SOL     OW 2527   0.445   0.607   1.821 -0.0861 -0.3303 -0.0515
  843SOL    HW1 2528   0.450   0.698   1.776  1.1418 -0.0175 -1.2015
  843SOL    HW2 2529   0.389   0.617   1.910  0.6347  0.4308  1.5003
  844SOL     OW 2530   1.666   2.520   3.097  0.1132  0.0922  1.4080
  844SOL    HW1 2531   1.679   2.571   3.011 -0.9820 -0.4500  0.5033
  844SOL    HW2 2532   1.606   2.432   3.079  0.7363 -4.1587  0.3411
  845SOL     OW 2533   2.790   2.542   2.363  0.0191 -0.4451  0.6277
  845SOL    HW1 2534   2.842   2.568   2.282  2.5311 -2.1407 -0.5159
  845SOL    HW2 2535   2.859   2.529   2.435 -0.5403 -1.4189 -1.8648
  846SOL     OW 2536   1.590   1.988   2.765  0.4520  0.1045  0.6529
  846SOL    HW1 2537   1.591   2.035   2.854  0.2247  0.7284 -0.7200
  846SOL    HW2 2538   1.637   1.900   2.779 -0.1731 -0.5159  0.6422
  847SOL     OW 2539   2.335   2.781   2.334 -0.2271  0.4928  0.4732
  847SOL    HW1 2540   2.432   2.756   2.346  1.6439 -0.2135  0.3703
  847SOL    HW2 2541   2.322   2.830   2.245  0.6880  0.2761  2.7164
  848SOL     OW 2542   0.757   0.207   0.209  0.0013 -0.2155  0.4143
  848SOL    HW1 2543   0.706   0.288   0.175 -1.0372 -1.0830 -1.1152
  848SOL    HW2 2544   0.841   0.237   0.261  0.7467  0.5263 -1.2620
  849SOL     OW 2545   0.653   2.966   1.483  0.0508 -0.8092  0.1872
  849SOL    HW1 2546   0.691   2.921   1.397  0.5769 -2.2053  0.4024
  849SOL    HW2 2547   0.725   3.021   1.527  0.3085 -1.7925 -0.7586
  850SOL     OW 2548   0.000   1.502   0.409  0.2705 -0.7358 -0.9275
  850SOL    HW1 2549   0.023   1.524   0.313  0.9049  0.6393 -0.5572
  850SOL    HW2 2550   3.034   1.540   0.433 -2.6323  0.4229 -0.4137
  851SOL     OW 2551   0.175   0.657   2.984  0.2719  0.3394  0.3208
  851SOL    HW1 2552   0.223   0.727   3.031 -3.6089 -1.2512  0.6446
  851SOL    HW2 2553   0.189   0.645   2.882 -1.3735  1.2946  0.2996
  852SOL     OW 2554   1.534   1.878   1.877  0.0761 -0.3355 -0.0021
  852SOL    HW1 2555   1.513   1.784   1.910  2.5314 -0.9083 -1.5945
  852SOL    HW2 2556   1.493   1.953   1.935 -1.9156  2.0801  1.3003
  853SOL     OW 2557   0.591   1.952   0.723 -0.1704  0.0933  0.3679
  853SOL    HW1 2558   0.673   1.997   0.679 -0.7873 -2.9265  1.6573
  853SOL    HW2 2559   0.521   1.952   0.658  1.4489 -1.8467  1.8931
  854SOL     OW 2560   1.776   1.164   1.436  0.6815  0.2256  0.3832
  854SOL    HW1 2561   1.849   1.104   1.468 -0.6537  0.2995  1.5061
  854SOL    HW2 2562   1.748   1.131   1.343  1.9906 -0.8554 -0.5235
  855SOL     OW 2563   0.685   2.076   0.218  0.5276 -0.0187  0.5131
  855SOL    HW1 2564   0.585   2.057   0.205 -2.2756  0.9310 -2.8845
  855SOL    HW2 2565   0.703   2.147   0.286  0.2182  0.1192 -1.0601
  856SOL     OW 2566   2.877   0.008   1.923  0.1277  0.2260  0.2728
  856SOL    HW1 2567   2.925   0.036   2.013  4.3908  1.3358  1.8428
  856SOL    HW2 2568   2.904   0.073   1.852 -2.5237  1.3075 -0.2402
  857SOL     OW 2569   0.306   0.379   1.751  0.2297  0.1152 -1.0728
  857SOL    HW1 2570   0.204   0.397   1.733 -1.0773 -0.2960 -1.2616
  857SOL    HW2 2571   0.352   0.469   1.775 -0.1775  1.2091  0.8420
  858SOL     OW 2572   2.936   1.963   2.269 -0.4431 -0.0761 -0.1346
  858SOL    HW1 2573   2.894   1.878   2.238 -0.3861  3.8070 -0.0391
  858SOL    HW2 2574   2.934   1.964   2.369 -1.4861 -0.6086 -3.3446
  859SOL     OW 2575   2.013   2.829   0.659 -0.1868  0.2708  0.3493
  859SOL    HW1 2576   1.922   2.853   0.701  0.9966  0.3348 -1.2500
  859SOL    HW2 2577   2.036   2.733   0.671 -1.3915 -1.4205 -2.5898
  860SOL     OW 2578   1.873   0.248   0.084  0.1696  0.0340  0.4095
  860SOL    HW1 2579   1.922   0.247   3.121 -0.8778  0.1523 -0.1786
  860SOL    HW2 2580   1.878   0.339   0.125 -1.8740 -1.2012  0.3225
  861SOL     OW 2581   0.288   0.444   0.733  0.4633 -0.7480  0.0828
  861SOL    HW1 2582   0.213   0.505   0.694 -0.3529  0.5753 -1.2050
  861SOL    HW2 2583   0.337   0.491   0.807  0.1641  0.8811 -0.8013
  862SOL     OW 2584   2.220   0.278   1.631  0.4474  0.0414  0.1238
  862SOL    HW1 2585   2.180   0.246   1.546  1.4860  1.9273  0.6964
  862SOL    HW2 2586   2.182   0.371   1.652  2.8795  2.1750  1.6196
  863SOL     OW 2587   0.352   1.451   1.117 -0.7241 -0.2701 -0.2999
  863SOL    HW1 2588   0.428   1.508   1.147 -2.0330  0.7691  1.9212
  863SOL    HW2 2589   0.341   1.369   1.174  1.5764  0.2191 -3.8800
  864SOL     OW 2590   2.645   3.003   1.993  0.3137 -0.0846  0.7176
  864SOL    HW1 2591   2.733   3.049   1.969 -0.0854  1.1247  0.7335
  864SOL    HW2 2592   2.652   2.907   2.009  1.1231  3.3557 -1.8191
  865SOL     OW 2593   1.404   0.381   1.550  0.4680  0.1064 -0.2866
  865SOL    HW1 2594   1.479   0.339   1.497 -1.7104 -0.6739  2.4570
  865SOL    HW2 2595   1.431   0.386   1.650  0.2675  0.2998  1.1084
  866SOL     OW 2596   2.585   2.783   0.652 -0.4603 -0.6367 -0.3377
  866SOL    HW1 2597   2.671   2.745   0.693 -1.3077  1.4800 -0.5827
  866SOL    HW2 2598   2.511   2.777   0.715 -1.1171  2.1216  1.3549
  867SOL     OW 2599   2.681   2.548   0.513 -0.1503  0.5875 -0.1779
  867SOL    HW1 2600   2.653   2.551   0.614 -0.3715  3.5068  1.4422
  867SOL    HW2 2601   2.734   2.630   0.483  1.0713  0.2636  2.0711
  868SOL     OW 2602   1.363   1.993   2.593 -0.1968 -0.1360 -0.4740
  868SOL    HW1 2603   1.389   1.911   2.533 -0.8130 -3.6791 -0.2188
  868SOL    HW2 2604   1.439   2.003   2.662  0.7047 -0.9254 -0.9907
  869SOL     OW 2605   2.301   1.415   0.575  0.5508 -0.3356  0.1265
  869SOL    HW1 2606   2.226   1.414   0.503 -0.3920  2.0742 -3.3025
  869SOL    HW2 2607   2.307   1.332   0.633 -0.4695  1.3365 -0.7432
  870SOL     OW 2608   2.528   1.654   0.334  0.1170 -0.5366  0.3635
  870SOL    HW1 2609   2.503   1.586   0.263 -1.2963 -1.4528 -0.7070
  870SOL    HW2 2610   2.622   1.693   0.314 -0.9015  1.3825  1.3201
  871SOL     OW 2611   2.927   0.768   1.484 -0.4689  0.4864  0.1634
  871SOL    HW1 2612   2.928   0.843   1.419  3.0629 -2.1296 -0.7690
  871SOL    HW2 2613   3.012   0.766   1.545  1.6605  0.1117  2.5333
  872SOL     OW 2614   0.430   1.893   2.715  0.5564 -0.7070  0.2299
  872SOL    HW1 2615   0.508   1.896   2.780 -1.1421  0.0031  0.7001
  872SOL    HW2 2616   0.452   1.827   2.637  0.8582 -0.1536  1.2969
  873SOL     OW 2617   0.396   2.594   1.731 -0.2303  0.2204  0.2918
  873SOL    HW1 2618   0.484   2.563   1.774  0.7817 -0.4787  1.0546
  873SOL    HW2 2619   0.406   2.693   1.704  0.4583  2.2018 -3.7631
  874SOL     OW 2620   1.262   1.142   2.241  0.1302 -0.0518  0.1070
  874SOL    HW1 2621   1.252   1.149   2.342  1.2604  1.6114  2.9000
  874SOL    HW2 2622   1.279   1.048   2.209  2.1482 -1.4636  1.1677
  875SOL     OW 2623   2.919   2.768   1.237 -0.5102  0.0042  0.2093
  875SOL    HW1 2624   2.985   2.693   1.263 -1.2431  0.1861 -0.3123
  875SOL    HW2 2625   2.873   2.810   1.318  0.7197  0.4054  0.1899
  876SOL     OW 2626   1.043   1.258   0.837  0.0719  0.1592 -0.0744
  876SOL    HW1 2627   0.974   1.201   0.894 -0.9038  0.4441 -0.7765
  876SOL    HW2 2628   1.002   1.347   0.820  0.4388 -0.9076 -1.1618
  877SOL     OW 2629   0.722   0.494   1.330 -0.7942 -0.4155 -0.6622
  877SOL    HW1 2630   0.662   0.498   1.412  1.4898  0.7669  2.2744
  877SOL    HW2 2631   0.709   0.411   1.279 -0.9630  2.2849 -0.2022
  878SOL     OW 2632   2.621   1.841   2.944 -0.3583  0.3570 -0.4990
  878SOL    HW1 2633   2.699   1.807   2.896 -1.2469  0.8279 -2.7268
  878SOL    HW2 2634   2.563   1.890   2.879 -3.7183  1.7143 -1.5528
  879SOL     OW 2635   2.260   2.043   1.301 -0.2038 -0.9233 -0.4085
  879SOL    HW1 2636   2.328   2.077   1.370  2.5189 -2.0077 -0.0719
  879SOL    HW2 2637   2.166   2.075   1.326 -0.0320  0.8083  1.6361
  880SOL     OW 2638   0.949   2.367   1.366  0.3193 -0.2953 -0.5191
  880SOL    HW1 2639   0.999   2.346   1.454  1.4004 -0.2017 -0.0615
  880SOL    HW2 2640   1.005   2.384   1.286 -0.5861 -0.3368  1.5541
  881SOL     OW 2641   1.106   2.043   0.937  0.0270 -0.1537 -0.6393
  881SOL    HW1 2642   1.168   2.069   0.858 -1.8715  3.3084 -0.6245
  881SOL    HW2 2643   1.115   1.942   0.964 -3.4296  0.4240 -1.4472
  882SOL     OW 2644   1.930   1.801   2.454 -0.2384  0.7247 -0.6914
  882SOL    HW1 2645   1.955   1.846   2.543 -1.7162  0.8257 -0.9939
  882SOL    HW2 2646   1.995   1.842   2.384 -0.8763 -0.5554 -1.1804
  883SOL     OW 2647   1.285   0.479   1.113 -0.0381 -0.7896  0.3682
  883SOL    HW1 2648   1.300   0.567   1.067 -0.1642 -1.5662 -0.3266
  883SOL    HW2 2649   1.358   0.414   1.081  0.0313  0.8455  0.3512
  884SOL     OW 2650   0.129   2.887   0.941  0.9496  0.7649 -0.7358
  884SOL    HW1 2651   0.220   2.844   0.943 -2.9900 -0.4285  1.3527
  884SOL    HW2 2652   0.061   2.815   0.953  0.3950 -0.8022  0.3767
  885SOL     OW 2653   1.071   1.096   2.045  0.0961 -0.1075  0.0717
  885SOL    HW1 2654   1.091   1.124   1.949  0.7133  0.6202  1.2277
  885SOL    HW2 2655   1.146   1.127   2.106 -1.1031  0.3808 -1.0672
  886SOL     OW 2656   1.070   1.204   3.038  0.1907  0.1254 -0.2629
  886SOL    HW1 2657   0.994   1.193   2.966 -0.9397 -0.5714 -0.4133
  886SOL    HW2 2658   1.150   1.259   3.012 -1.3752 -0.4134 -1.2457
  887SOL     OW 2659   1.548   0.271   0.796 -0.1705 -0.3533 -0.2028
  887SOL    HW1 2660   1.549   0.329   0.715  0.0211  0.8277  0.8625
  887SOL    HW2 2661   1.591   0.182   0.782  1.0547 -0.3904 -2.1123
  888SOL     OW 2662   2.305   1.216   2.060  0.2291  0.1481 -0.7779
  888SOL    HW1 2663   2.263   1.123   2.037 -1.1695  1.1832 -2.3879
  888SOL    HW2 2664   2.400   1.220   2.024 -2.1480  2.1214 -0.0734
  889SOL     OW 2665   0.009   2.008   0.958  0.2343  0.0777  0.3237
  889SOL    HW1 2666   0.029   2.078   0.883 -0.0333  1.5934 -0.6828
  889SOL    HW2 2667   3.040   2.014   0.994  0.8582 -1.6031  0.3883
  890SOL     OW 2668   1.327   2.492   0.471 -0.2608  0.2648  0.5257
  890SOL    HW1 2669   1.279   2.428   0.525  0.8246  0.5397  2.2066
  890SOL    HW2 2670   1.282   2.582   0.477  1.4660 -0.4163 -0.7119
  891SOL     OW 2671   2.844   0.522   2.358 -0.3972  0.3225 -0.2948
  891SOL    HW1 2672   2.850   0.506   2.256 -0.1678  0.2784 -0.0426
  891SOL    HW2 2673   2.930   0.561   2.398  0.8448 -1.2326 -0.7625
  892SOL     OW 2674   0.001   2.384   1.378 -0.4385  0.6948 -0.6205
  892SOL    HW1 2675   0.082   2.362   1.325  1.1160 -0.4682 -2.5900
  892SOL    HW2 2676   3.077   2.297   1.398  0.9926 -0.7015  0.5311
  893SOL     OW 2677   1.085   0.337   1.539  0.3788  0.4796  0.2565
  893SOL    HW1 2678   1.187   0.329   1.538 -2.0886  1.9932  0.2285
  893SOL    HW2 2679   1.049   0.400   1.608 -0.2927 -0.1736 -0.6225
  894SOL     OW 2680   2.944   3.124   0.888 -0.2934 -0.3730 -0.3738
  894SOL    HW1 2681   2.961   0.082   0.941 -0.5099  0.2033  0.0651
  894SOL    HW2 2682   2.970   3.122   0.785 -0.3611 -0.5072  0.2559
  895SOL     OW 2683   1.674   1.991   2.448 -0.0785 -0.1188  0.0657
  895SOL    HW1 2684   1.755   1.932   2.432 -0.0034 -0.3369 -3.2647
  895SOL    HW2 2685   1.590   1.937   2.456  0.3629  1.3403  1.0258
  896SOL     OW 2686   1.866   0.459   1.365 -0.1894 -0.0425 -0.1275
  896SOL    HW1 2687   1.806   0.512   1.431  0.1362  3.3130  3.7415
  896SOL    HW2 2688   1.959   0.501   1.378  1.1666  0.9365 -1.1374
  897SOL     OW 2689   0.478   1.681   1.885  0.4414 -0.2465 -0.7091
  897SOL    HW1 2690   0.574   1.651   1.857  0.7007 -0.5018 -3.6735
  897SOL    HW2 2691   0.481   1.729   1.975 -0.8798 -0.4513  0.7469
  898SOL     OW 2692   1.836   2.266   2.178  0.4469 -0.3018  0.3188
  898SOL    HW1 2693   1.865   2.174   2.144  0.4535 -2.3702  0.8089
  898SOL    HW2 2694   1.892   2.299   2.256 -0.0116 -0.4214  0.5256
  899SOL     OW 2695   1.472   2.186   0.672 -0.4162 -0.3024  0.0983
  899SOL    HW1 2696   1.564   2.206   0.713 -0.3550  0.0904  0.8215
  899SOL    HW2 2697   1.478   2.197   0.570 -1.2686  0.1419 -2.1059
  900SOL     OW 2698   0.831   3.077   2.342  0.0249 -0.6791 -0.0490
  900SOL    HW1 2699   0.816   3.091   2.438 -0.3522  0.1338 -2.0413
  900SOL    HW2 2700   0.910   0.011   2.315 -0.2800 -2.9755  0.9705
  901SOL     OW 2701   1.115   1.436   2.284  0.1027  0.4839 -0.2122
  901SOL    HW1 2702   1.061   1.359   2.247  0.2743  0.2924 -0.0842
  901SOL    HW2 2703   1.092   1.441   2.386 -0.3588 -0.7903  1.3567
  902SOL     OW 2704   2.115   0.694   3.075 -0.7265 -0.7736  0.2661
  902SOL    HW1 2705   2.083   0.781   3.038 -2.0066 -1.2103  3.3341
  902SOL    HW2 2706   2.065   0.666   0.035 -0.0767  0.7669  0.3899
  903SOL     OW 2707   1.990   1.038   2.562  0.8079 -0.1088  0.2189
  903SOL    HW1 2708   2.083   1.081   2.577  1.7483  1.5025 -0.7452
  903SOL    HW2 2709   1.952   1.077   2.473 -0.9683 -0.4282 -2.2055
  904SOL     OW 2710   1.959   1.098   1.883 -0.0731 -0.4158  0.6670
  904SOL    HW1 2711   1.880   1.051   1.850  1.2453  2.2284  0.2652
  904SOL    HW2 2712   1.920   1.183   1.927  2.9079 -0.9726  1.7240
  905SOL     OW 2713   2.586   0.425   0.799 -0.6814 -0.7444  0.3157
  905SOL    HW1 2714   2.511   0.416   0.862  1.6986  0.5394 -0.4422
  905SOL    HW2 2715   2.617   0.337   0.766 -0.9801  2.7520  1.8282
  906SOL     OW 2716   2.955   1.228   0.628 -0.1424 -0.6126 -0.3513
  906SOL    HW1 2717   2.997   1.318   0.627 -3.2538  1.6734 -0.1103
  906SOL    HW2 2718   2.931   1.198   0.726 -1.7200  0.1208  1.9764
  907SOL     OW 2719   1.277   0.209   0.670  0.4006 -1.1424  0.6333
  907SOL    HW1 2720   1.363   0.196   0.718 -0.3747 -3.2111 -1.3247
  907SOL    HW2 2721   1.211   0.263   0.723  1.8410 -0.4238 -2.2807
  908SOL     OW 2722   1.370   2.723   2.014 -0.4677 -0.2828  0.1478
  908SOL    HW1 2723   1.449   2.720   2.075  1.2712  2.2833 -0.2410
  908SOL    HW2 2724   1.407   2.690   1.925  0.1356  1.4418  2.1065
  909SOL     OW 2725   2.618   1.036   1.772 -0.0254 -0.2266  0.1746
  909SOL    HW1 2726   2.526   0.999   1.798  2.0776  1.8389  1.7524
  909SOL    HW2 2727   2.619   1.058   1.671 -1.1825 -0.9614  1.0286
  910SOL     OW 2728   1.157   0.193   2.486 -0.1942  0.4394  0.5217
  910SOL    HW1 2729   1.098   0.196   2.396 -1.8904  0.1607 -1.9904
  910SOL    HW2 2730   1.158   0.099   2.520 -2.4317  1.0116 -1.5601
  911SOL     OW 2731   2.256   1.607   2.405 -0.2273  0.3269  0.3098
  911SOL    HW1 2732   2.219   1.633   2.314  0.7858 -1.3101  1.0941
  911SOL    HW2 2733   2.348   1.564   2.382  2.3134  1.0290 -0.0788
  912SOL     OW 2734   2.590   2.265   1.234  0.3265  0.3572  0.1421
  912SOL    HW1 2735   2.621   2.218   1.318  0.9656 -1.1582  1.6341
  912SOL    HW2 2736   2.642   2.353   1.224  2.0545  1.0968 -1.5868
  913SOL     OW 2737   2.631   2.065   1.828  0.4557  0.2721 -0.8921
  913SOL    HW1 2738   2.615   2.139   1.902  0.5015  1.8833  1.1878
  913SOL    HW2 2739   2.547   2.013   1.803  2.5934 -1.4379 -0.7417
  914SOL     OW 2740   2.017   2.076   0.801  0.0143  0.3477  0.7539
  914SOL    HW1 2741   2.060   2.074   0.895 -1.5894 -0.2677 -2.3371
  914SOL    HW2 2742   2.041   1.994   0.750 -0.2431 -1.1716  2.1778
  915SOL     OW 2743   1.113   2.584   1.962 -0.3689  0.4851 -0.0910
  915SOL    HW1 2744   1.050   2.663   1.969  3.3074 -1.3854  0.3289
  915SOL    HW2 2745   1.205   2.606   1.998 -2.3739 -0.6197  0.1072
  916SOL     OW 2746   0.095   2.191   0.756 -0.3197 -0.1645  0.0738
  916SOL    HW1 2747   0.195   2.186   0.785 -2.8888  0.6206  0.0606
  916SOL    HW2 2748   0.075   2.165   0.659 -2.4813 -1.7048  1.3034
  917SOL     OW 2749   2.717   0.965   2.913  0.0963  0.1221  0.5456
  917SOL    HW1 2750   2.623   0.923   2.919  0.8874  1.7449 -0.1335
  917SOL    HW2 2751   2.770   0.929   2.832  3.6253  0.1696 -0.8306
  918SOL     OW 2752   1.610   2.248   2.352 -0.2190 -0.6740  0.1661
  918SOL    HW1 2753   1.662   2.271   2.268  0.9806  0.5227  0.4636
  918SOL    HW2 2754   1.649   2.167   2.391 -1.4862  0.4379 -0.9282
  919SOL     OW 2755   1.826   2.244   0.739  0.1429  0.3966 -0.2750
  919SOL    HW1 2756   1.826   2.251   0.638  4.4215 -1.1449  1.0712
  919SOL    HW2 2757   1.887   2.165   0.769  2.6488 -0.6511 -0.8238
  920SOL     OW 2758   1.392   0.365   2.507 -0.0508 -0.4224  0.0762
  920SOL    HW1 2759   1.311   0.311   2.478  0.3161  0.9472  2.1561
  920SOL    HW2 2760   1.363   0.461   2.511  0.8933  1.2757 -1.3674
  921SOL     OW 2761   0.122   0.632   2.700  0.3923  0.3947 -0.6947
  921SOL    HW1 2762   0.197   0.675   2.646  3.6231 -0.7726  0.2289
  921SOL    HW2 2763   0.125   0.530   2.685 -0.0829  0.3649  1.1987
  922SOL     OW 2764   2.830   1.887   1.446 -0.9389  0.2034 -0.6120
  922SOL    HW1 2765   2.923   1.837   1.439  2.0866 -1.6774  0.1309
  922SOL    HW2 2766   2.762   1.843   1.384 -1.5009 -1.6967  0.2009
  923SOL     OW 2767   0.173   1.779   2.750 -0.2590  0.5267 -0.1491
  923SOL    HW1 2768   0.083   1.832   2.746 -1.6389 -1.2614 -1.8154
  923SOL    HW2 2769   0.263   1.830   2.730  1.2177  3.8562 -2.9196
  924SOL     OW 2770   1.643   0.600   2.155  0.6242  0.5610 -0.8438
  924SOL    HW1 2771   1.632   0.522   2.224  2.2058  0.5526 -0.4885
  924SOL    HW2 2772   1.696   0.675   2.193 -0.4639 -1.2331 -3.8876
  925SOL     OW 2773   0.020   0.933   0.097  0.1108  0.0511  0.3877
  925SOL    HW1 2774   3.105   0.865   0.036  2.5881  0.6713 -0.7669
  925SOL    HW2 2775   3.095   1.021   0.100 -0.5670 -0.8352 -1.0261
  926SOL     OW 2776   2.686   0.094   1.005 -0.3626 -0.3825  0.1956
  926SOL    HW1 2777   2.731   0.067   0.918 -1.0135  2.7482  0.4560
  926SOL    HW2 2778   2.585   0.066   1.002 -2.7164 -0.4247  0.2679
  927SOL     OW 2779   1.208   0.920   0.913  0.0047 -0.2502 -0.6065
  927SOL    HW1 2780   1.220   0.930   0.812 -0.2456  0.2163  1.3154
  927SOL    HW2 2781   1.112   0.908   0.946 -2.6904  1.3894 -2.3229
  928SOL     OW 2782   2.987   0.071   2.199 -0.6476  0.1594 -0.1178
  928SOL    HW1 2783   2.910   0.091   2.265 -0.3408 -0.6462  1.2861
  928SOL    HW2 2784   3.053   0.148   2.185 -0.3035  0.6434 -2.2781
  929SOL     OW 2785   2.251   0.790   1.396 -0.4904  0.1883 -0.3828
  929SOL    HW1 2786   2.209   0.870   1.444  2.0677 -2.7192 -0.1563
  929SOL    HW2 2787   2.343   0.785   1.437 -1.1460 -2.3574  0.1849
  930SOL     OW 2788   2.097   2.670   1.009  0.3043  0.0867 -0.7840
  930SOL    HW1 2789   2.015   2.723   0.974  0.5716  0.7962  0.2878
  930SOL    HW2 2790   2.171   2.737   1.029  0.4309  0.9751  0.6509
  931SOL     OW 2791   1.982   0.948   1.342 -0.3063  0.1002  0.1883
  931SOL    HW1 2792   2.021   0.874   1.282 -1.5968 -0.3710  1.7505
  931SOL    HW2 2793   2.035   1.030   1.321  2.1911 -0.4271  1.1439
  932SOL     OW 2794   3.078   0.931   1.270  0.2228  0.0859  0.0532
  932SOL    HW1 2795   0.007   0.994   1.210  1.4512 -1.1520  2.4192
  932SOL    HW2 2796   3.057   0.850   1.214 -1.0846 -0.8652  0.2904
  933SOL     OW 2797   2.152   1.670   2.130  0.6424 -0.4570 -0.1134
  933SOL    HW1 2798   2.154   1.567   2.136 -1.6395  1.4023  1.1759
  933SOL    HW2 2799   2.091   1.695   2.049 -0.9005  1.6219  0.1939
  934SOL     OW 2800   1.470   2.837   1.512  0.0809 -0.0948 -0.5024
  934SOL    HW1 2801   1.509   2.802   1.423 -0.7561  1.6885  1.2116
  934SOL    HW2 2802   1.489   2.937   1.524  0.8821 -1.6750 -1.7625
  935SOL     OW 2803   0.387   0.801   1.416 -0.3900  0.5081  0.0617
  935SOL    HW1 2804   0.335   0.880   1.374  0.4785 -0.6739  0.5269
  935SOL    HW2 2805   0.414   0.832   1.513 -0.2338 -4.9758 -1.5482
  936SOL     OW 2806   2.553   0.538   1.239 -0.1626  0.3267 -0.1813
  936SOL    HW1 2807   2.474   0.495   1.283  1.3553 -0.2085 -0.9080
  936SOL    HW2 2808   2.621   0.572   1.305  1.4262  0.7460 -2.6916
  937SOL     OW 2809   0.910   0.130   1.439 -0.4682  0.0010  0.4705
  937SOL    HW1 2810   0.832   0.174   1.388  0.2047  0.2212 -3.4944
  937SOL    HW2 2811   0.961   0.193   1.501 -0.4781  1.2487  1.3522
  938SOL     OW 2812   3.016   2.400   0.777  0.6080  0.4870  0.0781
  938SOL    HW1 2813   2.934   2.339   0.797  0.7391 -0.9543 -0.9879
  938SOL    HW2 2814   3.103   2.353   0.795 -0.7107  0.1365  0.2864
  939SOL     OW 2815   3.051   1.903   2.761 -0.6908  0.1660  0.3014
  939SOL    HW1 2816   3.047   1.909   2.660 -1.4914 -4.4388  4.8806
  939SOL    HW2 2817   3.029   1.992   2.808  0.6470  0.3389 -0.7891
  940SOL     OW 2818   1.953   2.272   2.907  0.3417 -0.6221 -0.0199
  940SOL    HW1 2819   1.867   2.300   2.869 -1.5008  0.3302  0.3031
  940SOL    HW2 2820   2.009   2.222   2.841 -1.4249  1.6724  1.7473
  941SOL     OW 2821   1.605   2.829   0.624  0.4555  0.8688  0.2798
  941SOL    HW1 2822   1.516   2.872   0.620 -0.3267 -1.9035 -0.1342
  941SOL    HW2 2823   1.605   2.731   0.592  1.3102  0.6387  2.0779
  942SOL     OW 2824   1.770   1.786   1.148 -0.5727 -0.9073 -0.2312
  942SOL    HW1 2825   1.844   1.814   1.213 -0.1375 -0.0997  0.5581
  942SOL    HW2 2826   1.694   1.848   1.144  2.9083 -2.2614 -0.0679
  943SOL     OW 2827   1.992   0.716   2.013 -0.2566 -0.2196 -0.5144
  943SOL    HW1 2828   1.955   0.642   1.953 -0.4358 -0.2601 -1.1298
  943SOL    HW2 2829   2.094   0.721   2.011  0.6911  0.6762  1.3494
  944SOL     OW 2830   1.869   0.518   1.827 -0.4725 -0.1718 -0.5641
  944SOL    HW1 2831   1.783   0.568   1.807  0.6522 -0.0202  1.2663
  944SOL    HW2 2832   1.876   0.424   1.784 -1.0408 -0.5549 -0.1859
  945SOL     OW 2833   2.743   2.495   1.248 -0.2066  0.2946  0.2552
  945SOL    HW1 2834   2.669   2.551   1.290 -0.5228 -0.8381  0.4586
  945SOL    HW2 2835   2.785   2.549   1.174 -1.1829  0.1506 -1.3020
  946SOL     OW 2836   0.389   1.280   1.389 -0.1199  0.1979  0.1563
  946SOL    HW1 2837   0.358   1.310   1.482 -1.1153 -0.1000  0.9639
  946SOL    HW2 2838   0.344   1.192   1.357 -0.5806  0.8809 -0.9445
  947SOL     OW 2839   0.599   2.533   0.735 -0.0205 -0.6274 -0.4503
  947SOL    HW1 2840   0.570   2.494   0.824  0.3862 -0.0427 -0.7399
  947SOL    HW2 2841   0.598   2.459   0.665  2.2434  2.2236  1.8141
  948SOL     OW 2842   0.071   1.546   1.800  0.3219 -0.1004 -0.1183
  948SOL    HW1 2843   0.155   1.537   1.858 -0.4645 -1.1874  1.3163
  948SOL    HW2 2844   0.078   1.629   1.747 -1.4295 -1.8861  1.5876
  949SOL     OW 2845   0.706   0.809   2.265  0.2267 -0.0739  0.2021
  949SOL    HW1 2846   0.780   0.860   2.225 -2.4532  0.8667  0.2236
  949SOL    HW2 2847   0.619   0.862   2.273 -2.1749  2.0488  1.1658
  950SOL     OW 2848   0.193   0.549   1.113  0.2272  0.1371  0.4115
  950SOL    HW1 2849   0.107   0.591   1.088  0.6617 -0.5805 -1.3765
  950SOL    HW2 2850   0.186   0.445   1.120  2.8804  0.7752  0.4781
  951SOL     OW 2851   1.147   1.731   2.264 -0.5959 -0.6683  0.0236
  951SOL    HW1 2852   1.121   1.634   2.260  2.6334 -1.8740 -1.1856
  951SOL    HW2 2853   1.066   1.797   2.270 -1.4394 -1.2202 -1.3483
  952SOL     OW 2854   1.106   1.595   0.122  0.1621 -0.2761  0.4290
  952SOL    HW1 2855   1.170   1.660   0.091  2.2799 -0.9485 -0.0378
  952SOL    HW2 2856   1.148   1.544   0.198  0.8152 -0.4587  1.4451
  953SOL     OW 2857   1.202   3.067   2.587  0.2731  0.1872  0.0727
  953SOL    HW1 2858   1.102   3.059   2.612 -1.0217 -2.4490 -0.8791
  953SOL    HW2 2859   1.257   3.090   2.670 -1.4494  1.8405 -0.1577
  954SOL     OW 2860   2.130   1.390   0.319 -0.1492 -0.5123 -0.4074
  954SOL    HW1 2861   2.032   1.408   0.334  1.7154  0.8533 -1.4183
  954SOL    HW2 2862   2.144   1.298   0.279 -1.4659 -0.0495  1.3092
  955SOL     OW 2863   0.361   2.629   2.932 -0.0904 -0.3380  0.0417
  955SOL    HW1 2864   0.453   2.621   2.885  0.4074  0.8334 -1.7065
  955SOL    HW2 2865   0.295   2.595   2.866  0.3247  1.5800  2.1129
  956SOL     OW 2866   1.305   0.920   1.714 -0.7526 -0.5268  0.1302
  956SOL    HW1 2867   1.248   0.847   1.671 -2.0349  4.2970 -2.0415
  956SOL    HW2 2868   1.379   0.958   1.656 -4.0644  0.5729  1.2633
  957SOL     OW 2869   1.948   1.681   1.925  0.3563  0.3203  0.1233
  957SOL    HW1 2870   1.868   1.684   1.986  1.1142 -2.4013  0.5472
  957SOL    HW2 2871   1.953   1.757   1.855 -1.0453  0.5717 -1.0253
  958SOL     OW 2872   1.532   2.334   1.332  0.4018  0.3337 -0.1900
  958SOL    HW1 2873   1.452   2.396   1.353 -1.0904  2.2387  1.6633
  958SOL    HW2 2874   1.616   2.390   1.311 -3.2812  0.4282  1.0795
  959SOL     OW 2875   1.198   1.683   1.351  0.0496 -0.0897  0.1389
  959SOL    HW1 2876   1.184   1.781   1.347 -2.3924 -0.4976 -0.5025
  959SOL    HW2 2877   1.276   1.664   1.413  0.7554 -0.7863 -3.0123
  960SOL     OW 2878   0.218   1.154   2.896 -0.2193  0.5280 -0.0939
  960SOL    HW1 2879   0.140   1.088   2.893 -0.4926  1.0830  0.1461
  960SOL    HW2 2880   0.201   1.234   2.832  0.7131  1.6235 -2.7763
  961SOL     OW 2881   0.492   1.017   2.214  0.3470  0.0762 -0.0796
  961SOL    HW1 2882   0.424   1.081   2.259 -2.6626  0.2485 -1.0484
  961SOL    HW2 2883   0.586   1.052   2.219 -0.2354 -1.8509 -1.4762
  962SOL     OW 2884   1.383   1.873   0.527 -0.4306  0.4286 -0.2377
  962SOL    HW1 2885   1.287   1.853   0.549  3.1191  1.5019 -0.5892
  962SOL    HW2 2886   1.447   1.845   0.601  0.9816  2.0212  0.4012
  963SOL     OW 2887   1.268   2.406   2.561 -0.0906 -0.5396  0.4420
  963SOL    HW1 2888   1.241   2.402   2.463 -0.1055 -0.7382 -2.2791
  963SOL    HW2 2889   1.241   2.326   2.608  1.8312  3.1038 -1.2695
  964SOL     OW 2890   0.696   2.848   0.188  0.1671 -0.2904  0.3469
  964SOL    HW1 2891   0.710   2.843   0.287  0.8650  0.6867 -1.2135
  964SOL    HW2 2892   0.710   2.943   0.162 -0.1603 -0.3527 -1.4001
  965SOL     OW 2893   0.494   3.119   0.997 -0.2728 -0.2169 -0.1015
  965SOL    HW1 2894   0.548   0.082   0.996 -0.5715 -0.8401 -2.8801
  965SOL    HW2 2895   0.429   3.118   1.073  1.2886 -0.4664  1.2476
  966SOL     OW 2896   0.344   1.526   2.994  0.0601  0.0579 -0.1952
  966SOL    HW1 2897   0.362   1.481   3.083  0.0607  0.9548 -1.1595
  966SOL    HW2 2898   0.243   1.524   2.971  1.0264 -0.4323 -0.1169
  967SOL     OW 2899   0.923   2.848   2.423 -0.4760  0.6054  0.1381
  967SOL    HW1 2900   0.875   2.930   2.390  2.1310 -0.2423  3.6605
  967SOL    HW2 2901   1.025   2.850   2.402  0.8324  0.5079 -2.3801
  968SOL     OW 2902   2.217   0.505   0.293 -0.4071  0.0261  0.0388
  968SOL    HW1 2903   2.232   0.434   0.220 -0.1770 -1.5605 -2.9760
  968SOL    HW2 2904   2.136   0.559   0.273 -1.2218 -2.2768 -1.5296
  969SOL     OW 2905   3.096   1.700   2.056 -0.3508  0.2926  0.1441
  969SOL    HW1 2906   3.069   1.762   1.980 -0.3797 -0.6632  0.7710
  969SOL    HW2 2907   3.039   1.614   2.058 -1.3963 -2.0075  0.7078
  970SOL     OW 2908   2.122   1.434   1.217  0.0835 -0.0329 -0.2834
  970SOL    HW1 2909   2.141   1.402   1.123  1.7796  0.0572  0.4810
  970SOL    HW2 2910   2.208   1.476   1.255  2.1246  0.8670  0.3832
  971SOL     OW 2911   1.912   0.090   1.106  0.6114  0.1371  0.1164
  971SOL    HW1 2912   1.950   0.179   1.068 -1.0799  2.5746  1.4774
  971SOL    HW2 2913   1.967   0.009   1.082  1.1614  1.4429 -1.9078
  972SOL     OW 2914   0.276   0.120   1.566  0.3876 -0.7472  0.6704
  972SOL    HW1 2915   0.293   0.217   1.586  2.0376 -1.0674 -0.9695
  972SOL    HW2 2916   0.179   0.109   1.548  0.5449  1.4497 -1.5947
  973SOL     OW 2917   2.761   0.901   0.367 -0.4964  0.5607 -0.3068
  973SOL    HW1 2918   2.761   0.925   0.268 -2.2321  1.0441  0.4712
  973SOL    HW2 2919   2.714   0.977   0.419 -1.6071  0.2112 -0.8549
  974SOL     OW 2920   1.714   1.652   2.515 -0.0539  0.5083  0.3049
  974SOL    HW1 2921   1.804   1.694   2.481 -1.5719  0.2239  1.8233
  974SOL    HW2 2922   1.651   1.652   2.437  2.1063 -1.2784  2.5002
  975SOL     OW 2923   0.251   2.743   1.512  0.5244 -0.1531 -0.2106
  975SOL    HW1 2924   0.221   2.676   1.443  0.1819 -1.5644  1.3655
  975SOL    HW2 2925   0.167   2.796   1.536 -1.5184  0.0379 -0.3450
  976SOL     OW 2926   0.434   2.081   1.924  0.5997  0.8429 -0.3670
  976SOL    HW1 2927   0.348   2.133   1.919  0.8401  0.0656 -1.5457
  976SOL    HW2 2928   0.425   2.004   1.991 -1.5082  0.0801  0.4278
  977SOL     OW 2929   0.814   2.611   0.151 -0.3196  0.5918  0.1229
  977SOL    HW1 2930   0.902   2.619   0.097  1.1688 -0.2800 -2.8915
  977SOL    HW2 2931   0.782   2.704   0.168 -0.2260 -0.9057  1.5679
  978SOL     OW 2932   0.351   1.784   3.057  0.1678  0.3445  0.2260
  978SOL    HW1 2933   0.427   1.840   3.020  0.6004 -1.0145  1.3214
  978SOL    HW2 2934   0.346   1.694   3.009 -2.4934 -0.6112 -2.6928
  979SOL     OW 2935   1.770   2.446   1.325  0.4090  0.0599 -0.5125
  979SOL    HW1 2936   1.808   2.543   1.308  0.8245  1.4360  0.4805
  979SOL    HW2 2937   1.810   2.374   1.271 -0.2905 -0.0822  1.9303
  980SOL     OW 2938   0.869   1.767   2.897  0.1010 -0.1751  0.5560
  980SOL    HW1 2939   0.867   1.675   2.949  1.3736  0.7077  1.6969
  980SOL    HW2 2940   0.943   1.766   2.825 -3.0009 -1.4687  3.0110
  981SOL     OW 2941   2.661   3.068   2.440 -0.1042  0.5501 -0.0773
  981SOL    HW1 2942   2.602   3.071   2.358 -1.7713  1.0700 -0.2352
  981SOL    HW2 2943   2.605   3.083   2.522  0.2046  2.6965  0.2498
  982SOL     OW 2944   0.182   3.015   2.439 -0.1228  0.2657  0.1177
  982SOL    HW1 2945   0.116   3.083   2.477  1.6516  0.5485 -1.4985
  982SOL    HW2 2946   0.139   2.951   2.372  0.7413  1.6825 -1.4888
  983SOL     OW 2947   2.400   1.517   1.759 -0.1405  0.1681  0.4067
  983SOL    HW1 2948   2.422   1.511   1.860  0.8972  0.8370 -2.8916
  983SOL    HW2 2949   2.303   1.507   1.744  2.4316  1.0653  0.4909
  984SOL     OW 2950   1.570   0.408   2.002 -0.1354  0.7090 -0.2154
  984SOL    HW1 2951   1.481   0.372   2.033  3.5181  2.3037 -0.5984
  984SOL    HW2 2952   1.605   0.492   2.051 -0.3800 -1.7873  2.5074
  985SOL     OW 2953   1.607   1.702   2.258  0.7458 -0.0078  0.7297
  985SOL    HW1 2954   1.538   1.628   2.242 -0.8862  0.9080  1.4648
  985SOL    HW2 2955   1.661   1.727   2.178  2.0074 -0.0055 -1.4535
  986SOL     OW 2956   1.842   0.324   2.023 -0.0501 -0.0862 -0.2424
  986SOL    HW1 2957   1.880   0.401   1.974  2.4256  1.1197 -0.0028
  986SOL    HW2 2958   1.744   0.340   2.038  0.5869 -0.5849  0.9871
  987SOL     OW 2959   2.262   0.670   1.924  0.4299  0.0754  0.5190
  987SOL    HW1 2960   2.328   0.617   1.983  2.2961 -0.2937  0.6380
  987SOL    HW2 2961   2.312   0.749   1.875  0.1159 -0.1017 -4.6334
  988SOL     OW 2962   2.665   0.693   2.427  0.8248  0.2391 -0.0973
  988SOL    HW1 2963   2.721   0.616   2.394 -0.5101  1.3676 -1.3725
  988SOL    HW2 2964   2.715   0.781   2.412  0.7465  0.9463 -0.4277
  989SOL     OW 2965   2.344   2.609   2.837 -0.2138  0.3033  0.1420
  989SOL    HW1 2966   2.391   2.570   2.757 -0.0731  2.4895  0.3544
  989SOL    HW2 2967   2.283   2.540   2.883  0.8521 -1.9591  0.3721
  990SOL     OW 2968   1.006   0.518   2.594 -0.5825  0.1842 -0.4805
  990SOL    HW1 2969   0.968   0.451   2.661  0.2646 -0.5633 -1.9428
  990SOL    HW2 2970   0.937   0.576   2.546  0.3598 -1.0135 -1.0956
  991SOL     OW 2971   1.242   0.632   0.229 -0.4285 -0.0366 -0.0041
  991SOL    HW1 2972   1.219   0.720   0.181 -3.0729 -2.1568  0.7917
  991SOL    HW2 2973   1.249   0.549   0.167 -0.3143  4.2684  1.6345
  992SOL     OW 2974   2.598   2.308   2.795 -0.0304 -0.0206 -0.1929
  992SOL    HW1 2975   2.505   2.263   2.789  0.3982  1.1080 -2.7086
  992SOL    HW2 2976   2.604   2.398   2.746  0.4769 -0.8489  0.2966
  993SOL     OW 2977   0.189   0.230   0.180 -0.0484  0.4162  0.0334
  993SOL    HW1 2978   0.183   0.303   0.113 -2.0410 -0.9445  0.5111
  993SOL    HW2 2979   0.161   0.262   0.275 -1.5983  1.5449  0.0951
  994SOL     OW 2980   0.252   2.157   1.610 -0.6252  0.0194  0.4976
  994SOL    HW1 2981   0.218   2.127   1.701  1.6911  1.6042  1.1268
  994SOL    HW2 2982   0.248   2.258   1.602 -0.0280 -2.7260 -1.4171
  995SOL     OW 2983   1.933   1.652   2.916 -0.3135 -0.0993  0.2087
  995SOL    HW1 2984   2.013   1.676   2.969  0.1627  1.1502 -0.8645
  995SOL    HW2 2985   1.943   1.563   2.864  1.9688 -2.2042 -1.0279
  996SOL     OW 2986   1.339   1.677   2.830 -0.4660  0.3774  0.1364
  996SOL    HW1 2987   1.418   1.625   2.785  0.3531 -1.5793 -0.5687
  996SOL    HW2 2988   1.364   1.712   2.921 -0.3039  1.7607  0.5711
  997SOL     OW 2989   1.755   0.994   1.182  0.1091 -0.0797 -0.5553
  997SOL    HW1 2990   1.760   1.075   1.126 -0.7888 -1.3996  2.6909
  997SOL    HW2 2991   1.844   0.963   1.220  0.0093  0.5843 -0.4294
  998SOL     OW 2992   2.487   1.487   0.124  0.2430 -0.1152 -0.3464
  998SOL    HW1 2993   2.507   1.387   0.142 -1.5218  0.3042  0.9117
  998SOL    HW2 2994   2.565   1.522   0.074 -0.8814 -2.0302 -0.2146
  999SOL     OW 2995   3.102   2.386   0.284 -0.2194 -0.7572 -0.9286
  999SOL    HW1 2996   3.048   2.430   0.357  1.5033  2.7353 -0.2708
  999SOL    HW2 2997   3.108   2.446   0.203 -0.4221  0.4414  2.9597
 1000SOL     OW 2998   0.655   3.064   1.924  0.0347 -0.5456  0.0649
 1000SOL    HW1 2999   0.575   3.072   1.861 -2.2540  1.2454 -1.0895
 1000SOL    HW2 3000   0.736   3.115   1.890 -1.8862 -0.5847  0.5048
   3.12653   3.12653   3.12653
