1000 SPC/Fw water molecules t= 416.00000 step= 416000
 3000
    1SOL     OW    1   0.039   3.022   1.317  0.1331 -0.3696  0.5891
    1SOL    HW1    2   0.028   3.078   1.403 -0.5025 -0.9825 -2.8534
    1SOL    HW2    3   3.092   2.930   1.315 -2.0506 -2.3958 -0.4497
    2SOL     OW    4   2.706   2.991   0.248 -0.2299  0.3582 -0.6490
    2SOL    HW1    5   2.671   2.895   0.234  0.7074 -2.0767 -1.6934
    2SOL    HW2    6   2.718   3.030   0.155 -0.6118  2.8558 -0.5632
    3SOL     OW    7   1.407   2.494   2.970 -0.2873 -0.3183 -0.0428
    3SOL    HW1    8   1.431   2.550   2.886 -0.4362  0.7358  1.3813
    3SOL    HW2    9   1.337   2.544   3.024  1.1506  1.0287  3.4009
    4SOL     OW   10   0.988   3.076   2.236  0.2843  0.2296 -0.2112
    4SOL    HW1   11   0.931   3.056   2.317 -0.9181  0.8633 -0.0658
    4SOL    HW2   12   1.000   2.989   2.180  2.0614 -1.8644 -1.4789
    5SOL     OW   13   2.186   0.262   1.548 -0.7188 -0.7218  0.1252
    5SOL    HW1   14   2.087   0.264   1.565  0.4948  0.4883  0.8168
    5SOL    HW2   15   2.236   0.318   1.618  4.1438 -0.4301  0.7365
    6SOL     OW   16   2.454   1.710   1.300  0.1271  0.2429 -0.1688
    6SOL    HW1   17   2.504   1.716   1.212  0.5519  0.8342  0.8724
    6SOL    HW2   18   2.358   1.676   1.286 -2.9474  2.4548  1.5534
    7SOL     OW   19   2.088   1.239   0.728  0.5766 -0.2635 -0.2274
    7SOL    HW1   20   2.092   1.345   0.732  1.9565  1.5846  0.8563
    7SOL    HW2   21   2.180   1.196   0.727  0.2208  3.8899 -1.5785
    8SOL     OW   22   0.673   1.523   1.071 -0.0620  0.2448 -0.0137
    8SOL    HW1   23   0.744   1.592   1.068 -1.2115  1.8412  0.6164
    8SOL    HW2   24   0.669   1.491   1.165 -1.2831  1.8209 -1.5996
    9SOL     OW   25   0.005   2.729   1.318 -0.0668 -0.5641 -0.2686
    9SOL    HW1   26   3.046   2.682   1.394 -2.6129  0.7660  1.6731
    9SOL    HW2   27   3.061   2.714   1.228 -0.9799  0.4589  1.7378
   10SOL     OW   28   1.157   2.374   0.511 -0.3707 -0.9332  0.1812
   10SOL    HW1   29   1.189   2.321   0.432 -0.6223 -0.4906 -0.7376
   10SOL    HW2   30   1.084   2.440   0.487 -2.6870 -0.8715  2.2705
   11SOL     OW   31   1.617   1.995   1.145  0.2991  0.1385  0.1305
   11SOL    HW1   32   1.589   1.958   1.055 -0.8992 -1.0304  1.3784
   11SOL    HW2   33   1.712   2.005   1.160 -4.1251 -1.2582  4.5199
   12SOL     OW   34   3.063   0.761   2.232 -0.0394 -1.0040  0.2726
   12SOL    HW1   35   3.032   0.819   2.156  2.3749 -1.2150  1.6585
   12SOL    HW2   36   3.041   0.665   2.219 -1.0462 -0.4618  1.3370
   13SOL     OW   37   2.542   2.798   0.158 -0.3710 -0.1313  0.5694
   13SOL    HW1   38   2.574   2.787   0.061  1.1451 -0.3597 -0.2827
   13SOL    HW2   39   2.505   2.707   0.189  1.0501 -1.4988  2.0038
   14SOL     OW   40   1.520   1.729   2.961  0.2194  0.0640 -0.3733
   14SOL    HW1   41   1.474   1.646   2.923  3.2344 -0.7961 -1.2228
   14SOL    HW2   42   1.602   1.691   3.012  0.3282  0.2430  0.7532
   15SOL     OW   43   2.795   2.755   1.877 -0.3068 -0.1009  0.2672
   15SOL    HW1   44   2.888   2.721   1.847 -0.4282 -0.2762 -0.0187
   15SOL    HW2   45   2.770   2.851   1.845 -0.6146  1.2334  0.8513
   16SOL     OW   46   2.950   0.346   0.866  0.2846 -0.0790  0.0528
   16SOL    HW1   47   3.001   0.421   0.827 -1.4140 -2.0704 -1.2872
   16SOL    HW2   48   2.907   0.285   0.796  1.3504  0.8733  1.2156
   17SOL     OW   49   1.208   0.138   0.773  0.5173 -0.0746  0.4418
   17SOL    HW1   50   1.116   0.138   0.812  4.0509 -1.7016  1.2064
   17SOL    HW2   51   1.274   0.191   0.828 -0.0853 -1.2386  2.7425
   18SOL     OW   52   1.387   0.230   0.948 -0.2784  0.2042  0.4780
   18SOL    HW1   53   1.490   0.243   0.935  1.2201 -2.0794 -0.3397
   18SOL    HW2   54   1.347   0.282   1.023 -1.7714  0.5028 -3.0948
   19SOL     OW   55   2.410   0.996   0.503 -0.1704  0.2801 -0.1342
   19SOL    HW1   56   2.340   1.040   0.559  0.1824  3.0108 -1.9180
   19SOL    HW2   57   2.370   0.939   0.434 -1.5153 -2.5950  0.2256
   20SOL     OW   58   2.378   1.614   2.641  0.4170 -0.2981  0.3472
   20SOL    HW1   59   2.456   1.628   2.568 -0.0099  0.4313 -0.8827
   20SOL    HW2   60   2.384   1.679   2.716 -1.1733 -1.5772 -0.2970
   21SOL     OW   61   1.317   0.036   0.149 -0.2297  0.1380 -0.1793
   21SOL    HW1   62   1.336   0.053   0.249 -0.5539  2.2781 -1.4219
   21SOL    HW2   63   1.225   0.072   0.123 -0.1215  1.8729  0.0621
   22SOL     OW   64   2.917   1.074   0.823  0.2039  0.8748 -0.1674
   22SOL    HW1   65   2.943   1.024   0.909  2.9517 -3.2514  2.3062
   22SOL    HW2   66   2.909   1.010   0.744  2.6324  2.5734  2.7068
   23SOL     OW   67   0.638   0.042   1.857 -0.1464  0.5026 -0.3594
   23SOL    HW1   68   0.715   0.055   1.925 -1.2217 -0.7620 -0.7516
   23SOL    HW2   69   0.615   0.126   1.806  0.7910  1.4950  1.8608
   24SOL     OW   70   2.490   2.097   0.817 -0.0912 -0.1291  0.0070
   24SOL    HW1   71   2.417   2.164   0.826  1.1062 -0.0367 -1.0834
   24SOL    HW2   72   2.469   2.009   0.865  0.9732 -0.8498 -2.4558
   25SOL     OW   73   1.682   0.114   2.467  0.2743 -0.0178  0.5544
   25SOL    HW1   74   1.603   0.174   2.480  1.6716 -1.8956  1.2326
   25SOL    HW2   75   1.671   0.020   2.509  1.6979  1.8829 -0.3773
   26SOL     OW   76   1.512   2.365   0.109 -0.0398  0.6476  0.6527
   26SOL    HW1   77   1.609   2.371   0.142 -1.5500  1.1626  0.2536
   26SOL    HW2   78   1.499   2.427   0.028  2.8341  0.8699  0.4015
   27SOL     OW   79   1.671   0.586   1.534  0.6319 -0.0085 -0.1503
   27SOL    HW1   80   1.730   0.646   1.470 -2.0846  1.9878 -1.3577
   27SOL    HW2   81   1.694   0.594   1.637  0.5123  1.0757 -0.1505
   28SOL     OW   82   1.081   1.417   0.507  0.3579 -0.0868 -0.4958
   28SOL    HW1   83   1.030   1.413   0.591  3.1703 -0.3411 -1.9084
   28SOL    HW2   84   1.180   1.416   0.531  1.4114  0.8311  0.7415
   29SOL     OW   85   2.555   0.333   1.506  0.2601  0.0532 -0.1553
   29SOL    HW1   86   2.604   0.258   1.456  0.1085 -2.0260 -1.2473
   29SOL    HW2   87   2.500   0.384   1.436 -0.8097 -0.3592 -1.1693
   30SOL     OW   88   1.316   2.537   1.442 -0.0341  0.4653 -0.1233
   30SOL    HW1   89   1.367   2.627   1.452 -1.1326 -1.0415 -0.2081
   30SOL    HW2   90   1.344   2.482   1.362  0.9915 -1.1101 -0.6420
   31SOL     OW   91   1.911   2.693   1.347  0.4668  0.3135 -0.4426
   31SOL    HW1   92   1.974   2.722   1.420 -1.9905 -1.1507 -2.6943
   31SOL    HW2   93   1.944   2.727   1.261  1.8681 -2.3495  4.3733
   32SOL     OW   94   1.986   1.526   2.410  0.4559 -0.4853  0.0973
   32SOL    HW1   95   1.911   1.459   2.427  1.1069  2.0165  2.3955
   32SOL    HW2   96   2.064   1.485   2.359 -1.7601 -2.2214 -0.1930
   33SOL     OW   97   2.459   0.528   2.955  0.1438  0.0246  0.4945
   33SOL    HW1   98   2.411   0.527   3.046  0.5242 -1.2995  0.8941
   33SOL    HW2   99   2.385   0.530   2.888  1.6376 -0.2151  1.0087
   34SOL     OW  100   1.860   0.237   0.336 -0.2797 -0.3811  0.4618
   34SOL    HW1  101   1.776   0.215   0.390 -1.9190 -1.2095  2.0625
   34SOL    HW2  102   1.943   0.187   0.368  1.7290 -1.3976 -1.5652
   35SOL     OW  103   3.090   2.036   1.823 -0.4745 -0.6076 -0.7945
   35SOL    HW1  104   3.019   2.008   1.758  0.6165  0.8894  3.4847
   35SOL    HW2  105   3.040   2.037   1.908 -0.1506  0.8819 -0.8414
   36SOL     OW  106   2.466   1.803   2.833 -0.2103  0.2727 -0.3506
   36SOL    HW1  107   2.478   1.861   2.752 -0.7471  0.8100  3.6848
   36SOL    HW2  108   2.526   1.843   2.910 -0.1918 -1.3384  1.2345
   37SOL     OW  109   1.669   3.058   1.712  0.0601 -0.0866 -0.1019
   37SOL    HW1  110   1.716   2.978   1.669 -2.1916 -1.2113  0.1426
   37SOL    HW2  111   1.597   3.022   1.774  2.1429 -0.6811  0.4347
   38SOL     OW  112   0.278   0.489   2.365  0.0861  0.2016 -0.0572
   38SOL    HW1  113   0.250   0.573   2.316  0.0217  1.4220  1.2271
   38SOL    HW2  114   0.370   0.497   2.413  1.9391 -2.2621  3.2939
   39SOL     OW  115   2.179   0.727   1.364 -0.2990  0.1870  0.1958
   39SOL    HW1  116   2.201   0.628   1.335  1.2700  1.7334 -1.8071
   39SOL    HW2  117   2.170   0.793   1.286  1.8348  1.6859  4.1895
   40SOL     OW  118   1.149   2.250   0.766 -0.4927  0.0028 -0.0372
   40SOL    HW1  119   1.074   2.181   0.773 -0.9481 -1.4362  2.5190
   40SOL    HW2  120   1.154   2.292   0.674 -0.9526  1.1364  0.8540
   41SOL     OW  121   1.971   2.025   1.036  0.0219  0.6838  0.0250
   41SOL    HW1  122   1.945   2.084   0.953 -1.8202  1.6776 -0.3689
   41SOL    HW2  123   1.940   2.071   1.121 -0.1573 -0.0363  0.0782
   42SOL     OW  124   2.557   0.546   0.832  0.4579 -0.5564  0.2241
   42SOL    HW1  125   2.635   0.598   0.862 -0.8880 -0.6271  0.0723
   42SOL    HW2  126   2.510   0.606   0.765 -2.3543  1.9978  0.2516
   43SOL     OW  127   0.536   1.509   2.502  0.1194  0.6379 -0.0490
   43SOL    HW1  128   0.555   1.505   2.403 -0.6949 -1.7846  1.8404
   43SOL    HW2  129   0.630   1.531   2.544  0.2075  0.6985 -0.8883
   44SOL     OW  130   1.644   2.741   1.187  0.3003  0.2924  0.3562
   44SOL    HW1  131   1.583   2.711   1.263 -0.3913  1.2943 -0.8469
   44SOL    HW2  132   1.726   2.783   1.236  1.6817 -0.0630 -0.6969
   45SOL     OW  133   0.898   3.019   2.501 -0.4118  0.1381 -0.4382
   45SOL    HW1  134   0.954   2.936   2.489  0.7590 -0.7810 -0.2926
   45SOL    HW2  135   0.831   3.004   2.575 -3.0990  0.3723 -1.4292
   46SOL     OW  136   0.804   2.516   1.994 -0.7601 -0.4563 -0.2759
   46SOL    HW1  137   0.862   2.450   1.946 -0.3437 -0.1330 -0.2980
   46SOL    HW2  138   0.851   2.603   2.011 -0.8283  1.3258  2.5197
   47SOL     OW  139   0.911   2.099   0.781 -0.1858  0.4723  0.3805
   47SOL    HW1  140   0.915   2.102   0.678  0.6200  0.4609 -3.4417
   47SOL    HW2  141   0.896   2.003   0.812  1.0209  0.6611  2.0504
   48SOL     OW  142   0.781   2.419   1.338  0.7173 -0.2452 -0.7405
   48SOL    HW1  143   0.747   2.470   1.259  1.0257 -0.7282 -1.6573
   48SOL    HW2  144   0.877   2.446   1.351 -0.8827  1.2101 -2.5625
   49SOL     OW  145   2.647   0.123   2.861 -0.0380  0.2174 -0.1839
   49SOL    HW1  146   2.619   0.215   2.892  0.3341 -0.2863 -1.7294
   49SOL    HW2  147   2.680   0.124   2.761  1.1052 -0.7083 -2.8998
   50SOL     OW  148   1.658   0.885   0.460 -0.4900  0.0847 -0.1025
   50SOL    HW1  149   1.705   0.860   0.548 -1.6661 -0.0177 -0.8271
   50SOL    HW2  150   1.582   0.825   0.445  1.5221  0.9550 -0.3232
   51SOL     OW  151   2.258   0.120   0.820 -0.7350  0.0177 -0.1922
   51SOL    HW1  152   2.233   0.134   0.723  0.6086  1.4973  1.0588
   51SOL    HW2  153   2.229   0.026   0.845  0.0590  0.5847 -1.6813
   52SOL     OW  154   0.962   1.598   0.129 -0.2605  0.2949  0.1414
   52SOL    HW1  155   0.967   1.547   0.036  0.4018 -1.8693 -3.8400
   52SOL    HW2  156   0.880   1.667   0.141 -0.1481  0.1913  3.1700
   53SOL     OW  157   0.132   1.082   2.836 -0.1834  0.1537  0.3505
   53SOL    HW1  158   0.221   1.047   2.878  0.1792  0.9257  1.0615
   53SOL    HW2  159   0.145   1.119   2.742  2.5427 -1.3431  1.6497
   54SOL     OW  160   2.187   1.928   2.753  0.2023 -0.0824 -0.5231
   54SOL    HW1  161   2.207   1.920   2.652  0.3071 -2.8643 -1.3949
   54SOL    HW2  162   2.224   1.848   2.807 -1.2526 -0.1472  2.1695
   55SOL     OW  163   2.296   2.168   1.332 -0.0642 -0.1225 -0.2793
   55SOL    HW1  164   2.380   2.133   1.375 -0.5955  0.4991 -0.0580
   55SOL    HW2  165   2.273   2.116   1.245 -1.9575  0.9990  0.6488
   56SOL     OW  166   1.931   3.047   0.985 -0.2073 -0.1140  0.4320
   56SOL    HW1  167   1.920   2.947   0.996  0.6901 -2.1996 -0.0574
   56SOL    HW2  168   1.889   3.075   0.898  0.2808  1.0095  3.1679
   57SOL     OW  169   1.608   1.344   0.746 -0.4947 -0.2542  0.7558
   57SOL    HW1  170   1.640   1.440   0.762  0.7528  0.0584 -2.7553
   57SOL    HW2  171   1.683   1.308   0.688 -2.2240 -1.5446  2.6487
   58SOL     OW  172   2.346   0.071   1.467  0.2167 -0.0756  0.2319
   58SOL    HW1  173   2.430   0.107   1.430 -2.7710 -1.6275  1.8129
   58SOL    HW2  174   2.285   0.146   1.505 -0.8551  1.2623  1.1502
   59SOL     OW  175   1.010   2.775   2.458 -0.0390 -0.3730  0.4993
   59SOL    HW1  176   1.096   2.762   2.401  1.7116 -0.2091 -0.1191
   59SOL    HW2  177   0.928   2.757   2.400  0.9074 -0.2902 -0.1829
   60SOL     OW  178   0.096   2.961   2.717  0.5729 -0.2091 -0.4957
   60SOL    HW1  179   0.087   2.950   2.617  0.3619 -1.3531 -0.4891
   60SOL    HW2  180   0.013   2.921   2.762 -2.8965  1.2184 -2.6605
   61SOL     OW  181   0.845   2.264   0.971  0.5988 -0.0971 -0.3182
   61SOL    HW1  182   0.874   2.189   0.909 -0.1473  1.0438  0.2861
   61SOL    HW2  183   0.747   2.291   0.951  1.9690  2.8782 -4.3960
   62SOL     OW  184   1.070   2.212   2.042 -0.2283 -0.5249  0.5140
   62SOL    HW1  185   1.034   2.241   2.134  0.0553  0.5115  0.9968
   62SOL    HW2  186   1.171   2.190   2.031  0.5940 -1.5250  0.2673
   63SOL     OW  187   1.519   1.801   0.636  0.3698 -0.2268  0.0174
   63SOL    HW1  188   1.555   1.869   0.572 -0.0764  2.0518  1.4079
   63SOL    HW2  189   1.458   1.741   0.577 -2.6494  0.2094  0.0180
   64SOL     OW  190   1.696   1.414   0.399 -0.1453 -0.1884 -0.1536
   64SOL    HW1  191   1.737   1.385   0.313 -0.9314  1.9689 -1.4084
   64SOL    HW2  192   1.718   1.343   0.471  1.0866 -0.3413 -0.3436
   65SOL     OW  193   1.577   2.144   2.317  0.0405  0.3713 -0.3756
   65SOL    HW1  194   1.579   2.044   2.316  0.5281  0.7718 -0.5085
   65SOL    HW2  195   1.624   2.177   2.402 -0.7889 -1.9596  2.1576
   66SOL     OW  196   0.590   0.899   1.276 -0.5603 -0.7980  0.1598
   66SOL    HW1  197   0.548   0.808   1.298  0.9852 -0.2820 -2.8762
   66SOL    HW2  198   0.609   0.909   1.173  0.0862 -0.3576  0.8690
   67SOL     OW  199   2.269   2.615   0.357  0.4922 -0.1301 -0.3880
   67SOL    HW1  200   2.285   2.719   0.374 -0.9981  0.7653  0.9875
   67SOL    HW2  201   2.337   2.555   0.400 -0.3883  0.2975 -1.3627
   68SOL     OW  202   2.115   2.361   1.495 -0.0670 -0.2432  0.3678
   68SOL    HW1  203   2.175   2.310   1.425 -1.9440 -0.3680  0.8419
   68SOL    HW2  204   2.082   2.304   1.574  0.3699  2.7763  1.9151
   69SOL     OW  205   2.422   2.249   2.779 -0.7477 -0.2421  0.3774
   69SOL    HW1  206   2.475   2.166   2.763  0.3725  2.1548  0.2828
   69SOL    HW2  207   2.405   2.298   2.692  0.5471 -1.3907  0.5044
   70SOL     OW  208   0.130   1.182   2.563 -0.0071 -0.2225 -0.2795
   70SOL    HW1  209   0.048   1.238   2.556  3.5490 -1.0006  0.3745
   70SOL    HW2  210   0.149   1.128   2.478 -1.9801 -1.5382  0.8686
   71SOL     OW  211   0.600   1.080   2.310  0.4974  0.1795 -0.4051
   71SOL    HW1  212   0.684   1.127   2.341  1.9525 -0.2515 -2.8030
   71SOL    HW2  213   0.608   1.073   2.208  2.7531  2.6460 -0.3294
   72SOL     OW  214   2.293   1.501   1.928  0.0710 -0.6906 -0.1969
   72SOL    HW1  215   2.244   1.415   1.899 -0.6149 -2.7393 -1.5739
   72SOL    HW2  216   2.377   1.514   1.871  0.8566 -2.5479 -1.2956
   73SOL     OW  217   0.942   1.979   2.905 -0.1526 -0.3396  0.2520
   73SOL    HW1  218   0.882   1.896   2.922  0.8594  2.7521 -2.7668
   73SOL    HW2  219   1.030   1.951   2.862 -0.1706 -0.8255 -0.6123
   74SOL     OW  220   1.849   2.938   2.281  0.4245 -0.3834 -0.0960
   74SOL    HW1  221   1.928   3.000   2.284  0.8586 -0.1215 -1.6421
   74SOL    HW2  222   1.767   2.995   2.246 -2.0108  1.3687  1.6232
   75SOL     OW  223   1.201   2.762   0.561  0.5328 -0.3907  0.0210
   75SOL    HW1  224   1.258   2.714   0.489  0.0104 -1.6417 -0.9070
   75SOL    HW2  225   1.143   2.834   0.513  1.5397 -0.1739  0.6879
   76SOL     OW  226   3.053   2.061   2.705 -0.1160  0.2813  0.0747
   76SOL    HW1  227   0.028   1.993   2.738  0.6783 -2.2269  0.3229
   76SOL    HW2  228   3.059   2.081   2.606 -0.0630 -0.9500  0.7892
   77SOL     OW  229   3.011   2.353   1.361  0.0317 -0.1024  0.3730
   77SOL    HW1  230   3.077   2.317   1.290 -2.0838 -1.7605 -2.0386
   77SOL    HW2  231   3.070   2.398   1.433  0.2869 -0.2111  0.7724
   78SOL     OW  232   2.647   0.967   3.066 -0.1514 -0.6574  1.0428
   78SOL    HW1  233   2.626   1.057   0.010  0.4258 -3.5969  0.3656
   78SOL    HW2  234   2.567   0.904   3.065  1.8413  1.3069 -0.3024
   79SOL     OW  235   0.136   1.863   2.834  0.0906 -0.4282 -0.3000
   79SOL    HW1  236   0.127   1.767   2.806 -0.8723  0.9364 -0.1102
   79SOL    HW2  237   0.095   1.872   2.926 -2.3534 -0.6969 -1.4651
   80SOL     OW  238   1.631   1.473   1.600 -0.1022 -0.1213 -0.2536
   80SOL    HW1  239   1.710   1.471   1.661 -1.8694  1.0357 -1.1341
   80SOL    HW2  240   1.605   1.566   1.576  1.4538 -1.4386  1.5982
   81SOL     OW  241   2.042   1.147   2.158 -0.1264  0.0448  0.2973
   81SOL    HW1  242   1.951   1.105   2.122 -0.7453 -3.8006 -1.8508
   81SOL    HW2  243   2.035   1.226   2.217 -0.6962 -2.1378 -0.1934
   82SOL     OW  244   1.520   1.231   1.660 -0.2689 -0.7730 -0.1409
   82SOL    HW1  245   1.533   1.331   1.645 -2.3078 -2.4831  2.9676
   82SOL    HW2  246   1.457   1.218   1.738 -0.5161 -1.3556  2.6704
   83SOL     OW  247   3.003   0.286   2.968 -0.1790 -0.6272  0.2171
   83SOL    HW1  248   3.004   0.252   3.067 -1.7669 -0.7001  0.1906
   83SOL    HW2  249   3.000   0.207   2.904  1.1663  0.3894  1.6642
   84SOL     OW  250   0.144   1.231   0.149  0.0621  0.0488 -0.1459
   84SOL    HW1  251   0.097   1.224   0.057  0.1973  2.6026  0.7071
   84SOL    HW2  252   0.118   1.319   0.196  2.7744 -2.3982 -2.1293
   85SOL     OW  253   2.095   1.662   2.036 -0.5711 -0.1768  0.1253
   85SOL    HW1  254   2.164   1.602   1.990  0.2957  0.9452  0.5422
   85SOL    HW2  255   2.123   1.676   2.134  0.3682 -0.0422  2.0050
   86SOL     OW  256   0.657   0.900   0.996 -0.2098 -0.0617 -0.1664
   86SOL    HW1  257   0.672   0.996   0.962  0.5571 -0.8506 -0.3450
   86SOL    HW2  258   0.622   0.844   0.916 -0.2160  0.5088 -0.9290
   87SOL     OW  259   2.668   1.981   2.128  0.5124  0.3754 -0.0612
   87SOL    HW1  260   2.610   2.049   2.083  2.7856  0.3695  0.9740
   87SOL    HW2  261   2.746   1.976   2.068 -1.9458  1.2327 -0.7362
   88SOL     OW  262   0.268   2.384   0.020 -0.1814  0.2097  0.4907
   88SOL    HW1  263   0.361   2.408   0.001 -2.5480 -1.3283  1.5411
   88SOL    HW2  264   0.255   2.339   0.109  0.3063  0.2336 -0.8496
   89SOL     OW  265   1.450   0.469   0.266  0.0792 -0.0299  0.1160
   89SOL    HW1  266   1.360   0.477   0.223  4.7218 -0.8485  0.5813
   89SOL    HW2  267   1.512   0.490   0.190 -0.6883 -1.0622  2.6628
   90SOL     OW  268   2.994   1.517   2.355  0.6011  0.0447 -0.3962
   90SOL    HW1  269   2.952   1.504   2.267  1.8474 -0.8589  0.4136
   90SOL    HW2  270   2.955   1.598   2.409  2.0347  1.0887  0.5140
   91SOL     OW  271   2.251   3.000   1.288  0.2295  0.1909  0.1757
   91SOL    HW1  272   2.285   3.057   1.362  0.2826  0.2604 -1.1094
   91SOL    HW2  273   2.167   3.048   1.254 -0.2416  0.4648  0.1657
   92SOL     OW  274   2.346   1.400   1.124  0.0431 -0.2884 -0.1310
   92SOL    HW1  275   2.316   1.489   1.157  2.4466 -0.3118 -1.7100
   92SOL    HW2  276   2.270   1.360   1.066 -0.2060 -1.7511  2.2887
   93SOL     OW  277   0.044   1.440   0.288  0.2419 -0.3991  0.0531
   93SOL    HW1  278   3.064   1.468   0.352 -4.6469 -0.9713  1.2257
   93SOL    HW2  279   0.128   1.501   0.295  2.0225  1.0409 -0.8398
   94SOL     OW  280   1.196   2.743   1.789 -0.3780  0.7102 -0.0248
   94SOL    HW1  281   1.118   2.701   1.746  2.3276  1.4523  0.7338
   94SOL    HW2  282   1.282   2.691   1.761  2.1617  2.0769 -0.8158
   95SOL     OW  283   0.153   0.589   0.982 -0.1129  0.1939 -0.5287
   95SOL    HW1  284   0.184   0.682   1.016  0.6993 -1.6981  3.7422
   95SOL    HW2  285   0.182   0.511   1.046  0.7810 -2.2598 -0.7994
   96SOL     OW  286   3.070   2.663   1.807  0.1478  0.8131 -0.4208
   96SOL    HW1  287   3.073   2.765   1.811 -1.0086  0.1033 -2.7434
   96SOL    HW2  288   0.066   2.619   1.801 -3.1501  1.1812 -1.3875
   97SOL     OW  289   2.437   0.445   1.291  0.4525  0.2291 -0.0521
   97SOL    HW1  290   2.468   0.543   1.281 -2.9687 -0.2501  2.1065
   97SOL    HW2  291   2.484   0.390   1.220 -0.2301 -0.2142  1.6185
   98SOL     OW  292   2.744   2.298   1.436  0.1339 -0.1421 -0.6484
   98SOL    HW1  293   2.690   2.292   1.350 -0.2450  2.8907  3.1417
   98SOL    HW2  294   2.844   2.321   1.410  0.7342 -1.2549 -0.3598
   99SOL     OW  295   0.365   0.135   1.701 -0.4263  0.1544 -0.0134
   99SOL    HW1  296   0.305   0.152   1.782  0.2161 -1.4488 -0.4130
   99SOL    HW2  297   0.362   0.208   1.629 -0.7463 -1.3449  0.0491
  100SOL     OW  298   2.275   0.242   2.612 -0.5364  0.0935 -0.3342
  100SOL    HW1  299   2.207   0.314   2.641  2.6111  1.9546 -1.2808
  100SOL    HW2  300   2.290   0.174   2.688  0.8626 -4.0914  1.7739
  101SOL     OW  301   0.163   0.257   2.332 -0.0973  0.1174 -0.3324
  101SOL    HW1  302   0.201   0.353   2.347  1.4240  1.6310  1.4270
  101SOL    HW2  303   0.205   0.189   2.401  0.3901 -0.1596  0.2236
  102SOL     OW  304   0.646   0.298   1.746  0.3831  0.0232  0.2308
  102SOL    HW1  305   0.590   0.317   1.660 -0.4373 -0.5107 -1.2615
  102SOL    HW2  306   0.738   0.342   1.749  0.2668 -0.5386 -1.6401
  103SOL     OW  307   1.115   0.732   2.396  0.3954  0.1219  0.2362
  103SOL    HW1  308   1.160   0.819   2.435 -0.6728 -0.6424 -0.6450
  103SOL    HW2  309   1.185   0.670   2.360 -1.7802  1.5036 -0.7107
  104SOL     OW  310   0.191   0.617   1.875  0.3120  0.0782 -0.2405
  104SOL    HW1  311   0.156   0.713   1.861 -1.9034  0.9902 -1.1488
  104SOL    HW2  312   0.269   0.611   1.944  1.4375  1.0242  0.1891
  105SOL     OW  313   2.222   1.955   1.717  0.5151  0.3485 -0.3324
  105SOL    HW1  314   2.178   2.000   1.797 -0.0657 -0.1072 -1.6099
  105SOL    HW2  315   2.172   1.868   1.695 -1.4556  2.8807  0.6538
  106SOL     OW  316   1.687   0.156   0.532  0.3700  0.1776  0.7043
  106SOL    HW1  317   1.713   0.119   0.624  1.5751  0.7129  2.5445
  106SOL    HW2  318   1.632   0.240   0.546  1.6647 -0.5593 -1.4995
  107SOL     OW  319   2.241   2.028   1.116 -0.1924 -0.2555 -0.0102
  107SOL    HW1  320   2.161   2.041   1.055 -2.0292 -0.7876  0.9337
  107SOL    HW2  321   2.315   1.987   1.061 -1.1535  0.3856 -0.2564
  108SOL     OW  322   0.125   2.298   1.197  0.5780  0.5963 -0.3208
  108SOL    HW1  323   0.149   2.356   1.113 -0.1491  0.3552 -0.7546
  108SOL    HW2  324   0.205   2.247   1.227 -1.1346  0.6951 -1.5592
  109SOL     OW  325   1.601   2.571   0.959  0.0305  0.5718  0.0320
  109SOL    HW1  326   1.499   2.575   0.951 -0.5849  1.1511 -1.5827
  109SOL    HW2  327   1.631   2.632   1.033 -0.5475  1.8502 -0.2450
  110SOL     OW  328   1.860   1.698   1.259  0.4318  0.6579 -0.1833
  110SOL    HW1  329   1.937   1.752   1.276 -0.7615 -0.5056  0.0109
  110SOL    HW2  330   1.881   1.615   1.200  1.4173  0.6677  0.9341
  111SOL     OW  331   1.484   2.250   1.886  0.8120  0.3484 -0.2065
  111SOL    HW1  332   1.554   2.227   1.817  0.6153  0.3963  0.2103
  111SOL    HW2  333   1.503   2.346   1.913  0.0370  2.2927 -1.4602
  112SOL     OW  334   2.006   2.206   0.032  0.2867  0.6840  0.0895
  112SOL    HW1  335   1.953   2.138   0.086 -0.1585  1.6458  0.6381
  112SOL    HW2  336   2.105   2.177   0.025 -0.5726 -0.9711 -0.2656
  113SOL     OW  337   2.035   1.734   1.776 -0.2556  0.6968  0.1538
  113SOL    HW1  338   1.956   1.797   1.789 -0.0351 -1.4859  0.4927
  113SOL    HW2  339   2.064   1.700   1.867 -0.3185  0.3963 -1.1929
  114SOL     OW  340   0.027   1.286   1.780  0.0542  0.1386  0.0352
  114SOL    HW1  341   3.046   1.351   1.792 -2.8728 -0.1944 -1.7935
  114SOL    HW2  342   3.091   1.198   1.741 -0.2586 -1.5315 -0.2934
  115SOL     OW  343   2.993   0.958   0.023  0.3332 -0.8454  0.0317
  115SOL    HW1  344   2.948   0.959   0.115 -0.3250 -0.0802 -0.3323
  115SOL    HW2  345   3.086   0.924   0.037 -2.3402  1.7959 -1.4614
  116SOL     OW  346   2.413   0.838   3.050 -0.0541 -0.1140 -0.2868
  116SOL    HW1  347   2.336   0.894   3.014 -3.5052  1.8047  0.0969
  116SOL    HW2  348   2.429   0.748   3.005  0.5436 -0.3735  1.6371
  117SOL     OW  349   2.694   2.371   0.076 -0.0200  0.0447 -0.0804
  117SOL    HW1  350   2.793   2.383   0.069 -0.8256 -0.3874  0.7268
  117SOL    HW2  351   2.652   2.407   3.088  0.3945  1.5036  1.0821
  118SOL     OW  352   0.545   2.264   2.715  0.1638  0.2632 -0.4233
  118SOL    HW1  353   0.628   2.260   2.778  0.6222  0.6238  0.8397
  118SOL    HW2  354   0.460   2.306   2.758  0.1125 -0.9717  0.3282
  119SOL     OW  355   0.602   2.850   0.446  0.7961  0.1407  0.1199
  119SOL    HW1  356   0.548   2.843   0.531  3.6604  0.6995 -0.8338
  119SOL    HW2  357   0.534   2.824   0.371  0.7311 -3.3107 -0.4434
  120SOL     OW  358   1.225   0.813   0.248  0.2527 -0.0915  0.0353
  120SOL    HW1  359   1.131   0.787   0.217 -1.1005 -1.1646 -0.1475
  120SOL    HW2  360   1.232   0.901   0.300 -0.8763  1.6618  1.9750
  121SOL     OW  361   1.329   2.612   0.752 -0.0931 -0.0984 -0.4386
  121SOL    HW1  362   1.293   2.689   0.695 -0.3504 -0.4617 -1.2673
  121SOL    HW2  363   1.395   2.553   0.699  0.9773 -0.1212 -1.8237
  122SOL     OW  364   2.580   1.626   2.459  0.0501  0.7619  0.4906
  122SOL    HW1  365   2.645   1.674   2.394 -1.9482 -0.0966  1.7215
  122SOL    HW2  366   2.574   1.525   2.439  4.3887  1.2653  1.0884
  123SOL     OW  367   1.220   1.349   1.225 -0.2717 -0.6202  0.3246
  123SOL    HW1  368   1.167   1.337   1.313 -2.2684 -0.6149  0.8310
  123SOL    HW2  369   1.213   1.267   1.164 -1.3694 -1.1462 -1.8924
  124SOL     OW  370   0.490   0.521   3.082  0.0899  0.3601  0.1957
  124SOL    HW1  371   0.465   0.434   3.032 -2.8549  0.1136  1.6101
  124SOL    HW2  372   0.569   0.566   3.038  0.7104  1.7553  1.1666
  125SOL     OW  373   0.647   0.244   0.415  0.2783  0.0476 -0.3236
  125SOL    HW1  374   0.654   0.145   0.399 -0.6489  1.2929 -0.7976
  125SOL    HW2  375   0.546   0.267   0.411 -4.1395  1.1530  0.2274
  126SOL     OW  376   0.241   1.762   0.529 -0.1395  0.3236  0.3163
  126SOL    HW1  377   0.292   1.854   0.527  1.3743 -4.1980  2.2466
  126SOL    HW2  378   0.234   1.740   0.628 -1.4556  0.8945 -0.7545
  127SOL     OW  379   0.957   2.703   1.645  0.0824 -0.1109 -0.7737
  127SOL    HW1  380   0.861   2.703   1.610 -0.1010 -2.2313  1.2520
  127SOL    HW2  381   0.965   2.779   1.713  1.0846  0.3759  2.7544
  128SOL     OW  382   1.413   1.549   0.177 -0.6056  0.2456 -0.8248
  128SOL    HW1  383   1.319   1.562   0.214  1.0925  1.1984 -1.0043
  128SOL    HW2  384   1.410   1.546   0.076 -0.0054  0.2593  0.3206
  129SOL     OW  385   1.777   1.669   1.938  0.2200 -0.0683 -0.1722
  129SOL    HW1  386   1.679   1.682   1.920  2.2066 -0.0225  3.6057
  129SOL    HW2  387   1.820   1.607   1.868 -0.0022  0.2556 -3.1255
  130SOL     OW  388   1.645   2.228   1.642  0.1361 -0.0597 -0.6540
  130SOL    HW1  389   1.648   2.127   1.622  0.6655 -0.3306 -1.3607
  130SOL    HW2  390   1.601   2.281   1.565 -2.4349  0.4501  2.0715
  131SOL     OW  391   0.122   2.198   1.996 -0.0415  0.2652 -0.3021
  131SOL    HW1  392   0.103   2.162   1.903  2.6620 -0.5272 -1.9784
  131SOL    HW2  393   0.082   2.294   2.010 -1.7609  1.5922  2.2113
  132SOL     OW  394   2.989   1.642   0.975 -0.7433 -0.0387 -0.3943
  132SOL    HW1  395   3.050   1.712   0.928  0.2160 -2.2637  1.8015
  132SOL    HW2  396   2.934   1.704   1.040  1.7419  0.0034 -0.7585
  133SOL     OW  397   0.533   0.683   1.633 -0.3609 -0.0587 -0.3203
  133SOL    HW1  398   0.605   0.663   1.563  2.5736 -0.6023 -1.3350
  133SOL    HW2  399   0.585   0.695   1.723 -0.7451  1.0474  0.5154
  134SOL     OW  400   2.530   1.560   0.144  0.2873  0.0237  0.8696
  134SOL    HW1  401   2.443   1.561   0.205 -3.6241 -0.8181  0.8221
  134SOL    HW2  402   2.513   1.591   0.046  0.0105 -2.3159 -1.6953
  135SOL     OW  403   1.793   0.968   2.695  0.2882 -0.4753 -0.4567
  135SOL    HW1  404   1.834   0.871   2.687  2.1418  1.3447  0.1865
  135SOL    HW2  405   1.712   0.975   2.630 -2.5484 -0.5132 -1.0551
  136SOL     OW  406   2.714   1.621   1.463  0.2413  0.6399  0.2603
  136SOL    HW1  407   2.662   1.580   1.391  0.9098 -2.5122  3.1552
  136SOL    HW2  408   2.650   1.663   1.528 -0.6913 -1.2034 -1.4971
  137SOL     OW  409   2.338   1.760   0.633  0.5677 -0.0695 -0.5991
  137SOL    HW1  410   2.359   1.684   0.702 -1.7809 -0.5262  0.6618
  137SOL    HW2  411   2.414   1.829   0.628  4.0473 -1.7046 -1.1262
  138SOL     OW  412   2.944   0.780   0.672  0.0001  0.1125 -0.3758
  138SOL    HW1  413   2.860   0.773   0.611  0.3702  0.0518 -0.6297
  138SOL    HW2  414   2.974   0.687   0.712  0.7061 -1.1373  0.9380
  139SOL     OW  415   3.052   3.038   0.238  0.2138 -0.1693 -0.5598
  139SOL    HW1  416   2.951   3.031   0.236  0.1621  0.3873 -1.9620
  139SOL    HW2  417   3.089   3.070   0.330  1.9481 -0.0190  0.4993
  140SOL     OW  418   0.914   1.160   1.432  0.6072  0.7134  0.4731
  140SOL    HW1  419   0.855   1.211   1.493  0.3692  1.4703  0.5639
  140SOL    HW2  420   0.872   1.068   1.401 -1.9690  1.2111 -1.3138
  141SOL     OW  421   1.362   1.507   0.953  0.6421  0.2251  0.2663
  141SOL    HW1  422   1.407   1.601   0.962  3.8188  0.2176  0.3843
  141SOL    HW2  423   1.259   1.521   0.948 -1.5526  1.5590 -1.3517
  142SOL     OW  424   1.103   0.526   1.154  0.0446  0.2170  0.6278
  142SOL    HW1  425   1.161   0.538   1.236 -1.2841 -0.7974 -1.4531
  142SOL    HW2  426   1.025   0.587   1.153  0.9066  0.8743 -0.2969
  143SOL     OW  427   0.342   0.999   2.393 -0.8305  0.4327  0.4015
  143SOL    HW1  428   0.361   0.974   2.490 -1.0761  0.0310  3.2678
  143SOL    HW2  429   0.421   1.033   2.343 -2.1214 -1.1644  0.6607
  144SOL     OW  430   2.384   2.989   0.566  0.1297  0.1224 -0.2632
  144SOL    HW1  431   2.423   2.900   0.600 -2.8853  2.8973  2.1820
  144SOL    HW2  432   2.380   3.053   0.642  2.3859 -2.2438 -2.3531
  145SOL     OW  433   2.262   0.073   2.818  0.3482  0.1097 -0.0857
  145SOL    HW1  434   2.326   0.026   2.879  1.3467  0.8568 -1.9620
  145SOL    HW2  435   2.203   0.135   2.874 -1.9390  0.2000  0.3998
  146SOL     OW  436   2.915   2.953   0.621 -0.0780 -0.2266  0.2398
  146SOL    HW1  437   2.917   2.852   0.629 -1.6571 -0.6269  0.5649
  146SOL    HW2  438   2.920   2.995   0.711  2.5702  0.6545 -1.4057
  147SOL     OW  439   0.960   1.107   2.529 -0.2552 -0.4377 -0.8756
  147SOL    HW1  440   0.924   1.130   2.437  1.1267 -0.5976  0.6952
  147SOL    HW2  441   1.042   1.050   2.521  1.0288 -0.5415 -0.0762
  148SOL     OW  442   1.384   0.102   2.997 -0.2490 -0.2222  0.0468
  148SOL    HW1  443   1.376   0.053   3.083 -0.7993  2.1463 -0.4283
  148SOL    HW2  444   1.354   0.202   3.010  2.4336  3.1852  3.1211
  149SOL     OW  445   1.410   0.101   2.021  0.0604  0.2898 -0.1491
  149SOL    HW1  446   1.332   0.112   2.084 -2.1815 -2.3536  5.4629
  149SOL    HW2  447   1.385   0.170   1.947 -0.1438 -0.3904 -1.2328
  150SOL     OW  448   2.084   2.866   3.001 -0.1895  0.0519  0.4286
  150SOL    HW1  449   2.143   2.786   2.998  0.6840 -2.3469  1.0237
  150SOL    HW2  450   1.989   2.840   3.025  2.4406 -1.4673  0.1409
  151SOL     OW  451   0.603   1.677   3.091  0.9185  0.1115 -0.2006
  151SOL    HW1  452   0.511   1.703   3.048  0.0927 -1.3664 -1.6694
  151SOL    HW2  453   0.616   1.574   3.089 -0.4227 -2.3605  1.8554
  152SOL     OW  454   0.296   0.014   1.251 -0.2998 -0.1058 -0.0245
  152SOL    HW1  455   0.208   3.069   1.279  1.4039  3.4082 -3.1025
  152SOL    HW2  456   0.374   0.002   1.314  2.9392  2.5750 -0.4187
  153SOL     OW  457   2.485   2.728   1.882  0.2544 -0.1440 -0.3510
  153SOL    HW1  458   2.581   2.719   1.901 -3.4519 -1.1203 -1.9746
  153SOL    HW2  459   2.442   2.805   1.929 -0.7684 -4.0558 -0.4250
  154SOL     OW  460   2.310   2.858   2.578  0.3011 -0.4633  0.0906
  154SOL    HW1  461   2.405   2.885   2.599  0.0483  0.4321 -0.9904
  154SOL    HW2  462   2.298   2.758   2.603  0.0712 -1.8819  0.6968
  155SOL     OW  463   0.353   1.355   0.678 -0.0519  0.2597 -0.0266
  155SOL    HW1  464   0.277   1.415   0.652  0.2526  1.3608  2.6098
  155SOL    HW2  465   0.430   1.405   0.721 -2.4452 -1.0554 -1.2600
  156SOL     OW  466   2.841   1.552   0.737 -0.5235 -0.3484 -0.8738
  156SOL    HW1  467   2.897   1.563   0.824  0.7016  1.1918  2.5246
  156SOL    HW2  468   2.781   1.633   0.738  1.5335  2.2260 -0.2671
  157SOL     OW  469   0.860   0.556   0.371  0.0674 -0.3382  0.2624
  157SOL    HW1  470   0.785   0.597   0.429 -0.4473 -1.2695 -1.7906
  157SOL    HW2  471   0.943   0.536   0.426  0.3783  1.6190 -2.0298
  158SOL     OW  472   1.735   1.034   1.018  0.1713  0.4951  0.0275
  158SOL    HW1  473   1.669   0.991   0.953  0.8578  2.7808  1.0569
  158SOL    HW2  474   1.710   1.133   1.023 -2.1109 -0.2207  1.0098
  159SOL     OW  475   3.061   0.582   0.175  0.3996  0.1747 -0.3059
  159SOL    HW1  476   0.034   0.658   0.174 -0.1118  0.8607 -2.9943
  159SOL    HW2  477   0.001   0.510   0.112 -1.2753 -0.9732 -3.9328
  160SOL     OW  478   2.116   2.086   1.935 -0.2334 -0.2462  0.3459
  160SOL    HW1  479   2.052   2.051   2.007 -1.4093 -3.7018  2.5268
  160SOL    HW2  480   2.163   2.173   1.964 -1.2298 -0.1725 -0.1072
  161SOL     OW  481   0.374   0.954   2.862  0.1313 -0.1694  0.2881
  161SOL    HW1  482   0.395   0.975   2.767 -0.5150 -0.3646  0.3437
  161SOL    HW2  483   0.442   0.889   2.898 -2.7197  1.9325 -1.6156
  162SOL     OW  484   0.682   0.270   2.168 -0.5090  0.6781  0.2448
  162SOL    HW1  485   0.751   0.229   2.104 -1.9462  0.4042  0.4705
  162SOL    HW2  486   0.606   0.291   2.103 -1.3269 -0.2220  0.0488
  163SOL     OW  487   2.751   2.930   2.699  0.0542 -0.3974  0.0530
  163SOL    HW1  488   2.670   2.993   2.703 -2.0251  0.8254  0.6815
  163SOL    HW2  489   2.799   2.949   2.611  1.5696  0.9780 -0.3960
  164SOL     OW  490   2.061   2.079   0.419 -0.4702  0.9301 -0.0309
  164SOL    HW1  491   1.973   2.120   0.388 -2.4738 -0.5021 -1.1929
  164SOL    HW2  492   2.142   2.141   0.407  1.4400  1.9238  0.5171
  165SOL     OW  493   0.462   0.235   1.125 -0.1406  0.4576  0.8563
  165SOL    HW1  494   0.508   0.240   1.033  0.0981  0.2135  1.9375
  165SOL    HW2  495   0.422   0.142   1.150  1.3194 -1.0588 -1.5038
  166SOL     OW  496   2.464   0.467   0.307 -0.1417 -0.1586  0.3614
  166SOL    HW1  497   2.530   0.389   0.311  0.1383  1.5040  2.5427
  166SOL    HW2  498   2.383   0.447   0.363 -1.1070  0.6221 -1.4206
  167SOL     OW  499   2.350   0.874   0.226  0.5510 -0.0816 -0.2291
  167SOL    HW1  500   2.413   0.797   0.203 -1.6817  1.8009 -0.4161
  167SOL    HW2  501   2.336   0.925   0.140 -2.2503 -1.3660 -0.8915
  168SOL     OW  502   1.457   2.860   2.401  0.8006 -0.2803 -0.2179
  168SOL    HW1  503   1.373   2.805   2.402  4.3431 -1.8650 -0.6244
  168SOL    HW2  504   1.529   2.788   2.426 -1.2800  0.6967  1.7106
  169SOL     OW  505   0.610   2.019   0.619  0.0539  0.7154  0.5018
  169SOL    HW1  506   0.660   2.098   0.582  0.6232  0.3581 -1.8861
  169SOL    HW2  507   0.667   1.970   0.689 -1.2866  2.0771 -1.3617
  170SOL     OW  508   3.029   0.919   1.474 -0.5028 -0.0838  0.5646
  170SOL    HW1  509   0.011   0.975   1.439 -1.1601 -1.1115  0.3772
  170SOL    HW2  510   3.026   0.833   1.411  2.5522 -0.3111 -1.2611
  171SOL     OW  511   2.633   1.356   2.416  0.0666  0.2221  0.2264
  171SOL    HW1  512   2.675   1.315   2.500 -0.2019  2.5126  1.4118
  171SOL    HW2  513   2.695   1.351   2.337  0.1554 -1.1734  1.3786
  172SOL     OW  514   0.861   1.845   1.257 -0.4503  0.1992 -0.4583
  172SOL    HW1  515   0.902   1.897   1.336 -0.9513  0.1023 -0.1186
  172SOL    HW2  516   0.914   1.764   1.223  1.1489 -0.0199 -1.1233
  173SOL     OW  517   1.925   1.933   0.102 -0.6022  0.2387 -0.6049
  173SOL    HW1  518   1.834   1.923   0.141  3.2271  1.3109  0.7239
  173SOL    HW2  519   1.981   1.854   0.138  0.2206 -1.5730 -0.8968
  174SOL     OW  520   1.898   0.733   2.649 -0.5084 -0.3192 -0.3593
  174SOL    HW1  521   1.958   0.715   2.569 -0.2778  2.3087 -0.0806
  174SOL    HW2  522   1.938   0.689   2.732 -1.3548  1.7791  2.1223
  175SOL     OW  523   1.093   1.636   1.165 -0.1362 -0.1349 -0.3673
  175SOL    HW1  524   1.102   1.536   1.174  0.8310  0.2417 -2.7399
  175SOL    HW2  525   1.112   1.686   1.252 -0.4921 -0.6849 -0.2571
  176SOL     OW  526   1.108   0.199   0.082 -0.3492  0.1628 -0.0151
  176SOL    HW1  527   1.043   0.247   0.144 -0.2568  1.3452 -1.5280
  176SOL    HW2  528   1.136   0.269   0.010 -2.1032 -1.2903  0.1637
  177SOL     OW  529   0.271   1.622   0.307 -0.9917  0.4030 -0.1796
  177SOL    HW1  530   0.264   1.666   0.397 -0.6398  2.2806 -1.2909
  177SOL    HW2  531   0.362   1.580   0.291  0.1725  3.0112 -3.3475
  178SOL     OW  532   3.029   2.430   2.534 -0.0541  0.3943 -0.2458
  178SOL    HW1  533   3.043   2.485   2.618  0.1828  0.1187 -2.1684
  178SOL    HW2  534   0.020   2.393   2.494  0.4148  1.3796  0.5696
  179SOL     OW  535   2.653   2.690   2.634  0.0057  0.0774 -0.3465
  179SOL    HW1  536   2.657   2.695   2.534 -0.0258  1.2379 -1.4800
  179SOL    HW2  537   2.710   2.760   2.676  0.7269 -0.0352 -2.0822
  180SOL     OW  538   2.374   0.543   1.021 -0.0241  0.0620 -0.3341
  180SOL    HW1  539   2.287   0.592   0.999 -0.6748 -0.9891 -0.4453
  180SOL    HW2  540   2.434   0.545   0.940 -3.3465 -0.8742  0.0936
  181SOL     OW  541   2.478   0.338   2.476  0.2313 -0.3421  0.0692
  181SOL    HW1  542   2.563   0.294   2.510  2.7021  2.4531 -2.4385
  181SOL    HW2  543   2.394   0.291   2.514 -1.3330  1.5418 -0.0958
  182SOL     OW  544   2.520   2.287   2.416 -0.6191 -0.1233  1.1530
  182SOL    HW1  545   2.460   2.320   2.492 -2.1568 -1.1473 -1.7096
  182SOL    HW2  546   2.502   2.342   2.329  1.7723  1.2526  2.7093
  183SOL     OW  547   2.179   0.666   1.911  0.4957  0.3113  0.0125
  183SOL    HW1  548   2.246   0.646   1.839  3.3126  0.7960 -0.2266
  183SOL    HW2  549   2.110   0.735   1.879 -0.2494 -0.0338 -0.1765
  184SOL     OW  550   0.424   1.676   0.989 -0.2737 -0.0250 -0.2620
  184SOL    HW1  551   0.495   1.609   1.021  0.1076 -2.6553 -0.3006
  184SOL    HW2  552   0.337   1.629   0.953 -1.9808 -1.4019  1.8979
  185SOL     OW  553   2.917   0.193   0.649 -0.1746  0.2117 -0.2134
  185SOL    HW1  554   3.016   0.177   0.630  0.7045 -0.3666  0.1572
  185SOL    HW2  555   2.853   0.145   0.583  1.9992 -4.2350 -0.6240
  186SOL     OW  556   2.307   2.380   2.572  0.2723  0.6607  0.8684
  186SOL    HW1  557   2.241   2.319   2.626 -2.7561  1.7563  0.9996
  186SOL    HW2  558   2.259   2.432   2.498  0.7679 -1.5053  0.4968
  187SOL     OW  559   0.544   1.711   0.721  0.0624 -0.3619 -0.2704
  187SOL    HW1  560   0.475   1.733   0.794  0.0853  0.7579  4.0369
  187SOL    HW2  561   0.622   1.768   0.757  1.5730  0.7460  2.8409
  188SOL     OW  562   2.000   1.537   0.764  0.5403  0.4017  0.3387
  188SOL    HW1  563   1.984   1.534   0.664  0.6698  0.6432  2.3023
  188SOL    HW2  564   1.972   1.622   0.806  1.1375 -2.1015 -3.6020
  189SOL     OW  565   2.857   1.517   2.949 -0.2958 -0.0169 -0.3173
  189SOL    HW1  566   2.947   1.490   2.911 -0.0227  1.7419 -1.2123
  189SOL    HW2  567   2.785   1.451   2.924  2.1535  1.4828  1.7812
  190SOL     OW  568   2.370   0.283   2.220 -0.4122  0.1834 -0.0946
  190SOL    HW1  569   2.409   0.303   2.312  0.7727 -1.2184  1.7802
  190SOL    HW2  570   2.272   0.310   2.216 -0.8150 -0.1732 -1.0471
  191SOL     OW  571   1.099   0.387   2.261  0.1925  0.0205  0.1364
  191SOL    HW1  572   1.142   0.298   2.239  0.2755  2.0119 -2.5433
  191SOL    HW2  573   1.042   0.379   2.345  1.0246 -1.0179 -1.0037
  192SOL     OW  574   1.150   1.640   1.783 -0.6787 -0.5796  0.0148
  192SOL    HW1  575   1.091   1.587   1.724  0.9967  1.1662  2.2489
  192SOL    HW2  576   1.125   1.736   1.784 -1.9586 -1.4499  2.2613
  193SOL     OW  577   1.004   2.970   0.783  0.0264 -0.2216 -0.0253
  193SOL    HW1  578   1.060   2.976   0.869  1.8949  1.3681  2.3621
  193SOL    HW2  579   0.983   2.873   0.759 -0.8346  3.3778  1.9170
  194SOL     OW  580   0.886   1.686   2.162  0.3257 -0.6888 -0.3333
  194SOL    HW1  581   0.931   1.744   2.237  1.5975  1.1415  0.1874
  194SOL    HW2  582   0.874   1.743   2.084 -1.8107 -4.4052  0.0245
  195SOL     OW  583   2.235   0.404   0.477 -0.0191  0.2385 -1.0366
  195SOL    HW1  584   2.168   0.396   0.399 -2.6897 -0.5433 -0.7296
  195SOL    HW2  585   2.202   0.456   0.557 -1.2031  0.6722  0.1036
  196SOL     OW  586   1.180   1.434   2.210  0.1722 -0.7181  0.2388
  196SOL    HW1  587   1.202   1.513   2.272  0.4406 -3.1827 -2.2453
  196SOL    HW2  588   1.094   1.451   2.157 -0.6721 -1.9440  1.2399
  197SOL     OW  589   0.065   0.398   1.961  0.3309  0.3326  0.3952
  197SOL    HW1  590   0.129   0.322   1.935  0.2815  2.7703  0.1977
  197SOL    HW2  591   0.095   0.489   1.918  1.9040  0.5495 -0.5900
  198SOL     OW  592   0.436   1.096   0.911 -0.2489 -0.4897 -0.4437
  198SOL    HW1  593   0.398   1.023   0.846  1.5487 -1.1150 -2.8001
  198SOL    HW2  594   0.418   1.191   0.880  3.1982  0.7223  0.7049
  199SOL     OW  595   0.209   2.453   1.000  0.0343 -0.2384 -0.2283
  199SOL    HW1  596   0.230   2.472   0.902  1.0555 -0.8392 -0.0176
  199SOL    HW2  597   0.257   2.527   1.051 -0.7989 -0.9323 -1.4217
  200SOL     OW  598   1.829   1.648   2.686  0.1803  0.1040  0.1538
  200SOL    HW1  599   1.896   1.718   2.716 -0.7534  0.1836  0.0897
  200SOL    HW2  600   1.803   1.587   2.764 -3.8309 -0.7229  2.7450
  201SOL     OW  601   0.476   2.383   1.736 -0.3845 -0.0193  0.7620
  201SOL    HW1  602   0.496   2.411   1.640 -0.3525  3.1632  0.0241
  201SOL    HW2  603   0.470   2.281   1.739 -2.3576 -1.2574  0.5808
  202SOL     OW  604   0.996   3.034   2.830  0.1818  0.1103  0.7304
  202SOL    HW1  605   0.897   3.045   2.808  0.7712  0.0047 -1.9795
  202SOL    HW2  606   1.057   3.069   2.755 -1.0554  0.0796 -0.8485
  203SOL     OW  607   1.511   0.362   2.242 -0.3856  0.2187 -0.0645
  203SOL    HW1  608   1.483   0.355   2.143 -1.3208 -1.0837 -0.4566
  203SOL    HW2  609   1.603   0.399   2.250  0.0281  2.0268 -2.8446
  204SOL     OW  610   0.813   0.904   1.439 -0.2299 -0.1109 -0.0523
  204SOL    HW1  611   0.863   0.817   1.447  0.6756  1.8714 -1.1082
  204SOL    HW2  612   0.733   0.896   1.380 -0.4388 -2.2582  0.5007
  205SOL     OW  613   2.049   1.019   2.648  0.2180 -0.0738 -0.4630
  205SOL    HW1  614   1.954   0.997   2.673  1.5503 -2.0491 -1.3858
  205SOL    HW2  615   2.061   1.006   2.546  1.3817 -1.3117 -1.3397
  206SOL     OW  616   0.545   2.072   3.072  0.4184 -0.1650 -0.4797
  206SOL    HW1  617   0.483   2.016   0.035  1.2457 -0.4040 -0.3275
  206SOL    HW2  618   0.567   2.018   2.990  0.3815  1.4001  0.3636
  207SOL     OW  619   0.480   0.348   1.991 -0.0404 -0.5586 -0.2364
  207SOL    HW1  620   0.477   0.444   2.036 -1.4578  3.4608  0.2336
  207SOL    HW2  621   0.500   0.348   1.896  0.1686  0.3633  0.5353
  208SOL     OW  622   0.588   2.516   1.500  0.0566 -0.0638  0.0542
  208SOL    HW1  623   0.494   2.523   1.459  0.3880  0.3557 -1.9322
  208SOL    HW2  624   0.642   2.459   1.431 -0.1839 -0.7189 -1.7465
  209SOL     OW  625   1.236   2.671   0.017 -0.0155  0.7042  0.2482
  209SOL    HW1  626   1.185   2.649   0.104 -1.2253  2.3110 -1.5668
  209SOL    HW2  627   1.181   2.728   3.050  0.6736 -0.9259 -1.0957
  210SOL     OW  628   2.750   1.370   1.649  0.2516  0.6290  0.2448
  210SOL    HW1  629   2.811   1.421   1.707 -3.8499 -0.2490 -2.0023
  210SOL    HW2  630   2.656   1.381   1.692 -0.3578  1.4415 -1.6799
  211SOL     OW  631   1.368   0.176   1.648  0.2728 -0.0772  0.4192
  211SOL    HW1  632   1.385   0.230   1.735 -0.5430  0.3124  1.7760
  211SOL    HW2  633   1.427   0.213   1.577  0.6784  0.6133  0.4172
  212SOL     OW  634   1.096   2.159   1.650  0.0371 -0.0118  0.3281
  212SOL    HW1  635   1.003   2.197   1.638 -1.9316  0.3025  0.3669
  212SOL    HW2  636   1.170   2.233   1.644  4.3393  2.1044  0.4430
  213SOL     OW  637   2.592   0.282   2.067 -0.2594 -0.0040  0.1048
  213SOL    HW1  638   2.594   0.363   2.002  0.2553 -1.5885  2.4463
  213SOL    HW2  639   2.510   0.281   2.121  2.2123 -0.9014  0.9706
  214SOL     OW  640   0.847   1.825   1.921  0.0662 -0.0525 -0.5953
  214SOL    HW1  641   0.941   1.816   1.887 -0.0791  0.9545  0.8022
  214SOL    HW2  642   0.822   1.928   1.929  0.6656  6.0785  1.0750
  215SOL     OW  643   2.874   1.824   1.156  0.0949 -0.4256  0.6987
  215SOL    HW1  644   2.917   1.825   1.247 -1.8800 -0.2879  1.1100
  215SOL    HW2  645   2.825   1.913   1.142 -1.4331  0.2133 -1.0138
  216SOL     OW  646   3.021   0.699   1.302  0.9843 -0.3014  0.2801
  216SOL    HW1  647   2.937   0.660   1.269 -0.3189  1.0908  2.8291
  216SOL    HW2  648   3.087   0.625   1.318 -0.2869  1.4863 -1.0709
  217SOL     OW  649   2.594   0.132   1.330  0.2836 -0.0942 -0.3707
  217SOL    HW1  650   2.561   0.138   1.237  0.8747  0.3300  1.3242
  217SOL    HW2  651   2.683   0.078   1.326 -0.5999  2.2237 -1.6112
  218SOL     OW  652   1.407   2.168   1.137  0.4787  0.2891 -0.2496
  218SOL    HW1  653   1.481   2.103   1.156 -0.1352 -1.3454  1.6499
  218SOL    HW2  654   1.403   2.186   1.035  1.3051 -0.1458  0.3684
  219SOL     OW  655   1.819   2.207   0.370  0.1915 -0.0513 -0.4049
  219SOL    HW1  656   1.852   2.247   0.459  0.7631  3.9968  2.4988
  219SOL    HW2  657   1.810   2.283   0.302  3.8102 -0.5170  2.7504
  220SOL     OW  658   1.746   2.459   0.245 -0.0279  0.5566 -0.0779
  220SOL    HW1  659   1.688   2.543   0.229 -1.9101 -0.0732 -2.1135
  220SOL    HW2  660   1.827   2.475   0.303 -0.6660 -0.7901  1.5440
  221SOL     OW  661   2.995   2.237   0.955 -0.1607  0.3264 -0.3736
  221SOL    HW1  662   3.086   2.197   0.972 -0.8006  1.7718 -1.3548
  221SOL    HW2  663   2.918   2.172   0.932 -1.3042 -0.5412 -0.6641
  222SOL     OW  664   1.722   2.443   0.774  0.6378  0.9259  0.0456
  222SOL    HW1  665   1.681   2.476   0.865  1.1125 -1.1677 -2.3692
  222SOL    HW2  666   1.649   2.464   0.707 -0.0092  0.2027 -0.0528
  223SOL     OW  667   0.759   2.767   2.342  0.1057  0.4547  0.0950
  223SOL    HW1  668   0.750   2.840   2.276  1.3904 -0.6101 -1.7959
  223SOL    HW2  669   0.731   2.673   2.310 -0.4844  0.8606 -0.9251
  224SOL     OW  670   3.067   1.824   1.348  0.1048  0.2849 -0.2408
  224SOL    HW1  671   3.035   1.735   1.392 -2.2951 -2.1251  0.3505
  224SOL    HW2  672   0.048   1.869   1.398 -1.2696  1.4488 -0.4539
  225SOL     OW  673   2.234   1.668   0.938 -0.2193  0.0238 -0.0068
  225SOL    HW1  674   2.282   1.588   0.894 -1.0266  1.5721  0.6210
  225SOL    HW2  675   2.140   1.677   0.898 -1.5416 -2.2061 -0.7821
  226SOL     OW  676   1.391   2.554   0.361  0.4430 -0.4812  0.0083
  226SOL    HW1  677   1.464   2.592   0.296  0.8453  1.7945 -3.6258
  226SOL    HW2  678   1.301   2.546   0.313  0.3924 -0.7430  0.6031
  227SOL     OW  679   1.769   0.941   1.285 -0.1974 -0.2226  0.0910
  227SOL    HW1  680   1.671   0.966   1.302  2.0224  3.1138  1.2106
  227SOL    HW2  681   1.790   0.982   1.193  0.7278  0.8949  2.7162
  228SOL     OW  682   1.456   0.630   1.929  0.1145  0.0991  0.2018
  228SOL    HW1  683   1.520   0.706   1.953 -3.3885  0.5460 -0.4287
  228SOL    HW2  684   1.399   0.660   1.847  2.4805 -2.8505  0.2678
  229SOL     OW  685   2.789   0.747   2.779 -0.1612  0.1526 -0.1851
  229SOL    HW1  686   2.786   0.661   2.833 -2.0109 -0.2861 -1.3636
  229SOL    HW2  687   2.864   0.808   2.808  1.4713  0.4782 -0.8925
  230SOL     OW  688   0.978   1.264   0.983  0.1003  0.2584 -0.3509
  230SOL    HW1  689   1.063   1.209   0.993 -1.1567  0.4712 -0.0502
  230SOL    HW2  690   0.973   1.311   1.075  1.5546 -0.6605  0.7782
  231SOL     OW  691   2.567   2.940   2.063 -0.1083  0.5074 -0.2971
  231SOL    HW1  692   2.627   2.983   1.992 -1.4923 -0.4250  3.7181
  231SOL    HW2  693   2.496   3.007   2.094  1.3208 -0.8713 -2.1227
  232SOL     OW  694   0.454   2.145   0.360 -0.0235  0.0900 -0.0114
  232SOL    HW1  695   0.417   2.076   0.428 -1.2214 -0.0876 -1.7437
  232SOL    HW2  696   0.532   2.204   0.393 -1.5527 -0.8912 -1.5936
  233SOL     OW  697   1.130   2.315   2.527  0.1552 -0.3018  0.1910
  233SOL    HW1  698   1.223   2.268   2.532  1.7183  1.3976  2.3620
  233SOL    HW2  699   1.134   2.409   2.563 -1.9888  1.1464  1.5579
  234SOL     OW  700   0.824   1.429   1.764  1.1254  0.4989  0.2595
  234SOL    HW1  701   0.884   1.421   1.845 -0.8090  0.8811 -1.5460
  234SOL    HW2  702   0.864   1.472   1.682  2.0819 -0.4811  1.0895
  235SOL     OW  703   0.636   1.629   1.823 -0.0696 -0.5175 -0.4710
  235SOL    HW1  704   0.688   1.543   1.791  0.5492 -1.6755 -2.4890
  235SOL    HW2  705   0.701   1.708   1.843  1.1699  3.3711  1.8349
  236SOL     OW  706   1.583   2.615   2.452  0.5415  0.2273  0.5785
  236SOL    HW1  707   1.544   2.537   2.399  0.5369 -3.1413  1.6236
  236SOL    HW2  708   1.680   2.621   2.423 -0.3981 -0.3426  0.7234
  237SOL     OW  709   1.322   0.063   0.412  0.3821 -0.4327  0.0553
  237SOL    HW1  710   1.256   0.135   0.443 -0.4377 -2.0880  1.3599
  237SOL    HW2  711   1.348   3.096   0.486 -1.5247 -2.6556 -0.0236
  238SOL     OW  712   1.174   0.692   2.755 -0.1640 -0.0107  0.3054
  238SOL    HW1  713   1.269   0.725   2.780 -1.3240  2.2567  1.1516
  238SOL    HW2  714   1.131   0.672   2.843  0.9527  3.0878 -0.3360
  239SOL     OW  715   0.405   0.655   2.056 -0.6903  0.1486  0.0460
  239SOL    HW1  716   0.501   0.662   2.094 -0.6868  2.6773  0.9965
  239SOL    HW2  717   0.335   0.696   2.116  0.0444 -0.4807 -3.2630
  240SOL     OW  718   2.249   2.513   0.751  0.2263  0.4869  0.0802
  240SOL    HW1  719   2.218   2.598   0.701  1.4209  1.0136 -0.4784
  240SOL    HW2  720   2.316   2.536   0.822  1.3931 -0.9499 -1.4363
  241SOL     OW  721   1.385   1.173   1.447 -0.0592  0.1639  0.4434
  241SOL    HW1  722   1.308   1.241   1.458  0.6334  0.5078  1.1569
  241SOL    HW2  723   1.458   1.188   1.520  1.3115 -2.4442 -1.1211
  242SOL     OW  724   0.323   0.923   0.732  0.1671  0.2249 -0.0867
  242SOL    HW1  725   0.219   0.920   0.726 -1.6467  0.9445  0.3772
  242SOL    HW2  726   0.346   0.980   0.651  2.7631 -1.1709 -0.5061
  243SOL     OW  727   0.443   0.649   1.329  0.0107 -0.1810  0.2157
  243SOL    HW1  728   0.397   0.650   1.418 -0.6775  2.6018  2.0964
  243SOL    HW2  729   0.496   0.564   1.308 -2.2983  0.4594  2.7860
  244SOL     OW  730   1.062   0.679   2.991 -0.3061 -0.1705 -0.0406
  244SOL    HW1  731   0.993   0.748   3.018  1.3094 -2.3799  1.6757
  244SOL    HW2  732   1.024   0.582   3.003  0.5701 -0.0612  2.3981
  245SOL     OW  733   2.018   0.877   0.034  0.7761  0.0390  0.1562
  245SOL    HW1  734   2.064   0.931   3.059 -2.3607 -0.1272 -0.7540
  245SOL    HW2  735   2.012   0.923   0.125  0.0506  0.5254  0.8300
  246SOL     OW  736   2.987   0.940   2.026  0.0704 -0.1064 -0.4227
  246SOL    HW1  737   2.898   0.985   2.020  1.9780 -1.6491 -1.7780
  246SOL    HW2  738   3.061   1.006   2.040 -0.7828  2.8029 -0.2539
  247SOL     OW  739   0.436   3.074   2.032  0.8420 -0.1739 -0.2518
  247SOL    HW1  740   0.359   3.018   1.992 -0.1087 -0.4045 -1.6498
  247SOL    HW2  741   0.505   0.005   1.961  1.4465 -1.6126  1.0426
  248SOL     OW  742   0.523   1.468   2.248 -0.2580  0.6043  0.5554
  248SOL    HW1  743   0.487   1.558   2.214 -0.9913 -0.1870 -0.7063
  248SOL    HW2  744   0.502   1.395   2.182 -1.0083  0.0116  0.1374
  249SOL     OW  745   0.225   0.285   2.846 -0.0404 -0.0558  0.1085
  249SOL    HW1  746   0.197   0.306   2.751 -2.0295  0.4820  0.4065
  249SOL    HW2  747   0.172   0.344   2.913 -2.7964  0.1493  3.1133
  250SOL     OW  748   2.994   0.089   2.760 -0.0455 -0.3134  0.2279
  250SOL    HW1  749   3.058   0.007   2.759  3.2047  1.1971  0.4497
  250SOL    HW2  750   2.943   0.110   2.679  0.3286 -1.4386 -1.0814
  251SOL     OW  751   0.227   1.661   0.781 -0.1071  0.1551  0.1600
  251SOL    HW1  752   0.171   1.590   0.738  1.1280  0.2903  1.9842
  251SOL    HW2  753   0.172   1.734   0.827 -0.3784  0.7079  1.3024
  252SOL     OW  754   1.633   2.565   1.982  0.4462 -0.0401 -0.0025
  252SOL    HW1  755   1.705   2.630   1.952  0.9963 -1.3138 -1.0182
  252SOL    HW2  756   1.667   2.518   2.066 -1.7076 -0.5263  1.9829
  253SOL     OW  757   1.676   1.946   2.686  0.1457 -0.1278  0.3978
  253SOL    HW1  758   1.726   1.860   2.653  2.6173 -1.3180 -0.1501
  253SOL    HW2  759   1.596   1.934   2.747  1.2252  0.2962  0.7884
  254SOL     OW  760   0.371   1.555   1.859 -0.1869 -0.4167 -1.0975
  254SOL    HW1  761   0.352   1.493   1.786  0.6050 -0.3364  0.0063
  254SOL    HW2  762   0.471   1.582   1.857  1.1161 -2.2137  2.3582
  255SOL     OW  763   0.914   3.046   1.532 -0.0809  0.0876  0.0255
  255SOL    HW1  764   0.991   2.993   1.491 -0.0104  0.8540 -3.0385
  255SOL    HW2  765   0.902   3.028   1.631 -1.3950 -0.6553  2.5338
  256SOL     OW  766   2.920   2.461   1.152  0.0977  0.0092  0.2094
  256SOL    HW1  767   2.957   2.417   1.234 -0.1168 -1.1966 -1.8288
  256SOL    HW2  768   2.937   2.415   1.068 -0.7981  0.5747 -0.0763
  257SOL     OW  769   0.173   2.804   3.073  0.0411 -0.3006 -0.5656
  257SOL    HW1  770   0.218   2.882   0.019 -2.2935 -0.8303 -0.9786
  257SOL    HW2  771   0.073   2.821   3.078 -0.8997 -3.0315  2.3094
  258SOL     OW  772   1.005   2.399   1.857  0.1783 -0.3839 -0.4321
  258SOL    HW1  773   1.018   2.318   1.916  1.8649 -1.3683  2.0123
  258SOL    HW2  774   1.092   2.427   1.822 -3.4721 -0.1973  1.0304
  259SOL     OW  775   0.941   1.760   2.657 -0.5016  0.3302 -0.1357
  259SOL    HW1  776   1.031   1.800   2.690 -0.6732 -2.1152 -1.0847
  259SOL    HW2  777   0.869   1.777   2.731  0.8821  1.3287 -3.0068
  260SOL     OW  778   2.334   0.737   2.354  0.1516  0.1721 -0.2805
  260SOL    HW1  779   2.355   0.689   2.442 -1.1388 -2.3105 -3.0009
  260SOL    HW2  780   2.298   0.662   2.293  1.3279 -0.5621 -1.4360
  261SOL     OW  781   1.435   0.734   0.966  0.5428  0.6227  0.5011
  261SOL    HW1  782   1.395   0.688   0.882 -0.1500 -0.8608  1.9689
  261SOL    HW2  783   1.502   0.811   0.940 -0.8745 -0.1329 -0.2392
  262SOL     OW  784   2.108   2.187   2.685 -0.3110 -0.0589  0.0222
  262SOL    HW1  785   2.134   2.097   2.718  0.3223  1.0565 -0.9372
  262SOL    HW2  786   2.014   2.190   2.643  0.3644 -1.0245  3.6065
  263SOL     OW  787   0.500   2.308   0.659 -0.2127  0.5799  0.4710
  263SOL    HW1  788   0.463   2.400   0.672 -0.8036 -3.7803  0.0896
  263SOL    HW2  789   0.552   2.308   0.569  3.3470 -0.1248 -2.4943
  264SOL     OW  790   0.052   2.380   0.515 -0.0789  0.0004  0.5802
  264SOL    HW1  791   0.047   2.276   0.509  2.1439 -2.6114  1.4763
  264SOL    HW2  792   0.030   2.426   0.426 -0.1190 -0.7742  0.8331
  265SOL     OW  793   0.630   1.405   0.001  0.0465 -0.2000  0.2867
  265SOL    HW1  794   0.591   1.362   3.013 -0.3537  0.6602 -2.6023
  265SOL    HW2  795   0.701   1.345   0.052  1.2127 -2.2692  1.3417
  266SOL     OW  796   0.723   2.008   2.512 -0.0616 -0.2076  0.0475
  266SOL    HW1  797   0.734   1.916   2.545  1.1638  2.6221 -4.5156
  266SOL    HW2  798   0.801   2.069   2.538 -1.1497  3.5245  1.8776
  267SOL     OW  799   1.741   0.749   2.331  0.2008  0.5017  0.1705
  267SOL    HW1  800   1.679   0.752   2.411  0.8617 -1.7671 -0.2103
  267SOL    HW2  801   1.842   0.765   2.348 -1.1968 -1.1728 -2.7239
  268SOL     OW  802   0.676   1.036   0.054 -0.4967  0.5487 -0.1832
  268SOL    HW1  803   0.717   1.122   0.093  1.3069  3.8915 -0.3082
  268SOL    HW2  804   0.606   0.998   0.121 -0.3113 -0.2398 -2.0332
  269SOL     OW  805   2.375   1.716   2.301  0.1939 -0.2513 -1.0162
  269SOL    HW1  806   2.455   1.691   2.354 -0.8872  0.3427  0.5867
  269SOL    HW2  807   2.396   1.774   2.218 -0.4088 -2.1602 -1.4589
  270SOL     OW  808   1.358   1.952   2.939 -0.1146 -0.4564  0.8731
  270SOL    HW1  809   1.387   2.040   2.982  1.7931 -0.1873  0.2736
  270SOL    HW2  810   1.415   1.874   2.964  0.2605 -1.2583 -0.8524
  271SOL     OW  811   0.101   0.459   3.042 -0.2213  0.4398  0.3810
  271SOL    HW1  812   0.108   0.551   2.997 -3.1941  0.1666 -1.9150
  271SOL    HW2  813   0.030   0.397   2.998 -0.6102 -1.2294 -1.4505
  272SOL     OW  814   2.827   0.496   0.546  0.1102 -0.1351 -0.3008
  272SOL    HW1  815   2.798   0.413   0.596  0.0210 -1.8089  4.7197
  272SOL    HW2  816   2.927   0.507   0.533 -1.0528 -1.8699  0.5420
  273SOL     OW  817   0.549   2.966   1.664 -0.5050 -0.5504  0.3792
  273SOL    HW1  818   0.602   3.016   1.737  0.2297  0.6421  2.7698
  273SOL    HW2  819   0.455   2.945   1.700  0.4889 -1.2848 -0.6503
  274SOL     OW  820   2.805   0.453   1.487 -0.2562  0.9202 -0.2154
  274SOL    HW1  821   2.861   0.497   1.560 -1.7957  0.5226 -1.8410
  274SOL    HW2  822   2.706   0.451   1.520 -0.4097  1.2459 -0.8527
  275SOL     OW  823   0.926   1.623   0.766  0.1679  0.5046 -0.1726
  275SOL    HW1  824   0.909   1.526   0.748  1.1678 -0.4322  0.0046
  275SOL    HW2  825   1.011   1.653   0.718 -0.6138  2.3708 -0.0025
  276SOL     OW  826   0.568   0.979   2.048 -0.0927  0.2086  0.1341
  276SOL    HW1  827   0.549   0.948   1.951  1.4124 -1.0556  0.8654
  276SOL    HW2  828   0.540   0.910   2.119  0.7720  0.9139  1.0982
  277SOL     OW  829   1.265   2.739   2.054 -0.1916  0.4409 -0.4605
  277SOL    HW1  830   1.359   2.770   2.076 -2.2742 -2.3699  0.4482
  277SOL    HW2  831   1.247   2.733   1.954 -1.4883 -0.7729 -0.3122
  278SOL     OW  832   1.916   3.046   1.839 -0.3643 -0.0863 -0.0708
  278SOL    HW1  833   1.991   3.012   1.780  0.8523  0.0564 -0.4009
  278SOL    HW2  834   1.835   3.065   1.783 -1.1258  0.6448 -0.0361
  279SOL     OW  835   1.693   1.434   0.113  0.0415  0.2489  0.2565
  279SOL    HW1  836   1.741   1.504   0.058  1.1705 -0.8863 -0.3870
  279SOL    HW2  837   1.598   1.465   0.123  1.9829 -2.9805  0.7492
  280SOL     OW  838   1.511   1.023   0.229  0.3672 -0.1512 -0.0222
  280SOL    HW1  839   1.429   1.048   0.285  1.4671  1.1125 -2.3328
  280SOL    HW2  840   1.587   0.983   0.286  0.7259 -1.6810  0.1754
  281SOL     OW  841   0.428   0.325   1.500 -0.0330  0.0570 -0.1148
  281SOL    HW1  842   0.489   0.377   1.442 -1.7774  1.2698  1.9779
  281SOL    HW2  843   0.391   0.386   1.572  3.9116 -1.0937 -1.6310
  282SOL     OW  844   0.146   2.706   0.628 -0.5687  0.3706 -0.1437
  282SOL    HW1  845   0.112   2.703   0.534  0.2545  0.4060  2.2287
  282SOL    HW2  846   0.063   2.714   0.692 -0.6138 -0.8804  3.2915
  283SOL     OW  847   1.286   2.079   1.998  0.3611 -0.1961 -0.4804
  283SOL    HW1  848   1.331   2.001   2.048  0.5109 -2.1358  1.8954
  283SOL    HW2  849   1.353   2.150   1.963  0.8159 -0.0310  1.0027
  284SOL     OW  850   2.904   2.726   1.062  0.1141  0.4593  0.4055
  284SOL    HW1  851   2.827   2.792   1.073  0.9889  0.5949  0.6704
  284SOL    HW2  852   2.908   2.639   1.119  2.2710 -0.8835 -0.6561
  285SOL     OW  853   0.216   2.094   3.041  0.3206  0.5162  0.0416
  285SOL    HW1  854   0.135   2.035   3.038  2.3873  0.1724 -1.7078
  285SOL    HW2  855   0.195   2.192   3.052 -1.3577 -1.1551  0.3152
  286SOL     OW  856   0.341   2.907   1.059  0.6538  0.1079 -0.0989
  286SOL    HW1  857   0.326   2.987   1.120  2.1191 -1.6689 -3.4315
  286SOL    HW2  858   0.302   2.922   0.967 -1.1147 -1.4216  1.1552
  287SOL     OW  859   0.599   1.256   0.414  0.4937 -0.2651 -0.1854
  287SOL    HW1  860   0.696   1.242   0.439 -1.2398 -0.3077  1.7973
  287SOL    HW2  861   0.586   1.354   0.392  1.2413  2.1379  3.2989
  288SOL     OW  862   1.890   1.883   2.895  0.1696  0.3576  0.1426
  288SOL    HW1  863   1.981   1.913   2.929  0.3150  1.1570 -0.4755
  288SOL    HW2  864   1.831   1.961   2.869  0.5253 -2.7254 -0.0937
  289SOL     OW  865   3.087   2.147   0.319  0.2190  0.2470  0.4749
  289SOL    HW1  866   3.018   2.163   0.244 -0.5443  2.1409 -0.0193
  289SOL    HW2  867   0.022   2.052   0.317 -4.3250  2.0676  0.6310
  290SOL     OW  868   1.375   1.619   1.397 -0.0342 -0.1019 -0.6279
  290SOL    HW1  869   1.458   1.672   1.371 -2.3306  0.4225  2.7387
  290SOL    HW2  870   1.380   1.525   1.356  1.2046  2.9916  1.1667
  291SOL     OW  871   1.068   1.315   3.064 -0.8830 -0.0650 -0.1886
  291SOL    HW1  872   1.022   1.382   3.003 -0.3681 -0.7908  0.8968
  291SOL    HW2  873   1.094   1.231   3.014 -1.6986  2.1868  1.2426
  292SOL     OW  874   1.174   1.552   0.268 -0.4214 -0.2513 -0.0645
  292SOL    HW1  875   1.144   1.511   0.352  2.0854  3.6115 -0.0384
  292SOL    HW2  876   1.093   1.555   0.207  2.4338 -0.7777  0.9903
  293SOL     OW  877   1.335   3.010   0.654  0.1555  0.2371 -0.0359
  293SOL    HW1  878   1.280   2.925   0.645  1.8875  0.3923 -1.6004
  293SOL    HW2  879   1.297   3.078   0.722 -3.5390  2.6897  1.0744
  294SOL     OW  880   1.812   1.320   2.462  0.0662  0.4800  0.0643
  294SOL    HW1  881   1.738   1.312   2.534 -0.9844 -1.4931  1.9358
  294SOL    HW2  882   1.772   1.341   2.367 -0.2383  3.6062 -3.8127
  295SOL     OW  883   1.659   1.876   0.162 -0.3533  0.2328  0.4523
  295SOL    HW1  884   1.600   1.915   0.090  2.4158  2.4225  1.5418
  295SOL    HW2  885   1.611   1.848   0.244  2.5065  2.5109 -2.8994
  296SOL     OW  886   1.315   0.733   1.714  0.2509 -0.4066 -0.1334
  296SOL    HW1  887   1.359   0.739   1.624  0.3889  0.9884 -1.5092
  296SOL    HW2  888   1.236   0.798   1.725 -0.3761  0.5173 -2.0899
  297SOL     OW  889   2.951   0.757   1.848 -0.5707  0.6702 -0.0330
  297SOL    HW1  890   2.907   0.685   1.904  1.1642  0.5657 -0.5943
  297SOL    HW2  891   2.988   0.829   1.910 -0.0071 -0.3916  1.2847
  298SOL     OW  892   1.119   1.751   1.405 -0.8424 -0.0100  1.0011
  298SOL    HW1  893   1.104   1.846   1.429 -1.6586 -0.9238  1.6269
  298SOL    HW2  894   1.214   1.711   1.417 -4.7206 -1.1194 -0.5111
  299SOL     OW  895   1.143   0.023   2.592  0.0535 -0.5410  0.8722
  299SOL    HW1  896   1.214   0.021   2.521  0.6330  1.4382 -0.9920
  299SOL    HW2  897   1.052   3.087   2.555  1.7280  0.1371 -1.2466
  300SOL     OW  898   2.839   1.381   0.147 -0.0864  0.1557 -0.8160
  300SOL    HW1  899   2.881   1.386   0.242  0.3674 -1.7170  2.0506
  300SOL    HW2  900   2.830   1.464   0.096  0.4961 -1.3746  3.8576
  301SOL     OW  901   2.004   0.731   2.391 -0.0479  0.0263  0.1246
  301SOL    HW1  902   2.063   0.677   2.326 -0.5733 -3.8141 -3.0028
  301SOL    HW2  903   2.040   0.830   2.386 -1.6627  1.3253 -0.5552
  302SOL     OW  904   2.538   2.003   2.665 -0.2380 -0.3678  0.1611
  302SOL    HW1  905   2.527   2.003   2.565  2.7953 -3.4784  1.2627
  302SOL    HW2  906   2.638   2.000   2.691  0.4797 -1.5068 -1.0662
  303SOL     OW  907   0.334   2.380   2.840 -0.1336  0.5243  0.0506
  303SOL    HW1  908   0.320   2.342   2.933  2.3247  0.8121  2.0190
  303SOL    HW2  909   0.291   2.470   2.829 -0.7728 -1.8196  0.1922
  304SOL     OW  910   0.601   1.784   1.327 -0.3284  0.1794 -0.7388
  304SOL    HW1  911   0.587   1.864   1.392 -0.1743 -2.0283  1.3529
  304SOL    HW2  912   0.691   1.800   1.283 -1.7156  0.1951 -3.5734
  305SOL     OW  913   2.544   0.507   1.938 -0.1235 -0.9464  0.3953
  305SOL    HW1  914   2.593   0.544   2.021  0.7194  1.0196  1.5900
  305SOL    HW2  915   2.560   0.572   1.861  1.4700  2.0150  1.4880
  306SOL     OW  916   1.890   1.462   1.139 -0.6826 -0.3469 -0.1494
  306SOL    HW1  917   1.816   1.433   1.077  0.9397  1.9701  1.4775
  306SOL    HW2  918   1.880   1.404   1.226 -1.1794 -2.9898  3.8541
  307SOL     OW  919   3.090   0.553   0.755 -0.0646  0.5104  0.0840
  307SOL    HW1  920   0.043   0.600   0.675 -0.0475  3.3137 -2.5541
  307SOL    HW2  921   0.045   0.577   0.842  1.8933  0.9697  2.1112
  308SOL     OW  922   0.269   1.389   1.672 -0.3790  0.5040  0.1010
  308SOL    HW1  923   0.260   1.426   1.576  1.4936 -1.8195  1.1040
  308SOL    HW2  924   0.183   1.343   1.703 -0.4832 -1.0222  2.5095
  309SOL     OW  925   2.464   2.153   2.036 -0.2863 -0.4941 -0.1371
  309SOL    HW1  926   2.540   2.218   2.013  0.4886  0.5885 -0.4555
  309SOL    HW2  927   2.374   2.195   2.050 -1.6839 -1.3737 -1.0851
  310SOL     OW  928   2.386   1.304   2.405 -0.6030 -0.0992 -0.4044
  310SOL    HW1  929   2.486   1.324   2.428 -0.5350  2.4482  0.8817
  310SOL    HW2  930   2.346   1.231   2.472 -3.3553 -2.2091 -1.5901
  311SOL     OW  931   1.538   1.330   2.965 -0.1920 -0.0079 -0.0676
  311SOL    HW1  932   1.453   1.375   2.989 -1.5199 -2.3028  0.2026
  311SOL    HW2  933   1.525   1.241   3.003  1.7495  0.6816  0.6047
  312SOL     OW  934   1.265   1.966   2.503 -0.3756 -0.0414  0.3530
  312SOL    HW1  935   1.306   2.053   2.537  0.0917 -0.4989  1.2211
  312SOL    HW2  936   1.234   1.965   2.406  3.0051  0.2700  2.6754
  313SOL     OW  937   0.341   0.538   0.805 -0.0544 -0.0650 -0.5837
  313SOL    HW1  938   0.414   0.603   0.822  1.1887 -1.0271 -1.6661
  313SOL    HW2  939   0.258   0.551   0.862 -0.5029  1.1051 -1.1669
  314SOL     OW  940   0.758   2.004   1.055  0.5693  0.4478  0.5863
  314SOL    HW1  941   0.773   2.102   1.064 -2.1834 -3.7137 -1.9983
  314SOL    HW2  942   0.811   1.949   1.123 -0.9310 -0.1003 -0.8742
  315SOL     OW  943   0.669   2.092   2.152  0.0654 -0.8872  0.0008
  315SOL    HW1  944   0.587   2.143   2.112 -0.8360  1.3708 -2.1906
  315SOL    HW2  945   0.647   2.040   2.232 -1.0828 -1.1990  1.2514
  316SOL     OW  946   0.367   2.561   0.715 -0.3516 -0.0226 -0.5844
  316SOL    HW1  947   0.285   2.600   0.674  4.2043 -0.7341  0.7814
  316SOL    HW2  948   0.436   2.637   0.724 -1.1114 -3.3498 -1.2712
  317SOL     OW  949   2.819   3.072   1.314 -0.1437  0.4180  0.9488
  317SOL    HW1  950   2.880   0.035   1.258 -0.6964 -1.4840  3.7182
  317SOL    HW2  951   2.803   2.983   1.270 -2.0384  0.6543  1.5820
  318SOL     OW  952   2.133   2.629   0.121 -0.0795 -0.1125  0.1132
  318SOL    HW1  953   2.195   2.629   0.038  2.1568 -0.2282  0.6801
  318SOL    HW2  954   2.186   2.627   0.211  0.6934 -1.9132  4.0523
  319SOL     OW  955   1.539   0.973   2.531  0.5322  0.4762 -0.8468
  319SOL    HW1  956   1.483   1.049   2.561 -0.2519 -0.6991  0.7421
  319SOL    HW2  957   1.486   0.883   2.537 -0.5945 -1.9322  0.3003
  320SOL     OW  958   0.203   2.021   2.179  0.4324  0.1775  0.4515
  320SOL    HW1  959   0.172   2.090   2.109 -1.5796 -1.1314  0.4769
  320SOL    HW2  960   0.155   1.935   2.163  1.6892 -1.5387 -2.4683
  321SOL     OW  961   0.667   2.524   0.252 -0.2275 -0.0778  0.0825
  321SOL    HW1  962   0.726   2.603   0.274 -3.2008 -2.2167 -1.3058
  321SOL    HW2  963   0.611   2.539   0.166  0.4576 -0.4846  0.1910
  322SOL     OW  964   2.593   0.817   2.642 -0.2074 -0.0284 -0.0454
  322SOL    HW1  965   2.669   0.780   2.701 -1.0941 -1.1837  1.5052
  322SOL    HW2  966   2.534   0.739   2.613  0.2964  1.5087  0.9590
  323SOL     OW  967   2.575   1.082   0.889  0.1882  0.6490  0.0102
  323SOL    HW1  968   2.650   1.121   0.943 -1.6867 -2.1644 -0.5576
  323SOL    HW2  969   2.621   1.012   0.828  2.4360  0.4495 -0.0973
  324SOL     OW  970   0.086   0.466   1.340 -0.2412 -0.2927  0.4501
  324SOL    HW1  971   0.100   0.501   1.435 -1.5263 -0.2888  1.1198
  324SOL    HW2  972   0.023   0.383   1.342  1.2535 -0.4563  0.8960
  325SOL     OW  973   3.065   2.928   1.743  0.4351  0.3589  0.1680
  325SOL    HW1  974   2.993   2.948   1.671 -2.1346 -0.4143  0.4776
  325SOL    HW2  975   0.065   2.940   1.702  0.9403 -0.6856 -0.6115
  326SOL     OW  976   2.057   2.958   0.239 -0.1765 -0.2107 -0.0926
  326SOL    HW1  977   2.141   2.907   0.269 -0.8640 -1.9970  1.1739
  326SOL    HW2  978   2.063   2.995   0.145  0.7532  0.2883  1.6175
  327SOL     OW  979   1.914   1.590   0.492  0.1820 -0.0755  0.2107
  327SOL    HW1  980   1.901   1.691   0.473 -0.6143  1.1062 -0.4048
  327SOL    HW2  981   1.841   1.531   0.444 -1.8710  0.3630  0.2382
  328SOL     OW  982   0.094   2.103   2.428  0.3350 -0.2518  0.1034
  328SOL    HW1  983   0.154   2.182   2.449  0.1480 -0.2436 -0.7686
  328SOL    HW2  984   0.129   2.054   2.345 -4.4282  0.3782 -0.0874
  329SOL     OW  985   0.261   2.188   1.548  0.4370  0.2355 -0.3501
  329SOL    HW1  986   0.312   2.210   1.461  2.0214  0.4310 -3.2890
  329SOL    HW2  987   0.326   2.159   1.622  0.1644  0.8257 -1.4347
  330SOL     OW  988   2.289   1.140   2.640 -0.1724  0.6706 -0.0897
  330SOL    HW1  989   2.358   1.078   2.685  1.9988 -1.8107  0.3642
  330SOL    HW2  990   2.194   1.100   2.628 -1.2931 -1.7145  0.1090
  331SOL     OW  991   2.743   2.118   0.930 -0.0008  0.0519  0.2691
  331SOL    HW1  992   2.734   2.093   1.027  2.0417 -0.2619 -1.3332
  331SOL    HW2  993   2.652   2.131   0.888  0.1165 -0.4346 -1.3420
  332SOL     OW  994   0.502   2.798   0.703  0.0637 -0.6265  0.0968
  332SOL    HW1  995   0.453   2.887   0.718  0.4733 -0.4581 -1.0071
  332SOL    HW2  996   0.587   2.793   0.757 -1.3041  1.1083  0.4013
  333SOL     OW  997   2.246   1.891   2.476  0.2369  0.3408  0.2288
  333SOL    HW1  998   2.233   1.974   2.420 -2.8785 -0.3145  0.5992
  333SOL    HW2  999   2.301   1.831   2.417  0.5875  3.5247 -0.5173
  334SOL     OW 1000   0.598   1.411   0.838 -0.3387  0.2616 -0.1879
  334SOL    HW1 1001   0.632   1.446   0.929  1.8909  1.6034  1.2178
  334SOL    HW2 1002   0.623   1.469   0.761  2.4341 -1.2565  1.7943
  335SOL     OW 1003   2.928   2.086   2.336 -0.0571 -0.0301 -0.1309
  335SOL    HW1 1004   3.028   2.095   2.377  3.2301  2.2019  2.0042
  335SOL    HW2 1005   2.873   2.023   2.397  0.1604  1.4869 -0.2727
  336SOL     OW 1006   2.444   2.733   2.197 -0.0988  0.0799 -0.1556
  336SOL    HW1 1007   2.347   2.765   2.194 -0.0504 -0.9025 -1.5887
  336SOL    HW2 1008   2.500   2.796   2.142 -1.7740  1.4462 -0.7422
  337SOL     OW 1009   0.688   0.958   0.463 -0.0533 -0.5377  0.1714
  337SOL    HW1 1010   0.789   0.950   0.452 -1.2617  1.2626  0.4565
  337SOL    HW2 1011   0.669   1.023   0.538 -0.0002 -1.7205  0.8364
  338SOL     OW 1012   1.426   1.774   1.039  0.3960  0.0715 -0.1147
  338SOL    HW1 1013   1.335   1.826   1.033 -1.0043  1.8125 -0.7186
  338SOL    HW2 1014   1.489   1.818   0.975 -2.5797 -0.9674 -1.7529
  339SOL     OW 1015   0.302   1.739   1.606  0.1220 -0.4390 -0.4413
  339SOL    HW1 1016   0.255   1.828   1.619 -1.2615  0.0847 -2.1071
  339SOL    HW2 1017   0.317   1.689   1.692  0.8266  0.5343 -0.7044
  340SOL     OW 1018   1.271   3.015   1.705  0.4774 -0.7066 -0.2395
  340SOL    HW1 1019   1.305   0.012   1.673  0.6850 -1.0772 -0.8049
  340SOL    HW2 1020   1.336   2.983   1.776  1.5084  0.6320  2.4911
  341SOL     OW 1021   1.590   1.694   1.243  0.1381 -0.1783 -0.6729
  341SOL    HW1 1022   1.533   1.751   1.178 -2.2490 -0.1460  2.0558
  341SOL    HW2 1023   1.692   1.699   1.242  2.7119 -0.1674  0.8040
  342SOL     OW 1024   2.580   1.410   0.975 -0.1352 -0.4522 -0.1407
  342SOL    HW1 1025   2.650   1.341   0.999 -0.9804  0.1394  1.1851
  342SOL    HW2 1026   2.495   1.386   1.025  0.5881  0.4349 -0.6116
  343SOL     OW 1027   2.204   0.289   1.020 -0.4467 -0.3735 -0.4650
  343SOL    HW1 1028   2.245   0.377   1.012 -1.7146  0.1425  0.3092
  343SOL    HW2 1029   2.247   0.229   0.953 -1.3883  3.4964  0.6568
  344SOL     OW 1030   2.368   0.196   0.564 -0.4795 -0.2539 -0.1789
  344SOL    HW1 1031   2.316   0.266   0.509 -0.9432  2.7179  2.2801
  344SOL    HW2 1032   2.455   0.239   0.599 -0.1819 -0.5451 -2.4066
  345SOL     OW 1033   0.905   2.939   1.799 -0.3013 -0.8750  0.6101
  345SOL    HW1 1034   0.817   2.894   1.823  1.2046 -1.7146  1.0484
  345SOL    HW2 1035   0.914   3.021   1.860  3.4434  0.2830  0.8644
  346SOL     OW 1036   2.536   1.951   0.601  0.2706  0.1859 -0.9129
  346SOL    HW1 1037   2.610   1.880   0.619 -1.5740  0.9573  0.4672
  346SOL    HW2 1038   2.528   2.012   0.684  2.4173  1.1832  0.8457
  347SOL     OW 1039   2.524   2.925   1.362  0.2081 -0.0068  0.3817
  347SOL    HW1 1040   2.538   2.952   1.459 -0.3869  1.8103  1.2972
  347SOL    HW2 1041   2.422   2.927   1.344 -2.3528  0.5589 -0.9913
  348SOL     OW 1042   1.190   0.980   1.420 -0.2376  0.0373  0.2224
  348SOL    HW1 1043   1.263   1.055   1.416  2.1351  0.1174 -2.5114
  348SOL    HW2 1044   1.150   0.963   1.328  2.3809 -1.1033  0.3341
  349SOL     OW 1045   2.435   0.594   2.565 -0.3128  0.5878 -0.5238
  349SOL    HW1 1046   2.458   0.495   2.544 -0.0697 -2.4229  1.1310
  349SOL    HW2 1047   2.375   0.599   2.651  0.5297  1.5173  2.3911
  350SOL     OW 1048   1.986   2.480   0.398 -0.6425 -0.2595 -0.3576
  350SOL    HW1 1049   1.982   2.444   0.494 -1.1965  0.5442  1.4742
  350SOL    HW2 1050   2.067   2.528   0.369 -3.9147  3.0759 -0.7348
  351SOL     OW 1051   1.191   0.516   0.133 -0.2685 -0.0462  0.0006
  351SOL    HW1 1052   1.206   0.487   0.038 -0.0187  0.5899  0.6917
  351SOL    HW2 1053   1.156   0.609   0.131 -1.9516 -2.0234  0.6178
  352SOL     OW 1054   1.927   2.641   2.143  0.1455  0.3476 -0.6438
  352SOL    HW1 1055   1.898   2.666   2.235  0.3134  0.8262 -0.6164
  352SOL    HW2 1056   1.886   2.695   2.070  0.0179 -0.2680 -0.2515
  353SOL     OW 1057   0.392   1.275   2.636  0.3853 -0.3984  0.0066
  353SOL    HW1 1058   0.289   1.269   2.615 -1.7665  0.6887 -0.5557
  353SOL    HW2 1059   0.428   1.349   2.573  1.6576  0.8797  1.5756
  354SOL     OW 1060   0.557   2.748   2.582 -0.1013 -0.4479 -0.2824
  354SOL    HW1 1061   0.608   2.764   2.496  0.1248 -0.7689 -1.2102
  354SOL    HW2 1062   0.585   2.661   2.627 -1.9215  0.3834 -0.3894
  355SOL     OW 1063   2.363   2.631   1.452  0.1678 -0.1587 -0.3865
  355SOL    HW1 1064   2.340   2.717   1.504 -2.5202 -2.3033  0.8191
  355SOL    HW2 1065   2.309   2.551   1.480 -0.8300 -1.6827 -0.9357
  356SOL     OW 1066   0.073   0.920   0.588  0.0510  0.4454 -0.1633
  356SOL    HW1 1067   0.063   0.976   0.501 -0.9526 -0.7731  0.1194
  356SOL    HW2 1068   3.085   0.869   0.618  1.1552 -2.3442  0.4282
  357SOL     OW 1069   0.023   0.104   1.505 -0.0608 -0.6116  0.2812
  357SOL    HW1 1070   3.094   0.121   1.607 -0.7520 -3.6421  1.6105
  357SOL    HW2 1071   3.067   0.166   1.441  0.9073  0.1110 -0.7207
  358SOL     OW 1072   2.978   1.576   1.475 -0.0431  0.0023 -0.1616
  358SOL    HW1 1073   2.996   1.490   1.430  1.5730  2.8385 -0.5339
  358SOL    HW2 1074   2.879   1.598   1.478  2.5267 -0.5616  1.1089
  359SOL     OW 1075   2.387   2.628   2.685 -0.0842 -0.3164 -0.1195
  359SOL    HW1 1076   2.485   2.651   2.682  0.8644  3.3798  2.4244
  359SOL    HW2 1077   2.358   2.539   2.641  0.3549 -1.5144 -1.5892
  360SOL     OW 1078   1.317   0.528   1.356  0.1537 -0.2693  0.8406
  360SOL    HW1 1079   1.280   0.455   1.416 -0.9611  1.3952 -0.8756
  360SOL    HW2 1080   1.386   0.590   1.400 -0.2252  2.6990  0.2223
  361SOL     OW 1081   2.705   2.562   1.264 -0.8362  0.1327 -0.3859
  361SOL    HW1 1082   2.786   2.513   1.229 -0.5353  0.0633  0.2865
  361SOL    HW2 1083   2.620   2.555   1.205 -3.3389  2.1148  0.6927
  362SOL     OW 1084   1.142   0.251   0.500  0.6362 -0.5069 -0.4488
  362SOL    HW1 1085   1.120   0.349   0.504  2.8399 -0.3605 -0.4284
  362SOL    HW2 1086   1.141   0.219   0.596 -1.4078  0.0419 -0.3901
  363SOL     OW 1087   1.633   1.277   1.030  0.0639  0.4102 -0.0819
  363SOL    HW1 1088   1.566   1.309   1.103  0.2521  0.5646  1.8386
  363SOL    HW2 1089   1.607   1.303   0.937 -1.1942  0.9810  2.0878
  364SOL     OW 1090   0.303   0.821   1.609  0.3639 -0.2382 -0.3407
  364SOL    HW1 1091   0.395   0.778   1.607  1.3998 -0.9497 -0.0415
  364SOL    HW2 1092   0.302   0.900   1.544  1.6432 -0.4170 -1.3936
  365SOL     OW 1093   2.863   0.608   0.971  0.3174  0.1834 -0.0543
  365SOL    HW1 1094   2.909   0.526   0.929  0.4470 -2.4603 -2.3368
  365SOL    HW2 1095   2.829   0.594   1.065 -1.9327 -0.5046 -1.2142
  366SOL     OW 1096   2.744   1.291   0.702  0.0450 -0.2968 -0.0089
  366SOL    HW1 1097   2.757   1.392   0.710  1.9457  0.1543 -0.7467
  366SOL    HW2 1098   2.793   1.232   0.770 -0.7409 -0.2212  1.7405
  367SOL     OW 1099   2.001   1.965   2.199 -0.1927  0.2868 -0.0469
  367SOL    HW1 1100   1.990   2.064   2.210 -1.5258  0.3640 -0.9263
  367SOL    HW2 1101   1.996   1.917   2.289  0.2351 -1.7770  0.1537
  368SOL     OW 1102   2.523   1.963   1.359 -0.3011  0.7091  0.5252
  368SOL    HW1 1103   2.497   1.978   1.457  2.3778 -0.1952 -0.5601
  368SOL    HW2 1104   2.486   1.871   1.333 -0.1756  2.9129  1.3789
  369SOL     OW 1105   2.065   2.964   2.739 -0.3133 -0.0986 -0.0932
  369SOL    HW1 1106   2.161   2.991   2.729 -1.9625 -1.0421 -1.2096
  369SOL    HW2 1107   2.043   2.937   2.836 -0.3124  0.1304  2.7500
  370SOL     OW 1108   0.720   0.419   1.065 -0.0406 -0.2502  0.1835
  370SOL    HW1 1109   0.649   0.376   1.006  0.7831 -1.3823  2.0767
  370SOL    HW2 1110   0.799   0.354   1.076  0.0144 -2.4559  1.3944
  371SOL     OW 1111   0.638   1.557   0.514  0.3877  0.3333 -0.0557
  371SOL    HW1 1112   0.714   1.605   0.465 -1.8940  0.8479 -0.2647
  371SOL    HW2 1113   0.595   1.612   0.579  2.8707 -1.6983 -3.7207
  372SOL     OW 1114   0.489   1.015   2.606 -0.0132  0.3811  0.4622
  372SOL    HW1 1115   0.537   1.004   2.518 -2.8355 -1.8594 -3.3151
  372SOL    HW2 1116   0.462   1.110   2.627 -0.1168 -0.8565  1.5968
  373SOL     OW 1117   1.136   2.811   2.889  0.1184  0.2083  0.1148
  373SOL    HW1 1118   1.051   2.863   2.862  1.0362  0.7347  0.7470
  373SOL    HW2 1119   1.215   2.873   2.866 -0.4702  0.8090 -0.5309
  374SOL     OW 1120   0.986   1.858   0.506 -0.4709  0.2773 -0.7610
  374SOL    HW1 1121   1.052   1.797   0.558  1.7246 -0.8275  0.2204
  374SOL    HW2 1122   1.017   1.867   0.407 -0.4580 -0.9145 -0.6637
  375SOL     OW 1123   0.670   0.727   1.867  0.3239 -0.7604 -0.0898
  375SOL    HW1 1124   0.708   0.662   1.940  2.1805 -3.7014 -0.5015
  375SOL    HW2 1125   0.730   0.806   1.845 -2.6469 -3.7669 -1.2688
  376SOL     OW 1126   0.094   2.415   1.567 -0.1537  0.2154 -0.4311
  376SOL    HW1 1127   0.135   2.323   1.571  0.8310  2.2388  1.3034
  376SOL    HW2 1128   0.134   2.476   1.638  0.1587  2.0819 -0.1687
  377SOL     OW 1129   2.864   1.777   3.020  0.0305 -0.0663 -0.2373
  377SOL    HW1 1130   2.797   1.834   2.970  1.4542  1.3263  1.8911
  377SOL    HW2 1131   2.852   1.677   3.004 -1.9189 -0.3689  0.2257
  378SOL     OW 1132   1.652   2.958   3.045  0.3281 -0.0373  0.4369
  378SOL    HW1 1133   1.559   2.930   3.072  2.1808 -2.4165  2.8256
  378SOL    HW2 1134   1.686   3.038   3.093  2.4672 -2.8770 -0.3919
  379SOL     OW 1135   1.961   0.444   0.671 -0.6060 -0.1459 -0.1127
  379SOL    HW1 1136   1.981   0.341   0.676 -0.9771  0.0553 -3.2351
  379SOL    HW2 1137   2.036   0.506   0.694 -3.9320  0.8853 -0.1037
  380SOL     OW 1138   2.792   1.808   1.918 -0.7338 -0.0838  0.1876
  380SOL    HW1 1139   2.852   1.728   1.897  1.3862 -0.0636 -1.3537
  380SOL    HW2 1140   2.842   1.878   1.971 -1.4693  0.8486  0.0903
  381SOL     OW 1141   2.224   1.481   2.263 -0.0799 -0.3480  0.2847
  381SOL    HW1 1142   2.272   1.566   2.293  0.3998  1.4250  0.9888
  381SOL    HW2 1143   2.274   1.401   2.291 -2.5755  1.4658 -0.0309
  382SOL     OW 1144   2.980   2.860   2.818 -0.2009  0.1537  0.1661
  382SOL    HW1 1145   2.980   2.845   2.921 -0.0084  1.8823  0.8649
  382SOL    HW2 1146   2.887   2.898   2.797  0.3998 -1.7673  0.4612
  383SOL     OW 1147   1.215   1.253   0.205 -0.9630  0.4145 -0.1767
  383SOL    HW1 1148   1.163   1.268   0.116 -1.5127 -0.7576 -1.4142
  383SOL    HW2 1149   1.250   1.337   0.253  1.7856  0.0629  1.7009
  384SOL     OW 1150   1.330   1.989   1.549  0.5261  0.5942 -0.0249
  384SOL    HW1 1151   1.315   2.058   1.624  0.8245 -0.1522  2.2666
  384SOL    HW2 1152   1.406   2.016   1.485  0.8716 -1.1098  0.7826
  385SOL     OW 1153   1.923   2.579   0.865  0.5301  0.2805  0.0317
  385SOL    HW1 1154   1.890   2.674   0.845 -2.0936  0.0471 -0.4790
  385SOL    HW2 1155   1.856   2.514   0.827 -1.7012 -0.1375  0.5962
  386SOL     OW 1156   1.699   1.604   0.792  0.5173  0.2368 -0.0331
  386SOL    HW1 1157   1.657   1.676   0.733  0.2633 -0.4910 -0.3324
  386SOL    HW2 1158   1.752   1.645   0.864 -0.7013 -2.3082  0.1761
  387SOL     OW 1159   2.719   2.042   1.187 -0.1251 -0.0795  0.0262
  387SOL    HW1 1160   2.799   2.064   1.246  1.1969  1.4780  0.9733
  387SOL    HW2 1161   2.638   2.008   1.246 -0.6055 -0.4798  0.3495
  388SOL     OW 1162   3.046   1.029   1.713 -0.4336 -0.4353  0.2558
  388SOL    HW1 1163   3.016   0.989   1.626 -3.5356  3.6701  1.3658
  388SOL    HW2 1164   0.001   0.960   1.768 -0.8864  0.1675 -1.6728
  389SOL     OW 1165   2.159   0.304   0.061  0.5592 -0.1406 -0.4011
  389SOL    HW1 1166   2.113   0.350   0.138  1.7084  0.2285  0.0186
  389SOL    HW2 1167   2.210   0.222   0.086  0.4591  2.4514  0.3071
  390SOL     OW 1168   1.261   1.618   2.807 -0.5297  0.2161 -0.1068
  390SOL    HW1 1169   1.246   1.715   2.786 -1.7242 -1.0600  0.4628
  390SOL    HW2 1170   1.257   1.557   2.722 -0.2197 -0.8843 -1.3865
  391SOL     OW 1171   1.118   2.242   3.037  0.4956  0.3674  0.0790
  391SOL    HW1 1172   1.062   2.170   3.078 -0.3197 -0.3566 -0.4571
  391SOL    HW2 1173   1.057   2.300   2.982  2.0819  0.9243 -0.9706
  392SOL     OW 1174   0.222   2.530   1.778  0.1484 -0.4085 -0.4165
  392SOL    HW1 1175   0.220   2.558   1.877 -0.1532 -0.1014 -0.2941
  392SOL    HW2 1176   0.311   2.483   1.763 -0.6778  2.1360  4.9858
  393SOL     OW 1177   1.257   2.284   0.190  0.3734 -0.0834  0.4777
  393SOL    HW1 1178   1.213   2.305   0.099 -1.8477 -2.2870  1.5422
  393SOL    HW2 1179   1.348   2.329   0.189  0.5478  0.2937  1.4412
  394SOL     OW 1180   0.649   0.792   2.456  0.1076 -0.5936 -0.5979
  394SOL    HW1 1181   0.740   0.781   2.484 -1.7123  0.0427 -0.6784
  394SOL    HW2 1182   0.585   0.727   2.500  0.8643 -1.1500 -0.9439
  395SOL     OW 1183   0.436   1.191   1.197  0.1976  0.1516 -0.2645
  395SOL    HW1 1184   0.387   1.280   1.186  1.2244  2.1699  0.6577
  395SOL    HW2 1185   0.443   1.138   1.110  1.6884  0.6616 -1.5969
  396SOL     OW 1186   1.676   1.168   2.126  0.3307  0.0833  0.8665
  396SOL    HW1 1187   1.613   1.109   2.186  1.3584 -2.1487 -0.0197
  396SOL    HW2 1188   1.662   1.266   2.149 -0.4307 -1.1964  0.6530
  397SOL     OW 1189   0.906   0.326   0.227  0.3005  0.1245 -0.0706
  397SOL    HW1 1190   0.848   0.252   0.264  0.1845  0.2923  0.8058
  397SOL    HW2 1191   0.872   0.415   0.272 -1.3514 -0.6073  1.0731
  398SOL     OW 1192   0.733   2.345   2.905 -0.0245 -0.3063 -0.3158
  398SOL    HW1 1193   0.830   2.341   2.875 -1.7411  0.2104  1.4557
  398SOL    HW2 1194   0.719   2.285   2.981 -0.1400 -1.9387 -2.5834
  399SOL     OW 1195   1.525   1.890   2.364 -0.0423  0.0077 -0.4728
  399SOL    HW1 1196   1.444   1.908   2.418 -1.6072  3.5730 -0.1576
  399SOL    HW2 1197   1.579   1.810   2.395  0.2364 -1.4968 -0.4417
  400SOL     OW 1198   2.097   1.490   1.432 -0.2003  0.1356 -0.2006
  400SOL    HW1 1199   2.149   1.531   1.360 -0.7596 -1.3699  2.8765
  400SOL    HW2 1200   2.032   1.414   1.401 -2.1188 -0.6086 -1.9616
  401SOL     OW 1201   1.219   1.135   1.035  0.3948  0.0865 -0.0586
  401SOL    HW1 1202   1.264   1.160   0.950 -1.1288 -0.0324 -0.8366
  401SOL    HW2 1203   1.257   1.048   1.070 -1.2849  1.0463  0.8468
  402SOL     OW 1204   3.093   2.436   2.006 -0.2962 -0.2699  0.0538
  402SOL    HW1 1205   3.062   2.514   1.948  0.5210 -2.1020  0.7644
  402SOL    HW2 1206   0.002   2.461   2.102 -0.7202 -2.0669 -0.4683
  403SOL     OW 1207   3.058   1.722   1.759 -0.1276  0.2607  0.6464
  403SOL    HW1 1208   3.017   1.810   1.719 -1.5993 -1.0801 -2.0826
  403SOL    HW2 1209   3.089   1.662   1.686  1.4109  1.8584  2.5789
  404SOL     OW 1210   2.087   1.881   1.300 -0.4537  0.0335  0.5242
  404SOL    HW1 1211   2.044   1.940   1.369 -2.2911 -1.9247 -1.2960
  404SOL    HW2 1212   2.127   1.946   1.237 -2.0908 -0.4692 -0.4127
  405SOL     OW 1213   2.594   0.308   3.045 -0.4296 -0.3615 -0.4936
  405SOL    HW1 1214   2.638   0.348   0.032  0.4811  0.8103 -0.7193
  405SOL    HW2 1215   2.524   0.373   3.002  0.2271  0.2385 -0.3020
  406SOL     OW 1216   1.047   1.532   2.543 -0.9311  0.5205 -0.0602
  406SOL    HW1 1217   1.011   1.627   2.569 -0.5036 -1.7414  0.5502
  406SOL    HW2 1218   0.979   1.480   2.492 -0.6603 -1.0263  2.7144
  407SOL     OW 1219   1.868   2.734   0.006 -0.0672 -0.4584 -0.5289
  407SOL    HW1 1220   1.947   2.681   0.049  1.6627 -0.2765 -0.4109
  407SOL    HW2 1221   1.775   2.731   0.055 -2.3715 -0.7565  0.7581
  408SOL     OW 1222   0.381   3.049   0.742 -0.2888 -0.4247 -0.3890
  408SOL    HW1 1223   0.380   0.044   0.697  1.2458 -0.0201  1.1972
  408SOL    HW2 1224   0.300   3.033   0.805  0.9983  2.2911 -1.1058
  409SOL     OW 1225   2.434   1.873   0.954  0.1721  0.5615 -0.2562
  409SOL    HW1 1226   2.357   1.818   0.915  0.3184  1.4183 -0.8325
  409SOL    HW2 1227   2.487   1.812   1.017 -1.0913  1.4424 -0.3867
  410SOL     OW 1228   2.270   2.194   3.016 -0.3823 -0.1286 -0.4085
  410SOL    HW1 1229   2.302   2.225   2.923 -1.7928  1.5121  3.0090
  410SOL    HW2 1230   2.291   2.099   3.041  0.1615  0.4153  2.4537
  411SOL     OW 1231   0.162   0.663   0.566  0.4839 -0.3250  0.3451
  411SOL    HW1 1232   0.143   0.765   0.565  0.2941  0.9514 -1.2029
  411SOL    HW2 1233   0.259   0.642   0.589  0.4982  0.0016  4.2235
  412SOL     OW 1234   1.605   2.693   0.180 -0.1152  0.0502  0.8448
  412SOL    HW1 1235   1.675   2.750   0.228  1.7517  1.0817  0.8860
  412SOL    HW2 1236   1.530   2.750   0.140  1.1080  1.7676 -0.0398
  413SOL     OW 1237   2.100   0.304   2.175  0.2142  0.5455  0.0912
  413SOL    HW1 1238   2.111   0.316   2.076 -0.5939 -0.7261  1.1081
  413SOL    HW2 1239   2.048   0.214   2.188 -1.7519 -0.8083 -1.3020
  414SOL     OW 1240   0.092   0.216   0.621 -0.1797 -0.0893 -0.0907
  414SOL    HW1 1241   0.067   0.298   0.563 -0.7978  1.7781 -1.0133
  414SOL    HW2 1242   0.168   0.246   0.685 -1.5254  0.5188 -1.8475
  415SOL     OW 1243   0.715   1.577   1.449  0.1034 -0.0755  0.2552
  415SOL    HW1 1244   0.641   1.645   1.431  0.4675 -3.0498  0.1768
  415SOL    HW2 1245   0.688   1.490   1.405  1.7754  0.5619  1.7901
  416SOL     OW 1246   0.383   2.753   0.291  0.1561  0.0453  0.3234
  416SOL    HW1 1247   0.342   2.827   0.349  1.4563  1.1896  0.9396
  416SOL    HW2 1248   0.344   2.655   0.312 -1.0222 -1.4212  0.5598
  417SOL     OW 1249   2.697   2.888   1.156  0.0789 -0.4783 -0.0835
  417SOL    HW1 1250   2.645   2.897   1.243 -0.4026 -0.0039 -0.2653
  417SOL    HW2 1251   2.636   2.883   1.077  0.1412  0.7254 -1.4289
  418SOL     OW 1252   0.653   0.343   2.696 -0.0316  0.3256 -0.0064
  418SOL    HW1 1253   0.590   0.292   2.759 -1.4700 -0.2561 -0.6785
  418SOL    HW2 1254   0.749   0.311   2.711  2.2405  0.0375 -1.7892
  419SOL     OW 1255   0.278   1.442   1.196 -0.7528  0.0641 -0.6302
  419SOL    HW1 1256   0.222   1.372   1.155  0.9708 -0.7125  0.8812
  419SOL    HW2 1257   0.239   1.532   1.186  1.0492 -1.4013  1.0610
  420SOL     OW 1258   1.580   1.934   0.876 -0.0544  0.6341  0.5291
  420SOL    HW1 1259   1.618   2.025   0.866  1.6336 -3.3287 -1.4039
  420SOL    HW2 1260   1.574   1.879   0.791 -2.2011 -2.6586 -4.2546
  421SOL     OW 1261   1.809   1.997   2.000  0.1904  0.3084  0.3049
  421SOL    HW1 1262   1.758   1.927   1.944 -0.7524 -0.4277  0.0386
  421SOL    HW2 1263   1.868   1.959   2.074  0.3413 -2.1853 -2.1000
  422SOL     OW 1264   2.831   0.524   2.963 -0.0059 -0.1252 -0.3239
  422SOL    HW1 1265   2.889   0.438   2.959 -1.2768 -1.6700 -0.6056
  422SOL    HW2 1266   2.843   0.583   3.048 -1.1681  2.1337 -0.7003
  423SOL     OW 1267   1.403   2.214   0.886 -0.3070 -0.0183  0.2033
  423SOL    HW1 1268   1.466   2.235   0.810 -0.4019 -0.4081 -0.9022
  423SOL    HW2 1269   1.307   2.240   0.856 -1.9245  0.8384 -0.2924
  424SOL     OW 1270   0.700   1.277   1.553 -0.2396  0.0373  0.5373
  424SOL    HW1 1271   0.605   1.241   1.563  0.0324  2.8914  0.6800
  424SOL    HW2 1272   0.733   1.322   1.641  0.1454  1.0101  0.2045
  425SOL     OW 1273   2.806   2.635   2.119 -0.4766 -0.0727  0.1179
  425SOL    HW1 1274   2.777   2.685   2.035  0.6377  1.7297  0.2390
  425SOL    HW2 1275   2.785   2.535   2.113 -2.4633 -0.8086 -1.1733
  426SOL     OW 1276   2.189   2.756   0.646 -0.6021 -0.2978  0.1638
  426SOL    HW1 1277   2.095   2.756   0.608  1.7264 -1.1135  2.0380
  426SOL    HW2 1278   2.200   2.831   0.716  0.1769 -2.0116  0.6060
  427SOL     OW 1279   0.639   0.869   2.784 -0.2764  0.1787  0.1216
  427SOL    HW1 1280   0.594   0.899   2.694  1.2822 -0.6455 -2.1590
  427SOL    HW2 1281   0.669   0.953   2.838  1.0993  3.1285  2.0326
  428SOL     OW 1282   2.028   1.364   0.201 -0.2501 -0.4838  0.3849
  428SOL    HW1 1283   1.951   1.298   0.193 -1.1293  0.8174 -0.9143
  428SOL    HW2 1284   2.015   1.439   0.136  0.5382  0.5039  1.2510
  429SOL     OW 1285   0.036   3.072   0.496  0.2782 -0.3298  0.2966
  429SOL    HW1 1286   0.067   0.058   0.541  2.4537 -3.5507 -1.7908
  429SOL    HW2 1287   3.047   3.031   0.538 -0.0164 -0.5507  2.7386
  430SOL     OW 1288   0.653   2.974   2.162 -0.1661 -0.1834 -0.0285
  430SOL    HW1 1289   0.673   3.045   2.235  2.4021  1.2971 -0.9743
  430SOL    HW2 1290   0.568   3.006   2.116 -1.0055 -0.9292  2.7270
  431SOL     OW 1291   2.867   1.102   1.324 -0.3899 -0.1050 -0.0831
  431SOL    HW1 1292   2.824   1.191   1.334  1.3796 -2.1418  0.0393
  431SOL    HW2 1293   2.930   1.072   1.401 -1.2061  0.6762  0.1606
  432SOL     OW 1294   1.934   2.561   1.823 -0.6542  0.0731  0.1909
  432SOL    HW1 1295   2.019   2.553   1.768  0.1018  0.8252  0.0202
  432SOL    HW2 1296   1.891   2.469   1.830  0.2393 -0.3054  1.0204
  433SOL     OW 1297   1.059   1.878   0.227  0.5627 -0.1576  0.3620
  433SOL    HW1 1298   1.030   1.787   0.203  1.5467  1.8722  0.0198
  433SOL    HW2 1299   1.025   1.939   0.150 -0.8848 -0.2177 -2.9463
  434SOL     OW 1300   0.325   2.198   2.579  0.2369 -0.3873 -0.2027
  434SOL    HW1 1301   0.413   2.226   2.628  0.9245 -1.6580 -1.0753
  434SOL    HW2 1302   0.256   2.265   2.606  1.9817  1.4814  0.3095
  435SOL     OW 1303   0.520   0.625   0.255 -0.3648  0.1698  0.7877
  435SOL    HW1 1304   0.557   0.575   0.174  1.6907 -0.2484  0.5439
  435SOL    HW2 1305   0.520   0.725   0.243 -0.1562 -2.6603  3.1864
  436SOL     OW 1306   0.225   2.822   1.455 -0.0142 -0.4004 -0.3921
  436SOL    HW1 1307   0.284   2.738   1.448 -2.1218 -1.5133 -1.2859
  436SOL    HW2 1308   0.138   2.810   1.401 -2.2571 -0.3300  2.2855
  437SOL     OW 1309   1.063   2.015   1.416  0.7629 -1.0364 -0.4067
  437SOL    HW1 1310   1.097   2.056   1.501 -0.6518  1.0816 -0.0560
  437SOL    HW2 1311   1.114   2.046   1.335 -1.3640 -4.1123 -2.8467
  438SOL     OW 1312   0.045   1.846   0.877  0.2783  0.4520  0.2272
  438SOL    HW1 1313   0.122   1.900   0.913  1.9459  0.0526  1.4639
  438SOL    HW2 1314   3.052   1.900   0.854  0.9354  1.0591 -0.3268
  439SOL     OW 1315   0.244   0.403   1.128  0.1062  0.1210 -0.1541
  439SOL    HW1 1316   0.199   0.414   1.220 -0.2265 -0.2852 -0.1312
  439SOL    HW2 1317   0.324   0.340   1.133 -1.0868  0.1357 -0.2201
  440SOL     OW 1318   3.008   2.776   2.213  0.1115  0.0521  0.0433
  440SOL    HW1 1319   2.971   2.795   2.307 -1.6926  1.5831  2.2393
  440SOL    HW2 1320   2.937   2.722   2.160  0.8600 -1.4557  1.4221
  441SOL     OW 1321   0.125   0.583   1.556 -0.0295  0.6309  0.3773
  441SOL    HW1 1322   0.178   0.670   1.566  0.1507  1.4765  0.6256
  441SOL    HW2 1323   0.034   0.579   1.601 -0.4924  0.3591  1.3203
  442SOL     OW 1324   1.758   2.389   3.034  0.4628  0.3995  0.3066
  442SOL    HW1 1325   1.830   2.320   3.025 -4.2701  1.0831  1.0198
  442SOL    HW2 1326   1.766   2.434   0.028 -2.2903  0.1891  1.5997
  443SOL     OW 1327   0.362   1.148   3.064 -0.1657  0.5536  0.4322
  443SOL    HW1 1328   0.375   1.045   3.054  0.0416 -1.4902  0.6843
  443SOL    HW2 1329   0.305   1.167   0.047 -0.7827  0.4291  1.7019
  444SOL     OW 1330   1.308   1.523   1.981 -0.0615  0.1187  0.1031
  444SOL    HW1 1331   1.248   1.547   1.900 -0.0956 -0.1393 -0.6619
  444SOL    HW2 1332   1.250   1.490   2.056  0.9822 -2.3286 -2.7817
  445SOL     OW 1333   0.010   3.081   1.055  0.0489 -0.0859 -0.0969
  445SOL    HW1 1334   0.022   0.087   1.044  0.8681 -3.1151 -0.7028
  445SOL    HW2 1335   0.028   3.058   1.153 -0.3750 -2.0853 -0.7825
  446SOL     OW 1336   2.508   0.706   1.301 -0.3333 -0.5683 -0.6289
  446SOL    HW1 1337   2.564   0.781   1.337 -0.1471  0.8484 -0.6897
  446SOL    HW2 1338   2.429   0.744   1.249  0.7219 -0.0444 -1.3994
  447SOL     OW 1339   0.316   0.707   3.080  0.1728 -0.3299  0.1343
  447SOL    HW1 1340   0.390   0.634   3.092 -1.6507 -0.1764  0.2632
  447SOL    HW2 1341   0.264   0.686   2.997 -0.7811 -1.2499  0.0447
  448SOL     OW 1342   1.346   2.336   1.635  0.3194  0.3629 -0.0183
  448SOL    HW1 1343   1.398   2.397   1.699  0.0164  0.9045  2.0192
  448SOL    HW2 1344   1.310   2.398   1.563  1.3153 -0.7054 -0.0656
  449SOL     OW 1345   1.279   1.150   0.609  0.1272  0.1594  0.1173
  449SOL    HW1 1346   1.311   1.195   0.688  1.0409 -0.1495 -4.9982
  449SOL    HW2 1347   1.238   1.061   0.636 -0.5591  0.0021  0.4562
  450SOL     OW 1348   2.543   1.804   1.822 -0.1001 -0.4044 -0.4503
  450SOL    HW1 1349   2.637   1.802   1.862  0.1441 -0.8314 -0.7360
  450SOL    HW2 1350   2.474   1.835   1.890  0.3596  0.0300 -1.9199
  451SOL     OW 1351   2.648   1.353   2.881  0.1555  0.7822  0.6597
  451SOL    HW1 1352   2.556   1.331   2.838 -0.4410  1.4387  3.0059
  451SOL    HW2 1353   2.708   1.270   2.876 -0.6995  1.1827 -1.6152
  452SOL     OW 1354   1.751   0.671   1.293 -0.7456  0.1357  0.3027
  452SOL    HW1 1355   1.659   0.647   1.252 -0.8517  0.5482  0.1210
  452SOL    HW2 1356   1.774   0.770   1.287 -0.0789  0.6232  2.4980
  453SOL     OW 1357   1.989   1.117   1.098 -0.0147  0.4623 -0.4234
  453SOL    HW1 1358   1.912   1.086   1.041  0.9939 -2.3547 -1.6223
  453SOL    HW2 1359   2.042   1.194   1.056 -1.3514  0.6831  0.6999
  454SOL     OW 1360   2.888   0.951   0.269 -0.4804  0.0326 -0.2883
  454SOL    HW1 1361   2.969   1.009   0.295  0.2799 -0.5035  0.4206
  454SOL    HW2 1362   2.793   0.988   0.289  1.1195  1.2050 -1.5717
  455SOL     OW 1363   2.604   1.700   1.082  0.4832  0.2099  0.1215
  455SOL    HW1 1364   2.609   1.605   1.037 -0.9302  0.5335  0.9697
  455SOL    HW2 1365   2.693   1.738   1.110  0.3955 -0.5888 -2.1155
  456SOL     OW 1366   0.752   3.085   1.293 -0.3093  0.3384  0.7280
  456SOL    HW1 1367   0.656   0.003   1.319  0.6780  2.5106  1.7037
  456SOL    HW2 1368   0.795   3.050   1.375 -2.5428  0.4638 -1.8149
  457SOL     OW 1369   1.858   2.827   0.787 -0.3141  0.0301  0.2745
  457SOL    HW1 1370   1.879   2.823   0.687  2.2971 -1.1899  0.3914
  457SOL    HW2 1371   1.761   2.857   0.803  0.3513  0.6491  1.7846
  458SOL     OW 1372   2.602   0.330   0.657  0.0789  0.4197 -0.3417
  458SOL    HW1 1373   2.592   0.258   0.732 -2.3012 -1.4055 -0.5321
  458SOL    HW2 1374   2.603   0.421   0.704 -1.3735  1.3377  0.0528
  459SOL     OW 1375   2.125   0.631   3.056 -0.0737 -0.7283 -0.4115
  459SOL    HW1 1376   2.097   0.725   3.084  0.7157  1.0153 -0.5795
  459SOL    HW2 1377   2.195   0.587   0.020  0.1781 -0.0496  0.6796
  460SOL     OW 1378   3.027   2.603   2.753 -0.2822  0.5407 -0.6700
  460SOL    HW1 1379   3.004   2.701   2.771  1.7533 -0.8263 -4.0587
  460SOL    HW2 1380   2.940   2.545   2.746 -0.2759 -1.1649  1.2946
  461SOL     OW 1381   0.765   1.800   0.174 -0.5144 -0.4219 -0.2073
  461SOL    HW1 1382   0.733   1.809   0.265  1.0292  0.9503 -1.9064
  461SOL    HW2 1383   0.692   1.765   0.111  0.8384 -2.3342 -1.0935
  462SOL     OW 1384   2.248   2.255   0.860 -0.7934 -0.0322  0.4184
  462SOL    HW1 1385   2.248   2.331   0.798  1.9463 -0.0414  2.0191
  462SOL    HW2 1386   2.263   2.284   0.957  0.2279  0.3981  0.4234
  463SOL     OW 1387   0.038   0.436   0.449 -0.1078 -0.6041  0.5637
  463SOL    HW1 1388   0.079   0.528   0.468  0.5065  1.0133  0.7599
  463SOL    HW2 1389   0.010   0.412   0.353  0.2523 -2.7311 -3.7446
  464SOL     OW 1390   0.944   2.527   0.481 -0.0538  0.2867 -1.0365
  464SOL    HW1 1391   0.912   2.502   0.574 -0.7815 -1.6596 -1.5204
  464SOL    HW2 1392   0.861   2.571   0.434  1.8167  0.3339  0.0549
  465SOL     OW 1393   2.456   0.728   0.647 -0.1676 -0.2667  0.0422
  465SOL    HW1 1394   2.427   0.824   0.658  2.7257 -1.2431  0.2246
  465SOL    HW2 1395   2.543   0.725   0.587  3.6441 -2.1333 -0.3748
  466SOL     OW 1396   2.064   0.025   0.017 -0.3059 -0.2647 -0.9209
  466SOL    HW1 1397   2.061   0.098   3.042 -0.2709  1.2776  1.3466
  466SOL    HW2 1398   2.080   3.031   3.072  0.6843  2.6964  0.6246
  467SOL     OW 1399   1.186   0.337   1.811 -0.3396 -0.1090  0.4815
  467SOL    HW1 1400   1.121   0.388   1.875  1.0743 -3.1349 -1.7233
  467SOL    HW2 1401   1.283   0.372   1.823  0.6348  0.2694  2.5903
  468SOL     OW 1402   3.096   0.487   2.188  0.6137  0.4666  0.2760
  468SOL    HW1 1403   0.020   0.422   2.263  1.3263 -1.5152  0.3401
  468SOL    HW2 1404   0.024   0.446   2.095  0.9692  1.2342  1.9938
  469SOL     OW 1405   0.765   2.977   2.713  0.3913 -0.0532 -0.4925
  469SOL    HW1 1406   0.755   2.915   2.793  1.5413  0.1677 -1.7083
  469SOL    HW2 1407   0.667   3.004   2.687  0.7530 -1.7759 -0.7800
  470SOL     OW 1408   1.667   1.431   2.236 -0.3302  0.0552 -0.1880
  470SOL    HW1 1409   1.594   1.502   2.249  1.4029  3.6217 -0.2328
  470SOL    HW2 1410   1.749   1.470   2.188 -0.9199  0.1820  1.9018
  471SOL     OW 1411   2.791   1.101   2.866  0.2991  0.6952 -0.0976
  471SOL    HW1 1412   2.887   1.064   2.853  2.4280 -2.1291  2.0451
  471SOL    HW2 1413   2.745   1.046   2.938  2.5655  1.3536  0.1306
  472SOL     OW 1414   0.271   2.509   0.348  0.5491 -0.3509 -0.6327
  472SOL    HW1 1415   0.219   2.492   0.432  2.0228  2.6757  0.2613
  472SOL    HW2 1416   0.267   2.425   0.289 -0.2226  0.8261  1.0460
  473SOL     OW 1417   0.766   0.231   3.004  0.1618  0.2648  0.0344
  473SOL    HW1 1418   0.741   0.145   3.054 -0.5140 -3.3909 -0.0803
  473SOL    HW2 1419   0.689   0.293   3.008  4.3115 -0.0423  0.4436
  474SOL     OW 1420   1.684   0.034   2.191 -0.3265 -0.3785  0.1398
  474SOL    HW1 1421   1.588   0.063   2.170  1.4341  0.3604 -2.2538
  474SOL    HW2 1422   1.709   0.076   2.283 -0.3986  0.1886  1.5769
  475SOL     OW 1423   0.809   2.737   0.338  0.3593 -0.2434  0.3701
  475SOL    HW1 1424   0.875   2.803   0.297  0.4532 -0.2862 -1.6013
  475SOL    HW2 1425   0.735   2.785   0.394 -1.3904  3.1967  0.4106
  476SOL     OW 1426   0.533   0.743   0.802  0.0859  0.5266 -0.0783
  476SOL    HW1 1427   0.463   0.807   0.762 -0.5035  0.9457  2.7214
  476SOL    HW2 1428   0.595   0.695   0.735  0.5657  0.9832 -1.9296
  477SOL     OW 1429   1.943   2.026   1.483  0.0320  0.3401  0.6771
  477SOL    HW1 1430   1.848   2.004   1.511  1.0293 -0.2206 -1.7651
  477SOL    HW2 1431   1.996   2.064   1.556 -0.0975 -2.7185 -0.7261
  478SOL     OW 1432   0.498   1.250   2.058 -0.2609  0.0361 -0.4052
  478SOL    HW1 1433   0.530   1.157   2.031 -0.0153  0.7423  0.2304
  478SOL    HW2 1434   0.400   1.263   2.036 -1.0192 -1.1395  0.7982
  479SOL     OW 1435   0.645   3.064   0.802  0.7359  0.1528  0.0310
  479SOL    HW1 1436   0.676   0.039   0.732  0.8280 -2.1027 -1.6507
  479SOL    HW2 1437   0.547   3.029   0.777  0.3365 -1.1858 -1.6806
  480SOL     OW 1438   2.221   2.646   2.944  0.1917 -0.1301  0.6626
  480SOL    HW1 1439   2.165   2.559   2.926 -1.0699 -0.0086 -1.6614
  480SOL    HW2 1440   2.260   2.672   2.853 -3.2040  0.1914  0.6794
  481SOL     OW 1441   2.758   0.612   1.231  0.1807  0.1511  0.3064
  481SOL    HW1 1442   2.672   0.662   1.253  1.1750 -0.5305 -2.0013
  481SOL    HW2 1443   2.774   0.532   1.293  1.2265 -0.4451  1.2916
  482SOL     OW 1444   1.438   2.577   1.801 -0.0999  0.6216  0.0076
  482SOL    HW1 1445   1.499   2.575   1.719  3.2599 -2.5657  0.0843
  482SOL    HW2 1446   1.509   2.580   1.876 -2.2062  1.3981 -0.6550
  483SOL     OW 1447   0.179   1.581   2.796  0.1119 -0.5034 -0.3413
  483SOL    HW1 1448   0.212   1.541   2.703  0.1493 -0.7487 -3.6493
  483SOL    HW2 1449   0.101   1.527   2.838  0.4168  1.6993  0.7342
  484SOL     OW 1450   1.103   2.001   2.261 -0.1225 -0.0833  0.6701
  484SOL    HW1 1451   1.129   2.018   2.163  3.5968  2.9433  1.6119
  484SOL    HW2 1452   1.086   2.095   2.300  0.1274  0.1963  0.9267
  485SOL     OW 1453   2.931   0.157   2.457  0.5326  0.1468  0.1413
  485SOL    HW1 1454   2.990   0.229   2.497 -0.6347 -0.8169 -0.4338
  485SOL    HW2 1455   2.980   0.112   2.377 -0.2534 -0.8888  0.1526
  486SOL     OW 1456   1.603   3.074   0.352  0.1825 -0.2143 -0.0248
  486SOL    HW1 1457   1.642   0.047   0.415 -1.2044 -1.9156  1.1525
  486SOL    HW2 1458   1.506   0.001   0.318  1.0248  1.4422 -1.9364
  487SOL     OW 1459   1.322   2.639   1.068  0.5851 -0.1300  0.0287
  487SOL    HW1 1460   1.251   2.598   1.006  1.5886  2.0615 -2.2949
  487SOL    HW2 1461   1.289   2.710   1.132 -0.6217 -0.2848  0.1154
  488SOL     OW 1462   2.039   0.939   0.637 -0.0285 -0.3687 -0.4714
  488SOL    HW1 1463   2.078   0.919   0.545 -0.7732 -2.2342  0.8193
  488SOL    HW2 1464   2.061   1.036   0.668 -1.2657  3.2189  2.5120
  489SOL     OW 1465   1.114   2.787   1.235  0.3916 -0.1331  0.4976
  489SOL    HW1 1466   1.063   2.699   1.250 -0.1881 -0.1524 -0.2865
  489SOL    HW2 1467   1.136   2.831   1.323  1.0808  1.8156 -0.9961
  490SOL     OW 1468   0.971   0.914   0.470  0.0502 -0.0892 -0.6147
  490SOL    HW1 1469   1.004   0.890   0.565 -0.9882 -1.4635  0.9279
  490SOL    HW2 1470   1.022   0.869   0.401 -0.0123  1.4298 -0.2655
  491SOL     OW 1471   1.398   2.872   0.084 -0.7338 -0.2051  0.6185
  491SOL    HW1 1472   1.357   2.955   0.123  3.2424 -0.9230  0.4707
  491SOL    HW2 1473   1.325   2.808   0.046 -0.6248 -2.1900 -0.5248
  492SOL     OW 1474   1.235   1.157   2.300 -0.2804  0.3587 -0.0012
  492SOL    HW1 1475   1.223   1.258   2.281  1.3957  0.7275  0.0454
  492SOL    HW2 1476   1.163   1.104   2.251 -0.1054  1.8388 -3.4593
  493SOL     OW 1477   0.019   1.882   0.377  0.1689  0.2717 -0.4613
  493SOL    HW1 1478   3.024   1.837   0.394 -1.8027  3.3854  0.4214
  493SOL    HW2 1479   0.092   1.824   0.422  2.5466 -1.4853 -1.1002
  494SOL     OW 1480   2.163   1.455   0.430 -0.1585 -0.2786 -0.0865
  494SOL    HW1 1481   2.107   1.518   0.489 -0.2061 -1.2862 -0.4765
  494SOL    HW2 1482   2.119   1.426   0.342  0.9721  0.6861 -1.8025
  495SOL     OW 1483   2.996   0.952   2.722  0.3291  0.6018  0.6230
  495SOL    HW1 1484   2.995   0.945   2.616  1.4775 -0.4485 -3.5605
  495SOL    HW2 1485   3.075   1.004   2.757  0.1957 -0.3295  1.3318
  496SOL     OW 1486   2.860   2.941   2.446  0.1338  0.0555  0.0146
  496SOL    HW1 1487   2.848   3.032   2.404 -1.2290 -0.0280  1.1952
  496SOL    HW2 1488   2.790   2.874   2.416  0.0718  0.9051 -0.0361
  497SOL     OW 1489   2.676   0.937   0.684 -0.2850 -0.3485  0.1545
  497SOL    HW1 1490   2.694   0.863   0.615 -0.7490 -3.2420 -2.0276
  497SOL    HW2 1491   2.609   1.009   0.649  0.1079  0.9963  0.5220
  498SOL     OW 1492   0.072   2.554   3.096  0.1886 -0.0450  0.2436
  498SOL    HW1 1493   0.147   2.487   3.094 -4.0238  1.7303 -0.4166
  498SOL    HW2 1494   0.112   2.647   3.095  1.1499  1.2385  0.3802
  499SOL     OW 1495   1.145   2.496   0.883  0.2417 -0.1961  0.4235
  499SOL    HW1 1496   1.218   2.551   0.829  1.6561 -1.4184 -0.3817
  499SOL    HW2 1497   1.136   2.401   0.847 -2.1216 -1.1935 -0.1241
  500SOL     OW 1498   0.953   0.359   2.494  0.0003 -0.4665 -0.2606
  500SOL    HW1 1499   0.920   0.301   2.570 -0.6191  0.0154  1.9626
  500SOL    HW2 1500   1.009   0.436   2.533  2.9849  1.2467 -1.5613
  501SOL     OW 1501   1.047   0.168   1.402  0.5184  0.3673  0.2317
  501SOL    HW1 1502   1.130   0.105   1.388  0.0244 -1.0025  3.0493
  501SOL    HW2 1503   0.968   0.123   1.444  2.2120  3.0914  0.4998
  502SOL     OW 1504   3.054   0.082   2.239 -0.0154 -0.5576  0.3716
  502SOL    HW1 1505   0.002   3.087   2.217 -1.0171  2.1201 -2.3629
  502SOL    HW2 1506   0.029   0.148   2.272 -2.0755  1.1101 -0.3876
  503SOL     OW 1507   1.703   2.221   2.099 -0.1841  0.2308 -0.2422
  503SOL    HW1 1508   1.632   2.194   2.170  0.6553  1.0815  1.5025
  503SOL    HW2 1509   1.719   2.140   2.047  0.1059  1.6719  3.9931
  504SOL     OW 1510   2.103   3.061   1.641  0.7493  0.7130 -0.9389
  504SOL    HW1 1511   2.170   3.090   1.714 -2.5174  0.3022  0.8341
  504SOL    HW2 1512   2.080   0.040   1.574 -0.1646  2.7138 -0.7962
  505SOL     OW 1513   2.770   1.111   1.762  0.1061 -0.1798 -0.0059
  505SOL    HW1 1514   2.848   1.051   1.738  0.5772  0.0509  0.1857
  505SOL    HW2 1515   2.769   1.202   1.714  1.6565  5.5353 -1.4144
  506SOL     OW 1516   0.232   1.538   2.517  0.5859 -0.0773  0.4341
  506SOL    HW1 1517   0.193   1.456   2.476  0.1712  0.5426  1.1338
  506SOL    HW2 1518   0.328   1.556   2.493  0.5932  0.1424  1.4361
  507SOL     OW 1519   0.270   2.975   1.679  0.3157 -0.4008 -0.2089
  507SOL    HW1 1520   0.307   3.067   1.661  1.7847  0.2358  1.7500
  507SOL    HW2 1521   0.272   2.921   1.590  0.6137  4.2064  0.5839
  508SOL     OW 1522   1.431   0.733   1.464 -0.0703 -0.5106  0.0858
  508SOL    HW1 1523   1.444   0.827   1.423  1.1274  1.1767 -1.1850
  508SOL    HW2 1524   1.515   0.693   1.508  0.5001  2.8700  0.3193
  509SOL     OW 1525   1.191   1.895   1.051 -0.6049 -0.1440 -0.2342
  509SOL    HW1 1526   1.151   1.980   1.092 -0.7202  2.1927 -1.7755
  509SOL    HW2 1527   1.134   1.814   1.064 -2.2985  1.2035  1.3773
  510SOL     OW 1528   2.502   1.037   2.788 -0.0445  0.5998 -0.3432
  510SOL    HW1 1529   2.533   0.950   2.745  0.8324  1.0703  0.0535
  510SOL    HW2 1530   2.573   1.072   2.854  2.8908  2.1202  1.5250
  511SOL     OW 1531   0.655   1.336   1.293  0.5367 -0.3916 -0.0115
  511SOL    HW1 1532   0.687   1.299   1.386  1.8055 -0.6453 -0.9153
  511SOL    HW2 1533   0.584   1.276   1.251  0.2007 -0.4119 -0.5187
  512SOL     OW 1534   2.601   2.643   0.468  0.4570  0.4206 -0.0867
  512SOL    HW1 1535   2.580   2.557   0.520 -0.6869  0.3218 -0.1771
  512SOL    HW2 1536   2.585   2.617   0.375 -2.3583  3.6738  5.5607
  513SOL     OW 1537   0.344   1.742   2.998 -0.2878 -0.1090 -0.3869
  513SOL    HW1 1538   0.293   1.756   3.083  1.5978 -2.2996 -3.2812
  513SOL    HW2 1539   0.296   1.680   2.930  1.6700  2.8851 -0.7973
  514SOL     OW 1540   0.219   2.625   2.838 -0.1916 -0.3498 -0.1496
  514SOL    HW1 1541   0.125   2.638   2.799 -3.0579  0.6714  0.9992
  514SOL    HW2 1542   0.239   2.696   2.910  0.1852  3.1130  1.9081
  515SOL     OW 1543   1.504   1.031   2.264  0.5082 -0.6228 -0.1625
  515SOL    HW1 1544   1.422   1.077   2.286  2.0841 -2.7877  0.4916
  515SOL    HW2 1545   1.541   1.000   2.355 -0.8073  1.8211 -1.1472
  516SOL     OW 1546   2.038   2.155   0.733  0.0371  0.4871 -0.2469
  516SOL    HW1 1547   2.064   2.053   0.717  0.0756 -0.2533 -0.5977
  516SOL    HW2 1548   2.116   2.205   0.786  0.4424  1.1671 -0.5152
  517SOL     OW 1549   1.350   1.479   0.603 -0.2568 -0.6174 -0.2842
  517SOL    HW1 1550   1.409   1.447   0.681  0.3166  2.1062  1.8388
  517SOL    HW2 1551   1.403   1.518   0.522  0.0295 -1.9802  0.3261
  518SOL     OW 1552   2.112   2.449   2.189  0.3210  0.1902  0.0596
  518SOL    HW1 1553   2.039   2.516   2.166  0.5013 -2.2844  1.3840
  518SOL    HW2 1554   2.160   2.477   2.271  1.3057 -0.9197 -3.7538
  519SOL     OW 1555   1.907   2.161   1.254 -0.1765 -0.9620  0.3926
  519SOL    HW1 1556   1.915   2.131   1.354  0.1506  1.0680  0.6277
  519SOL    HW2 1557   1.955   2.254   1.242  0.2531  2.4051  0.3558
  520SOL     OW 1558   2.775   2.267   2.561  0.5035  0.0075  0.4963
  520SOL    HW1 1559   2.866   2.305   2.547  0.3227 -0.1000  0.0097
  520SOL    HW2 1560   2.723   2.252   2.472 -2.8868  1.3893  0.4155
  521SOL     OW 1561   0.208   1.236   2.067 -0.0047 -0.3766  0.2081
  521SOL    HW1 1562   0.162   1.274   1.983 -0.2580  0.0010  1.1509
  521SOL    HW2 1563   0.211   1.303   2.143  4.4268 -1.5505 -0.3728
  522SOL     OW 1564   0.727   0.472   2.350 -0.0901  0.3947 -0.2389
  522SOL    HW1 1565   0.688   0.394   2.293 -0.1401 -1.8536 -0.0562
  522SOL    HW2 1566   0.815   0.448   2.393  0.0769  0.3431 -0.3827
  523SOL     OW 1567   0.544   2.215   0.913 -0.1212 -0.6102  0.0067
  523SOL    HW1 1568   0.538   2.114   0.929  0.8468 -2.5477 -0.0956
  523SOL    HW2 1569   0.519   2.242   0.818 -1.0732 -0.1812 -1.4403
  524SOL     OW 1570   1.784   2.879   0.291  0.8385 -0.4890  0.1029
  524SOL    HW1 1571   1.871   2.925   0.278 -2.4258  1.9940 -0.9765
  524SOL    HW2 1572   1.718   2.950   0.321 -1.1885  0.5040  1.2224
  525SOL     OW 1573   2.336   0.751   1.609  0.3123 -0.2332 -0.3661
  525SOL    HW1 1574   2.288   0.730   1.517  0.7678 -1.6130 -4.5547
  525SOL    HW2 1575   2.325   0.849   1.623 -0.0608  0.3064 -2.3991
  526SOL     OW 1576   0.943   2.723   0.693  0.6487 -0.5290  0.0109
  526SOL    HW1 1577   0.918   2.629   0.728 -0.3104 -0.3368 -1.5232
  526SOL    HW2 1578   1.005   2.711   0.612  1.3568 -0.9794 -1.7827
  527SOL     OW 1579   2.512   2.513   0.217 -0.1086  0.6450 -0.1934
  527SOL    HW1 1580   2.417   2.477   0.203  0.3179  3.0748  0.6766
  527SOL    HW2 1581   2.577   2.450   0.168 -2.0555 -0.8463 -0.7457
  528SOL     OW 1582   2.525   0.121   0.349  0.1041  0.2675  0.1149
  528SOL    HW1 1583   2.586   0.039   0.366  1.0965 -2.5863 -0.9037
  528SOL    HW2 1584   2.463   0.145   0.426  3.3697 -4.0477 -1.7717
  529SOL     OW 1585   1.434   1.562   2.428 -0.0477 -0.4697  0.0208
  529SOL    HW1 1586   1.521   1.612   2.448  0.0005  1.4086 -0.2961
  529SOL    HW2 1587   1.376   1.627   2.373  1.0110  0.2055  2.5577
  530SOL     OW 1588   2.322   0.507   0.077 -0.2611 -0.3304 -0.0497
  530SOL    HW1 1589   2.256   0.426   0.082  0.3472 -1.8566  0.5044
  530SOL    HW2 1590   2.377   0.496   0.167 -1.6612  1.7702  0.5123
  531SOL     OW 1591   1.485   1.062   3.045  0.2294 -0.2286  0.0711
  531SOL    HW1 1592   1.478   1.074   0.050 -3.4832  0.7068  1.4192
  531SOL    HW2 1593   1.389   1.067   3.003 -2.1775 -0.2408 -1.1191
  532SOL     OW 1594   1.699   0.458   0.714  0.0358  0.5997  0.1336
  532SOL    HW1 1595   1.801   0.466   0.706  1.9270 -0.5231  2.5433
  532SOL    HW2 1596   1.646   0.450   0.626 -2.3287 -1.9866 -0.3065
  533SOL     OW 1597   1.017   0.733   1.978 -0.0650 -0.0124 -0.1039
  533SOL    HW1 1598   0.978   0.765   2.065  3.2377 -0.4520  1.0696
  533SOL    HW2 1599   0.980   0.787   1.899 -0.4552 -2.0627  0.9455
  534SOL     OW 1600   1.548   0.404   2.722  0.0127 -0.0523  0.7933
  534SOL    HW1 1601   1.516   0.457   2.801 -2.5911 -0.8536  0.1600
  534SOL    HW2 1602   1.567   0.309   2.748  0.9355 -1.6233 -3.2279
  535SOL     OW 1603   0.353   0.303   0.417 -0.0688  0.1458  0.9012
  535SOL    HW1 1604   0.360   0.201   0.396 -0.0948 -0.0659 -1.4648
  535SOL    HW2 1605   0.321   0.358   0.335 -2.4720 -1.1740 -1.3947
  536SOL     OW 1606   0.755   0.269   0.663  0.4429 -0.2757 -0.1158
  536SOL    HW1 1607   0.693   0.267   0.581 -0.4345 -0.8537  0.3417
  536SOL    HW2 1608   0.797   0.364   0.670  0.6057  1.6666  1.1501
  537SOL     OW 1609   1.799   0.809   0.687 -0.2263  0.1241 -0.2464
  537SOL    HW1 1610   1.885   0.855   0.670 -1.6032 -0.3482 -1.0517
  537SOL    HW2 1611   1.797   0.751   0.774 -0.5656  1.1731  1.8123
  538SOL     OW 1612   2.930   2.110   0.107  0.0927  0.4163 -0.0482
  538SOL    HW1 1613   2.834   2.065   0.095 -1.2323 -2.7169 -0.2912
  538SOL    HW2 1614   3.005   2.064   0.049  0.6377 -0.6673  1.6545
  539SOL     OW 1615   2.110   1.733   0.207 -0.3233  0.2587 -0.5653
  539SOL    HW1 1616   2.196   1.725   0.260  0.8902 -0.4154 -0.8102
  539SOL    HW2 1617   2.100   1.670   0.127 -2.0574 -0.2548 -0.6418
  540SOL     OW 1618   0.325   2.559   1.411  0.3968  0.2481 -0.1536
  540SOL    HW1 1619   0.236   2.516   1.434 -1.4247  1.1926 -0.5899
  540SOL    HW2 1620   0.324   2.581   1.311 -1.2478 -0.2702 -2.4465
  541SOL     OW 1621   1.954   0.092   2.091 -0.2190  0.0849 -0.0433
  541SOL    HW1 1622   1.950   0.041   2.007  1.4219  0.5702 -0.3518
  541SOL    HW2 1623   1.861   0.107   2.127 -2.1732 -1.6464  2.7305
  542SOL     OW 1624   2.745   0.475   2.682  0.3069 -0.3494 -0.3979
  542SOL    HW1 1625   2.761   0.473   2.784  2.1106 -0.0139  0.5921
  542SOL    HW2 1626   2.751   0.572   2.645 -0.7230  2.4972 -2.3277
  543SOL     OW 1627   0.131   1.291   1.025 -0.0577  0.7631 -0.5591
  543SOL    HW1 1628   0.076   1.338   0.957  1.2340  1.3965  1.6604
  543SOL    HW2 1629   0.145   1.193   1.002 -1.9051  0.5065 -0.8199
  544SOL     OW 1630   2.821   0.299   1.092  0.4096  0.1032  0.2936
  544SOL    HW1 1631   2.728   0.344   1.086  0.2527  0.2793 -1.2132
  544SOL    HW2 1632   2.872   0.314   1.002 -0.9943 -1.5153 -0.5795
  545SOL     OW 1633   1.512   2.463   0.596  0.0281  0.2440 -0.2849
  545SOL    HW1 1634   1.467   2.512   0.516  1.7780 -0.1828  0.1152
  545SOL    HW2 1635   1.504   2.361   0.581  1.7603 -2.2670 -0.4685
  546SOL     OW 1636   2.044   2.787   1.584 -0.5457 -0.1322  0.6456
  546SOL    HW1 1637   2.097   2.716   1.636 -0.5680 -0.3880  1.7231
  546SOL    HW2 1638   2.079   2.877   1.600 -1.1384 -0.6424 -2.9862
  547SOL     OW 1639   0.229   0.186   1.933  0.1481 -0.1202 -0.1699
  547SOL    HW1 1640   0.185   0.100   1.965 -1.0924 -1.0171 -1.3744
  547SOL    HW2 1641   0.324   0.203   1.974  1.5166 -1.6689 -0.4852
  548SOL     OW 1642   1.780   1.446   2.887  0.6280  0.0046 -0.5261
  548SOL    HW1 1643   1.702   1.416   2.945  0.2156 -1.0777 -0.0422
  548SOL    HW2 1644   1.860   1.380   2.886  3.0999 -0.1850  0.6884
  549SOL     OW 1645   0.001   1.104   0.389 -0.1206  0.0138  0.0921
  549SOL    HW1 1646   3.006   1.134   0.427 -0.3082 -1.2310  1.8475
  549SOL    HW2 1647   0.038   1.166   0.322  0.2536 -1.1082  0.7719
  550SOL     OW 1648   1.756   2.180   0.869 -0.3986 -0.4240 -0.0541
  550SOL    HW1 1649   1.831   2.150   0.816 -1.5417 -0.3870  0.6660
  550SOL    HW2 1650   1.737   2.281   0.856  0.7371 -1.8902 -0.7348
  551SOL     OW 1651   1.396   0.495   0.761  0.1545 -0.2178  0.3442
  551SOL    HW1 1652   1.304   0.485   0.812 -0.4620 -0.3448  3.8426
  551SOL    HW2 1653   1.477   0.476   0.822 -0.0943  2.3999  0.7181
  552SOL     OW 1654   2.672   2.735   2.368  0.2085 -0.4035  0.3003
  552SOL    HW1 1655   2.727   2.698   2.290  1.2638 -1.0280  0.5759
  552SOL    HW2 1656   2.578   2.727   2.338 -0.9001  0.7054 -0.5952
  553SOL     OW 1657   0.045   2.974   2.465 -0.6442  0.0236 -0.1917
  553SOL    HW1 1658   0.086   2.943   2.378  3.6294  0.5760 -0.9877
  553SOL    HW2 1659   3.039   2.981   2.461 -4.0093 -0.0423  0.8185
  554SOL     OW 1660   1.064   2.979   1.056  0.0111  0.3682  0.6877
  554SOL    HW1 1661   0.960   2.971   1.053 -0.7142 -1.2638  1.1282
  554SOL    HW2 1662   1.107   2.912   1.120 -0.2387 -0.7759 -0.4123
  555SOL     OW 1663   2.425   2.449   2.179 -0.5926  0.2714 -0.4039
  555SOL    HW1 1664   2.410   2.550   2.186  0.6655  2.0865 -0.7119
  555SOL    HW2 1665   2.499   2.433   2.114 -0.9176 -1.1276  1.1087
  556SOL     OW 1666   1.193   0.274   2.727  1.1394 -0.1322 -0.0750
  556SOL    HW1 1667   1.218   0.350   2.667 -2.5609  1.3516 -2.6541
  556SOL    HW2 1668   1.183   0.187   2.677  1.2627  1.5045  0.7383
  557SOL     OW 1669   0.112   1.774   2.466 -0.6394  0.5087  0.1374
  557SOL    HW1 1670   0.175   1.834   2.517  2.0878 -1.9586 -1.9559
  557SOL    HW2 1671   0.148   1.677   2.484  0.1266 -3.2447 -1.2840
  558SOL     OW 1672   2.139   0.984   2.384 -0.2820 -0.2693  0.2430
  558SOL    HW1 1673   2.205   0.909   2.394 -1.9334  0.1308 -0.6660
  558SOL    HW2 1674   2.138   1.027   2.293 -1.4702 -0.7230  4.6823
  559SOL     OW 1675   2.544   2.036   2.366 -0.2303 -0.1398  0.3817
  559SOL    HW1 1676   2.537   2.137   2.371 -0.2650 -0.4962 -0.5846
  559SOL    HW2 1677   2.596   2.019   2.280 -2.2886  0.1489 -2.1324
  560SOL     OW 1678   2.543   0.871   2.237 -1.0047  0.1536 -0.9263
  560SOL    HW1 1679   2.455   0.823   2.262 -2.0127  0.4509 -1.0851
  560SOL    HW2 1680   2.525   0.938   2.163 -2.4264 -1.6795  0.4392
  561SOL     OW 1681   0.273   0.443   0.173  0.1033  0.3127 -0.5813
  561SOL    HW1 1682   0.209   0.433   0.096  0.2766 -0.4704  0.5996
  561SOL    HW2 1683   0.346   0.516   0.151  2.8171  1.7169 -0.5686
  562SOL     OW 1684   1.146   1.318   1.485 -0.2845 -0.1854  0.0227
  562SOL    HW1 1685   1.111   1.412   1.509  2.2311  0.3963  0.6206
  562SOL    HW2 1686   1.066   1.256   1.483  0.0102 -0.4672 -0.5802
  563SOL     OW 1687   1.566   3.008   2.683 -0.3298  0.5216  0.1103
  563SOL    HW1 1688   1.473   2.991   2.728  0.8563 -3.0752 -1.3785
  563SOL    HW2 1689   1.628   2.938   2.722  0.0312  3.0177 -0.0562
  564SOL     OW 1690   0.231   2.038   0.988 -0.1834  0.0647 -0.8905
  564SOL    HW1 1691   0.205   2.065   1.084 -2.0882  1.5875  1.6261
  564SOL    HW2 1692   0.326   1.997   0.979  1.4643  1.2127  0.3738
  565SOL     OW 1693   0.777   2.473   2.270 -0.0065  0.3370 -0.1616
  565SOL    HW1 1694   0.777   2.486   2.169  2.7492  1.7193  0.8039
  565SOL    HW2 1695   0.708   2.412   2.310 -2.1417 -0.6269  1.1328
  566SOL     OW 1696   1.263   2.503   2.187  0.3767 -0.4647 -0.0305
  566SOL    HW1 1697   1.168   2.469   2.157 -3.0651 -3.2205 -1.3308
  566SOL    HW2 1698   1.282   2.594   2.145 -1.6127 -0.8531  3.8058
  567SOL     OW 1699   2.296   2.349   1.119 -0.0387  0.5601  0.2416
  567SOL    HW1 1700   2.209   2.397   1.125  2.2952 -0.7364 -1.9537
  567SOL    HW2 1701   2.290   2.270   1.183  0.0520  0.6907  0.2791
  568SOL     OW 1702   1.974   0.642   0.436  0.3505 -0.0836  0.2278
  568SOL    HW1 1703   2.027   0.725   0.423 -0.7474 -2.5776 -0.8591
  568SOL    HW2 1704   1.965   0.616   0.531  0.3533  1.8365 -1.6699
  569SOL     OW 1705   2.824   1.636   2.689 -0.2016 -0.0072  0.6536
  569SOL    HW1 1706   2.727   1.645   2.654  2.7354  0.9392 -1.3409
  569SOL    HW2 1707   2.826   1.590   2.780  1.2961 -0.8454  0.1085
  570SOL     OW 1708   0.041   0.243   1.008  0.1964  0.1408 -0.8113
  570SOL    HW1 1709   0.062   0.317   1.071 -1.9719 -0.7371  0.0748
  570SOL    HW2 1710   3.059   0.272   0.950  0.4226 -2.8546  0.3156
  571SOL     OW 1711   2.986   0.536   1.698  0.2694  0.1431 -0.3163
  571SOL    HW1 1712   2.971   0.635   1.734 -0.4505  3.0355 -0.3397
  571SOL    HW2 1713   2.981   0.465   1.775 -0.3894 -4.9344  2.1195
  572SOL     OW 1714   2.627   2.401   0.595  0.6518  0.0722 -0.4352
  572SOL    HW1 1715   2.664   2.424   0.680 -2.5151 -3.5087 -4.2652
  572SOL    HW2 1716   2.686   2.329   0.545  0.2054 -4.8554  0.0915
  573SOL     OW 1717   0.829   0.803   3.094  0.2975 -0.0767  0.4265
  573SOL    HW1 1718   0.771   0.730   3.055 -1.0558  0.3479  1.0840
  573SOL    HW2 1719   0.774   0.887   0.008 -0.4556 -0.2893  0.1743
  574SOL     OW 1720   3.005   2.890   3.088 -0.4354  0.3967 -0.2222
  574SOL    HW1 1721   2.914   2.843   0.003  0.3505 -1.4845  1.9192
  574SOL    HW2 1722   3.023   2.952   0.070  1.4047  0.1733  2.3954
  575SOL     OW 1723   1.138   2.138   1.166 -0.8214  0.1141 -0.2634
  575SOL    HW1 1724   1.102   2.234   1.147  2.8491  1.7351 -1.8153
  575SOL    HW2 1725   1.241   2.143   1.159  1.3794 -0.1347  0.5028
  576SOL     OW 1726   0.664   2.652   1.104  0.1122  0.1266  0.3327
  576SOL    HW1 1727   0.718   2.730   1.147  0.8884  1.1265  0.2671
  576SOL    HW2 1728   0.678   2.659   1.003 -1.1533 -3.6727  0.3877
  577SOL     OW 1729   2.190   1.648   1.205  0.3353  0.1490  0.5367
  577SOL    HW1 1730   2.171   1.743   1.244 -0.4491  0.7782  0.2493
  577SOL    HW2 1731   2.190   1.650   1.106 -0.9714  2.2019 -0.8021
  578SOL     OW 1732   1.516   0.397   0.512  0.0138 -0.0028  0.3469
  578SOL    HW1 1733   1.502   0.422   0.412 -1.4419 -2.5652 -1.4856
  578SOL    HW2 1734   1.425   0.379   0.550  2.5976 -2.8365  2.3448
  579SOL     OW 1735   2.422   1.363   2.720  0.5048  0.0333 -0.9430
  579SOL    HW1 1736   2.372   1.440   2.681  1.0328  2.5958  0.9615
  579SOL    HW2 1737   2.370   1.279   2.707 -0.7155  0.1654 -0.1840
  580SOL     OW 1738   1.765   0.600   1.778 -0.6475 -0.5350  0.3146
  580SOL    HW1 1739   1.784   0.692   1.823  0.3717  0.5416  1.7025
  580SOL    HW2 1740   1.843   0.536   1.795  0.6200 -2.4984  0.1401
  581SOL     OW 1741   0.739   1.159   0.930  0.3681  0.2358 -0.4755
  581SOL    HW1 1742   0.678   1.236   0.934  0.3470  1.5603 -0.6406
  581SOL    HW2 1743   0.828   1.180   0.977 -1.9725  1.5597 -0.3158
  582SOL     OW 1744   2.541   0.045   2.374  0.2869  0.9195 -0.0164
  582SOL    HW1 1745   2.467   0.029   2.309 -0.3107  1.5662 -0.9656
  582SOL    HW2 1746   2.628   0.056   2.328 -2.1632 -1.4697 -1.1222
  583SOL     OW 1747   2.630   0.607   2.191 -0.0032  0.2940  0.1859
  583SOL    HW1 1748   2.662   0.549   2.270  1.3366 -1.2217  0.6617
  583SOL    HW2 1749   2.613   0.702   2.216  1.6088 -0.7652 -3.4678
  584SOL     OW 1750   1.175   1.881   2.758  0.4368 -0.3449 -0.3497
  584SOL    HW1 1751   1.244   1.920   2.824  1.8396 -1.0710  0.1848
  584SOL    HW2 1752   1.211   1.905   2.667  0.5579  0.4021  0.0208
  585SOL     OW 1753   0.243   3.062   0.065 -0.1188 -0.3064  0.4158
  585SOL    HW1 1754   0.222   3.083   3.064  1.0444  2.6821 -2.5602
  585SOL    HW2 1755   0.238   0.051   0.118  0.2435  0.1758 -1.2482
  586SOL     OW 1756   1.643   2.197   2.573  0.1593 -0.1849 -0.0079
  586SOL    HW1 1757   1.646   2.268   2.649  0.8048 -1.2614 -0.6665
  586SOL    HW2 1758   1.654   2.103   2.612 -2.7047 -0.7207  0.6957
  587SOL     OW 1759   2.379   2.410   0.519 -0.0789 -0.2664 -0.2341
  587SOL    HW1 1760   2.320   2.467   0.580  0.6418  1.5137 -2.0293
  587SOL    HW2 1761   2.476   2.406   0.554  0.8702  1.6680  2.1228
  588SOL     OW 1762   2.556   0.323   1.064 -0.5510 -0.1269  0.2438
  588SOL    HW1 1763   2.566   0.248   0.995 -0.0315  1.6103  0.2954
  588SOL    HW2 1764   2.491   0.392   1.028 -2.1872 -1.1213  0.5575
  589SOL     OW 1765   0.675   0.691   0.549  0.4586 -0.2540  0.0433
  589SOL    HW1 1766   0.689   0.789   0.525  0.5575 -1.3217 -0.4720
  589SOL    HW2 1767   0.583   0.653   0.522  1.5771 -1.6568 -4.0599
  590SOL     OW 1768   2.099   1.901   0.647  0.0207  0.2329  0.0358
  590SOL    HW1 1769   2.192   1.859   0.622  0.5287  1.1573  1.5804
  590SOL    HW2 1770   2.067   1.965   0.576  0.6273 -0.1713  0.3091
  591SOL     OW 1771   0.500   2.366   1.139 -0.4818 -0.2381  0.0150
  591SOL    HW1 1772   0.511   2.322   1.042 -0.9510  1.9768 -4.2027
  591SOL    HW2 1773   0.476   2.467   1.127 -0.3662 -0.3056 -0.2129
  592SOL     OW 1774   1.058   0.799   1.237 -0.7599 -0.6811 -0.2566
  592SOL    HW1 1775   0.967   0.823   1.198  0.1577 -1.9724  0.2842
  592SOL    HW2 1776   1.054   0.738   1.321  1.6666 -0.9722 -1.5533
  593SOL     OW 1777   0.921   1.345   1.253  0.4925 -0.0568  0.0827
  593SOL    HW1 1778   0.818   1.352   1.261 -1.9766  0.7894  2.7243
  593SOL    HW2 1779   0.953   1.267   1.314 -1.4145 -3.6737  2.9161
  594SOL     OW 1780   0.876   2.095   0.499  0.0006  0.4087 -0.5413
  594SOL    HW1 1781   0.921   2.148   0.426  0.0335  1.5499 -1.4452
  594SOL    HW2 1782   0.908   1.998   0.501  0.6130 -1.2553 -2.1391
  595SOL     OW 1783   1.698   0.329   1.227  0.1708  0.5710  0.2883
  595SOL    HW1 1784   1.759   0.335   1.142 -0.5530  1.4841 -4.0524
  595SOL    HW2 1785   1.625   0.399   1.213  0.4463  1.5132  0.9864
  596SOL     OW 1786   0.132   1.669   1.152 -0.0092  0.7607  0.1806
  596SOL    HW1 1787   0.068   1.722   1.207 -0.5414 -2.6002 -0.1665
  596SOL    HW2 1788   0.093   1.646   1.059 -0.7584 -0.2049  0.7456
  597SOL     OW 1789   0.185   2.405   2.437 -0.4881 -0.5166  1.1954
  597SOL    HW1 1790   0.256   2.388   2.367  1.1351  1.5748 -0.1029
  597SOL    HW2 1791   0.230   2.473   2.496 -3.1715 -0.2583 -1.8105
  598SOL     OW 1792   2.833   2.242   1.887 -0.6637 -0.2901  0.1650
  598SOL    HW1 1793   2.930   2.280   1.884  1.7205 -0.4566 -0.2762
  598SOL    HW2 1794   2.809   2.203   1.793  0.3756 -2.8690  0.9932
  599SOL     OW 1795   0.947   0.448   3.060 -0.1612  0.2294  0.0504
  599SOL    HW1 1796   0.951   0.426   0.062  0.6776 -0.1884 -0.8538
  599SOL    HW2 1797   0.875   0.387   3.023 -0.8087 -1.4700  0.2162
  600SOL     OW 1798   0.522   2.513   3.091 -0.3515 -0.2582 -0.2628
  600SOL    HW1 1799   0.501   2.610   3.074 -0.5895  0.7261  0.0383
  600SOL    HW2 1800   0.586   2.475   3.018 -0.4659 -1.0757 -1.2216
  601SOL     OW 1801   0.714   0.588   1.457  0.0067 -0.1146  0.4314
  601SOL    HW1 1802   0.816   0.592   1.470  2.7698 -1.7794  0.0950
  601SOL    HW2 1803   0.682   0.503   1.407  1.1707 -2.3298 -0.7493
  602SOL     OW 1804   0.712   2.764   0.845 -0.1870  0.8112  0.0105
  602SOL    HW1 1805   0.792   2.752   0.785 -0.4381 -1.1896  1.6796
  602SOL    HW2 1806   0.735   2.838   0.915 -1.8055 -1.1102  0.6914
  603SOL     OW 1807   0.516   0.518   2.509  0.0414  0.4529  0.5788
  603SOL    HW1 1808   0.599   0.520   2.448 -0.2834 -0.1927  1.7868
  603SOL    HW2 1809   0.534   0.448   2.584  2.0974 -2.4557  2.9500
  604SOL     OW 1810   0.707   2.773   1.544  0.0669  0.1825  0.6307
  604SOL    HW1 1811   0.656   2.843   1.599 -0.1264  1.7456  1.5340
  604SOL    HW2 1812   0.656   2.685   1.549 -1.5557  1.1887  0.5109
  605SOL     OW 1813   1.789   0.859   1.886  0.1370  0.3129 -0.3952
  605SOL    HW1 1814   1.773   0.951   1.847  1.9978 -0.3565 -0.5166
  605SOL    HW2 1815   1.719   0.842   1.962  2.1831  2.0696  0.0614
  606SOL     OW 1816   2.536   2.721   2.977 -0.5469 -0.1561  0.0274
  606SOL    HW1 1817   2.499   2.630   2.967 -0.1099  2.7622 -1.1017
  606SOL    HW2 1818   2.479   2.796   2.936  2.3083 -0.3843  0.3817
  607SOL     OW 1819   0.822   0.683   1.011 -0.3889  0.1486 -0.0976
  607SOL    HW1 1820   0.776   0.593   1.011  0.1008 -2.7668  1.4495
  607SOL    HW2 1821   0.761   0.763   1.033  0.1613  2.3942  0.6637
  608SOL     OW 1822   0.292   1.927   2.627 -0.3166 -0.3685  0.1164
  608SOL    HW1 1823   0.304   2.023   2.593 -1.6779  2.8336 -0.4962
  608SOL    HW2 1824   0.230   1.918   2.708 -0.6138 -0.4837  0.4938
  609SOL     OW 1825   1.270   1.066   0.360 -0.5801 -0.2541 -0.2740
  609SOL    HW1 1826   1.295   1.100   0.454 -0.9645 -1.8725  1.4339
  609SOL    HW2 1827   1.251   1.144   0.296  0.1796 -2.7044  0.3252
  610SOL     OW 1828   0.584   0.408   1.301 -0.0110  0.0485 -0.0366
  610SOL    HW1 1829   0.650   0.430   1.224  2.1887 -0.3513 -0.4536
  610SOL    HW2 1830   0.515   0.340   1.276 -0.8896  0.4883  2.6898
  611SOL     OW 1831   1.550   0.931   0.811  0.0623 -0.5905  0.4664
  611SOL    HW1 1832   1.457   0.948   0.770 -3.2890 -2.2671 -0.5299
  611SOL    HW2 1833   1.626   0.925   0.742  0.7658 -0.1859 -0.0355
  612SOL     OW 1834   1.883   0.975   0.330 -0.2046  0.0628 -0.2566
  612SOL    HW1 1835   1.790   0.940   0.370 -0.3623 -0.8085  0.8640
  612SOL    HW2 1836   1.858   1.037   0.256  1.0815 -1.8176  2.8960
  613SOL     OW 1837   2.047   0.426   0.271  0.4422 -0.0932  0.2565
  613SOL    HW1 1838   1.954   0.385   0.277  0.0914  0.6486 -0.9338
  613SOL    HW2 1839   2.050   0.509   0.330  0.1271  0.8686  0.1177
  614SOL     OW 1840   2.492   3.075   2.643 -0.3196  0.6053 -0.0751
  614SOL    HW1 1841   2.508   0.012   2.549  1.0611  1.4201  1.7706
  614SOL    HW2 1842   2.396   3.083   2.673  1.4990 -2.3665  0.9899
  615SOL     OW 1843   0.760   1.857   0.814  0.3886 -0.0814 -0.0730
  615SOL    HW1 1844   0.825   1.779   0.810  0.5710 -1.9656  0.8965
  615SOL    HW2 1845   0.769   1.902   0.908  3.2433  3.8786  2.7975
  616SOL     OW 1846   1.340   1.146   2.653  0.2226 -0.4949 -0.3710
  616SOL    HW1 1847   1.317   1.241   2.629  2.6308 -0.3013 -1.8453
  616SOL    HW2 1848   1.311   1.122   2.748  0.1160  0.5527  2.0721
  617SOL     OW 1849   1.474   0.545   2.940  0.1592 -0.1999 -0.3331
  617SOL    HW1 1850   1.459   0.635   2.901  0.6338 -1.2816  1.0919
  617SOL    HW2 1851   1.543   0.553   3.019  2.6236 -0.8057 -0.0033
  618SOL     OW 1852   1.374   2.201   2.606 -0.0880  0.3593  0.1984
  618SOL    HW1 1853   1.476   2.187   2.584  1.4985  0.4985  0.2672
  618SOL    HW2 1854   1.365   2.220   2.705  0.9732  1.6285  1.9088
  619SOL     OW 1855   2.388   1.504   0.778  0.0621  0.7764 -0.5668
  619SOL    HW1 1856   2.474   1.467   0.822 -0.9713 -3.8850  1.5427
  619SOL    HW2 1857   2.362   1.446   0.697  0.7520 -0.8128 -0.9863
  620SOL     OW 1858   2.177   2.774   2.194 -0.2312 -0.2430 -0.0653
  620SOL    HW1 1859   2.130   2.858   2.230 -0.6820 -2.6818 -0.3833
  620SOL    HW2 1860   2.124   2.718   2.130 -1.2192 -2.6727 -2.3898
  621SOL     OW 1861   3.019   1.338   0.850  0.0608  0.2821 -0.0795
  621SOL    HW1 1862   3.003   1.246   0.814 -1.8326  2.4377 -0.9456
  621SOL    HW2 1863   2.962   1.335   0.935  1.4678 -1.9109  3.5691
  622SOL     OW 1864   1.614   1.312   2.656  0.6007 -0.6673 -0.0717
  622SOL    HW1 1865   1.651   1.342   2.746  2.4997 -1.0621  0.4636
  622SOL    HW2 1866   1.519   1.277   2.664 -0.5161 -0.2870 -1.6074
  623SOL     OW 1867   0.092   2.585   2.225  0.0777 -0.2412  0.0288
  623SOL    HW1 1868   0.132   2.551   2.311 -1.0609  2.1017 -0.8420
  623SOL    HW2 1869   0.014   2.648   2.249  1.0993  0.0381 -0.5810
  624SOL     OW 1870   0.789   2.791   2.952  0.1639 -0.0367 -0.5911
  624SOL    HW1 1871   0.855   2.738   2.901 -0.3307  1.0217 -0.0223
  624SOL    HW2 1872   0.697   2.751   2.961  1.7946 -1.0560 -0.2357
  625SOL     OW 1873   0.439   2.261   2.033 -0.0490  0.2217 -0.0660
  625SOL    HW1 1874   0.477   2.323   1.965  1.5726  1.8327  0.6741
  625SOL    HW2 1875   0.342   2.230   2.009 -2.6080 -1.9656  0.3890
  626SOL     OW 1876   0.180   0.031   2.919 -0.2308  0.0374 -0.3682
  626SOL    HW1 1877   0.188   0.127   2.882  0.4512 -0.7305 -0.0413
  626SOL    HW2 1878   0.160   3.058   2.846 -1.3819 -2.1370  1.5970
  627SOL     OW 1879   2.041   1.582   0.005 -0.5098  0.1384 -0.8009
  627SOL    HW1 1880   2.129   1.559   3.056 -0.3954  0.6093 -0.6394
  627SOL    HW2 1881   1.962   1.601   3.040  0.9423 -0.0118  1.9289
  628SOL     OW 1882   1.328   1.829   0.298 -0.2805 -0.3260  0.5205
  628SOL    HW1 1883   1.383   1.754   0.258 -1.5561  0.0373  0.2298
  628SOL    HW2 1884   1.236   1.838   0.260  0.9379 -0.6635  0.7601
  629SOL     OW 1885   3.063   0.133   1.762 -0.2457 -0.7924  0.3044
  629SOL    HW1 1886   3.040   0.216   1.824 -2.1333  3.5499  1.4752
  629SOL    HW2 1887   3.062   0.033   1.797  1.4484  0.5279  0.7326
  630SOL     OW 1888   2.030   0.887   1.807 -0.4810  0.1280 -0.2884
  630SOL    HW1 1889   1.933   0.870   1.841  0.9702  0.4160  0.6245
  630SOL    HW2 1890   2.028   0.904   1.710  1.4648 -0.2471  1.2118
  631SOL     OW 1891   1.772   0.060   0.765  0.2677 -0.1927  0.4380
  631SOL    HW1 1892   1.742   0.122   0.837 -1.8117 -1.2003 -1.2263
  631SOL    HW2 1893   1.713   3.074   0.775  2.2503  0.4312  3.6911
  632SOL     OW 1894   2.741   1.097   2.023  0.3256  0.1067  0.3834
  632SOL    HW1 1895   2.765   1.103   1.922  2.3190  1.3735 -0.7921
  632SOL    HW2 1896   2.643   1.097   2.034  0.1595 -0.9046 -0.4973
  633SOL     OW 1897   0.910   0.770   2.556 -0.5534 -0.0304  0.6826
  633SOL    HW1 1898   0.978   0.721   2.496  0.0222 -1.7013 -0.4759
  633SOL    HW2 1899   0.941   0.757   2.651  0.5828  1.3272 -3.9856
  634SOL     OW 1900   0.493   3.010   2.681  0.7749 -0.0252  0.1087
  634SOL    HW1 1901   0.399   3.012   2.719 -0.6987  1.2993 -0.0194
  634SOL    HW2 1902   0.515   2.912   2.656 -0.5179 -1.6343  2.2165
  635SOL     OW 1903   0.019   1.341   1.352 -0.0897 -0.5634  0.3901
  635SOL    HW1 1904   3.076   1.387   1.271 -0.5329  0.2366  0.4831
  635SOL    HW2 1905   0.086   1.402   1.400  0.6566 -1.2343  0.4290
  636SOL     OW 1906   0.177   1.789   0.106  0.0609 -0.0821 -0.3246
  636SOL    HW1 1907   0.177   1.713   0.174 -0.0886  1.8339 -0.9326
  636SOL    HW2 1908   0.240   1.862   0.138  1.5686  2.4387 -1.3070
  637SOL     OW 1909   3.080   2.516   0.298 -0.2093 -0.3704 -0.4032
  637SOL    HW1 1910   2.985   2.471   0.305 -0.6260 -0.7510  0.8247
  637SOL    HW2 1911   0.035   2.512   0.211 -1.8744 -0.5435  0.5525
  638SOL     OW 1912   2.858   2.645   0.572 -0.0604 -0.0384  0.0797
  638SOL    HW1 1913   2.925   2.586   0.529  1.7503  3.7846  0.9971
  638SOL    HW2 1914   2.763   2.641   0.529 -1.3487 -1.3550 -0.5984
  639SOL     OW 1915   1.220   0.883   3.066 -0.1665 -0.8696  0.8866
  639SOL    HW1 1916   1.171   0.793   3.044 -0.7092 -0.2141  2.2305
  639SOL    HW2 1917   1.239   0.890   0.069  1.0694  0.7614 -1.0498
  640SOL     OW 1918   1.788   2.335   1.827  0.0142  0.1202  0.0985
  640SOL    HW1 1919   1.735   2.283   1.759 -0.4765 -1.9023 -1.1463
  640SOL    HW2 1920   1.758   2.308   1.921 -0.4880 -0.9799  1.4924
  641SOL     OW 1921   2.909   3.092   0.842 -0.3247  0.0263  0.1312
  641SOL    HW1 1922   2.910   0.092   0.821  2.3686 -0.4795 -0.8131
  641SOL    HW2 1923   2.978   3.065   0.914 -1.2088  0.0582 -0.2005
  642SOL     OW 1924   1.116   0.926   1.670 -0.5887 -0.7176 -0.0827
  642SOL    HW1 1925   1.144   0.998   1.736 -1.0867 -0.5133  1.4841
  642SOL    HW2 1926   1.124   0.955   1.576 -1.0230 -0.4836  0.1711
  643SOL     OW 1927   0.761   1.754   2.858 -0.4188 -0.3594  0.0641
  643SOL    HW1 1928   0.730   1.704   2.940  2.1624 -0.6081 -0.2845
  643SOL    HW2 1929   0.677   1.782   2.804  1.1402 -0.5993 -1.3168
  644SOL     OW 1930   1.235   2.592   2.715  0.1351 -0.5462  0.6449
  644SOL    HW1 1931   1.338   2.597   2.714 -0.5076 -0.3576 -2.1038
  644SOL    HW2 1932   1.200   2.659   2.781  0.7916 -0.4896  0.7841
  645SOL     OW 1933   1.769   1.122   1.714 -0.2133 -0.0801  0.4065
  645SOL    HW1 1934   1.686   1.177   1.692  0.7679  0.1165 -1.3480
  645SOL    HW2 1935   1.774   1.043   1.647 -0.5959 -1.1528 -2.1574
  646SOL     OW 1936   1.009   2.417   2.833  0.4123 -0.3196  0.2672
  646SOL    HW1 1937   0.970   2.515   2.807 -2.1657  0.7828  0.8914
  646SOL    HW2 1938   1.108   2.417   2.817  0.1639  2.4028  0.5289
  647SOL     OW 1939   1.098   2.985   0.409 -0.1315  0.1015  0.2930
  647SOL    HW1 1940   1.168   3.059   0.388  2.1287  0.4886 -0.6749
  647SOL    HW2 1941   1.017   3.024   0.453 -0.3186 -0.5698 -3.2759
  648SOL     OW 1942   2.678   2.710   1.495  0.6342  0.5673 -0.1120
  648SOL    HW1 1943   2.712   2.650   1.414  1.0743  1.3226 -0.1327
  648SOL    HW2 1944   2.582   2.734   1.482  2.8270  0.7188  2.4745
  649SOL     OW 1945   0.703   2.498   2.622  0.6954  0.3531 -0.0799
  649SOL    HW1 1946   0.708   2.420   2.689 -0.2278 -1.6846 -0.1219
  649SOL    HW2 1947   0.686   2.458   2.529  1.6697 -3.7394 -0.0292
  650SOL     OW 1948   2.754   1.736   2.294  0.7900  0.0481 -0.1601
  650SOL    HW1 1949   2.833   1.780   2.345 -1.4875  1.9482 -1.2048
  650SOL    HW2 1950   2.693   1.807   2.252 -1.4890  0.7015 -0.3078
  651SOL     OW 1951   2.684   2.341   2.085 -0.7920 -0.2993 -0.3991
  651SOL    HW1 1952   2.748   2.300   2.018  1.9935  1.7200  1.7415
  651SOL    HW2 1953   2.744   2.337   2.171  2.7791  1.5288  1.3398
  652SOL     OW 1954   2.525   2.075   0.375  0.2402 -0.2827  0.0274
  652SOL    HW1 1955   2.529   2.011   0.454 -2.0158 -0.7419  0.6208
  652SOL    HW2 1956   2.439   2.129   0.388 -1.5876 -0.1179 -0.8098
  653SOL     OW 1957   2.960   0.874   1.052  0.0359  0.2338 -0.1629
  653SOL    HW1 1958   2.931   0.786   1.005 -1.3474  0.3203  0.3408
  653SOL    HW2 1959   2.943   0.872   1.152  0.5757 -0.9199  2.2199
  654SOL     OW 1960   0.914   0.260   2.747  0.2037 -0.4271  0.0397
  654SOL    HW1 1961   1.013   0.260   2.770 -1.7065  1.9140  0.1676
  654SOL    HW2 1962   0.870   0.243   2.840  1.0308 -2.9298  1.3660
  655SOL     OW 1963   0.936   0.199   1.160 -0.3762 -0.3487 -0.4553
  655SOL    HW1 1964   0.983   0.203   1.253  2.0480  1.5512  0.9579
  655SOL    HW2 1965   0.860   0.137   1.171  1.3347  1.7943  0.8393
  656SOL     OW 1966   0.523   2.559   1.944 -0.1631 -0.2022  0.0498
  656SOL    HW1 1967   0.492   2.524   1.854 -0.9525  0.4164  1.6559
  656SOL    HW2 1968   0.626   2.553   1.947  2.3791 -0.5646  0.3438
  657SOL     OW 1969   2.580   0.703   0.229 -0.2230  0.0094 -0.5089
  657SOL    HW1 1970   2.558   0.605   0.256  0.3314 -2.8027 -1.4794
  657SOL    HW2 1971   2.660   0.708   0.164 -1.5599 -0.8716 -0.2864
  658SOL     OW 1972   1.955   1.784   0.853  0.1102 -0.1549  0.5059
  658SOL    HW1 1973   1.936   1.855   0.922  0.3488 -1.6783 -0.3331
  658SOL    HW2 1974   1.989   1.824   0.763 -0.7471 -0.2889  1.1339
  659SOL     OW 1975   2.640   1.961   2.979 -0.5301  0.1399 -0.0278
  659SOL    HW1 1976   2.670   2.037   2.911  0.4825  0.2326 -0.2268
  659SOL    HW2 1977   2.638   2.003   3.074  3.4441  0.4349  0.8646
  660SOL     OW 1978   1.111   0.526   0.451 -0.2795 -0.0837 -0.7341
  660SOL    HW1 1979   1.169   0.571   0.522  0.3137  0.3058  0.0524
  660SOL    HW2 1980   1.146   0.525   0.355 -1.4478 -3.4026  0.8177
  661SOL     OW 1981   1.837   0.164   0.070  0.1003 -0.2192 -0.1013
  661SOL    HW1 1982   1.833   0.192   0.168  1.0035  0.8546 -2.4200
  661SOL    HW2 1983   1.916   0.100   0.065  0.5906 -1.5626 -0.0709
  662SOL     OW 1984   0.917   0.025   0.592  0.7758  0.1335 -0.6762
  662SOL    HW1 1985   0.890   0.121   0.616  0.1253 -1.4410  0.9728
  662SOL    HW2 1986   0.965   3.067   0.670  1.7129 -2.5848  3.4747
  663SOL     OW 1987   1.465   0.273   2.507  0.1907  0.0948 -0.6945
  663SOL    HW1 1988   1.456   0.316   2.413  0.8579 -0.4990  0.1092
  663SOL    HW2 1989   1.490   0.340   2.582 -1.9031 -0.4590  1.4518
  664SOL     OW 1990   0.826   2.776   1.294 -0.0287  0.2838 -0.4728
  664SOL    HW1 1991   0.766   2.773   1.378 -2.5492  1.7082  2.2816
  664SOL    HW2 1992   0.863   2.867   1.275  1.1079 -1.8730 -1.9230
  665SOL     OW 1993   0.878   2.334   1.602 -0.3739  0.3409 -0.4807
  665SOL    HW1 1994   0.819   2.376   1.527 -0.7142  1.4080 -1.9284
  665SOL    HW2 1995   0.892   2.400   1.679  0.0393 -0.4704  0.2711
  666SOL     OW 1996   0.253   0.064   2.528  0.0266  0.3540  0.1531
  666SOL    HW1 1997   0.340   0.010   2.527  3.2230  2.5047  0.1074
  666SOL    HW2 1998   0.170   0.006   2.513 -2.0376  1.3143 -2.4992
  667SOL     OW 1999   1.835   1.725   1.535  0.2648  0.2750  0.6497
  667SOL    HW1 2000   1.836   1.734   1.433 -0.4311  2.0733  1.8160
  667SOL    HW2 2001   1.907   1.663   1.577  0.2926 -1.0096 -0.2849
  668SOL     OW 2002   1.669   0.241   1.743  0.1009 -0.1980  0.1662
  668SOL    HW1 2003   1.670   0.137   1.734  0.0500 -1.8300  0.7255
  668SOL    HW2 2004   1.665   0.282   1.650 -1.4066  1.0814  0.8298
  669SOL     OW 2005   2.755   2.550   0.840  0.5532  0.2482 -0.0148
  669SOL    HW1 2006   2.787   2.584   0.749 -2.3083  0.9024  1.0450
  669SOL    HW2 2007   2.820   2.585   0.912  3.0812  1.5933 -0.2446
  670SOL     OW 2008   1.326   2.252   2.862  0.0181  0.7163 -0.4440
  670SOL    HW1 2009   1.253   2.233   2.934 -2.5179 -1.1880  0.0808
  670SOL    HW2 2010   1.392   2.325   2.895  1.8205  2.6114  3.8893
  671SOL     OW 2011   0.902   1.208   0.437 -0.0564 -0.3515 -0.8541
  671SOL    HW1 2012   0.974   1.272   0.471 -3.1852  0.3695  0.5850
  671SOL    HW2 2013   0.929   1.108   0.453  0.5046 -2.1217 -2.9581
  672SOL     OW 2014   2.782   1.183   2.597 -0.1393 -0.3348  0.7792
  672SOL    HW1 2015   2.777   1.147   2.690  0.3561 -1.8920 -0.3044
  672SOL    HW2 2016   2.774   1.105   2.531  0.9976  0.5285 -1.9041
  673SOL     OW 2017   2.476   1.981   1.633 -0.2388  0.8588 -0.0777
  673SOL    HW1 2018   2.516   1.924   1.707  1.9881 -1.1695 -1.7358
  673SOL    HW2 2019   2.374   1.994   1.656 -3.4101 -1.7417  1.9478
  674SOL     OW 2020   0.387   2.362   2.273 -0.0880  0.0941  0.3958
  674SOL    HW1 2021   0.469   2.337   2.328  1.7794  2.8127  1.5088
  674SOL    HW2 2022   0.402   2.337   2.174 -0.2658  1.0948  0.8057
  675SOL     OW 2023   1.003   0.648   1.481  0.0706  0.0122 -0.1426
  675SOL    HW1 2024   1.054   0.713   1.536  1.6874 -2.4894 -1.9887
  675SOL    HW2 2025   1.050   0.559   1.491  1.1198  1.1623 -0.8386
  676SOL     OW 2026   2.075   0.067   1.189  0.0932 -0.0691 -0.2258
  676SOL    HW1 2027   2.016   0.016   1.124 -0.4990 -0.1925  1.7245
  676SOL    HW2 2028   2.128   0.145   1.144 -0.4359  1.3169 -0.6207
  677SOL     OW 2029   2.259   1.516   2.967 -0.2099 -0.4595 -0.5225
  677SOL    HW1 2030   2.358   1.540   2.965  1.6195  1.0272  2.1495
  677SOL    HW2 2031   2.222   1.500   2.877 -0.9741  2.5161  0.0681
  678SOL     OW 2032   2.739   1.214   1.074 -0.7125 -0.0820 -0.4309
  678SOL    HW1 2033   2.746   1.121   1.112 -4.1548  0.5481 -0.8726
  678SOL    HW2 2034   2.829   1.260   1.097  1.9805  0.3580  1.4594
  679SOL     OW 2035   2.714   0.412   0.157  0.2767 -0.0010  0.0031
  679SOL    HW1 2036   2.770   0.376   0.235  2.6832 -1.2041 -0.6126
  679SOL    HW2 2037   2.739   0.507   0.132  0.4528 -0.4959  0.5343
  680SOL     OW 2038   0.254   1.935   1.845 -0.4222  0.7416 -0.1667
  680SOL    HW1 2039   0.159   1.976   1.834 -1.4110  1.4019  0.0071
  680SOL    HW2 2040   0.247   1.841   1.883 -1.3780  1.9684 -0.6092
  681SOL     OW 2041   2.039   2.217   1.712 -0.0132 -0.2923  0.3644
  681SOL    HW1 2042   2.101   2.178   1.786 -0.8362  1.6958 -1.8342
  681SOL    HW2 2043   1.950   2.251   1.758  0.5801 -0.6954 -1.7562
  682SOL     OW 2044   0.345   1.990   0.167 -0.0336  0.5873  0.4377
  682SOL    HW1 2045   0.294   2.061   0.117 -0.9538  0.2312  0.4032
  682SOL    HW2 2046   0.403   2.041   0.230 -1.2664 -3.1313 -2.9047
  683SOL     OW 2047   0.162   1.953   1.483  0.1275  0.4919  0.3323
  683SOL    HW1 2048   0.187   2.041   1.518 -1.1138 -1.5131 -4.6598
  683SOL    HW2 2049   0.229   1.914   1.416 -0.0622 -0.5821 -0.1319
  684SOL     OW 2050   2.799   1.289   2.210  0.4975  0.3466 -0.1950
  684SOL    HW1 2051   2.843   1.362   2.157  1.4546 -1.6694 -1.2532
  684SOL    HW2 2052   2.776   1.214   2.143 -1.6937 -3.2593  0.3567
  685SOL     OW 2053   1.303   0.694   0.592 -0.4138  0.1890 -0.5202
  685SOL    HW1 2054   1.350   0.635   0.663  2.2565  2.9563  1.3275
  685SOL    HW2 2055   1.360   0.700   0.503  2.2285  0.9781 -3.2381
  686SOL     OW 2056   0.584   0.277   0.878 -0.4090  0.4429 -0.2410
  686SOL    HW1 2057   0.495   0.274   0.834  2.0799  4.0925  2.9489
  686SOL    HW2 2058   0.661   0.271   0.808  1.2082  1.0776  1.6952
  687SOL     OW 2059   0.926   2.148   2.626 -0.4002 -0.0470 -0.1327
  687SOL    HW1 2060   0.942   2.104   2.714  0.7950 -0.4271 -2.4455
  687SOL    HW2 2061   1.011   2.200   2.599  2.5538 -2.4962  0.6887
  688SOL     OW 2062   1.965   0.718   1.549  0.2057 -0.1122  0.3406
  688SOL    HW1 2063   2.031   0.731   1.472  0.5963 -0.2639 -0.0693
  688SOL    HW2 2064   1.968   0.621   1.573  0.3940  0.5725 -1.6147
  689SOL     OW 2065   1.696   0.268   0.915  0.1250  0.6475 -0.2055
  689SOL    HW1 2066   1.784   0.263   0.967  0.6367  0.2580 -1.6338
  689SOL    HW2 2067   1.713   0.335   0.847 -0.8378 -4.1689 -0.7864
  690SOL     OW 2068   2.913   1.433   1.127 -0.7381 -0.2166  0.6796
  690SOL    HW1 2069   2.837   1.473   1.182 -2.9373  1.9617 -2.0348
  690SOL    HW2 2070   2.947   1.506   1.064 -3.0231 -1.8608  0.4607
  691SOL     OW 2071   0.402   2.220   1.340 -0.2642 -0.0574 -0.2389
  691SOL    HW1 2072   0.429   2.278   1.260 -0.9677  1.0773  0.3795
  691SOL    HW2 2073   0.463   2.138   1.353  1.6382 -0.7343  2.0862
  692SOL     OW 2074   1.494   3.088   1.449 -0.6772 -0.1425 -0.2100
  692SOL    HW1 2075   1.557   0.001   1.532  1.1961  0.3149  1.3008
  692SOL    HW2 2076   1.540   3.091   1.358 -2.1089  0.0857 -0.4296
  693SOL     OW 2077   0.489   1.735   2.180  0.4030 -0.6756 -0.5914
  693SOL    HW1 2078   0.577   1.746   2.139 -2.0646 -0.6180  0.1058
  693SOL    HW2 2079   0.468   1.813   2.249 -1.5065  0.7600  2.8605
  694SOL     OW 2080   2.107   1.365   0.994 -0.2208  0.0595  0.7972
  694SOL    HW1 2081   2.076   1.375   0.897  1.0618  0.0552  0.6680
  694SOL    HW2 2082   2.059   1.425   1.060  0.9754  1.0051 -2.0690
  695SOL     OW 2083   1.305   0.889   1.155  0.4899 -0.3157 -0.3868
  695SOL    HW1 2084   1.341   0.831   1.080  0.8740  1.6238 -1.2710
  695SOL    HW2 2085   1.204   0.860   1.174 -0.5622 -0.9295 -1.1649
  696SOL     OW 2086   0.419   0.032   0.432  0.2099 -0.2352 -0.1618
  696SOL    HW1 2087   0.351   3.049   0.450  0.4008 -1.4716 -0.6587
  696SOL    HW2 2088   0.519   0.003   0.421  2.1476  0.5462  1.3013
  697SOL     OW 2089   2.118   0.679   0.937 -0.2972 -0.4817  0.4162
  697SOL    HW1 2090   2.126   0.777   0.970  1.0145  0.7224 -1.6668
  697SOL    HW2 2091   2.060   0.619   0.997 -0.5775  0.6327  0.4602
  698SOL     OW 2092   1.448   1.233   1.961 -0.0944 -0.0929  0.0680
  698SOL    HW1 2093   1.396   1.301   2.016  1.2012 -1.9689  0.7587
  698SOL    HW2 2094   1.535   1.206   2.010  1.8970 -0.8790  0.7059
  699SOL     OW 2095   2.866   0.559   2.014 -0.0528  0.1311  0.7130
  699SOL    HW1 2096   2.788   0.572   2.081 -0.0243 -0.5389  1.5711
  699SOL    HW2 2097   2.944   0.517   2.053 -0.3657  3.3705 -0.0736
  700SOL     OW 2098   1.950   2.765   0.516  0.1273 -0.3636  0.4072
  700SOL    HW1 2099   1.926   2.807   0.425 -1.5553 -1.6609 -1.2451
  700SOL    HW2 2100   1.939   2.664   0.511 -0.6771 -0.4709  0.8473
  701SOL     OW 2101   2.927   1.830   2.489  0.1482  0.0628 -0.6262
  701SOL    HW1 2102   2.911   1.771   2.572  1.7771  2.2034  0.7162
  701SOL    HW2 2103   3.028   1.835   2.470 -1.3009  0.4869  0.7867
  702SOL     OW 2104   0.705   3.078   0.413  0.6348 -0.6885 -0.3494
  702SOL    HW1 2105   0.780   0.003   0.477  0.3460 -2.1164  0.2853
  702SOL    HW2 2106   0.669   2.983   0.429  0.0964  1.2522 -1.2940
  703SOL     OW 2107   1.852   2.704   2.387 -0.2502 -0.2894 -0.3412
  703SOL    HW1 2108   1.916   2.713   2.464  0.4686  0.9263  0.0865
  703SOL    HW2 2109   1.845   2.800   2.352 -0.2701  0.5864  0.7000
  704SOL     OW 2110   2.638   2.101   0.105 -0.3321 -0.0274 -0.2878
  704SOL    HW1 2111   2.666   2.196   0.113  1.6834 -0.3627  2.0533
  704SOL    HW2 2112   2.596   2.059   0.188  1.3819 -0.4515 -2.3006
  705SOL     OW 2113   2.895   2.353   2.276  0.2467 -0.1012 -0.3920
  705SOL    HW1 2114   2.916   2.254   2.288 -0.1291 -0.4610  0.9051
  705SOL    HW2 2115   2.916   2.404   2.363  1.7250  2.0756  3.0486
  706SOL     OW 2116   2.789   0.029   0.461  0.2309 -0.1823 -0.5723
  706SOL    HW1 2117   2.762   3.072   0.380  3.6030 -1.2274  2.3781
  706SOL    HW2 2118   2.854   3.063   0.513 -0.0578  1.7730  1.3554
  707SOL     OW 2119   1.266   0.365   3.004  0.4775  0.5638  0.1241
  707SOL    HW1 2120   1.238   0.337   2.905  1.1054 -0.9248 -2.8295
  707SOL    HW2 2121   1.349   0.423   2.992  0.6702  1.9951  1.9838
  708SOL     OW 2122   0.424   2.113   1.749 -0.2276 -0.3057  0.2640
  708SOL    HW1 2123   0.368   2.030   1.774 -1.6745  0.4840 -1.3367
  708SOL    HW2 2124   0.522   2.104   1.770 -3.8313  0.6632  0.8331
  709SOL     OW 2125   1.486   2.979   1.894  0.0965  0.1896 -0.7320
  709SOL    HW1 2126   1.456   3.063   1.943 -0.7346  1.8458 -0.6559
  709SOL    HW2 2127   1.518   2.907   1.966 -0.3842 -4.4143  3.8647
  710SOL     OW 2128   1.522   2.613   2.713  0.4601  0.7393 -0.0469
  710SOL    HW1 2129   1.545   2.621   2.612 -0.8951  0.6666  0.3008
  710SOL    HW2 2130   1.577   2.683   2.759 -5.7086 -0.8162 -0.6255
  711SOL     OW 2131   0.902   2.663   2.730  0.2337  0.0265 -0.0620
  711SOL    HW1 2132   0.949   2.723   2.665 -1.0004 -0.6968 -0.0991
  711SOL    HW2 2133   0.824   2.625   2.684  0.5532  0.0690  1.4843
  712SOL     OW 2134   0.915   2.092   0.077 -0.2842  0.3988  0.4498
  712SOL    HW1 2135   0.912   2.052   3.085 -1.6336  3.2356  3.2154
  712SOL    HW2 2136   0.843   2.158   0.086  2.0349  0.5139 -0.7917
  713SOL     OW 2137   1.957   1.259   1.363  0.0160 -0.1538  0.0661
  713SOL    HW1 2138   1.947   1.191   1.288 -1.6554 -2.7088 -1.6536
  713SOL    HW2 2139   1.868   1.286   1.404  1.3228  2.1065  2.4645
  714SOL     OW 2140   0.918   1.180   2.057 -0.2648  1.0261 -0.1283
  714SOL    HW1 2141   1.017   1.146   2.055  1.7089 -0.4379  1.0954
  714SOL    HW2 2142   0.865   1.148   1.978 -0.6626 -1.1584  0.1806
  715SOL     OW 2143   2.861   0.296   0.363  0.7727  0.3945 -0.2640
  715SOL    HW1 2144   2.836   0.373   0.423 -0.1330 -0.0309 -1.4105
  715SOL    HW2 2145   2.804   0.211   0.392 -2.0957 -2.8329  2.0304
  716SOL     OW 2146   0.383   2.650   1.144 -0.0325 -0.1704 -0.5817
  716SOL    HW1 2147   0.484   2.654   1.156 -1.9808  0.8532 -1.6298
  716SOL    HW2 2148   0.361   2.741   1.103 -2.4357 -0.7660 -1.8874
  717SOL     OW 2149   2.697   0.730   0.497 -0.4322  0.3113 -0.0111
  717SOL    HW1 2150   2.742   0.642   0.516 -0.8247  0.2184  1.3756
  717SOL    HW2 2151   2.668   0.728   0.398  3.4975 -0.6007  1.8084
  718SOL     OW 2152   1.679   1.324   1.362  0.3840 -0.8633 -0.0887
  718SOL    HW1 2153   1.661   1.361   1.459  0.0564  1.2538  2.8168
  718SOL    HW2 2154   1.601   1.343   1.299  1.9003 -1.1642 -0.6874
  719SOL     OW 2155   2.802   2.698   3.039 -0.4386 -0.1916  0.2159
  719SOL    HW1 2156   2.707   2.705   2.993  0.3953  1.1658  2.1120
  719SOL    HW2 2157   2.846   2.605   3.033 -0.2598  0.7053 -1.1206
  720SOL     OW 2158   1.160   0.462   0.889  0.4901  0.2628 -0.6447
  720SOL    HW1 2159   1.164   0.490   0.985  1.9834 -1.3904 -3.6978
  720SOL    HW2 2160   1.136   0.366   0.887 -0.7653  0.5250 -2.6760
  721SOL     OW 2161   1.923   0.324   1.041  0.0017 -0.7509 -0.7262
  721SOL    HW1 2162   2.015   0.284   1.026 -0.0648 -1.4776 -1.1668
  721SOL    HW2 2163   1.929   0.426   1.061  1.4916  2.9299 -0.4075
  722SOL     OW 2164   0.722   2.123   1.699 -0.0294  0.6106 -0.0251
  722SOL    HW1 2165   0.778   2.120   1.785  0.5077  0.6098  4.8740
  722SOL    HW2 2166   0.778   2.180   1.632  0.0279 -1.7453  1.0609
  723SOL     OW 2167   1.266   3.086   1.323  0.3223  0.4516 -0.2622
  723SOL    HW1 2168   1.301   3.082   1.226 -1.6951 -2.8250  1.6886
  723SOL    HW2 2169   1.347   3.082   1.382 -0.1785 -1.0731 -0.3458
  724SOL     OW 2170   1.704   1.951   1.607 -0.2246  0.1973  0.8080
  724SOL    HW1 2171   1.620   1.955   1.553  2.0815  1.1879  1.4074
  724SOL    HW2 2172   1.762   1.864   1.600 -1.7920 -0.9051  0.3566
  725SOL     OW 2173   1.429   2.430   1.219  0.3019 -0.9513 -0.5324
  725SOL    HW1 2174   1.414   2.337   1.185 -1.8504 -0.4767  1.9175
  725SOL    HW2 2175   1.398   2.498   1.149  0.2478  0.1357  2.3286
  726SOL     OW 2176   1.794   0.346   2.966  0.0609 -0.1074  0.1151
  726SOL    HW1 2177   1.845   0.313   3.047  1.2460  0.5308  1.5271
  726SOL    HW2 2178   1.747   0.270   2.919  0.4704  1.5130  1.5644
  727SOL     OW 2179   1.354   2.050   0.420  0.1907  0.3476  0.1147
  727SOL    HW1 2180   1.364   1.954   0.382  1.7679 -1.4597  2.0882
  727SOL    HW2 2181   1.267   2.094   0.409 -0.9819 -2.0497  0.8998
  728SOL     OW 2182   1.810   2.771   1.940  0.1062 -0.0865  0.0464
  728SOL    HW1 2183   1.839   2.706   1.864 -1.0407 -0.2775  0.9374
  728SOL    HW2 2184   1.838   2.867   1.919 -0.8285  1.6761  1.0775
  729SOL     OW 2185   2.181   2.575   1.678  0.0474  0.2746  0.1473
  729SOL    HW1 2186   2.148   2.495   1.623  0.6724  0.6436  1.5095
  729SOL    HW2 2187   2.268   2.550   1.717 -1.1001 -2.0791 -0.5954
  730SOL     OW 2188   1.462   0.696   2.550 -0.5145 -0.4354 -0.1390
  730SOL    HW1 2189   1.522   0.618   2.584  0.3854 -1.6616  2.3787
  730SOL    HW2 2190   1.444   0.681   2.453  0.7891  0.6763  1.9755
  731SOL     OW 2191   0.772   2.978   1.025  0.3767  0.6103  0.6290
  731SOL    HW1 2192   0.716   3.027   0.952  0.8730 -1.5382 -1.0001
  731SOL    HW2 2193   0.732   3.001   1.119  1.2379  0.9579  1.9822
  732SOL     OW 2194   1.550   2.921   1.002  0.0518 -0.1202  0.2813
  732SOL    HW1 2195   1.570   2.843   1.064 -0.3231  0.0413  1.3270
  732SOL    HW2 2196   1.453   2.950   1.010 -0.3628  1.2962 -0.5830
  733SOL     OW 2197   1.511   0.979   1.304 -0.0513  0.0787  0.1889
  733SOL    HW1 2198   1.440   0.931   1.241 -0.4762 -1.3072 -2.8780
  733SOL    HW2 2199   1.470   1.056   1.349  3.1173 -1.4319 -2.5494
  734SOL     OW 2200   2.274   2.220   0.348  0.8233  0.3441 -0.0965
  734SOL    HW1 2201   2.280   2.275   0.261 -4.1178  0.3479  2.2419
  734SOL    HW2 2202   2.310   2.278   0.426  1.0494 -0.5952  1.4906
  735SOL     OW 2203   0.434   0.588   0.508  0.2147  0.5493  0.3237
  735SOL    HW1 2204   0.445   0.585   0.405  1.9214 -1.7340 -0.6805
  735SOL    HW2 2205   0.380   0.508   0.537 -0.0255  0.1077  0.1758
  736SOL     OW 2206   1.913   2.224   2.511  0.1389  0.3434  0.5989
  736SOL    HW1 2207   1.816   2.198   2.514 -0.5908 -1.5646 -0.9194
  736SOL    HW2 2208   1.946   2.233   2.409  1.3725  2.4138 -2.2492
  737SOL     OW 2209   1.037   2.376   1.122  0.6529 -0.0204 -0.5903
  737SOL    HW1 2210   1.076   2.450   1.066 -0.4658 -0.7840 -1.3344
  737SOL    HW2 2211   0.969   2.329   1.059  0.7349 -2.8419 -1.2083
  738SOL     OW 2212   1.520   2.812   2.141 -0.8313 -0.2227  0.1111
  738SOL    HW1 2213   1.490   2.829   2.236  1.5154 -2.6292  1.8771
  738SOL    HW2 2214   1.601   2.747   2.145  1.2427  0.1193  2.9534
  739SOL     OW 2215   0.857   2.110   1.929 -0.3496 -0.4285 -0.4991
  739SOL    HW1 2216   0.957   2.116   1.958  3.5505 -0.3677  1.3543
  739SOL    HW2 2217   0.798   2.089   2.008  1.4243  1.1065  1.6802
  740SOL     OW 2218   1.643   2.329   1.370  0.0021 -0.2660  0.5006
  740SOL    HW1 2219   1.737   2.347   1.332 -1.8959  0.5231  1.7978
  740SOL    HW2 2220   1.569   2.368   1.313 -2.1360  0.0353  3.2800
  741SOL     OW 2221   2.539   1.604   2.976 -0.4597  0.8453  0.8389
  741SOL    HW1 2222   2.587   1.521   2.939  1.8401 -1.1913 -0.0430
  741SOL    HW2 2223   2.508   1.668   2.901 -0.1386 -1.7810 -0.3523
  742SOL     OW 2224   0.809   1.473   2.310  0.2076 -0.0752  0.2438
  742SOL    HW1 2225   0.838   1.556   2.256  1.2661 -1.8761 -1.8714
  742SOL    HW2 2226   0.711   1.441   2.296  0.7024 -0.1944  0.4541
  743SOL     OW 2227   3.060   1.146   2.287  0.2569  0.4140  0.4142
  743SOL    HW1 2228   3.048   1.067   2.350  0.1914  2.0349  1.7945
  743SOL    HW2 2229   2.971   1.196   2.271 -3.1100 -2.2325 -0.8884
  744SOL     OW 2230   2.257   2.305   1.992 -0.0998 -0.0939  0.6587
  744SOL    HW1 2231   2.222   2.360   2.070 -3.1272 -0.5032 -0.1579
  744SOL    HW2 2232   2.315   2.364   1.935  0.4270  2.1873  0.7806
  745SOL     OW 2233   2.308   1.420   1.579 -0.0616 -0.2696  0.2120
  745SOL    HW1 2234   2.226   1.456   1.527 -1.0334  0.0429 -0.3188
  745SOL    HW2 2235   2.361   1.362   1.514  0.6269 -1.4459  0.7172
  746SOL     OW 2236   2.837   1.190   0.456  0.1893  0.3586  0.2937
  746SOL    HW1 2237   2.760   1.143   0.409  0.3380 -1.4526  2.6482
  746SOL    HW2 2238   2.802   1.224   0.546  0.1817 -1.2506 -1.5681
  747SOL     OW 2239   1.888   2.321   0.602 -0.5806 -0.0115  0.6636
  747SOL    HW1 2240   1.952   2.262   0.658  1.0203  0.9977 -0.2164
  747SOL    HW2 2241   1.814   2.367   0.654 -0.1326 -0.9259 -0.9878
  748SOL     OW 2242   1.040   2.206   0.310  0.0102  0.1502  0.0563
  748SOL    HW1 2243   1.129   2.243   0.271  2.5141 -0.9639 -1.3027
  748SOL    HW2 2244   0.999   2.152   0.236  0.0379  1.4831 -1.8167
  749SOL     OW 2245   2.744   0.396   2.345  0.2275  0.1991  0.3538
  749SOL    HW1 2246   2.644   0.396   2.366 -0.5551  0.9625 -1.4863
  749SOL    HW2 2247   2.782   0.306   2.314 -1.6352  1.5296 -0.8673
  750SOL     OW 2248   1.626   0.031   1.229 -0.3512 -0.0963 -0.4427
  750SOL    HW1 2249   1.630   0.131   1.202 -0.1721  0.5582 -2.3038
  750SOL    HW2 2250   1.620   3.068   1.146  1.9501 -0.0073  1.2964
  751SOL     OW 2251   1.657   2.388   2.771 -0.0954  0.1771  0.5442
  751SOL    HW1 2252   1.603   2.468   2.742  0.9575  0.2900 -1.6966
  751SOL    HW2 2253   1.662   2.378   2.871 -1.9083 -2.5932 -2.7824
  752SOL     OW 2254   1.685   1.985   0.489  0.5336  0.0579 -0.2230
  752SOL    HW1 2255   1.668   2.053   0.421  2.5155 -2.0386 -0.1850
  752SOL    HW2 2256   1.764   1.929   0.459 -2.9898  0.2625 -0.3852
  753SOL     OW 2257   1.609   0.812   2.106  0.2998 -0.1457  0.1009
  753SOL    HW1 2258   1.674   0.795   2.185  1.7690 -2.5578  0.2067
  753SOL    HW2 2259   1.549   0.888   2.137 -2.6011  0.9079 -0.5122
  754SOL     OW 2260   0.176   2.935   0.863 -0.2930 -0.5308 -0.4146
  754SOL    HW1 2261   0.106   2.979   0.925  1.2183 -1.0826 -1.1288
  754SOL    HW2 2262   0.133   2.865   0.801  0.8636 -1.1135  0.2235
  755SOL     OW 2263   1.870   0.092   1.380  0.2619 -0.0792  0.0110
  755SOL    HW1 2264   1.935   0.083   1.302 -0.8850  1.5540  0.2410
  755SOL    HW2 2265   1.788   0.035   1.358 -1.6831  0.8006 -1.5057
  756SOL     OW 2266   1.209   0.973   2.494 -0.2346 -0.2149 -0.1880
  756SOL    HW1 2267   1.244   1.019   2.581  2.2315  2.1320  2.4473
  756SOL    HW2 2268   1.231   1.032   2.417 -1.1817  0.9019 -1.0717
  757SOL     OW 2269   2.977   2.601   1.525  0.0471  0.1246  0.3087
  757SOL    HW1 2270   3.039   2.540   1.580  0.3692 -4.2733  3.9727
  757SOL    HW2 2271   2.891   2.643   1.571 -0.9300  1.9444 -0.6037
  758SOL     OW 2272   0.515   0.039   1.447  0.6974 -0.4241 -0.0444
  758SOL    HW1 2273   0.536   3.058   1.510 -0.1388 -0.5041  0.2443
  758SOL    HW2 2274   0.488   0.129   1.483 -1.0253  1.6121 -2.1041
  759SOL     OW 2275   2.353   1.166   0.759  0.0319  0.1212 -0.3130
  759SOL    HW1 2276   2.373   1.233   0.685  1.3144 -2.0249  1.9727
  759SOL    HW2 2277   2.441   1.132   0.804  2.1806  0.3418  0.5096
  760SOL     OW 2278   2.156   0.454   1.309 -0.6018 -0.0509  0.2333
  760SOL    HW1 2279   2.124   0.371   1.366  0.1999  0.8569  0.1788
  760SOL    HW2 2280   2.257   0.455   1.293  1.2852  2.2621 -2.5120
  761SOL     OW 2281   2.105   0.052   0.419  0.7560  0.0320  0.2168
  761SOL    HW1 2282   2.201   0.042   0.441 -1.1899  1.6662 -2.2660
  761SOL    HW2 2283   2.080   3.084   0.346 -0.0336  0.3853  1.1858
  762SOL     OW 2284   2.292   2.374   0.121  0.0547  0.1090 -0.1452
  762SOL    HW1 2285   2.300   2.323   0.032  0.5466 -0.6019 -2.3200
  762SOL    HW2 2286   2.218   2.443   0.117 -1.7917 -1.1389  0.0985
  763SOL     OW 2287   0.705   1.133   0.658  0.0428  0.0898  0.5543
  763SOL    HW1 2288   0.634   1.197   0.621 -1.5102 -0.2265 -0.2912
  763SOL    HW2 2289   0.702   1.119   0.759  0.6760  0.5515  1.9544
  764SOL     OW 2290   2.601   2.435   2.929 -0.3570  0.2780  0.0720
  764SOL    HW1 2291   2.687   2.455   2.879 -2.5388 -0.9685  0.7605
  764SOL    HW2 2292   2.534   2.373   2.880 -0.1702 -0.9770  1.1162
  765SOL     OW 2293   0.645   0.718   2.191 -0.2069 -0.4175  0.3276
  765SOL    HW1 2294   0.629   0.749   2.290  1.8220  1.3610  2.0150
  765SOL    HW2 2295   0.716   0.647   2.184  0.2539 -0.3008 -0.2246
  766SOL     OW 2296   3.013   1.342   2.577 -0.0273  0.5846  0.0414
  766SOL    HW1 2297   2.920   1.294   2.583 -2.9566  0.3408  0.0516
  766SOL    HW2 2298   2.997   1.412   2.509 -1.8399  1.1774  0.8217
  767SOL     OW 2299   0.029   1.780   2.202  0.1926 -0.0771 -0.0337
  767SOL    HW1 2300   0.080   1.722   2.134 -0.9839  2.1457  0.9107
  767SOL    HW2 2301   0.074   1.780   2.297 -0.7134  1.7762  1.7100
  768SOL     OW 2302   0.970   1.162   2.786 -0.3922  0.0637  0.2217
  768SOL    HW1 2303   0.878   1.142   2.815  3.0579  1.5697 -2.2408
  768SOL    HW2 2304   0.975   1.136   2.689  2.1210  0.0095 -0.7260
  769SOL     OW 2305   1.708   2.790   2.822 -0.1423 -0.2704 -0.1675
  769SOL    HW1 2306   1.781   2.719   2.824 -2.1486  0.3617  1.9532
  769SOL    HW2 2307   1.718   2.839   2.913  1.7789 -0.0384 -2.1436
  770SOL     OW 2308   2.962   0.409   2.547  0.6485  0.0586  0.2360
  770SOL    HW1 2309   2.894   0.425   2.471  1.3519  0.3880  0.7376
  770SOL    HW2 2310   2.912   0.414   2.637  1.0356 -0.0629 -2.3137
  771SOL     OW 2311   0.792   2.154   1.338  0.2136  0.1685 -0.3702
  771SOL    HW1 2312   0.882   2.118   1.369 -2.3592 -1.8669  1.7274
  771SOL    HW2 2313   0.805   2.255   1.330  0.6573 -3.1468 -3.8198
  772SOL     OW 2314   0.649   0.617   2.887 -0.0226 -0.1079 -0.1589
  772SOL    HW1 2315   0.664   0.545   2.819  0.3956 -1.2640 -1.1050
  772SOL    HW2 2316   0.641   0.710   2.840  1.8818  0.1365  0.3213
  773SOL     OW 2317   2.310   1.030   1.618 -0.5281 -0.0216 -0.2781
  773SOL    HW1 2318   2.371   1.088   1.679 -0.1432 -1.2330  1.1509
  773SOL    HW2 2319   2.215   1.046   1.640 -1.0629  1.5406 -0.0687
  774SOL     OW 2320   1.214   0.905   0.717 -0.2035  0.0945  0.4039
  774SOL    HW1 2321   1.132   0.887   0.779  1.9753  0.3424 -0.2982
  774SOL    HW2 2322   1.248   0.818   0.676 -0.3796  0.3670  0.2666
  775SOL     OW 2323   2.008   2.706   2.589 -0.5829  0.2700 -0.1278
  775SOL    HW1 2324   2.035   2.804   2.617  1.2373  1.1247 -0.6156
  775SOL    HW2 2325   1.943   2.658   2.657 -0.3143 -0.5999  2.6776
  776SOL     OW 2326   2.135   3.002   2.339  0.1471  0.0664  0.3229
  776SOL    HW1 2327   2.101   3.078   2.398  0.1643 -0.5013 -1.5824
  776SOL    HW2 2328   2.205   2.951   2.390 -0.1550  2.6079 -0.8506
  777SOL     OW 2329   0.520   1.290   2.874 -0.0982 -0.3049  0.2207
  777SOL    HW1 2330   0.469   1.297   2.786 -1.3293 -0.2298 -0.2353
  777SOL    HW2 2331   0.459   1.250   2.947 -0.5209 -0.5155 -4.8036
  778SOL     OW 2332   0.730   3.050   0.114  0.0758 -0.3094 -0.2125
  778SOL    HW1 2333   0.829   3.047   0.089  0.5731 -0.3070  0.8176
  778SOL    HW2 2334   0.718   3.070   0.213  0.1987  2.0809 -0.5417
  779SOL     OW 2335   3.070   1.192   3.008 -0.1384 -0.1702 -0.4735
  779SOL    HW1 2336   3.020   1.111   3.045  0.4788  0.5127  0.4833
  779SOL    HW2 2337   0.053   1.159   2.948  2.5832 -1.5279  1.2373
  780SOL     OW 2338   2.064   0.389   2.674 -0.3458 -0.3950 -0.0158
  780SOL    HW1 2339   2.012   0.448   2.741 -3.5503  0.8919  1.5987
  780SOL    HW2 2340   2.013   0.366   2.583 -1.0145  0.9350 -2.2139
  781SOL     OW 2341   2.206   1.003   1.996 -0.2804  0.4818  0.0973
  781SOL    HW1 2342   2.142   1.047   2.063  2.3879  1.8717 -0.0579
  781SOL    HW2 2343   2.163   0.948   1.923  2.9531 -0.9536  0.9442
  782SOL     OW 2344   1.285   1.694   2.264  0.4600  1.0652 -0.6231
  782SOL    HW1 2345   1.345   1.732   2.191 -0.8519 -1.2272  0.2823
  782SOL    HW2 2346   1.190   1.729   2.270  3.7067 -3.2677 -1.0986
  783SOL     OW 2347   1.318   3.076   1.052  0.1002  0.5123  0.1333
  783SOL    HW1 2348   1.341   0.070   1.008  0.0564 -0.1402 -1.1838
  783SOL    HW2 2349   1.224   3.047   1.020 -3.4712 -0.6572 -1.7719
  784SOL     OW 2350   1.399   0.800   2.860 -0.0780  0.1009 -0.1065
  784SOL    HW1 2351   1.490   0.848   2.849  0.7732  0.6748  0.4140
  784SOL    HW2 2352   1.337   0.856   2.916  1.1115  1.0181 -1.1992
  785SOL     OW 2353   1.933   0.551   2.840  0.1626 -0.2118 -0.2949
  785SOL    HW1 2354   1.977   0.582   2.930  0.6936 -2.7823 -0.0483
  785SOL    HW2 2355   1.833   0.517   2.848 -1.2099  0.9958 -1.2354
  786SOL     OW 2356   0.076   1.483   0.649  0.8073  0.4625 -0.4279
  786SOL    HW1 2357   0.018   1.496   0.569  1.3962  0.3398  0.2401
  786SOL    HW2 2358   0.021   1.431   0.723 -2.5959  0.9703  0.3009
  787SOL     OW 2359   1.782   1.692   3.069  0.7572  0.1980  0.7228
  787SOL    HW1 2360   1.771   1.741   0.059  0.4061 -0.1867  1.7922
  787SOL    HW2 2361   1.801   1.767   2.999  1.5437 -0.3983 -0.3517
  788SOL     OW 2362   1.534   2.065   1.401 -0.0721  0.4797  0.3975
  788SOL    HW1 2363   1.560   2.021   1.311  0.9290  0.7489 -1.5947
  788SOL    HW2 2364   1.551   2.164   1.396 -0.8282 -0.9712  1.0924
  789SOL     OW 2365   0.107   1.378   2.266 -0.1428  0.1298 -0.4386
  789SOL    HW1 2366   0.066   1.286   2.271 -2.6944  2.3787 -1.6345
  789SOL    HW2 2367   0.042   1.447   2.305 -1.0314  0.3646  0.2966
  790SOL     OW 2368   0.523   0.055   3.090  0.2362 -0.0013  0.1340
  790SOL    HW1 2369   0.433   0.012   0.017 -2.2264  1.6490 -1.0760
  790SOL    HW2 2370   0.594   0.004   0.045 -1.0848 -0.6078 -3.1195
  791SOL     OW 2371   0.695   0.047   2.365 -0.5942  0.1148 -0.5507
  791SOL    HW1 2372   0.678   0.132   2.317 -1.0921 -3.6099  2.7520
  791SOL    HW2 2373   0.776   0.055   2.426 -1.0431 -0.0568  0.1283
  792SOL     OW 2374   1.761   0.473   2.301 -0.2066 -0.0472 -0.8080
  792SOL    HW1 2375   1.775   0.572   2.300  0.7034 -0.8771  0.7803
  792SOL    HW2 2376   1.836   0.431   2.362  2.5044 -0.0112  1.2498
  793SOL     OW 2377   2.814   0.836   1.616  0.2985  0.0489 -0.0868
  793SOL    HW1 2378   2.848   0.809   1.708 -0.3123  0.9904  0.2020
  793SOL    HW2 2379   2.886   0.846   1.544  0.8614 -1.6014 -0.5072
  794SOL     OW 2380   0.364   0.488   1.704  0.2968  0.3299 -0.3864
  794SOL    HW1 2381   0.261   0.520   1.722 -3.8150  0.8517  3.1882
  794SOL    HW2 2382   0.425   0.564   1.707  0.0590 -3.0032 -0.7484
  795SOL     OW 2383   2.929   1.498   0.481  0.2280 -0.2393  0.3459
  795SOL    HW1 2384   2.884   1.519   0.571 -0.4949 -0.4642 -0.9253
  795SOL    HW2 2385   2.911   1.402   0.449 -0.6006  1.3779 -1.9843
  796SOL     OW 2386   0.003   2.773   0.383  0.5083 -0.4958 -0.0424
  796SOL    HW1 2387   0.021   2.860   0.329  1.1959  0.1365 -1.1829
  796SOL    HW2 2388   0.005   2.690   0.328  3.4398  2.4023 -0.9096
  797SOL     OW 2389   1.872   2.552   2.771  0.3199  0.2845 -0.2524
  797SOL    HW1 2390   1.940   2.528   2.843  0.6131 -3.4872  2.0441
  797SOL    HW2 2391   1.798   2.484   2.765  2.2853 -0.9096  3.1057
  798SOL     OW 2392   0.094   1.081   1.317 -0.0929  0.2563 -0.3771
  798SOL    HW1 2393   0.088   1.050   1.218 -3.2512  0.0659 -3.3406
  798SOL    HW2 2394   0.060   1.180   1.327 -1.9340  0.9308  1.8315
  799SOL     OW 2395   0.145   0.656   2.847  1.0650 -0.2818  0.5422
  799SOL    HW1 2396   0.132   0.588   2.776  2.8493  1.6872  3.6913
  799SOL    HW2 2397   0.095   0.742   2.834  1.2255 -0.9210  0.4266
  800SOL     OW 2398   2.747   1.786   0.668 -0.2433 -0.2465 -0.4964
  800SOL    HW1 2399   2.807   1.862   0.704  1.1883 -1.0604  1.6281
  800SOL    HW2 2400   2.760   1.773   0.569 -1.9658 -1.4826 -0.8626
  801SOL     OW 2401   1.477   1.412   1.206 -0.2361  0.2149  0.3883
  801SOL    HW1 2402   1.488   1.511   1.199  0.3118  0.5947  0.4484
  801SOL    HW2 2403   1.378   1.392   1.207  1.0178  1.2002 -1.7114
  802SOL     OW 2404   1.089   1.923   1.809  0.6878  0.3622 -0.1578
  802SOL    HW1 2405   1.153   1.957   1.885  0.3853  2.7530 -0.1723
  802SOL    HW2 2406   1.062   2.002   1.745 -1.3092 -0.7253 -1.4380
  803SOL     OW 2407   0.357   1.992   0.562 -0.0124  0.0081 -0.1704
  803SOL    HW1 2408   0.452   2.001   0.598  0.4196 -1.7335 -2.0556
  803SOL    HW2 2409   0.289   2.023   0.635 -1.4107  2.8938  2.6035
  804SOL     OW 2410   1.039   2.542   1.432 -0.3661  0.4212  0.2925
  804SOL    HW1 2411   1.138   2.524   1.437 -2.0432  0.6066  0.5244
  804SOL    HW2 2412   1.010   2.610   1.503 -0.8002  0.6646 -1.3370
  805SOL     OW 2413   1.837   1.155   0.117  0.3450 -0.0448 -0.1047
  805SOL    HW1 2414   1.860   1.122   0.026  0.5226  0.9606  1.8278
  805SOL    HW2 2415   1.761   1.224   0.105 -1.1030  0.5742 -0.0467
  806SOL     OW 2416   1.593   2.961   0.745  0.2238 -0.2004 -0.3404
  806SOL    HW1 2417   1.505   2.972   0.696  3.8958  0.9998 -0.8564
  806SOL    HW2 2418   1.583   2.926   0.843 -3.0620 -2.6741 -0.3270
  807SOL     OW 2419   2.432   3.028   2.969  0.1997 -0.2479 -0.3014
  807SOL    HW1 2420   2.429   3.078   3.059  0.1916  3.3937 -0.2782
  807SOL    HW2 2421   2.520   3.045   2.916 -0.5603  1.0216 -1.5264
  808SOL     OW 2422   0.268   1.026   0.280  0.1597 -0.3513  0.4953
  808SOL    HW1 2423   0.300   1.051   0.373  0.1681 -1.2939 -0.5363
  808SOL    HW2 2424   0.222   1.103   0.233 -0.4426 -0.4139 -0.6610
  809SOL     OW 2425   2.699   0.967   2.445 -0.2481  0.0563  0.3970
  809SOL    HW1 2426   2.631   0.924   2.510 -0.1937 -1.8372 -0.7960
  809SOL    HW2 2427   2.672   0.958   2.346 -1.9136 -1.9677 -0.9077
  810SOL     OW 2428   1.928   0.363   1.772  0.9156 -0.2773  0.3715
  810SOL    HW1 2429   1.905   0.371   1.673  0.3479 -3.4436  1.5013
  810SOL    HW2 2430   1.864   0.305   1.825  0.1583  1.1485 -0.5266
  811SOL     OW 2431   2.408   2.471   1.805  0.3236 -1.1455  0.3307
  811SOL    HW1 2432   2.430   2.559   1.849  0.1567  1.6787  3.3538
  811SOL    HW2 2433   2.479   2.444   1.735 -0.8742 -0.8733  2.5030
  812SOL     OW 2434   1.633   0.149   2.847 -0.3563  0.0051  0.2666
  812SOL    HW1 2435   1.579   0.103   2.920  0.5986 -1.2733  0.5775
  812SOL    HW2 2436   1.626   0.103   2.757 -1.2667 -0.4422 -3.2564
  813SOL     OW 2437   2.154   0.304   1.908 -0.8676 -0.3154  0.3177
  813SOL    HW1 2438   2.064   0.324   1.867  1.9243  0.2516 -0.7677
  813SOL    HW2 2439   2.236   0.347   1.862  0.3103 -0.4456  1.1943
  814SOL     OW 2440   1.870   1.242   1.926  0.2488 -0.2762 -0.2605
  814SOL    HW1 2441   1.811   1.213   2.004  0.7323  1.0567 -1.9775
  814SOL    HW2 2442   1.833   1.198   1.842 -1.8343  1.2635  1.2051
  815SOL     OW 2443   0.512   0.904   0.246 -0.6345 -0.3196  0.1560
  815SOL    HW1 2444   0.414   0.939   0.235 -2.1864  0.4696  0.0298
  815SOL    HW2 2445   0.544   0.908   0.345  0.3732 -0.8693  0.8648
  816SOL     OW 2446   2.101   1.538   2.715 -0.3940  0.6858  0.2529
  816SOL    HW1 2447   2.018   1.562   2.657 -0.0115 -0.5257 -0.8312
  816SOL    HW2 2448   2.181   1.573   2.666 -0.0166 -0.5315 -2.0806
  817SOL     OW 2449   0.263   2.915   0.491 -0.1732  0.3672 -0.5639
  817SOL    HW1 2450   0.255   2.832   0.549  0.2276  2.8539  0.6457
  817SOL    HW2 2451   0.177   2.967   0.498  3.4639 -2.7774  3.2629
  818SOL     OW 2452   1.885   0.288   2.458  0.1238 -0.1130 -0.0309
  818SOL    HW1 2453   1.964   0.224   2.465 -0.1980 -1.3065 -2.2157
  818SOL    HW2 2454   1.797   0.236   2.481  1.4180 -2.1206  1.7372
  819SOL     OW 2455   1.457   0.723   0.381 -0.2002 -0.3116  0.1327
  819SOL    HW1 2456   1.405   0.765   0.306  1.0829 -2.0488  1.8363
  819SOL    HW2 2457   1.499   0.634   0.349  2.2692  1.1561  0.6036
  820SOL     OW 2458   2.211   0.592   0.681  0.0652 -0.1487  0.2391
  820SOL    HW1 2459   2.295   0.642   0.666 -1.5881  1.2619  1.2885
  820SOL    HW2 2460   2.171   0.630   0.766 -3.6172  0.6437  0.2893
  821SOL     OW 2461   2.322   2.869   0.308 -0.0319  0.7274 -0.1781
  821SOL    HW1 2462   2.352   2.904   0.402 -0.2724  0.6063  2.0236
  821SOL    HW2 2463   2.402   2.849   0.243 -0.0225 -0.7511 -1.0851
  822SOL     OW 2464   0.111   2.943   2.217  0.1602  0.1212 -0.0839
  822SOL    HW1 2465   0.181   2.947   2.140  0.3618  1.8293 -3.2537
  822SOL    HW2 2466   0.052   2.864   2.203  2.7410  4.1665 -1.7240
  823SOL     OW 2467   2.712   2.123   1.659 -0.1096  0.0249 -0.5617
  823SOL    HW1 2468   2.722   2.184   1.575  0.8300  2.1315 -0.5166
  823SOL    HW2 2469   2.620   2.082   1.658 -1.9557  2.0778  0.6150
  824SOL     OW 2470   0.723   2.821   1.953  0.6377 -0.6378  0.1110
  824SOL    HW1 2471   0.646   2.757   1.935  2.4651  0.5818  1.0928
  824SOL    HW2 2472   0.699   2.885   2.027 -2.1824  0.2967 -1.1171
  825SOL     OW 2473   1.499   1.590   0.419 -0.2564 -0.1893 -0.1251
  825SOL    HW1 2474   1.578   1.526   0.426 -0.6108  1.3418  0.0496
  825SOL    HW2 2475   1.448   1.584   0.332  0.2496  0.7179  2.6656
  826SOL     OW 2476   1.645   0.506   0.041 -0.2946  0.3287  0.7834
  826SOL    HW1 2477   1.673   0.439   3.066 -2.3543 -1.1837  3.4585
  826SOL    HW2 2478   1.696   0.589   0.036 -3.1732 -1.7483  0.1129
  827SOL     OW 2479   0.221   1.538   1.444 -0.8129 -0.4173  0.7485
  827SOL    HW1 2480   0.260   1.619   1.501  0.6136  0.1808  4.9201
  827SOL    HW2 2481   0.280   1.507   1.368  0.4625 -0.8715 -0.1155
  828SOL     OW 2482   2.046   1.125   1.624  0.0687 -0.0693  0.2982
  828SOL    HW1 2483   2.032   1.146   1.526 -3.5678  2.2229 -0.6448
  828SOL    HW2 2484   1.955   1.126   1.680 -2.4709 -0.4276  2.0984
  829SOL     OW 2485   0.221   2.256   0.248  0.2492 -0.1463 -0.0171
  829SOL    HW1 2486   0.132   2.214   0.276  0.8559 -0.5601  1.4497
  829SOL    HW2 2487   0.298   2.238   0.313  0.8226 -0.6169 -1.5974
  830SOL     OW 2488   0.969   0.859   0.814  0.0262  0.5387 -0.6451
  830SOL    HW1 2489   0.930   0.943   0.855  0.3344  1.4984  0.7829
  830SOL    HW2 2490   0.926   0.777   0.847  0.2071 -0.4371 -1.3704
  831SOL     OW 2491   2.750   1.724   0.169 -0.1256 -0.3999  0.4377
  831SOL    HW1 2492   2.777   1.772   0.081 -0.8330 -2.4714  1.2120
  831SOL    HW2 2493   2.674   1.661   0.152  1.8936  0.2614 -0.5102
  832SOL     OW 2494   1.016   2.866   0.187  0.0434  0.0806 -0.5542
  832SOL    HW1 2495   1.021   2.928   0.105  1.7527 -1.2915 -0.7997
  832SOL    HW2 2496   1.077   2.908   0.258 -1.6825  1.3597 -1.4979
  833SOL     OW 2497   1.029   0.463   1.992 -0.1773 -0.1447  0.6862
  833SOL    HW1 2498   1.047   0.431   2.084 -1.3660  0.5538  0.4391
  833SOL    HW2 2499   1.011   0.562   1.993  1.9916  2.1380  0.8230
  834SOL     OW 2500   0.315   0.810   1.051  0.4383 -0.0339  0.1697
  834SOL    HW1 2501   0.383   0.833   0.982  0.8787  3.5303  0.7577
  834SOL    HW2 2502   0.355   0.785   1.142 -1.5061  1.0880 -0.3535
  835SOL     OW 2503   2.525   0.122   1.835 -0.2402 -0.5081 -0.0348
  835SOL    HW1 2504   2.579   0.142   1.920  1.7367  2.0584  2.0888
  835SOL    HW2 2505   2.480   0.206   1.796 -0.7084 -0.6506  2.4495
  836SOL     OW 2506   0.216   2.179   0.748 -0.3668 -0.6317 -0.0028
  836SOL    HW1 2507   0.291   2.252   0.749 -0.3010  2.2968 -2.2357
  836SOL    HW2 2508   0.218   2.129   0.843 -2.3906 -3.3918  0.1757
  837SOL     OW 2509   2.005   1.792   2.392  0.4784  0.6639 -0.1099
  837SOL    HW1 2510   1.991   1.690   2.396  0.8896 -0.7043 -0.2078
  837SOL    HW2 2511   2.089   1.817   2.446 -0.7608 -0.2228 -3.5199
  838SOL     OW 2512   0.343   1.014   1.420 -0.1711 -0.1476  0.4885
  838SOL    HW1 2513   0.414   1.019   1.345  0.6699  1.4153 -0.5905
  838SOL    HW2 2514   0.255   1.051   1.385 -0.4603 -0.1579  0.2993
  839SOL     OW 2515   0.288   0.278   0.807 -0.3992  0.0622  0.2331
  839SOL    HW1 2516   0.322   0.376   0.794  1.8449  2.8015 -0.2521
  839SOL    HW2 2517   0.221   0.280   0.888 -3.2440 -1.0840  0.8636
  840SOL     OW 2518   2.702   0.226   2.592 -0.2667  0.1334  0.3116
  840SOL    HW1 2519   2.773   0.183   2.529  2.2206  0.3400 -1.2241
  840SOL    HW2 2520   2.733   0.322   2.608  1.8021  0.8844 -3.6204
  841SOL     OW 2521   0.543   2.795   0.016  0.6740  0.1668  0.3342
  841SOL    HW1 2522   0.492   2.814   0.101  0.8279  0.1704  3.0531
  841SOL    HW2 2523   0.625   2.857   0.015 -0.4822  0.1676 -0.2746
  842SOL     OW 2524   0.986   0.154   0.897 -0.1498 -0.5347  0.2693
  842SOL    HW1 2525   0.937   0.068   0.869  1.1877  0.2619  0.0542
  842SOL    HW2 2526   0.939   0.188   0.981 -1.2067  0.9088  0.2229
  843SOL     OW 2527   3.084   1.402   2.848  0.3966  0.0638 -0.5560
  843SOL    HW1 2528   3.077   1.338   2.930  0.1230  0.0997  0.2874
  843SOL    HW2 2529   3.057   1.354   2.757  0.2142 -2.5100 -2.0655
  844SOL     OW 2530   0.999   2.287   2.297  0.4452 -0.2430 -0.1151
  844SOL    HW1 2531   1.027   2.297   2.397  0.0576  0.6620 -0.1264
  844SOL    HW2 2532   0.914   2.341   2.274  0.8190 -2.2813  0.6120
  845SOL     OW 2533   2.166   2.585   2.406  0.0101 -0.3058  0.0967
  845SOL    HW1 2534   2.184   2.658   2.332 -0.0445  2.0786 -0.6484
  845SOL    HW2 2535   2.112   2.626   2.480  1.9427 -1.7097  0.7290
  846SOL     OW 2536   1.668   1.682   2.459  0.1467  0.0779 -0.3691
  846SOL    HW1 2537   1.732   1.656   2.533  0.2471  1.3421 -0.9777
  846SOL    HW2 2538   1.712   1.680   2.367  1.7829 -0.2777 -1.6915
  847SOL     OW 2539   2.726   0.032   3.094 -0.2665 -0.1422  0.1686
  847SOL    HW1 2540   2.715   0.037   2.992 -0.0798  0.7790 -1.1543
  847SOL    HW2 2541   2.715   0.127   0.028  0.7269  2.2152 -0.1190
  848SOL     OW 2542   0.123   0.838   0.138 -0.7709 -0.1851 -0.0357
  848SOL    HW1 2543   0.167   0.901   0.200 -2.0000  0.9479  0.6043
  848SOL    HW2 2544   0.190   0.792   0.076  0.0055 -0.3452  0.2492
  849SOL     OW 2545   1.189   0.141   2.228 -0.4343 -0.0540 -0.5644
  849SOL    HW1 2546   1.108   0.079   2.222  1.6092  0.6284  0.8566
  849SOL    HW2 2547   1.260   0.106   2.296  0.3954  1.0025  0.2685
  850SOL     OW 2548   0.383   1.125   0.518  0.0227  0.2289 -0.1100
  850SOL    HW1 2549   0.462   1.162   0.465 -1.0975 -0.4166 -0.4565
  850SOL    HW2 2550   0.345   1.202   0.577  1.1411  1.2710  2.5972
  851SOL     OW 2551   0.519   1.483   0.272 -0.2875  0.6203 -0.2215
  851SOL    HW1 2552   0.577   1.524   0.345 -0.3725 -0.8913 -1.6822
  851SOL    HW2 2553   0.567   1.434   0.195 -0.4412 -1.8319 -1.3400
  852SOL     OW 2554   1.220   1.095   1.857 -0.0433 -0.4427  0.1405
  852SOL    HW1 2555   1.293   1.160   1.876 -1.5992 -0.3407  0.1216
  852SOL    HW2 2556   1.191   1.047   1.942  0.1522  0.5902 -1.1380
  853SOL     OW 2557   2.566   1.397   0.379 -0.0335  0.2816 -0.2555
  853SOL    HW1 2558   2.540   1.328   0.306 -1.6741  0.2765  1.9737
  853SOL    HW2 2559   2.541   1.488   0.339  0.6064 -1.0449 -2.2290
  854SOL     OW 2560   1.119   0.985   2.124 -0.1853  0.7011  0.0342
  854SOL    HW1 2561   1.039   0.942   2.167  1.1969  2.0449  0.4605
  854SOL    HW2 2562   1.194   0.918   2.129 -0.2975  1.8430 -0.8396
  855SOL     OW 2563   0.319   2.619   2.556 -0.0238 -0.0457  0.5635
  855SOL    HW1 2564   0.412   2.653   2.539 -1.1740  2.1615  2.1319
  855SOL    HW2 2565   0.284   2.654   2.645  0.2908  2.2692 -0.0158
  856SOL     OW 2566   1.267   0.742   2.087  0.1158  0.0113 -0.4354
  856SOL    HW1 2567   1.348   0.693   2.050 -1.0695  0.7840 -1.5941
  856SOL    HW2 2568   1.185   0.729   2.029  0.9844 -0.1734 -3.0731
  857SOL     OW 2569   1.343   0.600   2.305 -0.1687  0.0029 -0.4260
  857SOL    HW1 2570   1.385   0.510   2.274 -1.4811 -1.2052  1.3984
  857SOL    HW2 2571   1.309   0.653   2.226  2.6127  0.0826 -2.1650
  858SOL     OW 2572   0.152   0.870   1.825 -0.2765 -0.5191 -0.1815
  858SOL    HW1 2573   0.200   0.911   1.903 -1.6171 -1.5521  1.6350
  858SOL    HW2 2574   0.202   0.876   1.736 -0.1993  1.8138 -0.6996
  859SOL     OW 2575   2.630   2.997   0.890 -0.3342  0.2543  0.1498
  859SOL    HW1 2576   2.733   3.009   0.887 -1.3219  0.5570  2.1964
  859SOL    HW2 2577   2.591   2.927   0.829  1.1983 -0.1863  0.1013
  860SOL     OW 2578   1.993   0.178   0.666  0.4737  0.0898 -0.4667
  860SOL    HW1 2579   1.915   0.132   0.709 -0.0715  0.0109 -2.5109
  860SOL    HW2 2580   2.015   0.141   0.572  1.0284 -0.4679 -1.0974
  861SOL     OW 2581   1.510   0.573   1.166  0.2077  0.1728  0.0695
  861SOL    HW1 2582   1.435   0.553   1.230 -0.5511 -1.0284 -0.5158
  861SOL    HW2 2583   1.481   0.632   1.090 -1.1410 -2.7550  1.7104
  862SOL     OW 2584   1.344   0.039   2.414 -0.0105 -0.1896 -0.2167
  862SOL    HW1 2585   1.402   3.053   2.405 -2.4266 -2.9708 -0.1933
  862SOL    HW2 2586   1.397   0.108   2.477  0.5803  1.3784  0.3978
  863SOL     OW 2587   3.048   2.733   0.815 -0.4226  0.1913 -0.2306
  863SOL    HW1 2588   2.991   2.744   0.900 -2.3349 -1.0011  2.2815
  863SOL    HW2 2589   3.057   2.633   0.797  2.7175  2.2297  1.7379
  864SOL     OW 2590   2.382   0.012   2.167 -1.0969 -0.1667  1.0548
  864SOL    HW1 2591   2.284   3.078   2.189 -2.8409 -1.4129 -0.2623
  864SOL    HW2 2592   2.382   0.113   2.156  0.7308 -0.4251  0.5465
  865SOL     OW 2593   0.969   1.454   2.010 -0.7236 -0.1899  0.6741
  865SOL    HW1 2594   0.948   1.361   2.037 -1.1335  2.4015 -3.2294
  865SOL    HW2 2595   0.925   1.532   2.061 -2.0680  0.3312  0.6604
  866SOL     OW 2596   1.980   2.783   1.076 -0.4543  0.2314 -0.2714
  866SOL    HW1 2597   1.950   2.750   0.990 -0.1642  2.1859  2.3485
  866SOL    HW2 2598   2.081   2.789   1.078  0.0472 -1.2853  1.9898
  867SOL     OW 2599   2.197   2.969   0.852  0.4940 -0.0660  0.1746
  867SOL    HW1 2600   2.222   2.904   0.927 -0.4430 -0.7443 -0.2057
  867SOL    HW2 2601   2.095   2.983   0.857 -1.8480  2.1260  0.5595
  868SOL     OW 2602   2.900   1.912   1.628 -0.2421 -0.5278  0.3089
  868SOL    HW1 2603   2.860   1.827   1.585 -0.3559 -0.1093  1.6777
  868SOL    HW2 2604   2.826   1.979   1.643  1.0526 -1.4548 -0.9400
  869SOL     OW 2605   1.947   2.241   2.238  0.4748  0.2745 -0.7911
  869SOL    HW1 2606   1.870   2.247   2.176  1.7765 -0.0087  3.4412
  869SOL    HW2 2607   2.008   2.318   2.221 -1.6173 -3.2700  0.4203
  870SOL     OW 2608   1.387   1.257   0.840  0.1543 -0.4541  0.0167
  870SOL    HW1 2609   1.478   1.276   0.796 -1.8365  0.2976 -1.4863
  870SOL    HW2 2610   1.351   1.346   0.880  3.5529  2.4619 -1.2378
  871SOL     OW 2611   2.967   1.958   2.084 -0.6296 -0.7433 -0.3680
  871SOL    HW1 2612   2.935   2.016   2.169 -0.6841  2.3540  2.9363
  871SOL    HW2 2613   3.018   1.873   2.116  3.4629 -2.0492  4.0991
  872SOL     OW 2614   1.290   1.401   2.595 -0.1207 -0.3288 -0.0982
  872SOL    HW1 2615   1.203   1.447   2.567 -1.1416  0.2077  0.1184
  872SOL    HW2 2616   1.370   1.433   2.541 -0.6661  0.8104 -0.2745
  873SOL     OW 2617   0.771   1.133   1.825  0.1681 -0.5545 -0.0848
  873SOL    HW1 2618   0.761   1.230   1.791  2.0942  0.2803 -1.8677
  873SOL    HW2 2619   0.683   1.086   1.807 -1.0924 -0.3798 -0.9135
  874SOL     OW 2620   1.777   0.903   1.562 -0.0277 -0.0091  0.6500
  874SOL    HW1 2621   1.775   0.931   1.464 -1.4325 -0.7652 -1.1864
  874SOL    HW2 2622   1.829   0.818   1.565 -1.6019  1.2316 -0.9054
  875SOL     OW 2623   3.012   0.218   0.128 -0.1523  0.3748  0.1981
  875SOL    HW1 2624   3.025   0.116   0.136 -0.1793 -0.6472  0.1779
  875SOL    HW2 2625   2.947   0.256   0.196 -1.4122 -1.7511  0.0117
  876SOL     OW 2626   0.835   1.263   0.122 -0.3239  0.4566  0.1134
  876SOL    HW1 2627   0.850   1.289   0.218  0.9789 -0.9541 -2.4254
  876SOL    HW2 2628   0.920   1.269   0.064 -0.2934 -0.1051 -0.5403
  877SOL     OW 2629   2.507   2.608   0.902  0.2519  0.5372  0.0264
  877SOL    HW1 2630   2.487   2.600   1.003 -1.9537 -0.5075 -1.4922
  877SOL    HW2 2631   2.605   2.584   0.887  2.2998 -0.4413 -0.0567
  878SOL     OW 2632   1.928   1.850   0.383 -0.1143 -0.3546  0.1017
  878SOL    HW1 2633   1.970   1.944   0.401  1.6548  1.3208 -3.1036
  878SOL    HW2 2634   1.988   1.797   0.321 -1.5233  2.9378  2.1121
  879SOL     OW 2635   2.935   1.476   1.851  0.3955 -0.0522 -0.2116
  879SOL    HW1 2636   2.996   1.554   1.839  1.7885  0.1439 -0.2423
  879SOL    HW2 2637   2.889   1.486   1.940  1.3064  0.3347  0.1116
  880SOL     OW 2638   0.504   1.938   1.006  0.1215 -0.5027 -0.1047
  880SOL    HW1 2639   0.594   1.965   1.049 -0.8496  1.1895  0.2804
  880SOL    HW2 2640   0.475   1.842   1.039  0.1104  1.8858 -0.7698
  881SOL     OW 2641   1.026   0.111   1.781  0.6261 -0.1435 -0.0782
  881SOL    HW1 2642   1.084   0.035   1.748 -0.2432  1.3378  2.6079
  881SOL    HW2 2643   1.077   0.193   1.765 -0.9802 -1.7699  4.7002
  882SOL     OW 2644   2.422   0.970   1.145  0.1082  0.0309 -0.0553
  882SOL    HW1 2645   2.458   1.032   1.075  1.5256  0.3662 -0.6963
  882SOL    HW2 2646   2.436   0.993   1.242  3.6086 -0.2651 -0.0845
  883SOL     OW 2647   1.601   0.318   1.485  0.3384  0.2201 -0.6445
  883SOL    HW1 2648   1.646   0.300   1.400  0.0587  1.2341  1.3195
  883SOL    HW2 2649   1.602   0.418   1.509  0.9903 -2.3845  0.6704
  884SOL     OW 2650   2.769   0.143   2.230 -0.1070  0.2434 -0.0304
  884SOL    HW1 2651   2.859   0.133   2.180  0.4350  0.5579  1.6321
  884SOL    HW2 2652   2.700   0.197   2.175 -3.9771  2.5510 -1.5649
  885SOL     OW 2653   1.319   1.483   3.025 -0.3142 -0.2450  0.3696
  885SOL    HW1 2654   1.308   1.539   2.938 -1.0429  0.7330 -0.3785
  885SOL    HW2 2655   1.230   1.445   3.051 -2.0759 -0.6091 -0.4803
  886SOL     OW 2656   2.075   0.239   2.924  0.1280  0.4409 -0.6684
  886SOL    HW1 2657   2.105   0.286   3.009  1.2236 -0.9750  0.0562
  886SOL    HW2 2658   2.031   0.298   2.855  1.3243 -0.5571 -0.8989
  887SOL     OW 2659   1.141   2.897   1.474  0.9316  0.0561 -0.3234
  887SOL    HW1 2660   1.163   2.982   1.426 -0.1059 -1.2554  2.6800
  887SOL    HW2 2661   1.160   2.900   1.574  0.2539 -0.2484 -3.8276
  888SOL     OW 2662   1.786   1.714   2.214  0.3626 -0.5916 -0.0182
  888SOL    HW1 2663   1.773   1.694   2.114 -0.0328 -0.0888  2.4463
  888SOL    HW2 2664   1.879   1.746   2.232 -2.1227  0.8814 -1.8505
  889SOL     OW 2665   2.051   2.439   1.094 -0.5497  0.1784 -0.1307
  889SOL    HW1 2666   1.978   2.448   1.157  2.2977 -0.0474 -1.9110
  889SOL    HW2 2667   2.033   2.483   1.006  1.4905 -0.8948  0.2917
  890SOL     OW 2668   1.274   1.938   0.767  0.1939 -0.0028 -0.2058
  890SOL    HW1 2669   1.271   2.006   0.843 -0.7567 -2.6493  0.6643
  890SOL    HW2 2670   1.353   1.960   0.703 -0.4801  2.3778  0.0509
  891SOL     OW 2671   2.613   1.233   0.068 -0.2092  0.0264 -0.0178
  891SOL    HW1 2672   2.681   1.293   0.114 -0.5391 -3.5685 -1.4461
  891SOL    HW2 2673   2.580   1.289   3.087 -0.1984 -0.1082 -0.3165
  892SOL     OW 2674   2.144   1.180   3.048  0.4686  0.0825 -0.4935
  892SOL    HW1 2675   2.156   1.234   0.041 -0.6991 -0.4612  0.3921
  892SOL    HW2 2676   2.099   1.233   2.970 -0.9524 -3.4286 -1.2094
  893SOL     OW 2677   1.897   2.428   1.333 -0.2270  0.1528 -0.0661
  893SOL    HW1 2678   1.893   2.533   1.334  0.9237 -0.6799  1.4161
  893SOL    HW2 2679   1.975   2.399   1.390  2.9596 -0.5417  3.9184
  894SOL     OW 2680   2.523   2.802   0.691 -0.5105 -0.6080  0.2025
  894SOL    HW1 2681   2.561   2.755   0.608  0.0407  1.1370 -0.5201
  894SOL    HW2 2682   2.508   2.727   0.762  1.7500  1.2388  1.4358
  895SOL     OW 2683   2.793   2.481   2.736 -0.1323 -0.0144  0.3738
  895SOL    HW1 2684   2.746   2.566   2.709  0.1387 -1.1105 -0.3251
  895SOL    HW2 2685   2.774   2.404   2.667  1.9575  0.1905 -2.5765
  896SOL     OW 2686   2.072   0.102   2.520 -0.1104 -0.5703 -0.3491
  896SOL    HW1 2687   2.158   0.157   2.545 -0.1667  1.9040  0.3028
  896SOL    HW2 2688   2.048   0.033   2.593 -1.9152  2.1640  1.1405
  897SOL     OW 2689   0.242   1.715   2.045  0.3951 -0.1205  0.2628
  897SOL    HW1 2690   0.269   1.645   1.975  0.6931  0.6052  2.3833
  897SOL    HW2 2691   0.324   1.742   2.105 -3.0081  0.6064  0.4680
  898SOL     OW 2692   2.494   1.527   1.755 -0.4537  0.2166  0.1012
  898SOL    HW1 2693   2.496   1.626   1.754 -1.5935  1.3296 -1.1891
  898SOL    HW2 2694   2.426   1.489   1.688 -0.8891 -1.3234  0.5663
  899SOL     OW 2695   1.440   2.814   1.433  0.1435 -0.2016 -0.3534
  899SOL    HW1 2696   1.470   2.898   1.478 -2.0751 -0.1452 -0.5075
  899SOL    HW2 2697   1.342   2.815   1.424 -2.0150  0.4800 -0.5776
  900SOL     OW 2698   1.217   1.100   2.896  0.0477 -0.0413  0.2059
  900SOL    HW1 2699   1.136   1.132   2.846  1.3071 -2.7568 -1.3148
  900SOL    HW2 2700   1.190   1.024   2.957  0.2672  0.2679 -1.9724
  901SOL     OW 2701   0.847   1.214   2.311  0.1188  0.5376  0.3743
  901SOL    HW1 2702   0.874   1.193   2.215 -0.6865 -0.2085 -0.5996
  901SOL    HW2 2703   0.835   1.312   2.323 -0.1454 -1.0706 -0.6270
  902SOL     OW 2704   2.754   2.217   0.430  0.0189  0.3879 -0.0559
  902SOL    HW1 2705   2.676   2.171   0.386 -0.9135 -0.6485 -0.9990
  902SOL    HW2 2706   2.840   2.183   0.393 -2.8022 -1.5284 -0.8986
  903SOL     OW 2707   2.506   1.174   1.779 -0.4983 -0.2922  0.3169
  903SOL    HW1 2708   2.589   1.115   1.762  0.1991 -0.8200  0.8844
  903SOL    HW2 2709   2.486   1.173   1.877  1.5938 -1.6894 -2.3327
  904SOL     OW 2710   1.793   0.737   3.071 -0.1353 -0.0207  0.4215
  904SOL    HW1 2711   1.764   0.829   3.036  1.1428  3.8509 -0.8449
  904SOL    HW2 2712   1.879   0.753   0.032  3.6212 -3.9468  1.0679
  905SOL     OW 2713   2.417   2.594   1.168 -0.1223 -0.2147 -0.0068
  905SOL    HW1 2714   2.411   2.630   1.267 -0.1275  0.2953  5.2219
  905SOL    HW2 2715   2.360   2.508   1.156  2.2824  2.3546  1.3331
  906SOL     OW 2716   1.444   2.090   0.062  0.2349 -0.0919  0.3049
  906SOL    HW1 2717   1.480   2.185   0.079  0.0496  0.4541  1.6575
  906SOL    HW2 2718   1.355   2.079   0.107  0.6787 -0.9102 -2.2206
  907SOL     OW 2719   0.824   2.463   0.735  0.6037  0.1147 -0.2533
  907SOL    HW1 2720   0.727   2.442   0.711  0.7263  2.4661 -0.6888
  907SOL    HW2 2721   0.848   2.433   0.831  3.2383  0.9498 -0.8916
  908SOL     OW 2722   1.017   2.854   2.092  0.3457 -0.1493  0.0370
  908SOL    HW1 2723   0.957   2.832   2.011  0.1835  0.0797  2.8973
  908SOL    HW2 2724   1.115   2.823   2.080  2.9943 -1.5202 -3.9658
  909SOL     OW 2725   1.884   0.371   1.508  0.7568  0.0031  0.1861
  909SOL    HW1 2726   1.805   0.423   1.463 -3.2058 -0.5812 -0.4691
  909SOL    HW2 2727   1.892   0.275   1.477  0.8171  1.7813 -2.0019
  910SOL     OW 2728   1.174   0.486   2.578 -0.1732  0.8930  1.9321
  910SOL    HW1 2729   1.152   0.562   2.644 -2.5465 -1.4804  1.8188
  910SOL    HW2 2730   1.239   0.519   2.505  2.0227  3.2496  1.0397
  911SOL     OW 2731   2.815   0.669   0.102 -0.4389  0.6596  0.0471
  911SOL    HW1 2732   2.824   0.770   0.084  2.1085 -1.4514 -0.3543
  911SOL    HW2 2733   2.909   0.639   0.134  3.1035 -1.7208  1.8147
  912SOL     OW 2734   2.923   2.457   3.036 -0.2583 -0.1264 -0.1547
  912SOL    HW1 2735   2.914   2.390   2.965  0.3378 -0.4676  1.0976
  912SOL    HW2 2736   3.021   2.483   3.047 -0.4925  1.3056 -1.2989
  913SOL     OW 2737   2.782   2.108   2.774 -0.0478  0.0655  0.4684
  913SOL    HW1 2738   2.776   2.173   2.695 -0.9685 -0.0035  0.8460
  913SOL    HW2 2739   2.878   2.086   2.790 -1.0907 -2.2019 -0.4937
  914SOL     OW 2740   1.444   1.747   1.636 -0.0657  0.1500 -0.0849
  914SOL    HW1 2741   1.390   1.661   1.605 -0.2715 -2.5129  2.3378
  914SOL    HW2 2742   1.395   1.832   1.614 -0.6090 -1.0648  1.8625
  915SOL     OW 2743   0.247   2.628   2.021  0.8515  0.3463 -0.0720
  915SOL    HW1 2744   0.188   2.618   2.103  2.3913 -3.4369  0.5144
  915SOL    HW2 2745   0.339   2.575   2.033 -0.2201  0.5736  1.1582
  916SOL     OW 2746   0.452   1.204   1.608  0.0509 -0.0041 -0.8008
  916SOL    HW1 2747   0.410   1.147   1.536  1.7948 -0.6578 -0.1580
  916SOL    HW2 2748   0.388   1.284   1.635 -0.8548  2.2094 -1.9997
  917SOL     OW 2749   2.406   0.140   0.069  0.0225 -0.0277 -0.3479
  917SOL    HW1 2750   2.451   0.120   0.159  1.1763 -1.7033  1.8976
  917SOL    HW2 2751   2.477   0.171   0.005  0.2643  0.3469  0.5105
  918SOL     OW 2752   1.511   2.425   2.279 -0.0071  0.2097 -0.0516
  918SOL    HW1 2753   1.523   2.324   2.272  0.4743 -0.2548  0.4960
  918SOL    HW2 2754   1.416   2.451   2.239  1.7817  0.7100 -0.3920
  919SOL     OW 2755   1.664   2.534   1.621  0.6825 -0.4120 -0.2353
  919SOL    HW1 2756   1.680   2.475   1.539  0.4965 -0.8322  1.3446
  919SOL    HW2 2757   1.718   2.488   1.696  0.4186 -0.2606 -0.5532
  920SOL     OW 2758   0.736   1.104   2.893  0.0206 -0.6194 -0.2022
  920SOL    HW1 2759   0.665   1.170   2.865  1.2528 -0.8645 -3.3710
  920SOL    HW2 2760   0.721   1.072   2.993 -0.2191  0.5740  0.4409
  921SOL     OW 2761   2.992   0.930   2.429  0.8437  0.0653 -0.3149
  921SOL    HW1 2762   2.895   0.916   2.455 -0.3561 -1.5981 -0.6638
  921SOL    HW2 2763   3.018   0.867   2.352 -1.3040  1.2243  0.8461
  922SOL     OW 2764   0.723   1.816   0.451  0.2815 -0.8446  0.2155
  922SOL    HW1 2765   0.819   1.815   0.490 -3.2653 -2.2397  1.4425
  922SOL    HW2 2766   0.666   1.883   0.500  3.6603  0.9395  2.4651
  923SOL     OW 2767   0.538   0.992   1.770 -0.2692 -0.3344  0.2225
  923SOL    HW1 2768   0.478   1.071   1.743 -0.4068 -0.5452  2.7890
  923SOL    HW2 2769   0.526   0.911   1.715  2.6219  1.4200 -0.3016
  924SOL     OW 2770   1.323   3.014   2.802  0.2048 -0.2477 -0.9747
  924SOL    HW1 2771   1.284   3.064   2.724  0.7739  1.3174  0.3466
  924SOL    HW2 2772   1.347   3.091   2.867 -1.2908  1.1746 -2.5442
  925SOL     OW 2773   2.769   1.366   1.364 -0.2668  0.0174 -0.7786
  925SOL    HW1 2774   2.675   1.352   1.333  1.3424 -1.6600  0.9237
  925SOL    HW2 2775   2.773   1.387   1.466  1.1870 -2.0062  0.2930
  926SOL     OW 2776   2.407   0.353   1.737 -0.1993  0.3435 -0.7812
  926SOL    HW1 2777   2.463   0.412   1.795  1.9694 -1.6046  0.6819
  926SOL    HW2 2778   2.451   0.329   1.646  0.5382 -2.7554 -3.1552
  927SOL     OW 2779   2.576   2.450   1.589 -0.3706  0.3824 -0.0440
  927SOL    HW1 2780   2.609   2.544   1.558  4.0705  0.6444 -1.1683
  927SOL    HW2 2781   2.635   2.374   1.550  2.2824 -0.4115 -1.2456
  928SOL     OW 2782   0.238   0.749   2.258 -0.5975  0.0372  0.3808
  928SOL    HW1 2783   0.138   0.753   2.255 -0.1962 -0.2685  1.9691
  928SOL    HW2 2784   0.272   0.816   2.327  1.8037  2.1518 -1.5629
  929SOL     OW 2785   2.537   0.153   0.852 -0.0063  0.3356  0.8294
  929SOL    HW1 2786   2.580   0.063   0.866 -2.8447 -3.0211 -0.5966
  929SOL    HW2 2787   2.440   0.138   0.819  1.9202 -1.3706 -0.6950
  930SOL     OW 2788   2.780   2.937   1.568 -0.1765 -0.0155 -0.0321
  930SOL    HW1 2789   2.754   2.843   1.546  1.1999  1.2217 -0.4477
  930SOL    HW2 2790   2.790   2.983   1.481 -1.3829  0.4138  0.3798
  931SOL     OW 2791   2.128   0.863   0.374 -0.1640 -0.5149 -0.0564
  931SOL    HW1 2792   2.046   0.902   0.325  0.4495 -1.1736  0.0270
  931SOL    HW2 2793   2.213   0.862   0.317  0.3858  1.2371 -3.0780
  932SOL     OW 2794   2.215   1.283   1.822 -0.3428  0.2657 -0.3258
  932SOL    HW1 2795   2.217   1.308   1.725 -0.2649 -1.1210  0.1066
  932SOL    HW2 2796   2.155   1.201   1.843  0.6429  0.4886 -0.7217
  933SOL     OW 2797   2.951   2.058   1.319  0.0412 -0.5700 -0.1921
  933SOL    HW1 2798   3.003   2.140   1.339 -1.1857 -1.7702  0.6757
  933SOL    HW2 2799   3.005   1.974   1.335  2.8884 -0.6981 -0.3085
  934SOL     OW 2800   0.568   2.034   1.452 -0.2208  0.3971 -0.2110
  934SOL    HW1 2801   0.646   2.087   1.408 -0.0309 -0.0494  1.1704
  934SOL    HW2 2802   0.561   2.043   1.551 -1.1339  1.0879  0.7862
  935SOL     OW 2803   2.826   1.544   2.112  0.1093 -0.4787  0.5370
  935SOL    HW1 2804   2.746   1.506   2.066  1.4461 -0.6843  1.1234
  935SOL    HW2 2805   2.807   1.630   2.168  0.4210 -0.1781 -0.0070
  936SOL     OW 2806   2.645   1.398   1.962 -0.0140 -0.1765  0.2282
  936SOL    HW1 2807   2.568   1.365   2.019 -1.0797 -1.4651  0.4448
  936SOL    HW2 2808   2.606   1.444   1.879  1.1391 -1.4359  3.3082
  937SOL     OW 2809   1.914   1.424   2.117 -0.0977 -0.1439  0.2977
  937SOL    HW1 2810   1.923   1.360   2.036  1.6620 -0.2596 -1.8672
  937SOL    HW2 2811   1.967   1.510   2.114  2.5102  2.6008  4.4271
  938SOL     OW 2812   0.614   2.270   2.435 -0.5273  0.0153  0.8754
  938SOL    HW1 2813   0.577   2.261   2.529 -4.1754 -0.9070  0.0544
  938SOL    HW2 2814   0.644   2.177   2.415  0.5180  3.7354  3.5258
  939SOL     OW 2815   2.169   0.954   2.911 -0.0907  0.3123 -0.0383
  939SOL    HW1 2816   2.137   0.950   2.814  1.7887  0.5405  1.2269
  939SOL    HW2 2817   2.171   1.048   2.948  0.9251  0.9371  1.7423
  940SOL     OW 2818   1.174   1.682   0.673  0.1043  0.3795 -0.1072
  940SOL    HW1 2819   1.252   1.625   0.639  0.4553  1.2996  1.9552
  940SOL    HW2 2820   1.203   1.749   0.742 -3.4133 -0.0764  0.8204
  941SOL     OW 2821   1.255   2.659   2.412 -0.1680  0.7228 -0.3380
  941SOL    HW1 2822   1.237   2.607   2.501 -0.8816  0.9005  1.8717
  941SOL    HW2 2823   1.261   2.592   2.339  1.2038  0.3553 -0.2871
  942SOL     OW 2824   0.638   2.314   0.425 -0.0764 -0.1048 -0.9531
  942SOL    HW1 2825   0.630   2.399   0.367 -0.1715  0.3951 -2.3699
  942SOL    HW2 2826   0.730   2.269   0.418 -0.9239 -1.4139 -0.3694
  943SOL     OW 2827   1.787   2.852   1.600  0.4485 -0.5083  0.0675
  943SOL    HW1 2828   1.732   2.773   1.561 -2.8988 -2.4086  0.2344
  943SOL    HW2 2829   1.889   2.830   1.605 -3.3180 -0.3221  1.9535
  944SOL     OW 2830   0.945   1.523   2.938 -0.0007  0.2927 -0.2416
  944SOL    HW1 2831   0.981   1.581   2.863 -0.5972 -2.3381  1.7379
  944SOL    HW2 2832   0.853   1.485   2.920  0.9864 -1.0957 -0.4472
  945SOL     OW 2833   3.075   2.470   0.769 -0.2785  0.1765 -0.0066
  945SOL    HW1 2834   3.042   2.395   0.830 -0.6534  0.6188  0.3243
  945SOL    HW2 2835   0.012   2.433   0.680  1.7849 -1.9935 -1.8164
  946SOL     OW 2836   0.740   1.419   2.713  0.0797  0.5846 -0.3568
  946SOL    HW1 2837   0.655   1.388   2.765 -0.9647 -0.7918  0.1484
  946SOL    HW2 2838   0.775   1.344   2.654 -0.9739 -0.2092  0.5640
  947SOL     OW 2839   2.697   3.014   1.820 -0.0088  0.1596  0.1426
  947SOL    HW1 2840   2.742   2.994   1.731 -1.6705  1.3056  0.5253
  947SOL    HW2 2841   2.621   3.085   1.805 -0.3902  0.5062 -0.7336
  948SOL     OW 2842   0.312   1.825   1.292 -0.1430 -0.1298  0.6220
  948SOL    HW1 2843   0.262   1.768   1.224 -2.3442  1.6656  0.8409
  948SOL    HW2 2844   0.406   1.790   1.300  0.9286 -2.8809 -3.9503
  949SOL     OW 2845   0.885   0.887   1.790 -0.0697 -0.0871  0.1193
  949SOL    HW1 2846   0.965   0.913   1.731 -1.6507  0.0742  0.0910
  949SOL    HW2 2847   0.832   0.974   1.789  0.0714 -1.2149  0.0990
  950SOL     OW 2848   0.128   1.005   1.050  0.0043  0.3898  0.0326
  950SOL    HW1 2849   0.202   0.935   1.048 -0.2658  2.4481  1.2653
  950SOL    HW2 2850   0.036   0.955   1.049  0.7449  0.9078 -1.4123
  951SOL     OW 2851   0.437   1.978   2.289 -0.6027  0.2889 -0.0833
  951SOL    HW1 2852   0.354   1.993   2.224 -1.2604  0.2324  0.8686
  951SOL    HW2 2853   0.423   2.031   2.374  0.1160 -0.8130  0.9178
  952SOL     OW 2854   1.518   2.193   0.617  0.1299 -0.0955 -0.2168
  952SOL    HW1 2855   1.605   2.136   0.616  2.3857 -1.3536 -0.5394
  952SOL    HW2 2856   1.451   2.151   0.553 -0.5971  0.5966 -0.5521
  953SOL     OW 2857   0.981   0.742   0.199 -1.2550  0.9518 -0.4424
  953SOL    HW1 2858   0.933   0.686   0.270 -0.1858 -0.3125  2.8962
  953SOL    HW2 2859   0.917   0.771   0.125  1.2561 -0.1188  0.9715
  954SOL     OW 2860   2.160   0.891   1.111 -0.0152 -0.4707  0.0551
  954SOL    HW1 2861   2.250   0.934   1.121 -1.0832  0.4394 -0.4957
  954SOL    HW2 2862   2.085   0.959   1.105  2.1863 -1.6712  0.8151
  955SOL     OW 2863   2.364   1.345   0.560  0.3669  0.3139 -0.2157
  955SOL    HW1 2864   2.288   1.388   0.509  3.9388 -1.0275 -1.4131
  955SOL    HW2 2865   2.448   1.345   0.503 -2.0922 -3.0809  2.8838
  956SOL     OW 2866   0.887   0.441   1.735 -0.7563 -0.5245  0.0519
  956SOL    HW1 2867   0.975   0.450   1.788 -2.0342 -0.0201  1.6771
  956SOL    HW2 2868   0.875   0.525   1.679 -1.0566 -1.0833 -1.8792
  957SOL     OW 2869   1.977   0.557   1.148  0.3516 -0.4305 -0.6064
  957SOL    HW1 2870   1.899   0.590   1.202 -1.4612 -0.9404 -1.4553
  957SOL    HW2 2871   2.048   0.510   1.207  1.8716  0.0901 -2.5606
  958SOL     OW 2872   3.070   2.121   0.625 -0.3936  0.3116  0.0522
  958SOL    HW1 2873   3.093   2.051   0.559 -3.5782  0.1984 -0.1038
  958SOL    HW2 2874   0.050   2.148   0.685 -2.4994  2.5354  2.2510
  959SOL     OW 2875   1.890   1.490   1.736 -0.5463 -0.3687  0.2320
  959SOL    HW1 2876   1.966   1.558   1.735 -0.4985 -0.6909 -2.8035
  959SOL    HW2 2877   1.913   1.400   1.779 -0.8645  1.5861 -1.4104
  960SOL     OW 2878   3.092   1.920   3.069 -0.1845  0.1986 -0.2003
  960SOL    HW1 2879   0.065   1.876   0.037  0.5533 -1.7611 -1.3600
  960SOL    HW2 2880   3.002   1.870   3.068 -1.8401 -1.5393  1.4760
  961SOL     OW 2881   0.880   1.678   1.014 -0.9971 -0.2449 -0.6331
  961SOL    HW1 2882   0.965   1.672   1.071  0.2849 -1.5208 -1.6490
  961SOL    HW2 2883   0.904   1.656   0.915  0.1872 -2.1453  0.2132
  962SOL     OW 2884   0.940   1.346   0.723  0.4112  0.0100 -0.2428
  962SOL    HW1 2885   0.882   1.276   0.676  1.8861  0.6469  0.4429
  962SOL    HW2 2886   0.948   1.321   0.820 -1.2197  0.4319 -0.7787
  963SOL     OW 2887   0.996   1.786   2.384  0.6409 -0.1511  0.1913
  963SOL    HW1 2888   0.989   1.783   2.486 -0.0010 -2.0462  0.0157
  963SOL    HW2 2889   1.032   1.876   2.345 -1.4571  2.8886 -1.4470
  964SOL     OW 2890   0.205   2.937   1.961 -0.9231  0.2148 -0.2623
  964SOL    HW1 2891   0.123   2.941   1.902  1.3734 -2.2596  2.3804
  964SOL    HW2 2892   0.210   2.842   1.996 -0.1422  0.2497  0.0257
  965SOL     OW 2893   0.700   2.257   0.086  0.4109 -0.2839  0.3972
  965SOL    HW1 2894   0.651   2.332   0.138  2.9292  0.4968  0.2055
  965SOL    HW2 2895   0.640   2.184   0.043 -0.0571 -3.7906  0.4872
  966SOL     OW 2896   2.840   1.756   0.408  0.8681 -0.6385  0.2655
  966SOL    HW1 2897   2.875   1.662   0.431  0.1081 -2.4914 -3.2434
  966SOL    HW2 2898   2.804   1.761   0.310 -0.1791 -0.6962 -1.0469
  967SOL     OW 2899   2.079   2.412   2.927  0.0891 -0.3408 -0.2188
  967SOL    HW1 2900   2.077   2.351   2.846 -0.9024 -0.0769  0.0422
  967SOL    HW2 2901   2.078   2.349   3.009  0.5870 -1.2381 -0.1676
  968SOL     OW 2902   2.238   2.815   1.076  0.2660  0.0068 -0.3449
  968SOL    HW1 2903   2.250   2.902   1.140  3.2501  2.9008  5.1455
  968SOL    HW2 2904   2.312   2.748   1.097 -0.8844 -1.4356 -0.6475
  969SOL     OW 2905   0.281   0.967   2.050 -0.0370 -0.0457  0.7815
  969SOL    HW1 2906   0.329   0.908   2.117 -2.7851  0.5525 -3.1885
  969SOL    HW2 2907   0.261   1.060   2.081  0.1927 -0.9223  0.1741
  970SOL     OW 2908   1.796   1.243   0.591 -0.3290  0.5734 -0.1507
  970SOL    HW1 2909   1.886   1.247   0.639 -2.0291 -0.2085  2.4473
  970SOL    HW2 2910   1.777   1.152   0.561 -1.0831  4.0771  0.2951
  971SOL     OW 2911   2.422   2.866   1.622 -0.2347 -0.7287  0.8692
  971SOL    HW1 2912   2.494   2.883   1.689 -2.7477  1.0478 -0.3146
  971SOL    HW2 2913   2.353   2.943   1.616 -1.6569  0.0911 -2.3088
  972SOL     OW 2914   2.958   0.261   1.317 -0.2964 -0.2398  0.2800
  972SOL    HW1 2915   2.910   0.265   1.223  0.8576 -1.6010 -0.3331
  972SOL    HW2 2916   2.894   0.304   1.384 -1.2531  1.0820 -0.8159
  973SOL     OW 2917   0.147   0.470   2.624  0.2518 -0.5724 -0.3514
  973SOL    HW1 2918   0.199   0.522   2.556 -0.2560 -4.0019  2.1289
  973SOL    HW2 2919   0.058   0.437   2.585 -1.4041 -0.4311 -1.6403
  974SOL     OW 2920   2.455   1.076   2.050  0.0350 -0.3721  0.3553
  974SOL    HW1 2921   2.370   1.031   2.017  0.5651  1.3397  1.0000
  974SOL    HW2 2922   2.432   1.166   2.086 -0.6943 -0.7380 -1.9588
  975SOL     OW 2923   1.152   0.388   1.547  0.2811  0.3969  0.3389
  975SOL    HW1 2924   1.125   0.306   1.493 -0.5822 -1.8381  0.4625
  975SOL    HW2 2925   1.163   0.366   1.649 -2.6126  0.9704  0.8855
  976SOL     OW 2926   0.980   1.575   1.535 -0.2553  0.3956 -0.1163
  976SOL    HW1 2927   1.031   1.650   1.481  1.8279  3.3686 -3.2470
  976SOL    HW2 2928   0.881   1.561   1.514  2.0479 -0.3040 -4.7428
  977SOL     OW 2929   0.997   3.055   3.091 -0.9533  0.2907 -0.0206
  977SOL    HW1 2930   0.999   3.019   2.994 -0.7229 -0.9745 -2.0570
  977SOL    HW2 2931   1.037   0.054   0.005  2.8663  1.0632 -0.1244
  978SOL     OW 2932   2.425   1.324   2.145 -0.0192  0.3231 -0.1479
  978SOL    HW1 2933   2.338   1.374   2.119  1.0069 -2.0883  0.1865
  978SOL    HW2 2934   2.433   1.329   2.247  0.1620  1.6653 -2.4078
  979SOL     OW 2935   1.467   0.378   1.859 -0.3420  0.7469  0.5817
  979SOL    HW1 2936   1.482   0.477   1.885 -0.2777  2.7667  1.3688
  979SOL    HW2 2937   1.556   0.333   1.831 -0.2325 -1.0172  1.7152
  980SOL     OW 2938   1.510   1.657   1.906  0.3157  0.1396  0.4071
  980SOL    HW1 2939   1.489   1.694   1.813  0.0920 -0.0563 -0.7981
  980SOL    HW2 2940   1.429   1.593   1.936 -1.9441 -1.8571  0.8784
  981SOL     OW 2941   2.468   1.059   1.393  0.5070  0.0083  0.4169
  981SOL    HW1 2942   2.539   0.991   1.390 -0.5537  1.2339  2.4000
  981SOL    HW2 2943   2.403   1.042   1.471 -2.2939 -0.2732  1.4082
  982SOL     OW 2944   0.486   0.283   2.952 -0.1130 -0.3367  0.5484
  982SOL    HW1 2945   0.407   0.282   2.886  1.4335 -0.5760 -0.8805
  982SOL    HW2 2946   0.497   0.192   2.991 -1.5895  2.4681  0.5609
  983SOL     OW 2947   2.249   0.550   2.777  0.3442 -0.0495 -0.6754
  983SOL    HW1 2948   2.215   0.460   2.749 -0.2166  1.2904 -0.2668
  983SOL    HW2 2949   2.196   0.583   2.858  2.5230 -0.5654  2.9759
  984SOL     OW 2950   0.866   0.104   2.012 -0.0925 -0.4174 -0.3997
  984SOL    HW1 2951   0.904   0.056   2.091 -3.0716  2.3746 -0.0419
  984SOL    HW2 2952   0.938   0.147   1.953 -0.7969  2.8802 -2.0560
  985SOL     OW 2953   1.427   1.842   2.097 -0.2317 -0.4090  0.2098
  985SOL    HW1 2954   1.479   1.795   2.025 -0.4141  0.2794 -0.9920
  985SOL    HW2 2955   1.486   1.863   2.177 -0.8601  1.5375  0.9843
  986SOL     OW 2956   2.248   0.059   1.836 -0.5082 -0.1918 -0.7121
  986SOL    HW1 2957   2.195   0.136   1.883 -1.3549 -0.7494  1.9370
  986SOL    HW2 2958   2.352   0.070   1.833 -0.8912 -2.1035 -1.9247
  987SOL     OW 2959   2.477   1.335   1.385  0.4907  0.2318  0.4095
  987SOL    HW1 2960   2.408   1.348   1.308 -3.3610  1.1363 -2.5133
  987SOL    HW2 2961   2.486   1.236   1.406 -0.3385  1.1926 -0.6345
  988SOL     OW 2962   2.371   1.873   2.089 -0.6854  0.1641 -0.1783
  988SOL    HW1 2963   2.427   1.956   2.099  1.1232 -0.4370 -3.2304
  988SOL    HW2 2964   2.274   1.893   2.073 -0.5061 -1.9419  0.0046
  989SOL     OW 2965   1.101   2.612   0.264 -0.5578  0.2145 -0.2319
  989SOL    HW1 2966   1.067   2.695   0.215  3.0769 -1.4390 -1.8177
  989SOL    HW2 2967   1.065   2.601   0.359 -2.4412  2.0919 -0.3011
  990SOL     OW 2968   1.739   1.011   2.964  0.0590  0.6297 -0.2610
  990SOL    HW1 2969   1.746   1.013   2.863 -1.5609  1.5632 -1.3202
  990SOL    HW2 2970   1.642   1.025   2.992  0.4316 -2.1621 -0.2660
  991SOL     OW 2971   0.889   0.533   0.736 -0.5668 -0.1390 -0.0260
  991SOL    HW1 2972   0.860   0.628   0.708 -0.6867  0.9658 -1.6703
  991SOL    HW2 2973   0.949   0.530   0.820  0.2830  0.5225 -0.2802
  992SOL     OW 2974   2.679   0.883   1.392  0.5501 -0.5826 -0.1033
  992SOL    HW1 2975   2.708   0.851   1.486 -0.2338 -0.0104 -1.7134
  992SOL    HW2 2976   2.752   0.949   1.352  3.0586 -1.3595 -1.7910
  993SOL     OW 2977   2.562   0.696   1.741 -0.1254 -0.1026  0.1047
  993SOL    HW1 2978   2.471   0.719   1.704  0.4651 -2.7298  0.0681
  993SOL    HW2 2979   2.632   0.754   1.712 -2.4111 -1.0586  1.3701
  994SOL     OW 2980   0.502   1.870   2.800  0.8482 -0.3886  0.1760
  994SOL    HW1 2981   0.437   1.900   2.728 -1.7037 -0.5454  2.3337
  994SOL    HW2 2982   0.450   1.814   2.864 -0.8046 -1.0036 -1.0192
  995SOL     OW 2983   2.016   1.295   2.802  0.3629  0.3119 -0.3451
  995SOL    HW1 2984   2.039   1.392   2.770 -0.1669  0.2159 -2.9178
  995SOL    HW2 2985   2.024   1.232   2.722 -0.2984  1.9400 -1.2852
  996SOL     OW 2986   2.356   1.632   0.348  0.0832  0.5958  0.5800
  996SOL    HW1 2987   2.307   1.541   0.354  1.3809  2.5474  0.9410
  996SOL    HW2 2988   2.344   1.683   0.438 -1.5968 -0.0370  1.1814
  997SOL     OW 2989   2.161   0.585   2.186  0.1129 -0.2458  0.0884
  997SOL    HW1 2990   2.172   0.619   2.090 -1.7158 -0.2622 -3.2421
  997SOL    HW2 2991   2.143   0.484   2.183  0.9893  1.9881  2.2539
  998SOL     OW 2992   2.628   1.057   0.297  0.0520 -0.1481 -0.0993
  998SOL    HW1 2993   2.637   1.113   0.213  1.9704  2.7147 -0.2021
  998SOL    HW2 2994   2.544   0.998   0.304 -3.1759 -2.5741  2.2144
  999SOL     OW 2995   2.915   1.983   0.780  0.1316  0.0218 -0.2110
  999SOL    HW1 2996   2.853   2.035   0.844 -3.4031 -1.3826 -0.5916
  999SOL    HW2 2997   2.953   2.048   0.708  1.5041  0.7824 -0.6383
 1000SOL     OW 2998   0.914   0.813   2.215 -0.5297  0.7059  0.1003
 1000SOL    HW1 2999   0.968   0.791   2.298  0.2416  1.5972  2.3714
 1000SOL    HW2 3000   0.818   0.832   2.238  0.6964 -0.1783 -1.7125
   3.09589   3.09589   3.09589
