1000 SPC/Fw water molecules t=   1.00000 step= 1000
 3000
    1SOL     OW    1   1.343   2.806   0.322 -0.5488  0.2109 -0.3247
    1SOL    HW1    2   1.305   2.902   0.323  1.8342 -0.4758 -1.0745
    1SOL    HW2    3   1.278   2.746   0.372 -0.5462  1.6928 -2.0601
    2SOL     OW    4   1.596   0.763   1.444 -0.2660 -0.2466  0.1941
    2SOL    HW1    5   1.698   0.748   1.433 -0.1312  1.6943 -3.5338
    2SOL    HW2    6   1.592   0.856   1.487 -3.6833 -1.3385  1.4871
    3SOL     OW    7   0.628   0.087   2.513  0.5321  0.2176  0.4862
    3SOL    HW1    8   0.620   0.182   2.481 -0.9096 -1.6722 -1.0649
    3SOL    HW2    9   0.579   0.077   2.606  0.6865 -1.6904  2.1332
    4SOL     OW   10   1.583   1.639   3.006 -0.5833  0.7238 -0.3077
    4SOL    HW1   11   1.602   1.734   2.986 -0.6222 -2.7676  0.1771
    4SOL    HW2   12   1.539   1.632   3.098 -1.1963  1.5007 -0.5439
    5SOL     OW   13   0.849   1.243   2.073  0.0473 -0.1650 -0.0821
    5SOL    HW1   14   0.869   1.149   2.104  0.4536  1.4579 -0.6136
    5SOL    HW2   15   0.938   1.288   2.065 -2.4125  0.0409  1.9339
    6SOL     OW   16   2.447   1.000   2.330 -0.0392 -0.0957 -0.0720
    6SOL    HW1   17   2.519   0.973   2.395  0.7629  1.6278  1.2993
    6SOL    HW2   18   2.439   0.940   2.255 -0.2335  1.4471  3.3977
    7SOL     OW   19   0.021   0.933   1.381  0.2451  0.1683  0.2493
    7SOL    HW1   20   3.068   1.011   1.410  0.5730 -1.5233  0.8333
    7SOL    HW2   21   0.120   0.957   1.361  0.6779  1.6845  0.5184
    8SOL     OW   22   2.312   2.607   2.099 -0.2928 -0.3909  0.3830
    8SOL    HW1   23   2.288   2.620   1.998  0.8485 -0.1914 -3.9268
    8SOL    HW2   24   2.345   2.690   2.146 -1.1506  2.9883  3.2756
    9SOL     OW   25   0.069   2.644   0.324 -0.0228 -0.4341 -0.3331
    9SOL    HW1   26   3.098   2.615   0.391 -1.5022 -1.7905 -0.0059
    9SOL    HW2   27   0.155   2.589   0.334  2.4246  2.8701  1.6234
   10SOL     OW   28   0.148   2.484   2.532 -0.4341 -0.3524 -0.2400
   10SOL    HW1   29   0.173   2.567   2.476 -0.1169  1.7751  3.6520
   10SOL    HW2   30   0.192   2.401   2.504 -1.7446 -0.0362  1.1609
   11SOL     OW   31   0.209   1.862   0.113  0.0092 -0.5282 -0.7306
   11SOL    HW1   32   0.225   1.771   0.079 -0.5129  2.1903  2.8087
   11SOL    HW2   33   0.269   1.883   0.193 -3.3953  0.1628 -2.6216
   12SOL     OW   34   2.324   3.048   0.578  0.5544  0.2774 -0.3059
   12SOL    HW1   35   2.357   0.037   0.556  1.6356  0.0564  0.8259
   12SOL    HW2   36   2.334   2.981   0.503  0.8557 -0.1198  3.4748
   13SOL     OW   37   0.275   0.422   2.668 -0.2847  0.3081 -0.8310
   13SOL    HW1   38   0.211   0.341   2.650 -1.6160 -1.0872 -1.8705
   13SOL    HW2   39   0.219   0.500   2.704  2.4412  1.0782 -0.6705
   14SOL     OW   40   1.262   0.730   1.398  0.0470 -0.2950  0.0333
   14SOL    HW1   41   1.364   0.729   1.405 -2.6583 -1.1237  1.2498
   14SOL    HW2   42   1.233   0.814   1.346 -2.2230  1.8802 -0.7508
   15SOL     OW   43   0.656   1.385   2.195 -0.3570 -0.1327 -0.5013
   15SOL    HW1   44   0.585   1.416   2.131  1.1153 -0.7367  1.6610
   15SOL    HW2   45   0.716   1.316   2.144 -0.1515  2.1492 -1.5727
   16SOL     OW   46   1.764   0.970   2.698 -0.0422 -0.2292 -0.2906
   16SOL    HW1   47   1.693   0.900   2.729 -0.7243 -1.2289 -0.5321
   16SOL    HW2   48   1.725   1.065   2.695 -0.5086  0.4733  2.5999
   17SOL     OW   49   0.125   2.496   2.135 -1.0132 -0.6576  0.6608
   17SOL    HW1   50   0.067   2.566   2.182 -0.9800  1.0012 -0.9716
   17SOL    HW2   51   0.069   2.456   2.060  1.4200  2.6046 -0.6213
   18SOL     OW   52   1.441   1.272   0.804  0.2821  0.1722  0.0421
   18SOL    HW1   53   1.461   1.176   0.781 -1.1447  1.9411  0.9257
   18SOL    HW2   54   1.344   1.288   0.798  2.4952  0.1132 -0.5840
   19SOL     OW   55   0.111   1.167   1.889 -0.1598  0.5409  0.1681
   19SOL    HW1   56   0.150   1.255   1.843 -0.1559  2.2599 -0.5515
   19SOL    HW2   57   0.185   1.104   1.919 -1.6117  3.4932  0.6197
   20SOL     OW   58   1.841   2.142   2.791 -0.0474  0.0554 -0.0281
   20SOL    HW1   59   1.813   2.240   2.800 -0.7583  0.9449 -1.2217
   20SOL    HW2   60   1.885   2.104   2.878 -0.7123 -1.3078  1.7615
   21SOL     OW   61   1.641   1.707   1.104 -0.2631  0.2555  0.2787
   21SOL    HW1   62   1.686   1.729   1.192 -1.0530  1.1572 -2.1235
   21SOL    HW2   63   1.642   1.610   1.081  1.1014  0.7649  0.8209
   22SOL     OW   64   1.928   2.282   1.526 -0.1302  0.0951  0.0030
   22SOL    HW1   65   1.826   2.274   1.533 -2.5401  0.7324 -1.9821
   22SOL    HW2   66   1.949   2.331   1.444 -2.3483  0.5014  0.4457
   23SOL     OW   67   2.790   1.164   1.312 -0.1455  0.2561 -0.8738
   23SOL    HW1   68   2.773   1.088   1.379 -2.7638  1.4811  1.2576
   23SOL    HW2   69   2.720   1.165   1.241 -0.1556 -0.8715  2.5233
   24SOL     OW   70   1.976   1.409   1.782 -0.0060 -0.3844 -0.3869
   24SOL    HW1   71   1.930   1.501   1.781 -3.3808  2.5813 -1.1095
   24SOL    HW2   72   2.069   1.420   1.822  1.5827  0.5036 -0.1496
   25SOL     OW   73   1.669   2.976   2.535  0.0726  0.2919  0.0532
   25SOL    HW1   74   1.768   3.001   2.543  1.0862 -1.2225 -1.4863
   25SOL    HW2   75   1.617   3.034   2.467  1.2871 -0.4408  0.6623
   26SOL     OW   76   0.394   2.723   0.604 -0.1444  0.5339 -0.1402
   26SOL    HW1   77   0.484   2.762   0.624 -2.3784 -2.0243 -2.5747
   26SOL    HW2   78   0.388   2.619   0.604  1.7034 -0.3321  0.2903
   27SOL     OW   79   1.154   1.313   0.798 -0.7108  0.4297 -0.1264
   27SOL    HW1   80   1.167   1.267   0.886 -0.4377  0.3720 -1.1421
   27SOL    HW2   81   1.056   1.313   0.779  0.0766  1.4850 -0.4964
   28SOL     OW   82   1.941   2.466   1.310  0.3360 -0.0978 -0.2884
   28SOL    HW1   83   1.982   2.454   1.219 -1.1789 -1.0806 -0.0567
   28SOL    HW2   84   1.835   2.470   1.312 -1.6360 -4.0747  0.6610
   29SOL     OW   85   2.118   2.884   2.443 -0.0305  0.1245 -0.3759
   29SOL    HW1   86   2.217   2.878   2.468  1.7355 -0.5406 -0.9745
   29SOL    HW2   87   2.056   2.884   2.525  0.8505 -1.5042  1.9763
   30SOL     OW   88   0.184   2.745   1.841 -0.0466  0.8416  0.1206
   30SOL    HW1   89   0.086   2.740   1.843 -1.4147  1.3828 -1.3791
   30SOL    HW2   90   0.215   2.821   1.899 -1.1432 -1.3034  0.8242
   31SOL     OW   91   3.046   1.886   2.372  0.4459  0.4514 -0.1478
   31SOL    HW1   92   3.065   1.906   2.472  0.8499 -1.2077 -0.0183
   31SOL    HW2   93   0.030   1.885   2.313  1.9961  0.0885 -0.1318
   32SOL     OW   94   0.966   2.458   2.233 -0.2107  0.9111  0.0236
   32SOL    HW1   95   0.901   2.474   2.311  1.2014 -0.5306  0.3174
   32SOL    HW2   96   1.067   2.452   2.254  0.5652 -0.7694  1.4595
   33SOL     OW   97   0.125   0.494   3.099  0.1481  0.5175  0.3767
   33SOL    HW1   98   0.106   0.586   3.064  2.0183 -3.1192 -0.0892
   33SOL    HW2   99   0.225   0.476   3.100 -2.7060 -1.0369 -1.3842
   34SOL     OW  100   2.762   0.216   0.022  0.0083  0.0045 -0.0653
   34SOL    HW1  101   2.798   0.139   0.075 -0.6992  1.1922 -1.4382
   34SOL    HW2  102   2.669   0.197   3.079  1.1587  1.2452  0.8911
   35SOL     OW  103   2.901   2.734   1.692  0.4099  0.3151  0.0645
   35SOL    HW1  104   2.956   2.727   1.776  3.1229 -0.5871  1.1367
   35SOL    HW2  105   2.941   2.817   1.643 -2.7306  2.3076  0.6992
   36SOL     OW  106   2.320   3.061   2.667  0.5429  0.2380  0.1821
   36SOL    HW1  107   2.231   3.012   2.691 -4.1601  2.1606 -0.9855
   36SOL    HW2  108   2.391   3.009   2.714  1.8302 -0.0972  2.8780
   37SOL     OW  109   1.708   2.645   0.175  0.0347  0.5351 -0.2909
   37SOL    HW1  110   1.648   2.637   0.086 -0.1208  1.4543 -1.5192
   37SOL    HW2  111   1.656   2.665   0.259  1.2119  2.0125  0.0538
   38SOL     OW  112   0.500   0.132   0.677  0.1523 -0.1676 -0.0720
   38SOL    HW1  113   0.455   0.204   0.621  2.8143  2.7959  1.2366
   38SOL    HW2  114   0.545   0.060   0.620 -1.2722 -0.0993  0.1622
   39SOL     OW  115   1.137   1.863   2.120 -0.3285  0.1983 -0.0280
   39SOL    HW1  116   1.058   1.876   2.182 -0.7236  0.6647  2.1738
   39SOL    HW2  117   1.181   1.952   2.095 -1.2155 -1.9750 -1.9944
   40SOL     OW  118   3.096   0.924   0.147  0.2104 -0.0664  0.2613
   40SOL    HW1  119   3.009   0.959   0.111  1.7351 -3.2866 -0.6799
   40SOL    HW2  120   0.069   0.993   0.128  1.0570 -0.7319  2.9838
   41SOL     OW  121   1.699   0.125   2.041  0.0839  0.4352  0.1594
   41SOL    HW1  122   1.656   0.132   2.131  0.9256 -1.8349 -2.5024
   41SOL    HW2  123   1.639   0.070   1.978 -1.5147  0.7492 -0.8318
   42SOL     OW  124   2.375   0.203   1.171 -0.0533  0.3584 -0.3022
   42SOL    HW1  125   2.440   0.192   1.092 -0.1062  1.6669 -2.1452
   42SOL    HW2  126   2.423   0.202   1.260 -2.2320 -0.5053 -0.1911
   43SOL     OW  127   1.558   0.210   1.285 -0.1507  0.2517 -0.2056
   43SOL    HW1  128   1.539   0.174   1.376 -0.3809 -0.6341 -2.7499
   43SOL    HW2  129   1.563   0.133   1.214  0.5754 -0.7632 -0.9679
   44SOL     OW  130   0.369   0.860   3.071  0.5219  0.0758 -0.3810
   44SOL    HW1  131   0.461   0.830   3.041 -0.3023 -1.1258 -1.0552
   44SOL    HW2  132   0.377   0.939   0.044  0.5205  4.3141  0.1023
   45SOL     OW  133   0.590   1.511   1.691  0.3162 -0.2320 -0.3499
   45SOL    HW1  134   0.649   1.535   1.611  0.0539 -0.7261  0.3806
   45SOL    HW2  135   0.596   1.411   1.708 -1.8543 -1.4945  0.7106
   46SOL     OW  136   2.079   2.184   1.762 -0.2325  0.0709  0.5625
   46SOL    HW1  137   2.007   2.216   1.695  2.1870  2.3913 -2.0336
   46SOL    HW2  138   2.119   2.090   1.744  1.0954 -1.3255  0.9916
   47SOL     OW  139   0.309   1.827   1.539 -0.2707 -0.4227 -0.1351
   47SOL    HW1  140   0.319   1.891   1.462 -1.3799 -0.3207 -0.0100
   47SOL    HW2  141   0.268   1.869   1.621  2.7353  1.3554  1.9639
   48SOL     OW  142   1.074   2.837   2.747 -0.6415  0.1242 -0.3915
   48SOL    HW1  143   1.072   2.777   2.665  0.4397  0.7370  0.0260
   48SOL    HW2  144   0.984   2.862   2.782  0.0354 -2.5341  1.1327
   49SOL     OW  145   2.707   1.571   1.817  0.4504  0.1248 -0.1823
   49SOL    HW1  146   2.779   1.640   1.782 -1.2936 -1.0675  2.1180
   49SOL    HW2  147   2.681   1.508   1.740 -0.9601  0.2570  1.5861
   50SOL     OW  148   0.935   2.823   0.378 -0.1766  0.2072  0.3184
   50SOL    HW1  149   0.984   2.853   0.459  3.0107  1.0242  1.7714
   50SOL    HW2  150   0.946   2.883   0.303  0.8983 -0.4746 -0.0175
   51SOL     OW  151   1.299   0.285   0.977  0.8138  0.9828  0.4011
   51SOL    HW1  152   1.351   0.248   0.896  2.1580 -0.9744 -2.1416
   51SOL    HW2  153   1.240   0.212   1.021 -1.6239  1.5911  1.2629
   52SOL     OW  154   0.085   0.819   0.634  0.2240  0.2290 -0.2497
   52SOL    HW1  155   0.061   0.793   0.541  1.4998  0.9303 -1.7690
   52SOL    HW2  156   0.117   0.919   0.632 -0.0090  2.1330 -0.5130
   53SOL     OW  157   1.137   0.090   2.636 -0.2140  0.3104 -0.6447
   53SOL    HW1  158   1.188   0.038   2.707  0.6889  1.0755  2.3908
   53SOL    HW2  159   1.038   0.068   2.626 -0.8502  2.0769 -0.4868
   54SOL     OW  160   2.282   0.513   2.152  0.4274 -0.2493  0.7645
   54SOL    HW1  161   2.275   0.530   2.250 -1.7657 -1.1971 -0.6356
   54SOL    HW2  162   2.234   0.430   2.121  0.3926  3.1305  1.1206
   55SOL     OW  163   2.596   0.003   0.331  0.3802 -0.2064  0.1195
   55SOL    HW1  164   2.639   3.089   0.423 -1.9897 -1.2001 -1.7093
   55SOL    HW2  165   2.629   3.043   0.260  0.2231 -1.5987  4.4434
   56SOL     OW  166   0.838   0.278   2.237 -0.1327  0.2176  0.0173
   56SOL    HW1  167   0.790   0.245   2.150 -0.3615  0.7649 -3.3369
   56SOL    HW2  168   0.921   0.228   2.261 -1.9012 -0.6945 -2.1533
   57SOL     OW  169   1.914   1.011   2.282  0.2589 -0.9852 -0.1402
   57SOL    HW1  170   1.822   1.056   2.276  2.3671  2.1519  0.2026
   57SOL    HW2  171   1.987   1.051   2.218  0.7254  1.8403 -4.6648
   58SOL     OW  172   0.286   0.950   1.973  0.2473 -0.1330  0.0377
   58SOL    HW1  173   0.376   0.955   1.931 -1.9540 -0.9448 -0.8630
   58SOL    HW2  174   0.276   0.856   2.011 -1.7785  1.9678 -0.0635
   59SOL     OW  175   0.842   2.619   1.906  0.6453 -0.0195 -0.6743
   59SOL    HW1  176   0.750   2.601   1.947  2.8619  0.8240  1.9550
   59SOL    HW2  177   0.904   2.650   1.982 -0.0663 -0.3694  0.5232
   60SOL     OW  178   2.222   2.655   0.329 -0.9533 -0.0364  0.2359
   60SOL    HW1  179   2.136   2.680   0.371  1.6055 -0.2002  0.6785
   60SOL    HW2  180   2.206   2.571   0.267  0.8760 -5.2764  0.5043
   61SOL     OW  181   1.459   2.570   0.551  0.0049 -0.0343 -0.5417
   61SOL    HW1  182   1.361   2.585   0.544 -0.6116 -0.0992 -0.1662
   61SOL    HW2  183   1.486   2.481   0.585  0.3464 -3.7491 -0.2814
   62SOL     OW  184   2.106   2.600   3.019  0.0979  0.1517 -0.0534
   62SOL    HW1  185   2.126   2.522   3.079 -1.6302 -0.0011 -0.7729
   62SOL    HW2  186   2.026   2.650   3.050  1.7991  2.0777 -0.8643
   63SOL     OW  187   2.537   1.075   0.520 -0.0760 -0.4421  0.2555
   63SOL    HW1  188   2.523   1.144   0.446 -0.9291 -0.9056 -0.2243
   63SOL    HW2  189   2.552   0.983   0.477 -0.0707 -1.2115 -3.5855
   64SOL     OW  190   1.650   1.024   0.035 -0.3780 -0.4177 -0.4581
   64SOL    HW1  191   1.678   1.115   0.071  0.6764 -3.3038 -1.1534
   64SOL    HW2  192   1.563   0.991   0.077  0.3408  1.9227  0.6548
   65SOL     OW  193   0.428   2.385   1.742  0.2025  0.3897 -0.1733
   65SOL    HW1  194   0.420   2.418   1.644  0.9441  1.5496 -1.0331
   65SOL    HW2  195   0.370   2.438   1.802 -1.4035  0.7105 -0.2358
   66SOL     OW  196   0.969   1.229   1.271  0.2229 -0.0236  0.2281
   66SOL    HW1  197   0.906   1.148   1.287 -1.3257 -2.5533 -0.9892
   66SOL    HW2  198   0.933   1.288   1.195 -0.7545 -1.7348 -2.0899
   67SOL     OW  199   2.453   1.883   1.926  0.5673 -0.4509 -0.4334
   67SOL    HW1  200   2.525   1.906   1.854 -0.6381  0.6276 -1.6557
   67SOL    HW2  201   2.483   1.803   1.984 -2.5659  1.2268 -0.8932
   68SOL     OW  202   1.210   1.661   1.785 -0.1476 -0.0856  0.1159
   68SOL    HW1  203   1.194   1.602   1.697 -0.4229 -0.0151 -2.2322
   68SOL    HW2  204   1.150   1.637   1.862  1.4098 -2.5492  1.2698
   69SOL     OW  205   2.707   0.438   0.169 -0.6251 -0.3957  0.4401
   69SOL    HW1  206   2.606   0.431   0.197  0.0403 -0.5395 -0.8272
   69SOL    HW2  207   2.735   0.359   0.109 -0.5043 -2.5801 -2.0472
   70SOL     OW  208   2.226   1.150   2.331  0.4338  0.3002  0.5755
   70SOL    HW1  209   2.292   1.070   2.333 -0.0333 -0.2017  0.2121
   70SOL    HW2  210   2.152   1.151   2.403 -3.2502  0.1178 -0.5309
   71SOL     OW  211   0.988   2.072   0.622 -0.2562  0.1625  0.1216
   71SOL    HW1  212   1.032   2.034   0.541 -3.1165 -2.9416  0.7050
   71SOL    HW2  213   1.060   2.110   0.689 -0.0803  1.5378 -0.5258
   72SOL     OW  214   2.228   1.710   0.614  0.3190 -0.6444 -1.1068
   72SOL    HW1  215   2.288   1.790   0.610 -1.0699  1.3160 -1.5867
   72SOL    HW2  216   2.178   1.709   0.705 -1.3411 -1.4592  2.9745
   73SOL     OW  217   1.078   1.017   0.576  0.4932 -0.0438 -0.7206
   73SOL    HW1  218   0.985   1.034   0.606  1.4013 -0.7798 -2.0577
   73SOL    HW2  219   1.067   0.947   0.498 -1.5110 -1.8492  2.1992
   74SOL     OW  220   2.789   2.235   2.216 -0.0612 -0.0558 -0.4505
   74SOL    HW1  221   2.740   2.149   2.248 -3.0090 -1.3688  2.0703
   74SOL    HW2  222   2.828   2.219   2.124  4.9761 -1.2094 -2.1434
   75SOL     OW  223   1.669   1.690   1.956  0.3036 -0.1170 -0.5195
   75SOL    HW1  224   1.580   1.644   1.944 -1.6055  0.7991 -0.8209
   75SOL    HW2  225   1.718   1.659   2.045  1.3087 -0.8629  2.9982
   76SOL     OW  226   1.179   1.570   1.117  0.1124  0.4888  0.6191
   76SOL    HW1  227   1.124   1.547   1.033 -1.9028  0.3687 -1.2172
   76SOL    HW2  228   1.250   1.636   1.084  2.4558 -0.3728 -1.3730
   77SOL     OW  229   2.406   0.928   1.783  0.6382  0.5010 -0.4937
   77SOL    HW1  230   2.321   0.939   1.840 -1.9578 -0.2401 -2.6692
   77SOL    HW2  231   2.430   0.832   1.770  1.3995  2.2151 -1.6988
   78SOL     OW  232   1.647   0.570   0.393 -0.1699 -0.0159 -0.1113
   78SOL    HW1  233   1.662   0.599   0.297 -0.3201 -1.9953 -3.4993
   78SOL    HW2  234   1.563   0.604   0.426  2.1146 -1.9651 -2.0805
   79SOL     OW  235   1.031   1.628   1.984 -0.2197 -0.2983  0.1042
   79SOL    HW1  236   1.044   1.714   2.043 -0.1508  0.8359  2.1603
   79SOL    HW2  237   0.933   1.611   1.982 -1.2000  1.0568  0.6614
   80SOL     OW  238   1.085   0.395   1.299  0.5264  0.3078  0.5434
   80SOL    HW1  239   1.062   0.490   1.329 -0.6017 -0.5112 -0.5685
   80SOL    HW2  240   1.177   0.366   1.334 -0.7005 -1.2687  1.5171
   81SOL     OW  241   0.310   2.511   0.339 -0.1533  0.5755  0.2286
   81SOL    HW1  242   0.381   2.539   0.271  0.0442 -0.4233 -0.5979
   81SOL    HW2  243   0.351   2.469   0.420 -2.0256 -0.3629 -0.3955
   82SOL     OW  244   1.130   0.189   1.645 -0.3173 -0.7675 -0.6182
   82SOL    HW1  245   1.158   0.204   1.740  2.4203  0.4610  0.2527
   82SOL    HW2  246   1.188   0.254   1.587  1.3822 -3.6205  3.1719
   83SOL     OW  247   0.313   2.294   0.979 -0.6073  0.3028  0.0126
   83SOL    HW1  248   0.276   2.374   0.934  2.1973 -3.3916  1.4762
   83SOL    HW2  249   0.319   2.213   0.919 -2.3447 -0.4636  0.2985
   84SOL     OW  250   2.510   1.267   0.937 -0.2035 -0.0189 -0.1381
   84SOL    HW1  251   2.532   1.183   0.989  1.6793 -1.0155  0.6637
   84SOL    HW2  252   2.569   1.275   0.851  1.8311 -2.2143 -0.1041
   85SOL     OW  253   2.177   1.885   1.067 -0.1012  0.7840 -0.1456
   85SOL    HW1  254   2.125   1.869   1.156 -0.5278 -2.9391  0.0485
   85SOL    HW2  255   2.267   1.837   1.067  1.4539  1.0358 -0.6362
   86SOL     OW  256   1.259   2.126   2.184 -0.4140  0.3482 -0.2356
   86SOL    HW1  257   1.203   2.154   2.107  2.2557 -1.0164  1.5494
   86SOL    HW2  258   1.352   2.119   2.149 -1.5443  0.5381 -1.0837
   87SOL     OW  259   2.257   1.348   0.851 -0.0291 -0.3096  0.2017
   87SOL    HW1  260   2.270   1.398   0.764 -1.5232  1.8438  0.4118
   87SOL    HW2  261   2.346   1.316   0.888  2.8375  0.7857 -1.8747
   88SOL     OW  262   0.505   2.954   0.932  0.5025  0.2041 -0.2576
   88SOL    HW1  263   0.417   3.003   0.904  1.7469 -2.9293  0.4748
   88SOL    HW2  264   0.532   2.984   1.029  2.4791  1.3162  0.9867
   89SOL     OW  265   0.587   1.012   1.574  0.0321  0.3408  0.0902
   89SOL    HW1  266   0.682   1.002   1.607  1.4295  2.9787 -0.9750
   89SOL    HW2  267   0.581   0.991   1.472 -0.7582  0.3641 -4.1708
   90SOL     OW  268   2.610   1.732   0.341 -0.1311 -0.0900  0.2495
   90SOL    HW1  269   2.586   1.821   0.394 -1.0787  2.2117 -1.5775
   90SOL    HW2  270   2.713   1.715   0.345  4.6550 -2.4246  0.4303
   91SOL     OW  271   0.697   1.998   0.983  0.5063 -0.4384  0.3159
   91SOL    HW1  272   0.641   2.082   0.994  1.5785  0.0448 -0.2005
   91SOL    HW2  273   0.702   1.937   1.065 -0.9758 -0.1441  0.3235
   92SOL     OW  274   2.135   2.989   1.979  0.0760  0.5254 -0.2802
   92SOL    HW1  275   2.210   3.036   2.038  0.2903 -0.7797 -1.0037
   92SOL    HW2  276   2.074   2.935   2.041  1.4816  0.4278 -1.0568
   93SOL     OW  277   0.544   2.035   2.815 -0.6584  0.2054  0.4201
   93SOL    HW1  278   0.547   2.011   2.915  0.6230 -0.0973 -0.7347
   93SOL    HW2  279   0.494   1.956   2.770  0.5238 -2.0257  0.3347
   94SOL     OW  280   2.355   3.080   2.100 -0.6377 -0.3062 -0.2782
   94SOL    HW1  281   2.368   0.061   2.162  0.9322  0.9755  1.8517
   94SOL    HW2  282   2.435   3.080   2.035 -0.9507  0.1982 -0.8492
   95SOL     OW  283   1.942   0.015   1.827 -0.4079  0.2854  0.5389
   95SOL    HW1  284   1.957   0.112   1.815  4.2566 -0.5975  3.0705
   95SOL    HW2  285   2.017   3.081   1.885  2.9396 -0.4321 -0.7697
   96SOL     OW  286   0.691   0.714   2.153 -0.5956 -0.2113  0.2506
   96SOL    HW1  287   0.619   0.716   2.222  0.0050  2.0559  1.5853
   96SOL    HW2  288   0.728   0.811   2.139  4.8763  1.3707  1.0893
   97SOL     OW  289   2.037   2.974   1.489 -0.0508  0.1455 -0.3698
   97SOL    HW1  290   1.942   3.012   1.498  0.1793  1.8318  0.8601
   97SOL    HW2  291   2.044   2.878   1.457  3.8380 -1.0023  0.7162
   98SOL     OW  292   1.693   2.299   1.648  0.3459 -0.0949 -0.2261
   98SOL    HW1  293   1.710   2.346   1.739 -1.6014 -1.4593 -0.0557
   98SOL    HW2  294   1.648   2.212   1.660 -1.0207  2.5064 -0.8138
   99SOL     OW  295   0.328   0.618   1.000 -0.0385 -0.1891  0.1998
   99SOL    HW1  296   0.294   0.713   0.997  2.5349 -1.5462 -0.4082
   99SOL    HW2  297   0.384   0.609   0.912 -1.1012 -1.8385 -3.0848
  100SOL     OW  298   2.989   1.951   1.965 -0.4989 -0.2033 -0.3816
  100SOL    HW1  299   2.931   1.894   2.026 -0.3502 -0.5759  0.5207
  100SOL    HW2  300   3.051   2.008   2.028  0.0295  0.5742  0.4436
  101SOL     OW  301   1.201   0.369   3.073 -0.0700 -0.2905 -0.4925
  101SOL    HW1  302   1.244   0.350   2.989  0.1844  0.9795  3.3907
  101SOL    HW2  303   1.179   0.466   3.075  0.4231  0.2307 -0.6110
  102SOL     OW  304   2.835   0.086   1.207 -0.3462  0.1329 -0.2427
  102SOL    HW1  305   2.906   0.156   1.204 -0.0878  0.2757  2.0886
  102SOL    HW2  306   2.767   0.115   1.270  0.0182  0.9979 -0.3523
  103SOL     OW  307   0.054   2.961   2.582  0.0079 -0.1825 -0.1872
  103SOL    HW1  308   0.126   2.998   2.522  0.3710 -0.0482 -0.8327
  103SOL    HW2  309   3.061   2.980   2.550  0.1929 -0.5991  2.8649
  104SOL     OW  310   0.161   2.405   1.290  0.1176 -0.1887 -0.5797
  104SOL    HW1  311   0.106   2.490   1.315  1.2989 -0.4086 -0.5641
  104SOL    HW2  312   0.258   2.422   1.280  0.7206 -0.0764  1.5205
  105SOL     OW  313   0.569   1.754   2.095 -0.6181  0.8948 -0.1228
  105SOL    HW1  314   0.472   1.759   2.057 -0.7805  0.5147  0.2453
  105SOL    HW2  315   0.574   1.824   2.170 -2.1349 -1.6684 -0.0521
  106SOL     OW  316   2.625   2.797   0.582  0.6323  0.0012  0.4681
  106SOL    HW1  317   2.627   2.756   0.679 -1.0656  2.1523  0.8086
  106SOL    HW2  318   2.627   2.903   0.589 -0.5251  2.0891  0.8278
  107SOL     OW  319   0.628   1.143   0.963 -0.5336  0.3870  0.1593
  107SOL    HW1  320   0.599   1.212   1.031 -0.8278  1.5859  1.5053
  107SOL    HW2  321   0.724   1.118   0.973 -2.5298 -0.9594  1.2483
  108SOL     OW  322   2.966   1.204   2.066 -0.1413 -0.2579  0.3369
  108SOL    HW1  323   2.934   1.265   2.139  0.9984  0.7365 -1.5211
  108SOL    HW2  324   3.071   1.205   2.049  1.9636 -1.1292 -1.4905
  109SOL     OW  325   1.912   2.771   0.019 -0.1201  0.2749 -0.3924
  109SOL    HW1  326   1.974   2.826   0.079 -0.8456  0.2834  2.1611
  109SOL    HW2  327   1.835   2.725   0.073 -2.9726 -0.0249  0.2404
  110SOL     OW  328   0.273   2.172   0.061 -1.1684 -0.2844  0.2430
  110SOL    HW1  329   0.273   2.077   0.027  2.7019 -0.8886 -1.9500
  110SOL    HW2  330   0.206   2.189   0.132 -0.4335 -0.0782  0.6964
  111SOL     OW  331   2.737   0.984   2.801 -0.3369 -0.1453  0.3800
  111SOL    HW1  332   2.706   1.038   2.882 -0.9283 -2.0248  1.3399
  111SOL    HW2  333   2.655   0.963   2.739 -1.5216 -2.3199 -0.9490
  112SOL     OW  334   2.251   2.629   1.822 -0.5913  0.3129  0.0171
  112SOL    HW1  335   2.235   2.721   1.786  1.3458  0.1110  1.0765
  112SOL    HW2  336   2.175   2.564   1.799 -3.8170  1.8731  2.2661
  113SOL     OW  337   2.492   1.899   2.676  0.6006  0.2619  0.0109
  113SOL    HW1  338   2.451   1.814   2.642 -0.9341  5.8975 -0.5480
  113SOL    HW2  339   2.438   1.975   2.634 -1.4943 -1.3561 -0.9558
  114SOL     OW  340   0.622   3.020   0.526 -0.4921  0.2726 -0.0088
  114SOL    HW1  341   0.627   2.943   0.590 -0.9136  0.9633 -2.2695
  114SOL    HW2  342   0.692   3.093   0.551  1.0309  1.3524  1.1506
  115SOL     OW  343   0.056   1.729   2.822  0.5873 -0.0429  0.2271
  115SOL    HW1  344   0.009   1.797   2.884  2.5865  0.0578 -2.3220
  115SOL    HW2  345   0.136   1.688   2.870 -0.2388  0.3047 -0.1378
  116SOL     OW  346   2.904   1.324   1.642  0.4012 -0.1961 -0.2684
  116SOL    HW1  347   2.944   1.233   1.643 -2.3336  2.3013 -1.4348
  116SOL    HW2  348   2.964   1.391   1.693 -1.0036  0.0275  0.3433
  117SOL     OW  349   2.020   0.220   1.499 -0.0957 -0.0988 -1.0940
  117SOL    HW1  350   2.031   0.117   1.489  0.0750  1.2800  0.0987
  117SOL    HW2  351   1.940   0.246   1.448 -1.2369  1.0234  0.9218
  118SOL     OW  352   2.961   2.266   2.422  0.0757 -0.4236 -0.0048
  118SOL    HW1  353   2.895   2.256   2.342  0.8657 -1.1762 -2.3341
  118SOL    HW2  354   2.960   2.364   2.450  1.2453 -1.1096  1.4425
  119SOL     OW  355   0.373   1.649   1.797 -0.3290  0.1474  0.7700
  119SOL    HW1  356   0.331   1.699   1.718 -1.3411  0.1909 -2.7930
  119SOL    HW2  357   0.461   1.606   1.765  0.9865  0.3066  0.2814
  120SOL     OW  358   0.257   1.383   1.759  0.2401 -0.4643 -0.1117
  120SOL    HW1  359   0.309   1.313   1.702 -0.9700 -0.3981  1.5932
  120SOL    HW2  360   0.315   1.458   1.797  0.3630  1.1948 -0.0465
  121SOL     OW  361   1.491   1.008   0.756  0.2664 -0.1694 -0.1828
  121SOL    HW1  362   1.398   0.973   0.776 -0.0839 -0.8987  1.2924
  121SOL    HW2  363   1.549   0.945   0.701 -1.4173  1.0780  0.3823
  122SOL     OW  364   2.461   2.344   2.786 -0.0806 -1.1641 -0.3907
  122SOL    HW1  365   2.416   2.412   2.725  0.1827  2.0539  0.2061
  122SOL    HW2  366   2.402   2.265   2.787  0.0818  3.1730  1.4912
  123SOL     OW  367   0.021   0.327   0.477 -0.2670  0.0411  0.0400
  123SOL    HW1  368   3.088   0.409   0.528  0.6706  0.6905  1.0752
  123SOL    HW2  369   3.053   0.264   0.438  2.8055 -2.0250 -0.2790
  124SOL     OW  370   1.722   1.267   0.125  0.7026 -0.4327  0.5847
  124SOL    HW1  371   1.743   1.260   0.228 -0.0644 -1.1278  1.7270
  124SOL    HW2  372   1.775   1.344   0.075  2.1776  3.2780  0.5445
  125SOL     OW  373   0.032   0.839   2.211  0.1434 -0.1715 -0.3587
  125SOL    HW1  374   0.069   0.885   2.297 -0.5985  1.0126 -0.5240
  125SOL    HW2  375   0.107   0.818   2.150 -0.4277 -0.2034  4.5435
  126SOL     OW  376   2.695   2.850   0.180  0.0156  0.6173 -0.4517
  126SOL    HW1  377   2.680   2.824   0.082 -0.3100  0.3828 -1.8068
  126SOL    HW2  378   2.711   2.771   0.240 -1.7276  1.7672 -1.7127
  127SOL     OW  379   2.653   1.759   0.075  0.2043  0.0257  0.3724
  127SOL    HW1  380   2.612   1.728   0.162 -4.7327 -0.6828  2.8592
  127SOL    HW2  381   2.582   1.783   0.003 -2.0183  0.4110 -1.3768
  128SOL     OW  382   0.826   1.072   0.665 -0.5923 -0.1124  0.2233
  128SOL    HW1  383   0.728   1.061   0.666  0.0228  0.7614 -0.6827
  128SOL    HW2  384   0.856   1.075   0.764 -0.6824 -1.3686  2.5850
  129SOL     OW  385   2.157   2.097   0.896 -0.2247 -0.3012  0.3495
  129SOL    HW1  386   2.169   2.014   0.958  3.0661  1.0646  1.6221
  129SOL    HW2  387   2.088   2.159   0.942 -2.5376 -2.1140  3.7983
  130SOL     OW  388   1.929   0.699   0.196 -0.2103  0.1198  0.1140
  130SOL    HW1  389   1.994   0.710   0.121 -5.9413  1.2904 -1.3131
  130SOL    HW2  390   1.838   0.719   0.157  0.5190  0.7368  1.6191
  131SOL     OW  391   0.046   1.595   2.583  0.1066  0.2482  0.2654
  131SOL    HW1  392   3.054   1.604   2.537 -0.9402 -0.9709 -3.2858
  131SOL    HW2  393   0.041   1.623   2.680 -0.2239 -1.9202 -1.8750
  132SOL     OW  394   1.293   1.174   1.737 -0.8713 -0.1648  0.4921
  132SOL    HW1  395   1.299   1.098   1.667 -0.0133 -2.8345 -1.9268
  132SOL    HW2  396   1.196   1.197   1.758  0.8913  1.9508 -0.4048
  133SOL     OW  397   0.361   1.078   0.908 -0.1075 -0.0091  0.4511
  133SOL    HW1  398   0.463   1.082   0.911  0.9912 -0.5772 -1.2894
  133SOL    HW2  399   0.318   1.165   0.938  0.3618  2.7041  1.0732
  134SOL     OW  400   0.011   1.368   0.071 -0.0215 -0.0827 -0.2738
  134SOL    HW1  401   0.061   1.280   0.065  1.8603  1.6400  1.5513
  134SOL    HW2  402   0.005   1.417   3.080 -0.7812  2.0405 -1.1752
  135SOL     OW  403   1.677   0.758   0.112  0.9694 -0.7779 -0.4644
  135SOL    HW1  404   1.699   0.848   0.074 -1.0372 -2.7989  2.5707
  135SOL    HW2  405   1.617   0.712   0.043  0.7140  3.9830 -1.4967
  136SOL     OW  406   2.123   2.098   1.452  0.3201  0.5829 -0.4867
  136SOL    HW1  407   2.168   2.038   1.523 -0.3627 -0.4773  0.4631
  136SOL    HW2  408   2.056   2.163   1.493  2.0938  0.0741  1.7772
  137SOL     OW  409   2.278   2.468   0.709  0.0801  0.0825 -0.4082
  137SOL    HW1  410   2.214   2.529   0.762 -1.3442  1.4952  1.4602
  137SOL    HW2  411   2.336   2.531   0.654 -0.3215 -1.8158  0.0160
  138SOL     OW  412   2.369   0.383   1.804 -0.1370  0.4419 -0.9274
  138SOL    HW1  413   2.293   0.357   1.870 -4.0232 -1.1533  1.1554
  138SOL    HW2  414   2.364   0.335   1.713 -2.0787  0.7916  0.0616
  139SOL     OW  415   2.703   2.591   2.771  0.2707  0.1311  0.1348
  139SOL    HW1  416   2.726   2.496   2.805 -1.1558  1.9523  1.5463
  139SOL    HW2  417   2.706   2.599   2.671  0.7534 -2.2093 -0.4254
  140SOL     OW  418   1.716   1.897   2.688  0.7345  0.0044 -0.2566
  140SOL    HW1  419   1.785   1.969   2.714  2.0107 -0.6992 -2.0595
  140SOL    HW2  420   1.627   1.937   2.656 -1.7308 -1.5154  1.1683
  141SOL     OW  421   1.385   1.333   2.514 -0.0523 -0.2811 -0.4154
  141SOL    HW1  422   1.319   1.261   2.542  1.5253  1.2829 -0.0260
  141SOL    HW2  423   1.442   1.359   2.595  0.2155  0.9407 -0.8102
  142SOL     OW  424   2.083   2.446   2.168 -0.5437 -0.2308 -0.5176
  142SOL    HW1  425   2.060   2.379   2.095 -0.2361  1.0570 -0.8344
  142SOL    HW2  426   2.171   2.494   2.146 -1.8132 -1.6654 -1.2226
  143SOL     OW  427   1.041   2.424   0.487 -0.0738  0.6390  0.3533
  143SOL    HW1  428   1.087   2.387   0.569  1.1665 -0.9824 -0.4109
  143SOL    HW2  429   1.008   2.348   0.432  1.0785  1.5106  0.2342
  144SOL     OW  430   0.831   2.611   0.506  0.0502  0.2657  0.3142
  144SOL    HW1  431   0.849   2.698   0.453  1.9484 -0.7212 -2.3582
  144SOL    HW2  432   0.902   2.539   0.483  0.9295 -0.1048  0.1807
  145SOL     OW  433   1.806   2.288   3.057 -0.7933  0.1648  0.5721
  145SOL    HW1  434   1.720   2.237   3.032 -1.8132 -1.8744  1.3603
  145SOL    HW2  435   1.795   2.386   3.066  0.2030 -1.0740 -0.7361
  146SOL     OW  436   1.858   2.418   0.243  0.2721 -0.2790  0.5052
  146SOL    HW1  437   1.816   2.494   0.192 -1.5828 -0.2953  0.2592
  146SOL    HW2  438   1.951   2.391   0.213 -2.3332 -1.6985  0.4835
  147SOL     OW  439   0.331   1.817   2.014 -0.2199  0.5622  0.1313
  147SOL    HW1  440   0.311   1.769   1.922 -1.3275  0.9677  0.6717
  147SOL    HW2  441   0.355   1.916   1.983 -2.2811  2.6287 -2.6758
  148SOL     OW  442   1.233   3.068   0.286  0.4821 -0.5024 -0.0773
  148SOL    HW1  443   1.273   0.046   0.233  4.5551  1.8914  0.1379
  148SOL    HW2  444   1.145   3.041   0.242 -0.9732  2.0228  0.3628
  149SOL     OW  445   0.528   2.113   0.155 -0.4570  0.1604 -0.3950
  149SOL    HW1  446   0.602   2.112   0.081  0.1379 -2.7550  0.6305
  149SOL    HW2  447   0.443   2.158   0.119 -1.2926 -3.0701  0.0153
  150SOL     OW  448   0.458   2.519   1.254  0.4589  0.1871  0.1139
  150SOL    HW1  449   0.542   2.473   1.220  1.9753  0.0858 -0.5577
  150SOL    HW2  450   0.428   2.590   1.184 -1.2909  2.5525 -0.3555
  151SOL     OW  451   0.286   1.598   2.890 -0.1358  0.0381 -0.0375
  151SOL    HW1  452   0.352   1.540   2.841 -1.9679  0.9409  1.6194
  151SOL    HW2  453   0.307   1.602   2.986  0.2976 -2.7230 -4.6204
  152SOL     OW  454   2.999   2.093   0.850 -0.3008 -0.0055 -0.0332
  152SOL    HW1  455   2.968   2.015   0.794 -1.9774 -0.4846 -1.3670
  152SOL    HW2  456   2.933   2.170   0.857  1.9158  0.9888 -0.4658
  153SOL     OW  457   1.579   2.317   0.662 -0.2279 -0.3905  0.4384
  153SOL    HW1  458   1.650   2.269   0.606  2.5711  0.0110  0.7487
  153SOL    HW2  459   1.497   2.261   0.660  1.9974 -0.2471  2.1304
  154SOL     OW  460   0.844   2.976   1.419  0.2191  0.0841  0.3853
  154SOL    HW1  461   0.897   2.889   1.440 -0.9155  0.6504 -1.9166
  154SOL    HW2  462   0.745   2.971   1.444 -2.5499  0.8585  2.4764
  155SOL     OW  463   2.574   2.011   0.438  0.1475  0.7307  0.6528
  155SOL    HW1  464   2.625   2.078   0.493 -1.5390  0.1087  0.4450
  155SOL    HW2  465   2.535   2.052   0.351 -1.9022 -1.5658 -3.8470
  156SOL     OW  466   2.345   1.979   0.111 -0.2369  0.0755 -0.1117
  156SOL    HW1  467   2.390   1.963   0.022  0.1626 -1.3151  0.5761
  156SOL    HW2  468   2.376   2.065   0.153  0.6264 -1.2230 -0.8901
  157SOL     OW  469   0.513   0.126   1.896  0.3151 -0.4851 -0.1757
  157SOL    HW1  470   0.521   0.178   1.982 -0.2705 -0.0405 -2.2408
  157SOL    HW2  471   0.416   0.106   1.873  2.3991 -1.9868 -2.8173
  158SOL     OW  472   0.979   0.680   1.122  0.8042  0.0727 -0.2546
  158SOL    HW1  473   1.048   0.634   1.070 -0.6175  1.9984  6.1707
  158SOL    HW2  474   0.997   0.672   1.225  0.5275 -0.0425  1.9076
  159SOL     OW  475   1.890   1.040   2.962  0.1160  0.1040  0.0709
  159SOL    HW1  476   1.874   1.001   2.869  0.5212  0.6791  0.5038
  159SOL    HW2  477   1.808   1.033   3.016  2.2026  1.4678 -1.6888
  160SOL     OW  478   1.238   1.746   0.439  0.2596 -0.1878 -0.4078
  160SOL    HW1  479   1.312   1.709   0.498 -2.7721 -2.1224  1.9260
  160SOL    HW2  480   1.148   1.707   0.467 -1.0279 -0.6219  1.9317
  161SOL     OW  481   2.755   1.853   2.693  0.0004 -0.1264  0.7269
  161SOL    HW1  482   2.802   1.935   2.651  2.2970  1.3036 -2.4735
  161SOL    HW2  483   2.651   1.866   2.691  2.2609 -5.1086 -0.2101
  162SOL     OW  484   3.099   2.238   1.164 -0.1072  0.0627  0.5857
  162SOL    HW1  485   0.062   2.291   1.225 -0.9334  0.8804 -1.7942
  162SOL    HW2  486   0.034   2.145   1.141 -0.9595 -0.5570 -0.3223
  163SOL     OW  487   0.602   0.828   2.661  0.1641  0.3419 -0.2309
  163SOL    HW1  488   0.651   0.881   2.734 -0.1618 -0.0932 -0.1016
  163SOL    HW2  489   0.594   0.730   2.683  1.3122  2.3387 -2.4362
  164SOL     OW  490   0.405   2.625   2.819  0.2516  0.1906 -0.0900
  164SOL    HW1  491   0.401   2.575   2.905 -1.3670 -0.5728 -1.1874
  164SOL    HW2  492   0.332   2.697   2.815  0.1817  0.2724 -0.2846
  165SOL     OW  493   2.406   1.090   1.561 -0.4556  0.3040 -0.4858
  165SOL    HW1  494   2.418   1.043   1.649  2.0309 -0.6092 -1.0372
  165SOL    HW2  495   2.466   1.175   1.547  0.0767  1.2709 -0.6030
  166SOL     OW  496   2.081   1.842   1.323  0.3665 -0.1853 -0.2622
  166SOL    HW1  497   2.116   1.929   1.354 -1.9648  1.5695 -1.4861
  166SOL    HW2  498   2.093   1.766   1.391  1.6884 -2.7017  1.6047
  167SOL     OW  499   0.124   0.751   3.071  0.2531  0.2031  0.2455
  167SOL    HW1  500   0.064   0.808   0.028  2.1964 -0.0862  0.0101
  167SOL    HW2  501   0.224   0.779   3.072 -1.4446  1.7743 -1.6637
  168SOL     OW  502   1.988   0.449   2.646  0.1142 -0.1453 -1.2123
  168SOL    HW1  503   1.964   0.503   2.563  0.9822 -0.1682  1.3134
  168SOL    HW2  504   1.929   0.368   2.654  0.1713  0.8703  0.9658
  169SOL     OW  505   0.555   1.273   0.049  1.3245  0.0643 -0.0915
  169SOL    HW1  506   0.541   1.316   0.139  0.4800  1.2458 -2.4462
  169SOL    HW2  507   0.465   1.259   0.007  1.0313  1.6670 -0.8367
  170SOL     OW  508   1.319   0.929   1.612  0.1102 -0.1575  0.3989
  170SOL    HW1  509   1.252   0.884   1.549  0.8771 -0.3873  0.2644
  170SOL    HW2  510   1.370   0.990   1.545  1.0133 -1.2607 -0.7354
  171SOL     OW  511   1.723   2.625   1.074  0.5154 -0.3779  0.5984
  171SOL    HW1  512   1.708   2.573   1.159  0.1405  1.1082 -0.0314
  171SOL    HW2  513   1.675   2.580   0.996 -1.5795  0.0251 -1.8117
  172SOL     OW  514   1.018   0.036   1.980  0.5511 -0.2208 -0.7965
  172SOL    HW1  515   0.927   0.028   1.939 -4.5132 -0.7469 -1.4488
  172SOL    HW2  516   1.078   3.056   1.959 -0.7501 -2.2625  0.5238
  173SOL     OW  517   0.864   2.425   0.917  0.0299 -0.0323  0.2810
  173SOL    HW1  518   0.909   2.495   0.852 -0.3205  1.5820  0.2210
  173SOL    HW2  519   0.786   2.469   0.964  1.9663 -0.5502  2.1340
  174SOL     OW  520   2.148   0.116   0.230  0.3903 -0.0683 -0.5234
  174SOL    HW1  521   2.063   0.130   0.284 -0.9284 -1.2812 -0.0521
  174SOL    HW2  522   2.151   0.021   0.189 -2.5167 -0.7278  2.9947
  175SOL     OW  523   0.884   1.361   0.767 -0.1900  0.5947 -0.2141
  175SOL    HW1  524   0.890   1.466   0.761  1.3984  1.6038 -0.6120
  175SOL    HW2  525   0.792   1.328   0.740  2.5655  1.5538 -0.5285
  176SOL     OW  526   0.956   1.854   1.006 -0.5354  0.1798  0.2697
  176SOL    HW1  527   1.015   1.914   1.063  0.1579  0.4088  1.1002
  176SOL    HW2  528   0.918   1.905   0.932  1.6136 -3.2587  2.4090
  177SOL     OW  529   1.342   0.954   1.108 -0.2018 -0.1297 -0.0158
  177SOL    HW1  530   1.356   0.855   1.078  0.5411 -0.3853  0.8337
  177SOL    HW2  531   1.428   0.998   1.143 -1.3218  3.0103 -0.6343
  178SOL     OW  532   2.341   1.455   0.572  0.0507  0.1208 -0.1972
  178SOL    HW1  533   2.284   1.536   0.589  0.2884 -0.8197  1.8172
  178SOL    HW2  534   2.319   1.409   0.484 -1.0678 -0.5744 -1.8920
  179SOL     OW  535   0.934   2.767   3.047  0.3696 -0.7842  0.4671
  179SOL    HW1  536   0.928   2.717   0.031 -1.0145 -0.6709 -1.6561
  179SOL    HW2  537   1.012   2.745   2.992  1.8655  0.9314  0.1359
  180SOL     OW  538   1.856   1.203   1.668 -0.1367 -0.1254 -1.1255
  180SOL    HW1  539   1.783   1.243   1.609  1.3929 -1.1484  1.6145
  180SOL    HW2  540   1.916   1.280   1.709  0.6161 -1.4576  2.2413
  181SOL     OW  541   0.833   0.914   1.623  0.6469 -0.1675  0.1731
  181SOL    HW1  542   0.832   0.814   1.608  0.0889 -3.4221  0.7321
  181SOL    HW2  543   0.878   0.934   1.713 -3.4730 -1.3111  0.6751
  182SOL     OW  544   2.901   1.009   3.070  0.1991  0.3829  0.1052
  182SOL    HW1  545   2.969   0.993   3.002 -4.5598  1.4584  0.8222
  182SOL    HW2  546   2.889   1.107   3.092 -1.4169 -2.4211 -0.4492
  183SOL     OW  547   1.948   0.135   2.112  0.7074  0.0696 -0.5240
  183SOL    HW1  548   1.993   0.047   2.139  0.2770 -0.4143  0.8539
  183SOL    HW2  549   1.855   0.115   2.079  1.8690  1.2816 -0.9480
  184SOL     OW  550   0.973   0.813   0.879 -0.4599  0.0492  0.6192
  184SOL    HW1  551   0.962   0.734   0.816  0.5444 -2.4214  0.1648
  184SOL    HW2  552   0.944   0.785   0.971 -1.2251 -1.7628 -1.0075
  185SOL     OW  553   2.157   1.054   0.480 -0.5660 -0.7657 -0.4980
  185SOL    HW1  554   2.116   1.087   0.567 -3.0824 -1.2595  1.9543
  185SOL    HW2  555   2.206   1.142   0.453  0.5250  2.3287 -2.9462
  186SOL     OW  556   0.298   2.176   0.476  0.2731  0.4011 -0.1535
  186SOL    HW1  557   0.324   2.268   0.525 -1.4345  3.7519  1.7933
  186SOL    HW2  558   0.243   2.200   0.393  2.7723 -0.3185 -0.7296
  187SOL     OW  559   1.920   1.692   2.687  0.1309 -0.3463 -0.5193
  187SOL    HW1  560   1.846   1.765   2.690  0.3902 -2.1353 -1.5801
  187SOL    HW2  561   1.988   1.723   2.617 -1.1778 -1.8101 -0.5642
  188SOL     OW  562   1.362   2.846   1.464 -0.3602 -0.2180  0.4101
  188SOL    HW1  563   1.313   2.923   1.417 -2.7651 -0.6438 -1.5972
  188SOL    HW2  564   1.293   2.773   1.476  0.3501 -0.8124 -1.2282
  189SOL     OW  565   2.872   1.395   2.531  0.0418  0.0479 -0.1430
  189SOL    HW1  566   2.864   1.493   2.531 -1.3752  0.4323  0.9857
  189SOL    HW2  567   2.922   1.356   2.610  1.3898  2.2253  2.1489
  190SOL     OW  568   1.008   2.698   2.114 -0.3518  0.1826  0.3870
  190SOL    HW1  569   0.989   2.609   2.166  1.9745 -0.6364  1.4456
  190SOL    HW2  570   1.109   2.716   2.127  2.5701 -0.4412  2.9942
  191SOL     OW  571   2.405   0.942   1.299  0.5449 -0.1190 -0.4582
  191SOL    HW1  572   2.299   0.931   1.294 -2.6534 -2.2184 -0.3768
  191SOL    HW2  573   2.432   0.988   1.382  0.8918 -2.7297  0.4063
  192SOL     OW  574   1.974   0.557   1.035 -0.1461  0.1005  0.4514
  192SOL    HW1  575   2.054   0.499   1.003 -1.1303 -0.2765  1.3369
  192SOL    HW2  576   1.898   0.523   0.979  0.9319 -1.5490  3.1343
  193SOL     OW  577   0.900   0.095   0.337  0.3807 -0.1796  0.5898
  193SOL    HW1  578   0.923   0.180   0.287 -0.8377  1.1584 -0.4009
  193SOL    HW2  579   0.864   0.120   0.431 -0.0118 -0.5698  1.3615
  194SOL     OW  580   1.652   2.203   0.972  0.5486  0.3995  0.0114
  194SOL    HW1  581   1.600   2.293   0.971 -1.7718  0.0653 -1.1372
  194SOL    HW2  582   1.647   2.156   1.064 -1.4861 -2.2137 -1.3764
  195SOL     OW  583   2.391   0.951   0.740  1.0688  0.0122  0.3531
  195SOL    HW1  584   2.436   1.004   0.661 -2.1009  2.9504 -0.2061
  195SOL    HW2  585   2.301   0.993   0.769 -0.5243  1.0599  1.6938
  196SOL     OW  586   0.993   2.398   1.875 -0.4514  0.2810  0.1442
  196SOL    HW1  587   0.921   2.474   1.871  1.3674 -2.4200  1.0736
  196SOL    HW2  588   0.965   2.317   1.936 -0.3953 -2.3843 -0.0568
  197SOL     OW  589   2.712   0.257   2.290 -0.5141  0.0655  0.2944
  197SOL    HW1  590   2.657   0.339   2.275  0.3633 -0.8210  2.1108
  197SOL    HW2  591   2.648   0.184   2.319  1.6756  0.2361 -0.6894
  198SOL     OW  592   1.995   1.502   0.223 -0.0493  0.2497  0.3447
  198SOL    HW1  593   2.090   1.479   0.187  2.8989 -0.4421 -1.9281
  198SOL    HW2  594   1.926   1.502   0.141 -1.3628  2.3080 -0.7296
  199SOL     OW  595   2.507   0.633   1.785  0.4604  0.0245  0.2471
  199SOL    HW1  596   2.542   0.628   1.881 -0.2694  0.1058 -0.1814
  199SOL    HW2  597   2.456   0.549   1.757  0.3408  1.6278  0.5860
  200SOL     OW  598   1.711   2.917   2.996  0.0734  0.1305 -0.6684
  200SOL    HW1  599   1.678   2.978   3.073 -2.7026 -1.7094  1.6168
  200SOL    HW2  600   1.793   2.863   3.029 -0.1280  0.6041 -2.2092
  201SOL     OW  601   2.653   0.219   1.371 -0.4366 -0.3255  0.6347
  201SOL    HW1  602   2.579   0.157   1.383 -0.8270 -1.6394  0.8541
  201SOL    HW2  603   2.618   0.315   1.358  0.2497  0.7789  0.6326
  202SOL     OW  604   2.701   3.058   0.586 -0.7676 -0.5094  0.8379
  202SOL    HW1  605   2.669   0.011   0.668 -0.1683 -0.8606  1.4742
  202SOL    HW2  606   2.801   3.034   0.592  0.6190 -1.5514 -1.2085
  203SOL     OW  607   1.450   1.593   0.571  0.1990  0.1311  0.6622
  203SOL    HW1  608   1.457   1.491   0.546 -0.7311  1.7234  2.3437
  203SOL    HW2  609   1.502   1.648   0.503  0.3345 -2.2993 -1.7096
  204SOL     OW  610   0.191   1.922   2.218 -0.2138  0.4389 -0.0285
  204SOL    HW1  611   0.136   1.998   2.177  0.5487  1.4289  0.7719
  204SOL    HW2  612   0.240   1.872   2.141  0.5672 -1.1472 -0.6187
  205SOL     OW  613   0.450   0.601   0.758 -0.1511 -0.0268  0.2278
  205SOL    HW1  614   0.520   0.524   0.761 -0.1893 -0.7403  1.0717
  205SOL    HW2  615   0.364   0.580   0.712 -0.1316 -0.5467  0.9611
  206SOL     OW  616   0.361   0.973   2.587 -0.1879 -0.5707  0.8233
  206SOL    HW1  617   0.380   1.061   2.531  4.6812  2.0133  0.5854
  206SOL    HW2  618   0.450   0.921   2.598 -0.9511 -0.8483 -1.7100
  207SOL     OW  619   1.275   2.286   1.784 -0.5600 -0.6850  0.2609
  207SOL    HW1  620   1.221   2.215   1.827  2.6468  2.9171  0.7114
  207SOL    HW2  621   1.333   2.340   1.844 -2.0669 -1.9791 -2.0151
  208SOL     OW  622   2.189   0.368   1.003  0.1484 -0.7811  0.2193
  208SOL    HW1  623   2.240   0.336   1.088  2.5306 -2.2186 -0.0529
  208SOL    HW2  624   2.160   0.295   0.941  0.6698  1.9672  0.3790
  209SOL     OW  625   1.913   1.026   0.799 -0.1104  0.4901 -0.5466
  209SOL    HW1  626   1.922   0.965   0.883 -1.5130  0.0245  0.5772
  209SOL    HW2  627   1.885   0.972   0.726 -0.4653  2.7309  0.5575
  210SOL     OW  628   2.164   1.099   0.771  0.0128 -0.3087  0.1951
  210SOL    HW1  629   2.063   1.079   0.773 -1.0875 -0.0240  0.5679
  210SOL    HW2  630   2.182   1.193   0.807 -0.7977  0.0289 -1.7867
  211SOL     OW  631   0.819   2.935   2.812  0.2503  0.0820 -0.4186
  211SOL    HW1  632   0.774   2.848   2.800  2.5058  0.5669 -0.1242
  211SOL    HW2  633   0.803   2.979   2.905  0.9321  1.1197  1.5157
  212SOL     OW  634   1.814   1.800   0.590  0.5455 -0.3215 -0.1027
  212SOL    HW1  635   1.843   1.836   0.682  2.8869 -0.2045  1.9943
  212SOL    HW2  636   1.896   1.795   0.526  1.1997  1.7953  1.3726
  213SOL     OW  637   2.314   2.908   0.338 -0.0594 -0.4085  0.0483
  213SOL    HW1  638   2.291   2.813   0.315 -1.8566  0.2550 -0.5312
  213SOL    HW2  639   2.336   2.967   0.258 -1.0589  1.1978  0.9585
  214SOL     OW  640   1.238   2.429   2.260  0.2695 -0.5096 -0.1211
  214SOL    HW1  641   1.338   2.440   2.258 -0.3398  0.8506  0.5137
  214SOL    HW2  642   1.211   2.330   2.256 -0.0814 -1.3238 -1.6701
  215SOL     OW  643   0.255   1.320   0.988  0.0404 -0.2293  0.0329
  215SOL    HW1  644   0.185   1.330   1.058  1.1772  2.3018  0.3713
  215SOL    HW2  645   0.269   1.405   0.931  0.4146  1.3359 -0.8921
  216SOL     OW  646   0.241   3.056   2.441  0.1757  0.5468  0.0432
  216SOL    HW1  647   0.320   3.008   2.480 -1.3115  1.9101 -0.8215
  216SOL    HW2  648   0.275   0.010   2.362  1.1127 -0.0668 -0.1520
  217SOL     OW  649   2.878   1.553   1.467  0.0590  0.3401 -0.4485
  217SOL    HW1  650   2.973   1.542   1.471 -2.7230  0.8690 -0.0912
  217SOL    HW2  651   2.831   1.468   1.506 -0.9162 -0.3080 -0.0850
  218SOL     OW  652   0.696   2.312   1.739 -0.7737 -0.2192 -0.5294
  218SOL    HW1  653   0.608   2.329   1.781  1.8821 -2.2547 -0.1074
  218SOL    HW2  654   0.763   2.285   1.809  0.7795  0.8619  1.7283
  219SOL     OW  655   2.154   1.873   3.036  0.0622 -0.8542 -0.1991
  219SOL    HW1  656   2.211   1.902   0.017  2.4282 -0.1977  1.6092
  219SOL    HW2  657   2.200   1.795   2.989  0.4267 -2.4385 -0.6158
  220SOL     OW  658   1.767   0.187   0.006  0.1226 -0.5590 -0.4085
  220SOL    HW1  659   1.833   0.182   3.030 -0.8362  0.0823  1.1648
  220SOL    HW2  660   1.733   0.283   0.011 -2.0437 -1.3171  0.8836
  221SOL     OW  661   2.773   1.103   0.250 -0.1661 -0.1167  0.3228
  221SOL    HW1  662   2.794   1.008   0.224  0.7517  0.7707  1.5411
  221SOL    HW2  663   2.793   1.165   0.167  0.2949 -0.4789 -0.0004
  222SOL     OW  664   1.598   1.359   0.586  0.2798  0.0747  0.0044
  222SOL    HW1  665   1.536   1.320   0.652  1.4960 -1.2674 -1.6692
  222SOL    HW2  666   1.668   1.422   0.629 -1.5887  0.9282 -0.6048
  223SOL     OW  667   0.875   0.214   2.877  0.1463  0.2961 -0.2106
  223SOL    HW1  668   0.939   0.248   2.807 -4.4264 -0.9633  0.5699
  223SOL    HW2  669   0.853   0.298   2.934  1.9676 -2.0286  1.6588
  224SOL     OW  670   0.964   2.840   1.094 -0.0087  0.3600 -0.1054
  224SOL    HW1  671   0.968   2.935   1.128 -0.5519 -1.2198 -1.6376
  224SOL    HW2  672   0.883   2.790   1.130 -3.9432  3.4210 -2.2676
  225SOL     OW  673   1.072   0.128   2.239 -0.1367  0.1343 -0.0604
  225SOL    HW1  674   1.066   0.096   2.141 -4.4362 -2.4559  1.8973
  225SOL    HW2  675   1.069   0.049   2.305 -2.4855 -2.6511  2.4135
  226SOL     OW  676   1.146   1.589   0.800 -0.2835  0.9077 -0.3890
  226SOL    HW1  677   1.223   1.654   0.786 -5.0966 -3.7128 -0.2264
  226SOL    HW2  678   1.182   1.493   0.805  1.2130  1.2821  0.2561
  227SOL     OW  679   0.251   2.207   1.461  0.6459 -0.0812  0.0344
  227SOL    HW1  680   0.216   2.259   1.383  1.6010  1.5427 -1.0361
  227SOL    HW2  681   0.265   2.114   1.419 -1.2706 -0.1843 -1.9739
  228SOL     OW  682   3.054   1.922   0.384  0.2390  0.6730 -0.0783
  228SOL    HW1  683   3.065   1.996   0.316 -0.0045  0.6685 -0.2309
  228SOL    HW2  684   0.037   1.901   0.434 -0.1729  1.4208 -1.2056
  229SOL     OW  685   2.479   0.247   2.939 -0.6200 -0.0733 -0.2099
  229SOL    HW1  686   2.563   0.273   2.884 -0.7321  2.4050  0.7849
  229SOL    HW2  687   2.496   0.149   2.967  1.3588 -1.9155 -1.6681
  230SOL     OW  688   2.579   0.850   0.358  0.2085 -0.2574 -0.4638
  230SOL    HW1  689   2.651   0.851   0.288 -0.9776  0.3272  0.2354
  230SOL    HW2  690   2.495   0.881   0.310 -0.2785  1.1736 -0.4307
  231SOL     OW  691   1.621   1.750   0.390 -0.3372 -0.3197 -0.1107
  231SOL    HW1  692   1.664   1.768   0.481 -0.3259  1.0155 -0.0465
  231SOL    HW2  693   1.633   1.831   0.329  0.4507 -1.4266  0.2430
  232SOL     OW  694   1.809   1.922   1.040  1.3095 -0.4901 -0.0059
  232SOL    HW1  695   1.886   1.921   0.974 -1.2782 -1.3867  0.5067
  232SOL    HW2  696   1.784   1.822   1.055  1.8400 -3.6178 -1.1260
  233SOL     OW  697   0.628   2.947   1.864  0.4612 -0.6195 -0.3016
  233SOL    HW1  698   0.707   3.007   1.871 -0.9782 -0.1334 -0.5139
  233SOL    HW2  699   0.612   2.924   1.765  2.8376 -0.2886 -0.5973
  234SOL     OW  700   0.735   0.422   2.454 -0.4057  0.0119  0.7379
  234SOL    HW1  701   0.768   0.349   2.388 -0.6954 -4.8684  1.5792
  234SOL    HW2  702   0.815   0.457   2.501  1.2498 -0.4407  1.5543
  235SOL     OW  703   2.606   1.067   1.907 -0.1314 -0.1198 -0.4809
  235SOL    HW1  704   2.694   1.017   1.908 -3.9287  2.3278 -1.5563
  235SOL    HW2  705   2.538   1.015   1.848  2.4570 -0.2222 -2.4705
  236SOL     OW  706   1.628   2.742   1.437 -1.0217 -0.4452  0.6354
  236SOL    HW1  707   1.695   2.799   1.379 -0.4541  2.0121  2.2931
  236SOL    HW2  708   1.537   2.785   1.431 -1.0977  1.6099  0.2331
  237SOL     OW  709   0.448   1.591   2.526 -0.1955  0.1945 -0.0940
  237SOL    HW1  710   0.538   1.649   2.520  2.1297  0.8851 -0.3416
  237SOL    HW2  711   0.375   1.623   2.462 -0.2937 -3.4627 -0.0580
  238SOL     OW  712   1.094   0.834   2.162 -0.5146  0.1826  0.5770
  238SOL    HW1  713   1.083   0.799   2.067 -1.6843  1.1611  1.5413
  238SOL    HW2  714   1.189   0.823   2.198  0.3581 -0.6570  1.0607
  239SOL     OW  715   0.899   1.725   2.465  0.0814  0.1733 -0.7491
  239SOL    HW1  716   0.913   1.747   2.565  1.1103 -0.7274  0.7011
  239SOL    HW2  717   0.936   1.795   2.399  0.2198  0.5122  1.3716
  240SOL     OW  718   2.412   2.604   0.526  0.5501 -0.4762  0.0115
  240SOL    HW1  719   2.359   2.624   0.446  1.2608 -0.4628  0.1582
  240SOL    HW2  720   2.496   2.663   0.539 -2.5433  0.9487  0.3865
  241SOL     OW  721   0.388   1.041   0.197 -0.2300  0.3952 -0.1446
  241SOL    HW1  722   0.398   0.990   0.291  2.2494 -1.2495  2.3866
  241SOL    HW2  723   0.460   1.118   0.197 -0.6195  1.2548  0.2498
  242SOL     OW  724   1.445   2.905   1.714 -0.1091 -0.1615  0.4049
  242SOL    HW1  725   1.407   2.898   1.617 -0.2856 -4.3101 -0.1110
  242SOL    HW2  726   1.548   2.906   1.724  0.9739 -1.0594  0.2850
  243SOL     OW  727   1.187   2.573   1.811  0.1303  0.2057 -0.0197
  243SOL    HW1  728   1.140   2.657   1.805  1.6455 -1.3428  2.1515
  243SOL    HW2  729   1.126   2.495   1.835  0.7534  0.4868 -1.0348
  244SOL     OW  730   2.280   0.551   2.492  0.0289 -0.0298 -0.6380
  244SOL    HW1  731   2.272   0.640   2.450  0.1080 -1.2864 -1.6839
  244SOL    HW2  732   2.243   0.553   2.589 -0.9505  2.6463 -0.1527
  245SOL     OW  733   1.453   2.303   1.165 -0.9010  0.1219  0.2446
  245SOL    HW1  734   1.506   2.320   1.249  2.2763  1.1857  1.9151
  245SOL    HW2  735   1.430   2.204   1.156  0.9873 -0.3453 -1.2666
  246SOL     OW  736   1.308   0.167   0.126  0.2372 -0.3908  0.2324
  246SOL    HW1  737   1.364   0.237   0.170 -2.5874 -1.8919 -1.9219
  246SOL    HW2  738   1.237   0.215   0.068  0.7522 -1.8683  1.7410
  247SOL     OW  739   1.789   0.331   1.876  0.3635  0.4346 -0.8319
  247SOL    HW1  740   1.881   0.330   1.829 -1.5345 -1.6923 -1.7304
  247SOL    HW2  741   1.774   0.251   1.941 -1.5148  1.2087 -0.5313
  248SOL     OW  742   0.072   2.368   1.596 -0.3558 -0.1528 -0.8139
  248SOL    HW1  743   0.086   2.465   1.579  0.7318 -2.5045 -0.6398
  248SOL    HW2  744   0.144   2.307   1.558  0.4521  0.2461  1.3597
  249SOL     OW  745   0.515   0.230   0.263  0.5888  0.0834 -0.1406
  249SOL    HW1  746   0.417   0.246   0.285 -1.4111 -0.3589 -3.3459
  249SOL    HW2  747   0.534   0.130   0.273 -3.0318 -2.0236  1.7898
  250SOL     OW  748   2.425   0.191   2.245  0.1374  0.2175 -0.0526
  250SOL    HW1  749   2.348   0.254   2.270  0.1131  0.5180  2.7205
  250SOL    HW2  750   2.480   0.236   2.170  0.0185 -1.2840  0.6251
  251SOL     OW  751   1.326   0.704   0.036  0.0334  0.6128 -0.1619
  251SOL    HW1  752   1.308   0.652   0.123  1.8301  1.2249  0.1776
  251SOL    HW2  753   1.252   0.680   3.069 -0.6024  0.6306 -1.8059
  252SOL     OW  754   1.498   2.466   2.324 -0.2151  0.2844 -0.3658
  252SOL    HW1  755   1.537   2.557   2.339  0.3580 -0.4781  1.7750
  252SOL    HW2  756   1.529   2.423   2.237 -0.9259  1.1442  0.0254
  253SOL     OW  757   2.753   2.642   0.386  0.3281  0.6847  0.3000
  253SOL    HW1  758   2.718   2.721   0.439  1.9580 -1.8932 -0.9352
  253SOL    HW2  759   2.846   2.620   0.414 -2.8423 -1.5760  1.7972
  254SOL     OW  760   2.130   1.079   1.548  0.0060 -0.2389  0.0272
  254SOL    HW1  761   2.068   1.151   1.578 -0.1776  1.2324  0.5120
  254SOL    HW2  762   2.224   1.107   1.564 -0.8616 -0.8729 -0.8335
  255SOL     OW  763   0.917   2.707   1.425 -0.2550 -0.0711  0.3458
  255SOL    HW1  764   0.889   2.695   1.330  0.2532 -1.5534  0.4552
  255SOL    HW2  765   0.850   2.673   1.491  1.7377  1.0065  0.8948
  256SOL     OW  766   2.205   1.786   1.907 -0.2674 -0.1426  0.0901
  256SOL    HW1  767   2.217   1.699   1.857  1.7867  3.0395  2.1769
  256SOL    HW2  768   2.297   1.825   1.926 -0.5164  1.0487  1.9832
  257SOL     OW  769   0.442   2.416   2.620  0.6889 -0.1776  0.1410
  257SOL    HW1  770   0.508   2.375   2.689  0.8897 -1.6357  0.6656
  257SOL    HW2  771   0.405   2.504   2.657  0.0067  1.2469  1.5778
  258SOL     OW  772   0.577   2.518   0.952 -0.4982  0.2232  0.5830
  258SOL    HW1  773   0.511   2.591   0.988 -0.3920  0.9209 -0.6106
  258SOL    HW2  774   0.582   2.518   0.851 -1.8353 -1.8391  0.3686
  259SOL     OW  775   1.412   0.551   2.710 -0.1639  0.9336 -0.3287
  259SOL    HW1  776   1.511   0.566   2.680  1.1064  0.9542 -3.3196
  259SOL    HW2  777   1.378   0.641   2.737  0.8505 -1.4066 -1.5253
  260SOL     OW  778   0.373   0.201   1.285 -0.2610  0.4040 -0.1560
  260SOL    HW1  779   0.466   0.158   1.270  1.4288 -0.6323 -0.1567
  260SOL    HW2  780   0.347   0.242   1.197  1.3669 -0.8017 -1.1433
  261SOL     OW  781   1.266   0.293   2.308  0.6606 -0.1900  0.2671
  261SOL    HW1  782   1.179   0.242   2.298  0.8276  2.5502  2.6695
  261SOL    HW2  783   1.256   0.368   2.379 -0.7494 -1.3511  0.1018
  262SOL     OW  784   1.198   2.958   1.955  0.3485  0.5263  0.1755
  262SOL    HW1  785   1.213   2.912   2.048 -1.8354 -4.7683  2.4003
  262SOL    HW2  786   1.195   2.893   1.881  0.9932 -0.0689  1.5490
  263SOL     OW  787   0.727   2.154   3.076  0.0769 -0.6237 -0.1932
  263SOL    HW1  788   0.756   2.246   3.053  1.2012 -2.3900  1.0219
  263SOL    HW2  789   0.810   2.094   3.081  1.3184 -0.7559 -1.7846
  264SOL     OW  790   1.381   1.741   1.045  0.4500  0.1011 -0.5593
  264SOL    HW1  791   1.481   1.740   1.066 -1.6779 -0.1840  1.2166
  264SOL    HW2  792   1.360   1.736   0.947 -0.1028  1.1272  0.0131
  265SOL     OW  793   0.851   2.256   0.336 -0.0518  0.2496  0.2718
  265SOL    HW1  794   0.923   2.207   0.284  2.9845  1.8340 -2.2183
  265SOL    HW2  795   0.775   2.197   0.369 -2.2224 -2.2739 -0.1847
  266SOL     OW  796   2.726   0.859   1.034 -0.0633 -0.5398  0.1995
  266SOL    HW1  797   2.658   0.811   0.981  1.2132 -0.0804  1.0852
  266SOL    HW2  798   2.767   0.793   1.098 -0.8896 -1.8553 -1.3139
  267SOL     OW  799   0.230   1.408   0.250  0.4825 -0.2150  0.4065
  267SOL    HW1  800   0.204   1.413   0.346 -3.2911 -0.9932 -2.4420
  267SOL    HW2  801   0.149   1.399   0.183 -0.4647  1.7448 -1.0775
  268SOL     OW  802   1.268   0.554   0.254 -0.0266  0.0640  0.1718
  268SOL    HW1  803   1.175   0.522   0.279  0.5653 -0.4024 -1.0375
  268SOL    HW2  804   1.322   0.578   0.333 -1.5875  1.5584 -1.2785
  269SOL     OW  805   2.719   0.727   2.224 -0.1121 -0.1812  0.1179
  269SOL    HW1  806   2.724   0.824   2.264  1.2884  1.3413 -3.3528
  269SOL    HW2  807   2.794   0.723   2.158 -1.3007  1.2022  1.3325
  270SOL     OW  808   2.702   1.196   0.716 -0.0576 -0.3138 -0.1947
  270SOL    HW1  809   2.711   1.290   0.679 -0.0224  1.8555 -1.9010
  270SOL    HW2  810   2.646   1.136   0.657 -1.5897 -0.1951  1.0381
  271SOL     OW  811   0.130   1.209   2.224  0.1123  0.2704  0.1561
  271SOL    HW1  812   0.222   1.164   2.219 -0.7366 -1.9221  0.7792
  271SOL    HW2  813   0.131   1.293   2.169 -0.2250 -0.2982  3.5570
  272SOL     OW  814   2.599   2.297   1.900 -0.1921 -0.3837  0.0530
  272SOL    HW1  815   2.548   2.327   1.988  2.0656 -1.3359 -0.0977
  272SOL    HW2  816   2.684   2.241   1.913  0.9695  1.6707 -0.1198
  273SOL     OW  817   0.128   2.493   3.046  0.5122  0.1586 -0.1035
  273SOL    HW1  818   0.221   2.470   3.009 -1.7090  2.3710 -1.1330
  273SOL    HW2  819   0.064   2.486   2.966 -0.3184 -2.8440 -3.7990
  274SOL     OW  820   0.794   2.270   0.703  0.2140  0.8411  0.2028
  274SOL    HW1  821   0.828   2.315   0.786  1.1308  2.8530  0.5971
  274SOL    HW2  822   0.874   2.222   0.657  2.1743  1.2045 -1.0249
  275SOL     OW  823   1.522   2.096   2.663 -0.0491  0.1305 -0.1912
  275SOL    HW1  824   1.553   2.161   2.594 -1.7221 -2.3379  2.1341
  275SOL    HW2  825   1.456   2.128   2.729  2.9566 -1.0467 -1.0899
  276SOL     OW  826   2.822   1.793   2.121  0.2024  0.2163  0.2129
  276SOL    HW1  827   2.731   1.784   2.080 -1.3481  0.2870  0.1592
  276SOL    HW2  828   2.817   1.843   2.212  0.7261  0.1987  0.5521
  277SOL     OW  829   2.143   0.164   0.799  0.6763 -0.2537  0.0504
  277SOL    HW1  830   2.206   0.195   0.727  1.0000 -1.7833  1.1966
  277SOL    HW2  831   2.046   0.175   0.766 -1.5811  0.1656  1.3273
  278SOL     OW  832   1.402   0.150   2.582  0.0059 -0.2923 -0.4756
  278SOL    HW1  833   1.306   0.181   2.559  0.0522  1.0338 -2.1488
  278SOL    HW2  834   1.411   0.091   2.664 -0.0717  0.4847  0.4461
  279SOL     OW  835   1.215   2.733   1.104  0.0770  0.2789  0.0489
  279SOL    HW1  836   1.220   2.653   1.159  0.3883  0.0934 -1.5627
  279SOL    HW2  837   1.116   2.767   1.103 -2.2577  2.8037  0.4256
  280SOL     OW  838   1.274   1.214   0.566 -0.0242  0.2103 -0.4214
  280SOL    HW1  839   1.209   1.138   0.550 -3.2376 -0.8294 -1.8633
  280SOL    HW2  840   1.235   1.285   0.632  2.3423  1.8365  0.5192
  281SOL     OW  841   2.037   1.741   0.404 -0.5240  0.1365 -0.2472
  281SOL    HW1  842   2.105   1.711   0.474  2.1028 -0.5696 -0.0630
  281SOL    HW2  843   1.998   1.670   0.350  0.0485  1.7669  1.2652
  282SOL     OW  844   2.840   1.357   0.505 -0.5852 -0.1405  0.1937
  282SOL    HW1  845   2.746   1.391   0.482  0.0825  0.9409 -0.4937
  282SOL    HW2  846   2.903   1.378   0.425  1.1312  1.7031 -1.0130
  283SOL     OW  847   1.585   2.645   3.046  0.4149 -0.0675  0.0082
  283SOL    HW1  848   1.557   2.575   2.973 -1.8588  0.1368 -0.1398
  283SOL    HW2  849   1.542   2.735   3.023 -0.7830  0.5715  0.8141
  284SOL     OW  850   0.455   0.415   2.460 -0.3817  0.3291  0.2264
  284SOL    HW1  851   0.557   0.430   2.472 -0.0739 -1.0994  2.2086
  284SOL    HW2  852   0.399   0.419   2.545 -1.7833  1.7660 -0.7083
  285SOL     OW  853   1.895   1.428   3.090 -0.1088  0.7061 -0.4639
  285SOL    HW1  854   1.831   1.461   3.021  2.9506  2.7200  2.4108
  285SOL    HW2  855   1.988   1.441   3.054 -2.9452  4.4380  2.5056
  286SOL     OW  856   1.072   1.910   1.745 -0.7932  0.5025  0.2323
  286SOL    HW1  857   1.118   1.817   1.744  0.7916 -2.9879  0.1862
  286SOL    HW2  858   1.092   1.955   1.656 -2.8622 -0.3942  0.3416
  287SOL     OW  859   1.816   2.853   1.271 -0.2754 -0.0606 -0.5583
  287SOL    HW1  860   1.787   2.803   1.187 -0.8067 -2.1124  0.3590
  287SOL    HW2  861   1.860   2.945   1.247  2.0968 -0.0135 -0.7355
  288SOL     OW  862   0.598   2.566   2.033 -0.2280 -0.4877  0.1022
  288SOL    HW1  863   0.584   2.628   2.115  0.1903  2.8024  0.8315
  288SOL    HW2  864   0.508   2.533   1.994  1.8477  1.4283  0.0623
  289SOL     OW  865   3.036   1.821   0.778 -0.6304 -0.0674 -0.5177
  289SOL    HW1  866   2.965   1.767   0.829  2.6598 -1.7138  1.6766
  289SOL    HW2  867   2.993   1.860   0.700  2.4208 -0.2397 -1.7831
  290SOL     OW  868   0.893   2.176   1.975 -0.1788 -0.2910 -1.0362
  290SOL    HW1  869   0.854   2.085   1.959  1.0201  3.7633  0.8946
  290SOL    HW2  870   0.832   2.238   2.029  0.8699  0.2595  0.4345
  291SOL     OW  871   1.887   0.186   0.324  0.7913  0.9178  0.5569
  291SOL    HW1  872   1.868   0.271   0.379  2.7356  0.3960 -0.4739
  291SOL    HW2  873   1.852   0.193   0.227 -0.1734 -3.2729 -0.8696
  292SOL     OW  874   0.692   0.247   1.464 -0.0036  0.4166  0.0007
  292SOL    HW1  875   0.609   0.207   1.508 -1.1338  0.6319  1.4176
  292SOL    HW2  876   0.767   0.248   1.536  0.2797  1.5781  1.6403
  293SOL     OW  877   2.211   1.466   1.113 -0.2180  0.0065 -0.6775
  293SOL    HW1  878   2.306   1.447   1.140 -3.2523 -1.0147 -1.3369
  293SOL    HW2  879   2.196   1.418   1.023 -3.4799  1.6373 -0.6659
  294SOL     OW  880   0.349   0.222   2.261 -0.1158  0.2314  0.0171
  294SOL    HW1  881   0.248   0.232   2.227 -2.7456  1.3737  0.5910
  294SOL    HW2  882   0.368   0.281   2.347  0.9345  0.4538  1.1448
  295SOL     OW  883   1.028   1.408   0.300 -0.1636 -0.8874 -0.0700
  295SOL    HW1  884   1.105   1.347   0.301  0.0381  1.3917  1.3585
  295SOL    HW2  885   0.944   1.362   0.335  0.2666 -1.0534  3.5662
  296SOL     OW  886   1.978   1.182   1.172 -0.4283 -0.2651 -0.3292
  296SOL    HW1  887   1.929   1.195   1.083 -4.0942  0.0454 -0.7186
  296SOL    HW2  888   1.965   1.255   1.245 -0.5840 -2.0058  1.5680
  297SOL     OW  889   1.890   0.866   2.496  0.1285  0.0208 -0.0880
  297SOL    HW1  890   1.849   0.915   2.575  1.6904 -0.9557 -2.2753
  297SOL    HW2  891   1.909   0.923   2.414 -1.1139 -0.8920  1.8772
  298SOL     OW  892   0.892   0.498   2.685 -0.0455  0.1752 -0.0207
  298SOL    HW1  893   0.959   0.436   2.721  0.9091  0.7905  0.5642
  298SOL    HW2  894   0.943   0.560   2.613  2.8175  0.0279 -2.5927
  299SOL     OW  895   1.419   0.300   1.918 -0.0376 -0.4710 -0.5002
  299SOL    HW1  896   1.320   0.275   1.907 -4.1170  2.1545 -1.9060
  299SOL    HW2  897   1.435   0.398   1.940 -2.5346 -0.9627 -0.9104
  300SOL     OW  898   2.571   3.090   1.879 -0.0261 -0.2287  0.1193
  300SOL    HW1  899   2.519   3.064   1.794 -2.5197 -1.4822 -1.2034
  300SOL    HW2  900   2.642   0.060   1.866 -2.1164 -4.4477  1.2819
  301SOL     OW  901   1.859   0.791   1.685  0.4978  0.1041  0.0602
  301SOL    HW1  902   1.779   0.835   1.649  3.3220  0.5933 -1.7323
  301SOL    HW2  903   1.878   0.822   1.785 -0.6780  0.9968  0.0722
  302SOL     OW  904   0.625   2.763   2.430 -0.0500 -0.3834  0.2269
  302SOL    HW1  905   0.602   2.673   2.388 -1.8394 -0.7602  2.0796
  302SOL    HW2  906   0.704   2.804   2.374  0.1027 -0.9467  0.8703
  303SOL     OW  907   1.583   2.036   1.663 -0.0364  0.0391 -0.1229
  303SOL    HW1  908   1.633   2.049   1.572 -0.2540 -1.7607 -1.9553
  303SOL    HW2  909   1.514   1.961   1.658  0.5768  2.5138  0.3515
  304SOL     OW  910   0.188   2.881   0.678  0.3054 -0.4193 -0.2887
  304SOL    HW1  911   0.260   2.819   0.638 -1.5367  0.7777 -0.4910
  304SOL    HW2  912   0.114   2.823   0.716 -0.2227 -0.8171 -1.2690
  305SOL     OW  913   1.395   0.673   0.457  0.3528 -0.7660  0.0536
  305SOL    HW1  914   1.364   0.769   0.428  1.5535  3.3561  1.0656
  305SOL    HW2  915   1.407   0.675   0.561  0.6156 -1.7701  1.8484
  306SOL     OW  916   0.337   1.613   0.043  0.1335  0.3357 -0.0775
  306SOL    HW1  917   0.425   1.605   0.101  3.6838 -1.1537  0.4767
  306SOL    HW2  918   0.269   1.551   0.083 -0.6340 -1.3892  0.7345
  307SOL     OW  919   0.554   0.918   1.835 -0.0738  0.2585  0.7252
  307SOL    HW1  920   0.542   0.962   1.741  0.7413 -0.8773 -1.6243
  307SOL    HW2  921   0.585   0.821   1.825  4.2048 -0.4094  4.2695
  308SOL     OW  922   0.714   0.147   1.092 -0.2360 -0.1827 -0.2990
  308SOL    HW1  923   0.685   0.164   0.998  2.0279 -1.1808  2.9567
  308SOL    HW2  924   0.739   0.238   1.133  1.6882  0.6051 -2.0193
  309SOL     OW  925   2.110   0.696   0.006  0.1528  0.3070  0.0675
  309SOL    HW1  926   2.193   0.648   0.042 -1.1592  0.9260 -3.9339
  309SOL    HW2  927   2.128   0.798   3.097  0.9544  2.3215  0.4328
  310SOL     OW  928   1.165   1.122   0.060 -0.0191  0.0185  1.0275
  310SOL    HW1  929   1.100   1.168   3.096 -1.1635 -0.1696 -1.1064
  310SOL    HW2  930   1.183   1.182   0.141 -2.0505 -0.0340 -1.4013
  311SOL     OW  931   1.736   2.387   2.727 -0.2943  0.6159  0.0972
  311SOL    HW1  932   1.729   2.363   2.627 -1.6950 -0.6734 -0.9897
  311SOL    HW2  933   1.750   2.489   2.729 -0.5624  0.9737 -0.5010
  312SOL     OW  934   2.061   3.077   3.036 -0.4829 -0.2579 -0.3935
  312SOL    HW1  935   2.062   0.074   3.011  0.4828 -1.5015 -1.2735
  312SOL    HW2  936   1.977   3.055   3.089  0.9097  1.4227 -1.2639
  313SOL     OW  937   0.383   0.363   0.564  0.2510  0.0364 -0.2908
  313SOL    HW1  938   0.310   0.430   0.600 -1.0105  1.2077  0.1810
  313SOL    HW2  939   0.448   0.419   0.507  2.7508  0.0787 -0.3320
  314SOL     OW  940   2.518   1.455   2.848 -0.7066 -0.2258  0.5262
  314SOL    HW1  941   2.490   1.422   2.751 -0.2049 -2.9175 -3.1738
  314SOL    HW2  942   2.611   1.506   2.843  0.4622  1.0275 -0.4103
  315SOL     OW  943   1.935   0.886   1.926 -0.1331 -0.0869  0.1012
  315SOL    HW1  944   1.919   0.827   2.007  1.0054 -0.1077 -0.0729
  315SOL    HW2  945   1.917   0.980   1.951 -0.3736  0.1927 -0.3059
  316SOL     OW  946   3.078   0.876   0.884 -0.1285 -0.2955 -0.0572
  316SOL    HW1  947   2.995   0.935   0.894 -0.6761 -0.7245  3.5473
  316SOL    HW2  948   3.094   0.857   0.786 -0.7211  0.0689 -1.9507
  317SOL     OW  949   0.706   0.245   0.058  0.1846  0.4943 -0.0668
  317SOL    HW1  950   0.641   0.225   0.139  1.0527 -0.5997 -0.2026
  317SOL    HW2  951   0.689   0.175   3.083  0.8163 -3.5335  0.6927
  318SOL     OW  952   2.695   2.799   1.340  0.3545 -0.1309 -0.4478
  318SOL    HW1  953   2.719   2.699   1.314  2.0336 -4.4535 -1.9503
  318SOL    HW2  954   2.676   2.805   1.439  1.5746  0.5039  1.0986
  319SOL     OW  955   1.258   1.727   0.156 -0.1842 -0.0606  0.1955
  319SOL    HW1  956   1.208   1.810   0.121  1.3611  2.5772 -2.2287
  319SOL    HW2  957   1.244   1.722   0.258 -0.8319 -2.0217  0.7664
  320SOL     OW  958   0.543   2.193   1.070  0.0238  0.3475 -0.4260
  320SOL    HW1  959   0.522   2.158   1.167  0.3380 -1.6335  0.4903
  320SOL    HW2  960   0.456   2.238   1.035 -1.4153 -1.1686  0.9472
  321SOL     OW  961   2.099   2.399   2.458  0.4568  0.0785 -0.1652
  321SOL    HW1  962   1.996   2.411   2.463 -2.9486  1.0126 -0.1245
  321SOL    HW2  963   2.127   2.376   2.363 -1.8680 -0.2994 -0.7818
  322SOL     OW  964   2.947   2.557   2.528 -0.3630 -0.5480  0.1099
  322SOL    HW1  965   3.042   2.568   2.564  0.4649  0.3531 -1.4111
  322SOL    HW2  966   2.892   2.643   2.536  4.2675  1.0569 -1.3409
  323SOL     OW  967   2.821   0.499   0.889 -0.2863  0.1342 -0.5822
  323SOL    HW1  968   2.920   0.490   0.858  1.0128 -0.7160  1.8838
  323SOL    HW2  969   2.777   0.577   0.842  1.3032 -3.1968 -1.6444
  324SOL     OW  970   2.555   1.765   2.368 -0.3786  0.1827  0.2872
  324SOL    HW1  971   2.546   1.759   2.265 -0.8290 -0.0626 -2.3600
  324SOL    HW2  972   2.561   1.669   2.402  1.3112 -0.8198  0.6597
  325SOL     OW  973   1.628   0.495   2.288 -0.4084 -0.0011  0.3979
  325SOL    HW1  974   1.624   0.584   2.334 -0.4941  0.3036 -2.0715
  325SOL    HW2  975   1.668   0.512   2.196  0.7419  2.0335  2.1194
  326SOL     OW  976   2.729   2.188   0.576 -0.9830 -0.3243 -0.3337
  326SOL    HW1  977   2.667   2.231   0.639  0.0419  1.4861 -3.0084
  326SOL    HW2  978   2.815   2.247   0.567 -2.1526 -0.4249 -2.0024
  327SOL     OW  979   2.546   0.008   3.021  0.1694 -0.3122 -0.5925
  327SOL    HW1  980   2.470   3.051   3.050  1.4884  3.3824  1.4585
  327SOL    HW2  981   2.606   3.060   2.953  2.3568 -4.4357  1.4826
  328SOL     OW  982   0.944   0.588   0.724 -0.0855  0.3999 -0.2095
  328SOL    HW1  983   0.891   0.597   0.639  1.5952  2.0148  3.4435
  328SOL    HW2  984   1.035   0.549   0.691  3.5192  0.9079  2.2843
  329SOL     OW  985   2.122   0.792   1.598  0.0630  0.3039 -0.0897
  329SOL    HW1  986   2.029   0.767   1.642 -2.8180 -0.6333  0.0296
  329SOL    HW2  987   2.129   0.893   1.590  2.2934  0.9386  0.2214
  330SOL     OW  988   1.257   0.216   0.690 -0.3260 -0.1629  0.0639
  330SOL    HW1  989   1.237   0.318   0.701 -0.6235  0.1055  0.8479
  330SOL    HW2  990   1.327   0.206   0.618 -3.7485 -0.2138  0.1620
  331SOL     OW  991   0.561   2.029   1.911  0.1017  0.2308  0.2276
  331SOL    HW1  992   0.631   1.965   1.932 -3.0869  0.2283 -1.9840
  331SOL    HW2  993   0.544   2.107   1.974  1.4922 -0.1204  0.2137
  332SOL     OW  994   2.254   1.983   1.692 -0.2384 -0.1841  0.1284
  332SOL    HW1  995   2.265   1.906   1.757 -1.5253 -0.8865 -1.5561
  332SOL    HW2  996   2.323   1.965   1.614 -1.4264  1.4372 -1.4793
  333SOL     OW  997   2.844   3.005   0.979  0.1497  0.2525  0.0698
  333SOL    HW1  998   2.834   3.069   1.060 -1.8118  0.7541  0.1386
  333SOL    HW2  999   2.773   3.026   0.910  1.4983  0.7517 -0.4216
  334SOL     OW 1000   2.878   1.677   0.944  0.3526  0.7995  0.5980
  334SOL    HW1 1001   2.951   1.651   1.013 -0.6138  0.9314 -0.7833
  334SOL    HW2 1002   2.866   1.599   0.874 -0.5899  0.0998 -2.5369
  335SOL     OW 1003   0.433   2.918   2.594 -0.3445 -0.0864  0.1906
  335SOL    HW1 1004   0.351   2.871   2.636 -2.8339 -4.2831  3.2558
  335SOL    HW2 1005   0.492   2.862   2.527  1.5672 -1.4598  0.2875
  336SOL     OW 1006   0.220   2.717   1.541 -0.3798 -0.1952 -0.5108
  336SOL    HW1 1007   0.189   2.795   1.482  2.9810  2.5639 -2.4541
  336SOL    HW2 1008   0.201   2.718   1.646 -1.8888  2.5930  1.6142
  337SOL     OW 1009   0.964   1.966   2.327  0.1166 -0.3455  0.5269
  337SOL    HW1 1010   1.036   2.010   2.386  0.4424  2.5188  1.3642
  337SOL    HW2 1011   0.897   2.033   2.293 -2.5537  0.7431  2.8774
  338SOL     OW 1012   1.034   2.997   2.380 -0.6505 -0.2982  0.4749
  338SOL    HW1 1013   1.134   2.966   2.380  2.8958 -0.5353  0.1926
  338SOL    HW2 1014   1.007   3.018   2.476 -0.5527  2.5654  1.5550
  339SOL     OW 1015   0.038   1.442   2.910  0.0540 -0.6379 -0.2712
  339SOL    HW1 1016   3.082   1.387   2.844  1.0357  2.6044  1.1173
  339SOL    HW2 1017   0.127   1.469   2.864 -0.5734 -0.7787 -0.3830
  340SOL     OW 1018   1.970   0.489   1.293  0.4182  0.2692  0.7447
  340SOL    HW1 1019   1.990   0.505   1.194 -1.0586 -1.4910  0.4775
  340SOL    HW2 1020   2.056   0.508   1.349  3.4801  1.3043  0.7220
  341SOL     OW 1021   1.864   1.256   0.923  0.1909 -0.9086 -0.3036
  341SOL    HW1 1022   1.921   1.317   0.864 -0.8188  1.0351 -3.7156
  341SOL    HW2 1023   1.854   1.167   0.875 -0.1724  1.2263 -1.2828
  342SOL     OW 1024   2.245   2.135   2.558 -0.0386 -0.1627  0.4396
  342SOL    HW1 1025   2.251   2.076   2.476  0.4070  3.2145  0.4613
  342SOL    HW2 1026   2.264   2.234   2.533  2.4358 -0.7191 -0.4300
  343SOL     OW 1027   3.060   2.626   1.109  0.1070 -0.2441  0.1879
  343SOL    HW1 1028   3.035   2.535   1.065 -1.2694 -0.1358 -0.9239
  343SOL    HW2 1029   3.082   2.611   1.209 -0.1514  0.3441 -1.8114
  344SOL     OW 1030   2.627   2.699   0.835  0.1806 -0.1122  0.1260
  344SOL    HW1 1031   2.546   2.728   0.892  1.0404 -2.4060  2.4601
  344SOL    HW2 1032   2.719   2.726   0.862 -1.3567 -2.2991 -5.6909
  345SOL     OW 1033   2.466   2.218   0.256  0.2252 -0.6560  0.5257
  345SOL    HW1 1034   2.383   2.219   0.314  2.0276 -1.3780  0.8523
  345SOL    HW2 1035   2.529   2.285   0.300 -1.8555  2.2338  0.2178
  346SOL     OW 1036   1.146   2.096   1.930  0.1127  0.3492  0.3344
  346SOL    HW1 1037   1.058   2.138   1.955 -1.6638  1.8193  0.0218
  346SOL    HW2 1038   1.140   2.013   1.863 -2.0108 -3.4600 -2.5879
  347SOL     OW 1039   1.581   2.026   2.328 -0.1346  0.1365  0.4274
  347SOL    HW1 1040   1.615   2.094   2.393 -1.0168 -1.6879 -1.5292
  347SOL    HW2 1041   1.537   2.077   2.248 -0.6518  2.5044 -0.0729
  348SOL     OW 1042   0.314   1.970   1.316  0.0976 -0.6395  0.1032
  348SOL    HW1 1043   0.246   1.938   1.246 -2.7215 -1.1502  0.0718
  348SOL    HW2 1044   0.401   1.998   1.270  2.3986  0.2717 -1.7118
  349SOL     OW 1045   1.650   1.349   1.552 -0.2175 -0.2198 -0.0677
  349SOL    HW1 1046   1.658   1.453   1.579  1.5420  0.8717  1.0937
  349SOL    HW2 1047   1.556   1.337   1.507 -0.0081  2.1713  0.5789
  350SOL     OW 1048   2.267   2.194   0.686  0.2236 -0.3051 -0.0040
  350SOL    HW1 1049   2.233   2.173   0.780 -1.4624  0.0829  1.9233
  350SOL    HW2 1050   2.276   2.293   0.675 -1.1653 -1.0378  1.7554
  351SOL     OW 1051   0.478   0.090   1.620  0.2485 -0.2870  0.3502
  351SOL    HW1 1052   0.520   0.112   1.708 -0.3529  2.3005 -3.3857
  351SOL    HW2 1053   0.390   0.138   1.610  0.0574  0.0586  0.9103
  352SOL     OW 1054   0.646   1.142   0.331 -0.4889  0.1011 -0.1055
  352SOL    HW1 1055   0.588   1.226   0.333  0.7879 -1.0002 -1.9553
  352SOL    HW2 1056   0.645   1.095   0.242 -0.7360  0.0501  3.6062
  353SOL     OW 1057   0.742   1.557   2.844 -0.4788  0.0615  0.1217
  353SOL    HW1 1058   0.819   1.620   2.807  2.3039  1.9044  0.3566
  353SOL    HW2 1059   0.736   1.484   2.772  2.7337  0.8407  1.0509
  354SOL     OW 1060   1.781   2.424   1.876 -0.4906 -0.1425 -0.1346
  354SOL    HW1 1061   1.802   2.520   1.848 -1.1160 -1.6666 -0.5330
  354SOL    HW2 1062   1.863   2.380   1.919  0.0896 -3.1762 -0.2844
  355SOL     OW 1063   2.077   0.810   2.783 -0.7519 -0.7849 -0.4260
  355SOL    HW1 1064   2.140   0.731   2.796  0.1598  3.9472 -1.2485
  355SOL    HW2 1065   2.097   0.854   2.695  0.0963  0.7160  0.5114
  356SOL     OW 1066   0.515   2.161   1.356 -0.3442 -0.2958 -0.4498
  356SOL    HW1 1067   0.598   2.183   1.406 -0.4837 -1.3392  1.5463
  356SOL    HW2 1068   0.433   2.211   1.393  0.2017  1.9219 -1.7209
  357SOL     OW 1069   0.211   0.209   1.664  0.2968 -0.7262 -0.2567
  357SOL    HW1 1070   0.197   0.175   1.761 -1.5104  1.6929 -0.5743
  357SOL    HW2 1071   0.228   0.311   1.661 -2.1146  2.3135 -3.3746
  358SOL     OW 1072   2.467   1.956   1.498  0.0777 -0.2710  0.0244
  358SOL    HW1 1073   2.471   1.890   1.425  0.2630  4.5603  0.8124
  358SOL    HW2 1074   2.502   2.043   1.458 -0.2361 -2.8465 -2.2050
  359SOL     OW 1075   2.151   1.999   2.260 -0.1908  0.0676  0.1268
  359SOL    HW1 1076   2.052   1.998   2.257  2.1892  1.5023  1.1840
  359SOL    HW2 1077   2.187   2.046   2.175  2.0672  2.5803 -0.6447
  360SOL     OW 1078   1.337   2.649   0.875  0.5817  0.2775 -0.0818
  360SOL    HW1 1079   1.291   2.686   0.961 -0.5295  1.2602  1.5878
  360SOL    HW2 1080   1.361   2.730   0.812 -0.5107 -0.8232 -0.0776
  361SOL     OW 1081   2.058   2.902   0.218 -0.3225  0.5144  0.4995
  361SOL    HW1 1082   1.971   2.920   0.268 -1.3912  1.3528 -1.1717
  361SOL    HW2 1083   2.131   2.880   0.284 -0.8939 -0.6717 -0.8911
  362SOL     OW 1084   1.872   0.745   1.381 -0.0942 -0.0752 -0.1645
  362SOL    HW1 1085   1.942   0.775   1.457  2.6033  2.9072  1.8929
  362SOL    HW2 1086   1.908   0.662   1.336 -0.8417  0.7444  1.2028
  363SOL     OW 1087   1.768   1.577   2.171  0.3056 -0.5083 -0.6608
  363SOL    HW1 1088   1.688   1.573   2.230  0.9835 -0.2118 -2.1939
  363SOL    HW2 1089   1.852   1.601   2.228  1.6342  2.9549  2.9432
  364SOL     OW 1090   0.593   0.515   1.467  0.1446 -0.4166 -0.4823
  364SOL    HW1 1091   0.610   0.417   1.453 -0.2135  1.7163 -0.2852
  364SOL    HW2 1092   0.577   0.562   1.379 -0.5324  0.4978 -2.0993
  365SOL     OW 1093   0.852   0.770   2.831  0.1971  0.0801 -0.1319
  365SOL    HW1 1094   0.828   0.680   2.790  1.4948 -0.5387  1.5742
  365SOL    HW2 1095   0.904   0.830   2.769  0.3847 -0.0995 -0.4016
  366SOL     OW 1096   2.289   1.216   2.771  0.1783 -0.1049  0.3025
  366SOL    HW1 1097   2.316   1.158   2.852  0.1759  1.1367  0.9496
  366SOL    HW2 1098   2.188   1.234   2.765 -2.4187  1.5961 -3.7977
  367SOL     OW 1099   3.023   2.650   2.256 -0.3412  0.5217 -0.3680
  367SOL    HW1 1100   3.007   2.610   2.346  0.0708  1.0467 -1.8624
  367SOL    HW2 1101   3.017   2.748   2.258  1.3843  0.6515  0.2631
  368SOL     OW 1102   3.056   1.214   1.361 -0.7269 -0.3085  0.1772
  368SOL    HW1 1103   3.056   1.257   1.454 -0.9398 -1.5599  1.7976
  368SOL    HW2 1104   2.960   1.190   1.330 -2.1940 -0.1035  0.7900
  369SOL     OW 1105   0.518   2.895   2.110 -0.7706  0.1593 -0.1323
  369SOL    HW1 1106   0.550   2.892   2.013  0.5584  0.3408 -0.3593
  369SOL    HW2 1107   0.554   2.976   2.159  3.6393 -0.0207  1.4291
  370SOL     OW 1108   2.761   0.306   0.422 -0.1720  0.5240 -1.1100
  370SOL    HW1 1109   2.711   0.354   0.352  3.1367 -0.5950  0.0850
  370SOL    HW2 1110   2.698   0.249   0.482  1.4623  1.2152 -0.6698
  371SOL     OW 1111   0.765   2.247   1.458  0.8442  0.2526 -0.4593
  371SOL    HW1 1112   0.869   2.252   1.455  0.1046  0.0515 -0.5018
  371SOL    HW2 1113   0.744   2.277   1.548  2.3292 -0.1326 -1.6488
  372SOL     OW 1114   2.193   0.316   2.358  0.2326  0.4591  0.3072
  372SOL    HW1 1115   2.243   0.387   2.414  4.2814 -0.0263  0.4070
  372SOL    HW2 1116   2.104   0.293   2.400 -2.7424 -0.7188  1.1838
  373SOL     OW 1117   0.084   2.234   0.707 -0.5239 -0.3398 -0.0707
  373SOL    HW1 1118   0.101   2.322   0.755  0.6845 -0.7081 -2.1895
  373SOL    HW2 1119   0.039   2.163   0.768 -0.2887  2.3982  1.3947
  374SOL     OW 1120   2.962   0.260   2.218 -0.3465  0.0451  0.5194
  374SOL    HW1 1121   2.863   0.253   2.245 -0.0092  1.8819  0.4123
  374SOL    HW2 1122   3.012   0.316   2.285 -1.2038 -2.6697 -1.6616
  375SOL     OW 1123   0.630   0.537   2.770  0.3526 -0.4275 -0.0720
  375SOL    HW1 1124   0.572   0.463   2.801  2.5942  0.4233 -0.0316
  375SOL    HW2 1125   0.726   0.507   2.740  3.5255  2.7268  0.0210
  376SOL     OW 1126   2.948   2.307   1.738 -0.0370 -0.1935 -0.0562
  376SOL    HW1 1127   3.017   2.319   1.662  1.7809  0.9384  0.4895
  376SOL    HW2 1128   2.852   2.306   1.697 -0.5806 -0.1627 -0.7523
  377SOL     OW 1129   1.092   0.328   2.741 -0.1458 -0.2164  0.3462
  377SOL    HW1 1130   1.120   0.243   2.686  2.0865 -0.7914 -2.4824
  377SOL    HW2 1131   1.177   0.360   2.792  4.6369  1.7402  3.2533
  378SOL     OW 1132   0.002   0.976   2.872  1.0523 -0.3304  0.2588
  378SOL    HW1 1133   0.102   0.982   2.850  0.6242  1.7441  1.4131
  378SOL    HW2 1134   3.047   0.907   2.814 -0.2108 -2.2776 -1.3602
  379SOL     OW 1135   1.217   0.791   2.765  0.0880 -0.0252  0.1757
  379SOL    HW1 1136   1.146   0.824   2.699  1.0465  0.5340  1.1630
  379SOL    HW2 1137   1.273   0.867   2.794 -1.9886  0.7768  0.5382
  380SOL     OW 1138   0.180   1.943   1.742  0.7568 -0.0874 -0.0535
  380SOL    HW1 1139   0.208   2.032   1.771 -2.3410 -2.9070 -0.2614
  380SOL    HW2 1140   0.082   1.946   1.712  0.3466  3.3372 -2.0438
  381SOL     OW 1141   3.009   1.222   2.733  0.1867  1.0456 -0.0920
  381SOL    HW1 1142   3.083   1.214   2.667 -0.4247 -0.4233  1.1944
  381SOL    HW2 1143   2.992   1.135   2.782 -1.0240 -3.3358 -0.3992
  382SOL     OW 1144   1.934   2.285   0.694 -0.4150  0.1462 -0.4556
  382SOL    HW1 1145   1.852   2.245   0.643  2.3182 -0.7068 -2.2613
  382SOL    HW2 1146   1.942   2.253   0.790  0.1195  2.0935  0.8411
  383SOL     OW 1147   0.550   1.620   0.220 -0.2068 -0.0999 -0.1653
  383SOL    HW1 1148   0.642   1.624   0.174  0.2177  2.6642 -2.1296
  383SOL    HW2 1149   0.558   1.577   0.316  1.4745 -2.4701  0.5336
  384SOL     OW 1150   0.801   2.462   2.461  0.4913 -0.0858  0.4688
  384SOL    HW1 1151   0.703   2.465   2.446  2.0301  0.8771 -0.0574
  384SOL    HW2 1152   0.840   2.386   2.514  0.8245  0.8723 -0.2069
  385SOL     OW 1153   2.367   1.931   0.592 -0.2367 -0.7188 -0.3093
  385SOL    HW1 1154   2.326   2.012   0.635  0.2081 -0.1907 -2.0305
  385SOL    HW2 1155   2.438   1.963   0.526  1.8710  1.3064  0.0117
  386SOL     OW 1156   2.338   0.575   0.914 -0.5631  0.7802  0.4421
  386SOL    HW1 1157   2.293   0.479   0.931  0.7271 -2.3577  0.8346
  386SOL    HW2 1158   2.282   0.640   0.860  2.0952  0.9643 -0.0634
  387SOL     OW 1159   0.738   0.972   2.029 -0.2265 -0.0013 -0.7121
  387SOL    HW1 1160   0.706   1.021   2.113  1.0930  1.1938 -1.1673
  387SOL    HW2 1161   0.655   0.944   1.975 -0.4795  2.1445  1.8188
  388SOL     OW 1162   0.927   1.489   2.322  0.1863  0.1153  0.2647
  388SOL    HW1 1163   0.911   1.571   2.373 -0.4950 -0.4906 -0.1113
  388SOL    HW2 1164   0.850   1.468   2.260  2.3273  0.5338  2.6772
  389SOL     OW 1165   1.026   1.227   1.771 -0.1926 -0.3452 -0.6940
  389SOL    HW1 1166   0.983   1.131   1.777  0.3660 -0.4447 -0.5364
  389SOL    HW2 1167   0.989   1.284   1.695  1.6931  1.2008 -0.0866
  390SOL     OW 1168   3.095   3.085   1.067 -0.3837 -0.4723 -0.3762
  390SOL    HW1 1169   3.007   3.053   1.037 -0.0414  1.7229 -0.6216
  390SOL    HW2 1170   0.031   0.056   1.010 -3.2911  0.7360 -0.0038
  391SOL     OW 1171   1.557   1.291   1.070 -0.4301 -0.0596  0.0659
  391SOL    HW1 1172   1.527   1.282   0.971  0.3570  1.8036 -0.1592
  391SOL    HW2 1173   1.636   1.356   1.067 -0.1136  1.4517  0.7142
  392SOL     OW 1174   2.857   3.068   0.125 -0.5292  0.1825  0.0721
  392SOL    HW1 1175   2.938   3.022   0.082  0.5581 -4.3241 -1.8348
  392SOL    HW2 1176   2.785   2.999   0.130  1.2593  2.0119 -0.1532
  393SOL     OW 1177   1.540   2.163   2.995 -0.0135  0.2013 -0.4020
  393SOL    HW1 1178   1.571   2.066   2.983  0.3295  0.9431  0.2043
  393SOL    HW2 1179   1.446   2.173   3.039  0.3185  1.0086 -0.6122
  394SOL     OW 1180   0.035   2.477   2.775  0.1796 -0.0814 -0.5259
  394SOL    HW1 1181   0.099   2.483   2.691 -1.7170 -2.0168 -1.3213
  394SOL    HW2 1182   3.091   2.383   2.783 -0.4995 -3.9965  2.2669
  395SOL     OW 1183   0.155   0.159   0.960 -0.0053 -0.1122  0.4231
  395SOL    HW1 1184   0.223   0.225   0.996  1.0496 -3.1401  1.1777
  395SOL    HW2 1185   0.217   0.106   0.898 -0.3686  2.4029  0.3338
  396SOL     OW 1186   2.263   0.677   0.392  0.1814  0.0437  0.0386
  396SOL    HW1 1187   2.186   0.615   0.379  0.7856  1.3972  2.8090
  396SOL    HW2 1188   2.355   0.643   0.371  1.8923  0.0172  1.4019
  397SOL     OW 1189   0.133   0.663   2.512 -0.1274 -0.1610  0.1928
  397SOL    HW1 1190   0.144   0.668   2.618  1.8114  2.1841  1.9526
  397SOL    HW2 1191   0.099   0.754   2.478 -2.6357 -2.0538 -0.4079
  398SOL     OW 1192   0.661   0.068   2.938 -0.2467 -0.5266  0.7173
  398SOL    HW1 1193   0.596   0.043   2.859  0.2052 -0.7603 -1.2106
  398SOL    HW2 1194   0.750   0.108   2.902  1.2304 -2.8867 -1.7655
  399SOL     OW 1195   2.154   0.312   2.020  0.1927  0.5189 -0.3961
  399SOL    HW1 1196   2.124   0.238   2.078 -0.0998 -1.1372 -0.6922
  399SOL    HW2 1197   2.095   0.326   1.938 -2.1312 -1.2250  2.0808
  400SOL     OW 1198   1.004   2.191   2.883  0.4094 -0.1367  0.3112
  400SOL    HW1 1199   1.065   2.230   2.808 -0.5658 -0.8734 -0.7037
  400SOL    HW2 1200   0.962   2.266   2.933 -1.4020 -3.2132 -3.7089
  401SOL     OW 1201   0.370   1.189   2.444  0.6072 -0.5567  0.3600
  401SOL    HW1 1202   0.376   1.186   2.341 -1.9421  1.9334  0.7274
  401SOL    HW2 1203   0.286   1.243   2.472 -1.0608  2.7387  0.1995
  402SOL     OW 1204   0.080   0.015   0.244  0.6509 -0.6340 -0.4152
  402SOL    HW1 1205   0.081   3.041   0.313 -2.5745 -0.4660 -0.7166
  402SOL    HW2 1206   3.101   0.073   0.261 -2.9246  0.4207 -1.1847
  403SOL     OW 1207   0.412   1.245   1.585 -0.5544 -0.1709 -0.2598
  403SOL    HW1 1208   0.486   1.171   1.587  1.4489 -0.1572  0.2803
  403SOL    HW2 1209   0.331   1.222   1.522 -4.2803  1.0594 -0.9453
  404SOL     OW 1210   2.263   2.526   2.638  0.1525  0.2052 -0.7137
  404SOL    HW1 1211   2.217   2.597   2.691  0.6347  0.5828 -0.9517
  404SOL    HW2 1212   2.198   2.487   2.572  0.6389 -0.6019  2.4797
  405SOL     OW 1213   0.116   0.478   1.966  1.0914  0.0961 -0.3782
  405SOL    HW1 1214   0.137   0.399   2.023 -0.0065  3.3796  0.3131
  405SOL    HW2 1215   0.179   0.479   1.887  2.7517  0.2023 -0.5588
  406SOL     OW 1216   1.199   1.386   2.837  0.2816 -0.3310  0.0447
  406SOL    HW1 1217   1.292   1.406   2.797 -0.4413  0.8675  2.8529
  406SOL    HW2 1218   1.202   1.426   2.933 -0.7647  0.2673  0.8499
  407SOL     OW 1219   1.881   0.604   2.435 -0.3807 -0.4996  0.1741
  407SOL    HW1 1220   1.928   0.691   2.454  2.6023 -2.0692  1.8860
  407SOL    HW2 1221   1.833   0.600   2.345 -0.1855  0.0548 -0.0455
  408SOL     OW 1222   0.390   2.678   2.221 -0.0491 -0.7488  0.2585
  408SOL    HW1 1223   0.289   2.688   2.214  0.3723  0.1416 -3.1853
  408SOL    HW2 1224   0.438   2.768   2.194  0.3517  1.7696 -0.6085
  409SOL     OW 1225   3.100   2.589   1.359  0.1970 -0.2921 -0.0703
  409SOL    HW1 1226   0.042   2.681   1.376  1.0470 -1.4182  1.1913
  409SOL    HW2 1227   3.016   2.568   1.416 -0.7862 -2.0578  0.7883
  410SOL     OW 1228   2.869   1.722   0.308 -0.3003 -0.0640 -0.3195
  410SOL    HW1 1229   2.927   1.803   0.329 -1.2252 -0.5084 -0.0791
  410SOL    HW2 1230   2.922   1.633   0.304  0.4301 -2.0838  0.0158
  411SOL     OW 1231   2.438   0.072   1.432  0.2323 -0.7146 -0.1356
  411SOL    HW1 1232   2.354   0.041   1.383 -1.4444  2.3720  3.3936
  411SOL    HW2 1233   2.452   0.011   1.514  0.7921 -1.2641  1.9491
  412SOL     OW 1234   2.292   0.282   1.569 -0.6408 -0.4198  0.0150
  412SOL    HW1 1235   2.353   0.222   1.518 -4.0987 -0.0987 -2.6838
  412SOL    HW2 1236   2.196   0.280   1.534 -0.3464 -2.2024 -0.4061
  413SOL     OW 1237   3.092   0.387   2.438  0.9788  0.3357  0.4127
  413SOL    HW1 1238   0.040   0.472   2.437 -1.1621  1.0012  0.8712
  413SOL    HW2 1239   0.025   0.320   2.507 -0.5964  0.9099 -1.2524
  414SOL     OW 1240   2.652   1.386   0.152 -0.7014  0.3973 -0.0736
  414SOL    HW1 1241   2.560   1.381   0.109  0.0617  2.3837  1.1862
  414SOL    HW2 1242   2.649   1.367   0.250 -2.0921  0.9877 -2.5714
  415SOL     OW 1243   0.779   2.462   0.174 -0.6352 -0.3591  0.5509
  415SOL    HW1 1244   0.857   2.532   0.171  1.6579  0.5903  1.5069
  415SOL    HW2 1245   0.795   2.388   0.243  0.1660  2.3359 -0.2486
  416SOL     OW 1246   1.368   2.831   2.657 -0.3819 -0.0745  0.3135
  416SOL    HW1 1247   1.317   2.746   2.692 -1.7918 -4.6999  0.2786
  416SOL    HW2 1248   1.462   2.826   2.694  0.3163  1.4953 -1.5547
  417SOL     OW 1249   0.287   0.922   1.295 -0.2207 -1.0905  0.3883
  417SOL    HW1 1250   0.251   0.907   1.200 -0.1263  0.0143  0.9217
  417SOL    HW2 1251   0.388   0.925   1.296 -1.0367 -0.3711 -1.4588
  418SOL     OW 1252   2.608   0.045   0.835  0.0323 -0.1186 -0.4497
  418SOL    HW1 1253   2.517   0.004   0.834 -2.4494  4.1161  2.6782
  418SOL    HW2 1254   2.610   0.137   0.880  1.4060  2.8356  0.9394
  419SOL     OW 1255   0.323   3.095   0.110  0.3866  0.1814  0.1756
  419SOL    HW1 1256   0.239   0.002   0.164  2.3860 -2.4473 -0.8932
  419SOL    HW2 1257   0.406   3.100   0.170  0.0021 -1.3434  0.7869
  420SOL     OW 1258   0.226   1.151   1.437  0.2035 -0.7936  0.6263
  420SOL    HW1 1259   0.268   1.068   1.404  1.7032  0.8036  0.2646
  420SOL    HW2 1260   0.138   1.169   1.388 -1.2003  0.4469 -1.2546
  421SOL     OW 1261   1.785   2.643   0.728 -0.3660 -0.1039 -0.2280
  421SOL    HW1 1262   1.837   2.569   0.682  1.2093 -1.3143 -0.5155
  421SOL    HW2 1263   1.707   2.597   0.774  0.9855 -0.4711  0.3303
  422SOL     OW 1264   0.246   0.435   1.438 -0.3038 -0.1598 -0.2271
  422SOL    HW1 1265   0.311   0.362   1.414 -1.0230  0.4293 -1.6408
  422SOL    HW2 1266   0.205   0.476   1.358  1.3509 -1.9073  2.4345
  423SOL     OW 1267   1.102   1.348   1.995 -0.3934  0.1080  0.0970
  423SOL    HW1 1268   1.071   1.301   1.908 -0.5223 -0.0265  1.4549
  423SOL    HW2 1269   1.105   1.452   1.989 -0.7111  1.5574  0.5022
  424SOL     OW 1270   1.755   2.110   0.569  0.4567 -0.0279 -0.5765
  424SOL    HW1 1271   1.772   2.063   0.480 -0.7059  1.8295  0.8287
  424SOL    HW2 1272   1.717   2.058   0.643 -1.2163  0.6830 -2.1607
  425SOL     OW 1273   2.979   2.924   2.045 -0.7042  0.4819  0.5630
  425SOL    HW1 1274   2.887   2.947   2.077  3.1026  0.3516 -0.3920
  425SOL    HW2 1275   2.992   2.963   1.948  1.4112 -0.4474 -1.4264
  426SOL     OW 1276   0.211   2.821   2.775 -0.2339 -0.0457  0.4157
  426SOL    HW1 1277   0.225   2.884   2.856  0.6196  0.9131  4.0031
  426SOL    HW2 1278   0.131   2.851   2.722  3.2493 -1.0793  1.5130
  427SOL     OW 1279   0.995   3.013   0.168  0.1537  0.5457  0.2806
  427SOL    HW1 1280   0.955   3.080   0.235 -0.3081  1.4281  0.9938
  427SOL    HW2 1281   0.954   3.028   0.074 -0.8721  0.5073  0.8377
  428SOL     OW 1282   2.797   0.481   1.521  0.1522 -0.5392  0.1028
  428SOL    HW1 1283   2.814   0.383   1.551 -2.5029  1.2496 -0.7187
  428SOL    HW2 1284   2.716   0.480   1.460 -0.3247 -1.2814  1.8037
  429SOL     OW 1285   2.076   2.946   0.604  0.3441 -0.2535  0.1311
  429SOL    HW1 1286   2.067   2.858   0.550  1.3100 -3.0537  1.8115
  429SOL    HW2 1287   2.180   2.969   0.605  1.7525  0.6636 -2.8581
  430SOL     OW 1288   1.016   1.398   2.632  0.2143  0.5469 -0.0650
  430SOL    HW1 1289   1.082   1.407   2.709 -1.0492 -1.0205 -0.3966
  430SOL    HW2 1290   1.047   1.450   2.550  2.2255 -4.2791  1.1846
  431SOL     OW 1291   2.814   2.269   1.242  0.2155  0.3261 -0.2251
  431SOL    HW1 1292   2.911   2.265   1.233  0.1127  1.4279  1.6531
  431SOL    HW2 1293   2.759   2.218   1.171 -3.4129 -0.2972  0.5027
  432SOL     OW 1294   1.527   2.415   2.868  0.1605 -0.2313  0.0352
  432SOL    HW1 1295   1.607   2.402   2.802  0.5045  2.5965  0.5252
  432SOL    HW2 1296   1.510   2.337   2.929  3.8806 -1.4973  0.2668
  433SOL     OW 1297   1.251   0.506   2.468 -0.1089  0.0925 -0.5649
  433SOL    HW1 1298   1.169   0.550   2.501  1.8953  1.1704  0.2103
  433SOL    HW2 1299   1.328   0.523   2.528  1.2704  2.2275 -2.8326
  434SOL     OW 1300   1.277   2.823   2.197 -0.6386 -0.2075 -0.3431
  434SOL    HW1 1301   1.303   2.875   2.282  3.9190 -1.4232  0.2804
  434SOL    HW2 1302   1.357   2.799   2.139 -1.8600 -0.6491  1.0784
  435SOL     OW 1303   0.290   0.130   2.941  0.0847 -0.0118 -0.3811
  435SOL    HW1 1304   0.308   0.091   3.035 -1.4715  2.0548  3.3433
  435SOL    HW2 1305   0.190   0.160   2.929 -0.8006  0.2753  0.7847
  436SOL     OW 1306   0.631   1.274   2.449 -0.5383 -0.1144 -0.3773
  436SOL    HW1 1307   0.531   1.259   2.463  3.1542 -1.2234 -1.5171
  436SOL    HW2 1308   0.651   1.320   2.361  0.2863  2.1568  1.2670
  437SOL     OW 1309   1.200   2.510   2.528  0.1882 -0.0689 -0.2407
  437SOL    HW1 1310   1.243   2.490   2.439 -2.2032  1.5941  2.5377
  437SOL    HW2 1311   1.136   2.595   2.524  1.4735  0.9818  3.5461
  438SOL     OW 1312   0.584   0.834   0.639  0.1874 -0.0506 -0.3574
  438SOL    HW1 1313   0.538   0.755   0.689  1.3686 -3.3981  0.6537
  438SOL    HW2 1314   0.670   0.796   0.596 -1.1747 -1.9352 -1.5689
  439SOL     OW 1315   3.003   1.539   2.083  0.1278 -0.3364  0.0584
  439SOL    HW1 1316   2.969   1.482   2.157  0.4234 -1.5344  2.2743
  439SOL    HW2 1317   2.970   1.637   2.092 -2.1550  1.6714  0.1377
  440SOL     OW 1318   2.914   0.783   2.763 -0.1253  0.0545  0.1226
  440SOL    HW1 1319   2.875   0.735   2.686  3.5957  0.8079  3.8941
  440SOL    HW2 1320   2.847   0.853   2.800  0.0512  1.6079 -0.8634
  441SOL     OW 1321   0.574   1.789   1.484 -0.2699 -0.3146 -0.3579
  441SOL    HW1 1322   0.476   1.779   1.508 -1.0192  0.9793  1.2389
  441SOL    HW2 1323   0.631   1.839   1.553  0.0395 -2.2635  0.2189
  442SOL     OW 1324   1.975   1.426   0.745  0.7625  0.1329 -0.2319
  442SOL    HW1 1325   1.999   1.396   0.651 -2.5522 -2.2776 -1.4367
  442SOL    HW2 1326   1.887   1.480   0.744  2.3441 -0.8191 -3.0803
  443SOL     OW 1327   2.475   1.854   2.999 -0.6019  0.1389  0.5231
  443SOL    HW1 1328   2.450   1.769   2.949  1.9291 -0.7565  0.4178
  443SOL    HW2 1329   2.559   1.895   2.955  2.1049  0.6760 -1.8024
  444SOL     OW 1330   1.687   1.415   2.918 -0.2494  0.4590  0.2656
  444SOL    HW1 1331   1.638   1.503   2.946  1.9251  0.0499 -2.0477
  444SOL    HW2 1332   1.736   1.432   2.830  1.7483 -0.5125 -0.9507
  445SOL     OW 1333   0.495   2.250   2.059  0.0723  0.4804 -0.3227
  445SOL    HW1 1334   0.582   2.293   2.082 -0.1704 -0.5602  2.0546
  445SOL    HW2 1335   0.426   2.297   2.117 -1.0964 -0.6823 -3.6064
  446SOL     OW 1336   0.960   0.980   1.852  0.3131 -0.2266 -0.2840
  446SOL    HW1 1337   1.044   0.922   1.864 -0.6644 -2.5186  0.0880
  446SOL    HW2 1338   0.887   0.964   1.920 -0.6883  1.9338 -3.4734
  447SOL     OW 1339   0.800   0.731   0.511  0.6875  0.8273  0.4083
  447SOL    HW1 1340   0.789   0.650   0.449 -1.3532  0.9137  0.8889
  447SOL    HW2 1341   0.873   0.790   0.483 -0.5786  1.2794 -0.1901
  448SOL     OW 1342   1.426   1.082   2.028 -0.5177 -0.0083  0.0001
  448SOL    HW1 1343   1.361   1.124   1.960  0.8597  1.6589  0.4664
  448SOL    HW2 1344   1.516   1.063   1.981 -1.5383  1.6046 -0.2603
  449SOL     OW 1345   0.244   1.667   2.344  0.1343  0.1169  0.0394
  449SOL    HW1 1346   0.182   1.669   2.427  0.3316  0.6087 -0.9780
  449SOL    HW2 1347   0.249   1.754   2.290  0.5136 -3.4401  1.9611
  450SOL     OW 1348   2.206   1.452   1.969 -0.1923 -0.0616  0.7123
  450SOL    HW1 1349   2.220   1.528   2.043  1.3224  1.6537  1.0158
  450SOL    HW2 1350   2.298   1.423   1.932  0.4434 -0.7809 -2.0402
  451SOL     OW 1351   2.454   1.542   1.444 -0.2730 -0.0402  0.5391
  451SOL    HW1 1352   2.502   1.468   1.490 -0.5686  1.5783  0.1041
  451SOL    HW2 1353   2.434   1.513   1.354 -0.3572  0.7335  1.4754
  452SOL     OW 1354   0.855   0.973   1.326  0.8069 -0.1531 -0.4004
  452SOL    HW1 1355   0.831   0.966   1.423 -0.0762 -1.1501  0.1614
  452SOL    HW2 1356   0.955   0.964   1.313 -1.4341 -2.4361  0.2291
  453SOL     OW 1357   0.273   1.963   1.043 -0.4180 -0.0113 -0.4474
  453SOL    HW1 1358   0.173   1.961   1.048  1.1948  2.6957  2.5347
  453SOL    HW2 1359   0.296   2.009   0.955  0.0025 -3.9755  1.5657
  454SOL     OW 1360   1.256   1.274   0.275  0.1270 -0.6394 -0.5871
  454SOL    HW1 1361   1.329   1.298   0.211  0.0326 -0.4008  4.2752
  454SOL    HW2 1362   1.292   1.258   0.368  0.8292 -0.4551  1.1523
  455SOL     OW 1363   1.804   0.484   0.826  0.1027 -0.3695  0.5908
  455SOL    HW1 1364   1.843   0.393   0.800  0.7619 -0.1545  2.2081
  455SOL    HW2 1365   1.841   0.564   0.770  2.4008  0.7205 -2.5438
  456SOL     OW 1366   1.803   2.925   0.340  0.5141  0.2175  0.1336
  456SOL    HW1 1367   1.743   2.847   0.352  1.8799  0.0764 -0.5844
  456SOL    HW2 1368   1.765   2.992   0.270  0.9132  0.5568 -2.5210
  457SOL     OW 1369   2.201   1.195   2.075 -0.1118  0.1682 -0.0245
  457SOL    HW1 1370   2.173   1.290   2.048  2.6577 -1.1158  1.2007
  457SOL    HW2 1371   2.219   1.189   2.174  0.6955 -0.9213  1.6172
  458SOL     OW 1372   2.591   0.521   2.336 -0.4217  0.2172  0.3993
  458SOL    HW1 1373   2.539   0.545   2.417 -3.4206 -1.6231  1.2798
  458SOL    HW2 1374   2.646   0.603   2.315 -1.1902  1.1866  1.6168
  459SOL     OW 1375   2.596   1.494   2.388 -0.0520  0.4237  0.0258
  459SOL    HW1 1376   2.639   1.465   2.299  1.0900 -0.5728 -0.3132
  459SOL    HW2 1377   2.542   1.423   2.422  0.2659 -0.3916 -0.6552
  460SOL     OW 1378   0.979   0.887   2.589 -0.5529 -0.3070  0.4019
  460SOL    HW1 1379   0.982   0.925   2.493  1.0400 -0.6067  1.5192
  460SOL    HW2 1380   0.959   0.967   2.657 -1.5989  1.7116  4.1757
  461SOL     OW 1381   0.123   2.303   0.259  0.6710  0.0335 -0.6479
  461SOL    HW1 1382   0.191   2.377   0.271 -3.2234 -2.3098 -2.5591
  461SOL    HW2 1383   0.031   2.335   0.220 -1.1540  2.1318 -0.6228
  462SOL     OW 1384   1.321   2.951   2.424 -0.0421 -0.4040 -0.1102
  462SOL    HW1 1385   1.345   2.877   2.490 -1.9702 -2.3666 -1.3066
  462SOL    HW2 1386   1.392   3.028   2.429  2.3243  1.5796  1.5865
  463SOL     OW 1387   1.970   2.278   1.982  0.2452  0.0564  0.1538
  463SOL    HW1 1388   1.936   2.190   2.027  1.9097  1.0604  0.9769
  463SOL    HW2 1389   2.027   2.262   1.899  0.1829 -0.2731  0.4280
  464SOL     OW 1390   2.555   2.407   0.784  0.0165  0.4268  0.4194
  464SOL    HW1 1391   2.454   2.394   0.794  0.9264 -2.0048  0.5486
  464SOL    HW2 1392   2.587   2.502   0.799  1.5769 -1.4191 -0.9585
  465SOL     OW 1393   0.034   0.142   1.449 -0.0781 -0.5625 -0.4936
  465SOL    HW1 1394   0.073   0.076   1.381  0.6216 -2.6173  1.8250
  465SOL    HW2 1395   0.103   0.204   1.495 -0.3856  2.5185  1.3407
  466SOL     OW 1396   1.355   2.577   2.766 -0.0753 -0.0455 -0.0364
  466SOL    HW1 1397   1.422   2.509   2.808  0.7422  0.0659  0.8011
  466SOL    HW2 1398   1.304   2.533   2.687 -0.3963 -0.5009  1.5516
  467SOL     OW 1399   2.969   2.133   0.227 -0.1000 -0.2759  0.8274
  467SOL    HW1 1400   2.932   2.084   0.144  0.1787  1.9727 -4.0667
  467SOL    HW2 1401   2.962   2.234   0.216  2.1210 -0.5482 -1.9939
  468SOL     OW 1402   2.219   2.147   2.830  0.6499 -0.6260 -0.2694
  468SOL    HW1 1403   2.179   2.135   2.738 -0.9472 -2.0017 -0.2142
  468SOL    HW2 1404   2.211   2.061   2.881 -1.2325 -0.2741  1.3564
  469SOL     OW 1405   0.771   1.882   0.748 -0.2988  0.3714 -0.4091
  469SOL    HW1 1406   0.737   1.940   0.827  0.3125 -1.5410 -0.7013
  469SOL    HW2 1407   0.825   1.939   0.680  1.0711  1.6219  0.2295
  470SOL     OW 1408   1.939   0.694   0.715 -0.0483 -0.1867 -0.2817
  470SOL    HW1 1409   2.040   0.720   0.703  5.3217  0.1839  1.7482
  470SOL    HW2 1410   1.911   0.742   0.803 -2.0935  3.1062  0.7848
  471SOL     OW 1411   0.278   1.910   0.487  0.4929 -0.1615 -0.1214
  471SOL    HW1 1412   0.332   1.886   0.403  1.6324  0.7226  0.8805
  471SOL    HW2 1413   0.299   2.009   0.515  0.9666  2.0342  0.3195
  472SOL     OW 1414   2.706   2.031   2.942 -0.2944 -0.3467 -0.1991
  472SOL    HW1 1415   2.786   2.000   2.997 -0.3682 -3.5757  1.6687
  472SOL    HW2 1416   2.720   2.036   2.842 -0.2369 -1.4355 -1.2250
  473SOL     OW 1417   1.368   1.732   0.789 -0.0070  0.0115  0.1684
  473SOL    HW1 1418   1.389   1.834   0.784 -0.9184  1.6398 -2.4779
  473SOL    HW2 1419   1.414   1.680   0.713  0.1338 -0.3710  0.4158
  474SOL     OW 1420   2.814   0.450   1.146  0.0496  0.1991 -0.1497
  474SOL    HW1 1421   2.807   0.466   1.046  0.5505 -2.1288  2.7128
  474SOL    HW2 1422   2.895   0.390   1.161  0.3822  0.6504 -3.0631
  475SOL     OW 1423   2.995   3.075   1.828 -0.0180  0.0238 -0.3827
  475SOL    HW1 1424   2.973   3.043   1.732  1.0769 -0.8857 -1.9585
  475SOL    HW2 1425   2.926   0.042   1.857  2.4631  0.1401 -0.0494
  476SOL     OW 1426   0.565   0.258   0.889 -0.7371 -0.2462  0.0439
  476SOL    HW1 1427   0.620   0.344   0.863  1.2531  0.8117 -0.7541
  476SOL    HW2 1428   0.540   0.200   0.808 -1.1841 -0.6869 -0.7845
  477SOL     OW 1429   1.254   2.497   1.240  0.2813 -0.8719 -0.7554
  477SOL    HW1 1430   1.255   2.493   1.342  2.2620 -0.9560  0.2788
  477SOL    HW2 1431   1.318   2.432   1.191 -0.1564 -0.0708  0.2044
  478SOL     OW 1432   1.233   2.636   0.114  0.1192  0.3395  0.1486
  478SOL    HW1 1433   1.224   2.683   0.025 -1.1947 -1.6281 -0.3341
  478SOL    HW2 1434   1.298   2.685   0.176 -0.8814  2.1119 -0.7882
  479SOL     OW 1435   2.586   1.186   2.159 -0.1923  0.6791 -1.0697
  479SOL    HW1 1436   2.518   1.143   2.217  2.2796  0.9940 -2.5065
  479SOL    HW2 1437   2.601   1.116   2.084  1.5630 -3.8913  2.7981
  480SOL     OW 1438   2.744   2.320   2.796 -0.2137  0.2656  0.2893
  480SOL    HW1 1439   2.777   2.245   2.735 -1.4465  0.6580  1.1691
  480SOL    HW2 1440   2.641   2.317   2.797  1.6576  0.2689 -0.2474
  481SOL     OW 1441   1.707   2.803   1.710  0.2593  1.0288  0.2711
  481SOL    HW1 1442   1.778   2.750   1.757 -0.7061  1.5666 -0.0896
  481SOL    HW2 1443   1.686   2.763   1.615  1.9805  0.9982  1.1428
  482SOL     OW 1444   1.622   2.265   2.481  0.3059  0.0135 -0.6332
  482SOL    HW1 1445   1.708   2.297   2.438  0.4994 -1.1585  0.3355
  482SOL    HW2 1446   1.545   2.333   2.480 -3.1820 -2.6251  0.2387
  483SOL     OW 1447   1.232   2.718   2.965  0.0371  0.3736 -0.7619
  483SOL    HW1 1448   1.200   2.798   2.913  3.3981  0.4018 -0.6083
  483SOL    HW2 1449   1.269   2.648   2.902  0.9668  0.1466  0.8641
  484SOL     OW 1450   2.445   2.980   1.628 -0.0708  0.6494  0.0017
  484SOL    HW1 1451   2.351   2.955   1.661  1.2730 -2.2294 -1.9213
  484SOL    HW2 1452   2.503   2.897   1.612 -0.9222  0.3925  0.6475
  485SOL     OW 1453   2.062   0.511   0.338  0.0889  0.0460  0.9993
  485SOL    HW1 1454   2.007   0.579   0.282  0.7597 -0.8643 -0.5679
  485SOL    HW2 1455   1.998   0.473   0.408 -2.8178 -1.3140  1.2849
  486SOL     OW 1456   2.352   2.801   2.530  0.3275  0.1292 -0.1149
  486SOL    HW1 1457   2.408   2.845   2.603 -0.7745  3.3486 -0.8424
  486SOL    HW2 1458   2.337   2.700   2.549 -1.1186 -2.3920 -1.0648
  487SOL     OW 1459   1.229   0.926   0.771 -0.1512 -0.0891  0.3361
  487SOL    HW1 1460   1.179   0.964   0.683 -2.6686  1.5385 -4.2614
  487SOL    HW2 1461   1.151   0.898   0.830 -2.2407 -1.3390  0.4704
  488SOL     OW 1462   2.692   2.976   2.322  0.0412 -0.2082  0.0635
  488SOL    HW1 1463   2.691   2.930   2.234  0.1445  1.9589  0.4848
  488SOL    HW2 1464   2.602   2.975   2.368 -0.4605 -0.5295  1.1109
  489SOL     OW 1465   1.178   2.660   0.481 -0.2687 -0.5704  0.2231
  489SOL    HW1 1466   1.138   2.740   0.529  5.3149 -1.7682 -1.9505
  489SOL    HW2 1467   1.118   2.576   0.490 -0.1510 -0.3302 -1.0742
  490SOL     OW 1468   1.563   0.645   2.994 -0.1241  0.3594 -0.1479
  490SOL    HW1 1469   1.574   0.627   2.896 -0.7449 -1.3987  3.8000
  490SOL    HW2 1470   1.469   0.657   3.025  1.1512 -1.2986 -1.1484
  491SOL     OW 1471   0.916   3.095   1.186 -0.3758 -0.1117  0.2141
  491SOL    HW1 1472   0.842   0.046   1.142  1.3782  0.4946  0.1200
  491SOL    HW2 1473   0.893   3.053   1.274 -1.3274 -1.4582 -0.1054
  492SOL     OW 1474   1.611   2.745   0.409 -0.2718 -0.4649  0.4014
  492SOL    HW1 1475   1.562   2.684   0.473  0.3880  1.4870  0.7637
  492SOL    HW2 1476   1.550   2.815   0.363 -1.0735 -3.1180 -0.5975
  493SOL     OW 1477   0.955   1.948   2.976  0.5893  0.1972 -0.6649
  493SOL    HW1 1478   1.027   1.879   2.948  0.9216  0.5122  0.0057
  493SOL    HW2 1479   0.977   2.040   2.933 -2.7072  1.5175  1.7008
  494SOL     OW 1480   0.808   0.412   0.497  0.0424 -0.0130  0.4504
  494SOL    HW1 1481   0.713   0.442   0.471  1.9650 -0.6062  1.0902
  494SOL    HW2 1482   0.871   0.441   0.427 -4.5656  0.5960 -0.2958
  495SOL     OW 1483   2.778   0.157   1.836  0.0757 -0.8632  0.4998
  495SOL    HW1 1484   2.806   0.182   1.738  2.1864 -2.3057 -1.7739
  495SOL    HW2 1485   2.813   0.228   1.896 -0.2856  0.1376 -0.8454
  496SOL     OW 1486   2.319   1.874   2.424  0.1809  0.1077  0.3075
  496SOL    HW1 1487   2.277   1.926   2.341 -1.1917  0.4202 -0.8161
  496SOL    HW2 1488   2.421   1.856   2.417  0.5915  0.3947 -1.1446
  497SOL     OW 1489   1.610   1.232   2.667 -0.0025  0.4539 -0.3422
  497SOL    HW1 1490   1.688   1.298   2.685 -0.9859  0.6985 -0.3852
  497SOL    HW2 1491   1.554   1.214   2.753  0.4770 -1.0949 -0.9028
  498SOL     OW 1492   0.758   2.701   1.204 -0.2238 -0.1123  0.1963
  498SOL    HW1 1493   0.673   2.747   1.229 -0.3830 -0.1318  0.2389
  498SOL    HW2 1494   0.739   2.600   1.196  2.6144 -2.2718 -0.5001
  499SOL     OW 1495   0.007   1.953   1.084 -0.1322 -0.5475 -0.5240
  499SOL    HW1 1496   3.031   1.938   1.019  0.4120  0.9175  2.4046
  499SOL    HW2 1497   3.077   1.923   1.176 -1.4885  1.0135 -2.6066
  500SOL     OW 1498   0.644   2.717   2.697  0.1427 -0.4788  0.4144
  500SOL    HW1 1499   0.550   2.688   2.730 -0.5661 -1.9327 -0.5781
  500SOL    HW2 1500   0.640   2.748   2.601  1.8241 -0.7492 -2.5996
  501SOL     OW 1501   1.692   3.065   0.133  0.0927 -0.1755 -0.3905
  501SOL    HW1 1502   1.734   0.046   0.085  2.2587  0.4579  0.1059
  501SOL    HW2 1503   1.629   3.086   0.207  2.8111 -0.6099  0.9051
  502SOL     OW 1504   3.101   0.137   0.701  0.0044  0.5150  0.4486
  502SOL    HW1 1505   3.101   0.214   0.637  1.3695 -3.5354 -0.3113
  502SOL    HW2 1506   0.017   0.168   0.795  0.2266  0.9788 -2.1603
  503SOL     OW 1507   1.990   2.994   2.233 -0.0042  0.3795  0.6721
  503SOL    HW1 1508   2.050   2.977   2.318 -0.0242 -0.4978 -0.3624
  503SOL    HW2 1509   1.895   2.960   2.243 -0.9451  0.5155  1.0432
  504SOL     OW 1510   2.439   1.430   1.864 -0.4643 -0.0384  0.6732
  504SOL    HW1 1511   2.517   1.494   1.879 -0.3128  0.2731  0.3074
  504SOL    HW2 1512   2.471   1.346   1.821 -2.2631  2.8519  6.0116
  505SOL     OW 1513   1.721   2.911   2.237 -0.2854 -0.4595 -0.3028
  505SOL    HW1 1514   1.666   2.965   2.308  1.1513  0.1186 -0.1163
  505SOL    HW2 1515   1.662   2.858   2.173  0.4003  0.2309 -0.5664
  506SOL     OW 1516   0.240   0.701   2.085 -0.0349  0.1567 -0.2464
  506SOL    HW1 1517   0.176   0.628   2.047 -1.0002 -3.1533 -0.2403
  506SOL    HW2 1518   0.290   0.664   2.167  2.7949 -2.8299  0.6333
  507SOL     OW 1519   1.849   0.406   0.478 -0.3108 -0.7452 -0.1229
  507SOL    HW1 1520   1.784   0.492   0.462 -2.0233  4.4659  0.0627
  507SOL    HW2 1521   1.836   0.373   0.575  0.1796 -0.6962  0.4094
  508SOL     OW 1522   2.179   0.666   1.950 -0.2185  0.3428  0.1168
  508SOL    HW1 1523   2.237   0.682   1.869 -1.4906 -1.4042 -0.8287
  508SOL    HW2 1524   2.228   0.597   2.012  2.8611 -2.3965  1.0768
  509SOL     OW 1525   0.554   1.872   3.042 -0.1198  0.1300  0.1196
  509SOL    HW1 1526   0.625   1.893   0.015 -0.2455  0.8658  1.4514
  509SOL    HW2 1527   0.578   1.795   2.981 -0.8184 -1.8001  0.8539
  510SOL     OW 1528   0.213   0.889   1.035 -0.1409  0.2642 -0.1619
  510SOL    HW1 1529   0.112   0.885   1.007 -2.9012 -0.8379  0.0591
  510SOL    HW2 1530   0.255   0.971   0.993 -3.2131 -0.3051  0.8407
  511SOL     OW 1531   1.568   1.048   1.200 -0.3914 -0.3517  0.1911
  511SOL    HW1 1532   1.661   1.002   1.207 -0.5290 -0.0489  1.0260
  511SOL    HW2 1533   1.584   1.135   1.152  2.4257 -3.7076  0.2369
  512SOL     OW 1534   0.327   2.093   0.794 -0.5523 -0.4901 -0.1266
  512SOL    HW1 1535   0.265   2.138   0.732  0.2145 -0.5013  2.5947
  512SOL    HW2 1536   0.420   2.087   0.748  1.0132 -1.2484  0.0566
  513SOL     OW 1537   0.135   2.476   0.837  0.1615  0.3165 -0.0537
  513SOL    HW1 1538   0.047   2.449   0.882 -0.4434  1.0592 -0.2252
  513SOL    HW2 1539   0.148   2.575   0.854 -1.0928  0.6411  0.1642
  514SOL     OW 1540   0.563   2.142   0.680  0.3756 -0.1339 -0.5354
  514SOL    HW1 1541   0.574   2.129   0.581  0.3861  3.8650  4.3180
  514SOL    HW2 1542   0.649   2.185   0.713  0.8448  1.2747  2.8076
  515SOL     OW 1543   3.052   0.268   3.075  0.0528  0.3158 -0.1401
  515SOL    HW1 1544   2.956   0.256   0.006 -3.8520 -1.6082  0.1891
  515SOL    HW2 1545   3.099   0.349   0.000 -0.7790 -1.2832 -2.1200
  516SOL     OW 1546   2.250   3.054   1.294  0.2681 -0.0045  0.5332
  516SOL    HW1 1547   2.188   3.027   1.367  0.5196 -2.0001 -1.9774
  516SOL    HW2 1548   2.195   3.080   1.212 -4.4077 -0.0756  0.9439
  517SOL     OW 1549   1.736   1.555   0.737  0.5578 -0.4474 -0.4756
  517SOL    HW1 1550   1.748   1.646   0.684  0.7291  1.5031 -0.3749
  517SOL    HW2 1551   1.706   1.559   0.839  1.3150  2.6212  4.5760
  518SOL     OW 1552   1.746   2.839   0.905  0.0419 -0.3393  0.7597
  518SOL    HW1 1553   1.706   2.780   0.979  0.6803 -0.5459 -1.9788
  518SOL    HW2 1554   1.757   2.785   0.819  0.0109  0.5321 -1.4958
  519SOL     OW 1555   2.945   2.677   0.052  0.1523 -0.2764  0.5295
  519SOL    HW1 1556   2.931   2.689   3.051  1.8724 -0.7486 -0.3410
  519SOL    HW2 1557   3.041   2.702   0.078 -1.6812  1.5374  0.9924
  520SOL     OW 1558   2.269   1.602   2.193  0.1381  0.1766 -0.0298
  520SOL    HW1 1559   2.209   1.679   2.211  2.5792 -3.3213  0.1345
  520SOL    HW2 1560   2.270   1.546   2.277 -1.8367  0.4524  0.0274
  521SOL     OW 1561   1.509   3.026   1.965 -0.5045  0.4746  0.0825
  521SOL    HW1 1562   1.448   3.010   1.882 -1.7389 -1.6903 -0.2265
  521SOL    HW2 1563   1.463   3.097   2.025 -1.4235  2.5210 -0.9717
  522SOL     OW 1564   0.310   2.518   1.944  0.3446 -0.3597  0.0481
  522SOL    HW1 1565   0.243   2.504   2.022 -0.9840  2.8917  0.9986
  522SOL    HW2 1566   0.288   2.607   1.889  1.3503 -0.3360  0.7711
  523SOL     OW 1567   0.754   2.358   2.111  0.0127  0.0270  0.0570
  523SOL    HW1 1568   0.716   2.447   2.096  0.2285 -0.0177  0.3282
  523SOL    HW2 1569   0.842   2.375   2.167  2.3083 -1.3671  0.9236
  524SOL     OW 1570   2.231   2.224   0.389  0.0965  0.0736 -0.1601
  524SOL    HW1 1571   2.173   2.151   0.344  0.9908  1.4060 -0.8937
  524SOL    HW2 1572   2.223   2.206   0.487  0.1019 -3.1914  0.7946
  525SOL     OW 1573   2.717   0.660   2.592 -0.4239  0.0011 -0.0734
  525SOL    HW1 1574   2.756   0.570   2.561 -0.8326  1.4708  2.4608
  525SOL    HW2 1575   2.635   0.653   2.654  1.0060 -0.5302  0.4938
  526SOL     OW 1576   0.359   2.435   0.602 -0.2586  0.1322  0.1245
  526SOL    HW1 1577   0.458   2.439   0.623 -0.1043  0.4330  0.0060
  526SOL    HW2 1578   0.301   2.449   0.688 -1.3104 -0.9790  2.0180
  527SOL     OW 1579   2.856   1.047   0.883  0.1545  0.4618  0.2202
  527SOL    HW1 1580   2.790   1.090   0.816 -3.5056  0.2950  0.8398
  527SOL    HW2 1581   2.809   0.983   0.949  1.0414 -0.4806  0.9741
  528SOL     OW 1582   1.081   1.258   2.267  0.3636 -0.0376  0.1325
  528SOL    HW1 1583   1.113   1.278   2.181 -2.6862 -0.3741  2.3624
  528SOL    HW2 1584   1.022   1.336   2.303 -1.4733 -1.6096 -0.6636
  529SOL     OW 1585   0.838   1.295   0.471  0.5658  0.0088  0.2334
  529SOL    HW1 1586   0.910   1.294   0.542  0.2351 -0.6361 -0.6881
  529SOL    HW2 1587   0.779   1.209   0.465 -1.4990 -0.5955 -2.6674
  530SOL     OW 1588   1.478   0.554   1.547 -0.2259 -0.7236 -0.2687
  530SOL    HW1 1589   1.539   0.621   1.499 -2.5158 -0.9576 -1.7824
  530SOL    HW2 1590   1.531   0.488   1.602 -2.4716  3.1052 -0.7559
  531SOL     OW 1591   1.114   2.174   0.243  0.0538 -0.4483 -0.1872
  531SOL    HW1 1592   1.158   2.251   0.196  0.0969 -0.6988  1.0200
  531SOL    HW2 1593   1.174   2.147   0.322 -0.1098  1.3618  1.9984
  532SOL     OW 1594   2.691   0.915   2.476  0.1806  0.3899 -0.0746
  532SOL    HW1 1595   2.699   0.825   2.524 -2.5642 -1.4712 -2.3378
  532SOL    HW2 1596   2.779   0.953   2.450 -3.3209 -0.2405  0.9156
  533SOL     OW 1597   0.103   0.226   2.135 -0.1702  0.2156  0.0851
  533SOL    HW1 1598   0.007   0.229   2.166 -1.7270  0.1210  0.8032
  533SOL    HW2 1599   0.113   0.171   2.047 -0.3757 -0.2602 -0.6371
  534SOL     OW 1600   2.238   0.192   2.795 -0.3413 -0.2168  0.3359
  534SOL    HW1 1601   2.323   0.232   2.840  0.2310 -0.1116  0.4619
  534SOL    HW2 1602   2.257   0.127   2.718 -0.1774 -1.2149  1.6327
  535SOL     OW 1603   0.397   0.414   0.033 -0.9394  0.0803  0.1337
  535SOL    HW1 1604   0.407   0.333   0.092 -1.6881  1.6217 -0.5029
  535SOL    HW2 1605   0.391   0.381   3.036 -1.8023  0.2065 -1.7007
  536SOL     OW 1606   1.084   2.044   1.159 -0.3412 -0.0790  0.1751
  536SOL    HW1 1607   1.015   2.009   1.228 -0.1230 -1.5439 -2.6633
  536SOL    HW2 1608   1.060   2.142   1.130  0.6435 -1.8958 -0.5593
  537SOL     OW 1609   2.868   2.541   1.492 -0.2043  0.1819 -0.0846
  537SOL    HW1 1610   2.880   2.608   1.564  1.9871 -1.3735 -1.0198
  537SOL    HW2 1611   2.810   2.458   1.517 -3.0207 -0.1781 -0.2084
  538SOL     OW 1612   0.632   2.475   0.654 -0.4981 -0.0580  0.0424
  538SOL    HW1 1613   0.674   2.383   0.665  1.2749 -1.2395  0.8407
  538SOL    HW2 1614   0.694   2.528   0.593 -0.3962 -0.9852  1.8081
  539SOL     OW 1615   1.873   1.319   2.438 -0.1831  0.4898 -0.4674
  539SOL    HW1 1616   1.812   1.261   2.374 -1.1483 -0.0758  0.1685
  539SOL    HW2 1617   1.890   1.407   2.396  0.9785  1.6903 -0.0990
  540SOL     OW 1618   1.825   0.690   2.822 -0.3822 -0.0235  0.9169
  540SOL    HW1 1619   1.840   0.602   2.864  1.2924  1.9748 -2.2129
  540SOL    HW2 1620   1.916   0.729   2.802 -1.6450 -2.7070  1.1277
  541SOL     OW 1621   1.075   0.997   2.367  0.6079 -0.4739 -0.0384
  541SOL    HW1 1622   1.059   0.933   2.287 -0.3858 -0.9018 -3.0139
  541SOL    HW2 1623   1.073   1.091   2.329 -0.0518  0.3860 -1.5214
  542SOL     OW 1624   1.436   2.660   1.868  0.2546  0.1592  0.3776
  542SOL    HW1 1625   1.345   2.629   1.838 -1.8932  0.5059  1.9332
  542SOL    HW2 1626   1.469   2.740   1.805 -0.2318  3.7871 -0.9731
  543SOL     OW 1627   0.570   2.743   3.055  0.4459  0.7259 -0.0821
  543SOL    HW1 1628   0.567   2.715   2.955 -2.0883 -0.6205 -0.8936
  543SOL    HW2 1629   0.476   2.789   3.070 -2.7466 -0.0308 -2.0473
  544SOL     OW 1630   0.023   2.121   2.127 -0.2101  0.2529  0.2318
  544SOL    HW1 1631   0.069   2.196   2.078 -0.3040  0.8059  0.3861
  544SOL    HW2 1632   3.071   2.152   2.205  2.3232 -0.0285  0.9157
  545SOL     OW 1633   1.436   1.808   1.670  0.0396 -0.0846 -0.1289
  545SOL    HW1 1634   1.381   1.810   1.585 -2.7903  0.9987  0.5087
  545SOL    HW2 1635   1.379   1.790   1.753  4.9293  4.2289 -2.8525
  546SOL     OW 1636   2.829   0.433   2.485 -0.2371  0.7574  0.1221
  546SOL    HW1 1637   2.787   0.390   2.403 -0.4995 -0.3315  0.6127
  546SOL    HW2 1638   2.932   0.425   2.477  1.0373 -1.5637  0.0389
  547SOL     OW 1639   1.681   0.019   0.840 -0.0840  0.2391 -0.2458
  547SOL    HW1 1640   1.637   0.038   0.931  0.9108 -0.1345  2.1000
  547SOL    HW2 1641   1.735   3.034   0.846  0.4283  1.0489  0.9542
  548SOL     OW 1642   1.309   2.193   0.014  0.4532  0.1000  0.2095
  548SOL    HW1 1643   1.244   2.116   0.029  2.6717  1.4177 -0.5915
  548SOL    HW2 1644   1.260   2.283   3.097 -0.9460  2.3001 -0.5009
  549SOL     OW 1645   1.957   0.501   3.005 -0.1261  0.0492  0.5955
  549SOL    HW1 1646   2.014   0.418   3.001 -1.7951 -0.1593  0.1556
  549SOL    HW2 1647   2.012   0.573   3.055  0.5611 -0.1549  1.4730
  550SOL     OW 1648   2.525   1.798   0.770 -0.0137 -0.1352  0.0622
  550SOL    HW1 1649   2.465   1.840   0.707  3.5980 -4.2804 -0.5692
  550SOL    HW2 1650   2.604   1.766   0.714 -1.0794 -0.4710  1.4765
  551SOL     OW 1651   1.144   0.154   1.180  0.0734 -0.2426 -0.3338
  551SOL    HW1 1652   1.114   0.248   1.213 -2.5197  2.7247  1.5772
  551SOL    HW2 1653   1.063   0.098   1.153  1.7127  1.0510  2.3173
  552SOL     OW 1654   0.383   1.845   2.758 -0.0776  0.2628  0.0289
  552SOL    HW1 1655   0.408   1.795   2.671  2.0611  0.7403 -0.6070
  552SOL    HW2 1656   0.339   1.775   2.823  0.7881 -1.7196  2.1390
  553SOL     OW 1657   2.634   2.396   0.118  0.0787  0.4892 -0.3156
  553SOL    HW1 1658   2.580   2.314   0.086 -2.5291 -3.0249 -1.2264
  553SOL    HW2 1659   2.618   2.412   0.217 -0.7439  0.5852  0.2978
  554SOL     OW 1660   2.063   1.633   1.492 -0.5361 -0.0161  0.2338
  554SOL    HW1 1661   2.136   1.627   1.563  0.8114 -0.3808  2.0878
  554SOL    HW2 1662   1.970   1.616   1.529 -1.6611 -1.7816 -1.9882
  555SOL     OW 1663   0.528   2.520   2.375  0.4335  0.3369  0.9929
  555SOL    HW1 1664   0.480   2.471   2.448  3.1617  1.2786 -0.0230
  555SOL    HW2 1665   0.466   2.560   2.305 -0.5792 -1.2868 -2.4823
  556SOL     OW 1666   1.474   1.071   1.445 -0.2866 -0.2459 -0.0026
  556SOL    HW1 1667   1.524   1.067   1.357  0.3627 -0.5203  0.0123
  556SOL    HW2 1668   1.429   1.163   1.456 -3.0162  2.6304  0.2171
  557SOL     OW 1669   1.394   2.943   1.154 -0.0230 -0.1636  0.2640
  557SOL    HW1 1670   1.332   2.866   1.142  3.3320  2.2095 -0.5281
  557SOL    HW2 1671   1.364   2.991   1.233 -0.0105 -2.6711 -5.5522
  558SOL     OW 1672   0.533   0.798   2.386 -0.1343 -0.8559 -0.1867
  558SOL    HW1 1673   0.441   0.751   2.382  2.1471 -1.0291  2.2200
  558SOL    HW2 1674   0.576   0.778   2.475 -1.3959 -1.0929 -2.5029
  559SOL     OW 1675   0.972   2.637   0.187 -0.0209 -0.1929 -0.5014
  559SOL    HW1 1676   0.960   2.692   0.269  0.6936 -3.2541 -0.4054
  559SOL    HW2 1677   1.071   2.625   0.166  1.9858 -1.6274  0.2656
  560SOL     OW 1678   1.695   1.991   0.289  0.5656  0.0750  0.6277
  560SOL    HW1 1679   1.771   2.045   0.244  1.7422 -2.2803  0.5313
  560SOL    HW2 1680   1.610   2.050   0.287 -0.6358  2.7145 -2.1230
  561SOL     OW 1681   1.037   2.896   0.612  0.4445  0.1739 -0.1400
  561SOL    HW1 1682   1.108   2.970   0.606  0.5919 -0.2206  0.8201
  561SOL    HW2 1683   0.985   2.903   0.698  2.6339 -1.2070 -3.3132
  562SOL     OW 1684   0.631   1.039   2.279  0.0145  0.2017  0.3466
  562SOL    HW1 1685   0.650   1.109   2.351 -0.3241 -0.4106 -1.0915
  562SOL    HW2 1686   0.588   0.959   2.317  3.3604  1.8972  1.1289
  563SOL     OW 1687   1.219   2.070   2.438  0.2655  0.0139 -0.3484
  563SOL    HW1 1688   1.251   2.072   2.343 -0.2872  0.9513 -0.1651
  563SOL    HW2 1689   1.255   1.995   2.494 -2.5539 -0.8643 -2.6426
  564SOL     OW 1690   2.430   0.664   1.245  0.7685  0.4797 -0.1079
  564SOL    HW1 1691   2.375   0.653   1.157 -2.1618  1.0621 -3.1272
  564SOL    HW2 1692   2.432   0.762   1.274  0.3276 -0.9653 -1.3261
  565SOL     OW 1693   1.342   0.931   0.387  0.0342 -0.5656  0.4547
  565SOL    HW1 1694   1.365   0.950   0.289  2.0184 -0.1544  0.0728
  565SOL    HW2 1695   1.354   1.015   0.442  0.9197 -0.7183 -2.3316
  566SOL     OW 1696   2.342   2.749   3.022 -0.0477  0.2454 -0.4556
  566SOL    HW1 1697   2.423   2.689   3.021  1.0285  1.9363 -1.8779
  566SOL    HW2 1698   2.256   2.695   3.019  0.0789 -1.8559  0.7308
  567SOL     OW 1699   1.936   0.819   0.975 -0.0258  0.7443 -0.6490
  567SOL    HW1 1700   1.879   0.878   1.035 -1.0519 -1.5108 -1.3308
  567SOL    HW2 1701   1.959   0.732   1.020 -0.4114  0.8316  0.2956
  568SOL     OW 1702   1.172   1.174   2.592 -0.5519  0.8847  0.0727
  568SOL    HW1 1703   1.115   1.254   2.622  3.4743 -0.5945 -1.8999
  568SOL    HW2 1704   1.120   1.107   2.539  0.5300  0.9671 -1.8758
  569SOL     OW 1705   2.081   1.658   0.857 -0.4818  0.4640 -0.2687
  569SOL    HW1 1706   2.054   1.568   0.810  2.4197  3.4967 -2.2862
  569SOL    HW2 1707   2.060   1.650   0.957  0.3635 -2.0426  2.7901
  570SOL     OW 1708   2.577   2.621   2.247  0.7316  0.1023 -0.1872
  570SOL    HW1 1709   2.523   2.704   2.266  1.3479  1.9850  2.1388
  570SOL    HW2 1710   2.592   2.619   2.146 -1.2932  0.7840 -1.9339
  571SOL     OW 1711   3.029   1.961   1.676  0.4005  0.0088 -0.4955
  571SOL    HW1 1712   2.968   2.018   1.617  1.0614 -0.8456  0.7075
  571SOL    HW2 1713   2.997   1.960   1.773  1.0679  1.0762  2.1339
  572SOL     OW 1714   1.143   2.269   2.652 -0.6202  0.2379 -0.1457
  572SOL    HW1 1715   1.175   2.361   2.631  1.2905 -0.0919  0.5243
  572SOL    HW2 1716   1.156   2.205   2.580  0.0707  3.8957 -0.8350
  573SOL     OW 1717   1.513   2.335   1.433  0.4615 -0.0713  0.3085
  573SOL    HW1 1718   1.416   2.356   1.457 -1.6371  0.0219 -1.1499
  573SOL    HW2 1719   1.566   2.338   1.517 -2.9081 -0.6586  1.9963
  574SOL     OW 1720   1.153   2.668   1.522 -0.2760 -0.0417  0.2451
  574SOL    HW1 1721   1.061   2.678   1.477  0.7843  1.0487  0.5424
  574SOL    HW2 1722   1.150   2.703   1.619  1.3453 -0.4996  3.3679
  575SOL     OW 1723   0.705   0.502   0.817  0.3003  0.3233  0.3982
  575SOL    HW1 1724   0.798   0.527   0.779  0.1888  0.5487  0.4197
  575SOL    HW2 1725   0.700   0.511   0.916 -0.9432  0.7713 -2.2329
  576SOL     OW 1726   2.204   0.577   1.390 -0.1796 -0.0449  0.4746
  576SOL    HW1 1727   2.174   0.630   1.471 -2.0768 -1.5027 -5.0499
  576SOL    HW2 1728   2.299   0.599   1.353  2.5230 -1.4953 -1.8942
  577SOL     OW 1729   1.983   0.211   2.874 -0.2495  0.2938 -0.1919
  577SOL    HW1 1730   2.083   0.197   2.854  0.5710  2.3111  1.5151
  577SOL    HW2 1731   1.951   0.299   2.831 -0.4050  1.8742  2.2571
  578SOL     OW 1732   1.649   1.971   1.938  0.4630  0.0863  0.4900
  578SOL    HW1 1733   1.634   1.870   1.932 -0.5806 -2.1442  1.0700
  578SOL    HW2 1734   1.661   2.006   1.840 -1.9539  0.1260  1.5382
  579SOL     OW 1735   0.808   1.641   1.050  0.3468  0.6023 -0.1546
  579SOL    HW1 1736   0.846   1.738   1.042  0.1529 -0.5323  0.7488
  579SOL    HW2 1737   0.725   1.628   0.989 -3.4204  2.3869  2.5575
  580SOL     OW 1738   1.244   3.051   3.043  0.2577  0.3433 -0.1336
  580SOL    HW1 1739   1.168   3.004   3.090  0.1244 -1.5296  0.4018
  580SOL    HW2 1740   1.276   0.029   3.100 -0.1750  1.3869 -1.1898
  581SOL     OW 1741   1.209   0.838   1.877 -0.3974 -0.7243 -0.8539
  581SOL    HW1 1742   1.236   0.741   1.892  1.1897  0.5366 -0.0263
  581SOL    HW2 1743   1.272   0.882   1.811 -0.6418  2.2139  0.0149
  582SOL     OW 1744   0.352   0.331   1.052  0.6245  0.2314  0.8280
  582SOL    HW1 1745   0.350   0.435   1.043  1.8953  1.9642  1.7862
  582SOL    HW2 1746   0.432   0.296   0.996 -2.1428 -0.2518 -1.5370
  583SOL     OW 1747   0.856   1.911   1.897  0.2276  0.1290  0.1850
  583SOL    HW1 1748   0.839   1.810   1.899 -1.0909  1.3647 -3.2077
  583SOL    HW2 1749   0.946   1.931   1.859 -3.9472  0.3808 -0.3414
  584SOL     OW 1750   2.591   2.423   0.381 -0.0710 -0.2412  1.1469
  584SOL    HW1 1751   2.664   2.491   0.386 -4.6599  0.4831 -0.7040
  584SOL    HW2 1752   2.506   2.446   0.433 -1.0839  1.9571 -1.5140
  585SOL     OW 1753   2.222   0.531   2.757 -0.3449 -0.4370  0.1185
  585SOL    HW1 1754   2.258   0.480   2.839 -0.9773  0.3222  0.0115
  585SOL    HW2 1755   2.125   0.512   2.728 -0.3141 -0.6603 -2.1847
  586SOL     OW 1756   0.481   1.335   0.296 -1.0558 -0.5562  0.3963
  586SOL    HW1 1757   0.511   1.388   0.374 -2.0207 -1.7617 -0.8747
  586SOL    HW2 1758   0.379   1.345   0.284  1.7802  0.5275  0.0721
  587SOL     OW 1759   1.618   2.034   1.202 -0.6728  0.0326  0.1554
  587SOL    HW1 1760   1.685   1.982   1.138 -0.2921 -2.0731 -3.6414
  587SOL    HW2 1761   1.525   2.006   1.186 -0.1742  1.7599  0.7000
  588SOL     OW 1762   0.511   0.634   1.220  0.2074 -0.1386  0.6229
  588SOL    HW1 1763   0.595   0.621   1.166  0.2753 -0.0485 -1.7297
  588SOL    HW2 1764   0.430   0.623   1.155  0.8087  0.0347  1.1118
  589SOL     OW 1765   2.023   2.885   0.855  0.1976  0.9389 -0.5573
  589SOL    HW1 1766   2.048   2.912   0.763 -1.3392  1.0398  2.4139
  589SOL    HW2 1767   1.929   2.850   0.856  1.8164 -1.2458 -2.2596
  590SOL     OW 1768   1.692   0.951   0.410  0.0161  0.1732  0.2795
  590SOL    HW1 1769   1.789   0.918   0.393 -0.4915 -1.2257 -0.4545
  590SOL    HW2 1770   1.625   0.903   0.353  1.8828  0.4257 -1.1517
  591SOL     OW 1771   2.291   2.115   2.056 -0.0283 -0.4391 -0.6225
  591SOL    HW1 1772   2.346   2.053   1.996 -1.7164 -0.3263  0.5545
  591SOL    HW2 1773   2.341   2.203   2.074  0.7088  1.2403 -0.0315
  592SOL     OW 1774   1.349   1.977   1.191  0.1519  0.0482  0.0761
  592SOL    HW1 1775   1.358   1.920   1.109  0.0829 -1.0779 -0.4368
  592SOL    HW2 1776   1.251   2.014   1.207 -2.3584  0.5835  1.1797
  593SOL     OW 1777   0.631   2.827   0.724 -0.4503 -0.6983  0.3446
  593SOL    HW1 1778   0.737   2.824   0.733  1.3803  0.2564 -1.9790
  593SOL    HW2 1779   0.595   2.879   0.805 -0.0871 -4.1337 -3.7828
  594SOL     OW 1780   2.886   0.978   2.301  0.5175 -0.1781 -0.3044
  594SOL    HW1 1781   2.878   1.058   2.241 -0.2982  1.2045  1.7538
  594SOL    HW2 1782   2.956   0.910   2.277 -3.5816  2.2200  0.2559
  595SOL     OW 1783   2.979   2.994   0.578  0.3708  0.2298 -0.2141
  595SOL    HW1 1784   3.025   2.976   0.487 -1.5301  1.4001  0.0289
  595SOL    HW2 1785   3.028   3.060   0.634 -2.2024  1.3490 -0.7109
  596SOL     OW 1786   3.034   0.560   1.405  0.0632  0.6175 -0.4590
  596SOL    HW1 1787   3.092   0.615   1.468 -4.4340 -2.0861 -1.7436
  596SOL    HW2 1788   2.960   0.514   1.455 -2.9683 -1.4553  0.6956
  597SOL     OW 1789   2.505   1.164   0.255  0.7139 -0.3590 -0.4005
  597SOL    HW1 1790   2.600   1.137   0.224  0.4364 -2.1301 -2.0523
  597SOL    HW2 1791   2.446   1.082   0.269 -0.4989 -0.8226  1.3954
  598SOL     OW 1792   0.581   0.250   2.120 -0.1527 -0.5665 -0.3030
  598SOL    HW1 1793   0.590   0.324   2.051 -2.8990 -1.1559  0.7182
  598SOL    HW2 1794   0.488   0.262   2.166 -3.6216  0.5577  1.4843
  599SOL     OW 1795   2.375   1.710   0.197  0.4027  0.0384 -0.4031
  599SOL    HW1 1796   2.332   1.801   0.180 -0.1492 -1.8752 -0.7846
  599SOL    HW2 1797   2.457   1.709   0.261  0.4232 -0.9654 -0.2112
  600SOL     OW 1798   0.931   0.945   0.079  0.0994 -0.6880 -0.6230
  600SOL    HW1 1799   1.020   0.992   0.055 -3.6329  0.8509  1.3317
  600SOL    HW2 1800   0.851   0.999   0.040  0.8040  3.7917  0.2148
  601SOL     OW 1801   1.392   0.979   0.115  0.8157 -0.3806  0.2670
  601SOL    HW1 1802   1.321   1.050   0.107  2.0640 -0.5749  1.4963
  601SOL    HW2 1803   1.361   0.889   0.073 -2.8525 -1.2101  0.4691
  602SOL     OW 1804   1.035   3.024   1.623 -0.8013  0.3628 -0.2873
  602SOL    HW1 1805   1.069   0.015   1.639 -0.1641 -1.9185  1.2162
  602SOL    HW2 1806   0.966   3.027   1.548 -1.7068  1.0673 -0.1139
  603SOL     OW 1807   0.844   2.828   2.290 -0.3993  0.4107 -0.6456
  603SOL    HW1 1808   0.893   2.913   2.328  0.4795  2.3853 -0.6314
  603SOL    HW2 1809   0.890   2.796   2.205  1.0088  2.6923 -1.0249
  604SOL     OW 1810   0.157   0.068   1.912  0.3875 -0.3789 -0.2651
  604SOL    HW1 1811   0.186   3.085   1.965  3.4789 -0.4060  2.2471
  604SOL    HW2 1812   0.080   0.052   1.848  2.7153 -2.2922 -0.5405
  605SOL     OW 1813   2.631   2.752   1.611  0.2913  0.2770  0.2056
  605SOL    HW1 1814   2.581   2.669   1.642 -1.7979 -1.3063 -0.0616
  605SOL    HW2 1815   2.716   2.765   1.661 -4.2298  0.7498 -2.2406
  606SOL     OW 1816   0.031   1.930   2.625  0.0996  0.1741 -0.1953
  606SOL    HW1 1817   0.032   1.845   2.685  1.4530 -4.8802  0.5469
  606SOL    HW2 1818   0.117   1.978   2.650  2.6714 -0.7672 -0.9997
  607SOL     OW 1819   0.802   0.135   0.600 -0.2474 -0.1111  0.7759
  607SOL    HW1 1820   0.791   0.238   0.602 -2.2266  0.6899  3.5555
  607SOL    HW2 1821   0.878   0.104   0.664  1.8451 -1.0483  0.1485
  608SOL     OW 1822   1.498   1.769   2.478 -0.2533 -0.3890  0.4112
  608SOL    HW1 1823   1.526   1.682   2.429 -1.2763 -0.0552  1.5226
  608SOL    HW2 1824   1.528   1.858   2.437  1.5162 -1.3270 -1.8999
  609SOL     OW 1825   3.014   0.278   1.257 -0.0612  0.5305  0.2753
  609SOL    HW1 1826   3.071   0.344   1.200 -0.0658 -0.3610 -0.1959
  609SOL    HW2 1827   3.065   0.247   1.344  0.6381  0.4341  0.2547
  610SOL     OW 1828   0.866   2.391   3.027 -0.4847 -0.5854  0.0197
  610SOL    HW1 1829   0.836   2.457   2.955  0.9853  1.4428 -0.6542
  610SOL    HW2 1830   0.833   2.420   0.017  0.5235 -1.0624  0.6554
  611SOL     OW 1831   1.968   1.353   0.464 -0.3325 -0.2138 -0.3666
  611SOL    HW1 1832   1.971   1.409   0.379  2.6569  2.4013  1.0628
  611SOL    HW2 1833   1.888   1.296   0.455  2.2283  1.4997  0.1392
  612SOL     OW 1834   0.980   2.686   2.510 -0.1040  0.0196  0.0600
  612SOL    HW1 1835   0.937   2.746   2.437 -0.2343  2.7081  0.5453
  612SOL    HW2 1836   0.911   2.617   2.533 -1.1460  0.6588  0.3192
  613SOL     OW 1837   1.140   1.955   0.073 -0.5852  0.4760 -0.1321
  613SOL    HW1 1838   1.108   2.019   0.146 -0.1519 -0.3377 -0.5015
  613SOL    HW2 1839   1.078   1.959   3.091 -2.3583 -0.1804  0.1599
  614SOL     OW 1840   2.702   2.318   1.619  0.1630  0.0977  0.3615
  614SOL    HW1 1841   2.623   2.322   1.560 -1.0778  0.5881  1.4789
  614SOL    HW2 1842   2.671   2.278   1.707 -1.1659  0.6204 -0.8980
  615SOL     OW 1843   2.431   1.330   3.083  0.3098 -0.1787  0.0080
  615SOL    HW1 1844   2.475   1.372   3.005 -2.7043 -0.5569  2.7131
  615SOL    HW2 1845   2.409   1.231   3.068  0.8316  0.8778  2.3018
  616SOL     OW 1846   1.675   0.031   0.572  0.3914 -0.1233  0.1983
  616SOL    HW1 1847   1.686   0.023   0.674 -0.0358 -2.2229 -0.1196
  616SOL    HW2 1848   1.741   3.074   0.521 -1.3429  1.7897 -1.0477
  617SOL     OW 1849   0.447   1.416   2.733 -0.2913  0.1631 -0.0301
  617SOL    HW1 1850   0.421   1.479   2.656 -1.9509  0.2922 -1.0530
  617SOL    HW2 1851   0.546   1.394   2.729  1.3689 -1.2918 -1.9975
  618SOL     OW 1852   0.530   0.639   1.734  0.1749 -0.1082  0.3079
  618SOL    HW1 1853   0.463   0.698   1.683 -0.2879 -1.1218  1.6715
  618SOL    HW2 1854   0.561   0.564   1.671 -1.0108 -0.7635  0.9045
  619SOL     OW 1855   2.873   1.004   1.929 -0.5900 -0.6802  0.2072
  619SOL    HW1 1856   2.924   1.085   1.975 -1.4426  1.1553  3.6520
  619SOL    HW2 1857   2.894   0.915   1.978 -0.6733 -4.1147 -0.8991
  620SOL     OW 1858   2.113   0.968   3.094  0.7040  0.0387  0.1187
  620SOL    HW1 1859   2.037   1.000   3.027  2.4466 -0.7425 -0.1160
  620SOL    HW2 1860   2.090   1.010   0.087 -0.7101 -0.4838  1.0299
  621SOL     OW 1861   2.457   2.875   1.210  0.3933  0.1178 -0.1974
  621SOL    HW1 1862   2.541   2.863   1.257 -3.8214  0.0618  0.0432
  621SOL    HW2 1863   2.395   2.945   1.255  0.5921 -0.1552 -3.1616
  622SOL     OW 1864   1.716   0.525   2.043 -0.1382  0.4396 -0.3851
  622SOL    HW1 1865   1.735   0.451   1.972  2.6689 -0.4155 -0.1679
  622SOL    HW2 1866   1.666   0.601   2.000  1.7441 -2.7346 -0.9947
  623SOL     OW 1867   1.528   0.937   2.426 -0.2630 -0.1820  0.0331
  623SOL    HW1 1868   1.483   1.010   2.376  0.3779 -2.1430 -0.5622
  623SOL    HW2 1869   1.570   0.971   2.509 -1.6913  0.7508  0.8374
  624SOL     OW 1870   1.969   0.094   0.562 -0.0850  0.5128 -0.1966
  624SOL    HW1 1871   1.935   0.124   0.469 -2.3242  0.3901 -1.1480
  624SOL    HW2 1872   2.010   0.001   0.557 -0.0647 -0.9884 -0.3840
  625SOL     OW 1873   0.612   1.500   0.460  0.0335 -0.3173 -0.1438
  625SOL    HW1 1874   0.703   1.459   0.476  1.5276  1.7004  1.7312
  625SOL    HW2 1875   0.606   1.585   0.516 -1.1800 -1.5413  0.6595
  626SOL     OW 1876   1.690   1.177   2.270 -0.2858 -0.2838  0.7396
  626SOL    HW1 1877   1.685   1.234   2.190  1.0754 -1.1836  1.8488
  626SOL    HW2 1878   1.596   1.163   2.309 -0.5735 -2.1280  0.5597
  627SOL     OW 1879   0.882   0.502   1.865 -0.1764 -0.1480  0.4781
  627SOL    HW1 1880   0.958   0.508   1.935  3.0668 -0.9103 -0.0326
  627SOL    HW2 1881   0.788   0.517   1.906  2.8194 -0.8172 -2.5965
  628SOL     OW 1882   2.198   0.776   2.313  0.0193  0.1941  0.4034
  628SOL    HW1 1883   2.100   0.759   2.287  0.5875 -2.5428  0.9866
  628SOL    HW2 1884   2.264   0.795   2.239 -0.5702  0.0007  2.6391
  629SOL     OW 1885   0.767   1.392   3.055  0.8152 -0.5672  0.5714
  629SOL    HW1 1886   0.763   1.455   2.976  1.2581  1.0811 -2.4748
  629SOL    HW2 1887   0.674   1.363   3.087  0.8276 -0.3413  2.5840
  630SOL     OW 1888   1.361   0.525   2.102 -0.1405  0.1534 -0.0967
  630SOL    HW1 1889   1.388   0.611   2.150  0.0095  1.4012  1.0124
  630SOL    HW2 1890   1.362   0.455   2.174 -0.3315  0.4893  0.0101
  631SOL     OW 1891   2.537   0.775   0.865  0.0658 -0.0524 -0.2275
  631SOL    HW1 1892   2.490   0.688   0.896 -2.7035 -1.5262  0.4537
  631SOL    HW2 1893   2.472   0.841   0.815  0.6273 -0.0377  0.4557
  632SOL     OW 1894   2.762   1.726   0.656 -0.2142 -0.6829  0.3389
  632SOL    HW1 1895   2.821   1.646   0.645  1.1638  1.6794  0.7289
  632SOL    HW2 1896   2.797   1.814   0.618  0.0280  1.6131  0.6103
  633SOL     OW 1897   0.617   1.319   0.740 -0.3290 -0.1830 -0.3973
  633SOL    HW1 1898   0.635   1.265   0.824 -0.2941 -2.7602  1.2383
  633SOL    HW2 1899   0.570   1.255   0.677  1.6439  2.1486  1.6927
  634SOL     OW 1900   1.525   3.096   0.338 -0.4375 -0.3128  0.2926
  634SOL    HW1 1901   1.425   3.099   0.333 -0.7207  0.1803 -4.3363
  634SOL    HW2 1902   1.557   3.075   0.428  2.3075 -2.5365 -0.8013
  635SOL     OW 1903   2.041   0.305   1.756 -0.2071  0.4157  0.1829
  635SOL    HW1 1904   2.024   0.253   1.669 -1.5216  2.5195 -3.5042
  635SOL    HW2 1905   2.070   0.400   1.727 -0.7135 -1.5789  2.0292
  636SOL     OW 1906   1.376   0.699   0.713  0.2510 -0.3995  0.0561
  636SOL    HW1 1907   1.348   0.794   0.743 -0.1555  0.0471  1.3551
  636SOL    HW2 1908   1.457   0.664   0.763  1.3889  1.1676  1.3487
  637SOL     OW 1909   2.051   1.553   2.880 -0.4103 -0.1054 -0.0568
  637SOL    HW1 1910   2.011   1.620   2.820  1.9065 -1.4691  3.5239
  637SOL    HW2 1911   2.153   1.563   2.885 -0.7609 -1.1490  0.5551
  638SOL     OW 1912   0.896   3.101   2.588  0.1368 -0.0448 -0.1568
  638SOL    HW1 1913   0.884   3.030   2.663 -0.3042 -0.9698  0.9363
  638SOL    HW2 1914   0.813   0.020   2.533  2.0612 -2.9353 -1.2931
  639SOL     OW 1915   1.124   1.978   1.484  0.4911 -0.5773  0.5850
  639SOL    HW1 1916   1.034   1.950   1.445  0.9394 -0.0732 -3.6596
  639SOL    HW2 1917   1.195   1.914   1.454 -0.1949 -0.4117 -0.0182
  640SOL     OW 1918   0.471   0.051   2.752  0.6794  0.0552 -0.1253
  640SOL    HW1 1919   0.404   0.069   2.831 -0.7730  2.1182 -0.0209
  640SOL    HW2 1920   0.452   3.064   2.711 -0.6876 -1.5713 -1.2883
  641SOL     OW 1921   0.347   0.695   0.309  0.0725 -0.5943 -0.5505
  641SOL    HW1 1922   0.257   0.657   0.326  2.0589  3.7997  1.3036
  641SOL    HW2 1923   0.345   0.789   0.351  1.6171  1.3978  0.7225
  642SOL     OW 1924   0.248   1.688   1.115 -0.5455  0.4947 -0.4973
  642SOL    HW1 1925   0.262   1.785   1.095 -3.1107 -3.2503 -3.8530
  642SOL    HW2 1926   0.279   1.638   1.035  2.8352 -0.1894  3.1479
  643SOL     OW 1927   0.932   1.756   2.726  0.6298 -0.2236 -0.5257
  643SOL    HW1 1928   0.872   1.837   2.727  1.1109 -0.3099  2.0632
  643SOL    HW2 1929   1.017   1.775   2.779  1.4854  0.9313  1.1247
  644SOL     OW 1930   1.591   2.398   0.356 -0.3990  0.0868 -0.5181
  644SOL    HW1 1931   1.686   2.395   0.319 -0.3214 -1.2859  2.2063
  644SOL    HW2 1932   1.577   2.485   0.402  0.5848  1.1390 -1.8369
  645SOL     OW 1933   1.038   2.236   1.467  0.0278 -0.0656 -0.1234
  645SOL    HW1 1934   1.084   2.144   1.456 -1.1537  2.4339  1.8843
  645SOL    HW2 1935   1.102   2.303   1.510 -0.3189 -0.8037  1.6884
  646SOL     OW 1936   0.531   2.532   0.128  0.4614  0.5747 -0.0970
  646SOL    HW1 1937   0.624   2.498   0.139  1.0838 -0.2238 -0.4463
  646SOL    HW2 1938   0.536   2.621   0.071 -0.8582 -0.5325  0.1465
  647SOL     OW 1939   0.247   2.932   2.020 -0.3127 -0.3625  0.0318
  647SOL    HW1 1940   0.182   2.943   2.098 -1.4005  0.8801  0.0229
  647SOL    HW2 1941   0.344   2.922   2.053 -1.1679 -1.9873  0.2631
  648SOL     OW 1942   2.578   1.073   1.121  0.4658  0.0902 -0.1781
  648SOL    HW1 1943   2.640   0.994   1.092  1.9229  0.2474 -1.7590
  648SOL    HW2 1944   2.500   1.045   1.177 -1.4330  2.7657  0.1628
  649SOL     OW 1945   2.077   2.682   2.758 -0.0605  0.2353 -0.0709
  649SOL    HW1 1946   2.103   2.652   2.854 -0.3823 -3.7546 -0.5180
  649SOL    HW2 1947   2.105   2.779   2.750  2.4311  1.6394 -0.5502
  650SOL     OW 1948   2.858   2.193   1.975 -0.7625  0.1858 -0.0894
  650SOL    HW1 1949   2.883   2.097   1.949  0.3875  0.3831 -1.3247
  650SOL    HW2 1950   2.906   2.253   1.906 -0.2189 -0.3033 -2.8337
  651SOL     OW 1951   1.176   1.801   2.872  0.2049  0.5800 -0.3734
  651SOL    HW1 1952   1.215   1.818   2.779  0.8310 -3.4833  1.6363
  651SOL    HW2 1953   1.252   1.801   2.937 -0.1063 -2.6650  0.1866
  652SOL     OW 1954   0.591   3.101   2.243 -0.1513 -0.6763 -0.3067
  652SOL    HW1 1955   0.613   0.091   2.200  0.1006  0.7696 -0.8269
  652SOL    HW2 1956   0.603   3.097   2.343  1.4714 -0.3277 -3.0288
  653SOL     OW 1957   1.951   1.896   0.803 -0.0529  0.3850  0.4754
  653SOL    HW1 1958   2.020   1.823   0.820  2.2506 -0.9070 -0.6454
  653SOL    HW2 1959   1.992   1.985   0.787 -1.6228 -0.4842  0.7187
  654SOL     OW 1960   2.414   2.831   2.269  0.2596  0.6941 -0.0381
  654SOL    HW1 1961   2.407   2.819   2.373 -1.4533  1.8811  2.2382
  654SOL    HW2 1962   2.361   2.911   2.235  2.1703  0.1542 -0.2454
  655SOL     OW 1963   2.426   2.171   0.997  0.2295  0.1773  0.0019
  655SOL    HW1 1964   2.388   2.264   1.021 -0.0943 -0.1343 -0.5785
  655SOL    HW2 1965   2.353   2.117   0.943  0.8515 -0.1461 -1.5034
  656SOL     OW 1966   2.728   1.637   2.857 -0.0240  0.4439  0.1943
  656SOL    HW1 1967   2.751   1.728   2.814  1.1168  1.3908  0.3927
  656SOL    HW2 1968   2.775   1.618   2.945  0.0425 -2.4091 -0.2404
  657SOL     OW 1969   0.027   1.223   0.650  0.3529 -0.6775 -0.4083
  657SOL    HW1 1970   3.057   1.214   0.578  2.0429 -1.1084 -1.6275
  657SOL    HW2 1971   3.088   1.219   0.745 -1.0806  5.7165  0.1457
  658SOL     OW 1972   1.057   1.661   1.338  0.3289 -0.3632 -0.3148
  658SOL    HW1 1973   1.105   1.643   1.249 -0.9372 -0.9983  2.2078
  658SOL    HW2 1974   0.957   1.647   1.326 -0.5581 -4.2283 -0.7210
  659SOL     OW 1975   1.235   3.060   1.351 -0.5617 -1.2210  0.1503
  659SOL    HW1 1976   1.200   0.028   1.284 -1.0207 -0.4583  0.0792
  659SOL    HW2 1977   1.216   3.095   1.446  0.3202 -0.2652  1.3245
  660SOL     OW 1978   2.463   0.436   0.730  0.0096 -0.0955 -0.0220
  660SOL    HW1 1979   2.438   0.485   0.811  1.1997  0.9136  1.2277
  660SOL    HW2 1980   2.528   0.488   0.673  0.3371  0.1886 -0.1589
  661SOL     OW 1981   0.425   1.872   0.260  0.1644  0.2568 -0.6220
  661SOL    HW1 1982   0.475   1.786   0.232  1.5254 -1.0855 -0.5320
  661SOL    HW2 1983   0.478   1.956   0.238  1.3552  1.5722  1.4223
  662SOL     OW 1984   2.394   0.817   2.127 -0.0348  0.0344 -0.1844
  662SOL    HW1 1985   2.450   0.736   2.103  1.2892 -0.0935 -0.0408
  662SOL    HW2 1986   2.328   0.837   2.053  0.1218 -2.0530  1.1943
  663SOL     OW 1987   1.769   1.465   1.049  0.1313  0.7819 -0.1409
  663SOL    HW1 1988   1.793   1.384   0.988 -5.3616 -2.7253 -3.1643
  663SOL    HW2 1989   1.844   1.530   1.066  2.9798  0.4075 -3.7548
  664SOL     OW 1990   0.550   3.046   1.205 -0.1753  0.1932  0.2779
  664SOL    HW1 1991   0.633   3.098   1.171  0.8075  1.2123  0.9817
  664SOL    HW2 1992   0.551   3.018   1.304 -0.5967  1.8009  2.2739
  665SOL     OW 1993   1.341   0.340   2.855  0.3952 -0.0340 -0.0501
  665SOL    HW1 1994   1.409   0.264   2.846 -0.2661 -2.4815 -1.1037
  665SOL    HW2 1995   1.376   0.425   2.815 -0.9340 -0.8504  1.0567
  666SOL     OW 1996   0.901   0.545   2.199 -0.0146 -0.3175  0.1168
  666SOL    HW1 1997   0.860   0.449   2.207 -2.9484 -1.8465  0.5892
  666SOL    HW2 1998   0.829   0.618   2.185  0.1058  3.7966  0.6111
  667SOL     OW 1999   1.395   1.336   1.451 -0.3522  0.1056 -0.3135
  667SOL    HW1 2000   1.334   1.382   1.521 -4.6909  1.0756 -1.4245
  667SOL    HW2 2001   1.358   1.351   1.356  0.6921 -0.3323  0.3305
  668SOL     OW 2002   0.419   1.188   2.176 -0.3917  0.1087  0.1266
  668SOL    HW1 2003   0.498   1.121   2.171  2.3962 -0.2106  0.3813
  668SOL    HW2 2004   0.448   1.276   2.143  2.8882 -2.4783 -1.9341
  669SOL     OW 2005   2.491   2.505   3.022  0.6317  0.0302 -0.3036
  669SOL    HW1 2006   2.511   2.456   2.933 -0.5785  0.0853  0.0098
  669SOL    HW2 2007   2.543   2.474   0.002  0.9316  1.1736  1.0212
  670SOL     OW 2008   2.671   1.267   1.755 -0.1515  0.1180  0.2278
  670SOL    HW1 2009   2.768   1.282   1.721  2.7119 -0.4394 -2.9266
  670SOL    HW2 2010   2.660   1.190   1.824 -0.4981 -0.7485  0.4165
  671SOL     OW 2011   2.887   1.963   0.615 -0.7316  0.3398 -0.0022
  671SOL    HW1 2012   2.816   2.033   0.617 -1.1023 -0.9757 -0.5571
  671SOL    HW2 2013   2.940   1.968   0.528  2.1696 -1.8834  0.4977
  672SOL     OW 2014   1.676   1.042   1.907  0.5978 -0.2406 -0.0094
  672SOL    HW1 2015   1.761   1.092   1.937  0.6058 -0.4625  2.4333
  672SOL    HW2 2016   1.681   1.028   1.801 -1.6000 -1.9139 -0.8769
  673SOL     OW 2017   2.865   2.113   1.527  0.2768  0.5304 -0.1360
  673SOL    HW1 2018   2.805   2.193   1.552 -2.3223  0.8229  0.5752
  673SOL    HW2 2019   2.806   2.049   1.473  1.3156  0.0814 -0.5167
  674SOL     OW 2020   0.731   1.920   1.663  0.3335  0.0921 -0.6246
  674SOL    HW1 2021   0.798   1.891   1.738  1.7798 -3.1165  0.6421
  674SOL    HW2 2022   0.689   2.011   1.687  0.0683  1.3271  1.3718
  675SOL     OW 2023   2.853   0.739   1.248  0.3016 -0.1850 -0.0009
  675SOL    HW1 2024   2.937   0.784   1.281  0.9937  1.3019 -1.2103
  675SOL    HW2 2025   2.852   0.640   1.262  2.3143  1.4923  0.3276
  676SOL     OW 2026   2.979   0.855   1.745 -0.0396 -0.2066  0.4143
  676SOL    HW1 2027   2.968   0.918   1.824 -1.7795 -0.4593 -1.8773
  676SOL    HW2 2028   2.893   0.813   1.719  0.8686 -0.6690  0.0653
  677SOL     OW 2029   2.040   1.126   2.539 -0.5428 -0.3071  0.1948
  677SOL    HW1 2030   1.958   1.174   2.502  0.7923  0.6350  0.7087
  677SOL    HW2 2031   2.039   1.131   2.642 -1.4791 -0.0011  2.6871
  678SOL     OW 2032   2.504   1.472   1.167  0.0431 -0.1223 -0.5637
  678SOL    HW1 2033   2.507   1.396   1.098  0.9269  1.5776  1.6620
  678SOL    HW2 2034   2.596   1.514   1.184 -2.1671  0.5945  1.7721
  679SOL     OW 2035   0.107   2.721   0.077 -0.3985  0.3107  0.3840
  679SOL    HW1 2036   0.113   2.634   0.016  0.7888  0.4185  1.2090
  679SOL    HW2 2037   0.103   2.696   0.176  0.4230 -0.4994 -0.6734
  680SOL     OW 2038   3.071   1.645   1.116  0.0968 -0.0686  0.0315
  680SOL    HW1 2039   0.070   1.662   1.096  1.8501 -0.0089  0.5792
  680SOL    HW2 2040   3.046   1.701   1.197  2.6609 -4.1179 -2.8733
  681SOL     OW 2041   1.034   0.095   0.783 -0.0165 -0.1929 -0.2623
  681SOL    HW1 2042   1.114   0.156   0.751  1.2622 -0.9141 -2.3998
  681SOL    HW2 2043   1.073   0.015   0.833  0.2231 -1.2968  2.1831
  682SOL     OW 2044   2.068   2.454   1.689  0.2433 -0.1181  0.3096
  682SOL    HW1 2045   2.133   2.377   1.700 -2.3418 -1.8353  0.8073
  682SOL    HW2 2046   2.001   2.438   1.614  0.2640 -0.2850 -1.8242
  683SOL     OW 2047   2.653   1.863   1.749 -0.0185 -0.1471 -0.0685
  683SOL    HW1 2048   2.594   1.899   1.675  2.2380  2.2081  2.6040
  683SOL    HW2 2049   2.727   1.802   1.710  2.1165 -0.9575 -1.0728
  684SOL     OW 2050   3.090   1.484   1.793  0.0518 -0.0324 -0.0246
  684SOL    HW1 2051   3.063   1.492   1.889  1.8969  1.8195 -2.4354
  684SOL    HW2 2052   0.088   1.458   1.794  1.7916  0.6651  1.7564
  685SOL     OW 2053   1.463   1.366   0.096 -0.0705 -0.0641 -0.8010
  685SOL    HW1 2054   1.498   1.456   0.133 -1.4543  1.5310  0.9372
  685SOL    HW2 2055   1.538   1.298   0.100  2.0095 -0.3172  0.7456
  686SOL     OW 2056   2.975   0.573   1.881 -0.2976  0.9107  0.0378
  686SOL    HW1 2057   3.067   0.534   1.902  1.5016  0.7596  1.6685
  686SOL    HW2 2058   2.955   0.601   1.784  1.0685  1.9246 -1.5584
  687SOL     OW 2059   1.543   0.150   2.880 -0.1520  0.6478 -0.4397
  687SOL    HW1 2060   1.492   0.062   2.862  0.9295  1.1013 -0.0922
  687SOL    HW2 2061   1.581   0.144   2.976  2.5767 -0.8100  2.4795
  688SOL     OW 2062   1.263   1.795   2.613  0.5324 -0.3625  0.0095
  688SOL    HW1 2063   1.233   1.707   2.574  1.7863  1.5314  1.2182
  688SOL    HW2 2064   1.366   1.799   2.599 -0.0979  0.4034 -0.1569
  689SOL     OW 2065   2.280   1.580   1.662 -0.2523  0.1585  0.2362
  689SOL    HW1 2066   2.331   1.535   1.739 -1.0567 -0.4568  1.7210
  689SOL    HW2 2067   2.334   1.599   1.579 -0.7183  0.5594  0.4429
  690SOL     OW 2068   2.319   2.202   1.268  0.5102 -0.1320 -0.5171
  690SOL    HW1 2069   2.251   2.157   1.335  0.4505 -1.8059  1.3021
  690SOL    HW2 2070   2.331   2.149   1.187  0.1509  0.3938  3.5336
  691SOL     OW 2071   0.176   1.713   0.656  0.1384  0.2502 -0.3652
  691SOL    HW1 2072   0.230   1.781   0.602 -0.1287 -3.2066  0.6476
  691SOL    HW2 2073   0.092   1.754   0.705  0.9900 -0.1455  5.3376
  692SOL     OW 2074   2.713   2.994   2.821  0.5296 -0.1046 -0.5374
  692SOL    HW1 2075   2.816   2.987   2.831 -0.3556 -2.3185 -0.4805
  692SOL    HW2 2076   2.686   3.081   2.777 -0.8274 -0.4999  0.7540
  693SOL     OW 2077   0.442   1.437   2.047  0.3035 -0.5108  0.7711
  693SOL    HW1 2078   0.463   1.517   1.984 -0.7076  0.4468  0.1664
  693SOL    HW2 2079   0.347   1.435   2.083  3.4756  2.7099  0.2780
  694SOL     OW 2080   2.538   0.320   2.028 -0.6417  0.5493 -0.0864
  694SOL    HW1 2081   2.639   0.341   2.027 -0.0820  1.3737 -0.8600
  694SOL    HW2 2082   2.497   0.349   1.939  0.4902  0.2606  0.4356
  695SOL     OW 2083   1.610   0.777   1.996  0.5199 -0.0841  0.4962
  695SOL    HW1 2084   1.639   0.788   2.090  0.3773  1.2704 -5.1358
  695SOL    HW2 2085   1.641   0.858   1.937  0.7440  0.6527 -1.0363
  696SOL     OW 2086   2.206   2.885   1.739 -0.0948 -0.1735 -0.1257
  696SOL    HW1 2087   2.169   2.917   1.831 -1.7580  0.4968  0.9121
  696SOL    HW2 2088   2.152   2.917   1.662  0.0925  0.0719  0.5017
  697SOL     OW 2089   1.107   0.535   2.026  0.4034  0.4960  0.1629
  697SOL    HW1 2090   1.044   0.545   2.105  2.8262  1.5298  0.0337
  697SOL    HW2 2091   1.203   0.528   2.053  0.1701 -0.0805  0.6416
  698SOL     OW 2092   2.381   1.648   2.599 -0.0385 -0.5370 -0.1442
  698SOL    HW1 2093   2.335   1.686   2.518 -1.1701 -1.8433  2.6948
  698SOL    HW2 2094   2.403   1.549   2.596  3.5638 -0.9277 -1.7867
  699SOL     OW 2095   2.339   0.927   0.251  0.1132 -0.4999 -0.2343
  699SOL    HW1 2096   2.305   0.888   0.166 -1.2055 -0.1952  1.2472
  699SOL    HW2 2097   2.297   0.870   0.321 -0.3755 -1.3638 -0.6428
  700SOL     OW 2098   1.247   3.036   0.913 -0.1816 -0.1171 -0.4463
  700SOL    HW1 2099   1.316   2.991   0.854  0.0713 -2.2205  2.4668
  700SOL    HW2 2100   1.290   3.035   1.005  0.7250 -0.0518  0.5978
  701SOL     OW 2101   3.012   0.542   0.634  0.0645  0.0825 -0.3446
  701SOL    HW1 2102   2.964   0.611   0.573 -0.1854 -0.1123 -1.3442
  701SOL    HW2 2103   3.033   0.578   0.727 -1.0090  2.5902 -1.5649
  702SOL     OW 2104   1.688   2.507   1.341  0.4264  0.1237  0.4664
  702SOL    HW1 2105   1.616   2.436   1.368  1.9100  0.5627  0.3589
  702SOL    HW2 2106   1.670   2.592   1.398  0.0120  2.9969  0.5503
  703SOL     OW 2107   0.057   0.483   1.144  0.2547  0.2311  0.0666
  703SOL    HW1 2108   0.028   0.548   1.220 -0.4314  2.8006 -0.2057
  703SOL    HW2 2109   0.154   0.497   1.130  1.2867  1.4649  0.2116
  704SOL     OW 2110   1.058   2.799   1.749  0.1889 -0.0250 -0.0618
  704SOL    HW1 2111   1.061   2.887   1.691  0.2440 -0.4168 -0.5798
  704SOL    HW2 2112   0.964   2.789   1.787 -0.1724  1.1281  0.3764
  705SOL     OW 2113   0.010   1.933   3.011 -0.0104 -0.2393 -0.3900
  705SOL    HW1 2114   0.073   1.923   3.092  0.4490  0.1791  0.2728
  705SOL    HW2 2115   3.012   1.938   3.038 -1.9212  0.3624 -0.7951
  706SOL     OW 2116   0.110   0.520   0.273  0.0177 -0.2582  0.4009
  706SOL    HW1 2117   0.129   0.504   0.175 -0.6794  1.8726  0.2686
  706SOL    HW2 2118   0.099   0.428   0.318 -2.6197  0.9403 -0.1939
  707SOL     OW 2119   1.967   2.729   2.076  0.2155  0.6699 -0.3489
  707SOL    HW1 2120   1.996   2.650   2.136  0.3017 -3.1044  0.3031
  707SOL    HW2 2121   1.913   2.800   2.125 -0.4265  0.7737 -1.5203
  708SOL     OW 2122   0.585   2.983   1.483 -0.0312 -0.1248  0.7913
  708SOL    HW1 2123   0.575   2.889   1.528  0.5075 -1.8593  2.6263
  708SOL    HW2 2124   0.558   3.051   1.552  0.6338 -2.2529 -1.3533
  709SOL     OW 2125   0.344   0.800   1.623  0.3552 -0.0753 -0.0873
  709SOL    HW1 2126   0.240   0.801   1.615  0.5604 -0.4818 -1.8433
  709SOL    HW2 2127   0.394   0.863   1.560  1.8386  0.9975 -0.0795
  710SOL     OW 2128   0.207   0.569   0.647  0.0268 -0.3123 -0.4564
  710SOL    HW1 2129   0.134   0.519   0.701  0.4677  0.9888 -0.0219
  710SOL    HW2 2130   0.174   0.659   0.630 -0.1955 -1.2684  0.9222
  711SOL     OW 2131   2.424   2.361   2.104  0.3854 -0.1426 -0.2269
  711SOL    HW1 2132   2.466   2.334   2.194  0.8736  0.5990 -0.8623
  711SOL    HW2 2133   2.372   2.452   2.108  1.9557  1.8963 -0.7993
  712SOL     OW 2134   0.173   2.765   2.420  0.2685 -0.2050  0.0534
  712SOL    HW1 2135   0.124   2.813   2.495  0.0915 -0.6402 -1.8176
  712SOL    HW2 2136   0.177   2.822   2.331  1.1840  0.0221 -1.6135
  713SOL     OW 2137   2.335   0.230   0.605 -0.0023 -0.1529  0.2476
  713SOL    HW1 2138   2.385   0.294   0.660 -3.3909 -1.6922 -1.6060
  713SOL    HW2 2139   2.372   0.235   0.511  1.1505  2.3740 -1.3162
  714SOL     OW 2140   1.809   1.447   2.668  0.3137  0.7015  0.5098
  714SOL    HW1 2141   1.857   1.533   2.692 -1.4314 -0.6555  0.6102
  714SOL    HW2 2142   1.840   1.407   2.581 -0.2627  0.5976  0.0826
  715SOL     OW 2143   0.002   0.594   0.879 -0.6086 -0.0094  0.0490
  715SOL    HW1 2144   0.028   0.546   0.964 -1.4293 -0.5750  0.9900
  715SOL    HW2 2145   3.095   0.695   0.897  1.4777  0.5494  3.0601
  716SOL     OW 2146   0.838   0.634   1.615  0.3552  0.2119 -0.6686
  716SOL    HW1 2147   0.783   0.566   1.563 -0.1327  0.1986  1.2634
  716SOL    HW2 2148   0.871   0.598   1.707  2.1861  0.7149  2.2977
  717SOL     OW 2149   1.350   0.817   2.211  0.3052  0.3996  0.1804
  717SOL    HW1 2150   1.418   0.840   2.281  2.0082  0.1144  1.8825
  717SOL    HW2 2151   1.373   0.852   2.119  0.2055  0.7541  0.1555
  718SOL     OW 2152   1.247   3.045   0.574 -0.0441  0.7604 -0.1203
  718SOL    HW1 2153   1.260   0.026   0.634 -0.1722 -1.4160  1.5965
  718SOL    HW2 2154   1.210   3.078   0.486 -2.4744 -1.8244  2.1340
  719SOL     OW 2155   2.973   2.695   2.830 -0.4637  0.2511  0.5299
  719SOL    HW1 2156   2.883   2.661   2.790 -0.0648  2.7472  3.0592
  719SOL    HW2 2157   3.045   2.623   2.818  0.4165 -0.0360  0.8483
  720SOL     OW 2158   1.586   0.360   1.697  0.3320  0.3383 -0.6484
  720SOL    HW1 2159   1.501   0.377   1.754 -1.4892  1.0228 -0.0603
  720SOL    HW2 2160   1.662   0.341   1.760  2.2792 -1.3799  0.4883
  721SOL     OW 2161   0.135   2.741   0.956  0.2626 -0.2854  0.1504
  721SOL    HW1 2162   0.115   2.840   0.945  0.1112 -0.6621 -2.8270
  721SOL    HW2 2163   0.073   2.701   1.027  0.0490  0.9244 -0.2603
  722SOL     OW 2164   0.912   1.084   2.756  0.0756  0.3297  0.2980
  722SOL    HW1 2165   0.835   1.142   2.734  3.4105 -2.0920  1.0184
  722SOL    HW2 2166   0.954   1.128   2.836  1.3968 -2.3406 -0.1784
  723SOL     OW 2167   1.982   1.407   1.318  0.4212  0.1789 -0.3929
  723SOL    HW1 2168   2.072   1.447   1.334 -0.6427  0.3204 -3.0721
  723SOL    HW2 2169   1.922   1.472   1.266 -1.2017 -2.1305 -1.8599
  724SOL     OW 2170   0.800   1.857   0.372 -0.2565  0.5252 -0.6102
  724SOL    HW1 2171   0.830   1.770   0.419 -1.9800  3.0443 -1.2509
  724SOL    HW2 2172   0.827   1.855   0.272 -2.1779 -2.1337  1.6652
  725SOL     OW 2173   0.070   0.748   1.569  0.1451 -0.3654  0.5585
  725SOL    HW1 2174   0.055   0.815   1.490  3.2034  0.9823 -1.5922
  725SOL    HW2 2175   0.017   0.768   1.651  2.5740  0.1845 -0.2326
  726SOL     OW 2176   2.348   1.082   3.027  0.2668  0.1712  0.0045
  726SOL    HW1 2177   2.251   1.052   3.044 -0.6255 -0.1888  0.8249
  726SOL    HW2 2178   2.421   1.010   3.045  4.0879  0.5565  0.1589
  727SOL     OW 2179   2.224   0.906   2.572 -0.2089  0.1081  0.0532
  727SOL    HW1 2180   2.163   0.988   2.571 -0.4344  2.1456 -2.3216
  727SOL    HW2 2181   2.233   0.873   2.476  0.4199  1.8007 -1.0250
  728SOL     OW 2182   1.762   2.038   1.425  0.1445  0.0912  0.1679
  728SOL    HW1 2183   1.862   2.038   1.409  0.3445 -2.0762 -2.8026
  728SOL    HW2 2184   1.714   2.032   1.335  0.4126 -1.3506 -1.9537
  729SOL     OW 2185   1.933   1.150   2.015 -0.0579 -0.0745  0.0616
  729SOL    HW1 2186   1.879   1.235   2.039  0.6522  0.9391 -1.1288
  729SOL    HW2 2187   2.035   1.173   2.009  3.3744 -1.4639  0.0831
  730SOL     OW 2188   1.389   0.696   1.050  0.0177  0.2937  0.7158
  730SOL    HW1 2189   1.423   0.631   1.115 -3.0010  0.6313 -1.3286
  730SOL    HW2 2190   1.455   0.716   0.974 -2.9815  2.4004 -0.1229
  731SOL     OW 2191   0.640   0.797   3.013 -0.1907 -0.0383  0.0077
  731SOL    HW1 2192   0.720   0.790   2.952  1.4102 -0.7332 -1.8913
  731SOL    HW2 2193   0.639   0.711   3.067  1.2384  0.5641 -0.8993
  732SOL     OW 2194   0.377   0.930   0.449  0.2429 -0.4845 -0.1273
  732SOL    HW1 2195   0.432   0.879   0.519  1.4617 -1.1434 -0.6654
  732SOL    HW2 2196   0.316   0.991   0.511 -2.0605 -2.9826 -1.3918
  733SOL     OW 2197   1.326   1.623   2.187  0.2922  0.6038  0.1718
  733SOL    HW1 2198   1.277   1.712   2.186  1.1071 -0.8515  2.1345
  733SOL    HW2 2199   1.368   1.602   2.098  0.5243  0.3380  0.6727
  734SOL     OW 2200   0.385   2.403   3.027 -0.0311 -0.0040  0.0006
  734SOL    HW1 2201   0.418   2.437   0.015 -0.5388 -1.4555 -0.7974
  734SOL    HW2 2202   0.351   2.309   3.040  2.0006 -0.4465  3.2547
  735SOL     OW 2203   2.630   0.254   1.031 -0.8798  0.7283  0.2439
  735SOL    HW1 2204   2.695   0.233   1.106  2.2824  2.2815  3.2188
  735SOL    HW2 2205   2.662   0.344   0.996 -0.0253 -1.8636  1.2619
  736SOL     OW 2206   1.968   1.571   2.359  0.2109  0.3964  0.2558
  736SOL    HW1 2207   2.056   1.520   2.355 -0.1697 -0.1055  0.5554
  736SOL    HW2 2208   1.986   1.650   2.417  0.3266 -1.4504 -0.9142
  737SOL     OW 2209   0.055   0.762   0.358 -0.0104  0.6229  0.5280
  737SOL    HW1 2210   0.025   0.827   0.284  1.4717  1.0563 -4.0824
  737SOL    HW2 2211   0.066   0.667   0.318 -2.4193  1.0413  0.5472
  738SOL     OW 2212   0.864   2.026   1.333 -0.3531  0.0631 -0.1574
  738SOL    HW1 2213   0.798   1.958   1.298  0.4465  1.3859  1.4216
  738SOL    HW2 2214   0.813   2.100   1.380  0.1901 -1.6064 -0.5402
  739SOL     OW 2215   1.693   2.663   2.462  0.7909 -0.1993  0.1263
  739SOL    HW1 2216   1.734   2.658   2.557  2.2708  0.4908  0.3922
  739SOL    HW2 2217   1.664   2.754   2.425 -0.6629  3.8771 -3.2925
  740SOL     OW 2218   2.330   2.408   1.072  0.1475  0.1076 -0.1938
  740SOL    HW1 2219   2.278   2.358   1.147 -1.7448 -3.8152  3.2731
  740SOL    HW2 2220   2.390   2.479   1.112 -0.9089  2.2464 -0.0051
  741SOL     OW 2221   2.384   0.634   0.102 -0.1528 -0.0070  0.0845
  741SOL    HW1 2222   2.356   0.577   0.023 -1.7527  2.1026  0.0329
  741SOL    HW2 2223   2.435   0.578   0.168  0.8979  0.6012  1.5395
  742SOL     OW 2224   1.150   2.393   3.079  0.5557  0.0939  0.2784
  742SOL    HW1 2225   1.047   2.387   3.067 -0.1752 -0.4540  0.9039
  742SOL    HW2 2226   1.188   2.467   0.041  0.2726  3.0505 -1.0477
  743SOL     OW 2227   2.672   1.440   2.106  0.8353  0.3937 -0.0803
  743SOL    HW1 2228   2.709   1.471   2.018  0.9556  4.5594 -0.8101
  743SOL    HW2 2229   2.636   1.343   2.108  2.7229  0.7949  0.2290
  744SOL     OW 2230   2.966   0.159   0.304 -0.0600 -0.1381  0.1447
  744SOL    HW1 2231   2.886   0.206   0.342  0.4519 -1.9444 -1.4942
  744SOL    HW2 2232   2.937   0.084   0.239 -0.4779 -0.0998 -0.8422
  745SOL     OW 2233   2.504   1.784   1.317 -0.1556  0.0846  0.0770
  745SOL    HW1 2234   2.495   1.688   1.352  1.1179  2.2909 -1.7519
  745SOL    HW2 2235   2.480   1.773   1.217  1.2045 -1.5276 -1.1357
  746SOL     OW 2236   0.982   1.640   0.451  0.0057  0.1093  0.0785
  746SOL    HW1 2237   0.965   1.634   0.555 -1.4138  2.1523  3.0233
  746SOL    HW2 2238   1.001   1.554   0.398  1.0750  0.4297 -1.7130
  747SOL     OW 2239   1.152   1.489   1.580 -0.3214  0.5140  0.1764
  747SOL    HW1 2240   1.159   1.534   1.486  0.9514 -0.1901 -1.3023
  747SOL    HW2 2241   1.065   1.435   1.587  0.2461  2.9660 -1.4451
  748SOL     OW 2242   0.326   2.843   3.076  0.1443 -0.1804 -0.0970
  748SOL    HW1 2243   0.253   2.796   0.031 -2.6455 -0.7798 -2.0594
  748SOL    HW2 2244   0.334   2.937   0.008 -0.4078  1.9706 -1.9925
  749SOL     OW 2245   0.274   0.982   2.831  0.4031  0.2202 -0.5940
  749SOL    HW1 2246   0.318   0.921   2.900 -2.4563 -0.0291  1.6105
  749SOL    HW2 2247   0.312   0.968   2.739 -0.6357 -2.6835  0.4792
  750SOL     OW 2248   1.715   1.005   1.593 -0.0762  0.6154 -0.4150
  750SOL    HW1 2249   1.645   1.067   1.559  1.3856 -2.7321 -0.2112
  750SOL    HW2 2250   1.801   1.061   1.613  0.6223 -0.2121 -1.1256
  751SOL     OW 2251   2.906   0.831   0.509  0.1177 -0.3930  0.3926
  751SOL    HW1 2252   2.990   0.817   0.454  0.6768 -1.7976 -0.8192
  751SOL    HW2 2253   2.885   0.926   0.534 -0.4844 -3.2397 -0.9644
  752SOL     OW 2254   2.882   2.743   0.945  0.3414 -0.0805 -0.4446
  752SOL    HW1 2255   2.847   2.837   0.954  1.6701 -0.6221 -1.4667
  752SOL    HW2 2256   2.915   2.700   1.031  0.7388 -1.1834  0.1784
  753SOL     OW 2257   0.711   2.405   1.223  0.1487 -0.6894 -0.1913
  753SOL    HW1 2258   0.751   2.335   1.285  0.1939 -1.0451  3.3349
  753SOL    HW2 2259   0.674   2.359   1.138  2.2771 -0.5122  1.4861
  754SOL     OW 2260   3.002   2.678   1.929  0.1939 -0.3448  0.3293
  754SOL    HW1 2261   2.994   2.743   2.005  0.5495 -0.0352 -0.7318
  754SOL    HW2 2262   2.954   2.591   1.967  2.9982  1.1895 -1.4698
  755SOL     OW 2263   2.503   0.862   3.061  0.2145  0.1226  0.0236
  755SOL    HW1 2264   2.600   0.854   3.088  0.0795 -0.3796 -3.1952
  755SOL    HW2 2265   2.451   0.779   3.094 -0.3390 -3.8118  1.5961
  756SOL     OW 2266   1.892   2.112   0.152 -0.0800 -0.1631 -0.1427
  756SOL    HW1 2267   1.857   2.174   0.075 -0.4638  0.0633 -2.1800
  756SOL    HW2 2268   1.992   2.101   0.158 -1.3442 -0.6125  1.3575
  757SOL     OW 2269   2.567   0.617   0.506 -0.1031  0.3206 -0.6378
  757SOL    HW1 2270   2.579   0.685   0.438  0.7384  0.5594  4.6843
  757SOL    HW2 2271   2.618   0.641   0.586 -1.3902  4.1586 -1.8040
  758SOL     OW 2272   2.206   0.954   1.967  0.2368  0.2252  0.1197
  758SOL    HW1 2273   2.114   0.908   1.947  0.2977  0.9522 -1.5889
  758SOL    HW2 2274   2.196   1.035   2.025  0.6635 -2.3133  2.9939
  759SOL     OW 2275   2.606   0.480   1.317  0.2686 -0.1508  0.5832
  759SOL    HW1 2276   2.518   0.529   1.291  0.4893  0.2277  2.6381
  759SOL    HW2 2277   2.675   0.489   1.243  0.1086  0.6753  2.4759
  760SOL     OW 2278   0.448   1.410   1.382  0.1555 -0.0902 -0.4761
  760SOL    HW1 2279   0.377   1.484   1.376 -0.3937  2.7326 -0.9467
  760SOL    HW2 2280   0.436   1.354   1.467 -0.5280  3.9477 -2.4633
  761SOL     OW 2281   0.819   0.672   0.167 -0.5559 -0.1694 -0.2516
  761SOL    HW1 2282   0.721   0.634   0.156  0.1252  2.3401  0.0668
  761SOL    HW2 2283   0.826   0.759   0.111  0.9643  0.9790 -0.1089
  762SOL     OW 2284   0.680   1.860   1.237  0.6472  0.0180  0.1146
  762SOL    HW1 2285   0.671   1.765   1.189 -0.4072 -2.8907 -0.4122
  762SOL    HW2 2286   0.627   1.855   1.323  0.6195 -0.0705 -2.3910
  763SOL     OW 2287   1.417   0.623   1.838 -0.9876 -0.6002 -0.2388
  763SOL    HW1 2288   1.408   0.641   1.741 -0.5292  0.4683 -0.3589
  763SOL    HW2 2289   1.494   0.672   1.891  1.9880  1.5345  2.7177
  764SOL     OW 2290   2.970   2.957   2.877 -0.4133 -0.0759 -0.2820
  764SOL    HW1 2291   2.984   2.975   2.976  1.0037  0.1096  2.5136
  764SOL    HW2 2292   2.988   2.857   2.854 -0.0949 -1.7611  1.0950
  765SOL     OW 2293   0.783   0.074   1.851  0.0060 -0.1039  0.0817
  765SOL    HW1 2294   0.689   0.099   1.881  0.4758 -0.3951  0.4350
  765SOL    HW2 2295   0.839   0.150   1.809  0.5624 -2.7208  0.4060
  766SOL     OW 2296   2.760   1.971   2.322 -0.3541 -0.0195 -0.1329
  766SOL    HW1 2297   2.697   1.935   2.396 -2.2366  2.9406 -1.2582
  766SOL    HW2 2298   2.858   1.953   2.337  0.2710  0.4138 -0.5122
  767SOL     OW 2299   1.402   1.136   2.299  0.6377  0.4456  0.2225
  767SOL    HW1 2300   1.308   1.153   2.337  1.0056 -0.6654  0.1241
  767SOL    HW2 2301   1.400   1.111   2.199 -2.4708  1.2839  0.2115
  768SOL     OW 2302   1.512   1.616   0.171 -0.6332 -0.2719  0.0457
  768SOL    HW1 2303   1.412   1.641   0.160  0.3713  1.2944  0.3388
  768SOL    HW2 2304   1.553   1.680   0.237 -0.2879 -0.8818  1.1874
  769SOL     OW 2305   0.335   1.555   0.877 -0.4370  0.0460  0.3218
  769SOL    HW1 2306   0.311   1.602   0.785 -0.9253  2.4131 -1.1209
  769SOL    HW2 2307   0.436   1.561   0.890  0.5893 -1.0585  0.3667
  770SOL     OW 2308   1.700   0.800   2.251  0.1729  0.4829  0.2697
  770SOL    HW1 2309   1.791   0.843   2.251  3.2718 -0.0541 -1.2614
  770SOL    HW2 2310   1.640   0.840   2.319  1.0851 -0.9632 -1.1166
  771SOL     OW 2311   2.471   0.016   2.449 -0.3035  0.0426 -0.1857
  771SOL    HW1 2312   2.446   0.071   2.368 -2.9291 -4.3225 -1.3024
  771SOL    HW2 2313   2.389   0.002   2.513 -2.3173 -1.1522  4.0452
  772SOL     OW 2314   2.513   1.668   2.117  0.4354  0.0884  0.1300
  772SOL    HW1 2315   2.420   1.637   2.132 -0.6005  1.8609  1.2035
  772SOL    HW2 2316   2.578   1.585   2.117 -0.9845 -0.3996  0.1765
  773SOL     OW 2317   0.917   1.341   1.529 -1.2398  0.1976 -0.1266
  773SOL    HW1 2318   0.940   1.292   1.443  0.3800  2.1265 -0.8121
  773SOL    HW2 2319   0.845   1.408   1.510  1.5692 -1.6549 -1.1558
  774SOL     OW 2320   1.143   0.615   2.951  0.2007 -0.3992  0.2285
  774SOL    HW1 2321   1.172   0.685   2.881  0.5334  1.2974  0.7286
  774SOL    HW2 2322   1.047   0.585   2.939 -1.6574 -0.7404  0.5502
  775SOL     OW 2323   1.460   2.141   0.250 -0.2061  0.5125 -0.1969
  775SOL    HW1 2324   1.490   2.235   0.272  1.2166  1.9242  1.3854
  775SOL    HW2 2325   1.436   2.137   0.154 -0.5235  1.9338  0.9773
  776SOL     OW 2326   3.050   1.102   1.654 -0.1093 -0.5247 -0.4176
  776SOL    HW1 2327   0.015   1.130   1.727 -1.3019  1.2722 -0.1939
  776SOL    HW2 2328   3.030   1.002   1.672  0.1959  0.6593 -2.2771
  777SOL     OW 2329   2.569   2.351   2.326 -0.3408  0.5135 -0.3848
  777SOL    HW1 2330   2.565   2.451   2.322  0.5612 -1.0742 -2.9042
  777SOL    HW2 2331   2.661   2.316   2.307  0.5372 -0.7630  1.1669
  778SOL     OW 2332   1.736   1.329   2.049 -0.0308  0.0585  0.4518
  778SOL    HW1 2333   1.663   1.318   1.977 -0.5449 -0.5678 -2.3163
  778SOL    HW2 2334   1.740   1.427   2.081  0.4005  0.5539  0.8703
  779SOL     OW 2335   2.932   1.109   0.468  0.1322  0.0388  0.0346
  779SOL    HW1 2336   2.877   1.180   0.515 -1.9902  1.8953  2.7031
  779SOL    HW2 2337   2.883   1.089   0.379 -0.4537 -0.5818  0.5555
  780SOL     OW 2338   2.081   2.967   2.777 -0.7153  0.3356 -0.1161
  780SOL    HW1 2339   2.024   3.026   2.714  0.1298 -1.6151 -0.9966
  780SOL    HW2 2340   2.081   2.995   2.874  0.8467 -2.6755  0.3965
  781SOL     OW 2341   2.746   1.581   1.225  0.3817 -0.0406 -0.3570
  781SOL    HW1 2342   2.800   1.624   1.150  0.9236  1.9859  0.4459
  781SOL    HW2 2343   2.801   1.581   1.312  0.1120  2.2239  0.0902
  782SOL     OW 2344   2.972   2.314   2.971 -0.6941 -0.3132  0.6903
  782SOL    HW1 2345   2.948   2.332   3.066 -0.5822  0.5338  0.7687
  782SOL    HW2 2346   2.886   2.320   2.918  1.7840  2.6633 -0.0115
  783SOL     OW 2347   0.602   1.573   0.824  0.6342 -0.8854  0.4187
  783SOL    HW1 2348   0.613   1.474   0.793 -0.1762  0.2776 -0.0958
  783SOL    HW2 2349   0.587   1.637   0.743  1.7852  2.7327 -0.9092
  784SOL     OW 2350   2.293   1.284   0.350 -0.2639 -0.2446  0.0713
  784SOL    HW1 2351   2.373   1.231   0.313  0.3289 -1.3843 -0.7552
  784SOL    HW2 2352   2.249   1.344   0.279  0.5887 -0.5285  0.1076
  785SOL     OW 2353   1.987   2.742   0.454  0.7605  0.5424 -0.4558
  785SOL    HW1 2354   1.910   2.795   0.413 -0.2459  0.0601  1.0222
  785SOL    HW2 2355   1.959   2.652   0.496  3.2625  0.2904 -1.6116
  786SOL     OW 2356   0.771   1.990   2.677  0.2775  0.9595  0.5490
  786SOL    HW1 2357   0.714   1.920   2.624  0.8817 -2.3911  0.5541
  786SOL    HW2 2358   0.713   2.024   2.753  2.5689 -1.9505  0.0400
  787SOL     OW 2359   1.484   0.434   1.128 -0.0570  0.3291 -0.4481
  787SOL    HW1 2360   1.509   0.360   1.190  1.0795  1.0929 -1.7020
  787SOL    HW2 2361   1.425   0.403   1.051 -0.7110  0.2371  1.1756
  788SOL     OW 2362   0.658   1.028   0.074  0.3848 -0.5563 -0.3243
  788SOL    HW1 2363   0.626   0.950   0.018 -1.3502 -0.9353  1.8456
  788SOL    HW2 2364   0.625   1.122   0.038 -0.6410  1.0633 -1.0234
  789SOL     OW 2365   2.722   1.948   1.329 -0.6250  0.3165  0.4332
  789SOL    HW1 2366   2.647   1.879   1.343 -0.0905 -2.7736  2.2624
  789SOL    HW2 2367   2.692   2.014   1.258 -1.9537  0.4011 -2.5744
  790SOL     OW 2368   1.429   0.132   2.151 -0.6115  0.3483  0.1505
  790SOL    HW1 2369   1.366   0.189   2.211  2.4609  1.6507  0.9184
  790SOL    HW2 2370   1.435   0.186   2.066 -0.0939 -0.7168  2.0282
  791SOL     OW 2371   0.972   0.494   0.285  0.5177 -0.2243  0.1577
  791SOL    HW1 2372   0.972   0.418   0.220 -2.2059  2.6184  0.4131
  791SOL    HW2 2373   0.919   0.569   0.248 -0.8079 -1.7666 -0.0429
  792SOL     OW 2374   1.304   0.327   1.470  0.0299 -0.6590  0.2553
  792SOL    HW1 2375   1.379   0.258   1.458  0.5233 -1.4857 -0.7977
  792SOL    HW2 2376   1.334   0.425   1.463  1.6290  0.2972  0.9516
  793SOL     OW 2377   0.891   2.927   0.828  0.1259  0.1110  0.2920
  793SOL    HW1 2378   0.925   3.023   0.824  1.0202  0.2497  0.7137
  793SOL    HW2 2379   0.876   2.889   0.922 -0.1437 -1.5572 -0.8121
  794SOL     OW 2380   0.674   1.237   1.846 -0.2486  0.0559 -0.5464
  794SOL    HW1 2381   0.736   1.256   1.931  0.4279  1.3055  1.6555
  794SOL    HW2 2382   0.638   1.144   1.846  1.0211  0.8588 -0.7150
  795SOL     OW 2383   0.178   1.484   2.140  0.5209  0.3122 -1.1416
  795SOL    HW1 2384   0.089   1.525   2.106 -0.1170 -0.6238  0.6083
  795SOL    HW2 2385   0.201   1.551   2.210 -2.2039  0.0849  1.3531
  796SOL     OW 2386   1.839   1.670   1.763 -0.1154 -0.1093  0.3039
  796SOL    HW1 2387   1.904   1.748   1.757  1.6982 -0.4997  2.4279
  796SOL    HW2 2388   1.782   1.683   1.852 -0.0092  0.5567  3.1454
  797SOL     OW 2389   0.108   0.208   2.610  0.1411  0.1134  0.0554
  797SOL    HW1 2390   0.164   0.128   2.572  0.1126 -1.1772 -2.4122
  797SOL    HW2 2391   0.058   0.182   2.697  1.7049  2.1319 -0.4156
  798SOL     OW 2392   0.016   2.348   1.933  0.2559 -0.3406  0.3745
  798SOL    HW1 2393   3.071   2.366   1.847 -1.0589 -0.9021  0.1960
  798SOL    HW2 2394   0.111   2.317   1.908 -0.4883  0.3831 -1.0588
  799SOL     OW 2395   2.929   2.388   0.142 -0.1262 -0.0181 -0.1489
  799SOL    HW1 2396   2.972   2.472   0.100  0.6943  3.0292 -0.3880
  799SOL    HW2 2397   2.839   2.412   0.177 -1.9708 -0.9290  0.4413
  800SOL     OW 2398   0.908   1.650   0.696 -0.6490  0.4215  0.1240
  800SOL    HW1 2399   0.852   1.724   0.738  0.0418  1.7151 -2.2709
  800SOL    HW2 2400   0.994   1.634   0.753  2.6614  0.1840  3.0683
  801SOL     OW 2401   2.749   0.716   0.697 -0.2696  0.4655  0.2080
  801SOL    HW1 2402   2.787   0.762   0.613 -0.2248  1.0634 -3.0359
  801SOL    HW2 2403   2.681   0.765   0.754  2.3137 -0.3483  1.4441
  802SOL     OW 2404   2.594   1.448   0.428 -0.2508  0.2277  0.3796
  802SOL    HW1 2405   2.595   1.548   0.400  0.7279  0.9161 -2.1353
  802SOL    HW2 2406   2.507   1.426   0.482 -1.4525 -0.9082  0.9659
  803SOL     OW 2407   1.630   1.915   2.947  0.3958  0.2336  0.2198
  803SOL    HW1 2408   1.622   1.928   2.847 -1.1926  0.6960  0.3525
  803SOL    HW2 2409   1.725   1.921   2.974 -4.0642  1.3286  1.7229
  804SOL     OW 2410   2.139   1.987   0.288 -0.4017 -0.3461  0.2159
  804SOL    HW1 2411   2.103   1.900   0.321  1.7686  1.7841  1.2898
  804SOL    HW2 2412   2.212   1.972   0.220  1.4417  1.1746  1.1747
  805SOL     OW 2413   2.891   1.674   2.529  0.0376 -0.2551 -0.6070
  805SOL    HW1 2414   2.822   1.706   2.598  0.7785  1.1318  0.7245
  805SOL    HW2 2415   2.899   1.747   2.456 -0.5544  2.0787 -0.8092
  806SOL     OW 2416   0.210   0.232   0.314  0.0877  0.1132  0.0141
  806SOL    HW1 2417   0.159   0.278   0.388  0.0798 -0.1392 -2.2037
  806SOL    HW2 2418   0.151   0.155   0.278  0.2618 -0.7789  0.3515
  807SOL     OW 2419   2.435   1.360   2.609 -0.0434 -0.4265  0.3983
  807SOL    HW1 2420   2.374   1.293   2.656  1.7641 -0.6397 -1.8445
  807SOL    HW2 2421   2.526   1.317   2.595  0.6964 -2.0820 -1.8686
  808SOL     OW 2422   0.123   1.460   0.496 -0.3400 -0.3178 -0.1863
  808SOL    HW1 2423   0.104   1.395   0.575  2.7286  0.1651  3.0405
  808SOL    HW2 2424   0.144   1.553   0.524 -1.7619 -2.2516 -2.2882
  809SOL     OW 2425   2.510   0.606   2.776 -0.6845 -0.0155 -0.2180
  809SOL    HW1 2426   2.526   0.684   2.831  0.0723 -1.2338 -0.3833
  809SOL    HW2 2427   2.415   0.593   2.754  1.2699  1.3036  1.2560
  810SOL     OW 2428   1.012   0.854   0.345 -0.1008  0.0487  0.1646
  810SOL    HW1 2429   1.046   0.769   0.296  2.9352 -1.8019 -0.2441
  810SOL    HW2 2430   0.972   0.919   0.280 -0.0605 -0.0195  1.8020
  811SOL     OW 2431   1.566   2.479   0.887 -0.1210 -0.0878  0.5398
  811SOL    HW1 2432   1.483   2.532   0.893  4.0603 -1.5291 -0.6758
  811SOL    HW2 2433   1.567   2.417   0.807 -0.2896  1.2826  1.3146
  812SOL     OW 2434   0.760   2.568   1.670 -1.0820 -0.4655 -0.3670
  812SOL    HW1 2435   0.727   2.470   1.677 -1.5085  0.4079 -0.4468
  812SOL    HW2 2436   0.800   2.593   1.761 -1.8796 -1.7529  0.9250
  813SOL     OW 2437   1.164   0.278   1.898 -0.0933  0.5032 -0.1810
  813SOL    HW1 2438   1.114   0.201   1.945  1.7153 -1.4329  0.8604
  813SOL    HW2 2439   1.139   0.371   1.930  1.3059 -3.8319 -1.6253
  814SOL     OW 2440   1.362   3.063   2.787 -0.1006 -0.5341 -0.0088
  814SOL    HW1 2441   1.318   3.053   2.881 -1.7252  2.6733  0.9523
  814SOL    HW2 2442   1.358   2.978   2.731  0.7233 -0.1298  1.5775
  815SOL     OW 2443   0.613   0.491   1.968 -1.0012 -0.7352 -0.4404
  815SOL    HW1 2444   0.574   0.535   1.889 -0.2269  1.2823  2.3839
  815SOL    HW2 2445   0.641   0.562   2.035 -2.5123 -1.4159 -0.5777
  816SOL     OW 2446   2.327   0.440   3.022  0.1942 -0.0092  0.4953
  816SOL    HW1 2447   2.258   0.420   3.095  1.7582  0.7494 -2.1071
  816SOL    HW2 2448   2.385   0.360   3.002  1.6007  1.9647 -1.9906
  817SOL     OW 2449   1.776   0.259   2.689 -0.0620 -0.1095 -0.7065
  817SOL    HW1 2450   1.712   0.257   2.608 -0.9611  0.9278 -0.8727
  817SOL    HW2 2451   1.740   0.208   2.767 -0.9612  1.3644 -0.9690
  818SOL     OW 2452   2.153   0.364   0.109  0.2788  0.8312 -0.7438
  818SOL    HW1 2453   2.160   0.266   0.148 -0.9735 -0.9433  0.3021
  818SOL    HW2 2454   2.146   0.430   0.184 -1.9865 -1.8853  1.3542
  819SOL     OW 2455   2.244   1.451   0.139 -0.3377  0.2845 -0.1641
  819SOL    HW1 2456   2.297   1.541   0.160 -0.4536  0.5084  0.3594
  819SOL    HW2 2457   2.310   1.392   0.084  2.7671 -1.8462  1.1993
  820SOL     OW 2458   2.887   1.907   0.062 -0.0524 -0.2650  0.1594
  820SOL    HW1 2459   2.788   1.881   0.072  0.5879 -2.8116  1.8563
  820SOL    HW2 2460   2.937   1.830   0.096 -0.5075  0.2086  2.2561
  821SOL     OW 2461   0.399   2.527   1.502 -0.2570  0.0889  0.1920
  821SOL    HW1 2462   0.331   2.606   1.510  0.1844 -1.0524 -0.1058
  821SOL    HW2 2463   0.423   2.503   1.404  0.2084 -0.0219  0.2762
  822SOL     OW 2464   2.781   2.790   2.528 -0.4871  0.3256  0.2223
  822SOL    HW1 2465   2.837   2.875   2.511  2.4669  2.7251 -0.7615
  822SOL    HW2 2466   2.701   2.778   2.466  1.1424  4.1374 -0.0117
  823SOL     OW 2467   1.578   0.027   2.336  0.1606 -0.4547  0.0331
  823SOL    HW1 2468   1.504   0.050   2.260 -2.0959  2.0049 -0.5082
  823SOL    HW2 2469   1.615   0.116   2.371 -1.5500 -0.6173  2.1338
  824SOL     OW 2470   2.417   1.742   1.070 -0.4070  0.3700 -0.1900
  824SOL    HW1 2471   2.448   1.757   0.971 -0.2622  0.4976 -0.3493
  824SOL    HW2 2472   2.431   1.644   1.098  2.0464  1.5805  0.0218
  825SOL     OW 2473   2.891   2.086   2.625  0.0488 -0.1683  0.2318
  825SOL    HW1 2474   2.903   2.167   2.565 -0.9485 -1.6524 -0.8169
  825SOL    HW2 2475   2.981   2.036   2.626 -0.5472 -1.0171  1.8237
  826SOL     OW 2476   2.903   1.371   2.267 -0.1881  0.0688 -0.1576
  826SOL    HW1 2477   2.807   1.396   2.244  0.7985  0.2119  0.3476
  826SOL    HW2 2478   2.917   1.382   2.369  1.5929  0.7195  3.6396
  827SOL     OW 2479   2.508   2.525   1.729  0.1927  0.2038  0.1628
  827SOL    HW1 2480   2.499   2.436   1.779  2.0957 -0.3582 -1.6229
  827SOL    HW2 2481   2.433   2.586   1.761 -3.0610  0.6785 -0.7822
  828SOL     OW 2482   2.976   2.972   1.581 -0.3917 -0.2649 -0.7120
  828SOL    HW1 2483   2.908   2.961   1.510 -1.0933  2.3360  2.7156
  828SOL    HW2 2484   3.061   3.004   1.528  3.2695  0.8036 -0.9269
  829SOL     OW 2485   1.889   1.976   2.341  0.2890 -0.6981  0.4869
  829SOL    HW1 2486   1.788   1.971   2.321  0.2849 -4.0068  2.5038
  829SOL    HW2 2487   1.905   2.029   2.426 -0.5945 -0.4582 -1.9909
  830SOL     OW 2488   1.622   0.685   0.864 -0.3730  0.8327 -0.4040
  830SOL    HW1 2489   1.668   0.592   0.860  1.4210 -4.3554  0.4184
  830SOL    HW2 2490   1.668   0.749   0.804 -1.4316 -1.3195 -1.1418
  831SOL     OW 2491   2.893   1.477   0.739 -0.1362  0.6180  0.7117
  831SOL    HW1 2492   2.933   1.413   0.810 -0.6714 -2.1081 -2.2803
  831SOL    HW2 2493   2.872   1.433   0.648  1.3338  1.8383  1.4429
  832SOL     OW 2494   1.517   2.435   2.007  0.0394 -0.1715  0.0239
  832SOL    HW1 2495   1.470   2.521   1.969 -1.9970 -0.0737  1.8458
  832SOL    HW2 2496   1.599   2.407   1.952 -0.5099 -0.6773  1.0770
  833SOL     OW 2497   0.068   2.946   2.219  0.4565 -0.3144  0.0475
  833SOL    HW1 2498   3.092   2.941   2.148 -0.9828  1.1486  0.0178
  833SOL    HW2 2499   0.027   3.000   2.298 -0.4566  1.4624  3.0436
  834SOL     OW 2500   1.142   0.986   1.300 -0.3660 -0.6161  0.7360
  834SOL    HW1 2501   1.106   1.083   1.321 -1.1726  3.0256  0.3771
  834SOL    HW2 2502   1.220   0.995   1.235  1.9572 -1.9800  0.5046
  835SOL     OW 2503   0.103   0.695   2.794  0.3122  0.1967  0.6721
  835SOL    HW1 2504   0.005   0.687   2.768  1.8011  0.5778 -1.8953
  835SOL    HW2 2505   0.116   0.723   2.890  1.0529 -0.0630 -0.5570
  836SOL     OW 2506   1.050   2.284   1.075 -0.3167  0.2477 -0.2596
  836SOL    HW1 2507   0.969   2.326   1.028 -1.5069 -1.8317  2.4320
  836SOL    HW2 2508   1.094   2.350   1.140 -0.2430  1.1340  0.7903
  837SOL     OW 2509   2.144   0.995   1.286 -0.2985  0.4274 -0.1506
  837SOL    HW1 2510   2.099   1.059   1.217 -1.7544 -0.3820  1.2458
  837SOL    HW2 2511   2.131   1.030   1.379  2.7683 -0.2203 -3.1195
  838SOL     OW 2512   1.466   1.551   2.759 -0.2877 -1.0610 -0.0338
  838SOL    HW1 2513   1.467   1.552   2.863  1.6701 -1.1509 -1.1018
  838SOL    HW2 2514   1.558   1.569   2.718 -1.3116 -0.8336  2.0185
  839SOL     OW 2515   0.586   2.303   2.821  0.2992 -0.0457  0.1511
  839SOL    HW1 2516   0.581   2.196   2.814 -1.0947 -0.4987  1.1156
  839SOL    HW2 2517   0.513   2.319   2.888  1.2593 -3.4069 -3.8372
  840SOL     OW 2518   0.808   2.510   2.763  0.0205 -0.5814 -0.2527
  840SOL    HW1 2519   0.753   2.426   2.753  0.7227  0.3323 -0.7002
  840SOL    HW2 2520   0.754   2.593   2.737  1.0147  1.2169  1.9753
  841SOL     OW 2521   1.887   1.958   3.011  0.0839  0.0437 -0.3594
  841SOL    HW1 2522   1.988   1.944   3.015 -0.4080  2.2422 -0.2629
  841SOL    HW2 2523   1.861   1.986   0.002  2.1389  1.3732 -0.5326
  842SOL     OW 2524   1.497   0.856   2.725 -0.2228  0.3357 -0.3125
  842SOL    HW1 2525   1.498   0.829   2.629 -0.6042 -0.2604  1.1105
  842SOL    HW2 2526   1.418   0.922   2.733 -0.5760  2.9281  1.1705
  843SOL     OW 2527   1.393   2.876   0.716  0.1861 -0.0927 -0.6885
  843SOL    HW1 2528   1.475   2.841   0.674  0.3412 -0.5289  0.5488
  843SOL    HW2 2529   1.344   2.943   0.654  1.8691 -0.3132  0.7016
  844SOL     OW 2530   2.467   2.849   2.785 -0.0591 -0.1153 -0.3388
  844SOL    HW1 2531   2.427   2.815   2.872 -2.0276 -1.9281 -2.6243
  844SOL    HW2 2532   2.557   2.889   2.802 -1.3466  0.7679 -2.4855
  845SOL     OW 2533   2.908   2.949   1.312 -0.3076 -0.2738  0.2621
  845SOL    HW1 2534   2.881   3.039   1.276 -2.0337 -0.1068  1.4221
  845SOL    HW2 2535   2.833   2.889   1.335  1.4618  0.5782  0.5938
  846SOL     OW 2536   0.312   2.317   2.233  0.0244  0.4322 -0.2981
  846SOL    HW1 2537   0.240   2.381   2.195 -1.3922  0.5124 -1.0605
  846SOL    HW2 2538   0.292   2.276   2.328  0.6856 -0.7374  2.6027
  847SOL     OW 2539   1.577   0.132   1.545 -0.0822 -0.1239 -0.5309
  847SOL    HW1 2540   1.605   0.218   1.591  0.3605  0.2486  0.8782
  847SOL    HW2 2541   1.650   0.063   1.562  0.3656  1.1933 -0.5654
  848SOL     OW 2542   2.927   0.611   0.149  0.1237 -0.1603  0.4721
  848SOL    HW1 2543   3.008   0.567   0.181 -3.3054  1.8879  0.3387
  848SOL    HW2 2544   2.841   0.555   0.154 -1.4047  0.0350 -1.6509
  849SOL     OW 2545   0.548   0.641   0.103 -0.1119  0.4699  0.1603
  849SOL    HW1 2546   0.485   0.695   0.161  0.4608  1.0470  2.8114
  849SOL    HW2 2547   0.512   0.547   0.085  0.8014 -1.1548  0.3077
  850SOL     OW 2548   0.392   2.716   1.044 -0.1189  0.4850  0.4882
  850SOL    HW1 2549   0.290   2.724   1.031  1.0746 -1.6010  0.2563
  850SOL    HW2 2550   0.447   2.788   0.994  1.5639  1.3399 -1.1529
  851SOL     OW 2551   1.924   0.183   2.391 -0.4276 -0.0372  0.5664
  851SOL    HW1 2552   1.830   0.208   2.417 -0.1991 -2.0012  1.5285
  851SOL    HW2 2553   1.940   0.184   2.293 -0.8400  0.3740  2.1237
  852SOL     OW 2554   1.551   1.509   2.338 -0.5354 -0.1329  0.2563
  852SOL    HW1 2555   1.531   1.429   2.390  1.5235  1.5884  0.3733
  852SOL    HW2 2556   1.463   1.545   2.299  1.3465  3.1831 -1.1243
  853SOL     OW 2557   0.088   2.923   0.411  0.0799 -0.6747  0.2249
  853SOL    HW1 2558   0.075   2.823   0.392  0.6784  1.4345  1.5025
  853SOL    HW2 2559   0.125   2.941   0.502 -0.2615  1.2245 -1.2711
  854SOL     OW 2560   2.352   3.054   0.841 -0.4090  0.3151 -0.3183
  854SOL    HW1 2561   2.282   3.076   0.910  1.8787  1.6933 -0.2180
  854SOL    HW2 2562   2.306   3.056   0.751  0.2496  2.6988  0.4855
  855SOL     OW 2563   1.344   2.144   0.675  0.0222  0.1168 -0.6941
  855SOL    HW1 2564   1.319   2.121   0.577  1.0383 -0.2768 -4.1265
  855SOL    HW2 2565   1.268   2.172   0.740  0.1128 -0.1716 -0.4606
  856SOL     OW 2566   2.474   0.468   0.299  0.8379  0.2890  0.3029
  856SOL    HW1 2567   2.420   0.383   0.325 -3.1050 -0.0254  0.6586
  856SOL    HW2 2568   2.524   0.500   0.385  1.0969 -0.9281  1.2384
  857SOL     OW 2569   1.906   2.668   1.817  0.3286  0.1716  0.2308
  857SOL    HW1 2570   1.950   2.703   1.905  0.5791 -0.1913 -1.8889
  857SOL    HW2 2571   1.973   2.630   1.750  2.9123 -2.6087  0.4136
  858SOL     OW 2572   2.562   2.204   1.381 -0.0732  0.0624  0.0766
  858SOL    HW1 2573   2.646   2.227   1.323  1.9182 -0.2718 -0.9076
  858SOL    HW2 2574   2.480   2.228   1.329  0.1339  0.2415  0.5987
  859SOL     OW 2575   1.188   2.461   0.745 -0.2237 -0.0387  0.2335
  859SOL    HW1 2576   1.103   2.511   0.738 -2.5247 -1.2633  2.0011
  859SOL    HW2 2577   1.245   2.522   0.805 -0.0545 -0.6437 -0.8586
  860SOL     OW 2578   2.192   2.422   0.211  0.4245  0.8685  0.5912
  860SOL    HW1 2579   2.204   2.352   0.283  0.0374  0.2569 -0.9276
  860SOL    HW2 2580   2.232   2.390   0.120  0.8055  0.7456  0.5920
  861SOL     OW 2581   2.053   2.450   1.047 -0.0636 -0.5953 -0.3910
  861SOL    HW1 2582   2.031   2.526   0.983 -0.8824  1.2563  0.9381
  861SOL    HW2 2583   2.152   2.437   1.059  1.0985 -2.2101 -0.5635
  862SOL     OW 2584   1.632   2.825   2.747 -0.2245  0.1115  0.0647
  862SOL    HW1 2585   1.650   2.882   2.667  0.9439 -0.1892 -1.8794
  862SOL    HW2 2586   1.668   2.871   2.829  0.0087  1.1051  0.4818
  863SOL     OW 2587   0.566   3.065   0.259 -0.2005 -0.0324  0.2397
  863SOL    HW1 2588   0.575   3.037   0.355 -1.0618  0.6357 -2.1345
  863SOL    HW2 2589   0.627   3.014   0.197  1.2803  0.8175  2.0284
  864SOL     OW 2590   2.659   2.634   1.951 -0.4465  0.5546  0.0815
  864SOL    HW1 2591   2.738   2.586   1.996  2.2635 -1.7118 -0.1458
  864SOL    HW2 2592   2.634   2.579   1.866 -0.8814 -1.6227 -2.3272
  865SOL     OW 2593   0.072   2.171   2.879  0.3483  0.6866 -0.2796
  865SOL    HW1 2594   0.075   2.079   2.931  0.7257 -2.2551 -0.2858
  865SOL    HW2 2595   3.090   2.229   2.899  1.0662  1.1895  1.4552
  866SOL     OW 2596   2.678   0.374   2.744  0.1746  0.4331 -0.1753
  866SOL    HW1 2597   2.759   0.398   2.687 -0.2986 -1.2555 -0.4569
  866SOL    HW2 2598   2.624   0.457   2.776 -1.9451  0.9913  0.8083
  867SOL     OW 2599   2.917   3.027   2.463  1.0070  0.1674  0.3321
  867SOL    HW1 2600   2.833   3.026   2.412  4.3478 -0.5504 -2.6246
  867SOL    HW2 2601   2.913   3.099   2.531  1.9570  1.8295  1.6200
  868SOL     OW 2602   0.962   2.611   0.735 -0.0405 -0.6445 -0.0571
  868SOL    HW1 2603   0.975   2.698   0.783  2.5725 -0.7404 -1.0013
  868SOL    HW2 2604   0.907   2.611   0.650  0.1158  0.0343 -0.3011
  869SOL     OW 2605   1.314   1.343   1.202  0.1740 -0.5796  0.3015
  869SOL    HW1 2606   1.278   1.433   1.172  2.7476 -0.9908 -1.4617
  869SOL    HW2 2607   1.412   1.330   1.161  1.6669 -1.2695 -1.1321
  870SOL     OW 2608   1.731   1.764   1.351 -0.3050  0.7212 -0.0766
  870SOL    HW1 2609   1.671   1.705   1.412 -0.6673  0.8581 -1.0148
  870SOL    HW2 2610   1.754   1.850   1.403 -0.8613  0.2695  2.4482
  871SOL     OW 2611   0.911   1.382   1.047  0.4069 -0.2607  0.0470
  871SOL    HW1 2612   0.927   1.366   0.944 -1.3035 -0.6296 -1.0227
  871SOL    HW2 2613   0.878   1.480   1.059 -0.5268  0.4160 -0.3437
  872SOL     OW 2614   1.196   0.494   0.726 -0.2421  0.1034  0.1670
  872SOL    HW1 2615   1.259   0.566   0.688 -1.6983  1.9027 -1.5652
  872SOL    HW2 2616   1.184   0.511   0.825  0.5589 -1.2502 -1.2206
  873SOL     OW 2617   1.663   0.636   2.619 -0.4979  0.4836 -0.2711
  873SOL    HW1 2618   1.711   0.671   2.704  0.1567  1.6232  2.7559
  873SOL    HW2 2619   1.731   0.626   2.543 -1.1635  1.9928 -2.0953
  874SOL     OW 2620   0.483   1.304   1.138  0.2620 -0.4339  0.4544
  874SOL    HW1 2621   0.474   1.329   1.233 -0.0495  2.1673  1.3234
  874SOL    HW2 2622   0.395   1.310   1.088  0.1243 -1.6457  2.6529
  875SOL     OW 2623   2.707   2.797   2.992 -0.0964  0.5190  0.2309
  875SOL    HW1 2624   2.702   2.703   2.941  0.9451  1.7418  1.2694
  875SOL    HW2 2625   2.743   2.876   2.934 -0.4389  2.4917  0.7328
  876SOL     OW 2626   0.847   0.434   3.018 -0.3943 -0.0374 -0.5996
  876SOL    HW1 2627   0.797   0.376   3.084  1.6135  2.0962  0.3908
  876SOL    HW2 2628   0.800   0.526   3.007  2.2360  1.1861  0.8230
  877SOL     OW 2629   0.053   2.867   1.389 -0.2768 -0.0375  0.1832
  877SOL    HW1 2630   0.085   2.963   1.358  1.3425 -1.4354 -0.8077
  877SOL    HW2 2631   3.054   2.860   1.380 -1.3944 -0.1513  1.6204
  878SOL     OW 2632   1.940   2.136   2.555 -0.2105 -0.0894  0.2847
  878SOL    HW1 2633   1.897   2.138   2.649  0.4482  1.2106 -0.9623
  878SOL    HW2 2634   2.031   2.182   2.550  2.2756  2.5884 -0.0947
  879SOL     OW 2635   1.980   1.909   1.800 -0.0287  0.0173 -0.1172
  879SOL    HW1 2636   1.923   1.958   1.869 -2.3824  1.6238 -0.2127
  879SOL    HW2 2637   2.068   1.886   1.848 -1.0909 -0.7242 -1.0671
  880SOL     OW 2638   0.895   1.062   0.968 -0.2419  0.0249  0.5482
  880SOL    HW1 2639   0.940   1.111   1.043  1.0989  1.2780 -1.5474
  880SOL    HW2 2640   0.949   0.980   0.946 -2.4923  1.8102 -1.7180
  881SOL     OW 2641   1.232   1.498   3.088 -0.6328 -1.2786 -0.2427
  881SOL    HW1 2642   1.229   1.574   0.057 -1.2872 -0.0053  0.8920
  881SOL    HW2 2643   1.312   1.435   0.008  3.0696 -1.0267 -0.0114
  882SOL     OW 2644   1.910   3.095   1.228  0.4818 -0.0980 -0.1160
  882SOL    HW1 2645   1.875   0.088   1.249 -0.5593  2.8897  0.6294
  882SOL    HW2 2646   1.970   3.099   1.144  0.3225 -1.8719  0.9326
  883SOL     OW 2647   1.951   0.684   2.117  0.3585  0.3044 -0.4641
  883SOL    HW1 2648   1.882   0.612   2.087  2.2015 -1.4978  0.4025
  883SOL    HW2 2649   2.032   0.681   2.055  0.7068 -0.6822  0.7925
  884SOL     OW 2650   2.778   0.668   2.974 -0.0131 -0.0761 -0.1720
  884SOL    HW1 2651   2.848   0.720   2.917  1.8781  1.7514 -0.5743
  884SOL    HW2 2652   2.824   0.627   3.056 -0.8517 -1.7743 -1.7867
  885SOL     OW 2653   1.134   2.206   0.817 -0.6310 -0.4680  0.4449
  885SOL    HW1 2654   1.170   2.299   0.793  1.8626 -1.9570  2.7617
  885SOL    HW2 2655   1.104   2.206   0.914 -0.9299  2.5472 -2.1615
  886SOL     OW 2656   1.308   1.036   2.772 -0.7538 -0.9423 -0.0099
  886SOL    HW1 2657   1.357   1.106   2.833 -0.0040  1.0575  1.3411
  886SOL    HW2 2658   1.256   1.088   2.701  1.3740  0.7238 -2.0724
  887SOL     OW 2659   1.776   3.056   1.616 -0.0131  0.5854  0.0028
  887SOL    HW1 2660   1.839   3.085   1.690 -2.7628 -0.5020  1.7756
  887SOL    HW2 2661   1.743   2.966   1.649 -3.2303  1.1980  0.1510
  888SOL     OW 2662   2.882   1.714   1.695  0.3407 -0.3849  0.0333
  888SOL    HW1 2663   2.955   1.779   1.725 -1.4861 -0.7662 -1.3495
  888SOL    HW2 2664   2.906   1.669   1.605 -0.5090 -0.0801 -0.9015
  889SOL     OW 2665   3.031   2.756   0.709 -0.3487 -0.2425  0.0778
  889SOL    HW1 2666   2.982   2.729   0.794  3.0068  0.3912 -2.5044
  889SOL    HW2 2667   2.988   2.840   0.670 -1.1264 -1.4971  1.8947
  890SOL     OW 2668   0.541   1.979   2.274 -0.1261  0.1357 -0.1401
  890SOL    HW1 2669   0.610   2.057   2.289  1.2746  0.2424  0.9873
  890SOL    HW2 2670   0.443   2.007   2.261 -2.8251  1.0657 -2.8706
  891SOL     OW 2671   0.576   1.727   0.609 -0.1102  0.1516  0.3804
  891SOL    HW1 2672   0.649   1.779   0.662  3.6199  2.0081  0.2054
  891SOL    HW2 2673   0.497   1.786   0.590  2.5539 -1.7870  1.4957
  892SOL     OW 2674   2.735   2.539   1.264  0.0095  0.8218  0.1835
  892SOL    HW1 2675   2.794   2.536   1.348  0.9207 -0.0711  0.4403
  892SOL    HW2 2676   2.748   2.454   1.209 -0.2986 -1.4906 -0.7823
  893SOL     OW 2677   0.242   0.468   1.723 -0.2584 -0.2486  0.0806
  893SOL    HW1 2678   0.233   0.497   1.629 -1.0760 -2.6846 -0.3449
  893SOL    HW2 2679   0.330   0.503   1.760  1.9928  0.4013  1.0477
  894SOL     OW 2680   2.715   1.891   0.942 -0.4010 -0.0511  0.0968
  894SOL    HW1 2681   2.635   1.863   0.884 -0.9982  1.4672  1.1783
  894SOL    HW2 2682   2.784   1.812   0.941 -1.4836  0.2075 -1.8861
  895SOL     OW 2683   1.264   2.431   1.530  0.1776  0.0956 -0.3078
  895SOL    HW1 2684   1.294   2.403   1.626  1.4878 -0.6989  1.2905
  895SOL    HW2 2685   1.193   2.504   1.528 -2.3463  0.8271 -0.6928
  896SOL     OW 2686   0.816   0.350   1.248  0.2055 -0.0843 -0.2212
  896SOL    HW1 2687   0.783   0.297   1.333 -0.4355  2.3954  2.4956
  896SOL    HW2 2688   0.916   0.363   1.251  0.5440  0.0687  2.5825
  897SOL     OW 2689   1.200   1.179   1.021 -0.3957 -0.5523  0.1617
  897SOL    HW1 2690   1.218   1.250   1.094  2.2003  3.1250 -0.2291
  897SOL    HW2 2691   1.253   1.093   1.034 -1.6945 -2.0604  0.0855
  898SOL     OW 2692   0.874   0.298   1.688 -0.2759 -0.1896  0.3470
  898SOL    HW1 2693   0.894   0.372   1.759 -1.6318  1.9756  4.1306
  898SOL    HW2 2694   0.953   0.250   1.647  0.3961  0.9871 -0.6348
  899SOL     OW 2695   1.470   0.354   0.247  0.0248 -0.3576 -0.0505
  899SOL    HW1 2696   1.545   0.386   0.308  1.2814 -2.7944 -0.7284
  899SOL    HW2 2697   1.400   0.427   0.233 -1.4870  0.0984 -0.4886
  900SOL     OW 2698   0.991   0.644   2.462 -0.2244 -0.7205 -0.1943
  900SOL    HW1 2699   0.978   0.734   2.506 -0.1096 -1.9675 -0.5725
  900SOL    HW2 2700   0.990   0.657   2.362  1.2955 -0.3349  2.2943
  901SOL     OW 2701   0.628   2.086   0.425 -0.7312  0.6322 -0.5299
  901SOL    HW1 2702   0.666   1.991   0.421 -1.1667 -0.1592 -2.4268
  901SOL    HW2 2703   0.580   2.101   0.344  1.4528 -1.7631  2.3264
  902SOL     OW 2704   1.852   0.224   0.753  0.1703 -0.0373  0.5637
  902SOL    HW1 2705   1.888   0.173   0.668 -0.4865 -2.2389 -1.0214
  902SOL    HW2 2706   1.784   0.165   0.800 -2.5529 -1.8462 -0.5230
  903SOL     OW 2707   0.140   1.331   2.492  0.1813  0.1268  0.2573
  903SOL    HW1 2708   0.122   1.423   2.529 -0.5946  0.4067 -0.6065
  903SOL    HW2 2709   0.108   1.311   2.395 -2.0535 -1.8054  1.0742
  904SOL     OW 2710   1.724   1.220   0.396  0.3578  0.4779  0.0234
  904SOL    HW1 2711   1.670   1.278   0.458  3.6902  3.0126 -1.4602
  904SOL    HW2 2712   1.715   1.116   0.413 -0.7078 -1.5837 -0.1155
  905SOL     OW 2713   1.998   2.722   1.410 -0.4540  0.0800  0.2681
  905SOL    HW1 2714   1.919   2.757   1.361  2.4316 -0.3872  3.3780
  905SOL    HW2 2715   2.007   2.621   1.407  4.5854  2.3617  0.0859
  906SOL     OW 2716   2.148   2.650   0.862 -0.4018  0.5576 -0.1372
  906SOL    HW1 2717   2.101   2.742   0.855  0.6838 -1.4201  0.4336
  906SOL    HW2 2718   2.239   2.669   0.898  1.1632 -2.2992  1.0491
  907SOL     OW 2719   1.936   0.869   0.411 -0.1037 -0.4414 -0.2295
  907SOL    HW1 2720   1.938   0.792   0.342 -2.1980  0.9363  0.2135
  907SOL    HW2 2721   2.029   0.914   0.414  0.5399 -0.5023 -0.7987
  908SOL     OW 2722   1.837   0.243   1.287 -0.0907  0.3782  0.3598
  908SOL    HW1 2723   1.883   0.332   1.275  0.3590  0.0163  1.0767
  908SOL    HW2 2724   1.740   0.256   1.310  0.3941 -0.2917 -0.1631
  909SOL     OW 2725   2.399   2.800   0.949  0.3877  0.2749 -0.0500
  909SOL    HW1 2726   2.397   2.874   0.887  0.0826 -5.0094  2.3511
  909SOL    HW2 2727   2.405   2.826   1.049  2.0542 -0.8295 -0.3811
  910SOL     OW 2728   2.564   0.613   2.050 -0.2083 -0.2066  0.3976
  910SOL    HW1 2729   2.528   0.533   2.097  3.3308  0.9381 -2.5400
  910SOL    HW2 2730   2.636   0.652   2.109 -0.0669 -1.2430 -0.7403
  911SOL     OW 2731   1.915   0.006   2.619  0.0251  0.0104 -0.0785
  911SOL    HW1 2732   1.916   0.074   2.700  0.0116  1.1829  1.5178
  911SOL    HW2 2733   1.918   0.057   2.532  0.2980  0.7131  0.3398
  912SOL     OW 2734   0.562   0.893   1.307  0.0232 -0.1011 -0.1706
  912SOL    HW1 2735   0.646   0.940   1.283 -3.7125 -1.7617  3.6467
  912SOL    HW2 2736   0.565   0.790   1.280  0.4629 -1.4963 -2.1242
  913SOL     OW 2737   2.472   2.599   1.175 -0.5223 -0.3751  0.0672
  913SOL    HW1 2738   2.459   2.701   1.171 -2.5478 -0.1493  1.7130
  913SOL    HW2 2739   2.564   2.567   1.193  2.2593 -1.0790  2.6093
  914SOL     OW 2740   1.186   0.535   0.987  0.1806  0.2776  1.0714
  914SOL    HW1 2741   1.256   0.605   1.006 -1.5313 -0.1880  0.2944
  914SOL    HW2 2742   1.208   0.441   1.024  0.1547  2.7773 -1.7314
  915SOL     OW 2743   0.274   1.619   1.379  0.3483  0.6860  1.0790
  915SOL    HW1 2744   0.268   1.633   1.282  1.1335  0.4489  0.8349
  915SOL    HW2 2745   0.291   1.701   1.439 -2.0932  0.9408 -0.2845
  916SOL     OW 2746   1.924   2.225   0.958  0.0941  0.0252  0.3595
  916SOL    HW1 2747   1.948   2.315   0.994  0.9989 -0.2937  2.7453
  916SOL    HW2 2748   1.820   2.220   0.953  0.1447 -0.1473 -0.6811
  917SOL     OW 2749   1.859   2.451   2.337  0.2242  0.1599 -0.2422
  917SOL    HW1 2750   1.937   2.453   2.268  0.5766 -0.8979  0.1050
  917SOL    HW2 2751   1.822   2.545   2.352 -0.4466 -0.0305 -2.3344
  918SOL     OW 2752   2.078   1.799   2.471 -0.3649 -0.0099 -0.3724
  918SOL    HW1 2753   2.180   1.830   2.473 -3.3757 -0.6015 -2.8053
  918SOL    HW2 2754   2.031   1.857   2.405 -1.1664  0.1371 -0.3977
  919SOL     OW 2755   0.734   0.572   1.096  0.6955 -0.3305 -0.2722
  919SOL    HW1 2756   0.757   0.496   1.160  1.7086 -0.7141  4.7590
  919SOL    HW2 2757   0.809   0.641   1.097 -2.7567 -0.9894  1.8383
  920SOL     OW 2758   2.941   0.778   2.052 -0.4753 -0.0347 -0.2334
  920SOL    HW1 2759   2.988   0.713   1.992  0.4299  4.1332  2.9998
  920SOL    HW2 2760   3.014   0.807   2.118  2.2902 -0.6865 -1.1199
  921SOL     OW 2761   2.580   1.294   1.500  0.0928  0.5709 -0.1129
  921SOL    HW1 2762   2.651   1.272   1.427  1.6430 -1.0526 -2.0084
  921SOL    HW2 2763   2.617   1.274   1.597  0.2587  0.5001  6.2693
  922SOL     OW 2764   2.782   2.278   0.889  0.4632  0.7933  0.8402
  922SOL    HW1 2765   2.750   2.218   0.966  0.8352 -3.0533  1.7436
  922SOL    HW2 2766   2.700   2.326   0.848 -2.6783 -1.5404 -0.4186
  923SOL     OW 2767   3.009   2.291   0.517  0.5343  0.3244  0.2754
  923SOL    HW1 2768   3.083   2.267   0.584  2.6866  2.8012 -0.8786
  923SOL    HW2 2769   3.014   2.234   0.432 -1.4307 -3.2954 -3.6986
  924SOL     OW 2770   1.001   1.234   2.973 -0.8252  0.1528  0.2262
  924SOL    HW1 2771   1.073   1.293   2.928 -1.0497  0.5627  0.9126
  924SOL    HW2 2772   0.937   1.294   3.014  2.9411 -0.6328 -0.9067
  925SOL     OW 2773   3.004   1.253   0.898 -0.2675 -0.0153  0.1890
  925SOL    HW1 2774   3.050   1.266   0.989 -0.9372 -1.9095  1.6892
  925SOL    HW2 2775   2.948   1.168   0.900  0.7241  1.9686 -1.3872
  926SOL     OW 2776   0.144   3.091   1.279 -0.1834  0.0714  0.1641
  926SOL    HW1 2777   0.237   0.029   1.268 -1.3798  1.7923  1.3588
  926SOL    HW2 2778   0.101   3.061   1.192  1.6517  0.7986 -1.6329
  927SOL     OW 2779   0.640   1.832   2.482  1.0436 -0.0571  0.6530
  927SOL    HW1 2780   0.738   1.799   2.471 -0.7210 -0.8274 -1.1590
  927SOL    HW2 2781   0.595   1.870   2.398 -1.9566  1.1003 -0.4426
  928SOL     OW 2782   0.333   0.616   2.343  0.4554  0.4359 -0.1375
  928SOL    HW1 2783   0.386   0.532   2.368  0.9398 -1.4173 -2.0105
  928SOL    HW2 2784   0.250   0.621   2.402 -0.8041  1.2132  2.1257
  929SOL     OW 2785   2.659   2.118   1.077 -0.2616  0.6243  0.3408
  929SOL    HW1 2786   2.565   2.143   1.037 -1.9237 -0.3883 -1.7039
  929SOL    HW2 2787   2.695   2.039   1.027  1.5454  2.0970  2.8663
  930SOL     OW 2788   1.643   0.259   2.435  0.4844  0.2797 -0.4074
  930SOL    HW1 2789   1.555   0.245   2.490 -1.7454 -1.6074  3.0985
  930SOL    HW2 2790   1.639   0.351   2.394 -0.9529 -0.0824  1.6832
  931SOL     OW 2791   2.434   0.941   2.723  0.5150  0.8014  0.1162
  931SOL    HW1 2792   2.392   0.945   2.815 -1.6806  3.1512 -2.3604
  931SOL    HW2 2793   2.364   0.926   2.647  5.1076 -1.0698  0.1160
  932SOL     OW 2794   1.719   0.826   0.642 -0.2087 -0.3003 -0.2143
  932SOL    HW1 2795   1.702   0.862   0.547 -0.1481  0.1811 -2.9213
  932SOL    HW2 2796   1.803   0.767   0.650  2.7066 -2.3081  1.0103
  933SOL     OW 2797   2.201   0.768   0.679 -0.3032  0.8687  0.0913
  933SOL    HW1 2798   2.221   0.747   0.580  0.2008  1.6706  0.6051
  933SOL    HW2 2799   2.262   0.845   0.708  1.1496  1.2738  2.7924
  934SOL     OW 2800   2.646   1.226   2.495  0.3737  0.6074  0.1675
  934SOL    HW1 2801   2.737   1.264   2.494 -2.0588 -1.4916  3.1055
  934SOL    HW2 2802   2.649   1.123   2.484 -0.6354  1.2544 -1.0444
  935SOL     OW 2803   3.095   1.346   1.130 -0.1879  0.1556  0.4114
  935SOL    HW1 2804   3.070   1.443   1.124  2.6309  0.4678  1.6518
  935SOL    HW2 2805   3.087   1.304   1.222  3.1303  2.2633 -2.2719
  936SOL     OW 2806   3.098   2.961   0.030 -0.4923 -0.0261 -0.2928
  936SOL    HW1 2807   0.061   2.877   0.033  0.8710 -2.5483  3.0440
  936SOL    HW2 2808   0.032   3.037   0.091  1.9546 -0.4626  1.0192
  937SOL     OW 2809   2.876   2.489   2.061 -0.0948  0.1764  0.1138
  937SOL    HW1 2810   2.885   2.534   2.148 -2.1408 -0.9698 -3.3149
  937SOL    HW2 2811   2.942   2.407   2.052 -0.6844  0.4194 -3.0323
  938SOL     OW 2812   2.286   2.325   3.056 -0.3926  0.0520 -0.0443
  938SOL    HW1 2813   2.358   2.400   3.034 -2.4725  2.9688 -1.1799
  938SOL    HW2 2814   2.264   2.263   2.975 -0.9528 -1.6814  0.9024
  939SOL     OW 2815   1.002   0.632   1.384  0.2547 -0.7223 -0.3564
  939SOL    HW1 2816   1.098   0.664   1.404  1.7551 -0.2677  2.5252
  939SOL    HW2 2817   0.944   0.642   1.466  0.4009 -0.8031  1.5632
  940SOL     OW 2818   2.310   2.994   0.026  0.3873 -0.1361 -0.1781
  940SOL    HW1 2819   2.222   3.028   3.091  1.1906 -0.4144  1.7027
  940SOL    HW2 2820   2.328   2.897   3.098  0.8081 -0.5215 -1.4862
  941SOL     OW 2821   2.696   2.910   2.053  0.0180 -0.2616  0.3223
  941SOL    HW1 2822   2.679   2.980   1.980  2.6396 -2.7729  0.0935
  941SOL    HW2 2823   2.637   2.827   2.036  0.0798  0.0187 -3.5097
  942SOL     OW 2824   1.596   0.000   1.128  0.2520 -0.3677 -0.2519
  942SOL    HW1 2825   1.515   3.039   1.116  0.9028  0.6234 -0.2457
  942SOL    HW2 2826   1.673   3.055   1.181  3.1209 -2.1716  1.1751
  943SOL     OW 2827   1.206   1.561   2.479 -0.2882 -0.6072  0.2408
  943SOL    HW1 2828   1.269   1.478   2.487 -0.4494 -1.1661 -0.9954
  943SOL    HW2 2829   1.194   1.594   2.383 -2.6739  1.1248 -3.6709
  944SOL     OW 2830   2.785   0.935   1.448 -0.3930  0.0251 -0.1712
  944SOL    HW1 2831   2.784   0.865   1.376  1.5330  0.9756  1.4263
  944SOL    HW2 2832   2.787   0.883   1.537 -2.6422 -2.2368 -0.6231
  945SOL     OW 2833   2.611   0.093   2.685 -0.1981 -0.4982  0.0199
  945SOL    HW1 2834   2.608   0.196   2.688 -1.9594  1.6758  0.7852
  945SOL    HW2 2835   2.597   0.063   2.583  1.8324  0.6645 -0.1823
  946SOL     OW 2836   0.055   1.525   1.515 -0.1657 -0.2253 -0.0224
  946SOL    HW1 2837   0.137   1.545   1.450  2.4429  0.2369 -0.1360
  946SOL    HW2 2838   0.080   1.523   1.611  1.2354  1.8675  2.5954
  947SOL     OW 2839   0.450   0.348   2.857 -0.3327 -0.8237  0.5935
  947SOL    HW1 2840   0.453   0.245   2.870 -0.8829 -1.9007 -0.5567
  947SOL    HW2 2841   0.388   0.371   2.775 -0.2770 -1.9162 -2.7863
  948SOL     OW 2842   1.996   1.633   1.147 -0.2611  0.3409 -0.3487
  948SOL    HW1 2843   1.995   1.689   1.232  3.5641 -0.7459 -0.0570
  948SOL    HW2 2844   2.089   1.596   1.134  1.3278 -1.0603 -0.6283
  949SOL     OW 2845   0.301   1.214   2.970  0.2019  0.2063  0.5134
  949SOL    HW1 2846   0.309   1.284   2.898  0.3611 -1.2460 -0.4453
  949SOL    HW2 2847   0.301   1.120   2.928 -3.4543 -3.8156  0.7059
  950SOL     OW 2848   0.565   2.755   1.623 -0.6250  0.0024  0.1149
  950SOL    HW1 2849   0.479   2.708   1.605 -0.1767  1.1517  0.1209
  950SOL    HW2 2850   0.644   2.681   1.627  2.3076 -1.4965  2.6853
  951SOL     OW 2851   0.882   2.213   2.555 -0.2181 -0.0946  0.2804
  951SOL    HW1 2852   0.837   2.132   2.595 -0.9255  2.7712  2.8446
  951SOL    HW2 2853   0.969   2.215   2.607  2.2213  1.7167  1.5608
  952SOL     OW 2854   0.557   1.092   0.589  0.1377 -0.1948  0.4343
  952SOL    HW1 2855   0.548   0.995   0.616 -1.0656  1.6456 -2.3406
  952SOL    HW2 2856   0.573   1.100   0.487  1.5135 -0.9144 -0.5944
  953SOL     OW 2857   2.294   1.596   2.954  0.4344 -0.6142  0.1481
  953SOL    HW1 2858   2.372   1.555   2.901  2.5427 -0.5122 -0.5937
  953SOL    HW2 2859   2.284   1.550   3.047 -1.0698  1.3488  2.0312
  954SOL     OW 2860   1.489   0.231   0.527  0.1257  0.0319 -0.0797
  954SOL    HW1 2861   1.487   0.248   0.426 -1.1754  0.9687 -0.7799
  954SOL    HW2 2862   1.566   0.167   0.553  0.2253 -1.0722 -2.3672
  955SOL     OW 2863   0.815   1.548   0.159 -0.1659 -0.3916  0.5211
  955SOL    HW1 2864   0.795   1.470   0.098 -0.9555 -1.5319 -1.1638
  955SOL    HW2 2865   0.892   1.528   0.218  0.8950 -3.9465 -1.2146
  956SOL     OW 2866   2.830   0.361   2.004 -0.3391  0.4723 -0.3647
  956SOL    HW1 2867   2.867   0.452   1.972  0.2734 -0.2445  0.9326
  956SOL    HW2 2868   2.898   0.318   2.069 -1.5934 -1.4367  0.4100
  957SOL     OW 2869   1.893   2.015   2.065 -0.3418  0.5926 -0.1982
  957SOL    HW1 2870   1.795   1.989   2.036 -1.2755 -0.5411 -0.6665
  957SOL    HW2 2871   1.896   2.048   2.164  0.7931  0.2688 -0.9694
  958SOL     OW 2872   1.823   0.951   1.182  0.4442  0.2900  0.7942
  958SOL    HW1 2873   1.891   1.026   1.195  2.4536  3.5939 -0.8494
  958SOL    HW2 2874   1.831   0.887   1.263 -0.1313  0.3172 -0.3152
  959SOL     OW 2875   1.516   2.145   2.099 -0.3593 -0.6878 -0.2939
  959SOL    HW1 2876   1.557   2.074   2.037  2.4545 -0.0513 -1.1141
  959SOL    HW2 2877   1.517   2.244   2.058 -0.5486  4.2693  0.4888
  960SOL     OW 2878   0.763   1.354   2.661 -0.0327  0.0164 -0.4225
  960SOL    HW1 2879   0.866   1.367   2.653  0.1808 -1.1809  1.6139
  960SOL    HW2 2880   0.715   1.319   2.577 -1.1967 -3.2315 -1.4126
  961SOL     OW 2881   2.862   1.258   0.053  0.0219 -0.5336 -0.4668
  961SOL    HW1 2882   2.941   1.318   0.040 -0.6972  0.4155  0.3779
  961SOL    HW2 2883   2.787   1.326   0.080  0.8249  4.0743 -0.1693
  962SOL     OW 2884   0.816   1.836   0.077 -0.3977 -0.1177  0.0998
  962SOL    HW1 2885   0.815   1.732   0.077 -0.3675 -1.0972 -0.0962
  962SOL    HW2 2886   0.860   1.862   3.091 -0.4527  0.1140  1.7637
  963SOL     OW 2887   2.825   1.565   0.022  0.3768 -0.5126 -0.5975
  963SOL    HW1 2888   2.764   1.494   0.063 -1.6783  2.0023 -1.7750
  963SOL    HW2 2889   2.778   1.656   0.048 -1.5105  2.3297 -0.2869
  964SOL     OW 2890   0.732   2.173   2.291 -0.5036  0.1670  0.1243
  964SOL    HW1 2891   0.757   2.203   2.387  0.7654 -1.6555 -0.8341
  964SOL    HW2 2892   0.711   2.253   2.230 -1.7311 -0.1338  0.4166
  965SOL     OW 2893   1.310   1.802   1.425  0.1076 -0.3262  0.5333
  965SOL    HW1 2894   1.348   1.867   1.350  2.7006  2.1660 -0.8432
  965SOL    HW2 2895   1.266   1.719   1.383  1.8067 -0.1434 -0.4403
  966SOL     OW 2896   3.013   1.459   0.308  0.5469 -0.0469 -0.2620
  966SOL    HW1 2897   3.100   1.460   0.368  0.9458 -0.5493  3.0775
  966SOL    HW2 2898   3.030   1.413   0.218 -0.4130 -2.0782 -0.7352
  967SOL     OW 2899   1.813   2.635   2.711 -0.1749 -0.1667 -0.4664
  967SOL    HW1 2900   1.752   2.713   2.745 -1.8571  1.1615  3.8046
  967SOL    HW2 2901   1.906   2.650   2.743 -4.2358  1.6003  0.5603
  968SOL     OW 2902   1.499   1.161   2.899  0.6651  0.7620  0.2069
  968SOL    HW1 2903   1.519   1.076   2.950 -0.5454  2.6216 -2.2738
  968SOL    HW2 2904   1.512   1.243   2.960 -0.0717 -2.5658  3.1753
  969SOL     OW 2905   0.129   0.952   2.435 -0.1801 -0.6916  0.2215
  969SOL    HW1 2906   0.099   1.046   2.409  0.8460 -3.0235  0.8188
  969SOL    HW2 2907   0.214   0.960   2.493 -1.4702 -1.7306  1.5681
  970SOL     OW 2908   2.413   0.208   0.322 -0.4198 -0.5252  0.0002
  970SOL    HW1 2909   2.330   0.185   0.265 -1.5419 -0.3105 -0.2704
  970SOL    HW2 2910   2.482   0.130   0.316  0.4732 -1.6390  0.1538
  971SOL     OW 2911   1.589   1.994   0.787  0.0713  0.1462  0.1231
  971SOL    HW1 2912   1.520   2.061   0.756 -0.3841 -0.2037  2.4369
  971SOL    HW2 2913   1.642   2.031   0.861  2.3710 -4.0992 -1.7513
  972SOL     OW 2914   0.244   2.103   2.709  0.0722  0.2769  0.7153
  972SOL    HW1 2915   0.176   2.135   2.776  0.3962 -2.0459  1.4131
  972SOL    HW2 2916   0.324   2.072   2.763 -0.6504  0.7521 -1.5227
  973SOL     OW 2917   0.529   0.476   0.390 -0.0163  0.1101  0.5272
  973SOL    HW1 2918   0.473   0.560   0.366  1.0476  3.1394 -2.0499
  973SOL    HW2 2919   0.520   0.394   0.329  0.8340  2.0538 -0.3296
  974SOL     OW 2920   2.752   0.703   1.666  0.0008  0.4575  0.3030
  974SOL    HW1 2921   2.778   0.613   1.620 -2.2979 -2.3743  0.4255
  974SOL    HW2 2922   2.665   0.688   1.715  0.2760  1.6125 -0.3330
  975SOL     OW 2923   0.305   3.083   0.812  0.2957  0.0091 -0.2569
  975SOL    HW1 2924   0.257   3.002   0.765 -1.3175 -1.2727  0.5603
  975SOL    HW2 2925   0.388   0.012   0.761 -0.3724  2.4090  3.0236
  976SOL     OW 2926   0.703   1.542   1.447 -0.0058 -0.4087 -0.0765
  976SOL    HW1 2927   0.631   1.488   1.410  0.8115  2.1025  0.4203
  976SOL    HW2 2928   0.679   1.640   1.448 -0.1743 -1.7978 -0.4228
  977SOL     OW 2929   1.274   2.042   0.435  0.0448 -0.5173  0.6238
  977SOL    HW1 2930   1.336   2.064   0.353  2.6459 -0.5275 -1.5213
  977SOL    HW2 2931   1.271   1.944   0.454 -1.3559  0.4857 -1.1510
  978SOL     OW 2932   0.170   1.141   0.086 -0.0759 -0.4610  0.1775
  978SOL    HW1 2933   0.200   1.185   3.098 -0.5171 -2.0805 -0.9922
  978SOL    HW2 2934   0.245   1.104   0.144 -1.2640 -0.1917  0.0293
  979SOL     OW 2935   2.036   1.092   0.208  0.1540  0.6903 -0.4742
  979SOL    HW1 2936   1.988   1.181   0.183 -1.0443  3.1830 -2.4014
  979SOL    HW2 2937   2.066   1.091   0.303  0.0845  0.0697 -1.4201
  980SOL     OW 2938   0.764   1.627   1.957 -0.1569 -0.8839  0.1379
  980SOL    HW1 2939   0.717   1.587   1.878  2.4550  1.8461  3.4456
  980SOL    HW2 2940   0.695   1.670   2.021  0.9584  1.4837 -0.1721
  981SOL     OW 2941   2.220   1.436   2.400  0.3062 -0.0299 -0.5319
  981SOL    HW1 2942   2.245   1.428   2.501  2.0567  0.4703 -1.2619
  981SOL    HW2 2943   2.253   1.357   2.349  1.4945  2.2739  1.4048
  982SOL     OW 2944   0.276   2.214   1.887 -0.0793  0.3689 -0.0647
  982SOL    HW1 2945   0.325   2.255   1.808 -0.2877 -3.1635 -0.5116
  982SOL    HW2 2946   0.352   2.211   1.956  0.8915  0.7564  2.2224
  983SOL     OW 2947   1.551   2.794   2.066  0.1903 -0.2146 -0.0918
  983SOL    HW1 2948   1.545   2.888   2.030 -0.9654 -1.0205 -0.6389
  983SOL    HW2 2949   1.531   2.724   1.992  0.4452 -0.9873  1.0342
  984SOL     OW 2950   3.093   0.131   2.834 -0.2361 -0.6239 -0.5366
  984SOL    HW1 2951   3.076   0.188   2.920  2.6871 -1.4807  1.4889
  984SOL    HW2 2952   3.060   0.033   2.846  2.4813  1.4818  0.1856
  985SOL     OW 2953   1.554   1.360   1.835 -0.1280  0.0473 -0.0122
  985SOL    HW1 2954   1.626   1.352   1.759  2.6025  1.8737 -1.3957
  985SOL    HW2 2955   1.471   1.312   1.799  0.1036 -0.6853 -0.6224
  986SOL     OW 2956   1.695   0.431   0.011 -0.2867 -0.4610 -0.2083
  986SOL    HW1 2957   1.775   0.480   3.071  0.7175  0.9776 -1.6424
  986SOL    HW2 2958   1.617   0.480   3.081  1.5406 -0.9923 -1.4832
  987SOL     OW 2959   0.296   2.239   2.479  0.0801  0.0986 -0.7127
  987SOL    HW1 2960   0.386   2.286   2.507  2.0412  0.5761  1.0956
  987SOL    HW2 2961   0.272   2.177   2.560 -1.8702 -1.0987  0.9186
  988SOL     OW 2962   2.867   0.186   1.570  0.4368 -0.0580  0.6606
  988SOL    HW1 2963   2.963   0.156   1.550  0.6401  0.3749  1.7955
  988SOL    HW2 2964   2.812   0.182   1.482 -2.0374  3.5442 -3.2704
  989SOL     OW 2965   2.096   3.085   1.030  0.1014  0.4362 -0.1098
  989SOL    HW1 2966   2.083   2.997   0.977  3.6969  1.1406  0.5040
  989SOL    HW2 2967   2.117   0.066   0.974  0.8080  0.7586  2.8803
  990SOL     OW 2968   2.773   0.847   0.164  0.5767  0.3278  0.0076
  990SOL    HW1 2969   2.804   0.889   0.075  0.4929  1.3063  0.2951
  990SOL    HW2 2970   2.810   0.754   0.177  0.6561  0.9397 -0.7068
  991SOL     OW 2971   0.239   1.059   0.645  0.1616  0.3951  0.3413
  991SOL    HW1 2972   0.180   1.144   0.634 -1.3433 -0.9656 -0.6794
  991SOL    HW2 2973   0.276   1.055   0.740  1.1758  0.2425  1.7737
  992SOL     OW 2974   1.623   1.622   1.599  0.3565 -0.5279 -0.6028
  992SOL    HW1 2975   1.547   1.685   1.614  1.7467  2.6730 -2.1395
  992SOL    HW2 2976   1.702   1.639   1.662 -0.2119 -0.0496 -0.3924
  993SOL     OW 2977   3.005   2.396   0.975 -0.2716  0.1786 -0.6902
  993SOL    HW1 2978   3.046   2.329   1.044  0.1101 -1.8542  1.7630
  993SOL    HW2 2979   2.910   2.366   0.941  1.4337 -0.2172 -0.5687
  994SOL     OW 2980   2.976   1.834   1.297  0.3618 -0.4905 -0.2297
  994SOL    HW1 2981   2.885   1.880   1.294 -1.6335 -1.2769 -1.0915
  994SOL    HW2 2982   3.014   1.832   1.395  2.4941 -1.1672  2.4459
  995SOL     OW 2983   2.011   1.249   2.793  0.4574 -0.7889 -0.2090
  995SOL    HW1 2984   1.965   1.203   2.873  0.9791 -0.3314  0.8313
  995SOL    HW2 2985   1.980   1.348   2.786 -2.6605  3.2923 -0.5067
  996SOL     OW 2986   1.887   2.503   0.520 -0.2246  0.0694 -0.2750
  996SOL    HW1 2987   1.863   2.456   0.435  1.1212 -0.3166  2.3878
  996SOL    HW2 2988   1.919   2.442   0.594 -2.8014 -0.7382 -3.4472
  997SOL     OW 2989   1.422   1.571   1.938 -0.5964  0.3338  0.0583
  997SOL    HW1 2990   1.343   1.591   1.875  1.6445  3.2226  0.2481
  997SOL    HW2 2991   1.470   1.480   1.911 -1.4451 -2.3692  1.1059
  998SOL     OW 2992   2.992   2.567   0.509  0.0761 -0.2453  0.8654
  998SOL    HW1 2993   2.984   2.468   0.530 -0.6860  1.4093 -1.3757
  998SOL    HW2 2994   2.995   2.626   0.594  2.0392 -0.6963  1.5819
  999SOL     OW 2995   0.704   2.976   0.029  0.1487  0.8154  0.0802
  999SOL    HW1 2996   0.692   2.873   0.014  1.4213  1.4769  0.0384
  999SOL    HW2 2997   0.672   3.029   3.053 -1.3266 -1.4976  1.0889
 1000SOL     OW 2998   0.979   0.274   0.136  0.0136  0.4080 -0.1071
 1000SOL    HW1 2999   1.057   0.308   0.080  2.1472 -1.5878  1.8101
 1000SOL    HW2 3000   0.896   0.249   0.083 -0.2344  2.2539  1.5781
   3.10128   3.10128   3.10128
