1000 SPC/Fw water molecules t=  14.00000 step= 14000
 3000
    1SOL     OW    1   1.788   2.677   0.303  0.0998  0.0013  0.5380
    1SOL    HW1    2   1.725   2.752   0.282  2.6224 -3.8611  0.3389
    1SOL    HW2    3   1.779   2.609   0.228 -1.5733 -0.8224  2.6725
    2SOL     OW    4   1.321   0.780   1.860 -0.8627 -0.6094  0.4283
    2SOL    HW1    5   1.365   0.703   1.812 -1.6407  0.5489 -1.0469
    2SOL    HW2    6   1.389   0.860   1.872 -0.7183  3.6377 -0.3309
    3SOL     OW    7   0.826   0.037   2.747  0.2918 -0.6440  0.5618
    3SOL    HW1    8   0.808   0.125   2.698 -2.4570 -1.3576 -1.8193
    3SOL    HW2    9   0.739   3.078   2.785 -0.9031  1.1985 -2.7638
    4SOL     OW   10   1.503   1.513   2.996  0.3516 -0.3850  0.1255
    4SOL    HW1   11   1.441   1.462   3.058  0.1511  1.4370  0.4214
    4SOL    HW2   12   1.457   1.597   2.958  2.0415  1.3044 -1.8116
    5SOL     OW   13   0.746   1.042   2.238  0.0037  0.0183  0.1478
    5SOL    HW1   14   0.811   0.958   2.243  2.7548 -0.6354  1.8306
    5SOL    HW2   15   0.728   1.084   2.325  1.0751 -0.5346 -1.9766
    6SOL     OW   16   2.193   0.990   2.524  0.3285 -0.2922  0.5028
    6SOL    HW1   17   2.105   0.970   2.473  0.2796 -2.0333 -0.1615
    6SOL    HW2   18   2.244   1.073   2.486 -1.2397 -0.2085 -1.3807
    7SOL     OW   19   0.430   0.901   1.205  0.7818  0.1198 -0.0179
    7SOL    HW1   20   0.494   0.866   1.134 -1.8090 -0.5714  2.2069
    7SOL    HW2   21   0.434   0.999   1.221 -1.8646  0.6386 -0.9125
    8SOL     OW   22   1.979   2.759   1.892  0.0056  0.1283 -0.0253
    8SOL    HW1   23   1.964   2.791   1.795  1.4867 -1.0972 -0.9744
    8SOL    HW2   24   2.014   2.841   1.950 -0.1954  0.3794  0.5732
    9SOL     OW   25   3.071   2.538   0.730  0.1090  0.4145  0.4311
    9SOL    HW1   26   0.026   2.466   0.660  0.2434 -4.4655  0.1057
    9SOL    HW2   27   0.058   2.568   0.798  1.8848  1.3073 -0.2330
   10SOL     OW   28   0.020   2.297   2.422  0.2248  0.1835  0.4149
   10SOL    HW1   29   0.027   2.367   2.342 -0.6938  1.6890  2.5642
   10SOL    HW2   30   0.041   2.200   2.384  1.0252 -3.9162 -1.1080
   11SOL     OW   31   0.417   1.570   3.025 -0.1123 -0.2334  0.1508
   11SOL    HW1   32   0.385   1.474   3.045  1.2394 -4.1183  1.0344
   11SOL    HW2   33   0.447   1.610   0.028 -0.1587  0.7333 -1.2790
   12SOL     OW   34   2.111   2.592   0.700  0.0302 -0.1567  0.1053
   12SOL    HW1   35   2.023   2.546   0.723 -0.0069 -0.8059  3.2258
   12SOL    HW2   36   2.101   2.694   0.717  0.6371  1.4373  0.7597
   13SOL     OW   37   0.134   0.413   2.610 -0.0804  0.0830  0.1613
   13SOL    HW1   38   0.175   0.321   2.633  2.1531 -0.6281 -0.8251
   13SOL    HW2   39   0.176   0.487   2.672  0.2213  2.1867  1.6742
   14SOL     OW   40   1.169   1.097   1.752  0.0660  0.3944 -0.1324
   14SOL    HW1   41   1.148   1.000   1.773 -1.2925  0.0811 -0.2519
   14SOL    HW2   42   1.132   1.155   1.829  0.4144  1.5939  0.3287
   15SOL     OW   43   0.401   1.394   1.958 -0.2737 -0.1743  0.1056
   15SOL    HW1   44   0.424   1.354   1.866 -0.6092  0.3445  2.0421
   15SOL    HW2   45   0.376   1.319   2.023  2.2772  0.2818  1.1298
   16SOL     OW   46   1.528   1.022   2.803 -0.2657  0.1684  0.1722
   16SOL    HW1   47   1.449   1.089   2.790  1.5699 -2.3043 -3.5452
   16SOL    HW2   48   1.605   1.056   2.865 -0.9029 -1.4293  1.8792
   17SOL     OW   49   0.027   2.427   2.196 -0.3020 -0.2616 -0.0126
   17SOL    HW1   50   3.051   2.509   2.183  0.3894 -1.7027  3.6435
   17SOL    HW2   51   0.060   2.388   2.108 -1.2469 -2.9944 -2.9422
   18SOL     OW   52   1.441   1.227   0.632  0.3136  0.1809  0.1206
   18SOL    HW1   53   1.500   1.148   0.652  0.3216  1.7790 -2.9441
   18SOL    HW2   54   1.345   1.212   0.659 -2.5549  0.3446  0.9989
   19SOL     OW   55   0.228   1.110   1.902  0.9737  0.6662  0.0910
   19SOL    HW1   56   0.288   1.052   1.845  1.3175 -0.4295 -0.3158
   19SOL    HW2   57   0.258   1.109   1.998 -0.2794 -3.1713  0.2544
   20SOL     OW   58   2.068   2.142   2.822 -0.6175 -0.1993 -0.3038
   20SOL    HW1   59   2.081   2.179   2.917 -1.5005  1.1552  1.8308
   20SOL    HW2   60   2.006   2.203   2.771  1.2411 -2.1192 -0.3847
   21SOL     OW   61   1.776   1.880   1.136  0.0718 -0.5892  0.5006
   21SOL    HW1   62   1.735   1.884   1.230 -2.8418 -1.0949 -1.9824
   21SOL    HW2   63   1.829   1.796   1.129 -2.0821  0.7266  3.1880
   22SOL     OW   64   1.851   2.156   1.464  0.2115  0.1795 -0.2702
   22SOL    HW1   65   1.838   2.174   1.562 -2.1716  0.3025 -0.0322
   22SOL    HW2   66   1.800   2.227   1.406 -1.4090  2.1353 -0.5135
   23SOL     OW   67   3.078   0.995   1.315 -0.6108 -0.4333  0.2124
   23SOL    HW1   68   3.065   1.020   1.409 -2.7063 -0.9622  0.6121
   23SOL    HW2   69   0.030   0.898   1.300 -0.8015  3.3933  3.6858
   24SOL     OW   70   1.733   1.315   1.803 -0.1288 -0.0322  0.1882
   24SOL    HW1   71   1.689   1.322   1.715  1.6856  0.8545  1.7159
   24SOL    HW2   72   1.812   1.377   1.806 -1.1346  0.7821  0.2281
   25SOL     OW   73   1.887   0.141   2.362 -0.4867 -0.2309 -0.0619
   25SOL    HW1   74   1.966   0.203   2.361 -1.7794 -3.2561  0.5548
   25SOL    HW2   75   1.798   0.187   2.385  0.6578  0.5551 -1.1090
   26SOL     OW   76   0.655   2.826   0.680  0.3612  0.2786 -0.6240
   26SOL    HW1   77   0.743   2.839   0.731  0.4390 -1.7189 -0.5397
   26SOL    HW2   78   0.658   2.741   0.620 -2.4506  1.6160 -0.1942
   27SOL     OW   79   1.231   1.121   1.017 -0.1242  0.4545  0.3050
   27SOL    HW1   80   1.320   1.154   0.979  1.4355 -0.6047 -1.3138
   27SOL    HW2   81   1.156   1.191   1.007 -0.1511  1.2532  1.6551
   28SOL     OW   82   2.115   2.474   1.032  0.0427 -0.0562 -0.4733
   28SOL    HW1   83   2.184   2.491   0.956  0.2766  1.0863  1.0944
   28SOL    HW2   84   2.137   2.535   1.108 -0.5092  0.1715 -1.9819
   29SOL     OW   85   2.229   3.001   2.280  0.0866 -0.2063  0.2006
   29SOL    HW1   86   2.187   2.922   2.334 -0.5840 -2.1098 -1.0099
   29SOL    HW2   87   2.240   0.012   2.330 -0.7863 -0.8622 -2.0482
   30SOL     OW   88   0.065   2.773   1.983 -0.1947  0.0234  0.5603
   30SOL    HW1   89   0.017   2.849   1.934 -0.9468  0.4178 -0.3412
   30SOL    HW2   90   0.151   2.806   2.019 -0.3840  1.8915 -0.5638
   31SOL     OW   91   2.949   1.706   2.073  0.0148  0.0828 -0.7152
   31SOL    HW1   92   2.952   1.777   2.149 -1.5767  3.7756  1.7611
   31SOL    HW2   93   3.045   1.682   2.041  1.4769  0.6839  1.6220
   32SOL     OW   94   1.002   2.221   2.290  0.5151 -0.1639  0.6961
   32SOL    HW1   95   1.059   2.201   2.371 -0.1486  0.4468 -2.1840
   32SOL    HW2   96   1.049   2.296   2.239 -1.1647  1.6194  1.5433
   33SOL     OW   97   0.417   0.447   3.058  0.0105 -0.4307 -0.3162
   33SOL    HW1   98   0.405   0.433   0.078 -1.9521 -3.6490 -1.1804
   33SOL    HW2   99   0.475   0.530   3.041  2.5830  4.8677  1.5697
   34SOL     OW  100   2.877   0.125   0.095  0.2007  0.1139 -0.1702
   34SOL    HW1  101   2.972   0.120   0.061 -0.0934 -1.2019 -2.6321
   34SOL    HW2  102   2.818   0.152   0.015 -0.7722  0.4972  0.3509
   35SOL     OW  103   2.849   2.607   1.696  0.2054  0.5247  0.4436
   35SOL    HW1  104   2.917   2.589   1.765 -2.0997 -1.6377  1.3514
   35SOL    HW2  105   2.859   2.689   1.640 -0.7578 -0.5913  2.7774
   36SOL     OW  106   2.311   0.069   2.469  0.4361 -0.0095  0.2660
   36SOL    HW1  107   2.362   0.072   2.559 -1.9126 -0.8094  0.3585
   36SOL    HW2  108   2.252   0.152   2.459 -2.4039 -2.7237 -0.0915
   37SOL     OW  109   1.646   2.865   3.024  0.2447 -0.5819 -0.2296
   37SOL    HW1  110   1.716   2.822   2.970 -3.0848  3.3384  2.0567
   37SOL    HW2  111   1.617   2.951   2.976 -0.1183 -2.5200 -0.3287
   38SOL     OW  112   0.454   0.563   0.526  0.1460 -0.0209 -1.0247
   38SOL    HW1  113   0.460   0.468   0.489  2.1719  0.6955 -0.9019
   38SOL    HW2  114   0.514   0.573   0.607 -1.4563  0.4730 -0.2933
   39SOL     OW  115   1.088   1.873   2.174  0.0876  0.0985 -0.6721
   39SOL    HW1  116   1.163   1.806   2.187 -2.2831  3.6034 -2.2158
   39SOL    HW2  117   1.134   1.963   2.169 -0.5586 -0.2099 -0.3624
   40SOL     OW  118   2.859   0.892   2.963 -0.2789  0.4056  0.3280
   40SOL    HW1  119   2.847   0.922   2.868  1.4085 -3.2242 -0.3843
   40SOL    HW2  120   2.875   0.975   3.018  0.4885  0.4693 -0.5011
   41SOL     OW  121   1.389   0.548   1.728 -0.0042  0.0031  0.1470
   41SOL    HW1  122   1.464   0.530   1.657 -1.1341 -1.4210 -4.9072
   41SOL    HW2  123   1.384   0.474   1.792  1.0546 -0.9066 -0.3970
   42SOL     OW  124   2.264   0.148   1.164  0.1461 -0.2116 -0.5883
   42SOL    HW1  125   2.258   0.202   1.080  0.8088 -0.9460  2.5525
   42SOL    HW2  126   2.316   0.200   1.235  1.6148  1.8642  2.7756
   43SOL     OW  127   1.364   0.834   1.564  0.4714  0.0217 -0.0287
   43SOL    HW1  128   1.441   0.900   1.564  0.3971 -1.0928 -1.5415
   43SOL    HW2  129   1.390   0.743   1.585  0.5629  1.7850 -0.9756
   44SOL     OW  130   0.348   0.807   0.143 -0.4949 -0.4206 -0.6523
   44SOL    HW1  131   0.312   0.758   0.226 -0.4301  0.8685  3.3211
   44SOL    HW2  132   0.290   0.885   0.110 -0.5018  0.4360 -1.0776
   45SOL     OW  133   0.595   1.693   1.756  0.3686  0.2529  0.5685
   45SOL    HW1  134   0.652   1.613   1.731 -0.1695  1.3954  0.7522
   45SOL    HW2  135   0.623   1.778   1.700 -0.3489  1.2679  0.0420
   46SOL     OW  136   2.218   2.567   1.932 -0.0328  0.1580  0.6107
   46SOL    HW1  137   2.247   2.571   2.033 -0.5656 -0.5993  2.5360
   46SOL    HW2  138   2.126   2.611   1.919  1.9029 -0.8724 -0.4868
   47SOL     OW  139   0.293   1.873   1.516 -0.4857 -0.7288  0.0453
   47SOL    HW1  140   0.258   1.782   1.545 -3.1847 -0.9966 -2.8531
   47SOL    HW2  141   0.345   1.923   1.591 -0.7063  1.0935 -2.4121
   48SOL     OW  142   1.038   2.596   2.765 -0.0456 -0.4648 -0.3658
   48SOL    HW1  143   1.041   2.496   2.734  2.4823 -2.2235 -0.6496
   48SOL    HW2  144   0.950   2.611   2.819 -1.3242  1.5945  0.1801
   49SOL     OW  145   2.550   1.436   1.828 -0.0934 -0.1963 -0.2761
   49SOL    HW1  146   2.614   1.487   1.762 -1.2385 -0.3042  1.0104
   49SOL    HW2  147   2.610   1.367   1.877  1.3159 -1.0387 -0.2695
   50SOL     OW  148   1.020   2.756   0.607  0.5786  0.0810 -0.5022
   50SOL    HW1  149   1.113   2.789   0.610 -3.3308 -1.5359 -0.4886
   50SOL    HW2  150   0.962   2.819   0.553  0.9600  0.8115  1.0645
   51SOL     OW  151   1.253   0.313   1.251  0.1461 -0.0411 -0.0142
   51SOL    HW1  152   1.245   0.412   1.241  0.0875 -3.8032 -0.6858
   51SOL    HW2  153   1.187   0.263   1.192 -1.4058 -0.1761  0.5894
   52SOL     OW  154   0.471   0.905   0.483  0.1831  0.3277  0.3623
   52SOL    HW1  155   0.475   0.906   0.384 -1.4452 -0.4230  1.3703
   52SOL    HW2  156   0.433   0.994   0.518  1.4661 -0.2428  1.6031
   53SOL     OW  157   1.272   0.088   2.673 -0.3408  0.5536 -0.2187
   53SOL    HW1  158   1.205   0.021   2.708  1.0293 -0.7688  2.0243
   53SOL    HW2  159   1.311   0.061   2.583  1.0233  0.9735 -1.8152
   54SOL     OW  160   2.145   0.477   2.279  0.4096  0.1946 -0.0066
   54SOL    HW1  161   2.230   0.533   2.251 -2.1136 -1.7112 -1.3651
   54SOL    HW2  162   2.098   0.437   2.196  1.5247 -0.7744  2.7076
   55SOL     OW  163   2.752   2.654   0.284  0.6454  0.1357  0.0948
   55SOL    HW1  164   2.842   2.645   0.333 -1.4542 -0.4728 -0.8185
   55SOL    HW2  165   2.760   2.679   0.185  0.2840 -1.4160  3.0325
   56SOL     OW  166   0.742   0.170   1.944 -0.5581  0.2310  0.2802
   56SOL    HW1  167   0.691   0.083   1.969 -4.6581 -3.5725 -1.0953
   56SOL    HW2  168   0.797   0.211   2.024 -0.3088  1.1045  0.6984
   57SOL     OW  169   1.677   0.926   2.373 -0.3050  0.2361 -0.0106
   57SOL    HW1  170   1.667   1.007   2.315 -0.5816 -3.5140 -0.8652
   57SOL    HW2  171   1.700   0.838   2.328 -1.3877  0.1142 -0.0290
   58SOL     OW  172   2.964   1.037   2.172  0.4975  0.0448  0.1496
   58SOL    HW1  173   2.951   1.030   2.069  2.0274 -0.5462 -2.1458
   58SOL    HW2  174   2.975   0.944   2.214  1.0604 -3.8413 -2.0583
   59SOL     OW  175   0.438   2.623   1.500  0.0624  0.1425  0.1808
   59SOL    HW1  176   0.481   2.705   1.541  1.2121  0.0510  2.3721
   59SOL    HW2  177   0.475   2.601   1.409  0.6909  1.4934  1.8699
   60SOL     OW  178   1.954   2.933   0.297  0.2331  0.0325  0.1563
   60SOL    HW1  179   1.917   2.847   0.333  0.2268  1.1587  0.0134
   60SOL    HW2  180   2.053   2.950   0.306  1.1557 -1.6769  2.2627
   61SOL     OW  181   1.503   2.422   0.402 -0.3397  0.3322  0.1388
   61SOL    HW1  182   1.537   2.345   0.458 -1.0964 -3.0315  2.3202
   61SOL    HW2  183   1.551   2.440   0.313 -0.2428  1.4454 -1.8836
   62SOL     OW  184   1.831   2.747   2.889  0.2101  0.0427  0.9573
   62SOL    HW1  185   1.879   2.750   2.795  1.1368 -2.1296 -1.2935
   62SOL    HW2  186   1.794   2.657   2.904 -0.0230  1.1529  1.4137
   63SOL     OW  187   2.191   0.798   0.619 -0.2807 -0.3734  0.2404
   63SOL    HW1  188   2.200   0.851   0.536 -0.1247 -1.3431 -0.4422
   63SOL    HW2  189   2.094   0.780   0.642  1.3761  0.1312 -2.6246
   64SOL     OW  190   1.586   1.175   0.037 -0.1663  0.6140 -0.8285
   64SOL    HW1  191   1.615   1.255   0.093 -1.7497  0.4345  0.6756
   64SOL    HW2  192   1.485   1.160   0.039  0.5362 -1.9142  2.7469
   65SOL     OW  193   0.702   2.286   1.554 -0.3591  0.4378 -0.2636
   65SOL    HW1  194   0.642   2.244   1.495  2.3395  1.1413  3.4031
   65SOL    HW2  195   0.668   2.362   1.613  2.6274  2.9065  0.0232
   66SOL     OW  196   0.914   1.180   1.549 -0.2151 -0.3930  0.1134
   66SOL    HW1  197   1.010   1.179   1.510  0.9139 -0.0685 -3.0434
   66SOL    HW2  198   0.915   1.206   1.648 -1.3622 -2.1735  0.9028
   67SOL     OW  199   2.413   2.046   1.776  0.3681 -0.2059 -0.7169
   67SOL    HW1  200   2.496   2.022   1.724  0.3378  2.8354  0.4280
   67SOL    HW2  201   2.359   1.963   1.805  0.1884  3.7595  2.1950
   68SOL     OW  202   0.936   1.690   1.820  0.3714  1.1753 -0.1253
   68SOL    HW1  203   0.858   1.640   1.773  0.3714 -1.7846  0.3154
   68SOL    HW2  204   0.909   1.758   1.895  0.6783  0.6130  1.9773
   69SOL     OW  205   0.112   2.921   3.027  0.0562 -0.0463  0.0447
   69SOL    HW1  206   0.099   2.847   0.014 -1.2571  1.2617  2.1094
   69SOL    HW2  207   0.090   3.009   3.073 -0.6668 -0.0627  1.1165
   70SOL     OW  208   2.310   1.209   2.429 -0.0118 -0.0345  0.3084
   70SOL    HW1  209   2.290   1.305   2.411  1.9191 -0.4823 -1.9791
   70SOL    HW2  210   2.405   1.186   2.402  2.3232  0.1412  1.2902
   71SOL     OW  211   0.925   2.186   0.754  0.0961 -0.4984 -0.2450
   71SOL    HW1  212   0.993   2.256   0.720  2.0509  3.1065 -2.9789
   71SOL    HW2  213   0.948   2.162   0.848  0.1145  1.1488 -0.9729
   72SOL     OW  214   2.540   2.135   0.575  0.6006  0.4984  0.2801
   72SOL    HW1  215   2.462   2.115   0.632  1.8030  0.9072  0.6125
   72SOL    HW2  216   2.614   2.171   0.631  0.6286 -0.4166 -3.1006
   73SOL     OW  217   1.494   0.753   0.872  0.3659  0.6886 -1.7134
   73SOL    HW1  218   1.530   0.843   0.904  0.7222 -0.3229 -1.0769
   73SOL    HW2  219   1.551   0.679   0.913  0.7400 -1.4145  0.0034
   74SOL     OW  220   2.822   2.092   2.038 -0.1166 -0.3515 -0.2780
   74SOL    HW1  221   2.896   2.126   1.975  4.3155  1.4741 -1.9978
   74SOL    HW2  222   2.765   2.175   2.071 -0.8712  4.6453  1.0566
   75SOL     OW  223   1.454   1.886   1.948 -0.0242 -0.2479  0.3060
   75SOL    HW1  224   1.417   1.885   1.851  1.1412  1.9381 -1.2057
   75SOL    HW2  225   1.475   1.790   1.976 -3.5245  2.7292 -1.1704
   76SOL     OW  226   1.443   1.453   1.259 -0.2267  0.1725 -0.3260
   76SOL    HW1  227   1.425   1.351   1.259 -2.0364  0.8607  0.8153
   76SOL    HW2  228   1.523   1.467   1.199 -1.9502  0.8733 -0.8774
   77SOL     OW  229   2.507   1.219   1.607  0.1766 -0.4471  0.1868
   77SOL    HW1  230   2.473   1.317   1.616 -0.6442  1.1612 -2.8460
   77SOL    HW2  231   2.448   1.165   1.543  1.0027  2.6687 -0.7010
   78SOL     OW  232   1.715   0.598   0.297  0.2644 -0.0871  0.0090
   78SOL    HW1  233   1.691   0.525   0.228  1.3397 -0.2815 -0.1790
   78SOL    HW2  234   1.671   0.689   0.275  1.9572 -0.7885 -0.5022
   79SOL     OW  235   1.020   1.492   2.077  0.3711  0.6532 -0.4920
   79SOL    HW1  236   1.084   1.460   2.009  2.3441 -0.3474  0.1715
   79SOL    HW2  237   0.924   1.471   2.049  0.1948  0.7566  2.7253
   80SOL     OW  238   0.988   0.290   1.371  0.1253  0.2145 -0.1232
   80SOL    HW1  239   1.021   0.388   1.367  2.0089  1.6785 -2.9803
   80SOL    HW2  240   1.031   0.234   1.443  0.0071 -0.6277 -2.3691
   81SOL     OW  241   0.518   2.353   0.237  0.2291  0.5588  0.4278
   81SOL    HW1  242   0.600   2.365   0.175  0.5412  1.6054  0.4073
   81SOL    HW2  243   0.539   2.289   0.313 -2.1927  1.6171  2.6164
   82SOL     OW  244   1.092   0.107   1.552 -0.2414  0.4412  0.7047
   82SOL    HW1  245   1.031   0.119   1.636 -0.2437 -1.8250 -1.1014
   82SOL    HW2  246   1.183   0.075   1.566 -2.2897  1.8011 -2.3414
   83SOL     OW  247   0.311   2.323   0.989  0.1879 -0.0774 -0.0312
   83SOL    HW1  248   0.256   2.286   1.065 -1.1029 -1.0448  0.6127
   83SOL    HW2  249   0.303   2.275   0.901 -0.1621  0.6875 -1.5897
   84SOL     OW  250   2.835   1.528   1.040  0.1658 -0.5189 -0.2437
   84SOL    HW1  251   2.811   1.466   0.974  0.9189  3.0194 -0.4406
   84SOL    HW2  252   2.915   1.580   1.013 -1.7234  0.7791  0.5661
   85SOL     OW  253   2.257   1.963   1.216 -0.1741  0.4761 -0.3584
   85SOL    HW1  254   2.157   1.954   1.207  0.6094 -0.3437  2.8466
   85SOL    HW2  255   2.287   1.927   1.307 -0.1756 -1.1619 -1.3227
   86SOL     OW  256   1.314   2.287   1.956  0.0494 -0.2963  0.3799
   86SOL    HW1  257   1.269   2.239   1.879 -1.0234  1.2100 -1.5157
   86SOL    HW2  258   1.325   2.385   1.931  0.8139  0.2927  0.3056
   87SOL     OW  259   2.193   1.630   0.602 -0.0647 -0.3411 -0.1552
   87SOL    HW1  260   2.253   1.557   0.562  3.9416 -0.4154 -1.0364
   87SOL    HW2  261   2.204   1.721   0.554 -2.4297  0.2370  0.7694
   88SOL     OW  262   0.477   2.975   0.882 -0.7768 -0.7391  0.1237
   88SOL    HW1  263   0.446   2.897   0.828  0.3667 -0.7668 -2.9867
   88SOL    HW2  264   0.574   2.998   0.851  2.4405  2.0012  0.1774
   89SOL     OW  265   0.328   0.753   1.914  0.2697 -0.3752 -0.4796
   89SOL    HW1  266   0.317   0.818   1.994  0.8823  0.8764  0.5856
   89SOL    HW2  267   0.421   0.707   1.908  0.4183  3.2909 -1.8966
   90SOL     OW  268   2.818   2.038   0.301 -0.1324 -0.0378  0.0738
   90SOL    HW1  269   2.773   2.128   0.320  1.0207  0.9325 -0.6980
   90SOL    HW2  270   2.840   1.989   0.384  1.6940  1.4749 -2.1170
   91SOL     OW  271   0.884   1.973   1.017  0.1882  0.7955  0.0995
   91SOL    HW1  272   0.940   1.990   1.095 -1.5990  1.6298  0.0262
   91SOL    HW2  273   0.786   1.960   1.045  1.4250  0.8524  0.1163
   92SOL     OW  274   2.238   3.078   1.854 -0.1402  0.0774  0.0305
   92SOL    HW1  275   2.317   0.041   1.902 -2.0671 -1.7727 -0.2577
   92SOL    HW2  276   2.166   3.053   1.917  0.7847  1.2958 -2.7882
   93SOL     OW  277   0.435   1.758   2.844 -0.7995  0.3402  0.0837
   93SOL    HW1  278   0.439   1.689   2.916  0.6557  3.1278 -2.7321
   93SOL    HW2  279   0.526   1.788   2.811 -1.9133  0.0960  3.8440
   94SOL     OW  280   2.471   0.114   1.948 -1.0254  0.2795  0.0180
   94SOL    HW1  281   2.472   0.208   1.986  1.0191 -2.1230  0.2294
   94SOL    HW2  282   2.549   0.098   1.883 -0.4529 -1.0646  0.2288
   95SOL     OW  283   1.894   0.313   1.860 -0.4686 -0.5170 -0.3762
   95SOL    HW1  284   1.964   0.288   1.787  1.3485  0.4771 -2.4872
   95SOL    HW2  285   1.814   0.259   1.839  2.2244 -0.6326 -0.8638
   96SOL     OW  286   0.332   0.374   1.754  0.1827  0.7994 -0.1234
   96SOL    HW1  287   0.235   0.349   1.763 -0.4293 -1.6136 -1.3078
   96SOL    HW2  288   0.342   0.463   1.707  0.3719  2.0177 -1.4934
   97SOL     OW  289   1.972   0.149   1.547 -0.4309  0.3776  0.3084
   97SOL    HW1  290   1.968   0.214   1.466  2.2075 -0.5241  0.5744
   97SOL    HW2  291   1.886   0.093   1.562  2.5325 -0.7456 -0.2413
   98SOL     OW  292   1.960   2.300   1.800 -0.1493 -0.4201  0.2652
   98SOL    HW1  293   2.044   2.264   1.755 -2.2702  1.5465  0.7558
   98SOL    HW2  294   1.978   2.314   1.902  0.3884  0.2169  4.1632
   99SOL     OW  295   0.657   0.824   1.016 -0.3023  0.4573  0.5765
   99SOL    HW1  296   0.565   0.811   0.973  2.0889 -0.4210  1.4819
   99SOL    HW2  297   0.727   0.768   0.963 -1.2283 -1.8487 -2.1319
  100SOL     OW  298   2.750   1.821   1.956 -0.0515 -0.1478 -0.2727
  100SOL    HW1  299   2.760   1.920   1.992  2.1010  3.0086  0.9534
  100SOL    HW2  300   2.824   1.765   2.002  1.4793  0.8264  0.1245
  101SOL     OW  301   1.706   0.153   3.069  0.5237  0.2784 -0.7943
  101SOL    HW1  302   1.745   0.234   0.040 -1.7896  1.3323  1.6469
  101SOL    HW2  303   1.660   0.178   2.985  3.5300 -0.1066  0.1664
  102SOL     OW  304   3.009   3.000   0.932  0.9837  0.1023 -0.5161
  102SOL    HW1  305   2.910   2.981   0.918 -0.4543 -0.4516  1.1570
  102SOL    HW2  306   3.062   2.915   0.959  1.0386 -0.1449  2.9144
  103SOL     OW  307   0.428   2.891   2.347 -0.1526 -0.5100  0.5374
  103SOL    HW1  308   0.408   2.827   2.425  1.2529  0.3139 -3.1754
  103SOL    HW2  309   0.518   2.883   2.305  0.0020  4.4079  2.5896
  104SOL     OW  310   0.331   2.222   1.559 -0.2295  0.3849 -0.0715
  104SOL    HW1  311   0.239   2.270   1.550 -1.5558  2.4186 -2.5704
  104SOL    HW2  312   0.393   2.248   1.484  0.0444  1.0001 -1.2592
  105SOL     OW  313   0.628   1.996   2.068  0.2974 -0.3527  0.1649
  105SOL    HW1  314   0.560   1.936   2.114  1.2801 -0.7290 -3.6570
  105SOL    HW2  315   0.662   2.068   2.133  2.1694 -1.6558 -0.2684
  106SOL     OW  316   2.462   3.059   0.465  0.1278 -0.3806 -0.1155
  106SOL    HW1  317   2.432   3.053   0.562  2.5146  0.0375 -2.9139
  106SOL    HW2  318   2.529   2.986   0.450  0.9463  0.4493 -0.4295
  107SOL     OW  319   0.717   1.288   1.181  0.0196  0.5944 -0.4020
  107SOL    HW1  320   0.628   1.243   1.198 -3.0556 -0.0502  0.7704
  107SOL    HW2  321   0.790   1.243   1.237 -0.7458  1.7031  1.5704
  108SOL     OW  322   2.915   1.088   1.911 -0.0897 -0.3987 -0.4926
  108SOL    HW1  323   2.813   1.079   1.894 -1.9198 -1.9132  1.1392
  108SOL    HW2  324   2.959   1.151   1.841 -2.9265  0.4127  0.8993
  109SOL     OW  325   2.027   2.784   0.023  0.2052 -0.0090  0.3571
  109SOL    HW1  326   1.948   2.795   0.082 -0.5681 -0.6393 -1.0800
  109SOL    HW2  327   1.991   2.765   3.013 -1.1572 -1.0365  0.9012
  110SOL     OW  328   0.215   2.060   2.695 -0.1579 -0.9771  0.4332
  110SOL    HW1  329   0.144   2.019   2.637 -0.4654 -0.6162  0.7987
  110SOL    HW2  330   0.229   2.002   2.777 -1.1913 -0.1132 -0.2934
  111SOL     OW  331   2.716   0.842   2.342  0.2988  0.1757 -0.0335
  111SOL    HW1  332   2.764   0.807   2.255 -1.2368  2.9282 -1.6728
  111SOL    HW2  333   2.780   0.841   2.420 -1.8912 -1.7192 -4.4438
  112SOL     OW  334   2.277   2.643   1.676 -0.0506 -0.2302  0.1795
  112SOL    HW1  335   2.277   2.746   1.669  0.4095 -0.0154  0.3084
  112SOL    HW2  336   2.261   2.617   1.775 -0.9141  0.7224 -0.9058
  113SOL     OW  337   2.138   2.008   2.598  0.2541  0.4598  0.0028
  113SOL    HW1  338   2.160   1.912   2.631 -0.2144 -1.5632  0.9464
  113SOL    HW2  339   2.135   2.074   2.677  1.7193 -0.5563 -1.5249
  114SOL     OW  340   0.685   0.133   0.372  0.4404  0.1872  0.0299
  114SOL    HW1  341   0.698   0.053   0.311  1.5974  2.5939  0.2028
  114SOL    HW2  342   0.720   0.105   0.464  0.1291 -0.2819 -1.8873
  115SOL     OW  343   3.068   1.889   3.057  0.0870  0.5109  0.1911
  115SOL    HW1  344   3.050   1.818   0.044  1.2440  0.1979 -1.0028
  115SOL    HW2  345   0.086   1.898   3.025 -0.1956  0.1638 -1.9943
  116SOL     OW  346   0.006   1.259   1.766 -0.3243 -0.0364  0.2402
  116SOL    HW1  347   0.085   1.219   1.809 -2.0821  4.0215 -1.0865
  116SOL    HW2  348   0.029   1.340   1.711  1.0011  0.3660  3.3152
  117SOL     OW  349   1.953   0.303   1.327  0.2245  0.0325 -0.1872
  117SOL    HW1  350   2.032   0.348   1.288  1.6295  0.9941  0.2713
  117SOL    HW2  351   1.874   0.366   1.333  0.1954 -1.5290 -0.9588
  118SOL     OW  352   2.731   2.577   2.138 -0.5243  0.0727 -0.8053
  118SOL    HW1  353   2.717   2.576   2.041 -1.9039 -0.1874  3.6583
  118SOL    HW2  354   2.822   2.615   2.167 -4.2390 -0.8069 -0.6399
  119SOL     OW  355   0.419   1.526   1.581 -0.1777 -0.0658 -0.5581
  119SOL    HW1  356   0.482   1.509   1.509 -3.0837  0.9239  1.1435
  119SOL    HW2  357   0.461   1.576   1.660  0.2979  0.8006 -2.1044
  120SOL     OW  358   0.458   1.277   1.715 -0.1373  0.2455 -0.4931
  120SOL    HW1  359   0.466   1.176   1.692 -0.6573  1.2843 -0.2396
  120SOL    HW2  360   0.431   1.332   1.634 -2.7770  0.7142 -2.1637
  121SOL     OW  361   1.616   1.023   0.683 -0.3524  0.0138 -0.0201
  121SOL    HW1  362   1.629   0.936   0.631  2.0553  3.9011  1.7288
  121SOL    HW2  363   1.646   1.012   0.783 -0.9656 -1.2680  0.9916
  122SOL     OW  364   2.399   2.273   2.767  0.3459 -0.1638  0.6428
  122SOL    HW1  365   2.372   2.358   2.822 -1.2094 -0.1910  0.4595
  122SOL    HW2  366   2.417   2.287   2.665  0.8829 -1.2542 -3.4296
  123SOL     OW  367   0.158   0.165   0.270 -0.1089  0.3596 -0.9181
  123SOL    HW1  368   0.195   0.126   0.355 -0.0007 -0.3863  0.1818
  123SOL    HW2  369   0.117   0.263   0.279  1.5534  2.3010  1.1343
  124SOL     OW  370   1.717   1.393   0.162 -0.0749  0.2173  0.5004
  124SOL    HW1  371   1.736   1.468   0.097  0.7409 -0.3613  2.1489
  124SOL    HW2  372   1.809   1.351   0.188  2.7554  2.1615  0.2326
  125SOL     OW  373   0.017   0.808   2.274 -0.0645  0.4056  0.4028
  125SOL    HW1  374   3.062   0.783   2.364  1.4189  0.1093 -1.4510
  125SOL    HW2  375   0.117   0.787   2.266  1.6700 -0.5951  1.6996
  126SOL     OW  376   0.110   2.704   2.800 -0.4574  0.0385 -0.2144
  126SOL    HW1  377   0.025   2.674   2.759 -2.4042  1.3456 -0.4009
  126SOL    HW2  378   0.084   2.783   2.858  0.0377 -0.9061  2.0030
  127SOL     OW  379   2.772   1.855   0.090 -0.6747 -0.1878  0.4706
  127SOL    HW1  380   2.786   1.916   0.170  0.6666  0.2382 -2.9450
  127SOL    HW2  381   2.732   1.907   0.013 -1.3682 -0.4527 -3.3606
  128SOL     OW  382   0.988   1.007   0.971  0.0820 -0.1780 -0.3489
  128SOL    HW1  383   1.086   1.036   0.982 -1.5052 -2.2475 -1.2056
  128SOL    HW2  384   0.943   1.003   1.060 -0.3755 -0.7020  0.2870
  129SOL     OW  385   2.296   2.218   1.117 -0.4161  0.0802  0.0399
  129SOL    HW1  386   2.259   2.127   1.126 -1.4064  2.8793  1.0202
  129SOL    HW2  387   2.261   2.278   1.192 -0.9262  0.0854 -0.4663
  130SOL     OW  388   2.001   0.835   0.119  0.3867 -0.2453 -0.2923
  130SOL    HW1  389   2.100   0.866   0.131  2.4962 -2.2504  0.2815
  130SOL    HW2  390   1.965   0.850   0.025  0.8339 -0.7904 -0.8210
  131SOL     OW  391   2.897   1.570   2.705  0.0474 -0.4903  0.0993
  131SOL    HW1  392   2.887   1.594   2.606  0.9466  0.8221  0.9232
  131SOL    HW2  393   2.993   1.580   2.736  0.8918  0.1102  1.2799
  132SOL     OW  394   1.086   1.111   2.056  0.2663  0.2241  0.3047
  132SOL    HW1  395   0.990   1.141   2.062  0.1201 -1.9504 -1.0872
  132SOL    HW2  396   1.080   1.021   2.005  0.5247  0.6578 -0.9401
  133SOL     OW  397   0.517   1.191   0.798  0.1053  0.2731  0.3135
  133SOL    HW1  398   0.618   1.190   0.781 -1.4257 -1.4113 -0.2762
  133SOL    HW2  399   0.490   1.285   0.824  1.8892  0.7265 -3.3913
  134SOL     OW  400   0.018   1.508   3.058 -0.0465 -0.1456 -0.1289
  134SOL    HW1  401   0.080   1.505   0.056 -1.0651  0.9364  0.5680
  134SOL    HW2  402   0.040   1.435   2.991 -0.3696  0.3426  0.1939
  135SOL     OW  403   1.634   0.800   0.033 -0.0677  0.6709 -0.3426
  135SOL    HW1  404   1.557   0.833   3.053 -0.0352  1.7622 -1.1899
  135SOL    HW2  405   1.720   0.787   3.064 -3.2170  0.4093  2.0367
  136SOL     OW  406   2.014   1.906   1.431  0.4273 -0.6798  0.6064
  136SOL    HW1  407   1.969   1.822   1.402  0.2344  1.4999  0.8099
  136SOL    HW2  408   1.950   1.988   1.441 -1.8923  2.5474 -0.5492
  137SOL     OW  409   2.324   2.579   0.865  0.0695 -0.2155  0.1097
  137SOL    HW1  410   2.361   2.673   0.879  0.4658 -1.3430  1.3977
  137SOL    HW2  411   2.246   2.585   0.799 -0.0858 -2.0707  2.5321
  138SOL     OW  412   2.203   0.551   1.776  0.0454 -0.3481  0.4308
  138SOL    HW1  413   2.130   0.584   1.838 -0.2164 -0.0925 -0.9161
  138SOL    HW2  414   2.181   0.453   1.741  0.1847 -2.5655  3.2511
  139SOL     OW  415   2.678   2.409   2.805  0.3678 -0.0515  0.0643
  139SOL    HW1  416   2.670   2.308   2.815 -2.3527  0.6572  0.0049
  139SOL    HW2  417   2.653   2.438   2.707 -0.4474  0.7799 -0.1976
  140SOL     OW  418   1.587   2.087   2.350 -0.2326 -0.6286 -0.0557
  140SOL    HW1  419   1.672   2.115   2.401  0.2976 -4.1087 -0.5452
  140SOL    HW2  420   1.604   1.991   2.323  0.5243 -0.7208 -0.5155
  141SOL     OW  421   0.979   1.185   2.479  0.2237 -0.0623  0.4638
  141SOL    HW1  422   1.031   1.229   2.404  0.3861 -0.0447  0.8540
  141SOL    HW2  423   1.043   1.152   2.548  1.4174 -1.6622  3.4841
  142SOL     OW  424   1.850   2.597   2.090 -0.3167  0.0257  0.2918
  142SOL    HW1  425   1.876   2.501   2.080 -0.0222  0.0461  0.1302
  142SOL    HW2  426   1.921   2.655   2.039  0.4243  1.5173 -1.5175
  143SOL     OW  427   1.234   2.377   0.467 -0.3597 -0.1871 -0.0105
  143SOL    HW1  428   1.329   2.407   0.443  0.6072 -0.6414  0.6771
  143SOL    HW2  429   1.215   2.391   0.569 -1.2749 -0.4732  0.3363
  144SOL     OW  430   0.764   2.616   0.554 -0.8472  0.3613  0.3139
  144SOL    HW1  431   0.845   2.626   0.617  0.2818  2.1801  1.1239
  144SOL    HW2  432   0.806   2.599   0.463  0.5947 -2.8453  0.7471
  145SOL     OW  433   1.719   2.537   2.663 -0.7326  0.2366 -0.3348
  145SOL    HW1  434   1.637   2.595   2.652  0.9144 -0.0970  2.6804
  145SOL    HW2  435   1.729   2.514   2.762  2.6993  1.6730 -2.0369
  146SOL     OW  436   2.145   2.555   0.100 -0.6835  0.2158  0.1504
  146SOL    HW1  437   2.095   2.634   0.058  2.0845 -0.3779 -1.8237
  146SOL    HW2  438   2.159   2.566   0.199 -2.5400 -2.1438 -1.8637
  147SOL     OW  439   0.155   1.638   1.596  0.3976  0.1532  0.4774
  147SOL    HW1  440   0.242   1.587   1.584 -1.8944 -0.9573  2.4239
  147SOL    HW2  441   0.094   1.578   1.655  0.3352  1.0899  1.7642
  148SOL     OW  442   1.594   2.874   0.206  0.5610 -0.1407 -0.0510
  148SOL    HW1  443   1.622   2.966   0.240  0.2187  1.8084  1.0388
  148SOL    HW2  444   1.607   2.867   0.103 -0.2011  2.4864 -2.3669
  149SOL     OW  445   0.552   1.983   0.079  0.7901  0.2394  0.5691
  149SOL    HW1  446   0.610   1.988   3.080  0.2755 -1.0496 -1.0970
  149SOL    HW2  447   0.484   2.063   0.081 -0.2305  1.6475 -0.5142
  150SOL     OW  448   0.199   2.570   1.287  0.9207  0.0342  0.2971
  150SOL    HW1  449   0.194   2.597   1.384 -1.1531  0.2457  0.2385
  150SOL    HW2  450   0.103   2.576   1.243 -2.8758  0.0642 -0.1906
  151SOL     OW  451   0.385   1.309   3.051 -0.6621  0.1775  0.1067
  151SOL    HW1  452   0.453   1.295   2.977  0.7602 -0.1970 -0.1817
  151SOL    HW2  453   0.424   1.321   0.064 -0.7787 -1.6283  0.7111
  152SOL     OW  454   3.014   2.101   1.001 -0.2523  0.8827 -0.5713
  152SOL    HW1  455   2.945   2.031   0.968 -0.9454 -1.0200  0.9826
  152SOL    HW2  456   2.978   2.156   1.080 -1.2997  1.0035  1.2420
  153SOL     OW  457   1.545   2.190   0.575 -0.3808 -0.2392 -0.3553
  153SOL    HW1  458   1.630   2.151   0.533 -0.0973 -0.2671 -3.4894
  153SOL    HW2  459   1.482   2.110   0.593 -1.2748 -3.1826  0.6140
  154SOL     OW  460   0.510   0.068   1.509  0.1868  0.1057  0.4254
  154SOL    HW1  461   0.465   0.101   1.422  1.6276  0.5459 -0.1629
  154SOL    HW2  462   0.591   0.130   1.531  0.5200 -0.4096  1.8144
  155SOL     OW  463   2.713   2.300   0.344  0.1643  0.0534 -0.4255
  155SOL    HW1  464   2.761   2.355   0.419 -0.7169  0.1218  2.8790
  155SOL    HW2  465   2.613   2.306   0.366 -0.4942  2.8191  0.6719
  156SOL     OW  466   2.414   2.030   0.334  0.0823 -0.4242  0.3795
  156SOL    HW1  467   2.420   2.095   0.255 -1.9358  1.3350 -0.9771
  156SOL    HW2  468   2.470   2.052   0.416 -1.6676 -2.0805  3.2558
  157SOL     OW  469   0.664   2.848   1.789 -0.1515 -0.2987  0.2638
  157SOL    HW1  470   0.646   2.924   1.847  0.3651 -2.8509 -1.3600
  157SOL    HW2  471   0.632   2.759   1.831  0.3630 -1.4286 -0.5266
  158SOL     OW  472   1.257   0.608   1.197  0.0275  0.4186 -0.3992
  158SOL    HW1  473   1.242   0.691   1.139  1.6193 -1.0512 -0.1957
  158SOL    HW2  474   1.185   0.599   1.272  1.0013 -1.5202  1.0459
  159SOL     OW  475   1.789   1.059   2.989 -0.1490  0.3279  0.0104
  159SOL    HW1  476   1.699   1.089   3.030 -2.3870 -1.2764 -1.9306
  159SOL    HW2  477   1.797   0.956   2.988 -2.0798  2.5916 -0.7192
  160SOL     OW  478   1.192   1.860   0.493 -0.3328 -0.1929  0.2434
  160SOL    HW1  479   1.208   1.933   0.420  2.3752  0.2953 -0.4963
  160SOL    HW2  480   1.107   1.891   0.541 -0.2331 -0.6928 -2.3079
  161SOL     OW  481   2.607   2.161   2.387 -0.3461 -0.0686 -0.6665
  161SOL    HW1  482   2.511   2.186   2.369  1.4997  0.5152 -0.6231
  161SOL    HW2  483   2.619   2.149   2.484 -0.8315  1.0361 -0.0260
  162SOL     OW  484   0.064   2.338   1.485  0.1984  0.0248 -0.1661
  162SOL    HW1  485   3.074   2.277   1.522 -1.7281  0.0877  0.9440
  162SOL    HW2  486   0.074   2.323   1.389 -1.1568  0.2926 -0.9488
  163SOL     OW  487   0.206   0.570   2.838 -0.0715  0.2487  0.2101
  163SOL    HW1  488   0.285   0.581   2.901 -0.7255 -0.5711 -0.6252
  163SOL    HW2  489   0.139   0.646   2.853  1.9185 -0.3827 -0.1870
  164SOL     OW  490   0.387   2.492   2.693  0.0560  0.1279  0.0136
  164SOL    HW1  491   0.302   2.460   2.667  1.3230  1.4570  2.4755
  164SOL    HW2  492   0.401   2.491   2.791  2.5014 -0.4698 -0.0444
  165SOL     OW  493   2.497   0.865   1.528  0.3378 -0.2714  0.0315
  165SOL    HW1  494   2.455   0.959   1.510 -0.6804  2.4365  0.4960
  165SOL    HW2  495   2.552   0.861   1.612 -0.5972 -0.7984  0.4211
  166SOL     OW  496   1.936   1.626   1.391 -0.1927  0.1092 -0.0012
  166SOL    HW1  497   2.022   1.564   1.397  2.3038 -1.3310  1.9265
  166SOL    HW2  498   1.906   1.622   1.296 -1.4209  1.2435  2.2248
  167SOL     OW  499   0.030   0.765   2.900  0.0396  0.0597  0.1344
  167SOL    HW1  500   3.020   0.795   2.933  2.7011  0.9929 -0.7479
  167SOL    HW2  501   0.063   0.836   2.836 -0.8405 -1.9866 -0.8151
  168SOL     OW  502   2.126   0.392   2.694  0.4563 -0.1052 -0.1558
  168SOL    HW1  503   2.024   0.377   2.696 -1.4507  1.0622 -3.0356
  168SOL    HW2  504   2.148   0.492   2.685  0.6562 -0.5166 -0.4389
  169SOL     OW  505   0.607   1.059   3.012 -0.1069 -0.6738  0.1495
  169SOL    HW1  506   0.628   1.006   0.014  0.8657  0.7155  0.3758
  169SOL    HW2  507   0.510   1.049   2.978 -1.2404  0.1534 -0.0518
  170SOL     OW  508   0.927   1.322   1.818 -0.2118  0.4472  0.3120
  170SOL    HW1  509   0.906   1.295   1.912 -0.3398  1.2780  1.3288
  170SOL    HW2  510   1.027   1.343   1.803 -2.4477  1.1322 -2.5464
  171SOL     OW  511   1.372   2.761   1.153 -0.0752 -0.0058  0.4476
  171SOL    HW1  512   1.357   2.860   1.185  0.4697  1.8901  1.0305
  171SOL    HW2  513   1.463   2.727   1.176  0.0268  2.5125  0.1803
  172SOL     OW  514   0.899   2.903   1.699  0.1824  0.2616 -0.7873
  172SOL    HW1  515   0.805   2.875   1.728  1.3002  3.3369 -0.2769
  172SOL    HW2  516   0.953   2.818   1.688 -0.9406  1.8309  0.3468
  173SOL     OW  517   0.574   2.480   0.644 -0.0397 -0.1148 -0.3134
  173SOL    HW1  518   0.663   2.527   0.615  1.1332  0.2286 -0.0651
  173SOL    HW2  519   0.571   2.473   0.747  0.8492 -3.9075  1.8841
  174SOL     OW  520   2.123   0.142   0.406 -0.0658 -0.0779 -0.2742
  174SOL    HW1  521   2.048   0.083   0.442  2.3557  0.9587 -2.9263
  174SOL    HW2  522   2.184   0.088   0.349 -0.5617 -0.6593  2.0766
  175SOL     OW  523   1.047   1.319   0.996 -0.2942 -0.1988  0.1970
  175SOL    HW1  524   1.077   1.406   0.952  0.4102  0.7542 -0.4706
  175SOL    HW2  525   0.953   1.328   1.036  2.3454  2.6984  0.1994
  176SOL     OW  526   1.065   1.847   0.896  0.3312 -0.0796  0.1060
  176SOL    HW1  527   1.140   1.906   0.864  2.5710 -2.3822 -0.0806
  176SOL    HW2  528   0.989   1.905   0.932  0.1099  1.9283 -2.1839
  177SOL     OW  529   1.478   1.199   0.946 -0.3287  0.4981 -0.1109
  177SOL    HW1  530   1.534   1.118   0.975  2.2141 -1.8523  0.6100
  177SOL    HW2  531   1.527   1.255   0.876 -2.2502  0.7073 -0.7864
  178SOL     OW  532   2.380   1.468   0.495  0.2123  0.6848 -0.4073
  178SOL    HW1  533   2.461   1.524   0.479 -3.0844 -0.1114 -0.1453
  178SOL    HW2  534   2.343   1.435   0.405 -0.7704 -1.2598  1.7665
  179SOL     OW  535   1.309   2.857   0.074  0.6135  0.0634 -0.2065
  179SOL    HW1  536   1.253   2.802   0.138 -0.0360  2.3998  0.5102
  179SOL    HW2  537   1.400   2.865   0.112  0.3577  0.3334 -2.7271
  180SOL     OW  538   1.796   1.230   1.347 -0.1150 -0.1303 -0.4426
  180SOL    HW1  539   1.777   1.304   1.415 -1.2176  2.1361 -1.2419
  180SOL    HW2  540   1.851   1.263   1.270  4.0216 -1.3559  1.6993
  181SOL     OW  541   0.632   0.899   1.831 -0.3903  0.0292  0.1059
  181SOL    HW1  542   0.725   0.871   1.801 -1.8721 -0.4390 -0.8759
  181SOL    HW2  543   0.598   0.825   1.894  0.8220 -0.4256  1.8464
  182SOL     OW  544   2.908   1.014   2.693 -0.2975  0.1558 -0.4077
  182SOL    HW1  545   2.808   0.987   2.674  0.3221 -1.4107 -0.6548
  182SOL    HW2  546   2.920   1.109   2.665 -3.5950 -1.5515  0.4729
  183SOL     OW  547   1.524   0.329   2.122  0.1845  0.2489  0.5746
  183SOL    HW1  548   1.604   0.391   2.149 -1.6948  1.8251 -0.1614
  183SOL    HW2  549   1.470   0.315   2.207  1.7196 -1.6443 -3.2655
  184SOL     OW  550   0.738   0.501   1.112  0.0480 -0.4948 -0.3593
  184SOL    HW1  551   0.784   0.548   1.031 -0.7052  2.3730 -3.0949
  184SOL    HW2  552   0.749   0.400   1.101 -2.3502 -4.2506  0.8112
  185SOL     OW  553   2.397   1.189   0.459  0.1155  0.2330  0.0825
  185SOL    HW1  554   2.490   1.153   0.452 -1.5263  1.3751 -1.2462
  185SOL    HW2  555   2.399   1.289   0.483  1.1173 -2.3015 -0.7411
  186SOL     OW  556   0.229   2.011   0.291 -0.0148 -0.6332 -0.5176
  186SOL    HW1  557   0.129   2.019   0.265 -2.1368  0.4030 -1.3480
  186SOL    HW2  558   0.289   2.044   0.219 -0.6360  2.2367  3.3658
  187SOL     OW  559   1.816   1.989   2.947  0.1891  0.6113  0.9640
  187SOL    HW1  560   1.798   1.906   3.008 -1.6850 -0.5257  1.0079
  187SOL    HW2  561   1.913   2.013   2.951 -1.5699 -3.5251  0.7815
  188SOL     OW  562   1.194   2.465   1.384 -0.4739  0.5003 -0.4843
  188SOL    HW1  563   1.169   2.561   1.369  2.9651 -2.4335  0.1623
  188SOL    HW2  564   1.250   2.431   1.306  0.2828 -0.2081 -0.5538
  189SOL     OW  565   2.549   1.240   2.665  0.4496 -0.2547  0.2444
  189SOL    HW1  566   2.454   1.224   2.690 -0.9622  2.8997  0.7538
  189SOL    HW2  567   2.547   1.291   2.576 -0.7823 -3.8178 -0.3574
  190SOL     OW  568   0.983   2.732   2.292 -0.0883  0.0574 -0.5179
  190SOL    HW1  569   0.931   2.708   2.210  1.2967  1.8129 -0.5364
  190SOL    HW2  570   0.936   2.809   2.340 -2.6405 -0.0718 -0.5681
  191SOL     OW  571   2.746   1.142   1.216 -0.3766  0.1760  0.6449
  191SOL    HW1  572   2.734   1.080   1.295 -3.2869 -2.3488  0.8263
  191SOL    HW2  573   2.732   1.236   1.248 -1.8287  1.0938 -2.7022
  192SOL     OW  574   2.086   0.477   1.018  0.3643 -0.3676 -0.4791
  192SOL    HW1  575   2.111   0.472   1.116  1.0390  0.0197 -0.6734
  192SOL    HW2  576   2.124   0.398   0.962 -2.0681 -1.4682  1.2312
  193SOL     OW  577   1.017   0.137   0.248  0.1570  0.3057 -0.2068
  193SOL    HW1  578   1.067   0.167   0.167  0.2152  0.2674  3.2443
  193SOL    HW2  579   0.916   0.154   0.235  1.0963  1.7398 -0.1991
  194SOL     OW  580   1.522   2.355   1.082  0.0642  0.5666  0.2008
  194SOL    HW1  581   1.524   2.358   0.979 -2.8922  1.5878  4.4085
  194SOL    HW2  582   1.569   2.266   1.111  1.9050  0.1538  0.6247
  195SOL     OW  583   2.811   0.979   0.595 -0.4887 -0.1105 -0.4085
  195SOL    HW1  584   2.850   0.966   0.687  1.9349  2.2284  0.7378
  195SOL    HW2  585   2.800   0.889   0.548  0.8447 -0.1307 -0.0305
  196SOL     OW  586   0.549   2.452   1.690 -0.0791  0.1539  0.0096
  196SOL    HW1  587   0.498   2.510   1.624  0.7324  1.0785 -0.5800
  196SOL    HW2  588   0.482   2.413   1.758  1.4011  0.2749  1.7313
  197SOL     OW  589   2.882   0.462   2.358 -0.2293  0.2221 -0.1517
  197SOL    HW1  590   2.841   0.522   2.427 -1.5000 -0.1682  1.3923
  197SOL    HW2  591   2.872   0.365   2.384  1.7168  0.8827 -0.7051
  198SOL     OW  592   2.175   1.485   0.252 -0.2887 -0.2000  0.2812
  198SOL    HW1  593   2.262   1.497   0.200  0.7584  1.1370 -0.0209
  198SOL    HW2  594   2.096   1.538   0.213  0.5237 -1.3655 -0.7129
  199SOL     OW  595   2.412   0.709   1.901  0.4984  0.1648 -0.4847
  199SOL    HW1  596   2.507   0.674   1.889  0.4946 -0.8663 -0.7405
  199SOL    HW2  597   2.336   0.651   1.863 -3.4030 -2.1049  2.3574
  200SOL     OW  598   1.880   0.087   2.809  0.0261  0.2392  0.1556
  200SOL    HW1  599   1.917   0.157   2.874 -0.3119 -2.1998  0.7704
  200SOL    HW2  600   1.782   0.103   2.789  0.4607 -1.6366 -2.0661
  201SOL     OW  601   2.554   0.110   1.080 -0.1890 -0.2633  0.7020
  201SOL    HW1  602   2.459   0.094   1.109  0.3500 -0.3272  0.0311
  201SOL    HW2  603   2.568   0.211   1.055  0.3119  3.5947  0.2009
  202SOL     OW  604   3.009   2.743   0.364  0.1898  0.6277 -0.4001
  202SOL    HW1  605   3.066   2.737   0.280 -0.5966  0.7746  1.3746
  202SOL    HW2  606   3.046   2.776   0.451  0.5718 -0.7837 -0.8709
  203SOL     OW  607   1.781   1.735   0.564 -0.3288 -0.2085 -0.0705
  203SOL    HW1  608   1.696   1.759   0.611 -0.6261  0.5252 -0.6199
  203SOL    HW2  609   1.852   1.807   0.572 -0.5952  0.0982 -0.4342
  204SOL     OW  610   0.391   1.667   1.969  0.4527 -0.1817  0.3423
  204SOL    HW1  611   0.459   1.692   1.900 -2.4495 -3.1312 -0.3872
  204SOL    HW2  612   0.380   1.568   1.965  0.0866  0.2682 -0.5337
  205SOL     OW  613   0.803   0.632   0.869 -0.0653  0.2937 -0.5523
  205SOL    HW1  614   0.748   0.676   0.795 -0.7677  1.6914 -1.0164
  205SOL    HW2  615   0.882   0.575   0.833  0.1272  0.3748  1.3982
  206SOL     OW  616   0.423   0.723   2.954 -0.0970  0.5402  0.0437
  206SOL    HW1  617   0.405   0.722   3.051  1.4685 -2.7228 -0.3021
  206SOL    HW2  618   0.396   0.817   2.918 -0.2322  1.2724  0.9916
  207SOL     OW  619   1.156   2.446   1.640  0.3317 -0.0072  0.8163
  207SOL    HW1  620   1.199   2.360   1.679 -0.7438  0.1654  0.4898
  207SOL    HW2  621   1.159   2.444   1.536 -2.0653  0.7208 -0.8934
  208SOL     OW  622   2.429   0.217   1.626  0.1246 -0.1111  0.1513
  208SOL    HW1  623   2.506   0.191   1.685 -1.2285 -1.6784 -1.4198
  208SOL    HW2  624   2.374   0.297   1.655  1.1745  3.0620  0.6909
  209SOL     OW  625   1.927   0.725   0.676  0.5098 -0.4616 -0.2269
  209SOL    HW1  626   1.904   0.750   0.773  2.7587  0.6869 -2.7655
  209SOL    HW2  627   1.839   0.741   0.624  1.3037 -0.6927  1.3025
  210SOL     OW  628   2.672   1.133   0.431  0.0775 -0.0690  0.0247
  210SOL    HW1  629   2.739   1.072   0.479  0.0268 -1.2502 -1.3860
  210SOL    HW2  630   2.714   1.226   0.409  0.7596  0.2820 -1.7183
  211SOL     OW  631   1.118   3.015   3.067  0.0959  0.3094 -0.6716
  211SOL    HW1  632   1.147   0.024   0.021 -1.8850 -0.0903  2.9057
  211SOL    HW2  633   1.182   2.935   0.006 -0.2189  0.7973 -0.1622
  212SOL     OW  634   1.969   1.943   0.581 -0.3583 -0.2972  0.0315
  212SOL    HW1  635   1.990   1.922   0.682  0.1202 -1.4970  0.4113
  212SOL    HW2  636   2.057   1.934   0.525 -1.3201 -1.8659  1.3762
  213SOL     OW  637   2.393   0.035   0.093 -0.2670 -0.1146 -0.0191
  213SOL    HW1  638   2.351   3.065   0.014 -1.5344 -0.6319 -2.1968
  213SOL    HW2  639   2.430   0.125   0.060 -1.3588  1.0844 -0.4992
  214SOL     OW  640   1.099   2.410   2.097  0.0727 -0.7015  0.3457
  214SOL    HW1  641   1.135   2.502   2.104 -0.7156 -0.4900 -0.1434
  214SOL    HW2  642   1.170   2.353   2.059 -0.5126 -2.7159  2.1157
  215SOL     OW  643   0.388   1.412   1.036  0.0332 -0.0937 -0.2819
  215SOL    HW1  644   0.286   1.415   1.049  1.5876  0.2712  0.1334
  215SOL    HW2  645   0.429   1.442   0.951 -0.0675 -0.8637 -1.1343
  216SOL     OW  646   0.527   2.881   2.611 -0.2172  0.6258  0.5046
  216SOL    HW1  647   0.455   2.805   2.606  0.0111  0.2187 -0.4064
  216SOL    HW2  648   0.548   2.897   2.708  1.4204  2.4789 -2.1480
  217SOL     OW  649   2.828   1.375   1.446  0.4312  0.1832 -0.1253
  217SOL    HW1  650   2.925   1.404   1.442  0.8645 -0.4464 -2.7352
  217SOL    HW2  651   2.813   1.279   1.468  1.5967  2.3034  1.0603
  218SOL     OW  652   0.895   2.112   1.529  0.4194  0.1544 -0.4490
  218SOL    HW1  653   0.816   2.176   1.550 -0.3484  2.7917 -1.5344
  218SOL    HW2  654   0.919   2.068   1.619 -0.4955 -2.2446  3.6882
  219SOL     OW  655   2.053   1.948   0.118 -0.0435  0.1992 -0.1694
  219SOL    HW1  656   2.107   2.017   0.172 -0.5816 -0.3541  0.1887
  219SOL    HW2  657   2.095   1.926   0.028  1.3128  1.1537  2.1586
  220SOL     OW  658   2.002   0.244   3.003 -0.5264 -0.2919  0.1328
  220SOL    HW1  659   2.035   0.337   2.991 -0.1645 -2.5066 -2.7421
  220SOL    HW2  660   1.978   0.228   0.022 -0.6331 -1.7542  1.6092
  221SOL     OW  661   3.013   0.787   0.247 -0.2877  0.2445  0.8533
  221SOL    HW1  662   3.022   0.709   0.181  1.4837 -0.8819  1.3464
  221SOL    HW2  663   0.022   0.808   0.293  0.1667  1.4365  0.2155
  222SOL     OW  664   1.600   1.413   0.797  0.5744  0.1919  0.1565
  222SOL    HW1  665   1.558   1.338   0.745  3.4959  1.4459 -0.1361
  222SOL    HW2  666   1.689   1.446   0.757  1.8373  2.5599 -2.1729
  223SOL     OW  667   1.033   0.394   2.799  0.2126 -0.6174 -0.1916
  223SOL    HW1  668   1.128   0.361   2.825 -2.9410  0.5560 -2.9016
  223SOL    HW2  669   0.959   0.354   2.852  1.7811 -1.1725 -4.0854
  224SOL     OW  670   0.897   2.838   1.028 -1.0346 -0.2105  0.1431
  224SOL    HW1  671   0.856   2.898   1.100 -0.9264  0.9318 -1.0895
  224SOL    HW2  672   0.851   2.749   1.020 -1.6399  0.2193 -0.5428
  225SOL     OW  673   0.915   2.964   2.098 -0.4624 -0.0791 -0.0224
  225SOL    HW1  674   0.916   2.932   2.003 -3.4067  2.1568 -0.4467
  225SOL    HW2  675   0.831   3.017   2.121  0.9612  0.4945 -2.8053
  226SOL     OW  676   1.384   1.588   0.791 -0.7385 -0.0883 -0.1055
  226SOL    HW1  677   1.433   1.672   0.751  0.4928 -0.6509 -1.1489
  226SOL    HW2  678   1.452   1.512   0.801 -2.5053  1.8921  1.9627
  227SOL     OW  679   0.481   1.907   1.324 -0.8964 -0.1418 -0.8388
  227SOL    HW1  680   0.399   1.874   1.377  0.2135  1.5991  1.4764
  227SOL    HW2  681   0.473   1.887   1.226  0.6174  2.4254  0.4143
  228SOL     OW  682   0.046   1.893   0.652  0.0580 -0.7759  0.0779
  228SOL    HW1  683   0.146   1.870   0.657 -1.8252  1.8272 -1.6360
  228SOL    HW2  684   0.029   1.994   0.678  1.0893  1.8643  0.4026
  229SOL     OW  685   2.708   0.163   2.958 -0.3802  0.3693  0.2521
  229SOL    HW1  686   2.634   0.235   2.973 -0.0527  2.8310 -0.2411
  229SOL    HW2  687   2.677   0.067   2.945 -1.0485  0.5587 -0.7791
  230SOL     OW  688   2.521   0.601   0.372  0.5165 -0.7350  0.3282
  230SOL    HW1  689   2.589   0.606   0.299 -4.1081 -2.8129 -0.3503
  230SOL    HW2  690   2.424   0.588   0.342 -1.7880  1.0400  2.2992
  231SOL     OW  691   2.006   1.670   0.112  0.1690  0.4190 -0.2476
  231SOL    HW1  692   1.909   1.652   0.086 -0.8003 -0.6442 -1.1598
  231SOL    HW2  693   2.013   1.762   0.155  1.6370  1.6776 -1.2865
  232SOL     OW  694   1.996   2.037   1.052  0.4094  0.1688  0.0026
  232SOL    HW1  695   1.925   2.001   1.118 -1.1699  3.0187 -1.2528
  232SOL    HW2  696   2.004   1.975   0.967  2.4521 -2.4837 -0.4972
  233SOL     OW  697   0.163   2.860   1.474 -0.0800 -0.0898 -0.8016
  233SOL    HW1  698   0.152   2.760   1.492 -0.2742  0.1979  1.8653
  233SOL    HW2  699   0.086   2.901   1.426  1.6578  1.9824 -0.8916
  234SOL     OW  700   0.734   0.310   2.609  0.4862 -0.6247  0.2491
  234SOL    HW1  701   0.824   0.290   2.563  0.2456 -1.3241 -0.4098
  234SOL    HW2  702   0.737   0.403   2.657  1.7267  0.6603  3.2656
  235SOL     OW  703   2.646   1.105   1.820 -0.0465  0.0919  0.3897
  235SOL    HW1  704   2.651   1.002   1.805  1.5822 -1.6039 -0.5495
  235SOL    HW2  705   2.593   1.152   1.746  0.4480  0.8900 -0.8266
  236SOL     OW  706   1.327   2.821   1.481 -0.4654 -0.1151 -0.0970
  236SOL    HW1  707   1.260   2.802   1.403  0.0897 -1.0962  0.9631
  236SOL    HW2  708   1.408   2.762   1.475 -0.6835  0.9063  0.3159
  237SOL     OW  709   0.727   1.516   2.719  0.6356  0.4455 -0.8406
  237SOL    HW1  710   0.797   1.474   2.658 -0.1259  2.1216  1.1393
  237SOL    HW2  711   0.695   1.605   2.681  3.2393 -3.1586  0.9500
  238SOL     OW  712   0.903   0.821   2.243 -0.0176  0.2176 -0.2761
  238SOL    HW1  713   1.000   0.800   2.220 -2.3846 -0.1574 -1.0714
  238SOL    HW2  714   0.877   0.754   2.319 -3.8117 -2.3526  2.8931
  239SOL     OW  715   0.705   1.659   2.234  0.3356 -0.1048  0.4587
  239SOL    HW1  716   0.615   1.705   2.249 -1.4032 -0.5670 -0.9896
  239SOL    HW2  717   0.783   1.716   2.267  1.8055  1.5131  1.5965
  240SOL     OW  718   2.229   2.983   0.302  0.4178 -0.7577  0.0701
  240SOL    HW1  719   2.232   3.034   0.214 -0.7259 -0.3810  1.0568
  240SOL    HW2  720   2.307   3.007   0.367  0.3423  0.1898 -0.5584
  241SOL     OW  721   0.334   1.168   0.302  0.1535  0.2070 -0.3856
  241SOL    HW1  722   0.344   1.151   0.404  1.3317  0.2160  1.3758
  241SOL    HW2  723   0.411   1.231   0.279 -1.0365  0.5865 -0.0314
  242SOL     OW  724   1.540   2.625   1.432  0.1002  0.3658  0.5589
  242SOL    HW1  725   1.493   2.534   1.441  2.4406 -0.8933  0.6008
  242SOL    HW2  726   1.584   2.618   1.339 -1.5379 -0.9003  1.9709
  243SOL     OW  727   0.807   2.528   1.842 -0.0944 -0.2328 -0.0045
  243SOL    HW1  728   0.858   2.542   1.759 -1.1642  1.1586 -0.0080
  243SOL    HW2  729   0.707   2.531   1.818 -1.6439  1.0097 -0.0421
  244SOL     OW  730   2.429   0.821   2.633 -0.0725 -0.2530 -0.1580
  244SOL    HW1  731   2.339   0.801   2.593 -0.7572 -1.8913  1.1872
  244SOL    HW2  732   2.421   0.856   2.729  3.2335  0.7644 -1.9835
  245SOL     OW  733   1.629   2.618   1.171 -0.2659  0.1116 -0.1454
  245SOL    HW1  734   1.606   2.531   1.133 -1.1160 -0.4845 -0.7877
  245SOL    HW2  735   1.689   2.673   1.111 -1.9331  0.8258 -1.2593
  246SOL     OW  736   1.424   0.015   0.367  0.2882  0.2798 -0.0289
  246SOL    HW1  737   1.434   0.050   0.271  1.4095 -0.2873  0.0850
  246SOL    HW2  738   1.329   0.032   0.404 -0.7957 -1.7853  0.8757
  247SOL     OW  739   1.775   0.593   1.784  0.1342 -0.4225 -0.0732
  247SOL    HW1  740   1.727   0.562   1.701 -1.3704 -2.3008  1.6691
  247SOL    HW2  741   1.828   0.520   1.825 -0.4341  1.2542 -0.9471
  248SOL     OW  742   0.136   1.951   1.801  0.0677  0.2762 -0.2688
  248SOL    HW1  743   0.233   1.980   1.783  0.0816 -0.5721  2.8531
  248SOL    HW2  744   0.083   1.936   1.716 -0.1631  1.5586  1.3880
  249SOL     OW  745   0.406   0.432   0.253  0.1218 -0.3101  0.0646
  249SOL    HW1  746   0.362   0.517   0.287 -0.3655 -0.3472 -0.2427
  249SOL    HW2  747   0.406   0.355   0.325  1.0429 -2.7245  1.8973
  250SOL     OW  748   2.531   0.248   2.339 -0.1487 -0.3909  0.1987
  250SOL    HW1  749   2.442   0.198   2.335  4.7796  1.2830 -2.1316
  250SOL    HW2  750   2.535   0.327   2.277  0.6425 -0.9574  0.0492
  251SOL     OW  751   1.366   0.551   2.979  0.3425  0.3820  0.2463
  251SOL    HW1  752   1.295   0.517   3.047 -2.7540 -1.4875  2.4026
  251SOL    HW2  753   1.376   0.652   2.952  2.2091 -0.2189  2.4484
  252SOL     OW  754   1.229   2.662   2.208 -0.3018  0.3630  0.8009
  252SOL    HW1  755   1.139   2.699   2.239  1.9124 -0.6434 -1.5471
  252SOL    HW2  756   1.274   2.722   2.143  1.2872  0.4934 -1.2529
  253SOL     OW  757   2.721   2.627   0.638  0.1175 -0.1903 -0.8908
  253SOL    HW1  758   2.740   2.723   0.652  0.4376  0.5159  3.1743
  253SOL    HW2  759   2.689   2.600   0.552  0.7239  3.2597  4.4187
  254SOL     OW  760   2.431   1.220   1.154  0.2981 -0.3973 -0.5127
  254SOL    HW1  761   2.500   1.289   1.193  0.9156 -0.3797 -0.4293
  254SOL    HW2  762   2.404   1.229   1.055 -1.6282  0.3672 -0.8325
  255SOL     OW  763   0.635   2.681   1.266  0.2715 -0.1023  0.3510
  255SOL    HW1  764   0.663   2.781   1.265 -1.7137 -0.9686  2.2772
  255SOL    HW2  765   0.560   2.666   1.200  3.0867  1.8708 -0.5791
  256SOL     OW  766   1.857   1.703   1.631 -0.4482  0.4100  0.8800
  256SOL    HW1  767   1.857   1.617   1.685  0.1011 -0.1759 -1.7897
  256SOL    HW2  768   1.902   1.685   1.537  2.8405  0.0611 -1.4188
  257SOL     OW  769   0.408   2.319   2.378  0.1114  0.2829 -0.2868
  257SOL    HW1  770   0.474   2.390   2.419 -0.6930 -0.4192  0.8768
  257SOL    HW2  771   0.418   2.237   2.443 -0.5726 -0.2876  2.2717
  258SOL     OW  772   0.547   2.628   0.901  0.5458  0.5298 -0.2608
  258SOL    HW1  773   0.518   2.700   0.830 -0.3943 -2.1563 -0.8678
  258SOL    HW2  774   0.499   2.647   0.989  0.7469  0.4764 -0.2773
  259SOL     OW  775   1.475   0.598   2.535 -0.0590  0.4351 -0.7679
  259SOL    HW1  776   1.501   0.691   2.562  0.1238 -1.9174  0.8586
  259SOL    HW2  777   1.429   0.590   2.447  0.3347  1.1691  1.4472
  260SOL     OW  778   0.475   0.397   0.850 -0.1891 -0.1233 -0.0215
  260SOL    HW1  779   0.399   0.360   0.788 -2.6534 -0.4189 -2.2648
  260SOL    HW2  780   0.563   0.355   0.820 -0.1899  0.2080  1.6424
  261SOL     OW  781   0.814   0.105   2.277 -0.0042 -0.1370  0.2911
  261SOL    HW1  782   0.739   0.095   2.347  0.1250  2.6728  0.3056
  261SOL    HW2  783   0.906   0.075   2.310  1.5085 -1.6117 -2.0121
  262SOL     OW  784   0.948   2.633   1.616  0.2579  0.1815 -0.0075
  262SOL    HW1  785   0.908   2.626   1.519  0.6630 -0.5369 -4.2971
  262SOL    HW2  786   1.026   2.574   1.631  0.0660 -1.5700 -1.0536
  263SOL     OW  787   0.726   2.024   2.960 -0.6908 -0.0163 -0.5217
  263SOL    HW1  788   0.700   2.028   2.864 -0.9941  0.6091  1.9958
  263SOL    HW2  789   0.811   2.074   2.970  0.2480  0.8274 -0.0706
  264SOL     OW  790   1.648   1.509   1.069  0.6346  0.5958  0.1647
  264SOL    HW1  791   1.614   1.602   1.050  1.2424 -0.0588  0.0773
  264SOL    HW2  792   1.635   1.448   0.988  2.8153 -0.4478 -0.4761
  265SOL     OW  793   0.996   2.334   0.314 -0.0224  0.4861 -0.5260
  265SOL    HW1  794   1.079   2.337   0.376 -0.2742  0.7641 -0.5425
  265SOL    HW2  795   0.952   2.429   0.309  1.3241  1.0905  0.0892
  266SOL     OW  796   2.816   0.671   0.918 -0.1852  0.3428 -0.2713
  266SOL    HW1  797   2.760   0.668   0.835  2.3057  1.0331 -0.0387
  266SOL    HW2  798   2.850   0.577   0.944  0.2339 -2.3973  0.3174
  267SOL     OW  799   0.200   1.484   0.176 -0.0556 -0.4374 -0.4096
  267SOL    HW1  800   0.198   1.399   0.233  0.7495 -0.9988  1.9133
  267SOL    HW2  801   0.212   1.565   0.230 -0.3461 -0.3990 -0.9705
  268SOL     OW  802   1.390   0.307   0.396 -0.3109  0.1747  0.0510
  268SOL    HW1  803   1.430   0.396   0.390 -1.9200  0.0621  1.3381
  268SOL    HW2  804   1.293   0.318   0.402  1.3010 -1.2315  1.0454
  269SOL     OW  805   2.831   0.716   2.138  0.4107 -0.1844  0.4536
  269SOL    HW1  806   2.854   0.751   2.044  0.3138  0.2944  1.6090
  269SOL    HW2  807   2.838   0.612   2.124 -3.2473 -0.5203 -2.1916
  270SOL     OW  808   3.013   1.086   0.414  0.2210  0.2684 -0.0287
  270SOL    HW1  809   2.968   1.020   0.479  1.4013  0.4752 -1.1074
  270SOL    HW2  810   2.982   1.074   0.315  2.0219  0.7932  0.7254
  271SOL     OW  811   2.835   1.532   2.227 -0.1988  0.0043 -0.1955
  271SOL    HW1  812   2.738   1.526   2.203 -0.1551 -0.5991  1.0558
  271SOL    HW2  813   2.888   1.587   2.159  1.4349 -0.7912  1.7183
  272SOL     OW  814   2.403   2.423   1.823 -0.3767  0.1763 -0.5378
  272SOL    HW1  815   2.490   2.479   1.814  0.2553 -0.6920 -0.7749
  272SOL    HW2  816   2.343   2.484   1.878  1.9042  1.5948 -1.1801
  273SOL     OW  817   0.184   2.471   0.040  0.9809  0.2254 -0.7154
  273SOL    HW1  818   0.213   2.392   3.060  0.2388  1.3712 -0.7879
  273SOL    HW2  819   0.123   2.438   0.115 -2.1908 -0.8505  0.9136
  274SOL     OW  820   0.663   2.218   0.696 -0.0912 -0.0283  0.0274
  274SOL    HW1  821   0.629   2.310   0.672 -1.6022  0.3702  1.5443
  274SOL    HW2  822   0.765   2.214   0.713  0.8513 -1.3852  1.1952
  275SOL     OW  823   1.609   1.935   2.763 -0.0848 -0.0554 -0.7404
  275SOL    HW1  824   1.676   1.967   2.836 -0.7124  1.4662  1.4109
  275SOL    HW2  825   1.653   1.884   2.688 -1.5324 -1.1078 -0.3430
  276SOL     OW  826   2.538   1.489   2.200 -0.2491  0.0248  0.0182
  276SOL    HW1  827   2.533   1.433   2.118  2.6797 -1.0715  0.7308
  276SOL    HW2  828   2.539   1.589   2.177  2.3408  4.0305 -0.9616
  277SOL     OW  829   2.173   0.058   0.833  0.6841 -0.2099 -0.1150
  277SOL    HW1  830   2.103   0.123   0.789 -0.1759  2.4586  1.3153
  277SOL    HW2  831   2.132   3.047   0.845  1.7546 -0.3461 -3.4544
  278SOL     OW  832   1.382   0.310   2.364  0.1181  0.4577 -0.1864
  278SOL    HW1  833   1.351   0.212   2.364  0.3486 -1.4021  2.6153
  278SOL    HW2  834   1.308   0.366   2.407  1.9724  0.6526 -1.6822
  279SOL     OW  835   1.177   2.668   0.987  0.1376 -0.1401 -0.8078
  279SOL    HW1  836   1.235   2.727   1.053  0.1638  1.2445  0.5502
  279SOL    HW2  837   1.079   2.668   1.019 -0.5666  0.2970 -1.6377
  280SOL     OW  838   1.178   1.203   0.692  0.0093  0.1082  0.1803
  280SOL    HW1  839   1.176   1.198   0.589  2.0017 -0.8066 -0.1241
  280SOL    HW2  840   1.151   1.117   0.734  1.6912  0.7243  0.6565
  281SOL     OW  841   2.229   1.866   0.441 -0.3476 -0.7630 -0.4578
  281SOL    HW1  842   2.292   1.935   0.404  1.9091  1.2242  2.2010
  281SOL    HW2  843   2.239   1.787   0.381 -0.8997  0.3537 -2.0464
  282SOL     OW  844   2.852   1.357   0.424  0.2289  0.8953 -0.4165
  282SOL    HW1  845   2.921   1.285   0.409  2.8714 -2.8109 -2.3710
  282SOL    HW2  846   2.891   1.448   0.414 -3.0454 -2.5000 -0.8935
  283SOL     OW  847   1.638   2.960   2.655 -0.2000 -0.1766  0.2482
  283SOL    HW1  848   1.602   2.930   2.564  0.8566 -0.8054  0.4295
  283SOL    HW2  849   1.733   2.934   2.652  0.0848  1.1481 -1.8998
  284SOL     OW  850   0.444   0.243   2.568  0.6274 -0.1434 -0.2594
  284SOL    HW1  851   0.526   0.296   2.595  1.1646  1.8336  0.5864
  284SOL    HW2  852   0.380   0.238   2.649  0.6262 -1.1061 -0.0742
  285SOL     OW  853   1.747   1.614   3.034 -0.1895  0.0169 -0.3424
  285SOL    HW1  854   1.658   1.559   3.024 -1.8955 -1.5118 -1.8149
  285SOL    HW2  855   1.782   1.640   2.943  2.2894 -1.8811  1.1844
  286SOL     OW  856   1.537   2.115   1.529 -0.1335  0.1609 -0.0372
  286SOL    HW1  857   1.463   2.050   1.502 -1.5757  0.7533 -2.8300
  286SOL    HW2  858   1.575   2.106   1.623 -0.1756 -0.2860  0.3873
  287SOL     OW  859   1.750   0.012   1.493 -0.1237  0.8553 -0.3824
  287SOL    HW1  860   1.682   0.006   1.572 -0.4814 -3.1640  1.3062
  287SOL    HW2  861   1.724   0.073   1.417  1.9671 -3.2196  0.9056
  288SOL     OW  862   0.533   2.635   1.921  0.0884 -0.0089  0.2959
  288SOL    HW1  863   0.469   2.551   1.907 -2.3880 -0.9437 -0.4249
  288SOL    HW2  864   0.543   2.642   2.021 -1.9815 -2.7114 -1.3394
  289SOL     OW  865   0.289   1.786   0.764 -0.2604 -0.3559  0.6937
  289SOL    HW1  866   0.257   1.771   0.861  1.8933  0.3605 -0.5620
  289SOL    HW2  867   0.356   1.857   0.771 -0.9462 -0.9784  2.3517
  290SOL     OW  868   0.994   2.027   1.776  0.0273  0.4132  0.0991
  290SOL    HW1  869   0.956   1.952   1.833 -1.0812 -0.5275 -1.3156
  290SOL    HW2  870   0.952   2.115   1.798  0.0065 -1.8480 -0.3412
  291SOL     OW  871   1.660   0.213   0.429 -0.2642 -0.8637  0.1534
  291SOL    HW1  872   1.564   0.205   0.454  0.0094 -0.4346  0.9970
  291SOL    HW2  873   1.686   0.155   0.349  2.1592  1.3138  1.2193
  292SOL     OW  874   0.317   0.450   1.248  0.0269 -0.2163  0.3402
  292SOL    HW1  875   0.376   0.494   1.174 -0.6884 -0.6132 -1.9426
  292SOL    HW2  876   0.245   0.518   1.281 -3.5993 -0.7104 -1.9151
  293SOL     OW  877   2.424   1.578   1.033  0.6092 -0.5081 -0.4590
  293SOL    HW1  878   2.513   1.609   1.080  1.2256  0.8331  0.8960
  293SOL    HW2  879   2.432   1.547   0.941  0.6427  0.6943  5.5262
  294SOL     OW  880   0.277   0.079   2.374 -0.0227 -0.1190 -0.1307
  294SOL    HW1  881   0.322   3.079   2.338 -0.4170  2.7775  0.3239
  294SOL    HW2  882   0.325   0.103   2.464  0.1487  1.5937  1.7223
  295SOL     OW  883   0.902   1.394   0.485  0.5224 -0.3774  0.5522
  295SOL    HW1  884   0.972   1.413   0.557  2.6950  1.8975  1.1427
  295SOL    HW2  885   0.935   1.332   0.411  1.6322  0.7543  0.5332
  296SOL     OW  886   2.378   1.222   0.883 -0.2466 -0.1359  0.2961
  296SOL    HW1  887   2.311   1.176   0.825  0.8743  1.6026 -1.9694
  296SOL    HW2  888   2.415   1.309   0.839 -0.9849 -0.6972 -1.6216
  297SOL     OW  889   1.790   0.655   2.645  0.5461  0.3863  0.2523
  297SOL    HW1  890   1.719   0.727   2.650  3.6213 -2.5761 -1.5706
  297SOL    HW2  891   1.856   0.672   2.570  0.6571  0.3757 -0.0884
  298SOL     OW  892   1.006   0.271   2.562 -0.1696 -0.4726 -0.1191
  298SOL    HW1  893   1.031   0.306   2.653  2.1258  2.1037 -1.4201
  298SOL    HW2  894   1.029   0.334   2.486  0.8161  0.3631 -0.7867
  299SOL     OW  895   1.078   0.581   1.981 -0.2432 -0.1429 -0.1935
  299SOL    HW1  896   1.165   0.630   2.005 -0.3564 -0.5327  1.0982
  299SOL    HW2  897   1.090   0.483   1.974 -3.2132  1.7703 -0.2033
  300SOL     OW  898   2.652   0.098   1.739 -0.1076 -0.1441  0.1256
  300SOL    HW1  899   2.658   0.035   1.665  1.4184  1.6242 -0.7085
  300SOL    HW2  900   2.740   0.148   1.748 -0.8962 -0.1483 -0.7244
  301SOL     OW  901   1.800   0.889   1.611  0.2630 -0.2410  1.1540
  301SOL    HW1  902   1.719   0.949   1.591 -1.3151 -0.1142 -0.5388
  301SOL    HW2  903   1.788   0.842   1.700  0.5528  0.8072 -1.7199
  302SOL     OW  904   0.782   2.720   2.623  0.4540  0.3267 -0.3095
  302SOL    HW1  905   0.811   2.804   2.573  2.3813 -1.7460 -0.7346
  302SOL    HW2  906   0.788   2.743   2.726 -0.6035  0.6682  3.6842
  303SOL     OW  907   1.984   1.882   1.790 -0.5057 -0.2298 -0.1602
  303SOL    HW1  908   1.908   1.944   1.771  1.5325 -0.3617 -2.4675
  303SOL    HW2  909   1.962   1.800   1.724 -0.5172 -0.4632  0.0159
  304SOL     OW  910   0.531   2.991   0.481  0.0464 -0.4335  0.0736
  304SOL    HW1  911   0.586   3.018   0.401 -0.5793  0.1245  0.8510
  304SOL    HW2  912   0.578   2.927   0.548 -0.5910  0.4920  0.2799
  305SOL     OW  913   1.276   0.861   0.451  0.1555  0.0871  0.0639
  305SOL    HW1  914   1.300   0.940   0.388 -0.5526 -1.5214  0.3107
  305SOL    HW2  915   1.370   0.820   0.480  1.3819 -0.6846 -1.7266
  306SOL     OW  916   0.542   1.332   0.220 -0.6598 -0.7236  0.1958
  306SOL    HW1  917   0.637   1.347   0.181  2.4795  0.4581  0.5486
  306SOL    HW2  918   0.516   1.407   0.288  0.4202  1.1343  0.2596
  307SOL     OW  919   0.595   0.637   1.899 -0.4514 -0.2223 -0.5770
  307SOL    HW1  920   0.654   0.612   1.976 -1.1864  0.0012  0.9014
  307SOL    HW2  921   0.637   0.631   1.810 -0.8005 -3.1039  1.1669
  308SOL     OW  922   0.613   0.099   1.132 -0.3018  0.1737  0.5916
  308SOL    HW1  923   0.620   0.081   1.029  0.5050  1.0187  0.7729
  308SOL    HW2  924   0.524   0.130   1.163  0.0780 -0.8428 -2.0345
  309SOL     OW  925   2.262   0.933   0.107  0.6897 -0.3930  0.2216
  309SOL    HW1  926   2.334   0.871   0.074 -2.5895 -0.9250  0.7947
  309SOL    HW2  927   2.265   1.021   0.055 -0.6006  0.8570 -0.2725
  310SOL     OW  928   1.273   1.414   0.032 -0.4487 -0.6056  0.2672
  310SOL    HW1  929   1.182   1.413   3.064 -2.9735 -0.4263  0.8015
  310SOL    HW2  930   1.265   1.448   0.128 -0.0292  1.9168  0.5090
  311SOL     OW  931   1.682   2.419   2.393 -0.2589  0.7019  0.0531
  311SOL    HW1  932   1.600   2.452   2.342 -0.3430 -0.8315  0.8793
  311SOL    HW2  933   1.702   2.481   2.471 -2.0566 -3.6963  2.6037
  312SOL     OW  934   2.242   2.942   3.008  0.5148 -0.3048 -0.4872
  312SOL    HW1  935   2.206   2.983   2.922 -0.9207  0.7395  0.6901
  312SOL    HW2  936   2.163   2.897   3.060  0.2949  0.9309  0.5555
  313SOL     OW  937   0.676   0.702   0.363  0.2043 -0.0739  0.3903
  313SOL    HW1  938   0.616   0.670   0.440  0.4767 -0.6037  1.4752
  313SOL    HW2  939   0.764   0.743   0.393  1.7084 -1.8555  0.3255
  314SOL     OW  940   2.656   1.430   0.027  0.3509 -0.2550 -0.0886
  314SOL    HW1  941   2.657   1.476   3.017  2.6671  0.2881 -1.8119
  314SOL    HW2  942   2.731   1.471   0.088  5.5430  0.3803  1.3613
  315SOL     OW  943   1.692   0.827   1.872 -0.0993 -0.0368  0.1875
  315SOL    HW1  944   1.735   0.735   1.853  0.5779 -0.5105 -0.7379
  315SOL    HW2  945   1.757   0.876   1.933  0.5745 -0.0674  0.6569
  316SOL     OW  946   3.057   0.737   0.693  0.1870  0.5985  0.0296
  316SOL    HW1  947   0.070   0.779   0.682 -0.4345 -0.4772 -1.0767
  316SOL    HW2  948   3.006   0.786   0.766 -0.8093 -0.8075  1.7830
  317SOL     OW  949   0.798   0.220   0.096 -0.5087 -0.4042 -0.3937
  317SOL    HW1  950   0.831   0.273   0.016 -0.1838  4.8022 -1.0544
  317SOL    HW2  951   0.703   0.198   0.080  2.7882  2.0005  2.3434
  318SOL     OW  952   2.393   2.744   1.294  0.3852  0.1201  0.1395
  318SOL    HW1  953   2.432   2.710   1.382 -2.0667  2.0277  1.8683
  318SOL    HW2  954   2.460   2.713   1.221  0.4745 -3.0574  0.6046
  319SOL     OW  955   1.051   1.460   0.700 -0.2989 -0.6676 -0.0796
  319SOL    HW1  956   1.082   1.371   0.736 -0.8921  3.2797  0.7680
  319SOL    HW2  957   1.124   1.504   0.642 -0.5163 -1.1412  1.1664
  320SOL     OW  958   0.564   2.208   1.035 -0.0688  0.0339  0.4842
  320SOL    HW1  959   0.484   2.271   1.044 -0.2861 -0.4670  0.7702
  320SOL    HW2  960   0.533   2.114   1.014 -0.3105 -2.0611  3.3541
  321SOL     OW  961   2.061   2.532   2.358  0.2328 -0.0523  0.2022
  321SOL    HW1  962   2.043   2.471   2.277  2.6811  0.1837 -2.1496
  321SOL    HW2  963   1.983   2.590   2.370  0.5778 -0.6840  2.3293
  322SOL     OW  964   2.874   2.343   2.573 -0.3778  0.4689 -0.8230
  322SOL    HW1  965   2.963   2.337   2.525  1.2988 -0.4517  0.9427
  322SOL    HW2  966   2.805   2.389   2.515 -1.2784  1.4006 -0.9814
  323SOL     OW  967   2.679   0.689   0.652 -0.2659  0.0647 -0.2225
  323SOL    HW1  968   2.719   0.710   0.562 -1.5644  0.4519  4.3326
  323SOL    HW2  969   2.581   0.669   0.645  3.6831  2.2913  0.7911
  324SOL     OW  970   2.292   2.135   2.414  0.2007  0.0508  0.0799
  324SOL    HW1  971   2.345   2.059   2.369  1.9113 -0.2802 -3.3471
  324SOL    HW2  972   2.232   2.106   2.492 -0.5239  2.1722 -0.7595
  325SOL     OW  973   1.182   0.661   2.419  0.1281  0.4955  0.0849
  325SOL    HW1  974   1.212   0.756   2.397  1.9352  1.9303 -1.5403
  325SOL    HW2  975   1.133   0.656   2.507 -1.1203  1.9535 -1.8614
  326SOL     OW  976   2.870   2.385   0.545 -0.0954  0.1351  0.4204
  326SOL    HW1  977   2.856   2.463   0.607  0.5777 -2.4850 -0.1664
  326SOL    HW2  978   2.959   2.347   0.566 -2.6589 -1.3958  1.6768
  327SOL     OW  979   2.620   2.990   2.862 -0.0426  0.4246 -0.5282
  327SOL    HW1  980   2.547   2.915   2.856 -1.3413 -1.6240  0.2703
  327SOL    HW2  981   2.709   2.954   2.830  0.5921  2.0218 -0.8494
  328SOL     OW  982   1.107   0.406   0.415 -0.1407 -0.6506 -0.5535
  328SOL    HW1  983   1.012   0.394   0.392  2.4355  0.2260  1.4528
  328SOL    HW2  984   1.133   0.501   0.385  1.3957  0.5967 -2.6842
  329SOL     OW  985   2.133   0.729   1.373 -0.1489  0.1961 -1.0693
  329SOL    HW1  986   2.136   0.801   1.300  1.5113 -2.0675  1.5109
  329SOL    HW2  987   2.177   0.762   1.462  1.2778  0.5905  0.5095
  330SOL     OW  988   1.196   0.272   0.642 -0.6202 -0.0283  0.2638
  330SOL    HW1  989   1.164   0.344   0.581  2.0813 -0.0147  1.3606
  330SOL    HW2  990   1.265   0.314   0.705  2.1396 -0.8723  0.2851
  331SOL     OW  991   0.646   2.060   1.821  0.2039  0.4293 -0.0622
  331SOL    HW1  992   0.707   2.137   1.827  0.6101 -0.7461  0.3532
  331SOL    HW2  993   0.643   2.024   1.920 -0.0599 -0.6313  1.8363
  332SOL     OW  994   2.237   2.229   1.698  0.3586  0.3590 -0.4111
  332SOL    HW1  995   2.280   2.313   1.735 -0.9064 -1.3494  0.9888
  332SOL    HW2  996   2.300   2.148   1.715 -1.1027 -2.4555  0.9504
  333SOL     OW  997   2.809   2.810   0.936 -0.1771  0.4583 -0.5607
  333SOL    HW1  998   2.870   2.731   0.924  2.7541  0.4937  0.1051
  333SOL    HW2  999   2.790   2.852   0.846  3.0518  0.5394  0.8749
  334SOL     OW 1000   3.078   1.640   0.917 -0.0645  0.6758 -0.2711
  334SOL    HW1 1001   0.079   1.681   0.960 -0.5677 -0.7397  1.0337
  334SOL    HW2 1002   3.049   1.672   0.827  1.6174 -3.1675  1.4165
  335SOL     OW 1003   0.585   2.529   2.492  0.1671 -0.1439  0.3726
  335SOL    HW1 1004   0.525   2.510   2.574 -0.7841  1.6977 -0.3992
  335SOL    HW2 1005   0.655   2.590   2.528 -3.1666 -2.3189 -3.5035
  336SOL     OW 1006   0.044   2.584   1.793  0.1505  0.7408 -0.5070
  336SOL    HW1 1007   0.104   2.587   1.714  1.1809 -0.6601 -0.9643
  336SOL    HW2 1008   0.072   2.653   1.864 -0.5120 -0.5019 -0.7475
  337SOL     OW 1009   0.896   1.850   2.396 -0.0046  0.2145 -0.3782
  337SOL    HW1 1010   0.962   1.845   2.313  0.3406  2.3867 -0.3334
  337SOL    HW2 1011   0.936   1.794   2.472  1.3349 -3.9551  0.9454
  338SOL     OW 1012   1.043   0.039   2.408  0.3760 -0.2817 -0.0591
  338SOL    HW1 1013   1.136   0.016   2.385 -0.6272  0.3969  1.3779
  338SOL    HW2 1014   1.035   0.090   2.492  1.4974  1.9436 -2.1329
  339SOL     OW 1015   0.152   1.333   2.906 -0.1376  0.2314 -0.2841
  339SOL    HW1 1016   0.194   1.396   2.833  1.5815 -0.7279 -0.3190
  339SOL    HW2 1017   0.227   1.304   2.967  1.0339  1.0722  0.8903
  340SOL     OW 1018   2.180   0.474   1.262 -0.3904  0.1321 -0.4569
  340SOL    HW1 1019   2.183   0.572   1.293 -3.3578  3.7774  0.2270
  340SOL    HW2 1020   2.266   0.424   1.290  0.0044  1.6487  0.2639
  341SOL     OW 1021   1.908   1.094   0.959 -0.5011  0.2840  0.3104
  341SOL    HW1 1022   1.908   1.153   0.879  1.5252 -0.6982  0.2327
  341SOL    HW2 1023   1.986   1.030   0.951  1.4003 -1.1608 -2.2988
  342SOL     OW 1024   2.125   2.500   2.774  0.2963 -0.0953 -0.4257
  342SOL    HW1 1025   2.172   2.508   2.864 -0.0481 -2.3410 -1.2036
  342SOL    HW2 1026   2.172   2.547   2.696  2.7230 -0.5545  0.9587
  343SOL     OW 1027   3.029   2.551   1.162  0.1395 -0.4309 -0.1918
  343SOL    HW1 1028   2.989   2.619   1.227  2.6872  2.0804 -4.3970
  343SOL    HW2 1029   2.959   2.519   1.094  1.6773 -2.8753  2.0582
  344SOL     OW 1030   2.424   2.828   0.905  0.3959 -0.3281  0.5237
  344SOL    HW1 1031   2.415   2.884   0.817  1.6066  1.1255 -2.1426
  344SOL    HW2 1032   2.390   2.882   0.986  1.6067 -1.1253 -0.1651
  345SOL     OW 1033   2.389   2.335   0.374  0.0560 -0.0396  0.5286
  345SOL    HW1 1034   2.414   2.311   0.276 -1.3531 -0.8133 -0.0249
  345SOL    HW2 1035   2.432   2.425   0.396  1.0810  0.6112 -2.4410
  346SOL     OW 1036   1.220   2.185   1.727 -0.0080  0.4074 -0.5448
  346SOL    HW1 1037   1.142   2.117   1.753 -1.0406 -2.6906  1.3705
  346SOL    HW2 1038   1.307   2.143   1.694  1.4771 -2.7212 -2.4816
  347SOL     OW 1039   1.330   2.032   2.167  0.1930 -0.2619  0.3724
  347SOL    HW1 1040   1.353   1.973   2.082  0.4876  0.0449  1.9907
  347SOL    HW2 1041   1.387   2.114   2.166 -2.3993 -2.3654  1.9259
  348SOL     OW 1042   0.723   1.689   1.298 -0.1490 -0.1540  0.2617
  348SOL    HW1 1043   0.720   1.736   1.208 -1.0499 -0.6660 -1.3110
  348SOL    HW2 1044   0.770   1.746   1.366  0.9808 -3.3370 -1.0151
  349SOL     OW 1045   1.657   1.447   1.539  0.0350 -0.1334 -0.6895
  349SOL    HW1 1046   1.692   1.541   1.532 -1.8867 -0.7568  0.3426
  349SOL    HW2 1047   1.560   1.449   1.559  2.9304  1.5946  1.0834
  350SOL     OW 1048   2.295   2.275   0.844 -1.0083  0.3680  0.3867
  350SOL    HW1 1049   2.297   2.266   0.947 -1.8722 -0.9272 -1.2723
  350SOL    HW2 1050   2.355   2.353   0.819 -1.4215 -0.6274  0.8681
  351SOL     OW 1051   0.363   3.048   1.922 -0.1364 -0.7098 -0.0625
  351SOL    HW1 1052   0.329   3.038   1.828 -1.6673 -2.1671  1.7184
  351SOL    HW2 1053   0.335   2.970   1.977  0.9429  1.4978 -0.9533
  352SOL     OW 1054   0.874   0.979   0.217  0.3656  0.0488  0.1748
  352SOL    HW1 1055   0.911   0.915   0.286 -0.3868 -2.0886 -1.2806
  352SOL    HW2 1056   0.775   0.953   0.195 -1.6112  2.3964  0.3154
  353SOL     OW 1057   0.852   1.510   2.978  0.0637 -0.0310 -0.6049
  353SOL    HW1 1058   0.878   1.603   3.008 -0.4698 -2.2767 -2.2087
  353SOL    HW2 1059   0.805   1.507   2.887  0.4148  1.2609 -3.4650
  354SOL     OW 1060   1.834   2.525   1.743  0.2223  0.1707  0.4459
  354SOL    HW1 1061   1.896   2.578   1.801  0.7889  1.8132  1.8692
  354SOL    HW2 1062   1.872   2.435   1.728 -0.0664  0.8251 -0.9834
  355SOL     OW 1063   2.183   0.760   2.881  0.0375  0.2161  0.0634
  355SOL    HW1 1064   2.116   0.833   2.862 -0.5391 -0.5097 -0.5802
  355SOL    HW2 1065   2.262   0.797   2.931  0.1897  0.2821 -0.8964
  356SOL     OW 1066   0.506   2.214   1.357  0.1005 -0.4776 -0.2760
  356SOL    HW1 1067   0.550   2.252   1.274 -0.0944  0.0236  0.4648
  356SOL    HW2 1068   0.484   2.114   1.346  0.6672  1.0301 -0.9091
  357SOL     OW 1069   3.010   2.949   1.823  0.2309  0.1968  0.1375
  357SOL    HW1 1070   2.955   2.905   1.750 -0.6379 -1.4267  4.4501
  357SOL    HW2 1071   3.073   3.024   1.793  1.5332 -0.0931  1.0521
  358SOL     OW 1072   2.272   1.885   1.485  0.1311  0.1453 -0.2290
  358SOL    HW1 1073   2.175   1.902   1.455  0.2653 -0.9581 -1.6853
  358SOL    HW2 1074   2.288   1.878   1.584  0.6224 -3.8513 -1.4669
  359SOL     OW 1075   1.794   2.200   2.468  0.0246 -0.0980  0.0365
  359SOL    HW1 1076   1.744   2.275   2.413  0.8576 -0.3037 -0.2370
  359SOL    HW2 1077   1.860   2.248   2.529 -4.5321  1.7160 -1.7192
  360SOL     OW 1078   1.388   2.575   0.836  0.0962 -0.4323  0.2069
  360SOL    HW1 1079   1.306   2.612   0.875 -1.0552  2.0152 -0.4661
  360SOL    HW2 1080   1.445   2.648   0.792 -1.1601 -3.2231  1.4942
  361SOL     OW 1081   1.888   0.065   0.549 -0.4044  0.3265  0.5280
  361SOL    HW1 1082   1.818   0.124   0.506 -1.3729 -0.1809  0.1902
  361SOL    HW2 1083   1.850   3.053   0.562 -1.0618 -1.7838 -1.0648
  362SOL     OW 1084   1.590   1.039   1.538 -0.1126 -0.3862  0.0171
  362SOL    HW1 1085   1.595   1.062   1.438  1.0052 -0.8194  2.9575
  362SOL    HW2 1086   1.534   1.112   1.585  1.2241 -0.2238  1.6675
  363SOL     OW 1087   1.964   1.590   2.135 -0.6697  0.1465  0.3535
  363SOL    HW1 1088   1.881   1.538   2.156  0.5418  2.5526 -1.5510
  363SOL    HW2 1089   2.042   1.528   2.152 -1.8763 -2.3547 -1.7382
  364SOL     OW 1090   0.759   0.547   1.377  0.1698  0.3992 -0.1192
  364SOL    HW1 1091   0.775   0.528   1.276  0.1752 -1.2724 -0.2947
  364SOL    HW2 1092   0.704   0.632   1.381  1.2025 -1.0064 -0.3709
  365SOL     OW 1093   0.448   0.612   2.560  0.2525 -0.1524 -0.4671
  365SOL    HW1 1094   0.383   0.601   2.638  0.4034  0.0957 -0.4593
  365SOL    HW2 1095   0.409   0.587   2.468 -0.7559 -1.0836  0.1942
  366SOL     OW 1096   2.178   1.569   3.005 -0.0902  0.1071  0.0858
  366SOL    HW1 1097   2.099   1.591   3.058  2.5691 -0.4544  2.6490
  366SOL    HW2 1098   2.261   1.577   3.067 -0.6749 -1.2996 -0.7710
  367SOL     OW 1099   2.942   2.617   2.695 -0.4462 -0.1896 -0.1065
  367SOL    HW1 1100   2.925   2.521   2.682  0.3721  2.0487 -0.1648
  367SOL    HW2 1101   2.886   2.666   2.625  1.3262 -0.0936  0.8491
  368SOL     OW 1102   3.020   1.242   1.181  0.2212  0.4453  0.3148
  368SOL    HW1 1103   3.043   1.156   1.234 -0.2934 -2.9664  0.8357
  368SOL    HW2 1104   2.925   1.228   1.144  0.4820 -1.4321 -0.2769
  369SOL     OW 1105   0.670   2.863   2.210  0.1557 -0.1059 -0.4699
  369SOL    HW1 1106   0.731   2.789   2.174  0.0962  0.8513  1.5983
  369SOL    HW2 1107   0.727   2.919   2.269 -0.9520  1.5379 -1.7726
  370SOL     OW 1108   2.934   0.217   0.593  0.3666  0.3659 -0.4329
  370SOL    HW1 1109   2.903   0.156   0.516 -0.4867 -2.2814  0.0253
  370SOL    HW2 1110   2.961   0.307   0.558 -0.5381  1.8284  1.7667
  371SOL     OW 1111   0.960   2.320   1.330  0.6613 -0.5546  0.0100
  371SOL    HW1 1112   1.047   2.371   1.353 -1.9477 -0.5863  1.0899
  371SOL    HW2 1113   0.961   2.229   1.380 -3.3557 -0.2730  1.2958
  372SOL     OW 1114   2.530   0.329   2.594 -0.1338 -0.3687  0.3036
  372SOL    HW1 1115   2.532   0.245   2.647 -1.2669  1.7430  0.0963
  372SOL    HW2 1116   2.535   0.305   2.496  0.3688 -1.5338 -0.2181
  373SOL     OW 1117   0.004   2.154   0.749  0.2336 -0.0127  0.0866
  373SOL    HW1 1118   0.096   2.186   0.741 -4.4003 -1.3771  0.6595
  373SOL    HW2 1119   3.051   2.144   0.841  2.4117  0.2354 -1.7024
  374SOL     OW 1120   0.036   0.017   2.451 -0.4585  0.0462 -0.1760
  374SOL    HW1 1121   3.048   0.095   2.459  0.1672  0.6983 -2.7599
  374SOL    HW2 1122   0.125   0.060   2.426 -1.5724 -2.4480 -0.5430
  375SOL     OW 1123   0.686   0.547   2.696 -0.0777  0.5636 -0.0336
  375SOL    HW1 1124   0.613   0.580   2.639 -1.2854 -0.4881 -0.7707
  375SOL    HW2 1125   0.704   0.612   2.773 -0.3487 -1.2075  1.8729
  376SOL     OW 1126   2.997   2.156   1.821  0.1734 -0.5491  0.4405
  376SOL    HW1 1127   2.951   2.204   1.739 -0.3578  1.3564  0.2089
  376SOL    HW2 1128   3.039   2.063   1.797 -0.9205 -1.9627 -0.0754
  377SOL     OW 1129   1.278   0.288   2.858  0.3550 -0.6743 -0.5661
  377SOL    HW1 1130   1.273   0.204   2.804 -2.3859  0.6242 -1.5935
  377SOL    HW2 1131   1.327   0.364   2.810 -0.2803  2.6475 -1.6832
  378SOL     OW 1132   2.651   0.984   2.653 -0.4275  0.2166 -0.2516
  378SOL    HW1 1133   2.591   0.909   2.633  1.4820 -1.1878 -0.3681
  378SOL    HW2 1134   2.612   1.079   2.649 -0.6771  0.9454 -1.3161
  379SOL     OW 1135   1.135   0.829   3.008 -0.1046 -0.0702  0.5678
  379SOL    HW1 1136   1.109   0.810   2.912 -0.2308  0.3184 -0.7292
  379SOL    HW2 1137   1.093   0.915   3.043 -0.2741 -0.7936  1.5950
  380SOL     OW 1138   0.106   1.671   1.926  0.1066 -0.0972  0.2541
  380SOL    HW1 1139   0.208   1.675   1.949  0.7431  1.6691 -1.8650
  380SOL    HW2 1140   0.083   1.767   1.890  2.8354 -2.0152 -3.5906
  381SOL     OW 1141   0.121   1.190   2.547  0.1607 -0.3077 -0.0144
  381SOL    HW1 1142   0.113   1.165   2.448  2.1310  0.2248  1.2660
  381SOL    HW2 1143   0.031   1.230   2.586  2.3309 -1.8962  1.2154
  382SOL     OW 1144   2.173   2.264   0.597 -0.1617 -0.6698  0.3933
  382SOL    HW1 1145   2.253   2.294   0.543 -1.2743  1.1581 -0.9691
  382SOL    HW2 1146   2.202   2.236   0.691 -0.0177 -2.5278  2.6650
  383SOL     OW 1147   0.776   1.661   0.280  0.1168 -0.0430  0.5200
  383SOL    HW1 1148   0.858   1.728   0.283  1.7641  2.4677 -1.8750
  383SOL    HW2 1149   0.755   1.626   0.372 -0.3487  3.6529  0.3851
  384SOL     OW 1150   0.817   2.115   2.513  0.0231  0.4669  0.2652
  384SOL    HW1 1151   0.838   2.196   2.452  0.9025  1.0221 -1.1980
  384SOL    HW2 1152   0.858   2.035   2.471 -0.5843  1.1113  0.2158
  385SOL     OW 1153   2.323   1.994   0.770  0.2499  0.1492  0.4689
  385SOL    HW1 1154   2.345   1.935   0.851  1.5816 -0.4124  2.2791
  385SOL    HW2 1155   2.303   2.088   0.806  0.4866 -1.6979  0.7566
  386SOL     OW 1156   2.364   0.908   1.085 -0.5905 -0.0397 -0.3123
  386SOL    HW1 1157   2.334   0.857   0.999 -1.2914  1.0012  0.8965
  386SOL    HW2 1158   2.399   0.995   1.062 -0.6060 -3.1583  1.2808
  387SOL     OW 1159   0.045   0.704   2.002 -0.3073  0.0946 -0.0680
  387SOL    HW1 1160   0.043   0.745   2.093  0.8843  2.9442 -1.6576
  387SOL    HW2 1161   0.132   0.738   1.961  2.8776  1.6783 -2.3431
  388SOL     OW 1162   0.666   1.445   2.086  0.1116 -0.2669 -0.2449
  388SOL    HW1 1163   0.680   1.518   2.151 -0.0030  1.3525 -0.0219
  388SOL    HW2 1164   0.573   1.450   2.050 -2.1811  1.4025 -3.1990
  389SOL     OW 1165   0.544   0.989   2.063  0.5102  0.1874 -0.1652
  389SOL    HW1 1166   0.618   1.004   2.136 -0.4477  3.0832 -0.1818
  389SOL    HW2 1167   0.583   0.990   1.968  1.4408 -1.7337 -0.1971
  390SOL     OW 1168   2.751   2.921   0.678  0.1120 -0.2548  0.8877
  390SOL    HW1 1169   2.720   3.003   0.731 -0.4500  1.3208  1.1635
  390SOL    HW2 1170   2.743   2.927   0.576 -1.2980 -0.6886  1.6713
  391SOL     OW 1171   1.908   1.642   1.110  0.0727  0.2618  0.5473
  391SOL    HW1 1172   1.833   1.571   1.111 -2.9689 -0.0301  0.1737
  391SOL    HW2 1173   1.961   1.647   1.022  0.7416 -0.5431  2.6380
  392SOL     OW 1174   2.866   2.863   2.843  0.3999  0.5806 -0.2162
  392SOL    HW1 1175   2.947   2.912   2.805  1.8583 -2.4534  1.5026
  392SOL    HW2 1176   2.848   2.777   2.797  2.5735  4.3633  2.9631
  393SOL     OW 1177   1.434   2.115   2.599 -0.2769  0.4878  0.3735
  393SOL    HW1 1178   1.495   2.058   2.657 -0.5516 -0.8945  0.0810
  393SOL    HW2 1179   1.478   2.141   2.510 -1.7322 -0.8017 -0.6495
  394SOL     OW 1180   0.129   2.405   2.628 -0.2545 -1.0730  0.0286
  394SOL    HW1 1181   0.089   2.351   2.550  0.4173  0.0691  0.3230
  394SOL    HW2 1182   0.059   2.410   2.700  0.9585 -1.0833  2.5049
  395SOL     OW 1183   0.321   0.200   0.684  0.1242  0.5054 -0.2053
  395SOL    HW1 1184   0.275   0.169   0.766  2.7468  1.8082 -3.6220
  395SOL    HW2 1185   0.286   0.141   0.612 -1.7822  1.8353  1.0816
  396SOL     OW 1186   2.279   0.364   0.505 -0.2226 -0.1135  0.1053
  396SOL    HW1 1187   2.204   0.405   0.558  2.7696 -0.6033 -0.5000
  396SOL    HW2 1188   2.259   0.268   0.471 -1.8145 -3.9018  0.9642
  397SOL     OW 1189   2.941   0.789   2.503 -0.2186  0.7082 -0.1224
  397SOL    HW1 1190   2.889   0.715   2.552 -0.4735  3.6225 -0.3690
  397SOL    HW2 1191   2.955   0.873   2.559 -2.1997  2.9564  0.8516
  398SOL     OW 1192   0.844   2.995   3.045  0.0171 -0.2850 -0.7877
  398SOL    HW1 1193   0.810   3.064   2.984  1.3752 -1.3900  2.3336
  398SOL    HW2 1194   0.948   2.999   3.051 -1.0176  1.0825 -1.1952
  399SOL     OW 1195   1.924   0.390   2.116  0.0855  0.2160 -0.2499
  399SOL    HW1 1196   1.843   0.365   2.169  0.4927  3.1242 -0.7252
  399SOL    HW2 1197   1.906   0.359   2.019 -2.6043 -1.1368 -2.5187
  400SOL     OW 1198   1.005   2.070   2.775  0.1531 -0.0663 -0.1300
  400SOL    HW1 1199   0.990   2.163   2.737  0.7795 -0.3295  0.4587
  400SOL    HW2 1200   0.974   2.068   2.872  1.9123 -0.3905 -1.3737
  401SOL     OW 1201   0.350   1.289   2.613 -0.2793  0.9376 -0.5239
  401SOL    HW1 1202   0.329   1.385   2.636  1.6381 -1.4601  0.9935
  401SOL    HW2 1203   0.263   1.244   2.586  1.2953  0.2586 -1.7218
  402SOL     OW 1204   0.346   2.801   0.262  0.3270 -0.0324 -0.1160
  402SOL    HW1 1205   0.348   2.717   0.321 -0.8503  1.6859  1.2037
  402SOL    HW2 1206   0.415   2.875   0.288  0.1683  0.9171 -0.6172
  403SOL     OW 1207   0.475   1.010   1.605 -0.4973 -1.2029 -0.5456
  403SOL    HW1 1208   0.530   0.938   1.649 -0.5016  1.5249  0.3818
  403SOL    HW2 1209   0.379   0.988   1.598  0.6885  2.1420 -4.0940
  404SOL     OW 1210   2.289   2.587   2.174 -0.2963  0.2411 -0.8861
  404SOL    HW1 1211   2.383   2.622   2.199  0.2176  1.9355 -0.8222
  404SOL    HW2 1212   2.243   2.543   2.255 -0.2912 -2.6473  3.3127
  405SOL     OW 1213   2.912   0.217   1.767  0.0328 -0.3792  0.9380
  405SOL    HW1 1214   2.949   0.208   1.858 -2.1225 -0.2839 -1.6548
  405SOL    HW2 1215   2.988   0.197   1.698  1.2900 -1.4586 -2.1921
  406SOL     OW 1216   1.232   1.560   2.730 -0.5079  0.2345 -0.1370
  406SOL    HW1 1217   1.171   1.623   2.682 -0.1892  0.1362  1.2982
  406SOL    HW2 1218   1.295   1.610   2.796 -1.4629  2.8729 -0.0657
  407SOL     OW 1219   2.021   0.924   2.742 -0.2462  0.3818  0.2508
  407SOL    HW1 1220   2.090   0.923   2.667  2.0852  1.2623  0.4559
  407SOL    HW2 1221   1.984   1.020   2.739  0.2052 -0.6246  0.4783
  408SOL     OW 1222   0.471   2.589   2.211  0.2713 -0.1202 -0.2374
  408SOL    HW1 1223   0.525   2.617   2.295  1.7777  0.6827 -0.9740
  408SOL    HW2 1224   0.372   2.568   2.226  3.0679  1.8566  1.2154
  409SOL     OW 1225   0.166   2.306   1.227 -0.6042 -0.2077  0.1120
  409SOL    HW1 1226   0.066   2.309   1.201 -0.4558  0.8044  1.3050
  409SOL    HW2 1227   0.189   2.406   1.230 -1.8991  0.6399  0.1955
  410SOL     OW 1228   2.924   1.838   0.457 -0.2900 -0.1473  0.1728
  410SOL    HW1 1229   2.993   1.868   0.524 -1.9628  1.3567  2.6547
  410SOL    HW2 1230   2.928   1.742   0.418 -1.8857 -0.7348  0.0607
  411SOL     OW 1231   2.609   3.014   1.285 -0.2949  0.5686 -0.5363
  411SOL    HW1 1232   2.528   3.057   1.332  2.6177 -0.2250  1.4054
  411SOL    HW2 1233   2.613   3.053   1.192  0.1062  1.2154 -0.2455
  412SOL     OW 1234   2.147   0.256   1.738 -0.4660 -0.3656  0.5855
  412SOL    HW1 1235   2.196   0.172   1.772  0.3832  0.6772  1.3804
  412SOL    HW2 1236   2.093   0.235   1.655  1.8922 -0.0682 -0.2758
  413SOL     OW 1237   0.098   0.284   2.134 -0.5411 -0.3999  0.2714
  413SOL    HW1 1238   0.092   0.341   2.219  0.6576  1.0451 -0.8415
  413SOL    HW2 1239   0.185   0.296   2.082  0.1463  1.4921  0.1195
  414SOL     OW 1240   2.867   1.205   3.060  0.1158 -0.2296 -0.1105
  414SOL    HW1 1241   2.826   1.299   3.070 -1.1804  0.6500  3.2808
  414SOL    HW2 1242   2.840   1.142   0.058 -2.8986  0.8204  1.4470
  415SOL     OW 1243   0.967   2.471   3.040 -0.3941  0.4219 -1.0418
  415SOL    HW1 1244   1.018   2.397   2.999  0.9734 -0.1335  1.7390
  415SOL    HW2 1245   1.028   2.522   0.025 -0.7254  1.0380  0.7150
  416SOL     OW 1246   1.554   2.922   2.403  0.0026 -0.2679 -0.2920
  416SOL    HW1 1247   1.483   2.855   2.438 -1.7272  0.8300  0.3925
  416SOL    HW2 1248   1.609   2.892   2.322  2.1755  0.1670 -1.3297
  417SOL     OW 1249   0.213   0.688   1.072 -0.1550  0.1427  0.0088
  417SOL    HW1 1250   0.315   0.677   1.064  0.9434  2.4646  2.9044
  417SOL    HW2 1251   0.176   0.667   0.982 -1.1557 -0.0732  3.0105
  418SOL     OW 1252   2.652   0.031   0.829  0.5909 -0.3725 -0.0637
  418SOL    HW1 1253   2.636   0.034   0.927  1.3335 -0.7765 -2.5771
  418SOL    HW2 1254   2.661   0.122   0.789  1.2652 -1.5496  0.5100
  419SOL     OW 1255   0.370   3.069   0.159  0.3456 -0.1196  0.1937
  419SOL    HW1 1256   0.334   2.974   0.170 -1.0888 -0.1378  3.4723
  419SOL    HW2 1257   0.296   0.053   0.187 -2.2469  0.4167 -1.0542
  420SOL     OW 1258   0.198   0.969   1.576  0.3664  0.0246  0.3080
  420SOL    HW1 1259   0.207   0.897   1.497  1.0740 -1.4857 -3.4813
  420SOL    HW2 1260   0.104   0.997   1.596  0.3776  1.1656 -1.0480
  421SOL     OW 1261   1.853   2.457   0.799  0.0885  0.0889  0.1826
  421SOL    HW1 1262   1.904   2.420   0.882 -0.1762  0.5251  0.1051
  421SOL    HW2 1263   1.760   2.407   0.789 -0.7481 -1.4440  0.5802
  422SOL     OW 1264   0.089   0.315   1.120  0.1916 -0.0954 -0.1035
  422SOL    HW1 1265   0.086   0.351   1.027  0.8520 -0.9997  1.8219
  422SOL    HW2 1266   0.169   0.348   1.171 -2.6076  0.5963  1.7484
  423SOL     OW 1267   0.837   1.183   2.046 -0.2807  0.5224  0.5296
  423SOL    HW1 1268   0.806   1.119   2.122  1.1182 -1.3803 -1.3817
  423SOL    HW2 1269   0.762   1.252   2.040  1.1576  0.6801  5.4461
  424SOL     OW 1270   1.777   2.104   0.467 -0.3621 -0.1655 -0.2158
  424SOL    HW1 1271   1.783   2.040   0.387 -0.2164  0.2993  2.0180
  424SOL    HW2 1272   1.844   2.061   0.537 -0.2116 -1.1825 -0.3428
  425SOL     OW 1273   2.759   2.991   1.923 -0.6211  0.7168 -0.7622
  425SOL    HW1 1274   2.736   3.061   1.850 -0.6229  1.1107 -2.2839
  425SOL    HW2 1275   2.861   2.983   1.917 -0.9316  0.4890  0.2569
  426SOL     OW 1276   0.330   2.699   2.546  0.3390 -0.2589  0.3151
  426SOL    HW1 1277   0.351   2.653   2.631 -0.7891  0.2585 -0.7452
  426SOL    HW2 1278   0.271   2.648   2.485  0.9683 -0.4595 -1.9552
  427SOL     OW 1279   0.919   2.943   0.405  0.3654  0.2068  0.1950
  427SOL    HW1 1280   0.931   3.040   0.443  2.7966  2.4813  2.2538
  427SOL    HW2 1281   0.850   2.942   0.323 -0.5999 -0.2307  1.2064
  428SOL     OW 1282   2.733   0.340   1.430  0.2382 -0.2165  0.4924
  428SOL    HW1 1283   2.763   0.244   1.392 -1.0367  2.7191  0.6993
  428SOL    HW2 1284   2.659   0.388   1.376 -1.4022  0.7083 -0.9795
  429SOL     OW 1285   2.037   2.839   0.751  0.0770 -0.3090 -0.4014
  429SOL    HW1 1286   1.952   2.864   0.701  1.6244  2.9606  1.2564
  429SOL    HW2 1287   2.016   2.846   0.854  2.0228 -3.4503  2.1946
  430SOL     OW 1288   0.988   1.649   2.567  0.3078 -0.2282 -0.5663
  430SOL    HW1 1289   0.946   1.709   2.634  0.1877 -2.4763  1.3272
  430SOL    HW2 1290   0.924   1.582   2.521 -0.3574  0.7458  2.1385
  431SOL     OW 1291   0.116   2.029   1.381 -0.5188 -0.0119 -0.0176
  431SOL    HW1 1292   0.171   1.970   1.445  0.0665  0.2262 -1.7734
  431SOL    HW2 1293   0.027   2.052   1.421  0.5379  2.6910 -2.0909
  432SOL     OW 1294   1.505   2.707   2.666  0.2777  0.4968 -0.6446
  432SOL    HW1 1295   1.564   2.787   2.676  2.2574 -0.0347 -0.0532
  432SOL    HW2 1296   1.433   2.729   2.598  1.1448  0.5181  3.0435
  433SOL     OW 1297   1.040   0.423   2.351  0.4362 -0.4481 -0.3528
  433SOL    HW1 1298   0.989   0.400   2.269  1.3800  1.0705  2.3647
  433SOL    HW2 1299   1.040   0.523   2.366  1.2394 -1.3496 -1.0947
  434SOL     OW 1300   0.789   2.636   2.106 -0.5733  0.1054 -0.5143
  434SOL    HW1 1301   0.796   2.612   2.004  0.5011  0.5814 -0.6268
  434SOL    HW2 1302   0.775   2.550   2.159  0.2444 -0.5446 -0.3244
  435SOL     OW 1303   0.548   0.161   3.073  0.4830 -0.5745 -0.2030
  435SOL    HW1 1304   0.503   0.088   0.051  2.5590 -1.3880  1.3071
  435SOL    HW2 1305   0.486   0.242   3.065 -1.5954  0.5382 -2.6686
  436SOL     OW 1306   0.469   1.253   2.362 -0.3516 -0.2746  0.0958
  436SOL    HW1 1307   0.420   1.284   2.443  1.5365 -1.9613 -0.7883
  436SOL    HW2 1308   0.563   1.226   2.390 -2.4027 -0.3085 -0.4742
  437SOL     OW 1309   1.050   2.337   2.650  0.2135  0.2617  0.0290
  437SOL    HW1 1310   1.107   2.269   2.609  0.7848  0.1211  0.9631
  437SOL    HW2 1311   1.014   2.399   2.577 -0.4557  0.6894 -1.1284
  438SOL     OW 1312   0.895   0.970   0.723 -0.1228 -0.5550  0.4268
  438SOL    HW1 1313   0.902   0.968   0.826 -1.6652  1.7393  1.1738
  438SOL    HW2 1314   0.989   0.959   0.686 -0.9035  2.6442  0.0283
  439SOL     OW 1315   2.875   1.282   2.324 -0.1248 -0.1274 -0.6719
  439SOL    HW1 1316   2.900   1.205   2.260  2.2544  0.1873  1.5076
  439SOL    HW2 1317   2.883   1.379   2.285 -2.5168  2.0738  0.6719
  440SOL     OW 1318   2.937   0.457   3.007  0.3365  0.0644 -0.1636
  440SOL    HW1 1319   2.967   0.437   2.912  0.6781 -0.8299 -0.7822
  440SOL    HW2 1320   2.862   0.522   2.999 -1.3151  4.3391 -1.1361
  441SOL     OW 1321   0.902   1.792   1.579  0.4419  0.2418  0.2934
  441SOL    HW1 1322   0.819   1.853   1.576 -1.7527 -0.9369  0.6836
  441SOL    HW2 1323   0.911   1.763   1.679 -2.5031 -1.6441  0.9290
  442SOL     OW 1324   1.890   1.241   0.739  0.0454 -0.5250  0.2028
  442SOL    HW1 1325   1.847   1.211   0.650 -0.7702  0.2600 -3.0982
  442SOL    HW2 1326   1.888   1.341   0.742  0.2063 -0.5123 -1.5047
  443SOL     OW 1327   2.416   2.088   2.963  1.0822 -0.0508  0.2582
  443SOL    HW1 1328   2.410   2.156   2.890 -2.1970 -0.2024  0.7226
  443SOL    HW2 1329   2.334   2.032   2.972  0.4521 -0.6367  1.4334
  444SOL     OW 1330   1.801   1.417   2.668  0.2985 -0.1826  0.0048
  444SOL    HW1 1331   1.865   1.401   2.590 -1.5925  1.2105  1.4005
  444SOL    HW2 1332   1.805   1.514   2.692 -0.3038 -0.2984  1.8300
  445SOL     OW 1333   0.440   2.211   2.109  0.4996 -0.1905  0.2421
  445SOL    HW1 1334   0.413   2.243   2.204 -0.9821  1.2813  2.1168
  445SOL    HW2 1335   0.539   2.186   2.106 -1.9527 -0.0018 -1.4345
  446SOL     OW 1336   0.880   0.810   1.751 -0.0498  0.6196  0.4598
  446SOL    HW1 1337   0.866   0.711   1.739 -0.1961 -2.6100  1.8071
  446SOL    HW2 1338   0.966   0.833   1.691  0.3636  0.8396 -0.3189
  447SOL     OW 1339   1.152   0.905   0.677  0.6671 -0.3245 -0.0715
  447SOL    HW1 1340   1.187   0.913   0.586 -1.0804 -0.7367  2.3361
  447SOL    HW2 1341   1.196   0.832   0.736  0.5830 -0.7906 -0.4449
  448SOL     OW 1342   1.099   1.289   2.272  0.2903  0.0047  0.1536
  448SOL    HW1 1343   1.048   1.370   2.237  0.1480  2.0573  0.3993
  448SOL    HW2 1344   1.093   1.218   2.196 -0.9639  0.2023  0.4848
  449SOL     OW 1345   0.260   1.574   2.469  0.1310 -0.5194  0.5429
  449SOL    HW1 1346   0.246   1.503   2.398 -1.5345 -0.3854  0.0916
  449SOL    HW2 1347   0.195   1.655   2.457  1.3865  2.3933  0.6071
  450SOL     OW 1348   2.207   1.464   2.157 -0.4281 -0.1460  0.0654
  450SOL    HW1 1349   2.279   1.463   2.226 -1.4844 -2.3005  0.3081
  450SOL    HW2 1350   2.227   1.515   2.072 -0.7237 -1.3045  2.2813
  451SOL     OW 1351   2.617   1.388   1.273 -0.3286  0.4833 -0.0823
  451SOL    HW1 1352   2.602   1.467   1.211 -0.2309  0.2998  1.5208
  451SOL    HW2 1353   2.691   1.399   1.344 -0.4330 -1.0555  2.6161
  452SOL     OW 1354   0.707   1.052   1.453 -0.0286  0.2875  0.7033
  452SOL    HW1 1355   0.624   1.064   1.503  3.2777 -3.0675 -0.9499
  452SOL    HW2 1356   0.778   1.110   1.494 -1.0943  0.8894 -1.2385
  453SOL     OW 1357   0.446   1.950   1.033 -0.1887  0.6896 -0.2906
  453SOL    HW1 1358   0.352   1.975   1.057  0.3606  0.6245  1.2366
  453SOL    HW2 1359   0.464   1.949   0.932 -0.3882  2.4503  0.0446
  454SOL     OW 1360   1.264   1.565   0.274 -0.8311  0.4281 -0.3434
  454SOL    HW1 1361   1.366   1.580   0.282 -0.4668 -0.2248 -0.4728
  454SOL    HW2 1362   1.230   1.550   0.367  1.9952  0.2228 -1.2028
  455SOL     OW 1363   1.661   0.548   0.937  0.7348  0.1534 -0.2122
  455SOL    HW1 1364   1.673   0.445   0.940 -0.5403  1.5476 -1.4148
  455SOL    HW2 1365   1.747   0.604   0.943  0.1276 -0.1811  0.2572
  456SOL     OW 1366   1.819   2.875   0.585  0.7327 -0.3407  0.3260
  456SOL    HW1 1367   1.816   2.778   0.592 -0.6119  3.0689  0.4497
  456SOL    HW2 1368   1.719   2.908   0.573 -0.0246  0.3724 -1.7561
  457SOL     OW 1369   1.972   0.893   2.361  0.0141 -0.2718 -0.3434
  457SOL    HW1 1370   2.036   0.906   2.283  0.1224  0.3102 -0.5465
  457SOL    HW2 1371   1.877   0.928   2.329  0.4312  0.4099 -2.4016
  458SOL     OW 1372   2.545   0.568   2.727 -0.3363  0.0017  0.3979
  458SOL    HW1 1373   2.485   0.639   2.689  1.3551 -0.1183  1.7917
  458SOL    HW2 1374   2.530   0.479   2.681  1.2607  1.9033  3.7172
  459SOL     OW 1375   2.607   1.304   2.381 -0.3603 -0.3658  0.4613
  459SOL    HW1 1376   2.585   1.385   2.322  1.7922 -1.5270  3.0345
  459SOL    HW2 1377   2.708   1.289   2.380  0.4564  0.0945  0.2636
  460SOL     OW 1378   0.818   0.986   2.790 -0.3227  0.3397  0.3674
  460SOL    HW1 1379   0.834   1.081   2.815 -1.5348 -2.0128 -0.9089
  460SOL    HW2 1380   0.729   0.981   2.745  0.9102  0.5823 -0.9326
  461SOL     OW 1381   0.359   2.167   0.105 -0.1416 -0.2184 -0.0519
  461SOL    HW1 1382   0.388   2.247   0.166  0.7418  2.3849  2.7813
  461SOL    HW2 1383   0.300   2.205   0.027  0.9548  0.3855  0.7767
  462SOL     OW 1384   1.186   2.989   2.176 -0.3139  0.2897 -0.7378
  462SOL    HW1 1385   1.226   2.909   2.129  1.7009 -1.6468 -0.3917
  462SOL    HW2 1386   1.092   3.007   2.142  0.7021  1.8690 -1.6887
  463SOL     OW 1387   1.954   2.325   2.089 -0.6551 -0.3921 -0.0043
  463SOL    HW1 1388   1.904   2.255   2.138  0.4570 -1.1002 -1.3681
  463SOL    HW2 1389   2.054   2.315   2.111 -1.2310 -1.4809  0.2269
  464SOL     OW 1390   2.575   2.477   0.830 -0.2221 -0.6096 -0.1449
  464SOL    HW1 1391   2.477   2.503   0.857 -0.4821 -0.4805  1.9024
  464SOL    HW2 1392   2.612   2.553   0.774 -1.7545 -0.3750  3.6147
  465SOL     OW 1393   2.997   0.117   1.138  0.1611  0.1414  0.1199
  465SOL    HW1 1394   3.001   0.070   1.047 -0.3044  0.6374  0.3124
  465SOL    HW2 1395   3.062   0.194   1.146 -1.2282 -2.5453  2.7196
  466SOL     OW 1396   1.338   2.766   2.460  0.5639  0.2225 -0.0079
  466SOL    HW1 1397   1.259   2.796   2.515 -0.2155  1.1707 -0.2741
  466SOL    HW2 1398   1.314   2.740   2.363 -0.0063 -0.7738  2.8198
  467SOL     OW 1399   3.075   2.330   0.226 -0.6381 -0.3523 -0.0516
  467SOL    HW1 1400   0.007   2.230   0.239 -1.4599  1.3423  2.2563
  467SOL    HW2 1401   3.004   2.347   0.152 -4.7796 -1.5001  1.1626
  468SOL     OW 1402   2.172   1.924   2.953  0.2722  0.0342 -0.1451
  468SOL    HW1 1403   2.188   1.842   2.896 -0.5970 -0.5127 -2.3111
  468SOL    HW2 1404   2.124   1.995   2.893 -0.5827 -0.1630 -0.1696
  469SOL     OW 1405   0.942   1.908   0.590 -0.1179 -0.0995  0.1080
  469SOL    HW1 1406   0.880   1.982   0.627 -1.5704  2.1253  0.9449
  469SOL    HW2 1407   0.944   1.820   0.641  0.6598  2.7787 -1.3936
  470SOL     OW 1408   1.916   0.710   0.957 -0.2844  0.0820  0.1735
  470SOL    HW1 1409   1.981   0.632   0.972  1.5950  0.3758 -0.1426
  470SOL    HW2 1410   1.957   0.797   0.993 -1.0118  0.4988 -0.2433
  471SOL     OW 1411   0.317   1.744   0.340  1.0013 -0.6111 -0.3777
  471SOL    HW1 1412   0.399   1.719   0.289  1.0044 -0.2583  2.8371
  471SOL    HW2 1413   0.290   1.846   0.323 -2.4578  0.6894 -1.8641
  472SOL     OW 1414   2.504   1.784   2.588 -0.0410  0.3016  0.2151
  472SOL    HW1 1415   2.515   1.694   2.627 -0.1788  0.1520  0.7710
  472SOL    HW2 1416   2.580   1.799   2.523 -1.0252 -0.0179 -0.3856
  473SOL     OW 1417   1.561   1.776   0.727 -0.8485  0.1295 -0.5294
  473SOL    HW1 1418   1.511   1.858   0.702 -0.9772 -1.6912 -1.0338
  473SOL    HW2 1419   1.564   1.765   0.827  1.6976  0.1930 -2.1139
  474SOL     OW 1420   2.589   0.379   1.028 -0.2447  0.0722 -0.2647
  474SOL    HW1 1421   2.528   0.386   0.948 -1.7226 -0.2248  2.3863
  474SOL    HW2 1422   2.691   0.392   1.007  2.5565  0.3385 -0.4574
  475SOL     OW 1423   2.603   2.938   1.607  0.2509 -0.5883  0.3413
  475SOL    HW1 1424   2.577   2.891   1.693  2.6941 -0.0782  0.0910
  475SOL    HW2 1425   2.517   2.963   1.554 -1.1420  0.6906  0.0688
  476SOL     OW 1426   0.720   0.310   0.757  0.1290 -0.0769 -0.4464
  476SOL    HW1 1427   0.713   0.374   0.676  0.7102  2.5805 -1.0286
  476SOL    HW2 1428   0.805   0.335   0.809  2.3753  1.6796  0.0804
  477SOL     OW 1429   1.262   2.396   1.125  0.1730  0.0437 -0.3993
  477SOL    HW1 1430   1.362   2.371   1.125  1.0971  2.3858  1.6806
  477SOL    HW2 1431   1.254   2.487   1.078  1.1102  2.3174 -0.4662
  478SOL     OW 1432   1.298   2.627   2.848 -0.1247  0.1627 -0.4700
  478SOL    HW1 1433   1.201   2.625   2.814 -0.5573 -1.6692 -1.5642
  478SOL    HW2 1434   1.354   2.681   2.782 -0.7796  0.3022 -0.7815
  479SOL     OW 1435   2.392   0.972   1.930  0.4222 -0.3008 -0.0078
  479SOL    HW1 1436   2.393   0.989   2.031  0.3862  0.2247  0.2744
  479SOL    HW2 1437   2.405   0.877   1.904  2.1879  1.9368  0.2900
  480SOL     OW 1438   2.707   2.134   2.666 -0.6276 -0.1034 -0.2921
  480SOL    HW1 1439   2.792   2.187   2.644 -0.7237  0.2168  1.6206
  480SOL    HW2 1440   2.732   2.054   2.721  0.2617  1.8028 -1.4867
  481SOL     OW 1441   1.600   3.073   1.701 -0.1742  0.0426  0.0349
  481SOL    HW1 1442   1.601   2.973   1.731  2.3885 -2.1829  2.2920
  481SOL    HW2 1443   1.505   0.020   1.679  0.9548 -2.2976 -1.1244
  482SOL     OW 1444   1.474   2.531   2.272 -0.0027  0.1764  0.4237
  482SOL    HW1 1445   1.511   2.566   2.189  1.0883 -2.9472  1.4495
  482SOL    HW2 1446   1.381   2.569   2.284  2.6824  0.6237 -1.1385
  483SOL     OW 1447   1.140   2.814   2.623  0.5795  0.4989 -0.0621
  483SOL    HW1 1448   1.092   2.725   2.643 -1.0123  0.0944  1.1033
  483SOL    HW2 1449   1.101   2.886   2.679 -2.3383 -4.3503  0.6221
  484SOL     OW 1450   2.385   3.050   1.483 -0.4216  0.1008  0.3293
  484SOL    HW1 1451   2.308   2.984   1.508  0.8619  1.2077  0.4547
  484SOL    HW2 1452   2.375   0.058   1.528 -0.5234 -0.6161 -2.6342
  485SOL     OW 1453   2.040   0.489   0.585  0.2863  0.2448 -0.4710
  485SOL    HW1 1454   2.020   0.575   0.635 -2.4362 -0.0494  1.2811
  485SOL    HW2 1455   1.954   0.453   0.543  0.7329 -1.0535  0.0791
  486SOL     OW 1456   2.237   2.590   2.545 -0.2488  0.0767  0.5251
  486SOL    HW1 1457   2.244   2.692   2.553 -0.1253  2.7052  1.0981
  486SOL    HW2 1458   2.166   2.566   2.472 -1.4489 -0.9820  0.2843
  487SOL     OW 1459   1.480   0.654   0.582  0.0577 -0.0527  0.2135
  487SOL    HW1 1460   1.387   0.643   0.619  0.8593 -0.6183  2.7446
  487SOL    HW2 1461   1.536   0.574   0.612  0.1315 -2.3287 -1.8174
  488SOL     OW 1462   2.505   2.849   2.476 -0.0890  0.2256 -0.3234
  488SOL    HW1 1463   2.494   2.805   2.385 -0.6545  0.4909 -0.4052
  488SOL    HW2 1464   2.418   2.884   2.514  2.3694 -1.5019  0.1887
  489SOL     OW 1465   1.372   2.718   0.363 -0.1189 -0.6376 -0.1123
  489SOL    HW1 1466   1.337   2.769   0.442  0.6024  0.7770 -2.9407
  489SOL    HW2 1467   1.460   2.759   0.320 -2.3796 -0.6300 -0.6969
  490SOL     OW 1468   1.646   0.436   0.094  0.1667  0.0426 -0.1137
  490SOL    HW1 1469   1.705   0.487   0.030 -3.9288 -1.5639 -1.0795
  490SOL    HW2 1470   1.553   0.420   0.056 -0.0483  0.7780  0.4887
  491SOL     OW 1471   0.729   2.937   1.258 -0.4469  0.0913  0.3553
  491SOL    HW1 1472   0.688   3.024   1.225  1.9118  0.1233 -1.7838
  491SOL    HW2 1473   0.797   2.959   1.331  2.0539  1.2374 -2.0078
  492SOL     OW 1474   1.749   2.618   0.566  0.3305  0.0278  0.4743
  492SOL    HW1 1475   1.796   2.537   0.604  0.0251  1.6647 -0.8970
  492SOL    HW2 1476   1.773   2.623   0.470 -0.5546 -2.2327  1.2622
  493SOL     OW 1477   1.218   2.215   3.065 -0.1713 -0.3872 -0.2801
  493SOL    HW1 1478   1.261   2.256   2.981 -1.0235  0.3544 -1.0056
  493SOL    HW2 1479   1.238   2.282   0.058  1.5172  0.4720  0.8969
  494SOL     OW 1480   0.924   0.797   0.434  0.2446 -0.3107  0.1999
  494SOL    HW1 1481   1.005   0.752   0.397 -5.0854  1.4289 -1.6036
  494SOL    HW2 1482   0.938   0.842   0.520 -0.2709 -0.4485 -0.0822
  495SOL     OW 1483   2.717   0.400   1.693  0.1061 -0.2227 -0.2061
  495SOL    HW1 1484   2.776   0.338   1.746  0.4952 -2.3312  2.5479
  495SOL    HW2 1485   2.700   0.375   1.594  1.1144 -0.8143 -1.4146
  496SOL     OW 1486   2.395   2.369   2.501  0.3701  0.1750 -0.1422
  496SOL    HW1 1487   2.341   2.459   2.510 -1.6324 -1.0702 -1.3864
  496SOL    HW2 1488   2.343   2.288   2.465 -2.2675 -1.0010  2.5801
  497SOL     OW 1489   1.619   1.484   2.441  0.3864  0.0558 -0.5185
  497SOL    HW1 1490   1.664   1.458   2.529 -0.5642  0.7270  1.7501
  497SOL    HW2 1491   1.521   1.453   2.440  1.8565  0.3207 -0.9470
  498SOL     OW 1492   0.791   2.589   0.980  0.8011 -0.2214  0.1122
  498SOL    HW1 1493   0.692   2.607   0.959  1.5251 -0.4133 -2.7115
  498SOL    HW2 1494   0.805   2.498   1.021 -2.7139 -0.0878 -1.2525
  499SOL     OW 1495   0.199   2.005   1.119  0.0390 -0.3468 -0.2297
  499SOL    HW1 1496   0.128   2.062   1.074 -2.6678  0.2542  2.4445
  499SOL    HW2 1497   0.189   2.012   1.218  0.1416  0.7348 -1.1854
  500SOL     OW 1498   0.793   2.768   2.891  0.1654 -0.3313  0.2243
  500SOL    HW1 1499   0.744   2.739   2.977  0.1418  1.0438  1.4937
  500SOL    HW2 1500   0.844   2.853   2.903 -2.0769  0.5395 -0.3182
  501SOL     OW 1501   1.751   0.040   0.239 -0.2429 -0.3447 -0.5001
  501SOL    HW1 1502   1.830   3.056   0.243  0.7921  0.2801 -1.1726
  501SOL    HW2 1503   1.742   0.082   0.148 -1.7201 -0.9928  0.8598
  502SOL     OW 1504   0.024   0.302   0.824 -0.6271 -0.0935 -0.1931
  502SOL    HW1 1505   3.043   0.270   0.743 -2.2486 -1.7608 -1.0246
  502SOL    HW2 1506   0.111   0.249   0.819  3.3279  1.6888  0.2994
  503SOL     OW 1507   2.070   2.971   2.061  0.0372 -0.6462  0.1015
  503SOL    HW1 1508   2.147   2.991   2.131 -0.9054 -0.6651  3.3375
  503SOL    HW2 1509   1.983   2.969   2.117 -0.4592  1.6198 -0.3611
  504SOL     OW 1510   2.154   1.102   1.890 -0.2246 -0.5975 -0.0094
  504SOL    HW1 1511   2.109   1.052   1.813 -0.0710 -0.9854 -0.7017
  504SOL    HW2 1512   2.242   1.052   1.908 -3.7915 -1.4433 -2.3331
  505SOL     OW 1513   1.858   2.993   2.223 -0.2462  0.0595 -0.2786
  505SOL    HW1 1514   1.846   3.079   2.287 -0.5741 -0.9316  1.7204
  505SOL    HW2 1515   1.769   2.973   2.176 -3.0572 -2.1722 -1.6202
  506SOL     OW 1516   3.073   0.451   1.890 -0.0977  0.0172 -0.2747
  506SOL    HW1 1517   2.998   0.406   1.943  1.1222  2.6277  0.0808
  506SOL    HW2 1518   0.019   0.540   1.935 -0.4402 -0.5958  1.0900
  507SOL     OW 1519   1.804   0.433   0.481  0.5495  0.0978  0.2466
  507SOL    HW1 1520   1.768   0.495   0.409  1.5271  0.7689  4.2812
  507SOL    HW2 1521   1.766   0.335   0.478  1.8224 -1.3013  0.9997
  508SOL     OW 1522   2.007   0.604   1.969  0.1274 -0.4163  0.0314
  508SOL    HW1 1523   1.977   0.527   2.024  1.0025  0.1786  0.3319
  508SOL    HW2 1524   1.997   0.697   2.010  0.9020  0.6388 -0.4482
  509SOL     OW 1525   0.633   1.764   2.606 -0.4426 -0.0351 -0.0852
  509SOL    HW1 1526   0.713   1.828   2.622  2.5534  1.5919 -0.0445
  509SOL    HW2 1527   0.567   1.783   2.535 -0.9600  1.2111  0.9159
  510SOL     OW 1528   0.198   1.074   1.057 -0.5745  0.4114  0.6677
  510SOL    HW1 1529   0.267   1.018   1.106 -1.2975 -1.6464  2.3979
  510SOL    HW2 1530   0.145   1.126   1.121  0.2196 -2.3740 -0.8235
  511SOL     OW 1531   1.438   1.198   1.692  0.7007 -0.1015  0.3682
  511SOL    HW1 1532   1.355   1.149   1.723  1.1314  1.1534  2.8182
  511SOL    HW2 1533   1.416   1.292   1.660  2.1397 -2.3736  1.7892
  512SOL     OW 1534   0.516   1.985   0.772 -0.1871  0.5072 -0.0285
  512SOL    HW1 1535   0.532   1.927   0.692 -1.0049 -0.3701  0.6428
  512SOL    HW2 1536   0.584   2.061   0.771  1.2687 -2.2029 -1.0474
  513SOL     OW 1537   0.217   2.573   0.879  0.1811  0.0400  0.2700
  513SOL    HW1 1538   0.295   2.630   0.852 -0.4928  0.2848 -2.7211
  513SOL    HW2 1539   0.247   2.482   0.910 -3.7189  0.3179 -2.0879
  514SOL     OW 1540   0.701   1.982   0.308 -0.2314 -0.2828  0.1204
  514SOL    HW1 1541   0.779   1.919   0.308  0.0010 -1.7169 -2.2434
  514SOL    HW2 1542   0.642   1.969   0.224 -0.2994 -1.2174 -0.1646
  515SOL     OW 1543   0.266   0.196   2.747  0.2553  0.2248 -0.3049
  515SOL    HW1 1544   0.269   0.101   2.786 -1.7710 -0.9092  2.3621
  515SOL    HW2 1545   0.238   0.262   2.824  0.8898  0.0413  0.2535
  516SOL     OW 1546   2.053   0.012   1.311 -0.3694  0.2611 -0.3598
  516SOL    HW1 1547   2.032   0.033   1.406  1.8139 -0.1219 -2.7294
  516SOL    HW2 1548   2.119   0.081   1.270 -0.2178  1.1687 -0.6098
  517SOL     OW 1549   1.841   1.512   0.723  0.3167 -0.3250  0.3801
  517SOL    HW1 1550   1.830   1.583   0.648 -1.4066  2.6912 -2.4537
  517SOL    HW2 1551   1.925   1.538   0.778 -1.7054 -1.4070 -0.1740
  518SOL     OW 1552   1.754   2.684   0.883  0.2849 -0.5114  0.1255
  518SOL    HW1 1553   1.809   2.602   0.857  2.2241  0.9260  1.8059
  518SOL    HW2 1554   1.691   2.719   0.812  0.1928 -0.4309 -1.3296
  519SOL     OW 1555   2.998   2.441   3.046  0.1536 -0.2690 -0.0070
  519SOL    HW1 1556   2.979   2.378   2.970 -0.9469  0.4328  0.2469
  519SOL    HW2 1557   0.005   2.488   3.034  0.8172  0.7127 -0.6297
  520SOL     OW 1558   2.131   1.853   2.298  0.2015 -0.2297 -0.9031
  520SOL    HW1 1559   2.048   1.889   2.346  1.3520  2.0425 -0.0773
  520SOL    HW2 1560   2.116   1.854   2.195  3.7629 -1.3860  1.4259
  521SOL     OW 1561   1.249   3.058   1.829 -0.3986 -0.4090 -0.1244
  521SOL    HW1 1562   1.286   3.060   1.737  1.3899 -0.5047  1.6691
  521SOL    HW2 1563   1.166   0.027   1.842  0.8889 -3.7335 -2.5726
  522SOL     OW 1564   0.367   2.392   1.897  0.3612 -0.3484 -0.3493
  522SOL    HW1 1565   0.267   2.395   1.915 -0.8088 -0.1839  0.7681
  522SOL    HW2 1566   0.411   2.339   1.970 -0.6325  0.3625 -1.4745
  523SOL     OW 1567   0.879   2.260   1.886  0.3880  0.3813 -0.1238
  523SOL    HW1 1568   0.881   2.358   1.859 -2.6593 -0.4404 -0.1848
  523SOL    HW2 1569   0.912   2.262   1.984  1.5794 -0.7114  1.1903
  524SOL     OW 1570   2.158   2.155   0.264 -0.2326 -0.0736 -0.1656
  524SOL    HW1 1571   2.080   2.211   0.301 -0.4896 -0.0208 -1.6293
  524SOL    HW2 1572   2.232   2.145   0.333 -1.0950 -0.4907 -2.4288
  525SOL     OW 1573   2.736   0.649   2.987  0.3021  0.0718 -0.0613
  525SOL    HW1 1574   2.684   0.623   2.906  0.3551  0.3534  1.2215
  525SOL    HW2 1575   2.782   0.741   2.983 -1.3013  1.0265 -0.7281
  526SOL     OW 1576   0.349   2.778   0.739  0.3112  0.4652 -0.1751
  526SOL    HW1 1577   0.349   2.745   0.643  1.0514 -1.5326  0.7974
  526SOL    HW2 1578   0.286   2.856   0.755  1.5141 -1.1687  0.6213
  527SOL     OW 1579   0.002   1.111   0.833 -0.0364 -0.3658 -0.6631
  527SOL    HW1 1580   0.081   1.109   0.895 -0.0471 -1.1727  3.7718
  527SOL    HW2 1581   3.011   1.049   0.873 -1.5191  0.2089  1.6192
  528SOL     OW 1582   0.705   1.185   2.482  0.4796 -0.4898 -0.2683
  528SOL    HW1 1583   0.656   1.155   2.564 -0.1384  0.4532  0.1641
  528SOL    HW2 1584   0.809   1.168   2.485  2.4307 -3.9361  1.4665
  529SOL     OW 1585   0.938   1.227   0.273  0.3076  0.0635 -0.0121
  529SOL    HW1 1586   0.910   1.127   0.261  0.0044 -2.0436  1.0552
  529SOL    HW2 1587   0.886   1.291   0.216  4.2955 -1.4700 -2.0935
  530SOL     OW 1588   1.086   0.889   1.917  0.5706  0.0719  0.3386
  530SOL    HW1 1589   0.995   0.857   1.879  2.3102  0.8931  1.1393
  530SOL    HW2 1590   1.158   0.822   1.890 -0.0750  1.3180 -1.9024
  531SOL     OW 1591   1.211   2.474   0.129  0.1731  0.3469 -0.5554
  531SOL    HW1 1592   1.240   2.566   0.107 -1.0528  1.6846  2.1619
  531SOL    HW2 1593   1.208   2.456   0.230  0.7670 -0.8990  0.5142
  532SOL     OW 1594   2.466   0.734   2.330 -0.1691  0.0007  0.1703
  532SOL    HW1 1595   2.554   0.779   2.315 -0.2249  0.3198 -2.0506
  532SOL    HW2 1596   2.439   0.753   2.424  2.3185 -0.7029 -2.3081
  533SOL     OW 1597   2.920   0.175   2.060  0.2192 -0.3042  0.1680
  533SOL    HW1 1598   3.019   0.200   2.081 -0.5661 -2.0137 -3.5830
  533SOL    HW2 1599   2.887   0.084   2.100 -1.3552 -1.1938 -2.5438
  534SOL     OW 1600   2.681   3.029   0.144  0.5079 -0.0611  0.2273
  534SOL    HW1 1601   2.752   0.017   0.115  0.4852  2.8745 -1.5014
  534SOL    HW2 1602   2.581   3.057   0.123 -2.9887 -0.7078  1.2056
  535SOL     OW 1603   0.659   0.522   0.160  0.2352  0.1321  0.1001
  535SOL    HW1 1604   0.689   0.585   0.234 -0.5295 -0.5677 -0.9115
  535SOL    HW2 1605   0.571   0.472   0.190 -4.6451 -1.5501 -1.2444
  536SOL     OW 1606   1.211   2.153   1.254  0.3348  0.1198  0.4152
  536SOL    HW1 1607   1.113   2.133   1.232  0.3285  3.3661  1.9767
  536SOL    HW2 1608   1.241   2.236   1.201  3.2463  0.4044  0.8571
  537SOL     OW 1609   2.837   2.349   1.609 -0.1221 -0.0802 -0.5068
  537SOL    HW1 1610   2.862   2.446   1.625 -1.3004 -1.8278 -2.0956
  537SOL    HW2 1611   2.736   2.335   1.617  2.2254  0.0795 -0.3997
  538SOL     OW 1612   0.562   2.173   0.440  0.3755  0.0372 -1.2247
  538SOL    HW1 1613   0.607   2.097   0.387  1.2882 -2.5069 -1.3427
  538SOL    HW2 1614   0.600   2.173   0.534  1.5048 -0.1276  0.5814
  539SOL     OW 1615   1.891   1.217   2.385 -0.1768 -0.4082 -0.2672
  539SOL    HW1 1616   1.793   1.216   2.361  1.9338  1.0112  0.1304
  539SOL    HW2 1617   1.946   1.175   2.312 -3.2082  0.6586 -0.5735
  540SOL     OW 1618   1.874   0.803   2.950 -0.8981 -0.3020  0.2137
  540SOL    HW1 1619   1.842   0.712   2.933 -0.8528  0.7225 -0.3588
  540SOL    HW2 1620   1.915   0.845   2.864  2.5542  1.4883 -1.4387
  541SOL     OW 1621   0.602   0.811   2.491  0.1251 -0.0231  0.0548
  541SOL    HW1 1622   0.522   0.753   2.510  1.3753 -1.6426 -0.7233
  541SOL    HW2 1623   0.678   0.755   2.457  0.4224  1.4179  1.3499
  542SOL     OW 1624   1.310   2.651   1.720  0.0082  0.9005 -0.0100
  542SOL    HW1 1625   1.250   2.574   1.688  0.8096  2.3061 -0.2015
  542SOL    HW2 1626   1.319   2.714   1.647 -0.9399 -2.1987  3.2747
  543SOL     OW 1627   0.640   2.727   0.244  0.4985 -0.2116 -0.2495
  543SOL    HW1 1628   0.605   2.694   0.156  1.3072 -0.6484 -3.1775
  543SOL    HW2 1629   0.595   2.684   0.324  1.4364  1.8651 -0.8402
  544SOL     OW 1630   2.937   1.950   2.251 -0.3518 -0.0929  0.2016
  544SOL    HW1 1631   2.883   2.014   2.188 -0.5485  0.5286 -2.6377
  544SOL    HW2 1632   3.029   1.987   2.274  1.2951 -3.4127 -1.6455
  545SOL     OW 1633   1.365   1.856   1.691 -0.3158  0.4027  0.1757
  545SOL    HW1 1634   1.333   1.905   1.605 -0.1961 -0.1084 -2.6738
  545SOL    HW2 1635   1.300   1.781   1.711  1.0965  2.5405  0.9529
  546SOL     OW 1636   2.986   0.420   2.733 -0.1393  0.0070 -0.2524
  546SOL    HW1 1637   2.938   0.328   2.744 -0.2743 -0.0826  0.2475
  546SOL    HW2 1638   3.071   0.412   2.678  1.9831  0.3367  1.0850
  547SOL     OW 1639   1.441   3.021   1.024 -0.1838 -0.6483  0.3853
  547SOL    HW1 1640   1.400   3.044   1.121 -1.2980  1.6677 -0.3300
  547SOL    HW2 1641   1.528   2.966   1.042  0.1610 -3.2109  0.0737
  548SOL     OW 1642   1.344   1.931   3.071 -0.0370  0.2297 -0.1879
  548SOL    HW1 1643   1.424   1.920   0.049 -0.6703 -1.5421 -0.6193
  548SOL    HW2 1644   1.294   2.017   0.010 -0.8511 -0.2322 -0.9344
  549SOL     OW 1645   2.098   0.512   3.004 -0.2414  0.2511 -0.2481
  549SOL    HW1 1646   2.188   0.468   3.021  0.1496  0.2138 -0.9296
  549SOL    HW2 1647   2.108   0.613   2.981 -1.9096  0.6733 -0.3621
  550SOL     OW 1648   2.801   1.978   0.858  0.2406  0.3362  0.0172
  550SOL    HW1 1649   2.761   2.057   0.805 -0.5414  0.7283  0.4487
  550SOL    HW2 1650   2.829   1.895   0.807 -0.3805  1.5627  3.1677
  551SOL     OW 1651   1.078   0.065   1.070 -0.2362 -0.1209  0.9790
  551SOL    HW1 1652   0.999   0.125   1.091  2.1994  1.4850 -0.1185
  551SOL    HW2 1653   1.100   0.061   0.971 -0.3761 -1.2035  1.6068
  552SOL     OW 1654   0.033   1.640   2.834 -0.2254 -0.2257 -0.0522
  552SOL    HW1 1655   0.114   1.591   2.806  2.2904 -1.0228  2.1931
  552SOL    HW2 1656   0.003   1.602   2.929  2.8406  1.9346  1.5638
  553SOL     OW 1657   2.522   2.561   0.394  0.3232 -0.1071 -0.4573
  553SOL    HW1 1658   2.599   2.581   0.333 -1.1143 -0.4634 -0.4254
  553SOL    HW2 1659   2.467   2.643   0.426 -0.4898  0.1858  0.2240
  554SOL     OW 1660   2.089   1.119   1.439  0.0349 -0.3826  0.3288
  554SOL    HW1 1661   2.010   1.141   1.374 -0.1569 -1.1149  0.9189
  554SOL    HW2 1662   2.055   1.082   1.525 -1.2189  1.2716 -0.4184
  555SOL     OW 1663   0.751   2.448   2.296  0.7807 -0.0070  0.2127
  555SOL    HW1 1664   0.659   2.466   2.343 -2.6060 -0.7975  0.5409
  555SOL    HW2 1665   0.831   2.463   2.361  1.0036  1.4401 -0.6099
  556SOL     OW 1666   1.194   1.392   1.896  0.0570  0.1097 -0.1567
  556SOL    HW1 1667   1.260   1.340   1.953 -1.5153 -1.4944 -0.2741
  556SOL    HW2 1668   1.231   1.477   1.851 -0.0613  3.3234 -2.4500
  557SOL     OW 1669   1.320   3.016   1.262 -0.1831 -0.6080  0.5265
  557SOL    HW1 1670   1.350   0.018   1.315  0.6200  2.3222  0.6086
  557SOL    HW2 1671   1.220   3.018   1.259  2.5014 -1.3214 -0.3809
  558SOL     OW 1672   0.350   0.555   2.289 -0.5955  0.2554 -0.3104
  558SOL    HW1 1673   0.427   0.494   2.272 -3.0737  3.9882  2.1481
  558SOL    HW2 1674   0.265   0.504   2.301  1.4870  2.4277 -1.3929
  559SOL     OW 1675   1.101   2.751   0.283  0.5122 -0.2097  0.5581
  559SOL    HW1 1676   1.066   2.845   0.301  2.3895 -1.6352  0.1970
  559SOL    HW2 1677   1.180   2.732   0.343 -2.9372 -0.3934 -0.8234
  560SOL     OW 1678   1.512   1.959   0.180  0.2649 -0.0894  0.7131
  560SOL    HW1 1679   1.549   1.884   0.234  2.6190 -2.1802 -1.1378
  560SOL    HW2 1680   1.560   2.045   0.200 -0.7302 -1.5522 -1.4830
  561SOL     OW 1681   1.241   2.884   0.551  0.0101 -0.8154  0.0323
  561SOL    HW1 1682   1.227   2.973   0.504 -1.8324 -1.3752  0.6180
  561SOL    HW2 1683   1.251   2.897   0.655 -0.9006 -0.1524  1.7225
  562SOL     OW 1684   0.306   0.819   2.198 -0.4972 -0.4855 -0.2476
  562SOL    HW1 1685   0.382   0.886   2.225  2.9183  1.7978  0.2689
  562SOL    HW2 1686   0.331   0.729   2.248 -0.8492  2.2518  1.2117
  563SOL     OW 1687   1.196   2.172   2.476  0.3381 -0.8198 -0.4474
  563SOL    HW1 1688   1.265   2.200   2.405 -1.3916 -1.7749 -1.4567
  563SOL    HW2 1689   1.235   2.117   2.557 -0.1241 -1.4295  3.0112
  564SOL     OW 1690   2.508   0.756   1.259  0.0400  0.0027  0.4189
  564SOL    HW1 1691   2.440   0.799   1.195  1.6842 -1.5593  0.2542
  564SOL    HW2 1692   2.510   0.791   1.356  0.8243 -2.0402 -1.3790
  565SOL     OW 1693   1.378   1.054   0.296  0.1036  0.0911  0.0969
  565SOL    HW1 1694   1.345   1.056   0.196 -1.2836 -0.0234 -1.4959
  565SOL    HW2 1695   1.422   1.139   0.325 -3.4711 -4.2696  1.4117
  566SOL     OW 1696   2.310   2.458   2.985  0.1778 -0.4486  0.5928
  566SOL    HW1 1697   2.410   2.494   2.985 -3.0348  1.1374 -2.0045
  566SOL    HW2 1698   2.264   2.518   3.053 -2.5936  2.3835 -0.1484
  567SOL     OW 1699   1.680   0.984   0.937 -0.0372  0.2020  0.2715
  567SOL    HW1 1700   1.769   1.032   0.945 -1.1771  1.2697 -0.4124
  567SOL    HW2 1701   1.673   0.921   1.017  1.6353  0.5279  0.8127
  568SOL     OW 1702   1.220   1.641   2.400  0.5829 -0.1758 -0.3608
  568SOL    HW1 1703   1.141   1.635   2.469 -3.0766 -0.3482  0.2243
  568SOL    HW2 1704   1.267   1.735   2.401 -0.6746 -0.6738  2.8438
  569SOL     OW 1705   2.093   1.593   0.851 -0.4959  0.1149  0.0621
  569SOL    HW1 1706   2.130   1.614   0.757 -0.6919  0.6091  1.7932
  569SOL    HW2 1707   2.146   1.535   0.918  3.1129 -0.1279 -0.0312
  570SOL     OW 1708   2.687   2.300   2.167 -0.0076  0.6571 -0.7963
  570SOL    HW1 1709   2.703   2.399   2.184 -0.6575 -1.4478  1.3728
  570SOL    HW2 1710   2.683   2.241   2.256  0.6968  2.0745  0.7468
  571SOL     OW 1711   2.752   1.797   1.695 -0.2518 -0.1122 -0.2911
  571SOL    HW1 1712   2.743   1.808   1.799 -0.0521 -1.4889  3.0765
  571SOL    HW2 1713   2.692   1.861   1.644  0.9415 -1.3228 -2.9367
  572SOL     OW 1714   1.392   2.318   2.828  0.6401  0.2149 -0.0212
  572SOL    HW1 1715   1.370   2.417   2.832  2.1993 -2.5371 -2.3658
  572SOL    HW2 1716   1.390   2.279   2.734 -2.1430 -0.3475  0.2202
  573SOL     OW 1717   1.603   2.093   1.099 -0.2914  0.4249 -0.3101
  573SOL    HW1 1718   1.531   2.030   1.086  2.4982  2.4098 -2.2255
  573SOL    HW2 1719   1.688   2.042   1.123  2.5178 -0.9298 -0.4521
  574SOL     OW 1720   1.094   2.733   1.312 -0.2464  0.6199 -0.0944
  574SOL    HW1 1721   1.014   2.686   1.355  3.4951  1.9021  1.2103
  574SOL    HW2 1722   1.073   2.830   1.284 -0.2456 -1.4292  2.6707
  575SOL     OW 1723   0.959   0.382   0.898 -0.0714  0.2705  0.1835
  575SOL    HW1 1724   1.055   0.411   0.895 -1.0167 -0.6095 -0.0520
  575SOL    HW2 1725   0.941   0.329   0.986 -0.6818 -1.2430  1.2066
  576SOL     OW 1726   2.384   0.296   1.360 -0.2470 -0.2961 -0.7456
  576SOL    HW1 1727   2.449   0.357   1.316 -1.2195 -0.7743 -1.5458
  576SOL    HW2 1728   2.398   0.293   1.464  0.0878  0.9312  0.8474
  577SOL     OW 1729   2.287   0.244   2.844  0.1151  0.6189 -0.2745
  577SOL    HW1 1730   2.340   0.302   2.908  0.4451  2.5394  0.6973
  577SOL    HW2 1731   2.226   0.308   2.789  0.3922 -0.3369  0.2147
  578SOL     OW 1732   1.986   1.841   2.054  0.0669 -0.4603 -0.1470
  578SOL    HW1 1733   1.977   1.741   2.064 -0.8807  1.6767 -1.4135
  578SOL    HW2 1734   1.981   1.868   1.956  0.9185 -1.1028  0.4461
  579SOL     OW 1735   0.672   1.835   1.068 -0.0195 -0.4086  0.7376
  579SOL    HW1 1736   0.585   1.889   1.062  0.4345 -2.0896  0.8848
  579SOL    HW2 1737   0.669   1.759   1.002 -1.1730 -0.0862  2.2910
  580SOL     OW 1738   1.496   3.075   2.865 -0.0108 -0.0725  0.5316
  580SOL    HW1 1739   1.411   3.033   2.901 -0.1298 -1.3018 -1.5008
  580SOL    HW2 1740   1.526   3.027   2.776  0.8227  0.3998 -2.5396
  581SOL     OW 1741   0.811   0.608   2.054  0.0618 -0.9215 -0.1377
  581SOL    HW1 1742   0.901   0.609   1.996  3.5105  0.2336 -1.7032
  581SOL    HW2 1743   0.826   0.676   2.125  0.8205  1.4398 -2.2009
  582SOL     OW 1744   0.250   0.782   0.688  0.1799 -0.1337 -0.4528
  582SOL    HW1 1745   0.291   0.830   0.769 -0.9660 -0.3385  1.4311
  582SOL    HW2 1746   0.322   0.773   0.617 -2.4129 -0.8658 -1.3373
  583SOL     OW 1747   0.897   1.884   1.994  0.2143  0.3993 -0.5300
  583SOL    HW1 1748   0.813   1.903   2.043  1.3252  0.1565 -1.2686
  583SOL    HW2 1749   0.974   1.886   2.067  3.2917 -1.0920  2.3451
  584SOL     OW 1750   2.325   2.746   0.415 -0.3079 -0.7476  0.4044
  584SOL    HW1 1751   2.258   2.674   0.418  2.6628 -0.5445 -1.3808
  584SOL    HW2 1752   2.285   2.832   0.371 -0.7200 -1.8909 -1.3129
  585SOL     OW 1753   2.193   0.641   2.623 -0.0098  0.1916  0.2564
  585SOL    HW1 1754   2.159   0.677   2.710  0.0585  2.0298  0.0132
  585SOL    HW2 1755   2.119   0.646   2.554 -3.1996 -1.6290 -0.8008
  586SOL     OW 1756   0.487   1.487   0.418 -0.0019 -0.0039  0.3708
  586SOL    HW1 1757   0.578   1.510   0.462  4.5306  3.2490  1.6114
  586SOL    HW2 1758   0.404   1.525   0.469  0.0097 -2.1354 -0.9041
  587SOL     OW 1759   1.556   1.755   1.010  0.4729 -0.0380  0.5421
  587SOL    HW1 1760   1.615   1.822   1.049 -2.6416 -1.9888  0.6919
  587SOL    HW2 1761   1.462   1.764   1.053 -0.4422 -0.9189  0.7096
  588SOL     OW 1762   0.469   0.574   1.065 -0.5978  0.1688 -0.3024
  588SOL    HW1 1763   0.563   0.585   1.101 -0.8028  1.1562  0.1046
  588SOL    HW2 1764   0.483   0.520   0.978  0.1100  0.7067  0.8923
  589SOL     OW 1765   1.684   2.896   1.073 -0.2442  0.2859 -0.4262
  589SOL    HW1 1766   1.706   2.833   0.995  0.3622  0.5808  0.0449
  589SOL    HW2 1767   1.740   2.877   1.155  1.9417  1.2169 -3.3048
  590SOL     OW 1768   1.702   0.879   0.289 -0.8691 -0.3657 -0.1552
  590SOL    HW1 1769   1.745   0.864   0.194  3.3070  0.0849 -0.7632
  590SOL    HW2 1770   1.613   0.927   0.278  0.0919 -2.2254  2.2744
  591SOL     OW 1771   2.197   2.283   2.173 -0.3429 -0.0741 -0.2523
  591SOL    HW1 1772   2.190   2.237   2.262 -0.1987 -0.5899 -3.9835
  591SOL    HW2 1773   2.287   2.260   2.132 -0.9012  2.1995  1.5326
  592SOL     OW 1774   1.361   1.910   1.158  0.3927  0.3327 -0.0209
  592SOL    HW1 1775   1.407   1.859   1.232 -2.8641  1.4783 -1.7695
  592SOL    HW2 1776   1.295   1.978   1.196 -0.2646 -0.1875 -0.4833
  593SOL     OW 1777   0.718   0.062   0.881  0.4603 -0.4020  0.1497
  593SOL    HW1 1778   0.796   0.002   0.852 -1.8578 -0.3156  2.1351
  593SOL    HW2 1779   0.706   0.140   0.821 -1.1944 -1.3999  2.2922
  594SOL     OW 1780   2.912   0.827   1.900 -0.5229  0.2685 -0.5946
  594SOL    HW1 1781   2.932   0.925   1.883  0.1445 -1.2381 -0.0490
  594SOL    HW2 1782   2.997   0.778   1.923  0.6129  1.4881  1.6639
  595SOL     OW 1783   0.132   3.001   0.662 -0.1020  0.0186 -0.0733
  595SOL    HW1 1784   0.043   2.954   0.674  0.4697  1.9497  0.4884
  595SOL    HW2 1785   0.159   3.051   0.749 -1.2346 -1.2394  0.0005
  596SOL     OW 1786   0.011   0.333   1.414  0.7225 -0.0536 -0.3710
  596SOL    HW1 1787   0.030   0.407   1.479 -1.0473  0.4422 -0.8491
  596SOL    HW2 1788   3.033   0.363   1.336  2.8083 -2.2558  0.2289
  597SOL     OW 1789   2.237   0.965   0.395  0.0189  0.0762 -0.0754
  597SOL    HW1 1790   2.252   0.931   0.295 -0.6353  0.6158 -2.8286
  597SOL    HW2 1791   2.300   1.049   0.413 -1.5127  0.3595  1.1810
  598SOL     OW 1792   0.618   3.021   2.008 -0.2882  0.1297  0.3416
  598SOL    HW1 1793   0.528   3.036   1.968  1.8467  2.5103  0.3385
  598SOL    HW2 1794   0.613   2.967   2.092  0.3163  2.7286 -3.0331
  599SOL     OW 1795   2.515   1.776   0.213 -0.3924  0.6269  0.3773
  599SOL    HW1 1796   2.486   1.858   0.255  3.2477 -1.4563 -3.8979
  599SOL    HW2 1797   2.616   1.764   0.182  0.9109  0.2353 -0.2350
  600SOL     OW 1798   1.018   1.055   3.081  0.1060 -0.0450 -0.0516
  600SOL    HW1 1799   0.942   1.098   3.020 -1.9545  0.1184 -2.7972
  600SOL    HW2 1800   0.977   1.029   0.090  2.0691 -0.5738  2.7404
  601SOL     OW 1801   1.285   1.129   0.051  0.5381 -0.0038  0.4904
  601SOL    HW1 1802   1.296   1.228   0.038  1.8092 -3.0817 -2.2504
  601SOL    HW2 1803   1.189   1.100   0.047  0.9301  0.7413  1.6441
  602SOL     OW 1804   0.854   3.077   1.471 -0.1960 -0.4003  0.0817
  602SOL    HW1 1805   0.881   3.037   1.561  0.6536 -0.3536  0.2073
  602SOL    HW2 1806   0.827   0.094   1.481  0.0547  0.1350  0.2757
  603SOL     OW 1807   0.836   2.937   2.421 -0.2508  0.3991  0.0047
  603SOL    HW1 1808   0.753   2.992   2.457 -3.2685  0.6006  2.3230
  603SOL    HW2 1809   0.917   2.997   2.414  0.0970 -2.9530  0.3733
  604SOL     OW 1810   2.826   3.031   2.191 -0.2163  0.2649 -0.6658
  604SOL    HW1 1811   2.761   3.038   2.267  0.4778 -0.2365 -0.8018
  604SOL    HW2 1812   2.785   2.998   2.104  0.2858  0.3915 -2.0332
  605SOL     OW 1813   2.685   2.767   1.384 -0.3800 -0.5107  0.0850
  605SOL    HW1 1814   2.624   2.715   1.443  1.8244  1.9051 -2.5368
  605SOL    HW2 1815   2.647   2.859   1.364  3.3410  3.2942  1.5729
  606SOL     OW 1816   3.069   1.880   2.688  0.1155 -0.1689  0.3013
  606SOL    HW1 1817   2.995   1.941   2.722  0.7273 -1.3568 -0.2271
  606SOL    HW2 1818   0.019   1.819   2.760 -1.0253  0.5455 -1.8109
  607SOL     OW 1819   0.862   0.075   0.584  0.1983  0.7859  0.0107
  607SOL    HW1 1820   0.881   0.019   0.669  1.1368 -3.2972 -0.8034
  607SOL    HW2 1821   0.877   0.170   0.603  1.1520  1.0034 -1.3242
  608SOL     OW 1822   1.640   1.840   2.214 -0.0104  0.2041  0.1348
  608SOL    HW1 1823   1.560   1.811   2.160 -1.6608 -0.4031 -0.2835
  608SOL    HW2 1824   1.721   1.780   2.202  0.8292 -0.7599  1.8233
  609SOL     OW 1825   2.860   0.418   0.977  0.1079 -0.5176  0.5527
  609SOL    HW1 1826   2.943   0.383   0.940 -1.6331 -0.5013  2.2023
  609SOL    HW2 1827   2.862   0.415   1.075  0.7340  0.0344 -2.5370
  610SOL     OW 1828   0.708   2.380   3.074 -0.1973 -0.1806  0.3861
  610SOL    HW1 1829   0.797   2.416   3.031  0.2185  0.1822 -1.6152
  610SOL    HW2 1830   0.718   2.307   0.061  0.3002  0.6479 -1.8737
  611SOL     OW 1831   1.785   1.150   0.514 -0.4838  0.5584 -0.3276
  611SOL    HW1 1832   1.848   1.084   0.463 -0.5284  0.9772  1.6067
  611SOL    HW2 1833   1.712   1.103   0.566  0.1019  0.1907  0.7378
  612SOL     OW 1834   0.956   2.541   2.486 -0.3261  0.2494 -0.2691
  612SOL    HW1 1835   0.900   2.597   2.552 -1.7191 -1.0411  0.0754
  612SOL    HW2 1836   0.983   2.592   2.404 -0.3971 -0.5409  2.4804
  613SOL     OW 1837   1.242   1.590   0.563 -0.8431  0.2609 -1.2325
  613SOL    HW1 1838   1.292   1.592   0.656  2.3399  0.1586  1.2064
  613SOL    HW2 1839   1.224   1.680   0.523  1.8501 -4.1011  3.0669
  614SOL     OW 1840   2.569   2.294   1.594  0.3909  0.0229  0.4755
  614SOL    HW1 1841   2.503   2.286   1.515 -4.8751 -1.5128 -3.0695
  614SOL    HW2 1842   2.520   2.318   1.684  0.8106 -0.1331  2.9692
  615SOL     OW 1843   2.528   1.209   0.092  0.5952 -0.3791 -0.6194
  615SOL    HW1 1844   2.552   1.306   0.076 -0.9982  0.6154 -0.0650
  615SOL    HW2 1845   2.425   1.204   0.095 -0.8399 -0.3199  1.8094
  616SOL     OW 1846   1.567   0.094   0.782  0.4596 -0.1122  0.7247
  616SOL    HW1 1847   1.554   0.018   0.845 -0.8344 -0.6576 -1.3117
  616SOL    HW2 1848   1.643   0.158   0.806 -3.5934  1.5323 -2.0941
  617SOL     OW 1849   0.529   1.336   2.808 -0.0878  0.1350 -0.1906
  617SOL    HW1 1850   0.598   1.395   2.762 -0.7610  0.0149  0.9936
  617SOL    HW2 1851   0.461   1.290   2.748 -1.1390  1.9345 -2.2379
  618SOL     OW 1852   0.269   0.639   1.655  0.3134 -0.1579 -0.1948
  618SOL    HW1 1853   0.294   0.692   1.572 -3.3009 -0.2971  1.0278
  618SOL    HW2 1854   0.286   0.692   1.742  2.6506 -1.2128 -2.2149
  619SOL     OW 1855   2.690   0.836   1.723 -0.1543  0.6405  0.5232
  619SOL    HW1 1856   2.740   0.821   1.636 -1.2210 -2.2646  0.8250
  619SOL    HW2 1857   2.753   0.795   1.794  0.2711 -3.7622 -0.7404
  620SOL     OW 1858   1.995   1.215   3.039  0.0974  0.3653  0.1088
  620SOL    HW1 1859   1.919   1.149   3.027  1.1258  0.3323  0.5939
  620SOL    HW2 1860   1.987   1.269   0.040  0.7940 -1.6084 -2.2820
  621SOL     OW 1861   2.298   2.966   1.095 -0.1792 -0.3011  0.4456
  621SOL    HW1 1862   2.282   3.065   1.122  2.1417  2.4954  1.2430
  621SOL    HW2 1863   2.314   2.903   1.174  2.3584 -0.1059 -0.5421
  622SOL     OW 1864   1.448   0.748   2.152 -0.8413  0.0656 -0.0390
  622SOL    HW1 1865   1.415   0.704   2.069  0.6368  0.4639  0.8701
  622SOL    HW2 1866   1.374   0.784   2.211  1.8422 -0.2412 -0.6153
  623SOL     OW 1867   1.056   0.845   2.723  0.3574 -0.0308 -0.6684
  623SOL    HW1 1868   0.965   0.874   2.756  0.2906 -0.5757  1.0955
  623SOL    HW2 1869   1.106   0.925   2.684  1.4475 -2.8659  1.6921
  624SOL     OW 1870   2.012   0.230   0.713 -0.4141  0.3531  0.5839
  624SOL    HW1 1871   1.972   0.167   0.642  0.5554  0.9927  0.2378
  624SOL    HW2 1872   2.032   0.321   0.678  0.1631  2.2432  1.0528
  625SOL     OW 1873   0.723   1.578   0.524 -0.0032 -0.5824  0.1524
  625SOL    HW1 1874   0.790   1.504   0.509  0.5926 -1.0644  1.1320
  625SOL    HW2 1875   0.735   1.613   0.618  0.9633 -0.6626 -0.7003
  626SOL     OW 1876   1.657   1.143   2.218 -0.3325 -0.3914  0.3518
  626SOL    HW1 1877   1.720   1.142   2.138  3.3896 -1.7981  1.5188
  626SOL    HW2 1878   1.565   1.182   2.207 -2.4284 -1.5788 -0.1277
  627SOL     OW 1879   0.600   0.326   1.766  0.1737 -0.5296 -0.2502
  627SOL    HW1 1880   0.624   0.272   1.850 -0.9522  0.4006  0.1742
  627SOL    HW2 1881   0.497   0.323   1.755 -0.6587 -0.8177  0.0852
  628SOL     OW 1882   1.977   0.629   2.444 -0.6306 -0.4394  0.1586
  628SOL    HW1 1883   2.013   0.554   2.385 -2.5771 -0.7799  0.0872
  628SOL    HW2 1884   1.979   0.719   2.393 -0.5837 -0.1965 -0.1651
  629SOL     OW 1885   0.798   1.429   0.151  0.9714 -0.5386  0.4344
  629SOL    HW1 1886   0.806   1.517   0.201 -1.2328  0.9423 -0.3781
  629SOL    HW2 1887   0.821   1.439   0.054  0.1869  1.2483  1.2010
  630SOL     OW 1888   0.882   0.329   2.151  0.0058  0.6009 -0.3884
  630SOL    HW1 1889   0.826   0.407   2.129  2.8931 -3.6457 -2.3136
  630SOL    HW2 1890   0.832   0.252   2.203 -1.0632 -2.4152 -1.7111
  631SOL     OW 1891   2.664   1.100   0.950 -0.0468 -0.3321 -0.3251
  631SOL    HW1 1892   2.678   1.133   1.047  1.8314 -0.4660 -2.5350
  631SOL    HW2 1893   2.571   1.096   0.919  1.0852  0.4747  0.9790
  632SOL     OW 1894   2.429   1.465   0.771 -0.2140  0.5656  0.2315
  632SOL    HW1 1895   2.532   1.478   0.765  1.9618 -0.4348  2.2580
  632SOL    HW2 1896   2.397   1.479   0.674  0.8393 -0.2004  3.1668
  633SOL     OW 1897   0.759   1.378   0.943 -0.0712  0.0421  0.6380
  633SOL    HW1 1898   0.725   1.333   1.027  0.1044  0.8730 -2.7093
  633SOL    HW2 1899   0.791   1.314   0.868  0.1523 -1.0130 -3.1668
  634SOL     OW 1900   1.577   3.002   0.565  0.7344 -0.1742  0.6281
  634SOL    HW1 1901   1.516   3.017   0.478 -0.5245  0.1305 -2.4876
  634SOL    HW2 1902   1.586   3.079   0.624 -0.7117 -2.0539 -1.4157
  635SOL     OW 1903   1.867   0.726   1.409  0.0204  0.2684  0.0450
  635SOL    HW1 1904   1.964   0.718   1.403  3.5923 -0.6035  0.1156
  635SOL    HW2 1905   1.839   0.789   1.483 -2.1484 -2.9217 -1.0411
  636SOL     OW 1906   1.272   0.655   0.756 -0.2537 -0.1284  0.5067
  636SOL    HW1 1907   1.353   0.695   0.801  0.9234 -3.9703 -1.8869
  636SOL    HW2 1908   1.219   0.595   0.817  0.4143 -0.6769 -0.9230
  637SOL     OW 1909   1.618   2.247   2.956  0.2847 -0.4662  0.4873
  637SOL    HW1 1910   1.522   2.268   2.926 -2.2478  0.8253  0.7595
  637SOL    HW2 1911   1.658   2.170   2.910 -2.3033  1.2003  3.0411
  638SOL     OW 1912   1.070   3.015   2.796  0.0262  0.0422 -0.2609
  638SOL    HW1 1913   1.097   3.027   2.891  2.8017  1.3868 -1.6874
  638SOL    HW2 1914   0.972   3.043   2.773 -1.5501 -0.3952 -3.2268
  639SOL     OW 1915   1.294   1.979   1.454  0.1590 -0.5896 -0.0193
  639SOL    HW1 1916   1.237   1.900   1.430  0.6583  0.2682 -2.2154
  639SOL    HW2 1917   1.276   2.062   1.395  0.9895  1.3921 -0.0393
  640SOL     OW 1918   0.568   0.007   2.845 -0.0284  0.1441 -0.3974
  640SOL    HW1 1919   0.573   0.068   2.924  0.4869 -3.7669 -2.5651
  640SOL    HW2 1920   0.468   0.001   2.830  1.7925  0.9323  0.2652
  641SOL     OW 1921   0.270   0.650   0.350  0.1158  0.5590  0.1443
  641SOL    HW1 1922   0.190   0.584   0.366  0.0199 -1.1530  0.0623
  641SOL    HW2 1923   0.347   0.631   0.418 -1.0881  1.2519  0.5401
  642SOL     OW 1924   0.438   1.621   1.227 -0.0254  0.0799 -0.0279
  642SOL    HW1 1925   0.533   1.654   1.248 -1.1369  3.3854  0.1598
  642SOL    HW2 1926   0.437   1.532   1.179 -1.8623 -2.6865 -1.7695
  643SOL     OW 1927   0.442   1.823   2.423 -0.2979 -0.3478  0.2105
  643SOL    HW1 1928   0.434   1.841   2.323  0.2518 -1.6021  0.6051
  643SOL    HW2 1929   0.357   1.779   2.456  0.8870  1.5842  0.8383
  644SOL     OW 1930   1.663   2.485   0.144  0.1830  0.3324  0.3264
  644SOL    HW1 1931   1.749   2.440   0.119  0.1759  1.4529  2.1937
  644SOL    HW2 1932   1.608   2.527   0.064 -0.0975 -1.0021 -4.4482
  645SOL     OW 1933   1.775   2.087   1.766 -0.8683 -0.0644  0.0056
  645SOL    HW1 1934   1.680   2.084   1.806 -1.4629  0.6238  0.7334
  645SOL    HW2 1935   1.824   2.177   1.791 -0.1531  0.1275 -0.4404
  646SOL     OW 1936   0.880   2.570   0.289  0.3671  0.4377  0.1256
  646SOL    HW1 1937   0.963   2.627   0.296 -3.0481 -1.4435 -0.5147
  646SOL    HW2 1938   0.798   2.617   0.252  0.7224 -0.2537 -0.6126
  647SOL     OW 1939   0.313   2.820   2.086  0.3741 -0.0537 -0.6961
  647SOL    HW1 1940   0.341   2.857   2.176  1.1343  0.1314  0.7516
  647SOL    HW2 1941   0.359   2.728   2.071  2.6473 -1.9847 -1.2034
  648SOL     OW 1942   2.879   0.926   0.851  0.1495  0.6987 -0.0467
  648SOL    HW1 1943   2.858   0.828   0.879 -0.1609 -0.3330 -1.2813
  648SOL    HW2 1944   2.808   0.990   0.889 -0.1657 -0.1031 -1.0070
  649SOL     OW 1945   1.918   2.782   2.645  0.3232  0.0412 -0.2197
  649SOL    HW1 1946   1.924   2.702   2.581 -3.8433  1.2348 -3.0826
  649SOL    HW2 1947   1.912   2.868   2.588 -0.2143 -1.4277  0.2689
  650SOL     OW 1948   2.304   1.537   1.883  0.5143 -0.1060  0.5092
  650SOL    HW1 1949   2.242   1.470   1.836 -2.0842 -1.8439 -2.7561
  650SOL    HW2 1950   2.401   1.502   1.881  1.6375  0.3038 -0.6899
  651SOL     OW 1951   1.213   1.904   2.705  0.2800 -0.2858  0.4202
  651SOL    HW1 1952   1.122   1.941   2.733  0.6799 -0.5512 -1.3144
  651SOL    HW2 1953   1.282   1.929   2.775 -1.9943  0.1963 -1.8777
  652SOL     OW 1954   0.616   0.028   2.474 -0.3556 -0.8082 -0.1590
  652SOL    HW1 1955   0.563   3.027   2.491  2.4093  1.0649  1.5627
  652SOL    HW2 1956   0.569   0.109   2.519 -2.0581  1.7647  2.2328
  653SOL     OW 1957   2.358   1.848   0.990 -0.0534  0.1267  0.2828
  653SOL    HW1 1958   2.378   1.745   0.996  2.1655 -0.9132 -1.3839
  653SOL    HW2 1959   2.318   1.883   1.074  0.5007 -1.3336 -3.1811
  654SOL     OW 1960   2.447   2.955   2.102  0.2541 -0.4690  0.0265
  654SOL    HW1 1961   2.372   2.972   2.164 -2.1751  0.0183 -0.6596
  654SOL    HW2 1962   2.493   3.046   2.073  0.4691  0.2721 -2.7939
  655SOL     OW 1963   2.559   2.212   1.138  0.7819 -0.3169 -0.2417
  655SOL    HW1 1964   2.618   2.294   1.148 -1.4718 -0.8481 -0.1476
  655SOL    HW2 1965   2.464   2.229   1.108 -0.6113 -1.5017 -0.5882
  656SOL     OW 1966   2.535   1.861   2.855 -0.3619  0.0221 -0.5746
  656SOL    HW1 1967   2.524   1.856   2.753 -0.1697 -1.0405  0.2863
  656SOL    HW2 1968   2.475   1.937   2.887 -2.1203 -1.0169  0.3092
  657SOL     OW 1969   0.111   1.186   0.580  0.5576 -0.1307 -0.0990
  657SOL    HW1 1970   0.047   1.159   0.506 -0.4010 -1.8370  2.8980
  657SOL    HW2 1971   0.076   1.157   0.672 -0.9165  3.5376 -0.1376
  658SOL     OW 1972   1.393   1.428   1.548 -0.1479  0.4387  0.0236
  658SOL    HW1 1973   1.423   1.447   1.455 -1.4502  1.8561 -0.2832
  658SOL    HW2 1974   1.292   1.448   1.550 -0.3468 -0.9355  1.5606
  659SOL     OW 1975   1.045   2.984   1.285  0.3067 -0.4375  0.0448
  659SOL    HW1 1976   1.046   3.037   1.198 -2.8638 -0.6701  0.6547
  659SOL    HW2 1977   0.998   3.039   1.356 -3.0603 -0.2933 -0.0743
  660SOL     OW 1978   2.277   0.712   0.895 -0.6152  0.4154  0.1774
  660SOL    HW1 1979   2.350   0.698   0.829 -1.3715 -0.5091 -0.2629
  660SOL    HW2 1980   2.233   0.623   0.914  0.1145  1.9378 -2.4217
  661SOL     OW 1981   0.526   1.701   0.157  0.7374  0.1313  0.0035
  661SOL    HW1 1982   0.597   1.662   0.217  0.3363 -2.7718 -0.3624
  661SOL    HW2 1983   0.557   1.788   0.116  0.7274  1.6153  0.2289
  662SOL     OW 1984   2.161   0.815   2.114 -0.0306 -1.0894 -0.2085
  662SOL    HW1 1985   2.214   0.729   2.117 -0.6988  0.3570 -0.4703
  662SOL    HW2 1986   2.227   0.892   2.141  0.0078  1.0773  0.7729
  663SOL     OW 1987   1.989   1.266   1.157 -0.2508 -0.0716  0.7114
  663SOL    HW1 1988   1.971   1.215   1.069 -1.6419 -0.5346  1.7544
  663SOL    HW2 1989   2.051   1.344   1.141 -1.3930 -1.2730 -2.1163
  664SOL     OW 1990   0.330   3.067   1.089  0.2728 -0.1113  0.4114
  664SOL    HW1 1991   0.379   3.047   1.002 -1.6397  2.7960  0.0270
  664SOL    HW2 1992   0.364   3.004   1.162  3.7055  0.2641  0.3196
  665SOL     OW 1993   1.487   0.456   2.770  0.2225 -0.4693 -0.1916
  665SOL    HW1 1994   1.444   0.505   2.848 -0.8194 -1.2805  3.0958
  665SOL    HW2 1995   1.485   0.514   2.685 -0.6830  2.0355  0.1402
  666SOL     OW 1996   0.429   0.272   2.250 -0.1622 -0.2213 -0.0739
  666SOL    HW1 1997   0.361   0.222   2.305 -0.8443  0.4889 -0.2630
  666SOL    HW2 1998   0.409   0.265   2.148 -0.1464  1.7146 -2.2581
  667SOL     OW 1999   1.585   1.752   1.567  0.1553  0.4906  0.1146
  667SOL    HW1 2000   1.681   1.742   1.609 -0.1085  2.0644 -1.0060
  667SOL    HW2 2001   1.515   1.783   1.634 -0.3603 -0.0883 -0.5506
  668SOL     OW 2002   0.140   1.418   2.285 -0.4083 -0.0972  0.4641
  668SOL    HW1 2003   0.125   1.318   2.299 -0.7270  2.8477 -1.4200
  668SOL    HW2 2004   0.113   1.443   2.191  0.9620 -0.4015  0.3511
  669SOL     OW 2005   2.562   2.592   2.984 -0.3223  0.0085  0.0827
  669SOL    HW1 2006   2.618   2.552   2.905  2.0663 -0.5478 -2.6560
  669SOL    HW2 2007   2.626   2.633   3.057  1.3808  0.1431  1.3379
  670SOL     OW 2008   2.631   1.252   2.059 -0.4909  0.3781  0.4791
  670SOL    HW1 2009   2.626   1.186   1.985 -0.0974  1.8606  3.0671
  670SOL    HW2 2010   2.631   1.194   2.147 -0.9260 -4.2658  1.7879
  671SOL     OW 2011   2.491   1.765   0.656 -0.2672 -0.3379 -0.3784
  671SOL    HW1 2012   2.555   1.831   0.702 -0.5451  2.0119 -0.6946
  671SOL    HW2 2013   2.403   1.814   0.650 -0.9311  1.6601 -2.1974
  672SOL     OW 2014   1.351   1.179   2.036 -0.0817 -0.0730 -0.2286
  672SOL    HW1 2015   1.396   1.093   2.017 -1.8119  1.5237 -1.3956
  672SOL    HW2 2016   1.253   1.162   2.042  1.4592  0.9881 -0.4094
  673SOL     OW 2017   2.642   2.012   1.583  0.0927 -0.2066  0.3361
  673SOL    HW1 2018   2.615   2.106   1.556  0.2053  0.0717  0.1857
  673SOL    HW2 2019   2.686   1.970   1.503 -0.6614  0.8244  3.3231
  674SOL     OW 2020   1.196   1.653   1.752  0.4841 -0.9042  0.2032
  674SOL    HW1 2021   1.110   1.662   1.803  0.4226 -0.0404 -0.8238
  674SOL    HW2 2022   1.177   1.608   1.665  1.7991  1.0023 -1.1475
  675SOL     OW 2023   0.027   0.730   1.261 -0.4190  0.2291 -0.1041
  675SOL    HW1 2024   0.085   0.706   1.181 -2.0150  3.1189  1.5291
  675SOL    HW2 2025   3.050   0.652   1.288 -2.5619  0.2637  0.0409
  676SOL     OW 2026   2.811   0.842   1.453  0.1616 -0.5522 -0.1686
  676SOL    HW1 2027   2.822   0.754   1.498  1.0443  0.3672  0.3831
  676SOL    HW2 2028   2.801   0.825   1.354 -0.3081 -1.5374 -0.4276
  677SOL     OW 2029   2.030   1.387   2.530 -0.0923  0.1006  0.5239
  677SOL    HW1 2030   1.977   1.324   2.466  0.5772 -1.6912  2.6623
  677SOL    HW2 2031   2.118   1.415   2.482 -1.3440 -0.3646  3.6992
  678SOL     OW 2032   2.633   1.664   1.158 -0.1461  0.7157 -0.3892
  678SOL    HW1 2033   2.717   1.620   1.120 -0.5570  1.3768 -0.2825
  678SOL    HW2 2034   2.635   1.766   1.129  3.2829  1.1756 -2.2892
  679SOL     OW 2035   0.473   2.592   0.402 -0.0534  0.0761 -0.1338
  679SOL    HW1 2036   0.488   2.570   0.497 -0.1835  3.1351 -1.4977
  679SOL    HW2 2037   0.488   2.508   0.345 -0.5915 -1.1250 -0.5607
  680SOL     OW 2038   0.238   1.736   1.025  0.0268 -0.1524 -0.1871
  680SOL    HW1 2039   0.237   1.830   1.056  1.8217 -4.5303 -0.6701
  680SOL    HW2 2040   0.308   1.677   1.070  1.4431 -3.2651 -0.5269
  681SOL     OW 2041   1.146   0.064   0.817  0.2975  0.3117  0.1598
  681SOL    HW1 2042   1.159   0.139   0.750  1.5234  1.3596 -0.2509
  681SOL    HW2 2043   1.239   0.030   0.848 -2.3007  0.3057 -2.0262
  682SOL     OW 2044   1.976   2.770   1.614 -0.0689 -0.2799  0.2463
  682SOL    HW1 2045   2.003   2.682   1.569 -3.4193  1.6138 -0.8003
  682SOL    HW2 2046   1.882   2.791   1.573 -1.4030 -1.5249 -1.1645
  683SOL     OW 2047   2.381   1.461   1.562 -0.1589  0.4084  0.1290
  683SOL    HW1 2048   2.407   1.531   1.493  2.5794 -2.4517  0.9240
  683SOL    HW2 2049   2.414   1.496   1.651  0.5160  0.5446  0.8973
  684SOL     OW 2050   3.000   1.511   1.723 -0.3458  0.1226  0.0078
  684SOL    HW1 2051   2.901   1.517   1.707 -0.4016  1.5091  0.9590
  684SOL    HW2 2052   3.031   1.586   1.787 -2.1686 -1.7863  0.7704
  685SOL     OW 2053   1.523   1.544   0.279 -0.1568 -0.1507 -0.4256
  685SOL    HW1 2054   1.573   1.634   0.299 -1.8796  0.0201 -2.3144
  685SOL    HW2 2055   1.583   1.482   0.229 -2.0166  0.6970  3.4045
  686SOL     OW 2056   2.845   0.606   1.566  0.5490 -0.1618  0.3371
  686SOL    HW1 2057   2.942   0.574   1.557 -1.2770 -3.4591 -0.1990
  686SOL    HW2 2058   2.783   0.532   1.610 -1.0760 -1.4389 -0.6832
  687SOL     OW 2059   1.617   0.213   2.741  0.3918 -0.0455  0.1753
  687SOL    HW1 2060   1.573   0.132   2.789 -1.4012 -0.0741 -3.9756
  687SOL    HW2 2061   1.561   0.298   2.749  0.4388  3.3510 -1.3295
  688SOL     OW 2062   1.297   1.892   2.398  0.9428 -0.4626 -0.1946
  688SOL    HW1 2063   1.314   1.955   2.318  1.1000 -2.9108 -1.3623
  688SOL    HW2 2064   1.298   1.934   2.485  0.7997 -1.9346 -2.1608
  689SOL     OW 2065   2.170   1.355   1.744 -0.0943  0.1730 -0.2575
  689SOL    HW1 2066   2.170   1.268   1.791  0.6036  1.9740 -0.7481
  689SOL    HW2 2067   2.220   1.347   1.655 -0.0668  1.2040  0.1887
  690SOL     OW 2068   2.124   2.270   1.452  0.5723  0.0236 -0.3488
  690SOL    HW1 2069   2.164   2.209   1.523  2.5996  2.3796  0.4543
  690SOL    HW2 2070   2.027   2.245   1.436  1.6706 -1.5740 -0.9652
  691SOL     OW 2071   0.304   1.604   0.565  0.2889  0.5008 -0.2663
  691SOL    HW1 2072   0.279   1.659   0.480 -1.1342  0.9695 -3.6133
  691SOL    HW2 2073   0.299   1.668   0.646 -1.2286  0.8893 -2.1105
  692SOL     OW 2074   2.789   2.774   2.537  0.5168  0.8824  0.1289
  692SOL    HW1 2075   2.702   2.820   2.542  2.1656  2.2678  1.4424
  692SOL    HW2 2076   2.869   2.830   2.499  1.2211  0.2988 -0.3443
  693SOL     OW 2077   0.018   1.433   2.046 -0.2632  0.7054  0.7908
  693SOL    HW1 2078   0.058   1.503   1.984 -0.6229  1.3755 -0.4749
  693SOL    HW2 2079   3.057   1.364   1.985 -0.3439  1.0574  0.2344
  694SOL     OW 2080   2.489   0.362   2.056  0.2796  0.0110  0.0128
  694SOL    HW1 2081   2.577   0.392   2.012 -0.8933  1.5229  2.0258
  694SOL    HW2 2082   2.420   0.439   2.065 -0.0926  0.7587 -0.2775
  695SOL     OW 2083   1.260   0.901   2.344 -0.1880  0.1439 -0.1793
  695SOL    HW1 2084   1.337   0.951   2.397 -0.2642 -0.4579 -0.0586
  695SOL    HW2 2085   1.193   0.974   2.321 -0.0818 -1.3428  0.5536
  696SOL     OW 2086   2.214   2.923   1.621  0.2229  0.0432 -0.0288
  696SOL    HW1 2087   2.230   2.990   1.698  4.1194 -1.1778  1.1846
  696SOL    HW2 2088   2.111   2.917   1.600  1.8144  4.0070  0.2838
  697SOL     OW 2089   1.076   0.254   1.977  0.1284  0.0640 -0.4863
  697SOL    HW1 2090   0.998   0.251   2.040  2.0037 -0.2247  0.2294
  697SOL    HW2 2091   1.050   0.202   1.895 -0.1130  2.9041  0.8709
  698SOL     OW 2092   2.232   1.733   2.522 -0.0370  0.0370  0.2141
  698SOL    HW1 2093   2.216   1.785   2.437  0.7265 -1.7672  1.9722
  698SOL    HW2 2094   2.333   1.735   2.547  0.7289  0.6508 -1.2482
  699SOL     OW 2095   1.989   0.582   0.228  0.1830 -0.2444  0.2819
  699SOL    HW1 2096   1.978   0.662   0.169 -0.5724  0.1576 -1.4360
  699SOL    HW2 2097   1.917   0.573   0.298 -1.7514 -1.3307 -0.0368
  700SOL     OW 2098   1.282   2.874   0.835 -0.5759 -0.5283  0.0042
  700SOL    HW1 2099   1.339   2.918   0.909  1.1769  0.9304  0.9257
  700SOL    HW2 2100   1.235   2.792   0.872  0.3579 -0.1210 -1.4527
  701SOL     OW 2101   2.951   0.517   0.590  0.4345 -0.2413  0.1880
  701SOL    HW1 2102   2.859   0.538   0.553  0.5968  1.4739 -1.9038
  701SOL    HW2 2103   2.992   0.599   0.642  0.9818 -0.7676  1.8620
  702SOL     OW 2104   1.749   2.824   1.472 -0.4072 -0.3722  0.4511
  702SOL    HW1 2105   1.662   2.769   1.466  0.5570  0.3750 -0.1929
  702SOL    HW2 2106   1.728   2.926   1.473 -0.3341  1.7122  2.4322
  703SOL     OW 2107   2.915   0.518   1.292  0.3278 -0.3961  0.0727
  703SOL    HW1 2108   2.863   0.602   1.271  0.1226  0.9141 -0.9301
  703SOL    HW2 2109   2.862   0.465   1.359 -0.2245 -1.3638 -1.5037
  704SOL     OW 2110   0.859   2.590   1.358 -0.3562  0.1253  0.4059
  704SOL    HW1 2111   0.885   2.496   1.334 -0.6920 -0.5377 -1.9872
  704SOL    HW2 2112   0.767   2.609   1.325  3.0441  0.8288  0.2004
  705SOL     OW 2113   0.245   1.904   2.951 -0.7598  0.2459 -0.0451
  705SOL    HW1 2114   0.292   1.823   2.908  2.2066 -0.7052  1.8122
  705SOL    HW2 2115   0.304   1.949   3.018 -1.6292  2.9124  0.2134
  706SOL     OW 2116   0.067   0.090   0.013  0.2805  0.2357  0.0701
  706SOL    HW1 2117   0.079   0.174   3.040  0.3628  1.9614 -2.9217
  706SOL    HW2 2118   0.109   0.098   0.102 -1.3663  1.0712 -3.1972
  707SOL     OW 2119   1.612   2.902   2.126 -0.5297 -0.1691  0.1394
  707SOL    HW1 2120   1.556   2.980   2.081  0.3422 -0.2203 -0.6334
  707SOL    HW2 2121   1.584   2.814   2.089  2.2113  2.5768  2.1204
  708SOL     OW 2122   0.279   3.065   1.644 -1.3356  0.1986  0.1832
  708SOL    HW1 2123   0.361   0.029   1.600  0.7267  0.3454  1.0885
  708SOL    HW2 2124   0.246   2.980   1.602  0.4448  2.6163 -0.6755
  709SOL     OW 2125   0.028   0.523   1.614 -0.1758 -0.2703  0.2888
  709SOL    HW1 2126   0.118   0.579   1.620  1.3998 -2.8707  0.3259
  709SOL    HW2 2127   0.014   0.472   1.701 -0.8646  1.0891  3.3432
  710SOL     OW 2128   0.356   0.958   0.862 -0.2594 -0.2991 -0.0053
  710SOL    HW1 2129   0.433   1.029   0.853 -0.5806 -0.2440 -1.0571
  710SOL    HW2 2130   0.285   0.994   0.926 -1.3100 -2.4030  1.3853
  711SOL     OW 2131   2.564   2.808   1.844 -0.0685  0.1466  0.2529
  711SOL    HW1 2132   2.472   2.808   1.887 -1.3141  2.3506  0.7023
  711SOL    HW2 2133   2.626   2.885   1.876  1.4017 -0.6351  1.5885
  712SOL     OW 2134   0.235   2.540   2.359 -0.5722 -0.1015 -0.2735
  712SOL    HW1 2135   0.158   2.524   2.293 -0.0503 -0.4282  2.5385
  712SOL    HW2 2136   0.296   2.457   2.362  1.0081  0.6437 -0.9813
  713SOL     OW 2137   2.665   0.247   0.669 -1.1728  0.3644  0.2854
  713SOL    HW1 2138   2.634   0.270   0.574  1.1387  0.8254 -0.7352
  713SOL    HW2 2139   2.766   0.249   0.671  0.2803 -0.6916 -0.3461
  714SOL     OW 2140   1.726   1.799   2.563  0.4571  0.8344  0.0392
  714SOL    HW1 2141   1.675   1.738   2.499 -2.5230 -0.6063 -1.8921
  714SOL    HW2 2142   1.775   1.874   2.523 -1.4493 -0.3581  1.0517
  715SOL     OW 2143   0.166   0.557   0.828  0.1574  0.3615  0.1017
  715SOL    HW1 2144   0.087   0.511   0.783 -1.7374  1.7061 -0.8791
  715SOL    HW2 2145   0.210   0.629   0.769  0.1599  0.1068 -1.6559
  716SOL     OW 2146   0.728   0.562   1.657  0.0676  0.5765 -0.5373
  716SOL    HW1 2147   0.749   0.564   1.558  0.1581  0.8389 -1.4679
  716SOL    HW2 2148   0.665   0.486   1.691  1.1063  0.8308  1.3372
  717SOL     OW 2149   0.789   0.616   2.409  0.0099  0.1986 -0.9748
  717SOL    HW1 2150   0.740   0.541   2.366  0.6087  0.1179  0.0281
  717SOL    HW2 2151   0.836   0.597   2.499 -1.4483  0.6379  0.9264
  718SOL     OW 2152   1.181   0.054   0.441  0.7616  0.4940  0.7592
  718SOL    HW1 2153   1.172   0.119   0.519  0.0616 -1.3923 -0.4678
  718SOL    HW2 2154   1.110   0.076   0.367  1.0594 -0.2402  3.3585
  719SOL     OW 2155   3.005   2.286   2.827 -0.2916 -0.0457 -0.0574
  719SOL    HW1 2156   3.005   2.191   2.862 -1.0836 -1.5055 -1.7859
  719SOL    HW2 2157   2.939   2.294   2.749  1.0844  0.4021 -0.1702
  720SOL     OW 2158   1.119   0.516   1.645 -0.6287  0.4817 -0.2148
  720SOL    HW1 2159   1.217   0.519   1.669 -0.4037  1.0812 -0.5058
  720SOL    HW2 2160   1.070   0.591   1.686  1.2270 -2.9041 -1.4191
  721SOL     OW 2161   0.046   2.769   0.989  0.2288 -0.1381 -0.6714
  721SOL    HW1 2162   0.119   2.715   0.942 -1.7090 -1.7696  1.2421
  721SOL    HW2 2163   0.013   2.716   1.067 -1.0876  3.4958 -0.6675
  722SOL     OW 2164   0.828   1.231   2.934  0.2347 -0.0697 -0.0184
  722SOL    HW1 2165   0.848   1.317   2.982  0.9048 -0.9319  1.9253
  722SOL    HW2 2166   0.731   1.209   2.932  0.9082  2.8433 -1.2114
  723SOL     OW 2167   2.368   1.077   1.388 -0.5960 -0.0090  0.2716
  723SOL    HW1 2168   2.392   1.130   1.299 -1.5326 -0.4099 -3.2336
  723SOL    HW2 2169   2.267   1.073   1.407  0.3773 -1.4416  3.0119
  724SOL     OW 2170   0.955   1.867   0.291  0.0834  0.1540  0.2468
  724SOL    HW1 2171   1.044   1.847   0.244 -0.8012 -3.2279  4.0432
  724SOL    HW2 2172   0.971   1.891   0.384 -3.7150 -2.2485 -3.6513
  725SOL     OW 2173   0.268   0.782   1.397 -0.2098  0.5925 -0.7598
  725SOL    HW1 2174   0.321   0.819   1.322 -0.4547  0.4450  3.7155
  725SOL    HW2 2175   0.183   0.755   1.358  1.9036  0.0160  0.5783
  726SOL     OW 2176   2.599   1.079   2.958 -0.5710  0.0620 -0.0996
  726SOL    HW1 2177   2.591   1.136   3.042  0.3212  2.2558  1.1900
  726SOL    HW2 2178   2.665   1.107   2.885 -0.6356  1.0073  0.7753
  727SOL     OW 2179   1.945   1.184   2.748  0.0306 -0.5525  0.0307
  727SOL    HW1 2180   1.936   1.216   2.845 -1.2029 -0.3200  0.7719
  727SOL    HW2 2181   1.899   1.252   2.689 -1.4815 -2.5106  1.6725
  728SOL     OW 2182   1.762   2.350   1.286  0.0068 -0.1698 -0.0136
  728SOL    HW1 2183   1.752   2.443   1.313  0.4491 -0.1317  0.1793
  728SOL    HW2 2184   1.795   2.326   1.194  2.0012 -0.6835 -0.9784
  729SOL     OW 2185   1.906   0.868   2.038  0.5591  0.0286 -0.0386
  729SOL    HW1 2186   2.010   0.861   2.036  0.7933  0.7366  2.7355
  729SOL    HW2 2187   1.883   0.964   2.029  0.6733  0.8148 -0.9716
  730SOL     OW 2188   1.197   0.461   0.954  0.4794 -0.1979  0.1329
  730SOL    HW1 2189   1.218   0.497   1.049 -1.0528  1.7612  2.6342
  730SOL    HW2 2190   1.276   0.406   0.921 -2.4657  3.7726  2.9534
  731SOL     OW 2191   0.703   0.732   2.891 -0.3239 -0.0555  0.5707
  731SOL    HW1 2192   0.746   0.822   2.881 -2.7770 -2.6967 -0.3293
  731SOL    HW2 2193   0.606   0.743   2.911  4.5415  0.0418 -0.1178
  732SOL     OW 2194   0.684   0.786   0.659  0.2604  0.3374  0.1597
  732SOL    HW1 2195   0.742   0.863   0.693 -1.5123  1.3483 -0.3773
  732SOL    HW2 2196   0.616   0.823   0.594  1.9863  0.1365  0.5194
  733SOL     OW 2197   1.500   1.635   2.042 -0.0763 -0.3125  0.3201
  733SOL    HW1 2198   1.405   1.635   2.078  2.0604 -0.2019 -0.1029
  733SOL    HW2 2199   1.533   1.537   2.044  1.2514  1.6887  0.4158
  734SOL     OW 2200   0.247   2.256   2.943 -0.2502  0.7173 -0.0602
  734SOL    HW1 2201   0.201   2.213   2.866  0.0522  1.2123  0.8132
  734SOL    HW2 2202   0.347   2.235   2.937 -1.5840 -0.5456  1.0406
  735SOL     OW 2203   2.455   0.383   0.786  0.0292 -0.2990 -0.5431
  735SOL    HW1 2204   2.428   0.464   0.726  1.3349 -1.8211 -0.7879
  735SOL    HW2 2205   2.537   0.334   0.748  3.1068  0.4722 -0.0361
  736SOL     OW 2206   2.287   1.483   2.426 -0.2982 -0.2142  0.0082
  736SOL    HW1 2207   2.385   1.489   2.445 -0.0681  0.1479 -0.2487
  736SOL    HW2 2208   2.244   1.574   2.439 -0.9871 -0.1829 -1.2842
  737SOL     OW 2209   0.061   0.469   0.376  0.1632  0.6805  0.0097
  737SOL    HW1 2210   3.069   0.460   0.305 -2.5809 -0.1181 -0.3715
  737SOL    HW2 2211   0.024   0.504   0.465  1.8171  3.7461  2.4626
  738SOL     OW 2212   0.976   1.992   1.279  0.1835  0.6841  0.0331
  738SOL    HW1 2213   1.024   1.910   1.312  0.3837 -0.7267 -1.2585
  738SOL    HW2 2214   0.940   2.042   1.360 -1.5051 -1.2159  3.5057
  739SOL     OW 2215   1.304   2.830   1.956 -0.2604  0.2289  0.0497
  739SOL    HW1 2216   1.301   2.752   1.893 -3.0089  4.0904  0.3982
  739SOL    HW2 2217   1.309   2.916   1.903  0.5910  0.0227 -1.4532
  740SOL     OW 2218   2.080   2.536   1.522 -0.4053  0.8822  0.0888
  740SOL    HW1 2219   2.111   2.444   1.481 -0.3004 -3.8654 -3.4819
  740SOL    HW2 2220   2.138   2.581   1.590 -1.7804 -0.4854  1.9887
  741SOL     OW 2221   2.251   0.559   0.309 -0.4463 -0.0983 -0.5153
  741SOL    HW1 2222   2.250   0.479   0.369  1.3121 -0.7211 -1.1981
  741SOL    HW2 2223   2.160   0.586   0.280  0.5071 -1.3101  1.0945
  742SOL     OW 2224   1.513   2.597   3.032 -0.3309  0.3383  0.0133
  742SOL    HW1 2225   1.535   2.695   3.049 -2.2508  0.3013  0.9287
  742SOL    HW2 2226   1.438   2.583   2.966 -2.1075 -0.2584 -2.5902
  743SOL     OW 2227   2.303   1.026   2.190  0.0790 -0.5532 -0.2579
  743SOL    HW1 2228   2.376   1.041   2.255 -4.2377  0.4857  0.8420
  743SOL    HW2 2229   2.222   1.084   2.207 -2.0365 -1.9953 -0.2372
  744SOL     OW 2230   2.883   0.079   0.367  0.5706  0.0777  0.0820
  744SOL    HW1 2231   2.907   0.083   0.275  1.0508 -0.9272  3.1076
  744SOL    HW2 2232   2.848   3.068   0.394  0.3413 -0.0123  0.2679
  745SOL     OW 2233   2.108   1.422   1.372 -0.2344 -0.0728 -0.3098
  745SOL    HW1 2234   2.095   1.322   1.386  1.9578 -0.9637  2.8950
  745SOL    HW2 2235   2.194   1.436   1.422 -1.3439 -1.5852  0.4552
  746SOL     OW 2236   0.916   1.694   0.731  0.1281  0.1527 -0.3538
  746SOL    HW1 2237   0.966   1.731   0.814  1.4688 -0.2716  2.1317
  746SOL    HW2 2238   0.950   1.603   0.709 -2.3459 -0.3857 -0.6081
  747SOL     OW 2239   1.131   1.488   1.538 -0.0377 -0.1563  0.6065
  747SOL    HW1 2240   1.112   1.492   1.438 -1.5243  2.8818  0.7165
  747SOL    HW2 2241   1.041   1.476   1.582  1.3305 -0.6671 -0.3124
  748SOL     OW 2242   0.283   3.026   2.838 -0.2332  0.0374 -0.6354
  748SOL    HW1 2243   0.263   2.962   2.762 -0.2787 -1.5847  1.1294
  748SOL    HW2 2244   0.222   2.998   2.915  4.0234  1.0593 -2.6846
  749SOL     OW 2245   0.135   0.990   2.745 -0.0700 -0.1412  0.9884
  749SOL    HW1 2246   0.068   1.031   2.803 -1.2931 -2.2287 -1.4351
  749SOL    HW2 2247   0.147   1.053   2.667 -0.3535  0.8829 -2.2246
  750SOL     OW 2248   1.478   0.995   1.861  0.0081 -0.4713  0.5951
  750SOL    HW1 2249   1.489   1.079   1.803 -0.1533  3.1449 -1.5888
  750SOL    HW2 2250   1.561   0.938   1.849  0.0923  2.7592  1.5167
  751SOL     OW 2251   2.790   0.760   0.423 -0.1250  0.5064 -0.9098
  751SOL    HW1 2252   2.878   0.763   0.371  0.8284  1.6140  0.5817
  751SOL    HW2 2253   2.706   0.765   0.367  0.8615  0.8764  0.1025
  752SOL     OW 2254   2.628   2.696   1.121 -0.1566 -0.0536  0.3486
  752SOL    HW1 2255   2.665   2.730   1.205 -4.7602  1.1207  0.0062
  752SOL    HW2 2256   2.671   2.743   1.037 -1.9931  1.3673 -1.6465
  753SOL     OW 2257   0.791   2.308   1.089  0.0915 -0.2873  0.1067
  753SOL    HW1 2258   0.812   2.293   1.185 -2.1117  0.9574 -1.1007
  753SOL    HW2 2259   0.710   2.253   1.059 -0.9093  2.3607  0.8270
  754SOL     OW 2260   2.984   2.675   2.183 -0.4712  0.2459 -0.1756
  754SOL    HW1 2261   2.995   2.739   2.259  0.8450 -0.6089 -0.3528
  754SOL    HW2 2262   2.982   2.724   2.099  0.2909 -2.2657  4.5542
  755SOL     OW 2263   2.381   0.670   0.087 -0.1733 -0.0267  0.5166
  755SOL    HW1 2264   2.471   0.708   0.106 -0.3798 -0.8186 -1.9077
  755SOL    HW2 2265   2.344   0.626   0.170  1.4762  0.1631 -3.0627
  756SOL     OW 2266   1.921   2.384   0.091  0.3696  0.3823  0.0023
  756SOL    HW1 2267   1.987   2.440   0.142 -1.1474  0.9074 -1.8710
  756SOL    HW2 2268   1.977   2.323   0.034 -2.1366  0.0356 -0.3704
  757SOL     OW 2269   2.531   0.261   0.421  0.2633  0.2362  0.0023
  757SOL    HW1 2270   2.439   0.309   0.440  1.9411  0.3352  0.7139
  757SOL    HW2 2271   2.518   0.159   0.407  1.5115 -1.7896  0.9796
  758SOL     OW 2272   2.052   0.983   1.673 -0.3043 -1.0836 -0.0791
  758SOL    HW1 2273   1.959   0.948   1.645 -3.5117 -1.0137 -1.1404
  758SOL    HW2 2274   2.121   0.910   1.655 -3.6117 -1.1875  3.5581
  759SOL     OW 2275   2.557   0.480   1.263 -0.0930  0.4002  0.4461
  759SOL    HW1 2276   2.555   0.581   1.281  0.5768  0.9395  0.3782
  759SOL    HW2 2277   2.580   0.452   1.170  0.7446 -0.1040  0.9947
  760SOL     OW 2278   0.259   1.216   1.439 -0.2882 -0.5862  0.1752
  760SOL    HW1 2279   0.252   1.131   1.497 -0.7562 -2.2647  3.1492
  760SOL    HW2 2280   0.186   1.283   1.462  1.1784  0.5526  2.1031
  761SOL     OW 2281   1.113   0.601   0.060  0.5143 -0.3699 -0.2239
  761SOL    HW1 2282   1.027   0.554   0.031  2.6603 -0.1212  3.0340
  761SOL    HW2 2283   1.122   0.686   0.009 -0.9521 -1.9139  1.7177
  762SOL     OW 2284   1.107   1.785   1.400  0.0963 -0.4441  0.5032
  762SOL    HW1 2285   1.132   1.693   1.363  1.0571 -2.0381  1.9210
  762SOL    HW2 2286   1.027   1.784   1.464  2.2274  0.7687  1.3462
  763SOL     OW 2287   1.087   0.801   1.572  0.4533  0.2511 -0.1730
  763SOL    HW1 2288   1.190   0.800   1.570  1.7998  0.4860  5.0237
  763SOL    HW2 2289   1.061   0.838   1.485  0.8205  1.3696  0.7932
  764SOL     OW 2290   0.324   2.617   2.929 -0.4136 -0.1979 -0.4443
  764SOL    HW1 2291   0.254   2.648   2.862 -0.1993 -0.5737  0.4323
  764SOL    HW2 2292   0.271   2.583   3.007 -0.3864 -1.6018 -2.8196
  765SOL     OW 2293   0.512   2.883   1.558  0.0341 -0.7418  0.0263
  765SOL    HW1 2294   0.554   2.854   1.645 -2.0378 -1.6880 -0.3276
  765SOL    HW2 2295   0.513   2.984   1.548  2.5378  0.9319 -2.3665
  766SOL     OW 2296   2.543   1.735   2.116  0.1568 -0.3282  0.1212
  766SOL    HW1 2297   2.477   1.808   2.137  1.4886 -3.2328  0.5930
  766SOL    HW2 2298   2.597   1.756   2.034 -0.1601 -1.5463  0.1708
  767SOL     OW 2299   1.410   1.257   2.285 -0.0696  0.1136  0.1657
  767SOL    HW1 2300   1.373   1.328   2.351 -0.9922  3.1505  0.6653
  767SOL    HW2 2301   1.368   1.265   2.197  1.6700 -0.6625  0.3350
  768SOL     OW 2302   1.670   1.776   0.325  0.5230 -0.0242 -0.1905
  768SOL    HW1 2303   1.689   1.767   0.426 -0.6978 -1.2943  1.2805
  768SOL    HW2 2304   1.734   1.841   0.287  0.3238  0.8370  0.4999
  769SOL     OW 2305   0.455   1.498   0.782 -0.4071  0.5920 -0.1652
  769SOL    HW1 2306   0.408   1.509   0.695  1.5850 -2.3604 -1.4063
  769SOL    HW2 2307   0.525   1.567   0.801  1.2317  0.2464 -0.2381
  770SOL     OW 2308   1.428   1.073   2.471 -0.3454  0.1994  0.4942
  770SOL    HW1 2309   1.527   1.070   2.479 -5.4536 -0.7988 -0.5171
  770SOL    HW2 2310   1.408   1.154   2.408 -0.3252  1.5971 -3.4019
  771SOL     OW 2311   2.652   3.067   2.395 -0.7303  0.3676  0.9187
  771SOL    HW1 2312   2.603   0.074   2.377 -0.1605 -1.1778  0.2912
  771SOL    HW2 2313   2.591   3.005   2.452  0.2609 -0.5453  0.8485
  772SOL     OW 2314   2.404   1.972   2.202 -0.2564 -0.7797  0.4167
  772SOL    HW1 2315   2.304   1.948   2.194 -0.5623 -0.7245  1.0629
  772SOL    HW2 2316   2.420   2.054   2.142  1.2939  0.2029  0.4739
  773SOL     OW 2317   0.746   1.490   1.678  0.2907 -1.0374 -0.8548
  773SOL    HW1 2318   0.768   1.433   1.756  1.9477 -0.4747  0.1936
  773SOL    HW2 2319   0.694   1.437   1.611  3.1121 -0.0067 -0.0930
  774SOL     OW 2320   1.413   0.820   2.941 -1.1053 -0.4013  0.1050
  774SOL    HW1 2321   1.438   0.900   2.886 -1.2574 -3.1571  2.6698
  774SOL    HW2 2322   1.315   0.824   2.966  1.0767 -1.0211  0.8570
  775SOL     OW 2323   1.791   2.445   2.893 -0.4947 -0.2353 -0.2522
  775SOL    HW1 2324   1.875   2.455   2.953 -0.9648 -1.3282 -0.7781
  775SOL    HW2 2325   1.728   2.369   2.914  0.1711  0.4895 -0.2621
  776SOL     OW 2326   3.021   1.056   1.593  0.4992  0.6943  0.3319
  776SOL    HW1 2327   2.929   1.070   1.561  0.0298  1.1317  1.4538
  776SOL    HW2 2328   3.049   1.146   1.632  0.5891 -1.4649  1.3527
  777SOL     OW 2329   2.436   2.239   2.072  0.3926 -0.3218  0.7142
  777SOL    HW1 2330   2.519   2.253   2.129  0.1147  0.6837 -0.7008
  777SOL    HW2 2331   2.443   2.282   1.982 -0.5228  0.5962  1.2536
  778SOL     OW 2332   1.845   1.131   2.012 -0.4265 -0.0517  0.2119
  778SOL    HW1 2333   1.804   1.169   1.928 -1.9803  0.1571  0.9786
  778SOL    HW2 2334   1.922   1.184   2.053  0.7453 -2.3146 -1.1319
  779SOL     OW 2335   2.856   0.998   0.156  0.1849 -0.0428 -0.2236
  779SOL    HW1 2336   2.902   0.908   0.177  0.8861 -1.7108 -0.9458
  779SOL    HW2 2337   2.754   0.992   0.159 -3.6788 -0.7066  1.7490
  780SOL     OW 2338   2.141   0.015   2.822 -0.0223  0.6832 -0.2250
  780SOL    HW1 2339   2.045   0.037   2.806  1.9690  0.0114  2.7750
  780SOL    HW2 2340   2.195   0.100   2.829 -0.7589  2.8206 -0.9403
  781SOL     OW 2341   2.926   1.721   1.387  0.1426  0.3465 -0.3045
  781SOL    HW1 2342   3.019   1.695   1.361 -0.8238  1.2382 -0.6549
  781SOL    HW2 2343   2.877   1.660   1.454  1.3925 -2.0761 -0.8715
  782SOL     OW 2344   2.683   2.077   3.014  0.0453  0.3036  0.0119
  782SOL    HW1 2345   2.715   2.151   3.077  0.3034  0.2166  2.2347
  782SOL    HW2 2346   2.581   2.078   2.995  0.7908  0.0327 -1.4517
  783SOL     OW 2347   0.678   1.626   0.835 -0.1850 -0.3265  0.7633
  783SOL    HW1 2348   0.707   1.536   0.885  1.3778 -4.0212  1.8840
  783SOL    HW2 2349   0.763   1.666   0.790  0.2205 -1.8006 -2.1992
  784SOL     OW 2350   2.602   0.976   0.205 -0.1091 -0.1428  0.3992
  784SOL    HW1 2351   2.564   1.057   0.155 -1.2054 -1.2086  1.1449
  784SOL    HW2 2352   2.593   1.001   0.303  1.9234 -1.4391 -2.7549
  785SOL     OW 2353   2.109   2.580   0.416 -0.0910 -0.0873 -0.0513
  785SOL    HW1 2354   2.110   2.608   0.515  1.0426 -0.0915  0.9969
  785SOL    HW2 2355   2.054   2.496   0.410 -0.4397  3.3714  1.0098
  786SOL     OW 2356   0.652   2.123   2.727 -0.0210 -0.3873  0.0013
  786SOL    HW1 2357   0.725   2.121   2.650  0.1831 -1.9823 -2.8269
  786SOL    HW2 2358   0.561   2.131   2.682  1.8992 -0.2833 -0.2646
  787SOL     OW 2359   1.528   0.572   1.162  0.1872 -0.4444 -0.7391
  787SOL    HW1 2360   1.432   0.600   1.182  0.5458 -2.6661  1.0409
  787SOL    HW2 2361   1.547   0.562   1.061 -0.3944  1.2723  2.4322
  788SOL     OW 2362   0.602   0.908   0.167 -0.7483 -0.8597 -0.0787
  788SOL    HW1 2363   0.654   0.855   0.238 -0.3894  2.8763  1.2986
  788SOL    HW2 2364   0.511   0.868   0.165 -0.8109 -1.3448  1.2348
  789SOL     OW 2365   2.785   1.946   1.360  0.2511 -0.2021 -0.1251
  789SOL    HW1 2366   2.831   1.854   1.357 -1.8529  0.5842 -0.0172
  789SOL    HW2 2367   2.755   1.960   1.261  0.8727 -3.6290 -0.4677
  790SOL     OW 2368   1.343   0.348   1.899 -0.8612  0.0519  0.5075
  790SOL    HW1 2369   1.392   0.350   1.991  0.5904 -1.3632 -1.9665
  790SOL    HW2 2370   1.261   0.299   1.905  2.3310  2.2219 -0.0861
  791SOL     OW 2371   1.148   0.638   0.324 -0.4119 -0.1771 -0.4475
  791SOL    HW1 2372   1.157   0.609   0.224  1.1963 -1.6234 -0.0668
  791SOL    HW2 2373   1.208   0.715   0.352 -0.7506  0.6062 -0.1045
  792SOL     OW 2374   1.334   3.066   1.564  0.4832  0.3007 -0.1154
  792SOL    HW1 2375   1.319   2.974   1.523 -0.4707  2.5421 -0.0886
  792SOL    HW2 2376   1.374   0.050   1.496 -0.4490 -0.1794 -1.5081
  793SOL     OW 2377   0.925   2.989   0.796 -0.1048  0.5152 -0.2186
  793SOL    HW1 2378   1.017   3.030   0.784 -0.3703  1.6994  0.3074
  793SOL    HW2 2379   0.918   2.928   0.878  0.2350 -1.2098 -0.3199
  794SOL     OW 2380   0.334   1.132   2.152 -0.2651 -0.2470 -0.6480
  794SOL    HW1 2381   0.392   1.056   2.120 -0.2298 -0.4176 -0.6329
  794SOL    HW2 2382   0.384   1.182   2.229  2.1273  0.6698  0.8328
  795SOL     OW 2383   2.990   1.553   2.438 -0.0125  0.2154  0.7470
  795SOL    HW1 2384   2.921   1.537   2.363 -1.9682  0.7733  1.5133
  795SOL    HW2 2385   3.067   1.483   2.427  3.0180 -4.0494 -1.0882
  796SOL     OW 2386   2.072   1.222   2.132 -0.0250  0.1138  0.0277
  796SOL    HW1 2387   2.092   1.156   2.054  0.2387 -1.6756  1.7994
  796SOL    HW2 2388   2.144   1.295   2.140  1.4881 -1.1451  0.2688
  797SOL     OW 2389   0.173   2.935   2.615 -0.2946 -0.2089  0.7244
  797SOL    HW1 2390   0.132   2.985   2.539  0.2727 -1.9736 -1.2316
  797SOL    HW2 2391   0.174   2.835   2.596  1.9097  3.0632 -0.9611
  798SOL     OW 2392   0.240   2.031   2.083  0.0371 -0.2308  0.6684
  798SOL    HW1 2393   0.225   1.984   1.991 -1.2369  1.1252  0.3883
  798SOL    HW2 2394   0.301   2.110   2.080 -0.9177 -2.7673 -1.2873
  799SOL     OW 2395   2.736   2.303   0.084  0.3839 -0.2295  0.3306
  799SOL    HW1 2396   2.715   2.307   0.184  0.2421  2.5090  0.0391
  799SOL    HW2 2397   2.798   2.378   0.057 -2.0007  2.3875  3.1703
  800SOL     OW 2398   1.191   1.588   0.971 -0.5000  0.3088  0.2942
  800SOL    HW1 2399   1.164   1.687   0.985 -1.0398  3.3500  1.1895
  800SOL    HW2 2400   1.271   1.581   0.906  2.0845  0.5113 -2.1943
  801SOL     OW 2401   2.406   0.633   0.633 -0.1532  0.1644  0.2213
  801SOL    HW1 2402   2.323   0.693   0.636  0.7851  2.4833 -1.5557
  801SOL    HW2 2403   2.426   0.609   0.537 -1.4292  1.5332  1.5564
  802SOL     OW 2404   2.579   1.645   0.444 -0.2457 -0.1358  0.2314
  802SOL    HW1 2405   2.546   1.710   0.371 -2.4661 -0.5508  1.1849
  802SOL    HW2 2406   2.555   1.680   0.537 -0.7813  1.9457 -1.1458
  803SOL     OW 2407   1.413   1.744   2.873  0.1634  0.2320  0.3710
  803SOL    HW1 2408   1.460   1.810   2.807  1.0018 -0.6880  1.7542
  803SOL    HW2 2409   1.383   1.789   2.960  1.9322 -0.9457 -0.1188
  804SOL     OW 2410   1.815   2.003   0.231 -0.8557  0.6745 -0.3533
  804SOL    HW1 2411   1.766   2.091   0.205  0.3403 -0.1523 -1.4965
  804SOL    HW2 2412   1.906   2.004   0.186 -0.3103  1.1563 -0.6435
  805SOL     OW 2413   2.653   1.584   2.842  0.3322  0.5123  0.3441
  805SOL    HW1 2414   2.636   1.680   2.853 -2.3621  1.7193 -1.0696
  805SOL    HW2 2415   2.727   1.572   2.773  0.4217 -0.5406  1.8122
  806SOL     OW 2416   0.761   0.518   0.580 -0.4464 -0.0242  0.4192
  806SOL    HW1 2417   0.780   0.477   0.486  2.1121 -1.2032 -1.3107
  806SOL    HW2 2418   0.777   0.615   0.572 -0.5868 -1.6849 -1.4672
  807SOL     OW 2419   2.225   1.408   2.779 -0.1709  1.0382 -0.7159
  807SOL    HW1 2420   2.213   1.452   2.869 -0.3576  0.8055  2.1076
  807SOL    HW2 2421   2.140   1.419   2.725 -1.8987  1.7028 -0.0659
  808SOL     OW 2422   0.113   1.431   0.437  0.1529 -0.2012 -0.4310
  808SOL    HW1 2423   0.122   1.348   0.500  0.7833  0.7511 -1.1632
  808SOL    HW2 2424   0.194   1.487   0.473 -0.8890 -1.4196 -1.7681
  809SOL     OW 2425   2.391   0.947   2.901  0.2475  0.4498 -0.0325
  809SOL    HW1 2426   2.483   0.993   2.918  0.2540 -1.9461  1.3662
  809SOL    HW2 2427   2.322   1.013   2.861  1.8868 -0.5795  1.7866
  810SOL     OW 2428   1.170   1.185   0.427  0.3682  0.2979  0.6680
  810SOL    HW1 2429   1.251   1.227   0.387  0.4240  3.0297  1.6700
  810SOL    HW2 2430   1.087   1.198   0.373 -1.8080 -0.6191  2.4770
  811SOL     OW 2431   1.593   2.363   0.780 -0.0690  0.9494 -0.0674
  811SOL    HW1 2432   1.545   2.452   0.764  0.2780  2.5333  0.0784
  811SOL    HW2 2433   1.574   2.298   0.700 -1.0845 -2.2533 -4.1463
  812SOL     OW 2434   0.163   2.604   1.548 -0.4671  0.9721  0.5313
  812SOL    HW1 2435   0.123   2.517   1.516 -1.9032  0.0527  0.2053
  812SOL    HW2 2436   0.262   2.606   1.535  0.5014 -1.0683  1.3123
  813SOL     OW 2437   0.966   0.054   1.805  0.1593  0.6257 -0.4484
  813SOL    HW1 2438   0.939   3.040   1.775 -0.0022 -3.2871  0.8148
  813SOL    HW2 2439   0.876   0.098   1.827  0.6897 -1.9211 -2.2694
  814SOL     OW 2440   1.336   0.029   2.369 -0.3446  0.5183  0.1072
  814SOL    HW1 2441   1.421   3.055   2.381 -0.5111  1.0738 -0.6321
  814SOL    HW2 2442   1.288   0.003   2.285 -2.9075 -1.2875  1.6415
  815SOL     OW 2443   0.363   0.234   1.984 -0.2632  0.0943  0.2187
  815SOL    HW1 2444   0.353   0.134   1.961 -1.5341  0.6394 -0.7044
  815SOL    HW2 2445   0.377   0.292   1.900  0.6804  2.0565  1.4672
  816SOL     OW 2446   2.503   0.281   0.034  0.1732  0.1637  0.2595
  816SOL    HW1 2447   2.573   0.331   0.098  1.2015  2.5855  1.1280
  816SOL    HW2 2448   2.445   0.356   3.065 -0.6433  2.0410 -0.6034
  817SOL     OW 2449   1.853   0.393   2.697  0.1512 -0.4054  0.0732
  817SOL    HW1 2450   1.828   0.488   2.683  1.0938 -0.2731 -1.1601
  817SOL    HW2 2451   1.772   0.333   2.714 -3.3157 -2.7431 -0.1754
  818SOL     OW 2452   1.973   0.299   0.188  0.4355  0.3193 -0.1467
  818SOL    HW1 2453   2.029   0.239   0.246  1.1339 -0.9245 -0.5280
  818SOL    HW2 2454   2.004   0.398   0.190  1.5272 -0.6982 -2.4797
  819SOL     OW 2455   2.406   1.533   0.109  0.0839  0.1650 -0.5057
  819SOL    HW1 2456   2.441   1.620   0.155  0.2142  1.3555  1.2968
  819SOL    HW2 2457   2.482   1.476   0.074  0.2629  0.7716  0.7826
  820SOL     OW 2458   3.062   2.057   0.174 -0.1966  0.4447  0.0796
  820SOL    HW1 2459   3.051   2.008   0.084 -2.4097 -0.4619  2.4233
  820SOL    HW2 2460   2.983   2.044   0.239  1.4759  0.9931 -0.6379
  821SOL     OW 2461   2.946   2.748   1.312  0.6739 -0.0486 -0.1534
  821SOL    HW1 2462   2.851   2.744   1.350  0.2135 -0.9138 -0.8634
  821SOL    HW2 2463   2.965   2.845   1.287 -1.0141 -0.2131  1.7908
  822SOL     OW 2464   2.641   2.485   2.545  0.1619 -0.5361 -0.0563
  822SOL    HW1 2465   2.643   2.585   2.526  0.6969 -0.0874 -1.3451
  822SOL    HW2 2466   2.551   2.436   2.522 -1.1832  0.1990  1.2999
  823SOL     OW 2467   1.651   0.295   2.476  0.6968 -0.2751  0.0106
  823SOL    HW1 2468   1.559   0.319   2.445 -0.0532 -0.2099 -2.4165
  823SOL    HW2 2469   1.655   0.267   2.575  3.2992 -0.3365 -1.5883
  824SOL     OW 2470   2.444   1.674   1.427  0.4809 -0.1070  0.6685
  824SOL    HW1 2471   2.384   1.755   1.435 -1.3158  0.9803 -0.6916
  824SOL    HW2 2472   2.515   1.693   1.356  0.8720 -1.4407 -0.3686
  825SOL     OW 2473   2.715   1.879   2.405 -0.2599  0.0293  0.0595
  825SOL    HW1 2474   2.651   1.865   2.328  2.0924 -2.0469 -0.0434
  825SOL    HW2 2475   2.803   1.921   2.367 -0.4994  0.8747 -1.8200
  826SOL     OW 2476   2.555   1.057   2.318  0.1924  0.2531  0.1705
  826SOL    HW1 2477   2.602   1.141   2.356  1.4653  1.5241  2.9080
  826SOL    HW2 2478   2.607   0.972   2.340 -1.0729  2.2789  1.1950
  827SOL     OW 2479   2.486   2.612   1.508  0.2814  0.2658  0.5490
  827SOL    HW1 2480   2.479   2.521   1.456 -2.0561 -0.2716  0.6633
  827SOL    HW2 2481   2.396   2.632   1.560 -0.2823  0.0433 -0.0521
  828SOL     OW 2482   2.875   2.888   1.602 -0.2836  0.0623 -0.0901
  828SOL    HW1 2483   2.927   2.905   1.515  1.2134  0.4377 -0.8367
  828SOL    HW2 2484   2.776   2.892   1.590  1.7103 -0.7735 -1.4918
  829SOL     OW 2485   1.392   2.266   2.316 -0.5856 -0.1212 -0.0674
  829SOL    HW1 2486   1.417   2.361   2.286 -1.5327 -0.7097 -1.3566
  829SOL    HW2 2487   1.466   2.201   2.310 -3.1441  1.1487 -3.3040
  830SOL     OW 2488   1.619   0.460   0.685  0.0233 -0.1590 -0.5014
  830SOL    HW1 2489   1.661   0.498   0.771 -0.1596  0.8270 -0.2743
  830SOL    HW2 2490   1.689   0.458   0.612 -0.9083 -2.8857 -1.6846
  831SOL     OW 2491   2.715   1.462   0.668 -0.1321  0.4273 -0.4964
  831SOL    HW1 2492   2.779   1.437   0.742 -0.4371  1.0012 -3.3541
  831SOL    HW2 2493   2.728   1.404   0.587 -1.9122  1.1152  0.2757
  832SOL     OW 2494   1.574   2.551   1.796 -0.9255 -0.2143  0.0330
  832SOL    HW1 2495   1.502   2.581   1.730 -0.8364  1.3297 -0.0534
  832SOL    HW2 2496   1.663   2.526   1.746  0.3272 -1.1228 -0.7224
  833SOL     OW 2497   2.980   2.895   2.369 -0.0300 -0.1858 -0.3918
  833SOL    HW1 2498   2.905   2.938   2.314 -1.7269 -1.5615  1.1192
  833SOL    HW2 2499   3.036   2.968   2.409  0.3782  0.2001  0.7775
  834SOL     OW 2500   1.086   0.917   1.323  0.1084 -0.1542  0.0392
  834SOL    HW1 2501   1.129   0.992   1.372 -0.3716 -1.1438 -0.2523
  834SOL    HW2 2502   0.995   0.942   1.295  0.6585 -0.5103  1.6111
  835SOL     OW 2503   2.803   0.590   2.611 -0.0100  0.4562 -0.3839
  835SOL    HW1 2504   2.710   0.565   2.647  2.5908  0.6471 -2.1032
  835SOL    HW2 2505   2.876   0.535   2.661  0.7982 -2.2569  1.4984
  836SOL     OW 2506   1.050   2.240   1.032  0.4853  0.3553  0.3415
  836SOL    HW1 2507   0.962   2.262   1.080 -0.9353  2.3678  1.6940
  836SOL    HW2 2508   1.118   2.305   1.067 -2.1443 -0.1735  1.5472
  837SOL     OW 2509   2.111   0.927   0.882  0.7147 -0.7979 -0.1185
  837SOL    HW1 2510   2.146   0.986   0.810 -2.3765 -1.4115  1.6907
  837SOL    HW2 2511   2.165   0.842   0.882 -2.0669  3.3159  1.4631
  838SOL     OW 2512   1.367   1.435   2.504  0.8318 -0.6015  0.2360
  838SOL    HW1 2513   1.369   1.446   2.604 -1.4239 -0.7803  0.0378
  838SOL    HW2 2514   1.307   1.504   2.457 -0.8400  3.6732 -2.7619
  839SOL     OW 2515   0.530   2.227   2.951 -0.3973  0.1309 -0.4009
  839SOL    HW1 2516   0.584   2.152   2.908  0.2287  0.1800 -0.7230
  839SOL    HW2 2517   0.596   2.297   2.995  1.9752  0.3530  2.5609
  840SOL     OW 2518   0.594   2.625   3.080  0.2614 -0.1397 -0.4473
  840SOL    HW1 2519   0.514   2.646   3.019  2.0979 -0.0987 -0.0434
  840SOL    HW2 2520   0.615   2.528   0.004  0.8368  2.6319  0.2385
  841SOL     OW 2521   1.645   2.196   0.159 -0.2413  0.0569  0.4321
  841SOL    HW1 2522   1.614   2.166   0.070  2.5901 -0.9127  0.3583
  841SOL    HW2 2523   1.651   2.299   0.154  1.0454  2.4946 -2.1748
  842SOL     OW 2524   1.194   1.063   2.618 -0.0839  0.0751  0.2577
  842SOL    HW1 2525   1.222   1.121   2.699  2.3152  0.8043 -0.8798
  842SOL    HW2 2526   1.274   1.056   2.561  0.6578  2.7947 -1.1656
  843SOL     OW 2527   1.546   2.746   0.711 -0.1781  0.0352 -0.0731
  843SOL    HW1 2528   1.603   2.693   0.646 -0.2868 -0.4050  1.0307
  843SOL    HW2 2529   1.516   2.833   0.670 -0.8195 -0.4167 -0.2716
  844SOL     OW 2530   2.267   2.855   2.626  0.5263  0.1029 -0.7603
  844SOL    HW1 2531   2.189   2.912   2.658 -2.0929  0.6516  4.0551
  844SOL    HW2 2532   2.322   2.829   2.707  1.2573 -2.9376 -0.7713
  845SOL     OW 2533   2.716   2.426   1.232 -0.0920 -0.1473  0.5461
  845SOL    HW1 2534   2.673   2.394   1.316  0.2540 -0.9652 -2.2170
  845SOL    HW2 2535   2.689   2.514   1.198 -1.4042 -1.3422  0.5792
  846SOL     OW 2536   0.110   2.060   2.311 -0.6008 -0.0607  0.3186
  846SOL    HW1 2537   0.169   2.061   2.231  1.9531  2.2756  2.8776
  846SOL    HW2 2538   0.116   1.983   2.376 -0.6415 -3.5651 -1.4816
  847SOL     OW 2539   1.621   0.466   1.604 -0.4581 -0.2215 -0.4459
  847SOL    HW1 2540   1.617   0.470   1.503 -2.8407  1.4644 -2.8996
  847SOL    HW2 2541   1.633   0.372   1.641  1.4638  1.9946  0.2870
  848SOL     OW 2542   0.149   0.315   2.982  0.2164 -0.9566 -0.0788
  848SOL    HW1 2543   0.232   0.336   3.039 -0.8831  0.2002  1.9503
  848SOL    HW2 2544   0.110   0.407   2.955  2.2871  2.0664 -0.1949
  849SOL     OW 2545   0.831   0.534   3.043  0.4063 -0.2656  0.4560
  849SOL    HW1 2546   0.805   0.600   2.974 -0.8728 -0.5647  1.3843
  849SOL    HW2 2547   0.764   0.517   0.038 -0.0325 -0.6487  1.3027
  850SOL     OW 2548   0.403   2.678   1.140 -0.3771  0.0134  0.3755
  850SOL    HW1 2549   0.325   2.631   1.185 -1.6747  0.4755 -0.0272
  850SOL    HW2 2550   0.413   2.776   1.169  0.7391 -1.6083  1.4957
  851SOL     OW 2551   2.149   0.270   2.441  0.5170 -0.6017  0.3103
  851SOL    HW1 2552   2.143   0.353   2.376 -0.8421  0.8569 -0.8137
  851SOL    HW2 2553   2.118   0.296   2.533 -3.3752  1.9827 -0.6409
  852SOL     OW 2554   1.751   1.463   2.211 -0.2048 -0.0097  0.4492
  852SOL    HW1 2555   1.698   1.482   2.300 -0.3175 -0.3173 -0.8256
  852SOL    HW2 2556   1.686   1.444   2.133 -0.1032 -0.2852  0.4550
  853SOL     OW 2557   3.002   2.807   0.645 -0.1034 -0.1715  0.1210
  853SOL    HW1 2558   3.001   2.709   0.674  1.2873 -0.9023  3.1491
  853SOL    HW2 2559   2.917   2.870   0.653  2.3217 -0.6429  1.0547
  854SOL     OW 2560   2.266   0.275   0.939  0.5761 -0.4093 -0.2641
  854SOL    HW1 2561   2.229   0.185   0.901 -0.2050 -0.8985 -0.5126
  854SOL    HW2 2562   2.318   0.327   0.871  1.3649  1.6855  0.4086
  855SOL     OW 2563   1.406   1.975   0.620  0.3571  0.2610  0.3480
  855SOL    HW1 2564   1.349   1.920   0.561  0.8061  0.7943  1.5907
  855SOL    HW2 2565   1.348   2.023   0.690  2.3955  1.7017 -1.9054
  856SOL     OW 2566   2.699   0.384   0.236  0.2460 -0.1558  0.4927
  856SOL    HW1 2567   2.626   0.376   0.310 -1.3938  1.8411  1.0450
  856SOL    HW2 2568   2.744   0.297   0.234 -1.2351  2.0227  2.2378
  857SOL     OW 2569   1.609   2.821   1.805 -0.3110 -0.0908  0.4149
  857SOL    HW1 2570   1.673   2.831   1.888  4.6607  0.5158  1.4445
  857SOL    HW2 2571   1.611   2.727   1.777 -0.1977  0.6277  0.0420
  858SOL     OW 2572   2.411   2.367   1.395  0.0723 -0.0518 -0.0828
  858SOL    HW1 2573   2.434   2.297   1.322  0.1620 -0.6993 -0.7588
  858SOL    HW2 2574   2.318   2.352   1.440 -1.1019 -0.5909 -1.0967
  859SOL     OW 2575   1.181   2.370   0.727  0.0885  0.2536 -0.2866
  859SOL    HW1 2576   1.099   2.427   0.755  0.8936 -1.5379 -0.7484
  859SOL    HW2 2577   1.264   2.402   0.781 -0.2198 -0.6177 -0.9552
  860SOL     OW 2578   2.136   2.235   3.073 -0.2996 -0.0061  0.4643
  860SOL    HW1 2579   2.206   2.305   3.043  0.4142  2.8545  2.2915
  860SOL    HW2 2580   2.157   2.208   0.086  1.1785  1.1778 -1.4446
  861SOL     OW 2581   2.151   2.651   1.248 -0.5149 -0.2294  0.0457
  861SOL    HW1 2582   2.243   2.679   1.261 -1.0441 -1.1445  0.0277
  861SOL    HW2 2583   2.096   2.655   1.332 -0.8029 -1.1245  1.3952
  862SOL     OW 2584   1.914   3.034   2.560 -0.3076 -0.1929 -0.1776
  862SOL    HW1 2585   1.925   0.012   2.477 -0.6839 -2.5063  0.0200
  862SOL    HW2 2586   1.919   0.006   2.644  1.4164  0.9414 -3.5112
  863SOL     OW 2587   0.465   0.284   0.471 -0.1204 -0.5121  0.5004
  863SOL    HW1 2588   0.538   0.223   0.431 -0.2680 -1.2186  0.5464
  863SOL    HW2 2589   0.415   0.235   0.548  1.1483 -0.3149  0.8282
  864SOL     OW 2590   2.635   2.568   1.884 -0.1962 -0.0246  0.2959
  864SOL    HW1 2591   2.705   2.556   1.812 -0.7410  2.1194 -0.0475
  864SOL    HW2 2592   2.607   2.668   1.882  0.4684 -1.1435 -2.2184
  865SOL     OW 2593   2.917   2.038   2.871  0.2001 -0.5360  0.5080
  865SOL    HW1 2594   2.982   1.980   2.931  1.7594 -2.8472  1.1546
  865SOL    HW2 2595   2.836   2.057   2.924 -0.6768 -1.2111  0.4060
  866SOL     OW 2596   2.405   0.492   2.983 -0.2859 -0.1323  0.1782
  866SOL    HW1 2597   2.434   0.527   2.895 -0.0293  0.6398  0.2197
  866SOL    HW2 2598   2.376   0.561   3.054  0.5458 -1.4225  1.9287
  867SOL     OW 2599   2.886   0.193   2.496  0.1382  0.3418  0.1364
  867SOL    HW1 2600   2.812   0.131   2.467  0.6820 -0.1780 -0.9533
  867SOL    HW2 2601   2.894   0.190   2.597 -1.1013 -1.7621  1.0262
  868SOL     OW 2602   0.978   2.542   0.777 -0.3289 -0.1692 -0.3686
  868SOL    HW1 2603   0.908   2.561   0.847 -0.0931 -1.1537  0.4067
  868SOL    HW2 2604   0.996   2.634   0.733 -0.1466  0.0229 -0.3345
  869SOL     OW 2605   1.379   1.192   1.248  0.4278  0.2460  0.3846
  869SOL    HW1 2606   1.314   1.159   1.176 -0.6928 -0.1216 -0.8392
  869SOL    HW2 2607   1.464   1.134   1.260  0.8105  2.4910 -0.2530
  870SOL     OW 2608   1.671   1.903   1.372 -0.5999  0.2164 -0.0724
  870SOL    HW1 2609   1.684   1.996   1.416  2.0241 -0.2232 -1.3321
  870SOL    HW2 2610   1.630   1.843   1.439  0.0518 -0.3887 -0.2309
  871SOL     OW 2611   1.142   1.516   1.263 -0.0333  0.4772  0.7097
  871SOL    HW1 2612   1.241   1.496   1.278 -0.9777 -1.0100 -0.5111
  871SOL    HW2 2613   1.118   1.524   1.162 -0.0478  1.2145  0.4194
  872SOL     OW 2614   1.244   0.866   1.104 -0.0767 -0.2876 -0.7465
  872SOL    HW1 2615   1.202   0.870   1.199  0.0089 -0.3350  2.3232
  872SOL    HW2 2616   1.257   0.962   1.064 -0.5569  1.4422 -1.6516
  873SOL     OW 2617   1.590   0.832   2.599  0.0911 -0.3319 -0.2105
  873SOL    HW1 2618   1.580   0.905   2.669  0.2821 -2.3320  1.2322
  873SOL    HW2 2619   1.616   0.874   2.510 -0.0784 -3.6077  2.2788
  874SOL     OW 2620   0.458   1.209   1.205  0.5804  0.2823  0.2246
  874SOL    HW1 2621   0.394   1.207   1.287 -4.0566  0.4753 -0.5176
  874SOL    HW2 2622   0.416   1.274   1.135 -2.3459 -0.3068 -0.4265
  875SOL     OW 2623   2.723   2.774   0.032  0.1473  0.4019 -0.3566
  875SOL    HW1 2624   2.687   2.859   0.069 -0.4879 -1.2619  1.1525
  875SOL    HW2 2625   2.778   2.791   3.026  1.9239 -0.6577 -3.2861
  876SOL     OW 2626   0.978   0.613   2.617 -0.4223  0.5573  0.1378
  876SOL    HW1 2627   0.974   0.535   2.682 -0.9282 -2.3428 -3.1517
  876SOL    HW2 2628   1.009   0.699   2.664 -1.2806 -0.9126 -3.4407
  877SOL     OW 2629   3.041   3.009   1.368  0.1253  0.1617 -0.4005
  877SOL    HW1 2630   3.022   3.067   1.448 -0.4243  1.1202  0.2164
  877SOL    HW2 2631   3.024   3.065   1.286 -1.3611 -0.2874  2.2636
  878SOL     OW 2632   1.940   2.332   2.661  0.0306 -0.0846  0.5556
  878SOL    HW1 2633   1.858   2.391   2.686 -0.7624 -0.3710 -0.0475
  878SOL    HW2 2634   2.025   2.382   2.694  0.6551 -0.5628 -0.6768
  879SOL     OW 2635   2.258   1.839   1.827  0.1606 -0.1863 -0.8245
  879SOL    HW1 2636   2.161   1.862   1.827  2.0262 -0.6030 -0.1464
  879SOL    HW2 2637   2.270   1.748   1.856  0.7142  3.7246  1.3249
  880SOL     OW 2638   0.800   0.964   1.201 -0.0406  0.4043 -0.0157
  880SOL    HW1 2639   0.739   0.973   1.285 -1.1683 -0.6140  1.1022
  880SOL    HW2 2640   0.752   0.918   1.123  1.2169  0.0942  2.8203
  881SOL     OW 2641   1.143   1.761   0.140 -0.3048  0.2099 -0.0094
  881SOL    HW1 2642   1.210   1.797   0.070  1.0636  2.2850  0.2844
  881SOL    HW2 2643   1.187   1.686   0.196  2.4102 -4.2549  2.7739
  882SOL     OW 2644   1.683   0.196   1.288  0.3040 -0.1079  0.1579
  882SOL    HW1 2645   1.670   0.294   1.275 -2.1631  0.2534 -2.4260
  882SOL    HW2 2646   1.728   0.159   1.204 -2.2073  1.2942 -0.1450
  883SOL     OW 2647   1.719   0.731   2.189  0.3515 -0.5263  0.1999
  883SOL    HW1 2648   1.623   0.729   2.151 -0.8347  0.5736 -1.1850
  883SOL    HW2 2649   1.784   0.755   2.115 -0.8483 -0.0168 -1.3160
  884SOL     OW 2650   2.961   0.481   0.174 -0.2338  0.4068  0.2937
  884SOL    HW1 2651   2.946   0.469   0.074 -0.3260 -0.5397  1.0146
  884SOL    HW2 2652   2.878   0.469   0.236 -0.4282  0.7039 -0.9230
  885SOL     OW 2653   1.228   2.102   0.803  0.0894  0.1416 -0.3287
  885SOL    HW1 2654   1.219   2.198   0.765 -0.3063  0.6584  0.0390
  885SOL    HW2 2655   1.198   2.116   0.906 -1.7687 -0.6220  1.9350
  886SOL     OW 2656   1.323   1.216   2.827  0.2868  1.2162 -0.3736
  886SOL    HW1 2657   1.378   1.279   2.769  0.5229  2.6721  0.5414
  886SOL    HW2 2658   1.247   1.266   2.872  3.6286  0.9218  1.1166
  887SOL     OW 2659   1.648   0.244   1.756 -0.1946 -0.2564 -0.2087
  887SOL    HW1 2660   1.652   0.141   1.749 -0.2552  0.2958 -1.8213
  887SOL    HW2 2661   1.598   0.275   1.840 -2.5056  0.9035 -3.0720
  888SOL     OW 2662   2.735   1.536   1.664 -0.0079 -0.5238 -0.0413
  888SOL    HW1 2663   2.740   1.639   1.656 -0.4055  3.4549  1.0707
  888SOL    HW2 2664   2.753   1.487   1.583 -3.7498  1.6523  1.3948
  889SOL     OW 2665   2.861   2.514   0.947 -0.0832  0.1913  0.0935
  889SOL    HW1 2666   2.934   2.448   0.916  1.8256  1.5236 -1.5914
  889SOL    HW2 2667   2.770   2.496   0.905  0.2500 -0.0299 -0.5306
  890SOL     OW 2668   0.426   1.849   2.167 -0.1473  0.3935 -0.3027
  890SOL    HW1 2669   0.436   1.783   2.090  0.9403  0.0409  2.1576
  890SOL    HW2 2670   0.372   1.934   2.154  0.9858 -2.5492  0.6972
  891SOL     OW 2671   0.569   1.831   0.544  0.2192  0.7742 -0.1974
  891SOL    HW1 2672   0.613   1.864   0.458 -0.9023 -0.8000  1.4407
  891SOL    HW2 2673   0.562   1.729   0.552 -0.8917  0.3577 -0.3177
  892SOL     OW 2674   2.936   2.148   1.438 -0.2945 -0.2595  0.0639
  892SOL    HW1 2675   2.885   2.217   1.496 -0.2128  0.6486 -0.4993
  892SOL    HW2 2676   2.880   2.064   1.417 -0.8299 -0.6833 -2.4089
  893SOL     OW 2677   0.028   0.112   1.594  0.1399  0.1166 -0.2407
  893SOL    HW1 2678   0.026   0.181   1.521  1.0763 -0.4773  2.2764
  893SOL    HW2 2679   0.120   0.072   1.610  2.4799 -0.9479  0.7306
  894SOL     OW 2680   2.836   1.720   0.717 -0.2545 -0.4962  0.2524
  894SOL    HW1 2681   2.905   1.759   0.656 -2.2155  0.6971  2.7945
  894SOL    HW2 2682   2.766   1.665   0.670  0.6525  0.1726 -2.2168
  895SOL     OW 2683   1.473   2.363   1.388  0.1256 -0.9398  0.5965
  895SOL    HW1 2684   1.495   2.277   1.433  0.7611  2.9172 -0.7445
  895SOL    HW2 2685   1.531   2.374   1.303  3.4196 -0.4170 -1.4507
  896SOL     OW 2686   0.372   0.172   1.280  0.1357 -0.8256 -0.0855
  896SOL    HW1 2687   0.313   0.117   1.222  0.9392  2.3872 -0.6919
  896SOL    HW2 2688   0.334   0.268   1.284 -0.1391 -0.3664  1.5348
  897SOL     OW 2689   1.169   1.142   1.485 -0.3139  0.2844 -0.3414
  897SOL    HW1 2690   1.258   1.173   1.440  2.5233 -1.7152 -1.7523
  897SOL    HW2 2691   1.183   1.110   1.580 -1.2590 -1.5643  2.0154
  898SOL     OW 2692   0.715   0.241   1.514 -0.1116 -0.0839 -0.3267
  898SOL    HW1 2693   0.683   0.272   1.604 -2.1489 -3.3448 -0.9251
  898SOL    HW2 2694   0.778   0.309   1.474 -1.7914 -0.9437 -0.7735
  899SOL     OW 2695   1.454   0.186   0.147 -0.4553  0.2113 -0.7289
  899SOL    HW1 2696   1.541   0.164   0.103 -0.8005  1.3831  0.1525
  899SOL    HW2 2697   1.474   0.246   0.225  2.4456 -3.1364  0.3421
  900SOL     OW 2698   0.654   0.387   2.351  0.0056 -0.7097 -0.0957
  900SOL    HW1 2699   0.656   0.358   2.449  0.2761  0.7400 -0.2602
  900SOL    HW2 2700   0.575   0.339   2.313  1.0278  1.2671  2.0239
  901SOL     OW 2701   0.799   2.210   0.198  0.0917 -0.5109  0.0719
  901SOL    HW1 2702   0.806   2.122   0.249  3.2802 -0.1934 -2.2567
  901SOL    HW2 2703   0.868   2.277   0.236  3.0367  0.4923 -2.0203
  902SOL     OW 2704   1.806   0.246   0.878 -0.3627 -0.3243 -0.5915
  902SOL    HW1 2705   1.877   0.235   0.805  0.4228  2.1129 -0.3099
  902SOL    HW2 2706   1.836   0.210   0.962 -0.4564  0.3712 -0.1851
  903SOL     OW 2707   2.935   1.264   2.602 -0.2868  0.1763  0.0880
  903SOL    HW1 2708   2.883   1.324   2.664  0.6531  1.4841  0.5958
  903SOL    HW2 2709   2.918   1.282   2.503  0.5404 -1.8465 -2.0195
  904SOL     OW 2710   1.399   1.323   0.369 -0.2430  0.2550 -0.3324
  904SOL    HW1 2711   1.434   1.413   0.335 -0.3713 -1.7072 -0.9822
  904SOL    HW2 2712   1.424   1.302   0.467 -2.1193  2.6079 -0.2547
  905SOL     OW 2713   1.919   2.879   1.261 -0.4757 -0.1321  0.2785
  905SOL    HW1 2714   1.878   2.844   1.346 -0.6808  1.9061 -0.8297
  905SOL    HW2 2715   1.980   2.952   1.285 -0.4168 -0.6515  3.4667
  906SOL     OW 2716   2.032   2.830   1.028  0.3135 -0.0924  0.3357
  906SOL    HW1 2717   1.985   2.850   1.118 -3.4165  3.1569  2.7477
  906SOL    HW2 2718   2.103   2.757   1.033 -1.5370  1.5524  0.3628
  907SOL     OW 2719   1.977   1.039   0.359 -0.1165 -0.4112  0.2773
  907SOL    HW1 2720   2.064   1.028   0.406 -3.5866  2.1147 -1.1257
  907SOL    HW2 2721   1.970   0.970   0.284 -0.3990  1.2679  2.3732
  908SOL     OW 2722   1.734   0.494   1.335 -0.1788  0.0616 -0.1161
  908SOL    HW1 2723   1.672   0.533   1.265  2.9268  0.7708 -0.1481
  908SOL    HW2 2724   1.778   0.575   1.378  1.9399  0.5720  0.2181
  909SOL     OW 2725   2.416   3.035   0.725  0.5770 -0.1816  0.1935
  909SOL    HW1 2726   2.491   3.076   0.776 -2.3444 -1.1004 -0.1641
  909SOL    HW2 2727   2.321   3.071   0.748 -2.0542  0.3775  0.4779
  910SOL     OW 2728   2.331   0.616   2.147  0.1462  0.4227  0.2937
  910SOL    HW1 2729   2.361   0.643   2.051  1.7583  1.9609 -0.5944
  910SOL    HW2 2730   2.384   0.660   2.222  0.7471 -0.8645 -1.7328
  911SOL     OW 2731   2.453   0.071   2.697  0.3831 -0.5835 -0.7343
  911SOL    HW1 2732   2.397   0.126   2.769 -1.9643  0.1416  1.5726
  911SOL    HW2 2733   2.527   0.018   2.745 -0.2247  1.1320 -2.1969
  912SOL     OW 2734   0.644   0.787   1.366  0.8287 -0.2144  0.1784
  912SOL    HW1 2735   0.698   0.863   1.420  0.4863  0.7985  2.3355
  912SOL    HW2 2736   0.553   0.821   1.329 -1.1213  3.0159 -1.6389
  913SOL     OW 2737   2.938   2.243   1.197 -0.2573 -0.3890 -0.5333
  913SOL    HW1 2738   2.848   2.290   1.192  4.6204 -0.7881  0.7785
  913SOL    HW2 2739   2.953   2.209   1.293 -0.2835  0.8588 -2.9767
  914SOL     OW 2740   1.689   0.813   1.179  0.4455 -0.1016  0.5206
  914SOL    HW1 2741   1.758   0.815   1.254  0.8680  1.5868  0.1777
  914SOL    HW2 2742   1.636   0.728   1.182  0.6035  1.1082 -2.0935
  915SOL     OW 2743   0.112   1.608   1.279 -0.0853 -0.4050  0.2402
  915SOL    HW1 2744   0.208   1.650   1.281  1.6714 -0.6631  1.3177
  915SOL    HW2 2745   0.106   1.542   1.199  1.7028  2.1797 -2.1983
  916SOL     OW 2746   1.916   2.307   1.054 -0.2097  0.7358  0.1070
  916SOL    HW1 2747   1.990   2.373   1.042  0.6349 -1.5776  1.1516
  916SOL    HW2 2748   1.955   2.212   1.050 -1.4514  1.5474  0.4898
  917SOL     OW 2749   1.591   2.631   2.054  0.0479 -0.3232 -0.4486
  917SOL    HW1 2750   1.692   2.616   2.047  1.7541 -0.5184 -1.7023
  917SOL    HW2 2751   1.549   2.609   1.963 -3.0421  2.7146 -3.6129
  918SOL     OW 2752   1.930   1.973   2.443 -0.1995 -0.1539  0.4453
  918SOL    HW1 2753   1.867   2.053   2.444 -0.3861 -2.2699  0.6240
  918SOL    HW2 2754   2.011   1.987   2.502 -0.8531 -0.2612  1.5886
  919SOL     OW 2755   0.864   0.240   1.116  0.1714 -0.0788  0.0991
  919SOL    HW1 2756   0.770   0.198   1.122  1.5761 -0.8987  0.0264
  919SOL    HW2 2757   0.905   0.246   1.208 -1.1437 -4.4052 -1.7699
  920SOL     OW 2758   2.817   0.417   2.104 -0.1247 -0.5429  0.1250
  920SOL    HW1 2759   2.837   0.317   2.090 -1.7623  1.6753 -1.1905
  920SOL    HW2 2760   2.857   0.445   2.189  0.0408 -0.8494 -2.0531
  921SOL     OW 2761   2.742   1.094   1.495 -0.1530  0.9431  0.3518
  921SOL    HW1 2762   2.739   0.990   1.489  0.1686 -0.8438 -0.0654
  921SOL    HW2 2763   2.660   1.124   1.541  2.9101 -3.6945 -1.7412
  922SOL     OW 2764   2.730   2.226   0.758  0.0113  0.2298  0.2653
  922SOL    HW1 2765   2.671   2.304   0.792 -2.3813 -3.5592 -0.0778
  922SOL    HW2 2766   2.803   2.258   0.689 -0.0186 -0.0835 -1.1142
  923SOL     OW 2767   0.273   2.196   0.479  0.2172 -1.0083 -0.0827
  923SOL    HW1 2768   0.264   2.116   0.415  0.4575  0.3709  0.3792
  923SOL    HW2 2769   0.373   2.215   0.470 -0.6894 -2.9919 -1.4071
  924SOL     OW 2770   1.102   1.370   2.876  0.4299  0.2798  0.2742
  924SOL    HW1 2771   1.018   1.335   2.832 -0.5126 -1.3573  0.0370
  924SOL    HW2 2772   1.135   1.450   2.824  0.1795  1.1825  2.0588
  925SOL     OW 2773   2.850   1.323   0.860  0.3527 -0.0902  0.1847
  925SOL    HW1 2774   2.937   1.287   0.826  1.4490 -0.3732 -1.7039
  925SOL    HW2 2775   2.771   1.255   0.858  1.0249  0.8388  0.8958
  926SOL     OW 2776   0.170   0.070   0.878  0.0393  0.2203 -0.6329
  926SOL    HW1 2777   0.242   0.054   0.953  1.1756 -1.0920  1.9291
  926SOL    HW2 2778   0.084   0.041   0.928 -0.5977 -1.7514  0.1031
  927SOL     OW 2779   0.434   2.106   2.556  0.2493  0.1639 -0.1401
  927SOL    HW1 2780   0.340   2.091   2.597 -2.5465 -1.2161  1.2278
  927SOL    HW2 2781   0.459   2.029   2.498 -3.0404 -0.9687  0.8828
  928SOL     OW 2782   0.101   0.436   2.346  0.3826 -0.1863  1.0906
  928SOL    HW1 2783   0.117   0.423   2.445 -0.0616  0.4330 -2.0216
  928SOL    HW2 2784   0.014   0.481   2.333  2.9973 -0.6529  0.6483
  929SOL     OW 2785   2.671   1.929   1.107 -0.2050  0.2428  0.1485
  929SOL    HW1 2786   2.623   2.018   1.112 -0.5934 -0.0608  1.0357
  929SOL    HW2 2787   2.718   1.922   1.020 -0.5958 -0.4213  1.5484
  930SOL     OW 2788   1.706   0.467   2.271  0.3654  0.3304  0.1636
  930SOL    HW1 2789   1.701   0.422   2.362  0.1433  0.5197 -1.3349
  930SOL    HW2 2790   1.729   0.568   2.274 -1.0623 -1.3616  0.1161
  931SOL     OW 2791   2.281   1.198   0.000  0.3479  0.3151  0.0160
  931SOL    HW1 2792   2.181   1.218   0.018  3.0251 -0.8242 -0.7703
  931SOL    HW2 2793   2.285   1.188   2.981 -0.3449  0.3773 -1.9723
  932SOL     OW 2794   1.706   0.810   0.551 -0.2530  0.4155 -0.2070
  932SOL    HW1 2795   1.632   0.740   0.548  2.3389 -0.3451 -5.2565
  932SOL    HW2 2796   1.722   0.835   0.455 -0.2778 -1.3291  1.6190
  933SOL     OW 2797   2.216   1.132   0.697 -0.5252  0.0786 -0.0599
  933SOL    HW1 2798   2.289   1.124   0.625  0.8479 -0.3641  0.4444
  933SOL    HW2 2799   2.128   1.177   0.663 -2.4887  3.1581 -1.5198
  934SOL     OW 2800   2.234   1.116   2.772  0.3954 -0.1974 -0.0876
  934SOL    HW1 2801   2.185   1.207   2.768 -0.7040  0.0223  0.1637
  934SOL    HW2 2802   2.210   1.059   2.694  1.8371  0.8159  1.8839
  935SOL     OW 2803   0.112   1.414   1.060  0.1607 -0.7098  0.3069
  935SOL    HW1 2804   0.074   1.487   0.997  1.5671  1.5594  0.3089
  935SOL    HW2 2805   0.037   1.339   1.077 -1.1167 -0.3009 -0.3692
  936SOL     OW 2806   0.112   2.737   0.150  0.2000 -0.1406 -0.3124
  936SOL    HW1 2807   0.199   2.779   0.183 -2.3686  0.9928 -3.4953
  936SOL    HW2 2808   0.129   2.644   0.117 -0.5877  1.2154  3.2878
  937SOL     OW 2809   0.092   2.371   1.948  0.5352 -0.1707  0.9161
  937SOL    HW1 2810   0.078   2.451   1.886 -1.6079  0.7211  1.2720
  937SOL    HW2 2811   0.025   2.296   1.924 -0.9709 -1.1096  2.7998
  938SOL     OW 2812   2.464   2.214   0.136 -0.0171  0.0750  0.3084
  938SOL    HW1 2813   2.556   2.259   0.111  3.0663  2.2393 -2.7552
  938SOL    HW2 2814   2.431   2.179   0.050  1.0886  1.3607 -1.9945
  939SOL     OW 2815   1.056   0.560   1.388 -0.4746  0.0691 -0.2828
  939SOL    HW1 2816   1.083   0.561   1.487  1.5002 -1.9416 -1.2111
  939SOL    HW2 2817   0.974   0.619   1.369 -0.4666  1.5184  0.6918
  940SOL     OW 2818   2.406   2.782   2.842  0.1827 -0.2353 -0.2609
  940SOL    HW1 2819   2.368   2.850   2.913  0.1555  0.4991  2.4841
  940SOL    HW2 2820   2.450   2.704   2.889 -0.2699 -1.1047  4.7828
  941SOL     OW 2821   2.505   2.730   2.238 -0.1348 -0.1396  0.0885
  941SOL    HW1 2822   2.587   2.685   2.203  2.4158 -1.5133 -1.1253
  941SOL    HW2 2823   2.475   2.809   2.178  0.3610 -0.7917 -0.1433
  942SOL     OW 2824   1.434   0.163   1.370  0.0493  0.2021 -0.3652
  942SOL    HW1 2825   1.529   0.184   1.337 -0.0939  0.0409  3.6262
  942SOL    HW2 2826   1.360   0.220   1.334  1.1247 -1.6870  0.0492
  943SOL     OW 2827   0.814   1.488   2.435 -0.4514 -0.1692 -0.4615
  943SOL    HW1 2828   0.787   1.390   2.427  0.3899 -0.7193 -2.8666
  943SOL    HW2 2829   0.786   1.540   2.356 -2.9512  0.3255 -0.8920
  944SOL     OW 2830   2.765   0.750   1.193  0.3454  0.1917 -0.2132
  944SOL    HW1 2831   2.784   0.767   1.096  1.7955  2.7712 -0.9703
  944SOL    HW2 2832   2.663   0.749   1.212 -3.2553  0.7794  1.6914
  945SOL     OW 2833   2.908   0.144   2.767 -0.3237 -0.0576 -0.5276
  945SOL    HW1 2834   2.843   0.158   2.844 -0.6978  0.1063 -0.5426
  945SOL    HW2 2835   2.994   0.096   2.792 -0.6750  1.8208  0.2530
  946SOL     OW 2836   0.043   1.380   1.410 -0.8463  0.3361 -0.2506
  946SOL    HW1 2837   0.068   1.477   1.384  3.5116  2.5972 -2.9606
  946SOL    HW2 2838   0.009   1.328   1.333  0.2353  0.2323 -1.8607
  947SOL     OW 2839   0.801   0.323   2.908  0.2992  0.1198 -0.1456
  947SOL    HW1 2840   0.804   0.414   2.959 -2.4212  1.8885 -0.2184
  947SOL    HW2 2841   0.726   0.316   2.839 -0.0711 -1.1205 -0.9470
  948SOL     OW 2842   2.166   1.450   1.094 -0.3078  0.0631  0.4935
  948SOL    HW1 2843   2.158   1.488   1.187 -1.6915  0.7252  0.5771
  948SOL    HW2 2844   2.263   1.463   1.072 -1.2902  0.3946  0.9903
  949SOL     OW 2845   0.351   0.991   2.917  0.0965  0.7613 -0.2156
  949SOL    HW1 2846   0.299   1.000   3.007  2.8023  1.1710  1.4545
  949SOL    HW2 2847   0.291   0.970   2.835  0.1669 -2.3644 -1.8231
  950SOL     OW 2848   0.403   2.907   1.278  0.0916  0.2849 -0.1086
  950SOL    HW1 2849   0.323   2.902   1.339 -0.9215 -4.5167  0.4819
  950SOL    HW2 2850   0.482   2.894   1.344  2.3896 -1.3500  0.2034
  951SOL     OW 2851   0.889   1.802   2.760  0.1101 -0.0727 -0.2178
  951SOL    HW1 2852   0.899   1.785   2.860 -0.9913 -0.8745  0.0349
  951SOL    HW2 2853   0.943   1.886   2.730  1.0532  1.1241  0.3985
  952SOL     OW 2854   0.792   1.226   0.705  0.1297  0.2714 -0.4315
  952SOL    HW1 2855   0.847   1.140   0.699 -1.4102  0.2991 -2.4027
  952SOL    HW2 2856   0.800   1.267   0.620 -0.0789  0.1184  2.1618
  953SOL     OW 2857   2.096   1.697   2.785  0.2571  0.0837 -0.3265
  953SOL    HW1 2858   2.140   1.692   2.692  1.4804 -1.2911 -0.4520
  953SOL    HW2 2859   2.145   1.641   2.859 -0.9467 -2.4520 -0.6455
  954SOL     OW 2860   1.402   0.305   0.823 -0.2031  0.3690 -0.5545
  954SOL    HW1 2861   1.457   0.358   0.755 -1.0525 -0.5257  1.1388
  954SOL    HW2 2862   1.433   0.208   0.835 -1.5065  2.3378  1.1270
  955SOL     OW 2863   0.900   1.775   3.044  0.6791 -0.0042 -0.0896
  955SOL    HW1 2864   0.821   1.826   0.003 -1.6293  0.7512  1.1417
  955SOL    HW2 2865   0.972   1.774   0.033 -0.3588 -1.4069  1.7904
  956SOL     OW 2866   2.647   0.578   1.906 -0.2204  0.0774 -0.0286
  956SOL    HW1 2867   2.668   0.524   1.824 -0.3070  0.5263 -0.9012
  956SOL    HW2 2868   2.704   0.546   1.984 -0.8585 -0.7577  1.3621
  957SOL     OW 2869   1.813   2.075   2.128 -0.0196 -0.0132 -0.5940
  957SOL    HW1 2870   1.877   1.997   2.138  1.5536 -3.6707 -0.0186
  957SOL    HW2 2871   1.720   2.043   2.154  0.0795  0.7845  0.5974
  958SOL     OW 2872   1.614   1.052   1.271  0.2801 -0.5706  0.4496
  958SOL    HW1 2873   1.697   1.106   1.301  0.7039 -1.3316  0.7393
  958SOL    HW2 2874   1.638   0.969   1.219  0.2644  2.8992  0.1967
  959SOL     OW 2875   1.524   2.132   1.852 -0.7487  0.3273 -0.6117
  959SOL    HW1 2876   1.497   2.053   1.909 -1.0223  2.3022  2.9102
  959SOL    HW2 2877   1.492   2.219   1.890 -0.4409 -1.3007 -0.7281
  960SOL     OW 2878   0.566   0.989   2.680  0.6960  0.0069 -0.1308
  960SOL    HW1 2879   0.484   0.971   2.739 -2.8335 -2.2231  0.5933
  960SOL    HW2 2880   0.570   0.933   2.592 -1.5000  0.9024  0.1510
  961SOL     OW 2881   0.022   1.118   2.972  0.4525  0.4878  0.2677
  961SOL    HW1 2882   0.079   1.194   2.940 -0.1311 -0.5305 -1.9494
  961SOL    HW2 2883   3.009   1.140   3.003 -0.2215 -0.0676 -0.3523
  962SOL     OW 2884   0.968   2.133   3.030 -0.5188  0.6596 -0.1285
  962SOL    HW1 2885   1.070   2.147   3.043  3.5899  0.7850 -2.1402
  962SOL    HW2 2886   0.922   2.148   0.038 -0.2223 -0.6786  0.7055
  963SOL     OW 2887   2.858   1.601   0.121 -0.7191 -0.1399  0.3559
  963SOL    HW1 2888   2.938   1.588   0.060  0.7016 -1.0437  3.7487
  963SOL    HW2 2889   2.809   1.689   0.102  1.3325 -1.9854 -0.8033
  964SOL     OW 2890   0.743   2.184   2.236  0.1323 -0.8871  0.0629
  964SOL    HW1 2891   0.843   2.173   2.252  0.5243  0.3451  1.2789
  964SOL    HW2 2892   0.726   2.284   2.258 -0.1972  0.3662 -0.0510
  965SOL     OW 2893   1.425   1.707   1.351 -0.5810  0.7509 -0.1047
  965SOL    HW1 2894   1.434   1.620   1.299 -2.6358  0.8893  0.3995
  965SOL    HW2 2895   1.469   1.714   1.441 -1.3562  0.1155 -0.6260
  966SOL     OW 2896   2.997   1.596   0.352  0.5636  0.4931  0.2657
  966SOL    HW1 2897   3.072   1.528   0.363  0.3675  0.4050 -1.9990
  966SOL    HW2 2898   2.941   1.579   0.269  2.6441 -3.4554  1.7119
  967SOL     OW 2899   1.856   2.740   2.345  0.9147  0.1331 -1.0318
  967SOL    HW1 2900   1.861   2.841   2.329 -1.3728  0.5481  1.6693
  967SOL    HW2 2901   1.817   2.696   2.262 -0.1846  0.8894  1.3042
  968SOL     OW 2902   1.545   1.393   2.765  0.7284  0.0675  0.5581
  968SOL    HW1 2903   1.645   1.389   2.745 -0.4833  1.5755  0.6746
  968SOL    HW2 2904   1.530   1.421   2.860 -0.3286 -1.4546 -2.2482
  969SOL     OW 2905   0.093   1.149   2.285  0.2599  0.4714  0.6160
  969SOL    HW1 2906   0.019   1.096   2.239 -0.7911  1.3058  0.0708
  969SOL    HW2 2907   0.185   1.140   2.240  1.1129  2.5001 -0.8224
  970SOL     OW 2908   2.732   2.920   0.399 -0.4116  0.0916 -0.5478
  970SOL    HW1 2909   2.777   2.833   0.364  0.4966  3.4324 -0.6916
  970SOL    HW2 2910   2.681   2.964   0.321 -0.9588 -1.2855  3.0145
  971SOL     OW 2911   2.071   1.879   0.820  0.2326 -0.0002 -0.0330
  971SOL    HW1 2912   2.166   1.919   0.801  0.6297  0.6086  1.7194
  971SOL    HW2 2913   2.081   1.777   0.833  0.5963 -1.2397  0.3258
  972SOL     OW 2914   0.273   1.531   2.739 -0.0667 -0.5741  0.0015
  972SOL    HW1 2915   0.283   1.562   2.640 -0.6253 -1.6449 -0.5028
  972SOL    HW2 2916   0.321   1.598   2.805  1.9431  1.2527  0.7164
  973SOL     OW 2917   0.822   0.378   0.352 -0.0433  0.3198 -0.2289
  973SOL    HW1 2918   0.772   0.291   0.372 -1.1300  0.5624 -0.0399
  973SOL    HW2 2919   0.797   0.406   0.260 -3.3695  1.2539 -1.1015
  974SOL     OW 2920   2.211   0.778   1.625 -0.2514  0.1802  0.0616
  974SOL    HW1 2921   2.201   0.689   1.675 -1.5654 -2.2247 -2.2991
  974SOL    HW2 2922   2.313   0.803   1.628 -0.5937  0.6392  3.4202
  975SOL     OW 2923   0.278   0.041   0.474  0.1461 -0.1840 -0.1587
  975SOL    HW1 2924   0.367   3.078   0.482 -1.3621  0.7299 -0.2039
  975SOL    HW2 2925   0.212   3.064   0.529  0.1619  0.5664  0.5057
  976SOL     OW 2926   0.622   1.447   1.414 -0.0748  0.0618 -0.3932
  976SOL    HW1 2927   0.617   1.361   1.358 -3.2782 -0.5967 -2.6923
  976SOL    HW2 2928   0.650   1.519   1.354 -0.6907 -0.5265  1.0152
  977SOL     OW 2929   1.237   2.049   0.330 -0.1981  0.5021 -0.0830
  977SOL    HW1 2930   1.325   2.040   0.280  0.2897  0.6473 -0.3502
  977SOL    HW2 2931   1.211   2.146   0.333  2.1143  1.6009 -1.6332
  978SOL     OW 2932   0.217   1.024   0.081  0.5806 -0.1545 -0.4180
  978SOL    HW1 2933   0.131   1.059   0.033 -0.5960 -1.3073 -1.2207
  978SOL    HW2 2934   0.253   1.098   0.142  0.3583 -1.4532 -1.2438
  979SOL     OW 2935   1.955   1.290   0.250 -0.0595 -0.0470  0.2776
  979SOL    HW1 2936   2.055   1.316   0.266  2.3865 -2.2295 -1.1381
  979SOL    HW2 2937   1.919   1.227   0.322  0.2065 -1.7263 -1.9056
  980SOL     OW 2938   0.639   1.895   1.555 -0.5245  0.1138 -0.2805
  980SOL    HW1 2939   0.615   1.994   1.580 -0.7334  3.3243 -0.3835
  980SOL    HW2 2940   0.589   1.859   1.475 -5.3017 -0.1451  1.7581
  981SOL     OW 2941   2.468   1.510   2.658 -0.1783  0.4036 -0.2177
  981SOL    HW1 2942   2.536   1.498   2.734 -0.0924  2.6040  2.0764
  981SOL    HW2 2943   2.388   1.449   2.664  0.7140 -0.6311 -0.9579
  982SOL     OW 2944   0.391   2.035   1.735 -0.2471  0.1501  0.3106
  982SOL    HW1 2945   0.361   2.117   1.685  2.8326  0.9625  1.3008
  982SOL    HW2 2946   0.489   2.051   1.774  0.8217  3.1352 -1.6337
  983SOL     OW 2947   1.471   0.029   2.013 -0.7533  0.2636 -0.4327
  983SOL    HW1 2948   1.385   0.018   1.963  2.5558 -0.9613  0.4475
  983SOL    HW2 2949   1.472   0.109   2.073 -0.9467  2.0392 -2.0104
  984SOL     OW 2950   0.004   3.016   2.793  0.3893 -0.3293  0.2997
  984SOL    HW1 2951   0.034   2.997   2.887  1.7098 -0.7444 -1.5958
  984SOL    HW2 2952   0.078   2.996   2.728  0.8941  0.4702  1.9174
  985SOL     OW 2953   1.585   1.372   2.023  0.2561 -0.3651 -0.1146
  985SOL    HW1 2954   1.619   1.351   1.929 -0.0807  0.1740  0.9334
  985SOL    HW2 2955   1.500   1.316   2.038  0.0432  3.6507 -0.8100
  986SOL     OW 2956   1.825   0.535   2.973 -0.8815  0.1288 -0.2888
  986SOL    HW1 2957   1.920   0.506   3.000 -1.3970 -0.8866  1.9820
  986SOL    HW2 2958   1.790   0.490   2.887  0.6185  0.4042  0.4486
  987SOL     OW 2959   0.102   1.793   2.450  0.2618 -0.6915  0.0072
  987SOL    HW1 2960   0.063   1.813   2.544 -0.3900  1.8701  0.0827
  987SOL    HW2 2961   0.040   1.736   2.396 -2.7347  0.6114  1.4729
  988SOL     OW 2962   2.814   0.110   1.340  0.5215  0.1659  0.8918
  988SOL    HW1 2963   2.874   0.116   1.255  0.5778 -2.5393  0.3213
  988SOL    HW2 2964   2.747   0.032   1.343  1.2999  1.7238  3.0603
  989SOL     OW 2965   1.844   0.046   1.089 -0.3177  0.0044  0.0276
  989SOL    HW1 2966   1.794   3.049   1.045  0.7330 -2.5165  0.4985
  989SOL    HW2 2967   1.911   0.009   1.162  3.6263 -3.2905  3.8425
  990SOL     OW 2968   2.660   0.718   0.154 -0.3971 -0.2209  0.0254
  990SOL    HW1 2969   2.696   0.670   0.070  1.4190 -1.1846  0.1912
  990SOL    HW2 2970   2.639   0.817   0.140  2.6258  0.5251 -3.1373
  991SOL     OW 2971   0.372   1.139   0.559 -0.6049  0.2374 -0.0298
  991SOL    HW1 2972   0.273   1.166   0.566 -0.7643 -0.5311  1.3687
  991SOL    HW2 2973   0.423   1.177   0.638  0.5161  1.7849 -1.7575
  992SOL     OW 2974   1.936   1.481   1.809 -0.4037  0.1529  0.3150
  992SOL    HW1 2975   1.953   1.547   1.883  0.5024 -0.0180 -0.5656
  992SOL    HW2 2976   2.023   1.432   1.779  0.4588 -2.6598 -2.2326
  993SOL     OW 2977   0.287   2.190   0.747 -0.0254  0.2055  0.6323
  993SOL    HW1 2978   0.368   2.137   0.779  2.2785  1.5670 -0.3666
  993SOL    HW2 2979   0.281   2.196   0.644 -0.7962  1.0078 -0.8265
  994SOL     OW 2980   3.063   1.841   1.609  0.1086 -0.7236  0.1784
  994SOL    HW1 2981   2.979   1.836   1.552  2.8326 -0.9241  3.5914
  994SOL    HW2 2982   0.049   1.766   1.592  0.5303  3.1526 -1.7032
  995SOL     OW 2983   1.837   1.675   2.789 -0.1800 -0.0707  1.1835
  995SOL    HW1 2984   1.793   1.733   2.718  0.4993 -0.9714 -1.2885
  995SOL    HW2 2985   1.934   1.684   2.795 -1.5169 -2.6775  0.7740
  996SOL     OW 2986   1.977   2.294   0.406  0.3884 -0.2167 -0.0395
  996SOL    HW1 2987   1.886   2.244   0.415 -0.6660 -1.1438 -0.9185
  996SOL    HW2 2988   2.030   2.279   0.489  0.0710 -0.5467 -4.5783
  997SOL     OW 2989   1.244   1.638   2.144 -0.1389  0.3551 -0.2937
  997SOL    HW1 2990   1.239   1.655   2.247  3.8730  3.3267  1.3951
  997SOL    HW2 2991   1.151   1.614   2.102 -0.3648 -2.2816  0.0766
  998SOL     OW 2992   0.056   2.380   0.525  0.1667 -0.1691 -0.1632
  998SOL    HW1 2993   0.019   2.414   0.439  1.8298 -0.8069  0.5674
  998SOL    HW2 2994   0.131   2.308   0.516 -0.1597 -3.0143 -0.7180
  999SOL     OW 2995   0.711   2.971   0.206 -0.0970  0.2616  0.3717
  999SOL    HW1 2996   0.682   2.870   0.220  0.3246  1.7556  4.8941
  999SOL    HW2 2997   0.752   2.992   0.117 -0.7667 -0.1847  0.0782
 1000SOL     OW 2998   1.181   0.203   0.038 -0.2134 -0.5281  0.1401
 1000SOL    HW1 2999   1.203   0.228   3.022 -0.3317  1.6779 -2.6180
 1000SOL    HW2 3000   1.265   0.222   0.096  1.5053  2.8615  0.3663
   3.08135   3.08135   3.08135
