1000 SPC/Fw water molecules t=  84.00000 step= 84000
 3000
    1SOL     OW    1   1.997   2.679   0.735 -0.2795  0.3235  0.3662
    1SOL    HW1    2   1.992   2.588   0.692 -0.5420  2.5982  0.4600
    1SOL    HW2    3   2.023   2.747   0.665  1.5096  2.0327  1.5847
    2SOL     OW    4   0.770   1.194   2.155  0.7014 -0.5033 -0.6881
    2SOL    HW1    5   0.829   1.171   2.233  0.3047 -2.5275  0.0030
    2SOL    HW2    6   0.712   1.272   2.183 -0.6807  0.5466  1.7282
    3SOL     OW    7   1.424   2.772   2.524 -0.4892 -0.5368  0.5364
    3SOL    HW1    8   1.332   2.803   2.561  0.2211  0.4542 -1.0629
    3SOL    HW2    9   1.431   2.670   2.529  0.7443 -1.9222  0.5065
    4SOL     OW   10   1.201   1.822   2.810 -0.3330 -0.2310 -0.4102
    4SOL    HW1   11   1.242   1.876   2.734  2.6432 -1.7718  0.9664
    4SOL    HW2   12   1.272   1.813   2.880 -0.7581 -0.3952 -2.4649
    5SOL     OW   13   0.566   0.886   1.862  0.0416 -0.2575  0.1564
    5SOL    HW1   14   0.529   0.900   1.766 -0.1409 -0.8274 -1.5835
    5SOL    HW2   15   0.626   0.964   1.890  1.4480  2.7260  2.8100
    6SOL     OW   16   1.869   0.410   2.598 -0.1556  0.2872  0.5426
    6SOL    HW1   17   1.861   0.461   2.510 -0.3144  2.1845 -0.0939
    6SOL    HW2   18   1.823   0.450   2.675  2.4173 -2.4637 -0.7866
    7SOL     OW   19   0.278   0.219   1.613  0.3730  0.2574  0.3860
    7SOL    HW1   20   0.265   0.320   1.604 -0.5378 -2.4294  1.2007
    7SOL    HW2   21   0.207   0.180   1.673 -0.9421  0.3491 -1.7586
    8SOL     OW   22   1.838   0.145   1.884 -0.0682  0.1597 -1.0351
    8SOL    HW1   23   1.858   0.195   1.802  1.1227 -0.4609  1.4247
    8SOL    HW2   24   1.898   0.064   1.886 -0.0662  0.0035  0.7349
    9SOL     OW   25   0.384   0.028   0.637 -0.1584 -0.2281 -0.0260
    9SOL    HW1   26   0.404   0.030   0.741  2.1225  0.5109  2.5878
    9SOL    HW2   27   0.284   0.009   0.619  0.5424  1.8238 -1.3761
   10SOL     OW   28   0.481   2.198   2.360  0.1506 -0.0714  0.1471
   10SOL    HW1   29   0.583   2.207   2.376 -1.7636  2.1810  1.1973
   10SOL    HW2   30   0.446   2.255   2.284 -3.4437  0.1447 -2.9493
   11SOL     OW   31   0.594   1.410   0.057 -0.3049  0.1024 -0.1240
   11SOL    HW1   32   0.652   1.428   3.074  5.2049  0.7520  0.5864
   11SOL    HW2   33   0.648   1.347   0.113  0.4827 -1.4554 -4.0180
   12SOL     OW   34   2.926   2.803   1.385  1.1020 -0.4726  0.1330
   12SOL    HW1   35   2.917   2.881   1.320 -0.1683 -1.8999  1.3132
   12SOL    HW2   36   2.959   2.724   1.336 -3.0365  2.0651 -0.4641
   13SOL     OW   37   0.976   2.922   0.491 -0.1406  0.5023  0.3113
   13SOL    HW1   38   0.904   2.862   0.453 -0.4768  1.4995  2.2053
   13SOL    HW2   39   0.946   3.007   0.535 -1.0204 -0.1184  1.1917
   14SOL     OW   40   1.696   1.554   1.216  0.0503  0.0598  0.2149
   14SOL    HW1   41   1.615   1.616   1.226  1.1225 -2.2061  1.1001
   14SOL    HW2   42   1.683   1.468   1.270 -0.9366  1.1419 -1.6685
   15SOL     OW   43   3.028   1.664   2.446 -0.1550 -0.2150  0.2258
   15SOL    HW1   44   2.933   1.632   2.471 -2.3356 -0.1986  0.0722
   15SOL    HW2   45   3.074   1.717   2.521 -1.6061 -1.5691 -0.7376
   16SOL     OW   46   1.573   0.601   2.698  0.8274 -0.0713  0.2318
   16SOL    HW1   47   1.646   0.611   2.764  1.6530 -1.4297  2.0299
   16SOL    HW2   48   1.485   0.642   2.723  0.1267 -0.0537  0.7938
   17SOL     OW   49   0.111   2.325   2.403 -0.1080 -0.2416  0.1971
   17SOL    HW1   50   0.128   2.352   2.500  0.4697  0.5868  0.4007
   17SOL    HW2   51   0.080   2.230   2.401 -0.4062  1.8845  1.7708
   18SOL     OW   52   1.005   1.288   0.613  0.3766  0.5077 -0.2112
   18SOL    HW1   53   1.037   1.369   0.666 -0.4679  1.2293 -0.9449
   18SOL    HW2   54   1.050   1.202   0.649 -0.5152  0.8651 -1.4154
   19SOL     OW   55   2.785   1.559   2.566  0.1222 -0.0395 -0.2769
   19SOL    HW1   56   2.843   1.546   2.649 -2.7143 -1.4183  0.2452
   19SOL    HW2   57   2.699   1.607   2.594  0.2503  0.0554  0.1070
   20SOL     OW   58   2.464   2.253   2.540  0.1446 -0.4182 -0.4665
   20SOL    HW1   59   2.481   2.222   2.445  0.5326 -1.5658  2.5592
   20SOL    HW2   60   2.473   2.353   2.549  0.0351 -1.1138 -1.8275
   21SOL     OW   61   1.423   1.926   0.231  0.0735  0.1627  0.0401
   21SOL    HW1   62   1.391   1.829   0.216 -1.0792  1.9171 -0.8264
   21SOL    HW2   63   1.484   1.925   0.314  0.3289 -0.4191  3.9492
   22SOL     OW   64   2.240   2.564   1.366 -0.0876 -0.3836 -0.4651
   22SOL    HW1   65   2.216   2.529   1.462  2.8045 -0.9581 -0.4193
   22SOL    HW2   66   2.166   2.556   1.297 -0.5184 -0.6022 -1.0606
   23SOL     OW   67   0.094   1.165   1.237  0.0555 -0.1539 -0.3351
   23SOL    HW1   68   0.114   1.075   1.199 -0.8292 -0.8068 -0.1566
   23SOL    HW2   69   0.103   1.175   1.341 -0.0719  2.4451  3.2384
   24SOL     OW   70   2.363   1.779   2.310 -0.1926 -0.4852 -0.1751
   24SOL    HW1   71   2.329   1.775   2.407  3.7088 -0.7814 -0.5732
   24SOL    HW2   72   2.352   1.870   2.268  0.2750  2.1072  1.0351
   25SOL     OW   73   1.994   0.432   2.171  0.1905 -0.2408 -0.5134
   25SOL    HW1   74   2.082   0.483   2.160  1.2839 -0.9450 -0.6549
   25SOL    HW2   75   1.944   0.417   2.082 -2.4219  1.4525  0.2482
   26SOL     OW   76   1.336   0.201   0.381  0.3259  0.1824 -0.2608
   26SOL    HW1   77   1.357   0.268   0.309  0.0911  1.0072  0.0482
   26SOL    HW2   78   1.387   0.229   0.466  3.3020 -1.3142  0.4056
   27SOL     OW   79   0.804   1.578   0.420 -0.2448  0.4420 -0.1666
   27SOL    HW1   80   0.754   1.655   0.382 -1.3541 -2.1842 -0.0953
   27SOL    HW2   81   0.733   1.514   0.459 -1.8464  0.6004 -0.0698
   28SOL     OW   82   2.394   2.099   1.001  0.1799 -0.1472  0.5292
   28SOL    HW1   83   2.493   2.073   1.024  0.8161 -0.4676  1.3709
   28SOL    HW2   84   2.322   2.065   1.070 -0.7509 -0.8162 -0.3119
   29SOL     OW   85   2.261   3.009   1.642  0.2981 -0.3153 -0.3803
   29SOL    HW1   86   2.250   2.923   1.589 -1.6895 -0.7096  1.8000
   29SOL    HW2   87   2.327   3.001   1.718  0.5062 -0.5480 -1.5879
   30SOL     OW   88   0.996   3.049   1.216  0.2448  0.1903  0.3316
   30SOL    HW1   89   1.093   3.044   1.182  2.5132 -0.3728 -0.4618
   30SOL    HW2   90   0.950   2.969   1.179  2.4300 -1.2045  3.7095
   31SOL     OW   91   3.043   2.111   1.737  0.4563 -0.3852 -0.0780
   31SOL    HW1   92   3.053   2.014   1.767 -0.5114  1.8904  0.7194
   31SOL    HW2   93   3.085   2.173   1.804  0.0382 -0.1816 -1.1188
   32SOL     OW   94   1.397   1.582   1.841  0.1515  0.3141  0.2251
   32SOL    HW1   95   1.300   1.623   1.839 -1.8781  0.1944  0.1876
   32SOL    HW2   96   1.461   1.649   1.890 -0.9108  3.3857  1.9971
   33SOL     OW   97   0.279   0.323   2.991  0.2508 -0.4140  0.3898
   33SOL    HW1   98   0.369   0.342   3.036 -3.0077 -0.2867  0.3552
   33SOL    HW2   99   0.281   0.233   2.949  0.1437 -0.3994 -1.8618
   34SOL     OW  100   2.390   3.087   0.584 -0.2855 -0.1114 -0.7268
   34SOL    HW1  101   2.357   0.035   0.664 -0.3461 -1.2225  1.0068
   34SOL    HW2  102   2.347   2.994   0.586  0.9286  0.8303 -0.7803
   35SOL     OW  103   2.675   0.180   1.419  0.1702 -0.5324 -0.3541
   35SOL    HW1  104   2.689   0.224   1.511 -1.1568  1.7852  2.4171
   35SOL    HW2  105   2.584   0.133   1.418 -1.2729 -0.6201  0.4775
   36SOL     OW  106   2.675   2.745   2.702  0.1496  0.2517 -0.5487
   36SOL    HW1  107   2.593   2.802   2.718  0.1121 -0.6851  1.7909
   36SOL    HW2  108   2.735   2.781   2.629 -1.4533 -0.6746  1.0137
   37SOL     OW  109   1.658   2.627   2.807 -0.6836  0.3074  0.1631
   37SOL    HW1  110   1.683   2.725   2.828 -1.4825  0.8165  1.6249
   37SOL    HW2  111   1.557   2.612   2.820  0.8625  0.7171 -0.7785
   38SOL     OW  112   2.878   0.942   2.980 -0.1238 -0.1435 -0.7183
   38SOL    HW1  113   2.933   0.854   2.984  1.9062  0.3769 -0.4767
   38SOL    HW2  114   2.858   0.985   3.071 -0.1683  1.4975 -2.2806
   39SOL     OW  115   1.785   1.742   2.047 -0.6487 -0.1331 -0.6920
   39SOL    HW1  116   1.768   1.803   2.129  0.7471 -1.2065  3.5889
   39SOL    HW2  117   1.821   1.659   2.092  1.3989  1.9758 -0.4840
   40SOL     OW  118   0.454   0.245   2.691 -0.1946 -0.3434  0.1800
   40SOL    HW1  119   0.389   0.177   2.726  2.6356  0.8083 -0.8880
   40SOL    HW2  120   0.539   0.252   2.743 -2.2281 -1.2417 -1.4730
   41SOL     OW  121   1.764   1.428   1.770 -0.0594  0.1673 -0.8654
   41SOL    HW1  122   1.678   1.449   1.718 -0.6805 -1.7429  2.2318
   41SOL    HW2  123   1.752   1.338   1.826 -0.9993 -1.3713  1.8636
   42SOL     OW  124   0.103   0.137   1.811  0.0875 -0.2492  0.6834
   42SOL    HW1  125   0.083   0.198   1.889 -0.7256  0.5736 -2.9022
   42SOL    HW2  126   0.155   0.053   1.834 -0.3020  1.4340 -1.1766
   43SOL     OW  127   1.365   1.401   2.061  0.4228  0.3675  0.4226
   43SOL    HW1  128   1.390   1.304   2.054 -0.4846  0.3146 -3.3385
   43SOL    HW2  129   1.377   1.454   1.974 -0.5417  1.7067 -2.2140
   44SOL     OW  130   3.069   0.182   3.089 -0.1257  0.3464  0.0993
   44SOL    HW1  131   3.045   0.198   2.989  0.9557  0.2853 -1.9245
   44SOL    HW2  132   2.978   0.160   0.032 -0.5921 -0.7798 -1.9992
   45SOL     OW  133   0.478   2.152   1.276  0.3894  0.3199 -0.3468
   45SOL    HW1  134   0.505   2.176   1.376  0.7306  1.5160  1.7426
   45SOL    HW2  135   0.501   2.049   1.256 -0.4291  0.2815  0.4137
   46SOL     OW  136   2.420   2.542   1.737 -0.7591  0.3486 -0.1255
   46SOL    HW1  137   2.458   2.534   1.834 -0.3903  0.1474 -0.7046
   46SOL    HW2  138   2.508   2.545   1.681  4.0823  0.9118  0.1361
   47SOL     OW  139   0.612   1.723   1.381 -0.0296 -0.0624 -0.3639
   47SOL    HW1  140   0.640   1.641   1.330  1.7085 -1.6975  2.6196
   47SOL    HW2  141   0.526   1.757   1.343  0.1584 -0.9272  0.2984
   48SOL     OW  142   0.603   2.675   0.363 -0.0321  0.5080  0.9240
   48SOL    HW1  143   0.558   2.684   0.455  0.2129 -0.0415  2.0154
   48SOL    HW2  144   0.544   2.721   0.297  1.2648 -1.6309 -0.3949
   49SOL     OW  145   2.818   1.718   1.974 -0.7380 -0.2338 -0.0405
   49SOL    HW1  146   2.851   1.682   2.064  0.9891  0.8572  1.0461
   49SOL    HW2  147   2.774   1.650   1.910 -0.9394 -1.2312 -1.7059
   50SOL     OW  148   1.650   0.993   0.709  0.0113 -0.1793 -0.2642
   50SOL    HW1  149   1.681   0.901   0.676  0.5424 -2.9660 -0.8560
   50SOL    HW2  150   1.680   0.999   0.808 -1.0811  0.1746  2.9388
   51SOL     OW  151   1.040   0.759   0.985  0.4668  0.2664  0.2815
   51SOL    HW1  152   1.067   0.788   1.079  0.2564  2.1237 -0.6250
   51SOL    HW2  153   0.987   0.671   0.987 -3.5513  1.5767 -1.4820
   52SOL     OW  154   1.006   1.489   0.223 -0.1904 -0.4350 -0.0446
   52SOL    HW1  155   1.076   1.434   0.268 -1.7945  2.5818 -1.7138
   52SOL    HW2  156   0.930   1.511   0.283  0.9457 -2.1342 -1.7565
   53SOL     OW  157   1.251   3.098   2.670  0.2999  0.0140 -0.2291
   53SOL    HW1  158   1.333   0.041   2.701 -1.2762  0.3777 -2.4915
   53SOL    HW2  159   1.173   0.059   2.660 -1.5419 -4.5206  1.3977
   54SOL     OW  160   1.719   1.002   1.695  0.1289  0.5234  0.0709
   54SOL    HW1  161   1.662   0.946   1.629 -0.1631 -0.8521 -0.9880
   54SOL    HW2  162   1.795   1.032   1.643 -3.5556 -1.0493  2.0823
   55SOL     OW  163   2.886   2.566   0.405  0.5788 -0.2014 -0.0528
   55SOL    HW1  164   2.978   2.562   0.447 -2.2075  0.9197  0.8124
   55SOL    HW2  165   2.813   2.572   0.477 -3.8036  0.8134  1.3373
   56SOL     OW  166   0.724   2.554   1.924  0.2379  0.0157 -0.4187
   56SOL    HW1  167   0.630   2.523   1.904 -0.4953 -1.6246  1.0455
   56SOL    HW2  168   0.753   2.644   1.879  0.2796 -0.6498  0.4771
   57SOL     OW  169   1.809   1.055   2.698 -0.5503 -0.6031 -0.2686
   57SOL    HW1  170   1.812   0.988   2.774 -0.0284 -0.6470 -1.6452
   57SOL    HW2  171   1.744   1.028   2.625  1.9232  0.4336  3.7635
   58SOL     OW  172   0.226   1.261   1.924  0.4578 -0.2035 -0.6705
   58SOL    HW1  173   0.237   1.190   1.851 -1.3480  2.5341 -2.0130
   58SOL    HW2  174   0.259   1.350   1.888  0.1158  0.0461  1.2009
   59SOL     OW  175   0.532   2.743   2.311 -0.7687 -0.1318 -0.1072
   59SOL    HW1  176   0.614   2.757   2.256 -0.8288 -2.2213  1.7268
   59SOL    HW2  177   0.557   2.675   2.384  1.5484  0.9176  1.8550
   60SOL     OW  178   2.790   2.343   0.286  0.0999 -0.0314  0.1077
   60SOL    HW1  179   2.818   2.426   0.332 -0.8653 -1.2501 -2.8751
   60SOL    HW2  180   2.709   2.365   0.228  1.2708 -3.9922  0.6432
   61SOL     OW  181   0.923   2.663   0.621  0.1174  0.1737 -0.1939
   61SOL    HW1  182   0.960   2.575   0.598 -2.1421 -0.3330 -1.3431
   61SOL    HW2  183   0.976   2.736   0.581 -2.6475 -3.5352  3.5515
   62SOL     OW  184   1.851   2.562   2.614 -0.1115  0.7181  0.4909
   62SOL    HW1  185   1.831   2.494   2.541  0.3829  0.6130 -2.5228
   62SOL    HW2  186   1.767   2.594   2.659  0.6332 -0.7053 -2.2617
   63SOL     OW  187   2.151   0.608   0.155  0.3713  0.4067  0.2664
   63SOL    HW1  188   2.118   0.630   0.058 -0.4615 -0.0088 -3.1667
   63SOL    HW2  189   2.249   0.633   0.170  2.4007  0.4799 -2.8146
   64SOL     OW  190   0.685   1.548   2.493  0.2381 -0.1941  0.5147
   64SOL    HW1  191   0.607   1.485   2.510  0.6698  1.4168 -0.1055
   64SOL    HW2  192   0.716   1.589   2.581 -1.2388 -3.0736  0.0739
   65SOL     OW  193   1.246   3.015   1.089  0.0754 -0.5694 -0.8265
   65SOL    HW1  194   1.327   3.070   1.113 -2.7688 -1.0617  1.7036
   65SOL    HW2  195   1.240   2.993   0.990  0.1464  0.6546  1.2438
   66SOL     OW  196   0.334   1.748   1.670  0.5503  0.1987 -0.0013
   66SOL    HW1  197   0.436   1.742   1.670  0.1815 -3.1882 -1.6111
   66SOL    HW2  198   0.304   1.841   1.705  0.1588  1.0203 -0.8817
   67SOL     OW  199   2.293   2.859   2.109 -0.0607 -0.7549  0.0133
   67SOL    HW1  200   2.371   2.801   2.143  2.7255 -0.8380 -0.2971
   67SOL    HW2  201   2.265   2.934   2.170  0.5884 -2.0408  0.3473
   68SOL     OW  202   0.828   1.021   1.703  0.2221  0.1973 -0.0651
   68SOL    HW1  203   0.781   1.059   1.786 -0.8701  0.7247 -1.5976
   68SOL    HW2  204   0.762   0.956   1.651 -2.5576 -3.0841 -0.7137
   69SOL     OW  205   2.613   2.372   0.093  0.3102  0.4446 -0.3952
   69SOL    HW1  206   2.550   2.439   0.139 -1.4274  2.1140  0.1107
   69SOL    HW2  207   2.559   2.285   0.069 -1.9645 -2.3227 -2.2481
   70SOL     OW  208   2.192   0.882   2.858 -0.7876 -0.2714 -0.4510
   70SOL    HW1  209   2.294   0.872   2.848 -1.2555 -1.3018 -0.8384
   70SOL    HW2  210   2.141   0.906   2.777  0.8422 -1.4675  0.4004
   71SOL     OW  211   0.104   2.236   0.436 -0.0086  0.6638 -0.3028
   71SOL    HW1  212   0.031   2.181   0.480 -1.7891 -0.9518  1.1010
   71SOL    HW2  213   0.185   2.174   0.438 -0.1788  0.3600 -1.5675
   72SOL     OW  214   2.890   1.801   0.537  0.2981  0.4118 -0.0579
   72SOL    HW1  215   2.961   1.859   0.577 -1.2769  0.3115 -1.0293
   72SOL    HW2  216   2.906   1.705   0.559 -0.3728  0.4648 -2.7625
   73SOL     OW  217   0.889   0.676   0.632  0.5506  0.8596 -0.0856
   73SOL    HW1  218   0.837   0.691   0.545  2.3092  1.8987  4.0350
   73SOL    HW2  219   0.916   0.756   0.683 -0.0689  0.5688 -0.3399
   74SOL     OW  220   0.084   1.906   2.006  0.1805 -0.6367  0.0794
   74SOL    HW1  221   0.101   1.877   2.102  1.3479  1.1236 -0.0839
   74SOL    HW2  222   0.149   1.983   1.984  3.0247  1.6354 -3.2900
   75SOL     OW  223   1.747   1.721   1.596  0.4690 -0.0874  0.2934
   75SOL    HW1  224   1.735   1.629   1.554  0.6167  1.8928  1.3283
   75SOL    HW2  225   1.653   1.758   1.629 -1.2934  1.3356  1.6107
   76SOL     OW  226   1.471   1.998   1.147  0.0532  0.2079  0.1513
   76SOL    HW1  227   1.522   2.027   1.063  2.2581 -1.2687  0.8747
   76SOL    HW2  228   1.406   2.076   1.171  0.1683 -0.8371 -0.2129
   77SOL     OW  229   2.596   1.661   2.229 -0.6341 -0.1081  0.9575
   77SOL    HW1  230   2.664   1.635   2.299 -0.8119 -0.3042 -0.7669
   77SOL    HW2  231   2.512   1.703   2.261 -0.0706 -2.0528 -1.8488
   78SOL     OW  232   1.364   0.477   0.799  0.6178 -0.0923  0.5865
   78SOL    HW1  233   1.364   0.575   0.802  2.9135 -5.8194  1.0045
   78SOL    HW2  234   1.290   0.440   0.858 -1.1294  1.6400 -2.1778
   79SOL     OW  235   2.022   1.543   1.841  0.6588  0.2579  0.5954
   79SOL    HW1  236   2.076   1.479   1.785  0.8984  2.7295  1.5685
   79SOL    HW2  237   1.933   1.501   1.850  0.6744  2.1041  0.4285
   80SOL     OW  238   1.262   0.329   1.410  0.1936 -0.2116 -0.4580
   80SOL    HW1  239   1.304   0.238   1.409 -1.5919  0.5080  2.3211
   80SOL    HW2  240   1.198   0.329   1.489 -0.9377 -1.9847 -0.3714
   81SOL     OW  241   0.727   2.466   0.607  0.0965 -0.5372 -0.2729
   81SOL    HW1  242   0.779   2.549   0.584 -1.3582 -0.5933  0.8145
   81SOL    HW2  243   0.779   2.382   0.629  0.1242 -1.1739  1.1307
   82SOL     OW  244   1.447   0.512   1.591 -0.4353  0.0812 -0.3417
   82SOL    HW1  245   1.484   0.590   1.536  1.6832 -1.5264  0.1234
   82SOL    HW2  246   1.381   0.464   1.534 -0.4932 -0.8763  0.3819
   83SOL     OW  247   0.579   1.797   0.674 -0.3075  0.5636  0.0721
   83SOL    HW1  248   0.658   1.845   0.714  0.6606 -0.6417  2.6777
   83SOL    HW2  249   0.588   1.786   0.573  0.7349 -0.7768  2.9622
   84SOL     OW  250   2.580   1.475   0.031  0.3145 -0.4359 -0.2282
   84SOL    HW1  251   2.595   1.483   3.037  0.0669 -0.0438 -1.2891
   84SOL    HW2  252   2.501   1.538   0.056  0.6733 -0.0731 -1.9801
   85SOL     OW  253   0.100   2.643   1.556 -0.1266 -0.3624 -0.0171
   85SOL    HW1  254   0.057   2.735   1.578 -1.8844 -2.0210  0.8915
   85SOL    HW2  255   0.029   2.580   1.513  0.3636  2.4257  0.3781
   86SOL     OW  256   1.632   2.900   0.992  0.1620  0.3802 -0.1422
   86SOL    HW1  257   1.663   2.817   1.038  0.3340  1.1404 -1.4698
   86SOL    HW2  258   1.635   2.873   0.892 -3.5927  1.1359  0.3579
   87SOL     OW  259   2.806   1.298   0.727  0.2982 -0.0035 -0.4879
   87SOL    HW1  260   2.710   1.295   0.696  3.4135 -0.4429 -0.0790
   87SOL    HW2  261   2.807   1.290   0.830 -0.4656  0.5193 -0.4446
   88SOL     OW  262   0.936   0.591   1.258 -0.6526 -0.2877  0.2544
   88SOL    HW1  263   0.936   0.607   1.360 -1.4196  3.6653  1.4993
   88SOL    HW2  264   0.869   0.517   1.233  1.0598  3.1438  1.2931
   89SOL     OW  265   0.813   2.787   1.846 -0.1073 -0.0449  0.1517
   89SOL    HW1  266   0.810   2.857   1.774 -0.8821  0.1658 -2.5314
   89SOL    HW2  267   0.909   2.775   1.879 -1.2030  0.4810  3.4050
   90SOL     OW  268   2.977   1.846   1.225 -0.0057 -0.0151  0.3265
   90SOL    HW1  269   3.013   1.915   1.158  3.3605  0.3078  0.4550
   90SOL    HW2  270   2.878   1.829   1.213  0.3952  2.5333 -0.1672
   91SOL     OW  271   1.026   1.747   1.165 -0.0754 -0.0573 -0.4974
   91SOL    HW1  272   1.105   1.692   1.204 -1.3880 -0.2777  0.2959
   91SOL    HW2  273   0.993   1.711   1.077 -1.8463  0.5276  1.4320
   92SOL     OW  274   2.796   2.774   1.809 -0.0894 -0.3644 -0.1224
   92SOL    HW1  275   2.765   2.770   1.711 -1.1317  1.4453  3.0307
   92SOL    HW2  276   2.739   2.836   1.867 -1.8350 -0.4620  0.2208
   93SOL     OW  277   2.833   1.242   3.050  0.0347  0.1479  0.3919
   93SOL    HW1  278   2.796   1.240   2.954 -2.0062 -0.1553 -0.0527
   93SOL    HW2  279   2.816   1.149   3.083 -1.2459  1.0802 -0.2920
   94SOL     OW  280   2.430   2.988   1.859  0.6722 -0.1985 -0.0352
   94SOL    HW1  281   2.364   2.953   1.926 -2.4108 -0.0698 -0.7903
   94SOL    HW2  282   2.524   2.993   1.901  2.2928 -1.9518  1.4983
   95SOL     OW  283   1.665   0.721   1.882  0.3392  0.4794  0.4951
   95SOL    HW1  284   1.696   0.732   1.790 -2.8722  0.5012  1.3813
   95SOL    HW2  285   1.572   0.685   1.879  2.5938  1.6848 -0.5527
   96SOL     OW  286   2.533   0.806   1.614 -0.2810 -0.5116  0.3235
   96SOL    HW1  287   2.623   0.770   1.653  1.6612  0.2517  2.8101
   96SOL    HW2  288   2.534   0.782   1.513  1.8123  1.7057  1.3152
   97SOL     OW  289   2.413   0.030   1.440 -1.0128 -0.0149 -0.2035
   97SOL    HW1  290   2.463   3.055   1.404 -0.9060 -0.2469 -0.2442
   97SOL    HW2  291   2.335   0.004   1.499 -0.3499  0.9967  0.0732
   98SOL     OW  292   1.881   2.804   1.292 -0.2700  0.4061  0.0914
   98SOL    HW1  293   1.975   2.840   1.281  2.4520  2.2774  0.7404
   98SOL    HW2  294   1.856   2.744   1.372  0.4702 -0.5597  1.0986
   99SOL     OW  295   2.709   0.277   1.676  0.1064 -0.2233  0.3967
   99SOL    HW1  296   2.648   0.264   1.757 -2.1327 -3.8122  0.7583
   99SOL    HW2  297   2.800   0.242   1.694 -0.1241 -1.4235 -0.9079
  100SOL     OW  298   2.219   1.533   2.262 -0.0932 -0.1668  0.8248
  100SOL    HW1  299   2.268   1.620   2.254  0.1857  0.6084 -0.1001
  100SOL    HW2  300   2.196   1.527   2.360 -0.4029 -0.2585  1.0607
  101SOL     OW  301   2.174   0.195   0.143  0.3328 -0.0085  0.1534
  101SOL    HW1  302   2.257   0.167   0.190  1.4697  0.0151  0.4347
  101SOL    HW2  303   2.130   0.283   0.179 -0.3190 -1.8561  0.5684
  102SOL     OW  304   0.500   0.514   1.479 -0.0947  0.0241 -0.4428
  102SOL    HW1  305   0.408   0.525   1.522  0.2055 -0.6565 -0.7735
  102SOL    HW2  306   0.508   0.438   1.415 -1.1982  1.1250  2.4873
  103SOL     OW  307   2.459   0.055   2.593 -0.0785 -0.1867  0.0978
  103SOL    HW1  308   2.542   0.067   2.651  1.4041  0.7817 -1.2941
  103SOL    HW2  309   2.375   0.085   2.643 -1.4574  3.2913 -1.0985
  104SOL     OW  310   3.066   2.773   1.831  0.1289 -0.2428  0.4711
  104SOL    HW1  311   3.101   2.689   1.875  0.7101  1.1213  1.8532
  104SOL    HW2  312   2.966   2.780   1.829 -0.8953  2.5672  0.4933
  105SOL     OW  313   1.390   0.965   2.168 -0.7631  0.5517  0.0507
  105SOL    HW1  314   1.301   1.016   2.189 -0.9149 -1.6620  0.5369
  105SOL    HW2  315   1.376   0.907   2.086 -0.7899 -2.7181 -1.1012
  106SOL     OW  316   1.859   0.476   0.764  0.3465 -0.3461 -0.1310
  106SOL    HW1  317   1.894   0.478   0.858  2.2373 -2.4521 -3.4473
  106SOL    HW2  318   1.902   0.404   0.701  1.1439 -3.2908  1.2723
  107SOL     OW  319   0.553   1.140   1.242  0.5426 -0.3757 -0.3663
  107SOL    HW1  320   0.508   1.060   1.203  3.0185 -2.4524 -0.0166
  107SOL    HW2  321   0.650   1.117   1.268  1.0643 -1.1691 -1.3947
  108SOL     OW  322   2.905   0.393   2.310  0.3845  0.2976  0.4309
  108SOL    HW1  323   2.889   0.359   2.218 -2.2119  1.3405  2.3918
  108SOL    HW2  324   2.953   0.321   2.366 -0.4951 -1.0265 -0.9732
  109SOL     OW  325   2.146   0.156   2.983 -0.3912 -0.2027 -0.5401
  109SOL    HW1  326   2.155   0.184   3.081  2.4754 -0.0776  0.7253
  109SOL    HW2  327   2.048   0.135   2.958  0.5838 -0.8506 -0.3611
  110SOL     OW  328   0.037   1.850   2.922  0.3136  0.6658 -0.5152
  110SOL    HW1  329   0.133   1.882   2.915  1.2549  0.4672  2.4811
  110SOL    HW2  330   0.033   1.755   2.955  2.1282  1.3548 -2.0601
  111SOL     OW  331   2.464   0.252   2.403  0.0000  0.0653 -0.1202
  111SOL    HW1  332   2.378   0.308   2.389 -0.6332 -0.9148  1.0444
  111SOL    HW2  333   2.463   0.187   2.483 -0.4089  0.1437  1.0325
  112SOL     OW  334   2.697   2.788   1.161  0.4601 -0.0444  0.4761
  112SOL    HW1  335   2.779   2.728   1.149 -1.3475  2.5071  1.4208
  112SOL    HW2  336   2.664   2.823   1.073  1.8905  0.1322 -0.5927
  113SOL     OW  337   2.313   2.193   1.955  0.6324  0.8510 -0.3667
  113SOL    HW1  338   2.337   2.101   1.928  1.8290 -0.4189 -2.9913
  113SOL    HW2  339   2.224   2.219   1.918 -0.0636 -2.2830  1.3739
  114SOL     OW  340   2.647   3.083   0.539  0.4526  0.1283  0.0010
  114SOL    HW1  341   2.556   3.087   0.592 -0.2175  1.3011 -1.4877
  114SOL    HW2  342   2.723   3.041   0.590  1.5108  1.7790  1.1734
  115SOL     OW  343   2.821   1.842   0.272  0.2963  0.3052 -0.4142
  115SOL    HW1  344   2.829   1.837   0.377 -0.5479  1.3063  1.5396
  115SOL    HW2  345   2.802   1.749   0.231 -1.1945 -2.8585 -0.8364
  116SOL     OW  346   0.027   1.442   1.988  0.0012  0.3579  0.0389
  116SOL    HW1  347   3.069   1.453   1.906  0.3654  0.4929 -3.6116
  116SOL    HW2  348   0.093   1.368   1.967 -1.8665  0.8122  0.9873
  117SOL     OW  349   2.180   0.023   0.866  0.0624  0.5659 -0.2161
  117SOL    HW1  350   2.156   3.046   0.926 -2.1691 -3.7258  4.8386
  117SOL    HW2  351   2.247   0.080   0.922  3.6877  1.5268  3.0134
  118SOL     OW  352   0.321   2.052   1.674  0.3243 -0.3956  0.1061
  118SOL    HW1  353   0.297   2.036   1.577 -2.0147  0.9026  0.6469
  118SOL    HW2  354   0.422   2.034   1.679 -2.1204 -0.5556 -1.0364
  119SOL     OW  355   1.179   2.160   1.440  0.4908  0.3947 -0.1890
  119SOL    HW1  356   1.218   2.133   1.349 -0.5268  1.1669 -4.1109
  119SOL    HW2  357   1.091   2.212   1.417 -0.2478 -0.7398 -3.5834
  120SOL     OW  358   0.160   1.925   1.448 -0.0301 -0.2658 -0.7217
  120SOL    HW1  359   0.085   1.870   1.499  1.9505  0.2035 -0.1637
  120SOL    HW2  360   0.203   1.864   1.383 -0.5886 -0.1537  1.1920
  121SOL     OW  361   2.182   1.304   0.937 -0.4034 -0.4191  0.4164
  121SOL    HW1  362   2.198   1.269   1.031 -1.8889  0.5161 -2.6600
  121SOL    HW2  363   2.129   1.393   0.937 -0.6387  0.9050  1.0890
  122SOL     OW  364   2.238   1.895   2.797  0.3178 -0.0437 -0.4125
  122SOL    HW1  365   2.139   1.868   2.810 -2.0176 -2.6705  1.7728
  122SOL    HW2  366   2.245   1.968   2.723  0.4032  2.0940 -2.8275
  123SOL     OW  367   2.862   2.838   0.599  0.3878  0.3838 -0.1406
  123SOL    HW1  368   2.889   2.889   0.682 -2.0079 -0.6650 -0.3508
  123SOL    HW2  369   2.915   2.751   0.584 -1.4677 -2.0914 -0.3126
  124SOL     OW  370   1.178   1.083   0.056  0.2835  0.1020 -0.1911
  124SOL    HW1  371   1.078   1.111   0.054 -1.6919 -0.5841  2.2559
  124SOL    HW2  372   1.183   0.994   0.006 -0.1411 -2.8409  0.8244
  125SOL     OW  373   0.128   1.501   2.741 -0.2385  0.7829  0.8925
  125SOL    HW1  374   0.199   1.577   2.718  0.6377  1.3785 -0.3138
  125SOL    HW2  375   0.148   1.409   2.707  0.2009  2.5230 -0.3480
  126SOL     OW  376   0.153   2.534   0.406 -0.1022  0.4898 -0.1569
  126SOL    HW1  377   0.120   2.511   0.310 -1.7500 -1.4995  1.0000
  126SOL    HW2  378   0.225   2.462   0.430  1.9643 -2.7278  3.4202
  127SOL     OW  379   2.931   1.515   0.614  0.3651 -0.1376  0.6919
  127SOL    HW1  380   2.877   1.443   0.660 -1.4649  1.8418 -0.9958
  127SOL    HW2  381   2.964   1.489   0.522  0.5410 -1.5131  1.5467
  128SOL     OW  382   1.147   1.297   0.382  0.2720  0.5996 -0.0592
  128SOL    HW1  383   1.104   1.297   0.472  2.1167 -0.4382  0.6893
  128SOL    HW2  384   1.161   1.197   0.360 -1.6375 -0.7876 -0.1699
  129SOL     OW  385   2.123   2.072   1.408 -0.2328 -0.0432  0.5476
  129SOL    HW1  386   2.106   2.157   1.358 -0.5832 -2.4269  0.8503
  129SOL    HW2  387   2.038   2.045   1.454  0.2403  3.3252 -0.9200
  130SOL     OW  388   1.972   0.949   0.671 -0.4394  0.5052 -0.1136
  130SOL    HW1  389   1.929   0.859   0.695  0.4433  1.2428  1.1035
  130SOL    HW2  390   1.925   1.019   0.728 -1.6288  0.4994  0.3167
  131SOL     OW  391   2.841   0.948   2.716  0.6066  0.0666  0.1045
  131SOL    HW1  392   2.845   0.953   2.815 -0.3931  0.0457 -1.8305
  131SOL    HW2  393   2.756   0.989   2.670 -0.6892  2.1144 -2.9817
  132SOL     OW  394   1.804   1.355   2.171  0.3355 -0.8032 -0.3099
  132SOL    HW1  395   1.833   1.264   2.133 -2.0693  2.2080 -0.6767
  132SOL    HW2  396   1.874   1.424   2.155  2.1104 -1.2956 -0.2749
  133SOL     OW  397   0.019   1.230   3.099  0.1918  0.1567 -0.5021
  133SOL    HW1  398   3.033   1.244   3.058  0.0890  1.5137  2.1560
  133SOL    HW2  399   0.017   1.245   0.095 -0.8279 -1.5777 -0.2527
  134SOL     OW  400   2.813   0.891   0.575  0.8562 -0.1310  0.3438
  134SOL    HW1  401   2.720   0.872   0.531  2.1748  0.8078  1.0091
  134SOL    HW2  402   2.873   0.808   0.583  3.6158  0.0413  0.6023
  135SOL     OW  403   1.979   1.011   2.996 -0.0022 -0.0562  0.5028
  135SOL    HW1  404   2.054   0.978   2.937 -0.5564 -1.8137 -2.3402
  135SOL    HW2  405   1.994   1.105   3.035  0.3663  0.6638  0.5966
  136SOL     OW  406   1.805   1.873   1.813 -0.1539 -0.2114 -0.5769
  136SOL    HW1  407   1.800   1.806   1.738 -1.2225  0.5324  1.7466
  136SOL    HW2  408   1.799   1.823   1.903 -1.5942  0.3408  0.5097
  137SOL     OW  409   2.256   2.495   0.405  0.0833 -0.0931 -0.1538
  137SOL    HW1  410   2.339   2.445   0.435 -0.4081  1.9575 -1.1869
  137SOL    HW2  411   2.186   2.480   0.475 -0.7910 -0.3181  2.6353
  138SOL     OW  412   2.278   0.418   1.409 -0.3639 -0.5650  0.2332
  138SOL    HW1  413   2.181   0.407   1.391  1.5118  1.6455  1.5135
  138SOL    HW2  414   2.293   0.499   1.470  0.3386 -0.2561 -0.9740
  139SOL     OW  415   2.679   0.053   2.782 -0.5157 -0.0163 -0.0433
  139SOL    HW1  416   2.612   0.017   2.854 -0.4050 -0.1086  2.9887
  139SOL    HW2  417   2.724   0.145   2.813  0.6525  1.8455  1.2643
  140SOL     OW  418   1.145   1.357   2.431  0.6026  0.3233 -0.1936
  140SOL    HW1  419   1.124   1.264   2.468  2.4281  0.2442  1.5275
  140SOL    HW2  420   1.167   1.416   2.512  0.0386  1.1732 -0.6048
  141SOL     OW  421   0.673   0.540   2.261  0.3587 -0.3088 -0.1245
  141SOL    HW1  422   0.594   0.601   2.229  0.2803 -0.0390  0.7941
  141SOL    HW2  423   0.678   0.454   2.209  1.7152  1.5719  0.6531
  142SOL     OW  424   2.774   2.498   2.801 -0.6081  0.0660  0.0814
  142SOL    HW1  425   2.847   2.496   2.872 -3.6362  2.7931 -1.1566
  142SOL    HW2  426   2.757   2.596   2.774  0.9295  1.6195 -0.0392
  143SOL     OW  427   0.873   1.978   0.285  0.2259  0.0912 -0.0237
  143SOL    HW1  428   0.845   2.071   0.319  0.4499  1.4452 -1.5045
  143SOL    HW2  429   0.973   1.955   0.290  1.6413 -1.3388  1.4271
  144SOL     OW  430   1.393   2.567   2.879  0.0834  0.1197  0.3519
  144SOL    HW1  431   1.293   2.594   2.888 -0.2553  0.6047 -0.3316
  144SOL    HW2  432   1.424   2.521   2.965  0.6766 -2.1520  1.6868
  145SOL     OW  433   1.505   1.883   2.608 -0.4158  0.0563  0.3216
  145SOL    HW1  434   1.536   1.972   2.639 -1.1192  1.5830  2.8294
  145SOL    HW2  435   1.566   1.846   2.538 -1.5335 -0.4534  1.4102
  146SOL     OW  436   2.986   2.895   2.979 -0.2779  0.3899 -0.2240
  146SOL    HW1  437   2.978   2.906   3.079 -1.5214 -0.9556  1.2213
  146SOL    HW2  438   2.890   2.901   2.938 -1.3408 -2.5018  1.5073
  147SOL     OW  439   2.916   1.468   1.133  0.3062  0.7849 -0.5340
  147SOL    HW1  440   3.009   1.505   1.149 -0.6395  0.6410  0.2927
  147SOL    HW2  441   2.846   1.541   1.132 -0.3935 -1.0028  0.7928
  148SOL     OW  442   2.028   2.811   0.065  0.1984 -0.1849 -0.1829
  148SOL    HW1  443   1.935   2.771   0.079  0.2995 -2.2912 -0.3235
  148SOL    HW2  444   2.036   2.849   3.074 -0.0986  0.9372 -0.0563
  149SOL     OW  445   0.719   1.951   2.678 -0.0302 -0.1363 -0.3824
  149SOL    HW1  446   0.814   1.913   2.694  3.4535 -0.4121  0.3815
  149SOL    HW2  447   0.667   1.950   2.765 -1.4821  3.7507  0.6916
  150SOL     OW  448   0.443   2.248   0.302  0.4073  0.2688  0.6747
  150SOL    HW1  449   0.374   2.237   0.229 -0.3669 -1.7114  1.3737
  150SOL    HW2  450   0.523   2.308   0.280  0.2202 -1.0229 -0.2487
  151SOL     OW  451   0.483   1.081   0.112  0.2312 -0.6399  0.0731
  151SOL    HW1  452   0.422   1.028   0.173  0.2725 -1.6919  0.0757
  151SOL    HW2  453   0.447   1.177   0.102 -0.0164 -0.1561  0.0467
  152SOL     OW  454   2.646   1.824   0.644  0.0376 -0.2126  0.3039
  152SOL    HW1  455   2.741   1.830   0.615 -1.6650 -3.6185  0.0972
  152SOL    HW2  456   2.596   1.908   0.620  3.2165 -2.2308  1.0493
  153SOL     OW  457   1.769   2.382   0.585 -0.1055  0.1494 -0.3340
  153SOL    HW1  458   1.864   2.394   0.566 -3.5885  0.2552  0.4742
  153SOL    HW2  459   1.748   2.415   0.675  1.9046 -1.7062  0.5867
  154SOL     OW  460   0.889   2.623   0.912 -0.4189 -0.2835 -0.8258
  154SOL    HW1  461   0.904   2.644   0.813 -1.4646 -0.3851  0.0153
  154SOL    HW2  462   0.807   2.561   0.922  0.9950  2.2940  0.1471
  155SOL     OW  463   2.785   1.743   0.875  0.1732 -0.1063 -0.2169
  155SOL    HW1  464   2.723   1.748   0.794 -0.3930  1.0701  1.5160
  155SOL    HW2  465   2.870   1.693   0.856 -1.5137  2.3310 -1.6152
  156SOL     OW  466   2.763   2.098   0.409  0.7085 -0.4283 -0.0263
  156SOL    HW1  467   2.831   2.029   0.381 -0.0993  0.5345  3.0616
  156SOL    HW2  468   2.788   2.189   0.373  0.0464 -0.0694 -0.4260
  157SOL     OW  469   0.541   2.199   1.523 -0.7399 -0.2282  0.0911
  157SOL    HW1  470   0.551   2.154   1.611  1.2214  1.0541 -2.6933
  157SOL    HW2  471   0.629   2.238   1.495 -1.0255  3.3718  1.0861
  158SOL     OW  472   1.487   0.868   0.194  0.5639  0.4273 -0.1755
  158SOL    HW1  473   1.399   0.844   0.236 -0.3195  0.4622 -0.1601
  158SOL    HW2  474   1.558   0.793   0.209 -0.8707 -0.5036 -1.4584
  159SOL     OW  475   1.230   0.752   0.266 -0.0611 -0.3773  0.0603
  159SOL    HW1  476   1.246   0.723   0.362 -2.6035 -0.9162 -1.3142
  159SOL    HW2  477   1.209   0.667   0.209  2.8980 -3.7952 -4.9095
  160SOL     OW  478   0.735   1.170   0.555 -0.0563  0.0343 -0.0365
  160SOL    HW1  479   0.652   1.219   0.597 -2.7300  1.0158 -0.0089
  160SOL    HW2  480   0.820   1.226   0.573  3.2274  1.5581 -0.7090
  161SOL     OW  481   0.185   2.371   2.654 -0.5138 -0.0283 -0.1933
  161SOL    HW1  482   0.149   2.314   2.731 -0.2006 -0.4186  2.0323
  161SOL    HW2  483   0.285   2.364   2.642 -1.5081 -0.8344  0.5803
  162SOL     OW  484   0.217   2.519   0.958 -0.1377  0.5414  0.1981
  162SOL    HW1  485   0.192   2.501   1.054  1.2101  3.1193  1.0655
  162SOL    HW2  486   0.278   2.452   0.912  0.9959  2.4437 -1.1715
  163SOL     OW  487   2.935   0.401   2.705 -0.1722 -0.0543 -0.3494
  163SOL    HW1  488   2.903   0.494   2.680 -0.9116  1.3699 -1.0506
  163SOL    HW2  489   3.033   0.404   2.734 -2.2912  0.5929  0.4536
  164SOL     OW  490   0.545   3.072   2.886 -0.4205 -0.0509  0.0435
  164SOL    HW1  491   0.466   3.006   2.896 -1.2595 -0.7349 -0.7978
  164SOL    HW2  492   0.586   3.058   2.793  0.2308  1.9361 -0.7145
  165SOL     OW  493   2.313   0.619   1.573 -0.0699 -0.2617  0.4880
  165SOL    HW1  494   2.222   0.668   1.556  0.3448  0.1493 -1.3050
  165SOL    HW2  495   2.375   0.676   1.628 -1.2757 -1.2222 -0.1407
  166SOL     OW  496   1.853   2.352   1.595 -0.3098 -0.6627  0.1972
  166SOL    HW1  497   1.828   2.294   1.677  0.1126 -1.3789  2.9360
  166SOL    HW2  498   1.955   2.379   1.594 -0.0154 -0.5118  1.5604
  167SOL     OW  499   0.823   1.045   2.408 -0.0825  0.2772 -0.3238
  167SOL    HW1  500   0.767   1.077   2.483  1.0303 -1.3894 -2.7773
  167SOL    HW2  501   0.770   0.984   2.348  2.1512  1.5473  0.4082
  168SOL     OW  502   2.264   3.057   2.289  0.0529 -0.1558 -0.1168
  168SOL    HW1  503   2.233   0.041   2.265  1.5062 -3.2484  1.8853
  168SOL    HW2  504   2.361   3.041   2.272 -0.5607 -1.0937  0.5522
  169SOL     OW  505   0.327   0.865   0.188 -0.0237 -0.1368 -0.2056
  169SOL    HW1  506   0.363   0.771   0.214  0.6979  0.5789 -0.0781
  169SOL    HW2  507   0.267   0.859   0.106 -2.6290  1.5881  1.0193
  170SOL     OW  508   2.889   1.441   1.813  0.1300  0.1588 -0.0070
  170SOL    HW1  509   2.913   1.399   1.724  1.3394 -0.9726 -1.9720
  170SOL    HW2  510   2.817   1.512   1.808  1.2665 -2.7427 -0.6493
  171SOL     OW  511   1.091   2.235   2.047 -0.3139 -0.3421 -0.1451
  171SOL    HW1  512   1.023   2.286   1.988  1.6736 -1.4607 -0.7699
  171SOL    HW2  513   1.176   2.288   2.068  1.7635 -1.2353  0.4202
  172SOL     OW  514   0.871   2.555   2.159  0.2839 -0.0875  0.1479
  172SOL    HW1  515   0.825   2.545   2.067  1.3223 -2.2200 -1.4561
  172SOL    HW2  516   0.959   2.604   2.153 -0.1426 -0.6066 -2.8175
  173SOL     OW  517   1.510   2.505   0.739 -0.1994  0.6661  0.2956
  173SOL    HW1  518   1.450   2.422   0.736 -0.1775  1.0805 -0.6056
  173SOL    HW2  519   1.457   2.573   0.684  0.9723  2.2746  2.1676
  174SOL     OW  520   2.328   0.051   0.324  0.0628  0.3214  0.7771
  174SOL    HW1  521   2.342   3.104   0.412 -0.2400 -1.2218 -0.1598
  174SOL    HW2  522   2.344   0.150   0.331 -1.0321 -1.9380 -1.3107
  175SOL     OW  523   1.014   1.734   0.486 -0.2351 -0.0815 -0.0452
  175SOL    HW1  524   1.066   1.754   0.401  0.1881  0.0239  0.3243
  175SOL    HW2  525   0.928   1.682   0.463  0.1193  0.8135 -0.5962
  176SOL     OW  526   0.489   1.287   0.611 -0.5350 -0.7528 -0.7523
  176SOL    HW1  527   0.494   1.378   0.660 -1.4667  1.7594  3.2137
  176SOL    HW2  528   0.456   1.314   0.515 -0.0737  2.4784 -1.1771
  177SOL     OW  529   1.220   1.221   1.553 -0.4603  0.4844 -0.2616
  177SOL    HW1  530   1.125   1.246   1.579  1.4339 -1.8945 -2.1441
  177SOL    HW2  531   1.277   1.175   1.627  0.7516 -1.4018 -2.3916
  178SOL     OW  532   2.501   1.601   0.574  0.4871 -0.0207  0.1353
  178SOL    HW1  533   2.545   1.678   0.617  1.2958 -2.2602  0.2344
  178SOL    HW2  534   2.501   1.615   0.474  0.1699 -1.1359  2.3359
  179SOL     OW  535   1.105   2.487   2.886 -0.0551  0.5028  0.3931
  179SOL    HW1  536   1.049   2.425   2.947 -0.8766 -4.4698  0.5083
  179SOL    HW2  537   1.153   2.424   2.821  2.6432  1.4146  0.4757
  180SOL     OW  538   1.978   1.547   2.126  0.2090 -0.1089  0.5650
  180SOL    HW1  539   2.052   1.546   2.192 -0.5801 -0.6743 -1.8538
  180SOL    HW2  540   2.020   1.547   2.032  0.2866  2.2292  1.2960
  181SOL     OW  541   0.682   0.883   2.242 -0.3443  0.2220  0.1769
  181SOL    HW1  542   0.594   0.923   2.204  0.9722 -0.4895 -1.2225
  181SOL    HW2  543   0.755   0.878   2.164 -0.8112  1.7580  0.2893
  182SOL     OW  544   2.841   0.923   2.313 -0.0478  0.1685  0.2392
  182SOL    HW1  545   2.765   0.924   2.379  0.3049 -0.1553 -3.2456
  182SOL    HW2  546   2.869   0.825   2.302 -0.6634 -1.7279 -0.5047
  183SOL     OW  547   1.667   0.885   2.279 -0.0564 -0.3171  0.5597
  183SOL    HW1  548   1.669   0.822   2.354  0.5101  0.2674 -3.4172
  183SOL    HW2  549   1.577   0.908   2.239 -1.1231  0.6823 -0.7687
  184SOL     OW  550   0.398   0.677   1.786 -0.2900 -0.8810 -0.3143
  184SOL    HW1  551   0.387   0.608   1.858 -0.1133  1.0217 -0.5239
  184SOL    HW2  552   0.476   0.738   1.814  1.6191  3.2193  1.2025
  185SOL     OW  553   2.062   1.889   0.849 -0.1062 -0.6713  0.3707
  185SOL    HW1  554   2.106   1.881   0.754  0.1639 -0.7568  2.2197
  185SOL    HW2  555   2.066   1.806   0.905  1.0108  1.2348 -3.7571
  186SOL     OW  556   0.439   1.828   0.242  0.7297  0.6878  0.6313
  186SOL    HW1  557   0.477   1.788   0.155  1.2435  0.2472 -2.0559
  186SOL    HW2  558   0.343   1.798   0.273 -1.5275  0.5722 -2.1284
  187SOL     OW  559   2.231   1.922   0.140  0.2135 -0.5970 -0.4831
  187SOL    HW1  560   2.301   1.927   0.064  2.0794 -0.1541  0.4746
  187SOL    HW2  561   2.188   1.831   0.130 -1.4344 -1.9608 -1.6242
  188SOL     OW  562   0.984   2.393   1.050  0.1944 -0.0257  0.7494
  188SOL    HW1  563   1.040   2.336   0.986  1.2170  2.0182 -0.2186
  188SOL    HW2  564   0.955   2.480   1.003  1.5236  0.9250 -1.6101
  189SOL     OW  565   1.979   1.269   2.762  0.0797 -0.0562 -0.0050
  189SOL    HW1  566   1.924   1.193   2.740 -1.2484  1.3044  1.4174
  189SOL    HW2  567   2.026   1.302   2.677  3.3216  0.0492  0.1906
  190SOL     OW  568   0.967   2.051   2.280  0.1808 -0.3038  0.3206
  190SOL    HW1  569   0.995   2.017   2.375  3.3810 -1.2515 -1.5733
  190SOL    HW2  570   1.033   2.112   2.233 -2.1633  0.0378  0.3319
  191SOL     OW  571   2.315   0.765   1.277 -0.4090  0.2758  0.0637
  191SOL    HW1  572   2.245   0.740   1.345 -2.8145  0.3040 -1.2594
  191SOL    HW2  573   2.407   0.759   1.318 -0.9938  1.9068  0.0348
  192SOL     OW  574   2.484   0.538   1.866 -0.2236 -0.0562  0.1189
  192SOL    HW1  575   2.538   0.543   1.777 -0.6702 -0.5204  1.0077
  192SOL    HW2  576   2.513   0.613   1.926 -3.1909 -0.7870 -3.1639
  193SOL     OW  577   0.848   0.219   0.729 -0.1881  0.1690  0.0370
  193SOL    HW1  578   0.849   0.177   0.636 -1.0937  1.1740 -2.4108
  193SOL    HW2  579   0.916   0.179   0.803  0.4157  2.6215 -2.2464
  194SOL     OW  580   1.296   2.336   1.598 -0.1084  0.0941  0.5454
  194SOL    HW1  581   1.262   2.261   1.542 -1.7321  0.0286  1.0113
  194SOL    HW2  582   1.220   2.386   1.641  2.1679 -0.6814  0.7010
  195SOL     OW  583   2.780   0.872   0.872  0.0680 -0.6451 -0.2953
  195SOL    HW1  584   2.701   0.934   0.892 -1.2055  0.1655  2.0040
  195SOL    HW2  585   2.784   0.842   0.773  1.6137 -1.1828 -1.9134
  196SOL     OW  586   0.849   1.768   1.807  0.1069 -0.3896  0.0563
  196SOL    HW1  587   0.852   1.849   1.741 -0.1292 -1.2709 -0.6588
  196SOL    HW2  588   0.775   1.760   1.876  1.4440 -1.3884 -0.2000
  197SOL     OW  589   0.306   0.851   2.444 -0.2331  0.2085 -0.1734
  197SOL    HW1  590   0.255   0.904   2.381  3.2877 -0.1887  5.1267
  197SOL    HW2  591   0.270   0.760   2.449 -0.4038  2.7459 -0.0028
  198SOL     OW  592   1.554   1.148   0.270 -0.1075  0.2437  0.7459
  198SOL    HW1  593   1.531   1.051   0.248 -2.4066 -1.5707 -0.4662
  198SOL    HW2  594   1.579   1.165   0.367 -1.6095  1.5015 -1.2620
  199SOL     OW  595   2.844   0.639   2.044  0.4271  0.1580 -0.1909
  199SOL    HW1  596   2.871   0.591   2.129  0.4738 -0.2345 -1.0962
  199SOL    HW2  597   2.740   0.651   2.040 -2.4490  1.7093 -2.4800
  200SOL     OW  598   2.216   2.479   2.480 -0.1687 -0.4574  0.1395
  200SOL    HW1  599   2.216   2.585   2.470 -0.9024  3.8679 -2.3520
  200SOL    HW2  600   2.229   2.448   2.577  0.4218  1.1707 -0.4904
  201SOL     OW  601   2.199   0.128   1.311 -0.1267  0.0533  1.0105
  201SOL    HW1  602   2.145   0.192   1.370  0.4510  1.0518 -1.8176
  201SOL    HW2  603   2.294   0.111   1.343  1.5692 -3.3602 -3.9636
  202SOL     OW  604   2.947   2.643   0.137  0.5846  0.0041  0.8341
  202SOL    HW1  605   2.920   2.740   0.125  1.2454 -0.8793 -1.8756
  202SOL    HW2  606   2.900   2.606   0.219  3.9626  2.1420 -0.7219
  203SOL     OW  607   1.016   2.127   2.700  0.8391  0.3875  0.0640
  203SOL    HW1  608   0.947   2.198   2.682  0.3750  2.6284  2.0129
  203SOL    HW2  609   1.028   2.060   2.625  0.8946  2.7435 -0.7600
  204SOL     OW  610   0.507   1.816   2.550  0.8015 -0.2072  0.3690
  204SOL    HW1  611   0.531   1.811   2.449  1.1534 -0.8387 -1.7254
  204SOL    HW2  612   0.568   1.878   2.602 -0.8881  2.8015  0.0736
  205SOL     OW  613   0.898   1.063   1.276 -0.2976 -0.0217  0.2474
  205SOL    HW1  614   0.847   0.976   1.241  0.5784 -3.1782  1.0573
  205SOL    HW2  615   0.996   1.047   1.295 -0.8218 -1.1515  0.6258
  206SOL     OW  616   0.117   0.638   2.705 -0.0822 -0.1861 -1.0835
  206SOL    HW1  617   0.115   0.735   2.729  0.3508 -2.3368 -1.1199
  206SOL    HW2  618   0.131   0.630   2.604  1.8126 -0.0225  3.0228
  207SOL     OW  619   1.814   2.329   1.978 -0.1744  0.0468 -0.1996
  207SOL    HW1  620   1.896   2.369   2.027 -0.1420 -0.5505  0.6160
  207SOL    HW2  621   1.848   2.279   1.893  1.0907  0.7868 -2.6977
  208SOL     OW  622   1.053   2.646   1.429  0.3903  0.1060 -0.1285
  208SOL    HW1  623   0.961   2.665   1.392  0.9263 -1.2358  2.1025
  208SOL    HW2  624   1.120   2.721   1.426  1.3461 -0.4612 -2.8647
  209SOL     OW  625   1.253   1.556   3.044 -0.2148 -0.5346  0.4155
  209SOL    HW1  626   1.292   1.464   3.048  0.9810  0.5413  0.3748
  209SOL    HW2  627   1.168   1.566   2.974 -2.9726 -2.2704 -3.3530
  210SOL     OW  628   2.206   0.706   0.811  0.8587  0.0259  0.2316
  210SOL    HW1  629   2.293   0.741   0.766 -1.2809 -1.7078 -2.1163
  210SOL    HW2  630   2.147   0.668   0.734  0.3323 -0.1325 -3.4764
  211SOL     OW  631   1.294   2.596   0.226 -0.3449 -0.2633 -0.2578
  211SOL    HW1  632   1.280   2.546   0.315 -0.3062 -0.5149 -1.4500
  211SOL    HW2  633   1.219   2.656   0.212  0.6895  1.3564  2.6872
  212SOL     OW  634   2.098   2.146   0.943 -1.0482 -0.4305  0.3914
  212SOL    HW1  635   2.150   2.216   0.892 -1.1059  0.4112  3.3549
  212SOL    HW2  636   2.098   2.051   0.904 -0.9321  0.1357  3.2177
  213SOL     OW  637   1.815   0.601   2.877 -0.1109 -0.2537  0.4723
  213SOL    HW1  638   1.757   0.530   2.918 -1.2976  3.0969 -1.0615
  213SOL    HW2  639   1.798   0.693   2.918  0.8787 -0.2531  1.8186
  214SOL     OW  640   0.672   1.769   1.999 -0.2385  0.6005  0.4248
  214SOL    HW1  641   0.574   1.771   1.979  1.0074  1.9591 -0.1903
  214SOL    HW2  642   0.703   1.857   2.034 -0.0021  1.4392 -0.6939
  215SOL     OW  643   0.387   1.380   0.385  0.2233 -0.0065  0.4321
  215SOL    HW1  644   0.360   1.387   0.287 -0.6017 -1.9625  2.0978
  215SOL    HW2  645   0.326   1.439   0.445 -1.0530 -0.0408 -1.9835
  216SOL     OW  646   0.191   3.022   2.529 -0.1329  0.4628  0.1030
  216SOL    HW1  647   0.293   2.998   2.538  0.1017  2.7798 -0.3815
  216SOL    HW2  648   0.146   3.020   2.619  0.2785 -4.3726 -0.0770
  217SOL     OW  649   2.535   0.970   1.222 -0.5985  0.1623  0.0689
  217SOL    HW1  650   2.513   0.869   1.241 -2.1905 -3.4234  1.1756
  217SOL    HW2  651   2.612   1.006   1.275  1.4563  1.7530  0.0367
  218SOL     OW  652   1.438   1.692   2.226 -0.2571  0.0691  0.5246
  218SOL    HW1  653   1.470   1.734   2.139  0.1578  0.8727 -0.7998
  218SOL    HW2  654   1.357   1.635   2.215 -2.0218 -1.9041  0.4728
  219SOL     OW  655   2.040   1.616   0.208  0.3379  0.1655  0.3694
  219SOL    HW1  656   2.085   1.569   0.285 -0.3155 -0.3735  0.1590
  219SOL    HW2  657   1.941   1.588   0.202 -4.1673 -1.8410 -0.4145
  220SOL     OW  658   2.104   0.969   0.199 -0.0158  0.7075  0.0033
  220SOL    HW1  659   2.172   0.994   0.127  2.5117  0.3903 -1.2430
  220SOL    HW2  660   2.008   0.983   0.164 -0.3301 -1.1739 -0.6194
  221SOL     OW  661   0.157   0.266   0.171  0.2356 -0.4927 -0.1385
  221SOL    HW1  662   0.248   0.308   0.157 -0.3895  1.2019  2.3547
  221SOL    HW2  663   0.106   0.253   0.084 -0.2493  0.2894  1.3042
  222SOL     OW  664   1.277   1.837   0.612  0.2841  0.3065 -0.0344
  222SOL    HW1  665   1.225   1.783   0.678 -0.1846  1.6230  0.6392
  222SOL    HW2  666   1.242   1.932   0.614 -0.4449  0.5429 -0.1329
  223SOL     OW  667   0.869   0.256   3.089  0.1546  0.1041 -0.7006
  223SOL    HW1  668   0.917   0.180   0.031 -0.7793 -0.3340 -0.5734
  223SOL    HW2  669   0.798   0.229   3.023 -0.0896  2.3657  0.1632
  224SOL     OW  670   1.808   0.205   1.206  0.2752 -0.1683  0.4654
  224SOL    HW1  671   1.798   0.219   1.305 -1.5025  1.5357 -1.7382
  224SOL    HW2  672   1.824   0.113   1.162 -0.6881 -1.2438 -0.3790
  225SOL     OW  673   0.622   2.530   1.280  1.0140  0.7778 -0.1601
  225SOL    HW1  674   0.616   2.542   1.181 -0.2132 -1.4836 -0.2014
  225SOL    HW2  675   0.538   2.491   1.326 -0.6704  0.5421  1.5614
  226SOL     OW  676   0.948   1.664   0.034  0.2892  0.0585 -0.4931
  226SOL    HW1  677   0.990   1.620   0.115 -0.6513  1.3726  1.1754
  226SOL    HW2  678   0.983   1.636   3.051  0.7187 -1.4966  1.4726
  227SOL     OW  679   0.719   1.726   1.035 -0.4962 -0.0423  0.0469
  227SOL    HW1  680   0.678   1.653   0.981 -1.4971 -0.0761 -0.8723
  227SOL    HW2  681   0.758   1.687   1.119  2.8045  0.5305 -2.8948
  228SOL     OW  682   0.235   1.504   0.595 -0.2125 -0.0189  0.0918
  228SOL    HW1  683   0.188   1.592   0.571  0.0679 -2.1379 -0.5456
  228SOL    HW2  684   0.175   1.441   0.642  3.0424  2.1129  2.3804
  229SOL     OW  685   2.254   0.402   2.535  0.0117 -0.3762  0.9608
  229SOL    HW1  686   2.161   0.364   2.548 -0.8095 -1.8340  0.3969
  229SOL    HW2  687   2.325   0.372   2.605  1.2376 -0.6736 -0.6803
  230SOL     OW  688   1.906   1.380   0.334  0.0233  0.2706 -0.2317
  230SOL    HW1  689   1.907   1.453   0.408 -0.2511 -0.0451 -1.6971
  230SOL    HW2  690   1.893   1.289   0.375  0.2049 -0.9534 -1.4445
  231SOL     OW  691   1.199   1.554   2.648  0.1293 -0.2082  0.7801
  231SOL    HW1  692   1.225   1.636   2.593  0.6733 -3.1211  4.5411
  231SOL    HW2  693   1.272   1.550   2.724  4.0586  1.0005  0.4863
  232SOL     OW  694   2.380   2.137   0.732  0.5176 -0.1923  0.5090
  232SOL    HW1  695   2.403   2.112   0.825 -3.6681 -0.5342 -2.0784
  232SOL    HW2  696   2.445   2.099   0.667 -0.7894  2.8231  0.5538
  233SOL     OW  697   0.473   2.361   0.550  0.3185 -0.2975 -0.4623
  233SOL    HW1  698   0.572   2.374   0.569 -0.0299  1.7495  1.2083
  233SOL    HW2  699   0.456   2.313   0.461 -0.7887 -0.3190 -1.3337
  234SOL     OW  700   0.697   0.731   2.701 -0.2470  0.3053 -0.5666
  234SOL    HW1  701   0.668   0.777   2.613 -3.4324  0.6051 -0.4420
  234SOL    HW2  702   0.786   0.768   2.735  0.8146 -1.3073  0.0030
  235SOL     OW  703   2.650   0.458   2.381  0.2582  0.3146  0.1376
  235SOL    HW1  704   2.590   0.379   2.366 -1.1742  0.2749  1.0188
  235SOL    HW2  705   2.745   0.436   2.356  0.5997  1.0553  0.7618
  236SOL     OW  706   1.699   2.680   1.130  0.2772  0.3745  0.3481
  236SOL    HW1  707   1.778   2.720   1.181 -2.5119 -0.1616  0.4032
  236SOL    HW2  708   1.702   2.578   1.124  0.2536 -0.0553  0.7094
  237SOL     OW  709   0.717   1.781   2.312 -0.0316  0.1399  0.4101
  237SOL    HW1  710   0.723   1.683   2.348 -0.5833 -1.1435 -0.9610
  237SOL    HW2  711   0.808   1.822   2.290 -0.8184  2.7786  1.5079
  238SOL     OW  712   1.025   0.391   2.184 -0.1312 -0.5199 -0.4650
  238SOL    HW1  713   1.094   0.335   2.236 -3.1694  1.4613  1.3795
  238SOL    HW2  714   1.015   0.486   2.219  0.7363 -0.5460  1.3095
  239SOL     OW  715   0.234   2.121   1.930  0.4619 -0.4817  0.3260
  239SOL    HW1  716   0.301   2.192   1.955  2.1764  2.0606 -0.4469
  239SOL    HW2  717   0.234   2.114   1.828 -1.1976 -0.4083  0.2962
  240SOL     OW  718   2.610   2.691   0.401 -0.2305 -0.2464 -0.2527
  240SOL    HW1  719   2.563   2.636   0.323 -1.6809 -3.6979 -1.0285
  240SOL    HW2  720   2.670   2.768   0.374  0.8444 -0.4346 -0.6890
  241SOL     OW  721   2.570   1.040   0.950  0.6422  0.0472 -0.3836
  241SOL    HW1  722   2.561   1.014   1.049  1.2278 -0.6343  1.5941
  241SOL    HW2  723   2.475   1.049   0.910  1.4935 -0.9611 -2.0760
  242SOL     OW  724   2.079   2.432   2.065  0.3102  0.2042  0.2966
  242SOL    HW1  725   2.091   2.390   2.156 -0.1145 -1.4120 -2.2026
  242SOL    HW2  726   2.169   2.469   2.033 -3.0267  0.9338 -0.5222
  243SOL     OW  727   0.587   2.883   1.547 -0.3453  0.3835  0.3889
  243SOL    HW1  728   0.622   2.845   1.458 -0.7196 -1.8998  0.0550
  243SOL    HW2  729   0.663   2.912   1.608  0.1972  0.0203 -2.9252
  244SOL     OW  730   2.064   0.665   3.017 -0.4315  0.2477  0.3414
  244SOL    HW1  731   2.000   0.611   2.961 -0.5725 -1.8956  1.2979
  244SOL    HW2  732   2.114   0.735   2.964  2.1377  1.4996  1.1143
  245SOL     OW  733   1.442   0.507   1.214 -0.1010  0.2273 -0.3855
  245SOL    HW1  734   1.366   0.538   1.156  1.2284 -1.0874 -0.4411
  245SOL    HW2  735   1.408   0.440   1.281 -0.0249 -1.6534 -0.0864
  246SOL     OW  736   1.818   2.470   2.967 -0.2221 -0.0978 -0.3974
  246SOL    HW1  737   1.911   2.482   2.924  2.1194  0.9839 -0.2524
  246SOL    HW2  738   1.752   2.536   2.918  3.8633 -0.3716 -1.8107
  247SOL     OW  739   0.992   0.710   2.519  0.2445 -0.4031 -0.3908
  247SOL    HW1  740   0.960   0.723   2.612 -1.6747  0.1632 -1.0185
  247SOL    HW2  741   1.091   0.712   2.500  0.7829 -2.9005 -1.3804
  248SOL     OW  742   0.415   1.869   1.956  0.2255  0.0487  0.2239
  248SOL    HW1  743   0.416   1.854   2.057  0.3102 -1.5083  0.3609
  248SOL    HW2  744   0.373   1.958   1.930  1.1156  1.5209 -0.7074
  249SOL     OW  745   2.642   0.237   0.463  0.1198 -0.0015  0.0690
  249SOL    HW1  746   2.561   0.247   0.402 -0.9308 -0.2210  2.6142
  249SOL    HW2  747   2.675   0.142   0.471  3.3786  1.5699 -0.4612
  250SOL     OW  748   2.804   0.259   2.882 -0.0597  0.2041  0.0687
  250SOL    HW1  749   2.779   0.291   2.978 -1.3441  1.6045  3.8370
  250SOL    HW2  750   2.870   0.320   2.829 -0.2599  2.3296  1.6068
  251SOL     OW  751   1.496   0.688   3.029 -0.3406 -0.0891 -0.3192
  251SOL    HW1  752   1.522   0.775   2.987 -1.3674  0.5356  0.1035
  251SOL    HW2  753   1.494   0.704   0.023  0.4612 -0.7382  1.1581
  252SOL     OW  754   1.418   2.000   1.844  0.4638  0.3375  0.3777
  252SOL    HW1  755   1.352   1.983   1.768  0.2640 -0.5304  0.0878
  252SOL    HW2  756   1.444   2.100   1.846 -0.0710  0.8191  4.1615
  253SOL     OW  757   2.341   2.469   0.964  0.8431  0.0318 -0.0235
  253SOL    HW1  758   2.435   2.500   0.951  2.5254  0.6696  2.8781
  253SOL    HW2  759   2.338   2.423   1.054  2.4036  0.2391 -1.4382
  254SOL     OW  760   2.326   1.215   0.525  0.3215 -0.2302  0.1706
  254SOL    HW1  761   2.259   1.214   0.447 -4.0047 -0.8566  0.7103
  254SOL    HW2  762   2.305   1.127   0.578 -1.1725 -3.1178  0.3667
  255SOL     OW  763   1.467   0.060   1.391 -0.6476 -0.0084 -0.0367
  255SOL    HW1  764   1.462   3.097   1.463 -1.4414 -0.5380 -1.4501
  255SOL    HW2  765   1.482   0.019   1.297  1.2313 -0.4129 -4.3066
  256SOL     OW  766   1.494   2.423   1.429 -0.0764  0.0712 -0.5716
  256SOL    HW1  767   1.558   2.343   1.419  1.3877 -1.8869 -0.5141
  256SOL    HW2  768   1.422   2.394   1.497 -0.9803 -0.8454  0.3424
  257SOL     OW  769   0.696   3.002   2.624 -0.7214  0.0162  0.3969
  257SOL    HW1  770   0.784   3.047   2.600 -1.6031 -2.2456  0.0102
  257SOL    HW2  771   0.712   2.908   2.660  0.7719 -0.4655  1.7276
  258SOL     OW  772   1.020   2.454   0.464 -0.2053 -0.1906 -0.0780
  258SOL    HW1  773   0.982   2.471   0.370 -0.3451 -0.5270 -1.3250
  258SOL    HW2  774   1.122   2.441   0.472 -1.0771 -1.6505 -0.7259
  259SOL     OW  775   1.437   0.162   2.773 -0.0107 -0.3043 -0.7156
  259SOL    HW1  776   1.516   0.141   2.830 -1.5889  0.6090 -0.3994
  259SOL    HW2  777   1.457   0.242   2.715 -1.6505 -2.5426 -0.2041
  260SOL     OW  778   2.536   0.459   1.382  0.3742 -0.1196  0.1709
  260SOL    HW1  779   2.569   0.505   1.464  0.1040  2.6479  2.4900
  260SOL    HW2  780   2.446   0.412   1.405 -0.8854 -0.4125 -0.4996
  261SOL     OW  781   0.731   0.500   2.518 -0.0199  0.1857 -0.3916
  261SOL    HW1  782   0.692   0.561   2.592 -0.7570 -1.0917  0.0188
  261SOL    HW2  783   0.719   0.551   2.428 -1.3459  0.5069  2.3276
  262SOL     OW  784   0.682   2.422   2.300 -0.0197 -0.1243  0.9918
  262SOL    HW1  785   0.658   2.460   2.392 -1.7913 -2.8383 -0.0874
  262SOL    HW2  786   0.757   2.478   2.257 -0.0260  1.6986 -1.3163
  263SOL     OW  787   0.325   1.669   2.675  0.5976  0.3880 -0.1705
  263SOL    HW1  788   0.249   1.707   2.621 -0.7588  0.5631  2.2138
  263SOL    HW2  789   0.416   1.704   2.639 -0.4652  0.8075  1.0694
  264SOL     OW  790   1.082   1.542   0.672 -0.0143 -0.1320  0.4965
  264SOL    HW1  791   1.031   1.567   0.755 -0.6955 -2.4744 -0.3856
  264SOL    HW2  792   1.058   1.609   0.598  0.4976 -0.4643 -0.2588
  265SOL     OW  793   1.291   2.465   0.472 -0.1799  0.1011  0.5088
  265SOL    HW1  794   1.389   2.432   0.458  1.7328 -1.3400 -1.9497
  265SOL    HW2  795   1.286   2.548   0.532  0.4956  0.3267 -2.2387
  266SOL     OW  796   1.830   0.808   1.128 -0.6176 -0.0650 -0.1359
  266SOL    HW1  797   1.767   0.730   1.112 -0.9704  0.7507  1.7643
  266SOL    HW2  798   1.935   0.787   1.118  0.7946 -0.8715  1.2851
  267SOL     OW  799   2.735   1.268   2.802 -0.0192 -0.1977 -0.2948
  267SOL    HW1  800   2.786   1.282   2.717  1.0202  0.3006  1.2093
  267SOL    HW2  801   2.655   1.207   2.791 -0.1702  0.9973 -2.3550
  268SOL     OW  802   1.510   0.136   0.086  0.0654  0.1424 -0.4753
  268SOL    HW1  803   1.499   0.069   0.165 -0.8729 -0.8406  0.6558
  268SOL    HW2  804   1.460   0.224   0.105 -2.1451  1.1906  4.0448
  269SOL     OW  805   2.517   0.680   2.490  0.0003  0.2749  0.1535
  269SOL    HW1  806   2.558   0.699   2.581 -1.4051  1.0369  0.6877
  269SOL    HW2  807   2.550   0.593   2.443  0.5496  0.9139 -1.8037
  270SOL     OW  808   3.001   1.453   0.328  0.8579 -0.2228  0.4541
  270SOL    HW1  809   3.038   1.357   0.321  2.6828  0.4294 -2.6932
  270SOL    HW2  810   3.078   1.526   0.331  1.7069  0.6070 -1.9493
  271SOL     OW  811   2.542   1.108   2.749  0.0717 -0.0431  0.6685
  271SOL    HW1  812   2.488   1.139   2.669 -0.7691  0.5017  0.5572
  271SOL    HW2  813   2.494   1.031   2.796 -1.6606  0.6930  0.7610
  272SOL     OW  814   2.947   2.450   2.410 -0.3446  0.3384  0.8530
  272SOL    HW1  815   3.031   2.387   2.415  2.5142 -1.6990 -0.7297
  272SOL    HW2  816   2.881   2.410   2.474  3.4281  1.5443  0.7759
  273SOL     OW  817   0.502   2.662   0.607 -0.0959 -0.3135  0.1207
  273SOL    HW1  818   0.576   2.712   0.659  1.6686  2.6141  3.1584
  273SOL    HW2  819   0.514   2.561   0.618 -3.3996  1.4662  0.7160
  274SOL     OW  820   0.816   2.225   0.688 -0.2386  0.0611 -0.2058
  274SOL    HW1  821   0.840   2.130   0.659 -0.0408 -1.5464  1.0111
  274SOL    HW2  822   0.814   2.225   0.786  1.0501 -0.7804  1.1551
  275SOL     OW  823   2.521   1.080   0.362  0.0174 -0.8394  0.4419
  275SOL    HW1  824   2.462   1.118   0.437 -0.9878 -0.2901  0.3009
  275SOL    HW2  825   2.514   1.135   0.275  0.1176  0.3469 -1.2265
  276SOL     OW  826   2.524   1.581   1.428 -0.3406 -0.0616  0.2976
  276SOL    HW1  827   2.585   1.529   1.492  1.6585  0.3266  2.3666
  276SOL    HW2  828   2.463   1.526   1.367  2.2014  0.1140 -1.3427
  277SOL     OW  829   2.835   3.028   0.802 -0.1702  0.0400 -0.5645
  277SOL    HW1  830   2.757   2.985   0.852 -2.2226 -1.2220 -0.1148
  277SOL    HW2  831   2.923   3.001   0.850 -0.6170 -0.5712  0.7406
  278SOL     OW  832   1.470   0.269   2.205 -0.2069 -0.0827  0.5806
  278SOL    HW1  833   1.384   0.256   2.255  1.4870 -0.9333  0.4578
  278SOL    HW2  834   1.540   0.209   2.246 -1.4721 -1.4360 -0.9019
  279SOL     OW  835   1.599   2.834   0.721 -0.1404  0.0554 -0.4609
  279SOL    HW1  836   1.677   2.866   0.664  1.3971 -0.4906 -0.6453
  279SOL    HW2  837   1.510   2.832   0.678 -2.3639  1.4962  0.3051
  280SOL     OW  838   0.701   1.023   0.847 -0.0936 -0.7602  0.2957
  280SOL    HW1  839   0.726   1.111   0.891  1.1736 -0.4183  0.0573
  280SOL    HW2  840   0.614   1.031   0.794 -2.9346  3.1110 -0.0082
  281SOL     OW  841   2.574   1.488   2.862 -0.4427  0.2740 -0.0957
  281SOL    HW1  842   2.655   1.427   2.876 -1.7856  1.9441 -0.0826
  281SOL    HW2  843   2.553   1.499   2.762 -1.0405 -0.2293  2.6587
  282SOL     OW  844   3.099   1.176   0.296 -0.4875 -0.6390  0.0348
  282SOL    HW1  845   3.023   1.111   0.333 -0.9845 -4.1468 -0.9030
  282SOL    HW2  846   0.081   1.164   0.347 -0.5315  2.6767 -1.9308
  283SOL     OW  847   1.983   2.787   2.668 -0.5604 -0.2532  0.4591
  283SOL    HW1  848   2.034   2.829   2.590 -0.3815 -2.2556  3.2511
  283SOL    HW2  849   1.930   2.708   2.631  0.5626  0.6976  0.6336
  284SOL     OW  850   0.982   0.065   0.116 -0.0915 -0.3164 -0.1354
  284SOL    HW1  851   0.948   3.074   0.130 -0.2647 -0.6524 -0.2353
  284SOL    HW2  852   1.017   0.090   0.210 -2.2618 -0.4363  2.1585
  285SOL     OW  853   2.492   1.536   2.599 -0.5342 -0.1123 -0.1210
  285SOL    HW1  854   2.492   1.482   2.514  1.5650 -0.5836  0.8365
  285SOL    HW2  855   2.421   1.609   2.603  2.1438  2.2956 -0.0270
  286SOL     OW  856   1.383   2.239   0.738  0.6863  0.3949 -0.0487
  286SOL    HW1  857   1.352   2.204   0.645  0.1176  3.3200 -0.4736
  286SOL    HW2  858   1.448   2.174   0.786  0.5960 -1.6670 -0.3808
  287SOL     OW  859   1.615   0.414   0.881  0.0639  0.4514  0.0268
  287SOL    HW1  860   1.531   0.436   0.831 -0.6977 -0.2267  0.4970
  287SOL    HW2  861   1.694   0.444   0.825 -1.8636 -0.6315 -2.1638
  288SOL     OW  862   0.944   2.907   2.314  0.3120 -0.2219 -0.6517
  288SOL    HW1  863   0.943   2.839   2.391  0.4629 -0.4534  0.8764
  288SOL    HW2  864   0.877   2.877   2.241  0.9064  0.1873 -0.6267
  289SOL     OW  865   0.096   1.287   0.689  0.6199 -0.0351 -0.0789
  289SOL    HW1  866   0.097   1.286   0.790 -0.3630  1.6603 -0.4909
  289SOL    HW2  867   0.021   1.228   0.651  1.4068  0.6179 -0.0048
  290SOL     OW  868   1.135   2.240   0.892 -0.2536 -0.2519  0.0771
  290SOL    HW1  869   1.229   2.269   0.863  4.4212  1.7218 -1.8377
  290SOL    HW2  870   1.088   2.192   0.822  0.5895  0.1183  2.3158
  291SOL     OW  871   1.470   2.788   0.317 -0.1888  0.5015  0.7356
  291SOL    HW1  872   1.557   2.733   0.317 -1.0881  0.9223  0.4956
  291SOL    HW2  873   1.392   2.729   0.275 -1.7337 -1.8260 -2.2413
  292SOL     OW  874   0.529   0.262   2.363  0.5136  0.3283 -0.0925
  292SOL    HW1  875   0.616   0.309   2.391  0.4788  0.2031 -0.0885
  292SOL    HW2  876   0.453   0.289   2.431  0.3485 -2.2394  2.2469
  293SOL     OW  877   2.357   1.845   0.861 -0.2183  0.1612  0.2202
  293SOL    HW1  878   2.352   1.773   0.936  1.0452 -1.1018  1.4614
  293SOL    HW2  879   2.367   1.940   0.901  1.0811 -1.1625  1.0054
  294SOL     OW  880   0.770   0.074   2.201 -0.6611  0.0565  0.4304
  294SOL    HW1  881   0.759   0.153   2.263  0.8808 -0.4905  0.4947
  294SOL    HW2  882   0.690   0.019   2.177  0.2216 -0.0673 -2.1759
  295SOL     OW  883   0.958   1.599   0.928 -0.5452  0.5500  0.0794
  295SOL    HW1  884   0.981   1.519   0.987  1.7045  1.1660  0.2849
  295SOL    HW2  885   0.855   1.611   0.919  2.4341  0.7414  0.2571
  296SOL     OW  886   2.238   1.845   0.616  0.3787  0.0318  0.0716
  296SOL    HW1  887   2.282   1.886   0.531 -2.5870 -1.5987 -0.5237
  296SOL    HW2  888   2.306   1.834   0.694 -2.0358  0.6497  0.4611
  297SOL     OW  889   2.474   0.016   2.959 -0.2097  0.2989 -0.1108
  297SOL    HW1  890   2.389   3.079   2.920 -0.5858  2.1902  0.4731
  297SOL    HW2  891   2.482   3.090   3.056 -1.0648  0.5014  0.5527
  298SOL     OW  892   1.226   0.352   2.585 -0.1992  0.0232 -0.1312
  298SOL    HW1  893   1.172   0.400   2.659  1.9333 -0.6519  1.1108
  298SOL    HW2  894   1.322   0.341   2.613 -3.6922  0.6592 -2.3677
  299SOL     OW  895   1.062   2.702   1.916  1.0043  0.4401  0.1542
  299SOL    HW1  896   1.095   2.789   1.881 -1.5671 -0.2376  1.7392
  299SOL    HW2  897   1.099   2.691   2.006  0.6094  0.2917 -1.0049
  300SOL     OW  898   2.668   2.960   1.982  0.5353  0.0299  0.0768
  300SOL    HW1  899   2.664   2.923   2.075  1.1943  3.9019  1.2226
  300SOL    HW2  900   2.739   3.035   1.978  3.6082  1.6407  0.6675
  301SOL     OW  901   2.036   0.461   1.755 -0.4029  0.2919  0.4297
  301SOL    HW1  902   2.114   0.409   1.793  0.8140 -0.0895 -1.1087
  301SOL    HW2  903   1.969   0.396   1.705 -1.5782 -1.0766  1.0890
  302SOL     OW  904   0.248   2.300   0.097 -0.2354  0.3756 -0.7590
  302SOL    HW1  905   0.184   2.227   0.079 -1.3807  2.4144  1.0841
  302SOL    HW2  906   0.195   2.386   0.119 -0.2490  1.8611 -1.1739
  303SOL     OW  907   1.682   2.242   1.402  0.5539 -0.0646  0.1445
  303SOL    HW1  908   1.648   2.148   1.409  1.4978  0.6038 -2.3232
  303SOL    HW2  909   1.770   2.255   1.459  0.1312 -0.0538 -0.4511
  304SOL     OW  910   2.836   0.775   1.339 -0.2867 -0.7180 -0.3860
  304SOL    HW1  911   2.895   0.749   1.262 -0.0867  1.2071  1.7000
  304SOL    HW2  912   2.813   0.876   1.342 -2.1189 -0.0163  0.0005
  305SOL     OW  913   0.462   1.045   0.718  0.3957  0.7811  0.0433
  305SOL    HW1  914   0.387   1.051   0.783  2.0577  1.5737 -0.9411
  305SOL    HW2  915   0.466   1.132   0.660  0.3270 -0.6713 -1.2130
  306SOL     OW  916   0.340   1.156   2.727  0.5241  0.0875 -0.5996
  306SOL    HW1  917   0.345   1.055   2.706  0.3068  2.7242 -1.2086
  306SOL    HW2  918   0.262   1.203   2.676 -0.4130  3.5586 -0.0649
  307SOL     OW  919   1.077   0.360   1.632 -0.3842 -0.1582 -0.0802
  307SOL    HW1  920   1.119   0.376   1.723 -1.2670 -0.5391 -2.8532
  307SOL    HW2  921   0.984   0.321   1.644  1.4387 -1.8043  2.7137
  308SOL     OW  922   0.447   0.903   1.127 -0.3608  0.7829  0.0909
  308SOL    HW1  923   0.399   0.830   1.179  1.0468  0.7761  0.0297
  308SOL    HW2  924   0.516   0.866   1.059  0.8618 -1.2576 -0.8637
  309SOL     OW  925   2.289   1.040   0.936 -0.0084 -0.1040 -0.6247
  309SOL    HW1  926   2.250   1.018   0.844 -2.1369  1.3452 -1.7660
  309SOL    HW2  927   2.211   1.076   0.995 -4.7299  1.2251  1.0144
  310SOL     OW  928   0.740   1.670   2.806  0.1045  0.6976 -0.0220
  310SOL    HW1  929   0.723   1.576   2.837 -0.6600  1.3301  1.5080
  310SOL    HW2  930   0.652   1.721   2.797  1.1962 -1.0074  3.1106
  311SOL     OW  931   2.338   2.743   2.438 -0.2363  0.1123 -0.0343
  311SOL    HW1  932   2.364   2.760   2.343  2.0896 -3.4032  1.0248
  311SOL    HW2  933   2.382   2.811   2.500 -1.0953  2.5418 -1.0101
  312SOL     OW  934   1.982   2.100   2.966 -0.4560 -0.2872  0.0588
  312SOL    HW1  935   1.914   2.031   3.005 -1.2645  0.1407 -1.1874
  312SOL    HW2  936   2.076   2.066   2.980 -1.5537 -1.3099 -0.7421
  313SOL     OW  937   0.675   3.080   0.259  0.4238  0.1212  0.0221
  313SOL    HW1  938   0.687   0.072   0.246  0.8318 -2.4348 -0.3342
  313SOL    HW2  939   0.608   3.054   0.334 -1.0538 -0.4056  1.4323
  314SOL     OW  940   2.302   1.523   2.824 -0.6466  0.7742 -0.3241
  314SOL    HW1  941   2.269   1.554   2.914  3.7970 -1.7971  0.0199
  314SOL    HW2  942   2.403   1.523   2.828 -0.1558  0.9214  0.9794
  315SOL     OW  943   1.480   0.361   2.597  0.1652  0.5591  0.1081
  315SOL    HW1  944   1.545   0.316   2.526  0.8468 -1.4310 -0.8449
  315SOL    HW2  945   1.512   0.454   2.627 -0.9313  0.6285  1.5123
  316SOL     OW  946   0.037   1.007   0.831  0.8266 -0.4040  0.0920
  316SOL    HW1  947   3.071   1.009   0.903 -0.1760  0.0175  0.2756
  316SOL    HW2  948   0.002   1.015   0.735 -1.3795 -0.5504 -1.3037
  317SOL     OW  949   0.454   2.639   2.948 -0.0661 -0.5364  0.1674
  317SOL    HW1  950   0.427   2.669   2.852  1.9264 -1.5687 -0.8931
  317SOL    HW2  951   0.544   2.676   2.981  0.2920 -0.5555  2.7617
  318SOL     OW  952   2.595   2.581   0.895  0.1809  0.3920  0.0646
  318SOL    HW1  953   2.522   2.648   0.871 -0.0350 -1.0754  1.3127
  318SOL    HW2  954   2.674   2.610   0.960 -2.4648  1.8487 -0.6360
  319SOL     OW  955   1.042   1.523   2.852  0.0706  0.2514 -0.0843
  319SOL    HW1  956   0.940   1.532   2.845  1.0518  0.3434  0.4299
  319SOL    HW2  957   1.083   1.568   2.768 -1.5051 -0.1069 -0.8926
  320SOL     OW  958   0.505   1.900   1.182  0.2092  0.2645 -0.5410
  320SOL    HW1  959   0.445   1.861   1.103 -1.3875  1.7439 -0.2190
  320SOL    HW2  960   0.601   1.894   1.149 -1.3011 -2.2490 -0.1714
  321SOL     OW  961   1.385   2.894   1.986 -0.6954 -0.0671  0.1872
  321SOL    HW1  962   1.298   2.927   1.954  1.2103 -0.7852  0.6383
  321SOL    HW2  963   1.429   2.948   2.059  1.3677 -1.6923 -1.6578
  322SOL     OW  964   2.301   2.053   2.216  0.3341  0.2734 -0.4352
  322SOL    HW1  965   2.213   2.041   2.268  0.1804  1.4048  0.5895
  322SOL    HW2  966   2.294   2.115   2.134  1.2635 -0.8152 -2.2408
  323SOL     OW  967   2.809   0.222   0.765  0.4178  0.6619 -0.0497
  323SOL    HW1  968   2.807   0.122   0.759  0.7122  0.1540 -0.2071
  323SOL    HW2  969   2.719   0.265   0.781  4.3977  2.8051 -1.1989
  324SOL     OW  970   2.955   2.690   2.552 -0.2701 -0.1938  0.7317
  324SOL    HW1  971   3.045   2.689   2.600 -3.0893  2.5795 -0.5654
  324SOL    HW2  972   2.956   2.610   2.497 -1.8838  0.9541  3.2172
  325SOL     OW  973   1.264   0.645   2.447  0.3500  0.0858  0.4253
  325SOL    HW1  974   1.280   0.654   2.348  1.7258  0.2773  1.0935
  325SOL    HW2  975   1.249   0.546   2.477 -1.5768  3.6168 -0.0857
  326SOL     OW  976   2.184   2.502   1.614  0.0531 -0.0905  0.0759
  326SOL    HW1  977   2.279   2.521   1.641 -2.9160  1.0636 -0.5484
  326SOL    HW2  978   2.124   2.582   1.632 -3.1901 -1.3864 -1.0032
  327SOL     OW  979   2.458   3.001   0.148  0.1544 -0.0581  0.3141
  327SOL    HW1  980   2.392   3.049   0.208 -1.2449 -1.7152 -0.1652
  327SOL    HW2  981   2.404   2.934   0.100  0.4878  2.2348  1.4694
  328SOL     OW  982   0.119   1.207   1.510 -0.1546  0.2530  0.4368
  328SOL    HW1  983   0.162   1.164   1.589 -1.9007 -0.9354 -2.0851
  328SOL    HW2  984   0.133   1.310   1.510  2.6206 -2.4017 -0.4997
  329SOL     OW  985   2.084   0.726   1.441  0.2930  0.1867  0.2122
  329SOL    HW1  986   2.038   0.739   1.530 -2.2277  4.2590  2.3627
  329SOL    HW2  987   2.043   0.654   1.388  3.9539  1.3837  2.1874
  330SOL     OW  988   0.046   0.871   1.178 -0.8567  0.4488 -0.0918
  330SOL    HW1  989   3.073   0.934   1.162  1.8678  0.9402  1.6858
  330SOL    HW2  990   0.042   0.785   1.124 -0.0813 -1.6647  0.0200
  331SOL     OW  991   0.571   1.369   1.885 -0.5707 -0.0312  0.1703
  331SOL    HW1  992   0.649   1.407   1.942  0.7991  1.5746  2.5121
  331SOL    HW2  993   0.483   1.405   1.919  0.7212  0.5390 -3.4490
  332SOL     OW  994   0.342   2.565   1.429 -0.5323  0.0990 -0.5333
  332SOL    HW1  995   0.276   2.629   1.468  1.1197  0.6000 -1.1957
  332SOL    HW2  996   0.332   2.473   1.473 -2.2331 -0.2379 -2.1920
  333SOL     OW  997   3.066   2.973   0.925  0.5486 -0.4326  0.5632
  333SOL    HW1  998   3.103   3.066   0.909  3.4028 -1.8712  0.2887
  333SOL    HW2  999   0.017   2.896   0.899 -1.0267 -0.2065 -0.6720
  334SOL     OW 1000   0.229   1.152   0.479 -0.6040  0.1899  0.6712
  334SOL    HW1 1001   0.297   1.213   0.432 -0.1888  2.4536 -1.2884
  334SOL    HW2 1002   0.194   1.202   0.560  1.5625 -2.5325 -1.5399
  335SOL     OW 1003   0.449   2.325   3.028 -0.7402 -0.4210 -0.3628
  335SOL    HW1 1004   0.378   2.292   3.096  0.4016 -0.6090  2.5936
  335SOL    HW2 1005   0.423   2.424   3.016 -0.0084  1.6797 -1.4310
  336SOL     OW 1006   2.934   2.631   2.185 -0.2548 -0.0522 -0.5380
  336SOL    HW1 1007   2.961   2.562   2.255 -1.3686  0.4663 -1.0047
  336SOL    HW2 1008   2.868   2.601   2.113 -0.1872  0.8803  0.3071
  337SOL     OW 1009   1.757   2.145   1.758 -0.6438 -0.0415  0.4172
  337SOL    HW1 1010   1.654   2.172   1.767 -1.1809  2.0739  0.0715
  337SOL    HW2 1011   1.767   2.044   1.774  0.2728 -0.1793  1.3008
  338SOL     OW 1012   1.001   0.443   2.747  0.3285 -0.1335  0.7823
  338SOL    HW1 1013   0.917   0.483   2.700 -1.7222  0.1576 -3.2119
  338SOL    HW2 1014   0.982   0.392   2.836 -0.1728 -0.7080  0.6830
  339SOL     OW 1015   0.315   1.149   2.166 -0.3695  0.0705 -0.3349
  339SOL    HW1 1016   0.297   1.210   2.084  0.2945 -1.9744  0.9431
  339SOL    HW2 1017   0.341   1.206   2.247  1.3647 -1.6426 -0.7922
  340SOL     OW 1018   1.933   0.033   0.766  0.4474  0.5798 -0.1781
  340SOL    HW1 1019   2.032   0.028   0.781  0.3327 -1.4671  0.5648
  340SOL    HW2 1020   1.892   0.035   0.859 -1.7790 -0.4697  1.1249
  341SOL     OW 1021   2.003   1.256   0.750  0.1395 -0.3782  0.0063
  341SOL    HW1 1022   2.081   1.260   0.816  1.8636  1.2142  2.4184
  341SOL    HW2 1023   2.008   1.343   0.698  0.4700 -0.5347 -1.1607
  342SOL     OW 1024   2.329   2.621   2.951  0.2965 -0.3229  0.1838
  342SOL    HW1 1025   2.400   2.563   2.912  0.9606  2.2516 -2.0932
  342SOL    HW2 1026   2.235   2.588   2.924 -1.5905 -1.6489 -0.3433
  343SOL     OW 1027   0.939   2.213   1.616 -0.1109  0.2631 -0.1614
  343SOL    HW1 1028   0.914   2.231   1.714 -1.1529  0.8041 -1.1569
  343SOL    HW2 1029   0.881   2.269   1.558 -0.3443 -1.2402  1.3735
  344SOL     OW 1030   2.280   2.826   1.428  0.3625 -0.3347  0.0839
  344SOL    HW1 1031   2.278   2.723   1.411 -1.0396 -1.1036  1.8141
  344SOL    HW2 1032   2.375   2.853   1.423  0.1135  1.1052 -0.7479
  345SOL     OW 1033   2.713   1.997   0.076  0.3686 -0.1706 -0.8114
  345SOL    HW1 1034   2.797   2.029   0.031 -3.7211  0.7942  1.4513
  345SOL    HW2 1035   2.731   1.971   0.173  2.3413 -0.5422 -1.7382
  346SOL     OW 1036   1.709   2.411   1.174 -0.2992  0.6489 -0.7288
  346SOL    HW1 1037   1.784   2.360   1.130 -1.4840  0.2470 -0.4711
  346SOL    HW2 1038   1.668   2.356   1.244 -0.0469  0.2163 -1.5052
  347SOL     OW 1039   1.220   1.742   1.538 -0.1304  0.1574 -0.0146
  347SOL    HW1 1040   1.225   1.842   1.566  1.4517 -0.7883  0.6460
  347SOL    HW2 1041   1.164   1.690   1.605  2.3527 -1.5325 -1.7057
  348SOL     OW 1042   0.459   1.826   2.216 -0.2396  0.3186  0.0417
  348SOL    HW1 1043   0.420   1.902   2.269 -0.3960  0.1465  0.1642
  348SOL    HW2 1044   0.555   1.812   2.243  0.1010 -0.0556  0.4855
  349SOL     OW 1045   1.956   1.623   1.264 -0.4596 -0.3948  0.0162
  349SOL    HW1 1046   1.857   1.610   1.258  3.3458 -1.0415  0.3880
  349SOL    HW2 1047   1.986   1.653   1.358  1.4613 -0.9586  4.6640
  350SOL     OW 1048   2.469   2.356   0.501 -0.7487  0.2573 -0.7070
  350SOL    HW1 1049   2.552   2.413   0.501  2.6464  2.0181 -1.1645
  350SOL    HW2 1050   2.483   2.283   0.565  2.5918  1.9698  0.7986
  351SOL     OW 1051   0.943   0.063   1.486 -0.4017 -0.4908 -0.3088
  351SOL    HW1 1052   0.874   0.138   1.514 -2.1791  2.3404  0.5907
  351SOL    HW2 1053   0.930   0.030   1.390 -3.5469 -1.0888  0.6598
  352SOL     OW 1054   0.154   1.530   0.981  0.4814 -0.3282 -0.2453
  352SOL    HW1 1055   0.200   1.440   1.001 -0.2909 -3.6072 -1.6573
  352SOL    HW2 1056   0.118   1.566   1.067 -0.0189  0.0803  1.2903
  353SOL     OW 1057   1.218   1.528   2.248 -0.0135  0.4413  0.4286
  353SOL    HW1 1058   1.243   1.480   2.160 -0.0973  1.5313 -1.4434
  353SOL    HW2 1059   1.187   1.462   2.319 -0.3478 -0.2234 -1.5912
  354SOL     OW 1060   1.552   0.052   1.813 -0.6321  0.0798 -0.8704
  354SOL    HW1 1061   1.645   0.096   1.827  4.6342  2.6497 -0.0440
  354SOL    HW2 1062   1.538   3.087   1.883 -0.7391 -0.3579 -1.0550
  355SOL     OW 1063   2.540   1.215   0.127  0.1519 -0.4856  0.1185
  355SOL    HW1 1064   2.453   1.266   0.109 -0.7377  1.9365  0.2654
  355SOL    HW2 1065   2.617   1.272   0.091 -0.9149 -0.3836  2.3522
  356SOL     OW 1066   2.808   1.725   1.480  0.2206  0.1580  0.3542
  356SOL    HW1 1067   2.749   1.796   1.522  1.2371 -0.7497 -0.2067
  356SOL    HW2 1068   2.755   1.659   1.429  1.0482  1.8227 -0.6594
  357SOL     OW 1069   0.379   2.734   1.199 -0.6400 -0.5091  0.4593
  357SOL    HW1 1070   0.370   2.666   1.272  1.8435 -0.5042  1.2581
  357SOL    HW2 1071   0.305   2.805   1.213  1.2977  1.2956 -1.6955
  358SOL     OW 1072   2.644   1.586   1.802 -0.2426 -0.5391 -0.3358
  358SOL    HW1 1073   2.565   1.575   1.864 -0.3394  2.5253 -2.6221
  358SOL    HW2 1074   2.640   1.537   1.711  0.4678 -0.6293 -0.0501
  359SOL     OW 1075   2.307   2.891   2.898 -0.1187 -0.7053 -0.5224
  359SOL    HW1 1076   2.342   2.800   2.919  1.3216  0.5862  1.0449
  359SOL    HW2 1077   2.206   2.892   2.887  0.3353 -1.4904  2.4768
  360SOL     OW 1078   1.031   0.097   0.897 -0.3547  0.2964 -0.2229
  360SOL    HW1 1079   1.090   0.177   0.909  1.7837 -0.8044 -0.0013
  360SOL    HW2 1080   1.074   0.012   0.862 -0.7718 -0.8480  0.5823
  361SOL     OW 1081   2.225   0.403   0.520  0.7153  0.1958  0.6266
  361SOL    HW1 1082   2.176   0.325   0.568 -2.4346 -0.3556  0.2120
  361SOL    HW2 1083   2.182   0.493   0.533  1.2763  0.5084 -0.5607
  362SOL     OW 1084   1.823   1.275   0.989  0.4495  0.3126  0.4732
  362SOL    HW1 1085   1.883   1.222   0.926 -2.0315  1.8414 -1.1070
  362SOL    HW2 1086   1.727   1.286   0.955 -1.4097 -2.7112 -0.6802
  363SOL     OW 1087   2.256   1.017   2.272 -0.3334 -0.2355 -0.3944
  363SOL    HW1 1088   2.157   0.993   2.277  2.5659 -2.0009 -1.1305
  363SOL    HW2 1089   2.269   1.102   2.218 -1.2283 -2.3257  2.2008
  364SOL     OW 1090   0.308   0.322   1.155 -0.7195  0.0261 -0.0206
  364SOL    HW1 1091   0.242   0.388   1.197  3.0411 -0.6422  0.1163
  364SOL    HW2 1092   0.274   0.227   1.168  1.4014 -1.9155 -0.3785
  365SOL     OW 1093   0.673   0.212   2.893 -0.1108  0.0384  0.4486
  365SOL    HW1 1094   0.635   0.121   2.912  1.2951  1.3015 -0.6422
  365SOL    HW2 1095   0.752   0.198   2.826 -2.2639 -0.7068 -1.8584
  366SOL     OW 1096   2.056   2.539   2.831  0.5106 -0.0151  0.0050
  366SOL    HW1 1097   2.009   2.609   2.769  0.0492  0.7011 -1.8828
  366SOL    HW2 1098   2.077   2.456   2.780 -1.1444  2.3353  1.5952
  367SOL     OW 1099   3.030   2.238   0.202  0.1333  0.1598  0.5787
  367SOL    HW1 1100   2.936   2.272   0.214 -0.6055 -0.7601  1.6828
  367SOL    HW2 1101   3.084   2.267   0.283  1.2215  1.1072  0.8727
  368SOL     OW 1102   2.949   1.229   1.313  0.6445 -0.1695  0.1536
  368SOL    HW1 1103   2.929   1.305   1.252  1.1567 -3.8233 -0.6968
  368SOL    HW2 1104   3.044   1.199   1.299 -1.0343  0.6963 -0.5363
  369SOL     OW 1105   0.896   0.119   2.789 -0.6820 -0.7120  0.0815
  369SOL    HW1 1106   0.919   0.090   2.691  1.4299 -0.6792  1.7056
  369SOL    HW2 1107   0.966   0.085   2.854  3.0446 -0.1806 -1.9741
  370SOL     OW 1108   2.817   0.443   0.438 -1.2638  0.0361  0.5841
  370SOL    HW1 1109   2.749   0.366   0.452  0.8519  0.9822 -1.0284
  370SOL    HW2 1110   2.908   0.403   0.407 -0.7898 -3.5261 -0.1518
  371SOL     OW 1111   1.612   2.094   0.950 -0.3182  0.4134  0.1452
  371SOL    HW1 1112   1.648   2.023   0.885 -1.5524 -3.2084 -2.6778
  371SOL    HW2 1113   1.667   2.176   0.954  1.3131 -0.0440  0.6729
  372SOL     OW 1114   2.838   0.687   2.659 -0.2686  0.1422  0.0462
  372SOL    HW1 1115   2.852   0.666   2.560  2.6141 -1.1493 -2.6541
  372SOL    HW2 1116   2.836   0.791   2.673 -2.9501  4.8332  1.1108
  373SOL     OW 1117   2.716   1.659   1.131 -0.6651  0.0188  0.2164
  373SOL    HW1 1118   2.726   1.686   1.034 -0.0515  0.6522 -0.4134
  373SOL    HW2 1119   2.618   1.637   1.141 -0.1373  2.6170  0.6819
  374SOL     OW 1120   0.694   2.698   3.049 -0.2758  0.3744 -0.1343
  374SOL    HW1 1121   0.679   2.785   3.099 -0.0681 -0.4902 -1.1112
  374SOL    HW2 1122   0.784   2.695   3.004 -2.2596 -1.9027  1.0908
  375SOL     OW 1123   0.143   3.047   3.095 -0.6298 -0.2403  0.1077
  375SOL    HW1 1124   0.109   3.008   0.077  1.1432  2.4188 -0.2082
  375SOL    HW2 1125   0.073   0.009   3.061  1.3409  0.1002  1.5611
  376SOL     OW 1126   0.060   2.164   1.507  0.1478 -0.4127 -0.3509
  376SOL    HW1 1127   3.096   2.157   1.587 -2.1339 -0.4318  1.4826
  376SOL    HW2 1128   0.088   2.070   1.484 -0.8773 -0.3986 -1.9674
  377SOL     OW 1129   1.606   2.221   2.463  0.0761 -0.0005 -0.4270
  377SOL    HW1 1130   1.585   2.177   2.554 -1.2007 -2.1410  1.9070
  377SOL    HW2 1131   1.547   2.194   2.386  0.7704  1.4053 -1.7759
  378SOL     OW 1132   0.545   0.379   3.068 -0.1883 -0.0804  0.1549
  378SOL    HW1 1133   0.592   0.469   3.047  2.5939  0.2421  2.7980
  378SOL    HW2 1134   0.590   0.299   3.016  1.6481 -3.4485 -0.2279
  379SOL     OW 1135   0.678   0.749   0.366 -0.5509 -0.6354  0.6947
  379SOL    HW1 1136   0.720   0.826   0.310  0.9469  3.7060 -0.7695
  379SOL    HW2 1137   0.616   0.789   0.436 -1.0907  0.9313 -0.3788
  380SOL     OW 1138   3.021   1.825   1.807 -0.4905  0.0819 -0.0639
  380SOL    HW1 1139   2.944   1.801   1.870 -0.9436 -0.2238 -0.2832
  380SOL    HW2 1140   0.001   1.838   1.865 -0.1300 -0.0305  1.1759
  381SOL     OW 1141   0.290   1.058   1.733  0.4367  0.1340  0.5663
  381SOL    HW1 1142   0.356   1.048   1.658 -1.0028 -0.3099  0.3614
  381SOL    HW2 1143   0.229   0.973   1.731  0.0404 -4.4949 -0.9732
  382SOL     OW 1144   2.373   1.907   0.401  0.3049  0.1144 -0.0185
  382SOL    HW1 1145   2.423   1.823   0.366  0.2420 -3.0419 -0.6462
  382SOL    HW2 1146   2.316   1.945   0.325 -1.4561 -1.0224 -1.0875
  383SOL     OW 1147   2.973   2.023   3.040 -0.5262 -0.0919  0.0816
  383SOL    HW1 1148   3.035   1.954   2.995 -1.6102  1.3320 -0.8834
  383SOL    HW2 1149   3.015   2.117   3.021  2.8695  4.3656 -1.0093
  384SOL     OW 1150   0.851   2.331   2.622 -0.1764  0.4512  0.0377
  384SOL    HW1 1151   0.817   2.336   2.721 -2.4688  1.7208  0.7943
  384SOL    HW2 1152   0.792   2.268   2.562  2.1863 -1.6515 -0.0747
  385SOL     OW 1153   2.805   1.253   0.992  0.3613  0.5590 -0.4624
  385SOL    HW1 1154   2.820   1.335   1.050 -1.9902  0.7446 -1.1953
  385SOL    HW2 1155   2.725   1.198   1.017  3.5258 -0.2383  0.4511
  386SOL     OW 1156   2.150   1.504   1.523 -0.0952  0.0061  0.0593
  386SOL    HW1 1157   2.207   1.486   1.438  2.2376 -1.3528 -0.5838
  386SOL    HW2 1158   2.116   1.602   1.524 -0.4726 -0.1110  0.3377
  387SOL     OW 1159   2.765   1.242   1.950  0.4319  0.0455 -0.1952
  387SOL    HW1 1160   2.822   1.311   1.899 -1.1126 -1.2504 -0.3602
  387SOL    HW2 1161   2.678   1.220   1.895 -3.9742 -2.5198 -2.3688
  388SOL     OW 1162   2.944   1.360   2.171  0.1655 -0.1958  0.0744
  388SOL    HW1 1163   2.856   1.310   2.148 -0.3708  2.0477  3.4595
  388SOL    HW2 1164   3.004   1.384   2.094 -2.7025 -1.5582  0.4350
  389SOL     OW 1165   1.943   1.121   2.059  0.0034 -0.0742  0.3003
  389SOL    HW1 1166   1.967   1.079   2.150  2.7459  1.3394 -0.5278
  389SOL    HW2 1167   2.029   1.165   2.019  0.3522 -2.7460  1.5282
  390SOL     OW 1168   1.776   3.021   0.590  0.7306 -0.1052  0.3074
  390SOL    HW1 1169   1.827   3.082   0.650 -0.2235 -2.7520 -2.0759
  390SOL    HW2 1170   1.761   3.067   0.497 -2.8256 -2.6826 -1.8080
  391SOL     OW 1171   2.159   1.723   1.077 -0.2720  0.1337 -0.3203
  391SOL    HW1 1172   2.216   1.794   1.116 -1.6620  0.0709  3.2003
  391SOL    HW2 1173   2.096   1.680   1.148  1.6291 -0.2117  2.1372
  392SOL     OW 1174   2.672   2.517   0.578 -0.5181  0.1313 -0.0722
  392SOL    HW1 1175   2.634   2.599   0.534  0.9215  0.4951  1.5225
  392SOL    HW2 1176   2.683   2.542   0.677 -0.1967  1.0765 -1.0368
  393SOL     OW 1177   1.613   1.777   2.826  0.2393 -0.4900 -0.5686
  393SOL    HW1 1178   1.664   1.693   2.826 -1.2657  1.5038  1.4370
  393SOL    HW2 1179   1.555   1.788   2.744  0.0936 -1.5725  3.8546
  394SOL     OW 1180   0.263   0.109   2.832  0.0970  0.3896 -0.0643
  394SOL    HW1 1181   0.161   0.107   2.814 -1.3651 -0.0145  2.0363
  394SOL    HW2 1182   0.300   0.028   2.876  3.2418  1.3945  0.4514
  395SOL     OW 1183   0.656   0.791   0.967  0.4152  0.2947  0.2384
  395SOL    HW1 1184   0.662   0.698   0.928 -1.8002  1.2874  0.9946
  395SOL    HW2 1185   0.679   0.859   0.899 -0.2185 -0.4479 -0.5622
  396SOL     OW 1186   1.148   1.078   0.726  0.4376  0.1335  0.1208
  396SOL    HW1 1187   1.074   1.007   0.724  0.0145 -1.8438  0.0112
  396SOL    HW2 1188   1.230   1.055   0.665  1.2176  1.3267 -2.3822
  397SOL     OW 1189   0.481   0.670   2.088  0.3938  0.3341  0.2063
  397SOL    HW1 1190   0.391   0.628   2.058  2.1655 -2.2141  0.1783
  397SOL    HW2 1191   0.470   0.769   2.089 -1.4633 -1.5904  2.1953
  398SOL     OW 1192   1.063   0.188   0.370 -0.3689  0.6059 -0.5994
  398SOL    HW1 1193   1.033   0.283   0.354 -1.2608 -2.4396  0.9672
  398SOL    HW2 1194   1.166   0.179   0.387  2.9187 -1.4230 -0.1959
  399SOL     OW 1195   2.001   2.687   1.660 -0.0657  0.2352 -0.1267
  399SOL    HW1 1196   1.990   2.741   1.751  2.0895 -1.5187  1.0889
  399SOL    HW2 1197   1.916   2.683   1.603  0.1984 -2.9498  0.9966
  400SOL     OW 1198   1.116   1.777   2.201 -0.0802 -0.3621  0.2790
  400SOL    HW1 1199   1.058   1.792   2.122  1.3381 -1.0939  1.1283
  400SOL    HW2 1200   1.153   1.682   2.210  1.9811  2.9133  4.6306
  401SOL     OW 1201   0.658   1.095   2.612  0.3237  0.6201  0.1735
  401SOL    HW1 1202   0.684   1.072   2.709  1.0134  0.1604  1.5797
  401SOL    HW2 1203   0.577   1.040   2.571 -2.2274 -1.3872  0.7913
  402SOL     OW 1204   2.656   1.992   1.011  0.0845 -0.3690 -0.0584
  402SOL    HW1 1205   2.674   1.899   0.977 -0.6077  2.4764 -1.4730
  402SOL    HW2 1206   2.672   1.992   1.114 -0.5724 -0.6696  0.6947
  403SOL     OW 1207   0.124   1.006   2.282 -0.3941 -0.3682 -0.0936
  403SOL    HW1 1208   0.044   1.057   2.312  0.6428 -2.0123  1.5703
  403SOL    HW2 1209   0.181   1.064   2.217  1.9232  0.6037 -0.3910
  404SOL     OW 1210   0.285   2.629   1.756 -0.2997 -0.3127 -0.0999
  404SOL    HW1 1211   0.211   2.609   1.685  0.4602  1.5540 -0.2088
  404SOL    HW2 1212   0.317   2.727   1.740  2.2613  3.2124 -0.5065
  405SOL     OW 1213   0.406   0.261   2.107  0.5660 -0.4158  0.5217
  405SOL    HW1 1214   0.437   0.251   2.201  0.5658 -2.0909 -1.0348
  405SOL    HW2 1215   0.339   0.190   2.081 -1.6593  1.8761  2.1738
  406SOL     OW 1216   1.642   1.742   2.420 -0.2438 -0.7088 -0.0146
  406SOL    HW1 1217   1.728   1.780   2.375  0.8290 -0.8688  0.4404
  406SOL    HW2 1218   1.573   1.700   2.359 -0.6753 -0.5600 -0.5701
  407SOL     OW 1219   1.328   1.028   2.493 -0.1254  0.4906  0.0439
  407SOL    HW1 1220   1.333   1.001   2.395 -1.1546 -0.9205 -0.6989
  407SOL    HW2 1221   1.233   1.043   2.523  1.8760 -2.6354  0.9633
  408SOL     OW 1222   0.936   0.069   2.512 -0.1749  0.4235 -0.3799
  408SOL    HW1 1223   0.907   0.162   2.481 -0.6167  1.0801 -1.6545
  408SOL    HW2 1224   0.961   0.005   2.434 -0.4234 -1.4276 -0.7757
  409SOL     OW 1225   0.351   1.912   0.716 -1.1414  0.4604 -0.0611
  409SOL    HW1 1226   0.438   1.861   0.719 -1.6653 -0.3967  2.2514
  409SOL    HW2 1227   0.345   1.974   0.634  2.0354 -0.5140 -2.4829
  410SOL     OW 1228   2.759   1.034   0.117  0.7533 -1.1508  0.2493
  410SOL    HW1 1229   2.822   1.013   0.197  1.3850  0.2591 -0.3543
  410SOL    HW2 1230   2.677   1.084   0.157  2.6959  0.1854 -0.3146
  411SOL     OW 1231   0.185   0.089   1.189 -0.0995 -0.2530  0.2627
  411SOL    HW1 1232   0.141   0.067   1.279 -1.5678  1.7128  1.9602
  411SOL    HW2 1233   0.218   0.009   1.142  1.1650  3.9200  0.5583
  412SOL     OW 1234   1.598   0.805   1.545 -0.0371 -0.1861 -0.5825
  412SOL    HW1 1235   1.666   0.841   1.477  0.4688 -0.0535  0.1108
  412SOL    HW2 1236   1.507   0.795   1.499  3.1255  0.0064  0.6445
  413SOL     OW 1237   0.811   3.014   1.693  0.6586 -0.2285  0.3908
  413SOL    HW1 1238   0.839   3.072   1.767  0.1214  0.2285 -0.5083
  413SOL    HW2 1239   0.857   3.049   1.610 -3.7597  0.2533  1.1310
  414SOL     OW 1240   2.948   1.522   2.794 -0.4353  0.0820 -0.9710
  414SOL    HW1 1241   2.925   1.516   2.894 -0.2567  1.4297 -1.1235
  414SOL    HW2 1242   3.045   1.496   2.781 -1.2490 -1.4638  1.9285
  415SOL     OW 1243   0.752   2.452   0.018 -0.1198  0.3591 -0.4151
  415SOL    HW1 1244   0.765   2.407   3.034  0.3803  0.7615  1.4021
  415SOL    HW2 1245   0.723   2.548   0.003  4.2989  1.5780 -0.2325
  416SOL     OW 1246   2.010   3.001   0.258  0.6942  0.1398 -0.0121
  416SOL    HW1 1247   2.032   2.935   0.181  0.5435 -0.6188 -0.6376
  416SOL    HW2 1248   2.026   3.096   0.231 -1.3102 -1.1137 -1.4842
  417SOL     OW 1249   0.301   0.445   0.668 -0.2952 -0.8361 -0.2092
  417SOL    HW1 1250   0.395   0.483   0.672  0.0118  2.1974 -1.4692
  417SOL    HW2 1251   0.264   0.449   0.571 -1.6174 -0.9989 -2.4089
  418SOL     OW 1252   2.534   0.097   0.950 -0.3434 -0.5112 -0.2079
  418SOL    HW1 1253   2.453   0.128   1.008  1.1907 -0.1616 -0.9253
  418SOL    HW2 1254   2.575   0.180   0.905  1.2080  0.1516  1.0720
  419SOL     OW 1255   0.149   3.041   0.542  0.2776 -0.5622 -0.3478
  419SOL    HW1 1256   0.054   3.064   0.524  2.8892 -2.2460  0.8710
  419SOL    HW2 1257   0.157   2.940   0.557 -1.6049  2.0430 -1.3251
  420SOL     OW 1258   0.136   1.501   1.508  0.2978  0.3301  0.3317
  420SOL    HW1 1259   0.219   1.491   1.447  0.9973  0.8646 -1.2575
  420SOL    HW2 1260   0.125   1.599   1.536  2.9854  3.4539 -0.7007
  421SOL     OW 1261   1.216   2.985   0.365 -0.2117  0.8666  0.2263
  421SOL    HW1 1262   1.132   2.963   0.415  1.1823 -0.6467 -0.4114
  421SOL    HW2 1263   1.220   2.937   0.271  0.3404 -0.1004  0.4127
  422SOL     OW 1264   0.263   0.489   1.600  0.0591 -0.0332  0.2524
  422SOL    HW1 1265   0.295   0.542   1.679  1.4314 -0.8218 -2.1770
  422SOL    HW2 1266   0.166   0.514   1.575 -1.1048  0.9611  0.1558
  423SOL     OW 1267   0.952   1.254   1.638 -0.1320 -0.1192  0.5811
  423SOL    HW1 1268   0.976   1.281   1.732 -0.3849 -0.8019  0.1802
  423SOL    HW2 1269   0.897   1.172   1.648 -3.0665  0.0480  0.3729
  424SOL     OW 1270   2.163   1.573   3.057 -0.5753 -0.5537  0.4503
  424SOL    HW1 1271   2.210   1.501   0.007 -3.1882  0.1203  0.0368
  424SOL    HW2 1272   2.066   1.549   3.046 -0.2680  0.7088  0.3811
  425SOL     OW 1273   0.163   0.115   2.122  0.1455 -0.2550  0.3933
  425SOL    HW1 1274   0.133   0.157   2.212  0.9868 -0.7914 -1.6624
  425SOL    HW2 1275   0.103   0.035   2.089 -1.3301  3.8943 -3.2394
  426SOL     OW 1276   0.305   2.932   2.907  0.0008 -0.1684  0.1433
  426SOL    HW1 1277   0.238   2.944   2.989 -1.4035 -1.4609  0.2997
  426SOL    HW2 1278   0.276   2.849   2.856  0.0982 -1.5702 -1.3609
  427SOL     OW 1279   1.096   1.032   2.833  0.5205 -0.0552  0.7197
  427SOL    HW1 1280   1.138   1.126   2.855 -1.7990  2.8060  1.4000
  427SOL    HW2 1281   1.126   0.960   2.899 -0.1318  0.4574  2.6208
  428SOL     OW 1282   2.486   1.274   1.512 -0.2895 -0.6566  0.3680
  428SOL    HW1 1283   2.404   1.318   1.547  1.1833 -1.8669 -0.6077
  428SOL    HW2 1284   2.459   1.216   1.433  0.1923  2.7981  0.6423
  429SOL     OW 1285   2.412   2.773   0.812  0.4227 -0.1402 -0.0568
  429SOL    HW1 1286   2.383   2.738   0.718 -2.5368  1.1963 -2.1101
  429SOL    HW2 1287   2.323   2.766   0.870 -2.5935  0.2613  1.6771
  430SOL     OW 1288   0.588   1.392   2.243 -0.5159 -0.2353 -0.3030
  430SOL    HW1 1289   0.511   1.347   2.286  1.7720 -0.9005  1.3564
  430SOL    HW2 1290   0.648   1.438   2.306 -0.9630 -0.5873  0.7006
  431SOL     OW 1291   2.694   1.419   1.595  0.5799 -0.0520  0.0251
  431SOL    HW1 1292   2.794   1.401   1.586  0.3809 -0.6162  1.9678
  431SOL    HW2 1293   2.638   1.340   1.563 -0.0723  0.1865 -1.9372
  432SOL     OW 1294   1.108   2.717   2.180 -0.1855 -0.0831 -0.2682
  432SOL    HW1 1295   1.081   2.796   2.238  1.2867  2.3044  0.4966
  432SOL    HW2 1296   1.185   2.665   2.226 -1.8594 -2.0585  2.2157
  433SOL     OW 1297   1.744   0.081   2.146 -0.0533  0.4491 -0.3804
  433SOL    HW1 1298   1.835   0.041   2.169  0.0463 -0.7566 -2.1787
  433SOL    HW2 1299   1.744   0.117   2.045 -0.0940  1.1376 -0.3628
  434SOL     OW 1300   0.599   2.564   2.519 -0.1281  0.7153  0.1205
  434SOL    HW1 1301   0.530   2.504   2.567 -1.8799 -0.5538  0.6098
  434SOL    HW2 1302   0.638   2.635   2.582 -0.2399  0.3833  0.4780
  435SOL     OW 1303   0.403   2.917   0.171 -0.1368  0.0282 -0.7807
  435SOL    HW1 1304   0.364   3.002   0.209 -0.5250 -0.6202 -1.4020
  435SOL    HW2 1305   0.455   2.935   0.084  0.7595 -1.9039  1.2536
  436SOL     OW 1306   0.737   0.589   1.934  0.2120  0.5510 -0.2858
  436SOL    HW1 1307   0.651   0.620   1.979 -0.5611  0.9084 -3.6102
  436SOL    HW2 1308   0.765   0.495   1.965 -1.2232  0.5921  0.5062
  437SOL     OW 1309   0.448   2.344   2.578 -0.4240  0.3184  0.0623
  437SOL    HW1 1310   0.474   2.294   2.493 -0.9698  3.6321 -0.8875
  437SOL    HW2 1311   0.456   2.291   2.664  0.3185 -0.4280  0.6736
  438SOL     OW 1312   0.513   1.468   1.620 -0.2537 -0.0033 -0.1292
  438SOL    HW1 1313   0.566   1.554   1.637 -1.4992 -0.1745  0.2464
  438SOL    HW2 1314   0.502   1.421   1.706  1.0496  0.2682 -0.8338
  439SOL     OW 1315   2.343   0.783   2.203  0.0228 -0.0444  0.2241
  439SOL    HW1 1316   2.336   0.735   2.293  0.8862 -0.8896 -0.4472
  439SOL    HW2 1317   2.306   0.880   2.212 -0.2544 -4.0721  0.8001
  440SOL     OW 1318   0.420   0.604   0.248 -0.0195 -0.4409  0.1293
  440SOL    HW1 1319   0.404   0.506   0.228 -0.2240  1.0740 -2.7786
  440SOL    HW2 1320   0.514   0.617   0.289 -0.8213  0.0581  1.3724
  441SOL     OW 1321   1.140   2.412   1.277 -0.2049 -0.1655  0.3282
  441SOL    HW1 1322   1.134   2.490   1.339  2.7187 -0.2911 -0.7127
  441SOL    HW2 1323   1.061   2.408   1.216  0.7327  0.9596  3.6741
  442SOL     OW 1324   2.221   1.581   0.620 -0.3420  0.3134 -0.4279
  442SOL    HW1 1325   2.243   1.679   0.606 -0.5838  0.4332 -1.5556
  442SOL    HW2 1326   2.308   1.524   0.615  0.5720  1.8239  0.0578
  443SOL     OW 1327   2.802   2.066   2.649  0.1909 -0.5433 -0.8035
  443SOL    HW1 1328   2.782   2.160   2.623  4.4522  2.5422  0.3902
  443SOL    HW2 1329   2.750   2.004   2.584 -1.3316 -0.0383 -2.6136
  444SOL     OW 1330   1.635   1.502   2.978  0.0884 -0.3292 -0.0857
  444SOL    HW1 1331   1.688   1.523   3.060 -0.9744  0.4570 -1.5348
  444SOL    HW2 1332   1.580   1.418   2.993 -0.1460  1.0611 -2.1468
  445SOL     OW 1333   2.477   2.714   2.185  0.3861  0.2014 -0.3921
  445SOL    HW1 1334   2.513   2.628   2.139 -0.9828 -1.7697 -1.4739
  445SOL    HW2 1335   2.564   2.766   2.217  2.3977  1.5744  1.9554
  446SOL     OW 1336   0.491   0.911   1.596 -0.1618 -0.3750 -0.0711
  446SOL    HW1 1337   0.549   0.837   1.569 -2.5883  1.1242  2.3329
  446SOL    HW2 1338   0.520   0.999   1.546  0.0653  4.5636 -5.4496
  447SOL     OW 1339   0.778   1.252   0.962  0.0825  0.3844  0.1427
  447SOL    HW1 1340   0.876   1.254   0.997  2.9054 -2.5159  2.1534
  447SOL    HW2 1341   0.744   1.348   0.947 -0.7469  0.8772 -0.9519
  448SOL     OW 1342   1.123   1.131   1.920  0.2143 -0.4845 -0.0370
  448SOL    HW1 1343   1.199   1.129   1.859 -2.4912  0.7083  0.6494
  448SOL    HW2 1344   1.088   1.033   1.918 -0.7993 -3.3094  1.7262
  449SOL     OW 1345   3.087   2.088   2.363 -0.0843 -0.1547 -0.7110
  449SOL    HW1 1346   3.061   2.123   2.270  2.2754 -2.2386  0.6719
  449SOL    HW2 1347   0.016   1.992   2.353 -3.9756 -0.0720 -0.6907
  450SOL     OW 1348   2.632   1.903   2.040 -0.5288 -0.3129  0.3754
  450SOL    HW1 1349   2.671   1.984   1.989  1.6297 -0.8642 -0.1558
  450SOL    HW2 1350   2.693   1.821   2.046 -1.4599 -1.7115 -0.7074
  451SOL     OW 1351   2.337   1.140   1.308 -0.3700  0.0004 -0.3507
  451SOL    HW1 1352   2.245   1.103   1.290  0.6519  1.5698  1.8940
  451SOL    HW2 1353   2.408   1.076   1.265 -2.2701 -3.2830 -2.8006
  452SOL     OW 1354   0.371   1.465   1.369  0.2051  0.6717 -1.0083
  452SOL    HW1 1355   0.417   1.442   1.458 -0.7141  2.1811  0.7587
  452SOL    HW2 1356   0.405   1.414   1.289 -2.2213  2.8265 -0.5312
  453SOL     OW 1357   0.231   1.286   1.033  0.3688  0.7490 -0.5973
  453SOL    HW1 1358   0.270   1.207   0.985  0.4702 -0.5264  2.2892
  453SOL    HW2 1359   0.151   1.251   1.088 -2.6564 -1.2976 -0.7172
  454SOL     OW 1360   0.330   1.386   0.119 -0.0577  0.3747 -0.3835
  454SOL    HW1 1361   0.430   1.397   0.110 -0.2503 -0.8077  1.9905
  454SOL    HW2 1362   0.290   1.346   0.036  2.4484  0.3919 -1.1090
  455SOL     OW 1363   1.748   1.014   0.967  0.1232 -0.2522 -0.2227
  455SOL    HW1 1364   1.723   1.093   1.024  0.9026 -1.0625 -0.3638
  455SOL    HW2 1365   1.785   0.943   1.027 -0.6511 -1.3042  0.8184
  456SOL     OW 1366   1.756   2.530   0.843 -0.5988  0.2070 -0.0243
  456SOL    HW1 1367   1.793   2.627   0.832  1.7612 -0.6784 -0.0314
  456SOL    HW2 1368   1.658   2.530   0.813 -0.7915  0.3858 -0.5367
  457SOL     OW 1369   1.938   3.101   2.636  0.5523  0.7071  0.5208
  457SOL    HW1 1370   1.982   3.014   2.615 -1.7859  0.3613 -1.4121
  457SOL    HW2 1371   1.847   3.102   2.588  0.5722 -0.0955 -2.2211
  458SOL     OW 1372   2.506   0.415   0.090  0.9993 -0.0011  0.3906
  458SOL    HW1 1373   2.447   0.369   0.019 -1.4304  0.6839 -1.9153
  458SOL    HW2 1374   2.605   0.420   0.069 -0.4178  1.1136 -3.4447
  459SOL     OW 1375   2.995   1.149   2.360 -0.4475  0.5747  0.3613
  459SOL    HW1 1376   2.928   1.079   2.335  0.4927 -0.3760  0.9170
  459SOL    HW2 1377   2.987   1.222   2.288 -3.5771  1.7069  3.4574
  460SOL     OW 1378   0.346   0.662   3.003  0.4128  0.3307  0.6668
  460SOL    HW1 1379   0.348   0.636   2.902 -1.6898 -0.2491 -3.2483
  460SOL    HW2 1380   0.381   0.582   3.054 -1.1281  0.7532 -1.2570
  461SOL     OW 1381   0.027   2.356   0.732  0.3519 -0.2022 -0.2215
  461SOL    HW1 1382   0.044   2.297   0.646 -0.7388 -0.4911 -2.0840
  461SOL    HW2 1383   0.113   2.375   0.778 -2.1522  0.3218 -0.5048
  462SOL     OW 1384   3.081   2.904   1.584 -0.3388  0.6923  0.0487
  462SOL    HW1 1385   3.079   2.883   1.688 -2.7022 -0.9353  2.2433
  462SOL    HW2 1386   3.003   2.873   1.524 -0.8899  0.1984 -0.9971
  463SOL     OW 1387   2.032   2.038   1.894 -0.1424  0.0028  0.0761
  463SOL    HW1 1388   1.948   1.998   1.855  0.1481 -1.4112  2.0148
  463SOL    HW2 1389   2.057   2.131   1.855  0.6276  1.0109  1.7513
  464SOL     OW 1390   0.164   2.893   1.296 -0.1094 -0.4812  0.5783
  464SOL    HW1 1391   0.145   2.964   1.372 -1.8025  5.1267  2.0464
  464SOL    HW2 1392   0.137   2.928   1.207  0.9796 -1.3293 -1.7637
  465SOL     OW 1393   0.523   0.070   1.521 -0.2217  0.1062  0.1338
  465SOL    HW1 1394   0.576   0.021   1.593  0.2631  0.7437  0.7734
  465SOL    HW2 1395   0.460   0.146   1.548  0.7296 -0.6622 -0.1298
  466SOL     OW 1396   1.325   1.971   2.116  0.0600  0.4770 -0.2400
  466SOL    HW1 1397   1.349   1.972   2.019 -1.0790 -0.7764  2.4448
  466SOL    HW2 1398   1.264   1.891   2.138 -1.6083 -2.1708 -1.5094
  467SOL     OW 1399   3.035   1.649   0.832  0.5695  0.3642 -0.4787
  467SOL    HW1 1400   0.007   1.615   0.884 -1.3144  1.4245 -1.7761
  467SOL    HW2 1401   3.009   1.581   0.758  1.6562 -0.2305 -0.5195
  468SOL     OW 1402   2.293   2.062   2.586  0.4234 -0.2114 -0.0860
  468SOL    HW1 1403   2.354   2.140   2.563  1.7264  2.0062 -0.8313
  468SOL    HW2 1404   2.239   2.031   2.508  2.5905  1.0093 -0.1323
  469SOL     OW 1405   1.215   2.232   0.347 -0.2876  0.8421 -0.4909
  469SOL    HW1 1406   1.146   2.217   0.274 -0.3526 -0.4908  2.3533
  469SOL    HW2 1407   1.229   2.333   0.367 -0.3431 -1.5555  1.0635
  470SOL     OW 1408   2.049   1.754   1.509 -0.4606 -0.1222 -0.4554
  470SOL    HW1 1409   2.102   1.837   1.489  0.2172 -1.8975  1.2223
  470SOL    HW2 1410   1.959   1.779   1.546  0.4140 -0.7272 -1.8397
  471SOL     OW 1411   0.650   2.406   0.264 -0.3188  0.3026  0.3421
  471SOL    HW1 1412   0.641   2.502   0.303  2.2912 -0.1250 -0.8320
  471SOL    HW2 1413   0.686   2.414   0.168 -2.5028 -1.8181 -2.3053
  472SOL     OW 1414   2.559   2.135   2.306 -0.4730 -0.1736  0.2034
  472SOL    HW1 1415   2.479   2.092   2.265  0.5878  0.0771  0.6782
  472SOL    HW2 1416   2.630   2.075   2.319 -1.3154 -0.9418 -0.3960
  473SOL     OW 1417   1.290   2.679   0.631 -0.2931  0.1439 -0.4952
  473SOL    HW1 1418   1.246   2.676   0.722 -1.3630  0.8858 -0.9242
  473SOL    HW2 1419   1.308   2.776   0.604 -2.0164  1.0704 -2.3735
  474SOL     OW 1420   2.915   0.035   1.412 -0.1819 -0.1645 -0.4024
  474SOL    HW1 1421   2.918   3.101   1.317 -0.7685 -1.0365 -0.6887
  474SOL    HW2 1422   2.820   0.078   1.421 -0.1244  0.7878 -0.9054
  475SOL     OW 1423   1.714   2.732   2.044 -0.2218 -0.2173  0.4939
  475SOL    HW1 1424   1.694   2.674   2.122  2.2371  0.2816  0.3306
  475SOL    HW2 1425   1.642   2.733   1.977  3.2047 -0.0991  0.6455
  476SOL     OW 1426   0.409   0.353   0.905 -0.7927 -0.0485 -0.1205
  476SOL    HW1 1427   0.395   0.311   0.996  0.0625  0.8073  0.2010
  476SOL    HW2 1428   0.342   0.428   0.901  3.4976  1.4901  0.1993
  477SOL     OW 1429   0.819   2.194   0.964  0.2863  0.0501 -0.1540
  477SOL    HW1 1430   0.719   2.211   0.985 -1.5696 -0.3730 -2.2585
  477SOL    HW2 1431   0.870   2.273   1.009  1.5693 -0.7586  1.6470
  478SOL     OW 1432   0.749   2.746   2.687  0.2056  0.0615 -0.0392
  478SOL    HW1 1433   0.823   2.727   2.621 -0.8755 -0.5589  1.9169
  478SOL    HW2 1434   0.784   2.729   2.781  0.0575  0.4255 -0.2715
  479SOL     OW 1435   0.307   0.488   1.988 -0.3555  0.3516  0.3782
  479SOL    HW1 1436   0.204   0.489   1.991 -1.0112  1.5444  1.2499
  479SOL    HW2 1437   0.347   0.410   2.042  3.0963  0.5661  0.7003
  480SOL     OW 1438   0.270   1.996   2.941 -0.6082  0.3541 -0.0263
  480SOL    HW1 1439   0.298   2.006   3.038 -0.2946  1.5148  1.2308
  480SOL    HW2 1440   0.197   2.065   2.918 -0.5996  0.6935 -0.3097
  481SOL     OW 1441   1.540   3.016   2.191 -0.0967  0.4824  0.3737
  481SOL    HW1 1442   1.581   2.941   2.248  0.8023  2.1413 -0.0610
  481SOL    HW2 1443   1.612   3.087   2.167  0.4492 -0.2761  1.1348
  482SOL     OW 1444   1.725   1.974   3.008 -0.1969 -0.0581 -0.2147
  482SOL    HW1 1445   1.703   1.933   3.096  1.0374  1.9652 -0.9121
  482SOL    HW2 1446   1.677   1.918   2.936  0.8461 -0.7647 -0.8561
  483SOL     OW 1447   0.996   2.726   2.529  0.1928 -0.6493 -0.0693
  483SOL    HW1 1448   1.016   2.627   2.511  1.5230  0.9228  1.8011
  483SOL    HW2 1449   1.076   2.767   2.582  2.4548 -0.1388 -2.7687
  484SOL     OW 1450   0.629   2.904   0.942  0.6058  0.0822  0.6583
  484SOL    HW1 1451   0.618   3.004   0.920  0.0172  2.1530 -0.4846
  484SOL    HW2 1452   0.540   2.849   0.942 -1.0262 -2.9905 -1.1771
  485SOL     OW 1453   2.082   0.638   0.563 -0.5882 -0.0581  0.4350
  485SOL    HW1 1454   1.988   0.635   0.524 -0.6485  0.1792 -0.2269
  485SOL    HW2 1455   2.142   0.696   0.500  1.2131  2.1484 -1.5459
  486SOL     OW 1456   1.937   2.756   1.906  1.3676  0.3713 -0.1216
  486SOL    HW1 1457   2.015   2.698   1.929 -0.4110  2.7120  2.4998
  486SOL    HW2 1458   1.858   2.731   1.967 -2.3626 -0.7463  1.5948
  487SOL     OW 1459   1.172   2.111   0.590 -0.2964  0.3860  0.0811
  487SOL    HW1 1460   1.199   2.145   0.496 -0.1961 -1.8337  0.0269
  487SOL    HW2 1461   1.082   2.069   0.600 -0.9455 -0.2131  2.9781
  488SOL     OW 1462   1.994   0.402   0.236 -0.2779 -0.2751  0.7482
  488SOL    HW1 1463   1.956   0.388   0.328  0.6273 -3.6488 -2.3209
  488SOL    HW2 1464   2.035   0.492   0.215 -0.9216 -2.0198 -1.0035
  489SOL     OW 1465   2.011   2.886   0.520  0.3273 -0.4893  0.4840
  489SOL    HW1 1466   1.927   2.936   0.555 -0.5353  1.9033 -2.1031
  489SOL    HW2 1467   2.010   2.918   0.421 -0.5106 -2.0962  0.1553
  490SOL     OW 1468   1.754   2.849   2.890 -0.2426  0.3966 -0.7989
  490SOL    HW1 1469   1.842   2.892   2.879  0.8298  1.1847  0.9946
  490SOL    HW2 1470   1.738   2.831   2.992  0.5221  0.9678  2.0705
  491SOL     OW 1471   0.768   0.406   1.172 -0.2013  0.1885 -0.5359
  491SOL    HW1 1472   0.811   0.315   1.140 -1.4670 -2.8975 -1.1097
  491SOL    HW2 1473   0.681   0.388   1.220  2.6134  0.4294 -0.7651
  492SOL     OW 1474   1.754   0.014   0.318 -0.1406 -0.0883  0.0236
  492SOL    HW1 1475   1.670   3.073   0.284 -0.3076  0.2818 -0.2559
  492SOL    HW2 1476   1.837   3.060   0.309  0.9383  0.1282 -1.8075
  493SOL     OW 1477   1.803   2.199   2.794  0.4444  0.2676  0.1365
  493SOL    HW1 1478   1.806   2.299   2.808  1.2728 -0.7137 -0.6512
  493SOL    HW2 1479   1.884   2.154   2.831 -0.6306  0.8147  0.0828
  494SOL     OW 1480   0.274   1.051   0.918 -0.3922  0.0999  0.5873
  494SOL    HW1 1481   0.310   0.981   0.985 -0.1632 -0.9191 -0.2620
  494SOL    HW2 1482   0.188   1.020   0.870 -2.9469 -0.2036  1.1212
  495SOL     OW 1483   2.951   0.127   1.686 -0.0861  0.0229  0.6492
  495SOL    HW1 1484   3.048   0.151   1.714  0.2913  4.3400  0.3567
  495SOL    HW2 1485   2.941   0.087   1.595 -2.4357 -1.5199 -0.3550
  496SOL     OW 1486   2.544   2.517   2.012  0.1940  0.1176  0.0571
  496SOL    HW1 1487   2.643   2.540   1.999 -0.8452  0.2077  0.2131
  496SOL    HW2 1488   2.549   2.417   2.046  0.3675  4.1515 -0.6882
  497SOL     OW 1489   1.614   1.325   2.515  0.1214  0.4763 -0.0966
  497SOL    HW1 1490   1.582   1.332   2.418  0.1204 -0.6264 -1.4398
  497SOL    HW2 1491   1.539   1.283   2.568 -0.9162  1.6667  0.9399
  498SOL     OW 1492   0.496   1.540   0.721  0.0636 -0.0533  0.3882
  498SOL    HW1 1493   0.402   1.533   0.681 -0.0492  0.2211 -0.9646
  498SOL    HW2 1494   0.522   1.634   0.747  1.5783  0.2609  0.9620
  499SOL     OW 1495   0.042   1.633   1.231 -0.3889  0.5356 -0.0866
  499SOL    HW1 1496   3.085   1.712   1.225  2.0228 -2.2550 -1.5337
  499SOL    HW2 1497   0.074   1.624   1.323 -1.0755  0.5252 -1.3268
  500SOL     OW 1498   1.419   2.442   0.042  0.2458 -0.6347  0.6269
  500SOL    HW1 1499   1.470   2.366   0.086 -4.3828 -0.0751 -0.8074
  500SOL    HW2 1500   1.364   2.488   0.112  0.3271 -0.2983 -1.1698
  501SOL     OW 1501   2.178   2.687   0.934  0.0754  0.1422 -0.4847
  501SOL    HW1 1502   2.226   2.599   0.924  1.5943 -1.7885 -0.5554
  501SOL    HW2 1503   2.104   2.688   0.864  2.7872 -0.5812 -0.0322
  502SOL     OW 1504   0.197   0.813   1.641 -0.3523  0.0960 -0.6692
  502SOL    HW1 1505   0.164   0.776   1.550  1.6805 -1.8274  0.3826
  502SOL    HW2 1506   0.276   0.753   1.678  2.3284 -3.5674  1.9658
  503SOL     OW 1507   2.011   0.008   1.618  0.5282  0.0377 -0.6082
  503SOL    HW1 1508   1.936   3.053   1.577 -4.0228 -0.3509 -0.1864
  503SOL    HW2 1509   2.104   3.076   1.589  1.2189 -2.6946 -3.0585
  504SOL     OW 1510   2.005   0.884   1.916  0.6881  0.5252  0.4034
  504SOL    HW1 1511   1.935   0.830   1.962 -0.0119 -1.6035 -0.9499
  504SOL    HW2 1512   2.004   0.984   1.944 -1.4966 -0.4471  0.0729
  505SOL     OW 1513   1.114   0.030   2.236  0.5478 -0.9416  0.4101
  505SOL    HW1 1514   1.193   3.103   2.287 -2.0416  1.4973  0.5321
  505SOL    HW2 1515   1.034   3.073   2.258  0.1863 -1.8898 -0.2374
  506SOL     OW 1516   0.510   0.106   1.877  0.2070 -0.1157  0.1271
  506SOL    HW1 1517   0.504   0.186   1.936  1.6484 -2.3996 -0.3886
  506SOL    HW2 1518   0.414   0.080   1.852  0.4397  0.7784 -0.6215
  507SOL     OW 1519   1.654   0.172   2.953  0.4915 -0.3326 -0.0480
  507SOL    HW1 1520   1.663   0.268   2.934 -0.0975  1.1173 -2.6627
  507SOL    HW2 1521   1.617   0.152   3.050 -2.3595  2.4483  1.2468
  508SOL     OW 1522   2.267   0.653   2.426  0.5590  0.0343  0.5465
  508SOL    HW1 1523   2.230   0.569   2.464  0.7597 -0.8375 -3.1320
  508SOL    HW2 1524   2.353   0.680   2.470 -3.3916  0.2912  2.1720
  509SOL     OW 1525   0.813   1.496   2.010 -0.1301 -0.1511 -0.1922
  509SOL    HW1 1526   0.848   1.473   2.100 -1.5112 -1.9418 -2.0170
  509SOL    HW2 1527   0.771   1.586   2.004  1.6074  1.8163 -0.1406
  510SOL     OW 1528   2.976   0.374   0.912  0.0611  0.4437 -0.3855
  510SOL    HW1 1529   3.027   0.441   0.852  1.1780 -0.9835  0.7469
  510SOL    HW2 1530   2.919   0.316   0.855  3.7991  3.3439  2.9901
  511SOL     OW 1531   1.557   1.388   0.899  0.1948 -0.2728 -0.2436
  511SOL    HW1 1532   1.597   1.410   0.809 -0.5293 -1.0389  0.2693
  511SOL    HW2 1533   1.506   1.470   0.934  1.2686 -2.3395  0.0834
  512SOL     OW 1534   0.695   1.193   0.227  0.2338  0.5623 -0.6887
  512SOL    HW1 1535   0.633   1.130   0.179  1.2694 -0.7565  0.0343
  512SOL    HW2 1536   0.696   1.183   0.331 -0.9138 -1.2332 -1.0055
  513SOL     OW 1537   0.347   2.353   0.797  0.0424  0.4694 -0.0586
  513SOL    HW1 1538   0.340   2.260   0.836  0.6566 -0.5116 -0.2628
  513SOL    HW2 1539   0.370   2.347   0.692 -1.5882  0.9215 -2.7195
  514SOL     OW 1540   0.272   2.015   0.118  0.0694 -0.0346 -0.3244
  514SOL    HW1 1541   0.172   1.997   0.137 -0.5905  1.0754 -1.7660
  514SOL    HW2 1542   0.342   1.960   0.168  3.6686  1.1428  1.9272
  515SOL     OW 1543   2.857   0.150   0.149 -0.2263  0.0596 -0.2100
  515SOL    HW1 1544   2.795   0.072   0.168  0.6478 -2.3520  2.3709
  515SOL    HW2 1545   2.912   0.173   0.228 -0.3213  1.2656  0.4838
  516SOL     OW 1546   2.111   2.930   1.034  0.6867 -0.7312  0.5379
  516SOL    HW1 1547   2.114   2.938   1.141 -1.7408  1.6465  0.6170
  516SOL    HW2 1548   2.128   2.837   1.005 -1.9611  2.6538  2.0502
  517SOL     OW 1549   1.317   1.685   0.174  0.1209 -0.2206 -0.3802
  517SOL    HW1 1550   1.336   1.626   0.256  2.0129 -0.5384 -0.4082
  517SOL    HW2 1551   1.304   1.627   0.089  1.0589  1.4512 -0.4829
  518SOL     OW 1552   1.375   0.761   1.431  0.6557  0.0083 -0.2665
  518SOL    HW1 1553   1.338   0.760   1.337  0.1803 -0.2058  2.4959
  518SOL    HW2 1554   1.290   0.765   1.493  0.9952 -1.1908  0.9118
  519SOL     OW 1555   3.041   2.096   0.610 -0.5848 -0.1740  0.1857
  519SOL    HW1 1556   3.067   2.043   0.692  0.5253 -0.5792  0.4726
  519SOL    HW2 1557   2.952   2.146   0.621 -1.2809 -0.0257 -0.8336
  520SOL     OW 1558   2.068   2.312   1.823  0.1639  0.1022  0.7050
  520SOL    HW1 1559   2.127   2.363   1.759  0.6252 -0.7337 -1.0005
  520SOL    HW2 1560   2.033   2.372   1.898  0.8156 -0.7420 -0.8248
  521SOL     OW 1561   1.329   3.058   2.376 -0.0904 -0.2142 -0.3936
  521SOL    HW1 1562   1.367   3.037   2.472 -1.9789  1.0624 -0.9386
  521SOL    HW2 1563   1.403   3.057   2.304  0.4374  1.8008 -0.7006
  522SOL     OW 1564   2.899   0.020   1.923 -0.1517 -0.6864  0.2147
  522SOL    HW1 1565   2.968   3.077   1.979  1.0762  0.9537  2.8229
  522SOL    HW2 1566   2.928   0.035   1.826  0.7841 -2.7293  2.8132
  523SOL     OW 1567   1.202   1.974   1.672 -0.1363  0.2771 -0.1534
  523SOL    HW1 1568   1.149   1.987   1.764 -2.3687 -0.6657  4.1234
  523SOL    HW2 1569   1.157   2.020   1.597  1.8214  0.6698  1.2912
  524SOL     OW 1570   2.105   2.168   0.120  0.1653  0.0118 -0.2930
  524SOL    HW1 1571   2.075   2.169   0.023 -0.6292  0.8985  0.4099
  524SOL    HW2 1572   2.148   2.079   0.137  0.3085  1.1789  0.3798
  525SOL     OW 1573   2.940   0.958   0.334 -0.1036 -0.6961 -0.0571
  525SOL    HW1 1574   2.990   0.882   0.299 -0.8060  0.2602 -0.7821
  525SOL    HW2 1575   2.915   0.943   0.434  0.7825 -2.1741  2.3072
  526SOL     OW 1576   1.217   2.966   0.824 -0.4572  0.5789  0.1090
  526SOL    HW1 1577   1.256   2.984   0.730  4.3011 -0.6403  2.4249
  526SOL    HW2 1578   1.222   2.862   0.845  2.1122  0.4350 -0.1031
  527SOL     OW 1579   2.544   1.327   0.640 -0.6584  0.2337 -0.1497
  527SOL    HW1 1580   2.463   1.277   0.597 -0.8941  0.2211  2.8177
  527SOL    HW2 1581   2.550   1.422   0.604 -0.5941 -0.2152  1.5952
  528SOL     OW 1582   0.586   0.832   2.470 -0.0500  0.7100 -0.4798
  528SOL    HW1 1583   0.626   0.820   2.377  0.9855 -1.1557 -1.4100
  528SOL    HW2 1584   0.486   0.845   2.457 -0.8267  3.1304 -1.5208
  529SOL     OW 1585   0.685   1.412   2.875  0.9803 -0.5799 -0.1646
  529SOL    HW1 1586   0.589   1.407   2.842  1.9568  0.8258  2.0771
  529SOL    HW2 1587   0.727   1.321   2.883  1.7597  1.2588  0.3307
  530SOL     OW 1588   1.471   1.159   1.993 -0.4516  0.1703  0.7331
  530SOL    HW1 1589   1.569   1.143   1.968 -0.1249  0.2355 -1.1196
  530SOL    HW2 1590   1.436   1.096   2.064  1.5071 -1.5370 -0.4470
  531SOL     OW 1591   1.224   2.299   2.733  0.1918 -0.4792  0.3206
  531SOL    HW1 1592   1.148   2.231   2.725  0.2910 -1.6396  0.1898
  531SOL    HW2 1593   1.298   2.269   2.795 -0.3658 -1.4092  1.2742
  532SOL     OW 1594   2.417   0.646   0.157  0.0783 -0.0133 -0.3995
  532SOL    HW1 1595   2.485   0.713   0.126 -5.2698 -1.8947 -0.6558
  532SOL    HW2 1596   2.449   0.551   0.131  2.4607 -1.2316  0.1376
  533SOL     OW 1597   3.100   0.406   1.903 -0.1444 -0.0611  0.2571
  533SOL    HW1 1598   0.019   0.402   1.804 -0.8365 -0.4684 -0.9621
  533SOL    HW2 1599   3.075   0.500   1.928 -3.7081  0.2109 -1.3331
  534SOL     OW 1600   1.740   0.366   0.153 -0.0491  0.3702  0.0194
  534SOL    HW1 1601   1.695   0.275   0.176 -3.2589 -4.1962  0.3798
  534SOL    HW2 1602   1.844   0.369   0.157  0.5000  0.9223 -1.4453
  535SOL     OW 1603   0.705   0.235   0.234 -0.1861  0.0472  0.0836
  535SOL    HW1 1604   0.725   0.272   0.139 -0.6432 -1.8618  0.3283
  535SOL    HW2 1605   0.690   0.310   0.301 -0.9361 -0.6114  0.9315
  536SOL     OW 1606   0.344   1.526   1.864 -0.2346 -0.2819  0.1058
  536SOL    HW1 1607   0.360   1.558   1.960  1.3312 -1.5233  1.7673
  536SOL    HW2 1608   0.354   1.604   1.800 -0.9493 -0.1681  0.4458
  537SOL     OW 1609   0.482   2.477   1.839 -0.2214 -0.4753 -0.8371
  537SOL    HW1 1610   0.551   2.480   1.768 -1.9666  0.4856  2.4046
  537SOL    HW2 1611   0.401   2.539   1.808  0.2800  1.6404  1.9336
  538SOL     OW 1612   0.191   1.812   0.330 -0.3435 -0.1406  0.1528
  538SOL    HW1 1613   0.164   1.720   0.292  3.0551  1.0785 -3.2452
  538SOL    HW2 1614   0.123   1.879   0.287  0.9801  0.8445  1.1032
  539SOL     OW 1615   2.592   0.630   2.774  0.1333  0.3615 -0.2068
  539SOL    HW1 1616   2.551   0.541   2.750  1.3033 -0.7034 -2.4099
  539SOL    HW2 1617   2.692   0.636   2.769  1.9202 -1.1756  0.9522
  540SOL     OW 1618   1.508   0.977   3.021  0.0813  0.0114  0.2176
  540SOL    HW1 1619   1.562   1.051   2.970  2.1793  3.2763 -4.0970
  540SOL    HW2 1620   1.482   1.011   0.006 -0.4955  3.4866 -1.3620
  541SOL     OW 1621   0.710   0.502   1.678 -0.3983 -0.1373  0.3351
  541SOL    HW1 1622   0.705   0.532   1.775  0.6076  0.6329  0.2942
  541SOL    HW2 1623   0.619   0.521   1.630  0.7012  0.5778 -0.5334
  542SOL     OW 1624   1.834   2.395   2.394 -0.6965 -0.1174 -0.1281
  542SOL    HW1 1625   1.775   2.324   2.429  2.4697 -0.1059  1.6704
  542SOL    HW2 1626   1.922   2.353   2.360 -1.0476  1.4972  0.4297
  543SOL     OW 1627   0.837   2.863   1.098 -0.2201 -0.1188  0.0569
  543SOL    HW1 1628   0.760   2.895   1.046  5.4504 -2.4570  0.2980
  543SOL    HW2 1629   0.876   2.778   1.048 -0.9627 -1.0002 -2.8514
  544SOL     OW 1630   2.958   1.624   2.183  0.4394 -0.4888  0.1557
  544SOL    HW1 1631   2.938   1.527   2.189 -0.4179  2.2238  1.7396
  544SOL    HW2 1632   3.002   1.648   2.276  3.1794 -0.0965 -0.2950
  545SOL     OW 1633   1.578   1.988   1.422 -0.2277 -0.1916 -0.5121
  545SOL    HW1 1634   1.555   1.981   1.322 -1.7869 -1.3875  2.4469
  545SOL    HW2 1635   1.557   1.904   1.473  1.9267  1.7831  2.1826
  546SOL     OW 1636   0.294   0.338   2.498 -0.2932  0.6927 -0.2155
  546SOL    HW1 1637   0.217   0.273   2.467 -1.0235 -1.1596 -0.1910
  546SOL    HW2 1638   0.338   0.291   2.576 -0.7103  2.5894 -0.6672
  547SOL     OW 1639   1.461   0.295   0.617 -0.6930  0.6492  0.0291
  547SOL    HW1 1640   1.411   0.358   0.682  0.4376  0.1936  1.0578
  547SOL    HW2 1641   1.487   0.204   0.661 -0.4429 -1.5897  0.1367
  548SOL     OW 1642   1.412   2.225   2.923 -0.1831  0.6452  0.5317
  548SOL    HW1 1643   1.367   2.153   2.986  0.1015  0.8612  1.2538
  548SOL    HW2 1644   1.465   2.295   2.974 -0.0541 -1.7828 -2.8519
  549SOL     OW 1645   1.841   1.037   0.171  0.9110  0.1039  0.1305
  549SOL    HW1 1646   1.855   1.122   0.120 -0.8685 -3.4618  1.0747
  549SOL    HW2 1647   1.835   1.058   0.269 -0.6212 -0.1787  0.5029
  550SOL     OW 1648   2.535   2.046   0.550 -0.1106  0.1284 -0.0777
  550SOL    HW1 1649   2.460   2.008   0.489 -1.6922  0.7843  0.8123
  550SOL    HW2 1650   2.617   2.064   0.495 -1.0665 -0.5479  0.8073
  551SOL     OW 1651   1.354   0.216   1.915  0.2976 -0.6081  0.3847
  551SOL    HW1 1652   1.401   0.250   2.000  1.8075  1.2485  1.7837
  551SOL    HW2 1653   1.415   0.171   1.847 -2.7189  2.2129  0.6757
  552SOL     OW 1654   0.099   2.202   2.850 -0.2941  0.1417 -0.3669
  552SOL    HW1 1655   0.042   2.143   2.786  2.1987 -1.1654  1.4047
  552SOL    HW2 1656   0.040   2.248   2.924  0.5824 -0.9456 -1.4368
  553SOL     OW 1657   2.923   2.436   0.864 -0.3014  0.1376 -0.3858
  553SOL    HW1 1658   3.011   2.403   0.825  1.4359 -0.2244  1.6256
  553SOL    HW2 1659   2.864   2.362   0.897  0.9754  2.3241 -0.6839
  554SOL     OW 1660   2.166   1.785   1.867  0.1427  0.0019  0.6931
  554SOL    HW1 1661   2.104   1.864   1.864  0.4823 -1.2486  2.4136
  554SOL    HW2 1662   2.116   1.706   1.827  0.2461 -0.0857  1.3132
  555SOL     OW 1663   1.437   2.183   2.249  0.2929  0.2756 -0.0472
  555SOL    HW1 1664   1.400   2.090   2.224 -0.7920  0.3799 -1.8080
  555SOL    HW2 1665   1.398   2.252   2.190  0.4747 -2.0394  1.0740
  556SOL     OW 1666   1.251   1.609   1.291  0.0284  0.2102 -0.2177
  556SOL    HW1 1667   1.253   1.672   1.374  1.8075 -3.0101  2.2398
  556SOL    HW2 1668   1.265   1.505   1.308  0.9560 -4.9086  1.0353
  557SOL     OW 1669   1.413   2.967   1.669 -0.3147  0.1400 -0.2371
  557SOL    HW1 1670   1.447   3.047   1.724 -0.4523 -2.1578  1.8596
  557SOL    HW2 1671   1.324   2.995   1.629 -0.0086  1.5297  0.1865
  558SOL     OW 1672   0.569   3.041   2.099 -0.2796 -0.3079  0.6297
  558SOL    HW1 1673   0.560   3.092   2.010 -1.6578  0.9271 -1.3472
  558SOL    HW2 1674   0.478   3.003   2.124 -0.5131 -2.5262 -0.4878
  559SOL     OW 1675   2.469   2.571   0.203  0.5911 -0.3593  0.9426
  559SOL    HW1 1676   2.435   2.643   0.135  0.3482  2.6875 -0.5295
  559SOL    HW2 1677   2.393   2.543   0.269 -2.3677  1.2974  2.8730
  560SOL     OW 1678   1.538   2.398   0.435 -0.1246  0.3790 -0.7700
  560SOL    HW1 1679   1.606   2.390   0.510 -1.1224 -2.0293 -0.1142
  560SOL    HW2 1680   1.529   2.323   0.370 -0.1531  1.6098  1.9521
  561SOL     OW 1681   1.221   0.263   2.910 -0.1888  0.3188 -0.0713
  561SOL    HW1 1682   1.217   0.363   2.932 -0.8565 -0.4943  0.6810
  561SOL    HW2 1683   1.321   0.238   2.894  0.3818  0.5646  0.1850
  562SOL     OW 1684   0.422   1.574   2.129  0.0294 -0.4327  0.2948
  562SOL    HW1 1685   0.470   1.504   2.185  0.0240  0.3192 -0.0389
  562SOL    HW2 1686   0.423   1.674   2.170  0.7923 -0.0687  0.4856
  563SOL     OW 1687   1.284   1.795   2.492  0.4677  0.2202  0.6312
  563SOL    HW1 1688   1.374   1.831   2.523 -1.6453  1.3881 -0.4622
  563SOL    HW2 1689   1.298   1.757   2.394  0.2593  0.7787 -2.3447
  564SOL     OW 1690   2.956   1.017   1.034  0.2858  0.0938  0.5938
  564SOL    HW1 1691   2.889   0.960   0.981  1.4722 -0.9557  0.5275
  564SOL    HW2 1692   2.926   1.111   1.015 -2.6160  2.0492 -1.3589
  565SOL     OW 1693   0.569   0.915   3.012  0.3502 -0.2267  0.1032
  565SOL    HW1 1694   0.494   0.846   2.991  2.7218 -1.7973  1.5611
  565SOL    HW2 1695   0.537   0.981   3.085  0.8097  2.6336  1.4427
  566SOL     OW 1696   2.430   2.899   2.656  0.0611  0.3219 -0.0884
  566SOL    HW1 1697   2.426   2.992   2.613 -0.4119 -1.5633 -1.0467
  566SOL    HW2 1698   2.371   2.904   2.738 -1.7680  2.9339 -1.8808
  567SOL     OW 1699   1.446   1.172   1.032 -0.1794 -0.3074  0.0345
  567SOL    HW1 1700   1.480   1.253   0.980 -2.0484 -2.5725  1.2538
  567SOL    HW2 1701   1.510   1.160   1.116  1.4383  0.7340  2.2335
  568SOL     OW 1702   1.432   1.516   2.796  0.2284 -0.0077  0.6381
  568SOL    HW1 1703   1.518   1.512   2.854  0.5064 -0.6497 -1.2759
  568SOL    HW2 1704   1.436   1.445   2.718  1.0450 -0.3714 -1.8666
  569SOL     OW 1705   2.380   1.687   0.077 -0.2419  0.3808 -0.6278
  569SOL    HW1 1706   2.427   1.764   0.025  0.5386 -4.4395  2.8072
  569SOL    HW2 1707   2.297   1.660   0.026  1.8337  0.8609  0.6782
  570SOL     OW 1708   2.996   2.360   1.899 -0.3217  0.2153 -0.0919
  570SOL    HW1 1709   3.077   2.422   1.905 -1.0493  1.9577 -0.8196
  570SOL    HW2 1710   2.961   2.327   1.992  0.1586  0.1400  1.3124
  571SOL     OW 1711   2.723   1.908   1.689  0.0095 -0.0246 -0.4135
  571SOL    HW1 1712   2.801   1.865   1.739  0.1887 -1.0955 -0.6085
  571SOL    HW2 1713   2.639   1.881   1.739  0.5597  1.4364 -0.0757
  572SOL     OW 1714   1.989   2.322   0.316  0.5018  0.8174  0.1138
  572SOL    HW1 1715   1.940   2.392   0.268  0.5636  0.0665 -0.9625
  572SOL    HW2 1716   2.025   2.252   0.250  2.3524 -0.2351 -1.8299
  573SOL     OW 1717   1.523   1.899   0.480 -0.7760  0.0330  0.2175
  573SOL    HW1 1718   1.559   1.979   0.535  2.8099 -2.6991  0.0481
  573SOL    HW2 1719   1.454   1.855   0.540  1.8764 -0.9501 -0.6176
  574SOL     OW 1720   1.726   0.149   1.471 -0.1928 -0.1735 -0.2477
  574SOL    HW1 1721   1.754   0.052   1.496 -0.9376 -1.7566 -0.5555
  574SOL    HW2 1722   1.627   0.149   1.449  2.7389  0.6798 -0.7647
  575SOL     OW 1723   0.521   1.176   1.528 -0.1844  0.2377 -0.2495
  575SOL    HW1 1724   0.534   1.267   1.567  1.0328 -1.1892 -1.0873
  575SOL    HW2 1725   0.516   1.175   1.427 -0.9955 -2.6930 -0.7463
  576SOL     OW 1726   2.566   0.728   1.369 -0.3567  0.1061 -0.1516
  576SOL    HW1 1727   2.549   0.632   1.341  1.4527 -0.8200  1.0402
  576SOL    HW2 1728   2.667   0.747   1.364  1.3384 -1.2659  1.3084
  577SOL     OW 1729   1.607   1.001   2.512  0.4285  0.5182 -0.9572
  577SOL    HW1 1730   1.504   1.008   2.510 -2.5002 -1.4755  0.8594
  577SOL    HW2 1731   1.646   0.978   2.421 -3.0104  1.0152  2.3125
  578SOL     OW 1732   2.270   1.303   2.643 -0.2904  0.3632  0.8417
  578SOL    HW1 1733   2.282   1.380   2.709 -1.7742  1.0817 -0.8345
  578SOL    HW2 1734   2.201   1.329   2.574 -1.1215 -2.2129 -0.9638
  579SOL     OW 1735   0.821   1.976   1.623  0.0177  0.0035  0.0508
  579SOL    HW1 1736   0.865   2.064   1.640 -1.6981 -0.2322 -0.7978
  579SOL    HW2 1737   0.834   1.954   1.525 -3.4438  2.1454 -0.7690
  580SOL     OW 1738   1.521   2.237   0.195 -0.1450 -0.2537 -0.3128
  580SOL    HW1 1739   1.595   2.252   0.128 -1.1276 -0.2846  0.7267
  580SOL    HW2 1740   1.488   2.142   0.189  0.2906  0.5949 -1.1548
  581SOL     OW 1741   0.865   0.799   2.047 -0.1430 -0.1619  0.2573
  581SOL    HW1 1742   0.823   0.735   1.982 -0.4666  0.7575 -2.4251
  581SOL    HW2 1743   0.897   0.744   2.127 -0.3831 -0.7003  0.0930
  582SOL     OW 1744   0.914   1.345   1.336  0.3786  0.4026  0.5157
  582SOL    HW1 1745   0.902   1.243   1.310 -0.3338 -2.2441 -0.4341
  582SOL    HW2 1746   0.914   1.357   1.436  1.7476 -1.3704 -1.5818
  583SOL     OW 1747   0.689   1.114   1.920 -0.4004  0.0023 -0.0470
  583SOL    HW1 1748   0.630   1.190   1.889 -0.0617  0.9043 -4.4076
  583SOL    HW2 1749   0.731   1.141   2.008  0.9864  1.8090 -1.1795
  584SOL     OW 1750   2.027   2.403   0.568  0.6158  0.1153 -0.2802
  584SOL    HW1 1751   2.086   2.366   0.643  1.1286 -1.9675  0.4161
  584SOL    HW2 1752   2.029   2.347   0.477 -1.7146  1.0895 -1.0010
  585SOL     OW 1753   1.882   0.051   2.891 -0.1592  0.2261 -0.1191
  585SOL    HW1 1754   1.797   0.097   2.910 -0.3766 -0.5524 -0.8684
  585SOL    HW2 1755   1.904   0.044   2.791 -0.4164  0.6672  1.6569
  586SOL     OW 1756   0.001   1.929   0.825 -0.3261 -0.6364 -0.1419
  586SOL    HW1 1757   3.083   1.827   0.819  1.0653 -1.8649  0.4464
  586SOL    HW2 1758   3.101   1.966   0.920  1.4685  0.5838 -0.0048
  587SOL     OW 1759   1.839   2.022   0.297 -0.4009 -0.1379  0.4471
  587SOL    HW1 1760   1.914   1.967   0.341 -0.1229 -0.7562  0.2529
  587SOL    HW2 1761   1.873   2.105   0.253 -2.5137 -0.2255  1.1801
  588SOL     OW 1762   0.145   0.225   0.727 -0.0907  0.2103  0.1494
  588SOL    HW1 1763   0.108   0.234   0.822  1.2948  2.0811  2.6364
  588SOL    HW2 1764   0.199   0.307   0.710 -0.6723 -2.0742  0.4263
  589SOL     OW 1765   1.174   1.219   0.960 -0.4096 -0.1768 -0.3253
  589SOL    HW1 1766   1.149   1.178   0.870 -2.7249 -2.5029  3.2720
  589SOL    HW2 1767   1.272   1.196   0.982 -0.2917 -0.7395 -0.0152
  590SOL     OW 1768   1.344   1.303   3.104  0.6749 -0.3137  0.4164
  590SOL    HW1 1769   1.404   1.334   0.077 -1.2388 -0.0600  1.3447
  590SOL    HW2 1770   1.293   1.220   0.019  0.2704  2.4299 -0.8338
  591SOL     OW 1771   2.546   2.505   2.528  0.1610 -0.0945  0.3260
  591SOL    HW1 1772   2.575   2.575   2.592 -1.2266  0.8898 -1.7165
  591SOL    HW2 1773   2.465   2.535   2.474 -0.7624  2.6967  0.2847
  592SOL     OW 1774   1.892   2.004   1.539  0.2453 -0.4251 -0.1954
  592SOL    HW1 1775   1.876   2.069   1.614  3.7513  0.3804  0.6381
  592SOL    HW2 1776   1.802   1.994   1.491  2.7969  0.1977 -0.5085
  593SOL     OW 1777   0.870   0.168   1.098 -0.9657  0.1979 -0.1555
  593SOL    HW1 1778   0.875   0.071   1.139  0.3485 -0.7563  2.6332
  593SOL    HW2 1779   0.938   0.161   1.024  1.9957 -1.3628 -0.6822
  594SOL     OW 1780   2.938   0.657   2.376 -0.1658 -0.2155  0.0396
  594SOL    HW1 1781   3.025   0.682   2.326  3.0559 -1.1226 -1.5294
  594SOL    HW2 1782   2.933   0.558   2.393 -0.6651 -0.7554  1.5330
  595SOL     OW 1783   0.817   2.715   1.324 -0.1412 -0.4915  0.1124
  595SOL    HW1 1784   0.836   2.777   1.241 -0.3931  1.0228 -0.0321
  595SOL    HW2 1785   0.739   2.652   1.302  1.4321 -0.0525 -0.4212
  596SOL     OW 1786   0.127   0.718   1.406 -0.0561  0.0901 -0.2881
  596SOL    HW1 1787   0.097   0.631   1.356  1.6798 -3.7323 -0.7930
  596SOL    HW2 1788   0.093   0.799   1.354  1.0249 -3.0318  0.2635
  597SOL     OW 1789   1.694   1.847   0.162  0.3950  0.1012  0.4009
  597SOL    HW1 1790   1.591   1.864   0.176 -2.9551 -0.0394  0.1881
  597SOL    HW2 1791   1.753   1.906   0.215 -0.7169 -0.6993 -3.2194
  598SOL     OW 1792   0.342   2.877   1.637  0.5642  0.4935 -0.0557
  598SOL    HW1 1793   0.268   2.913   1.575  0.3553  0.5469 -1.3194
  598SOL    HW2 1794   0.435   2.896   1.596  0.8460  2.2093  0.2706
  599SOL     OW 1795   2.443   1.883   2.992  0.2142 -0.4947 -0.1128
  599SOL    HW1 1796   2.377   1.853   2.919  0.9497 -1.3566 -0.5310
  599SOL    HW2 1797   2.514   1.941   2.956  2.3986 -1.0739 -2.2125
  600SOL     OW 1798   0.881   0.894   0.185 -0.6714  0.4600 -0.6952
  600SOL    HW1 1799   0.895   0.905   0.286 -0.4126  0.4696  1.9829
  600SOL    HW2 1800   0.908   0.980   0.140 -2.0080 -1.6077  1.3057
  601SOL     OW 1801   0.523   0.589   0.676  0.8403 -0.1625 -0.0924
  601SOL    HW1 1802   0.520   0.679   0.626  2.1545  0.1189 -2.0262
  601SOL    HW2 1803   0.575   0.602   0.761  2.2080  1.0952  2.4607
  602SOL     OW 1804   1.381   2.956   0.590  0.0395  0.1665  0.0457
  602SOL    HW1 1805   1.420   3.050   0.613  0.2386  3.3284  0.0076
  602SOL    HW2 1806   1.343   2.953   0.495 -0.5585  0.9430 -0.4431
  603SOL     OW 1807   0.742   2.830   2.121  0.2529  0.0596 -0.0166
  603SOL    HW1 1808   0.695   2.916   2.129  2.5395 -1.1854  1.6529
  603SOL    HW2 1809   0.768   2.805   2.021 -0.8831 -2.8339 -2.4788
  604SOL     OW 1810   2.871   2.904   2.403  0.1006  0.2984 -0.4783
  604SOL    HW1 1811   2.953   2.903   2.338  1.9616  0.7371 -0.7109
  604SOL    HW2 1812   2.881   2.824   2.475 -0.6545 -3.3352  0.8245
  605SOL     OW 1813   2.669   2.022   1.281  0.1898 -0.4269  0.6805
  605SOL    HW1 1814   2.725   2.044   1.365  0.4123  1.2531  1.7842
  605SOL    HW2 1815   2.598   1.955   1.309  0.3977 -0.2284 -1.2338
  606SOL     OW 1816   0.417   1.454   2.826 -0.1404  0.3471 -0.6800
  606SOL    HW1 1817   0.370   1.536   2.788 -1.4436 -2.5294 -0.3197
  606SOL    HW2 1818   0.355   1.404   2.890  3.7815 -1.7342 -0.4534
  607SOL     OW 1819   0.850   0.094   0.498 -0.0905 -0.2120 -0.3123
  607SOL    HW1 1820   0.765   0.075   0.448  2.7834  1.0991  2.6214
  607SOL    HW2 1821   0.924   0.128   0.437 -0.6889  1.3131  0.4239
  608SOL     OW 1822   1.872   1.250   2.416  0.2345  0.2549 -0.5595
  608SOL    HW1 1823   1.795   1.226   2.481 -0.1616  2.4200  2.0912
  608SOL    HW2 1824   1.832   1.303   2.340  1.0840 -1.1512 -1.7095
  609SOL     OW 1825   0.009   0.133   0.977 -0.1499  0.4057 -0.3102
  609SOL    HW1 1826   0.074   0.107   1.052 -0.1836  0.0537  1.2259
  609SOL    HW2 1827   3.070   0.221   0.993  2.1093  2.1770 -0.5021
  610SOL     OW 1828   0.701   2.796   0.698 -0.5861 -0.8049 -0.4091
  610SOL    HW1 1829   0.785   2.751   0.666 -3.1756 -1.7483  0.7348
  610SOL    HW2 1830   0.710   2.832   0.795  1.9410  2.5597  3.3361
  611SOL     OW 1831   1.755   0.861   2.933 -0.5808 -0.0614  0.3943
  611SOL    HW1 1832   1.839   0.915   2.958 -1.1766  1.7271 -0.2242
  611SOL    HW2 1833   1.675   0.897   2.989  0.2090 -1.4896 -3.0264
  612SOL     OW 1834   0.716   2.239   2.091  0.2034 -0.2743 -0.0075
  612SOL    HW1 1835   0.789   2.271   2.033 -0.0061 -0.5172  1.8723
  612SOL    HW2 1836   0.701   2.301   2.170 -0.2917 -0.1195 -0.2887
  613SOL     OW 1837   0.974   2.504   0.193 -0.6803  0.1305  0.0455
  613SOL    HW1 1838   1.060   2.455   0.169 -1.8381  0.6067  1.1430
  613SOL    HW2 1839   0.894   2.466   0.148 -0.4438 -0.3180  2.4746
  614SOL     OW 1840   2.723   2.736   1.562 -0.2815 -0.3381 -0.2297
  614SOL    HW1 1841   2.790   2.758   1.486 -0.6513  1.6251  0.6352
  614SOL    HW2 1842   2.681   2.643   1.555 -0.4601 -0.4441 -2.8954
  615SOL     OW 1843   2.271   1.321   0.084  1.0222 -0.4558  0.4433
  615SOL    HW1 1844   2.253   1.275   0.178 -1.2973 -2.5652  3.0136
  615SOL    HW2 1845   2.233   1.269   0.001 -0.8785  1.0650 -0.2650
  616SOL     OW 1846   1.822   0.263   0.427 -0.0134 -0.1892  0.0588
  616SOL    HW1 1847   1.809   0.185   0.367 -2.3540  3.0164  1.9292
  616SOL    HW2 1848   1.734   0.284   0.471 -2.3285  3.0542  1.8218
  617SOL     OW 1849   1.198   0.846   3.018  0.5046  0.6141  0.8807
  617SOL    HW1 1850   1.299   0.846   3.012 -1.0553 -0.1589 -0.8645
  617SOL    HW2 1851   1.154   0.757   3.015 -1.9039  0.8211  1.7329
  618SOL     OW 1852   0.847   0.086   1.908 -0.5525 -0.0264 -0.3527
  618SOL    HW1 1853   0.945   0.104   1.920  0.0584  0.2905  0.3833
  618SOL    HW2 1854   0.803   0.085   2.001 -1.5941  0.5023 -0.2297
  619SOL     OW 1855   2.782   1.034   1.382  0.6253  0.8016  0.0163
  619SOL    HW1 1856   2.843   1.100   1.338  0.2139 -0.3093 -1.3295
  619SOL    HW2 1857   2.790   1.034   1.482 -3.3640  2.1598 -4.0138
  620SOL     OW 1858   2.041   0.917   2.646 -0.4154 -0.1756 -0.0047
  620SOL    HW1 1859   2.033   0.846   2.572  2.2195 -0.6190  1.5062
  620SOL    HW2 1860   1.958   0.971   2.664 -1.0649  0.5514  1.6068
  621SOL     OW 1861   2.553   2.904   1.393  0.0535  0.2325 -0.5011
  621SOL    HW1 1862   2.588   2.876   1.301 -1.3698  2.1779 -1.9688
  621SOL    HW2 1863   2.607   2.859   1.464 -2.0327 -1.7797 -1.3210
  622SOL     OW 1864   1.339   0.723   2.702  0.1425  0.1230 -0.4827
  622SOL    HW1 1865   1.304   0.701   2.608  0.9307  1.3770 -0.4076
  622SOL    HW2 1866   1.322   0.823   2.712 -1.7234  0.0849 -1.4033
  623SOL     OW 1867   1.196   0.545   2.917  0.0906  0.3447  0.4447
  623SOL    HW1 1868   1.126   0.531   2.846 -0.3336 -1.1546 -0.7284
  623SOL    HW2 1869   1.278   0.589   2.872  2.0969 -2.3710 -1.7740
  624SOL     OW 1870   1.890   0.777   0.229 -0.5097  0.0129 -0.2205
  624SOL    HW1 1871   1.851   0.870   0.203  1.4734  1.4989 -0.5564
  624SOL    HW2 1872   1.979   0.762   0.185 -3.0247 -2.2030 -0.5688
  625SOL     OW 1873   1.006   1.384   1.079 -0.4987  0.0085  0.1625
  625SOL    HW1 1874   1.078   1.323   1.040  0.4165 -2.1104 -1.2636
  625SOL    HW2 1875   0.989   1.377   1.176 -0.7160  0.3435 -1.1062
  626SOL     OW 1876   1.607   1.183   2.850  0.4495 -0.0498 -0.4604
  626SOL    HW1 1877   1.686   1.167   2.789  0.4073  0.9135 -1.0158
  626SOL    HW2 1878   1.516   1.192   2.797 -0.9977  0.1887  0.4865
  627SOL     OW 1879   1.212   0.264   2.314 -0.0951 -0.1323  0.0201
  627SOL    HW1 1880   1.160   0.175   2.310 -2.4089  0.3022 -3.6483
  627SOL    HW2 1881   1.227   0.296   2.406  1.8104  0.6761  0.0129
  628SOL     OW 1882   2.537   0.066   2.198 -0.0292  0.2769  0.3247
  628SOL    HW1 1883   2.543   0.132   2.123  1.9348  0.9200  3.1674
  628SOL    HW2 1884   2.498   0.111   2.281  1.9117 -1.4918  1.0976
  629SOL     OW 1885   0.949   0.782   2.790  0.2243 -0.2166  0.1087
  629SOL    HW1 1886   0.995   0.869   2.808  0.4820 -0.5193 -1.2764
  629SOL    HW2 1887   0.940   0.726   2.872  2.0482  0.5806  0.1635
  630SOL     OW 1888   1.183   0.445   1.883 -0.0993 -0.5437 -0.5515
  630SOL    HW1 1889   1.202   0.498   1.966 -1.0132 -2.1472 -3.2893
  630SOL    HW2 1890   1.235   0.361   1.885  1.8480  1.8280 -2.1380
  631SOL     OW 1891   2.938   0.668   0.566 -0.4246 -0.1283 -0.3833
  631SOL    HW1 1892   2.889   0.582   0.551  0.1672 -0.7553  1.8510
  631SOL    HW2 1893   3.016   0.674   0.499  0.5541  3.0685 -1.7090
  632SOL     OW 1894   2.102   1.111   1.148  0.3182 -0.2399 -0.7898
  632SOL    HW1 1895   2.016   1.169   1.146  0.9195  3.4761 -1.2008
  632SOL    HW2 1896   2.082   1.010   1.144 -1.8796 -2.2656  0.2819
  633SOL     OW 1897   1.258   0.753   0.811  0.1327 -1.0802  0.3603
  633SOL    HW1 1898   1.167   0.754   0.859 -1.4052 -0.3352  2.2257
  633SOL    HW2 1899   1.324   0.807   0.866 -1.1331 -0.6948  0.9001
  634SOL     OW 1900   1.861   3.057   1.048 -0.0810  0.7409 -0.1650
  634SOL    HW1 1901   1.935   2.996   1.079  1.1393 -0.7830  0.6802
  634SOL    HW2 1902   1.780   3.000   1.012  0.6190  1.6932  1.2230
  635SOL     OW 1903   1.430   0.888   0.988  0.0697 -0.7708  0.1504
  635SOL    HW1 1904   1.527   0.865   1.000 -1.7222  1.0949 -1.7337
  635SOL    HW2 1905   1.415   0.990   0.987 -0.6474 -2.5503  1.8428
  636SOL     OW 1906   0.930   0.916   0.764  0.5277 -0.5093 -0.2989
  636SOL    HW1 1907   0.978   0.871   0.841  1.7669  2.6126  0.7982
  636SOL    HW2 1908   0.840   0.957   0.802  0.4096  1.7786 -0.4872
  637SOL     OW 1909   2.461   2.140   0.065 -0.1713  0.4480  0.1617
  637SOL    HW1 1910   2.430   2.152   0.160 -1.2025  0.2964 -2.7137
  637SOL    HW2 1911   2.549   2.095   0.061  0.1476  1.9618 -1.7091
  638SOL     OW 1912   1.548   2.953   2.716  0.0820 -0.1630 -0.2084
  638SOL    HW1 1913   1.470   2.905   2.684  1.6587  2.2738  2.8320
  638SOL    HW2 1914   1.614   2.899   2.775  3.5822  0.5703  1.0305
  639SOL     OW 1915   0.893   2.159   1.232  0.6700 -0.5150  0.4931
  639SOL    HW1 1916   0.894   2.156   1.131  0.7567  0.1127  2.1150
  639SOL    HW2 1917   0.867   2.068   1.273  2.2941  0.2249  1.4423
  640SOL     OW 1918   3.029   2.607   0.653 -0.1947  0.3102  0.5938
  640SOL    HW1 1919   2.948   2.573   0.702  0.6166  3.4885 -1.9201
  640SOL    HW2 1920   0.008   2.561   0.685  2.3728  2.1014 -2.4221
  641SOL     OW 1921   0.411   0.330   0.189  0.1397  0.1314  0.4096
  641SOL    HW1 1922   0.455   0.282   0.267  0.0723 -0.6316 -3.0412
  641SOL    HW2 1923   0.476   0.332   0.105  2.7929 -1.4834  0.0288
  642SOL     OW 1924   2.849   0.684   1.075 -0.1289 -0.0353 -0.0672
  642SOL    HW1 1925   2.781   0.605   1.081 -2.3312 -1.2767  1.0639
  642SOL    HW2 1926   2.819   0.749   1.002 -1.0579  2.6625 -2.3146
  643SOL     OW 1927   0.812   1.993   2.072  0.5648  0.3563  0.3080
  643SOL    HW1 1928   0.747   2.070   2.060 -0.0197  2.6994 -0.2281
  643SOL    HW2 1929   0.879   2.001   2.146 -0.3371  0.9259 -1.9949
  644SOL     OW 1930   1.677   2.617   0.282 -0.4371 -0.0271  0.0404
  644SOL    HW1 1931   1.627   2.547   0.338 -0.5156 -2.2812 -1.9700
  644SOL    HW2 1932   1.745   2.576   0.219  0.0752  0.4975 -1.6876
  645SOL     OW 1933   1.831   2.264   0.955 -0.0349 -0.1125  0.0335
  645SOL    HW1 1934   1.925   2.238   0.927  3.0043 -0.2440 -4.4242
  645SOL    HW2 1935   1.806   2.356   0.917  1.2674  1.6247 -0.1403
  646SOL     OW 1936   1.157   2.798   0.118  0.1092 -0.0006 -0.4558
  646SOL    HW1 1937   1.189   2.817   0.024  1.9565  0.3350 -0.9213
  646SOL    HW2 1938   1.053   2.800   0.121 -0.7950 -2.1939 -1.5800
  647SOL     OW 1939   0.283   3.047   1.874  0.5049  0.0425  0.7521
  647SOL    HW1 1940   0.301   3.007   1.969 -0.7380 -0.4313 -0.2112
  647SOL    HW2 1941   0.310   2.985   1.798 -0.4493  0.1503  0.5416
  648SOL     OW 1942   1.771   0.924   1.353  0.0938  0.4791 -0.0676
  648SOL    HW1 1943   1.846   0.928   1.418 -1.5583  0.1188 -0.5526
  648SOL    HW2 1944   1.799   0.859   1.279  0.1878  2.5968 -0.1889
  649SOL     OW 1945   1.564   2.120   2.714 -0.5228 -0.4827  0.4368
  649SOL    HW1 1946   1.648   2.137   2.768 -1.4374 -0.6467 -0.1821
  649SOL    HW2 1947   1.490   2.160   2.770  0.5542  0.6769 -2.3527
  650SOL     OW 1948   2.441   1.531   1.974  0.1656  0.3304 -0.6164
  650SOL    HW1 1949   2.506   1.583   2.037  0.0382 -0.8421  0.3996
  650SOL    HW2 1950   2.352   1.523   2.021  1.1138  0.6968  1.3714
  651SOL     OW 1951   1.398   1.796   2.981  0.2333 -0.2383 -0.5186
  651SOL    HW1 1952   1.372   1.709   3.024  2.3381  0.5859  0.3796
  651SOL    HW2 1953   1.477   1.786   2.920 -0.2037  1.5657 -0.0912
  652SOL     OW 1954   0.924   2.697   2.893  0.2763 -0.1321 -0.4708
  652SOL    HW1 1955   0.983   2.616   2.872  0.6466  0.8704  0.0357
  652SOL    HW2 1956   0.969   2.787   2.877 -0.2048  1.5574  1.2893
  653SOL     OW 1957   2.279   1.980   1.210 -0.0626 -0.0311  0.1541
  653SOL    HW1 1958   2.211   2.011   1.281 -3.6279 -1.0835 -0.1471
  653SOL    HW2 1959   2.350   1.917   1.246 -2.1716  1.8892  1.3181
  654SOL     OW 1960   2.800   2.551   1.953  0.8942 -0.0943  0.2432
  654SOL    HW1 1961   2.790   2.632   1.889 -3.7118  1.9214 -1.6577
  654SOL    HW2 1962   2.860   2.482   1.912 -3.0588  0.2432  0.3721
  655SOL     OW 1963   2.790   2.227   0.984 -0.2050  0.7190  0.2816
  655SOL    HW1 1964   2.753   2.129   0.981 -0.5231 -2.2040 -0.0589
  655SOL    HW2 1965   2.747   2.278   1.056  1.2725 -0.0182 -0.4613
  656SOL     OW 1966   0.397   2.746   2.706  0.2750  0.1380  0.1019
  656SOL    HW1 1967   0.427   2.813   2.639 -0.9862 -0.8123 -0.6201
  656SOL    HW2 1968   0.309   2.711   2.672  1.2538  2.7168  0.7021
  657SOL     OW 1969   3.080   0.702   0.197  0.0914  0.3053  0.0115
  657SOL    HW1 1970   0.016   0.691   0.288 -0.0499 -0.6300 -0.4072
  657SOL    HW2 1971   0.047   0.732   0.129  0.3477  0.1047 -1.3584
  658SOL     OW 1972   1.453   1.719   1.131  0.8004  0.0389  0.2359
  658SOL    HW1 1973   1.374   1.678   1.182 -0.3387  1.7995 -0.2364
  658SOL    HW2 1974   1.463   1.817   1.162 -0.1051  0.1371 -0.3928
  659SOL     OW 1975   1.648   0.593   1.093 -0.0838  0.0214 -0.7010
  659SOL    HW1 1976   1.664   0.527   1.016 -2.4801  0.9972  0.7148
  659SOL    HW2 1977   1.576   0.564   1.157 -0.3259 -0.5258 -1.3398
  660SOL     OW 1978   1.346   1.510   0.389  0.0604 -0.2974  0.6494
  660SOL    HW1 1979   1.280   1.430   0.370 -3.2007 -0.1426 -0.9512
  660SOL    HW2 1980   1.351   1.524   0.490 -1.7410 -2.3477 -0.4483
  661SOL     OW 1981   0.114   1.752   0.605 -0.3931 -0.0560 -0.1356
  661SOL    HW1 1982   0.108   1.778   0.507 -0.5402 -1.8782  2.9653
  661SOL    HW2 1983   0.153   1.823   0.667  1.8619  1.4033 -0.2676
  662SOL     OW 1984   0.048   0.729   2.226 -0.0807 -0.2924 -0.2829
  662SOL    HW1 1985   0.041   0.710   2.127  1.7387 -1.1121  0.7573
  662SOL    HW2 1986   0.082   0.825   2.238  1.5596 -0.4960  0.8109
  663SOL     OW 1987   1.998   1.375   1.183  0.5140 -0.1052 -0.4773
  663SOL    HW1 1988   1.920   1.346   1.126  0.3851  1.1830 -1.3041
  663SOL    HW2 1989   1.987   1.474   1.216  0.6386 -1.5468  2.2291
  664SOL     OW 1990   0.651   0.485   0.940  0.1305 -0.1158 -0.2163
  664SOL    HW1 1991   0.564   0.437   0.923  0.1131 -2.1103  1.7229
  664SOL    HW2 1992   0.700   0.446   1.022 -1.9544  0.5085  1.1007
  665SOL     OW 1993   1.227   2.893   2.983  0.2830  0.1062 -0.2700
  665SOL    HW1 1994   1.323   2.917   2.996  0.3005  2.6789  0.9004
  665SOL    HW2 1995   1.172   2.979   2.977  0.3289 -0.8571  0.2448
  666SOL     OW 1996   0.189   0.590   2.460  0.2174  0.7161  0.2868
  666SOL    HW1 1997   0.230   0.498   2.467  0.0606 -2.1121 -1.7771
  666SOL    HW2 1998   0.144   0.602   2.368  2.3641 -1.6574  0.1482
  667SOL     OW 1999   2.085   1.439   2.497  0.1311 -0.3022  0.4595
  667SOL    HW1 2000   2.053   1.534   2.519 -0.1633 -0.9413 -0.5988
  667SOL    HW2 2001   2.012   1.382   2.455 -0.2589  0.8522 -1.2081
  668SOL     OW 2002   0.062   1.587   3.003  0.4089 -0.2301  0.6787
  668SOL    HW1 2003   0.094   1.541   2.916  1.0746 -1.1933 -1.2397
  668SOL    HW2 2004   3.086   1.533   3.048 -1.9525 -5.1505  1.6708
  669SOL     OW 2005   2.072   2.911   2.451  0.6993  0.7649  0.0716
  669SOL    HW1 2006   2.030   2.864   2.368  2.0639 -0.4897 -3.1584
  669SOL    HW2 2007   2.144   2.971   2.413  0.1434  0.1489  3.8593
  670SOL     OW 2008   2.629   0.946   2.485  0.3299 -0.3068  0.0864
  670SOL    HW1 2009   2.584   0.858   2.475  1.0209 -4.3849  2.0664
  670SOL    HW2 2010   2.564   1.025   2.480  1.0247 -0.7644  0.8443
  671SOL     OW 2011   2.517   1.688   0.316 -0.0315 -0.0642 -0.0200
  671SOL    HW1 2012   2.613   1.654   0.304  1.0261  0.6815  0.2732
  671SOL    HW2 2013   2.454   1.687   0.233 -5.0695  0.4946 -1.0680
  672SOL     OW 2014   2.549   1.303   2.412 -0.2108 -0.2848 -0.1651
  672SOL    HW1 2015   2.482   1.228   2.429 -1.0076 -1.1901  1.4391
  672SOL    HW2 2016   2.631   1.290   2.467 -3.1391 -0.8706 -0.9979
  673SOL     OW 2017   2.959   1.406   1.545  0.0450  0.6056  0.5282
  673SOL    HW1 2018   3.039   1.465   1.549 -1.3659  1.1952  0.6151
  673SOL    HW2 2019   2.964   1.346   1.460  1.8183 -1.4006 -0.8474
  674SOL     OW 2020   1.532   1.774   1.950  0.2287  0.2461 -0.0868
  674SOL    HW1 2021   1.519   1.872   1.950  3.4452 -1.0567 -2.0190
  674SOL    HW2 2022   1.625   1.745   1.976 -0.8891  1.1555 -1.0199
  675SOL     OW 2023   2.892   0.383   1.177 -0.0550 -0.2655 -0.1503
  675SOL    HW1 2024   2.919   0.396   1.080  0.5189  1.0045 -0.7867
  675SOL    HW2 2025   2.799   0.418   1.190  1.1916 -1.5992  1.3635
  676SOL     OW 2026   2.234   0.954   0.633 -0.0340  0.3284 -0.1619
  676SOL    HW1 2027   2.249   0.907   0.543  1.1451  0.4712 -0.9732
  676SOL    HW2 2028   2.134   0.953   0.662 -0.0477  0.3601 -0.9105
  677SOL     OW 2029   1.559   1.373   2.261 -0.7185  0.5380 -0.2228
  677SOL    HW1 2030   1.489   1.412   2.200  2.6550 -3.6515 -0.3872
  677SOL    HW2 2031   1.650   1.377   2.214  0.8117 -1.5698  1.5556
  678SOL     OW 2032   2.487   1.505   1.156 -0.3201  0.3180  0.0426
  678SOL    HW1 2033   2.515   1.452   1.069  0.0744 -0.9343 -3.5353
  678SOL    HW2 2034   2.412   1.456   1.205  3.1854  0.2164  0.6079
  679SOL     OW 2035   0.447   2.705   0.937  0.2088  0.3089  0.1946
  679SOL    HW1 2036   0.359   2.709   0.886  0.6108 -0.4284  1.9373
  679SOL    HW2 2037   0.428   2.695   1.039  1.0901 -0.1002 -0.1635
  680SOL     OW 2038   3.065   2.047   1.073  0.0559  0.2877  0.4469
  680SOL    HW1 2039   0.032   2.098   1.121 -3.0035 -2.1202 -0.0299
  680SOL    HW2 2040   2.989   2.104   1.042  1.9924 -2.2240 -1.6369
  681SOL     OW 2041   0.813   0.833   1.178 -0.0446  0.1324 -0.5266
  681SOL    HW1 2042   0.839   0.739   1.202 -0.4691  3.8332  3.0141
  681SOL    HW2 2043   0.753   0.834   1.090 -1.2969  1.0809 -0.3637
  682SOL     OW 2044   1.546   0.071   0.722 -0.6971  0.2981 -0.1491
  682SOL    HW1 2045   1.562   0.074   0.826  3.1004  0.9342  3.1808
  682SOL    HW2 2046   1.593   3.099   0.681 -1.1023 -1.3930  2.5663
  683SOL     OW 2047   2.325   1.392   1.713  0.0883 -0.6063 -0.5783
  683SOL    HW1 2048   2.375   1.440   1.786  0.7592 -3.2913 -0.8825
  683SOL    HW2 2049   2.279   1.456   1.646  1.1478 -0.0252 -2.3924
  684SOL     OW 2050   3.073   1.761   1.563  0.0389 -0.0188 -0.7304
  684SOL    HW1 2051   2.986   1.760   1.503 -1.5940 -1.6088  1.6955
  684SOL    HW2 2052   3.052   1.773   1.662 -0.6022  1.5890  2.9453
  685SOL     OW 2053   2.011   1.875   0.468  0.1243  0.4135 -0.3297
  685SOL    HW1 2054   2.096   1.883   0.534  1.1135  1.3748 -0.7028
  685SOL    HW2 2055   1.965   1.784   0.480 -0.9754  2.0269 -3.9415
  686SOL     OW 2056   3.022   0.155   0.583  0.3690 -0.5725  0.1937
  686SOL    HW1 2057   0.011   0.160   0.625  2.4384 -0.4777  0.3021
  686SOL    HW2 2058   2.953   0.212   0.636 -2.8756 -3.3673  1.5375
  687SOL     OW 2059   1.496   2.975   3.020  0.2272  0.2396  0.2290
  687SOL    HW1 2060   1.492   3.033   3.103 -0.5662 -0.3379  0.8475
  687SOL    HW2 2061   1.519   3.025   2.934  0.8992  0.5505 -0.3895
  688SOL     OW 2062   1.773   1.896   2.262 -0.5478 -0.1161 -0.5613
  688SOL    HW1 2063   1.845   1.946   2.207  2.9604  1.3320 -0.1080
  688SOL    HW2 2064   1.739   1.975   2.319 -1.5872 -0.2882 -4.1287
  689SOL     OW 2065   2.718   0.982   2.044  0.1301 -0.1752  0.3363
  689SOL    HW1 2066   2.751   1.067   1.999 -1.4383 -0.7391  1.9229
  689SOL    HW2 2067   2.768   0.962   2.124 -0.6482  0.9570 -1.8565
  690SOL     OW 2068   1.817   1.608   0.959 -0.8855 -0.4752 -0.2291
  690SOL    HW1 2069   1.906   1.561   0.938  0.8201 -0.0391 -0.7944
  690SOL    HW2 2070   1.790   1.604   1.057 -0.6862 -0.7802  0.9835
  691SOL     OW 2071   0.727   1.524   1.257  0.2650 -0.5746  0.1071
  691SOL    HW1 2072   0.796   1.464   1.299 -1.8461 -2.3288  0.6007
  691SOL    HW2 2073   0.662   1.468   1.205 -0.8908 -1.5596  2.0446
  692SOL     OW 2074   1.996   3.079   2.174 -0.0761 -0.1305  0.1949
  692SOL    HW1 2075   2.038   0.051   2.216 -1.0054 -1.4320 -0.1600
  692SOL    HW2 2076   2.029   3.070   2.079 -0.7021  1.1438  3.1165
  693SOL     OW 2077   2.812   1.298   2.541  0.5164 -0.5186 -0.1427
  693SOL    HW1 2078   2.799   1.399   2.545 -0.1673 -1.8902 -0.1448
  693SOL    HW2 2079   2.901   1.271   2.499  0.2567  2.8908  0.0136
  694SOL     OW 2080   2.313   0.195   1.059  0.3702 -0.3754  0.5639
  694SOL    HW1 2081   2.285   0.160   1.152  0.5341 -2.0049  1.3176
  694SOL    HW2 2082   2.270   0.290   1.051 -2.0862  1.4728 -0.0461
  695SOL     OW 2083   1.215   1.287   2.854 -0.4489 -0.0889 -0.6493
  695SOL    HW1 2084   1.280   1.286   2.931 -0.5963 -0.1411  1.1527
  695SOL    HW2 2085   1.162   1.372   2.864  2.0584  2.5957  0.2154
  696SOL     OW 2086   1.914   0.271   1.628 -0.7440  0.3652  0.1849
  696SOL    HW1 2087   1.840   0.259   1.559  2.9694 -0.0045  2.5496
  696SOL    HW2 2088   1.970   0.184   1.630 -1.8326  0.0931  1.5766
  697SOL     OW 2089   1.572   0.665   2.433  0.0598 -0.2442 -0.2002
  697SOL    HW1 2090   1.558   0.673   2.538  1.0085  0.9687  1.1586
  697SOL    HW2 2091   1.486   0.652   2.378  0.1609 -2.3261 -3.3488
  698SOL     OW 2092   1.990   1.669   2.551 -0.4799  0.7399  0.5738
  698SOL    HW1 2093   1.989   1.765   2.525 -1.2005  1.7988 -0.3046
  698SOL    HW2 2094   1.895   1.646   2.584  0.5885 -0.5215 -3.2152
  699SOL     OW 2095   1.590   1.183   0.529  0.3671 -0.1554  0.0907
  699SOL    HW1 2096   1.590   1.276   0.571  1.1166 -0.5389  1.6528
  699SOL    HW2 2097   1.613   1.117   0.600 -2.0562  1.1197 -2.4856
  700SOL     OW 2098   1.695   2.787   0.040  0.0721  0.6461  0.3380
  700SOL    HW1 2099   1.639   2.870   0.053  1.4648 -1.3584 -1.5967
  700SOL    HW2 2100   1.678   2.717   0.110  1.9627  1.3246 -1.3276
  701SOL     OW 2101   0.069   0.504   1.266 -0.3629 -0.2780  0.4358
  701SOL    HW1 2102   0.030   0.547   1.186  1.1764  1.2009  2.0618
  701SOL    HW2 2103   0.018   0.422   1.292 -2.9168 -0.3757 -1.8170
  702SOL     OW 2104   1.798   2.989   1.500 -0.2103 -0.6513 -0.7008
  702SOL    HW1 2105   1.844   2.955   1.412  1.0099 -0.6769 -0.3532
  702SOL    HW2 2106   1.718   2.932   1.526 -2.1755  1.7848  1.7638
  703SOL     OW 2107   2.651   0.529   1.624 -0.2185  0.1527  0.2023
  703SOL    HW1 2108   2.664   0.426   1.634  1.6775 -3.5187 -0.4571
  703SOL    HW2 2109   2.742   0.572   1.616 -0.6767 -1.5127 -0.5289
  704SOL     OW 2110   1.262   2.202   1.165 -0.3252  0.3555  0.0981
  704SOL    HW1 2111   1.242   2.293   1.207  1.2306  1.5140  0.6048
  704SOL    HW2 2112   1.215   2.185   1.074 -1.1588  0.7634 -1.6332
  705SOL     OW 2113   0.110   1.848   2.279  0.6190  0.3889 -0.0797
  705SOL    HW1 2114   0.198   1.889   2.311 -0.4022 -1.8223 -1.9234
  705SOL    HW2 2115   0.126   1.751   2.250 -0.7030  1.0429  2.0512
  706SOL     OW 2116   2.469   0.376   2.729 -0.1065  0.0111  0.3475
  706SOL    HW1 2117   2.439   0.346   2.822 -0.2846 -1.3225 -0.4113
  706SOL    HW2 2118   2.568   0.353   2.717 -1.0111  1.5846  0.6948
  707SOL     OW 2119   1.649   2.851   2.380 -0.5474  0.7608  0.4014
  707SOL    HW1 2120   1.681   2.763   2.344  0.3365  0.7177  2.8063
  707SOL    HW2 2121   1.568   2.834   2.441 -2.6237 -0.8289 -2.3889
  708SOL     OW 2122   0.789   2.326   1.423 -0.4575 -0.2790 -0.1857
  708SOL    HW1 2123   0.729   2.401   1.385  1.2036  1.2059 -0.5927
  708SOL    HW2 2124   0.827   2.268   1.351 -1.5937 -1.1795 -1.8395
  709SOL     OW 2125   2.767   0.828   1.801  0.4498  0.0663  0.4024
  709SOL    HW1 2126   2.775   0.852   1.895 -1.9476 -1.5633  0.4854
  709SOL    HW2 2127   2.855   0.847   1.753  0.1585 -0.1411 -0.6148
  710SOL     OW 2128   3.072   0.446   1.629 -0.2768 -0.6955 -0.8024
  710SOL    HW1 2129   3.061   0.380   1.551  0.9819 -0.5658 -1.1317
  710SOL    HW2 2130   3.014   0.531   1.614  0.5498  5.6964 -1.1452
  711SOL     OW 2131   0.177   2.766   0.862  0.3245 -0.3304  0.1133
  711SOL    HW1 2132   0.172   2.669   0.904 -0.1299 -2.3208  0.7039
  711SOL    HW2 2133   0.194   2.761   0.761  0.9316  1.5018 -2.9659
  712SOL     OW 2134   0.453   2.921   2.508 -0.4717 -0.2235 -0.7977
  712SOL    HW1 2135   0.540   2.961   2.523 -2.5683  0.8331 -0.4626
  712SOL    HW2 2136   0.455   2.860   2.426  2.1211  0.8971 -0.6299
  713SOL     OW 2137   2.405   0.311   0.317  0.1959  0.3835  0.5595
  713SOL    HW1 2138   2.339   0.341   0.391 -1.3616  0.0774  1.4791
  713SOL    HW2 2139   2.428   0.382   0.249  0.6003  0.5582 -0.1723
  714SOL     OW 2140   1.729   1.578   0.107  0.0998 -0.0408 -0.3410
  714SOL    HW1 2141   1.703   1.670   0.144 -2.8418  3.4497 -0.6187
  714SOL    HW2 2142   1.659   1.513   0.139 -0.0993 -0.1099  1.3487
  715SOL     OW 2143   0.218   0.421   0.418 -0.3076  0.2443 -0.2216
  715SOL    HW1 2144   0.150   0.356   0.375 -0.3785 -0.5499  0.2667
  715SOL    HW2 2145   0.308   0.391   0.389 -1.3835  0.6641  1.6798
  716SOL     OW 2146   1.108   0.085   1.973 -0.2355  0.3425  0.3145
  716SOL    HW1 2147   1.194   0.131   1.947  0.7115  1.5568  0.4787
  716SOL    HW2 2148   1.112   0.058   2.072 -0.8416 -1.3120 -0.9518
  717SOL     OW 2149   0.383   0.606   2.738 -0.0022  0.2111  0.3301
  717SOL    HW1 2150   0.428   0.514   2.724 -1.8640  0.9100  1.6111
  717SOL    HW2 2151   0.282   0.606   2.712 -2.5971  1.1561 -0.3768
  718SOL     OW 2152   1.457   0.533   0.431 -0.7370  0.2194  0.1563
  718SOL    HW1 2153   1.413   0.620   0.460  1.2455  0.2533 -1.7738
  718SOL    HW2 2154   1.443   0.460   0.502 -0.9035 -1.0414  0.0726
  719SOL     OW 2155   2.261   2.105   2.981  0.4941 -0.1272 -0.4155
  719SOL    HW1 2156   2.294   2.018   2.932  3.8521 -1.1321 -0.6042
  719SOL    HW2 2157   2.333   2.130   3.049 -0.5544  0.0844 -2.1078
  720SOL     OW 2158   1.143   0.994   1.379  0.1677 -0.3562  0.1680
  720SOL    HW1 2159   1.157   1.089   1.418  0.4924  2.8235  0.0374
  720SOL    HW2 2160   1.137   0.922   1.453 -1.5144  0.3826 -3.3506
  721SOL     OW 2161   0.007   2.675   1.261  0.0593 -0.1456 -0.0968
  721SOL    HW1 2162   0.063   2.594   1.251 -1.0032 -1.2093  1.6070
  721SOL    HW2 2163   0.066   2.752   1.302  2.5109  2.4020  0.4754
  722SOL     OW 2164   0.938   1.805   2.715 -0.1942 -0.7056 -0.7594
  722SOL    HW1 2165   1.018   1.815   2.781  1.6840  2.5438  2.6927
  722SOL    HW2 2166   0.853   1.766   2.752  1.7945  0.0803 -2.3491
  723SOL     OW 2167   1.990   0.264   0.637 -0.5873  1.1579 -0.5532
  723SOL    HW1 2168   1.935   0.268   0.549  0.1078 -1.8179  0.4149
  723SOL    HW2 2169   1.972   0.172   0.685  0.6168 -3.3357  2.9801
  724SOL     OW 2170   0.726   2.312   2.882  0.5520  0.3682 -0.0346
  724SOL    HW1 2171   0.707   2.212   2.900  1.5286  2.0022  3.7632
  724SOL    HW2 2172   0.636   2.363   2.900 -1.4331  1.6697  1.4773
  725SOL     OW 2173   3.105   0.651   1.026  0.1258  0.5048  0.1299
  725SOL    HW1 2174   3.001   0.655   1.031 -0.6423  0.2641  0.6476
  725SOL    HW2 2175   0.031   0.624   0.930  2.9245 -1.6080 -0.6830
  726SOL     OW 2176   2.489   0.416   0.626  0.4364 -0.3536 -0.2874
  726SOL    HW1 2177   2.554   0.368   0.564 -0.8149  0.1264 -1.3100
  726SOL    HW2 2178   2.398   0.416   0.583  3.5589  0.2855  0.0860
  727SOL     OW 2179   1.986   1.016   2.301 -0.1256  0.0826  0.2908
  727SOL    HW1 2180   1.950   1.094   2.354  0.6278  2.0079 -3.1713
  727SOL    HW2 2181   1.984   0.924   2.347  1.5075 -0.0400  1.0755
  728SOL     OW 2182   1.571   2.819   1.524  0.0149 -0.4419 -0.1794
  728SOL    HW1 2183   1.504   2.878   1.573  2.9663  3.2956 -3.5751
  728SOL    HW2 2184   1.533   2.785   1.436 -3.5112 -0.2275  0.5636
  729SOL     OW 2185   2.259   0.482   2.148 -0.2236 -0.0095  0.3013
  729SOL    HW1 2186   2.268   0.441   2.056 -1.7153  0.1731  0.3105
  729SOL    HW2 2187   2.309   0.568   2.146 -0.8883 -0.2865  0.1984
  730SOL     OW 2188   0.695   0.774   1.458  0.0827  0.3147 -0.2465
  730SOL    HW1 2189   0.647   0.681   1.466  0.6260 -2.5794  1.5932
  730SOL    HW2 2190   0.730   0.800   1.364  1.0133  1.4693  2.3294
  731SOL     OW 2191   0.291   0.036   0.302 -0.0022 -0.0620  0.4071
  731SOL    HW1 2192   0.275   0.044   0.401  0.0823  1.0354  1.1539
  731SOL    HW2 2193   0.255   0.118   0.248 -2.2692  2.4264 -0.3224
  732SOL     OW 2194   0.732   0.489   0.329 -0.3316  0.2477  0.5085
  732SOL    HW1 2195   0.747   0.452   0.420  0.2793 -1.6028  0.3744
  732SOL    HW2 2196   0.708   0.587   0.328 -0.9887  0.6247 -0.3062
  733SOL     OW 2197   1.739   1.572   2.595  0.8633  0.8616  0.0085
  733SOL    HW1 2198   1.685   1.627   2.527 -1.8423  0.7975  2.0788
  733SOL    HW2 2199   1.737   1.473   2.565 -2.0768 -1.2789 -0.3800
  734SOL     OW 2200   2.992   2.108   2.116  0.0496 -0.2714  0.2750
  734SOL    HW1 2201   3.042   2.018   2.097  2.1533 -2.2875  1.4821
  734SOL    HW2 2202   2.908   2.117   2.056  2.5779  0.8294 -0.3290
  735SOL     OW 2203   1.947   0.403   1.031  0.0560  0.2889 -0.1464
  735SOL    HW1 2204   2.019   0.352   0.989 -2.9528  1.5449 -0.4101
  735SOL    HW2 2205   1.889   0.344   1.093 -2.2984 -2.2390  1.8284
  736SOL     OW 2206   0.972   1.368   3.060  0.2772  0.3564  0.3835
  736SOL    HW1 2207   1.002   1.430   2.987 -1.6328 -0.6366 -2.1347
  736SOL    HW2 2208   0.974   1.413   0.048  1.6742 -1.5958  1.0570
  737SOL     OW 2209   3.053   0.277   0.344  0.3263 -0.4125 -0.5608
  737SOL    HW1 2210   0.001   0.264   0.261  2.1166  0.5021  1.3734
  737SOL    HW2 2211   3.085   0.215   0.420  0.0975  1.1572 -0.8040
  738SOL     OW 2212   0.660   2.527   1.638 -0.3761  0.4654  0.4544
  738SOL    HW1 2213   0.638   2.612   1.588 -0.3391  0.0872  1.5756
  738SOL    HW2 2214   0.745   2.484   1.596  0.0218  0.2641 -2.3804
  739SOL     OW 2215   1.231   2.844   2.692 -0.0111  0.0094  0.1913
  739SOL    HW1 2216   1.248   2.837   2.792 -1.4382 -1.7664 -1.0366
  739SOL    HW2 2217   1.222   2.941   2.659 -0.0026 -0.0531  0.5084
  740SOL     OW 2218   1.777   2.635   1.517 -0.3219 -0.6739 -0.5899
  740SOL    HW1 2219   1.697   2.700   1.526 -0.9088 -1.1032  0.7380
  740SOL    HW2 2220   1.749   2.541   1.541 -1.1375  1.6066 -0.6685
  741SOL     OW 2221   2.228   0.784   0.413 -0.2012 -0.1784 -0.1150
  741SOL    HW1 2222   2.322   0.768   0.375  0.1032 -2.3480 -0.3836
  741SOL    HW2 2223   2.170   0.839   0.350  0.5126 -0.4881 -2.1587
  742SOL     OW 2224   1.262   2.555   2.338  0.3744 -0.6705 -0.5875
  742SOL    HW1 2225   1.366   2.537   2.346  4.0792 -1.6612 -1.3532
  742SOL    HW2 2226   1.205   2.498   2.403  0.0348 -2.6125 -0.0385
  743SOL     OW 2227   2.369   0.968   1.731 -0.5759 -0.0739  0.1975
  743SOL    HW1 2228   2.343   0.914   1.811  0.3045 -0.3574 -2.4378
  743SOL    HW2 2229   2.428   0.907   1.669 -0.0362 -3.2617 -3.3503
  744SOL     OW 2230   2.594   0.346   0.863  0.1651 -0.1099 -0.0757
  744SOL    HW1 2231   2.557   0.420   0.799  1.0521 -2.3670 -0.5510
  744SOL    HW2 2232   2.629   0.383   0.955 -1.1613 -1.4660  0.5243
  745SOL     OW 2233   2.552   1.193   1.777  0.3235  0.2039  0.2830
  745SOL    HW1 2234   2.515   1.262   1.716  2.5516  2.8991 -0.5205
  745SOL    HW2 2235   2.492   1.110   1.788  1.3999 -0.5756 -0.2854
  746SOL     OW 2236   1.360   1.548   0.686  0.2213 -0.2225 -0.2612
  746SOL    HW1 2237   1.405   1.603   0.754  0.2291 -1.6869 -2.0646
  746SOL    HW2 2238   1.263   1.540   0.709  0.7503  0.4370  1.0299
  747SOL     OW 2239   1.498   1.790   1.655 -0.7172  0.2118  0.0386
  747SOL    HW1 2240   1.486   1.829   1.747  0.3106 -2.3594 -0.1349
  747SOL    HW2 2241   1.403   1.755   1.622 -2.5821 -2.1171  2.4520
  748SOL     OW 2242   0.257   2.703   0.031  0.4518 -0.0134 -0.3567
  748SOL    HW1 2243   0.288   2.767   0.105  1.7120 -0.2238  1.9167
  748SOL    HW2 2244   0.330   2.680   3.071 -0.5730  1.3572 -2.3424
  749SOL     OW 2245   0.117   1.265   2.622 -0.5883 -0.0916 -0.0042
  749SOL    HW1 2246   0.098   1.312   2.537  1.2740 -1.3838  1.4634
  749SOL    HW2 2247   0.059   1.178   2.628  3.2189  0.9363 -1.2733
  750SOL     OW 2248   1.534   0.485   2.074 -0.0054  0.3027  0.0680
  750SOL    HW1 2249   1.513   0.396   2.118  2.1549  1.5115 -2.1544
  750SOL    HW2 2250   1.634   0.490   2.048 -0.4520 -0.1577  1.0647
  751SOL     OW 2251   2.753   0.690   0.287  0.3016 -0.1511  0.8276
  751SOL    HW1 2252   2.799   0.667   0.202 -0.2808  1.0285 -0.8207
  751SOL    HW2 2253   2.780   0.616   0.356  3.3850 -1.0197  3.8208
  752SOL     OW 2254   0.310   2.108   0.926 -0.3381 -0.3528 -0.7677
  752SOL    HW1 2255   0.327   2.013   0.890  1.7186 -3.6377 -1.1687
  752SOL    HW2 2256   0.264   2.105   1.018 -0.1178  0.4223  2.8535
  753SOL     OW 2257   1.165   2.680   0.889  0.1814  0.1214  0.3713
  753SOL    HW1 2258   1.228   2.621   0.947 -0.7692 -3.7933 -1.6042
  753SOL    HW2 2259   1.072   2.678   0.927 -0.1443  0.8513 -0.8158
  754SOL     OW 2260   0.302   2.950   2.131 -0.0980  0.1117  0.0380
  754SOL    HW1 2261   0.300   2.859   2.183  0.2364 -2.9411  2.5884
  754SOL    HW2 2262   0.232   3.013   2.170  0.1837 -0.3525  0.6343
  755SOL     OW 2263   1.864   1.114   0.452  0.4066 -0.4259  0.0212
  755SOL    HW1 2264   1.770   1.133   0.486  0.1497 -0.6713  2.8736
  755SOL    HW2 2265   1.916   1.058   0.517  0.3816  3.7077  1.2869
  756SOL     OW 2266   2.248   2.359   2.728 -0.1012  0.0006  0.3637
  756SOL    HW1 2267   2.279   2.273   2.696 -1.4180  1.8895  1.3395
  756SOL    HW2 2268   2.290   2.376   2.816  0.5124 -2.6303 -0.6949
  757SOL     OW 2269   1.731   0.664   0.452  0.2633  0.0125  0.1319
  757SOL    HW1 2270   1.782   0.700   0.372 -1.0658 -0.6387 -1.8115
  757SOL    HW2 2271   1.650   0.610   0.420  0.2416  1.6438 -0.1926
  758SOL     OW 2272   2.236   0.440   1.058  0.3885  0.1113 -0.1669
  758SOL    HW1 2273   2.212   0.472   1.152 -1.7510  0.9541  1.8491
  758SOL    HW2 2274   2.298   0.508   1.012  0.1930  0.1670 -0.7404
  759SOL     OW 2275   2.640   0.509   1.124 -0.1758 -0.4723  0.1225
  759SOL    HW1 2276   2.597   0.450   1.198 -1.7766  0.5169  1.0110
  759SOL    HW2 2277   2.575   0.576   1.087  0.2757  1.2288 -1.9694
  760SOL     OW 2278   2.260   1.394   1.265  0.3080 -0.4308 -0.0886
  760SOL    HW1 2279   2.159   1.390   1.241 -0.6997 -1.3490 -0.5712
  760SOL    HW2 2280   2.288   1.294   1.272 -1.6251  0.4247 -0.8036
  761SOL     OW 2281   0.462   0.260   0.460 -0.3435 -0.1399 -0.5902
  761SOL    HW1 2282   0.548   0.301   0.485 -2.2229 -0.6415 -1.7035
  761SOL    HW2 2283   0.436   0.186   0.522 -3.5136  1.9109 -1.0795
  762SOL     OW 2284   0.813   1.903   1.298  0.1780 -0.0728 -0.3051
  762SOL    HW1 2285   0.876   1.833   1.256 -0.7707 -1.6774 -0.0742
  762SOL    HW2 2286   0.740   1.841   1.338  2.0499 -0.2719  0.3568
  763SOL     OW 2287   1.361   1.095   1.768  0.1599 -0.3415  0.6157
  763SOL    HW1 2288   1.391   1.149   1.846  0.2283 -1.3188 -2.4537
  763SOL    HW2 2289   1.400   1.003   1.769 -0.3924  4.3194 -1.3240
  764SOL     OW 2290   0.025   1.805   2.644 -0.2836 -0.0156  0.3263
  764SOL    HW1 2291   0.036   1.766   2.743 -0.6418 -2.4321  0.8566
  764SOL    HW2 2292   0.005   1.906   2.637  1.1051 -0.2232  1.3164
  765SOL     OW 2293   1.296   2.554   1.072 -0.9264 -0.3507 -0.6282
  765SOL    HW1 2294   1.236   2.497   1.133  0.6364  1.8927 -0.1892
  765SOL    HW2 2295   1.396   2.531   1.079 -2.4015  1.6347 -1.3910
  766SOL     OW 2296   2.762   2.347   2.580  0.4666 -0.3698  0.1107
  766SOL    HW1 2297   2.769   2.393   2.669 -2.3663 -3.7268 -2.8170
  766SOL    HW2 2298   2.669   2.361   2.540  1.5411 -1.2459  3.1035
  767SOL     OW 2299   1.073   1.116   2.554 -0.1839  0.2479  0.1100
  767SOL    HW1 2300   1.051   1.102   2.649  0.9032 -0.3137  0.2173
  767SOL    HW2 2301   0.995   1.089   2.491 -2.1262 -0.5899  0.0736
  768SOL     OW 2302   1.323   2.046   3.079 -0.2035 -0.0669  0.0082
  768SOL    HW1 2303   1.361   1.957   3.045 -0.3440  2.0757 -1.7769
  768SOL    HW2 2304   1.315   2.047   0.075  2.0305  1.7712  1.0961
  769SOL     OW 2305   0.560   2.218   1.019 -0.6926 -0.1435 -0.2339
  769SOL    HW1 2306   0.547   2.196   1.118  0.0667  0.8025  0.3262
  769SOL    HW2 2307   0.471   2.211   0.974  1.7582 -0.0358 -1.2843
  770SOL     OW 2308   1.415   1.217   2.662  0.6920  0.0180 -0.0186
  770SOL    HW1 2309   1.338   1.268   2.701  5.3030  0.8494 -0.2534
  770SOL    HW2 2310   1.386   1.140   2.603  1.4079  1.1002  0.1369
  771SOL     OW 2311   3.098   2.832   2.266 -0.3110 -0.0552 -0.3165
  771SOL    HW1 2312   0.084   2.790   2.266 -2.8205  1.6569 -0.1665
  771SOL    HW2 2313   3.032   2.758   2.245 -0.2387 -1.3751  3.8661
  772SOL     OW 2314   2.221   2.672   1.920  0.7219  0.5554  0.9131
  772SOL    HW1 2315   2.243   2.735   1.997 -0.7481 -1.0112  0.0418
  772SOL    HW2 2316   2.291   2.665   1.847 -0.7836  1.6291  0.9651
  773SOL     OW 2317   0.606   2.054   1.777 -0.1426 -0.2562  0.2653
  773SOL    HW1 2318   0.690   1.997   1.779  2.2899 -0.0748  1.0055
  773SOL    HW2 2319   0.573   2.077   1.869  0.3684 -0.6185  0.1388
  774SOL     OW 2320   1.423   0.613   1.853 -0.0830 -0.6780 -0.2512
  774SOL    HW1 2321   1.418   0.564   1.762 -3.0816 -0.6199  1.9949
  774SOL    HW2 2322   1.443   0.546   1.929  1.3080  0.4844  1.2606
  775SOL     OW 2323   2.029   2.924   2.913  0.2321  0.2158  0.0031
  775SOL    HW1 2324   2.015   3.023   2.921  1.4052  1.8468  0.3189
  775SOL    HW2 2325   2.010   2.896   2.820  1.4318  0.8907  1.7738
  776SOL     OW 2326   2.872   0.297   2.043 -0.0556 -0.4852  0.3116
  776SOL    HW1 2327   2.956   0.330   1.997  0.9585  0.0748 -0.7913
  776SOL    HW2 2328   2.853   0.200   2.012  1.9229  0.3384  0.8833
  777SOL     OW 2329   2.554   2.261   2.065  0.1894 -0.4024 -0.3261
  777SOL    HW1 2330   2.561   2.213   2.155  0.5091  0.4453 -2.2560
  777SOL    HW2 2331   2.473   2.231   2.009 -0.8770  2.8288  0.1894
  778SOL     OW 2332   1.811   0.759   2.092  0.1695  0.2898  0.0119
  778SOL    HW1 2333   1.767   0.811   2.167  0.6427 -0.4851 -0.4967
  778SOL    HW2 2334   1.742   0.746   2.018  0.2496  0.8012  0.7059
  779SOL     OW 2335   2.535   0.697   0.667 -0.1931 -0.4402  0.4976
  779SOL    HW1 2336   2.510   0.597   0.653  0.9922 -1.6952 -0.1886
  779SOL    HW2 2337   2.547   0.742   0.574 -0.9807 -1.1612 -2.8981
  780SOL     OW 2338   2.395   0.290   2.974  0.3886  0.0863  0.3668
  780SOL    HW1 2339   2.297   0.266   2.982  0.1855 -0.6342 -1.0009
  780SOL    HW2 2340   2.456   0.205   2.977  0.4358 -0.8140  0.4833
  781SOL     OW 2341   0.286   2.309   1.500  0.5246  0.0526  0.1026
  781SOL    HW1 2342   0.354   2.236   1.511 -1.8056  0.8591 -1.6729
  781SOL    HW2 2343   0.192   2.274   1.514  0.6682  2.1077 -0.7151
  782SOL     OW 2344   2.528   2.427   2.896 -0.2438  0.1020  0.2195
  782SOL    HW1 2345   2.613   2.440   2.843 -1.6547  0.2122  1.7579
  782SOL    HW2 2346   2.537   2.366   2.972 -1.1669  2.3462 -1.8277
  783SOL     OW 2347   0.310   1.711   1.398 -0.3976 -0.7569 -0.2748
  783SOL    HW1 2348   0.339   1.617   1.370 -2.3331 -0.5247  0.0224
  783SOL    HW2 2349   0.336   1.720   1.492 -0.7381 -0.6693 -1.6795
  784SOL     OW 2350   1.651   0.462   3.016  0.0201 -0.2766 -0.1184
  784SOL    HW1 2351   1.673   0.428   0.003 -0.8299  1.5209 -2.1405
  784SOL    HW2 2352   1.598   0.546   3.024  0.6175 -1.7885 -1.5098
  785SOL     OW 2353   2.611   2.920   0.944  0.0676 -0.0987 -0.4802
  785SOL    HW1 2354   2.544   2.869   0.882 -0.7689 -1.9635 -1.7247
  785SOL    HW2 2355   2.591   3.017   0.950  0.1458  1.3904  0.3383
  786SOL     OW 2356   1.060   1.997   1.914  1.0656 -0.4461 -0.4047
  786SOL    HW1 2357   0.965   1.976   1.950 -1.9255  2.1198  1.5769
  786SOL    HW2 2358   1.092   2.085   1.964  0.9319  0.1817  1.3753
  787SOL     OW 2359   1.246   0.815   1.205  0.0151 -0.0841  0.1410
  787SOL    HW1 2360   1.199   0.887   1.261  1.0644 -1.9754 -1.8128
  787SOL    HW2 2361   1.294   0.853   1.124 -2.3962 -0.4251 -0.5797
  788SOL     OW 2362   0.089   0.664   0.449 -0.2275 -0.2082  0.1311
  788SOL    HW1 2363   0.163   0.734   0.453  1.0827  3.4366 -1.1733
  788SOL    HW2 2364   0.126   0.578   0.425  1.2464  2.1143  2.3394
  789SOL     OW 2365   0.201   2.124   1.207  0.5156  0.6391 -0.0409
  789SOL    HW1 2366   0.293   2.150   1.222 -2.0185 -0.0322 -1.8682
  789SOL    HW2 2367   0.161   2.063   1.281 -0.2553  2.0005  0.8181
  790SOL     OW 2368   0.922   0.643   2.260  0.0343 -0.5124 -0.1620
  790SOL    HW1 2369   0.931   0.681   2.352 -1.6121  1.4595  2.7636
  790SOL    HW2 2370   0.829   0.607   2.246  3.6680  0.7419 -1.8621
  791SOL     OW 2371   1.789   0.747   0.695 -0.0135 -0.2859  0.1951
  791SOL    HW1 2372   1.774   0.712   0.601  1.7885 -1.1286  2.3135
  791SOL    HW2 2373   1.813   0.670   0.753  2.0894 -1.6658 -1.6552
  792SOL     OW 2374   1.556   2.475   1.942  0.2420  0.5795  0.4294
  792SOL    HW1 2375   1.652   2.447   1.950 -0.7091  0.3820 -1.4975
  792SOL    HW2 2376   1.559   2.573   1.911  1.5573 -1.7989  0.7087
  793SOL     OW 2377   1.309   0.738   0.544 -0.0803 -0.1893 -0.1634
  793SOL    HW1 2378   1.334   0.837   0.532 -0.4022  2.9826  2.5718
  793SOL    HW2 2379   1.292   0.730   0.645 -0.8171 -0.7936  0.3279
  794SOL     OW 2380   0.468   0.940   2.116 -0.3506  0.1704  0.1099
  794SOL    HW1 2381   0.393   1.006   2.140 -0.9785 -0.1107  1.2986
  794SOL    HW2 2382   0.473   0.937   2.016  1.2697 -0.1162 -1.9732
  795SOL     OW 2383   0.338   1.968   2.424  0.4390 -0.0883 -0.2145
  795SOL    HW1 2384   0.392   2.054   2.400 -1.0861  2.5763 -0.2812
  795SOL    HW2 2385   0.367   1.931   2.515  1.8457  1.1960 -2.6495
  796SOL     OW 2386   2.566   0.747   2.019  0.1019 -0.3256  0.3451
  796SOL    HW1 2387   2.503   0.761   2.099 -0.1629 -1.0536  1.9107
  796SOL    HW2 2388   2.599   0.838   1.979 -0.0777  1.6441 -2.6384
  797SOL     OW 2389   3.050   2.299   3.042 -0.3841 -0.2182  1.0030
  797SOL    HW1 2390   3.029   2.397   3.026  0.1528 -0.3106 -0.1861
  797SOL    HW2 2391   3.064   2.284   0.034 -0.1804  1.2882 -1.0578
  798SOL     OW 2392   0.213   2.436   2.169 -0.4197  0.1204  0.3473
  798SOL    HW1 2393   0.282   2.370   2.135 -0.0482 -0.8390 -1.1192
  798SOL    HW2 2394   0.175   2.402   2.255 -1.4919 -0.1518 -0.5127
  799SOL     OW 2395   0.445   2.160   2.811  0.6270 -0.0844 -0.2566
  799SOL    HW1 2396   0.444   2.222   2.895  0.3177  1.2218  1.1439
  799SOL    HW2 2397   0.385   2.081   2.824  1.3690  1.4805 -0.5624
  800SOL     OW 2398   0.779   2.039   2.964  0.4583 -0.1210 -0.5182
  800SOL    HW1 2399   0.753   1.968   3.032 -0.8462 -0.4617 -0.8729
  800SOL    HW2 2400   0.877   2.058   2.977 -0.5213 -1.9772  0.8433
  801SOL     OW 2401   1.650   1.341   1.400 -0.9606 -0.2350 -0.1639
  801SOL    HW1 2402   1.740   1.376   1.425 -1.3862 -0.4305 -1.1237
  801SOL    HW2 2403   1.591   1.354   1.477  3.3674 -1.3054 -0.0461
  802SOL     OW 2404   2.962   1.121   0.627  0.1762 -0.1643 -0.4812
  802SOL    HW1 2405   2.910   1.201   0.662  0.9582 -0.4349  0.0279
  802SOL    HW2 2406   2.891   1.054   0.597 -1.6003 -2.8132  0.1710
  803SOL     OW 2407   1.036   1.936   2.504 -0.2889  0.0729 -0.1155
  803SOL    HW1 2408   1.000   1.875   2.573 -0.8267  3.0677 -2.5338
  803SOL    HW2 2409   1.122   1.897   2.460 -1.0438 -0.5353 -0.4594
  804SOL     OW 2410   1.546   1.391   0.188 -0.1884 -0.3434 -0.0065
  804SOL    HW1 2411   1.510   1.435   0.268 -1.3862  0.2554  0.5875
  804SOL    HW2 2412   1.566   1.292   0.224  0.2084  0.3791 -0.5220
  805SOL     OW 2413   2.733   1.712   3.040 -0.2798  0.1574  0.0994
  805SOL    HW1 2414   2.723   1.761   0.022  0.0199  1.2074  1.5947
  805SOL    HW2 2415   2.658   1.753   2.978 -0.1423  1.3627 -2.0695
  806SOL     OW 2416   0.609   2.999   0.521  0.0934 -0.4529  0.4768
  806SOL    HW1 2417   0.524   3.043   0.543  1.8434  1.1092 -0.0411
  806SOL    HW2 2418   0.629   2.928   0.594  0.7156 -1.6557 -0.5014
  807SOL     OW 2419   1.980   1.793   2.850 -0.0180  0.1584  0.1041
  807SOL    HW1 2420   1.978   1.797   2.954 -1.3223 -1.5121  1.9305
  807SOL    HW2 2421   1.987   1.697   2.811 -1.3762  0.5773 -2.2966
  808SOL     OW 2422   0.659   1.490   0.931 -0.1567 -0.2395  0.6380
  808SOL    HW1 2423   0.601   1.516   0.851  2.0265  0.6076 -1.5756
  808SOL    HW2 2424   0.608   1.428   1.000  1.7858  0.5261  1.2892
  809SOL     OW 2425   2.567   0.831   0.418  0.0602 -0.3318 -0.2862
  809SOL    HW1 2426   2.544   0.928   0.388  2.0793  3.1643  2.5904
  809SOL    HW2 2427   2.635   0.787   0.354  0.1451  2.8483  2.3050
  810SOL     OW 2428   0.880   0.953   0.455 -0.0169 -0.0522  0.2331
  810SOL    HW1 2429   0.825   1.035   0.487  0.7316  2.3345 -2.5481
  810SOL    HW2 2430   0.935   0.921   0.533  0.2983  0.8247 -1.0038
  811SOL     OW 2431   1.500   2.678   1.317 -0.5490 -0.0390  0.1787
  811SOL    HW1 2432   1.575   2.699   1.249  0.9120 -0.3503 -3.4335
  811SOL    HW2 2433   1.500   2.583   1.349 -1.2016  1.9919 -3.7857
  812SOL     OW 2434   1.051   2.539   1.701 -0.1587 -0.3137  0.1901
  812SOL    HW1 2435   1.061   2.613   1.770 -2.0152  3.5423 -0.9946
  812SOL    HW2 2436   1.065   2.580   1.609  1.6966  0.9909 -1.6138
  813SOL     OW 2437   1.127   2.962   1.835 -0.2943  0.4378 -0.0221
  813SOL    HW1 2438   1.102   3.047   1.885 -0.4478 -0.4463 -1.8089
  813SOL    HW2 2439   1.137   2.977   1.730  1.2093  0.4636 -0.8501
  814SOL     OW 2440   1.083   2.461   2.527  0.0479 -0.0236 -0.3311
  814SOL    HW1 2441   0.998   2.420   2.558  1.1281  0.4716 -2.4293
  814SOL    HW2 2442   1.163   2.430   2.584 -0.6595  2.2053 -0.7189
  815SOL     OW 2443   0.849   0.294   2.361 -0.1891  0.4520 -0.0227
  815SOL    HW1 2444   0.909   0.307   2.277  0.1592 -0.1160 -0.3243
  815SOL    HW2 2445   0.838   0.376   2.423  2.3609 -1.0560  1.9610
  816SOL     OW 2446   2.240   0.137   2.727 -0.6060  0.7943  0.2152
  816SOL    HW1 2447   2.173   0.176   2.660  1.2525 -0.1250 -0.4280
  816SOL    HW2 2448   2.207   0.150   2.819 -2.3645 -1.8165 -2.4880
  817SOL     OW 2449   2.134   0.199   2.251 -0.3505 -0.0024 -0.1366
  817SOL    HW1 2450   2.108   0.203   2.353  3.7119  0.1354  1.3402
  817SOL    HW2 2451   2.126   0.292   2.218 -1.0634 -1.1126 -0.6130
  818SOL     OW 2452   1.659   0.654   0.149 -0.4255  0.2356 -0.4633
  818SOL    HW1 2453   1.749   0.703   0.156  0.9733 -0.1063 -3.6574
  818SOL    HW2 2454   1.673   0.551   0.150  1.2681 -1.3043 -0.9252
  819SOL     OW 2455   2.283   1.729   2.581 -0.7782  0.2506  0.1411
  819SOL    HW1 2456   2.285   1.797   2.657  1.0796  1.0433  0.2999
  819SOL    HW2 2457   2.190   1.688   2.571 -1.4853  0.9234 -1.4538
  820SOL     OW 2458   0.141   1.571   0.210  0.2839 -0.3489 -0.0869
  820SOL    HW1 2459   0.090   1.591   0.122 -0.5708  0.6349  0.3336
  820SOL    HW2 2460   0.209   1.501   0.192 -1.1171 -2.7154  1.4096
  821SOL     OW 2461   0.225   2.973   1.033  0.5017  0.5328  0.1211
  821SOL    HW1 2462   0.292   3.032   0.974 -1.5816  0.8106 -0.8281
  821SOL    HW2 2463   0.194   2.896   0.970 -1.3407 -1.5675 -2.5191
  822SOL     OW 2464   2.955   2.543   2.993 -0.3435  0.1351 -0.3624
  822SOL    HW1 2465   2.939   2.568   3.092  0.0580 -2.0720  0.9137
  822SOL    HW2 2466   3.047   2.576   2.967  1.5128 -3.5327  1.2523
  823SOL     OW 2467   1.371   0.654   2.162 -0.1097  0.1958  0.4000
  823SOL    HW1 2468   1.346   0.712   2.079 -1.3966 -0.7763 -0.3456
  823SOL    HW2 2469   1.440   0.580   2.138  2.2930 -1.4345 -0.5868
  824SOL     OW 2470   2.776   2.136   1.955 -0.1739  0.0198 -0.1017
  824SOL    HW1 2471   2.696   2.189   1.987 -2.0598  0.5894  0.7005
  824SOL    HW2 2472   2.803   2.173   1.863  2.6870  1.4603 -0.7329
  825SOL     OW 2473   3.065   2.103   2.631  0.4057 -0.6439  0.4739
  825SOL    HW1 2474   2.967   2.092   2.666 -2.1957 -1.2709 -0.6660
  825SOL    HW2 2475   3.065   2.115   2.528 -1.5746  0.1063 -3.4506
  826SOL     OW 2476   2.395   1.102   2.494  0.0465  0.6503 -0.2141
  826SOL    HW1 2477   2.344   1.067   2.412  0.8118 -3.3893 -1.0009
  826SOL    HW2 2478   2.328   1.148   2.552 -1.3204 -1.1191 -0.5251
  827SOL     OW 2479   2.336   2.348   1.219  0.1602 -0.2400 -0.4239
  827SOL    HW1 2480   2.279   2.264   1.217  0.3884  0.0237 -1.4597
  827SOL    HW2 2481   2.304   2.413   1.290 -0.6245  0.5894 -1.1379
  828SOL     OW 2482   0.173   3.080   1.474  0.5283  0.2622 -0.2036
  828SOL    HW1 2483   0.095   3.066   1.533  0.8115  3.0383 -3.5212
  828SOL    HW2 2484   0.235   0.057   1.489 -0.5507 -0.4754 -4.2662
  829SOL     OW 2485   1.537   2.513   2.368  0.0102  0.5528 -0.2298
  829SOL    HW1 2486   1.572   2.431   2.421 -2.2338 -1.1244 -1.1367
  829SOL    HW2 2487   1.609   2.564   2.314 -1.2585  1.6271  1.4914
  830SOL     OW 2488   0.965   0.498   0.840  0.3014 -0.2390 -0.0176
  830SOL    HW1 2489   0.894   0.433   0.873 -1.1887 -1.6332  1.4820
  830SOL    HW2 2490   0.927   0.548   0.761 -1.0716  0.0168 -0.4768
  831SOL     OW 2491   2.921   1.490   3.073  0.5643 -0.3202  0.1938
  831SOL    HW1 2492   2.841   1.553   3.069 -0.3650 -0.6461  1.6667
  831SOL    HW2 2493   2.889   1.394   3.075 -2.2758 -0.4002  0.8784
  832SOL     OW 2494   1.688   2.173   2.154 -0.4224 -0.2712  0.2944
  832SOL    HW1 2495   1.596   2.200   2.190 -2.4950  0.2912 -0.1242
  832SOL    HW2 2496   1.716   2.246   2.085 -1.0687  0.0344 -0.3596
  833SOL     OW 2497   0.777   0.336   2.046 -0.1031 -0.3135 -0.0816
  833SOL    HW1 2498   0.877   0.353   2.045 -0.2221 -1.8879 -0.0018
  833SOL    HW2 2499   0.743   0.253   2.092  1.0467  1.8066  0.5242
  834SOL     OW 2500   0.389   0.672   1.274 -0.2230  0.0805  0.8534
  834SOL    HW1 2501   0.435   0.615   1.340 -0.7550 -0.3307 -0.8686
  834SOL    HW2 2502   0.299   0.706   1.309  0.6705 -1.9632 -0.0000
  835SOL     OW 2503   2.591   0.765   0.010  0.7209  0.1980  0.1564
  835SOL    HW1 2504   2.662   0.698   3.086  1.6148  0.6585  0.1510
  835SOL    HW2 2505   2.634   0.853   0.005 -0.7845 -1.1919 -0.4989
  836SOL     OW 2506   1.125   1.890   0.270  0.0462 -0.4041  0.1213
  836SOL    HW1 2507   1.192   1.949   0.314 -0.6487  0.3599  0.4088
  836SOL    HW2 2508   1.179   1.812   0.227 -0.8132 -0.4492  1.4305
  837SOL     OW 2509   1.514   1.661   0.872 -0.3964  0.1657 -0.1471
  837SOL    HW1 2510   1.614   1.669   0.868  0.6554  0.5180  1.1962
  837SOL    HW2 2511   1.479   1.675   0.966 -0.7568  1.4218 -0.9625
  838SOL     OW 2512   1.115   1.068   2.201  0.1148  0.0393 -0.2153
  838SOL    HW1 2513   1.110   1.099   2.103 -0.3542 -0.5535  2.0013
  838SOL    HW2 2514   1.017   1.057   2.235 -4.9407  1.7686 -3.0992
  839SOL     OW 2515   0.744   2.122   2.443  0.0625  0.0446 -0.4474
  839SOL    HW1 2516   0.826   2.102   2.384  0.7008  1.4140 -1.7478
  839SOL    HW2 2517   0.728   2.053   2.513 -2.1717 -1.1064 -1.0257
  840SOL     OW 2518   0.825   2.227   0.355  0.2568 -0.1568  0.3339
  840SOL    HW1 2519   0.771   2.312   0.342  0.6507 -0.0838 -1.3131
  840SOL    HW2 2520   0.907   2.245   0.419  2.4893 -0.2944 -1.3784
  841SOL     OW 2521   1.894   2.505   0.126 -0.1290  0.1390 -0.0497
  841SOL    HW1 2522   1.992   2.536   0.116  0.5580 -0.7107 -1.2263
  841SOL    HW2 2523   1.853   2.481   0.038 -3.2438  0.7596  1.4185
  842SOL     OW 2524   0.636   0.628   2.970 -0.1779 -0.1450  0.0740
  842SOL    HW1 2525   0.658   0.695   3.047  0.7645  0.3571  0.2570
  842SOL    HW2 2526   0.646   0.666   2.876  1.5540  0.6008 -0.0094
  843SOL     OW 2527   1.176   0.345   0.942 -0.0048 -0.3008 -0.4259
  843SOL    HW1 2528   1.097   0.389   0.892  1.2699 -0.6877 -1.0119
  843SOL    HW2 2529   1.175   0.374   1.043  3.8525  0.5790  1.9150
  844SOL     OW 2530   2.900   3.089   2.632 -0.3780  0.0711  1.0132
  844SOL    HW1 2531   2.815   3.094   2.686 -0.9102 -0.4420 -2.5718
  844SOL    HW2 2532   2.880   3.037   2.544  2.5457  2.3913 -0.3278
  845SOL     OW 2533   2.612   2.284   1.192  0.7654 -0.7477 -0.1205
  845SOL    HW1 2534   2.513   2.319   1.196 -0.8721  0.7569 -0.7951
  845SOL    HW2 2535   2.623   2.191   1.231 -0.8121 -1.0064  0.4699
  846SOL     OW 2536   2.785   1.960   2.309 -0.7442 -0.1568  0.4755
  846SOL    HW1 2537   2.819   2.029   2.247  1.9342 -1.6177  3.3647
  846SOL    HW2 2538   2.849   1.880   2.308  2.0306  0.4720 -0.9373
  847SOL     OW 2539   1.140   0.782   1.566 -0.0485 -0.1981  0.3952
  847SOL    HW1 2540   1.120   0.815   1.660 -1.3773  1.6347  1.3577
  847SOL    HW2 2541   1.064   0.717   1.536  0.9138 -5.1592 -3.7524
  848SOL     OW 2542   2.892   2.906   0.120 -0.1076 -0.6377 -0.0830
  848SOL    HW1 2543   2.816   2.944   0.178  1.1035  0.6142  2.6511
  848SOL    HW2 2544   2.982   2.920   0.167  1.0311  0.9958  0.8151
  849SOL     OW 2545   0.637   2.954   0.012 -0.0367  0.8550 -0.0612
  849SOL    HW1 2546   0.609   3.005   3.033  2.7019  1.1036  1.0444
  849SOL    HW2 2547   0.649   3.017   0.092  0.9489 -0.2454  0.9612
  850SOL     OW 2548   1.495   3.096   1.126 -0.2216  0.2825  0.5591
  850SOL    HW1 2549   1.535   0.068   1.068  0.6591 -3.0646 -1.4301
  850SOL    HW2 2550   1.538   3.005   1.095  1.4375 -2.7801 -2.3782
  851SOL     OW 2551   2.579   0.302   1.980 -0.0777 -1.0013 -0.3144
  851SOL    HW1 2552   2.678   0.327   2.015  4.3306  1.8595 -0.8867
  851SOL    HW2 2553   2.525   0.389   1.971  1.1011  3.0749 -0.8754
  852SOL     OW 2554   1.832   0.553   2.352  0.0005 -0.0796 -0.2976
  852SOL    HW1 2555   1.730   0.563   2.362 -0.9890 -2.6472  0.0015
  852SOL    HW2 2556   1.866   0.514   2.265  0.4867  2.1140 -2.8643
  853SOL     OW 2557   2.984   3.022   0.448 -0.3421  0.5353 -0.1435
  853SOL    HW1 2558   2.964   0.004   0.505  0.4683  0.1352  0.6533
  853SOL    HW2 2559   2.940   2.937   0.483 -0.0006  0.5807  0.1907
  854SOL     OW 2560   2.356   1.267   2.207 -0.9670 -0.0608 -0.2738
  854SOL    HW1 2561   2.297   1.347   2.187 -0.1160 -1.0415  0.0658
  854SOL    HW2 2562   2.449   1.289   2.247  0.4869 -0.9211 -1.8875
  855SOL     OW 2563   0.861   2.738   0.351  0.9450 -0.1458 -0.2241
  855SOL    HW1 2564   0.754   2.744   0.359 -0.6719 -0.8916  1.9616
  855SOL    HW2 2565   0.897   2.659   0.307  1.6447 -0.4873  0.8585
  856SOL     OW 2566   0.007   0.001   2.817  0.0290  0.2763 -0.0671
  856SOL    HW1 2567   3.038   0.006   2.749 -0.3256  1.1272  1.2015
  856SOL    HW2 2568   3.100   3.032   2.881  0.2305 -0.5067 -0.4298
  857SOL     OW 2569   1.167   3.029   1.556 -0.3070 -0.0134 -0.6885
  857SOL    HW1 2570   1.191   2.955   1.493  0.4728  1.9121 -1.3906
  857SOL    HW2 2571   1.097   3.091   1.516  0.1425  2.2091  0.0675
  858SOL     OW 2572   2.780   2.292   1.722 -0.6739 -0.2698 -0.4979
  858SOL    HW1 2573   2.786   2.224   1.642 -1.3198 -1.8812  0.5663
  858SOL    HW2 2574   2.870   2.298   1.766  2.7362 -3.3975 -1.0630
  859SOL     OW 2575   1.496   2.258   1.776  0.1579 -0.0501 -0.4934
  859SOL    HW1 2576   1.431   2.285   1.701 -0.6348 -1.7047 -2.0056
  859SOL    HW2 2577   1.506   2.340   1.840 -0.7313  1.0343  0.6740
  860SOL     OW 2578   2.308   2.784   0.072  0.0861 -0.3363 -0.1131
  860SOL    HW1 2579   2.343   2.736   3.095  1.3680 -1.3942  0.1859
  860SOL    HW2 2580   2.210   2.815   0.068 -1.4997 -0.0239 -1.0548
  861SOL     OW 2581   2.290   2.798   0.547  0.2538  0.3156  0.1736
  861SOL    HW1 2582   2.201   2.817   0.498 -2.8411  0.2297 -2.1281
  861SOL    HW2 2583   2.349   2.746   0.484 -2.0049  1.1793 -0.5293
  862SOL     OW 2584   1.644   0.233   2.427 -0.5491 -0.6631 -0.5803
  862SOL    HW1 2585   1.676   0.146   2.466  0.4008  2.2192  0.3390
  862SOL    HW2 2586   1.711   0.277   2.365 -0.0041 -0.9912 -2.2627
  863SOL     OW 2587   0.065   0.550   0.778 -0.1640  0.5480 -0.6255
  863SOL    HW1 2588   0.162   0.523   0.751  2.0437 -0.5083 -1.4836
  863SOL    HW2 2589   0.034   0.628   0.718 -1.3197 -0.0437  0.3604
  864SOL     OW 2590   0.259   2.705   2.256  0.5646  0.0104  0.3822
  864SOL    HW1 2591   0.361   2.710   2.262  0.0799  0.9921  0.1738
  864SOL    HW2 2592   0.224   2.614   2.218  0.5180 -0.7873 -0.4011
  865SOL     OW 2593   0.752   1.085   2.872 -0.2992 -0.4063  0.4685
  865SOL    HW1 2594   0.839   1.063   2.918 -0.1310  0.1666 -0.4456
  865SOL    HW2 2595   0.672   1.038   2.911 -0.6985  0.4870 -1.5032
  866SOL     OW 2596   2.885   0.610   0.042  0.2184 -0.0185  0.3934
  866SOL    HW1 2597   2.957   0.632   0.114 -0.7579 -1.6823  0.1730
  866SOL    HW2 2598   2.913   0.642   3.061 -1.1888 -1.3987  1.3116
  867SOL     OW 2599   0.069   2.723   2.933  0.4988 -0.3210  0.0288
  867SOL    HW1 2600   0.135   2.714   3.010 -0.3350 -0.8983  3.6852
  867SOL    HW2 2601   3.097   2.794   2.950 -2.1805  2.8946  1.0430
  868SOL     OW 2602   1.472   3.048   0.257  0.0336 -0.1707 -0.6694
  868SOL    HW1 2603   1.389   3.092   0.293 -1.4291  0.2894  0.6067
  868SOL    HW2 2604   1.475   2.952   0.292 -1.6231  2.1217  1.0547
  869SOL     OW 2605   1.783   1.690   0.715  0.9183 -0.2861 -0.1056
  869SOL    HW1 2606   1.807   1.649   0.807  1.7776  0.9172 -0.6028
  869SOL    HW2 2607   1.758   1.791   0.726 -2.1366  3.9261 -0.8325
  870SOL     OW 2608   1.772   1.955   0.779 -0.3748 -0.0654  0.6143
  870SOL    HW1 2609   1.859   1.951   0.826 -0.1574  2.9483 -0.1397
  870SOL    HW2 2610   1.766   2.034   0.713  0.1110  3.8879  2.1563
  871SOL     OW 2611   1.368   1.389   1.413  0.2328 -0.1166  0.2497
  871SOL    HW1 2612   1.301   1.338   1.470 -1.5018  0.8542  1.3041
  871SOL    HW2 2613   1.435   1.327   1.367  0.5360 -0.6757 -1.6364
  872SOL     OW 2614   1.123   1.679   1.812 -0.4196 -0.4261 -0.0778
  872SOL    HW1 2615   1.092   1.593   1.860  1.9620  2.7846  0.3722
  872SOL    HW2 2616   1.054   1.754   1.826 -0.6073  0.0555  1.8404
  873SOL     OW 2617   0.893   1.428   2.276 -0.1582 -0.2355 -0.1459
  873SOL    HW1 2618   0.973   1.364   2.274 -0.7931  3.4055  1.5472
  873SOL    HW2 2619   0.881   1.468   2.372  2.4386  1.1636 -0.0418
  874SOL     OW 2620   0.504   1.355   1.101  0.3538 -0.5659  0.0238
  874SOL    HW1 2621   0.423   1.342   1.042  0.1573 -1.4554  0.2011
  874SOL    HW2 2622   0.523   1.268   1.154  1.4737  0.6625 -1.1463
  875SOL     OW 2623   2.743   0.066   1.122 -0.2913 -0.0895  0.1192
  875SOL    HW1 2624   2.661   0.081   1.061 -1.0872 -1.6104 -0.3669
  875SOL    HW2 2625   2.716   0.094   1.219 -0.0158 -0.9690  2.4483
  876SOL     OW 2626   0.913   0.715   3.076  0.1332  0.1089  0.0139
  876SOL    HW1 2627   0.902   0.614   3.094 -0.9093 -1.1869 -1.2536
  876SOL    HW2 2628   0.896   0.773   0.050  1.2150 -2.1972 -1.6437
  877SOL     OW 2629   3.031   0.292   1.389 -0.4096 -0.0170  0.1086
  877SOL    HW1 2630   2.980   0.329   1.315  3.4734 -1.4850  2.1193
  877SOL    HW2 2631   3.001   0.196   1.410 -0.8798 -1.4393  1.0709
  878SOL     OW 2632   1.691   2.249   3.082 -0.3101 -0.6412  0.0944
  878SOL    HW1 2633   1.735   2.329   3.034  0.9243 -1.0131  0.4675
  878SOL    HW2 2634   1.713   2.155   3.037 -0.1832 -0.5407  0.4904
  879SOL     OW 2635   2.348   1.967   1.611  0.2691  0.2760  0.1050
  879SOL    HW1 2636   2.317   2.049   1.561 -0.0205  3.9367  0.7771
  879SOL    HW2 2637   2.353   1.968   1.713  2.3254 -2.5029 -0.3952
  880SOL     OW 2638   0.821   0.241   1.665  0.0445 -0.0551  0.1867
  880SOL    HW1 2639   0.803   0.179   1.742 -1.4254  0.8092  0.6092
  880SOL    HW2 2640   0.766   0.327   1.666  1.4065 -0.6364 -0.1872
  881SOL     OW 2641   1.041   2.080   2.992 -0.2704 -0.0172 -0.8518
  881SOL    HW1 2642   1.030   2.079   2.891  1.8693  0.2593 -0.7962
  881SOL    HW2 2643   1.127   2.029   3.022 -2.5059  0.1713 -0.7654
  882SOL     OW 2644   2.198   1.199   1.996  0.2494 -0.1205  0.1030
  882SOL    HW1 2645   2.298   1.208   2.018  2.6792  0.1283  0.4777
  882SOL    HW2 2646   2.186   1.177   1.898 -0.0947  0.1859  0.6310
  883SOL     OW 2647   1.287   0.837   1.940 -0.7845  0.3375 -0.2456
  883SOL    HW1 2648   1.195   0.858   1.901  1.9598 -1.6267  0.6003
  883SOL    HW2 2649   1.324   0.754   1.897  0.4154  1.6051 -0.2563
  884SOL     OW 2650   2.759   0.376   0.034  0.3814 -0.5160  0.4493
  884SOL    HW1 2651   2.811   0.303   0.074 -2.4393 -0.4748 -1.5226
  884SOL    HW2 2652   2.800   0.468   0.047  0.0711 -0.2892 -1.2570
  885SOL     OW 2653   0.299   2.037   0.468  0.0263  0.0536  0.0266
  885SOL    HW1 2654   0.293   1.944   0.431  1.6218  2.5695 -0.8199
  885SOL    HW2 2655   0.352   2.086   0.401 -2.5180  3.1071  0.1665
  886SOL     OW 2656   1.905   1.453   2.957  0.1669  0.5698 -0.9029
  886SOL    HW1 2657   1.941   1.396   2.877 -0.6242 -1.8413  0.0746
  886SOL    HW2 2658   1.810   1.475   2.925 -1.8360 -0.8251 -1.4589
  887SOL     OW 2659   1.735   0.491   1.349 -0.6545 -0.5006  0.1986
  887SOL    HW1 2660   1.676   0.524   1.426  1.1125 -1.6051 -1.3906
  887SOL    HW2 2661   1.686   0.503   1.259 -0.4518 -1.2609  1.3455
  888SOL     OW 2662   2.771   1.071   1.668 -0.1273 -0.2500  0.0111
  888SOL    HW1 2663   2.697   1.138   1.689  0.4339 -0.5958  0.5307
  888SOL    HW2 2664   2.734   0.976   1.691  0.4863 -0.1678  1.1571
  889SOL     OW 2665   2.890   2.611   1.074 -0.3527 -0.4176  0.0470
  889SOL    HW1 2666   2.981   2.632   1.114  1.7769 -1.6786  2.1779
  889SOL    HW2 2667   2.904   2.545   0.999 -0.7039  0.6259  2.1291
  890SOL     OW 2668   0.100   2.655   2.641  0.1615  0.4726 -0.6583
  890SOL    HW1 2669   0.124   2.563   2.605  1.5850 -0.9935  0.1108
  890SOL    HW2 2670   0.100   2.656   2.743 -0.0038 -0.5447  3.2317
  891SOL     OW 2671   0.524   1.710   0.005  0.2563  0.5932  0.0060
  891SOL    HW1 2672   0.611   1.763   0.018  0.5617  0.8027  0.0548
  891SOL    HW2 2673   0.534   1.609   0.021  0.6917 -2.9931 -0.5205
  892SOL     OW 2674   0.154   2.443   1.220 -0.0735  0.3909 -0.2028
  892SOL    HW1 2675   0.113   2.353   1.249  2.9135  2.7264  3.7215
  892SOL    HW2 2676   0.243   2.448   1.263  0.0098  1.6683 -1.3908
  893SOL     OW 2677   0.522   0.005   1.247  0.0922  0.1028  0.0704
  893SOL    HW1 2678   0.524   0.019   1.349 -0.6758  0.5314  2.0760
  893SOL    HW2 2679   0.471   3.030   1.220  1.6756  1.4492 -2.2125
  894SOL     OW 2680   2.464   1.357   0.909  0.6853  0.4060 -0.3747
  894SOL    HW1 2681   2.483   1.329   0.814 -1.9647 -0.1495  2.3699
  894SOL    HW2 2682   2.373   1.331   0.942  0.6467 -1.3113  3.1191
  895SOL     OW 2683   2.632   2.481   1.570 -0.0078 -0.3406  0.5169
  895SOL    HW1 2684   2.694   2.423   1.632  4.1270  3.4324 -0.7191
  895SOL    HW2 2685   2.564   2.431   1.515  3.1078  1.4129  1.7294
  896SOL     OW 2686   0.931   0.597   1.556  0.7440 -0.0828  0.4850
  896SOL    HW1 2687   1.001   0.529   1.567  0.0292  2.2066  0.5259
  896SOL    HW2 2688   0.844   0.572   1.598 -2.1064 -0.5507 -0.6558
  897SOL     OW 2689   0.590   1.724   1.659 -0.0258 -0.3065 -0.1638
  897SOL    HW1 2690   0.679   1.714   1.714  0.7929  2.3194  0.7676
  897SOL    HW2 2691   0.605   1.729   1.559 -0.9122  1.3189  2.5052
  898SOL     OW 2692   1.544   2.714   1.808 -0.2262  0.2981  0.8216
  898SOL    HW1 2693   1.572   2.741   1.719 -2.6620  0.3840  5.8595
  898SOL    HW2 2694   1.453   2.757   1.823  1.0756 -0.8499  1.4625
  899SOL     OW 2695   0.907   0.489   0.124 -0.1839 -0.0961  0.3529
  899SOL    HW1 2696   0.848   0.498   0.208 -0.5490  0.7508  0.0158
  899SOL    HW2 2697   0.899   0.396   0.076  1.0057 -0.6907  2.1959
  900SOL     OW 2698   1.332   2.393   2.103  0.0921  0.4797  0.5104
  900SOL    HW1 2699   1.303   2.459   2.169  0.9000 -3.4247 -0.9425
  900SOL    HW2 2700   1.398   2.438   2.044 -3.2534 -1.2967  1.4536
  901SOL     OW 2701   1.142   2.320   0.039  0.3262  0.2900 -0.1537
  901SOL    HW1 2702   1.102   2.238   3.092  0.3261 -5.1863 -1.2049
  901SOL    HW2 2703   1.226   2.358   0.002 -1.8965 -3.0852 -0.6346
  902SOL     OW 2704   1.627   1.455   0.624  0.3214  0.3507 -0.5024
  902SOL    HW1 2705   1.530   1.475   0.645  0.9836 -1.6031 -1.3448
  902SOL    HW2 2706   1.681   1.533   0.640 -0.8739 -2.9872  0.6788
  903SOL     OW 2707   2.306   1.035   0.032  0.3260  0.1205  0.2213
  903SOL    HW1 2708   2.394   1.076   0.058 -0.4425  0.1979  3.9135
  903SOL    HW2 2709   2.293   1.036   3.038  1.6434 -0.0444  2.0581
  904SOL     OW 2710   0.907   1.137   0.058  0.3607  0.0212 -0.4183
  904SOL    HW1 2711   0.933   1.222   0.012  0.5223  0.5729 -0.4945
  904SOL    HW2 2712   0.831   1.149   0.125 -0.7268  1.3351  0.4776
  905SOL     OW 2713   2.093   2.964   1.297 -0.3540  0.1214 -0.3048
  905SOL    HW1 2714   2.098   3.066   1.300  3.4597 -1.5779  1.2973
  905SOL    HW2 2715   2.156   2.922   1.363 -1.4551  2.4563  0.4626
  906SOL     OW 2716   2.843   2.414   1.295 -0.0948  0.2073 -0.3531
  906SOL    HW1 2717   2.839   2.493   1.228 -0.0488 -0.0488 -3.1752
  906SOL    HW2 2718   2.749   2.365   1.300  0.4419  0.2077 -0.7606
  907SOL     OW 2719   1.202   1.029   0.332 -0.1976  0.4996  0.0674
  907SOL    HW1 2720   1.195   0.929   0.325  2.7922  3.6951 -0.8924
  907SOL    HW2 2721   1.232   1.058   0.240 -1.4545 -2.5716 -1.1392
  908SOL     OW 2722   1.618   0.161   0.990 -0.4363 -0.1178 -0.1249
  908SOL    HW1 2723   1.697   0.165   1.062  2.7722  0.1817  1.9241
  908SOL    HW2 2724   1.608   0.249   0.936 -2.6039  1.1956 -1.7383
  909SOL     OW 2725   2.167   1.171   1.708 -0.5523  0.5140 -0.2350
  909SOL    HW1 2726   2.232   1.096   1.687 -1.1167  3.1522 -1.1028
  909SOL    HW2 2727   2.215   1.263   1.719 -1.4148 -1.4769  0.1752
  910SOL     OW 2728   1.825   0.476   1.962 -0.0308 -0.5255 -0.4199
  910SOL    HW1 2729   1.803   0.579   1.963 -1.7418  1.9873  1.3257
  910SOL    HW2 2730   1.888   0.453   1.884  1.5089  0.3463 -2.4680
  911SOL     OW 2731   2.473   0.863   2.892 -0.7483  0.2350 -0.1139
  911SOL    HW1 2732   2.510   0.777   2.851 -1.3348  3.2420  1.1795
  911SOL    HW2 2733   2.464   0.848   2.995  2.6482  0.7019  1.4342
  912SOL     OW 2734   3.034   1.134   1.698 -0.5466  0.2555  0.6456
  912SOL    HW1 2735   3.090   1.180   1.625  0.9892 -0.3923 -1.4294
  912SOL    HW2 2736   2.933   1.133   1.677 -3.4437  1.3901  1.6099
  913SOL     OW 2737   3.055   2.449   1.457 -0.6209 -0.0207  0.2854
  913SOL    HW1 2738   0.002   2.360   1.475  1.4906 -1.0590  4.4704
  913SOL    HW2 2739   2.973   2.427   1.400 -2.0078 -0.4451  2.2454
  914SOL     OW 2740   1.737   1.180   1.900 -0.6650 -0.5001 -0.2323
  914SOL    HW1 2741   1.820   1.156   1.960  1.8613 -2.5314  4.9430
  914SOL    HW2 2742   1.719   1.105   1.834 -0.2826  0.7199  1.2591
  915SOL     OW 2743   2.094   0.783   1.108 -0.1696  0.0354  0.0174
  915SOL    HW1 2744   2.167   0.779   1.182  1.1707  0.0989  1.2717
  915SOL    HW2 2745   2.132   0.744   1.025 -0.8325 -1.9712 -0.7340
  916SOL     OW 2746   2.077   2.239   1.199  0.4144 -0.5503  0.0864
  916SOL    HW1 2747   2.049   2.334   1.179 -1.1404 -1.6933 -1.0930
  916SOL    HW2 2748   2.082   2.186   1.109 -1.9582 -2.1100 -0.6023
  917SOL     OW 2749   1.909   2.034   2.600 -0.2642  0.0876  0.5323
  917SOL    HW1 2750   1.860   2.118   2.639 -2.1046  0.8390  0.5993
  917SOL    HW2 2751   1.902   1.957   2.668  0.0167  0.3288  1.9896
  918SOL     OW 2752   1.771   2.634   2.285 -0.0738 -0.4195 -0.4182
  918SOL    HW1 2753   1.836   2.712   2.275 -1.7032 -1.8864 -0.3433
  918SOL    HW2 2754   1.827   2.556   2.324 -0.9678 -1.1367 -1.0530
  919SOL     OW 2755   1.251   2.845   1.348  0.2449  0.1115  0.5604
  919SOL    HW1 2756   1.238   2.878   1.253 -0.0305 -3.9190  1.6547
  919SOL    HW2 2757   1.330   2.777   1.347  0.5680 -2.7965 -0.5403
  920SOL     OW 2758   0.097   0.169   2.417 -0.6231  0.2730 -0.1227
  920SOL    HW1 2759   0.136   0.074   2.428 -0.2487 -1.5817  0.6929
  920SOL    HW2 2760   0.009   0.174   2.467  2.4476  0.7757  0.0431
  921SOL     OW 2761   3.029   0.860   1.722  0.1959  0.6395 -0.1299
  921SOL    HW1 2762   3.037   0.963   1.717  0.1577 -0.6746  1.1410
  921SOL    HW2 2763   0.015   0.815   1.695 -0.2591  0.4718 -3.2565
  922SOL     OW 2764   2.323   2.212   0.283  0.0681 -0.0994  0.1352
  922SOL    HW1 2765   2.246   2.207   0.215  0.7061 -0.7032 -2.4584
  922SOL    HW2 2766   2.330   2.297   0.344  3.4046  0.0453  0.7419
  923SOL     OW 2767   0.651   1.811   0.398 -0.6033 -0.3641  1.0946
  923SOL    HW1 2768   0.566   1.828   0.339 -0.8536  1.1704 -0.7773
  923SOL    HW2 2769   0.728   1.871   0.364  0.2524  2.2508 -1.0470
  924SOL     OW 2770   1.171   0.545   0.083 -0.1385 -0.5905 -0.8385
  924SOL    HW1 2771   1.071   0.535   0.111 -1.7855  2.8738 -0.1365
  924SOL    HW2 2772   1.185   0.548   3.086 -0.3236 -0.0833 -2.8869
  925SOL     OW 2773   2.480   0.651   0.963 -0.3168  0.3808 -0.2430
  925SOL    HW1 2774   2.441   0.742   0.978 -0.0603 -2.4563 -1.5236
  925SOL    HW2 2775   2.495   0.632   0.868  0.8034  1.0093  3.9526
  926SOL     OW 2776   0.544   0.329   1.290  0.2303  0.2587 -0.1057
  926SOL    HW1 2777   0.483   0.328   1.206 -0.3854 -0.5274 -0.3208
  926SOL    HW2 2778   0.545   0.238   1.330  2.0765 -0.7567 -1.5473
  927SOL     OW 2779   0.087   1.453   2.422  0.1278 -0.1013  0.1508
  927SOL    HW1 2780   0.014   1.511   2.462 -1.5837 -1.5029  0.4981
  927SOL    HW2 2781   0.121   1.499   2.338 -1.6602  1.5512  0.3991
  928SOL     OW 2782   2.954   0.212   2.513 -0.2713  0.2701 -0.1150
  928SOL    HW1 2783   2.939   0.130   2.571 -1.6586 -0.0303  0.0450
  928SOL    HW2 2784   2.937   0.298   2.566  0.9452  0.8643 -2.0277
  929SOL     OW 2785   2.935   2.997   1.168  0.2052  0.1380 -0.2442
  929SOL    HW1 2786   2.979   2.946   1.092  0.8898 -0.4052  1.5146
  929SOL    HW2 2787   2.864   3.061   1.134 -3.6769  1.0213  0.4311
  930SOL     OW 2788   2.008   0.736   1.700 -0.2244 -0.5345 -0.2952
  930SOL    HW1 2789   1.999   0.635   1.727 -1.6098  1.8011  0.5581
  930SOL    HW2 2790   2.031   0.796   1.779  0.6785 -0.8495  0.6322
  931SOL     OW 2791   1.901   1.272   0.070 -0.0706 -0.2425  0.2434
  931SOL    HW1 2792   1.893   1.325   3.092  1.0096  2.1952  1.6897
  931SOL    HW2 2793   1.906   1.336   0.146 -1.0416 -0.0033 -0.6323
  932SOL     OW 2794   2.147   1.224   0.315 -0.4112  0.0787  0.1933
  932SOL    HW1 2795   2.104   1.135   0.286 -3.1623 -0.7801  0.2606
  932SOL    HW2 2796   2.080   1.305   0.310 -0.7564  1.2725  0.1406
  933SOL     OW 2797   2.077   1.555   0.873  0.0461 -0.4535  0.1205
  933SOL    HW1 2798   2.116   1.573   0.784 -0.5668  1.1230  1.4645
  933SOL    HW2 2799   2.131   1.602   0.944 -0.8049  1.1585 -1.1693
  934SOL     OW 2800   2.023   0.758   2.433 -0.0169  0.2169 -0.5071
  934SOL    HW1 2801   2.115   0.715   2.419 -0.2321  0.1565  1.0336
  934SOL    HW2 2802   1.952   0.686   2.413 -0.5632  0.2678 -0.5545
  935SOL     OW 2803   0.257   0.890   0.459  0.4134 -0.6818 -0.7082
  935SOL    HW1 2804   0.276   0.885   0.358 -0.7050 -0.1519 -0.2197
  935SOL    HW2 2805   0.244   0.987   0.483 -1.1691 -3.3043  0.1540
  936SOL     OW 2806   0.378   0.055   0.902  0.8049 -0.1875  0.0550
  936SOL    HW1 2807   0.472   0.087   0.938  2.3040 -0.2617  2.3394
  936SOL    HW2 2808   0.308   0.128   0.902 -0.0048 -2.4275  1.3780
  937SOL     OW 2809   3.091   2.989   2.044 -0.0311  0.4611 -0.1969
  937SOL    HW1 2810   3.072   2.943   2.136  1.7013 -0.2696  2.7752
  937SOL    HW2 2811   3.093   2.922   1.968  1.3113  0.3490 -0.2987
  938SOL     OW 2812   0.077   2.510   0.135 -0.0420  0.3454  0.1371
  938SOL    HW1 2813   3.094   2.563   0.146 -1.5364  2.2945 -0.9058
  938SOL    HW2 2814   0.142   2.568   0.078  2.2958  1.0067  1.1619
  939SOL     OW 2815   0.802   1.933   0.874 -1.0441  0.0569  0.0426
  939SOL    HW1 2816   0.833   2.016   0.923  0.8432  0.3368 -3.0527
  939SOL    HW2 2817   0.789   1.855   0.935  0.2845  1.6796 -2.0028
  940SOL     OW 2818   0.084   0.398   2.822 -0.1967 -0.0924  0.3098
  940SOL    HW1 2819   0.149   0.370   2.897  3.1726 -0.6376 -1.2495
  940SOL    HW2 2820   0.103   0.492   2.780  0.4802  0.3209 -0.5046
  941SOL     OW 2821   2.046   0.216   2.538 -0.3052  0.0544 -0.3410
  941SOL    HW1 2822   1.977   0.291   2.546  2.4131 -0.7897 -0.0682
  941SOL    HW2 2823   2.002   0.132   2.573  1.9391  0.6532 -0.3370
  942SOL     OW 2824   1.166   0.463   1.193  0.3397 -0.2809 -0.2509
  942SOL    HW1 2825   1.203   0.398   1.265  1.4317 -2.0570 -0.9613
  942SOL    HW2 2826   1.086   0.514   1.219  1.4659  0.7499 -2.7520
  943SOL     OW 2827   1.023   0.887   1.824 -0.5355 -0.0510 -0.5457
  943SOL    HW1 2828   0.970   0.854   1.904  1.8073  0.7140  0.4189
  943SOL    HW2 2829   0.963   0.947   1.767  1.3204 -3.1573 -2.0764
  944SOL     OW 2830   1.967   0.996   1.576  0.5691 -0.5851  0.5059
  944SOL    HW1 2831   1.954   0.924   1.643  2.3290  2.2653 -2.0724
  944SOL    HW2 2832   2.042   1.062   1.609  0.0752  1.0263  1.4244
  945SOL     OW 2833   2.682   3.016   0.263  0.4485  0.3146 -0.4301
  945SOL    HW1 2834   2.668   3.046   0.361 -0.6636 -2.1189  0.9007
  945SOL    HW2 2835   2.592   3.014   0.214 -0.3376  0.3358 -1.1363
  946SOL     OW 2836   3.079   0.714   1.967 -0.0701 -0.1799  0.6270
  946SOL    HW1 2837   2.983   0.687   1.994 -2.4850  0.3552 -2.5753
  946SOL    HW2 2838   3.071   0.781   1.890 -2.6384  0.9938 -3.0443
  947SOL     OW 2839   0.906   2.907   0.128 -0.0691  0.0791 -0.0102
  947SOL    HW1 2840   0.825   2.910   0.068 -2.4539  0.9789 -1.5787
  947SOL    HW2 2841   0.873   2.878   0.221  2.0145 -0.7580  2.1483
  948SOL     OW 2842   2.486   1.850   1.364  0.5347  0.1879  0.0388
  948SOL    HW1 2843   2.464   1.883   1.460  0.0781  1.9662  0.1752
  948SOL    HW2 2844   2.500   1.750   1.358 -0.9898  1.2639 -0.5664
  949SOL     OW 2845   0.250   1.281   2.959  0.2980 -0.2890  0.2199
  949SOL    HW1 2846   0.157   1.251   2.987  2.1237 -1.7175  0.1060
  949SOL    HW2 2847   0.276   1.230   2.874  0.6711 -1.4286 -2.7427
  950SOL     OW 2848   0.667   2.469   0.944 -0.5099 -0.3557 -0.4305
  950SOL    HW1 2849   0.606   2.545   0.919 -2.1774  1.5533 -1.6812
  950SOL    HW2 2850   0.616   2.383   0.942  1.2427  0.4091  0.0858
  951SOL     OW 2851   0.534   1.342   2.596  0.4999  0.5671 -0.8316
  951SOL    HW1 2852   0.478   1.353   2.681 -0.6947  2.2372  1.1300
  951SOL    HW2 2853   0.597   1.261   2.601  0.6667 -0.9316 -1.2565
  952SOL     OW 2854   0.498   0.838   0.559  0.1189  0.6899 -0.0675
  952SOL    HW1 2855   0.510   0.911   0.630  0.3375  0.3676  0.5112
  952SOL    HW2 2856   0.413   0.852   0.503 -0.6430 -1.3386  0.1951
  953SOL     OW 2857   2.644   2.932   2.257 -0.0649 -0.1193  1.1044
  953SOL    HW1 2858   2.603   3.023   2.248 -0.6714  0.3922  0.3292
  953SOL    HW2 2859   2.729   2.930   2.312  1.8269  0.3515  0.7015
  954SOL     OW 2860   1.343   1.009   0.571  1.1309  0.1812 -0.3707
  954SOL    HW1 2861   1.322   1.036   0.470  0.6891  0.1255 -1.7448
  954SOL    HW2 2862   1.441   1.030   0.598  0.4217  1.2143 -0.8084
  955SOL     OW 2863   0.774   1.848   0.064  0.2204 -0.3025  0.3319
  955SOL    HW1 2864   0.837   1.774   0.042 -0.7686 -1.0966  0.3604
  955SOL    HW2 2865   0.819   1.894   0.146 -0.7249  0.5220  0.8110
  956SOL     OW 2866   2.264   0.357   1.867 -0.2412 -0.0633 -0.1209
  956SOL    HW1 2867   2.288   0.261   1.846  0.0552  0.9732 -0.1414
  956SOL    HW2 2868   2.343   0.417   1.860 -3.6354  0.3060  1.1837
  957SOL     OW 2869   2.101   2.299   2.329  0.1911 -0.4279 -0.3550
  957SOL    HW1 2870   2.172   2.229   2.315 -1.2128  1.6576  0.2587
  957SOL    HW2 2871   2.139   2.379   2.380  0.8380  0.3746  0.0482
  958SOL     OW 2872   1.626   1.133   1.221 -0.0762 -0.3211 -0.4989
  958SOL    HW1 2873   1.655   1.215   1.278  1.0190  2.5126 -0.0028
  958SOL    HW2 2874   1.647   1.044   1.275 -0.4753 -0.3613 -0.3594
  959SOL     OW 2875   1.946   2.066   2.154 -0.4685  0.5306 -0.3624
  959SOL    HW1 2876   1.988   2.060   2.061 -2.3271 -0.6984  2.9341
  959SOL    HW2 2877   1.867   2.133   2.147 -1.4585  1.2542  0.6465
  960SOL     OW 2878   0.355   0.886   2.699 -0.2035  0.5035  0.7940
  960SOL    HW1 2879   0.334   0.874   2.597  2.3158 -0.4381 -3.1430
  960SOL    HW2 2880   0.400   0.797   2.740  0.3926 -3.4385  2.5644
  961SOL     OW 2881   0.106   0.913   2.810 -0.0608 -0.1764 -0.1983
  961SOL    HW1 2882   0.205   0.945   2.800  0.7533 -0.6396  1.3033
  961SOL    HW2 2883   0.044   0.962   2.743  1.3484  1.4631 -0.3442
  962SOL     OW 2884   0.362   1.326   2.388 -0.0153 -0.1972 -0.2385
  962SOL    HW1 2885   0.270   1.368   2.411 -0.5921 -1.1980  1.7247
  962SOL    HW2 2886   0.412   1.317   2.475 -1.5479 -1.5591 -0.2736
  963SOL     OW 2887   0.010   1.965   0.191  0.2937  0.1122  0.2529
  963SOL    HW1 2888   3.062   2.052   0.198  1.6020 -3.0750 -1.1821
  963SOL    HW2 2889   3.051   1.906   0.137 -3.1155  0.4602 -0.0629
  964SOL     OW 2890   0.915   2.371   1.866  0.4675 -0.3480 -0.0719
  964SOL    HW1 2891   0.978   2.412   1.792  0.3273  2.5241 -2.3759
  964SOL    HW2 2892   0.836   2.437   1.882 -0.7691 -0.8547  0.0017
  965SOL     OW 2893   1.730   2.120   0.559  0.0241 -0.2802  0.1892
  965SOL    HW1 2894   1.733   2.221   0.565  1.3117 -1.4072  2.1153
  965SOL    HW2 2895   1.743   2.094   0.460 -1.0027 -1.7707  0.3805
  966SOL     OW 2896   2.762   1.580   0.199 -0.2257  0.5400 -0.5427
  966SOL    HW1 2897   2.710   1.526   0.130  0.3064  1.4182  1.3488
  966SOL    HW2 2898   2.853   1.534   0.220  1.0692 -0.5937  0.0907
  967SOL     OW 2899   1.992   3.028   1.904 -0.2312 -0.2715  0.1586
  967SOL    HW1 2900   2.013   3.049   1.805 -3.1294 -0.2874 -1.9136
  967SOL    HW2 2901   1.972   2.930   1.911  0.3687  1.6462 -3.0339
  968SOL     OW 2902   1.402   0.363   0.183  0.2082 -0.7058 -0.1176
  968SOL    HW1 2903   1.319   0.409   0.161  3.4384  0.1156 -2.7749
  968SOL    HW2 2904   1.466   0.422   0.235 -1.2337 -0.1069  0.8194
  969SOL     OW 2905   0.156   1.580   2.196 -0.6998 -0.0678  0.5024
  969SOL    HW1 2906   0.243   1.564   2.145  2.2207  2.3840  2.0634
  969SOL    HW2 2907   0.084   1.529   2.147  2.6041  2.9407  0.2379
  970SOL     OW 2908   2.030   2.539   1.196 -0.4994 -0.6802  0.3909
  970SOL    HW1 2909   1.929   2.560   1.203 -0.2598  2.5597 -3.2900
  970SOL    HW2 2910   2.058   2.577   1.104  0.7962  0.9254  0.5486
  971SOL     OW 2911   2.218   2.332   0.757 -0.3116 -0.1543 -0.4049
  971SOL    HW1 2912   2.260   2.385   0.833 -0.1109 -0.8672 -0.7843
  971SOL    HW2 2913   2.276   2.248   0.737  0.7732  1.4480  0.5241
  972SOL     OW 2914   3.067   1.050   2.602  0.4863  0.7254  0.0254
  972SOL    HW1 2915   3.051   1.060   2.500 -0.2504  2.7529  0.7435
  972SOL    HW2 2916   2.973   1.030   2.643 -0.2542  0.0726 -0.5716
  973SOL     OW 2917   0.686   0.386   0.563 -0.0267  0.1009  0.3712
  973SOL    HW1 2918   0.631   0.460   0.605  1.2660 -0.7143  1.6688
  973SOL    HW2 2919   0.721   0.330   0.640  1.3173  0.2035 -2.6021
  974SOL     OW 2920   2.270   0.801   1.918  0.0679 -0.0415  0.3253
  974SOL    HW1 2921   2.300   0.782   2.015 -1.2047 -0.7650 -2.6773
  974SOL    HW2 2922   2.176   0.841   1.927 -2.9380  0.0086 -1.5623
  975SOL     OW 2923   0.033   3.002   0.241  0.1293 -0.1872 -0.1013
  975SOL    HW1 2924   3.076   2.997   0.324  0.1332 -0.6987 -1.1808
  975SOL    HW2 2925   0.126   3.030   0.265  0.2006 -1.6102 -2.8034
  976SOL     OW 2926   0.340   1.798   0.955 -0.0164 -0.3381  0.2684
  976SOL    HW1 2927   0.271   1.728   0.975  4.1709  0.7802 -3.0047
  976SOL    HW2 2928   0.330   1.828   0.854 -0.3115 -2.4590 -1.5187
  977SOL     OW 2929   0.942   1.965   0.646  0.4087  0.0439 -0.5430
  977SOL    HW1 2930   0.977   1.887   0.594  1.3812  0.5605  0.8196
  977SOL    HW2 2931   0.890   1.939   0.735  0.1721  1.1774  2.7200
  978SOL     OW 2932   0.147   0.810   3.095  0.0386 -0.4745  0.1164
  978SOL    HW1 2933   0.213   0.738   3.061 -1.0019 -0.4888 -1.4250
  978SOL    HW2 2934   0.100   0.852   3.015 -1.1009  0.6656 -3.5249
  979SOL     OW 2935   1.955   1.609   0.514  0.0132 -0.5381 -0.8109
  979SOL    HW1 2936   2.053   1.607   0.543 -3.8785  0.5867 -2.3270
  979SOL    HW2 2937   1.893   1.650   0.587 -0.4760  1.6402  0.3169
  980SOL     OW 2938   0.434   2.277   2.021 -0.2421 -0.7682 -0.5575
  980SOL    HW1 2939   0.446   2.355   1.952 -0.2504  4.4366 -0.8974
  980SOL    HW2 2940   0.529   2.252   2.061 -0.1134 -3.8173  2.4500
  981SOL     OW 2941   2.187   1.240   2.928  0.3841  0.1945  0.4996
  981SOL    HW1 2942   2.090   1.268   2.903  1.4734  0.8536 -2.4041
  981SOL    HW2 2943   2.242   1.249   2.845  0.5169  1.4843 -1.6139
  982SOL     OW 2944   0.110   2.527   1.929 -0.2162 -0.2038 -0.2627
  982SOL    HW1 2945   0.141   2.493   2.021  1.1041  0.0125  2.9957
  982SOL    HW2 2946   0.189   2.570   1.880 -2.6864  0.9390  0.2982
  983SOL     OW 2947   1.987   0.513   1.285  0.5861  0.5900  0.2293
  983SOL    HW1 2948   1.988   0.520   1.185 -0.7388  0.5705  0.6546
  983SOL    HW2 2949   1.894   0.487   1.320  0.4989 -1.0819 -4.4800
  984SOL     OW 2950   1.699   3.071   2.524  0.1313  0.1398  0.2523
  984SOL    HW1 2951   1.698   2.991   2.457 -1.9238  3.5059  2.0706
  984SOL    HW2 2952   1.645   3.044   2.608 -0.5774 -4.5431  2.2306
  985SOL     OW 2953   1.517   1.497   1.616  0.3418 -0.3896 -0.0362
  985SOL    HW1 2954   1.453   1.485   1.542  1.0356 -1.5334  4.5534
  985SOL    HW2 2955   1.472   1.551   1.691 -2.0212  0.3389  1.3500
  986SOL     OW 2956   1.967   2.814   2.209 -0.2978  0.6130 -0.1233
  986SOL    HW1 2957   2.016   2.772   2.138  0.4281  2.4513  1.0477
  986SOL    HW2 2958   1.973   2.913   2.194 -1.2121 -4.3875  2.0502
  987SOL     OW 2959   2.680   1.987   2.885 -0.1978  0.2063 -0.1134
  987SOL    HW1 2960   2.756   1.996   2.950  1.5476  0.4438 -0.8145
  987SOL    HW2 2961   2.712   2.024   2.800 -1.6247 -0.4714  0.8988
  988SOL     OW 2962   2.914   0.654   1.578  0.4491  0.1419 -0.0668
  988SOL    HW1 2963   2.893   0.706   1.488 -0.2358  2.4513 -0.9280
  988SOL    HW2 2964   2.929   0.720   1.654  2.1304 -0.0244  2.4818
  989SOL     OW 2965   1.874   1.445   1.501 -0.3146  0.2783 -0.4511
  989SOL    HW1 2966   1.841   1.446   1.598 -1.1697  0.4465 -0.6634
  989SOL    HW2 2967   1.975   1.451   1.502 -0.1780  0.8582  0.3346
  990SOL     OW 2968   2.990   0.684   2.923  0.2266 -0.2097  0.1211
  990SOL    HW1 2969   3.073   0.635   2.909 -0.6822  5.0537  2.6047
  990SOL    HW2 2970   2.935   0.692   2.838  0.7187 -0.2701 -1.8374
  991SOL     OW 2971   0.501   1.841   2.867 -0.3560  0.1430 -0.0672
  991SOL    HW1 2972   0.414   1.896   2.856 -0.0604  0.4049  1.6072
  991SOL    HW2 2973   0.502   1.802   2.962  0.6467  1.3070 -1.6147
  992SOL     OW 2974   2.388   1.923   1.880  0.3273 -0.0122 -0.1468
  992SOL    HW1 2975   2.298   1.870   1.891  1.6312  2.3505 -0.9803
  992SOL    HW2 2976   2.453   1.889   1.945 -3.2683  1.1233  1.7917
  993SOL     OW 2977   0.607   0.064   1.003 -0.4882  0.2428 -0.3943
  993SOL    HW1 2978   0.590   0.062   1.104  0.7097 -0.0097  0.5769
  993SOL    HW2 2979   0.698   0.114   0.983  0.9929  2.4662 -1.3968
  994SOL     OW 2980   2.816   2.103   1.508 -0.2084  0.2636  0.5423
  994SOL    HW1 2981   2.915   2.103   1.502  0.7267 -1.2527  2.0719
  994SOL    HW2 2982   2.786   2.028   1.569  2.2189 -2.4187 -0.3273
  995SOL     OW 2983   2.080   2.019   2.390  0.0387  0.3697 -0.0403
  995SOL    HW1 2984   2.028   2.025   2.475  1.6549 -0.0751 -2.1836
  995SOL    HW2 2985   2.016   2.031   2.313  1.4888  0.0974  2.3325
  996SOL     OW 2986   1.962   1.814   0.027 -0.0557  0.7398  0.1820
  996SOL    HW1 2987   1.876   1.854   0.057 -1.0504  0.3583  2.9021
  996SOL    HW2 2988   1.977   1.727   0.073  0.3787  1.8521 -1.3042
  997SOL     OW 2989   1.078   1.405   1.913  0.2012 -0.3294  0.0761
  997SOL    HW1 2990   0.976   1.433   1.928 -1.3114  1.3436  1.8052
  997SOL    HW2 2991   1.102   1.309   1.940  0.5451 -0.9193 -1.2118
  998SOL     OW 2992   2.805   2.192   0.713 -0.2360 -0.1041 -0.2034
  998SOL    HW1 2993   2.718   2.201   0.663 -1.1807  1.9067  0.7192
  998SOL    HW2 2994   2.791   2.206   0.815 -1.1608  2.1051  0.1374
  999SOL     OW 2995   0.240   2.735   0.591  0.2711 -0.0331 -0.9745
  999SOL    HW1 2996   0.190   2.663   0.539  0.8286 -1.6311  0.6201
  999SOL    HW2 2997   0.340   2.726   0.580 -0.1225  2.8757 -2.4811
 1000SOL     OW 2998   1.100   0.021   2.960 -0.3245 -0.4174  0.6992
 1000SOL    HW1 2999   1.047   0.027   3.047 -3.6168 -0.8899  0.4268
 1000SOL    HW2 3000   1.154   0.102   2.935  0.2793  1.9175 -0.3947
   3.10549   3.10549   3.10549
