1000 SPC/Fw water molecules t= 302.00000 step= 302000
 3000
    1SOL     OW    1   2.534   0.079   0.973 -0.1031 -0.2133  0.0465
    1SOL    HW1    2   2.550   0.004   0.908 -1.4148  1.4890  0.5689
    1SOL    HW2    3   2.619   0.099   1.021 -2.3753 -0.1974  0.2634
    2SOL     OW    4   2.903   2.516   1.086 -0.3689  0.1272 -0.3393
    2SOL    HW1    5   2.976   2.571   1.041  0.5426 -0.7696  0.9564
    2SOL    HW2    6   2.895   2.540   1.183  1.2907  0.1421  0.3698
    3SOL     OW    7   0.822   2.733   2.861 -1.0302 -0.2465  0.5365
    3SOL    HW1    8   0.786   2.681   2.941  0.3369 -0.3710 -2.3128
    3SOL    HW2    9   0.744   2.747   2.800  1.5162 -1.5109  0.7062
    4SOL     OW   10   2.139   2.299   1.731  0.2878  0.0562 -0.0669
    4SOL    HW1   11   2.211   2.300   1.658 -4.2213 -0.4708 -1.2220
    4SOL    HW2   12   2.159   2.228   1.795  0.0871  1.1004 -2.4562
    5SOL     OW   13   1.735   0.845   1.246  0.4486  0.4569 -0.4374
    5SOL    HW1   14   1.727   0.742   1.243 -2.1422  0.8688 -0.6533
    5SOL    HW2   15   1.654   0.898   1.207  0.1790  0.9139 -0.2603
    6SOL     OW   16   1.868   2.677   0.237 -0.0236  0.1198  0.4720
    6SOL    HW1   17   1.926   2.760   0.225 -1.8400 -0.6708  2.5171
    6SOL    HW2   18   1.773   2.695   0.210  1.0202 -0.8513  3.2667
    7SOL     OW   19   2.766   1.319   1.265  0.4635 -0.2610  0.4952
    7SOL    HW1   20   2.772   1.399   1.329 -1.1956  1.0664  0.5379
    7SOL    HW2   21   2.672   1.266   1.274 -2.3544 -2.7223 -1.0102
    8SOL     OW   22   1.452   2.526   1.339 -0.1006 -0.6327 -0.6024
    8SOL    HW1   23   1.549   2.521   1.365 -0.7768 -0.8472  0.1860
    8SOL    HW2   24   1.407   2.440   1.372 -1.3881 -1.0575  2.6999
    9SOL     OW   25   1.364   2.921   2.349  0.1178 -0.1674  0.1940
    9SOL    HW1   26   1.390   2.892   2.443  3.2352  1.2863 -0.8023
    9SOL    HW2   27   1.421   2.881   2.271 -1.9056  0.4396 -0.8159
   10SOL     OW   28   0.695   2.179   1.273 -0.1181  0.0241 -0.5303
   10SOL    HW1   29   0.747   2.090   1.272  3.6109 -2.8785 -1.0193
   10SOL    HW2   30   0.752   2.263   1.269 -0.1925  1.9775 -0.6165
   11SOL     OW   31   2.111   1.567   1.071 -0.0481  0.4209 -0.0364
   11SOL    HW1   32   2.100   1.635   0.998  0.3353 -1.4373 -0.7054
   11SOL    HW2   33   2.121   1.601   1.165 -0.9202 -3.8845  2.6576
   12SOL     OW   34   2.324   2.734   1.611  0.0026  0.3373 -0.2965
   12SOL    HW1   35   2.405   2.678   1.634  0.5459  3.2960  1.5322
   12SOL    HW2   36   2.296   2.792   1.696  0.2944  1.2760  1.0533
   13SOL     OW   37   2.211   2.918   0.303 -0.0473 -0.3506  0.4588
   13SOL    HW1   38   2.207   2.850   0.373 -0.3874  0.6994 -0.3067
   13SOL    HW2   39   2.288   2.911   0.236  0.6647  4.0098 -0.0745
   14SOL     OW   40   1.626   2.372   0.722  0.0378  0.3037 -0.3764
   14SOL    HW1   41   1.527   2.384   0.710 -0.6396  1.2127 -1.5585
   14SOL    HW2   42   1.657   2.277   0.699  1.6861 -0.8465  2.5085
   15SOL     OW   43   3.045   1.858   1.911 -0.6502 -0.7765  0.3095
   15SOL    HW1   44   0.008   1.933   1.943  1.9155 -0.9964 -1.5860
   15SOL    HW2   45   2.991   1.826   1.993  0.9520 -0.6528 -1.4915
   16SOL     OW   46   1.999   2.619   0.658 -0.2841  0.0131  0.0420
   16SOL    HW1   47   1.956   2.703   0.616 -1.5596 -0.0023 -1.8219
   16SOL    HW2   48   2.028   2.630   0.754 -1.5295 -0.1471 -1.4639
   17SOL     OW   49   0.754   0.178   0.963  0.0042  0.1799 -0.1057
   17SOL    HW1   50   0.769   0.248   1.041  1.3045  1.3982 -1.3210
   17SOL    HW2   51   0.677   0.119   0.986 -0.3187  1.7210 -0.6914
   18SOL     OW   52   1.653   1.218   3.039  0.4401  0.1992 -0.2596
   18SOL    HW1   53   1.597   1.226   0.025 -0.4512 -2.1025 -0.6991
   18SOL    HW2   54   1.658   1.120   3.009  0.0417 -0.0831 -3.1363
   19SOL     OW   55   1.830   1.961   0.266 -0.0602  0.1567  0.2020
   19SOL    HW1   56   1.896   2.021   0.316  0.2097  1.4246 -0.0903
   19SOL    HW2   57   1.870   1.865   0.253  0.0489 -2.2865 -0.6583
   20SOL     OW   58   2.627   1.822   2.228 -0.1867 -0.1060  0.2745
   20SOL    HW1   59   2.526   1.827   2.223  1.5863 -2.3390 -0.8715
   20SOL    HW2   60   2.667   1.915   2.222  0.9282  0.4481 -3.0846
   21SOL     OW   61   1.598   1.167   0.627  0.0073 -0.0580 -0.4955
   21SOL    HW1   62   1.508   1.214   0.604  0.8761 -2.4275  1.7169
   21SOL    HW2   63   1.607   1.089   0.563 -0.9222  2.3090  0.7277
   22SOL     OW   64   2.082   3.015   1.439  0.1898 -0.9387  0.5119
   22SOL    HW1   65   2.035   3.016   1.538 -2.4777  3.7617  3.3040
   22SOL    HW2   66   2.017   3.030   1.361 -0.0233 -0.9454 -0.0125
   23SOL     OW   67   3.005   0.616   1.868 -0.2493 -0.2856 -0.0881
   23SOL    HW1   68   2.903   0.598   1.877  2.0511 -0.9463  2.3314
   23SOL    HW2   69   3.018   0.680   1.790  0.1285  0.8552 -1.1817
   24SOL     OW   70   2.423   2.549   0.398 -0.4008  0.2432  0.7686
   24SOL    HW1   71   2.336   2.589   0.430 -0.8602 -0.2828 -1.0162
   24SOL    HW2   72   2.505   2.583   0.446 -0.2916 -1.0435  1.1996
   25SOL     OW   73   1.137   3.067   2.328 -0.0900  0.4696  0.4227
   25SOL    HW1   74   1.123   0.029   2.413 -1.6128 -0.4758  0.5972
   25SOL    HW2   75   1.218   3.005   2.343 -0.0913  1.1003  1.2264
   26SOL     OW   76   1.653   2.321   0.430  0.4002 -0.3027 -0.2975
   26SOL    HW1   77   1.731   2.327   0.496  2.6595  0.1741  0.5323
   26SOL    HW2   78   1.624   2.228   0.414 -1.3618 -1.3721  1.6907
   27SOL     OW   79   2.265   1.618   0.152  0.0449  0.2599 -0.1277
   27SOL    HW1   80   2.239   1.714   0.164 -1.3131 -0.7802 -1.4623
   27SOL    HW2   81   2.349   1.598   0.098  0.3328 -0.0955  1.8922
   28SOL     OW   82   0.722   1.621   1.610  0.8294 -0.1984 -0.2474
   28SOL    HW1   83   0.785   1.576   1.677 -2.1223  1.0073 -0.9900
   28SOL    HW2   84   0.763   1.624   1.516 -0.2326 -0.7459 -0.5347
   29SOL     OW   85   2.315   2.336   1.496  0.6567 -0.3425  0.1459
   29SOL    HW1   86   2.307   2.268   1.420 -0.8633  0.1869 -1.8680
   29SOL    HW2   87   2.247   2.413   1.487 -1.9175  0.6290 -0.8123
   30SOL     OW   88   1.501   0.475   0.887  0.2219 -0.0059  0.2502
   30SOL    HW1   89   1.436   0.483   0.806  0.9060  2.2382 -2.0582
   30SOL    HW2   90   1.508   0.568   0.929  0.7265 -1.7659  3.9127
   31SOL     OW   91   1.894   2.792   1.854 -0.0391  0.2843 -0.2247
   31SOL    HW1   92   1.819   2.779   1.923  1.7298 -1.8451 -0.2729
   31SOL    HW2   93   1.966   2.717   1.854  2.4265 -0.4332 -0.9217
   32SOL     OW   94   0.981   1.857   0.817  0.0217  0.4760  0.6374
   32SOL    HW1   95   0.929   1.915   0.887  1.2582  0.8901 -0.2003
   32SOL    HW2   96   1.003   1.916   0.733  1.0631  3.2297 -0.7764
   33SOL     OW   97   0.291   0.406   2.548  0.4216  0.2095  0.2431
   33SOL    HW1   98   0.292   0.306   2.579  0.6405  0.5659 -0.0073
   33SOL    HW2   99   0.232   0.425   2.467 -0.1843  2.0086  0.4885
   34SOL     OW  100   1.952   2.873   0.521  0.6364 -0.0532 -0.0303
   34SOL    HW1  101   1.997   2.929   0.595  2.1049  0.3867  0.2638
   34SOL    HW2  102   1.897   2.928   0.460  1.1275  0.4172  1.3220
   35SOL     OW  103   2.010   2.624   1.278  0.4257 -0.4152  0.2170
   35SOL    HW1  104   2.068   2.703   1.247 -1.0643 -0.5683  1.8997
   35SOL    HW2  105   1.917   2.655   1.289  2.0070  0.6738 -0.3227
   36SOL     OW  106   1.862   2.419   2.742  0.4115 -0.2194 -0.4342
   36SOL    HW1  107   1.854   2.321   2.768  1.4965  1.4469 -1.1256
   36SOL    HW2  108   1.948   2.436   2.685 -0.0764 -0.5247 -0.3757
   37SOL     OW  109   0.831   0.003   2.089 -0.1424  0.1484  0.5978
   37SOL    HW1  110   0.829   3.058   2.182 -1.5716 -2.8803  1.4639
   37SOL    HW2  111   0.924   0.042   2.064  1.0595  0.9192 -0.8252
   38SOL     OW  112   0.011   0.056   2.679 -0.3267  0.1370  0.2195
   38SOL    HW1  113   3.025   0.004   2.667  0.3413 -0.6048 -0.7678
   38SOL    HW2  114   0.043   0.084   2.588  1.7659  0.1962  2.1689
   39SOL     OW  115   2.270   0.957   1.550  0.1427  0.4309 -0.5849
   39SOL    HW1  116   2.229   0.932   1.638 -1.5516  0.1687 -0.1956
   39SOL    HW2  117   2.270   1.055   1.544  0.8091 -2.3397  0.7357
   40SOL     OW  118   1.238   2.753   3.054  0.3819 -0.2189  0.3933
   40SOL    HW1  119   1.173   2.769   2.979  1.3673  2.5943  1.7036
   40SOL    HW2  120   1.317   2.817   3.046 -0.0483 -1.8979  0.5039
   41SOL     OW  121   2.485   1.515   1.078 -0.1338 -0.1663 -0.1126
   41SOL    HW1  122   2.418   1.454   1.126 -0.3538  0.7975 -1.5254
   41SOL    HW2  123   2.542   1.467   1.009  0.9007  1.7242  1.3704
   42SOL     OW  124   0.750   0.372   1.153 -1.0038 -0.5237  0.1462
   42SOL    HW1  125   0.719   0.364   1.251  0.9647  0.7614  0.4231
   42SOL    HW2  126   0.725   0.466   1.120  2.6977 -2.2864 -1.4056
   43SOL     OW  127   2.770   1.682   2.417 -0.0371  0.0062 -0.1123
   43SOL    HW1  128   2.717   1.709   2.499  3.5671 -0.6799  0.1735
   43SOL    HW2  129   2.731   1.731   2.335 -0.7726 -0.4525 -1.2829
   44SOL     OW  130   2.460   0.226   1.837  0.7494 -0.2705  0.4115
   44SOL    HW1  131   2.502   0.150   1.789  0.5087 -0.8215  0.3475
   44SOL    HW2  132   2.477   0.228   1.934  0.5251 -0.2596  1.2742
   45SOL     OW  133   0.733   2.955   1.871 -0.0765 -0.2257  0.2281
   45SOL    HW1  134   0.636   2.919   1.865 -1.1855  2.6439  2.2959
   45SOL    HW2  135   0.739   3.015   1.951  0.0530 -0.8565  2.2742
   46SOL     OW  136   1.336   2.811   2.596  0.2612 -0.0806  0.6417
   46SOL    HW1  137   1.321   2.716   2.628  1.9208 -1.0719  1.7630
   46SOL    HW2  138   1.288   2.877   2.657 -0.8915  2.1363  1.4510
   47SOL     OW  139   1.781   1.683   0.527  0.4775  0.3165 -0.9739
   47SOL    HW1  140   1.720   1.761   0.555 -0.6155 -0.8651  1.0183
   47SOL    HW2  141   1.745   1.593   0.562  2.5878 -0.2728  1.0912
   48SOL     OW  142   0.964   2.248   0.664  0.4121  0.2906 -0.5470
   48SOL    HW1  143   0.912   2.313   0.605 -2.0973 -0.7503  0.0888
   48SOL    HW2  144   0.926   2.154   0.658 -3.4368  2.1575  1.1958
   49SOL     OW  145   2.231   2.819   2.501  0.0874  0.2489 -0.2738
   49SOL    HW1  146   2.299   2.755   2.470 -2.3531  1.9237  0.2113
   49SOL    HW2  147   2.250   2.833   2.599  0.5223  1.6720 -1.3239
   50SOL     OW  148   1.656   0.081   0.156 -0.0799 -0.4324  0.2274
   50SOL    HW1  149   1.653   0.173   0.202 -0.8182  2.4179 -0.7635
   50SOL    HW2  150   1.582   0.082   0.084 -2.5764 -0.2674  1.3055
   51SOL     OW  151   2.148   0.822   0.674 -0.2318  0.5601 -0.4545
   51SOL    HW1  152   2.141   0.904   0.735  1.2574 -2.6219 -0.1822
   51SOL    HW2  153   2.147   0.741   0.730 -0.1999 -0.3576  0.8621
   52SOL     OW  154   1.276   1.657   1.066 -0.0854  0.0938  0.3698
   52SOL    HW1  155   1.363   1.631   1.102 -2.4347 -1.5644 -1.0398
   52SOL    HW2  156   1.201   1.615   1.118 -0.2303  0.9789  0.6369
   53SOL     OW  157   1.000   1.585   2.444  0.4439 -0.4536  0.1073
   53SOL    HW1  158   0.988   1.623   2.350 -0.8155  1.0113  0.2340
   53SOL    HW2  159   0.966   1.650   2.517 -2.1055  1.2904  0.4181
   54SOL     OW  160   2.630   0.563   1.416 -0.2433  0.1968 -0.2161
   54SOL    HW1  161   2.666   0.557   1.511 -0.1515  2.6047  1.0576
   54SOL    HW2  162   2.544   0.504   1.397 -2.4517 -0.0441 -1.0281
   55SOL     OW  163   2.739   2.048   0.796  0.4596 -0.3945  0.0038
   55SOL    HW1  164   2.745   1.953   0.834 -1.9731  0.6668 -0.3598
   55SOL    HW2  165   2.647   2.082   0.772  2.7040  1.0376  1.3229
   56SOL     OW  166   1.050   0.425   2.219 -0.4639 -0.2243 -0.3437
   56SOL    HW1  167   1.136   0.390   2.258  0.6545 -0.3679  1.4759
   56SOL    HW2  168   1.056   0.411   2.122 -0.8626  0.5071  1.0125
   57SOL     OW  169   1.221   1.306   2.980 -0.3173  0.3322  1.1398
   57SOL    HW1  170   1.233   1.407   2.967 -1.1857 -1.9746  2.7461
   57SOL    HW2  171   1.271   1.254   2.904 -1.7933 -0.5197 -1.8924
   58SOL     OW  172   0.186   0.691   1.564  0.0498 -0.4337  0.2671
   58SOL    HW1  173   0.130   0.756   1.621  1.5883  0.0061  1.6598
   58SOL    HW2  174   0.275   0.681   1.611 -4.2853  1.6321 -0.7271
   59SOL     OW  175   1.435   2.941   3.000  0.3515 -0.5176 -0.0082
   59SOL    HW1  176   1.520   2.941   2.944 -2.3470  0.2628 -2.1811
   59SOL    HW2  177   1.399   3.036   3.017  1.7247  0.9825  3.0567
   60SOL     OW  178   0.071   1.888   0.415  0.1050  0.3172 -0.3855
   60SOL    HW1  179   3.087   1.946   0.409  0.3825 -1.8795 -0.5893
   60SOL    HW2  180   0.064   1.794   0.375  0.8372  2.0648  0.9565
   61SOL     OW  181   1.147   3.051   0.783 -0.2820 -0.0522  0.3788
   61SOL    HW1  182   1.236   3.028   0.735  4.5344 -0.9864  0.8796
   61SOL    HW2  183   1.094   2.971   0.824 -3.7081  1.5867  0.6357
   62SOL     OW  184   2.033   1.901   2.658  0.2708 -0.3222  0.5679
   62SOL    HW1  185   2.084   1.812   2.632  0.3117 -1.0678  1.1322
   62SOL    HW2  186   2.073   1.985   2.622 -2.0852 -1.3523  1.4412
   63SOL     OW  187   2.390   2.493   0.729  0.3528 -0.4131  0.1794
   63SOL    HW1  188   2.384   2.552   0.647 -1.6203 -0.3092 -0.1361
   63SOL    HW2  189   2.477   2.435   0.728 -0.0437  1.8534 -1.8331
   64SOL     OW  190   1.663   0.969   2.458 -0.0413  0.6767 -0.6148
   64SOL    HW1  191   1.643   1.049   2.391 -3.3184  2.1906  1.9998
   64SOL    HW2  192   1.589   0.899   2.448  1.6121  0.0209 -0.8664
   65SOL     OW  193   1.809   1.621   2.444 -0.6303  0.7362  0.2550
   65SOL    HW1  194   1.801   1.570   2.534  0.5394  0.1753  3.3986
   65SOL    HW2  195   1.722   1.647   2.401  1.4416 -2.5695  0.7976
   66SOL     OW  196   0.433   0.754   1.694  0.6233  0.2792 -1.0158
   66SOL    HW1  197   0.425   0.844   1.650 -1.1775  0.4090 -0.4922
   66SOL    HW2  198   0.521   0.752   1.746 -1.9216 -1.2726 -2.8534
   67SOL     OW  199   2.276   2.858   2.761 -0.1161  0.2736 -0.0306
   67SOL    HW1  200   2.247   2.848   2.861  1.9645  2.0681  1.3711
   67SOL    HW2  201   2.342   2.935   2.757  0.1146 -1.7414 -0.8625
   68SOL     OW  202   1.352   2.946   1.265 -0.0714 -0.4417  0.7365
   68SOL    HW1  203   1.256   2.983   1.284 -1.5537 -1.2972  0.4134
   68SOL    HW2  204   1.352   2.910   1.168 -2.6185  3.5736 -1.6955
   69SOL     OW  205   0.586   2.677   0.209  0.7074 -0.1283 -0.3220
   69SOL    HW1  206   0.642   2.671   0.124 -1.2380 -1.1408 -0.8361
   69SOL    HW2  207   0.523   2.593   0.217 -2.5040 -1.2775  1.7930
   70SOL     OW  208   2.361   0.211   2.484  0.0238  0.1217 -0.7442
   70SOL    HW1  209   2.348   0.215   2.585  0.0136 -1.3961  1.2371
   70SOL    HW2  210   2.325   0.126   2.445 -0.7838  0.6641  1.6763
   71SOL     OW  211   0.686   1.214   2.453  0.1120 -0.6142  0.3629
   71SOL    HW1  212   0.636   1.233   2.539 -2.7095  0.7873  1.1923
   71SOL    HW2  213   0.711   1.292   2.393  1.8853 -3.1762 -0.9029
   72SOL     OW  214   2.991   1.972   0.089  0.6815 -0.7960  0.0146
   72SOL    HW1  215   2.993   1.875   0.115  0.7064  3.3301 -2.9964
   72SOL    HW2  216   2.902   1.995   0.042  0.1839  2.2860  0.5333
   73SOL     OW  217   1.374   1.277   0.491 -0.1865 -0.3279  0.3157
   73SOL    HW1  218   1.450   1.327   0.447  1.2063 -0.8435 -0.1038
   73SOL    HW2  219   1.286   1.299   0.440  2.7142 -1.6937 -0.6089
   74SOL     OW  220   2.281   2.554   2.692  0.5136 -0.2593  0.2384
   74SOL    HW1  221   2.247   2.478   2.747  3.0576  1.8665 -3.1885
   74SOL    HW2  222   2.290   2.639   2.751 -2.2566  1.1303 -0.2614
   75SOL     OW  223   2.346   1.877   0.760  0.4233 -0.5587  0.1864
   75SOL    HW1  224   2.295   1.913   0.682 -0.0157  0.6393  1.2257
   75SOL    HW2  225   2.369   1.954   0.821 -1.0013 -1.2078 -0.2838
   76SOL     OW  226   1.941   2.349   1.536  0.5863 -0.0375  0.3333
   76SOL    HW1  227   2.009   2.422   1.538 -0.3966 -2.0047 -1.0998
   76SOL    HW2  228   1.939   2.305   1.627 -0.4335  1.6678 -2.6181
   77SOL     OW  229   2.304   3.017   2.125 -0.2363 -0.5273  0.4029
   77SOL    HW1  230   2.212   3.024   2.082 -0.2559  2.1700  1.2546
   77SOL    HW2  231   2.384   3.012   2.055  3.3963  1.8866 -0.8950
   78SOL     OW  232   1.637   0.901   2.979  0.0648 -0.1200  0.2332
   78SOL    HW1  233   1.545   0.856   2.995 -1.6526  1.7290  0.9882
   78SOL    HW2  234   1.703   0.834   2.941  0.9942  0.6244 -2.3057
   79SOL     OW  235   2.463   1.513   2.549 -0.5219  0.2610 -0.4366
   79SOL    HW1  236   2.543   1.477   2.499 -0.4276 -0.5823 -1.3117
   79SOL    HW2  237   2.478   1.606   2.588  2.0473 -0.2706 -0.4345
   80SOL     OW  238   1.978   1.525   1.570 -0.3303  0.2466 -0.1470
   80SOL    HW1  239   2.061   1.573   1.607  1.0350  0.8521 -1.9431
   80SOL    HW2  240   1.953   1.440   1.624  0.4704 -2.1803  5.3437
   81SOL     OW  241   1.471   0.487   1.317 -0.0275  0.0056 -0.1032
   81SOL    HW1  242   1.374   0.500   1.314 -0.2869 -1.0378  1.2859
   81SOL    HW2  243   1.496   0.414   1.248 -0.9965 -0.8353  0.8549
   82SOL     OW  244   1.716   2.289   1.748  0.7240 -0.1948 -0.7619
   82SOL    HW1  245   1.782   2.267   1.823  1.1100 -1.1468 -0.3493
   82SOL    HW2  246   1.652   2.369   1.769 -0.5430  3.0096 -1.8030
   83SOL     OW  247   0.162   0.035   0.490 -0.0380 -0.2000  0.5435
   83SOL    HW1  248   0.246   0.057   0.433  0.7874  2.0787 -0.5161
   83SOL    HW2  249   0.077   0.081   0.452 -0.0206  1.6267 -3.5021
   84SOL     OW  250   0.772   1.066   0.304 -0.2289  0.1125 -0.3314
   84SOL    HW1  251   0.809   1.095   0.214 -1.6445 -0.7092 -1.8642
   84SOL    HW2  252   0.735   0.972   0.293 -3.0387  0.4455  1.4684
   85SOL     OW  253   2.750   2.030   1.576  0.4229 -0.2414 -0.0705
   85SOL    HW1  254   2.786   2.110   1.627  0.2632  0.2308  2.2583
   85SOL    HW2  255   2.775   1.941   1.629  0.0524  2.3754  1.7525
   86SOL     OW  256   0.092   2.808   1.438  0.3588 -0.3840  0.1805
   86SOL    HW1  257   0.118   2.711   1.449 -0.8512 -0.1620 -1.1598
   86SOL    HW2  258   0.142   2.859   1.508 -1.0422 -1.5735 -0.3505
   87SOL     OW  259   0.579   0.246   2.242  0.4172  0.7110 -0.1650
   87SOL    HW1  260   0.652   0.316   2.246 -0.7484 -2.1866  2.7970
   87SOL    HW2  261   0.571   0.205   2.336  0.9423 -0.6119  0.8162
   88SOL     OW  262   0.384   2.069   1.025  0.1672  0.8582  0.0685
   88SOL    HW1  263   0.370   2.168   1.026  1.2932 -1.6459  0.5009
   88SOL    HW2  264   0.419   2.044   0.933 -2.1830  2.2571  2.3440
   89SOL     OW  265   0.975   0.735   1.615 -0.2262  0.6563  0.3173
   89SOL    HW1  266   1.076   0.727   1.607 -0.8745 -1.0472  3.1796
   89SOL    HW2  267   0.927   0.642   1.607 -1.9846 -3.7027 -1.2368
   90SOL     OW  268   2.758   0.863   1.599 -0.4254 -0.3507  0.1087
   90SOL    HW1  269   2.823   0.887   1.529 -3.0382 -1.9093  1.6937
   90SOL    HW2  270   2.772   0.919   1.685 -0.5848  1.5145  1.1126
   91SOL     OW  271   1.400   1.029   1.123  0.3719  0.1951  0.6976
   91SOL    HW1  272   1.368   0.950   1.066 -0.5692 -0.4637 -0.3323
   91SOL    HW2  273   1.477   1.076   1.082 -3.2990 -1.2924  1.3058
   92SOL     OW  274   2.479   1.166   1.016  0.1234  0.1630  0.0844
   92SOL    HW1  275   2.544   1.221   0.963 -0.3075 -1.3370 -1.8814
   92SOL    HW2  276   2.393   1.162   0.966 -0.8595  0.1173  0.5204
   93SOL     OW  277   2.443   0.644   2.551  0.2456 -1.1751 -0.2302
   93SOL    HW1  278   2.479   0.639   2.455 -1.7368  1.8040  1.0565
   93SOL    HW2  279   2.362   0.710   2.564  0.2005 -0.5021 -1.1780
   94SOL     OW  280   2.384   1.887   2.509 -0.3452  0.1604  0.2450
   94SOL    HW1  281   2.411   1.912   2.409 -1.1213  4.4683  0.3600
   94SOL    HW2  282   2.305   1.945   2.542  1.9914  2.4055  0.2140
   95SOL     OW  283   2.198   0.599   1.056 -0.3666  0.5319  0.0385
   95SOL    HW1  284   2.162   0.506   1.083  2.1056 -0.2426  0.1257
   95SOL    HW2  285   2.294   0.603   1.094 -1.5273 -0.4542  0.9309
   96SOL     OW  286   2.504   2.969   1.899  0.3471  0.0511 -0.6705
   96SOL    HW1  287   2.419   2.905   1.888 -3.4092 -3.7906  1.7631
   96SOL    HW2  288   2.514   3.036   1.823 -0.9493  0.8248  0.5149
   97SOL     OW  289   2.690   0.925   1.240  0.1152  1.2247  0.5664
   97SOL    HW1  290   2.777   0.970   1.263  0.4341  0.5463  0.0089
   97SOL    HW2  291   2.627   0.926   1.321  0.0787 -0.9375 -3.0762
   98SOL     OW  292   1.540   2.106   1.684 -0.0412  0.0856  0.1715
   98SOL    HW1  293   1.581   2.104   1.591  0.3916  1.8929  2.9445
   98SOL    HW2  294   1.586   2.183   1.735  1.0189 -2.6822 -0.3538
   99SOL     OW  295   2.465   2.320   1.737 -0.1154  0.4283  0.0125
   99SOL    HW1  296   2.447   2.230   1.783 -1.1770  0.8297 -0.8200
   99SOL    HW2  297   2.423   2.310   1.643 -0.3015 -0.8350 -1.1987
  100SOL     OW  298   0.958   0.780   2.796 -0.2319 -0.3180 -0.2078
  100SOL    HW1  299   0.860   0.807   2.814 -2.3101  1.4910  0.0784
  100SOL    HW2  300   1.030   0.846   2.816 -0.2617 -2.4447 -0.7880
  101SOL     OW  301   2.166   0.242   2.944 -0.2567  0.2377 -0.5716
  101SOL    HW1  302   2.087   0.217   2.882 -1.5325 -1.7125 -1.2792
  101SOL    HW2  303   2.149   0.334   2.982  0.5890 -1.3942  2.6396
  102SOL     OW  304   0.411   0.474   1.621 -0.6909  0.3560  0.1144
  102SOL    HW1  305   0.440   0.568   1.637  1.4306 -1.2649 -0.6077
  102SOL    HW2  306   0.385   0.426   1.705  0.9832  0.9797 -1.0847
  103SOL     OW  307   0.243   0.575   2.960  0.7000  0.8778 -0.0380
  103SOL    HW1  308   0.333   0.610   2.946 -0.4919 -0.2740  1.0533
  103SOL    HW2  309   0.184   0.578   2.874 -1.7978 -4.3017  0.8522
  104SOL     OW  310   0.762   0.430   2.628 -0.3697 -0.2549  0.0423
  104SOL    HW1  311   0.851   0.479   2.632 -1.0521  2.2088  0.5329
  104SOL    HW2  312   0.764   0.344   2.681  2.2760  1.1847 -1.1401
  105SOL     OW  313   2.398   1.793   1.853 -0.2086 -0.2419 -0.0440
  105SOL    HW1  314   2.394   1.711   1.915  0.1569 -0.5580  1.0904
  105SOL    HW2  315   2.487   1.842   1.878 -0.7305  1.4382  2.0861
  106SOL     OW  316   1.914   0.637   0.457 -0.5798  0.6236 -0.5121
  106SOL    HW1  317   1.902   0.590   0.544  0.9036  0.6544  1.0741
  106SOL    HW2  318   1.988   0.586   0.403  3.6431  0.5646 -0.4117
  107SOL     OW  319   2.967   1.763   0.978  0.0155  0.1568 -0.4770
  107SOL    HW1  320   2.997   1.807   1.065 -0.7048 -1.8928 -2.6035
  107SOL    HW2  321   3.047   1.749   0.919 -0.4155  0.0700  0.6793
  108SOL     OW  322   2.561   2.640   1.678 -0.3001  0.0732  0.3639
  108SOL    HW1  323   2.611   2.692   1.749 -5.2225  0.5825  1.1566
  108SOL    HW2  324   2.576   2.540   1.683  0.5054 -1.5246  0.2542
  109SOL     OW  325   2.127   2.557   0.931 -0.7713  0.3598  0.0857
  109SOL    HW1  326   2.169   2.477   0.888 -1.4825  1.2884  2.7593
  109SOL    HW2  327   2.065   2.541   1.008  0.5526  1.9594  0.6823
  110SOL     OW  328   0.611   1.836   2.389 -0.6634 -0.4294 -0.2396
  110SOL    HW1  329   0.527   1.856   2.440  0.7366  0.7175 -0.8449
  110SOL    HW2  330   0.654   1.926   2.362  1.5173 -0.7429  1.6990
  111SOL     OW  331   1.656   2.063   2.311 -0.1353  0.0547  0.2054
  111SOL    HW1  332   1.566   2.052   2.257  0.1914  1.6734 -1.6276
  111SOL    HW2  333   1.718   1.982   2.293 -3.1288 -0.6567  1.3018
  112SOL     OW  334   2.118   1.919   0.004  0.3770 -0.4126  0.0162
  112SOL    HW1  335   2.146   1.912   0.102  1.0592  0.0114 -0.7856
  112SOL    HW2  336   2.109   2.011   3.056  0.7280 -2.0096 -2.4073
  113SOL     OW  337   1.541   2.080   1.390  0.3263 -0.5898 -0.0143
  113SOL    HW1  338   1.478   2.012   1.341  2.1054  0.7737 -0.9584
  113SOL    HW2  339   1.631   2.043   1.409  1.5882  3.3950 -2.2658
  114SOL     OW  340   2.812   1.085   0.716 -0.0137  0.4053  0.4810
  114SOL    HW1  341   2.901   1.073   0.669  0.7126  0.6802  2.9892
  114SOL    HW2  342   2.752   1.156   0.681 -0.0116 -0.3861 -0.0663
  115SOL     OW  343   0.784   0.594   0.164 -0.0663  0.0034  0.1893
  115SOL    HW1  344   0.764   0.690   0.194  2.4022 -1.6384 -1.6366
  115SOL    HW2  345   0.754   0.529   0.237  0.6636 -1.1136 -1.9354
  116SOL     OW  346   2.683   1.426   2.359 -0.3796 -0.0885 -0.9629
  116SOL    HW1  347   2.739   1.356   2.415  0.5756 -2.1177  0.3804
  116SOL    HW2  348   2.712   1.519   2.384  1.0607 -0.7974 -1.2004
  117SOL     OW  349   0.224   3.088   0.787 -0.1061  0.3382 -0.4928
  117SOL    HW1  350   0.198   0.014   0.694  3.2311  0.7434 -0.5488
  117SOL    HW2  351   0.238   2.984   0.794 -1.4568 -0.7072  0.4881
  118SOL     OW  352   0.939   1.743   2.656  1.1880  0.0875  0.0955
  118SOL    HW1  353   1.007   1.754   2.730  1.4151  1.7992 -0.0770
  118SOL    HW2  354   0.849   1.710   2.689 -0.2448 -0.7104 -0.3423
  119SOL     OW  355   0.433   2.454   0.236 -0.3029 -0.0145 -0.6116
  119SOL    HW1  356   0.428   2.448   0.337  0.2281  0.2473  2.3614
  119SOL    HW2  357   0.355   2.506   0.185 -5.7795 -0.6616 -3.1682
  120SOL     OW  358   1.402   0.764   3.041  0.0665 -0.0134 -0.7024
  120SOL    HW1  359   1.395   0.757   2.940  1.6886 -2.8780 -1.6365
  120SOL    HW2  360   1.314   0.789   3.083  1.6568  2.8900  0.9529
  121SOL     OW  361   1.427   2.735   0.776 -0.2031  0.4874 -0.3975
  121SOL    HW1  362   1.381   2.644   0.764  0.2003 -0.1932  1.2331
  121SOL    HW2  363   1.526   2.724   0.792  1.2167 -0.4113  0.0053
  122SOL     OW  364   2.138   2.562   1.519  0.2655  0.4704  0.0897
  122SOL    HW1  365   2.197   2.633   1.561  0.1795  0.8792 -0.6873
  122SOL    HW2  366   2.093   2.599   1.430  2.3670  0.8232  1.7635
  123SOL     OW  367   0.561   2.228   0.660  0.5041 -0.0142 -0.5185
  123SOL    HW1  368   0.557   2.280   0.752  1.2069  2.4882  2.3456
  123SOL    HW2  369   0.481   2.266   0.603  1.4480 -0.8785 -2.4169
  124SOL     OW  370   2.446   0.568   0.208  0.5964 -0.2453 -0.8031
  124SOL    HW1  371   2.387   0.488   0.219  2.0883  3.8404 -1.2674
  124SOL    HW2  372   2.531   0.544   0.159  0.9053  0.6437  0.7465
  125SOL     OW  373   0.525   1.158   0.402 -0.0601  0.0273  0.6717
  125SOL    HW1  374   0.522   1.089   0.481  1.1022 -0.1859 -0.0448
  125SOL    HW2  375   0.611   1.146   0.346 -2.7062  2.1353 -1.3907
  126SOL     OW  376   0.168   1.653   1.066 -0.2044  0.4554  0.0938
  126SOL    HW1  377   0.267   1.629   1.049  0.8129 -0.7764  0.0692
  126SOL    HW2  378   0.168   1.743   1.118 -1.3619  2.3551  2.3012
  127SOL     OW  379   1.056   1.908   2.319  0.0226 -0.1708 -0.9107
  127SOL    HW1  380   1.046   1.812   2.290  2.0449 -0.5643  2.5334
  127SOL    HW2  381   1.071   1.918   2.418  2.1573  0.0409 -0.6598
  128SOL     OW  382   0.954   1.125   0.082  0.0468 -0.5977 -0.5782
  128SOL    HW1  383   0.934   1.220   0.053  0.1386  4.3406  1.8631
  128SOL    HW2  384   1.054   1.115   0.105 -0.5157  0.5783 -1.6615
  129SOL     OW  385   2.361   1.343   0.593 -0.1143  0.0155 -0.2115
  129SOL    HW1  386   2.368   1.447   0.605 -0.8970  3.6473  2.1741
  129SOL    HW2  387   2.312   1.309   0.677 -0.4611  2.4063  1.5232
  130SOL     OW  388   2.492   1.610   1.400 -0.1975  0.0261  0.1523
  130SOL    HW1  389   2.575   1.638   1.344 -3.3981  1.4306 -1.7703
  130SOL    HW2  390   2.441   1.546   1.341  0.8475  1.1505  0.8386
  131SOL     OW  391   3.036   2.871   2.922 -0.5552  0.2726 -0.0872
  131SOL    HW1  392   2.974   2.943   2.968  1.9868  3.0128  1.5275
  131SOL    HW2  393   0.023   2.913   2.889  0.6711  0.8519 -2.2641
  132SOL     OW  394   0.443   1.518   0.696  0.1916 -0.4485 -0.0685
  132SOL    HW1  395   0.541   1.491   0.688  2.3157  0.6998  1.1070
  132SOL    HW2  396   0.384   1.497   0.618  1.7213 -0.9185  1.3937
  133SOL     OW  397   0.765   0.420   1.646  0.2504 -0.0260  0.3328
  133SOL    HW1  398   0.775   0.436   1.746 -0.4186 -2.3273 -1.2625
  133SOL    HW2  399   0.826   0.344   1.608 -0.3396  0.8507 -0.9230
  134SOL     OW  400   0.297   1.790   2.849  0.4458 -0.4411 -0.1542
  134SOL    HW1  401   0.202   1.761   2.842  2.9471  0.1496 -0.9650
  134SOL    HW2  402   0.322   1.808   2.947 -0.9636 -0.3332  0.7148
  135SOL     OW  403   1.574   0.527   1.574  0.3313 -0.6073 -0.1400
  135SOL    HW1  404   1.542   0.524   1.477  2.8413 -1.5877  1.5487
  135SOL    HW2  405   1.505   0.575   1.631 -2.4616 -1.0435  1.5267
  136SOL     OW  406   0.080   1.348   0.244  0.0210  0.0337  0.3667
  136SOL    HW1  407   0.148   1.292   0.293 -1.6882  0.2664 -0.4905
  136SOL    HW2  408   3.093   1.351   0.305  0.2495  1.5311  0.7971
  137SOL     OW  409   0.051   1.238   0.958 -0.0693  0.1734 -0.3052
  137SOL    HW1  410   0.069   1.251   0.860  0.6792 -2.3281  0.1352
  137SOL    HW2  411   0.035   1.326   1.002  4.2776  1.5617 -1.3853
  138SOL     OW  412   1.930   0.786   1.041 -0.3416  0.3074  0.3578
  138SOL    HW1  413   1.993   0.714   1.083 -0.1469 -2.7748 -0.2779
  138SOL    HW2  414   1.870   0.821   1.114 -1.4907  0.9171 -1.5121
  139SOL     OW  415   1.517   2.527   0.294  0.0640 -0.1222  0.0686
  139SOL    HW1  416   1.422   2.502   0.321 -1.1431  0.7602 -2.1355
  139SOL    HW2  417   1.582   2.453   0.317  1.2288 -1.8060 -3.0644
  140SOL     OW  418   1.281   1.612   1.656 -0.3488  0.1334  0.2635
  140SOL    HW1  419   1.204   1.671   1.648 -1.5731 -1.3413  1.1435
  140SOL    HW2  420   1.279   1.547   1.731  0.2271  1.8081 -1.4999
  141SOL     OW  421   1.580   2.047   0.400 -0.2106 -0.4654 -0.0793
  141SOL    HW1  422   1.651   2.031   0.330  0.1020  2.3219 -0.8518
  141SOL    HW2  423   1.579   1.978   0.475 -0.6703  2.2648 -0.8881
  142SOL     OW  424   1.039   0.590   3.017  0.4519  0.8250 -0.1487
  142SOL    HW1  425   1.128   0.583   2.967  1.5488 -0.5634  0.2793
  142SOL    HW2  426   0.963   0.627   2.963  1.6435 -1.5365  1.3122
  143SOL     OW  427   0.399   2.105   2.907 -0.3993  0.4921 -1.2029
  143SOL    HW1  428   0.311   2.081   2.956  1.1764  0.4654 -1.6743
  143SOL    HW2  429   0.474   2.053   2.948  0.7640 -0.2558 -1.0117
  144SOL     OW  430   1.613   2.900   1.392  0.6290  0.4296 -0.1020
  144SOL    HW1  431   1.524   2.919   1.350  0.2101 -1.6662  1.2801
  144SOL    HW2  432   1.676   2.979   1.388  0.6913  0.0172 -0.3128
  145SOL     OW  433   2.071   1.070   2.815  0.0967 -0.1564  0.0300
  145SOL    HW1  434   2.100   1.041   2.909  1.8692  0.2723  2.3110
  145SOL    HW2  435   2.003   1.146   2.820 -0.6884 -1.2093  0.4127
  146SOL     OW  436   0.013   2.647   0.990  0.2721  0.1326 -0.0667
  146SOL    HW1  437   0.026   2.732   1.044 -2.2554  0.9420  1.5171
  146SOL    HW2  438   3.093   2.670   0.890 -0.4680  1.3959 -0.9738
  147SOL     OW  439   2.215   0.032   1.857 -0.4860 -0.0267  0.3002
  147SOL    HW1  440   2.166   0.091   1.922  0.9747  1.6639 -0.4830
  147SOL    HW2  441   2.294   0.084   1.822 -0.3203  4.0738  0.6119
  148SOL     OW  442   0.791   2.689   2.047  0.6834 -0.3499 -0.4381
  148SOL    HW1  443   0.856   2.761   2.021 -0.3645 -1.9017 -0.1027
  148SOL    HW2  444   0.691   2.715   2.027 -2.1471 -1.4784 -2.4841
  149SOL     OW  445   1.857   0.239   2.487 -0.4822  1.1405  0.2755
  149SOL    HW1  446   1.763   0.273   2.464 -2.8586 -2.6084  1.0007
  149SOL    HW2  447   1.907   0.207   2.403 -2.6536  1.0461 -2.5270
  150SOL     OW  448   3.001   0.060   0.157 -0.0398 -0.0441 -0.1191
  150SOL    HW1  449   3.090   0.072   0.112 -4.6552  0.8949  1.5266
  150SOL    HW2  450   3.006   0.081   0.255  0.2717  3.3391  0.2742
  151SOL     OW  451   0.332   2.267   0.512 -0.2586 -0.0567 -0.0219
  151SOL    HW1  452   0.334   2.165   0.499  1.2069  2.0404 -1.5394
  151SOL    HW2  453   0.237   2.308   0.520 -0.2381  0.4692 -2.2255
  152SOL     OW  454   3.051   0.395   0.460  0.0282  0.4799  0.0073
  152SOL    HW1  455   0.003   0.436   0.543 -2.9262  2.0911  0.5877
  152SOL    HW2  456   2.964   0.445   0.447 -2.2252 -0.1795  1.4033
  153SOL     OW  457   2.460   0.562   1.134  0.4969 -0.2155  0.0146
  153SOL    HW1  458   2.420   0.489   1.197 -2.3405 -2.1697  2.4023
  153SOL    HW2  459   2.522   0.521   1.071 -2.6662  2.5106  0.1037
  154SOL     OW  460   0.790   0.399   2.307 -0.5477 -0.3659 -0.2080
  154SOL    HW1  461   0.793   0.395   2.410  1.7110 -2.8967  2.6515
  154SOL    HW2  462   0.887   0.417   2.269  2.2753 -0.8362 -1.7826
  155SOL     OW  463   0.573   1.899   1.112  0.1588  0.4362  0.2387
  155SOL    HW1  464   0.509   1.960   1.067  1.1453 -3.6243  0.7433
  155SOL    HW2  465   0.517   1.848   1.185 -2.4596 -2.2288 -0.9922
  156SOL     OW  466   2.376   2.030   0.104 -0.0255  0.2006  0.0768
  156SOL    HW1  467   2.280   2.062   0.127 -1.3649 -0.3786  2.7145
  156SOL    HW2  468   2.439   2.055   0.181 -0.3976 -1.1602  2.7543
  157SOL     OW  469   1.025   0.622   0.390 -0.6496  0.4082  0.3594
  157SOL    HW1  470   0.962   0.583   0.457 -4.2280  0.6223 -0.6950
  157SOL    HW2  471   0.983   0.644   0.301  0.1975 -3.6677  1.2048
  158SOL     OW  472   2.467   3.081   2.763  0.4055 -0.0378  0.3733
  158SOL    HW1  473   2.505   3.040   2.673 -2.1516  2.2665 -4.5742
  158SOL    HW2  474   2.450   0.082   2.749  0.2844 -3.3597  3.0077
  159SOL     OW  475   0.446   0.424   0.682 -0.3609  0.8837 -0.3011
  159SOL    HW1  476   0.417   0.413   0.586  1.1007  3.1956  3.7671
  159SOL    HW2  477   0.418   0.344   0.735 -1.0930 -0.0233 -1.5079
  160SOL     OW  478   1.315   1.624   2.459  0.2847 -0.9636 -0.0886
  160SOL    HW1  479   1.219   1.618   2.489 -0.3415 -0.8969  1.4827
  160SOL    HW2  480   1.355   1.716   2.468 -0.4549  3.7276 -1.2388
  161SOL     OW  481   0.025   1.293   2.572 -0.1025 -0.5170 -0.0044
  161SOL    HW1  482   0.061   1.321   2.662  1.4175  0.3901 -2.4640
  161SOL    HW2  483   3.021   1.299   2.563 -0.6727 -0.1338 -1.3769
  162SOL     OW  484   0.509   2.334   1.391 -0.7321 -0.1819 -0.3939
  162SOL    HW1  485   0.546   2.304   1.482  3.8872 -0.7673 -1.6675
  162SOL    HW2  486   0.565   2.285   1.319  2.4806  0.7761 -1.5565
  163SOL     OW  487   2.043   0.130   2.295  0.0969 -0.5000 -0.7539
  163SOL    HW1  488   2.103   0.065   2.345 -0.5477 -0.8701  2.2463
  163SOL    HW2  489   2.075   0.145   2.202 -0.1583 -2.7078  2.6634
  164SOL     OW  490   1.934   1.721   0.288  0.0357  0.1010  0.5940
  164SOL    HW1  491   1.892   1.717   0.382  1.8037 -0.5375  0.5758
  164SOL    HW2  492   1.913   1.639   0.230  2.2493  1.0928  0.9144
  165SOL     OW  493   2.719   0.113   1.497  0.4123 -0.1320  0.1920
  165SOL    HW1  494   2.805   0.060   1.491 -1.6790 -0.9179 -2.1041
  165SOL    HW2  495   2.741   0.195   1.443 -1.0971 -0.3749 -0.8539
  166SOL     OW  496   2.106   1.055   3.090 -0.1418  0.3514 -0.3177
  166SOL    HW1  497   2.198   1.044   0.037  0.0409  0.0774 -0.1059
  166SOL    HW2  498   2.060   1.140   0.026  0.1182 -2.1961 -0.6158
  167SOL     OW  499   2.917   0.786   0.106  0.3391 -0.1985  0.1201
  167SOL    HW1  500   2.976   0.711   0.138  0.1809  1.0139  0.5375
  167SOL    HW2  501   2.966   0.845   0.039 -0.8399  1.0982  0.9269
  168SOL     OW  502   1.660   2.773   2.567  0.6897 -0.2672  0.1504
  168SOL    HW1  503   1.570   2.783   2.520  0.1620 -0.3479  0.1856
  168SOL    HW2  504   1.644   2.762   2.667 -1.1402  0.7177 -0.8880
  169SOL     OW  505   0.450   1.750   0.387  0.0999  0.1127  0.4113
  169SOL    HW1  506   0.475   1.795   0.296  0.3981 -2.2585 -2.3094
  169SOL    HW2  507   0.443   1.648   0.390 -0.5700  0.1047  2.8709
  170SOL     OW  508   0.325   0.261   1.119 -0.2955 -0.2539 -0.5450
  170SOL    HW1  509   0.345   0.318   1.199  0.9428  3.0326 -1.7745
  170SOL    HW2  510   0.324   0.160   1.145 -0.1069 -2.4768 -0.9584
  171SOL     OW  511   1.507   2.162   2.895 -0.1126 -0.0134  0.3453
  171SOL    HW1  512   1.568   2.232   2.936 -0.4813 -2.4008 -4.8082
  171SOL    HW2  513   1.479   2.194   2.802 -0.2767  0.4558  1.8558
  172SOL     OW  514   2.880   2.913   1.134 -0.4160 -0.1372 -0.1729
  172SOL    HW1  515   2.840   2.919   1.227 -1.1477  0.8971 -0.2747
  172SOL    HW2  516   2.981   2.904   1.138 -1.9359 -0.1274  0.5734
  173SOL     OW  517   1.674   0.749   2.723 -0.0242 -0.1744 -0.5353
  173SOL    HW1  518   1.725   0.732   2.806  0.6204  3.0256 -1.6917
  173SOL    HW2  519   1.718   0.712   2.638 -0.7772 -0.4988 -0.1022
  174SOL     OW  520   1.366   0.177   2.823 -0.0032  0.3434  0.5644
  174SOL    HW1  521   1.455   0.203   2.869 -1.0259 -2.1804  1.6926
  174SOL    HW2  522   1.282   0.217   2.866  1.3647 -0.3923  0.0136
  175SOL     OW  523   2.214   1.977   0.548 -0.0635 -0.0770  0.4187
  175SOL    HW1  524   2.156   2.054   0.572  0.4286 -2.8198 -1.2950
  175SOL    HW2  525   2.164   1.888   0.546  0.3173  2.0516  1.8665
  176SOL     OW  526   1.549   0.305   2.978 -0.1881 -0.3655 -0.0494
  176SOL    HW1  527   1.527   0.394   3.024  0.3078 -1.0048 -2.1152
  176SOL    HW2  528   1.654   0.279   2.975  2.3740 -2.6478 -1.9205
  177SOL     OW  529   1.107   1.600   0.284 -0.5417  0.4277 -0.3708
  177SOL    HW1  530   1.033   1.664   0.298  0.8827 -1.3421 -2.1747
  177SOL    HW2  531   1.119   1.584   0.186 -0.7651  2.5254  0.7149
  178SOL     OW  532   2.522   2.305   0.028  0.3301  0.6114 -0.6136
  178SOL    HW1  533   2.485   2.299   0.124 -0.8531 -0.8626 -2.7326
  178SOL    HW2  534   2.449   2.306   3.052  0.4421  0.0791 -0.3216
  179SOL     OW  535   2.774   2.759   2.942 -0.2910  0.4946  0.2603
  179SOL    HW1  536   2.870   2.800   2.945 -0.0540  1.2656  0.2218
  179SOL    HW2  537   2.708   2.833   2.956  0.7480  2.6038 -1.7213
  180SOL     OW  538   1.809   1.693   0.884 -0.3679  0.4779  0.0254
  180SOL    HW1  539   1.843   1.732   0.974  1.7372 -1.4990  2.0025
  180SOL    HW2  540   1.735   1.627   0.889  1.3275  3.8137 -2.4241
  181SOL     OW  541   1.943   0.676   2.110 -0.6420 -0.4358 -0.4476
  181SOL    HW1  542   1.954   0.773   2.143  0.5152 -1.2110 -0.0285
  181SOL    HW2  543   1.844   0.653   2.094  0.3151  0.6839  1.9021
  182SOL     OW  544   2.531   2.955   2.540  0.3105  0.0300  0.0578
  182SOL    HW1  545   2.580   2.881   2.585  0.1756  1.0539  1.9231
  182SOL    HW2  546   2.501   2.930   2.446 -0.8226  1.3859  1.5257
  183SOL     OW  547   1.701   0.598   2.073  0.0647  0.1174  0.1539
  183SOL    HW1  548   1.696   0.633   1.977  0.4651  0.6845 -0.3758
  183SOL    HW2  549   1.675   0.498   2.086  0.4503 -1.6056  1.9574
  184SOL     OW  550   0.241   1.214   1.139 -0.5234 -0.9521  0.3489
  184SOL    HW1  551   0.180   1.215   1.056 -1.6671  3.0659  0.5292
  184SOL    HW2  552   0.199   1.166   1.219  2.1915  0.5451 -0.3350
  185SOL     OW  553   1.885   0.577   0.717 -0.0368 -0.1195 -0.0531
  185SOL    HW1  554   1.984   0.571   0.753  4.1450 -2.1569  4.2931
  185SOL    HW2  555   1.832   0.490   0.743 -1.2282 -1.1049 -0.3235
  186SOL     OW  556   0.400   2.858   3.005 -0.2218 -0.4430 -0.7719
  186SOL    HW1  557   0.340   2.785   2.971 -0.9319  0.9404 -1.3781
  186SOL    HW2  558   0.379   2.886   0.007 -0.3928 -2.0911  0.3912
  187SOL     OW  559   2.425   0.825   2.933 -0.0522  0.1152  0.0405
  187SOL    HW1  560   2.421   0.887   2.853 -2.1059  1.7246 -4.1077
  187SOL    HW2  561   2.521   0.803   2.966 -0.5019 -0.6276  3.6045
  188SOL     OW  562   0.012   1.422   1.363 -0.6123 -0.0675  0.4037
  188SOL    HW1  563   3.047   1.370   1.421  0.8934 -1.1461 -0.1743
  188SOL    HW2  564   0.097   1.458   1.410  0.6859  2.6114  0.1411
  189SOL     OW  565   2.595   0.367   0.077 -0.4725  0.2831  0.0472
  189SOL    HW1  566   2.693   0.358   0.112  0.0921 -1.3487  0.1203
  189SOL    HW2  567   2.595   0.390   3.072 -1.5541  2.0000 -2.6664
  190SOL     OW  568   1.424   1.009   1.956  0.0512 -0.1732  0.2526
  190SOL    HW1  569   1.437   0.977   2.051  0.5234 -0.2285  2.4270
  190SOL    HW2  570   1.453   1.106   1.944  2.1331  1.2589 -0.8558
  191SOL     OW  571   0.034   0.374   1.790  0.2411  0.3506 -0.9971
  191SOL    HW1  572   3.059   0.302   1.777  1.7277  1.9707  0.1533
  191SOL    HW2  573   3.086   0.459   1.815 -0.3566  1.6762 -1.0557
  192SOL     OW  574   1.936   1.365   1.076  0.2028 -0.1002 -0.2719
  192SOL    HW1  575   1.919   1.340   0.978 -1.0821  2.0256  0.9908
  192SOL    HW2  576   1.999   1.446   1.088  0.0178 -0.3003  0.0151
  193SOL     OW  577   1.302   0.835   0.971 -0.7533  0.0235  0.6666
  193SOL    HW1  578   1.240   0.819   0.893  0.1073 -1.9684 -0.5070
  193SOL    HW2  579   1.250   0.820   1.060  0.8329  0.9144  0.7378
  194SOL     OW  580   1.012   2.358   1.784 -0.0808  0.1491 -0.7143
  194SOL    HW1  581   1.069   2.436   1.758  1.3890 -0.2786 -0.1425
  194SOL    HW2  582   0.921   2.383   1.828 -1.0698  3.2358 -0.9570
  195SOL     OW  583   1.833   0.241   2.986  0.6334  0.0028  0.1233
  195SOL    HW1  584   1.849   0.214   2.888  1.0458 -1.2070  2.1881
  195SOL    HW2  585   1.885   0.175   3.048 -1.6196  0.2967  2.1459
  196SOL     OW  586   0.841   2.161   1.684 -0.2655 -0.3012 -0.3259
  196SOL    HW1  587   0.842   2.063   1.709 -1.0609  1.7886 -2.3273
  196SOL    HW2  588   0.894   2.216   1.748 -2.3589 -1.5336 -0.5435
  197SOL     OW  589   0.927   3.060   1.089 -0.0532  0.2813  0.0085
  197SOL    HW1  590   0.974   2.974   1.059  1.4340 -0.2694 -2.1820
  197SOL    HW2  591   0.951   0.036   1.021  1.6367  0.6443 -1.6209
  198SOL     OW  592   0.816   0.953   0.858 -0.3907  0.2761  0.4380
  198SOL    HW1  593   0.824   0.986   0.951 -1.1236 -2.8609 -1.9388
  198SOL    HW2  594   0.718   0.936   0.835  0.9382  4.2477  0.1060
  199SOL     OW  595   2.971   2.584   1.570  0.3176 -0.1819 -0.5754
  199SOL    HW1  596   2.942   2.675   1.542 -0.9445 -0.9051  1.8708
  199SOL    HW2  597   2.892   2.524   1.588  0.0373  0.6916  0.4990
  200SOL     OW  598   2.034   2.194   2.162  0.3444  0.3513  0.3719
  200SOL    HW1  599   2.114   2.209   2.106 -0.9617 -3.2388  4.0692
  200SOL    HW2  600   2.046   2.233   2.254 -3.2526  0.8475  0.3226
  201SOL     OW  601   0.278   1.633   1.956  0.2418  0.6174 -0.2173
  201SOL    HW1  602   0.200   1.604   1.897  1.2351  0.0025 -1.9011
  201SOL    HW2  603   0.349   1.559   1.963  2.0593  0.3529 -3.2788
  202SOL     OW  604   2.299   0.350   0.278  0.0651  0.4010 -0.3840
  202SOL    HW1  605   2.270   0.278   0.211 -1.0849  0.5151 -1.1232
  202SOL    HW2  606   2.371   0.306   0.343  2.3224 -0.9783  1.1674
  203SOL     OW  607   0.986   2.293   2.271 -0.0918  0.3321  1.2433
  203SOL    HW1  608   0.933   2.376   2.254  1.6631 -3.2383 -0.3225
  203SOL    HW2  609   0.947   2.207   2.226  2.5926 -4.4565 -1.5885
  204SOL     OW  610   1.112   2.121   1.839 -0.2318  0.1460  0.2303
  204SOL    HW1  611   1.161   2.093   1.752 -0.4049  0.7522  1.3514
  204SOL    HW2  612   1.066   2.209   1.830  1.8240 -2.4918 -1.5771
  205SOL     OW  613   1.642   1.682   2.062  0.9408  0.5259  0.6028
  205SOL    HW1  614   1.660   1.762   2.002  2.2344 -0.0253  1.5023
  205SOL    HW2  615   1.694   1.602   2.028  0.0504 -1.1694  2.7090
  206SOL     OW  616   0.411   0.759   2.410  0.1134  0.4171  0.4583
  206SOL    HW1  617   0.459   0.695   2.474 -2.0637 -0.7394 -0.5745
  206SOL    HW2  618   0.480   0.826   2.387 -0.5725 -0.7671 -0.3749
  207SOL     OW  619   1.031   2.861   1.986 -0.1476  0.0087 -0.2990
  207SOL    HW1  620   1.029   2.953   2.034  2.5073 -0.2497 -0.5526
  207SOL    HW2  621   1.022   2.874   1.885  0.6760 -4.2240  2.0083
  208SOL     OW  622   0.517   2.704   1.970 -0.4642 -0.0384  0.2548
  208SOL    HW1  623   0.446   2.633   1.971 -1.0280  1.0370  1.3176
  208SOL    HW2  624   0.481   2.779   1.909  0.1376  0.8367 -0.9233
  209SOL     OW  625   1.504   0.548   0.071 -0.1518 -0.1625  0.2622
  209SOL    HW1  626   1.595   0.578   0.101 -1.2068 -1.1509  2.7275
  209SOL    HW2  627   1.459   0.613   0.002  0.7417  0.4225 -2.3792
  210SOL     OW  628   2.756   0.477   0.480 -0.2148  0.1185  0.2732
  210SOL    HW1  629   2.718   0.508   0.573  1.1655 -2.2124 -0.8645
  210SOL    HW2  630   2.792   0.555   0.426  1.6247 -0.4704 -0.8503
  211SOL     OW  631   0.656   0.478   1.412 -0.1875  0.2329  0.2681
  211SOL    HW1  632   0.644   0.577   1.408  0.3165 -1.8532 -0.6471
  211SOL    HW2  633   0.691   0.439   1.503  1.0366 -1.6267  0.0428
  212SOL     OW  634   1.435   1.890   1.261 -0.0306 -0.1654 -0.3472
  212SOL    HW1  635   1.360   1.833   1.225  2.1804 -0.8651 -1.2406
  212SOL    HW2  636   1.521   1.836   1.261  0.6034 -0.9411  0.7794
  213SOL     OW  637   2.269   0.440   1.782 -0.1950  0.4131 -0.3901
  213SOL    HW1  638   2.335   0.364   1.780 -2.0115 -0.3650  1.4430
  213SOL    HW2  639   2.284   0.486   1.870  0.4423 -2.8040 -1.1750
  214SOL     OW  640   0.920   2.360   2.675  0.1953  0.1426  0.3578
  214SOL    HW1  641   0.918   2.291   2.601 -2.6161 -1.8148 -1.7363
  214SOL    HW2  642   0.836   2.349   2.732 -1.4575 -1.4449  1.9576
  215SOL     OW  643   2.827   1.557   1.663 -0.7617 -0.3029  0.0833
  215SOL    HW1  644   2.908   1.492   1.679  0.8719 -2.2779  0.5221
  215SOL    HW2  645   2.813   1.567   1.564  0.2787  3.0806 -0.4510
  216SOL     OW  646   0.436   0.989   1.528 -0.1221  0.0030 -0.3399
  216SOL    HW1  647   0.444   1.081   1.571 -1.5596  1.7804 -0.3866
  216SOL    HW2  648   0.362   0.988   1.458 -0.4470 -3.0206  1.0300
  217SOL     OW  649   3.009   0.127   0.418 -0.5044 -0.9016 -0.4800
  217SOL    HW1  650   2.962   0.085   0.495  0.5557  4.7002 -1.4673
  217SOL    HW2  651   3.018   0.227   0.440  1.7445 -0.1652  2.5733
  218SOL     OW  652   1.681   1.928   0.843 -0.6156 -0.0074  0.0550
  218SOL    HW1  653   1.710   1.967   0.934  1.3712  0.4890  0.2103
  218SOL    HW2  654   1.719   1.834   0.831 -0.3400  1.3047  1.7824
  219SOL     OW  655   1.634   0.357   0.256 -0.0211  0.3922 -0.1924
  219SOL    HW1  656   1.627   0.387   0.355  1.0766 -0.4313  1.8090
  219SOL    HW2  657   1.699   0.417   0.208 -2.4995  1.0425  0.8293
  220SOL     OW  658   1.426   2.077   0.879 -0.1099 -0.2202  0.1095
  220SOL    HW1  659   1.339   2.029   0.908 -3.6440 -0.7925  2.4094
  220SOL    HW2  660   1.509   2.017   0.865  0.7076 -0.9281  1.6568
  221SOL     OW  661   2.968   1.063   0.200 -0.0514 -0.4471 -0.3593
  221SOL    HW1  662   2.901   1.122   0.156  3.7395 -2.0574  1.2581
  221SOL    HW2  663   2.942   0.966   0.195 -1.6671 -1.1472  1.3456
  222SOL     OW  664   0.839   2.621   1.485  0.1602 -0.2218  0.3602
  222SOL    HW1  665   0.779   2.607   1.402  0.7331 -1.7095 -0.7028
  222SOL    HW2  666   0.936   2.592   1.476  1.4169 -0.4970 -0.8521
  223SOL     OW  667   1.271   0.387   0.084  0.8277 -0.4082  0.2567
  223SOL    HW1  668   1.240   0.388   3.088 -0.4501  1.3946  0.0687
  223SOL    HW2  669   1.343   0.457   0.098 -0.0909  0.3987  0.0564
  224SOL     OW  670   2.842   0.720   0.944  0.3435  0.7239 -0.3992
  224SOL    HW1  671   2.823   0.820   0.955  1.7876 -0.1651  0.7769
  224SOL    HW2  672   2.832   0.666   1.032  1.2920 -0.9398 -0.6761
  225SOL     OW  673   0.774   1.641   1.338 -0.0427 -0.1306 -0.3608
  225SOL    HW1  674   0.871   1.617   1.316  0.5389  0.7174  0.7359
  225SOL    HW2  675   0.707   1.571   1.307 -1.6816 -1.7292  2.9291
  226SOL     OW  676   0.665   2.614   0.716  0.0752 -0.5702  0.5101
  226SOL    HW1  677   0.701   2.685   0.781  0.8688  1.7339 -0.5640
  226SOL    HW2  678   0.746   2.568   0.679  0.9912  1.6098  1.2465
  227SOL     OW  679   1.093   1.821   1.619  0.4712 -0.0402 -0.7580
  227SOL    HW1  680   1.022   1.847   1.689 -1.8169 -0.0790 -0.4504
  227SOL    HW2  681   1.161   1.895   1.612 -1.2790 -1.4268  0.6083
  228SOL     OW  682   0.745   0.222   1.976  0.2428  0.0917 -0.5998
  228SOL    HW1  683   0.652   0.216   1.937 -1.2725  0.4169 -0.2753
  228SOL    HW2  684   0.753   0.159   2.060 -0.5095 -3.0041  2.8192
  229SOL     OW  685   2.683   0.670   0.001 -0.1667 -0.1253  0.0204
  229SOL    HW1  686   2.691   0.724   3.012  1.0111  1.0282 -0.4029
  229SOL    HW2  687   2.757   0.711   0.055  0.3546  0.4849  2.6721
  230SOL     OW  688   0.153   0.630   1.301 -0.4538  0.3320 -0.7589
  230SOL    HW1  689   0.247   0.638   1.259  1.9658  1.5500 -1.2546
  230SOL    HW2  690   0.159   0.625   1.403 -0.7447 -1.3498  1.6713
  231SOL     OW  691   1.090   3.004   1.293 -0.2281  0.2378 -0.3346
  231SOL    HW1  692   1.017   2.992   1.363  2.7778  2.1044 -1.3938
  231SOL    HW2  693   1.064   3.057   1.217 -0.8515 -0.2565  2.9559
  232SOL     OW  694   2.851   2.489   0.422 -0.4370 -0.1805 -0.3775
  232SOL    HW1  695   2.861   2.437   0.338  0.0584  2.8645  0.6835
  232SOL    HW2  696   2.764   2.535   0.438  1.0548  3.0631  0.4057
  233SOL     OW  697   1.285   2.283   3.021 -0.7008  0.3186  0.3534
  233SOL    HW1  698   1.366   2.235   2.982 -1.6419  2.4174 -0.8122
  233SOL    HW2  699   1.227   2.330   2.944 -1.4784 -0.0175 -1.6319
  234SOL     OW  700   0.973   1.269   1.794  0.6298  0.5761 -0.2046
  234SOL    HW1  701   0.906   1.345   1.809  1.0788 -0.7628  1.8276
  234SOL    HW2  702   0.981   1.220   1.885  2.0934  4.9021  0.6433
  235SOL     OW  703   0.053   2.270   2.796 -0.1061  0.4817 -0.0778
  235SOL    HW1  704   0.092   2.307   2.710  0.9698 -0.5457  0.8516
  235SOL    HW2  705   0.020   2.342   2.861  1.8410  2.9878 -1.9960
  236SOL     OW  706   1.830   2.133   2.701  0.0554  0.4218  0.2029
  236SOL    HW1  707   1.784   2.050   2.739 -0.7478  1.2928  0.1457
  236SOL    HW2  708   1.775   2.162   2.618 -1.4899  1.8102 -0.7717
  237SOL     OW  709   2.053   0.980   0.883 -0.4033 -0.1325 -0.3466
  237SOL    HW1  710   2.024   0.907   0.949  0.0800 -0.4800 -0.3532
  237SOL    HW2  711   1.977   1.045   0.853 -2.0035  1.2460  0.1053
  238SOL     OW  712   1.225   2.694   2.093  0.3745 -0.4606 -0.2385
  238SOL    HW1  713   1.190   2.666   2.188 -1.6049 -2.5571  3.3507
  238SOL    HW2  714   1.155   2.745   2.036 -1.6132  0.1408  1.8184
  239SOL     OW  715   0.560   2.253   2.014  0.0572 -0.4532 -0.1229
  239SOL    HW1  716   0.484   2.244   1.950  0.9894  1.9086 -0.4632
  239SOL    HW2  717   0.630   2.317   1.972 -2.2183  2.2134 -0.2716
  240SOL     OW  718   2.869   0.070   0.644 -0.3274  0.6463  0.1953
  240SOL    HW1  719   2.848   3.067   0.652  0.7689 -1.9412 -1.2625
  240SOL    HW2  720   2.930   0.100   0.721  0.5017  1.8167 -0.7475
  241SOL     OW  721   1.093   1.811   2.846  0.1428  0.0695 -0.6068
  241SOL    HW1  722   1.072   1.816   2.947  0.3625  1.2305  2.7397
  241SOL    HW2  723   1.186   1.860   2.834 -0.2360  3.7479 -3.1342
  242SOL     OW  724   2.320   0.761   0.073  0.8374 -0.4376 -0.6382
  242SOL    HW1  725   2.385   0.700   0.126  0.1410  0.6600 -0.6878
  242SOL    HW2  726   2.356   0.784   3.083 -2.6788 -0.5324  0.8643
  243SOL     OW  727   0.811   0.537   1.955  0.3445 -0.1092  0.2795
  243SOL    HW1  728   0.908   0.530   1.963 -6.3608  3.6445  1.8323
  243SOL    HW2  729   0.759   0.457   1.984 -0.1133  0.6407  1.3360
  244SOL     OW  730   1.605   2.378   3.014 -0.6171  0.5084  0.6182
  244SOL    HW1  731   1.551   2.457   3.046  2.5778 -0.3098  2.5307
  244SOL    HW2  732   1.676   2.365   3.085  2.0764  0.7499 -0.7262
  245SOL     OW  733   1.758   2.348   0.135 -0.0611  0.2745  0.0161
  245SOL    HW1  734   1.665   2.327   0.167  0.5510  0.6584 -0.5355
  245SOL    HW2  735   1.825   2.347   0.211  2.4258  0.3722  0.4101
  246SOL     OW  736   1.108   0.950   2.380  0.2628  0.2121 -0.2932
  246SOL    HW1  737   1.132   0.967   2.286 -0.5488 -2.4585  4.9472
  246SOL    HW2  738   1.064   1.032   2.428 -1.2135 -0.3912  0.6567
  247SOL     OW  739   0.012   0.779   2.735  0.6723  0.0727 -0.4962
  247SOL    HW1  740   0.069   0.825   2.665 -2.4708  1.0275 -1.3320
  247SOL    HW2  741   0.015   0.673   2.735  1.6644 -0.9253 -1.6332
  248SOL     OW  742   3.092   1.116   1.869  0.3102  0.3345 -0.0667
  248SOL    HW1  743   3.014   1.072   1.920 -0.7102 -1.4604  0.4581
  248SOL    HW2  744   0.078   1.128   1.926  1.1699  0.7462 -2.1843
  249SOL     OW  745   0.096   0.281   0.214  0.2133  0.3222 -0.1068
  249SOL    HW1  746   0.143   0.357   0.163  0.3583  0.1744 -0.1606
  249SOL    HW2  747   0.076   0.314   0.310  0.9401  1.1321 -0.6276
  250SOL     OW  748   2.850   0.354   0.189 -0.3878  0.2406 -0.1050
  250SOL    HW1  749   2.925   0.284   0.174  2.5201 -1.5297  0.6291
  250SOL    HW2  750   2.799   0.338   0.276  1.8789 -2.9897 -1.3611
  251SOL     OW  751   1.107   1.644   1.952  0.6618  0.0176 -0.2329
  251SOL    HW1  752   1.172   1.718   1.937  1.1419 -2.0481  1.0335
  251SOL    HW2  753   1.146   1.562   1.909 -0.2399 -4.3197  2.1181
  252SOL     OW  754   2.127   1.793   1.292  0.1938 -0.4145  0.6828
  252SOL    HW1  755   2.046   1.758   1.343 -0.4813 -0.7578  2.2486
  252SOL    HW2  756   2.213   1.793   1.346 -1.5314 -0.1396 -2.6043
  253SOL     OW  757   1.854   2.330   1.990 -0.2534 -0.0119 -0.2722
  253SOL    HW1  758   1.923   2.296   2.057 -1.0725  1.1272 -0.7130
  253SOL    HW2  759   1.775   2.362   2.045 -2.1052 -0.3323  0.2623
  254SOL     OW  760   0.654   2.081   2.303 -0.6047 -0.3272 -0.4828
  254SOL    HW1  761   0.612   2.174   2.294  0.0277 -0.9289  0.7096
  254SOL    HW2  762   0.743   2.074   2.253 -1.1012  0.2330  3.2200
  255SOL     OW  763   1.708   0.381   0.759 -0.1839 -0.0243  0.1507
  255SOL    HW1  764   1.673   0.289   0.732  0.5429 -1.6360 -0.3975
  255SOL    HW2  765   1.650   0.416   0.835  0.1351  0.2733 -0.9875
  256SOL     OW  766   2.036   2.105   1.447 -1.0552  0.2160  0.1373
  256SOL    HW1  767   2.029   2.203   1.448 -0.8386 -0.1551  0.9568
  256SOL    HW2  768   2.129   2.080   1.413  0.4082 -1.3548 -1.7224
  257SOL     OW  769   0.234   2.626   2.916 -0.5217 -0.4526  0.1987
  257SOL    HW1  770   0.290   2.545   2.934 -1.5972  1.2800  1.0706
  257SOL    HW2  771   0.160   2.633   2.982  3.2237 -1.8341 -0.5369
  258SOL     OW  772   0.695   1.159   1.836 -0.1765 -0.5638 -0.3143
  258SOL    HW1  773   0.690   1.129   1.935  0.1637  0.0751  1.5000
  258SOL    HW2  774   0.753   1.094   1.788  0.7980 -0.2087 -0.6270
  259SOL     OW  775   1.333   0.911   2.545  0.1040  0.2305  0.4669
  259SOL    HW1  776   1.383   0.997   2.544 -0.9386 -1.3259  1.6457
  259SOL    HW2  777   1.248   0.914   2.490  0.5604 -1.1863  0.6106
  260SOL     OW  778   2.216   0.877   0.398  0.1590 -0.2552 -0.5979
  260SOL    HW1  779   2.188   0.858   0.494  1.4622 -1.8053  0.4607
  260SOL    HW2  780   2.142   0.855   0.326  0.1562  0.1913 -1.6506
  261SOL     OW  781   1.030   0.337   0.658  0.5241 -0.2263  0.6906
  261SOL    HW1  782   1.098   0.381   0.595  2.4848 -1.9814 -0.4938
  261SOL    HW2  783   1.047   0.367   0.756  1.7924 -0.6847  0.8302
  262SOL     OW  784   2.026   2.569   2.511 -0.3121 -0.1842  0.1314
  262SOL    HW1  785   2.123   2.566   2.546  1.2036  0.0667  2.3128
  262SOL    HW2  786   1.995   2.666   2.493 -1.1733  1.8102 -1.6254
  263SOL     OW  787   0.367   1.521   2.802  0.0477 -1.0203  0.1715
  263SOL    HW1  788   0.401   1.512   2.707  0.9286  3.0162  1.1421
  263SOL    HW2  789   0.357   1.622   2.821 -2.5386  0.2967  0.7474
  264SOL     OW  790   0.240   1.958   1.614  0.2539 -0.1870 -0.6390
  264SOL    HW1  791   0.286   1.941   1.704 -3.1027 -0.6054 -0.1072
  264SOL    HW2  792   0.306   1.980   1.537 -0.1485  0.1446  1.2334
  265SOL     OW  793   1.186   0.969   0.562 -0.2284  0.0774  0.2172
  265SOL    HW1  794   1.108   1.022   0.523  0.8071 -1.0615  2.6503
  265SOL    HW2  795   1.204   0.885   0.509 -1.2744  3.6043 -0.6241
  266SOL     OW  796   1.586   1.639   0.081  0.0142  0.1841  0.1429
  266SOL    HW1  797   1.614   1.722   0.027  0.0703  0.6705 -0.5815
  266SOL    HW2  798   1.512   1.662   0.147 -2.1496 -1.6813 -0.7942
  267SOL     OW  799   0.192   0.292   2.966 -0.0544 -0.4318 -0.1030
  267SOL    HW1  800   0.105   0.258   2.926 -0.9541 -1.2172  1.1600
  267SOL    HW2  801   0.212   0.384   2.932 -0.1483 -3.2985 -0.9450
  268SOL     OW  802   1.142   0.255   2.956 -0.2879  0.7167  0.0248
  268SOL    HW1  803   1.072   0.293   3.023  2.6357 -0.4480 -0.9699
  268SOL    HW2  804   1.121   0.157   2.954 -1.2410  0.5503  0.6250
  269SOL     OW  805   1.622   0.353   2.401  0.2767  0.5893  0.0167
  269SOL    HW1  806   1.585   0.356   2.307  2.9337 -1.2308 -1.1793
  269SOL    HW2  807   1.538   0.340   2.457 -3.3475 -0.0602  0.3611
  270SOL     OW  808   0.724   0.731   2.476  0.1777  0.7373 -0.2970
  270SOL    HW1  809   0.819   0.719   2.429  2.4155  0.6798 -2.8357
  270SOL    HW2  810   0.712   0.669   2.556  1.1680  1.2017  0.5333
  271SOL     OW  811   0.133   1.004   0.084  0.3581  0.1253 -0.0851
  271SOL    HW1  812   0.205   1.072   0.084 -1.6179 -0.4043  0.1283
  271SOL    HW2  813   0.054   1.037   0.144 -4.4772 -0.7977  2.6290
  272SOL     OW  814   2.366   1.153   2.918 -0.1581 -0.0745  0.4249
  272SOL    HW1  815   2.335   1.079   2.853 -0.3834 -0.1019  0.4680
  272SOL    HW2  816   2.366   1.120   3.012  0.0583  0.5020 -0.6380
  273SOL     OW  817   3.064   0.268   2.287  0.3921 -0.3029 -0.0883
  273SOL    HW1  818   0.021   0.355   2.281  3.0242  1.9104 -0.5078
  273SOL    HW2  819   0.006   0.194   2.342 -1.1006 -0.7675 -0.1767
  274SOL     OW  820   2.544   0.013   1.685 -0.5444 -0.0063  0.1120
  274SOL    HW1  821   2.471   3.082   1.618 -1.6087 -0.4441 -4.3750
  274SOL    HW2  822   2.626   0.053   1.636 -0.5032 -1.6694 -0.7845
  275SOL     OW  823   1.855   1.502   0.137 -0.1296  0.2634  0.3827
  275SOL    HW1  824   1.884   1.466   0.049 -1.7429 -2.6579  3.0455
  275SOL    HW2  825   1.766   1.542   0.132  2.3081  0.0313  0.6561
  276SOL     OW  826   0.331   1.065   2.728  0.2244 -0.0023 -0.5248
  276SOL    HW1  827   0.291   1.126   2.803  0.8654  0.7047  3.6573
  276SOL    HW2  828   0.263   0.994   2.701 -1.0261 -0.8911  1.9455
  277SOL     OW  829   1.648   2.446   2.156  0.7116 -0.6705 -0.4588
  277SOL    HW1  830   1.644   2.479   2.254  1.9835  0.0969 -0.7985
  277SOL    HW2  831   1.554   2.424   2.128  1.2224 -1.1375 -1.2826
  278SOL     OW  832   1.965   0.017   1.201 -0.5206  0.0863 -0.1767
  278SOL    HW1  833   1.880   0.060   1.165  0.0457  3.1939 -3.7783
  278SOL    HW2  834   2.045   0.067   1.166 -1.1062  0.3556  0.4735
  279SOL     OW  835   1.063   1.415   2.691  0.5225  0.1448  0.0938
  279SOL    HW1  836   1.130   1.469   2.739 -0.3619 -2.5388  2.9919
  279SOL    HW2  837   1.055   1.442   2.595  3.2122  0.7506  3.1879
  280SOL     OW  838   0.701   1.880   0.475  0.1259  0.0575 -0.2301
  280SOL    HW1  839   0.617   1.834   0.446  0.8269  0.6444 -3.4213
  280SOL    HW2  840   0.732   1.949   0.407 -0.4595 -1.4246 -1.6665
  281SOL     OW  841   3.013   2.932   2.250 -0.1991 -0.3490 -0.2008
  281SOL    HW1  842   2.947   2.978   2.188 -0.7805  0.8707  2.9304
  281SOL    HW2  843   3.012   2.833   2.228 -0.4697  0.3155 -3.6970
  282SOL     OW  844   0.242   1.899   1.190  0.2086  0.3030  0.1560
  282SOL    HW1  845   0.283   1.953   1.114  0.9974 -1.7629  0.4843
  282SOL    HW2  846   0.153   1.933   1.218 -0.7366 -1.8608  3.4862
  283SOL     OW  847   1.422   2.189   2.630 -0.2250  1.0034 -0.3755
  283SOL    HW1  848   1.351   2.228   2.572 -0.9285 -0.9650  2.0235
  283SOL    HW2  849   1.518   2.201   2.591 -0.2446  0.5561 -2.5323
  284SOL     OW  850   2.061   0.814   0.194  0.0346 -0.1598 -0.7534
  284SOL    HW1  851   1.971   0.794   0.158  2.8534 -0.9172 -1.1937
  284SOL    HW2  852   2.128   0.820   0.125 -4.4000  0.4986  3.3275
  285SOL     OW  853   2.651   2.762   2.692 -0.3675 -0.1104  0.0466
  285SOL    HW1  854   2.708   2.739   2.771  0.1596 -0.4738 -0.9033
  285SOL    HW2  855   2.605   2.683   2.645  0.8168  0.4635 -2.1915
  286SOL     OW  856   1.802   2.714   1.045 -0.4180  0.2830 -0.1660
  286SOL    HW1  857   1.751   2.693   1.129  1.8354  0.8552 -2.1291
  286SOL    HW2  858   1.809   2.638   0.980  1.8173  0.9298  1.7284
  287SOL     OW  859   0.717   1.248   1.049 -0.5638 -0.5420  0.0838
  287SOL    HW1  860   0.723   1.248   0.943  1.6288  0.1182 -4.1336
  287SOL    HW2  861   0.785   1.194   1.101 -1.9080 -1.4490 -1.8058
  288SOL     OW  862   1.236   2.300   0.207  0.0056 -0.2191  0.3757
  288SOL    HW1  863   1.219   2.395   0.239  0.5431 -2.0146 -0.0779
  288SOL    HW2  864   1.207   2.283   0.107  1.4297  0.4569  0.4733
  289SOL     OW  865   0.039   1.940   2.546 -0.2338 -0.6227 -0.0339
  289SOL    HW1  866   0.038   1.845   2.512 -0.1619  2.1388 -2.0845
  289SOL    HW2  867   0.132   1.988   2.548  4.4782  1.5602  1.2578
  290SOL     OW  868   1.061   2.332   0.919 -0.1510  0.3117  0.1580
  290SOL    HW1  869   1.040   2.322   0.819 -1.3051  1.1226 -1.7654
  290SOL    HW2  870   1.027   2.254   0.969  1.2377  0.3535 -0.9399
  291SOL     OW  871   2.023   1.475   2.987 -0.0578  1.1388 -0.3609
  291SOL    HW1  872   2.125   1.457   2.988  0.6689 -1.1293  1.0342
  291SOL    HW2  873   2.003   1.573   3.009 -0.1368  1.8722  1.3339
  292SOL     OW  874   1.213   1.417   1.840 -0.1066  0.5161 -0.1514
  292SOL    HW1  875   1.135   1.355   1.812 -0.0082 -0.0842  1.7389
  292SOL    HW2  876   1.297   1.360   1.858  0.7228 -0.8532  0.0863
  293SOL     OW  877   1.959   2.278   0.973 -0.0622 -0.1798 -0.1194
  293SOL    HW1  878   1.975   2.208   1.047 -0.3488 -0.7360  0.0741
  293SOL    HW2  879   1.963   2.232   0.882  4.4759 -2.3590 -0.6583
  294SOL     OW  880   0.180   1.406   2.381  0.3941 -0.0738  0.0767
  294SOL    HW1  881   0.138   1.377   2.472 -2.0421 -1.6758  1.9017
  294SOL    HW2  882   0.145   1.348   2.309  1.4616  0.5440  0.4904
  295SOL     OW  883   0.859   1.994   3.028 -0.1137 -0.1220  0.2961
  295SOL    HW1  884   0.918   2.073   3.057  2.0561 -0.6264  1.4727
  295SOL    HW2  885   0.902   1.904   3.063 -0.8774 -2.5457  0.5728
  296SOL     OW  886   2.081   1.599   2.288 -0.2968  0.4969 -0.0179
  296SOL    HW1  887   2.135   1.656   2.219 -0.2244 -0.9738 -3.7806
  296SOL    HW2  888   1.979   1.607   2.273  1.7806 -3.7173 -0.5571
  297SOL     OW  889   2.717   0.766   2.601  0.3266 -0.4489 -0.0043
  297SOL    HW1  890   2.770   0.717   2.528  0.7368  0.0115  0.9305
  297SOL    HW2  891   2.614   0.747   2.595 -2.7164 -1.5614  0.7725
  298SOL     OW  892   0.851   2.108   2.518  0.4005 -0.3514 -0.9199
  298SOL    HW1  893   0.829   2.086   2.617  2.0898  0.5091  0.1339
  298SOL    HW2  894   0.767   2.123   2.462  2.6033 -0.4085  2.3395
  299SOL     OW  895   0.910   2.563   2.475 -0.4013  0.4016  0.3038
  299SOL    HW1  896   0.880   2.643   2.531  0.8616 -1.8761  0.2828
  299SOL    HW2  897   0.927   2.488   2.539 -2.1458  2.5988  1.4655
  300SOL     OW  898   3.029   0.555   0.177 -0.1440  0.2020  0.2756
  300SOL    HW1  899   2.975   0.472   0.190 -0.5860  0.0806  0.3002
  300SOL    HW2  900   0.026   0.529   0.143 -1.5315 -2.3363 -0.5058
  301SOL     OW  901   1.156   0.774   1.205  0.2574  0.2488  0.5151
  301SOL    HW1  902   1.183   0.677   1.220 -2.2601  2.1957 -0.9387
  301SOL    HW2  903   1.097   0.808   1.279  2.2954 -1.5000  0.6388
  302SOL     OW  904   2.978   2.051   2.799  0.1127 -0.3234 -0.4603
  302SOL    HW1  905   3.021   1.992   2.729 -0.6264  0.7376 -1.3672
  302SOL    HW2  906   3.033   2.139   2.815  0.9094  0.7719  3.7027
  303SOL     OW  907   2.872   2.883   2.552  0.3317  0.1868 -0.0233
  303SOL    HW1  908   2.878   2.936   2.460  1.9796 -0.0660 -0.6701
  303SOL    HW2  909   2.823   2.940   2.622 -0.5222 -0.0329  0.9948
  304SOL     OW  910   2.934   0.192   1.736 -0.4994 -0.0224 -0.0262
  304SOL    HW1  911   2.930   0.119   1.665 -2.2818 -0.1357 -2.7549
  304SOL    HW2  912   2.851   0.202   1.795 -2.0571  1.5297 -0.8793
  305SOL     OW  913   0.066   0.030   2.398 -0.0874  0.0541  0.1631
  305SOL    HW1  914   0.152   3.077   2.410 -1.8227  0.1245  0.7597
  305SOL    HW2  915   3.096   3.067   2.353 -0.4927  0.5758 -0.1534
  306SOL     OW  916   2.505   1.182   1.300 -0.9789  0.3881  0.1077
  306SOL    HW1  917   2.531   1.103   1.356  0.4722 -1.5347 -0.6733
  306SOL    HW2  918   2.489   1.156   1.202 -0.6751 -0.6547 -1.0228
  307SOL     OW  919   1.862   0.447   1.274  0.7825 -0.1214 -0.1146
  307SOL    HW1  920   1.812   0.395   1.347 -0.9439  0.3769 -1.6314
  307SOL    HW2  921   1.794   0.498   1.213 -0.5926 -0.1070 -0.2657
  308SOL     OW  922   0.091   2.219   1.224 -0.4906  0.1432  0.4102
  308SOL    HW1  923   0.020   2.291   1.240 -1.1932  1.0282  2.2483
  308SOL    HW2  924   0.061   2.153   1.154  0.0135  0.4974  0.5780
  309SOL     OW  925   2.343   1.819   1.468  0.4704  0.7289  0.1395
  309SOL    HW1  926   2.405   1.740   1.446  0.5803 -2.1093  2.5366
  309SOL    HW2  927   2.279   1.798   1.542  0.6480  3.7107 -2.4269
  310SOL     OW  928   2.771   1.718   3.088  0.2519 -0.0959 -0.0052
  310SOL    HW1  929   2.714   1.802   3.097  1.8090  1.6569 -0.9113
  310SOL    HW2  930   2.835   1.727   0.068 -1.3692 -0.1172  2.2898
  311SOL     OW  931   2.221   1.419   2.628 -0.2292 -0.3555 -0.1648
  311SOL    HW1  932   2.311   1.455   2.590  0.1454  1.3494 -0.6273
  311SOL    HW2  933   2.154   1.493   2.645  1.7162 -3.3240  1.2444
  312SOL     OW  934   2.276   2.265   0.811  0.1551 -0.1273 -0.2368
  312SOL    HW1  935   2.338   2.206   0.861  1.3078 -1.0400 -3.9695
  312SOL    HW2  936   2.323   2.354   0.788  0.8630  0.4028 -0.3717
  313SOL     OW  937   2.704   2.590   1.381  0.1506  0.4160 -0.0921
  313SOL    HW1  938   2.690   2.523   1.458 -0.2317  1.7087  2.1365
  313SOL    HW2  939   2.622   2.601   1.323  1.3893  1.5829 -1.8274
  314SOL     OW  940   1.160   2.103   1.298  0.3489  0.7697 -0.0414
  314SOL    HW1  941   1.102   2.139   1.374  1.1390 -0.1951  0.2970
  314SOL    HW2  942   1.109   2.112   1.208 -3.6805 -0.3562 -0.4952
  315SOL     OW  943   0.291   2.670   2.378 -0.6746 -0.3872 -0.3943
  315SOL    HW1  944   0.250   2.653   2.469 -0.1652 -2.3611  1.3208
  315SOL    HW2  945   0.306   2.769   2.351  0.0265  1.3689  0.5157
  316SOL     OW  946   0.099   1.695   0.793 -0.4491  0.1977  0.1545
  316SOL    HW1  947   0.136   1.670   0.887  0.3939 -1.0713  2.9467
  316SOL    HW2  948   0.117   1.789   0.765  0.1167 -0.2858  0.4652
  317SOL     OW  949   1.889   0.287   0.573  0.1037 -0.2093  0.4101
  317SOL    HW1  950   1.828   0.334   0.638  0.1035  0.8687  1.1215
  317SOL    HW2  951   1.970   0.250   0.621 -1.5369  1.6661  1.1048
  318SOL     OW  952   2.836   2.920   0.379 -0.2876  0.8379  0.1223
  318SOL    HW1  953   2.868   2.861   0.299 -0.3343 -2.3064 -1.0966
  318SOL    HW2  954   2.739   2.950   0.365 -2.0003 -0.9598 -0.5155
  319SOL     OW  955   1.044   1.525   0.025  0.5547 -0.0236 -0.1179
  319SOL    HW1  956   1.114   1.512   3.054 -2.3359 -1.2091  3.0075
  319SOL    HW2  957   0.957   1.476   0.007 -0.0502  0.7763 -0.6786
  320SOL     OW  958   0.535   2.783   2.790  0.3384  0.1262 -0.0615
  320SOL    HW1  959   0.489   2.836   2.719 -1.2978 -1.8094  3.2217
  320SOL    HW2  960   0.492   2.808   2.880  1.0740  2.2825 -3.6875
  321SOL     OW  961   1.148   3.071   3.005 -0.1628  0.2916  0.3827
  321SOL    HW1  962   1.215   0.000   3.077  4.5538  0.6400 -2.3372
  321SOL    HW2  963   1.056   3.063   3.049 -0.9033 -0.8793  0.8301
  322SOL     OW  964   2.295   1.159   1.998 -0.0337 -0.3605  0.1031
  322SOL    HW1  965   2.310   1.136   2.096  0.6422 -2.2724  4.2344
  322SOL    HW2  966   2.389   1.190   1.962  2.3976 -0.2703 -1.3954
  323SOL     OW  967   2.461   0.829   0.390 -0.1114  0.3812  0.3555
  323SOL    HW1  968   2.361   0.857   0.387 -1.9428 -0.0608 -1.8621
  323SOL    HW2  969   2.481   0.755   0.325  1.3345  0.2143 -2.5633
  324SOL     OW  970   0.099   0.528   2.736  0.5508  0.1577 -0.8323
  324SOL    HW1  971   0.044   0.452   2.773 -0.5676 -0.2951 -1.8251
  324SOL    HW2  972   0.172   0.492   2.675 -5.1839  0.8539  1.2550
  325SOL     OW  973   1.457   2.832   2.100  0.0029  0.3351  0.0585
  325SOL    HW1  974   1.460   2.869   2.004 -0.0854 -0.6670 -0.0422
  325SOL    HW2  975   1.373   2.775   2.113 -0.4271 -2.3335 -0.0426
  326SOL     OW  976   2.346   0.004   1.499  0.3248 -0.0749  0.0193
  326SOL    HW1  977   2.247   3.085   1.478 -0.1621  0.0062  0.4583
  326SOL    HW2  978   2.382   0.068   1.425  1.6783 -1.3287 -0.3578
  327SOL     OW  979   1.859   0.725   2.913  0.5238 -0.6953  0.2352
  327SOL    HW1  980   1.887   0.635   2.959 -3.1741  0.1371 -0.9672
  327SOL    HW2  981   1.943   0.772   2.887  0.8287  0.5829  0.7064
  328SOL     OW  982   3.022   1.433   2.107 -0.5191 -0.3615 -0.5375
  328SOL    HW1  983   3.091   1.364   2.141 -1.0854 -2.9219  0.0381
  328SOL    HW2  984   3.023   1.518   2.166  1.4307  2.9546  1.0633
  329SOL     OW  985   1.577   2.516   1.769  0.3854  0.0779  0.1553
  329SOL    HW1  986   1.489   2.527   1.819 -0.0360  1.6892 -0.9639
  329SOL    HW2  987   1.602   2.606   1.730  0.5193  1.4728 -0.6902
  330SOL     OW  988   2.634   1.499   1.844 -0.2643 -0.0227  0.5071
  330SOL    HW1  989   2.696   1.534   1.770  1.1316  2.6607 -2.1818
  330SOL    HW2  990   2.668   1.527   1.938 -0.2599  0.5843 -0.8398
  331SOL     OW  991   3.057   2.132   0.596 -0.6986  0.1229 -0.1164
  331SOL    HW1  992   0.043   2.083   0.636 -0.1635 -1.2227 -0.0397
  331SOL    HW2  993   3.083   2.210   0.535 -4.1854  0.9852 -0.8857
  332SOL     OW  994   0.716   0.638   1.072 -0.4357 -0.1085  0.0326
  332SOL    HW1  995   0.668   0.698   1.141 -2.5699  0.5552 -0.3511
  332SOL    HW2  996   0.806   0.676   1.034 -2.1223  0.9242  0.5548
  333SOL     OW  997   2.059   2.806   2.266  0.5940 -0.1126 -0.5464
  333SOL    HW1  998   1.978   2.837   2.319 -1.0010 -2.2125 -0.0587
  333SOL    HW2  999   2.132   2.787   2.333 -0.8316  2.2478  0.7977
  334SOL     OW 1000   1.150   1.148   1.116 -0.6304 -0.0380 -0.4017
  334SOL    HW1 1001   1.237   1.100   1.112  1.6759  0.4353  0.1923
  334SOL    HW2 1002   1.153   1.207   1.201 -0.3319 -1.3231  0.0659
  335SOL     OW 1003   0.185   2.640   2.638 -0.2809 -0.5833  0.6387
  335SOL    HW1 1004   0.083   2.665   2.642 -1.1443 -0.5811  0.9043
  335SOL    HW2 1005   0.222   2.630   2.729 -2.0454 -0.0714  0.4372
  336SOL     OW 1006   2.617   2.398   1.960 -0.3297  0.4530  0.2256
  336SOL    HW1 1007   2.685   2.467   1.977  0.8654  0.2615 -0.9483
  336SOL    HW2 1008   2.611   2.377   1.859  0.2237 -1.4238 -2.9373
  337SOL     OW 1009   2.175   1.564   0.421 -0.3610 -0.0206  0.1559
  337SOL    HW1 1010   2.244   1.546   0.495  0.9389 -0.2781 -1.3786
  337SOL    HW2 1011   2.216   1.554   0.327  2.8748  1.0275 -0.1724
  338SOL     OW 1012   1.112   1.839   1.360 -0.0038  0.0576  0.1401
  338SOL    HW1 1013   1.113   1.827   1.458 -1.9919  0.0452 -1.4792
  338SOL    HW2 1014   1.155   1.927   1.339  1.0272  1.3461  0.5628
  339SOL     OW 1015   3.088   0.539   1.112 -0.5735 -0.1731 -0.0734
  339SOL    HW1 1016   0.056   0.573   1.185  0.6914 -0.8962 -0.7528
  339SOL    HW2 1017   2.991   0.577   1.126 -2.6456  0.5367  0.8787
  340SOL     OW 1018   1.675   2.744   1.669  0.8653  0.0071  0.5831
  340SOL    HW1 1019   1.710   2.793   1.585  1.2267  1.6192  1.7982
  340SOL    HW2 1020   1.734   2.765   1.748 -2.6907  0.5369 -0.0865
  341SOL     OW 1021   2.215   1.420   0.827 -0.2992  0.0441 -0.2897
  341SOL    HW1 1022   2.258   1.471   0.906 -2.5417 -2.0788  1.0596
  341SOL    HW2 1023   2.120   1.454   0.814  0.0288 -0.6411  1.5794
  342SOL     OW 1024   0.624   1.762   0.720  0.1526 -0.4313 -0.6008
  342SOL    HW1 1025   0.652   1.751   0.821 -3.0041  0.8340  4.4528
  342SOL    HW2 1026   0.552   1.695   0.699 -2.3007 -0.2101  0.0147
  343SOL     OW 1027   2.533   0.948   1.461 -0.2461 -0.2536  0.5004
  343SOL    HW1 1028   2.447   0.941   1.513  2.3237 -0.7253  0.9139
  343SOL    HW2 1029   2.613   0.916   1.521  1.7400 -1.5829  1.8475
  344SOL     OW 1030   2.315   0.250   0.893  0.0417  0.2662  0.8575
  344SOL    HW1 1031   2.332   0.314   0.814 -1.2660  0.3715 -3.8302
  344SOL    HW2 1032   2.399   0.205   0.932  0.8797 -0.3500  0.0648
  345SOL     OW 1033   2.811   2.633   2.418 -0.4613 -0.0372  0.3355
  345SOL    HW1 1034   2.822   2.688   2.504 -0.2986  2.2203 -0.6681
  345SOL    HW2 1035   2.729   2.660   2.366  2.6532 -1.8973  0.6978
  346SOL     OW 1036   2.998   1.098   0.497  0.9397 -0.3131  0.3323
  346SOL    HW1 1037   2.980   1.129   0.402 -1.7988  1.8024 -0.1845
  346SOL    HW2 1038   3.077   1.031   0.499  1.1589  0.5905 -0.0879
  347SOL     OW 1039   1.722   2.662   1.297  0.6763 -0.6427 -0.2935
  347SOL    HW1 1040   1.677   2.747   1.335 -0.5835  2.4660  0.6091
  347SOL    HW2 1041   1.720   2.579   1.360 -2.4482  1.1051  0.1170
  348SOL     OW 1042   1.208   0.939   1.782 -0.0887 -1.0708  0.4199
  348SOL    HW1 1043   1.288   0.971   1.836 -1.4335  1.5763 -1.2619
  348SOL    HW2 1044   1.120   0.938   1.835 -0.1111  0.4390  0.2684
  349SOL     OW 1045   2.448   1.599   2.263  0.0143  0.2127  0.3049
  349SOL    HW1 1046   2.395   1.609   2.348  1.1835 -2.0722  0.6618
  349SOL    HW2 1047   2.531   1.548   2.281 -2.4074  0.1368 -0.7225
  350SOL     OW 1048   2.983   2.138   0.873 -0.0236 -0.4915  0.3274
  350SOL    HW1 1049   3.044   2.149   0.794  1.6668 -2.0638  0.5402
  350SOL    HW2 1050   2.896   2.102   0.835 -0.3268 -1.5340  2.5279
  351SOL     OW 1051   0.131   0.389   1.519 -0.1365  0.0816 -0.1508
  351SOL    HW1 1052   0.072   0.377   1.601 -0.1451 -3.7830 -1.5321
  351SOL    HW2 1053   0.191   0.469   1.536  1.0504 -2.6211 -2.2058
  352SOL     OW 1054   0.910   2.837   1.712 -0.2685 -0.4048  0.1594
  352SOL    HW1 1055   0.838   2.889   1.770  1.5005  0.0617 -1.0236
  352SOL    HW2 1056   0.875   2.752   1.666 -1.0159 -0.8968 -0.7296
  353SOL     OW 1057   0.767   1.448   2.332  0.6230 -0.1316 -0.2233
  353SOL    HW1 1058   0.869   1.436   2.332 -0.0172  0.1843  1.2131
  353SOL    HW2 1059   0.732   1.526   2.392 -1.6539  2.4198  2.3129
  354SOL     OW 1060   1.375   1.741   0.260 -0.0470 -0.1021  0.2869
  354SOL    HW1 1061   1.288   1.694   0.271 -1.0076  0.5379  3.1168
  354SOL    HW2 1062   1.387   1.794   0.346  0.9218  0.8549  0.0248
  355SOL     OW 1063   2.087   0.202   0.715 -0.2875  0.2045 -0.3253
  355SOL    HW1 1064   2.036   0.234   0.797 -0.9114  0.0912 -2.4542
  355SOL    HW2 1065   2.183   0.213   0.734 -2.4600  1.2600 -1.4485
  356SOL     OW 1066   0.113   1.306   3.068 -0.2959 -0.7788  0.1890
  356SOL    HW1 1067   0.210   1.288   3.093  0.5050 -1.2876  0.1354
  356SOL    HW2 1068   0.062   1.333   0.056 -0.4743 -1.2143  0.8965
  357SOL     OW 1069   2.881   3.045   2.055  0.5100 -0.3028 -0.1361
  357SOL    HW1 1070   2.930   0.035   2.071  1.1815 -0.2167 -2.9757
  357SOL    HW2 1071   2.892   3.012   1.960 -1.3869 -0.5088  0.0198
  358SOL     OW 1072   0.512   1.253   2.644 -0.3078  0.0195  0.0976
  358SOL    HW1 1073   0.462   1.340   2.624 -2.4686 -0.2017  0.6979
  358SOL    HW2 1074   0.453   1.171   2.651  1.3837  1.9608 -2.2151
  359SOL     OW 1075   2.519   2.573   2.547  0.2921 -0.1842  0.2436
  359SOL    HW1 1076   2.426   2.583   2.593 -0.7254 -1.6546 -1.1745
  359SOL    HW2 1077   2.502   2.530   2.455 -2.9618  1.0502 -0.0674
  360SOL     OW 1078   1.593   1.522   0.869  0.2121  0.0380 -0.6247
  360SOL    HW1 1079   1.495   1.532   0.842  3.3645 -1.5796  0.4157
  360SOL    HW2 1080   1.590   1.462   0.951 -0.2924 -1.5661  2.0482
  361SOL     OW 1081   1.976   2.099   1.173 -0.0543 -0.3353  0.3482
  361SOL    HW1 1082   1.976   2.115   1.275 -1.8909 -1.3063  0.6192
  361SOL    HW2 1083   2.047   2.032   1.141  0.5350  2.4097 -2.3351
  362SOL     OW 1084   1.949   1.468   0.800 -0.0902  0.5120  0.6801
  362SOL    HW1 1085   1.977   1.455   0.701 -0.0920  0.0180 -2.8137
  362SOL    HW2 1086   1.914   1.561   0.812  1.6577  0.4726 -0.5785
  363SOL     OW 1087   2.618   2.165   0.524 -0.1327 -0.2089 -0.2749
  363SOL    HW1 1088   2.558   2.094   0.481 -0.4412 -2.0849 -1.5068
  363SOL    HW2 1089   2.684   2.193   0.449 -0.0182 -0.3676  1.0212
  364SOL     OW 1090   2.483   0.146   1.274  0.6430  0.3084  0.3788
  364SOL    HW1 1091   2.482   0.132   1.174  0.7189 -1.4536  2.0067
  364SOL    HW2 1092   2.577   0.173   1.301  1.2538 -0.4599  0.8801
  365SOL     OW 1093   0.425   2.718   1.157  0.2337  0.0177  0.7523
  365SOL    HW1 1094   0.424   2.805   1.104 -0.6480 -0.7061  1.3021
  365SOL    HW2 1095   0.333   2.669   1.162  0.3608 -1.6377 -0.7399
  366SOL     OW 1096   2.950   1.399   0.384  0.6729  0.1764  0.6864
  366SOL    HW1 1097   2.874   1.331   0.390  2.1366  0.3652 -1.5260
  366SOL    HW2 1098   2.969   1.425   0.480  2.0549 -2.5759  0.6693
  367SOL     OW 1099   2.182   2.333   2.787 -0.0345  0.3817 -0.6655
  367SOL    HW1 1100   2.129   2.270   2.853 -1.0891  0.1140  2.1932
  367SOL    HW2 1101   2.246   2.275   2.730  0.4646 -1.2205 -2.5765
  368SOL     OW 1102   2.437   2.088   0.957  0.3491 -0.4749 -0.0792
  368SOL    HW1 1103   2.517   2.126   1.009 -1.7027  0.0298  0.1315
  368SOL    HW2 1104   2.387   2.016   1.013  2.0172  0.8622  0.7239
  369SOL     OW 1105   0.796   1.218   0.774  0.1212 -0.3202 -0.0124
  369SOL    HW1 1106   0.795   1.118   0.776  0.4195 -2.1653 -1.4356
  369SOL    HW2 1107   0.887   1.257   0.811  3.2914  0.0828 -0.6387
  370SOL     OW 1108   0.776   0.114   0.698  0.2812 -0.1433  0.2600
  370SOL    HW1 1109   0.767   0.138   0.794 -1.7669  0.8032  0.4064
  370SOL    HW2 1110   0.852   0.167   0.650  0.0895  0.0089 -1.4718
  371SOL     OW 1111   2.663   1.149   2.802  0.1723  0.7080 -0.2129
  371SOL    HW1 1112   2.742   1.089   2.833  0.3250 -1.5711  1.6851
  371SOL    HW2 1113   2.578   1.107   2.836 -0.1551  0.4415  0.7429
  372SOL     OW 1114   0.494   0.562   2.624  0.1365 -0.4096  0.1037
  372SOL    HW1 1115   0.565   0.492   2.635 -2.4326 -0.8144 -2.3586
  372SOL    HW2 1116   0.404   0.519   2.597 -1.1722  1.0652 -2.1735
  373SOL     OW 1117   0.481   0.681   2.888 -0.0831  0.0703 -0.3484
  373SOL    HW1 1118   0.474   0.651   2.790  0.1330  1.2952 -1.1377
  373SOL    HW2 1119   0.582   0.682   2.914  3.1713  1.0844 -1.7452
  374SOL     OW 1120   0.984   2.489   3.081 -0.1294  0.1874 -0.1372
  374SOL    HW1 1121   0.979   2.531   2.988  3.5167 -0.4568 -0.1203
  374SOL    HW2 1122   1.034   2.557   0.044 -2.1882  2.3664  0.8955
  375SOL     OW 1123   1.060   0.084   0.552 -0.1981  0.0915  0.5967
  375SOL    HW1 1124   1.073   0.030   0.639 -0.5279 -0.1099 -0.0288
  375SOL    HW2 1125   1.030   0.180   0.570 -2.2617  0.0192 -0.5046
  376SOL     OW 1126   2.986   2.361   1.970 -0.1566 -0.2029  0.4532
  376SOL    HW1 1127   2.965   2.426   2.045 -0.9487 -0.6236 -0.1681
  376SOL    HW2 1128   3.036   2.410   1.898  0.1812 -0.3374 -1.1235
  377SOL     OW 1129   2.629   1.944   0.077  0.5961  0.3713  0.0974
  377SOL    HW1 1130   2.526   1.953   0.072 -2.0071  1.2800  2.1285
  377SOL    HW2 1131   2.678   2.006   0.014  0.2236  0.8146 -0.4409
  378SOL     OW 1132   1.808   0.802   0.804  0.2655 -0.4292  0.0601
  378SOL    HW1 1133   1.822   0.706   0.765 -0.7505  1.3226 -0.7121
  378SOL    HW2 1134   1.850   0.816   0.895 -0.8882 -0.3820  1.4644
  379SOL     OW 1135   1.256   1.193   0.726 -0.4113 -0.1478 -0.2213
  379SOL    HW1 1136   1.255   1.095   0.687  0.4454 -1.3526 -1.5264
  379SOL    HW2 1137   1.287   1.262   0.652  1.6319  0.1526 -5.3450
  380SOL     OW 1138   2.625   1.915   1.913  0.4920 -0.3538 -0.0275
  380SOL    HW1 1139   2.695   1.856   1.872  1.0421  2.0845 -0.8723
  380SOL    HW2 1140   2.669   1.996   1.955 -0.1891  0.4534  0.6948
  381SOL     OW 1141   0.092   1.235   2.184  0.2875 -0.0389  0.5142
  381SOL    HW1 1142   0.069   1.167   2.256  1.0913 -0.1000  0.1873
  381SOL    HW2 1143   0.158   1.198   2.117 -1.9663  1.0053  4.8518
  382SOL     OW 1144   2.871   2.376   0.161 -0.5822 -0.2253  0.5434
  382SOL    HW1 1145   2.818   2.289   0.181 -0.9489 -3.3936  0.1187
  382SOL    HW2 1146   2.816   2.448   0.106 -1.3543  1.7631  0.1031
  383SOL     OW 1147   1.458   0.942   2.210 -0.2174  0.0035 -0.2867
  383SOL    HW1 1148   1.506   1.028   2.226 -0.1214 -3.4421 -1.3799
  383SOL    HW2 1149   1.513   0.872   2.262  2.1162 -0.3599  0.7894
  384SOL     OW 1150   1.097   2.025   2.571 -0.0323  0.6774 -0.7142
  384SOL    HW1 1151   1.086   1.986   2.664 -2.7335 -2.9690 -0.5985
  384SOL    HW2 1152   1.007   2.067   2.538 -1.3479  4.3554 -0.2661
  385SOL     OW 1153   2.199   2.219   0.159 -0.2839  0.1005  0.0987
  385SOL    HW1 1154   2.144   2.298   0.133  1.6904  0.3153  2.8593
  385SOL    HW2 1155   2.293   2.240   0.190 -2.5598 -0.4134 -0.1526
  386SOL     OW 1156   1.499   1.203   0.212 -0.2125  0.6331 -0.5307
  386SOL    HW1 1157   1.534   1.295   0.243  0.1028  0.8525 -0.0473
  386SOL    HW2 1158   1.529   1.139   0.287  2.3691 -2.1530  0.0303
  387SOL     OW 1159   2.915   1.087   1.269 -0.6707 -0.3008 -0.4673
  387SOL    HW1 1160   2.874   1.178   1.255 -2.2025 -0.1348 -0.3760
  387SOL    HW2 1161   2.963   1.062   1.186  0.2257  1.7113  1.7059
  388SOL     OW 1162   0.351   0.917   1.225  0.3624  0.3346  0.0991
  388SOL    HW1 1163   0.254   0.947   1.238 -1.0905 -0.0036 -0.3277
  388SOL    HW2 1164   0.350   0.825   1.187 -2.5186 -1.4277 -0.8143
  389SOL     OW 1165   2.226   1.144   2.271 -0.3237 -0.1489 -0.5478
  389SOL    HW1 1166   2.239   1.154   2.372  3.5152 -0.0817  1.8734
  389SOL    HW2 1167   2.152   1.207   2.243 -1.2267 -0.6750 -0.5943
  390SOL     OW 1168   1.295   2.101   0.466 -0.0382  1.1058 -0.4171
  390SOL    HW1 1169   1.274   2.084   0.368 -0.1305  1.4441  4.0870
  390SOL    HW2 1170   1.394   2.073   0.486  2.0404 -2.8754  0.8197
  391SOL     OW 1171   1.049   2.099   1.052  0.3835 -0.6025  0.8698
  391SOL    HW1 1172   1.124   2.042   1.018 -1.4039 -0.7969 -3.1998
  391SOL    HW2 1173   0.956   2.053   1.030 -1.4705  0.7674  0.6215
  392SOL     OW 1174   2.364   2.465   2.068  0.3924  0.0333  0.0303
  392SOL    HW1 1175   2.310   2.548   2.032 -0.4783  0.1496 -0.0968
  392SOL    HW2 1176   2.446   2.442   2.005  2.6285 -1.2287 -0.2217
  393SOL     OW 1177   1.394   1.937   3.088 -0.0683  0.8282  0.4478
  393SOL    HW1 1178   1.424   2.033   3.071  0.2199  0.9137  0.2876
  393SOL    HW2 1179   1.475   1.874   3.082 -1.4931 -2.4713  0.5824
  394SOL     OW 1180   0.129   0.488   2.262  0.1469  0.3010  0.1946
  394SOL    HW1 1181   0.097   0.560   2.199  0.3546  1.1002 -0.2814
  394SOL    HW2 1182   0.227   0.473   2.248 -1.6563 -0.1620  1.2494
  395SOL     OW 1183   0.279   1.063   0.740 -0.0986 -0.2023 -0.4120
  395SOL    HW1 1184   0.337   1.112   0.806 -0.1775  0.3041 -2.9224
  395SOL    HW2 1185   0.339   1.021   0.663  0.5648  2.8631 -3.1039
  396SOL     OW 1186   2.409   0.979   2.710 -0.4797  0.0156  0.2971
  396SOL    HW1 1187   2.351   0.923   2.647  1.3979  0.2945 -2.5546
  396SOL    HW2 1188   2.464   1.038   2.644  0.8036  0.3413 -0.7196
  397SOL     OW 1189   0.480   0.820   0.033 -0.0001 -0.0969  0.0503
  397SOL    HW1 1190   0.456   0.902   3.075 -2.3315 -1.9717  2.5578
  397SOL    HW2 1191   0.514   0.750   3.064  1.5700 -2.5110 -0.1984
  398SOL     OW 1192   1.168   2.790   0.503  0.5664 -0.1299  0.3352
  398SOL    HW1 1193   1.255   2.843   0.517 -0.6833 -2.2025  3.6503
  398SOL    HW2 1194   1.086   2.851   0.490 -1.6640 -0.2510  0.9922
  399SOL     OW 1195   2.011   2.524   1.907 -0.0639 -0.0893 -0.2475
  399SOL    HW1 1196   1.920   2.493   1.939 -0.6359  2.0418 -1.2146
  399SOL    HW2 1197   2.066   2.445   1.877 -0.0858  0.1080  1.5908
  400SOL     OW 1198   3.075   1.289   1.617  0.5125  0.1082 -0.4237
  400SOL    HW1 1199   3.069   1.199   1.668 -0.4601 -1.7111  2.3995
  400SOL    HW2 1200   3.072   1.364   1.686  1.5032  1.1124 -1.4206
  401SOL     OW 1201   0.479   0.949   0.587  0.4592 -0.3833 -0.1774
  401SOL    HW1 1202   0.501   0.856   0.554 -4.1599 -1.4870  0.5711
  401SOL    HW2 1203   0.522   0.951   0.681  0.6658 -1.8702 -1.3132
  402SOL     OW 1204   0.627   2.973   2.380  0.6694 -0.5566 -0.8663
  402SOL    HW1 1205   0.725   2.945   2.357  1.0584 -0.9998  1.0041
  402SOL    HW2 1206   0.556   2.922   2.325  0.2000 -3.7323 -2.6123
  403SOL     OW 1207   2.823   1.809   1.742  0.0114  0.3568 -0.3149
  403SOL    HW1 1208   2.913   1.810   1.792 -1.9020  0.8987 -1.4671
  403SOL    HW2 1209   2.809   1.716   1.701  2.5825 -0.5772 -0.1138
  404SOL     OW 1210   2.694   2.136   2.057 -0.1635 -0.6761 -0.7836
  404SOL    HW1 1211   2.745   2.122   2.144 -0.7737  2.9107 -0.6079
  404SOL    HW2 1212   2.641   2.223   2.052  1.1477  0.0827 -3.4116
  405SOL     OW 1213   1.960   0.154   2.752  0.1435  0.1677  0.4175
  405SOL    HW1 1214   1.980   0.055   2.720 -1.1475 -3.1294 -0.1285
  405SOL    HW2 1215   1.932   0.216   2.673  1.2487  1.5954 -3.2294
  406SOL     OW 1216   1.008   1.902   0.270 -0.0487  0.6400 -0.3406
  406SOL    HW1 1217   1.105   1.911   0.295 -0.5178 -0.5115  0.5277
  406SOL    HW2 1218   0.954   1.979   0.306  2.1549 -1.7728 -1.2213
  407SOL     OW 1219   1.245   1.173   0.117 -0.2988  0.3109 -0.7771
  407SOL    HW1 1220   1.231   1.208   0.025  0.9229  0.7910  3.0118
  407SOL    HW2 1221   1.342   1.176   0.145  0.6808 -0.4182  2.1655
  408SOL     OW 1222   0.395   0.393   1.346 -0.0223  0.2119  0.2871
  408SOL    HW1 1223   0.333   0.382   1.424  3.5163 -0.8610  0.9615
  408SOL    HW2 1224   0.485   0.423   1.380 -0.9449 -0.1825 -0.9648
  409SOL     OW 1225   2.849   1.493   2.933  0.1419  0.2148 -0.4951
  409SOL    HW1 1226   2.780   1.461   2.862 -0.8475 -0.8508 -1.2657
  409SOL    HW2 1227   2.816   1.582   2.970 -1.4704  0.2307  1.1034
  410SOL     OW 1228   2.763   2.676   0.738  0.0675 -0.4201 -0.6233
  410SOL    HW1 1229   2.758   2.729   0.828 -1.0308  0.4173  1.4101
  410SOL    HW2 1230   2.789   2.578   0.749 -0.3098 -0.1742 -0.6952
  411SOL     OW 1231   3.041   0.727   0.509 -0.0076 -0.2597  0.2700
  411SOL    HW1 1232   3.025   0.717   0.611 -1.9010 -0.5503  1.3095
  411SOL    HW2 1233   2.960   0.682   0.461  0.4344 -0.0296 -1.0028
  412SOL     OW 1234   1.743   2.970   0.336  0.0051 -0.5458  0.0765
  412SOL    HW1 1235   1.717   3.046   0.276  1.8520 -0.9563 -1.2179
  412SOL    HW2 1236   1.676   2.896   0.324 -0.1556  0.5131 -0.0641
  413SOL     OW 1237   1.436   0.283   1.890  0.8402 -0.0761 -0.1937
  413SOL    HW1 1238   1.370   0.208   1.907  0.3590 -0.1318  3.8782
  413SOL    HW2 1239   1.387   0.375   1.891  0.0341 -0.9216 -0.5500
  414SOL     OW 1240   0.248   1.191   0.380  0.0215 -0.3589  0.0066
  414SOL    HW1 1241   0.202   1.104   0.414 -0.7776 -1.4412  2.0249
  414SOL    HW2 1242   0.348   1.185   0.383 -0.5596  1.4246 -1.4548
  415SOL     OW 1243   2.715   1.553   0.255 -0.2363 -0.3807 -0.6764
  415SOL    HW1 1244   2.751   1.488   0.185  1.3492  1.5336 -1.7090
  415SOL    HW2 1245   2.648   1.510   0.318 -0.2000  2.2500 -3.5756
  416SOL     OW 1246   2.652   0.477   2.908 -0.1226  0.3333  0.3296
  416SOL    HW1 1247   2.573   0.515   2.859  1.0989  1.1726  2.0139
  416SOL    HW2 1248   2.687   0.535   2.981 -0.8575 -2.0291  0.5805
  417SOL     OW 1249   2.540   2.981   0.564 -0.1670  0.5218  1.1142
  417SOL    HW1 1250   2.559   3.002   0.463  0.5452 -0.0281  1.6719
  417SOL    HW2 1251   2.446   2.948   0.589  0.9069  0.2616 -1.9522
  418SOL     OW 1252   0.496   0.442   0.076 -0.1845 -0.3555 -0.1237
  418SOL    HW1 1253   0.545   0.509   0.136 -0.1755  0.6528  0.2208
  418SOL    HW2 1254   0.406   0.470   0.047 -1.8858 -2.0749 -0.0154
  419SOL     OW 1255   0.533   0.918   0.871  0.4234 -0.0847  0.0089
  419SOL    HW1 1256   0.501   0.981   0.943  0.3081  0.0406 -1.2177
  419SOL    HW2 1257   0.510   0.817   0.891  1.1677 -2.5246 -0.6556
  420SOL     OW 1258   0.154   0.841   0.867 -0.1440  0.0031 -0.0893
  420SOL    HW1 1259   0.191   0.915   0.810 -1.2692 -1.0132 -1.8427
  420SOL    HW2 1260   0.104   0.882   0.946  0.3837  0.0472  0.0092
  421SOL     OW 1261   0.680   2.125   0.115  0.0793  0.0049 -0.3210
  421SOL    HW1 1262   0.627   2.212   0.107  2.5103 -2.7870  0.1286
  421SOL    HW2 1263   0.734   2.102   0.033  0.4791 -0.3950 -0.2180
  422SOL     OW 1264   2.554   0.261   2.118  0.0069  0.3693 -0.4521
  422SOL    HW1 1265   2.614   0.239   2.197  0.8771  2.6466 -2.5489
  422SOL    HW2 1266   2.462   0.309   2.142 -0.3660  2.9483 -1.7018
  423SOL     OW 1267   1.935   1.723   3.006 -0.1489 -0.6716 -0.6281
  423SOL    HW1 1268   1.982   1.776   3.079  0.2595 -1.0803 -0.5555
  423SOL    HW2 1269   1.859   1.777   2.965 -0.8046  1.5116 -1.0389
  424SOL     OW 1270   1.637   1.394   2.378 -0.1819  0.2002 -0.1177
  424SOL    HW1 1271   1.718   1.452   2.381 -0.5789 -1.5442 -2.8733
  424SOL    HW2 1272   1.600   1.383   2.472 -2.7286 -1.5010  1.8836
  425SOL     OW 1273   2.996   2.664   2.219  0.2430 -0.0497  0.1678
  425SOL    HW1 1274   3.084   2.608   2.209 -0.6856  0.2736 -0.0584
  425SOL    HW2 1275   2.938   2.626   2.295  1.3317 -1.6396  0.8548
  426SOL     OW 1276   2.234   2.702   0.526  0.4470  0.1563 -0.1108
  426SOL    HW1 1277   2.147   2.656   0.553 -0.3535 -0.6958  1.0665
  426SOL    HW2 1278   2.261   2.773   0.588  0.3019 -4.9673 -1.1426
  427SOL     OW 1279   0.602   0.940   2.374 -0.0527  0.3344  0.2700
  427SOL    HW1 1280   0.630   1.033   2.397 -0.7814 -1.2620 -0.9195
  427SOL    HW2 1281   0.669   0.869   2.417 -1.2278 -2.2569 -0.3867
  428SOL     OW 1282   2.850   1.308   2.574  0.1280 -0.0917  0.3232
  428SOL    HW1 1283   2.847   1.209   2.599  1.0548  0.1558  2.0426
  428SOL    HW2 1284   2.798   1.365   2.645  1.5207  1.6937  2.6660
  429SOL     OW 1285   2.412   0.232   0.480 -0.5405  0.0651 -0.6671
  429SOL    HW1 1286   2.510   0.206   0.491  2.1550  1.5876  0.2305
  429SOL    HW2 1287   2.349   0.155   0.470  3.2700  1.7362 -0.2555
  430SOL     OW 1288   1.594   1.747   2.322  0.2737 -1.0531  0.3774
  430SOL    HW1 1289   1.594   1.726   2.221  2.5883  0.1060 -1.2035
  430SOL    HW2 1290   1.517   1.807   2.348  0.5846 -1.5356 -1.7896
  431SOL     OW 1291   0.100   1.719   1.727 -0.7287  0.3046 -0.6199
  431SOL    HW1 1292   0.038   1.772   1.792 -0.2980 -2.1229  0.8132
  431SOL    HW2 1293   0.161   1.781   1.670 -2.0308 -1.1326 -3.0498
  432SOL     OW 1294   1.371   1.906   2.408  0.0676  0.0896 -0.2631
  432SOL    HW1 1295   1.396   1.953   2.320  1.6184  0.6113 -2.2135
  432SOL    HW2 1296   1.281   1.940   2.449 -3.9989  3.5052  1.5950
  433SOL     OW 1297   0.820   2.339   0.444 -0.3389 -0.3215  0.1055
  433SOL    HW1 1298   0.829   2.410   0.370 -0.0750 -0.3091 -1.3429
  433SOL    HW2 1299   0.730   2.328   0.479  1.6020  1.0858  1.6485
  434SOL     OW 1300   0.293   2.123   2.563  0.2349 -0.0702 -0.0345
  434SOL    HW1 1301   0.263   2.212   2.604  0.2911 -0.6498 -0.1236
  434SOL    HW2 1302   0.317   2.135   2.464 -0.1654  1.7773 -0.8051
  435SOL     OW 1303   0.237   1.501   0.502  0.1426 -0.1419 -0.0133
  435SOL    HW1 1304   0.152   1.531   0.553  1.7812 -1.3762  1.0288
  435SOL    HW2 1305   0.242   1.404   0.468  3.7448 -0.3866 -0.3791
  436SOL     OW 1306   0.016   2.479   1.769  0.3367 -0.0071  0.1473
  436SOL    HW1 1307   3.067   2.541   1.703 -0.1653 -1.2432 -0.0352
  436SOL    HW2 1308   0.039   2.388   1.730  2.4099  0.6074 -2.8141
  437SOL     OW 1309   1.176   0.395   0.435 -0.4903 -0.1378  0.1204
  437SOL    HW1 1310   1.175   0.319   0.362 -0.8921 -3.1232 -3.1673
  437SOL    HW2 1311   1.141   0.486   0.398 -0.2264 -2.2665 -1.6249
  438SOL     OW 1312   0.513   2.359   0.892 -0.0003 -0.1116 -0.7147
  438SOL    HW1 1313   0.558   2.410   0.964 -1.9609  0.0567 -3.5628
  438SOL    HW2 1314   0.410   2.372   0.902  0.5809 -1.3716  0.2840
  439SOL     OW 1315   0.623   2.515   1.662  0.2114  0.2342  0.5813
  439SOL    HW1 1316   0.670   2.559   1.586 -1.2979 -0.6476 -0.1663
  439SOL    HW2 1317   0.527   2.535   1.665  1.4098 -1.4907  1.8103
  440SOL     OW 1318   1.503   2.917   1.854  0.2929 -0.2277 -0.5591
  440SOL    HW1 1319   1.565   2.992   1.839 -0.2610 -2.3662 -0.9950
  440SOL    HW2 1320   1.527   2.844   1.788 -1.2745  2.7913  1.5253
  441SOL     OW 1321   3.083   0.323   1.299  0.2636  0.1904  0.4541
  441SOL    HW1 1322   0.049   0.322   1.381  1.6097  1.5490 -1.4247
  441SOL    HW2 1323   0.009   0.399   1.233 -0.4183 -1.5855 -0.5560
  442SOL     OW 1324   1.766   2.131   0.680 -0.0978 -0.2892 -0.0745
  442SOL    HW1 1325   1.717   2.066   0.745 -0.5619 -0.9602  2.5632
  442SOL    HW2 1326   1.865   2.136   0.699 -0.2590 -2.3469 -1.4690
  443SOL     OW 1327   2.821   0.352   2.356 -0.2350 -0.1563 -0.0515
  443SOL    HW1 1328   2.917   0.328   2.329  3.7330 -2.3957  1.8170
  443SOL    HW2 1329   2.756   0.276   2.346  2.1005 -0.5358  0.0069
  444SOL     OW 1330   2.198   0.934   1.823  0.4166 -0.1018 -0.7328
  444SOL    HW1 1331   2.154   1.027   1.836  0.1184  1.4028 -0.4051
  444SOL    HW2 1332   2.130   0.858   1.848 -1.7450 -0.0071 -1.2970
  445SOL     OW 1333   2.577   2.342   1.409 -0.2458 -0.6100 -0.4664
  445SOL    HW1 1334   2.479   2.338   1.432  1.5938 -1.5558 -0.6479
  445SOL    HW2 1335   2.583   2.344   1.307 -4.6069 -1.7358 -2.6741
  446SOL     OW 1336   2.795   1.563   0.642  0.4561  0.4012  0.3455
  446SOL    HW1 1337   2.727   1.489   0.652  0.1412  1.6869  1.5522
  446SOL    HW2 1338   2.885   1.517   0.643 -1.9764  0.2143 -0.5467
  447SOL     OW 1339   0.699   1.468   0.627 -0.0821 -0.2527 -0.0767
  447SOL    HW1 1340   0.723   1.377   0.663 -2.2041  0.7062  0.6438
  447SOL    HW2 1341   0.767   1.539   0.645 -1.8626 -2.3113 -0.3974
  448SOL     OW 1342   1.456   1.370   1.420  0.5729  0.2080 -0.5662
  448SOL    HW1 1343   1.543   1.332   1.452 -1.8102 -0.6363  2.6491
  448SOL    HW2 1344   1.465   1.467   1.388 -2.5380 -1.2438  1.8515
  449SOL     OW 1345   0.802   1.345   3.095 -0.3903  0.3103 -0.0670
  449SOL    HW1 1346   0.715   1.361   0.051  0.7310 -1.3525  1.2743
  449SOL    HW2 1347   0.781   1.298   3.008 -0.4152  0.1479  0.2157
  450SOL     OW 1348   2.301   2.195   2.040 -0.2109  0.8399 -0.0421
  450SOL    HW1 1349   2.341   2.148   1.954  0.2078 -0.3513 -4.5948
  450SOL    HW2 1350   2.335   2.293   2.046  1.5961  1.8491 -2.2264
  451SOL     OW 1351   1.849   3.042   2.278  0.2242 -1.0116  0.4026
  451SOL    HW1 1352   1.849   2.975   2.353  0.3904 -1.3712 -3.3977
  451SOL    HW2 1353   1.919   0.021   2.296  1.8164 -1.4018  2.6371
  452SOL     OW 1354   1.181   0.035   1.585 -0.0112 -0.2687 -0.4200
  452SOL    HW1 1355   1.105   0.090   1.547 -1.2225 -0.2478 -0.3653
  452SOL    HW2 1356   1.195   3.045   1.535  3.7613  0.9822  1.8861
  453SOL     OW 1357   1.532   1.167   0.882  0.3172 -0.2104 -0.9062
  453SOL    HW1 1358   1.430   1.168   0.862 -3.0072  1.7343  2.3072
  453SOL    HW2 1359   1.573   1.181   0.793 -4.6594 -1.8299  1.1606
  454SOL     OW 1360   0.425   1.583   0.977  0.5079 -0.2283  0.5106
  454SOL    HW1 1361   0.423   1.556   0.877 -1.9031 -0.8309 -2.2332
  454SOL    HW2 1362   0.512   1.641   0.996  1.4414  0.7244  1.7219
  455SOL     OW 1363   2.581   2.985   0.308 -0.1494  0.3505  0.2599
  455SOL    HW1 1364   2.519   2.918   0.274  0.4265  1.2378  1.4689
  455SOL    HW2 1365   2.560   3.079   0.273  0.7549  1.1176  3.0104
  456SOL     OW 1366   2.438   2.395   1.143  0.0242 -0.0718 -0.1178
  456SOL    HW1 1367   2.452   2.492   1.167  2.8781  2.8561  1.6592
  456SOL    HW2 1368   2.358   2.348   1.190 -2.5252 -1.0747  0.8909
  457SOL     OW 1369   1.365   0.064   0.059  0.2554 -0.3046  0.4129
  457SOL    HW1 1370   1.377   0.163   0.073  0.6637 -2.9408 -2.2570
  457SOL    HW2 1371   1.335   0.021   0.146 -0.9564  0.7719  0.2726
  458SOL     OW 1372   2.669   0.189   0.472 -0.5106 -0.3821 -0.0183
  458SOL    HW1 1373   2.709   0.278   0.494 -3.0406 -1.4885 -3.0697
  458SOL    HW2 1374   2.726   0.118   0.519 -1.3298  2.7051 -0.6980
  459SOL     OW 1375   2.141   0.417   2.617 -0.3867  0.1122 -0.2956
  459SOL    HW1 1376   2.209   0.400   2.691  0.7068 -1.7715  3.5440
  459SOL    HW2 1377   2.117   0.333   2.567 -0.7714 -0.6428  1.0647
  460SOL     OW 1378   2.759   0.264   2.693 -0.2597  0.4055 -0.2668
  460SOL    HW1 1379   2.718   0.325   2.761 -1.0172 -2.6849  0.2911
  460SOL    HW2 1380   2.741   0.296   2.599  1.0796  1.0891 -0.8721
  461SOL     OW 1381   1.206   1.893   0.945  0.0949  0.0515  0.2691
  461SOL    HW1 1382   1.246   1.810   0.988 -0.3434  0.1776  1.4896
  461SOL    HW2 1383   1.116   1.858   0.905 -5.2258  0.1227 -0.7516
  462SOL     OW 1384   2.486   2.880   1.392 -0.1275  0.1087  0.3841
  462SOL    HW1 1385   2.445   2.976   1.390  2.5255 -1.4271 -2.8934
  462SOL    HW2 1386   2.438   2.823   1.457  0.1461  0.1017 -1.2130
  463SOL     OW 1387   2.779   1.211   0.381  0.1297 -0.5920  0.0228
  463SOL    HW1 1388   2.782   1.209   0.276  3.2271 -1.5561 -2.2914
  463SOL    HW2 1389   2.745   1.123   0.411 -1.2855  3.5215 -1.3604
  464SOL     OW 1390   0.189   2.554   1.174 -0.1269 -0.9403  0.5603
  464SOL    HW1 1391   0.101   2.551   1.120 -0.9878 -2.0218 -1.3635
  464SOL    HW2 1392   0.178   2.535   1.271  3.1289 -2.0790  1.5650
  465SOL     OW 1393   0.103   1.635   0.294 -0.4110  0.8003  0.1216
  465SOL    HW1 1394   0.067   1.540   0.286  1.5425 -3.3184 -2.8049
  465SOL    HW2 1395   0.189   1.637   0.351 -1.0481  0.3809  1.7809
  466SOL     OW 1396   1.131   0.346   2.677 -0.2604 -0.3481  0.2891
  466SOL    HW1 1397   1.131   0.341   2.777  0.5818  1.4496 -1.2459
  466SOL    HW2 1398   1.096   0.441   2.656  1.1397 -0.4978 -2.2060
  467SOL     OW 1399   0.766   0.728   2.161  0.6563  0.3433  0.1258
  467SOL    HW1 1400   0.776   0.639   2.113 -0.3035 -0.8565 -0.7122
  467SOL    HW2 1401   0.808   0.735   2.250  0.4379  1.5966  0.3762
  468SOL     OW 1402   0.664   0.992   2.060 -0.2825  0.0894 -0.2616
  468SOL    HW1 1403   0.661   0.903   2.004 -1.8993 -3.3950  0.5243
  468SOL    HW2 1404   0.673   0.974   2.162 -0.2804 -1.5649  3.2801
  469SOL     OW 1405   0.024   2.186   0.197 -0.4403 -0.1066  0.1711
  469SOL    HW1 1406   3.059   2.111   0.167 -0.5490  0.2201 -0.6477
  469SOL    HW2 1407   0.034   2.248   0.121  3.2903 -0.9863  2.5359
  470SOL     OW 1408   2.435   2.082   2.915 -0.0113  0.4776  0.8533
  470SOL    HW1 1409   2.412   1.989   2.886  0.3524  2.9404  0.8629
  470SOL    HW2 1410   2.407   2.090   3.010 -2.6566 -1.0931  0.1451
  471SOL     OW 1411   2.180   0.635   2.233 -0.1282  0.2014 -0.2254
  471SOL    HW1 1412   2.222   0.731   2.233 -0.1230  2.9059 -1.1891
  471SOL    HW2 1413   2.095   0.633   2.177  2.1982 -1.4469 -0.3513
  472SOL     OW 1414   0.553   2.609   1.354  0.2047 -0.0932  0.0086
  472SOL    HW1 1415   0.541   2.506   1.347 -3.0077 -1.0907  2.5305
  472SOL    HW2 1416   0.499   2.653   1.280  1.5753 -1.1834  2.3721
  473SOL     OW 1417   0.299   2.947   2.393  0.3174 -0.0284 -0.0622
  473SOL    HW1 1418   0.346   2.937   2.485 -1.0638  0.2805 -1.4453
  473SOL    HW2 1419   0.358   2.975   2.317 -0.4872 -2.5551 -0.1153
  474SOL     OW 1420   1.674   0.073   2.124 -0.1323  0.1300  0.3064
  474SOL    HW1 1421   1.692   0.041   2.029  2.2558  1.3380 -0.0802
  474SOL    HW2 1422   1.742   0.023   2.187  2.2910 -0.4266  3.8245
  475SOL     OW 1423   1.696   2.694   0.744  0.0444  0.4813  0.0713
  475SOL    HW1 1424   1.683   2.684   0.643  0.3879  1.9375 -0.1098
  475SOL    HW2 1425   1.757   2.626   0.782 -0.2965  2.3808  0.1680
  476SOL     OW 1426   0.390   0.672   0.861 -0.1679  0.1627 -0.1195
  476SOL    HW1 1427   0.305   0.733   0.863  0.7303 -0.7791  1.5920
  476SOL    HW2 1428   0.372   0.585   0.815 -0.5433  0.2090 -1.4844
  477SOL     OW 1429   1.196   2.355   0.529 -0.5103  0.4106  0.1420
  477SOL    HW1 1430   1.258   2.277   0.496  2.5052 -2.4609 -1.0076
  477SOL    HW2 1431   1.112   2.315   0.570  0.1832 -1.5257  2.2412
  478SOL     OW 1432   0.151   2.379   2.561  0.4036  0.3297  0.0531
  478SOL    HW1 1433   0.170   2.479   2.592  2.2677  4.3729  4.0792
  478SOL    HW2 1434   0.143   2.364   2.460  0.2118 -1.4687 -5.0029
  479SOL     OW 1435   2.677   0.374   0.996  0.5391 -0.0210  0.5036
  479SOL    HW1 1436   2.768   0.330   1.001  0.1177  0.4464 -0.5905
  479SOL    HW2 1437   2.623   0.335   0.919 -0.0138  0.3238 -1.3633
  480SOL     OW 1438   0.110   2.870   0.438 -0.4680 -0.2210 -0.0476
  480SOL    HW1 1439   0.152   2.963   0.469  3.1602  3.2498 -0.4518
  480SOL    HW2 1440   0.013   2.889   0.403 -0.6375 -2.8877  0.2608
  481SOL     OW 1441   2.454   2.052   1.536  0.1972 -0.1976 -0.5526
  481SOL    HW1 1442   2.431   1.951   1.505 -0.1448 -1.8420 -0.8295
  481SOL    HW2 1443   2.551   2.064   1.565 -0.9494  0.0162  0.8857
  482SOL     OW 1444   1.144   2.428   2.821 -0.1126  0.0975  0.4021
  482SOL    HW1 1445   1.208   2.496   2.783 -1.6045  2.9124 -0.3892
  482SOL    HW2 1446   1.081   2.394   2.748  2.1407  3.4739  1.3784
  483SOL     OW 1447   0.520   2.548   2.443  0.7275 -0.0868 -0.2064
  483SOL    HW1 1448   0.430   2.575   2.407  1.0365  0.2088  0.4073
  483SOL    HW2 1449   0.556   2.474   2.383  0.1822  2.3575  0.8520
  484SOL     OW 1450   1.242   0.664   1.530 -0.3590 -0.4054  0.6545
  484SOL    HW1 1451   1.298   0.660   1.617  1.2333 -1.1519  0.3151
  484SOL    HW2 1452   1.292   0.724   1.463 -0.2066 -0.0727 -0.7389
  485SOL     OW 1453   2.256   0.831   2.525  0.2713  0.0108  0.4515
  485SOL    HW1 1454   2.156   0.829   2.551  0.5324  0.3263  1.2194
  485SOL    HW2 1455   2.273   0.835   2.425  0.3969 -1.8655 -1.1208
  486SOL     OW 1456   2.343   2.966   1.047  0.4257 -0.6415 -0.3038
  486SOL    HW1 1457   2.334   2.876   0.997 -1.0112  0.3112  0.9348
  486SOL    HW2 1458   2.429   3.020   1.031 -3.2295  2.4985  0.6944
  487SOL     OW 1459   0.550   2.210   1.636 -0.6952 -0.2164  0.2949
  487SOL    HW1 1460   0.531   2.125   1.579 -2.3807 -1.2095  1.3878
  487SOL    HW2 1461   0.649   2.212   1.668  1.8281 -0.6363 -0.1077
  488SOL     OW 1462   2.665   1.409   2.766  0.1289  0.2123 -0.1489
  488SOL    HW1 1463   2.579   1.451   2.728 -1.4944  0.2655 -0.6372
  488SOL    HW2 1464   2.654   1.305   2.779 -0.3279  2.0711 -3.4752
  489SOL     OW 1465   2.050   3.022   0.745 -0.1400  0.5832 -0.0444
  489SOL    HW1 1466   2.018   2.983   0.838 -1.4378 -0.1588  1.8222
  489SOL    HW2 1467   2.078   0.020   0.760  2.4462 -1.4915 -1.1457
  490SOL     OW 1468   0.978   1.106   0.451 -0.4018 -0.7246 -0.7929
  490SOL    HW1 1469   1.006   1.206   0.458  0.7689  1.3796 -0.4635
  490SOL    HW2 1470   0.889   1.094   0.402 -0.7573 -0.6876  2.1643
  491SOL     OW 1471   0.257   2.359   1.008  0.0250  0.7350  0.8050
  491SOL    HW1 1472   0.243   2.453   1.043 -0.0688 -2.0006  2.6072
  491SOL    HW2 1473   0.218   2.289   1.070  0.4203 -1.4277 -0.2535
  492SOL     OW 1474   1.288   1.884   1.920  0.6444 -0.2833  0.3561
  492SOL    HW1 1475   1.380   1.895   1.883  1.2630  0.2321  1.0451
  492SOL    HW2 1476   1.225   1.960   1.894  0.8463  4.3559 -1.3718
  493SOL     OW 1477   2.861   2.438   0.818 -0.0229  0.1019 -0.3431
  493SOL    HW1 1478   2.938   2.447   0.751  0.8965  0.8931 -0.6538
  493SOL    HW2 1479   2.890   2.437   0.915  2.1157  2.8980  1.1509
  494SOL     OW 1480   2.763   2.138   0.233  0.2460  0.2143  0.6190
  494SOL    HW1 1481   2.705   2.073   0.185  2.9715  2.6899 -1.7380
  494SOL    HW2 1482   2.829   2.078   0.287  0.8497  0.3253 -0.2928
  495SOL     OW 1483   2.724   2.598   0.054 -0.3489 -0.0378  0.5674
  495SOL    HW1 1484   2.789   2.642   0.117 -1.3942 -0.4434  1.5721
  495SOL    HW2 1485   2.723   2.634   3.053  1.4413 -2.4209 -2.1460
  496SOL     OW 1486   2.408   0.411   1.383 -0.1391 -0.2968  0.0769
  496SOL    HW1 1487   2.339   0.455   1.442 -1.5056  1.2747 -1.3213
  496SOL    HW2 1488   2.380   0.317   1.354 -2.3135 -0.9746  1.5421
  497SOL     OW 1489   2.944   1.258   3.016  0.2198  0.6632 -0.2439
  497SOL    HW1 1490   3.048   1.257   3.003  2.4974 -0.6031 -1.4272
  497SOL    HW2 1491   2.905   1.349   2.989 -0.3405 -0.9597  2.3084
  498SOL     OW 1492   3.066   1.463   1.819 -0.5775 -0.1385 -0.0421
  498SOL    HW1 1493   3.050   1.444   1.918  1.4119  0.7981 -2.7516
  498SOL    HW2 1494   0.010   1.552   1.802  0.9241  1.4429  1.9698
  499SOL     OW 1495   0.705   2.340   2.824  0.2663 -0.5102  0.5594
  499SOL    HW1 1496   0.622   2.394   2.782  0.2316  1.1209 -1.4414
  499SOL    HW2 1497   0.690   2.239   2.822  1.5607  1.6135 -2.2747
  500SOL     OW 1498   1.894   0.494   3.069  0.7788 -0.0893 -0.6410
  500SOL    HW1 1499   1.995   0.483   3.080 -0.5102 -1.7796 -0.5014
  500SOL    HW2 1500   1.847   0.403   3.044 -0.5172  0.0807 -1.1888
  501SOL     OW 1501   1.100   0.021   2.056  0.2450 -0.0229 -0.5108
  501SOL    HW1 1502   1.139   0.007   2.148 -1.2321 -2.0480 -3.4189
  501SOL    HW2 1503   1.172   0.025   1.989 -3.0516 -0.1579 -2.6419
  502SOL     OW 1504   2.511   0.643   1.664 -0.6773  0.0888  0.0877
  502SOL    HW1 1505   2.429   0.607   1.620 -0.6850  0.1215  2.1204
  502SOL    HW2 1506   2.557   0.714   1.601 -0.2812  4.4571 -1.2310
  503SOL     OW 1507   2.368   1.912   2.222 -0.2627 -0.5043 -0.3461
  503SOL    HW1 1508   2.369   2.005   2.181 -0.8709 -2.2395  0.7217
  503SOL    HW2 1509   2.292   1.859   2.183  1.5265  1.0065 -3.1221
  504SOL     OW 1510   1.496   1.011   1.627  0.1294  0.3951  0.0362
  504SOL    HW1 1511   1.452   0.989   1.535 -0.4624  0.8506 -3.0973
  504SOL    HW2 1512   1.457   1.101   1.662 -2.9141  2.0952  3.0231
  505SOL     OW 1513   0.863   0.926   1.782  0.1557  0.0740  0.4885
  505SOL    HW1 1514   0.925   0.934   1.864 -0.3258  0.3105 -0.4452
  505SOL    HW2 1515   0.906   0.870   1.707 -0.6963  1.1234  1.6850
  506SOL     OW 1516   0.330   0.150   2.614 -0.3540 -0.0916 -0.1647
  506SOL    HW1 1517   0.332   0.128   2.711 -0.6824  1.8986 -3.1502
  506SOL    HW2 1518   0.421   0.139   2.571  0.9946  1.8950  2.7024
  507SOL     OW 1519   0.272   0.106   0.078  0.1974  0.8851  0.2678
  507SOL    HW1 1520   0.207   0.174   0.118 -0.1386 -0.6042  2.6803
  507SOL    HW2 1521   0.293   0.136   3.080  1.1418  0.5008 -2.0858
  508SOL     OW 1522   1.107   1.003   1.534  0.6567  0.5897  0.9171
  508SOL    HW1 1523   1.080   1.098   1.549 -0.8487 -2.2559 -0.8648
  508SOL    HW2 1524   1.145   0.966   1.617 -0.1564  0.8647 -1.5140
  509SOL     OW 1525   1.362   2.279   1.392  0.2599  0.1343 -0.1688
  509SOL    HW1 1526   1.437   2.213   1.412 -0.4963 -0.6184 -1.2030
  509SOL    HW2 1527   1.280   2.229   1.364  0.6996  0.6720 -0.3355
  510SOL     OW 1528   2.556   1.238   1.930  0.2688 -0.2816  0.1951
  510SOL    HW1 1529   2.568   1.325   1.877 -1.0619 -1.1992  1.5273
  510SOL    HW2 1530   2.622   1.228   2.003  1.8159 -1.5500  0.1730
  511SOL     OW 1531   1.028   2.221   1.490 -0.7684 -0.1954  0.3994
  511SOL    HW1 1532   1.042   2.319   1.491 -0.9726 -0.1386 -0.7825
  511SOL    HW2 1533   0.962   2.191   1.565  0.1356  0.8871  0.3754
  512SOL     OW 1534   2.754   1.770   0.819  0.0543  0.2580  0.0108
  512SOL    HW1 1535   2.779   1.691   0.755  0.8407 -0.7627  2.0020
  512SOL    HW2 1536   2.815   1.770   0.902  0.0206 -0.7729 -0.0350
  513SOL     OW 1537   0.145   1.395   2.784  0.1519  0.0730 -0.0882
  513SOL    HW1 1538   0.237   1.436   2.788 -2.8877 -2.5851 -0.8046
  513SOL    HW2 1539   0.122   1.362   2.876 -0.1011  1.5735  0.8498
  514SOL     OW 1540   2.813   2.341   2.496  0.4922 -0.0618  0.4766
  514SOL    HW1 1541   2.885   2.269   2.481  1.6606 -0.9778  0.8795
  514SOL    HW2 1542   2.834   2.424   2.443 -1.3956 -2.9346 -0.3842
  515SOL     OW 1543   2.251   1.166   0.871  0.1754 -0.4151 -0.1282
  515SOL    HW1 1544   2.178   1.094   0.871  1.0324  0.2705 -0.5201
  515SOL    HW2 1545   2.219   1.261   0.849  1.2232  2.3992 -2.1766
  516SOL     OW 1546   2.180   1.872   0.279  0.4480 -0.0884 -0.0182
  516SOL    HW1 1547   2.220   1.937   0.350 -2.4742  0.2355  0.5357
  516SOL    HW2 1548   2.118   1.799   0.316  0.0427 -0.0492  0.3183
  517SOL     OW 1549   0.800   0.964   3.018 -0.1503  0.0231  0.6320
  517SOL    HW1 1550   0.730   1.026   2.985  1.2692 -1.9922 -0.1122
  517SOL    HW2 1551   0.866   1.005   3.083 -0.7037  1.1423 -2.3986
  518SOL     OW 1552   2.710   3.027   2.293  0.2143 -0.0947 -0.5570
  518SOL    HW1 1553   2.755   3.006   2.205  0.5751 -0.2637  0.6628
  518SOL    HW2 1554   2.629   2.963   2.299  0.5187  0.8099 -0.5673
  519SOL     OW 1555   1.453   1.526   2.768  0.1909  0.0480  0.0403
  519SOL    HW1 1556   1.531   1.491   2.820 -1.2655  3.6876 -1.6329
  519SOL    HW2 1557   1.460   1.506   2.668 -0.4709  1.6180  0.8261
  520SOL     OW 1558   2.466   2.854   2.295 -0.6758 -0.1128 -0.1100
  520SOL    HW1 1559   2.418   2.922   2.233  0.2172  2.9265 -1.9425
  520SOL    HW2 1560   2.484   2.761   2.255 -0.4755  1.2457  1.3667
  521SOL     OW 1561   0.720   1.479   2.022  0.3354 -0.3489 -0.1106
  521SOL    HW1 1562   0.759   1.471   2.111 -2.0739  2.2384 -2.5250
  521SOL    HW2 1563   0.624   1.446   2.016 -3.7858 -2.9063  1.4720
  522SOL     OW 1564   0.725   2.432   1.873 -0.5381 -0.3788  0.2506
  522SOL    HW1 1565   0.682   2.453   1.783  0.7804 -2.9583  3.8199
  522SOL    HW2 1566   0.731   2.513   1.936  1.8745  0.8263  1.7116
  523SOL     OW 1567   2.742   2.406   1.601  0.1851 -0.1796 -0.5578
  523SOL    HW1 1568   2.768   2.333   1.671  3.3409  0.2508  1.6864
  523SOL    HW2 1569   2.674   2.366   1.536 -2.7934 -3.3324 -0.9758
  524SOL     OW 1570   1.323   2.494   0.758 -0.0663 -0.6598  0.0620
  524SOL    HW1 1571   1.257   2.456   0.695  1.1907 -1.1334 -1.0631
  524SOL    HW2 1572   1.323   2.448   0.848  0.9795 -2.5462  0.4446
  525SOL     OW 1573   2.803   1.004   0.976 -0.1897  0.4780  0.1000
  525SOL    HW1 1574   2.807   1.038   0.881  2.8672  1.7030 -1.2439
  525SOL    HW2 1575   2.716   1.026   1.021  0.4284  1.7711 -0.3082
  526SOL     OW 1576   1.006   2.572   0.881  0.1754  0.0954 -0.2425
  526SOL    HW1 1577   0.985   2.588   0.781 -1.0306 -0.0697  2.5490
  526SOL    HW2 1578   1.015   2.475   0.907  1.1073 -1.0347  2.5449
  527SOL     OW 1579   2.041   2.179   0.715  0.7488 -0.0961  0.1121
  527SOL    HW1 1580   2.010   2.249   0.649 -1.6107 -0.1152 -0.8122
  527SOL    HW2 1581   2.140   2.202   0.732  0.6600  0.5684  2.8072
  528SOL     OW 1582   2.215   0.138   0.098  0.0519 -0.8282  0.2911
  528SOL    HW1 1583   2.213   0.194   0.013  0.4252 -1.3321 -0.9093
  528SOL    HW2 1584   2.128   0.087   0.103 -0.8018 -1.7628  0.1010
  529SOL     OW 1585   1.502   1.444   2.124  0.4460  0.6431 -0.7083
  529SOL    HW1 1586   1.577   1.445   2.196  0.1220  2.3741  2.3503
  529SOL    HW2 1587   1.479   1.538   2.100  0.4409  0.2637 -2.0542
  530SOL     OW 1588   2.555   1.097   2.533 -0.3625  0.5018 -0.0332
  530SOL    HW1 1589   2.599   1.071   2.442  0.6978 -1.2842 -2.1138
  530SOL    HW2 1590   2.625   1.085   2.608 -0.1414 -0.2361  1.1055
  531SOL     OW 1591   0.718   0.691   3.007  0.4363 -0.0481  0.4638
  531SOL    HW1 1592   0.752   0.787   3.005  1.5056  0.7192  5.2131
  531SOL    HW2 1593   0.747   0.655   3.096 -1.0090  1.6183 -2.3461
  532SOL     OW 1594   1.692   1.446   0.622 -0.3830  0.2500  0.4758
  532SOL    HW1 1595   1.710   1.348   0.626 -1.7269  0.1690 -3.8380
  532SOL    HW2 1596   1.649   1.484   0.707 -0.5441 -0.3002  2.3852
  533SOL     OW 1597   0.325   0.776   1.969  0.5439 -0.2933  0.4257
  533SOL    HW1 1598   0.362   0.758   1.871 -1.3362  1.1546 -1.9159
  533SOL    HW2 1599   0.391   0.747   2.038  0.6917  0.0335 -2.5294
  534SOL     OW 1600   1.403   0.329   2.550 -0.2116  0.4834 -0.2014
  534SOL    HW1 1601   1.314   0.365   2.594  0.6019  0.6205 -0.1521
  534SOL    HW2 1602   1.436   0.257   2.615  1.9009  1.4654  2.4433
  535SOL     OW 1603   0.663   0.452   0.351  0.0621 -0.4640 -0.1935
  535SOL    HW1 1604   0.560   0.449   0.379 -0.3105  1.1631  0.3275
  535SOL    HW2 1605   0.729   0.452   0.430  0.2276 -0.4371 -0.7141
  536SOL     OW 1606   0.957   0.350   0.031 -0.1886 -0.5941  0.7263
  536SOL    HW1 1607   0.982   0.448   0.010 -0.9630 -0.2873 -0.5497
  536SOL    HW2 1608   0.911   0.349   0.122  0.5909  3.9663  3.2898
  537SOL     OW 1609   1.298   0.016   1.841 -0.1213 -0.0512  0.1221
  537SOL    HW1 1610   1.246   0.029   1.751 -0.3794 -1.6145 -0.4221
  537SOL    HW2 1611   1.368   3.038   1.837  0.6731  0.9730  3.1520
  538SOL     OW 1612   0.275   2.940   0.121 -0.4553  0.0536 -0.0886
  538SOL    HW1 1613   0.277   3.042   0.111 -0.0952 -1.1765 -1.2850
  538SOL    HW2 1614   0.282   2.913   0.220 -0.2706 -0.4889 -0.8951
  539SOL     OW 1615   2.676   1.007   1.832 -0.0984  0.0579  0.3333
  539SOL    HW1 1616   2.597   0.944   1.832 -0.8169 -3.3206  1.1179
  539SOL    HW2 1617   2.640   1.097   1.867  2.6274 -0.7645  1.5343
  540SOL     OW 1618   2.348   2.069   1.796  0.0342  0.2262  0.1591
  540SOL    HW1 1619   2.382   2.072   1.698  1.5125 -1.2598 -1.7533
  540SOL    HW2 1620   2.344   1.970   1.829  1.1439 -0.9928  2.4725
  541SOL     OW 1621   0.401   2.664   1.575 -0.4800 -0.4846 -0.0253
  541SOL    HW1 1622   0.469   2.653   1.501 -0.3953 -0.2139  2.7831
  541SOL    HW2 1623   0.310   2.624   1.550  1.1070  1.2787  0.2205
  542SOL     OW 1624   2.728   0.553   1.902  0.4944 -0.4291  0.0593
  542SOL    HW1 1625   2.663   0.583   1.824  0.0177 -0.0533 -0.2591
  542SOL    HW2 1626   2.732   0.454   1.925  3.4968  0.5940  0.7541
  543SOL     OW 1627   0.983   0.703   0.998  0.2291  0.1057 -0.1874
  543SOL    HW1 1628   1.016   0.755   0.913 -0.6634  1.0101 -1.9354
  543SOL    HW2 1629   1.043   0.732   1.078 -0.4085 -1.4038  0.8463
  544SOL     OW 1630   2.292   2.103   1.338 -0.4406 -0.1372  0.0592
  544SOL    HW1 1631   2.369   2.064   1.397  2.6135 -3.8131  1.7110
  544SOL    HW2 1632   2.291   2.055   1.247  0.6198 -2.0992 -0.1716
  545SOL     OW 1633   1.512   1.565   1.211  0.7464  0.2899  0.0070
  545SOL    HW1 1634   1.550   1.489   1.151 -1.1651 -0.0766 -1.5137
  545SOL    HW2 1635   1.576   1.643   1.207 -1.3692 -2.4075 -1.6039
  546SOL     OW 1636   2.840   0.016   2.713  0.5121 -0.0236 -0.2424
  546SOL    HW1 1637   2.813   0.111   2.694  1.6644 -1.1360  1.0375
  546SOL    HW2 1638   2.803   3.081   2.801  0.5422 -1.1688 -1.4484
  547SOL     OW 1639   2.367   0.233   2.752 -0.2609 -0.6204  0.1446
  547SOL    HW1 1640   2.296   0.217   2.823  1.5410  1.0771  0.3968
  547SOL    HW2 1641   2.412   0.327   2.764  2.3125 -0.1101  1.6037
  548SOL     OW 1642   2.755   1.952   2.546  0.1764  0.1006 -0.1817
  548SOL    HW1 1643   2.694   1.874   2.580  0.1679  1.0235 -1.4710
  548SOL    HW2 1644   2.822   1.979   2.620  3.5990  2.1982 -1.0299
  549SOL     OW 1645   2.364   0.421   0.679  0.2431  0.0307 -0.1474
  549SOL    HW1 1646   2.429   0.500   0.668 -1.1977 -0.8786 -2.9567
  549SOL    HW2 1647   2.377   0.360   0.595  0.5351  0.9651 -1.2222
  550SOL     OW 1648   2.783   1.240   0.117  0.1242  0.5652 -0.6649
  550SOL    HW1 1649   2.844   1.241   0.038 -0.6333  0.1561  3.3808
  550SOL    HW2 1650   2.700   1.299   0.105  1.2323 -0.6165 -0.2895
  551SOL     OW 1651   1.296   2.718   1.443  0.3574 -0.3442 -0.3199
  551SOL    HW1 1652   1.324   2.808   1.398 -0.0752  1.1333  1.6582
  551SOL    HW2 1653   1.353   2.644   1.401 -0.6779  0.3120 -0.7038
  552SOL     OW 1654   2.750   2.356   2.986  0.0776  0.5728  0.2075
  552SOL    HW1 1655   2.698   2.358   2.892 -0.3554  0.8696 -0.4489
  552SOL    HW2 1656   2.684   2.347   3.062 -2.1347  0.6198  0.0899
  553SOL     OW 1657   0.721   2.957   0.657  0.3730 -0.7620 -0.6409
  553SOL    HW1 1658   0.740   3.056   0.652 -1.7407 -2.0526 -1.8110
  553SOL    HW2 1659   0.787   2.909   0.596  0.4833 -0.6332 -1.1201
  554SOL     OW 1660   1.818   1.828   1.872  0.3725  0.7309  0.3658
  554SOL    HW1 1661   1.835   1.867   1.965 -0.2333 -0.1014 -1.0697
  554SOL    HW2 1662   1.844   1.732   1.879 -1.8994  0.3401 -0.3080
  555SOL     OW 1663   1.405   2.389   2.080 -0.0459 -0.1790  0.2509
  555SOL    HW1 1664   1.413   2.442   1.995 -0.8567 -1.6616  1.8646
  555SOL    HW2 1665   1.317   2.340   2.078 -1.5461  0.4726 -1.0070
  556SOL     OW 1666   2.001   1.432   0.550  0.8517  0.0996 -0.4861
  556SOL    HW1 1667   1.981   1.340   0.512  0.3607  0.5283 -1.2561
  556SOL    HW2 1668   2.058   1.485   0.488  0.7895  0.9314 -0.8252
  557SOL     OW 1669   1.212   2.176   2.100  0.1830  0.2135 -0.2307
  557SOL    HW1 1670   1.137   2.226   2.138  3.6047 -2.9886 -1.9123
  557SOL    HW2 1671   1.187   2.144   2.005  2.7658 -0.5685 -4.8673
  558SOL     OW 1672   0.019   1.086   2.412 -0.3745  0.1323  0.7325
  558SOL    HW1 1673   0.016   1.165   2.476  0.3532 -0.8147 -2.2501
  558SOL    HW2 1674   3.029   1.031   2.409  0.4827  2.6945  1.4102
  559SOL     OW 1675   2.200   2.694   2.024  0.2763  0.2938 -0.3195
  559SOL    HW1 1676   2.120   2.631   2.002 -0.4615 -0.9603  2.1111
  559SOL    HW2 1677   2.185   2.756   2.106  0.8430  2.2005 -1.2688
  560SOL     OW 1678   0.156   3.002   2.843 -0.3291  0.1731  0.0183
  560SOL    HW1 1679   0.248   3.038   2.871 -1.1312 -0.8673 -0.5859
  560SOL    HW2 1680   0.106   3.059   2.779  1.3755  0.0358  1.6402
  561SOL     OW 1681   1.820   0.897   0.538  0.2865 -0.1294 -0.0005
  561SOL    HW1 1682   1.877   0.825   0.499  0.2638  1.2296  0.9199
  561SOL    HW2 1683   1.809   0.875   0.638  1.5349  0.4056  1.5448
  562SOL     OW 1684   0.939   1.169   2.073  0.2875  0.4721  0.4479
  562SOL    HW1 1685   0.840   1.165   2.096 -2.1495 -1.6998  1.3499
  562SOL    HW2 1686   0.982   1.225   2.140 -1.4605  0.1806 -0.4594
  563SOL     OW 1687   1.518   2.206   0.181  0.0519 -0.4210  0.1404
  563SOL    HW1 1688   1.526   2.139   0.258  0.1319 -1.9621 -1.4758
  563SOL    HW2 1689   1.422   2.233   0.171  0.4799 -1.7545 -2.2925
  564SOL     OW 1690   0.438   2.006   0.771 -0.1089 -0.0706 -0.0479
  564SOL    HW1 1691   0.468   2.099   0.734  1.8973  1.0583 -1.8274
  564SOL    HW2 1692   0.493   1.940   0.716 -1.2116  0.3317 -0.2208
  565SOL     OW 1693   0.876   3.027   3.073 -0.5333  0.0200 -0.3993
  565SOL    HW1 1694   0.876   2.981   2.983 -0.9890 -0.1798 -2.5108
  565SOL    HW2 1695   0.854   0.031   3.060  0.5284 -2.6401  0.3397
  566SOL     OW 1696   1.891   2.512   3.016 -0.2433 -0.0016 -0.0792
  566SOL    HW1 1697   1.883   2.473   2.923 -1.3274 -1.0806 -2.0397
  566SOL    HW2 1698   1.807   2.503   3.072 -0.0850  1.1873  0.1131
  567SOL     OW 1699   2.528   1.768   0.987 -0.5542 -0.2196  0.1142
  567SOL    HW1 1700   2.594   1.776   0.913 -1.7015  0.7703 -1.3323
  567SOL    HW2 1701   2.501   1.672   1.003 -1.0021  2.0114 -3.6786
  568SOL     OW 1702   1.920   0.962   2.490  0.0884 -0.6048 -0.7656
  568SOL    HW1 1703   1.820   0.959   2.472 -0.8717  0.5495  0.2529
  568SOL    HW2 1704   1.943   1.058   2.496 -0.1025 -2.9012 -1.8952
  569SOL     OW 1705   2.385   1.551   1.982  0.0082  0.4758 -0.0516
  569SOL    HW1 1706   2.472   1.507   1.949  1.2402 -1.3226 -0.4499
  569SOL    HW2 1707   2.382   1.542   2.082  0.8834  2.6697  1.1252
  570SOL     OW 1708   2.803   2.592   2.043 -0.5883 -0.2016 -0.3969
  570SOL    HW1 1709   2.875   2.628   2.105  1.4067 -0.5874 -1.5557
  570SOL    HW2 1710   2.795   2.652   1.961  0.0137  0.5803 -0.3886
  571SOL     OW 1711   0.146   0.033   1.836  0.2115 -0.7954 -0.0486
  571SOL    HW1 1712   0.198   0.016   1.922  2.1480 -0.1073  1.0269
  571SOL    HW2 1713   0.047   0.030   1.851  1.5667  0.5854  1.9334
  572SOL     OW 1714   0.828   1.981   0.996  0.3845  0.5873 -0.2150
  572SOL    HW1 1715   0.795   1.960   1.093 -1.2093 -1.7799 -0.9883
  572SOL    HW2 1716   0.750   1.984   0.931 -0.4372 -0.5595 -1.7052
  573SOL     OW 1717   1.153   0.827   0.042  0.4519  0.6240  0.1605
  573SOL    HW1 1718   1.089   0.747   0.035  0.2289 -0.1949  1.5545
  573SOL    HW2 1719   1.186   0.842   0.132 -0.7991  0.5901 -3.1358
  574SOL     OW 1720   0.370   0.125   0.336 -0.2269  0.0574 -0.7248
  574SOL    HW1 1721   0.454   0.063   0.334  1.5046 -3.2131  0.8982
  574SOL    HW2 1722   0.351   0.153   0.243 -0.8290  0.8282  0.9798
  575SOL     OW 1723   0.798   1.925   1.320  0.6112 -0.0840 -0.1762
  575SOL    HW1 1724   0.889   1.903   1.368  0.9731 -0.8857  0.2845
  575SOL    HW2 1725   0.747   1.842   1.294 -0.3892 -0.0854  1.4540
  576SOL     OW 1726   2.805   0.306   1.973  0.2273 -0.0778 -0.3449
  576SOL    HW1 1727   2.722   0.267   2.014  0.0737  0.3684  0.6990
  576SOL    HW2 1728   2.894   0.263   2.008  1.9796 -0.6320  0.6084
  577SOL     OW 1729   2.739   1.580   2.083 -0.3600  0.1393 -0.0372
  577SOL    HW1 1730   2.697   1.670   2.119 -0.6740  1.3325 -1.8825
  577SOL    HW2 1731   2.842   1.575   2.102  1.4915 -2.4204  1.5995
  578SOL     OW 1732   0.921   2.900   2.311 -0.1925  0.1750 -0.2500
  578SOL    HW1 1733   1.006   2.958   2.313  0.1321  1.9958 -0.3514
  578SOL    HW2 1734   0.950   2.803   2.296  2.4795 -1.3641  1.6889
  579SOL     OW 1735   2.154   1.794   2.105 -0.0176  0.0284 -0.8855
  579SOL    HW1 1736   2.123   1.724   2.042  0.2623  1.6199  2.3159
  579SOL    HW2 1737   2.095   1.878   2.101  1.4275 -2.2306  0.4388
  580SOL     OW 1738   1.801   1.106   2.062  0.5032  0.2040 -0.6769
  580SOL    HW1 1739   1.771   1.081   1.969  0.4808 -0.8104  2.7511
  580SOL    HW2 1740   1.861   1.031   2.096  0.8542 -1.2470  0.0178
  581SOL     OW 1741   1.343   1.210   2.530  0.6624  0.2220  0.3016
  581SOL    HW1 1742   1.413   1.251   2.585 -1.0898  0.0606 -1.3440
  581SOL    HW2 1743   1.320   1.258   2.446  0.4428  0.2013 -0.0955
  582SOL     OW 1744   0.111   2.082   1.951  0.0949 -0.4666  0.5153
  582SOL    HW1 1745   0.206   2.077   1.997  0.5035 -1.7648  4.8074
  582SOL    HW2 1746   0.059   2.171   1.963 -2.4812  2.5650 -0.2277
  583SOL     OW 1747   1.853   1.176   0.822 -0.6425 -0.3940  0.4876
  583SOL    HW1 1748   1.770   1.153   0.769 -1.2661 -1.5704  1.8439
  583SOL    HW2 1749   1.903   1.261   0.795  0.2843  0.7359  0.3569
  584SOL     OW 1750   0.904   2.571   0.319 -0.0071 -0.0441  0.5598
  584SOL    HW1 1751   0.813   2.616   0.312 -0.1305 -1.2098  0.5916
  584SOL    HW2 1752   0.964   2.615   0.256 -3.4098 -2.5896  2.9188
  585SOL     OW 1753   0.244   2.596   0.113  0.2395 -0.1996  0.6536
  585SOL    HW1 1754   0.173   2.527   0.081 -2.0335 -5.0300 -0.1514
  585SOL    HW2 1755   0.193   2.681   0.090  0.1332 -0.8433  0.1191
  586SOL     OW 1756   2.309   1.179   0.346 -0.0287 -0.4163  0.3161
  586SOL    HW1 1757   2.238   1.105   0.347  0.7180 -3.9846 -0.5710
  586SOL    HW2 1758   2.323   1.209   0.440  2.9519 -3.8295 -2.7083
  587SOL     OW 1759   2.910   2.000   0.423  0.4330 -0.1709  0.0839
  587SOL    HW1 1760   2.949   2.041   0.507  1.9308 -0.5712  1.3861
  587SOL    HW2 1761   2.843   1.924   0.452  0.5682 -3.9332  0.4860
  588SOL     OW 1762   3.068   0.670   0.792  0.6463  0.7379  0.3392
  588SOL    HW1 1763   0.054   0.718   0.824  2.2333  1.5946 -1.4891
  588SOL    HW2 1764   3.001   0.687   0.866  3.4032  2.6657 -1.4322
  589SOL     OW 1765   1.542   0.173   0.700  0.1808  0.0861  0.6176
  589SOL    HW1 1766   1.443   0.189   0.696  3.1734  2.6190 -0.8216
  589SOL    HW2 1767   1.563   0.089   0.644 -4.2934  1.7252 -1.1033
  590SOL     OW 1768   2.409   2.298   0.295  0.7227 -0.1282  0.5102
  590SOL    HW1 1769   2.439   2.221   0.353  0.9757 -1.2807  0.3551
  590SOL    HW2 1770   2.428   2.392   0.336  0.9659  2.5814 -1.9160
  591SOL     OW 1771   0.303   2.514   1.949  0.2092 -0.2612 -0.0228
  591SOL    HW1 1772   0.348   2.426   1.924 -0.8835 -1.5009  0.1667
  591SOL    HW2 1773   0.211   2.500   1.912  1.4417  0.1903 -1.3980
  592SOL     OW 1774   0.462   1.421   2.017 -0.1854 -0.0879 -0.1934
  592SOL    HW1 1775   0.438   1.402   2.113 -4.5375  0.8398 -1.1701
  592SOL    HW2 1776   0.455   1.335   1.964  0.9266 -0.4759  0.8062
  593SOL     OW 1777   1.549   1.704   1.582 -0.0586  0.4495 -0.2249
  593SOL    HW1 1778   1.451   1.670   1.562 -1.6356 -1.3244 -0.6813
  593SOL    HW2 1779   1.544   1.764   1.664  1.1238 -1.1960  0.3796
  594SOL     OW 1780   0.492   1.034   2.947  0.1063 -0.1792  0.2708
  594SOL    HW1 1781   0.560   1.103   2.914 -1.7906  0.1701  1.2605
  594SOL    HW2 1782   0.437   0.997   2.871 -2.1324 -0.7445  1.0253
  595SOL     OW 1783   1.951   0.277   0.923  0.3777  0.2701  0.3893
  595SOL    HW1 1784   1.980   0.365   0.961 -2.3715 -2.5313  0.7821
  595SOL    HW2 1785   1.859   0.241   0.952  0.8725 -0.4446  0.2734
  596SOL     OW 1786   0.433   1.182   0.951  0.4374  0.5743 -0.1718
  596SOL    HW1 1787   0.515   1.232   0.984 -0.8570  0.0007  1.1540
  596SOL    HW2 1788   0.360   1.189   1.020  0.8014  0.4394  1.0380
  597SOL     OW 1789   2.987   2.476   2.903  0.1573  0.4284  0.2524
  597SOL    HW1 1790   2.893   2.440   2.926  0.1864  0.6602 -1.7422
  597SOL    HW2 1791   2.981   2.557   2.845  0.7229 -1.5603  2.6584
  598SOL     OW 1792   2.220   2.104   2.546 -0.4715 -0.1263 -0.6095
  598SOL    HW1 1793   2.170   2.184   2.508 -2.2474 -1.3529  0.7392
  598SOL    HW2 1794   2.312   2.122   2.585 -0.7513 -0.0413  1.0959
  599SOL     OW 1795   1.570   0.643   0.462 -0.1470  0.3451  0.3226
  599SOL    HW1 1796   1.562   0.545   0.480 -1.5254  4.2725 -1.1502
  599SOL    HW2 1797   1.633   0.697   0.521 -0.0247 -1.1357 -0.8340
  600SOL     OW 1798   1.120   0.208   0.242 -0.6327  0.2216  0.3399
  600SOL    HW1 1799   1.019   0.208   0.259 -1.8044  1.7605 -0.7924
  600SOL    HW2 1800   1.151   0.280   0.175 -0.0643  0.4226  1.1050
  601SOL     OW 1801   0.557   0.190   1.591 -0.4629  0.1070  0.2072
  601SOL    HW1 1802   0.653   0.158   1.566  2.6201  1.6198  2.0635
  601SOL    HW2 1803   0.535   0.280   1.544 -1.2373  1.1477  1.2270
  602SOL     OW 1804   0.239   2.818   0.801  0.3338 -0.1652 -0.0092
  602SOL    HW1 1805   0.291   2.747   0.754 -0.9441  0.4016  0.3979
  602SOL    HW2 1806   0.144   2.779   0.802  1.6309  1.0160 -0.2411
  603SOL     OW 1807   0.721   2.758   2.544 -0.1283 -0.0169  0.5085
  603SOL    HW1 1808   0.681   2.856   2.530 -1.4060  0.1797 -1.2339
  603SOL    HW2 1809   0.656   2.690   2.516 -0.3282  2.1698  1.0184
  604SOL     OW 1810   1.105   2.668   0.161 -0.2047  0.3950  0.5819
  604SOL    HW1 1811   1.160   2.622   0.230  1.4065  2.0615 -0.0511
  604SOL    HW2 1812   1.166   2.693   0.079  0.9285 -0.6649  2.3750
  605SOL     OW 1813   1.713   0.998   1.804  0.1416 -0.3646 -0.0338
  605SOL    HW1 1814   1.626   0.988   1.754 -0.5266 -1.3221 -2.0503
  605SOL    HW2 1815   1.781   1.039   1.740 -2.1099  0.2469 -0.0566
  606SOL     OW 1816   0.976   0.704   2.377 -0.2136 -0.0644  0.0636
  606SOL    HW1 1817   0.990   0.614   2.324 -3.0411  2.3003 -0.5864
  606SOL    HW2 1818   1.052   0.774   2.366 -0.5673  2.7769  0.7193
  607SOL     OW 1819   0.367   1.462   1.207  1.2282 -0.1086 -0.1219
  607SOL    HW1 1820   0.312   1.374   1.202  0.5100 -0.8885 -1.5773
  607SOL    HW2 1821   0.374   1.501   1.114 -0.1435  0.4892 -1.0476
  608SOL     OW 1822   2.563   2.258   2.424 -0.4055 -0.7074 -0.2764
  608SOL    HW1 1823   2.658   2.281   2.445 -2.8533 -0.1199 -0.9600
  608SOL    HW2 1824   2.527   2.191   2.493 -2.2201 -0.1635 -1.9143
  609SOL     OW 1825   2.009   2.920   0.131  0.0112 -0.0381 -0.1654
  609SOL    HW1 1826   1.962   3.012   0.141  0.1082  5.0104  1.4887
  609SOL    HW2 1827   2.089   2.906   0.195 -1.4224 -2.0423 -0.1981
  610SOL     OW 1828   0.595   2.877   1.371 -1.0350 -0.2134  0.6298
  610SOL    HW1 1829   0.575   2.777   1.367  0.5242  0.0578 -1.8522
  610SOL    HW2 1830   0.604   2.909   1.271 -1.4861  0.1238  0.3627
  611SOL     OW 1831   1.117   1.534   0.599  0.4138 -0.3632 -0.3994
  611SOL    HW1 1832   1.024   1.571   0.614 -1.1024 -0.8743 -1.1132
  611SOL    HW2 1833   1.120   1.489   0.507  3.0180 -2.0324  0.1281
  612SOL     OW 1834   0.600   0.136   2.492 -0.9925  0.0180 -0.0649
  612SOL    HW1 1835   0.649   0.165   2.574 -2.3480 -0.4013 -0.4492
  612SOL    HW2 1836   0.637   0.045   2.457 -2.0072 -0.7777  0.6940
  613SOL     OW 1837   2.734   1.805   0.539  0.3770 -0.7472 -0.1715
  613SOL    HW1 1838   2.745   1.709   0.566  2.2053  0.8894 -0.7297
  613SOL    HW2 1839   2.743   1.859   0.628  0.2166 -0.7034  3.2482
  614SOL     OW 1840   1.623   0.054   1.847  0.0009  0.7429 -0.1315
  614SOL    HW1 1841   1.558   0.130   1.851  1.3034 -1.9108 -0.7526
  614SOL    HW2 1842   1.695   0.072   1.784  0.9976  2.1886  0.9712
  615SOL     OW 1843   1.079   1.588   1.248 -0.3258 -0.0051  0.4596
  615SOL    HW1 1844   1.118   1.498   1.282 -1.2204 -0.3406  0.9251
  615SOL    HW2 1845   1.119   1.672   1.290 -0.5004  2.0817  0.8635
  616SOL     OW 1846   1.630   1.470   2.942  0.3704 -0.1054 -0.5961
  616SOL    HW1 1847   1.646   1.381   2.984 -0.6170 -0.0495 -0.1991
  616SOL    HW2 1848   1.607   1.540   3.010 -1.3358  0.1788 -0.4054
  617SOL     OW 1849   1.567   2.791   0.198 -0.3023 -0.0409 -0.8675
  617SOL    HW1 1850   1.529   2.820   0.111 -0.6409 -2.0213  1.9487
  617SOL    HW2 1851   1.549   2.695   0.231  0.0385 -1.5032  0.0706
  618SOL     OW 1852   1.033   0.598   2.621  0.3213  0.2883  0.0354
  618SOL    HW1 1853   1.012   0.661   2.700 -1.2690  1.4138  0.1420
  618SOL    HW2 1854   1.006   0.650   2.538 -0.3982  0.6225 -0.8753
  619SOL     OW 1855   2.671   1.316   0.620  0.2445 -1.1076 -0.4247
  619SOL    HW1 1856   2.706   1.299   0.524 -0.1383  0.7224  1.2997
  619SOL    HW2 1857   2.574   1.281   0.638  2.4164  1.5704 -0.5930
  620SOL     OW 1858   2.262   2.556   3.032 -0.4783  1.1924 -0.0607
  620SOL    HW1 1859   2.326   2.576   0.013 -4.1399  0.6249 -1.0653
  620SOL    HW2 1860   2.183   2.500   3.071 -2.1476  0.6779 -0.9162
  621SOL     OW 1861   2.534   1.345   0.056  0.1049  0.1827  0.5318
  621SOL    HW1 1862   2.455   1.333   3.089  3.1326  0.8627  2.0272
  621SOL    HW2 1863   2.560   1.443   0.062  0.0756 -2.0824  2.6776
  622SOL     OW 1864   1.355   2.468   2.428  0.8888 -0.0083  0.0435
  622SOL    HW1 1865   1.295   2.385   2.440 -0.1811 -0.7178  0.5241
  622SOL    HW2 1866   1.414   2.456   2.349  0.3142  1.9384  1.1570
  623SOL     OW 1867   0.518   1.904   0.164 -0.4193 -0.4401  0.2476
  623SOL    HW1 1868   0.580   1.985   0.161 -0.8715 -1.5782  1.1982
  623SOL    HW2 1869   0.423   1.940   0.157  1.1053  0.7764  4.6108
  624SOL     OW 1870   0.404   0.033   2.891  0.0104 -0.2277  0.1502
  624SOL    HW1 1871   0.455   0.103   2.943 -0.5332 -0.1309 -1.5146
  624SOL    HW2 1872   0.445   3.040   2.909  1.4415  2.1440  2.1482
  625SOL     OW 1873   1.079   1.957   0.594 -0.4023 -0.0208 -0.3016
  625SOL    HW1 1874   0.991   1.960   0.541 -2.2096 -1.5975 -1.9272
  625SOL    HW2 1875   1.150   2.015   0.548  1.3921 -0.1893 -0.3548
  626SOL     OW 1876   2.613   3.019   2.998 -0.0134 -0.0284 -0.0567
  626SOL    HW1 1877   2.580   3.033   2.902 -3.4850 -1.3992 -0.5663
  626SOL    HW2 1878   2.540   3.042   3.067  0.6636  1.4765 -3.0307
  627SOL     OW 1879   1.591   1.297   2.621  0.1307 -0.2315 -0.2041
  627SOL    HW1 1880   1.616   1.200   2.643  0.8476  1.2144 -1.1927
  627SOL    HW2 1881   1.670   1.359   2.637  1.4109  0.8204  1.0172
  628SOL     OW 1882   0.497   0.696   2.162  0.1914 -0.4103 -0.4874
  628SOL    HW1 1883   0.440   0.720   2.243  1.0771 -1.7506  0.1834
  628SOL    HW2 1884   0.592   0.717   2.182  0.5645  2.7183  0.2379
  629SOL     OW 1885   0.057   2.783   1.859  0.5560 -0.0808  0.6089
  629SOL    HW1 1886   0.117   2.747   1.934  2.5614 -1.4161  1.9588
  629SOL    HW2 1887   0.109   2.791   1.770  0.5943 -0.8971 -0.0775
  630SOL     OW 1888   1.689   0.715   1.823  0.8185  0.4604  0.6968
  630SOL    HW1 1889   1.760   0.663   1.773  0.2893  0.3744  0.8158
  630SOL    HW2 1890   1.694   0.813   1.803 -1.7408  1.0016 -3.1780
  631SOL     OW 1891   2.395   1.055   0.103  0.1295  0.4082 -0.2399
  631SOL    HW1 1892   2.400   0.958   0.135  0.7523 -2.0368  0.2754
  631SOL    HW2 1893   2.384   1.126   0.177 -1.7096 -0.4235  1.1111
  632SOL     OW 1894   2.036   0.168   2.011 -1.0144  0.0231 -0.1912
  632SOL    HW1 1895   1.953   0.111   2.010  3.5449  1.7435  0.5579
  632SOL    HW2 1896   2.030   0.241   1.944  0.7225  2.1884  0.2389
  633SOL     OW 1897   0.932   2.906   0.219 -0.3137  0.6605 -0.5909
  633SOL    HW1 1898   0.934   2.959   0.129 -0.8393 -1.7693 -2.5266
  633SOL    HW2 1899   0.998   2.831   0.210 -0.1196  0.4648 -2.7778
  634SOL     OW 1900   1.334   2.547   2.680  0.3001 -0.7791 -0.8975
  634SOL    HW1 1901   1.330   2.523   2.577 -1.1689 -0.1036 -1.1515
  634SOL    HW2 1902   1.427   2.533   2.714 -2.3810  1.3611  0.7355
  635SOL     OW 1903   2.489   0.099   0.104  0.1002 -0.3510  0.0123
  635SOL    HW1 1904   2.529   0.188   0.083  0.2361  1.3458 -1.8698
  635SOL    HW2 1905   2.389   0.104   0.103  1.9180 -1.1840  1.5081
  636SOL     OW 1906   0.929   1.526   0.992  0.0786 -0.6777 -0.0223
  636SOL    HW1 1907   0.961   1.510   1.090 -0.7839 -1.6860 -2.5700
  636SOL    HW2 1908   0.995   1.493   0.918  0.6976 -0.8915 -0.0474
  637SOL     OW 1909   0.187   2.599   0.469 -0.5882 -0.0095 -0.1543
  637SOL    HW1 1910   0.248   2.601   0.552  0.3842 -0.4305  1.1707
  637SOL    HW2 1911   0.134   2.685   0.456 -0.2629 -0.5483 -1.6084
  638SOL     OW 1912   0.545   3.019   0.418  0.4065  0.0692  0.5304
  638SOL    HW1 1913   0.577   2.992   0.512  2.0700 -1.8463  0.7982
  638SOL    HW2 1914   0.485   2.947   0.381  2.5075  0.7384  0.4931
  639SOL     OW 1915   1.151   1.328   0.346  0.3837 -0.0463  0.0494
  639SOL    HW1 1916   1.155   1.268   0.265 -2.4403  1.2150  0.2540
  639SOL    HW2 1917   1.128   1.424   0.324 -2.0005  0.5911  0.0219
  640SOL     OW 1918   1.348   2.821   1.015  0.2169  0.0318  0.6539
  640SOL    HW1 1919   1.343   2.730   1.059 -1.0665  0.6099 -0.1200
  640SOL    HW2 1920   1.394   2.805   0.926  1.4622 -2.1827  0.9593
  641SOL     OW 1921   3.033   2.511   0.606  0.2442 -0.3585  0.0061
  641SOL    HW1 1922   3.097   2.439   0.582 -1.5245  0.2360  3.6483
  641SOL    HW2 1923   2.954   2.508   0.539 -1.4067 -1.2863  0.6723
  642SOL     OW 1924   0.969   0.144   1.835 -0.2526  0.2135  0.0012
  642SOL    HW1 1925   0.880   0.157   1.882  0.6140  1.5316 -3.3260
  642SOL    HW2 1926   1.013   0.056   1.852 -0.6446  1.6822 -2.5661
  643SOL     OW 1927   0.735   1.779   2.151 -0.3610 -0.1355  0.2669
  643SOL    HW1 1928   0.674   1.711   2.101 -1.8270 -0.0797  1.2802
  643SOL    HW2 1929   0.704   1.789   2.248 -2.8060 -2.7919 -2.9921
  644SOL     OW 1930   0.936   2.943   0.481  0.8667 -0.3812  0.0204
  644SOL    HW1 1931   0.912   2.948   0.383 -2.1329  0.2953  1.1844
  644SOL    HW2 1932   0.994   3.021   0.495 -1.8822  0.7775  1.2374
  645SOL     OW 1933   1.217   1.554   2.891 -0.3049  0.2041 -0.1818
  645SOL    HW1 1934   1.170   1.632   2.849  0.0736 -0.6135  0.1626
  645SOL    HW2 1935   1.312   1.540   2.853  0.8424  1.5041  1.1354
  646SOL     OW 1936   0.565   1.371   0.145 -0.5701 -0.2484 -0.2665
  646SOL    HW1 1937   0.562   1.416   0.238 -0.9151 -0.1480  0.9751
  646SOL    HW2 1938   0.498   1.424   0.087  0.4784  0.3605  1.8149
  647SOL     OW 1939   1.162   0.146   1.010  0.2631 -0.0145  0.0269
  647SOL    HW1 1940   1.255   0.125   1.038  1.4349 -1.0995  0.1700
  647SOL    HW2 1941   1.151   0.101   0.914  0.8899  1.1426 -0.3837
  648SOL     OW 1942   2.713   2.786   1.856 -0.2205  0.2639  0.1470
  648SOL    HW1 1943   2.636   2.855   1.857 -1.8107  1.4591 -2.0126
  648SOL    HW2 1944   2.801   2.824   1.823 -1.5184  3.4959  3.6704
  649SOL     OW 1945   0.558   2.353   0.006 -0.1666  0.3568 -0.6057
  649SOL    HW1 1946   0.489   2.357   3.028 -3.2878 -3.4051  0.6557
  649SOL    HW2 1947   0.520   2.387   0.094  0.0499 -0.0946 -1.9403
  650SOL     OW 1948   0.097   2.230   1.663 -0.1195  0.8397  0.0013
  650SOL    HW1 1949   0.102   2.126   1.674 -2.1942  0.0495 -0.2412
  650SOL    HW2 1950   0.124   2.247   1.568 -1.0048 -1.3718  0.6728
  651SOL     OW 1951   0.558   0.195   3.067 -0.2806 -0.5429 -0.4397
  651SOL    HW1 1952   0.539   0.285   0.010  2.1966 -2.1536 -0.1403
  651SOL    HW2 1953   0.571   0.125   0.040  1.1436  1.4526 -0.6574
  652SOL     OW 1954   2.520   1.754   0.358 -0.3497 -0.2675 -0.3109
  652SOL    HW1 1955   2.528   1.672   0.293 -1.2683 -0.1227 -2.0530
  652SOL    HW2 1956   2.605   1.766   0.414 -1.0439  0.6484 -1.2823
  653SOL     OW 1957   0.013   0.162   0.845 -0.0620  0.3723  0.0167
  653SOL    HW1 1958   0.079   0.239   0.835 -0.5497  1.1979  1.0920
  653SOL    HW2 1959   0.065   0.072   0.837 -1.2590 -0.9533 -0.3377
  654SOL     OW 1960   1.727   3.092   2.645  0.7271 -0.2666  0.4138
  654SOL    HW1 1961   1.628   0.007   2.628  0.6593  4.4271 -1.6274
  654SOL    HW2 1962   1.784   0.073   2.609  0.6968  1.1164 -2.6268
  655SOL     OW 1963   1.098   2.538   1.443 -0.4043  0.0696 -0.6081
  655SOL    HW1 1964   1.177   2.603   1.443  2.7655 -1.8755  1.3854
  655SOL    HW2 1965   1.062   2.523   1.349 -0.4148 -1.4866 -2.0075
  656SOL     OW 1966   0.472   2.884   2.183  0.1340 -0.0314  0.0663
  656SOL    HW1 1967   0.469   2.974   2.129  1.7500  0.2583 -1.1286
  656SOL    HW2 1968   0.477   2.807   2.118  0.5377 -1.2079  1.6180
  657SOL     OW 1969   2.021   0.731   1.866 -0.3561 -0.3239 -0.6397
  657SOL    HW1 1970   1.986   0.709   1.957  3.0879  1.7423 -0.8604
  657SOL    HW2 1971   2.021   0.653   1.801  1.2447 -1.0885  0.6033
  658SOL     OW 1972   2.402   1.893   1.168  0.3766  0.3466 -0.4722
  658SOL    HW1 1973   2.408   1.841   1.255 -1.1121 -0.9506 -1.5767
  658SOL    HW2 1974   2.444   1.839   1.090 -0.2882 -1.0416  0.1754
  659SOL     OW 1975   2.449   2.577   0.131 -0.3367 -0.3126 -0.5401
  659SOL    HW1 1976   2.542   2.552   0.102  0.1517  1.1218 -0.3652
  659SOL    HW2 1977   2.427   2.555   0.227  2.7231 -0.5194  3.4451
  660SOL     OW 1978   0.958   1.171   2.777  0.2588 -0.2599  0.3247
  660SOL    HW1 1979   1.006   1.263   2.769 -1.3198  3.4879 -2.1581
  660SOL    HW2 1980   1.021   1.104   2.822  0.7675  1.9642  0.2374
  661SOL     OW 1981   2.134   2.376   1.227  0.1868  0.3222 -0.4799
  661SOL    HW1 1982   2.076   2.447   1.267 -2.5588  1.6446  0.7862
  661SOL    HW2 1983   2.085   2.338   1.145  0.5865  3.2146 -1.0880
  662SOL     OW 1984   0.663   0.817   0.253 -0.4148  0.1120 -0.1307
  662SOL    HW1 1985   0.600   0.776   0.324  0.2794 -2.9153  0.6899
  662SOL    HW2 1986   0.606   0.852   0.178 -1.9370 -0.3100 -1.0983
  663SOL     OW 1987   1.017   2.213   3.075  0.0169  0.3277  0.1057
  663SOL    HW1 1988   1.097   2.232   3.018  1.4339 -2.0127 -0.5847
  663SOL    HW2 1989   0.978   2.303   3.097  2.3720 -0.2562  1.1711
  664SOL     OW 1990   0.842   2.998   1.452  0.2561 -0.3318  0.1860
  664SOL    HW1 1991   0.748   2.983   1.419  0.3670  0.1587 -1.4826
  664SOL    HW2 1992   0.857   2.963   1.543  0.4271  0.6884 -1.2488
  665SOL     OW 1993   1.805   1.537   1.907  0.3108  0.8899  0.6124
  665SOL    HW1 1994   1.747   1.517   1.825 -1.0711  1.9377 -0.4475
  665SOL    HW2 1995   1.851   1.449   1.936 -0.4420 -1.3074  3.3169
  666SOL     OW 1996   0.393   2.787   0.365  0.0820 -0.9263  0.5045
  666SOL    HW1 1997   0.312   2.728   0.348  2.1132 -1.3592  0.1112
  666SOL    HW2 1998   0.471   2.759   0.306 -0.3916  1.4697 -1.2434
  667SOL     OW 1999   1.778   1.699   1.449  0.3507 -0.0471 -0.4804
  667SOL    HW1 2000   1.833   1.623   1.467 -0.9310 -2.1007  2.4422
  667SOL    HW2 2001   1.685   1.700   1.496  0.4162 -3.3663  0.0356
  668SOL     OW 2002   0.362   0.425   2.109 -0.4739 -0.6638 -0.0351
  668SOL    HW1 2003   0.392   0.517   2.133  1.3442  0.6274 -0.3914
  668SOL    HW2 2004   0.424   0.354   2.147  0.3483 -0.0616  0.3474
  669SOL     OW 2005   1.899   1.959   2.133  0.3692  0.9466  0.1381
  669SOL    HW1 2006   1.940   2.053   2.145  1.3825  1.2580 -0.1616
  669SOL    HW2 2007   1.897   1.913   2.222  1.6054  3.4293 -4.2791
  670SOL     OW 2008   2.437   2.008   0.399 -0.0007  0.0024 -0.1983
  670SOL    HW1 2009   2.451   1.915   0.368 -2.5852  1.1848 -1.8277
  670SOL    HW2 2010   2.365   1.997   0.474 -3.1367 -1.1752  0.5619
  671SOL     OW 2011   0.620   1.422   1.245 -0.4301 -0.1169  0.1299
  671SOL    HW1 2012   0.641   1.360   1.171 -3.9257  1.1614  2.4130
  671SOL    HW2 2013   0.522   1.448   1.241  4.1754  0.2896 -0.2812
  672SOL     OW 2014   2.744   1.250   2.158 -0.5621 -0.3074  0.4012
  672SOL    HW1 2015   2.734   1.340   2.206  1.4764 -0.2068 -1.0055
  672SOL    HW2 2016   2.844   1.243   2.134 -1.9784 -2.9986 -0.1527
  673SOL     OW 2017   3.024   1.621   2.298 -0.0764 -0.0366 -0.3982
  673SOL    HW1 2018   2.929   1.630   2.327  0.0487  0.4040 -0.7941
  673SOL    HW2 2019   3.084   1.604   2.378  0.4755  0.6248  0.1247
  674SOL     OW 2020   0.828   2.498   2.222 -0.2492 -0.1597  0.0410
  674SOL    HW1 2021   0.847   2.536   2.312 -0.6061 -1.3173  0.4422
  674SOL    HW2 2022   0.818   2.571   2.154  1.7098 -3.0944  1.5554
  675SOL     OW 2023   0.727   0.910   1.529  0.1705 -0.1060  0.1779
  675SOL    HW1 2024   0.768   0.935   1.621 -0.0328  0.7079  1.3968
  675SOL    HW2 2025   0.634   0.951   1.519  1.3587  0.2248 -1.8424
  676SOL     OW 2026   1.963   1.166   0.450  0.1602  0.0276  0.2735
  676SOL    HW1 2027   1.904   1.095   0.494  1.5529 -1.1520 -2.1176
  676SOL    HW2 2028   1.978   1.153   0.348 -0.5874 -0.9284 -1.7864
  677SOL     OW 2029   0.027   1.680   2.806 -0.1671  0.2593  0.0289
  677SOL    HW1 2030   3.067   1.738   2.869  1.2424 -0.5491 -1.0534
  677SOL    HW2 2031   0.017   1.579   2.821  2.5392 -2.1485  1.4342
  678SOL     OW 2032   2.764   2.859   1.378  0.5353  0.1917 -0.4098
  678SOL    HW1 2033   2.668   2.893   1.391 -0.3178  3.6413 -0.0984
  678SOL    HW2 2034   2.766   2.761   1.353  2.2321  2.5436 -2.1375
  679SOL     OW 2035   2.302   2.899   0.707 -0.5214 -0.7869  0.6352
  679SOL    HW1 2036   2.215   2.952   0.704  1.4612 -0.6936  0.6662
  679SOL    HW2 2037   2.371   2.929   0.773 -2.2134  0.3061 -1.4096
  680SOL     OW 2038   0.127   2.307   2.294  0.3289  0.3255  0.9891
  680SOL    HW1 2039   0.202   2.245   2.262 -2.1562  1.8424  1.2173
  680SOL    HW2 2040   0.125   2.397   2.245 -0.2191 -3.8684  3.6223
  681SOL     OW 2041   0.240   1.560   1.452 -0.1055 -0.3661 -0.3386
  681SOL    HW1 2042   0.285   1.557   1.358 -0.1355  0.7643 -1.2320
  681SOL    HW2 2043   0.308   1.528   1.524 -2.5154 -1.3119  0.2425
  682SOL     OW 2044   0.229   2.311   1.421 -0.6982 -0.5372 -0.3377
  682SOL    HW1 2045   0.329   2.332   1.409 -1.4552  2.3478 -0.2562
  682SOL    HW2 2046   0.197   2.268   1.334  1.5774 -0.8277  0.0839
  683SOL     OW 2047   0.026   1.764   1.408  0.0310  0.2450 -0.0446
  683SOL    HW1 2048   3.070   1.775   1.490  2.0749 -2.0804 -0.9279
  683SOL    HW2 2049   0.109   1.712   1.436 -1.2510 -0.4091  1.6944
  684SOL     OW 2050   2.947   1.713   0.184 -0.0904 -0.4597  0.1400
  684SOL    HW1 2051   2.867   1.687   0.244 -0.5912  0.2947  0.6836
  684SOL    HW2 2052   3.031   1.656   0.203  0.2888 -0.0546  1.5131
  685SOL     OW 2053   1.291   0.666   0.522  0.5982  0.0815 -0.0989
  685SOL    HW1 2054   1.215   0.655   0.456  2.1176 -1.9779 -2.5147
  685SOL    HW2 2055   1.382   0.658   0.469  2.3836  0.1414  1.7074
  686SOL     OW 2056   0.338   0.004   1.226 -0.1484 -0.1791 -0.0876
  686SOL    HW1 2057   0.395   3.098   1.308 -1.5149  3.0329 -0.9812
  686SOL    HW2 2058   0.349   3.024   1.162  1.0909  0.5799  1.5692
  687SOL     OW 2059   1.024   1.310   2.287 -0.1322 -0.0418 -0.3810
  687SOL    HW1 2060   1.117   1.351   2.300 -1.2287  0.7213 -2.2910
  687SOL    HW2 2061   0.995   1.249   2.368  0.3809  1.1825  0.8307
  688SOL     OW 2062   0.830   1.893   1.795 -0.0873 -0.3834  0.2255
  688SOL    HW1 2063   0.754   1.891   1.727 -1.6896 -1.2148 -1.6905
  688SOL    HW2 2064   0.802   1.865   1.886 -0.6910  2.0690  0.4293
  689SOL     OW 2065   2.092   0.374   1.146  0.2082  0.0692 -0.3662
  689SOL    HW1 2066   2.119   0.276   1.165  1.4772 -2.8123  1.7190
  689SOL    HW2 2067   2.023   0.405   1.216 -3.3587  0.4642  2.2725
  690SOL     OW 2068   2.809   1.461   1.033 -0.4746 -0.5386 -0.1785
  690SOL    HW1 2069   2.899   1.511   1.043  0.6771  0.1817 -0.1549
  690SOL    HW2 2070   2.798   1.397   1.112 -1.3013 -1.5030 -1.2626
  691SOL     OW 2071   0.145   2.551   1.512  0.4074  1.0475  0.2628
  691SOL    HW1 2072   0.171   2.454   1.488  0.6680  0.3992 -0.3322
  691SOL    HW2 2073   0.048   2.558   1.525  1.7475 -0.7256  3.5138
  692SOL     OW 2074   1.961   2.908   0.978 -0.3684  0.1949 -0.3875
  692SOL    HW1 2075   1.898   2.832   1.010  0.7008  2.5030 -2.7197
  692SOL    HW2 2076   1.988   2.960   1.060 -0.0305 -0.7469 -0.7725
  693SOL     OW 2077   0.438   1.517   2.550  0.0087 -0.1413 -0.2520
  693SOL    HW1 2078   0.534   1.556   2.551  0.6174  1.5623 -1.6063
  693SOL    HW2 2079   0.383   1.584   2.494  0.2742  1.4428  1.6223
  694SOL     OW 2080   1.906   0.982   1.385  0.3180 -0.3965  0.1314
  694SOL    HW1 2081   1.996   0.938   1.368 -0.2574 -0.2617 -0.2554
  694SOL    HW2 2082   1.827   0.939   1.331  0.5633  2.5776  0.1931
  695SOL     OW 2083   0.944   0.894   1.347 -0.4446 -0.5815  0.0826
  695SOL    HW1 2084   0.844   0.880   1.360 -1.2618  2.1797 -1.6350
  695SOL    HW2 2085   0.980   0.927   1.434 -0.0208 -0.9060 -0.4442
  696SOL     OW 2086   1.630   3.037   0.582 -0.1405 -0.1626  0.0408
  696SOL    HW1 2087   1.689   3.011   0.662 -0.7062 -2.8520  0.2313
  696SOL    HW2 2088   1.674   3.000   0.498 -0.0360 -0.3238  0.7791
  697SOL     OW 2089   1.028   0.339   1.182 -0.1068 -0.0099 -0.0360
  697SOL    HW1 2090   1.053   0.258   1.135  0.8069  2.0560 -0.2506
  697SOL    HW2 2091   0.937   0.374   1.161  3.5000  0.4331  1.9249
  698SOL     OW 2092   1.613   1.155   2.276  0.6223  0.0307 -0.6260
  698SOL    HW1 2093   1.674   1.139   2.203 -4.1158  0.4699  2.2498
  698SOL    HW2 2094   1.607   1.253   2.314 -2.7724  3.4470  2.1405
  699SOL     OW 2095   1.562   0.761   0.963  0.0565 -0.1279  0.4847
  699SOL    HW1 2096   1.630   0.783   0.892 -0.1514  2.3722  1.0731
  699SOL    HW2 2097   1.467   0.792   0.952 -2.0127  3.3205 -0.7333
  700SOL     OW 2098   1.233   2.562   0.369  0.1787 -0.6833 -0.2688
  700SOL    HW1 2099   1.203   2.644   0.420 -0.3781 -2.7318  1.9250
  700SOL    HW2 2100   1.216   2.483   0.433  1.3575 -1.1339 -0.9708
  701SOL     OW 2101   2.062   2.448   0.109 -0.2802 -0.2608  0.0629
  701SOL    HW1 2102   2.024   2.477   0.198  0.4604 -1.0089 -1.2024
  701SOL    HW2 2103   1.990   2.447   0.034 -0.6032  0.8868  0.1856
  702SOL     OW 2104   1.114   0.483   0.927  0.0965 -0.5278  0.2792
  702SOL    HW1 2105   1.106   0.414   1.004 -0.7268  0.3550 -1.6920
  702SOL    HW2 2106   1.072   0.571   0.954 -0.2837 -1.8094 -2.0457
  703SOL     OW 2107   2.353   0.381   2.274 -0.1635 -0.2398 -0.1426
  703SOL    HW1 2108   2.369   0.320   2.358  0.1363  1.9653  0.7678
  703SOL    HW2 2109   2.289   0.457   2.293  1.8660  0.0234  0.0768
  704SOL     OW 2110   0.069   2.337   0.448  0.1594 -0.5447  0.5116
  704SOL    HW1 2111   0.043   2.282   0.365  0.1027 -2.2658  0.6274
  704SOL    HW2 2112   0.117   2.428   0.424 -0.9182  4.0880 -0.9465
  705SOL     OW 2113   2.588   2.607   2.234 -0.5734  0.2625  0.3038
  705SOL    HW1 2114   2.664   2.607   2.161  1.5787  2.0875  0.3017
  705SOL    HW2 2115   2.510   2.556   2.198  0.6787  2.1511 -3.1876
  706SOL     OW 2116   2.358   2.684   0.965 -0.0838 -0.0322 -0.7552
  706SOL    HW1 2117   2.259   2.659   0.962  1.8859 -0.2929  0.3293
  706SOL    HW2 2118   2.409   2.623   0.901  2.8332  0.5726  1.6440
  707SOL     OW 2119   0.613   2.352   2.265  0.2243 -0.4255 -0.3536
  707SOL    HW1 2120   0.589   2.299   2.182  1.7026  1.5857  4.8857
  707SOL    HW2 2121   0.699   2.404   2.248  0.3586 -0.5088  0.0464
  708SOL     OW 2122   3.009   2.177   2.410  0.1923  0.3517 -0.2080
  708SOL    HW1 2123   3.045   2.105   2.469 -2.2857  0.5943 -1.1605
  708SOL    HW2 2124   3.081   2.229   2.371 -1.2665 -1.8249  1.2886
  709SOL     OW 2125   2.013   2.968   2.034 -0.6222 -0.2119 -0.6177
  709SOL    HW1 2126   1.979   2.899   1.964  0.5376 -0.7423 -0.7999
  709SOL    HW2 2127   2.002   2.939   2.132  0.3830 -0.7227  2.2373
  710SOL     OW 2128   1.605   0.729   2.291  0.8058 -0.2378 -0.4000
  710SOL    HW1 2129   1.663   0.694   2.363  1.8943  3.4664 -1.3899
  710SOL    HW2 2130   1.633   0.698   2.195  1.0909 -0.4875  0.1861
  711SOL     OW 2131   0.779   2.051   2.765 -0.0652 -0.0324  0.1795
  711SOL    HW1 2132   0.831   2.049   2.851 -0.1021  1.3066 -1.9773
  711SOL    HW2 2133   0.745   1.959   2.739  0.7311  1.9287  2.7750
  712SOL     OW 2134   0.501   2.518   2.706 -0.3897  0.3044  0.0814
  712SOL    HW1 2135   0.503   2.616   2.735  1.6367 -1.1736 -0.3812
  712SOL    HW2 2136   0.487   2.522   2.605 -0.5770  1.0299  0.3743
  713SOL     OW 2137   1.837   1.416   2.641  0.0541  0.5220 -0.2076
  713SOL    HW1 2138   1.892   1.359   2.572  1.0240  1.0161 -1.3367
  713SOL    HW2 2139   1.842   1.362   2.730  0.4841 -1.8479  0.7908
  714SOL     OW 2140   1.471   1.311   1.881 -0.2758  0.1426 -0.3750
  714SOL    HW1 2141   1.539   1.340   1.811 -0.3013 -0.0700 -0.9085
  714SOL    HW2 2142   1.491   1.360   1.972  0.7951  0.2189 -0.2190
  715SOL     OW 2143   2.031   0.634   2.484 -0.1355  0.8904 -0.0829
  715SOL    HW1 2144   2.061   0.551   2.540  1.0804 -1.8172  0.5791
  715SOL    HW2 2145   2.090   0.637   2.403  3.2323  0.3445 -0.4065
  716SOL     OW 2146   2.810   2.227   1.807 -0.5564  0.2660  0.3607
  716SOL    HW1 2147   2.765   2.169   1.875  1.2572 -2.5670 -2.4056
  716SOL    HW2 2148   2.885   2.276   1.856  0.1542  0.7853 -2.3235
  717SOL     OW 2149   2.601   1.361   0.890  0.2174 -0.0218  0.1967
  717SOL    HW1 2150   2.689   1.385   0.940  0.2335  1.1167 -0.8041
  717SOL    HW2 2151   2.624   1.360   0.792  1.0312  0.3431  1.0035
  718SOL     OW 2152   0.978   1.681   2.186 -0.6312 -0.2958 -0.1893
  718SOL    HW1 2153   0.883   1.709   2.167  4.6006  0.8751 -0.3075
  718SOL    HW2 2154   1.029   1.676   2.098  0.3231  3.0107  2.5536
  719SOL     OW 2155   2.028   0.832   2.714  0.2008 -0.1485 -0.1645
  719SOL    HW1 2156   1.977   0.826   2.629 -1.1903  0.3337 -0.7086
  719SOL    HW2 2157   2.043   0.933   2.727  0.1269 -2.0822 -0.7500
  720SOL     OW 2158   0.663   0.612   0.773  0.0402  0.3921 -0.1293
  720SOL    HW1 2159   0.677   0.628   0.874  1.3138  0.9314  0.9176
  720SOL    HW2 2160   0.589   0.545   0.761 -2.4475  0.6195  0.1951
  721SOL     OW 2161   2.798   0.724   0.350 -0.6358  0.2430 -0.4017
  721SOL    HW1 2162   2.748   0.798   0.398 -0.5149  0.8075 -1.7787
  721SOL    HW2 2163   2.834   0.756   0.261  3.0187  0.3605 -0.7560
  722SOL     OW 2164   2.834   0.648   2.367 -0.0470  0.1284 -0.7289
  722SOL    HW1 2165   2.906   0.683   2.307  1.4976 -2.3343  3.1413
  722SOL    HW2 2166   2.831   0.543   2.360 -0.8082  0.4427  2.2317
  723SOL     OW 2167   1.986   0.222   0.332 -0.5523 -0.0716 -0.0585
  723SOL    HW1 2168   2.063   0.285   0.315  0.4164 -1.9267 -0.9243
  723SOL    HW2 2169   1.933   0.248   0.409  0.0301 -3.7213 -4.1196
  724SOL     OW 2170   0.374   1.870   1.838 -0.2297 -0.9439 -0.1021
  724SOL    HW1 2171   0.344   1.790   1.892 -0.1039 -0.6447 -0.9374
  724SOL    HW2 2172   0.467   1.862   1.804 -3.1987 -1.0398  0.7348
  725SOL     OW 2173   1.755   2.947   0.791  0.3940 -0.0352  0.4593
  725SOL    HW1 2174   1.744   2.846   0.791 -1.6918 -0.2180  1.0743
  725SOL    HW2 2175   1.854   2.966   0.805  1.5115 -2.8563 -1.8921
  726SOL     OW 2176   1.924   2.445   0.344  0.1241  0.1585  0.5591
  726SOL    HW1 2177   1.893   2.538   0.310 -0.2095 -1.3466 -2.2952
  726SOL    HW2 2178   1.908   2.426   0.443 -1.9487  0.5143  0.0654
  727SOL     OW 2179   1.677   1.783   1.204  0.6946 -0.0323  0.6093
  727SOL    HW1 2180   1.732   1.751   1.285 -0.0502  1.5321 -1.1884
  727SOL    HW2 2181   1.693   1.879   1.178  1.0529 -0.7971  1.5201
  728SOL     OW 2182   2.002   3.028   1.708 -1.0358  0.5532  0.5747
  728SOL    HW1 2183   2.091   3.061   1.745  1.6888 -1.7647  0.8101
  728SOL    HW2 2184   1.969   2.945   1.756 -0.3295 -1.4376  1.1672
  729SOL     OW 2185   2.143   1.905   1.058 -0.1198  0.3775  0.9752
  729SOL    HW1 2186   2.137   1.834   0.982 -2.1692 -1.6653  0.7913
  729SOL    HW2 2187   2.146   1.865   1.150  0.3352 -0.3994 -2.2521
  730SOL     OW 2188   1.399   0.757   2.735 -0.0958  0.2694  0.2002
  730SOL    HW1 2189   1.380   0.818   2.660 -2.5536 -3.1103  0.4516
  730SOL    HW2 2190   1.498   0.727   2.739 -0.3258  1.3265 -0.1656
  731SOL     OW 2191   0.550   0.003   0.853 -0.4075 -0.0041 -0.6053
  731SOL    HW1 2192   0.496   0.090   0.845 -0.9176 -0.4643  0.2173
  731SOL    HW2 2193   0.577   3.074   0.758  1.9157 -1.3336 -1.4274
  732SOL     OW 2194   1.567   0.396   0.519 -0.2787  0.3597 -0.2754
  732SOL    HW1 2195   1.473   0.358   0.537 -1.7952 -0.0422 -0.0458
  732SOL    HW2 2196   1.628   0.387   0.607 -1.8175 -0.4191  0.3840
  733SOL     OW 2197   0.520   1.987   1.442 -0.6439  0.3528  0.0786
  733SOL    HW1 2198   0.494   1.900   1.390 -2.9666 -1.5496 -0.9986
  733SOL    HW2 2199   0.569   2.051   1.386 -1.9853 -2.2329 -0.6389
  734SOL     OW 2200   2.949   2.735   0.197  0.0028  0.4263  0.3553
  734SOL    HW1 2201   2.987   2.743   0.291 -1.7673  0.1777 -0.6956
  734SOL    HW2 2202   3.021   2.755   0.125 -1.0180 -0.6897 -0.7467
  735SOL     OW 2203   1.407   0.074   1.118  0.2915 -0.0758  0.1781
  735SOL    HW1 2204   1.391   0.010   1.195 -0.0316 -0.6632 -0.2852
  735SOL    HW2 2205   1.478   0.030   1.056 -1.4542  0.6627 -2.1087
  736SOL     OW 2206   1.988   2.178   0.327  0.2664  0.2403  0.1090
  736SOL    HW1 2207   2.076   2.180   0.272  0.7870  0.3548 -1.9677
  736SOL    HW2 2208   1.954   2.271   0.344 -0.7082  0.4695  1.8733
  737SOL     OW 2209   3.075   1.472   1.091 -0.3789 -0.3323  0.0688
  737SOL    HW1 2210   0.043   1.549   1.075 -0.5657  0.3353 -1.0365
  737SOL    HW2 2211   3.087   1.439   1.184  0.6986 -0.1664 -4.5119
  738SOL     OW 2212   2.111   2.330   2.391  0.2023 -0.2172  0.5501
  738SOL    HW1 2213   2.043   2.393   2.420 -1.3127  3.2372  0.6178
  738SOL    HW2 2214   2.199   2.373   2.363  0.1179  1.8577 -1.1988
  739SOL     OW 2215   1.340   1.924   2.818  0.0784 -0.4706 -0.4695
  739SOL    HW1 2216   1.361   2.005   2.761 -0.2845  0.8578 -0.0883
  739SOL    HW2 2217   1.372   1.946   2.915  2.4365 -0.5080  1.0642
  740SOL     OW 2218   1.560   3.086   0.901 -0.0055 -0.3077 -0.4320
  740SOL    HW1 2219   1.542   0.035   0.813  0.5297  0.3783  1.2353
  740SOL    HW2 2220   1.625   3.005   0.879  3.7622 -2.6281 -2.4589
  741SOL     OW 2221   0.069   1.237   0.666 -0.1091 -0.2352  0.0003
  741SOL    HW1 2222   0.149   1.169   0.678  1.5527 -0.4123 -0.9641
  741SOL    HW2 2223   3.088   1.195   0.609 -1.0978 -0.7425 -2.3396
  742SOL     OW 2224   0.965   1.153   2.500  0.0182  0.0686 -0.3626
  742SOL    HW1 2225   0.955   1.188   2.591 -1.3869 -0.7927 -1.0885
  742SOL    HW2 2226   0.876   1.135   2.463  1.2735  0.0728  0.4037
  743SOL     OW 2227   1.048   0.936   1.997 -0.4874  0.2902  0.6634
  743SOL    HW1 2228   0.988   0.994   2.060 -1.3697  0.6930 -0.6235
  743SOL    HW2 2229   1.115   0.882   2.056  1.9983  0.6055  1.7090
  744SOL     OW 2230   1.836   0.143   1.662 -0.0815 -0.7216 -0.4616
  744SOL    HW1 2231   1.890   0.058   1.663 -0.8115  1.6076 -1.8591
  744SOL    HW2 2232   1.886   0.219   1.713 -0.0117  0.1708 -0.3515
  745SOL     OW 2233   2.184   1.231   1.512  0.5110 -0.0620 -0.5145
  745SOL    HW1 2234   2.223   1.325   1.522  0.7025  1.4351 -0.1211
  745SOL    HW2 2235   2.167   1.205   1.414 -1.6311 -2.7412 -1.0983
  746SOL     OW 2236   2.048   1.279   0.196 -0.5433  0.0842  0.2683
  746SOL    HW1 2237   1.981   1.356   0.202 -0.2724 -1.7849  0.3232
  746SOL    HW2 2238   2.146   1.310   0.223  4.4671  2.4657  4.2978
  747SOL     OW 2239   2.713   1.717   1.258  0.0215  0.5363  0.1520
  747SOL    HW1 2240   2.702   1.693   1.160 -0.0605 -0.8108  0.4969
  747SOL    HW2 2241   2.733   1.816   1.276  1.3775  0.1536 -2.2786
  748SOL     OW 2242   0.326   1.991   0.464  0.5640 -0.6459  0.2260
  748SOL    HW1 2243   0.242   1.963   0.414 -0.5553 -1.9336 -0.2322
  748SOL    HW2 2244   0.388   1.910   0.458  2.3242  2.0990  0.8934
  749SOL     OW 2245   2.661   2.400   2.715 -0.2674  0.0210  0.4686
  749SOL    HW1 2246   2.734   2.382   2.646 -0.3371 -0.9368  1.5244
  749SOL    HW2 2247   2.588   2.453   2.670  0.2811  0.5610  1.2518
  750SOL     OW 2248   2.475   0.821   0.703  0.1829  0.7517  0.1728
  750SOL    HW1 2249   2.452   0.867   0.790  1.0640  2.3742 -1.6171
  750SOL    HW2 2250   2.390   0.779   0.659 -0.8412 -2.4409 -0.7476
  751SOL     OW 2251   2.415   2.839   0.123  0.3568  0.5457  0.8015
  751SOL    HW1 2252   2.363   2.854   0.036 -1.6229  0.3634 -0.1638
  751SOL    HW2 2253   2.437   2.737   0.134  1.3528  2.8546 -0.5221
  752SOL     OW 2254   3.092   2.729   0.742  0.1398 -0.1013 -0.1206
  752SOL    HW1 2255   3.033   2.809   0.715  0.9016  2.0304  0.1377
  752SOL    HW2 2256   3.084   2.643   0.682  0.5861  1.2961  1.6700
  753SOL     OW 2257   1.990   0.956   2.193  0.3421  0.3099 -0.4365
  753SOL    HW1 2258   2.077   1.005   2.190  0.5206  1.0515  0.5894
  753SOL    HW2 2259   1.947   0.973   2.285 -0.3516  1.9528 -2.9043
  754SOL     OW 2260   1.791   1.984   1.431  0.1831 -0.1529 -0.1533
  754SOL    HW1 2261   1.879   2.039   1.431  3.0554 -1.5028  0.9148
  754SOL    HW2 2262   1.800   1.897   1.486  2.6999 -1.3135 -1.5556
  755SOL     OW 2263   2.684   0.924   0.499 -0.5601  0.2598 -0.1581
  755SOL    HW1 2264   2.587   0.894   0.476 -0.1265 -0.3167 -0.1368
  755SOL    HW2 2265   2.696   0.938   0.598 -1.4061 -2.3078  1.0770
  756SOL     OW 2266   0.703   1.185   2.854  0.4489  0.2348 -0.1028
  756SOL    HW1 2267   0.646   1.226   2.782 -0.9183 -0.2127  0.9725
  756SOL    HW2 2268   0.800   1.180   2.823  2.5292 -0.1621 -0.4563
  757SOL     OW 2269   1.352   2.550   1.094 -0.6477  0.1709 -0.2384
  757SOL    HW1 2270   1.349   2.460   1.049  0.5261  1.3326 -3.2586
  757SOL    HW2 2271   1.395   2.543   1.188  1.4883  0.7082  2.0673
  758SOL     OW 2272   1.101   2.606   1.711 -0.2423 -0.1155 -0.0609
  758SOL    HW1 2273   1.045   2.686   1.743 -0.3912  3.6881  0.7757
  758SOL    HW2 2274   1.120   2.599   1.609 -0.3457  0.2615 -0.8071
  759SOL     OW 2275   3.081   0.964   1.019 -0.0547 -0.2724 -0.3564
  759SOL    HW1 2276   2.979   0.959   0.997 -0.5936  1.1828 -1.3433
  759SOL    HW2 2277   0.017   1.058   0.987  0.0702  0.0027 -1.5475
  760SOL     OW 2278   2.142   1.233   1.203 -0.2645 -0.0133  0.9779
  760SOL    HW1 2279   2.177   1.142   1.174 -0.5335 -0.9380  0.5022
  760SOL    HW2 2280   2.076   1.267   1.135  3.0228 -1.5093 -0.2476
  761SOL     OW 2281   1.931   0.100   0.118  0.8795  0.6506  0.2838
  761SOL    HW1 2282   1.828   0.099   0.107  0.8351  2.5207 -0.7490
  761SOL    HW2 2283   1.950   0.143   0.207 -0.6876 -0.1704 -0.9838
  762SOL     OW 2284   2.273   1.387   2.892 -0.3066  0.3053 -0.2671
  762SOL    HW1 2285   2.320   1.297   2.908 -1.4864 -1.1076  1.6089
  762SOL    HW2 2286   2.247   1.397   2.792  0.0579 -0.5138  2.6287
  763SOL     OW 2287   0.353   2.271   1.825 -0.0218 -0.5135  0.1856
  763SOL    HW1 2288   0.260   2.257   1.785 -1.0847 -0.5591 -0.0452
  763SOL    HW2 2289   0.428   2.244   1.757  0.4614  0.8148 -1.3471
  764SOL     OW 2290   0.006   2.441   0.050 -0.5805 -0.2460 -0.5880
  764SOL    HW1 2291   3.029   2.433   0.115  3.4228  0.4607 -0.7360
  764SOL    HW2 2292   3.074   2.434   3.049 -1.2079 -0.8893 -0.8091
  765SOL     OW 2293   0.410   3.082   1.476 -1.0536 -0.2593  0.4580
  765SOL    HW1 2294   0.450   0.073   1.507  0.7653  0.3379  1.8051
  765SOL    HW2 2295   0.481   3.017   1.449  1.7045  0.4313 -1.2806
  766SOL     OW 2296   2.799   2.046   2.298  0.3371 -0.0132  0.1887
  766SOL    HW1 2297   2.869   2.114   2.316 -2.9337  0.2185 -0.5352
  766SOL    HW2 2298   2.769   2.004   2.390 -0.9832 -2.9915  5.1886
  767SOL     OW 2299   2.497   0.893   2.113 -0.2692  0.2424 -0.1003
  767SOL    HW1 2300   2.472   0.907   2.014  1.5879 -0.6603 -0.5761
  767SOL    HW2 2301   2.577   0.832   2.116 -4.2492 -1.0066 -0.2689
  768SOL     OW 2302   1.244   3.038   2.740  0.1809 -0.1493  0.9219
  768SOL    HW1 2303   1.190   3.016   2.822 -2.6238  1.4826 -2.5046
  768SOL    HW2 2304   1.308   0.016   2.765 -0.0281  1.1996  3.4655
  769SOL     OW 2305   2.720   2.769   0.981 -0.2283 -0.6775 -0.3016
  769SOL    HW1 2306   2.788   2.827   1.037  1.2282 -0.0608 -0.0526
  769SOL    HW2 2307   2.666   2.705   1.037 -2.8573 -4.2136  0.7430
  770SOL     OW 2308   0.326   2.878   2.653 -0.4883  0.0998  0.1361
  770SOL    HW1 2309   0.272   2.952   2.700  0.4356  1.0598  0.8978
  770SOL    HW2 2310   0.272   2.794   2.643 -0.2486 -0.6706  2.1508
  771SOL     OW 2311   1.412   2.001   2.169  0.5436  0.0687  0.1449
  771SOL    HW1 2312   1.333   2.066   2.152  0.2593 -0.2971  1.1349
  771SOL    HW2 2313   1.409   1.927   2.100  0.9861 -0.9321 -1.4769
  772SOL     OW 2314   1.486   2.638   3.034 -0.1379 -0.1002  0.1152
  772SOL    HW1 2315   1.393   2.672   3.039  0.7492 -2.5465  0.3933
  772SOL    HW2 2316   1.521   2.656   2.939  1.8989  0.3776 -0.2016
  773SOL     OW 2317   1.991   0.617   1.456 -0.1982 -1.3326 -0.0673
  773SOL    HW1 2318   2.044   0.694   1.413  1.1445  2.2031 -0.0083
  773SOL    HW2 2319   1.956   0.553   1.388  2.4056  2.0470  2.1763
  774SOL     OW 2320   0.887   1.066   1.147  0.0997 -0.3392 -0.0128
  774SOL    HW1 2321   0.984   1.094   1.126 -1.7292 -0.1494 -0.9908
  774SOL    HW2 2322   0.884   0.986   1.212  0.5962 -2.3921 -0.9509
  775SOL     OW 2323   1.875   2.815   2.979 -0.2380 -0.1090  0.0350
  775SOL    HW1 2324   1.906   2.832   3.074 -0.0675  0.1493  0.4913
  775SOL    HW2 2325   1.889   2.719   2.957  1.5079  5.5308  1.7742
  776SOL     OW 2326   2.152   0.823   1.344  0.4151  0.3947 -0.3091
  776SOL    HW1 2327   2.217   0.867   1.410 -0.8830  1.0200  2.2586
  776SOL    HW2 2328   2.174   0.846   1.248  0.8554  0.2172  1.5143
  777SOL     OW 2329   0.230   1.092   1.998 -0.5583 -0.6178 -0.2510
  777SOL    HW1 2330   0.253   0.992   1.993  0.1253 -1.2393 -0.8288
  777SOL    HW2 2331   0.291   1.142   1.934  0.2915 -0.8471 -1.0915
  778SOL     OW 2332   0.243   0.784   0.196  0.6849 -0.4955 -0.1965
  778SOL    HW1 2333   0.336   0.769   0.159  0.8309 -1.0859 -0.6113
  778SOL    HW2 2334   0.205   0.871   0.153  1.2574  3.9368  0.9758
  779SOL     OW 2335   0.799   0.158   2.713 -0.1396  0.0539  0.2687
  779SOL    HW1 2336   0.812   0.076   2.658 -2.2204  0.4078 -1.4564
  779SOL    HW2 2337   0.814   0.150   2.812  0.2352  1.2721 -0.5963
  780SOL     OW 2338   2.224   1.177   2.543 -0.3553  0.2556 -0.5342
  780SOL    HW1 2339   2.275   1.110   2.601  0.3403 -1.4896 -1.4745
  780SOL    HW2 2340   2.226   1.267   2.587  2.6297 -2.8768 -1.5467
  781SOL     OW 2341   2.881   1.011   2.021 -0.1760  0.4621  0.0493
  781SOL    HW1 2342   2.807   1.003   1.950  2.4625 -1.9151 -0.7797
  781SOL    HW2 2343   2.878   0.932   2.084  1.7468 -0.8672 -0.2684
  782SOL     OW 2344   0.633   1.823   2.742 -0.0646  0.3866  0.3612
  782SOL    HW1 2345   0.607   1.805   2.839 -1.3564 -0.4937 -1.1737
  782SOL    HW2 2346   0.553   1.862   2.696  3.7940  0.3067  1.7500
  783SOL     OW 2347   1.075   2.538   1.166 -0.3882  0.1007  0.3394
  783SOL    HW1 2348   1.174   2.536   1.145  0.1780  2.5052  1.8854
  783SOL    HW2 2349   1.024   2.578   1.090 -1.1285  1.7520  1.5162
  784SOL     OW 2350   1.763   0.615   2.483 -0.1227  0.3087  0.0531
  784SOL    HW1 2351   1.865   0.617   2.474  1.6329  1.6143  0.7496
  784SOL    HW2 2352   1.720   0.522   2.488 -1.7309  2.7318  0.3091
  785SOL     OW 2353   0.193   3.074   2.091  0.2602 -0.7084  0.1154
  785SOL    HW1 2354   0.291   3.086   2.112  1.2773 -0.8791  0.4075
  785SOL    HW2 2355   0.134   3.057   2.174 -1.0116 -0.5913  1.8901
  786SOL     OW 2356   0.832   2.087   0.354 -0.1240 -0.5254 -0.5483
  786SOL    HW1 2357   0.793   2.094   0.258 -1.2862  2.0419 -1.3848
  786SOL    HW2 2358   0.837   2.185   0.386 -0.3254 -0.3882 -0.0299
  787SOL     OW 2359   1.287   0.205   0.665 -0.1817  0.5612 -0.6454
  787SOL    HW1 2360   1.225   0.163   0.595  1.5258  2.7560  0.0556
  787SOL    HW2 2361   1.276   0.304   0.672  0.3863  0.4183 -0.5218
  788SOL     OW 2362   2.843   1.543   1.386  0.2689 -0.2080  0.4039
  788SOL    HW1 2363   2.783   1.615   1.341 -0.1117  0.2541 -0.6834
  788SOL    HW2 2364   2.940   1.546   1.350  0.7531  0.4892 -0.3212
  789SOL     OW 2365   2.653   1.039   2.288  0.6981 -0.7498 -0.4466
  789SOL    HW1 2366   2.600   0.992   2.220  4.2274  1.9058  2.2426
  789SOL    HW2 2367   2.677   1.131   2.252  3.2087 -2.2024  1.8874
  790SOL     OW 2368   0.832   0.249   0.253  0.5159 -0.1308 -0.3970
  790SOL    HW1 2369   0.777   0.329   0.286  1.6389 -0.9676 -0.9737
  790SOL    HW2 2370   0.775   0.162   0.238 -1.4763 -2.4924 -2.3520
  791SOL     OW 2371   2.872   3.025   3.042  0.3134  0.0454  0.2118
  791SOL    HW1 2372   2.767   3.037   3.041 -0.0274  0.1048  3.5911
  791SOL    HW2 2373   2.916   3.072   0.025  0.0347 -1.6599 -1.8822
  792SOL     OW 2374   1.389   0.549   2.201  0.6402 -0.4056  0.2194
  792SOL    HW1 2375   1.471   0.586   2.247 -1.4157 -0.7187 -1.8494
  792SOL    HW2 2376   1.341   0.471   2.253 -1.9469  1.6633  4.0242
  793SOL     OW 2377   2.931   0.279   0.999  0.4448 -0.6199 -0.2038
  793SOL    HW1 2378   3.007   0.239   0.949  0.3978 -0.5595  0.8509
  793SOL    HW2 2379   2.961   0.372   1.036  0.5711 -1.0338  0.5759
  794SOL     OW 2380   0.075   0.678   2.063 -0.2699  0.3429  0.7048
  794SOL    HW1 2381   0.164   0.702   2.016  0.8004  0.3291  1.6490
  794SOL    HW2 2382   0.002   0.650   1.996 -1.2756 -1.3672  0.5915
  795SOL     OW 2383   0.527   1.463   0.408 -0.5725 -0.1159  0.3606
  795SOL    HW1 2384   0.587   1.491   0.485 -0.0270  0.7136  0.1765
  795SOL    HW2 2385   0.524   1.362   0.404 -2.5788  3.0014  0.8994
  796SOL     OW 2386   3.068   0.875   2.990  0.3114 -0.5634  1.0548
  796SOL    HW1 2387   0.059   0.878   3.034 -1.7208 -1.4419  0.2328
  796SOL    HW2 2388   3.074   0.839   2.891  3.1845  0.3647 -0.4285
  797SOL     OW 2389   1.901   2.849   2.500 -0.2233 -0.7023  0.5064
  797SOL    HW1 2390   1.928   2.899   2.584 -0.2012 -0.7964 -2.5745
  797SOL    HW2 2391   1.798   2.832   2.500  0.5777  0.5458 -0.2350
  798SOL     OW 2392   0.067   0.044   1.237  0.0147 -0.0969 -0.2354
  798SOL    HW1 2393   0.036   0.141   1.233 -1.5019 -0.6177 -1.9316
  798SOL    HW2 2394   0.167   0.036   1.245 -0.5559  1.3203  0.9479
  799SOL     OW 2395   2.459   0.847   1.839 -0.1504 -0.5822  0.0334
  799SOL    HW1 2396   2.362   0.882   1.821  0.2403  1.6646  0.9340
  799SOL    HW2 2397   2.477   0.757   1.800  1.4370  1.2944  2.4589
  800SOL     OW 2398   0.157   1.941   0.697  0.2763  0.1380 -0.4667
  800SOL    HW1 2399   0.252   1.978   0.681  1.0048  0.6523  2.0240
  800SOL    HW2 2400   0.116   1.929   0.602  1.0782  2.0280 -2.6406
  801SOL     OW 2401   1.563   1.441   0.353  0.1614 -0.2284  0.3469
  801SOL    HW1 2402   1.576   1.536   0.313 -3.3270  1.3679  1.3447
  801SOL    HW2 2403   1.605   1.446   0.442  0.8857 -1.6314  0.8735
  802SOL     OW 2404   1.350   1.144   2.801  0.0608  0.1119 -0.0504
  802SOL    HW1 2405   1.322   1.169   2.707  2.1518  2.0459  0.9654
  802SOL    HW2 2406   1.448   1.112   2.802  3.8720 -0.6802  0.0714
  803SOL     OW 2407   0.341   1.991   2.080  0.1743 -0.0907 -0.1704
  803SOL    HW1 2408   0.386   1.978   1.993 -2.3551 -0.4248  1.8133
  803SOL    HW2 2409   0.287   1.911   2.105 -0.8406  3.5192  0.9091
  804SOL     OW 2410   1.329   2.310   0.983 -0.3951  0.0198  0.6333
  804SOL    HW1 2411   1.370   2.227   0.939  0.9637  2.2969 -1.1726
  804SOL    HW2 2412   1.228   2.305   0.966  1.1241 -0.3069  0.6531
  805SOL     OW 2413   2.437   2.195   2.673  0.1965  0.5869 -0.0029
  805SOL    HW1 2414   2.443   2.142   2.760 -0.6816  0.0053 -0.8047
  805SOL    HW2 2415   2.507   2.269   2.684  3.7006  2.0419 -1.0992
  806SOL     OW 2416   0.127   0.475   0.669 -0.2956 -0.4307 -0.3877
  806SOL    HW1 2417   0.195   0.439   0.735  0.1911 -3.6995 -1.7719
  806SOL    HW2 2418   0.053   0.518   0.724  1.1699 -2.6402  2.0850
  807SOL     OW 2419   2.702   0.818   2.866  0.1026  0.1206  0.2692
  807SOL    HW1 2420   2.724   0.772   2.776  1.6829 -1.1727 -2.0640
  807SOL    HW2 2421   2.767   0.900   2.871  1.8693  1.6516  0.6522
  808SOL     OW 2422   0.790   2.043   0.662 -0.6851 -0.3750  0.0447
  808SOL    HW1 2423   0.764   1.958   0.614  0.6671  1.1763  1.5473
  808SOL    HW2 2424   0.710   2.106   0.660  2.0699 -0.0249  1.8615
  809SOL     OW 2425   2.609   0.185   2.370  0.2646 -0.0724 -0.1270
  809SOL    HW1 2426   2.638   0.092   2.384 -1.6031 -1.7767 -0.4860
  809SOL    HW2 2427   2.514   0.200   2.406 -0.1171  2.3936 -1.7966
  810SOL     OW 2428   1.603   1.004   0.385 -0.1267  0.6687 -0.1033
  810SOL    HW1 2429   1.673   0.950   0.437 -0.3447  0.9991 -2.2635
  810SOL    HW2 2430   1.561   0.946   0.315 -0.5521  3.6231 -1.3086
  811SOL     OW 2431   1.702   2.737   2.037  1.4377  0.3283  0.2282
  811SOL    HW1 2432   1.612   2.774   2.068  0.7992 -1.5393 -1.9261
  811SOL    HW2 2433   1.708   2.640   2.073  0.8402  1.4020 -1.4471
  812SOL     OW 2434   1.884   2.406   0.597  0.5465  0.1747  0.3527
  812SOL    HW1 2435   1.793   2.413   0.641  2.6458 -1.4680  3.3256
  812SOL    HW2 2436   1.934   2.494   0.611  1.5656 -0.4914 -2.2833
  813SOL     OW 2437   1.052   0.421   1.951  0.0961  0.1341  0.0029
  813SOL    HW1 2438   1.138   0.442   1.902  1.6806 -1.7454  2.5305
  813SOL    HW2 2439   1.011   0.334   1.913  0.1875 -1.8109  0.4224
  814SOL     OW 2440   0.207   2.970   1.621  0.0078 -0.4447  0.2917
  814SOL    HW1 2441   0.278   3.021   1.567  1.9532 -0.1711 -2.2629
  814SOL    HW2 2442   0.163   3.024   1.695  2.5667  2.4148  0.2481
  815SOL     OW 2443   0.377   0.208   0.853  0.1840  0.3625 -0.1120
  815SOL    HW1 2444   0.321   0.125   0.843  1.8923  0.9128 -1.3612
  815SOL    HW2 2445   0.364   0.253   0.939 -0.1258 -1.6675  1.6218
  816SOL     OW 2446   2.948   1.843   2.170 -1.1120  0.6546 -0.1854
  816SOL    HW1 2447   2.905   1.921   2.225  0.5207  1.3216 -2.0005
  816SOL    HW2 2448   2.990   1.768   2.229 -0.0886 -0.5943  0.1331
  817SOL     OW 2449   1.292   3.067   0.296  0.2273 -0.0122 -0.2016
  817SOL    HW1 2450   1.245   0.057   0.310  1.2258 -0.9378  0.5888
  817SOL    HW2 2451   1.338   3.026   0.373 -0.7023  1.0367 -0.2964
  818SOL     OW 2452   1.742   0.607   0.175  0.9469  0.7882  0.2214
  818SOL    HW1 2453   1.811   0.600   0.097  1.1478 -0.2337 -1.0408
  818SOL    HW2 2454   1.790   0.623   0.259  0.6574  1.1886 -1.7811
  819SOL     OW 2455   2.204   2.810   3.023  0.3398  0.1584 -0.4314
  819SOL    HW1 2456   2.217   2.708   3.024  2.6741 -0.5286 -2.4044
  819SOL    HW2 2457   2.106   2.834   3.050 -1.4876 -0.7995 -2.7943
  820SOL     OW 2458   1.576   1.036   2.740 -0.6602  0.0998 -0.1703
  820SOL    HW1 2459   1.583   0.971   2.820 -0.1477 -1.3591 -0.8375
  820SOL    HW2 2460   1.627   1.005   2.659 -0.6894  0.0336 -0.3806
  821SOL     OW 2461   0.371   0.653   1.135  0.0265  0.0749 -0.3195
  821SOL    HW1 2462   0.448   0.598   1.174  0.8663  1.7952 -1.1213
  821SOL    HW2 2463   0.368   0.648   1.030 -0.3289 -0.8158 -1.0034
  822SOL     OW 2464   1.120   2.590   2.318  0.6294  0.1520  1.0067
  822SOL    HW1 2465   1.201   2.548   2.364 -2.0882 -2.2482 -2.1238
  822SOL    HW2 2466   1.038   2.574   2.378 -1.5095  0.7188  3.7585
  823SOL     OW 2467   0.455   1.503   1.641 -0.4646 -0.2499 -0.0010
  823SOL    HW1 2468   0.512   1.590   1.633  2.2866  3.6935  0.8972
  823SOL    HW2 2469   0.514   1.427   1.614 -1.4837  2.3238 -0.8114
  824SOL     OW 2470   1.761   2.540   2.430 -0.0651 -0.0969 -0.1234
  824SOL    HW1 2471   1.856   2.572   2.446 -1.9571 -0.9616 -2.5365
  824SOL    HW2 2472   1.692   2.587   2.485  2.3153 -0.6007 -1.6170
  825SOL     OW 2473   1.260   0.891   0.275  0.2120 -0.0361  0.0951
  825SOL    HW1 2474   1.354   0.852   0.280  1.4676 -0.8070 -0.6041
  825SOL    HW2 2475   1.255   0.988   0.302 -0.4519 -2.3892 -0.9262
  826SOL     OW 2476   2.225   0.642   2.875  0.2846  0.0359  0.1212
  826SOL    HW1 2477   2.146   0.682   2.823 -1.1337 -0.7347  1.2980
  826SOL    HW2 2478   2.294   0.714   2.892 -1.7410  0.5279  1.6907
  827SOL     OW 2479   0.374   2.385   2.911 -0.5440 -0.2190  0.6440
  827SOL    HW1 2480   0.402   2.441   2.829  0.3575 -1.5526  0.8634
  827SOL    HW2 2481   0.380   2.286   2.898 -0.0093  1.4586  1.0315
  828SOL     OW 2482   2.998   0.739   1.311 -0.4632  0.4780 -0.2742
  828SOL    HW1 2483   2.934   0.665   1.290 -0.2941  1.4869 -1.1582
  828SOL    HW2 2484   3.098   0.715   1.297 -1.6227 -0.7610  0.7450
  829SOL     OW 2485   0.690   1.694   0.959  0.0296 -0.6948  0.3061
  829SOL    HW1 2486   0.688   1.786   1.007 -0.1995  0.6023 -0.2429
  829SOL    HW2 2487   0.775   1.635   0.963  0.4161  0.3563 -2.5973
  830SOL     OW 2488   0.780   1.237   1.382 -0.4845  0.1067  0.1046
  830SOL    HW1 2489   0.740   1.312   1.316 -1.5717  3.2015 -0.0047
  830SOL    HW2 2490   0.821   1.157   1.332 -0.9790  1.3037 -0.8437
  831SOL     OW 2491   0.277   2.057   0.118 -0.0275  0.2584 -0.0876
  831SOL    HW1 2492   0.241   2.065   0.026  0.7894 -0.9390  1.5198
  831SOL    HW2 2493   0.243   2.135   0.174 -0.0636  0.6648 -1.8376
  832SOL     OW 2494   0.815   0.179   2.982 -0.2238 -0.1980 -0.4300
  832SOL    HW1 2495   0.716   0.175   3.011 -1.8791  1.8378  1.9184
  832SOL    HW2 2496   0.861   0.254   3.035 -0.4609 -1.2463  2.3482
  833SOL     OW 2497   0.301   0.363   1.841 -0.2520 -0.1513  0.2376
  833SOL    HW1 2498   0.311   0.400   1.935 -0.7368  0.1309  0.9530
  833SOL    HW2 2499   0.202   0.355   1.816 -1.5770 -3.0500  0.5867
  834SOL     OW 2500   0.176   0.415   0.952 -0.6813  0.2112  0.1461
  834SOL    HW1 2501   0.113   0.475   1.008  1.9440 -2.5637  2.4461
  834SOL    HW2 2502   0.227   0.348   1.009 -2.4946  1.0799 -1.0030
  835SOL     OW 2503   2.788   0.062   1.058 -0.5371 -0.0462  0.1305
  835SOL    HW1 2504   2.858   0.137   1.058  1.5884  0.2445 -0.7215
  835SOL    HW2 2505   2.839   3.069   1.060 -0.7469 -0.3280 -1.1823
  836SOL     OW 2506   0.102   2.076   3.017 -0.1512 -0.3513 -0.3737
  836SOL    HW1 2507   0.068   2.146   2.956  1.9146 -2.4503  2.2654
  836SOL    HW2 2508   0.026   2.017   3.056 -0.8980 -1.6437 -2.9663
  837SOL     OW 2509   1.790   1.859   2.788  0.6162 -0.2046  0.4340
  837SOL    HW1 2510   1.884   1.879   2.760  0.3513 -0.8399 -0.3703
  837SOL    HW2 2511   1.736   1.841   2.697 -0.5211 -0.4804 -3.1643
  838SOL     OW 2512   3.005   0.955   1.475  0.5180  0.6208 -0.0075
  838SOL    HW1 2513   3.009   0.868   1.419 -0.7599  0.7060 -1.8551
  838SOL    HW2 2514   2.946   1.019   1.418 -0.9728 -2.0923  1.3688
  839SOL     OW 2515   1.074   0.851   0.789 -0.2574 -0.2144 -0.0331
  839SOL    HW1 2516   0.986   0.893   0.800  2.4235 -1.5388 -1.0133
  839SOL    HW2 2517   1.126   0.877   0.703 -1.0074 -1.1595 -0.3427
  840SOL     OW 2518   1.725   0.155   1.065  0.3467  0.2069 -0.1614
  840SOL    HW1 2519   1.683   0.081   1.011  1.4894  0.1573  0.3875
  840SOL    HW2 2520   1.659   0.230   1.092 -2.6438  1.3656  0.1772
  841SOL     OW 2521   0.412   2.660   0.646  0.2594  0.3221  0.0333
  841SOL    HW1 2522   0.441   2.718   0.568  0.1200 -0.9696  0.3180
  841SOL    HW2 2523   0.499   2.614   0.675 -2.1299  0.4714 -1.1987
  842SOL     OW 2524   0.521   0.705   0.485 -0.7186 -0.5816 -0.5144
  842SOL    HW1 2525   0.585   0.677   0.561  2.2396  3.3744 -0.2961
  842SOL    HW2 2526   0.441   0.645   0.462 -2.7908  4.5110 -1.6695
  843SOL     OW 2527   1.037   1.263   1.538 -0.3196  0.5011 -0.3269
  843SOL    HW1 2528   1.028   1.273   1.637 -2.1765 -0.5600 -2.8796
  843SOL    HW2 2529   0.952   1.279   1.484 -1.1726 -0.2200 -1.6284
  844SOL     OW 2530   1.258   2.012   0.213 -0.9004  0.1720 -0.0584
  844SOL    HW1 2531   1.303   1.970   0.127  0.7110 -1.2483 -0.2599
  844SOL    HW2 2532   1.246   2.115   0.206 -0.8935 -1.6746  0.3651
  845SOL     OW 2533   2.354   2.439   2.345 -0.2015  0.3666 -0.2317
  845SOL    HW1 2534   2.347   2.455   2.242 -1.1716  2.3899 -2.8907
  845SOL    HW2 2535   2.429   2.372   2.359 -1.0583 -0.0151  0.8593
  846SOL     OW 2536   2.000   2.149   2.965 -0.1050 -0.1351 -0.7156
  846SOL    HW1 2537   1.964   2.125   2.874 -0.5081 -2.7989  0.0069
  846SOL    HW2 2538   1.930   2.127   3.037  1.6630  0.9667  1.8435
  847SOL     OW 2539   1.988   2.953   2.752 -0.0807  0.4367 -0.0970
  847SOL    HW1 2540   2.086   2.924   2.752  1.7243 -1.0576  1.1084
  847SOL    HW2 2541   1.939   2.920   2.833 -0.0166  0.3257 -2.4167
  848SOL     OW 2542   0.825   0.501   0.578 -0.1514  0.3606 -0.6212
  848SOL    HW1 2543   0.787   0.554   0.658 -0.8603  0.6530  1.4014
  848SOL    HW2 2544   0.909   0.447   0.616  2.1568 -2.4980  1.8509
  849SOL     OW 2545   0.674   2.941   1.133  0.1645  0.5857 -0.5171
  849SOL    HW1 2546   0.652   2.899   1.041 -1.8990 -3.1841  0.9381
  849SOL    HW2 2547   0.761   2.997   1.126  1.2517  0.4483  0.5565
  850SOL     OW 2548   0.390   1.524   3.093 -0.2866 -0.0852  0.2873
  850SOL    HW1 2549   0.301   1.570   0.012 -0.6987 -0.9839  1.7698
  850SOL    HW2 2550   0.401   1.508   2.990  1.1205 -1.2216 -1.4209
  851SOL     OW 2551   0.132   0.933   0.479  0.3673  0.0340  0.1844
  851SOL    HW1 2552   0.228   0.901   0.466  1.1399  2.8622  3.2142
  851SOL    HW2 2553   0.073   0.851   0.488  0.1955 -1.2041  0.4144
  852SOL     OW 2554   1.990   1.890   1.621  0.4810 -0.0656  0.7648
  852SOL    HW1 2555   2.018   1.988   1.622 -1.0260  2.3479  1.1539
  852SOL    HW2 2556   1.928   1.863   1.695  1.1085  0.8161  0.3470
  853SOL     OW 2557   0.172   1.797   0.059 -0.2276 -0.2218  0.0810
  853SOL    HW1 2558   0.151   1.749   0.147 -0.2661  2.8873  2.2020
  853SOL    HW2 2559   0.204   1.888   0.080  1.0517 -1.9100 -0.1293
  854SOL     OW 2560   1.693   1.271   1.520  0.3149 -0.3657  0.4369
  854SOL    HW1 2561   1.718   1.279   1.420  1.2470 -1.3908  2.9484
  854SOL    HW2 2562   1.759   1.216   1.566 -3.5547  1.7431  0.9515
  855SOL     OW 2563   0.738   2.566   3.097 -0.1621  0.4284  0.7795
  855SOL    HW1 2564   0.833   2.535   0.006  2.3131  1.7266 -0.6436
  855SOL    HW2 2565   0.673   2.488   3.074  0.4016 -2.1328  0.8614
  856SOL     OW 2566   3.043   0.174   2.050  0.7720 -0.0452 -0.0539
  856SOL    HW1 2567   0.005   0.223   1.985 -0.7312 -0.9148  2.2799
  856SOL    HW2 2568   3.054   0.211   2.143 -2.0215 -0.4262 -0.6462
  857SOL     OW 2569   0.653   0.746   1.849  0.3782  0.5108  0.2087
  857SOL    HW1 2570   0.688   0.669   1.905  1.6054 -2.0040  0.1389
  857SOL    HW2 2571   0.722   0.819   1.850 -2.6847 -0.3074 -0.8707
  858SOL     OW 2572   0.452   1.286   2.301  0.1216 -0.4030  0.3445
  858SOL    HW1 2573   0.367   1.332   2.331 -0.1064  0.6027 -0.5025
  858SOL    HW2 2574   0.504   1.247   2.380 -0.0717 -1.0932 -1.9986
  859SOL     OW 2575   2.213   0.033   0.451  0.4840 -0.4674  0.4454
  859SOL    HW1 2576   2.223   3.049   0.390 -0.1238 -0.7752  1.5703
  859SOL    HW2 2577   2.128   0.086   0.432 -2.0498 -2.2117  0.4330
  860SOL     OW 2578   1.657   2.935   2.846 -0.1599  0.1731  0.0213
  860SOL    HW1 2579   1.694   2.983   2.762  0.3790  0.4817 -3.1509
  860SOL    HW2 2580   1.732   2.913   2.911  0.6877  1.5469 -2.3088
  861SOL     OW 2581   0.227   0.608   0.427  0.1424 -0.0506  0.6848
  861SOL    HW1 2582   0.209   0.679   0.361  1.1263 -1.9529 -0.4909
  861SOL    HW2 2583   0.169   0.610   0.508  1.3270 -0.4870 -0.8562
  862SOL     OW 2584   1.616   0.343   2.095  0.3597  0.1484  0.0065
  862SOL    HW1 2585   1.655   0.254   2.126 -0.5196  2.4786  1.4849
  862SOL    HW2 2586   1.560   0.328   2.012 -1.4780 -0.5744  2.6571
  863SOL     OW 2587   2.884   2.152   1.126 -0.3107 -0.0901  0.7539
  863SOL    HW1 2588   2.923   2.145   1.032 -0.5644  1.1868 -0.5911
  863SOL    HW2 2589   2.812   2.217   1.119  0.7276 -3.2251 -1.0074
  864SOL     OW 2590   2.268   2.860   1.836  0.1281 -0.0561  0.0647
  864SOL    HW1 2591   2.232   2.955   1.823  2.7072  0.1621  2.9477
  864SOL    HW2 2592   2.212   2.814   1.905  2.7105  2.0976 -2.2178
  865SOL     OW 2593   1.189   0.527   1.275  0.1379  0.2760  0.4287
  865SOL    HW1 2594   1.194   0.544   1.374  2.0864 -0.4291 -2.7524
  865SOL    HW2 2595   1.135   0.439   1.253  0.8229 -1.5902 -0.9487
  866SOL     OW 2596   2.564   2.966   0.838  0.1386  0.3252 -0.0096
  866SOL    HW1 2597   2.581   2.970   0.738  0.9876  1.1548  2.3059
  866SOL    HW2 2598   2.620   2.894   0.885 -0.6762  0.7547  2.2792
  867SOL     OW 2599   2.891   2.898   0.653 -0.4046  0.4448 -0.4144
  867SOL    HW1 2600   2.891   2.911   0.552 -1.3756  2.4918  1.6248
  867SOL    HW2 2601   2.832   2.822   0.673  2.5456 -1.2691  0.6643
  868SOL     OW 2602   1.164   2.288   2.456  0.2783  0.4489 -0.4272
  868SOL    HW1 2603   1.154   2.202   2.503  2.8393 -0.6921 -0.9806
  868SOL    HW2 2604   1.090   2.288   2.383 -0.7598 -3.0014 -2.0518
  869SOL     OW 2605   1.797   2.093   0.037 -0.3600 -0.3580 -0.1652
  869SOL    HW1 2606   1.799   2.190   0.058 -0.3191  1.3913 -1.9387
  869SOL    HW2 2607   1.805   2.033   0.120  0.3792 -3.8490  1.8889
  870SOL     OW 2608   2.627   2.351   0.724  0.1183  0.2202  0.0085
  870SOL    HW1 2609   2.715   2.368   0.771  2.2528 -0.1403 -1.3793
  870SOL    HW2 2610   2.629   2.268   0.662 -0.8663 -0.5282 -0.1656
  871SOL     OW 2611   0.255   1.335   1.668 -0.2216 -0.0043 -0.2407
  871SOL    HW1 2612   0.312   1.422   1.650  1.6348 -0.3196 -1.1676
  871SOL    HW2 2613   0.156   1.337   1.644  0.8769 -0.8710  0.5728
  872SOL     OW 2614   0.667   1.631   2.544 -0.4302 -0.1008  0.3432
  872SOL    HW1 2615   0.656   1.669   2.635  1.5912 -1.9678 -0.8199
  872SOL    HW2 2616   0.654   1.704   2.478  0.6592 -0.1926 -0.1534
  873SOL     OW 2617   0.437   2.910   1.829 -0.1905  0.2111  0.1181
  873SOL    HW1 2618   0.449   2.877   1.734  0.3674  1.6013  1.6208
  873SOL    HW2 2619   0.378   2.989   1.829 -0.6952 -3.0580  2.8975
  874SOL     OW 2620   1.228   0.801   2.143 -0.3095  0.4250 -0.0368
  874SOL    HW1 2621   1.306   0.855   2.169 -3.7013  0.9872 -0.0898
  874SOL    HW2 2622   1.250   0.704   2.146 -1.6603  3.5717 -0.1477
  875SOL     OW 2623   2.502   2.666   1.194  0.0813 -0.1215 -0.0248
  875SOL    HW1 2624   2.474   2.753   1.245 -1.2690  1.8309 -0.2617
  875SOL    HW2 2625   2.454   2.677   1.102  3.1003  0.4434  0.8484
  876SOL     OW 2626   1.041   1.264   0.884 -0.2766 -0.3943  0.6852
  876SOL    HW1 2627   1.078   1.224   0.971 -0.1620  0.4048  0.2654
  876SOL    HW2 2628   1.085   1.221   0.803 -1.8219  2.6573  0.2475
  877SOL     OW 2629   2.787   0.282   1.307 -0.4931  0.6611  0.1045
  877SOL    HW1 2630   2.753   0.360   1.250 -3.8882  1.8709  0.8094
  877SOL    HW2 2631   2.887   0.265   1.288  1.0558 -2.6669 -0.7768
  878SOL     OW 2632   2.511   1.638   0.029 -0.7015  0.4277  0.7644
  878SOL    HW1 2633   2.610   1.672   0.036  0.6366 -0.4905 -0.5444
  878SOL    HW2 2634   2.470   1.649   3.031 -1.0313  1.2294  1.0311
  879SOL     OW 2635   2.763   1.988   1.305  0.0783  0.6275 -0.0926
  879SOL    HW1 2636   2.742   2.001   1.405  2.1837  2.6238 -1.3069
  879SOL    HW2 2637   2.800   2.074   1.270  0.9380 -2.3446 -1.0871
  880SOL     OW 2638   0.824   2.435   1.242 -0.0926 -0.4265  0.5240
  880SOL    HW1 2639   0.761   2.488   1.182  2.0977 -0.1538 -1.1100
  880SOL    HW2 2640   0.922   2.464   1.233  0.7477 -1.1098 -2.3734
  881SOL     OW 2641   1.292   1.511   0.815  0.2937  0.5322  0.1269
  881SOL    HW1 2642   1.221   1.497   0.737 -3.3744  1.4258 -2.1757
  881SOL    HW2 2643   1.262   1.577   0.884  0.3914  1.4924 -0.7081
  882SOL     OW 2644   2.870   0.983   2.437 -0.2029 -0.6002 -0.0701
  882SOL    HW1 2645   2.786   1.005   2.382  3.3254  2.5678 -1.3870
  882SOL    HW2 2646   2.860   0.889   2.472  0.6010  1.5790 -0.5255
  883SOL     OW 2647   1.512   0.315   1.126  0.1994 -0.4682  0.4873
  883SOL    HW1 2648   1.473   0.225   1.137  0.0755  4.9650  3.3598
  883SOL    HW2 2649   1.506   0.349   1.028 -0.6661 -1.7692 -1.9753
  884SOL     OW 2650   0.034   2.864   1.174 -0.4016 -0.0964 -0.2479
  884SOL    HW1 2651   0.054   2.962   1.164 -2.6820  0.1232  0.4506
  884SOL    HW2 2652   0.064   2.833   1.267  2.8436 -0.0041  1.2989
  885SOL     OW 2653   1.193   1.341   1.332  0.0817 -0.0292  0.3031
  885SOL    HW1 2654   1.136   1.314   1.415 -0.8498  2.1091 -0.2423
  885SOL    HW2 2655   1.294   1.329   1.349  1.3557  0.2916  1.7418
  886SOL     OW 2656   1.128   0.983   2.888 -0.7210  0.9214  0.0489
  886SOL    HW1 2657   1.138   0.952   2.983  0.9416 -0.3624 -2.2045
  886SOL    HW2 2658   1.215   1.026   2.852  1.0275  0.2146 -0.2949
  887SOL     OW 2659   1.290   0.479   0.723 -0.5366  0.2047  0.0293
  887SOL    HW1 2660   1.287   0.551   0.652 -1.1629 -4.0130  0.8388
  887SOL    HW2 2661   1.223   0.500   0.797 -1.8627  0.1737 -2.7661
  888SOL     OW 2662   2.101   1.173   1.804 -0.5270  0.1254 -0.1891
  888SOL    HW1 2663   2.127   1.212   1.716 -1.4988  0.4282  1.0347
  888SOL    HW2 2664   2.185   1.177   1.863 -0.0913  0.7438 -1.9602
  889SOL     OW 2665   2.683   2.340   1.066  0.0589 -0.1750 -0.2921
  889SOL    HW1 2666   2.727   2.432   1.059 -1.3235  1.4946 -0.8519
  889SOL    HW2 2667   2.585   2.345   1.085  0.7896 -0.0254  0.4299
  890SOL     OW 2668   1.581   1.872   0.600 -0.5180  0.2336  0.0699
  890SOL    HW1 2669   1.595   1.905   0.697  1.4909  1.3818  0.6438
  890SOL    HW2 2670   1.490   1.827   0.597  1.2798  2.9296  1.4472
  891SOL     OW 2671   2.520   0.607   2.294 -0.2079 -0.1281 -0.4932
  891SOL    HW1 2672   2.587   0.629   2.222 -1.3913  0.3372 -0.7736
  891SOL    HW2 2673   2.476   0.519   2.290 -2.1824  2.3915  1.8526
  892SOL     OW 2674   0.454   0.143   1.857 -0.0241 -0.9624  0.4477
  892SOL    HW1 2675   0.366   0.195   1.845 -0.0732  0.7114  1.8844
  892SOL    HW2 2676   0.511   0.146   1.772  0.3270  1.6873  0.3257
  893SOL     OW 2677   1.295   0.307   2.297 -0.1178  0.3391 -0.4406
  893SOL    HW1 2678   1.322   0.220   2.246  1.8213 -1.7858  1.1605
  893SOL    HW2 2679   1.338   0.316   2.389 -1.8513 -0.0590  2.8606
  894SOL     OW 2680   2.644   0.605   0.695  0.0811  0.2524 -0.0028
  894SOL    HW1 2681   2.734   0.629   0.743  3.3129  0.9845 -1.1896
  894SOL    HW2 2682   2.601   0.699   0.682 -2.0123  0.6342 -3.0104
  895SOL     OW 2683   1.901   1.884   2.391 -0.5482 -0.1606  0.0861
  895SOL    HW1 2684   1.977   1.901   2.456 -0.6753  0.9720 -0.0539
  895SOL    HW2 2685   1.839   1.819   2.434  2.4049 -0.7565  0.6870
  896SOL     OW 2686   1.734   0.325   1.484  0.2445 -0.3663  0.1850
  896SOL    HW1 2687   1.774   0.254   1.545 -0.7170  1.9984  0.4331
  896SOL    HW2 2688   1.664   0.381   1.531  1.4996 -1.8611  1.0147
  897SOL     OW 2689   0.608   1.851   1.666 -0.5850 -0.0752 -0.5234
  897SOL    HW1 2690   0.653   1.760   1.646  0.6538  2.2990 -3.2934
  897SOL    HW2 2691   0.573   1.894   1.580 -0.7932 -0.4798 -1.3036
  898SOL     OW 2692   2.116   1.527   1.962 -0.1925 -0.6228 -0.0351
  898SOL    HW1 2693   2.214   1.508   1.960  0.5504 -1.7710 -1.2280
  898SOL    HW2 2694   2.053   1.445   1.979  1.9824  1.2003  0.4000
  899SOL     OW 2695   1.742   2.031   1.083  0.5024  0.0285  0.3810
  899SOL    HW1 2696   1.827   2.072   1.122  4.3121  3.1700  0.6591
  899SOL    HW2 2697   1.665   2.095   1.105 -0.1211 -0.9311  0.3247
  900SOL     OW 2698   0.856   3.027   2.562 -0.3399 -0.5051 -0.3143
  900SOL    HW1 2699   0.856   2.934   2.520 -0.8767  0.5341  1.7057
  900SOL    HW2 2700   0.956   3.053   2.570 -0.0528 -0.6999 -0.2694
  901SOL     OW 2701   1.294   1.370   2.328 -0.4678  0.2699  0.2419
  901SOL    HW1 2702   1.311   1.460   2.377  1.0195 -2.2240  0.2505
  901SOL    HW2 2703   1.334   1.372   2.232  1.5233  4.1664 -0.4927
  902SOL     OW 2704   2.149   0.474   3.095 -0.1865  0.3657 -0.2460
  902SOL    HW1 2705   2.177   0.534   3.013  0.8871  1.2280  0.0918
  902SOL    HW2 2706   2.146   0.530   0.085 -0.3616  1.6624  2.4013
  903SOL     OW 2707   2.289   0.879   2.271  0.2334  0.1715  0.0752
  903SOL    HW1 2708   2.377   0.879   2.215 -1.0205 -0.0983  0.5446
  903SOL    HW2 2709   2.255   0.974   2.279 -1.8309 -0.1636 -0.0002
  904SOL     OW 2710   1.892   1.119   1.629  0.4518  0.4329 -0.9845
  904SOL    HW1 2711   1.897   1.069   1.537 -0.1573  1.0663 -0.4324
  904SOL    HW2 2712   1.985   1.129   1.680  2.9898  1.3895 -0.2577
  905SOL     OW 2713   2.143   0.587   0.789 -0.1186  0.3753 -0.0075
  905SOL    HW1 2714   2.213   0.518   0.757 -1.4191  1.7966  3.2118
  905SOL    HW2 2715   2.155   0.602   0.890  2.4070  1.6812  0.0335
  906SOL     OW 2716   2.401   1.618   0.577  0.4925  0.1464 -0.3585
  906SOL    HW1 2717   2.437   1.639   0.489 -1.4652 -0.3991  3.3856
  906SOL    HW2 2718   2.405   1.702   0.635  0.4905 -0.4554  1.5449
  907SOL     OW 2719   1.386   2.909   0.573  0.6425 -0.4665 -0.1542
  907SOL    HW1 2720   1.405   2.832   0.637  0.1663  0.0443  2.4222
  907SOL    HW2 2721   1.472   2.965   0.560  1.4280  0.8377 -0.8593
  908SOL     OW 2722   1.656   2.260   2.510  0.1750  0.0695  0.0551
  908SOL    HW1 2723   1.673   2.198   2.430 -0.5042 -0.7026  1.1126
  908SOL    HW2 2724   1.699   2.350   2.498 -2.0104  1.3953  2.3119
  909SOL     OW 2725   2.332   0.546   2.021  0.0595 -0.1559 -0.2829
  909SOL    HW1 2726   2.283   0.519   2.107 -2.1490  0.3272  0.9092
  909SOL    HW2 2727   2.406   0.608   2.046  0.6150  0.7493 -1.9574
  910SOL     OW 2728   1.107   0.082   2.565 -0.8077 -0.2436  0.5161
  910SOL    HW1 2729   1.114   0.174   2.601  3.1341 -1.4965  1.1462
  910SOL    HW2 2730   1.141   0.014   2.627 -0.1254  2.3015 -0.3641
  911SOL     OW 2731   2.875   1.032   2.893 -0.6405  0.5433 -0.1307
  911SOL    HW1 2732   2.939   0.956   2.929  1.1739 -1.7014 -1.6666
  911SOL    HW2 2733   2.895   1.114   2.952  0.2028 -0.1963  2.2350
  912SOL     OW 2734   2.960   2.351   1.330 -0.3527  0.0803 -0.4517
  912SOL    HW1 2735   2.953   2.272   1.269 -1.8309  0.3207 -2.5744
  912SOL    HW2 2736   2.869   2.383   1.367  0.3580 -0.4591  1.5401
  913SOL     OW 2737   2.567   1.748   2.634 -0.5462 -0.3493 -0.4064
  913SOL    HW1 2738   2.508   1.801   2.571 -2.2248 -1.8418  0.7526
  913SOL    HW2 2739   2.519   1.725   2.725  2.5983  1.5307 -0.0174
  914SOL     OW 2740   2.063   1.764   0.554  0.4123  0.1065 -0.1172
  914SOL    HW1 2741   2.100   1.693   0.487  0.4111  1.1209 -2.0354
  914SOL    HW2 2742   1.966   1.736   0.567 -0.1869 -1.3197 -0.2614
  915SOL     OW 2743   0.158   2.552   2.181 -0.2404  0.6301  0.0188
  915SOL    HW1 2744   0.203   2.598   2.259  0.1474 -0.9303 -4.3544
  915SOL    HW2 2745   0.227   2.549   2.104  0.9172  0.8078  0.5721
  916SOL     OW 2746   0.751   2.809   0.907 -0.0123 -0.0063  0.1273
  916SOL    HW1 2747   0.831   2.839   0.964  0.8332 -0.2693  3.6344
  916SOL    HW2 2748   0.729   2.882   0.839 -3.0470  0.8107  2.3115
  917SOL     OW 2749   2.416   0.498   2.759  0.2680  0.5193 -0.1873
  917SOL    HW1 2750   2.354   0.554   2.819  0.5276 -0.6725 -1.5830
  917SOL    HW2 2751   2.439   0.562   2.676  2.1118  2.3167 -1.7779
  918SOL     OW 2752   1.590   2.502   2.772  0.0233  0.1157 -0.0040
  918SOL    HW1 2753   1.570   2.450   2.858  1.3204  0.3249  1.7606
  918SOL    HW2 2754   1.686   2.480   2.736 -2.1623  1.5155 -1.6401
  919SOL     OW 2755   1.556   2.209   1.147 -0.9175 -0.2549  0.3703
  919SOL    HW1 2756   1.465   2.245   1.123 -0.8418 -0.9255 -1.7345
  919SOL    HW2 2757   1.564   2.207   1.247  1.0121 -0.1688 -0.8901
  920SOL     OW 2758   1.465   0.038   2.561 -0.5560 -0.9755  0.0421
  920SOL    HW1 2759   1.388   0.004   2.615  2.4184  0.2464 -3.6628
  920SOL    HW2 2760   1.439   0.030   2.466 -2.5621  1.3266  0.8143
  921SOL     OW 2761   0.194   0.886   2.560  0.0759  0.0668  0.3539
  921SOL    HW1 2762   0.232   0.802   2.512  1.5860 -1.4722 -1.9051
  921SOL    HW2 2763   0.133   0.935   2.494  1.4258  0.5281 -0.6332
  922SOL     OW 2764   3.054   1.913   1.183  0.0503  0.4572  0.1708
  922SOL    HW1 2765   2.969   1.969   1.178 -0.3273 -0.8147 -0.0951
  922SOL    HW2 2766   3.053   1.848   1.262 -1.7407  0.4581 -0.0395
  923SOL     OW 2767   0.291   1.663   2.362  0.4848 -0.3118 -0.1995
  923SOL    HW1 2768   0.275   1.740   2.295  0.0258  0.2401  0.6323
  923SOL    HW2 2769   0.230   1.579   2.340  0.0988 -3.3457 -3.8147
  924SOL     OW 2770   1.428   0.079   2.207  0.2615 -0.8976 -0.1079
  924SOL    HW1 2771   1.527   0.072   2.187 -1.7289  1.0256  0.9718
  924SOL    HW2 2772   1.402   3.084   2.244 -0.2725 -2.6997 -0.1421
  925SOL     OW 2773   3.068   1.491   0.660  0.2307 -0.3270  0.3273
  925SOL    HW1 2774   0.003   1.556   0.730 -1.2088  0.6904  0.4579
  925SOL    HW2 2775   0.010   1.399   0.681 -0.7649  1.2900  0.5921
  926SOL     OW 2776   2.484   0.850   1.084 -0.1336  0.9188  0.4828
  926SOL    HW1 2777   2.471   0.748   1.098  1.6844 -0.6208  0.4321
  926SOL    HW2 2778   2.577   0.889   1.124  2.5871  0.5098  2.5687
  927SOL     OW 2779   1.665   0.609   1.145  0.2659 -0.2381  0.0497
  927SOL    HW1 2780   1.625   0.661   1.069  0.9963 -0.9180 -2.3380
  927SOL    HW2 2781   1.591   0.571   1.204  0.9915  1.3095  0.9731
  928SOL     OW 2782   2.992   0.792   2.202  0.1210  0.3857  0.0967
  928SOL    HW1 2783   3.022   0.870   2.263  0.6192 -0.5425  1.6055
  928SOL    HW2 2784   3.074   0.759   2.147 -0.5786 -1.0452  0.6376
  929SOL     OW 2785   2.258   0.969   1.120  0.0848  0.7023  0.2022
  929SOL    HW1 2786   2.350   0.925   1.124 -0.8829  2.3796  1.9005
  929SOL    HW2 2787   2.240   1.006   1.028 -0.0168  0.5221  0.5418
  930SOL     OW 2788   1.815   2.486   0.884 -0.3323 -0.1624 -0.2485
  930SOL    HW1 2789   1.880   2.416   0.913 -2.1073  0.4118  0.9629
  930SOL    HW2 2790   1.731   2.443   0.852  5.0678  1.9911 -0.5134
  931SOL     OW 2791   1.794   1.231   1.274 -0.0077 -0.0072  0.6879
  931SOL    HW1 2792   1.833   1.274   1.190 -0.2276 -0.4662  1.6563
  931SOL    HW2 2793   1.854   1.159   1.307 -2.1639 -1.4369 -0.2223
  932SOL     OW 2794   0.015   0.882   1.717 -0.0613 -0.3561 -0.2469
  932SOL    HW1 2795   3.060   0.910   1.630  0.3928  0.0134 -0.8089
  932SOL    HW2 2796   0.044   0.960   1.773  1.4862  0.2879 -0.7281
  933SOL     OW 2797   2.202   1.727   1.674  0.0045  0.7341 -0.1525
  933SOL    HW1 2798   2.116   1.774   1.659  1.0778  0.3822  2.2123
  933SOL    HW2 2799   2.263   1.761   1.751 -0.7583 -2.0407  3.0166
  934SOL     OW 2800   1.321   2.563   1.875  0.1725  0.1510  0.1263
  934SOL    HW1 2801   1.260   2.557   1.792 -0.7679 -0.9692  2.0382
  934SOL    HW2 2802   1.278   2.616   1.951 -1.8971  0.9630  2.1116
  935SOL     OW 2803   0.130   1.076   1.338 -0.0981 -0.8388 -0.0676
  935SOL    HW1 2804   0.156   1.163   1.393  1.1955  2.9100  1.1157
  935SOL    HW2 2805   0.050   1.027   1.371  1.3008 -1.5062  0.7047
  936SOL     OW 2806   2.786   0.553   1.170  0.2511  0.6088 -0.3564
  936SOL    HW1 2807   2.740   0.496   1.101  0.0287 -1.0544 -1.2279
  936SOL    HW2 2808   2.723   0.595   1.237  2.2019 -1.5098  1.2348
  937SOL     OW 2809   0.843   0.169   1.581  0.3569 -0.3841 -0.8975
  937SOL    HW1 2810   0.900   0.180   1.669  0.9100  0.9516  3.7328
  937SOL    HW2 2811   0.876   0.088   1.531  1.9282  2.1715  1.0249
  938SOL     OW 2812   0.385   2.947   0.993 -0.2555 -0.1383  0.1962
  938SOL    HW1 2813   0.315   2.909   0.931 -1.6963 -0.1044  2.6199
  938SOL    HW2 2814   0.453   3.003   0.941 -0.5869 -1.1319  2.4172
  939SOL     OW 2815   2.794   2.095   3.023 -0.6651  0.1647  0.2728
  939SOL    HW1 2816   2.839   2.054   2.941 -2.5527 -1.2989  0.7906
  939SOL    HW2 2817   2.789   2.196   3.014  1.1033 -0.3068 -0.3255
  940SOL     OW 2818   1.659   1.885   3.025 -0.1259  0.3251 -0.2605
  940SOL    HW1 2819   1.703   1.972   3.063  1.3866  0.8835 -2.9818
  940SOL    HW2 2820   1.695   1.871   2.932  0.9625  1.3398 -1.1552
  941SOL     OW 2821   1.664   2.692   0.465 -0.1094 -0.3050 -0.4908
  941SOL    HW1 2822   1.751   2.733   0.425  1.0925 -0.2462  0.8059
  941SOL    HW2 2823   1.604   2.637   0.396 -1.2080 -4.4567 -2.8915
  942SOL     OW 2824   2.130   1.750   0.854 -0.0105  0.2347 -0.6131
  942SOL    HW1 2825   2.231   1.768   0.847  1.4407 -0.0825 -0.5924
  942SOL    HW2 2826   2.082   1.773   0.768 -2.1194  1.8548  1.6223
  943SOL     OW 2827   1.842   0.547   1.669 -0.1583  0.2707  0.2884
  943SOL    HW1 2828   1.748   0.524   1.635 -0.6276 -0.4089 -2.2303
  943SOL    HW2 2829   1.902   0.582   1.594 -0.5275 -2.2114 -0.8967
  944SOL     OW 2830   1.410   0.725   1.771  0.0107  0.7557 -0.0684
  944SOL    HW1 2831   1.351   0.806   1.780  0.7998 -0.0382  0.3143
  944SOL    HW2 2832   1.504   0.739   1.818  2.1574 -1.5693  0.8480
  945SOL     OW 2833   2.207   2.822   1.246  0.3002 -0.3974 -0.0415
  945SOL    HW1 2834   2.283   2.863   1.194  2.2830  0.2334  2.0547
  945SOL    HW2 2835   2.171   2.894   1.312  3.1523  0.0548  0.4244
  946SOL     OW 2836   0.877   1.672   0.638  0.3481 -0.0996 -0.0565
  946SOL    HW1 2837   0.893   1.718   0.727 -1.0095 -0.7810 -1.5747
  946SOL    HW2 2838   0.813   1.731   0.583 -0.0310 -0.7003  2.4219
  947SOL     OW 2839   1.066   2.850   0.919 -0.5792  0.0984  0.1591
  947SOL    HW1 2840   1.160   2.843   0.958 -1.3330  0.9191  0.9358
  947SOL    HW2 2841   1.031   2.760   0.878  1.6403  0.5899 -2.2101
  948SOL     OW 2842   0.437   1.775   1.318  0.5519 -0.1873  0.0584
  948SOL    HW1 2843   0.362   1.837   1.284 -1.7930  1.0940 -0.2887
  948SOL    HW2 2844   0.408   1.681   1.311 -2.5648  4.0426  1.4343
  949SOL     OW 2845   0.585   1.270   1.604 -0.0580  0.5436  0.1590
  949SOL    HW1 2846   0.630   1.265   1.696  0.2373 -0.9978 -0.5752
  949SOL    HW2 2847   0.653   1.251   1.533  2.2654  3.2405 -0.9153
  950SOL     OW 2848   0.604   0.738   1.322  0.0172 -0.2481  0.3222
  950SOL    HW1 2849   0.657   0.789   1.396 -0.0581 -0.2051 -2.4768
  950SOL    HW2 2850   0.524   0.792   1.292  0.1828  0.2927 -0.5789
  951SOL     OW 2851   0.880   2.053   2.164 -0.4701 -0.1706 -0.6440
  951SOL    HW1 2852   0.834   1.988   2.101  1.2982 -1.6480 -1.2609
  951SOL    HW2 2853   0.951   2.014   2.224 -0.7312 -0.2621 -0.9457
  952SOL     OW 2854   1.021   1.787   0.025 -0.2428 -0.2442 -0.2263
  952SOL    HW1 2855   1.016   1.684   0.030 -1.7067  1.7248 -0.3537
  952SOL    HW2 2856   1.013   1.826   0.120  0.8150 -0.8501  1.5983
  953SOL     OW 2857   1.080   2.786   2.840 -0.0418  0.2999  0.1452
  953SOL    HW1 2858   0.980   2.776   2.837  4.2322  1.1956 -0.9508
  953SOL    HW2 2859   1.105   2.766   2.746  0.3860 -0.0976  0.2502
  954SOL     OW 2860   1.884   1.274   2.861 -0.8309  0.1897 -0.0429
  954SOL    HW1 2861   1.798   1.261   2.910  0.9021  0.0520  1.9416
  954SOL    HW2 2862   1.941   1.343   2.910 -1.1092  0.9236 -0.2004
  955SOL     OW 2863   0.063   2.790   0.043 -0.1956  0.1170  0.3389
  955SOL    HW1 2864   0.133   2.862   0.072  0.7826  2.1694  2.2203
  955SOL    HW2 2865   0.016   2.832   3.060  0.7120  0.1522  1.5615
  956SOL     OW 2866   1.345   0.933   1.416 -0.4888  0.0258 -0.1237
  956SOL    HW1 2867   1.377   0.969   1.327 -1.2288 -2.6001  1.5565
  956SOL    HW2 2868   1.254   0.963   1.439  1.0522 -1.2815  1.0687
  957SOL     OW 2869   1.565   1.867   1.811 -0.2666  0.2143  0.0263
  957SOL    HW1 2870   1.666   1.871   1.830 -0.1805 -1.0051  1.9035
  957SOL    HW2 2871   1.531   1.953   1.765  1.7278 -1.7455  1.4423
  958SOL     OW 2872   1.263   2.059   1.612 -0.2836  0.4555 -0.1464
  958SOL    HW1 2873   1.361   2.091   1.615 -0.7438  2.2572 -0.2903
  958SOL    HW2 2874   1.208   2.102   1.538 -3.0376 -2.1776 -1.2065
  959SOL     OW 2875   1.619   1.350   1.073  0.4384 -0.3948  0.4710
  959SOL    HW1 2876   1.649   1.320   1.167 -3.1566 -1.4930  3.5298
  959SOL    HW2 2877   1.611   1.272   1.007  1.0441  1.1132  1.4305
  960SOL     OW 2878   0.360   1.170   0.086 -0.2158  0.4719  0.0466
  960SOL    HW1 2879   0.406   1.201   0.167  0.3052  0.1336  0.8035
  960SOL    HW2 2880   0.427   1.140   0.018 -0.9760  0.5186  0.6708
  961SOL     OW 2881   0.887   1.540   1.805  0.5359  0.3407 -0.1314
  961SOL    HW1 2882   0.830   1.519   1.885 -0.4863 -0.9265 -0.5798
  961SOL    HW2 2883   0.972   1.592   1.824  1.5102 -0.8141 -0.5447
  962SOL     OW 2884   1.314   1.794   0.578 -0.0356 -0.6311 -0.2737
  962SOL    HW1 2885   1.256   1.714   0.546  0.2119  0.7984 -1.0452
  962SOL    HW2 2886   1.261   1.859   0.637  2.5463  0.1681  1.7216
  963SOL     OW 2887   1.609   1.858   2.581  0.4484 -0.4792 -0.1618
  963SOL    HW1 2888   1.596   1.849   2.481 -1.0406  0.7818 -0.1816
  963SOL    HW2 2889   1.518   1.868   2.632 -4.2638  2.2449  1.5348
  964SOL     OW 2890   0.654   0.017   0.194  0.2076  0.3913 -0.4374
  964SOL    HW1 2891   0.623   3.098   0.292 -2.0439 -3.3264  2.7129
  964SOL    HW2 2892   0.709   3.030   0.173  0.5976 -0.0415  0.1553
  965SOL     OW 2893   0.693   2.586   1.063  0.5340  0.0811  0.1451
  965SOL    HW1 2894   0.750   2.653   1.010 -0.3358  0.3713  0.0960
  965SOL    HW2 2895   0.609   2.634   1.103 -0.9684  1.6943 -1.1414
  966SOL     OW 2896   0.398   1.878   2.601 -0.9348  0.2803 -0.0116
  966SOL    HW1 2897   0.358   1.970   2.591  0.2613 -1.7525 -1.4498
  966SOL    HW2 2898   0.356   1.836   2.681 -0.0685 -2.0958 -0.6561
  967SOL     OW 2899   3.021   2.707   2.696  0.2550 -0.1205  0.4059
  967SOL    HW1 2900   2.970   2.771   2.637 -1.1933  0.2109  1.4969
  967SOL    HW2 2901   3.022   2.744   2.789 -0.3493  0.0664 -1.5839
  968SOL     OW 2902   2.125   0.547   0.261  0.0147  0.0803 -0.4844
  968SOL    HW1 2903   2.189   0.472   0.284 -0.0043 -0.1310  0.0785
  968SOL    HW2 2904   2.165   0.637   0.259  0.0535  0.9297  0.6538
  969SOL     OW 2905   0.428   1.224   1.857  0.1085  0.4823  0.2516
  969SOL    HW1 2906   0.386   1.282   1.780  2.1566 -2.0799 -2.9093
  969SOL    HW2 2907   0.513   1.177   1.826  1.1535 -1.0117 -0.5751
  970SOL     OW 2908   2.328   1.413   1.270 -0.8488 -0.5183  0.2332
  970SOL    HW1 2909   2.249   1.368   1.225  1.3858 -2.0746  2.9997
  970SOL    HW2 2910   2.402   1.343   1.282 -4.1799 -0.9669  0.3361
  971SOL     OW 2911   2.184   0.101   1.094 -0.2323 -0.2593 -0.5230
  971SOL    HW1 2912   2.231   0.158   1.016  1.4959  0.5643 -1.5131
  971SOL    HW2 2913   2.238   0.021   1.108 -1.9394  2.8253  2.4900
  972SOL     OW 2914   2.943   2.942   1.815  0.4816  0.2623  0.2200
  972SOL    HW1 2915   3.026   2.887   1.842  2.8805 -1.3322  0.3943
  972SOL    HW2 2916   2.953   2.967   1.712  0.2280  0.8013 -3.1066
  973SOL     OW 2917   0.194   0.504   0.112  0.2933 -0.1604 -0.0121
  973SOL    HW1 2918   0.209   0.583   0.175  1.5254 -1.2891 -1.9204
  973SOL    HW2 2919   0.194   0.537   0.016 -0.9840 -1.6988 -1.4675
  974SOL     OW 2920   2.035   1.322   2.227  1.1548 -0.5163  0.5310
  974SOL    HW1 2921   2.075   1.413   2.247 -0.7466 -1.0734 -1.0910
  974SOL    HW2 2922   1.991   1.310   2.136  0.4894 -0.6068  0.1953
  975SOL     OW 2923   2.968   3.015   1.525  0.4978  0.2249 -0.1199
  975SOL    HW1 2924   3.061   3.017   1.480  0.8552  1.2494 -2.2935
  975SOL    HW2 2925   2.907   2.961   1.466 -0.3350 -0.8588 -1.4822
  976SOL     OW 2926   0.359   2.168   2.286 -0.2080 -0.1406  0.3191
  976SOL    HW1 2927   0.433   2.232   2.256 -1.2419 -0.8970  1.1206
  976SOL    HW2 2928   0.362   2.089   2.221  0.5868  2.0412  2.6581
  977SOL     OW 2929   0.975   2.638   0.628  0.4067  0.1116  0.5722
  977SOL    HW1 2930   0.949   2.588   0.540 -0.9657 -3.0365 -1.4446
  977SOL    HW2 2931   1.069   2.680   0.617  2.0756  1.1383 -0.4294
  978SOL     OW 2932   0.053   1.657   2.536  0.0665 -0.2329  0.0741
  978SOL    HW1 2933   0.141   1.608   2.512  0.9363 -0.4161  2.4070
  978SOL    HW2 2934   0.046   1.675   2.637 -0.6623 -0.3298  2.7438
  979SOL     OW 2935   1.685   2.446   1.462 -0.3860  0.7820 -0.2331
  979SOL    HW1 2936   1.623   2.407   1.536  0.1632 -2.5216 -1.8934
  979SOL    HW2 2937   1.782   2.420   1.478 -0.7615  1.6260  0.6392
  980SOL     OW 2938   0.562   1.761   3.005 -0.0141  0.2215 -0.2428
  980SOL    HW1 2939   0.570   1.662   3.022  0.1293 -0.6138  2.4870
  980SOL    HW2 2940   0.562   1.804   3.096  1.0755 -3.2630 -1.4912
  981SOL     OW 2941   2.229   3.068   2.391 -0.3773  0.1184 -0.1895
  981SOL    HW1 2942   2.258   3.048   2.299  0.4180 -2.0031  2.8584
  981SOL    HW2 2943   2.223   2.985   2.449 -0.3589  0.3147  0.7222
  982SOL     OW 2944   3.038   0.268   2.824  0.5731 -0.4256  1.1330
  982SOL    HW1 2945   2.934   0.278   2.823 -0.5114  0.5388  0.9183
  982SOL    HW2 2946   3.068   0.177   2.779 -0.8616  0.3900 -0.6786
  983SOL     OW 2947   1.945   1.308   1.978 -0.0805  0.0574  0.2877
  983SOL    HW1 2948   2.010   1.268   1.911 -5.5509 -0.6684 -0.4287
  983SOL    HW2 2949   1.887   1.237   2.019  1.9358  0.4025 -0.3744
  984SOL     OW 2950   1.291   0.511   1.893  0.4131  0.4469 -0.4246
  984SOL    HW1 2951   1.308   0.540   1.987 -0.6692 -1.8582 -4.9136
  984SOL    HW2 2952   1.312   0.586   1.831 -0.8134  1.0852 -1.1164
  985SOL     OW 2953   1.660   1.455   1.709 -0.4900  0.0264 -0.2020
  985SOL    HW1 2954   1.608   1.533   1.676 -1.5498  1.2141 -0.0986
  985SOL    HW2 2955   1.670   1.385   1.637  0.7278  0.5648  1.8645
  986SOL     OW 2956   1.985   0.356   1.816 -0.4748 -0.3030  0.2537
  986SOL    HW1 2957   2.077   0.397   1.799  0.2067 -2.0161  0.5211
  986SOL    HW2 2958   1.906   0.417   1.785 -1.1663  3.2811  1.8076
  987SOL     OW 2959   2.268   0.580   1.554  0.0295 -0.1566  0.1176
  987SOL    HW1 2960   2.238   0.538   1.644 -0.5572 -0.1933  2.3896
  987SOL    HW2 2961   2.195   0.639   1.512  1.5472  1.2441 -0.0869
  988SOL     OW 2962   2.707   0.730   2.117  0.2751 -0.6198 -0.1268
  988SOL    HW1 2963   2.731   0.659   2.047 -1.7518 -0.9300  0.6847
  988SOL    HW2 2964   2.773   0.738   2.193 -2.6725 -0.5281 -1.4823
  989SOL     OW 2965   2.251   1.842   2.874 -0.2332  0.1245  0.3655
  989SOL    HW1 2966   2.176   1.855   2.802 -3.8731  1.5586  1.2984
  989SOL    HW2 2967   2.209   1.847   2.965  0.1410 -1.6233 -0.4608
  990SOL     OW 2968   1.290   0.538   2.864 -0.2688  0.1500  0.2830
  990SOL    HW1 2969   1.359   0.471   2.830  0.3501 -0.0301  1.7998
  990SOL    HW2 2970   1.291   0.625   2.812 -0.7108  2.5958 -0.3427
  991SOL     OW 2971   1.505   0.785   0.221 -0.1603  0.0741 -0.6662
  991SOL    HW1 2972   1.554   0.708   0.270  0.4868  1.4565  2.0925
  991SOL    HW2 2973   1.484   0.764   0.122  1.2618  2.1734 -0.8920
  992SOL     OW 2974   2.405   1.618   2.836 -0.0091 -0.1427  0.1811
  992SOL    HW1 2975   2.363   1.531   2.856  3.4177 -0.1359  1.2926
  992SOL    HW2 2976   2.340   1.697   2.845  2.2216 -1.4809 -0.9758
  993SOL     OW 2977   0.397   0.406   0.403 -0.3166  0.2972 -0.1285
  993SOL    HW1 2978   0.373   0.311   0.371 -0.5028  0.6347  1.3039
  993SOL    HW2 2979   0.319   0.469   0.403 -0.5840  0.8402  0.0065
  994SOL     OW 2980   0.156   1.802   2.140 -0.3553  0.0108  0.1019
  994SOL    HW1 2981   0.067   1.768   2.173 -0.6851  2.3202  1.2884
  994SOL    HW2 2982   0.200   1.736   2.074 -2.5035  1.5983 -0.2112
  995SOL     OW 2983   1.982   1.255   2.478  0.6731  0.3076  0.0097
  995SOL    HW1 2984   1.983   1.283   2.378 -1.5427  0.7715  0.2622
  995SOL    HW2 2985   2.072   1.233   2.515  2.2930  0.0751 -0.5944
  996SOL     OW 2986   2.082   1.664   2.557  0.0837  0.6243 -0.5267
  996SOL    HW1 2987   2.105   1.661   2.460  1.5113  1.1091  1.2814
  996SOL    HW2 2988   1.984   1.644   2.579 -3.8428  0.5511 -1.7357
  997SOL     OW 2989   2.310   1.448   1.667  0.2268 -0.2011  0.0071
  997SOL    HW1 2990   2.407   1.455   1.635 -0.0158 -0.0238 -2.0352
  997SOL    HW2 2991   2.277   1.540   1.696 -2.0236 -0.3846 -1.8910
  998SOL     OW 2992   2.510   1.403   0.368 -1.0616 -0.6124  0.4162
  998SOL    HW1 2993   2.469   1.384   0.459  0.5858  0.0901 -2.4390
  998SOL    HW2 2994   2.464   1.338   0.305  0.4320 -0.4450 -1.4139
  999SOL     OW 2995   2.636   2.669   0.497  0.2551 -0.0642 -0.2948
  999SOL    HW1 2996   2.698   2.662   0.579  2.1752 -0.9071 -1.2003
  999SOL    HW2 2997   2.596   2.759   0.489  1.8185 -1.6932 -1.1766
 1000SOL     OW 2998   0.472   0.040   2.095  0.0476 -0.3345  0.4077
 1000SOL    HW1 2999   0.452   0.085   2.003 -0.8298  2.9326 -1.8385
 1000SOL    HW2 3000   0.511   0.113   2.156  1.4197  0.1078 -0.7939
   3.09792   3.09792   3.09792
